/*--------------------------------*- C++ -*----------------------------------*\
| =========                 |                                                 |
| \\      /  F ield         | OpenFOAM: The Open Source CFD Toolbox           |
|  \\    /   O peration     | Version:  2306                                  |
|   \\  /    A nd           | Website:  www.openfoam.com                      |
|    \\/     M anipulation  |                                                 |
\*---------------------------------------------------------------------------*/
FoamFile
{
    version     2.0;
    format      ascii;
    arch        "LSB;label=32;scalar=64";
    class       volVectorField;
    location    "0";
    object      U;
}
// * * * * * * * * * * * * * * * * * * * * * * * * * * * * * * * * * * * * * //

dimensions      [0 1 -1 0 0 0 0];

internalField   uniform (0.24 0 0);

boundaryField
{
    inlet-1
    {
        type            decayingTurbulenceInflowGeneratorMod;
        direction       1;
        value           nonuniform List<vector> 
2560
(
(10.2174 0.0177071 -0.00953532)
(10.3159 0.0171128 -0.011103)
(10.3687 0.0164092 -0.0118595)
(10.4193 0.0157673 -0.0124555)
(10.46 0.0150567 -0.012479)
(10.5049 0.0145556 -0.0119722)
(10.5615 0.013982 -0.0111169)
(10.5844 0.013327 -0.00982176)
(10.6075 0.0126499 -0.00840448)
(10.6406 0.0118538 -0.00647179)
(10.6745 0.0110459 -0.00451766)
(10.7046 0.0100865 -0.00223373)
(10.7334 0.00906863 -9.92921e-06)
(10.7587 0.00795046 0.00223385)
(10.7575 0.00680883 0.00443029)
(10.7437 0.00559275 0.00630211)
(10.7416 0.00439224 0.00787099)
(10.7545 0.00328314 0.00909877)
(10.7571 0.00229147 0.00976407)
(10.7543 0.00137006 0.0101341)
(10.7543 0.000684853 0.010078)
(10.7571 -0.000338149 0.00964667)
(10.754 -0.00124907 0.00884341)
(10.7537 -0.00227941 0.00744793)
(10.7562 -0.0034726 0.00562249)
(10.7553 -0.00466146 0.00348965)
(10.744 -0.00573961 0.000985679)
(10.7189 -0.00681098 -0.00153411)
(10.7212 -0.0077894 -0.00419634)
(10.7068 -0.00871391 -0.00688412)
(10.6837 -0.00947904 -0.00938203)
(10.6574 -0.0102158 -0.0118064)
(10.6318 -0.0109216 -0.0137252)
(10.6038 -0.0116249 -0.0156464)
(10.5586 -0.0121445 -0.0167024)
(10.5139 -0.0126796 -0.0177292)
(10.4238 -0.0129182 -0.0181669)
(10.3161 -0.0134316 -0.018208)
(10.2537 -0.0140151 -0.0179426)
(10.1963 -0.0143973 -0.0172236)
(10.2426 0.0168969 -0.00968661)
(10.351 0.0163131 -0.0111922)
(10.4307 0.0157811 -0.0123709)
(10.4788 0.0151936 -0.0127607)
(10.5488 0.0146604 -0.0130098)
(10.6269 0.0142323 -0.0124677)
(10.703 0.0136954 -0.0118271)
(10.7373 0.0131545 -0.0106018)
(10.7655 0.012532 -0.00911179)
(10.785 0.0118148 -0.00741706)
(10.8003 0.0110169 -0.00546515)
(10.8123 0.0101347 -0.00339519)
(10.8214 0.0091406 -0.00117409)
(10.8257 0.00802266 0.000952989)
(10.8509 0.00682874 0.003108)
(10.831 0.00558266 0.00499595)
(10.8081 0.00432711 0.00671326)
(10.8374 0.00312361 0.00790465)
(10.8698 0.00196279 0.0087396)
(10.8954 0.000863408 0.0092382)
(10.8954 -0.000225232 0.0092461)
(10.8688 -0.00131696 0.00868756)
(10.8652 -0.00244445 0.00773898)
(10.9009 -0.00362702 0.00642685)
(10.8755 -0.00489546 0.00444243)
(10.8443 -0.0061301 0.00228588)
(10.812 -0.00732445 -8.39659e-05)
(10.8124 -0.00839283 -0.00259191)
(10.8348 -0.00938044 -0.00517967)
(10.8133 -0.0102118 -0.00765196)
(10.777 -0.0109582 -0.010145)
(10.7412 -0.0116466 -0.012259)
(10.7068 -0.0123423 -0.0142713)
(10.6675 -0.0128278 -0.0157299)
(10.6303 -0.0132566 -0.0170416)
(10.578 -0.0136157 -0.0177805)
(10.5269 -0.0139361 -0.0181012)
(10.4456 -0.0142127 -0.0182057)
(10.3257 -0.0144738 -0.0177647)
(10.2538 -0.0149355 -0.0169874)
(10.3458 0.0155946 -0.00993444)
(10.4317 0.0151649 -0.0113951)
(10.4867 0.0146683 -0.0125416)
(10.5744 0.0142229 -0.0132513)
(10.6622 0.0137649 -0.013356)
(10.7207 0.0135465 -0.0131387)
(10.7598 0.0129243 -0.0124735)
(10.7948 0.0126349 -0.0114284)
(10.8559 0.011999 -0.00997639)
(10.8722 0.0114606 -0.00831925)
(10.8923 0.0107788 -0.00640685)
(10.9244 0.00993392 -0.00446927)
(10.9552 0.00894224 -0.00241266)
(10.9704 0.00787916 -0.000292724)
(10.9629 0.00669002 0.00175024)
(10.9548 0.00545759 0.00360124)
(10.9475 0.00416881 0.00529908)
(10.9421 0.00294321 0.00660257)
(10.9491 0.00160372 0.00756049)
(10.9706 0.000332861 0.0080509)
(10.9704 -0.00092306 0.00804137)
(10.9489 -0.00218052 0.00752958)
(10.944 -0.00353514 0.00649187)
(10.9662 -0.00476046 0.00502299)
(10.9548 -0.00609875 0.00314136)
(10.9537 -0.00736402 0.00111613)
(10.9461 -0.00851483 -0.00119906)
(10.9405 -0.00962282 -0.00367162)
(10.9358 -0.01061 -0.00607192)
(10.9234 -0.0113985 -0.00850414)
(10.9023 -0.0120551 -0.0107834)
(10.878 -0.0126337 -0.0129088)
(10.8501 -0.0131219 -0.0146768)
(10.818 -0.0134977 -0.0161812)
(10.7594 -0.0138194 -0.017242)
(10.6684 -0.0140757 -0.0177767)
(10.5869 -0.0143289 -0.0181711)
(10.531 -0.0145213 -0.0179787)
(10.4459 -0.014741 -0.0176778)
(10.3165 -0.0149544 -0.0166589)
(10.4282 0.0138283 -0.0100753)
(10.4866 0.0135569 -0.0117301)
(10.5769 0.013291 -0.0127333)
(10.6806 0.0128974 -0.0134839)
(10.7347 0.0126438 -0.0137459)
(10.7741 0.0123223 -0.0135196)
(10.8271 0.0121388 -0.0130488)
(10.8989 0.0117469 -0.0118982)
(10.9688 0.0113262 -0.0107706)
(10.9824 0.0107881 -0.00911732)
(10.9892 0.0102164 -0.00740158)
(10.9983 0.00940245 -0.0054497)
(11.0074 0.00854206 -0.00350931)
(11.0345 0.00746463 -0.00152179)
(11.0635 0.00633664 0.000387473)
(11.0947 0.00515064 0.00220834)
(11.0935 0.00378352 0.00383508)
(11.0948 0.00239637 0.00527534)
(11.0988 0.00104116 0.00635349)
(11.0945 -0.000217738 0.00691003)
(11.0945 -0.00145105 0.00689683)
(11.0988 -0.00274897 0.00629834)
(11.0947 -0.00413961 0.00514856)
(11.0933 -0.00559785 0.00357997)
(11.0937 -0.00703073 0.00179483)
(11.0883 -0.00820488 -0.000222614)
(11.0856 -0.00938219 -0.00236763)
(11.0833 -0.0105327 -0.00464534)
(11.061 -0.0113824 -0.00700777)
(11.0292 -0.012148 -0.00929842)
(10.9947 -0.0127353 -0.0114139)
(10.9562 -0.0132 -0.0133834)
(10.9193 -0.0135658 -0.01502)
(10.8787 -0.0137961 -0.0164568)
(10.8348 -0.0139136 -0.0174271)
(10.7859 -0.0141924 -0.0180287)
(10.6803 -0.0141991 -0.0181903)
(10.5871 -0.0145229 -0.0180562)
(10.5271 -0.0144589 -0.0174939)
(10.4244 -0.0146785 -0.0163092)
(10.4864 0.0118616 -0.0103995)
(10.5377 0.0115229 -0.0119283)
(10.661 0.0114448 -0.0130923)
(10.7375 0.0112126 -0.0137702)
(10.783 0.0110547 -0.0140165)
(10.8457 0.0110526 -0.0138361)
(10.9153 0.0109075 -0.0132264)
(10.9874 0.0106665 -0.0125599)
(11.0279 0.0102796 -0.0112587)
(11.0619 0.00986465 -0.00988945)
(11.0947 0.00928315 -0.00818057)
(11.1238 0.0086525 -0.00645462)
(11.1283 0.00784181 -0.00455907)
(11.1241 0.00690449 -0.00264414)
(11.1229 0.00583574 -0.000779365)
(11.141 0.00452478 0.000915439)
(11.1733 0.00317555 0.00257373)
(11.2076 0.00180812 0.00402066)
(11.2173 0.000548693 0.00505981)
(11.204 -0.000710255 0.00564273)
(11.204 -0.00198803 0.005624)
(11.2173 -0.00330906 0.0049936)
(11.215 -0.00463049 0.00387506)
(11.1728 -0.00602993 0.00230233)
(11.1874 -0.00743365 0.000464583)
(11.207 -0.00880055 -0.00142143)
(11.1737 -0.00993571 -0.00353235)
(11.1417 -0.0109476 -0.00570536)
(11.1108 -0.0118733 -0.00787962)
(11.0762 -0.0124827 -0.00996159)
(11.0412 -0.0130107 -0.0120291)
(11.0079 -0.0133814 -0.0137619)
(10.9701 -0.0136717 -0.0153263)
(10.9287 -0.0138022 -0.0164907)
(10.8866 -0.013927 -0.0174932)
(10.8401 -0.0139811 -0.0178585)
(10.786 -0.0140222 -0.0181988)
(10.6734 -0.0140144 -0.0178011)
(10.5783 -0.0139047 -0.0172794)
(10.5031 -0.0140248 -0.0161591)
(10.5184 0.00941542 -0.0103703)
(10.5872 0.00941128 -0.0121346)
(10.7042 0.0092801 -0.0132039)
(10.7827 0.00927251 -0.0139531)
(10.8542 0.00926138 -0.0142107)
(10.9336 0.00924272 -0.0141024)
(11.0043 0.00928939 -0.0137091)
(11.0362 0.00913362 -0.0129186)
(11.0713 0.00902033 -0.0118187)
(11.1047 0.00867209 -0.0104314)
(11.1337 0.00829346 -0.00890837)
(11.1627 0.00772154 -0.00722264)
(11.1918 0.00701206 -0.00544533)
(11.2212 0.00614639 -0.00369469)
(11.2527 0.00502805 -0.00198373)
(11.26 0.00382941 -0.000236786)
(11.2511 0.00258653 0.00142899)
(11.2527 0.00137961 0.00282182)
(11.2915 0.000100447 0.003835)
(11.3098 -0.00117658 0.00442212)
(11.3098 -0.00249499 0.00439846)
(11.3201 -0.00381979 0.0037465)
(11.3053 -0.00510852 0.00264313)
(11.2511 -0.00638924 0.00112281)
(11.2758 -0.00770053 -0.000716371)
(11.2513 -0.00898769 -0.00267521)
(11.2191 -0.0101801 -0.00460182)
(11.1877 -0.0111222 -0.00660614)
(11.1539 -0.011889 -0.00865479)
(11.1324 -0.0125712 -0.0106344)
(11.1222 -0.0129775 -0.0124098)
(11.1045 -0.0132778 -0.0141414)
(11.0286 -0.0134055 -0.0155242)
(10.9735 -0.0135147 -0.0167563)
(10.9306 -0.0134577 -0.0174141)
(10.8867 -0.0134352 -0.0179843)
(10.7989 -0.0133222 -0.0179496)
(10.7031 -0.0132109 -0.017697)
(10.6245 -0.0129961 -0.0170166)
(10.5166 -0.012954 -0.0155776)
(10.553 0.00690666 -0.0102826)
(10.6259 0.00683974 -0.0120567)
(10.7422 0.00699159 -0.0132783)
(10.8239 0.00704403 -0.0139995)
(10.913 0.0071905 -0.014313)
(11.009 0.00735288 -0.0142534)
(11.0433 0.00742936 -0.0138499)
(11.0789 0.0074976 -0.013201)
(11.1241 0.00744647 -0.0121419)
(11.1695 0.00734347 -0.0108952)
(11.1751 0.00702361 -0.00944387)
(11.2046 0.00658824 -0.00788558)
(11.2632 0.00598826 -0.00627513)
(11.2824 0.0051488 -0.00463966)
(11.2934 0.00421083 -0.00297779)
(11.3267 0.00316723 -0.00124516)
(11.3479 0.002091 0.00031795)
(11.3288 0.000902885 0.00170641)
(11.3384 -0.000341078 0.00271964)
(11.3815 -0.0016353 0.00329529)
(11.3814 -0.0029439 0.00326264)
(11.3796 -0.00426264 0.00261139)
(11.394 -0.00553351 0.00148965)
(11.3479 -0.00679104 -3.57537e-05)
(11.3532 -0.00795154 -0.0017742)
(11.2932 -0.0090866 -0.00371331)
(11.2819 -0.0101041 -0.00560129)
(11.2783 -0.0110373 -0.00745327)
(11.2745 -0.0117939 -0.00927423)
(11.2639 -0.012297 -0.0110991)
(11.2296 -0.0126744 -0.0128318)
(11.1887 -0.0128047 -0.0143168)
(11.1115 -0.0128917 -0.0157257)
(11.0314 -0.0127655 -0.0167244)
(10.9736 -0.012676 -0.0175242)
(10.9289 -0.0123837 -0.0178335)
(10.8579 -0.0122771 -0.0178145)
(10.7223 -0.0119355 -0.0174995)
(10.6663 -0.0116014 -0.0166678)
(10.6042 -0.011545 -0.0154399)
(10.5879 0.00401478 -0.0102044)
(10.6642 0.00425034 -0.0119833)
(10.7707 0.00436448 -0.0132026)
(10.8629 0.00466716 -0.0139572)
(10.9437 0.00491901 -0.0143015)
(11.0452 0.00522748 -0.014205)
(11.0819 0.00547461 -0.0139182)
(11.1318 0.00566834 -0.0132334)
(11.1942 0.00583954 -0.0122944)
(11.2558 0.00579839 -0.0111159)
(11.291 0.0056754 -0.00982009)
(11.2767 0.00539937 -0.00834679)
(11.3391 0.00484832 -0.00690973)
(11.4009 0.00417909 -0.00535619)
(11.3872 0.0034201 -0.00372909)
(11.3687 0.00255817 -0.00219623)
(11.4044 0.00150711 -0.000654369)
(11.4287 0.000411064 0.000668892)
(11.4171 -0.000817259 0.00167688)
(11.4313 -0.00208762 0.00218953)
(11.4312 -0.00339235 0.00215048)
(11.4315 -0.0046837 0.00154451)
(11.4439 -0.00594865 0.00041966)
(11.4445 -0.00710253 -0.00105747)
(11.4373 -0.0082344 -0.00278105)
(11.3872 -0.00918285 -0.00452357)
(11.4009 -0.0100398 -0.00638224)
(11.368 -0.0108321 -0.00815087)
(11.3356 -0.011437 -0.009849)
(11.3038 -0.0118504 -0.0114783)
(11.2686 -0.0120327 -0.0130032)
(11.2332 -0.0121441 -0.0144744)
(11.1933 -0.011988 -0.0156395)
(11.1116 -0.0118564 -0.0166615)
(11.0289 -0.0114759 -0.0173008)
(10.9704 -0.011213 -0.0176138)
(10.8884 -0.0108195 -0.0174981)
(10.7625 -0.0103428 -0.0171168)
(10.7042 -0.010039 -0.0162645)
(10.593 -0.00945027 -0.0148191)
(10.6167 0.00100843 -0.0100362)
(10.7033 0.00123719 -0.0118579)
(10.7951 0.00171219 -0.0130143)
(10.9 0.00201737 -0.0138264)
(10.9588 0.00254966 -0.0140682)
(11.0771 0.00296013 -0.0140752)
(11.1159 0.00339399 -0.0137168)
(11.1972 0.00381995 -0.0131146)
(11.2613 0.00403891 -0.0122567)
(11.3126 0.00423645 -0.0112194)
(11.3426 0.00430042 -0.0099215)
(11.3544 0.00412801 -0.0086541)
(11.4054 0.00373265 -0.00731616)
(11.4394 0.00326298 -0.00585772)
(11.4742 0.00264113 -0.00441918)
(11.4614 0.00181449 -0.00292628)
(11.4496 0.000927271 -0.00153632)
(11.4901 -0.000152337 -0.000262776)
(11.5193 -0.00130733 0.000573997)
(11.514 -0.00256669 0.00103862)
(11.514 -0.00383084 0.000986184)
(11.5193 -0.00511103 0.000418689)
(11.5283 -0.00629544 -0.000547794)
(11.5437 -0.00743252 -0.00197575)
(11.5102 -0.00838196 -0.00356438)
(11.4741 -0.00928328 -0.00527122)
(11.4393 -0.0099878 -0.00693876)
(11.4107 -0.010572 -0.00864006)
(11.3722 -0.0110145 -0.010244)
(11.3394 -0.0112345 -0.0117084)
(11.3067 -0.0113465 -0.0131077)
(11.2702 -0.0112152 -0.01432)
(11.2333 -0.0110485 -0.0155057)
(11.189 -0.0105585 -0.0163722)
(11.1049 -0.0102106 -0.0169707)
(11.0082 -0.00963236 -0.017212)
(10.9119 -0.00912789 -0.0170588)
(10.8011 -0.00846591 -0.01664)
(10.7237 -0.00785579 -0.0156199)
(10.5824 -0.00736455 -0.0141898)
(10.6423 -0.00218067 -0.00981781)
(10.7404 -0.00168295 -0.0115345)
(10.8226 -0.00124712 -0.0127535)
(10.9324 -0.0005572 -0.0134086)
(10.9763 2.73094e-05 -0.0137396)
(11.0879 0.000630883 -0.0136883)
(11.1468 0.00131052 -0.0133399)
(11.2115 0.00178824 -0.0127936)
(11.3133 0.00227623 -0.0120855)
(11.3446 0.00266258 -0.0109569)
(11.3764 0.00283474 -0.00992411)
(11.4087 0.00277122 -0.00874328)
(11.443 0.0026199 -0.00753872)
(11.4778 0.00227216 -0.00623867)
(11.5145 0.00172903 -0.00488959)
(11.5543 0.0010791 -0.0035348)
(11.5425 0.000218269 -0.0021751)
(11.5383 -0.000737145 -0.00111516)
(11.5846 -0.00187273 -0.000300286)
(11.6 -0.00304409 9.06451e-05)
(11.6 -0.00429999 3.79361e-05)
(11.6 -0.00548561 -0.000470841)
(11.6 -0.00664463 -0.00141411)
(11.594 -0.00762948 -0.00264258)
(11.5542 -0.00854501 -0.00420222)
(11.5145 -0.00923334 -0.00578846)
(11.4988 -0.00984346 -0.00736334)
(11.4858 -0.010271 -0.00890603)
(11.4172 -0.0104837 -0.0103562)
(11.3749 -0.0106035 -0.0117206)
(11.3407 -0.0104682 -0.0129696)
(11.3067 -0.0102797 -0.0141577)
(11.2687 -0.00977163 -0.0150897)
(11.2298 -0.00926608 -0.015956)
(11.1235 -0.00851423 -0.0164785)
(11.0415 -0.00791704 -0.0166537)
(10.9582 -0.0071087 -0.0165191)
(10.8384 -0.00633451 -0.0159507)
(10.7462 -0.00559128 -0.0149635)
(10.6142 -0.00480393 -0.0134741)
(10.6395 -0.00538107 -0.00935747)
(10.7253 -0.00477323 -0.0109955)
(10.8379 -0.00403324 -0.0122465)
(10.9579 -0.00326 -0.012896)
(11.0168 -0.00252363 -0.0131994)
(11.0906 -0.00163209 -0.0131)
(11.1771 -0.000906445 -0.0128111)
(11.2156 -0.000180544 -0.0123086)
(11.3303 0.000516218 -0.0114609)
(11.3768 0.00100959 -0.0106387)
(11.41 0.00126802 -0.00964552)
(11.4455 0.00145741 -0.00868764)
(11.4805 0.00138767 -0.00756941)
(11.5175 0.0011716 -0.0064132)
(11.5573 0.000776583 -0.00517957)
(11.5976 0.000187049 -0.00391407)
(11.6415 -0.000507135 -0.00279437)
(11.6336 -0.00144149 -0.00177818)
(11.6263 -0.0024385 -0.00108102)
(11.6223 -0.00358416 -0.000730144)
(11.6223 -0.00470446 -0.000788256)
(11.6263 -0.00586028 -0.0012535)
(11.6337 -0.00686876 -0.00209442)
(11.6414 -0.00782548 -0.00327902)
(11.5975 -0.00854178 -0.00459651)
(11.577 -0.00915841 -0.00608491)
(11.5947 -0.00957762 -0.00755366)
(11.5608 -0.00983127 -0.00894629)
(11.4908 -0.00994547 -0.0102899)
(11.42 -0.00979012 -0.0114444)
(11.375 -0.0096001 -0.0125935)
(11.3395 -0.00912946 -0.0135939)
(11.304 -0.00845935 -0.0145794)
(11.2642 -0.00771471 -0.0152208)
(11.1338 -0.00685447 -0.0158014)
(11.0766 -0.00592792 -0.0159318)
(10.9733 -0.00505244 -0.015749)
(10.8748 -0.00404926 -0.0151637)
(10.7683 -0.00304731 -0.0141209)
(10.6504 -0.00222014 -0.0126677)
(10.6489 -0.00852058 -0.00875925)
(10.7028 -0.00788028 -0.0104126)
(10.8342 -0.00691217 -0.0114236)
(10.9649 -0.00606031 -0.0122353)
(11.0735 -0.0049158 -0.012392)
(11.1465 -0.00394744 -0.0123264)
(11.2073 -0.00308601 -0.0121214)
(11.241 -0.00210585 -0.0114629)
(11.3331 -0.00130007 -0.0107706)
(11.4088 -0.00071836 -0.0100061)
(11.4455 -0.000247638 -0.00929207)
(11.4816 -2.60672e-05 -0.00840021)
(11.5197 9.50855e-05 -0.00747211)
(11.5592 -2.66944e-05 -0.00639806)
(11.5998 -0.000310135 -0.00530532)
(11.6442 -0.000762285 -0.00424602)
(11.6889 -0.00139393 -0.00317916)
(11.7 -0.00212774 -0.0023293)
(11.7 -0.00310129 -0.00171008)
(11.7287 -0.00406998 -0.00140616)
(11.7287 -0.00515148 -0.00146476)
(11.7 -0.00612366 -0.00189292)
(11.7 -0.00710436 -0.00264962)
(11.6888 -0.00784596 -0.00366692)
(11.6623 -0.00848583 -0.0049309)
(11.6761 -0.00893316 -0.00620371)
(11.6591 -0.00920839 -0.0075179)
(11.6196 -0.00933318 -0.00883163)
(11.5631 -0.00920419 -0.00997618)
(11.4909 -0.00899265 -0.0110703)
(11.4174 -0.00850643 -0.0120074)
(11.3724 -0.00792582 -0.0129268)
(11.3358 -0.00709504 -0.0136994)
(11.276 -0.00606949 -0.0143907)
(11.1543 -0.00506588 -0.0147909)
(11.1113 -0.00396736 -0.0150774)
(10.9796 -0.00281887 -0.0147575)
(10.908 -0.00162015 -0.0142029)
(10.7842 -0.000560821 -0.0131369)
(10.6833 0.000568332 -0.0117223)
(10.6803 -0.011692 -0.00818019)
(10.7307 -0.0107531 -0.00949264)
(10.8327 -0.00978224 -0.0105546)
(10.9555 -0.00861989 -0.0111851)
(11.0716 -0.00730937 -0.011427)
(11.188 -0.00627667 -0.011442)
(11.237 -0.00510951 -0.0109906)
(11.271 -0.0040624 -0.0104824)
(11.3296 -0.00316728 -0.00990638)
(11.423 -0.00244614 -0.00935979)
(11.4806 -0.00190852 -0.00870401)
(11.5197 -0.00150043 -0.00800228)
(11.5604 -0.00136718 -0.00715882)
(11.6011 -0.0013024 -0.00626436)
(11.6457 -0.00148831 -0.0053124)
(11.6907 -0.00180335 -0.00432248)
(11.7383 -0.00228576 -0.00345642)
(11.7454 -0.00296723 -0.00268698)
(11.7397 -0.00370243 -0.00216342)
(11.7909 -0.00463283 -0.00191392)
(11.7908 -0.00548864 -0.00196733)
(11.7397 -0.00641696 -0.00233563)
(11.7454 -0.00714804 -0.00299685)
(11.7382 -0.00782456 -0.00392801)
(11.7 -0.00829155 -0.00497542)
(11.7 -0.00858264 -0.00617964)
(11.7 -0.00874334 -0.00735033)
(11.6603 -0.0086649 -0.00842802)
(11.6197 -0.00844597 -0.00953954)
(11.561 -0.00798522 -0.0104602)
(11.4862 -0.00740468 -0.0113114)
(11.4112 -0.00661568 -0.012025)
(11.3683 -0.00565484 -0.0126276)
(11.2799 -0.00448612 -0.0132072)
(11.1881 -0.00319906 -0.01367)
(11.1188 -0.00193374 -0.0137853)
(10.9933 -0.000510639 -0.0136791)
(10.9394 0.000732541 -0.0129999)
(10.7944 0.00206235 -0.011997)
(10.7154 0.00330083 -0.0106711)
(10.6776 -0.0146147 -0.00731709)
(10.7599 -0.0135632 -0.00855294)
(10.8298 -0.0124987 -0.00957922)
(10.9461 -0.0109465 -0.0100703)
(11.0629 -0.00974359 -0.0103514)
(11.1798 -0.00840904 -0.010147)
(11.266 -0.00713931 -0.00976052)
(11.3025 -0.00605002 -0.00933701)
(11.3793 -0.00508587 -0.00897552)
(11.4559 -0.00423796 -0.00853986)
(11.5176 -0.00358595 -0.00801381)
(11.5593 -0.00313429 -0.00739958)
(11.6012 -0.00278907 -0.00671408)
(11.6463 -0.00269612 -0.00593312)
(11.6916 -0.00267252 -0.00510431)
(11.7396 -0.00289851 -0.00429122)
(11.7883 -0.00325097 -0.00350047)
(11.8 -0.00373876 -0.00289452)
(11.8 -0.0044081 -0.00243525)
(11.8 -0.00507552 -0.0022227)
(11.8 -0.00588857 -0.00227281)
(11.8 -0.00654622 -0.00259154)
(11.8 -0.00720482 -0.0031839)
(11.7882 -0.00767662 -0.00393886)
(11.7395 -0.00799787 -0.00490766)
(11.7 -0.0081864 -0.0059104)
(11.7 -0.0080996 -0.00695496)
(11.7 -0.00793361 -0.00794733)
(11.6592 -0.0074938 -0.00885339)
(11.596 -0.00693437 -0.00966656)
(11.5 -0.00617798 -0.0103526)
(11.4396 -0.00521998 -0.0109051)
(11.4012 -0.00413038 -0.0113573)
(11.2837 -0.00285574 -0.011834)
(11.2196 -0.00138827 -0.0122937)
(11.1208 0.000103511 -0.012408)
(11.025 0.00165177 -0.012216)
(10.9484 0.00315811 -0.0116759)
(10.8034 0.00456414 -0.0107427)
(10.6983 0.00584196 -0.00942382)
(10.6661 -0.0172796 -0.00622825)
(10.7877 -0.0161344 -0.00752818)
(10.8646 -0.0147825 -0.00831577)
(10.9539 -0.0133273 -0.00885168)
(11.0552 -0.0118817 -0.00899494)
(11.1727 -0.0104685 -0.00874838)
(11.2905 -0.00918305 -0.00844994)
(11.3343 -0.00804424 -0.00818836)
(11.3837 -0.00695046 -0.00792935)
(11.4795 -0.00606317 -0.00756843)
(11.5575 -0.00531937 -0.00716615)
(11.5999 -0.00474199 -0.00666135)
(11.6458 -0.00432796 -0.00608127)
(11.6917 -0.00401984 -0.00543763)
(11.7396 -0.00393498 -0.0047428)
(11.7883 -0.0039391 -0.00403396)
(11.8 -0.00418395 -0.00341101)
(11.8 -0.00454495 -0.00285638)
(11.846 -0.00500071 -0.00251992)
(11.8588 -0.00560147 -0.00232598)
(11.8587 -0.0061235 -0.00236569)
(11.8459 -0.00671138 -0.00266363)
(11.8 -0.00715291 -0.00311741)
(11.8 -0.007482 -0.00381654)
(11.7882 -0.00768559 -0.00459548)
(11.7395 -0.00762313 -0.00548424)
(11.7 -0.00746624 -0.00636312)
(11.7 -0.00704839 -0.00720687)
(11.6774 -0.00650644 -0.00797072)
(11.5783 -0.00578088 -0.00864405)
(11.5146 -0.00485939 -0.00919439)
(11.4744 -0.00381198 -0.00967107)
(11.3886 -0.00252677 -0.0100173)
(11.2937 -0.00118685 -0.0103603)
(11.2519 0.00034645 -0.0106708)
(11.1243 0.0020626 -0.010889)
(11.0578 0.00367189 -0.0106944)
(10.9558 0.00540299 -0.0102488)
(10.8105 0.00688267 -0.00931295)
(10.6771 0.00837268 -0.00816203)
(10.6572 -0.0194023 -0.00515138)
(10.7917 -0.018288 -0.00634071)
(10.9047 -0.0169168 -0.00701517)
(11.0024 -0.0155353 -0.00758237)
(11.0493 -0.0138144 -0.00748512)
(11.1672 -0.0125047 -0.00727421)
(11.2708 -0.0111966 -0.00709886)
(11.3669 -0.00990284 -0.00696192)
(11.4106 -0.00882465 -0.00673227)
(11.4617 -0.00783678 -0.00649871)
(11.561 -0.00703302 -0.006155)
(11.6444 -0.00625075 -0.00575668)
(11.6908 -0.00573627 -0.00527672)
(11.7392 -0.00536234 -0.00475763)
(11.7882 -0.00506914 -0.00418436)
(11.8 -0.0049135 -0.00353723)
(11.8 -0.0050341 -0.00306434)
(11.8461 -0.00526836 -0.00266841)
(11.9 -0.00560334 -0.0023407)
(11.9 -0.00596992 -0.00223898)
(11.9 -0.00641132 -0.00228061)
(11.9 -0.00676849 -0.00246839)
(11.8774 -0.00707743 -0.0029088)
(11.8823 -0.00727738 -0.00342328)
(11.8396 -0.00724663 -0.00411684)
(11.7881 -0.00712049 -0.00483372)
(11.7391 -0.00672055 -0.0055785)
(11.7 -0.00621142 -0.00625622)
(11.6637 -0.00552374 -0.00689552)
(11.5978 -0.00456403 -0.00743924)
(11.5544 -0.00355501 -0.00792117)
(11.5105 -0.00231165 -0.00825342)
(11.4381 -0.00100795 -0.00856412)
(11.3541 0.000535288 -0.00875448)
(11.2619 0.00211085 -0.00895197)
(11.1405 0.00378362 -0.00909519)
(11.093 0.00556108 -0.00915369)
(10.9572 0.00731821 -0.0086242)
(10.8122 0.00897933 -0.00781061)
(10.6591 0.010476 -0.00675319)
(10.6522 -0.0212937 -0.00421024)
(10.7746 -0.0201144 -0.00501667)
(10.8939 -0.0185971 -0.00579117)
(11.0147 -0.0171644 -0.00601403)
(11.0755 -0.0157718 -0.00591622)
(11.1529 -0.0143609 -0.00580014)
(11.2496 -0.0129804 -0.00573934)
(11.3462 -0.0117128 -0.00561327)
(11.4453 -0.0105259 -0.00548463)
(11.4944 -0.00953835 -0.00526793)
(11.5469 -0.0085289 -0.00503673)
(11.6504 -0.00771555 -0.00469955)
(11.7177 -0.00704101 -0.00433317)
(11.7752 -0.00650699 -0.00387723)
(11.8 -0.00603953 -0.00339543)
(11.8 -0.00585846 -0.00296376)
(11.8463 -0.00584441 -0.00258563)
(11.9 -0.00588725 -0.00221847)
(11.9 -0.00608377 -0.00204083)
(11.9 -0.00633504 -0.00193399)
(11.9 -0.00659648 -0.0019689)
(11.9 -0.0068327 -0.00215809)
(11.9 -0.007005 -0.00242169)
(11.9 -0.00700173 -0.00290085)
(11.8919 -0.00692832 -0.00339285)
(11.8396 -0.00663232 -0.00395276)
(11.7883 -0.00607073 -0.0045656)
(11.7384 -0.00537842 -0.00515414)
(11.6891 -0.0045078 -0.00563557)
(11.6418 -0.00348538 -0.00610788)
(11.5943 -0.00220693 -0.00643235)
(11.5451 -0.000941551 -0.00673847)
(11.446 0.000551406 -0.00692088)
(11.3495 0.00209632 -0.00708919)
(11.2528 0.00378411 -0.00716416)
(11.1602 0.00551946 -0.00724323)
(11.069 0.00733304 -0.00726392)
(10.9499 0.00911394 -0.00693697)
(10.7744 0.0101958 -0.00585669)
(10.463 0.00843418 -0.00331918)
(10.6394 -0.0225556 -0.00325433)
(10.7585 -0.0213636 -0.00390348)
(10.8821 -0.0199665 -0.0044401)
(11.0138 -0.018616 -0.00444864)
(11.1165 -0.0172434 -0.00440863)
(11.2067 -0.0158308 -0.00438849)
(11.2953 -0.0144756 -0.0043315)
(11.3445 -0.0132373 -0.00423692)
(11.4298 -0.0120714 -0.00411086)
(11.5319 -0.0108923 -0.00396151)
(11.5868 -0.00988326 -0.00374971)
(11.6406 -0.00888374 -0.0035235)
(11.7 -0.00807934 -0.00318169)
(11.7392 -0.00744497 -0.00288485)
(11.7918 -0.00694567 -0.00251843)
(11.8462 -0.00652544 -0.00215375)
(11.9 -0.00641291 -0.00186817)
(11.9 -0.00641053 -0.00167097)
(11.9 -0.00645947 -0.00150373)
(11.9 -0.00661106 -0.0014469)
(11.9 -0.00674446 -0.00147581)
(11.9 -0.00686753 -0.00159108)
(11.9 -0.00687947 -0.00184298)
(11.9 -0.00683697 -0.00213013)
(11.9 -0.00662478 -0.00251514)
(11.8746 -0.00614232 -0.00296979)
(11.8166 -0.00550314 -0.0034347)
(11.7602 -0.00462258 -0.00388772)
(11.7049 -0.00348509 -0.00427653)
(11.6166 -0.00204697 -0.00452648)
(11.5145 -0.000362426 -0.00463047)
(11.4209 0.00136753 -0.00470365)
(11.2244 0.00181788 -0.00359252)
(10.6625 -0.00229003 0.00171311)
(7.49652 -0.00216758 0.0116869)
(10.5787 -0.000362308 0.00146163)
(10.6723 0.00360615 -0.000814457)
(10.7977 0.00804244 -0.00311127)
(10.7402 0.0110264 -0.00368597)
(10.651 0.0129164 -0.00336467)
(10.662 -0.0232472 -0.00227684)
(10.7815 -0.0222102 -0.00285429)
(10.8756 -0.0210387 -0.00300187)
(11.0054 -0.0197171 -0.00302263)
(11.1195 -0.0182894 -0.00300011)
(11.2219 -0.0168833 -0.00297201)
(11.3197 -0.0156077 -0.00288577)
(11.3862 -0.0143885 -0.00278339)
(11.4352 -0.0131159 -0.00267344)
(11.5234 -0.0119187 -0.0025255)
(11.5925 -0.0107866 -0.00237012)
(11.6341 -0.00972111 -0.00215475)
(11.7387 -0.00884725 -0.00197545)
(11.7915 -0.00811371 -0.00171731)
(11.8 -0.00745797 -0.00149452)
(11.873 -0.00708717 -0.00124758)
(11.8753 -0.00692591 -0.00106075)
(11.8769 -0.00689198 -0.000940067)
(11.8778 -0.00693511 -0.000884837)
(11.878 -0.00700955 -0.000906213)
(11.877 -0.00701866 -0.00107291)
(11.8748 -0.00684887 -0.00136408)
(11.8262 -0.00634626 -0.0017487)
(10.255 -0.0102874 0.00401318)
(10.3906 -0.00511466 0.00444181)
(11.7102 -0.00352175 -0.00247386)
(11.7119 -0.00356759 -0.00246607)
(11.7158 -0.00347106 -0.00256551)
(11.688 -0.00288103 -0.00273647)
(11.6278 -0.00177582 -0.00291072)
(11.5846 -0.00029096 -0.00308987)
(11.5205 0.00122658 -0.00327343)
(11.4187 0.00285486 -0.00339154)
(11.3389 0.00448587 -0.00350162)
(11.2841 0.00616249 -0.0035776)
(11.1871 0.00794214 -0.00358929)
(11.0794 0.00982766 -0.00357229)
(10.9515 0.0115203 -0.00354871)
(10.8007 0.0130763 -0.00322849)
(10.6599 0.0143941 -0.00279037)
(10.6227 -0.0233749 -0.00124071)
(10.8116 -0.0226913 -0.00161433)
(10.8791 -0.0214557 -0.00172834)
(10.9966 -0.0202547 -0.00167593)
(11.1061 -0.0188873 -0.00162479)
(11.2084 -0.0175797 -0.00154293)
(11.2791 -0.0163132 -0.00142465)
(11.3338 -0.0151199 -0.00128307)
(11.4111 -0.0140726 -0.00112483)
(11.4862 -0.013188 -0.000964364)
(11.3661 -0.0143437 -0.00116009)
(9.47755 -0.00546012 0.000580008)
(11.6565 -0.0107647 -0.00056285)
(11.7241 -0.00949495 -0.000426101)
(11.8029 -0.00834431 -0.000305989)
(11.8578 -0.0074687 -0.000220631)
(11.9 -0.00698551 -0.000180893)
(11.9 -0.00688352 -0.000132559)
(11.9 -0.00682966 -9.7192e-05)
(11.9 -0.00687017 -8.91311e-05)
(11.9 -0.00687901 -0.000113775)
(11.9 -0.00686711 -0.000169207)
(11.9 -0.00676973 -0.000251708)
(11.9 -0.00659758 -0.000342898)
(11.9 -0.00619121 -0.000484029)
(11.8602 -0.00563245 -0.000569447)
(11.8021 -0.00484632 -0.000769315)
(11.791 -0.0038392 -0.000859684)
(11.7301 -0.0027082 -0.00103734)
(11.6239 -0.00139242 -0.00113741)
(11.6 6.57573e-05 -0.00129374)
(11.515 0.00172713 -0.0014044)
(11.4317 0.00338199 -0.00152659)
(11.382 0.00507184 -0.00163315)
(11.3116 0.00676203 -0.00173364)
(11.2059 0.00854818 -0.00179775)
(11.0965 0.0103294 -0.00183184)
(10.9681 0.0119327 -0.00186563)
(10.7982 0.0136041 -0.00176367)
(10.6571 0.0147983 -0.00143089)
(10.4145 -0.0183839 -0.00113768)
(10.7024 -0.0214669 -0.000817071)
(10.922 -0.0213372 -0.000473549)
(11.0155 -0.0200865 -0.000366562)
(11.1093 -0.0188321 -0.000259767)
(11.2087 -0.0175112 -0.000128538)
(11.3119 -0.0161876 3.43122e-05)
(11.3803 -0.0149233 0.000182671)
(11.4323 -0.0136698 0.000335217)
(11.5188 -0.0124232 0.000480125)
(11.6 -0.0111885 0.000577146)
(11.6389 -0.0102052 0.000686427)
(11.738 -0.00921451 0.000717375)
(11.8 -0.00842921 0.000786645)
(11.8024 -0.00779846 0.000749119)
(11.8739 -0.00728534 0.000760526)
(11.9 -0.00697971 0.000722057)
(11.9 -0.00687477 0.00069421)
(11.9 -0.00681788 0.000664611)
(11.9 -0.00684924 0.000630409)
(11.9 -0.00685429 0.00060693)
(11.9 -0.00683172 0.000600432)
(11.9 -0.00673299 0.000601942)
(11.9 -0.00655689 0.000609077)
(11.9 -0.00618474 0.000646432)
(11.8602 -0.00559268 0.000631512)
(11.8 -0.0048115 0.000709722)
(11.7921 -0.003835 0.000657206)
(11.7302 -0.00268715 0.00067798)
(11.6238 -0.00137011 0.000603681)
(11.6 7.27021e-05 0.000564583)
(11.515 0.00173086 0.000459132)
(11.4323 0.00337595 0.000354978)
(11.3825 0.0050628 0.000235036)
(11.3115 0.00674849 0.00012146)
(11.2059 0.00852241 -1.15316e-05)
(11.0965 0.0102889 -0.000126251)
(10.9682 0.0119081 -0.00019338)
(10.7982 0.0135273 -0.000291311)
(10.6572 0.0147288 -0.000454852)
(10.662 -0.0231083 7.79825e-05)
(10.7819 -0.0220515 0.000648255)
(10.8838 -0.0209154 0.000838291)
(11.0054 -0.0195961 0.000962086)
(11.1193 -0.0181664 0.00113661)
(11.2219 -0.0167843 0.00132546)
(11.3196 -0.0155182 0.00149238)
(11.3868 -0.0142675 0.0016595)
(11.4359 -0.0130137 0.00182748)
(11.5233 -0.0118612 0.00195577)
(11.6 -0.0106915 0.00205249)
(11.634 -0.00970382 0.00206623)
(11.7397 -0.00881421 0.00208164)
(11.7924 -0.00807306 0.00197703)
(11.8 -0.00745108 0.00189028)
(11.8753 -0.00706675 0.00173967)
(11.9 -0.00674286 0.00160295)
(11.9 -0.00668764 0.00150211)
(11.9 -0.00669645 0.0014093)
(11.9 -0.00672604 0.00134716)
(11.9 -0.00677906 0.0013296)
(11.9 -0.00677197 0.00136216)
(11.9 -0.00673473 0.00143751)
(11.9 -0.00659485 0.00153929)
(11.9 -0.00623168 0.00169444)
(11.8472 -0.0057382 0.00189422)
(11.8 -0.00498535 0.00203495)
(11.7411 -0.00407679 0.00222732)
(11.7 -0.00298238 0.00227847)
(11.6278 -0.00172731 0.0023674)
(11.5854 -0.000260214 0.00234936)
(11.5204 0.00122846 0.0023134)
(11.4187 0.00283755 0.00220854)
(11.3394 0.004451 0.00209644)
(11.285 0.00611682 0.00196187)
(11.1877 0.00787425 0.00179143)
(11.0903 0.0097071 0.00161435)
(10.9517 0.0114388 0.00149649)
(10.8008 0.0129803 0.00116416)
(10.6599 0.0142967 0.000762217)
(10.6393 -0.0223023 0.00105641)
(10.7585 -0.0210775 0.00170048)
(10.8821 -0.0197367 0.00227958)
(11.0138 -0.0183997 0.00240979)
(11.1172 -0.0170267 0.00253617)
(11.2074 -0.0156466 0.00273791)
(11.2961 -0.0143195 0.00292108)
(11.345 -0.0130285 0.00310009)
(11.4297 -0.0118801 0.00325028)
(11.5318 -0.0107504 0.00337526)
(11.5876 -0.00978383 0.00341919)
(11.6404 -0.00881452 0.00342381)