/*--------------------------------*- C++ -*----------------------------------*\
| =========                 |                                                 |
| \\      /  F ield         | OpenFOAM: The Open Source CFD Toolbox           |
|  \\    /   O peration     | Version:  2.3.0                                 |
|   \\  /    A nd           | Web:      www.OpenFOAM.org                      |
|    \\/     M anipulation  |                                                 |
\*---------------------------------------------------------------------------*/
FoamFile
{
    version     2.0;
    format      ascii;
    class       scalarField;
    object      values;
}
// * * * * * * * * * * * * * * * * * * * * * * * * * * * * * * * * * * * * * //


// Data on points
2340
(
1.68362E-05
1.68359E-05
0.000017987
7.49993E-05
1.79861E-05
7.50113E-05
1.90852E-05
7.99107E-05
0.000138874
1.90833E-05
7.99467E-05
0.000138899
2.02521E-05
8.71813E-05
0.00014587
0.000195033
2.02545E-05
8.72493E-05
0.000145947
0.000195067
2.08357E-05
9.46693E-05
0.000157129
0.000203603
0.000247369
2.08419E-05
0.000094678
0.000157246
0.000203694
0.000247403
2.06101E-05
0.000100489
0.000168338
0.000216935
0.000256777
0.000295039
2.08082E-05
0.000100503
0.000168348
0.000217048
0.000256862
0.000295067
2.07662E-05
0.000106176
0.000177251
0.000230375
0.000270972
0.00030439
0.0003378
2.07353E-05
0.000106335
0.000177235
0.000230388
0.000271065
0.000304458
0.00033782
0.000020797
0.000110684
0.000184223
0.000241561
0.000285602
0.00031834
0.000346543
0.000375277
2.07959E-05
0.000110715
0.0001843
0.000241529
0.000285617
0.000318408
0.00034659
0.00037529
2.06573E-05
0.00011338
0.000189483
0.000249937
0.000297941
0.000333065
0.000359603
0.000383137
0.000407487
2.06563E-05
0.000113433
0.000189583
0.000249955
0.000297915
0.000333082
0.00035965
0.00038317
0.000407497
0.000021116
0.000116165
0.000193207
0.000256255
0.000307362
0.00034581
0.00037361
0.000394967
0.000414447
0.00043453
2.11143E-05
0.00011622
0.000193273
0.000256319
0.000307361
0.000345793
0.000373627
0.000394997
0.000414467
0.000434537
0.000021551
0.000121129
0.000196694
0.000261116
0.000314515
0.000355813
0.0003861
0.000407827
0.00042499
0.000440783
0.000456437
2.15505E-05
0.000121148
0.000196757
0.000261177
0.000314549
0.00035581
0.000386093
0.000407837
0.00042501
0.000440797
0.00045644
2.18833E-05
0.000126569
0.00020212
0.000265509
0.000320132
0.00036351
0.00039617
0.00041959
0.000436573
0.000450223
0.000462443
0.000472803
2.18833E-05
0.000126591
0.000202159
0.00026557
0.000320179
0.00036353
0.000396167
0.000419587
0.000436583
0.000450233
0.000462453
0.000472807
2.21256E-05
0.000130541
0.000208068
0.000271024
0.0003251
0.00036957
0.000404033
0.00042933
0.00044738
0.000460633
0.000471207
0.000479553
0.00048399
2.21258E-05
0.000130544
0.000208094
0.000271067
0.000325151
0.000369607
0.000404047
0.00042933
0.000447383
0.00046064
0.000471213
0.00047956
2.23526E-05
0.000133579
0.000213016
0.000276947
0.000330418
0.000374787
0.000410237
0.000437047
0.000456533
0.00047049
0.000480777
0.000488353
0.000494113
0.000494113
2.23537E-05
0.000133579
0.000213022
0.000276971
0.000330457
0.000374827
0.00041026
0.000437057
0.000456537
0.000470493
0.00048078
0.000488357
2.25417E-05
0.000135494
0.000216841
0.000282225
0.000335973
0.00037984
0.000415413
0.00044313
0.000463903
0.00047901
0.000489903
0.000497593
0.000503713
0.00050643
0.000503717
2.25428E-05
0.000135492
0.000216842
0.000282233
0.000335997
0.00037987
0.00041544
0.000443147
0.00046391
0.000479013
0.000489907
0.000497597
2.25429E-05
0.000136199
0.000219343
0.000286411
0.00034106
0.000384843
0.000420097
0.000448087
0.000469723
0.000485993
0.000497957
0.000506397
0.000512967
0.000516943
0.000516947
0.00051297
2.25419E-05
0.000136195
0.000219343
0.000286413
0.00034107
0.00038486
0.000420117
0.000448103
0.000469733
0.000486
0.00049796
0.0005064
2.23541E-05
0.000136197
0.000220547
0.000289267
0.00034517
0.00038942
0.000424477
0.00045234
0.000474377
0.000491563
0.000504723
0.000514353
0.00052175
0.00052657
0.000528197
0.00052657
0.00052175
2.23529E-05
0.000136196
0.000220547
0.000289268
0.000345173
0.00038943
0.00042449
0.000452357
0.000474387
0.00049157
0.000504727
0.000514357
2.21259E-05
0.000135493
0.000220547
0.000290722
0.000348043
0.000393173
0.00042841
0.000456117
0.00047822
0.000495993
0.00051025
0.000521303
0.000529967
0.000535773
0.000538547
0.000538547
0.000535773
0.000529967
2.21257E-05
0.000135492
0.000220547
0.000290723
0.000348047
0.000393177
0.000428417
0.000456127
0.00047823
0.000496
0.000510257
0.000521307
2.18835E-05
0.00013358
0.000219343
0.000290723
0.000349533
0.00039583
0.000431637
0.000459407
0.000481477
0.000499567
0.000514713
0.000527223
0.000537543
0.000544777
0.00054875
0.000549987
0.00054875
0.00054478
0.000537547
2.18833E-05
0.000133573
0.000219343
0.000290724
0.000349537
0.000395837
0.00043164
0.000459413
0.000481487
0.000499573
0.00051472
0.000527227
2.15509E-05
0.000130542
0.000216839
0.000289267
0.000349533
0.000397217
0.000433933
0.000462077
0.000484223
0.000502493
0.000518317
0.000532217
0.000544437
0.000553617
0.000559243
0.000561757
0.000561757
0.000559247
0.000553617
0.00054444
2.15507E-05
0.000130535
0.000216839
0.000289269
0.000349537
0.00039722
0.000433937
0.000462083
0.00048423
0.0005025
0.000518323
0.00053222
2.11157E-05
0.000126569
0.000213013
0.000286409
0.000348047
0.000397217
0.00043513
0.000463973
0.00048641
0.000504883
0.000521233
0.000536363
0.000550603
0.000562187
0.000570087
0.00057431
0.000575573
0.00057431
0.00057009
0.000562187
0.000550607
2.11141E-05
0.000126563
0.000213015
0.000286413
0.00034805
0.00039722
0.000435133
0.000463977
0.000486413
0.000504887
0.000521237
0.000536367
2.06563E-05
0.000121135
0.000208063
0.000282223
0.00034517
0.000395833
0.00043513
0.00046496
0.000487947
0.000506743
0.000523563
0.000539767
0.00055596
0.000570217
0.000580977
0.000587487
0.000590327
0.000590327
0.000587487
0.000580977
0.00057022
0.000555963
2.06557E-05
0.000121112
0.000208068
0.000282229
0.000345177
0.000395837
0.000435137
0.000464963
0.00048795
0.000506747
0.000523567
0.00053977
0.000020863
0.000116171
0.000202123
0.000276945
0.00034106
0.000393177
0.000433933
0.00046496
0.000488743
0.00050803
0.000525343
0.00054249
0.00056048
0.000577373
0.000591243
0.000600433
0.000605107
0.000606463
0.000605107
0.000600433
0.000591243
0.000577373
0.000560483
2.07787E-05
0.000116173
0.000202121
0.000276954
0.00034107
0.000393183
0.00043394
0.000464963
0.000488747
0.000508033
0.000525347
0.000542493
2.07891E-05
0.000113441
0.000196701
0.00027103
0.000335977
0.000389427
0.00043164
0.000463977
0.000488747
0.000508693
0.00052656
0.000544557
0.00056413
0.00058342
0.000600143
0.000611777
0.000618003
0.00062043
0.00062043
0.000618003
0.000611777
0.000600143
0.00058342
0.000564133
2.06518E-05
0.000113505
0.000196711
0.000271038
0.000335987
0.000389433
0.000431647
0.000463977
0.000488747
0.000508697
0.000526563
0.000544557
2.06627E-05
0.0001107
0.000193247
0.000265523
0.000330427
0.00038485
0.000428417
0.000462083
0.00048795
0.000508697
0.000527183
0.000545957
0.000566903
0.000588237
0.000607247
0.000620397
0.000627167
0.000629837
0.0006305
0.000629833
0.000627163
0.000620397
0.000607247
0.000588237
0.000566907
2.07265E-05
0.000110751
0.000193317
0.000265533
0.000330437
0.000384857
0.00042842
0.000462087
0.00048795
0.000508697
0.000527183
0.000545957
2.08397E-05
0.000106309
0.000189541
0.000261144
0.000325116
0.00037985
0.000424487
0.000459413
0.000486417
0.000508037
0.000527187
0.00054667
0.00056878
0.000591827
0.000612493
0.00062616
0.00063236
0.000634523
0.000635167
0.000635167
0.000634523
0.00063236
0.00062616
0.000612493
0.000591827
0.00056878
2.08405E-05
0.000106347
0.000189574
0.000261177
0.000325126
0.00037986
0.000424493
0.000459417
0.000486417
0.000508033
0.000527183
0.000546667
2.02548E-05
0.000100503
0.000184343
0.000256287
0.000320151
0.000374803
0.00042011
0.000456127
0.000484233
0.00050675
0.000526567
0.00054667
0.000569727
0.0005942
0.000616113
0.00062965
0.000634893
0.0006364
0.000636867
0.000636967
0.000636867
0.0006364
0.000634893
0.000629647
0.000616113
0.0005942
0.000569727
2.02524E-05
0.000100507
0.000184343
0.000256299
0.000320165
0.000374813
0.000420113
0.00045613
0.00048423
0.000506747
0.000526563
0.000546667
1.90862E-05
9.46587E-05
0.000177263
0.000249998
0.000314533
0.000369587
0.00041543
0.000452353
0.00048149
0.00050489
0.000525353
0.000545963
0.00056973
0.00059539
0.00061835
0.000631653
0.000636043
0.000637137
0.000637483
0.00063761
0.00063761
0.000637483
0.000637137
0.00063604
0.000631653
0.00061835
0.000595387
0.000569727
1.90848E-05
9.46647E-05
0.000177253
0.000249981
0.000314535
0.000369593
0.000415433
0.000452357
0.00048149
0.00050489
0.000525347
0.000545957
1.79874E-05
0.000087168
0.000168324
0.000241564
0.000307387
0.000363523
0.00041025
0.0004481
0.000478233
0.000502507
0.000523573
0.000544563
0.000568783
0.00059539
0.000619423
0.000632717
0.000636577
0.000637443
0.000637753
0.00063788
0.000637923
0.00063788
0.000637753
0.000637443
0.000636577
0.000632717
0.00061942
0.000595387
0.00056878
1.79873E-05
8.71967E-05
0.000168335
0.000241553
0.000307375
0.000363523
0.000410253
0.000448103
0.00047823
0.0005025
0.000523567
0.000544557
1.68362E-05
0.000079906
0.000157105
0.000230359
0.00029794
0.000355823
0.000404043
0.000443143
0.00047439
0.000499577
0.000521243
0.0005425
0.000566913
0.000594207
0.000619427
0.00063318
0.000636817
0.00063759
0.000637883
0.000638023
0.000638083
0.000638083
0.00063802
0.000637883
0.00063759
0.000636817
0.000633177
0.00061942
0.0005942
0.000566907
1.68364E-05
7.99167E-05
0.000157137
0.000230373
0.000297936
0.00035582
0.000404047
0.000443143
0.00047439
0.000499573
0.000521237
0.000542493
1.68359E-05
7.49927E-05
0.000145859
0.000216905
0.000285586
0.000345807
0.000396177
0.000437057
0.000469733
0.000496003
0.00051833
0.00053978
0.00056414
0.000591833
0.000618353
0.00063318
0.000636913
0.00063766
0.000637957
0.000638103
0.000638183
0.000638203
0.000638183
0.000638103
0.000637957
0.00063766
0.000636913
0.00063318
0.00061835
0.000591827
0.000564133
1.68364E-05
7.49973E-05
0.000145877
0.000216936
0.000285602
0.00034581
0.000396177
0.00043706
0.000469733
0.000496003
0.000518323
0.000539773
1.79865E-05
7.49967E-05
0.000138856
0.000203584
0.000270945
0.000333051
0.000386097
0.000429333
0.00046391
0.000491573
0.000514727
0.000536377
0.00056049
0.000588247
0.00061612
0.00063272
0.000636913
0.00063769
0.000637997
0.00063816
0.00063825
0.00063829
0.00063829
0.00063825
0.00063816
0.000637997
0.00063769
0.000636913
0.000632717
0.000616113
0.000588237
0.000560483
1.79871E-05
7.49973E-05
0.000138862
0.000203605
0.000270973
0.000333067
0.000386103
0.000429337
0.000463913
0.000491573
0.00051472
0.00053637
1.90847E-05
7.99087E-05
0.000138865
0.000195004
0.000256751
0.000318315
0.000373597
0.000419587
0.000456537
0.000486
0.00051026
0.000532227
0.000555973
0.00058343
0.0006125
0.000631657
0.000636817
0.000637693
0.000638017
0.000638193
0.000638297
0.00063835
0.000638367
0.00063835
0.000638297
0.000638193
0.000638017
0.00063769
0.000636817
0.000631653
0.000612493
0.000583423
0.000555967
1.90851E-05
7.99153E-05
0.000138863
0.000195013
0.000256774
0.000318341
0.000373613
0.000419597
0.000456543
0.000486003
0.000510257
0.000532223
2.02536E-05
0.000087188
0.000145873
0.000195017
0.000247332
0.000304361
0.00035958
0.000407813
0.000447377
0.000479013
0.00050473
0.000527233
0.000550613
0.00057738
0.000607257
0.000629653
0.000636577
0.00063766
0.000638017
0.00063821
0.000638327
0.000638393
0.000638423
0.000638423
0.000638393
0.000638327
0.00063821
0.000638017
0.00063766
0.000636577
0.00062965
0.00060725
0.000577377
0.00055061
2.02514E-05
8.71747E-05
0.000145876
0.000195015
0.000247345
0.000304385
0.000359607
0.00040783
0.000447387
0.00047902
0.00050473
0.00052723
2.10317E-05
0.000094676
0.000157149
0.000203609
0.000247347
0.000294999
0.000346513
0.000394947
0.000436563
0.00047049
0.000497957
0.00052131
0.000544443
0.000570227
0.00060015
0.000626163
0.000636043
0.00063759
0.000637997
0.00063821
0.000638343
0.00063842
0.000638467
0.000638477
0.000638463
0.00063842
0.00063834
0.00063821
0.000637997
0.00063759
0.000636043
0.00062616
0.000600147
0.000570223
0.000544443
2.08375E-05
9.46593E-05
0.000157123
0.000203609
0.00024735
0.000295016
0.000346537
0.00039497
0.00043658
0.0004705
0.000497963
0.00052131
2.06407E-05
0.000100549
0.000168351
0.000216957
0.000256781
0.000295011
0.00033776
0.00038311
0.000424973
0.000460627
0.0004899
0.000514357
0.00053755
0.000562193
0.00059125
0.000620403
0.000634897
0.000637443
0.000637957
0.000638193
0.000638343
0.000638433
0.00063849
0.000638517
0.000638517
0.00063849
0.000638433
0.000638343
0.000638193
0.000637957
0.000637443
0.000634893
0.0006204
0.00059125
0.000562193
0.00053755
2.05445E-05
0.000100495
0.000168322
0.000216934
0.000256783
0.000295021
0.00033778
0.000383133
0.000424997
0.00046064
0.00048991
0.00051436
2.07511E-05
0.000106229
0.00017728
0.00023039
0.000270991
0.000304389
0.00033777
0.00037524
0.000414423
0.000450207
0.00048077
0.000506397
0.000529967
0.00055362
0.00058098
0.00061178
0.000632363
0.00063714
0.000637883
0.00063816
0.000638327
0.000638433
0.000638503
0.00063854
0.000638553
0.00063854
0.000638503
0.000638437
0.000638327
0.00063816
0.000637883
0.000637137
0.000632363
0.000611783
0.000580983
0.000553623
0.000529973
2.07445E-05
0.000106203
0.000177242
0.000230363
0.000270978
0.000304395
0.000337783
0.000375263
0.000414447
0.000450227
0.000480783
0.000506403
2.07143E-05
0.000110649
0.000184282
0.000241577
0.000285613
0.000318353
0.000346533
0.000375247
0.000407457
0.00044076
0.000471193
0.000497587
0.000521747
0.000544777
0.00057009
0.000600437
0.000627167
0.000636403
0.000637753
0.000638103
0.000638297
0.00063842
0.000638503
0.000638553
0.000638577
0.000638577
0.000638553
0.000638503
0.00063842
0.000638297
0.000638103
0.000637753
0.0006364
0.00062717
0.00060044
0.000570093
0.000544783
0.000521753
0.000020826
0.000110699
0.000184263
0.000241548
0.000285599
0.00031835
0.000346547
0.000375267
0.00040748
0.000440783
0.000471213
0.0004976
2.06549E-05
0.000113383
0.000189471
0.000249968
0.000297949
0.000333073
0.00035961
0.000383127
0.00040746
0.000434503
0.000462427
0.000488343
0.00051296
0.00053577
0.000559243
0.000587487
0.000618003
0.000634523
0.000637483
0.000638023
0.00063825
0.000638393
0.00063849
0.000638553
0.000638587
0.0006386
0.00063859
0.000638553
0.00063849
0.000638393
0.00063825
0.000638023
0.000637483
0.000634523
0.00061801
0.000587493
0.00055925
0.00053578
0.000512973
2.06565E-05
0.000113427
0.000189546
0.000249962
0.000297933
0.000333068
0.000359613
0.000383143
0.000407483
0.000434527
0.000462447
0.00048836
2.11155E-05
0.000116201
0.000193213
0.000256252
0.000307373
0.00034581
0.000373613
0.000394967
0.000414433
0.000434507
0.000456417
0.00047954
0.000503703
0.000526563
0.000548747
0.00057431
0.000605107
0.000629837
0.00063687
0.00063788
0.000638183
0.00063835
0.000638463
0.00063854
0.000638587
0.00063861
0.00063861
0.00063859
0.00063854
0.000638467
0.00063835
0.000638183
0.00063788
0.000636867
0.00062984
0.000605113
0.000574317
0.000548757
0.000526577
0.00050372
2.11155E-05
0.000116171
0.000193242
0.000256292
0.000307373
0.000345807
0.000373617
0.000394977
0.000414453
0.000434527
0.000456437
0.000479557
2.15504E-05
0.000121142
0.000196718
0.000261127
0.000314515
0.000355817
0.0003861
0.000407827
0.000424987
0.000440767
0.000456417
0.000472787
0.0004941
0.000516937
0.00053854
0.000561753
0.000590327
0.00062043
0.000635167
0.00063761
0.00063808
0.00063829
0.000638423
0.000638517
0.000638577
0.00063861
0.000638623
0.00063861
0.000638577
0.000638517
0.000638423
0.00063829
0.00063808
0.00063761
0.000635167
0.000620437
0.000590333
0.000561763
0.00053855
0.00051695
0.000494117
2.15511E-05
0.000121119
0.000196698
0.00026115
0.000314536
0.00035582
0.0003861
0.000407833
0.000425
0.000440787
0.000456437
0.000472807
2.18825E-05
0.000126574
0.000202137
0.000265526
0.000320138
0.00036351
0.00039617
0.00041959
0.00043657
0.000450213
0.00046243
0.000472787
0.000483973
0.00050642
0.00052819
0.000549983
0.00057557
0.00060646
0.000630503
0.00063697
0.000637923
0.000638203
0.000638367
0.000638477
0.000638553
0.0006386
0.000638623
0.000638623
0.0006386
0.000638553
0.000638477
0.000638367
0.000638203
0.000637923
0.00063697
0.000630507
0.00060647
0.000575577
0.000549993
0.000528203
0.000506433
0.00048399
2.18834E-05
0.000126554
0.000202123
0.000265527
0.000320161
0.000363527
0.000396173
0.000419593
0.00043658
0.000450227
0.00046245
0.000472807
2.21249E-05
0.000130535
0.000208074
0.000271037
0.000325111
0.000369573
0.000404033
0.000429327
0.00044738
0.00046063
0.0004712
0.00047954
0.0004941
0.000516937
0.00053854
0.000561753
0.000590327
0.000620433
0.000635167
0.00063761
0.000638083
0.00063829
0.000638423
0.000638517
0.000638577
0.00063861
0.000638623
0.00063861
0.000638577
0.000638517
0.000638423
0.00063829
0.00063808
0.00063761
0.000635167
0.000620437
0.000590333
0.00056176
0.00053855
0.00051695
0.000494117
2.21259E-05
0.000130533
0.000208064
0.000271038
0.000325127
0.000369597
0.000404047
0.000429333
0.000447383
0.00046064
0.000471213
0.00047956
2.23526E-05
0.000133572
0.000213013
0.000276951
0.000330427
0.000374793
0.000410237
0.00043705
0.000456533
0.00047049
0.000480773
0.000488343
0.000503707
0.000526563
0.000548747
0.00057431
0.000605107
0.000629837
0.00063687
0.00063788
0.000638183
0.00063835
0.000638467
0.00063854
0.000638587
0.00063861
0.00063861
0.000638587
0.00063854
0.000638463
0.00063835
0.000638183
0.00063788
0.00063687
0.00062984
0.000605113
0.000574317
0.000548753
0.000526573
0.00050372
2.23527E-05
0.000133573
0.000213015
0.000276953
0.000330438
0.000374813
0.000410253
0.000437057
0.000456537
0.000470493
0.00048078
0.000488357
2.25415E-05
0.000135487
0.000216835
0.000282224
0.000335977
0.000379847
0.000415417
0.000443133
0.000463903
0.00047901
0.000489903
0.000497587
0.00051296
0.00053577
0.000559243
0.000587487
0.000618003
0.000634527
0.000637483
0.000638023
0.00063825
0.000638393
0.00063849
0.000638553
0.000638587
0.0006386
0.000638587
0.000638553
0.00063849
0.000638393
0.00063825
0.000638023
0.000637483
0.000634527
0.00061801
0.000587493
0.00055925
0.000535777
0.00051297
2.25419E-05
0.000135495
0.00021684
0.00028223
0.000335987
0.00037986
0.000415437
0.000443143
0.000463907
0.000479013
0.000489907
0.000497597
2.25411E-05
0.00013619
0.000219337
0.000286407
0.00034106
0.000384843
0.0004201
0.00044809
0.000469727
0.000485997
0.000497957
0.000506397
0.000521747
0.000544777
0.000570087
0.000600437
0.00062717
0.000636403
0.000637753
0.000638103
0.000638297
0.00063842
0.000638503
0.000638553
0.000638577
0.000638577
0.000638553
0.000638503
0.00063842
0.000638297
0.000638103
0.000637753
0.000636403
0.00062717
0.00060044
0.000570093
0.00054478
0.00052175
2.25429E-05
0.0001362
0.000219345
0.000286413
0.000341067
0.000384857
0.000420117
0.0004481
0.00046973
0.000485997
0.000497957
0.0005064
2.23521E-05
0.000136191
0.00022054
0.000289262
0.000345167
0.00038942
0.00042448
0.000452343
0.00047438
0.000491567
0.000504727
0.000514353
0.000529967
0.000553617
0.000580977
0.00061178
0.000632363
0.00063714
0.000637883
0.00063816
0.000638327
0.000638437
0.000638503
0.00063854
0.000638553
0.00063854
0.000638503
0.000638433
0.000638327
0.00063816
0.000637883
0.00063714
0.000632363
0.000611783
0.00058098
0.00055362
0.000529967
2.23541E-05
0.000136199
0.000220549
0.000289269
0.000345173
0.00038943
0.00042449
0.000452357
0.000474387
0.00049157
0.000504727
0.000514357
2.21248E-05
0.000135487
0.00022054
0.000290716
0.00034804
0.00039317
0.00042841
0.000456117
0.000478223
0.000495997
0.000510253
0.000521307
0.000537547
0.00056219
0.000591247
0.0006204
0.000634893
0.000637443
0.000637957
0.000638193
0.000638343
0.000638437
0.00063849
0.000638517
0.000638517
0.00063849
0.000638437
0.000638343
0.000638193
0.000637957
0.000637443
0.000634893
0.000620403
0.00059125
0.00056219
0.000537547
2.21259E-05
0.000135495
0.00022055
0.000290723
0.000348047
0.000393177
0.000428417
0.000456127
0.00047823
0.000496
0.000510253
0.000521307
2.18827E-05
0.000133571
0.000219335
0.000290715
0.00034953
0.00039583
0.000431637
0.000459407
0.00048148
0.00049957
0.000514717
0.000527227
0.00054444
0.00057022
0.000600147
0.000626163
0.000636043
0.00063759
0.000637997
0.00063821
0.000638343
0.00063842
0.000638467
0.000638477
0.000638467
0.00063842
0.000638343
0.00063821
0.000637997
0.000637593
0.000636043
0.000626163
0.000600147
0.00057022
0.00054444
2.18836E-05
0.000133581
0.000219346
0.000290724
0.000349533
0.000395833
0.00043164
0.000459413
0.000481487
0.000499573
0.000514717
0.000527227
2.15502E-05
0.000130535
0.000216834
0.00028926
0.000349527
0.000397213
0.00043393
0.000462077
0.000484223
0.000502497
0.00051832
0.000532223
0.00055061
0.000577377
0.00060725
0.000629653
0.000636577
0.00063766
0.000638017
0.00063821
0.000638327
0.000638393
0.000638423
0.000638423
0.000638393
0.000638327
0.00063821
0.000638017
0.00063766
0.000636577
0.000629653
0.000607253
0.000577377
0.000550607
2.15511E-05
0.000130543
0.000216846
0.00028927
0.000349537
0.000397217
0.000433933
0.00046208
0.00048423
0.0005025
0.000518323
0.00053222
2.11149E-05
0.000126571
0.000213013
0.000286406
0.00034804
0.000397213
0.000435127
0.00046397
0.00048641
0.000504883
0.000521237
0.00053637
0.000555967
0.000583423
0.000612497
0.000631657
0.000636817
0.00063769
0.000638017
0.000638193
0.000638297
0.00063835
0.000638367
0.00063835
0.000638297
0.000638193
0.000638017
0.000637693
0.000636817
0.000631657
0.000612497
0.000583423
0.000555963
2.11149E-05
0.000126582
0.000213024
0.000286416
0.000348047
0.000397217
0.00043513
0.000463973
0.000486413
0.000504887
0.000521237
0.000536367
2.06521E-05
0.000121141
0.000208075
0.000282227
0.000345167
0.00039583
0.000435127
0.000464957
0.000487947
0.000506743
0.000523567
0.000539773
0.000560483
0.00058824
0.00061612
0.00063272
0.000636917
0.000637693
0.000637997
0.00063816
0.00063825
0.00063829
0.00063829
0.00063825
0.00063816
0.000637997
0.000637693
0.000636917
0.00063272
0.000616117
0.00058824
0.000560483
2.06565E-05
0.000121134
0.000208091
0.000282236
0.000345173
0.000395833
0.00043513
0.00046496
0.000487947
0.000506747
0.000523567
0.000539773
2.06733E-05
0.000116179
0.000202144
0.000276959
0.000341063
0.000393173
0.00043393
0.000464957
0.000488743
0.00050803
0.000525347
0.000542493
0.000564133
0.00059183
0.000618353
0.000633183
0.000636917
0.00063766
0.000637957
0.000638103
0.000638183
0.000638203
0.000638183
0.000638103
0.000637957
0.00063766
0.000636917
0.000633183
0.000618353
0.00059183
0.000564133
2.07211E-05
0.000116182
0.00020215
0.000276969
0.00034107
0.000393177
0.000433933
0.00046496
0.000488743
0.000508033
0.000525347
0.000542493
2.07511E-05
0.000113415
0.000196714
0.000271051
0.00033599
0.00038943
0.00043164
0.000463973
0.000488743
0.000508693
0.000526563
0.00054456
0.00056691
0.000594203
0.000619427
0.000633183
0.00063682
0.000637593
0.000637883
0.000638023
0.000638083
0.000638083
0.000638023
0.000637883
0.000637593
0.000636817
0.00063318
0.000619427
0.000594203
0.000566907
2.07625E-05
0.000113347
0.000196729
0.000271059
0.000335997
0.00038943
0.00043164
0.000463973
0.000488743
0.000508693
0.000526563
0.00054456
2.08637E-05
0.000110662
0.000193234
0.000265538
0.000330446
0.00038486
0.000428417
0.00046208
0.000487947
0.000508693
0.000527183
0.00054596
0.000568783
0.000595393
0.000619427
0.00063272
0.000636577
0.000637443
0.000637753
0.00063788
0.000637923
0.00063788
0.000637753
0.000637443
0.000636577
0.00063272
0.000619427
0.00059539
0.00056878
2.05594E-05
0.000110673
0.000193185
0.000265549
0.000330451
0.00038486
0.000428417
0.00046208
0.000487947
0.000508693
0.000527183
0.000545957
2.08405E-05
0.000106302
0.000189503
0.000261145
0.000325131
0.000379867
0.000424493
0.000459413
0.000486413
0.000508033
0.000527187
0.00054667
0.00056973
0.000595393
0.000618357
0.00063166
0.000636043
0.00063714
0.000637483
0.00063761
0.00063761
0.000637483
0.00063714
0.000636043
0.000631657
0.000618353
0.00059539
0.000569727
2.10359E-05
0.000106213
0.0001895
0.000261125
0.000325139
0.000379867
0.00042449
0.000459413
0.000486413
0.00050803
0.000527183
0.00054667
2.02523E-05
0.000100499
0.000184287
0.000256266
0.000320154
0.000374813
0.000420117
0.00045613
0.00048423
0.000506747
0.000526563
0.00054667
0.00056973
0.000594207
0.00061612
0.000629653
0.000634897
0.000636403
0.00063687
0.00063697
0.00063687
0.000636403
0.000634897
0.000629653
0.00061612
0.000594203
0.000569727
2.02521E-05
0.000100549
0.000184241
0.000256261
0.000320152
0.00037482
0.000420117
0.000456127
0.000484227
0.000506743
0.000526563
0.000546667
1.90846E-05
0.000094658
0.000177251
0.000249959
0.000314519
0.000369587
0.000415433
0.000452357
0.00048149
0.00050489
0.00052535
0.00054596
0.000568783
0.000591833
0.0006125
0.000626167
0.000632367
0.000634527
0.00063517
0.00063517
0.000634527
0.000632367
0.000626167
0.0006125
0.00059183
0.00056878
1.90843E-05
9.46673E-05
0.000177263
0.000249942
0.000314521
0.00036959
0.000415437
0.000452357
0.000481487
0.000504887
0.000525347
0.000545957
1.79866E-05
8.71713E-05
0.000168324
0.000241551
0.000307363
0.000363513
0.000410247
0.0004481
0.000478233
0.000502503
0.00052357
0.000544563
0.00056691
0.000588243
0.000607253
0.0006204
0.00062717
0.00062984
0.000630507
0.00062984
0.000627173
0.000620403
0.000607257
0.000588243
0.000566907
1.79868E-05
8.72013E-05
0.000168343
0.000241558
0.000307363
0.000363517
0.00041025
0.000448103
0.00047823
0.0005025
0.000523567
0.00054456
1.68359E-05
7.99053E-05
0.000157113
0.000230361
0.000297929
0.000355807
0.000404037
0.00044314
0.000474387
0.000499577
0.00052124
0.000542497
0.000564137
0.000583427
0.000600147
0.00061178
0.000618007
0.000620433
0.000620437
0.00061801
0.000611787
0.00060015
0.000583427
0.000564133
1.68359E-05
7.99093E-05
0.000157158
0.000230385
0.000297939
0.000355813
0.000404043
0.000443143
0.000474387
0.000499573
0.000521237
0.000542493
7.49927E-05
0.00014586
0.000216917
0.00028559
0.000345797
0.000396163
0.00043705
0.00046973
0.000496003
0.000518327
0.000539777
0.00056049
0.00057738
0.00059125
0.000600437
0.000605107
0.000606467
0.00060511
0.000600443
0.000591253
0.00057738
0.000560487
7.49947E-05
0.000145874
0.000216961
0.000285613
0.00034581
0.000396173
0.000437057
0.000469733
0.000496003
0.000518323
0.000539773
0.000138856
0.000203589
0.000270957
0.000333053
0.00038609
0.000429323
0.000463903
0.00049157
0.000514723
0.000536373
0.00055597
0.000570223
0.00058098
0.000587487
0.00059033
0.00059033
0.000587493
0.000580987
0.000570227
0.00055597
0.00013886
0.00020361
0.000270994
0.000333075
0.000386103
0.000429333
0.00046391
0.000491573
0.000514723
0.00053637
0.000195005
0.000256759
0.000318326
0.0003736
0.00041958
0.00045653
0.000485997
0.000510257
0.000532223
0.000550613
0.00056219
0.00057009
0.000574313
0.000575573
0.000574317
0.000570097
0.000562197
0.000550613
0.000195012
0.000256782
0.000318355
0.000373617
0.000419593
0.00045654
0.000486
0.00051026
0.000532227
0.000247336
0.000304371
0.00035959
0.000407817
0.000447373
0.000479007
0.000504727
0.00052723
0.000544443
0.00055362
0.000559247
0.00056176
0.00056176
0.00055925
0.000553623
0.000544443
0.000247344
0.000304391
0.000359613
0.00040783
0.000447383
0.000479017
0.00050473
0.000527233
0.000295005
0.000346523
0.000394953
0.000436563
0.000470487
0.000497953
0.000521307
0.000537547
0.00054478
0.000548753
0.00054999
0.000548753
0.000544783
0.000537553
0.000295013
0.00034654
0.00039497
0.000436577
0.000470493
0.00049796
0.00052131
0.000337767
0.00038312
0.00042498
0.000460627
0.0004899
0.000514353
0.000529967
0.000535773
0.000538547
0.00053855
0.00053578
0.000529973
0.000337773
0.00038313
0.000424993
0.000460637
0.00048991
0.00051436
0.00037525