/*--------------------------------*- C++ -*----------------------------------*\
  =========                 |
  \\      /  F ield         | OpenFOAM: The Open Source CFD Toolbox
   \\    /   O peration     | Website:  https://openfoam.org
    \\  /    A nd           | Version:  10
     \\/     M anipulation  |
\*---------------------------------------------------------------------------*/
FoamFile
{
    format      ascii;
    class       volScalarField;
    location    "3000";
    object      a;
}
// * * * * * * * * * * * * * * * * * * * * * * * * * * * * * * * * * * * * * //

dimensions      [0 -1 0 0 0 0 0];

internalField   nonuniform List<scalar> 
5170
(
1.461893645
1.46190042
1.461915021
1.461929935
1.461944995
1.461471565
1.461474333
1.461477109
1.461472809
1.461433751
1.460945785
1.460946409
1.460944029
1.460928283
1.460863994
1.460543129
1.460542536
1.460537195
1.460511343
1.460430537
1.460199731
1.460198111
1.460189694
1.460154179
1.460056132
1.459815105
1.45981267
1.459800063
1.459753368
1.459640313
1.459381546
1.459377851
1.459361351
1.459302927
1.459177132
1.458922673
1.45891801
1.458897297
1.458827134
1.458690524
1.45846118
1.458454835
1.458429644
1.458347235
1.45820292
1.4580083
1.458000802
1.457970306
1.457875905
1.457727501
1.457567971
1.457559206
1.457522684
1.457417522
1.457269248
1.457137654
1.457127602
1.457085551
1.456971246
1.456829379
1.456709467
1.456697461
1.456650765
1.456530768
1.456400257
1.456282865
1.456269632
1.456218758
1.456095583
1.455978555
1.455866023
1.455851058
1.455796795
1.45567146
1.455567109
1.455462675
1.455446709
1.455387528
1.455260925
1.455167345
1.455075449
1.455057623
1.454993143
1.454862656
1.454774962
1.454699913
1.45467941
1.45460452
1.454470445
1.454384106
1.454302273
1.454296061
1.454217037
1.454075711
1.453985642
1.453772494
1.453747663
1.453697114
1.45372374
1.454272366
0.7240885127
0.7253870488
0.72586452
0.7250550917
0.723990374
0.7188039688
0.7202820503
0.7207398552
0.7198909183
0.7185585762
0.7160636143
0.7173040122
0.7176717839
0.716970463
0.715837057
0.7147165284
0.7156144591
0.7158673974
0.7153091582
0.7145845844
0.7141956766
0.7147274324
0.7148862074
0.7144806813
0.7141968807
0.7141779924
0.7143641641
0.7144394605
0.7142132685
0.7143600731
0.7144823516
0.7143568231
0.7143612474
0.71434205
0.7148853083
0.7150326506
0.7146211028
0.7145675133
0.7147805948
0.7156866784
0.7157918147
0.7151163901
0.7150202974
0.7154755359
0.7167110363
0.7167387365
0.7158193203
0.7156979084
0.7163919347
0.7179234168
0.7178632368
0.7167179267
0.7165850433
0.7175078365
0.7193056405
0.7191615441
0.7178046222
0.7176705616
0.7188101956
0.7208552241
0.720636508
0.7190763297
0.7189484993
0.7202937786
0.7225757669
0.7222944107
0.7205347623
0.7204183768
0.7219607907
0.7244783691
0.7241471332
0.7221858686
0.7220848601
0.7238199242
0.7265791606
0.7262053094
0.7240394494
0.7239544774
0.7258843742
0.7289047989
0.7284706234
0.7261088328
0.7260504001
0.7281791586
0.7314833989
0.730884305
0.7284057787
0.7284181527
0.7307595169
0.7343569474
0.7332500419
0.730936038
0.7311516896
0.7337585211
0.7376846297
0.7357619674
0.7334577335
0.7348782979
0.7385841068
0.7446860532
1.451924353
1.45198652
1.453742419
1.480597409
1.640256545
1.451474996
1.45197503
1.458869674
1.520138507
1.687729471
1.451686227
1.453189304
1.469241155
1.559656216
1.720709333
1.452205534
1.455790094
1.486356941
1.59414571
1.745160657
1.453278392
1.460601618
1.509625748
1.621082892
1.763280725
1.455360287
1.468768138
1.537522402
1.64533796
1.778456009
1.459406762
1.482826991
1.569607145
1.671031156
1.790666056
1.466970352
1.505194516
1.60043153
1.697041236
1.798710937
1.480126679
1.535095532
1.626792544
1.720729178
1.802623215
1.500746992
1.567814652
1.650313867
1.741187173
1.803566505
1.530409715
1.59805753
1.672522411
1.758044385
1.802348425
1.564318169
1.623224785
1.69387093
1.771375249
1.799290304
1.597082649
1.645863136
1.71460532
1.781460326
1.794484693
1.626982977
1.669132147
1.734726499
1.788582635
1.787954524
1.65694338
1.695262371
1.753832181
1.792688089
1.779516954
1.691410696
1.72463332
1.77092472
1.793205696
1.768247596
1.730217848
1.754483174
1.784000523
1.788794117
1.752461546
1.764936883
1.778050346
1.7893837
1.777287042
1.730477137
1.785142666
1.78796913
1.783099378
1.756693463
1.701471986
1.784626345
1.779810651
1.762943056
1.726253699
1.665589809
1.763360768
1.753802803
1.72953049
1.686887285
1.623990289
1.725375914
1.713360224
1.685467599
1.640530282
1.578123348
1.675479965
1.662606396
1.633774221
1.589166682
1.529137025
1.61769301
1.604900336
1.576724547
1.533976979
1.477399841
1.554510549
1.542256646
1.515492019
1.475324836
1.422717356
1.48694794
1.475447304
1.450477329
1.413237668
1.364727332
1.415509923
1.404886272
1.38185266
1.347616262
1.303150856
1.340946007
1.33122585
1.310181209
1.278942433
1.238414016
1.264431877
1.255616842
1.236507867
1.208159234
1.171436957
1.187391774
1.179437771
1.162209982
1.13665647
1.103566807
1.110965968
1.103839098
1.08838706
1.06547857
1.035845091
1.035540103
1.029177531
1.015396094
0.9949795784
0.9685934399
0.9605516969
0.9549194948
0.9427303769
0.9247312299
0.9015570118
0.8852697955
0.8804133878
0.8699375066
0.8545445532
0.8349009265
0.8111797896
0.8072778088
0.7988950842
0.7866656594
0.7712142775
0.7448495017
0.7420025706
0.7359026693
0.7270417118
0.7159042545
0.6921367952
0.6901973152
0.6860423191
0.6800160157
0.672466729
0.653310525
0.6520447853
0.6493413917
0.6454434769
0.6406147293
0.6258882241
0.6251379454
0.6235536337
0.6213270931
0.6186930113
0.6080455189
0.6077695703
0.6072317584
0.6066044055
0.6061320599
0.6010234046
0.6012876737
0.6019259358
0.6030436365
0.6047863711
0.6067829757
0.6073344352
0.6085557388
0.6104313049
0.6129748403
0.6180667719
0.6186544698
0.6199465248
0.6219096392
0.6245402382
0.6308210067
0.6314048197
0.6326899161
0.6346442793
0.6372666918
0.6443833782
0.6449688414
0.6462579374
0.6482277173
0.6508780592
0.6590963847
0.6596950436
0.6610145307
0.6630252602
0.6657290452
0.6753609837
0.6759746227
0.6773264398
0.6793857993
0.682154134
0.6934616793
0.6940893612
0.695472286
0.6975779832
0.7004063597
0.7135276347
0.7141662991
0.7155724723
0.7177121678
0.7205834116
0.7355411808
0.7361849632
0.7376022703
0.7397574303
0.7426465007
0.7593446769
0.7599874656
0.761401659
0.7635509825
0.7664291838
0.7846785403
0.7853136802
0.7867110496
0.7888334204
0.7916736854
0.8112104583
0.8118313393
0.8131967267
0.8152694319
0.818041107
0.8385588015
0.8391597571
0.8404812935
0.8424866545
0.8451667255
0.8663325535
0.8669091778
0.8681768289
0.8700997946
0.8726685009
0.8941640278
0.8947126334
0.8959187025
0.897747763
0.900190035
0.9217269598
0.922245205
0.9233842593
0.9251112989
0.9274165659
0.9487463742
0.9492325549
0.950301162
0.9519210769
0.9540827151
0.9749976854
0.9754510818
0.9764474195
0.9779575156
0.9799720889
1.000303921
1.000724173
1.001647707
1.003047233
1.004913849
1.024526967
1.02491436
1.025765512
1.027055146
1.028774807
1.047564315
1.047919301
1.048699282
1.049880896
1.051456167
1.069337126
1.069660576
1.070371125
1.071447377
1.07288186
1.089794557
1.090087395
1.090730736
1.091705032
1.093003307
1.108892154
1.109155583
1.109734199
1.11061031
1.111777468
1.126617632
1.126852872
1.127369606
1.128151863
1.129193692
1.142934527
1.143142921
1.143600592
1.144293281
1.145215527
1.157846762
1.158029737
1.158431596
1.159039664
1.159848922
1.17115249
1.171311574
1.171660918
1.172189389
1.172892425
1.181801091
1.181940083
1.18224547
1.182707354
1.183321549
1.853637105
1.848915182
1.842885852
1.834991111
1.827273749
1.820583026
1.813616052
1.805040579
1.795935648
1.787010287
1.778251336
1.769083318
1.759284368
1.748690997
1.736993022
1.722764096
1.703953841
1.679162719
1.64820649
1.611674006
1.570854572
1.526931927
1.480701127
1.432155424
1.380838655
1.326181777
1.267845101
1.206255209
1.142327424
1.077339916
1.012375369
0.9477403152
0.8833495683
0.819642925
0.7593616618
0.7074214201
0.6667555017
0.6370374127
0.6168987323
0.6061426251
0.6064341179
0.6151014367
0.6267143688
0.6394371505
0.6530755443
0.667970708
0.6844477901
0.702747225
0.7229568259
0.7450317555
0.7688038668
0.7940130567
0.820322921
0.847371748
0.8747808064
0.9021975458
0.9293108469
0.9558585046
0.9816266918
1.006446613
1.030186617
1.052749161
1.074059035
1.094068428
1.112734748
1.130047889
1.145971397
1.160511911
1.173468182
1.183824418
1.526545579
0.7277844933
0.7588297226
0.8277298759
1.002522749
1.65576983
0.996010186
0.7287579001
0.8716013919
1.119640579
1.701086411
1.145517815
0.6735437352
0.83559792
1.127516867
1.708803654
1.193661496
0.6679008054
0.7806175624
1.050672114
1.706080805
1.245459905
0.7815055787
0.7436697515
0.963170865
1.701487313
1.294452092
0.8800191885
0.7088121975
0.8742130892
1.696190149
1.328331069
0.9310849079
0.6781860235
0.7984641935
1.688235584
1.347506069
0.9628387412
0.6613300269
0.7474771132
1.680575378
1.366920791
1.012609105
0.7275756941
0.7225139122
1.67392574
1.385892556
1.060783433
0.7897198757
0.7037050191
1.667670725
1.400495595
1.095409085
0.8269090813
0.6851488124
1.66042617
1.409022144
1.119335918
0.8528406386
0.6703765288
1.652486785
1.415764611
1.144302576
0.8913701177
0.7036256181
1.644001551
1.421585544
1.168638938
0.9308499353
0.7471057848
1.634647502
1.425314742
1.188042542
0.9611491459
0.7774227222
1.622366726
1.423831937
1.19921863
0.9805681929
0.7959818276
1.605022217
1.415372532
1.201753062
0.9912277955
0.8077298943
1.581790908
1.400529022
1.19817625
0.9981687892
0.821285273
1.553136944
1.38063408
1.190615533
1.003022999
0.8358492905
1.520011015
1.357074686
1.179808848
1.004849242
0.8475147478
1.483738421
1.330971949
1.1661881
1.003170512
0.8550155838
1.445239453
1.302961941
1.150133503
0.9981874202
0.8583255535
1.404893808
1.273023018
1.131416813
0.9897134273
0.8577210139
1.362285036
1.240449761
1.1093806
0.977447698
0.8534640958
1.316764667
1.204541418
1.083527403
0.9611767012
0.8455123062
1.267615058
1.16452939
1.053240372
0.9403638528
0.8333203227
1.214500482
1.120215686
1.018261733
0.914727069
0.8165748651
1.157887292
1.072063171
0.9791335954
0.8848549972
0.7958609252
1.098699647
1.02099186
0.9368893454
0.8518564333
0.7723364308
1.038151575
0.9682623242
0.8928222716
0.8171232031
0.7474513437
0.9774019966
0.9149806105
0.8481121949
0.781956867
0.7224870874
0.9167515867
0.8617633991
0.8036712028
0.7474519429
0.698413187
0.8563891719
0.8092118612
0.7604634701
0.7145886866
0.6759353077
0.7971581929
0.7586575736
0.7198951802
0.684449139
0.6558177521
0.7419638491
0.7127436862
0.6839568728
0.6584439723
0.6392985751
0.6949903902
0.6743659924
0.6545149135
0.6379007306
0.6276036695
0.6584033379
0.6448234668
0.6324494368
0.6236660414
0.6215908343
0.6318529872
0.6239997756
0.6181337204
0.6166794876
0.6216453006
0.6144036943
0.6117805784
0.6122161759
0.6171842534
0.6260920774
0.6063931285
0.6090567314
0.6146682637
0.6229465408
0.6335310786
0.6090313903
0.6148461699
0.6224575162
0.6318309372
0.6429768393
0.6183444466
0.6248623685
0.6329003198
0.6425155086
0.6538106444
0.6300236631
0.6366067828
0.6446943464
0.6543693232
0.6657484811
0.6427461242
0.6493511524
0.657495985
0.6672678872
0.678776039
0.6564295398
0.6631328562
0.6714086386
0.681339126
0.693018415
0.6713927837
0.6782375668
0.6866825085
0.6967943619
0.7086504856
0.6879477139
0.6949430099
0.7035538868
0.7138330167
0.7258350211
0.706316322
0.7134369201
0.7221755095
0.7325680031
0.7446481749
0.7265718851
0.733769499
0.7425743159
0.7530053921
0.7650773567
0.7486608933
0.7558725216
0.7646676924
0.7750509169
0.7870197951
0.7724127454
0.7795707911
0.7882770115
0.7985215597
0.8102880411
0.7975647077
0.8045988722
0.813132414
0.8231476946
0.834615923
0.8237842468
0.8306322237
0.8389241089
0.8486308886
0.859715306
0.8507138589
0.8573194413
0.8653039537
0.8746316921
0.8852587061
0.8779800563
0.884297961
0.8919234597
0.900816318
0.9109280467
0.9052361131
0.9112324292
0.9184606353
0.9268776509
0.9364322306
0.9321763789
0.9378277382
0.944632628
0.9525464581
0.9615166392
0.9585433903
0.963835573
0.9702017234
0.9775967713
0.9859678685
0.9841271511
0.989053322
0.994973857
1.001843982
1.009611404
1.008761903
1.013321121
1.01879599
1.025142603
1.032309822
1.032318281
1.036513995
1.041548222
1.047378345
1.053954817
1.054700597
1.058539854
1.063142619
1.068467859
1.074467935
1.075834925
1.079327187
1.083510451
1.088345485
1.09378678
1.095674581
1.098831602
1.102609974
1.106972394
1.111875619
1.114177624
1.117012221
1.120401526
1.124310257
1.128697536
1.13133476
1.133861471
1.136879469
1.140355541
1.144251184
1.147109543
1.149342679
1.152006913
1.155071107
1.158499216
1.16150958
1.163465527
1.165795821
1.168471378
1.17145853
1.174334092
1.176029854
1.178047122
1.180358927
1.182934097
1.184580356
1.186058873
1.187814979
1.189823654
1.19205593
0.529568782
0.1842527836
0.1126970233
0.1015355597
0.09940353066
0.09886655964
0.0987168022
0.09867470152
0.09866200826
0.09865751791
0.098655582
0.09865461639
0.09865410591
0.098653844
0.09865373008
0.09865370793
0.09865374368
0.09865381595
0.09865391099
0.09865401991
0.09865413699
0.09865425857
0.09865438236
0.09865450695
0.09865463149
0.09865475546
0.09865487857
0.09865500062
0.09865512148
0.09865524104
0.09865535923
0.09865547594
0.09865559108
0.09865570453
0.09865581616
0.09865592585
0.09865603346
0.09865613884
0.09865624183
0.09865634228
0.09865644001
0.09865653485
0.09865662663
0.09865671516
0.09865680023
0.09865688165
0.09865695921
0.09865703267
0.09865710182
0.09865716639
0.09865722626
0.09865728128
0.0986573312
0.09865737572
0.09865741452
0.09865744737
0.09865747411
0.09865749462
0.09865750889
0.0986575123
0.7482366196
0.2634612783
0.1333800965
0.1064323632
0.1009069377
0.0994547843
0.09899380843
0.09882364909
0.09874710505
0.0987076185
0.09868527387
0.09867225275
0.09866456792
0.09866004268
0.0986573982
0.09865587612
0.09865502396
0.09865457114
0.09865435619
0.0986542825
0.09865429238
0.09865435134
0.09865443881
0.09865454249
0.09865465513
0.09865477242
0.09865489184
0.09865501193
0.0986551318
0.09865525094
0.09865536901
0.09865548579
0.0986556011
0.09865571477
0.09865582666
0.09865593663
0.09865604453
0.09865615021
0.09865625351
0.09865635426
0.0986564523
0.09865654746
0.09865663955
0.09865672838
0.09865681377
0.09865689549
0.09865697336
0.09865704716
0.09865711669
0.09865718173
0.09865724196
0.09865729711
0.09865734701
0.09865739153
0.09865743045
0.09865746346
0.0986574903
0.09865751083
0.09865752519
0.09865752835
0.8127658396
0.2938668816
0.1446369938
0.1119729479
0.103967377
0.1013010042
0.1001239408
0.0995272492
0.09918271684
0.09897666152
0.09884896083
0.09877064558
0.09872275475
0.09869396623
0.09867690093
0.09866696287
0.09866127594
0.0986580822
0.09865632898
0.09865539674
0.0986549286
0.09865472147
0.09865466083
0.09865468209
0.09865474886
0.09865484066
0.09865494591
0.09865505809
0.09865517354
0.09865529019
0.09865540684
0.09865552279
0.09865563762
0.09865575101
0.09865586275
0.09865597265
0.09865608054
0.09865618623
0.09865628957
0.09865639039
0.09865648851
0.09865658374
0.09865667592
0.09865676484
0.09865685032
0.09865693217
0.09865701016
0.09865708411
0.0986571538
0.09865721903
0.09865727959
0.0986573352
0.09865738558
0.09865743046
0.09865746961
0.0986575028
0.09865752981
0.09865755053
0.09865756506
0.09865756843
1.037897037
0.4270164233
0.185782492
0.126144809
0.1123038112
0.1068012911
0.1037676839
0.1019139918
0.1007314075
0.09997049274
0.09947770505
0.09916233752
0.09896234695
0.09883787295
0.09876161174
0.09871588093
0.098688989
0.09867352861
0.09866482543
0.09866003375
0.09865745541
0.09865610754
0.09865543439
0.09865512802
0.09865501976
0.09865501798
0.09865507308
0.09865515829
0.09865525914
0.09865536778
0.09865547997
0.09865559334
0.09865570661
0.098655819
0.09865593004
0.09865603943
0.09865614691
0.09865625228
0.09865635534
0.09865645591
0.09865655381
0.09865664886
0.09865674085
0.09865682962
0.09865691497
0.09865699671
0.09865707462
0.09865714851
0.09865721815
0.09865728332
0.09865734381
0.09865739937
0.09865744974
0.09865749466
0.09865753389
0.09865756721
0.09865759438
0.09865761523
0.09865762997
0.09865763393
1.136577139
0.6540551146
0.2774494613
0.1559777895
0.1290078665
0.1184430065
0.112038801
0.1076891886
0.1047108318
0.1026783304
0.1012963383
0.1003656533
0.09974497328
0.09933755882
0.09907403674
0.09890707464
0.09880328916
0.09874031067
0.09870293456
0.09868132283
0.09866912261
0.09866241451
0.09865881899
0.0986569496
0.09865601697
0.09865558463
0.09865541597
0.09865538503
0.09865542545
0.09865550251
0.09865559803
0.09865570248
0.09865581082
0.09865592038
0.09865602968
0.09865613787
0.09865624446
0.0986563491
0.09865645153
0.09865655153
0.09865664891
0.09865674347
0.09865683501
0.09865692333
0.09865700826
0.09865708958
0.0986571671
0.09865724061
0.09865730991
0.09865737476
0.09865743496
0.09865749026
0.09865754043
0.09865758521
0.09865762433
0.09865765764
0.09865768486
0.09865770592
0.09865772041
0.09865772281
1.109237596
0.9681301452
0.4482013032
0.2218345396
0.158486335
0.1376971881
0.1260697997
0.1180239916
0.1122870047
0.1081862927
0.1052597821
0.1031812565
0.1017160739
0.1006946679
0.09999109676
0.09951410899
0.09919616092
0.09898852872
0.09885572094
0.09877291204
0.0987225521
0.09869279491
0.09867567561
0.09866611283
0.09866092275
0.09865819786
0.09865682192
0.09865616685
0.0986558887
0.09865580433
0.09865581815
0.09865588101
0.09865596792
0.09865606619
0.09865616933
0.09865627394
0.09865637826
0.09865648128
0.09865658243
0.09865668134
0.09865677774
0.09865687139
0.09865696207
0.09865704959
0.09865713374
0.09865721433
0.09865729115
0.09865736399
0.09865743266
0.09865749693
0.09865755659
0.09865761139
0.09865766111
0.09865770549
0.0986577443
0.09865777731
0.09865780426
0.09865782493
0.09865783888
0.09865784088
1.021322894
1.122444138
0.7295105627
0.3498592858
0.2077212139
0.163441414
0.14391881
0.1314998478
0.1226478693
0.1161501482
0.1113455954
0.1077945071
0.1051793259
0.1032646815
0.1018735612
0.1008718436
0.1001578893
0.09965556436
0.09930749382
0.09907103745
0.09891386014
0.09881201639
0.09874773738
0.09870835122
0.09868494071
0.09867148619
0.09866400476
0.09865999122
0.09865792219
0.09865690972
0.09865645362
0.09865628259
0.09865625419
0.09865629561
0.09865637037
0.09865646038
0.09865655671
0.09865665496
0.09865675295
0.09865684955
0.0986569441
0.09865703617
0.09865712545
0.09865721167
0.09865729462
0.09865737407
0.09865744981
0.09865752165
0.09865758937
0.09865765275
0.09865771159
0.09865776565
0.09865781471
0.09865785847
0.09865789664
0.09865792913
0.09865795562
0.0986579758
0.09865798925
0.09865799132
0.9403582945
1.122331503
1.007132222
0.5484995345
0.2978700007
0.2018292437
0.1655060576
0.1467834522
0.1343632821
0.1253476331
0.1186014156
0.1135042827
0.1096485625
0.1067396835
0.1045551714
0.1029238803
0.1017133946
0.1008218125
0.1001701857
0.09969817479
0.09936010138
0.09912144893
0.09895602864
0.09884406291
0.09877038883
0.09872343126
0.09869448775
0.09867727599
0.09866742038
0.09866200359
0.09865915363
0.09865772975
0.09865706743
0.09865679676
0.09865672044
0.0986567376
0.0986567982
0.09865687803
0.09865696576
0.09865705613
0.09865714656
0.09865723565
0.09865732259
0.09865740684
0.09865748802
0.09865756585
0.09865764007
0.09865771048
0.09865777686
0.09865783901
0.09865789672
0.09865794976
0.09865799792
0.09865804099
0.09865807802
0.09865811002
0.09865813606
0.09865815588
0.09865816912
0.0986581713
0.8744102259
1.072196557
1.116484656
0.8183111963
0.4289470271
0.2611937981
0.1939118145
0.1642747392
0.1471528477
0.1353384109
0.1265903212
0.1199363245
0.1148261432
0.1108932733
0.107870594
0.1055544928
0.1037866843
0.1024434312
0.1014279014
0.1006643828
0.1000939876
0.09967119761
0.09936096964
0.09913595599
0.09897517917
0.09886259833
0.09878566029
0.09873468742
0.09870213378
0.09868217109
0.09867043724
0.09866384374
0.09866031543
0.09865852858
0.09865768253
0.0986573212
0.09865719981
0.09865719249
0.09865723729
0.0986573055
0.09865738385
0.0986574659
0.09865754836
0.09865762945
0.09865770816
0.09865778388
0.09865785622
0.09865792488
0.09865798964
0.09865805027
0.09865810657
0.09865815832
0.09865820529
0.09865824722
0.09865828381
0.098658315
0.09865834049
0.09865835993
0.09865837304
0.09865837528
0.8162933381
1.006175875
1.131285211
1.014227475
0.6289532478
0.3513451872
0.2352143591
0.1865122756
0.162019501
0.1465369677
0.1354642823
0.1271208586
0.1206913867
0.1156897801
0.1117861673
0.1087390396
0.1063640974
0.1045176827
0.1030866332
0.1019815331
0.1011311691
0.1004807181
0.09998575019
0.09961173402
0.09933167826
0.0991244934
0.09897362492
0.09886583311
0.09879057231
0.09873950418
0.09870602212
0.09868495491
0.09867231179
0.09866510212
0.09866120308
0.09865920711
0.09865824663
0.09865782465
0.09865767004
0.09865764308
0.09865767542
0.09865773473
0.09865780545
0.09865787996
0.09865795452
0.09865802725
0.09865809717
0.09865816374
0.09865822658
0.09865828546
0.09865834014
0.0986583904
0.09865843602
0.09865847677
0.09865851241
0.09865854275
0.09865856757
0.09865858645
0.09865859933
0.09865860132
0.7683688138
0.9388624309
1.099321783
1.110743785
0.8571661249
0.4885883562
0.3009370088
0.2183090164
0.1809046185
0.1599171116
0.1457748016
0.135380242
0.1274341011
0.121241846
0.1163704287
0.1125219779
0.1094780089
0.1070701472
0.105171648
0.1036768844
0.1025017093
0.1015800085
0.1008595131
0.1002988998
0.09986542349
0.09953305779
0.09928102318
0.09909257201
0.09895403538
0.09885425964
0.09878415649
0.09873628794
0.09870467111
0.09868460329
0.09867244643
0.0986654488
0.09866162507
0.09865964463
0.09865868359
0.09865825978
0.09865810474
0.09865807727
0.09865810792
0.09865816357
0.09865822867
0.09865829606
0.09865836246
0.09865842633
0.09865848691
0.09865854378
0.09865859663
0.09865864524
0.09865868937
0.09865872878
0.09865876327
0.09865879263
0.09865881663
0.09865883474
0.0986588472
0.09865884858
0.7331305147
0.8803904025
1.048703066
1.133913902
1.022447895
0.7018104292
0.4110975287
0.2720187824
0.2078497926
0.1766018034
0.1578431078
0.1447669047
0.1349994921
0.127449034
0.1215008393
0.1167874636
0.1130367117
0.1100396699
0.1076414151
0.1057223281
0.1041864673
0.1029583985
0.1019785319
0.1011993056
0.1005825218
0.1000973895
0.09971898732
0.09942699738
0.09920469708
0.09903820582
0.09891593686
0.09882819265
0.09876686918
0.09872529654
0.09869808167
0.09868095614
0.09867063164
0.09866468617
0.09866143276
0.09865975583
0.09865895778
0.09865862068
0.09865850921
0.09865850143
0.09865853834
0.0986585927
0.0986586524
0.09865871224
0.09865876993
0.09865882443
0.09865887522
0.09865892199
0.09865896449
0.09865900247
0.09865903572
0.09865906403
0.09865908718
0.09865910448
0.09865911666
0.09865911705
0.7139610938
0.8338919264
0.995327822
1.119209497
1.102986319
0.894436078
0.5808277257
0.3634277857
0.253088956
0.1993710012
0.1716387976
0.1544419802
0.1423095293
0.133300564
0.1262380702
0.120797871
0.116450625
0.1129478975
0.1101118386
0.1078105976
0.1059420053
0.1044254368
0.1031962715
0.1022023145
0.1014012758
0.1007587764
0.1002467761
0.09984224715
0.09952612119
0.09928245263
0.09909774552
0.09896045439
0.09886067751
0.09879000182
0.09874137236
0.09870896956
0.0986881231
0.09867520906
0.09866753293
0.09866318405
0.0986608546
0.09865969202
0.09865916497
0.098658961
0.09865891042
0.09865892686
0.09865896983
0.09865902167
0.0986590749
0.09865912643
0.0986591749
0.09865921966
0.09865926037
0.0986592968
0.0986593287
0.09865935586
0.09865937805
0.09865939475
0.09865940693
0.09865940633
0.7016053327
0.794841162
0.9417802247
1.083426873
1.133962765
1.024848666
0.7722130505
0.5042529813
0.3335479147
0.2376588683
0.1883939358
0.1625947826
0.1471142056
0.1366684932
0.128802509
0.1229555339
0.1183189798
0.1145947568
0.111573481
0.1091074561
0.1070882436
0.1054329843
0.1040764157
0.1029658679
0.1020583227
0.1013184415
0.1007173661
0.1002317652
0.09984275494
0.09953472801
0.09929432884
0.09911000121
0.09897163894
0.09887023139
0.09879782502
0.09874756362
0.09871370668
0.09869162476
0.09867771751
0.09866929136
0.09866440781
0.09866172111
0.09866033674
0.09865968233
0.09865941109
0.09865932641
0.09865932517
0.0986593578
0.0986594022
0.09865944904
0.09865949453
0.09865953707
0.09865957593
0.09865961073
0.09865964121
0.09865966717
0.09865968836
0.09865970432
0.09865971627
0.09865971703
0.6901954526
0.762037965
0.8911765483
1.036294645
1.129930681
1.101724571
0.9304510614
0.6793913626
0.459048563
0.31184004
0.2190809894
0.1712603606
0.1479942779
0.1354214728
0.1272845511
0.121499819
0.1171285991
0.1137021216
0.1109533709
0.1087160993
0.1068788639
0.1053621741
0.1041065496
0.1030658644
0.1022033162
0.101489158
0.1008990697
0.1004129822
0.1000143963
0.09969013528
0.0994296002
0.09922340101
0.09906309926
0.09894133718
0.09885126811
0.09878643277
0.09874110526
0.0987103687
0.09869015819
0.09867729679
0.09866940477
0.09866476056
0.09866215973
0.09866078986
0.09866012384
0.09865983669
0.09865973921
0.09865972879
0.09865975434
0.09865979254
0.0986598335
0.09865987321
0.09865991001
0.09865994315
0.09865997226
0.09865999709
0.09866001743
0.09866003296
0.09866004404
0.09866004554
0.6789466867
0.7349497683
0.8473658416
0.9861270329
1.103340663
1.134369689
1.040510254
0.840475625
0.6125364521
0.4280402677
0.2913221978
0.1957009862
0.1502635868
0.131467451
0.1223518895
0.1169440267
0.1132532782
0.1105228068
0.1084021554
0.1067041502
0.1053177598
0.1041714072
0.1032157157
0.1024147287
0.101741148
0.1011736184
0.1006951689
0.1002922018
0.09995371541
0.09967094618
0.09943699253
0.09924604851
0.09909286419
0.09897237104
0.09887979516
0.09881059215
0.09876033146
0.09872491998
0.09870072358
0.09868470583
0.09867444618
0.09866809791
0.09866432256
0.0986621827
0.09866104019
0.09866047652
0.09866022973
0.09866014465
0.09866013538
0.0986601579
0.09866019151
0.0986602273
0.0986602616
0.09866029293
0.09866032063
0.09866034437
0.09866036392
0.09866037899
0.09866038956
0.09866039124
0.6701614251
0.7134592602
0.8110693533
0.9394586127
1.065183865
1.135894459
1.105354159
0.966625132
0.7608252997
0.5579645664
0.3973818449
0.2645044177
0.1691934944
0.131214478
0.1180898615
0.1123233647
0.1090835294
0.1069578883
0.1054237249
0.1042481064
0.1033121609
0.102548355
0.1019145972
0.1013826687
0.1009325589
0.1005494151
0.1002218978
0.09994124248
0.09970067982
0.09949501833
0.09932019985
0.09917299604
0.09905077888
0.09895116473
0.09887177672
0.09881021332
0.09876383824
0.0987298585
0.09870567223
0.09868898683
0.09867784478
0.09867065975
0.09866619271
0.09866352101
0.09866199722
0.09866117979
0.09866077644
0.0986606021
0.09866054586
0.09866054536
0.09866056808
0.09866059845
0.09866062965
0.09866065891
0.09866068508
0.09866070767
0.09866072641
0.09866074104
0.09866075134
0.09866075318
0.6783949461
0.7000161281
0.7823696446
0.8983248156
1.023598539
1.117679842
1.135131308
1.054033033
0.8882096275
0.6859611008
0.5035411151
0.3571119408
0.2248253887
0.1437954363
0.1180051374
0.1098396405
0.1063603472
0.1044514727
0.1032235592
0.1023520778
0.1016962415
0.1011826417
0.1007689178
0.1004289538
0.1001455231
0.09990636928
0.09970266272
0.099527947
0.09937741749
0.0992474885
0.09913547534
0.09903935964
0.0989576082
0.09888899876
0.09883244191
0.09878686278
0.09875107943
0.0987237412
0.09870345788
0.09868884945
0.09867864497
0.09867175243
0.09866726648
0.09866446481
0.0986627874
0.09866183184
0.09866132284
0.09866107684
0.09866097667
0.09866095155
0.09866096144
0.09866098529
0.09866101294
0.09866103991
0.09866106442
0.09866108573
0.09866110353
0.09866111758
0.09866112763
0.09866113029
0.6961640132
0.6919630503
0.7592681062
0.8623469787
0.9822673151
1.088208567
1.140107365
1.107907041
0.9877999436
0.805354565
0.6097880342
0.4440887384
0.3037212142
0.1790344523
0.1248138674
0.1101569916
0.1053578453
0.1032085992
0.1020054016
0.101233859
0.1006964952
0.1003018396
0.1000010944
0.09976553323
0.099576921
0.09942293275
0.0992957183
0.09918922929
0.09909923492
0.09902267954
0.09895736366
0.09890153743
0.09885387962
0.09881340195
0.09877934512
0.09875109074
0.09872807726
0.09870973743
0.09869548563
0.0986847136
0.09867681538
0.098671216
0.0986673865
0.09866486914
0.09866328896
0.09866234558
0.09866181436
0.0986615386
0.09866141298
0.09866136997
0.09866136873
0.09866138615
0.09866141011
0.09866143479
0.09866145762
0.0986614776
0.09866149435
0.09866150769
0.09866151739
0.0986615209
0.7121830498
0.6858323791
0.7398905303
0.8306812583
0.9426221548
1.052723665
1.12800575
1.135599988
1.060350815
0.9100163656
0.7182636502
0.5329892624
0.3809293836
0.2423805049
0.1443724827
0.11399026
0.1059292235
0.1030002264
0.1015735222
0.1007424029
0.1002067548
0.0998395011
0.09957708574
0.09938385676
0.09923813999
0.09912596733
0.09903806059
0.0989681512
0.09891190037
0.09886616455
0.09882859119
0.09879761287
0.09877184576
0.09875027322
0.09873215681
0.09871695264
0.09870425202
0.09869376708
0.09868526825
0.09867853853
0.0986733544
0.09866948688
0.09866670296
0.09866477593
0.09866350039
0.09866269996
0.09866222765
0.09866196931
0.09866184326
0.09866179427
0.09866178684
0.09866179951
0.09866182021
0.09866184266
0.09866186389
0.09866188258
0.09866189828
0.09866191082
0.09866192006
0.09866192412
0.7239521005
0.6801171387
0.7232357734
0.8029322122
0.9058247667
1.015086311
1.104501461
1.143116033
1.108332294
0.995597167
0.8225600561
0.6299634157
0.4608424365
0.3182563509
0.1872829527
0.1247672442
0.1084518661
0.1036581615
0.1017020149
0.1006787842
0.1000638817
0.09966515139
0.09939479174
0.09920600666
0.09907133233
0.09897357614
0.09890144354
0.09884755756
0.09880698329
0.09877618932
0.09875264188
0.09873449472
0.09872034998
0.09870913554
0.09870002814
0.0986925034
0.09868618339
0.09868084838
0.0986763804
0.0986727005
0.09866973625
0.09866741806
0.09866566813
0.09866439801
0.09866351609
0.09866293469
0.09866257494
0.09866236915
0.09866226423
0.09866222148
0.0986622139
0.09866222438
0.09866224266
0.09866226307
0.0986622827
0.09866230016
0.09866231485
0.0986623266
0.0986623353
0.09866233964
0.7313441071
0.6744196565
0.7088082386
0.7788616018
0.8726010207
0.9778997471
1.07450467
1.13562567
1.135314665
1.06050995
0.9157608384
0.7289653847
0.5450232769
0.3936004295
0.2571693877
0.1507175079
0.1145875638
0.1053914066
0.1023163634
0.1009198665
0.100147718