/*--------------------------------*- C++ -*----------------------------------*\
  =========                 |
  \\      /  F ield         | OpenFOAM: The Open Source CFD Toolbox
   \\    /   O peration     | Website:  https://openfoam.org
    \\  /    A nd           | Version:  10
     \\/     M anipulation  |
\*---------------------------------------------------------------------------*/
FoamFile
{
    format      ascii;
    class       volScalarField;
    location    "3000";
    object      alphat;
}
// * * * * * * * * * * * * * * * * * * * * * * * * * * * * * * * * * * * * * //

dimensions      [1 -1 -1 0 0 0 0];

internalField   nonuniform List<scalar> 
5170
(
0.0008108238176
0.0008094149973
0.0007978356367
0.0006748100376
0.0002542749896
0.0008014305089
0.0008002395375
0.0007780620448
0.0005044275472
0.0002932969308
0.0007981152191
0.0007898614204
0.0007193173345
0.0004090030489
0.0003327317764
0.0007842590562
0.0007646494057
0.0006446855106
0.0003439228449
0.000356741928
0.0007804270487
0.0007445221834
0.0005843181644
0.0002993010349
0.0003809104677
0.0007562872017
0.0007094336411
0.0005343612072
0.0002707637405
0.0003949209784
0.0007451500853
0.0006944288014
0.0004634384438
0.0002529837906
0.0004012542576
0.0007238222667
0.0006527975609
0.0004190939581
0.0002427360331
0.0004049348526
0.000706451577
0.0006215119961
0.0003922689677
0.0002381978219
0.0004066787036
0.0006756814949
0.0005817080988
0.0003664873976
0.0002381044736
0.000407042551
0.0006538365061
0.0005539996498
0.000341282203
0.0002438996129
0.0004064705929
0.0006241502343
0.0005175534908
0.0003196582574
0.0002513212743
0.0004053201611
0.0006031552761
0.0004980671302
0.0003026682515
0.000261312862
0.0004038705115
0.0005757220168
0.0004661850225
0.0002890519989
0.0002731920647
0.0004023219809
0.00055254845
0.0004463540904
0.0002800657129
0.0002883741928
0.0004007693566
0.0005335725027
0.0004196884649
0.0002754611266
0.0003211564444
0.0003992795576
0.0005070775526
0.0004012010526
0.0002738916869
0.0003314788627
0.0003979360396
0.0004910562806
0.0003865773907
0.0002775267211
0.0003763772316
0.0003968138542
0.0004688353731
0.0003736062071
0.0002824498537
0.0003827641493
0.0003959962943
0.0004560118064
0.000353573585
0.0002800419103
0.0004226367125
0.0003844492215
2.713694129e-06
2.797645312e-05
4.653959969e-05
2.045478511e-05
2.235023813e-06
1.239371258e-06
2.202371895e-05
3.492965034e-05
1.519217833e-05
8.6216396e-07
6.528610667e-07
1.742016976e-05
2.613492992e-05
1.120417958e-05
3.8420974e-07
4.557374146e-07
1.437256091e-05
2.095291499e-05
1.089121338e-05
2.714451062e-07
3.671460719e-07
1.309158159e-05
1.809274195e-05
1.163827245e-05
2.69501365e-07
3.154457218e-07
1.164167058e-05
1.505421034e-05
1.313229172e-05
3.180757182e-07
3.024298899e-07
1.18284182e-05
1.381304624e-05
1.670504546e-05
4.488044583e-07
3.042452152e-07
1.147057877e-05
1.30562602e-05
2.048529062e-05
6.396992227e-07
3.118239199e-07
1.124326487e-05
1.29984877e-05
2.390245133e-05
8.383586732e-07
3.26503971e-07
1.125449277e-05
1.35059344e-05
2.691807117e-05
1.029060341e-06
3.419361806e-07
1.13314408e-05
1.442999956e-05
3.014437707e-05
1.223346053e-06
3.580574911e-07
1.156534226e-05
1.545496659e-05
3.294259343e-05
1.39446148e-06
3.713196173e-07
1.168472292e-05
1.658463559e-05
3.547326121e-05
1.550616693e-06
3.879265257e-07
1.205662051e-05
1.783658696e-05
3.772712713e-05
1.699867769e-06
4.022462687e-07
1.235217188e-05
1.931412052e-05
4.121564903e-05
1.851512421e-06
4.201683878e-07
1.290296158e-05
2.070362724e-05
4.257234753e-05
1.9326901e-06
4.38878201e-07
1.316079258e-05
2.190124883e-05
4.29183692e-05
2.024942373e-06
4.819813961e-07
1.395421582e-05
2.339440192e-05
4.64288775e-05
2.191640233e-06
5.785748613e-07
1.427145007e-05
2.506272959e-05
4.756345434e-05
2.269842779e-06
5.200995885e-06
1.574900044e-05
2.783886532e-05
4.813908232e-05
2.475701041e-06
0.0004326955088
0.000338622407
0.0002954023992
0.0004423637213
0.0003664104584
0.0004211879442
0.000332820845
0.0003205513152
0.000470868512
0.0004599276472
0.0004011126555
0.0003301029426
0.0003429552989
0.0005151665036
0.0005888815976
0.0003916798154
0.0003330961569
0.0003844155918
0.0005992024128
0.0007576503044
0.0003858458973
0.000343067871
0.0004434517092
0.0006817357554
0.0008438360197
0.0003830530542
0.0003586842379
0.0004831169827
0.0007332843102
0.0009221293847
0.0003864185948
0.0003908155489
0.0005603817283
0.0008769914569
0.001054114406
0.0003924372528
0.0004424914731
0.0007069425247
0.001042301096
0.001203750548
0.0004066346526
0.0005252639641
0.0008765627523
0.001178791089
0.00131387348
0.0004381804906
0.0006385517452
0.001052454621
0.001306929258
0.001423497386
0.0005434652635
0.000829922581
0.001220839946
0.001430141973
0.001528577257
0.0007130578042
0.001009263583
0.001340248427
0.001527522192
0.001616404806
0.0008787824781
0.001159556896
0.001446086428
0.001618918624
0.00170439862
0.001055174487
0.001301174052
0.001555099621
0.001717179685
0.001801432694
0.001273822818
0.001459408718
0.001677431613
0.001827367375
0.001905872483
0.001514883925
0.001637462578
0.001808082075
0.001937418139
0.002007054815
0.001776933237
0.001842646621
0.001957461222
0.002048952283
0.00210394092
0.00198574518
0.002016852605
0.002081309528
0.002147854021
0.002188048071
0.002161354193
0.002170658566
0.002199677831
0.002237549273
0.002260873628
0.002283239581
0.002284929523
0.002295336643
0.002311797303
0.002321799427
0.002380028488
0.002375975547
0.002374311264
0.002376742795
0.00237676136
0.002449401889
0.002444759921
0.002438868114
0.002434223969
0.002427527331
0.002516710147
0.002511637587
0.002500372124
0.002490310007
0.002478969361
0.002575032426
0.002566348819
0.002554523984
0.00254052397
0.002524353661
0.002612963827
0.002605739827
0.002595282632
0.002581226532
0.002565309976
0.002634588898
0.002631512706
0.002621246826
0.002606846126
0.002590399801
0.002650250327
0.002644960686
0.002634933254
0.002622455673
0.002602725995
0.002655180339
0.002651400797
0.002642098095
0.002625659366
0.002605660275
0.002654394446
0.002648773577
0.002636856175
0.002620858145
0.002601075489
0.002641008349
0.002635954787
0.002625450757
0.002610399
0.002591277054
0.002624787434
0.002620098522
0.002610121615
0.002595618394
0.002577069939
0.002602544995
0.002598195989
0.002588755815
0.002574941432
0.002557212408
0.002572014235
0.002567896172
0.002559081032
0.002546235538
0.002529851933
0.002530237302
0.00252677383
0.00251925657
0.002508368521
0.002494687129
0.002484402763
0.002481858565
0.002476490208
0.002468872661
0.002459568275
0.002451119414
0.002449815975
0.00244701377
0.002443143158
0.002438589737
0.002444126166
0.002443604707
0.002442562984
0.002441237117
0.002439866811
0.002459980831
0.002459911787
0.00245975739
0.002459700745
0.002459923615
0.002489867859
0.002489941093
0.002490170756
0.002490706478
0.002491749336
0.002526486754
0.002526769647
0.002527418654
0.002528627409
0.002530663278
0.002569072877
0.002569662634
0.002571041125
0.002573353841
0.002576802702
0.00261781699
0.00261860086
0.002620318156
0.002623010445
0.002626758158
0.002665270002
0.002666060323
0.00266781921
0.002670558423
0.002674341173
0.00271002894
0.002710902868
0.002712814276
0.002715768243
0.002719816018
0.002754970767
0.00275592878
0.00275804668
0.002761318837
0.002765778717
0.002802576526
0.002803657079
0.002806019923
0.00280963463
0.002814520985
0.002854364627
0.002855522048
0.002858069496
0.002861955965
0.002867187826
0.002910201754
0.002911429042
0.002914112319
0.002918192526
0.002923664551
0.00296940247
0.002970654725
0.002973404842
0.002977582006
0.002983172506
0.00303092452
0.003032192415
0.003034965272
0.003039169391
0.003044784857
0.003094215035
0.003095468676
0.003098218883
0.003102386718
0.003107947813
0.003158814143
0.003160050176
0.003162754294
0.003166847813
0.003172303718
0.003224470685
0.003225670546
0.003228301155
0.00323228251
0.003237585864
0.003290637075
0.003291800167
0.003294345283
0.003298194966
0.003303319991
0.003356717904
0.003357834417
0.003360281607
0.003363983329
0.003368910759
0.003422003521
0.003423076016
0.00342542349
0.003428973436
0.003433698024
0.003486007847
0.003487032948
0.003489279625
0.003492677842
0.003497201102
0.003548370321
0.003549353211
0.003551505059
0.003554759542
0.003559091618
0.003609037368
0.003609978234
0.003612040309
0.003615159793
0.003619313053
0.003668038574
0.003668943092
0.003670923722
0.003673919889
0.003677909236
0.003725539186
0.003726409047
0.003728315505
0.003731200083
0.003735041479
0.003781882633
0.003782722593
0.003784562044
0.003787345138
0.003791051514
0.00383692861
0.003837740503
0.003839519925
0.003842212879
0.003845799962
0.003891902934
0.003892690164
0.003894414304
0.003897023528
0.003900499288
0.003944795156
0.003945562124
0.003947242965
0.003949786734
0.003953175085
0.004000380654
0.004001128341
0.004002765809
0.004005243984
0.00400854599
0.004050362974
0.004051094958
0.004052698832
0.004055126069
0.00405835896
0.004108050786
0.004108773609
0.004110356684
0.004112752559
0.004115945387
0.004158613737
0.004159301206
0.004160807567
0.004163088114
0.004166127268
0.004173624408
0.004174364285
0.004175987632
0.00417844701
0.004181730089
0.001343192556
0.0007388503156
0.0007474988013
0.0008309455246
0.0008941743895
0.0009692228733
0.001095805963
0.001232802183
0.001335974937
0.001441292464
0.001542160916
0.00162914048
0.001718591027
0.001817863681
0.001921057238
0.002019053288
0.002111502618
0.002192559554
0.002260691129
0.002316866005
0.002368458351
0.0024179431
0.0024671051
0.002511429633
0.002550404804
0.002574690097
0.002586609943
0.0025895164
0.002585154934
0.002575798243
0.00256209007
0.002542973468
0.002516870405
0.002484091165
0.002452591241
0.002435290562
0.002438993517
0.002460299836
0.002492863734
0.002532717521
0.002579892531
0.002629945277
0.002677545761
0.002723227374
0.002769515066
0.0028185859
0.002871519563
0.002928177544
0.00298777191
0.003049395426
0.003112509083
0.003176771546
0.003241926302
0.00330751241
0.003372940801
0.003437561813
0.003500900846
0.003562635592
0.003622711759
0.003681174547
0.003738186523
0.003794086592
0.003848738848
0.003903347075
0.003955951735
0.00401125192
0.004061008706
0.00411856278
0.004168619144
0.004184428984
0.00063001038
9.736806322e-05
5.381266102e-05
4.668429674e-05
1.094025993e-05
0.0007274746349
0.0003922446207
0.0001214006139
5.886060626e-05
2.514837218e-05
0.0007874532484
0.0005421945164
0.0002944047176
0.0001608128479
7.187034996e-05
0.0008428706039
0.000662446277
0.0004377733171
0.0003431779783
0.0002248798091
0.0008960162077
0.0007733636419
0.0005815281453
0.0004577548746
0.0003667822943
0.0009736402034
0.0009028857109
0.0007271641372
0.0005637018542
0.0004963257609
0.00109864389
0.00102343849
0.0008460373151
0.0006550885317
0.0005946989568
0.001226168637
0.001137956673
0.0009566902996
0.0007472792412
0.0006822191321
0.00132464553
0.001231868651
0.001074319498
0.0008754144432
0.0007717879871
0.00142931092
0.001346101428
0.00119771746
0.001005676744
0.0008642598332
0.00152835468
0.001445393332
0.001292501598
0.001105760332
0.000946667089
0.001616687944
0.001539134707
0.001395980576
0.00120993763
0.001033175606
0.001709706378
0.001641551966
0.001510776358
0.001334874369
0.001151638112
0.00181313948
0.001753802201
0.001632005085
0.001465075385
0.001281689647
0.001915764709
0.001854524083
0.001733881609
0.001568717962
0.001387256883
0.002010941983
0.001951442493
0.001832224009
0.001669728645
0.001486843581
0.002100315918
0.002042866036
0.001926433936
0.00176740818
0.001584592003
0.002181857254
0.002119938172
0.002008627395
0.001860582727
0.001684741584
0.002244940594
0.00218655272
0.002082793746
0.001943919604
0.001778080825
0.002299720826
0.002245039608
0.002149599643
0.002020582577
0.001867046129
0.002349818547
0.002298646137
0.002212158203
0.002094676075
0.001954528726
0.002399530329
0.00235103419
0.002270727487
0.002160537068
0.002026589922
0.002446966918
0.002398965826
0.002323031435
0.002219603863
0.002093972661
0.002490700743
0.002444044111
0.002373432029
0.00227856782
0.002163943644
0.002527764168
0.002481009407
0.002414314779
0.00232646241
0.002220335084
0.002551225468
0.002504535288
0.002440934674
0.002358845424
0.002260585695
0.002562776661
0.002516677754
0.002456195625
0.002379965382
0.002290289591
0.002565785814
0.002520592069
0.002462965045
0.002392070022
0.002310402764
0.002561803948
0.002517687433
0.002462970207
0.002397563286
0.002324591127
0.002553097488
0.002510499049
0.00245899011
0.002399410947
0.002335615444
0.002540145966
0.002499315936
0.002451553528
0.002398721961
0.002345218011
0.002522151742
0.002484185434
0.002441602649
0.002397160875
0.002355044562
0.002497984433
0.002464767667
0.002429609172
0.002395426748
0.002365381136
0.002468857242
0.002443497939
0.002418507619
0.002396039837
0.002378139662
0.002442798749
0.002427582314
0.002413801831
0.002402762366
0.002396104287
0.002430932196
0.002424880045
0.002420492084
0.00241879714
0.002421745322
0.002438200827
0.002438086575
0.002439984645
0.0024451645
0.002456059343
0.002461349972
0.002464624046
0.002470781297
0.002481578659
0.002498542109
0.00249503667
0.002500954374
0.002511082895
0.002526468413
0.002545820234
0.002536335527
0.002545487564
0.002558819217
0.002575611685
0.002595056753
0.00258490968
0.002595548704
0.002609150531
0.002625495928
0.002644289978
0.002634991785
0.002645343659
0.002658433811
0.002674235292
0.00269262112
0.002682575738
0.002692893171
0.002705962642
0.002721821051
0.00274039419
0.002728538973
0.002739376233
0.002753020694
0.00276950962
0.00278876933
0.002775293065
0.002786960031
0.002801487898
0.002818881666
0.002839041445
0.002824837825
0.002837351268
0.002852770165
0.002871045044
0.002892044761
0.002878156269
0.002891350675
0.002907466528
0.00292641351
0.002948040725
0.002935072196
0.002948701994
0.002965235193
0.00298454721
0.003006476591
0.002994784363
0.003008593953
0.003025263046
0.0030446619
0.003066528349
0.003056413883
0.003070199396
0.003086785341
0.003105988157
0.003127558811
0.003119443768
0.003133039239
0.003149348524
0.003168180561
0.003189324604
0.003183558197
0.003196845428
0.003212751355
0.003231108534
0.003251689229
0.003248515451
0.003261408973
0.003276838676
0.003294623398
0.003314541769
0.003313872922
0.003326318156
0.003341201604
0.00335834753
0.003377542567
0.003379052519
0.00339101269
0.003405313894
0.003421787512
0.003440230395
0.0034434196
0.003454885958
0.00346859803
0.003484396152
0.003502088697
0.003506508866
0.003517491297
0.003530628923
0.003545771746
0.003562739998
0.003568006709
0.003578530165
0.003591124104
0.003605648272
0.003621934553
0.003627862281
0.003637959099
0.003650048965
0.003664000747
0.003679657242
0.003686122498
0.003695827245
0.003707454379
0.003720881228
0.003735960637
0.003742951902
0.003752303344
0.003763513461
0.003776467574
0.003791028155
0.003798684984
0.003807713448
0.003818543123
0.003831066534
0.003845154916
0.003853191364
0.003861937644
0.003872434274
0.003884580527
0.003898256226
0.003907662089
0.003916146546
0.003926338266
0.003938140007
0.003951438702
0.003960157678
0.003968431349
0.003978371094
0.003989887363
0.004002874503
0.004015351385
0.004023418965
0.004033125538
0.004044383271
0.004057091201
0.004065021686
0.004072924344
0.004082427595
0.004093452036
0.004105904433
0.004122527087
0.004130339216
0.004139750914
0.004150684544
0.004163049738
0.00417239389
0.004179827478
0.004188778425
0.004199178363
0.00421094584
0.004188517896
0.004196608042
0.004206389001
0.004217792974
0.004230717035
2.10520844e-06
1.405943944e-06
1.775648633e-05
0.0001146614689
0.0002213714087
0.0002677898816
0.0002973358561
0.0003271644043
0.0003614370777
0.0003985191204
0.0004376961537
0.0004762836967
0.0005129267295
0.000546132633
0.0005753315988
0.000599983716
0.0006202817275
0.0006365073987
0.0006490911015
0.0006586394528
0.0006656490695
0.0006704229837
0.0006732651403
0.0006745474787
0.0006748559005
0.0006745021185
0.0006736314296
0.0006725898778
0.0006716233842
0.0006708480547
0.0006702901192
0.0006699396998
0.0006697768811
0.0006697446445
0.0006697740266
0.0006698036093
0.0006697969866
0.0006697494096
0.0006696736753
0.0006695818403
0.0006694804544
0.0006693650647
0.0006692232342
0.0006690390305
0.0006688078993
0.0006685912252
0.0006684448265
0.0006683247643
0.0006682045427
0.0006680857531
0.0006679737399
0.0006678733042
0.000667783791
0.0006676945186
0.0006675748691
0.0006669424968
0.0006604798607
0.0006160459051
0.0003711374669
3.476644446e-05
6.059828986e-06
1.228997772e-06
8.03650561e-06
4.058641025e-05
7.952094913e-05
0.0001007339206
0.0001150578915
0.0001304584613
0.0001508084877
0.0001758490379
0.000207341669
0.0002445484761
0.0002877939221
0.0003352625222
0.0003852478694
0.000435218503
0.0004828693874
0.0005259371442
0.0005632084378
0.0005941268762
0.0006189918164
0.0006385229334
0.0006532800677
0.0006640294071
0.0006713470153
0.0006759489105
0.0006785619745
0.0006797900606
0.0006801062184
0.0006798129626
0.0006791449528
0.000678285986
0.0006773900698
0.0006765731313
0.0006758876438
0.0006753327367
0.0006748717244
0.0006744647097
0.0006740804297
0.0006737098298
0.00067335355
0.0006730144857
0.0006726942956
0.0006724190305
0.0006722195482
0.000672035101
0.0006717892566
0.000671471716
0.0006711348302
0.0006708332498
0.0006705774798
0.0006703655081
0.0006701930392
0.0006700409677
0.0006696609245
0.0006669110694
0.0006454971957
0.000553441077
0.0002727984585
3.32544334e-05
2.099772323e-05
2.810656668e-06
8.194639191e-06
2.270287625e-05
4.481806464e-05
5.807843649e-05
6.446610098e-05
7.038775533e-05
7.828861219e-05
8.829985863e-05
0.0001017070297
0.0001188953988
0.0001412583428
0.0001692709802
0.0002040145211
0.0002453291015
0.0002928466068
0.0003447850202
0.0003996115034
0.0004538763914
0.0005050460419
0.0005520891548
0.0005933662181
0.0006269640579
0.0006537326592
0.0006744531943
0.0006897761917
0.0007002237018
0.0007064702482
0.000708491237
0.0007074565392
0.000704473645
0.000700407321
0.0006960891229
0.0006921771197
0.0006890309829
0.000686655673
0.0006848415384
0.000683314584
0.0006819147346
0.0006806254994
0.000679517991
0.0006787326557
0.0006782864183
0.0006779696762
0.0006777870578
0.0006776606803
0.000677621227
0.0006775145595
0.0006771515196
0.0006764918367
0.0006757760796
0.0006752231183
0.0006747810881
0.0006736919796
0.0006670292037
0.0006293053638
0.0005014459744
0.0002242329872
3.218599124e-05
0.0001134344398
2.758020557e-05
8.498478142e-06
2.250191244e-05
4.973723096e-05
6.767146771e-05
7.196053599e-05
7.370063959e-05
7.562924471e-05
7.817144713e-05
8.189292011e-05
8.711779619e-05
9.461230209e-05
0.0001049132725
0.0001191073355
0.000137882822
0.0001625313075
0.0001936547802
0.000232091528
0.0002775271884
0.0003289544415
0.0003837884444
0.0004396134259
0.0004937258457
0.000543824231
0.0005879644921
0.0006255618265
0.0006564248944
0.0006808577279
0.0006996792946
0.0007130703359
0.0007212531448
0.0007246834938
0.0007243180243
0.0007213618118
0.0007170761291
0.0007126152085
0.0007086567626
0.0007053716604
0.0007025156429
0.0006997455949
0.0006968508604
0.0006937760547
0.0006907502646
0.0006882884389
0.0006866322972
0.0006858765079
0.0006858116531
0.0006861550406
0.0006865367642
0.0006866557217
0.0006862950606
0.0006855577792
0.000684478968
0.0006815197979
0.0006678887714
0.0006148225286
0.0004596795209
0.0001934178698
3.081720206e-05
0.0001983496931
8.399784802e-05
2.267482482e-05
3.47762645e-05
9.048967206e-05
0.0001367419029
0.0001443852898
0.0001425176597
0.000138464876
0.0001335189078
0.0001281015139
0.0001228633832
0.000118570062
0.0001157458756
0.0001149920173
0.0001170468219
0.000122603659
0.0001321168346
0.0001465728559
0.000166928098
0.000194267584
0.0002282679901
0.0002690102801
0.000316121268
0.0003683490922
0.0004231598549
0.0004775270168
0.0005286513294
0.0005745613009
0.000614099543
0.0006465344372
0.0006717975802
0.00069022229
0.0007027837172
0.0007104225961
0.0007140763772
0.0007151220756
0.0007149448473
0.0007145901669
0.0007146077063
0.0007147553685
0.0007144169149
0.0007130797205
0.0007104383855
0.0007065882888
0.0007020918152
0.0006978540747
0.0006946966444
0.0006930275461
0.0006928062927
0.0006935747134
0.0006946310412
0.0006951106731
0.0006941331001
0.0006882954694
0.0006659897758
0.0005964354911
0.000421925059
0.0001708101734
2.923128419e-05
0.0003643003103
0.0001914909167
7.782429685e-05
5.939399386e-05
0.0002007576936
0.000357513889
0.000388025209
0.0003801114748
0.0003617312277
0.000337281788
0.0003076769252
0.0002786313612
0.0002508692697
0.000224518198
0.0002022370566
0.0001845760524
0.0001700379347
0.0001585318325
0.0001510541256
0.00014835463
0.0001511199035
0.0001593701165
0.0001733403659
0.0001939943353
0.000222255077
0.000258288051
0.0003012957856
0.0003502278152
0.0004035727377
0.0004586056989
0.0005119432329
0.0005606913297
0.0006030740592
0.0006386188138
0.0006665598955
0.0006862635104
0.0006991563887
0.000706970004
0.0007115576804
0.0007145605785
0.0007173516211
0.0007204670705
0.0007238010172
0.0007266171604
0.0007275103099
0.0007258702039
0.0007219299311
0.0007165992332
0.0007113199862
0.0007072328359
0.0007051111266
0.0007048579988
0.0007053409092
0.0007041905432
0.0006949453942
0.0006620497419
0.0005743656003
0.0003876334666
0.00015245443
2.839956576e-05
0.0005271979773
0.0003227787763
0.0001785147277
9.402159751e-05
0.0001515153335
0.0004303708767
0.0005885762813
0.0006505243365
0.0006738241291
0.0006771901598
0.0006674319521
0.0006435249509
0.0006078549966
0.0005628443076
0.0005086839581
0.0004484203765
0.0003865274867
0.0003274481158
0.0002787346027
0.0002398243436
0.0002122787763
0.0001923384496
0.0001784886058
0.000171574927
0.0001718920392
0.0001796414376
0.0001943045837
0.0002167374123
0.0002480512296
0.0002883234219
0.0003361864506
0.0003898375357
0.0004470506961
0.0005047939839
0.0005610707631
0.0006111296308
0.0006500909312
0.0006773975985
0.0006949368458
0.0007054116488
0.0007115164962
0.0007161729934
0.0007215984499
0.0007286486402
0.0007370327436
0.0007443386867
0.0007484947113
0.0007484621954
0.0007447993615
0.0007392300614
0.0007335628819
0.0007290325986
0.0007254403808
0.0007200035778
0.0007041088198
0.0006588115129
0.0005527379589
0.0003606981007
0.0001386444707
2.751728011e-05
0.0006355969012
0.0005521365819
0.0003094368342
0.0001791936738
0.0001546976019
0.0002988228857
0.0005894113266
0.0007635189006
0.000854317497
0.0009028494161
0.0009263290411
0.0009323016161
0.0009243523596
0.0009043462922
0.0008733223594
0.0008319368782
0.0007809240579
0.0007197722956
0.0006460715839
0.0005651050822
0.0004795265794
0.0003972531859
0.0003264881186
0.0002732113237
0.0002355292681
0.0002107094793
0.0001939396236
0.0001860806407
0.0001874174287
0.0001981716499
0.0002175712691
0.000246853094
0.0002871382079
0.0003379222702
0.0003982343008
0.0004691650704
0.0005422385606
0.0006042702799
0.0006517392618
0.0006810135514
0.0006943693767
0.0007015838962
0.0007065272126
0.0007125825225
0.0007227281451
0.0007371488023
0.0007531930729
0.0007666840442
0.000774644693
0.0007763696669
0.0007730807515
0.000766611326
0.0007578700798
0.0007444408533
0.0007174704306
0.0006578814824
0.0005372439986
0.0003408515465
0.0001277702916
2.580888885e-05
0.0007240050049
0.0006597559543
0.0005396542096
0.0002921770388
0.0001818381821
0.0002324486062
0.0004542540706
0.0007293107351
0.0009043148748
0.001007933839
0.001070843428
0.001108346362
0.001128231793
0.001134521887
0.001129242944
0.001113314495
0.001087060545
0.001050413941
0.001002934826
0.0009447201887
0.0008764469713
0.0007993809634
0.0007122288681
0.0006160099612
0.0005175543674
0.0004232641478
0.0003416817404
0.0002833851396
0.000243121783
0.0002193076707
0.0002050476073
0.0002020946352
0.0002111043727
0.0002323305542
0.0002668357682
0.0003184129381
0.0003915807733
0.0004767952035
0.0005560621711
0.0006231073044
0.0006701658891
0.0006885888648
0.0006868005852
0.0006852601208
0.0006905175336
0.0007044546516
0.0007252798501
0.0007498287073
0.0007741638533
0.0007932654319
0.0008033507895
0.0008039272945
0.0007950913268
0.0007751362453
0.0007360420175
0.0006610971169
0.0005271713034
0.0003266441605
0.000119185235
2.513106797e-05
0.0008088537871
0.000755892674
0.0006667082872
0.0004924439484
0.0002691157754
0.0002037360801
0.0003301490419
0.0005976190542
0.0008402092049
0.000997134525
0.001098934147
0.001167733676
0.001215192775
0.001247487702
0.001267821177
0.001277718296
0.001277739697
0.001267890934
0.0012478575
0.001217238038
0.00117577082
0.001123465467
0.001060486263
0.0009870875984
0.0009047220968
0.0008153990923
0.0007205305087
0.0006167884286
0.0005145374482
0.0004184643654
0.000338414822
0.0002849254799
0.0002520004414
0.000237165203
0.0002373903887
0.00025445246
0.0002913440202
0.0003525580026
0.0004294067116
0.0005078150535
0.0005742103045
0.0006329523349
0.0006710743245
0.000675368051
0.0006564287238
0.0006538283313
0.0006739164415
0.0007040571736
0.0007378832675
0.0007713709081
0.0008003109253
0.0008185229564
0.0008203490254
0.0008014329297
0.0007549438074
0.0006673269296
0.0005225462379
0.0003195472499
0.0001154027343
2.464236562e-05
0.0008887534156
0.0008421541989
0.0007759669583
0.0006553580096
0.0004080539991
0.0002488586016
0.0002467697165
0.0004336302298
0.0007051051829
0.0009057240788
0.001038401828
0.00113257297
0.001203365365
0.001258300742
0.001300835394
0.001333045908
0.001356149416
0.001370605061
0.001376307088
0.00137277906
0.00135936039
0.001335404594
0.001300441365
0.001254286383
0.001197211021
0.001129995476
0.001053780342
0.000969416881
0.0008787601148
0.000784217571
0.0006881601422
0.0005876454894
0.0004945342276
0.0004153815226
0.0003584538167
0.0003257821788
0.0003156727375
0.0003235790652
0.0003566688782
0.0004079112925
0.0004653171705
0.0005188483936
0.0005703609566
0.0006167053863
0.0006378578405
0.0006246052857
0.0006156733751
0.0006359651703
0.0006752063696
0.0007191024319
0.0007609699493
0.0007949476993
0.0008139927654
0.0008074018092
0.0007640239154
0.0006725799252
0.0005221260052
0.000318190005
0.0001153745413
2.432836005e-05
0.0009719238009
0.0009275316073
0.000876130505
0.0007910193705
0.0006553301228
0.0003712815197
0.0002480658602
0.0002906399424
0.0005070125924
0.0007629800407
0.0009404292985
0.001062865966
0.001152820173
0.001220129354
0.001273045008
0.001316227769
0.001351973002
0.001381362763
0.00140461762
0.001421370805
0.001430889263
0.001432248191
0.001424316676
0.001405779881
0.001376092897
0.001335255033
0.001283853224
0.001222684578
0.001152845529
0.001075767274
0.0009930909261
0.0009061749738
0.0008174381966
0.0007300918649
0.0006480195097
0.0005736401291
0.0005103295399
0.0004632629217
0.0004288666632
0.0004101409518
0.0004181502828
0.0004437433971
0.0004778146306
0.0005147819689
0.0005554870527
0.000592835582
0.0006039643923
0.0005982299364
0.0006061891006
0.0006426392028
0.0006967627144
0.0007470277992
0.0007826890288
0.0007923322401
0.0007640240526
0.0006801723711
0.00052904016
0.0003219934124
0.0001177832036
2.427841972e-05
0.001056634962
0.00100502897
0.0009582704587
0.0008918470041
0.000785059845
0.0006258078036
0.0003502479339
0.0002536157167
0.0003191831061
0.0005376849701
0.0007750769367
0.0009405242743
0.001053329639
0.001135931594
0.001203927307
0.001259076705
0.001305636747
0.00134549892
0.001379361866
0.001407117134
0.001428097269
0.001441321201
0.001446235323
0.001443421029
0.001432484174
0.001413174398
0.001385189245
0.001348942406
0.001305092265
0.001254200629
0.001195373438
0.001129029336
0.001057142518
0.0009820239422
0.0009050054788
0.0008275425901
0.0007507475667
0.0006757067871
0.0006080814893
0.0005495839897
0.0005030080825
0.000477827879
0.0004619511359
0.0004690897261
0.0004922256753
0.0005242553273
0.0005596192611
0.0005947780016
0.0006082383998
0.0006152287573
0.0006372120847
0.0006837842411
0.0007390201108
0.0007757115876
0.0007645675983
0.0006910869325
0.0005437016778
0.0003312970225
0.0001231936
2.466982408e-05
0.001147536285
0.001086463181
0.001039729903
0.0009843313616
0.0008994980323
0.0007704680699
0.0005893114463
0.0003277183338
0.0002464639594
0.0003011897267
0.0004808503348
0.0006890278928
0.0008344997142
0.0009452706591
0.001032804866
0.00110863016
0.001176331049
0.001237715812
0.001293613543
0.001344475743
0.001389511344
0.001427050078
0.00145416462
0.001468287594
0.001468127332
0.001453525088
0.001428522802
0.001396306289
0.001358328822
0.001312268599
0.001264548162
0.001218806159
0.001172084538
0.001122313914
0.001069073386
0.001009054232
0.0009441133982
0.0008749272226
0.000802245567
0.0007284563375
0.0006558598856
0.0005906441242
0.0005452477117
0.000516080804
0.0005121469002
0.0005176051632
0.0005397753815
0.0005753733696
0.0006184671954
0.0006523507275
0.0006728869006
0.0006917803001
0.000716493502
0.0007393298057
0.0007397560072
0.0006868192239
0.0005577058984
0.0003492475194
0.0001329249107
2.577601182e-05
0.001230930638
0.001166658445
0.001120192603
0.001072484084
0.00100522768
0.0009034734322
0.0007590011085
0.0005662052229
0.0003121770277
0.0002238301946
0.0002609067775
0.0004065110659
0.000618008849
0.0007825613427
0.0009134758398
0.001022421984
0.001115785068
0.001197357007
0.001269353855
0.001332921643
0.001388399242
0.001435876723
0.001475553727
0.001505724229
0.001524463075
0.001529730469
0.001517066206
0.001484938976
0.001438187947
0.001387964155
0.001329757406
0.001264884955
0.001206568804
0.00116083646
0.001116339462
0.001077280597
0.001038833239
0.0009958171186
0.0009428689983
0.000881946956
0.0008149739211
0.0007448649183
0.0006764521873
0.0006144129642
0.0005658078557
0.0005446131561
0.0005503056404
0.0005789431126
0.0006162553906
0.0006631312947
0.0007103811233
0.0007384565808
0.0007509596304
0.0007553951176
0.0007423126708
0.0006908937201
0.0005775032203
0.0003896834377
0.0001524103643
2.794233341e-05
0.001314449787
0.001247950874
0.001202330195
0.001158597194
0.001104731314
0.001026128053
0.0009155691819
0.0007687557213
0.0005796283577
0.000325401022
0.0002097276587
0.0002310310069
0.0003673991381
0.0005999648594
0.0008128106878
0.0009866118456
0.001129180356
0.001247502509
0.001346506031
0.001429320693
0.001497670024
0.001552232485
0.001593000116
0.001619503835
0.001630972618
0.001626857026
0.001606925186