/*--------------------------------*- C++ -*----------------------------------*\
  =========                 |
  \\      /  F ield         | OpenFOAM: The Open Source CFD Toolbox
   \\    /   O peration     | Website:  https://openfoam.org
    \\  /    A nd           | Version:  10
     \\/     M anipulation  |
\*---------------------------------------------------------------------------*/
FoamFile
{
    format      ascii;
    class       volScalarField;
    location    "3000";
    object      C;
}
// * * * * * * * * * * * * * * * * * * * * * * * * * * * * * * * * * * * * * //

dimensions      [0 0 0 0 0 0 0];

internalField   nonuniform List<scalar> 
5170
(
3.91315711e-80
1.751600586e-80
3.114414731e-81
2.027137256e-82
2.357695047e-84
3.052083109e-77
1.28216743e-77
1.905079655e-78
8.222981313e-80
7.469856563e-82
2.326095759e-74
9.114177909e-75
1.090779215e-75
3.378504783e-77
2.323097948e-79
1.746501875e-71
6.389399048e-72
6.220968755e-73
1.443379519e-74
4.555734098e-77
1.299675905e-68
4.480868856e-69
3.639679023e-70
6.620751868e-72
0
9.658742677e-66
3.185856589e-66
2.167521419e-67
3.250283327e-69
0
7.240613175e-63
2.31431165e-63
1.344015869e-64
1.70197978e-66
0
5.45326301e-60
1.703500418e-60
8.976309412e-62
1.02943884e-63
0
4.164988205e-57
1.323951339e-57
6.583894596e-59
7.434399292e-61
0
3.247070388e-54
1.092497293e-54
5.346666987e-56
7.779744662e-58
1.913960598e-58
2.59735205e-51
9.665013956e-52
5.143127637e-53
1.80456044e-54
2.036885925e-54
2.125594516e-48
9.136240633e-49
6.252591369e-50
7.780604526e-51
1.128935421e-50
1.783833442e-45
9.275821712e-46
1.007684846e-46
4.012465562e-47
5.30014304e-47
1.526797289e-42
1.002057422e-42
2.06062923e-43
2.093712304e-43
2.594928546e-43
1.335304902e-39
1.16087288e-39
4.944093318e-40
1.056792488e-39
1.464926987e-39
1.174096402e-36
1.417777828e-36
1.280263771e-36
4.907508255e-36
8.779832668e-36
1.03268321e-33
1.827817807e-33
3.369145542e-33
2.045086076e-32
5.353440841e-32
8.832519382e-31
2.386178002e-30
8.642562649e-30
7.854633118e-29
3.279727658e-28
6.993551217e-28
3.010120307e-27
2.039705944e-26
2.620009899e-25
2.012616114e-24
4.627988823e-25
3.454837477e-24
4.333980033e-23
7.935539007e-22
1.251945999e-20
2.024675689e-21
1.096121622e-21
8.567656774e-22
1.27558044e-21
2.082274696e-21
1.750228233e-21
1.291837814e-21
1.121268211e-21
1.420895049e-21
1.732360273e-21
1.295784872e-21
1.174011679e-21
1.089049431e-21
1.215885655e-21
1.237839739e-21
9.525327036e-22
9.796751067e-22
9.504597419e-22
9.778178831e-22
8.788941484e-22
7.127481605e-22
7.990612624e-22
7.963041694e-22
7.677059617e-22
6.279338453e-22
5.468030226e-22
6.470540292e-22
6.552683268e-22
5.958925542e-22
4.557195906e-22
4.287028222e-22
5.231197635e-22
5.333274192e-22
4.594473512e-22
3.372233393e-22
3.423142798e-22
4.235435955e-22
4.313763408e-22
3.545413045e-22
2.563391996e-22
2.779350541e-22
3.444277511e-22
3.483060505e-22
2.771707315e-22
2.01780666e-22
2.291715554e-22
2.819487143e-22
2.82324665e-22
2.214595415e-22
1.646760559e-22
1.919175947e-22
2.330655027e-22
2.310197098e-22
1.813797316e-22
1.3867315e-22
1.631128787e-22
1.949908706e-22
1.916450031e-22
1.521648727e-22
1.196619044e-22
1.405360794e-22
1.653280105e-22
1.614559971e-22
1.303043041e-22
1.050681853e-22
1.224412543e-22
1.41961629e-22
1.380826415e-22
1.133944956e-22
9.332302191e-23
1.029886893e-22
1.218066028e-22
1.192402449e-22
9.978140487e-23
8.345135034e-23
5.464176356e-23
7.011848962e-23
6.85722461e-23
8.244060176e-23
7.338170914e-23
8.075251399e-23
7.211319899e-23
4.570023746e-23
2.645356667e-23
1.941029468e-23
8.740115072e-21
7.408652285e-21
3.037543379e-21
6.882736869e-22
1.969118703e-22
1.489054868e-18
1.672164089e-18
7.283558474e-19
1.731489766e-19
4.188438792e-20
1.969634403e-16
3.412023181e-16
1.652546544e-16
4.336492459e-17
8.363601526e-18
8.816571438e-23
1.037738504e-21
3.007170612e-20
1.354003007e-18
7.789705576e-17
3.115070515e-21
2.864796218e-20
6.54067679e-19
2.319604873e-17
9.116413828e-16
7.658705163e-19
7.893617578e-18
1.861468791e-16
6.0755511e-15
1.810791214e-13
1.355769793e-16
1.611725696e-15
4.014380637e-14
1.184798613e-12
2.780413456e-11
4.204362164e-16
4.182133957e-15
8.100641544e-14
1.676379408e-12
2.532628907e-11
7.651561278e-16
6.333772364e-15
9.599575699e-14
1.459865811e-12
1.524717043e-11
1.19656583e-15
8.820522775e-15
1.106409802e-13
1.242528395e-12
9.173113563e-12
4.878711956e-15
5.117919646e-14
8.064315695e-13
1.010842085e-11
9.27679482e-11
1.535322136e-14
1.489690561e-13
1.792820829e-12
1.6025629e-11
1.076662172e-10
3.266907233e-14
2.646808931e-13
2.340191978e-12
1.51546167e-11
7.647434732e-11
5.826110582e-14
3.544051405e-13
2.265178585e-12
1.115877945e-11
4.434771409e-11
1.260494352e-13
6.553084228e-13
3.912386311e-12
2.049905445e-11
9.662894711e-11
2.971629031e-13
1.297639311e-12
6.766048058e-12
3.169953351e-11
1.32247565e-10
5.904059607e-13
2.044985438e-12
8.726769878e-12
3.409825344e-11
1.189202904e-10
9.529637059e-13
2.577931176e-12
8.854413135e-12
2.856790781e-11
8.316437017e-11
1.306141893e-12
2.806894877e-12
7.807503863e-12
2.116160593e-11
5.304438787e-11
2.179441322e-12
4.24767265e-12
1.145695847e-11
3.325393137e-11
9.823697774e-11
6.025406952e-12
1.124064568e-11
2.956924344e-11
8.497181496e-11
2.462870101e-10
1.522298547e-11
2.548191694e-11
5.833628953e-11
1.460821357e-10
3.697235399e-10
2.789035101e-11
4.191268272e-11
8.287437148e-11
1.794731599e-10
3.954000139e-10
3.870640911e-11
5.317997155e-11
9.242511378e-11
1.757587903e-10
3.421595251e-10
4.342818344e-11
5.564558945e-11
8.698060914e-11
1.482942009e-10
2.60321465e-10
4.397328842e-11
5.380751536e-11
7.837573142e-11
1.248497578e-10
2.074357885e-10
5.560839748e-11
6.855244618e-11
1.02300401e-10
1.709192638e-10
3.057526605e-10
1.101367163e-10
1.387530201e-10
2.145784703e-10
3.720188875e-10
6.868040623e-10
2.413095417e-10
2.999902231e-10
4.523473509e-10
7.588007795e-10
1.347393088e-09
4.685411675e-10
5.673815126e-10
8.180832053e-10
1.303379497e-09
2.193578692e-09
7.929705278e-10
9.358748322e-10
1.290739797e-09
1.955337701e-09
3.127366646e-09
1.194812362e-09
1.378929743e-09
1.828671738e-09
2.648384392e-09
4.045978355e-09
1.630582969e-09
1.846237983e-09
2.365319991e-09
3.288595146e-09
4.815693966e-09
2.060844116e-09
2.296181383e-09
2.855685432e-09
3.830757365e-09
5.402520523e-09
2.550487921e-09
2.810963922e-09
3.426383864e-09
4.48798442e-09
6.178316194e-09
3.422497851e-09
3.760035771e-09
4.558760661e-09
5.940889014e-09
8.152699289e-09
5.289664495e-09
5.812507427e-09
7.05171303e-09
9.201103799e-09
1.26497581e-08
8.847086828e-09
9.672198913e-09
1.161435109e-08
1.494060423e-08
2.017812372e-08
1.651991205e-08
1.785612083e-08
2.096025046e-08
2.6151181e-08
3.40555723e-08
3.272416623e-08
3.47281539e-08
3.930614726e-08
4.673991187e-08
5.761649358e-08
5.842272584e-08
6.10486358e-08
6.69719255e-08
7.637636499e-08
8.970811022e-08
9.150874374e-08
9.462564841e-08
1.015599801e-07
1.122761968e-07
1.267980875e-07
1.331479097e-07
1.361997315e-07
1.426529047e-07
1.515339455e-07
1.608981358e-07
1.531649729e-07
1.510436161e-07
1.454764664e-07
1.35078939e-07
1.194643513e-07
6.695652665e-08
6.542011115e-08
6.217334889e-08
5.754073932e-08
5.187366054e-08
2.81267949e-08
2.757533898e-08
2.640456928e-08
2.473330186e-08
2.268615739e-08
1.199805119e-08
1.179591541e-08
1.136515211e-08
1.074606117e-08
9.979399083e-09
5.181901527e-09
5.105694302e-09
4.942692083e-09
4.706795106e-09
4.411681536e-09
2.259536562e-09
2.230070701e-09
2.166854703e-09
2.074850901e-09
1.958821727e-09
9.926492749e-10
9.810269627e-10
9.560331064e-10
9.194952323e-10
8.731247393e-10
4.388178961e-10
4.341614147e-10
4.241287856e-10
4.094105285e-10
3.906375329e-10
1.951037869e-10
1.932146504e-10
1.891381574e-10
1.831404104e-10
1.754586082e-10
8.725592803e-11
8.64811371e-11
8.480707752e-11
8.233799636e-11
7.916454197e-11
3.92747266e-11
3.895375745e-11
3.825946743e-11
3.72332575e-11
3.591023998e-11
1.780622253e-11
1.76719223e-11
1.738111785e-11
1.695046346e-11
1.639372953e-11
8.138434871e-12
8.081662284e-12
7.95861335e-12
7.776067568e-12
7.539487129e-12
3.752731279e-12
3.728471318e-12
3.675842525e-12
3.59763891e-12
3.496052621e-12
1.74670668e-12
1.736221812e-12
1.713456902e-12
1.679577909e-12
1.635475068e-12
8.208494898e-13
8.162641212e-13
8.063004456e-13
7.914516678e-13
7.720840551e-13
3.894483904e-13
3.874186983e-13
3.830052628e-13
3.764196797e-13
3.678147509e-13
1.864825262e-13
1.855731786e-13
1.835947083e-13
1.806392718e-13
1.767716043e-13
9.007455334e-14
8.966234204e-14
8.876509288e-14
8.742355396e-14
8.566559285e-14
4.386155653e-14
4.367261157e-14
4.326121009e-14
4.264564152e-14
4.183810204e-14
2.151917886e-14
2.143167611e-14
2.124111587e-14
2.095582254e-14
2.058121823e-14
1.063243683e-14
1.05915275e-14
1.050242881e-14
1.036897893e-14
1.019362457e-14
5.288611305e-15
5.269319787e-15
5.22730378e-15
5.164353004e-15
5.081585786e-15
2.648200206e-15
2.639029294e-15
2.619055741e-15
2.589122307e-15
2.549746069e-15
1.334597582e-15
1.330205202e-15
1.320639497e-15
1.306300667e-15
1.287429911e-15
6.77429458e-16
6.753088795e-16
6.706907781e-16
6.637668859e-16
6.546508803e-16
3.459532039e-16
3.449225205e-16
3.426781172e-16
3.39312481e-16
3.348795003e-16
1.78277019e-16
1.777711824e-16
1.766696326e-16
1.750174491e-16
1.728405105e-16
9.232011896e-17
9.207049317e-17
9.152699121e-17
9.071173107e-17
8.963719562e-17
5.031875234e-17
5.018941378e-17
4.99077076e-17
4.948497652e-17
4.892752167e-17
1.333101223e-15
1.498113967e-14
2.205719644e-12
2.834412516e-10
1.694180071e-10
7.132004996e-11
3.355450483e-11
4.770720625e-10
4.170389072e-10
2.31550343e-10
1.110908144e-10
3.095413606e-10
3.725140987e-10
2.856733329e-10
1.721867234e-10
9.878327122e-11
2.253203884e-10
5.459479306e-10
7.313424925e-10
7.013820244e-10
5.528767161e-10
3.903985122e-10
3.022728858e-10
4.808468933e-10
1.099422734e-09
2.084520813e-09
3.25489404e-09
4.465939469e-09
5.584760653e-09
6.441292942e-09
7.027806794e-09
7.904101185e-09
1.042740594e-08
1.620402928e-08
2.54372246e-08
4.165321377e-08
6.757530857e-08
1.014209442e-07
1.386232618e-07
1.646449709e-07
1.075545057e-07
4.778164748e-08
2.118233367e-08
9.406562233e-09
4.188199129e-09
1.870048353e-09
8.37361924e-10
3.760661167e-10
1.694644329e-10
7.667710124e-11
3.486912852e-11
1.595407743e-11
7.352058597e-12
3.415333846e-12
1.600335966e-12
7.566142405e-13
3.609260456e-13
1.736691375e-13
8.425299522e-14
4.118825975e-14
2.027939849e-14
1.005219828e-14
5.014775741e-15
2.517938097e-15
1.272175947e-15
6.472776571e-16
3.31291816e-16
1.710777753e-16
8.876663586e-17
4.847560986e-17
4.617493764e-15
6.086811946e-14
3.369725048e-14
8.867812169e-15
1.411325066e-15
8.08954776e-14
1.090619001e-12
7.019601007e-12
1.870104683e-12
2.462417659e-13
1.230953025e-11
1.602613655e-10
1.795868835e-09
2.997887858e-10
3.038110623e-11
1.628036427e-09
2.737224059e-08
4.241928038e-07
3.507917846e-08
2.689592448e-09
7.028453483e-10
6.426231273e-09
3.789996213e-08
5.686562518e-09
6.013286342e-10
2.3115798e-10
1.308376025e-09
4.091741268e-09
9.259060965e-10
1.329863157e-10
9.662641272e-11
4.970985438e-10
2.046774312e-09
7.411161175e-09
1.56894633e-09
1.847041457e-09
1.863917027e-08
1.638018595e-07
1.381467237e-06
1.737463558e-07
1.300978811e-09
8.629454869e-09
4.512967593e-08
1.777135995e-07
4.10803696e-08
6.062976667e-10
2.824739973e-09
9.859931056e-09
2.333209621e-08
7.919897625e-09
2.558886451e-10
9.382979075e-10
2.701888439e-09
6.201342476e-09
1.023463249e-08
8.874439688e-10
5.697989212e-09
3.364445e-08
1.895871085e-07
1.038221451e-06
9.600264303e-10
4.852841383e-09
2.148248468e-08
8.551590651e-08
3.0645615e-07
6.530273924e-10
2.558474993e-09
8.535985822e-09
2.430577842e-08
5.611738088e-08
3.518389034e-10
1.092899172e-09
2.86982472e-09
6.331880078e-09
1.129053796e-08
1.871860488e-10
5.170668601e-10
1.300793771e-09
3.142545129e-09
7.740636015e-09
5.159752308e-10
2.280430071e-09
9.782324958e-09
4.105276898e-08
1.692352094e-07
1.203773681e-09
4.815444884e-09
1.814229131e-08
6.519115027e-08
2.251700317e-07
1.471569228e-09
4.897162202e-09
1.520971339e-08
4.426800976e-08
1.204834749e-07
1.290418526e-09
3.616489943e-09
9.485819044e-09
2.330058813e-08
5.356889895e-08
9.38981082e-10
2.27484116e-09
5.218657631e-09
1.136151531e-08
2.364521985e-08
6.203335436e-10
1.343180067e-09
2.810344765e-09
5.722938157e-09
1.152026226e-08
4.700444165e-10
1.016738295e-09
2.230898341e-09
5.005832812e-09
1.154920836e-08
8.071043385e-10
2.084787785e-09
5.508116909e-09
1.473248585e-08
3.952768495e-08
1.867167659e-09
4.866349958e-09
1.273297357e-08
3.325213721e-08
8.630207772e-08
3.426885425e-09
8.353601961e-09
2.038411729e-08
4.953848197e-08
1.194717461e-07
5.146123726e-09
1.165577652e-08
2.649603377e-08
6.012470273e-08
1.35705594e-07
6.807577344e-09
1.44362142e-08
3.086311293e-08
6.614241219e-08
1.415871894e-07
8.234562151e-09
1.646702667e-08
3.33417317e-08
6.793704516e-08
1.387642158e-07
9.199945756e-09
1.738531584e-08
3.334886269e-08
6.44886684e-08
1.250963655e-07
9.75161335e-09
1.751261856e-08
3.199616005e-08
5.901833865e-08
1.090878806e-07
1.078118343e-08
1.886535724e-08
3.378596794e-08
6.141096459e-08
1.11634093e-07
1.423076029e-08
2.50812354e-08
4.546294414e-08
8.363459456e-08
1.517646295e-07
2.214638746e-08
3.90880497e-08
7.049990707e-08
1.27137376e-07
2.208996575e-07
3.411768399e-08
5.752787267e-08
9.723839027e-08
1.598873866e-07
2.426974907e-07
5.394789016e-08
8.45303289e-08
1.311493076e-07
1.945898543e-07
2.526457693e-07
8.33549095e-08
1.194695475e-07
1.68426558e-07
2.202953469e-07
2.117837624e-07
1.196243162e-07
1.576098122e-07
1.988477535e-07
2.056862366e-07
1.345603813e-07
1.562313207e-07
1.829251399e-07
1.786785371e-07
1.230588829e-07
8.199004244e-08
1.671213665e-07
1.401301831e-07
9.988775115e-08
6.967018993e-08
4.783216148e-08
9.088278852e-08
6.945703099e-08
5.155141885e-08
3.735412195e-08
2.653420439e-08
4.191749067e-08
3.326427214e-08
2.561326431e-08
1.921925666e-08
1.410767811e-08
1.900480721e-08
1.557712768e-08
1.23833371e-08
9.58634287e-09
7.252172588e-09
8.571387402e-09
7.204803973e-09
5.880816358e-09
4.676394544e-09
3.633802867e-09
3.860740668e-09
3.310214642e-09
2.761041202e-09
2.246140022e-09
1.78667084e-09
1.739486641e-09
1.515472443e-09
1.286909673e-09
1.067359246e-09
8.664520351e-10
7.846129776e-10
6.926510757e-10
5.971186736e-10
5.035212888e-10
4.160513559e-10
3.545244974e-10
3.164796307e-10
2.763701493e-10
2.364198906e-10
1.984126687e-10
1.605861852e-10
1.44735764e-10
1.278162643e-10
1.107255957e-10
9.421364772e-11
7.29868868e-11
6.633758508e-11
5.916350824e-11
5.182787264e-11
4.464418619e-11
3.332239736e-11
3.051287367e-11
2.745305177e-11
2.429041146e-11
2.115584041e-11
1.530006346e-11
1.410362872e-11
1.278968723e-11
1.141843298e-11
1.004456144e-11
7.072912598e-12
6.559001356e-12
5.990366987e-12
5.39173153e-12
4.786026651e-12
3.29498196e-12
3.072145934e-12
2.823900785e-12
2.560476632e-12
2.291538495e-12
1.547889113e-12
1.450280588e-12
1.340869014e-12
1.223925036e-12
1.103550401e-12
7.3350265e-13
6.902895378e-13
6.415791378e-13
5.891720397e-13
5.34823514e-13
3.506254955e-13
3.312852642e-13
3.093742045e-13
2.856598339e-13
2.609004333e-13
1.690264958e-13
1.602768365e-13
1.503190395e-13
1.394841119e-13
1.28103018e-13
8.213771746e-14
7.813790415e-14
7.356734017e-14
6.857051471e-14
6.329343745e-14
4.021461138e-14
3.836806832e-14
3.625043055e-14
3.392553889e-14
3.145850547e-14
1.982697247e-14
1.896668289e-14
1.797693462e-14
1.688626581e-14
1.572401656e-14
9.840119041e-15
9.435902602e-15
8.96953156e-15
8.453903746e-15
7.902370146e-15
4.914555731e-15
4.723137826e-15
4.501719648e-15
4.256187553e-15
3.992670652e-15
2.470210568e-15
2.378875097e-15
2.272977248e-15
2.155228389e-15
2.028465971e-15
1.249281291e-15
1.205391189e-15
1.154393189e-15
1.097545734e-15
1.036172001e-15
6.362087907e-16
6.149539818e-16
5.902073726e-16
5.625579733e-16
5.326276193e-16
3.259044081e-16
3.155440374e-16
3.034590737e-16
2.89926895e-16
2.752414787e-16
1.684303739e-16
1.633318549e-16
1.573743346e-16
1.506897881e-16
1.434185482e-16
8.745874022e-17
8.493729144e-17
8.198649763e-17
7.866929738e-17
7.505282373e-17
4.779650427e-17
4.648539801e-17
4.494827696e-17
4.321677494e-17
4.132481054e-17
3.791800918e-17
3.116026344e-18
1.536673975e-18
6.503454062e-19
2.3099952e-19
7.175235077e-20
2.009785888e-20
5.483866775e-21
1.619085855e-21
5.944612694e-22
3.044538318e-22
2.113547518e-22
1.750673727e-22
1.56235227e-22
1.424243967e-22
1.291641508e-22
1.149337664e-22
9.956490835e-23
8.359416323e-23
6.783711336e-23
5.312426141e-23
4.011321118e-23
2.919513308e-23
2.048251525e-23
1.385780223e-23
9.048477113e-24
5.707605683e-24
3.482030561e-24
2.057189986e-24
1.178675838e-24
6.559737596e-25
3.5528895e-25
1.877306608e-25
9.708454276e-26
4.93502809e-26
2.478937649e-26
1.237434746e-26
6.164783443e-27
3.067686856e-27
1.518829227e-27
7.42193397e-28
3.543738925e-28
1.637269111e-28
7.263037085e-29
3.077527332e-29
1.242228488e-29
4.77387806e-30
1.748534125e-30
6.117787191e-31
2.051035292e-31
6.612295684e-32
2.057623592e-32
6.203513666e-33
1.818048481e-33
5.187810851e-34
1.435053253e-34
3.739449831e-35
8.343999044e-36
1.131765215e-36
4.529869866e-38
8.55400692e-15
3.204442197e-16
5.341625245e-17
1.120803347e-17
2.201310214e-18
4.106226647e-19
7.793657476e-20
1.750686115e-20
5.580991853e-21
2.706553847e-21
1.798222104e-21
1.426574752e-21
1.232449984e-21
1.101739193e-21
9.905040166e-22
8.804042497e-22
7.662897393e-22
6.496420693e-22
5.348927042e-22
4.268172083e-22
3.295896563e-22
2.460764061e-22
1.77567986e-22
1.238290449e-22
8.348004305e-23
5.444069885e-23
3.437338327e-23
2.103315359e-23
1.248622518e-23
7.199393763e-24
4.037429751e-24
2.206321754e-24
1.177802457e-24
6.163421937e-25
3.176590409e-25
1.621754465e-25
8.248021375e-26
4.193339685e-26
2.129238953e-26
1.073359711e-26
5.320239053e-27
2.565247702e-27
1.191857988e-27
5.298851635e-28
2.244813016e-28
9.046962255e-29
3.469870944e-29
1.268961685e-29
4.438199902e-30
1.489883311e-30
4.819189694e-31
1.507995199e-31
4.582156196e-32
1.356106787e-32
3.911491605e-33
1.091621009e-33
2.842861048e-34
6.1897698e-35
8.078712879e-36
3.197335779e-37
1.243254178e-12
2.457193328e-14
9.324651505e-16
8.390446425e-17
1.085699237e-17
1.550746761e-18
2.480137031e-19
5.456198719e-20
1.940796272e-20
1.029223598e-20
6.94436062e-21
5.410607361e-21
4.582145019e-21
4.079970539e-21
3.697675114e-21
3.325416942e-21
2.923513924e-21
2.492734456e-21
2.054499535e-21
1.634299228e-21
1.255062095e-21
9.310569826e-22
6.678459782e-22
4.636117835e-22
3.117708649e-22
2.033274953e-22
1.287430571e-22
7.922655875e-23
4.743444247e-23
2.766011468e-23
1.572864474e-23
8.737636133e-24
4.754386274e-24
2.54343324e-24
1.34462459e-24
7.067233532e-25
3.711830712e-25
1.951220894e-25
1.022663041e-25
5.296580846e-26
2.679924661e-26
1.310094221e-26
6.133880158e-27
2.734848549e-27
1.157995176e-27
4.655854822e-28
1.780914764e-28
6.50244693e-29
2.275542047e-29
7.665667651e-30
2.496413895e-30
7.891008105e-31
2.429580975e-31
7.30273938e-32
2.139753651e-32
6.035589839e-33
1.564668934e-33
3.269328441e-34
3.885645152e-35
1.401321549e-36
1.199405589e-10
2.911077909e-12
4.63352707e-14
1.175835575e-15
6.158163991e-17
5.662770776e-18
8.942114285e-19
2.444824841e-19
9.775601966e-20
4.900293653e-20
2.911336676e-20
1.999947058e-20
1.542089076e-20
1.284997875e-20
1.115070698e-20
9.783953211e-21
8.579961436e-21
7.404970502e-21
6.204127814e-21
5.009845516e-21
3.889602155e-21
2.902585626e-21
2.085476576e-21
1.446576417e-21
9.716753995e-22
6.337435493e-22
4.022480551e-22
2.488971276e-22
1.503518407e-22
8.87886213e-23
5.133993127e-23
2.91276643e-23
1.62618246e-23
8.969883071e-24
4.913789314e-24
2.68781812e-24
1.472771293e-24
8.070190123e-25
4.389139787e-25
2.342139597e-25
1.211211547e-25
6.006273661e-26
2.834873353e-26
1.268061291e-26
5.368988117e-27
2.154896708e-27
8.227977952e-28
3.003413774e-28
1.053724662e-28
3.57214662e-29
1.175734522e-29
3.771986696e-30
1.182687198e-30
3.626308743e-31
1.082068486e-31
3.081791971e-32
7.919244637e-33
1.579791543e-33
1.687444124e-34
5.451889133e-36
3.476770643e-11
1.105214814e-12
2.314999896e-14
6.670615619e-16
5.390116408e-17
1.135907427e-17
3.854196376e-18
1.538282859e-18
6.706360128e-19
3.177102989e-19
1.663248892e-19
9.755426438e-20
6.431985183e-20
4.709276464e-20
3.727738964e-20
3.088369875e-20
2.600368703e-20
2.180023445e-20
1.804065332e-20
1.467839043e-20
1.156762538e-20
8.769850327e-21
6.384405356e-21
4.469245628e-21
3.018273844e-21
1.97467337e-21
1.256635913e-21
7.805501166e-22
4.745131533e-22
2.829577782e-22
1.658723969e-22
9.583425325e-23
5.475665849e-23
3.107952615e-23
1.761754802e-23
1.001795802e-23
5.717292525e-24
3.256058927e-24
1.830030896e-24
1.001563379e-24
5.272248902e-25
2.644563366e-25
1.256550219e-25
5.640035368e-26
2.391858359e-26
9.610591657e-27
3.676165114e-27
1.346564062e-27
4.752984768e-28
1.626234861e-28
5.421204614e-29
1.767515979e-29
5.6467377e-30
1.765289765e-30
5.353342563e-31
1.53411293e-31
3.893360427e-32
7.438286861e-33
7.23116007e-34
2.18099111e-35
1.036306929e-11
4.588529592e-13
1.247001496e-14
3.341395244e-16
4.88050077e-17
2.412138868e-17
1.309655595e-17
6.850707474e-18
3.484118718e-18
1.775525389e-18
9.362268034e-19
5.249174786e-19
3.192434329e-19
2.123837595e-19
1.534990189e-19
1.182922326e-19
9.4715053e-20
7.689769466e-20
6.216632533e-20
4.951794918e-20
3.855067521e-20
2.917493972e-20
2.136644205e-20
1.511572152e-20
1.032581309e-20
6.823258856e-21
4.372785754e-21
2.727473287e-21
1.661938842e-21
9.93241169e-22
5.84586092e-22
3.402418049e-22
1.966994006e-22
1.135383895e-22
6.57996997e-23
3.842252794e-23
2.255849228e-23
1.31933476e-23
7.581037548e-24
4.217832125e-24
2.244094924e-24
1.132109837e-24
5.390511053e-25
2.419510843e-25
1.025789191e-25
4.127326428e-26
1.585759208e-26
5.855130775e-27
2.090139741e-27
7.251955266e-28
2.456268622e-28
8.147066192e-29
2.649087023e-29
8.419947404e-30
2.585482247e-30
7.433552537e-31
1.862153271e-31
3.431993529e-32
3.080819457e-33
8.893428722e-35
1.836765946e-10
1.126981037e-11
3.889285006e-13
1.056590232e-14
5.430183735e-16
1.535321137e-16
6.588899362e-17
3.100423951e-17
1.483653979e-17
7.163617503e-18
3.561042132e-18
1.878140973e-18
1.079729667e-18
6.870173227e-19
4.832385239e-19
3.691474174e-19
2.980155676e-19
2.47117544e-19
2.054965065e-19
1.684847371e-19
1.34618646e-19
1.041179188e-19
7.763902538e-20
5.580478791e-20
3.870990421e-20
2.598123929e-20
1.68977336e-20
1.066984636e-20
6.555694945e-21
3.932394055e-21
2.313333067e-21
1.342318991e-21
7.733576999e-22
4.454784609e-22
2.583079809e-22
1.514712026e-22
8.961011106e-23
5.287169872e-23
3.063267305e-23
1.715909385e-23
9.17120485e-24
4.637047939e-24
2.207473891e-24
9.883217663e-25
4.175712404e-25
1.677494164e-25
6.464471603e-26
2.408144248e-26
8.720582465e-27
3.08148781e-27
1.065031582e-27
3.604861652e-28
1.194331773e-28
3.855993158e-29
1.196659553e-29
3.450585804e-30
8.565640257e-31
1.541092419e-31
1.303016076e-32
3.670806114e-34
1.559083397e-08
1.164287183e-09
5.186501529e-11
1.333765112e-12
3.64018044e-14
3.101886905e-15
5.851796655e-16
1.604370737e-16
5.401270408e-17
2.095046845e-17
9.129082685e-18
4.441934881e-18
2.421929662e-18
1.487629267e-18
1.027421491e-18
7.853395904e-19
6.462557857e-19
5.55182375e-19
4.84729453e-19
4.214924916e-19
3.597186524e-19
2.981426364e-19
2.381536e-19
1.825453689e-19
1.339758176e-19
9.42108193e-20
6.353200937e-20
4.123603289e-20
2.588792626e-20
1.57961908e-20
9.404094725e-21
5.488793812e-21
3.160686631e-21
1.809515409e-21
1.037390398e-21
5.989768394e-22
3.488924337e-22
2.032589745e-22
1.166930992e-22
6.505344432e-23
3.474800094e-23
1.759559157e-23
8.392056108e-24
3.759293121e-24
1.58598357e-24
6.361217871e-25
2.455313992e-25
9.212166394e-26
3.380873628e-26
1.217057307e-26
4.299089592e-27
1.488580076e-27
5.038548126e-28
1.656202678e-28
5.204786315e-29
1.509817959e-29
3.74252781e-30
6.662601017e-31
5.455003119e-32
1.520138427e-33
5.578376177e-09
5.826955133e-10
4.74553649e-11
2.134554159e-12
6.086879616e-14
3.57361874e-15
5.724628e-16
1.634431456e-16
6.256329915e-17
2.766316596e-17
1.334178043e-17
6.925492419e-18
3.903397504e-18
2.431590925e-18
1.694804222e-18
1.314313403e-18
1.107350842e-18
9.826054254e-19
8.930971032e-19
8.144338529e-19
7.345937775e-19
6.489022213e-19
5.573129493e-19
4.626009322e-19
3.692715823e-19
2.822689123e-19
2.059170835e-19
1.432686535e-19
9.519891891e-20
6.064631918e-20
3.718256081e-20
2.210374341e-20
1.285795824e-20
7.38344682e-21
4.211692521e-21
2.393287382e-21
1.356895947e-21
7.662793651e-22
4.27147334e-22
2.324395045e-22
1.223566002e-22
6.177519398e-23
2.960984003e-23
1.335931295e-23
5.659052477e-24
2.273380328e-24
8.794042488e-25
3.314924795e-25
1.226921753e-25
4.474934847e-26
1.60879204e-26
5.687620769e-27
1.967694061e-27
6.600842761e-28
2.109170334e-28
6.188961386e-29
1.54479405e-29
2.757357211e-30
2.240660184e-31
6.307431483e-33
1.49245767e-09
2.056559157e-10
2.292638963e-11
1.846478552e-12
8.469717474e-14
3.687165179e-15
4.201386957e-16
1.172840879e-16
5.183838061e-17
2.708078619e-17
1.496958857e-17
8.5517253e-18
5.119607253e-18
3.308281828e-18
2.368383293e-18
1.887172875e-18
1.640702044e-18
1.508187998e-18
1.424003217e-18
1.352205953e-18
1.273498978e-18
1.17892217e-18
1.066175895e-18
9.376237008e-19
7.987418385e-19
6.568136932e-19
5.196554695e-19
3.941543314e-19
2.857280809e-19
1.974317572e-19
1.299228523e-19
8.167546551e-20
4.936768587e-20
2.894774584e-20
1.661716061e-20
9.400370165e-21
5.239859865e-21
2.873190748e-21
1.544160006e-21
8.106985633e-22
4.131109863e-22
2.036601191e-22
9.691511199e-23
4.420363088e-23
1.906285746e-23
7.750125538e-24
3.015962697e-24
1.14175366e-24
4.245369087e-25
1.557737833e-25
5.651020258e-26
2.024604842e-26
7.126564407e-27
2.437401505e-27
7.938681012e-28
2.371083228e-28
6.015902267e-29
1.093121908e-29
9.040541735e-31
2.631646447e-32
2.87844119e-09
5.52942003e-10
8.865067929e-11
1.176255629e-11
1.023049667e-12
5.300345077e-14
3.388105629e-15
5.202115453e-16
1.455154349e-16
5.58654238e-17
2.576516973e-17
1.3243573e-17
7.385035484e-18
4.537037214e-18
3.163788825e-18
2.524719383e-18
2.245706917e-18
2.134990217e-18
2.092308553e-18
2.063277861e-18
2.018130341e-18
1.941369928e-18
1.826920908e-18
1.675611732e-18
1.493477345e-18
1.290256449e-18
1.077822368e-18
8.68491745e-19
6.733533484e-19
5.010635707e-19
3.570518513e-19
2.431126241e-19
1.580604867e-19
9.830542666e-20
5.881454538e-20
3.405605781e-20
1.913162587e-20
1.04109447e-20
5.484694566e-21
2.800324319e-21
1.386792218e-21
6.648647311e-22
3.08492168e-22
1.388108187e-22
6.048956709e-23
2.52611819e-23
1.004511406e-23
3.834790052e-24
1.427150413e-24
5.233913016e-25
1.90082316e-25
6.8390138e-26
2.428053127e-26
8.415900034e-27
2.789235814e-27
8.505600898e-28
2.21295401e-28
4.15234681e-29
3.57371769e-30
1.096303317e-31
1.666942262e-07
2.341608604e-08
3.107269385e-09
3.83315676e-10
4.172166089e-11
2.926236974e-12
1.40453616e-13
1.003605258e-14
1.446083114e-15
3.097918156e-16
8.362853798e-17
2.790077435e-17
1.168863704e-17
6.144849383e-18
4.025626806e-18
3.209512462e-18
2.941405365e-18
2.90767439e-18
2.961770503e-18
3.027460762e-18
3.062073024e-18
3.04143002e-18
2.953696038e-18
2.796663339e-18
2.57611066e-18
2.304217681e-18
1.997723297e-18
1.675750491e-18
1.357471067e-18
1.059904293e-18
7.961386297e-19
5.74262349e-19
3.971287367e-19
2.630264472e-19
1.668232993e-19
1.01441444e-19
5.920751088e-20
3.317431352e-20
1.783006654e-20
9.16593757e-21
4.516767717e-21
2.142221439e-21
9.807457054e-22
4.344135168e-22
1.869357227e-22
7.837603612e-23
3.186974649e-23
1.248016527e-23
4.703570535e-24
1.723265458e-24
6.220033729e-25
2.228207754e-25
7.909383482e-26
2.754677825e-26
9.228984408e-27
2.867005985e-27
7.681043094e-28
1.506397207e-28
1.377522513e-29
4.545420562e-31
7.142570732e-08
1.320216321e-08
2.184745241e-09
3.31446898e-10
4.507013912e-11
5.19166036e-12
3.895106126e-13
2.296010425e-14
2.130170081e-15
3.717995104e-16
9.572677991e-17
3.146530623e-17
1.283232935e-17
6.731470248e-18
4.577674538e-18
3.910660178e-18
3.825730111e-18
3.980732204e-18
4.215206413e-18
4.44236515e-18
4.609803825e-18
4.684903937e-18
4.649436835e-18
4.497507255e-18
4.234309538e-18
3.874782081e-18
3.441690956e-18
2.963006019e-18
2.468795551e-18
1.987825138e-18
1.54440036e-18
1.156067094e-18
8.325762804e-19
5.761917545e-19
3.828416049e-19
2.440276529e-19
1.490943557e-19
8.718499512e-20
4.869754662e-20
2.596293639e-20
1.319822776e-20
6.407029127e-21
2.974210302e-21
1.322292648e-21
5.672050912e-22
2.362124393e-22
9.580587211e-23
3.796723124e-23
1.464856153e-23
5.472234446e-24
1.984193952e-24
7.052026176e-25
2.475980705e-25
8.565543672e-26
2.871591986e-26
9.018899322e-27
2.485561607e-27
5.159222207e-28
5.153425673e-29
1.882083378e-30
1.918898695e-08
4.650764888e-09
9.550625196e-10
1.757247042e-10
2.920183689e-11
4.270162227e-12
5.16319452e-13
4.078350198e-14
2.672941328e-15
2.807932561e-16
5.928494357e-17
2.0125261e-17
9.540137008e-18
6.137162478e-18
5.097386463e-18
5.027308503e-18
5.350265172e-18
5.822902336e-18
6.313947625e-18
6.743006224e-18
7.057043581e-18
7.221200136e-18
7.215698143e-18
7.034598381e-18
6.684979574e-18
6.18557584e-18
5.56550011e-18
4.862215058e-18
4.118553293e-18
3.377675844e-18
2.677987209e-18
2.050061793e-18
1.513981043e-18
1.077827075e-18
7.392257255e-19
4.880317606e-19
3.097985512e-19
1.888063463e-19
1.102284838e-19
6.14827843e-20
3.267381389e-20
1.650220047e-20
7.926772544e-21
3.629733839e-21
1.591557379e-21
6.711080829e-22
2.732832589e-22
1.08070353e-22
4.177551566e-23
1.581129158e-23
5.841655824e-24
2.09919565e-24
7.347089695e-25
2.511458451e-25
8.336558959e-26
2.623926684e-26
7.412383596e-27
1.646495783e-27
1.876435382e-28
7.802748484e-30
4.930540316e-09
1.488116508e-09
3.730246665e-10
8.183058065e-11
1.623785697e-11
2.906449963e-12
4.572023627e-13
6.012403598e-14
5.297024523e-15
3.680813121e-16
4.078635737e-17
1.21896739e-17
7.620541418e-18
6.712877758e-18
6.895046811e-18
7.517117869e-18
8.290368736e-18
9.059631473e-18
9.732626109e-18
1.025155716e-17
1.057989423e-17
1.069611883e-17
1.059132575e-17
1.026808293e-17
9.739633695e-18
9.02936566e-18
8.169673131e-18
7.200738297e-18
6.16885241e-18
5.126159512e-18
4.124617358e-18
3.207496002e-18
2.407403927e-18
1.743831644e-18
1.219378775e-18
8.229334107e-19
5.361257568e-19
3.369681797e-19
2.039633685e-19
1.185744226e-19