/*--------------------------------*- C++ -*----------------------------------*\
  =========                 |
  \\      /  F ield         | OpenFOAM: The Open Source CFD Toolbox
   \\    /   O peration     | Website:  https://openfoam.org
    \\  /    A nd           | Version:  10
     \\/     M anipulation  |
\*---------------------------------------------------------------------------*/
FoamFile
{
    format      ascii;
    class       volScalarField;
    location    "3000";
    object      C2H;
}
// * * * * * * * * * * * * * * * * * * * * * * * * * * * * * * * * * * * * * //

dimensions      [0 0 0 0 0 0 0];

internalField   nonuniform List<scalar> 
5170
(
1.738767298e-77
7.778768228e-78
1.402615581e-78
9.24466049e-80
1.061323262e-81
1.320801563e-74
5.536680612e-75
8.355368143e-76
3.639163731e-77
3.136908925e-79
9.756679379e-72
3.804361031e-72
4.624859559e-73
1.439984636e-74
7.894449115e-77
7.06495493e-69
2.561847789e-69
2.532070515e-70
5.883065026e-72
5.600470048e-75
5.046638744e-66
1.715066675e-66
1.41262305e-67
2.563253971e-69
0
3.583468954e-63
1.156713362e-63
7.962708096e-65
1.186565735e-66
0
2.55663552e-60
7.926483698e-61
4.635188362e-62
5.801089281e-64
0
1.825655259e-57
5.467155945e-58
2.880546169e-59
3.223223798e-61
0
1.318357344e-54
3.966841107e-55
1.949250114e-56
2.053832767e-58
0
9.697579923e-52
3.049204246e-52
1.443925308e-53
1.739086061e-55
0
7.312512439e-49
2.515127738e-49
1.254076695e-50
3.436369565e-52
0
5.641453945e-46
2.223275135e-46
1.37702708e-47
1.497133467e-48
0
4.470121725e-43
2.124788329e-43
2.058472638e-44
7.928521825e-45
5.247663751e-45
3.622268762e-40
2.178160304e-40
4.049624033e-41
4.174130285e-41
4.857750231e-41
3.012783774e-37
2.418304762e-37
9.594909164e-38
2.108918156e-37
2.988724119e-37
2.534465267e-34
2.859579877e-34
2.481913381e-34
9.792469715e-34
1.809246042e-33
2.147517012e-31
3.609180975e-31
6.553227752e-31
4.08303092e-30
1.09795468e-29
1.78491472e-28
4.659448414e-28
1.689953779e-27
1.56919195e-26
6.676483025e-26
1.38796404e-25
5.866527366e-25
4.015915064e-24
5.244024675e-23
4.066222277e-22
9.134217264e-23
6.782258392e-22
8.61278939e-21
1.591707916e-19
2.511563967e-18
1.18679991e-28
6.726190796e-29
1.681164979e-29
5.157926417e-29
8.076869369e-29
5.226555348e-29
3.904052597e-29
1.994712538e-29
6.701541565e-29
4.997838961e-29
3.051502075e-29
2.354585166e-29
1.525752916e-29
2.968550947e-29
2.579080799e-29
1.735686104e-29
1.472890822e-29
1.107521495e-29
1.518156271e-29
1.376192772e-29
9.726865878e-30
9.452082979e-30
7.785893444e-30
8.310806108e-30
7.010665357e-30
5.539983847e-30
6.082583405e-30
5.258529704e-30
4.621480135e-30
3.33089653e-30
3.183598033e-30
3.822113838e-30
3.342383649e-30
2.200116209e-30
1.461328003e-30
1.781537643e-30
2.335837574e-30
2.017688223e-30
1.089245518e-30
6.335692348e-31
1.0255435e-30
1.404914561e-30
1.215253805e-30
6.267435195e-31
2.963407606e-31
5.882401149e-31
8.626532071e-31
7.561589261e-31
5.905840614e-31
2.233628075e-31
3.698379318e-31
5.209604255e-31
5.209350053e-31
8.084505557e-31
2.630311142e-31
6.255043782e-30
1.950027479e-30
7.004836988e-31
5.429458234e-31
2.421012145e-31
1.002874931e-27
2.818566216e-28
7.566784567e-29
4.201155691e-29
2.979859346e-29
1.668686873e-25
4.895556707e-26
1.434799746e-26
1.181672062e-26
6.182624169e-27
2.802066757e-23
8.725282334e-24
2.759207112e-24
3.570118397e-24
1.250872618e-24
4.74055167e-21
1.595414689e-21
5.158041102e-22
1.010092782e-21
2.309364858e-22
8.093705543e-19
3.010791786e-19
8.82282856e-20
1.928109516e-19
3.401957242e-20
1.393800677e-16
5.883893044e-17
1.404480762e-17
2.85492653e-17
4.026997828e-18
2.465021639e-14
1.202446179e-14
2.095496946e-15
3.044427839e-15
3.539466825e-16
1.1483044e-13
4.11985222e-13
2.860896392e-13
1.765130453e-13
1.711672365e-14
1.815393164e-20
2.107469537e-19
6.088278966e-18
2.731728546e-16
1.553019362e-14
1.142723185e-18
1.431943025e-17
4.2289195e-16
1.764440095e-14
8.036172668e-13
3.668697273e-18
3.89627072e-17
9.276489039e-16
2.956726039e-14
8.515265916e-13
1.512416107e-16
2.087327027e-15
5.885837056e-14
1.862957559e-12
4.586766193e-11
5.086580032e-16
6.086265045e-15
1.383294806e-13
3.200429789e-12
5.367700875e-11
1.006058484e-15
1.022142155e-14
1.865785451e-13
3.279052402e-12
3.969394982e-11
1.742212065e-15
1.577446689e-14
2.371519741e-13
3.071225726e-12
2.622320161e-11
4.604045499e-15
4.511523224e-14
6.551932266e-13
7.544170122e-12
6.346209164e-11
1.441732424e-14
1.378984696e-13
1.655056443e-12
1.498363149e-11
1.04070737e-10
3.699500718e-14
3.085120536e-13
2.853271225e-12
1.978519132e-11
1.100676174e-10
8.286460226e-14
5.303671196e-13
3.654678636e-12
2.000500232e-11
9.124347131e-11
1.623293582e-13
8.177038243e-13
4.634158954e-12
2.24534254e-11
9.528193458e-11
3.448453858e-13
1.470734034e-12
7.506509107e-12
3.475287042e-11
1.454106554e-10
7.656096383e-13
2.716409577e-12
1.208760418e-11
5.011931824e-11
1.890697447e-10
1.578289236e-12
4.523834011e-12
1.692504945e-11
6.069641928e-11
2.006490981e-10
2.925184907e-12
6.780794543e-12
2.10812033e-11
6.522962417e-11
1.903715509e-10
5.135894622e-12
1.001984624e-11
2.653592999e-11
7.30953272e-11
1.97009332e-10
9.973180273e-12
1.758660082e-11
4.266360595e-11
1.124888272e-10
3.001365135e-10
2.176445293e-11
3.560019092e-11
7.937406122e-11
1.953282673e-10
4.918358527e-10
4.469633757e-11
6.782692051e-11
1.369440922e-10
3.064666508e-10
7.06825318e-10
7.965492135e-11
1.129408295e-10
2.072735571e-10
4.223988805e-10
8.934942872e-10
1.236151247e-10
1.659167363e-10
2.808942296e-10
5.281113057e-10
1.037105688e-09
1.747101262e-10
2.246282943e-10
3.562454601e-10
6.271534336e-10
1.159102087e-09
2.385751151e-10
2.974033445e-10
4.497721388e-10
7.544861041e-10
1.335138911e-09
3.357451703e-10
4.107500021e-10
6.028903537e-10
9.804970842e-10
1.687427986e-09
5.04876972e-10
6.091287455e-10
8.733933494e-10
1.385996227e-09
2.328201395e-09
8.026916526e-10
9.548065789e-10
1.336449988e-09
2.061082799e-09
3.364588069e-09
1.307712757e-09
1.532217451e-09
2.088548142e-09
3.128174416e-09
4.950539458e-09
2.155158776e-09
2.48543607e-09
3.293966752e-09
4.787634438e-09
7.364528494e-09
3.613003226e-09
4.114137327e-09
5.332249031e-09
7.5296149e-09
1.122746358e-08
6.258777897e-09
7.044728137e-09
8.934577331e-09
1.229236841e-08
1.784891075e-08
1.144767409e-08
1.274573033e-08
1.584469328e-08
2.126937546e-08
3.00552684e-08
2.272602067e-08
2.499424172e-08
3.034871252e-08
3.957120601e-08
5.414867417e-08
5.018135694e-08
5.432314937e-08
6.394367925e-08
8.005751413e-08
1.045267791e-07
1.206505533e-07
1.277769417e-07
1.43945652e-07
1.697765531e-07
2.064449795e-07
2.648916527e-07
2.740012728e-07
2.94003741e-07
3.241861884e-07
3.638894199e-07
4.408269436e-07
4.481794986e-07
4.63868242e-07
4.863093337e-07
5.135123059e-07
5.601285591e-07
5.634483363e-07
5.701316047e-07
5.785440768e-07
5.863787637e-07
5.811378255e-07
5.802012438e-07
5.77503247e-07
5.716084418e-07
5.601821828e-07
5.016423935e-07
4.965004173e-07
4.845028612e-07
4.643721129e-07
4.33896894e-07
3.087664545e-07
3.003668119e-07
2.822331564e-07
2.560784817e-07
2.248194562e-07
1.276943961e-07
1.246057059e-07
1.181278299e-07
1.090723172e-07
9.829717114e-08
5.34101565e-08
5.234680155e-08
5.009738609e-08
4.690641611e-08
4.302365357e-08
2.273817349e-08
2.23536843e-08
2.153518706e-08
2.036070798e-08
1.890838463e-08
9.805378037e-09
9.661017569e-09
9.35232946e-09
8.905756759e-09
8.347238011e-09
4.268964719e-09
4.213238452e-09
4.09369826e-09
3.919741463e-09
3.700376507e-09
1.872458699e-09
1.850505474e-09
1.803300081e-09
1.734298888e-09
1.646737024e-09
8.264853294e-10
8.177011167e-10
7.987772514e-10
7.710185476e-10
7.356169504e-10
3.669596448e-10
3.634007212e-10
3.557219128e-10
3.44425488e-10
3.299591907e-10
1.639299484e-10
1.624722488e-10
1.59322951e-10
1.546785492e-10
1.487099446e-10
7.372661469e-11
7.312343716e-11
7.181878757e-11
6.989058542e-11
6.740493416e-11
3.340997941e-11
3.315782363e-11
3.261184204e-11
3.180333448e-11
3.075818798e-11
1.526761354e-11
1.51610824e-11
1.493018801e-11
1.458765676e-11
1.414374407e-11
7.040520409e-12
6.995010517e-12
6.896281227e-12
6.749573383e-12
6.558999201e-12
3.277667302e-12
3.257999956e-12
3.215296913e-12
3.151744618e-12
3.069012615e-12
1.540729552e-12
1.532129846e-12
1.513443145e-12
1.485594602e-12
1.449271665e-12
7.313146237e-13
7.275133178e-13
7.192481071e-13
7.069163996e-13
6.908061418e-13
3.507815843e-13
3.49091653e-13
3.454161176e-13
3.399289422e-13
3.327546185e-13
1.721552463e-13
1.714072976e-13
1.697760767e-13
1.673281322e-13
1.641087865e-13
8.602376724e-14
8.56787362e-14
8.492627154e-14
8.379703434e-14
8.23094472e-14
4.357595675e-14
4.341544825e-14
4.306586955e-14
4.254237214e-14
4.18548047e-14
2.260348627e-14
2.253093921e-14
2.237301569e-14
2.213662174e-14
2.182621781e-14
1.218960976e-14
1.215834755e-14
1.209032386e-14
1.198849912e-14
1.185473995e-14
6.993821342e-15
6.981709826e-15
6.955365985e-15
6.915900695e-15
6.863961764e-15
4.385583431e-15
4.382018991e-15
4.374260026e-15
4.362569381e-15
4.347024442e-15
3.059756995e-15
3.059605602e-15
3.059252214e-15
3.058601996e-15
3.05748264e-15
2.358890749e-15
2.359699777e-15
2.361418281e-15
2.363838215e-15
2.3667045e-15
1.954203241e-15
1.954865875e-15
1.956254062e-15
1.958166631e-15
1.960354464e-15
1.683048176e-15
1.683207072e-15
1.683495136e-15
1.683764768e-15
1.683811359e-15
1.482984724e-15
1.4826653e-15
1.481913224e-15
1.480639088e-15
1.478689764e-15
2.623014732e-13
1.501958503e-11
9.768775317e-12
4.876478306e-10
4.043985347e-10
2.206362685e-10
1.115877803e-10
3.031974969e-10
4.259801254e-10
3.755340411e-10
2.665478193e-10
2.727603158e-10
4.1780991e-10
4.952460498e-10
4.72316771e-10
4.087351261e-10
4.055045278e-10
6.254815324e-10
9.798865523e-10
1.315953784e-09
1.56015148e-09
1.716110491e-09
1.837686376e-09
2.055598939e-09
2.550347298e-09
3.457441803e-09
4.889104991e-09
7.023543648e-09
1.02180084e-08
1.523878651e-08
2.374818663e-08
3.916461032e-08
6.878713734e-08
1.278056635e-07
2.383907237e-07
3.952542949e-07
5.325957744e-07
5.890096551e-07
5.468143639e-07
4.054452418e-07
2.035604752e-07
9.065114378e-08
4.018223567e-08
1.782400526e-08
7.924319606e-09
3.532546332e-09
1.579211433e-09
7.08142199e-10
3.186727073e-10
1.440322422e-10
6.544913501e-11
2.993289415e-11
1.379206828e-11
6.40757158e-12
3.003094806e-12
1.4202597e-12
6.779120846e-13
3.270070287e-13
1.61518956e-13
8.110591086e-14
4.130074174e-14
2.157607982e-14
1.174685771e-14
6.82194565e-15
4.334261102e-15
3.056277037e-15
2.368670735e-15
1.96176868e-15
1.683522418e-15
1.476829052e-15
8.535433365e-13
7.611582231e-12
1.34235278e-12
1.066869164e-12
1.223052241e-13
9.848962039e-11
2.146710049e-09
1.826947472e-10
1.422799656e-11
1.466933885e-12
5.03956022e-11
6.049478633e-10
2.934416672e-09
4.197930726e-10
3.075304137e-11
2.895085441e-09
5.137489306e-08
8.376708984e-07
6.180755593e-08
3.823134903e-09
1.879517669e-09
2.24735014e-08
2.189863204e-07
2.166862992e-08
1.71108877e-09
8.355287837e-10
7.014030608e-09
4.443749776e-08
6.137996668e-09
6.304288011e-10
3.588267107e-10
2.3385926e-09
1.211887409e-08
5.659674858e-09
1.062838819e-09
1.124009286e-09
1.068112349e-08
9.032874327e-08
7.301024535e-07
9.228928649e-08
1.406908667e-09
1.087968129e-08
7.323723302e-08
4.528367042e-07
7.373537421e-08
1.092158814e-09
6.68159582e-09
3.511029472e-08
1.634079136e-07
3.433934522e-08
6.982890442e-10
3.550122186e-09
1.582352575e-08
6.352933268e-08
1.832723471e-08
7.177575485e-10
3.882109923e-09
1.952877631e-08
9.469438421e-08
3.87963391e-07
1.103922022e-09
6.038496387e-09
3.032339098e-08
1.449840924e-07
6.514261658e-07
1.218499619e-09
5.734625635e-09
2.431206427e-08
9.557708909e-08
3.405953474e-07
1.075521884e-09
4.358784555e-09
1.604889619e-08
5.513328735e-08
1.722534776e-07
8.722324234e-10
3.146440237e-09
1.049099036e-08
3.306019033e-08
9.511461335e-08
8.450717168e-10
3.009314351e-09
1.030796516e-08
3.468593864e-08
1.134457072e-07
1.321965948e-09
4.944082598e-09
1.790170654e-08
6.3341132e-08
2.18500215e-07
1.993639181e-09
6.919808616e-09
2.301329467e-08
7.381547737e-08
2.279025263e-07
2.532791695e-09
7.939788693e-09
2.394081888e-08
6.976539599e-08
1.95941095e-07
2.847344075e-09
8.143641532e-09
2.263198089e-08
6.125181773e-08
1.605784203e-07
2.992484972e-09
7.934684783e-09
2.067320034e-08
5.290254591e-08
1.318798398e-07
3.088106718e-09
7.715046799e-09
1.912871148e-08
4.690514901e-08
1.123881733e-07
3.366734427e-09
8.091188049e-09
1.945962055e-08
4.65344907e-08
1.089997587e-07
4.10925317e-09
9.649973634e-09
2.280783974e-08
5.380101823e-08
1.247238589e-07
5.479454569e-09
1.251165451e-08
2.879705361e-08
6.616163308e-08
1.492810065e-07
7.58748355e-09
1.667463084e-08
3.695325161e-08
8.168243102e-08
1.76757757e-07
1.064703737e-08
2.242055781e-08
4.764573081e-08
1.008795962e-07
2.079305107e-07
1.51437723e-08
3.058837088e-08
6.235395586e-08
1.262775067e-07
2.462650766e-07
2.208944827e-08
4.29377524e-08
8.404364348e-08
1.623524446e-07
2.963308855e-07
3.373175444e-08
6.301939563e-08
1.181979973e-07
2.161674392e-07
3.632108062e-07
5.441906856e-08
9.736690453e-08
1.73348345e-07
2.949432149e-07
4.466784151e-07
9.294444063e-08
1.567051997e-07
2.585510566e-07
3.97292875e-07
5.310907886e-07
1.652941069e-07
2.536467426e-07
3.730900692e-07
5.014505957e-07
5.809443057e-07
2.879339838e-07
3.864221666e-07
4.920006867e-07
5.693623326e-07
5.611715031e-07
4.418993423e-07
5.182467049e-07
5.772671596e-07
5.847366313e-07
4.960588173e-07
5.593775508e-07
5.89103565e-07
5.850561588e-07
5.168825987e-07
3.597409417e-07
5.904977689e-07
5.69427433e-07
5.042860715e-07
3.757576428e-07
2.3955207e-07
5.239238349e-07
4.553325222e-07
3.431260383e-07
2.29284459e-07
1.506644275e-07
3.606389023e-07
2.692282262e-07
1.900195323e-07
1.314132508e-07
8.940332388e-08
1.738950475e-07
1.327538028e-07
9.819421269e-08
7.080827347e-08
5.001177484e-08
7.970420303e-08
6.33041114e-08
4.869547097e-08
3.645467182e-08
2.667228417e-08
3.606899539e-08
2.957245648e-08
2.34985033e-08
1.816883128e-08
1.371921405e-08
1.624303774e-08
1.365317133e-08
1.114031148e-08
8.852020772e-09
6.870542401e-09
7.304622561e-09
6.262200826e-09
5.221648475e-09
4.245580448e-09
3.374496627e-09
3.28571432e-09
2.862086489e-09
2.429736123e-09
2.014373494e-09
1.634306368e-09
1.479616922e-09
1.305965141e-09
1.125557708e-09
9.488103167e-10
7.836626229e-10
6.675271669e-10
5.957956768e-10
5.201741167e-10
4.448620918e-10
3.732290973e-10
3.019567887e-10
2.721148829e-10
2.402628961e-10
2.080937122e-10
1.77020992e-10
1.370930735e-10
1.245902708e-10
1.111020005e-10
9.731204491e-11
8.381046587e-11
6.254361797e-11
5.726623029e-11
5.15191487e-11
4.557966357e-11
3.96938111e-11
2.870524214e-11
2.645948849e-11
2.399330609e-11
2.141975506e-11
1.884155201e-11
1.326830602e-11
1.230406899e-11
1.123718634e-11
1.01140596e-11
8.977727683e-12
6.181791997e-12
5.763755859e-12
5.298060088e-12
4.803901168e-12
4.299417673e-12
2.904708706e-12
2.721607815e-12
2.516374947e-12
2.297027623e-12
2.071269871e-12
1.376917003e-12
1.295886898e-12
1.204566132e-12
1.106342758e-12
1.004524148e-12
6.586338555e-13
6.224577882e-13
5.815074517e-13
5.372414404e-13
4.911082509e-13
3.184109459e-13
3.02257141e-13
2.839530048e-13
2.641669348e-13
2.435888839e-13
1.576403202e-13
1.503078619e-13
1.419389659e-13
1.328076373e-13
1.231815998e-13
7.930072904e-14
7.587208475e-14
7.194387606e-14
6.763913912e-14
6.307633919e-14
4.047024442e-14
3.889180403e-14
3.707768849e-14
3.50808287e-14
3.295441718e-14
2.120110074e-14
2.048731954e-14
1.966485865e-14
1.875641716e-14
1.778486887e-14
1.158506683e-14
1.127622393e-14
1.091892023e-14
1.052208248e-14
1.00944981e-14
6.758850923e-15
6.637421624e-15
6.495288248e-15
6.334995095e-15
6.158811883e-15
4.314972047e-15
4.276582158e-15
4.229636351e-15
4.173751222e-15
4.108282351e-15
3.05427422e-15
3.04850951e-15
3.038790044e-15
3.023588999e-15
3.001181768e-15
2.371400127e-15
2.374518575e-15
2.374909876e-15
2.370791979e-15
2.360273063e-15
1.96366951e-15
1.965264352e-15
1.96403642e-15
1.958399301e-15
1.946730844e-15
1.682885471e-15
1.679837704e-15
1.673579419e-15
1.662879433e-15
1.646519749e-15
1.473859597e-15
1.466614864e-15
1.45590355e-15
1.440840732e-15
1.420579346e-15
3.265909765e-15
1.695356124e-16
2.277737843e-17
5.333107023e-18
1.522922096e-18
4.312806405e-19
1.125423066e-19
2.753066754e-20
6.61327372e-21
1.709164523e-21
5.734229798e-22
3.02115431e-22
2.303233704e-22
2.053153373e-22
1.902223202e-22
1.752283222e-22
1.577775189e-22
1.378005333e-22
1.163049419e-22
9.466934083e-23
7.424235046e-23
5.60733922e-23
4.078796148e-23
2.858301667e-23
1.930874523e-23
1.258523765e-23
7.92323254e-24
4.824082053e-24
2.844390941e-24
1.626537618e-24
9.035500491e-25
4.885406628e-25
2.577381308e-25
1.331072785e-25
6.758429376e-26
3.391842962e-26
1.692118109e-26
8.427574963e-27
4.193906817e-27
2.077229267e-27
1.015765941e-27
4.854638318e-28
2.245626392e-28
9.975933958e-29
4.233984258e-29
1.71221898e-29
6.593967962e-30
2.42095181e-30
8.493272216e-31
2.856066303e-31
9.238907613e-32
2.885872518e-32
8.737137568e-33
2.572395733e-33
7.377275789e-34
2.051786929e-34
5.37775105e-35
1.207563477e-35
1.648848544e-36
6.63391826e-38
5.795027334e-14
2.427607763e-15
2.142941854e-16
3.175845793e-17
6.02704494e-18
1.20556224e-18
2.404348589e-19
4.964255272e-20
1.198445762e-20
4.153420844e-21
2.299727447e-21
1.759824593e-21
1.547885572e-21
1.422020674e-21
1.309449084e-21
1.185348434e-21
1.045222178e-21
8.939594158e-22
7.402166349e-22
5.926120701e-22
4.583629694e-22
3.423698719e-22
2.469546557e-22
1.720492816e-22
1.158306861e-22
7.541681107e-23
4.75344292e-23
2.903387204e-23
1.720469992e-23
9.902633119e-24
5.544222052e-24
3.025122647e-24
1.61271005e-24
8.429447612e-25
4.340382693e-25
2.214375389e-25
1.125742934e-25
5.722798369e-26
2.906506628e-26
1.46596496e-26
7.272088702e-27
3.510018816e-27
1.632853963e-27
7.269969473e-28
3.084931049e-28
1.245590704e-28
4.78735942e-29
1.754915919e-29
6.15414264e-30
2.072077461e-30
6.724680182e-31
2.112030874e-31
6.443708479e-32
1.915527286e-32
5.551675876e-33
1.557396427e-33
4.078714713e-34
8.937412341e-35
1.175130674e-35
4.681346361e-37
9.115483219e-13
2.227628278e-14
8.523667777e-16
6.955397028e-17
9.767973741e-18
1.668325267e-18
3.17301232e-19
7.385822353e-20
2.445953509e-20
1.20535353e-20
7.990562541e-21
6.340638085e-21
5.54350512e-21
5.102719703e-21
4.760755487e-21
4.380715631e-21
3.916859768e-21
3.37925608e-21
2.806920085e-21
2.243655774e-21
1.727745226e-21
1.28335376e-21
9.208033419e-22
6.389568914e-22
4.293228635e-22
2.796735638e-22
1.768531608e-22
1.086823621e-22
6.497955485e-23
3.783995223e-23
2.149016222e-23
1.192472365e-23
6.482213159e-24
3.465019743e-24
1.830790104e-24
9.619406586e-25
5.052066366e-25
2.656410629e-25
1.392996421e-25
7.220187779e-26
3.656796298e-26
1.789708309e-26
8.390457507e-27
3.746476281e-27
1.588948795e-27
6.400290387e-28
2.453218005e-28
8.977823338e-29
3.149930491e-29
1.064189581e-29
3.476780184e-30
1.102877988e-30
3.40881298e-31
1.028898792e-31
3.02829604e-32
8.583030093e-33
2.236813472e-33
4.702689633e-34
5.630867059e-35
2.044960221e-36
1.166996403e-10
2.112918919e-12
4.210869352e-14
1.207527518e-15
6.69971637e-17
6.361258668e-18
1.028868655e-18
2.829343414e-19
1.115001663e-19
5.500731229e-20
3.252019114e-20
2.258924852e-20
1.785915044e-20
1.536387868e-20
1.376346015e-20
1.241583071e-20
1.113214078e-20
9.769367618e-21
8.283682872e-21
6.74419198e-21
5.264299289e-21
3.941477629e-21
2.837222116e-21
1.969768475e-21
1.323405962e-21
8.629706993e-22
5.474835295e-22
3.385536929e-22
2.043720369e-22
1.206087502e-22
6.969668328e-23
3.952236842e-23
2.205709719e-23
1.216420775e-23
6.663789905e-24
3.645967211e-24
1.998760055e-24
1.09602345e-24
5.96635829e-25
3.187143739e-25
1.650132907e-25
8.193289505e-26
3.872445234e-26
1.734763139e-26
7.357000319e-27
2.958124596e-27
1.131754924e-27
4.140423704e-28
1.456261447e-28
4.95044301e-29
1.634370074e-29
5.260912962e-30
1.65550391e-30
5.095737403e-31
1.526811367e-31
4.367556245e-32
1.127736251e-32
2.26254822e-33
2.433380848e-34
7.915865322e-36
7.241703218e-11
1.629175271e-12
3.208243056e-14
1.011086771e-15
8.197386444e-17
1.694569602e-17
5.355194684e-18
1.96991244e-18
8.050871277e-19
3.646229977e-19
1.856791478e-19
1.078669606e-19
7.176479236e-20
5.379212613e-20
4.388271509e-20
3.746007827e-20
3.23759262e-20
2.772666593e-20
2.333036794e-20
1.922226007e-20
1.528891677e-20
1.166789613e-20
8.533463053e-21
5.992463789e-21
4.055447218e-21
2.656842742e-21
1.692221946e-21
1.051697752e-21
6.395925665e-22
3.815109739e-22
2.237106953e-22
1.292951547e-22
7.39075758e-23
4.197349319e-23
2.381031623e-23
1.355166744e-23
7.742237385e-24
4.414523122e-24
2.484274294e-24
1.36141035e-24
7.176125061e-25
3.604517906e-25
1.715120512e-25
7.70994444e-26
3.27496419e-26
1.318215141e-26
5.052147177e-27
1.854583503e-27
6.561866369e-28
2.251094148e-28
7.525985233e-29
2.461454307e-29
7.890123804e-30
2.475417555e-30
7.535044376e-31
2.167893006e-31
5.525567392e-32
1.061006496e-32
1.037550687e-33
3.148339329e-35
3.866416047e-11
1.288734895e-12
2.784875076e-14
7.380105323e-16
9.398877368e-17
3.662923506e-17
1.718475626e-17
8.218128144e-18
3.965378971e-18
1.961721448e-18
1.01754545e-18
5.668216703e-19
3.464815874e-19
2.346253759e-19
1.742056612e-19
1.383262098e-19
1.138855699e-19
9.46737097e-20
7.802086345e-20
6.310550489e-20
4.972560507e-20
3.798850137e-20
2.802515665e-20
1.993836334e-20
1.367932119e-20
9.069435888e-21
5.827399537e-21
3.642296468e-21
2.223156702e-21
1.330602768e-21
7.841931906e-22
4.570034731e-22
2.645422869e-22
1.529036339e-22
8.873934651e-23
5.189553327e-23
3.051607208e-23
1.787528586e-23
1.028718068e-23
5.732064618e-24
3.054247254e-24
1.543080222e-24
7.358242661e-25
3.307779033e-25
1.404651004e-25
5.661550537e-26
2.179374658e-26
8.063878078e-27
2.885274524e-27
1.003609223e-27
3.408577807e-28
1.133888413e-28
3.698392562e-29
1.179345789e-29
3.633702576e-30
1.048454199e-30
2.636537953e-31
4.880695167e-32
4.40282495e-33
1.277512211e-34
1.201555884e-10
7.359842125e-12
2.733002656e-13
8.414157877e-15
4.343388849e-16
1.311921129e-16
5.907692896e-17
2.839001575e-17
1.386705819e-17
6.888032015e-18
3.535595959e-18
1.921106741e-18
1.133802142e-18
7.404637724e-19
5.359867984e-19
4.220127569e-19
3.505934264e-19
2.980140783e-19
2.52924719e-19
2.108040208e-19
1.706689441e-19
1.334149856e-19
1.0035262e-19
7.264619805e-20
5.068959159e-20
3.418860359e-20
2.232711159e-20
1.414736218e-20
8.718471073e-21
5.243536818e-21
3.091968795e-21
1.798053542e-21
1.038073094e-21
5.991686642e-22
3.481151806e-22
2.045345616e-22
1.212338503e-22
7.166154905e-23
4.159132832e-23
2.333607256e-23
1.249237254e-23
6.325991897e-24
3.016121046e-24
1.35247647e-24
5.723598e-25
2.30332141e-25
8.892932635e-26
3.319600074e-26
1.204802863e-26
4.267489509e-27
1.47871954e-27
5.018654486e-28
1.667464376e-28
5.399467988e-29
1.680790424e-29
4.862016928e-30
1.211043967e-30
2.187264649e-31
1.856934271e-32
5.254192396e-34
8.395604316e-09
6.511591446e-10
3.107381153e-11
9.21061027e-13
2.894218652e-14
2.51146826e-15
5.193108619e-16
1.529170919e-16
5.277224789e-17
2.064720971e-17
9.124077894e-18
4.532166425e-18
2.528009551e-18
1.591079563e-18
1.129501446e-18
8.893462577e-19
7.530715967e-19
6.633041617e-19
5.911670628e-19
5.226403312e-19
4.520550485e-19
3.788000702e-19
3.053521456e-19
2.358616667e-19
1.742494942e-19
1.232300593e-19
8.351519922e-20
5.444429642e-20
3.431365197e-20
2.101088541e-20
1.254845658e-20
7.345442755e-21
4.241319496e-21
2.434396677e-21
1.399022756e-21
8.096413199e-22
4.726238653e-22
2.758996299e-22
1.586938062e-22
8.862224803e-23
4.741536183e-23
2.404832819e-23
1.148763997e-23
5.154129047e-24
2.177995825e-24
8.750822934e-25
3.383915714e-25
1.272142486e-25
4.678651909e-26
1.688004088e-26
5.976662179e-27
2.074530191e-27
7.039795622e-28
2.320128087e-28
7.311026332e-29
2.126748181e-29
5.287445838e-30
9.444131018e-31
7.758623034e-32
2.170052252e-33
8.414543371e-09
8.138790805e-10
6.639100682e-11
3.166052576e-12
9.857764883e-14
5.635083079e-15
8.576701839e-16
2.348218802e-16
8.375088995e-17
3.424407969e-17
1.548648893e-17
7.702787195e-18
4.251986564e-18
2.646593517e-18
1.873459814e-18
1.489751723e-18
1.289830953e-18
1.173082457e-18
1.08823499e-18
1.008829674e-18
9.220492393e-19
8.233445765e-19
7.13538973e-19
5.968458515e-19
4.796254519e-19
3.687925713e-19
2.704632466e-19
1.890797349e-19
1.261872993e-19
8.070719892e-20
4.966216346e-20
2.962140851e-20
1.728458569e-20
9.954069814e-21
5.693345795e-21
3.24333591e-21
1.843087477e-21
1.043051911e-21
5.82555706e-22
3.175745165e-22
1.674512701e-22
8.467748364e-23
4.065078646e-23
1.83695523e-23
7.793890288e-24
3.136250347e-24
1.215338206e-24
4.58979311e-25
1.702096267e-25
6.220640095e-26
2.2410982e-26
7.940265937e-27
2.753181256e-27
9.257120713e-28
2.964914011e-28
8.721126519e-29
2.182414565e-29
3.906465993e-30
3.183409504e-31
8.988989989e-33
4.966298447e-09
5.881854448e-10
6.139042134e-11
4.945591724e-12
2.356059192e-13
1.011862347e-14
9.907539145e-16
2.276578885e-16
8.298032571e-17
3.711971143e-17
1.83834267e-17
9.795862974e-18
5.656380967e-18
3.625046665e-18
2.629464027e-18
2.148815408e-18
1.921211204e-18
1.810881973e-18
1.745169732e-18
1.684332302e-18
1.607005149e-18
1.503435358e-18
1.37166003e-18
1.21535754e-18
1.042124073e-18
8.619243913e-19
6.854882406e-19
5.223965965e-19
3.803338127e-19
2.638528412e-19
1.74275819e-19
1.099349528e-19
6.666089837e-20
3.920333562e-20
2.256546504e-20
1.279717742e-20
7.149502078e-21
3.928416246e-21
2.115249439e-21
1.112447633e-21
5.677876967e-22
2.803418208e-22
1.336023844e-22
6.102630305e-23
2.635700486e-23
1.073224563e-23
4.183188752e-24
1.586269815e-24
5.908349821e-25
2.171763976e-25
7.892849523e-26
2.833070206e-26
9.991446474e-27
3.423937046e-27
1.117420418e-27
3.344334823e-28
8.503673655e-29
1.548842134e-29
1.283965605e-30
3.747270229e-32
3.545276416e-09
5.52476746e-10
7.861203164e-11
9.436388587e-12
7.626746019e-13
3.829295506e-14
2.44793138e-15
3.829243115e-16
1.147216068e-16
4.775668436e-17
2.341685625e-17
1.25722228e-17
7.294405941e-18
4.685042354e-18
3.430382459e-18
2.867737301e-18
2.650593871e-18
2.594375951e-18
2.597930348e-18
2.603758678e-18
2.579007536e-18
2.506048455e-18
2.37803923e-18
2.196546526e-18
1.969795378e-18
1.710941917e-18
1.43611637e-18
1.162211115e-18
9.046243986e-19
6.755855681e-19
4.830118634e-19
3.298865632e-19
2.150869204e-19
1.341256013e-19
8.044044885e-20
4.668210364e-20
2.627754356e-20
1.432567956e-20
7.559570694e-21
3.865550672e-21
1.917016331e-21
9.202873294e-22
4.275503247e-22
1.9262356e-22
8.404536054e-23
3.514376651e-23
1.399359834e-23
5.349503275e-24
1.993673917e-24
7.322152726e-25
2.663176595e-25
9.596577658e-26
3.412426281e-26
1.184686958e-26
3.932806457e-27
1.201322591e-27
3.131180648e-28
5.886947674e-29
5.076554729e-30
1.560762516e-31
6.433332082e-08
9.375330126e-09
1.297049657e-09
1.664713854e-10
1.858718535e-11
1.310484632e-12
6.302019846e-14
4.752814754e-15
7.378950595e-16
1.734959497e-16
5.391060777e-17
2.126707894e-17
1.033655853e-17
6.086018418e-18
4.347565612e-18
3.700084114e-18
3.550889665e-18
3.621507338e-18
3.768736944e-18
3.911773431e-18
4.002238817e-18
4.011221333e-18
3.924062002e-18
3.738097769e-18
3.461136338e-18
3.109671617e-18
2.706567675e-18
2.27817294e-18
1.851133425e-18
1.449329861e-18
1.091361001e-18
7.889919057e-19
5.46755243e-19
3.628167439e-19
2.305169729e-19
1.403957886e-19
8.206242373e-20
4.604045916e-20
2.477474335e-20
1.274991663e-20
6.28922262e-21
2.985704703e-21
1.368151329e-21
6.065472357e-22
2.612379664e-22
1.09627429e-22
4.461912061e-23
1.749001588e-23
6.598488036e-24
2.420104058e-24
8.744966215e-25
3.136343765e-25
1.11463297e-25
3.8868627e-26
1.303887485e-26
4.05600402e-27
1.088226755e-27
2.137705725e-28
1.958065765e-29
6.473310045e-31
1.184098617e-07
1.867331361e-08
2.772252306e-09
3.915717135e-10
5.088735101e-11
5.800529241e-12
4.395498797e-13
2.58386768e-14
2.281535255e-15
3.764982847e-16
9.496030423e-17
3.1525482e-17
1.324551131e-17
7.284764934e-18
5.264014972e-18
4.754368132e-18
4.845836162e-18
5.18181234e-18
5.587432863e-18
5.962590573e-18
6.243361993e-18
6.388194439e-18
6.373232082e-18
6.19077306e-18
5.848197688e-18
5.366437885e-18
4.777484676e-18
4.120782365e-18
3.438873341e-18
2.772578229e-18
2.156513546e-18
1.615816989e-18
1.164649319e-18
8.065977987e-19
5.362822628e-19
3.420330328e-19
2.090828582e-19
1.223218554e-19
6.835262609e-20
3.64563984e-20
1.853941393e-20
9.003057441e-21
4.180754043e-21
1.859353044e-21
7.978732053e-22
3.324054847e-22
1.348799364e-22
5.347856551e-23
2.064470623e-23
7.717021873e-24
2.800067852e-24
9.959182838e-25
3.499505315e-25
1.211682162e-25
4.065917181e-26
1.27828223e-26
3.526857907e-27
7.330306661e-28
7.332437515e-29
2.682245106e-30
7.827959789e-08
1.498924492e-08
2.625385811e-09
4.345777408e-10
6.709553684e-11
9.414347182e-12
1.127386563e-12
8.851636464e-14
5.578445892e-15
5.267004736e-16
9.52788304e-17
2.81154566e-17
1.215175504e-17
7.613358276e-18
6.488223884e-18
6.640923835e-18
7.277630989e-18
8.076057919e-18
8.866393374e-18
9.544153672e-18
1.003956607e-17
1.030661335e-17
1.031981233e-17
1.007299522e-17
9.578358871e-18
8.864585303e-18
7.975018565e-18
6.964744233e-18
5.896280422e-18
4.832302711e-18
3.82829242e-18
2.928164511e-18
2.160562133e-18
1.536785711e-18
1.053099754e-18
6.946823027e-19
4.406428105e-19
2.683611726e-19
1.565744326e-19
8.728355724e-20
4.636151745e-20
2.340469141e-20
1.123787033e-20
5.144139196e-21
2.25494252e-21
9.506233441e-22
3.87047001e-22
1.530477883e-22
5.916328495e-23
2.239498906e-23
8.275892592e-24
2.974852359e-24
1.041595725e-24
3.562220897e-25
1.183135556e-25
3.726479588e-26
1.053570811e-26
2.342675096e-27
2.673000245e-28
1.11300514e-29
4.541569939e-08
1.004031364e-08
2.037467935e-09
3.854522511e-10
6.897859989e-11
1.13932059e-11
1.678245049e-12
2.064692845e-13
1.683553654e-14
1.078619455e-15
1.044896144e-16
2.266713376e-17
1.089244531e-17
9.054899111e-18
9.549518039e-18
1.076932959e-17
1.2162868e-17
1.348341632e-17
1.459995623e-17
1.543658421e-17
1.594922883e-17
1.611570199e-17
1.593196156e-17
1.541020639e-17
1.45774305e-17
1.3474432e-17
1.21539738e-17
1.067892627e-17
9.119833943e-18
7.554675733e-18
6.059962174e-18
4.6983303e-18
3.516028987e-18
2.539675571e-18
1.771083696e-18
1.192226961e-18
7.748759382e-19
4.859708371e-19
2.935727071e-19
1.703657359e-19
9.467202176e-20
5.019960295e-20
2.531831432e-20