/*--------------------------------*- C++ -*----------------------------------*\
  =========                 |
  \\      /  F ield         | OpenFOAM: The Open Source CFD Toolbox
   \\    /   O peration     | Website:  https://openfoam.org
    \\  /    A nd           | Version:  10
     \\/     M anipulation  |
\*---------------------------------------------------------------------------*/
FoamFile
{
    format      ascii;
    class       volScalarField;
    location    "3000";
    object      C2H2;
}
// * * * * * * * * * * * * * * * * * * * * * * * * * * * * * * * * * * * * * //

dimensions      [0 0 0 0 0 0 0];

internalField   nonuniform List<scalar> 
5170
(
1.873351105e-62
1.508440012e-62
9.318503077e-63
4.583873904e-63
3.649945412e-63
6.400182608e-60
5.100761425e-60
3.101609447e-60
1.786537523e-60
3.161933877e-60
2.201021618e-57
1.742111204e-57
1.056156366e-57
8.27559125e-58
2.491539734e-57
7.682253955e-55
6.078661162e-55
3.809493568e-55
4.253181093e-55
1.791539969e-54
2.719368558e-52
2.172133954e-52
1.462149705e-52
2.304130518e-52
1.195278501e-51
9.804156963e-50
8.00449805e-50
5.922655388e-50
1.278694338e-49
7.495331794e-49
3.597984477e-47
3.027998593e-47
2.562684314e-47
7.184666872e-47
4.519762019e-46
1.343555039e-44
1.178155539e-44
1.188762882e-44
4.072604821e-44
2.656110845e-43
5.126969444e-42
4.77645002e-42
5.783441216e-42
2.327360461e-41
1.532902717e-40
2.006624138e-39
2.020488139e-39
2.924426514e-39
1.346576182e-38
8.747485569e-38
8.05724081e-37
8.91085066e-37
1.532644058e-36
7.900527936e-36
4.9672262e-35
3.313170605e-34
4.096672708e-34
8.364680081e-34
4.713371004e-33
2.822829749e-32
1.392882538e-31
1.956184344e-31
4.785997634e-31
2.888154254e-30
1.612021891e-29
5.949079063e-29
9.632065728e-29
2.849657576e-28
1.822132071e-27
9.269743955e-27
2.570710288e-26
4.849703432e-26
1.73940975e-25
1.175870382e-24
5.360252989e-24
1.104713163e-23
2.45272377e-23
1.062444292e-22
7.467860414e-22
3.102157535e-21
4.685502461e-21
1.237679352e-20
6.291892664e-20
4.584324275e-19
1.78602239e-18
1.910138466e-18
6.080346401e-18
3.585499801e-17
2.647432926e-16
1.012603374e-15
7.137443813e-16
2.830004632e-15
1.898363973e-14
1.399422667e-13
5.623336339e-13
2.269644569e-13
1.257851799e-12
9.617882261e-12
6.626481205e-11
3.075957157e-10
4.530629944e-26
2.813332256e-26
7.882766132e-27
2.389015319e-26
3.111614062e-26
2.143630732e-26
1.689139552e-26
1.015315411e-26
3.08561354e-26
2.024620424e-26
1.291350313e-26
1.018130051e-26
7.401079702e-27
1.356178768e-26
1.081852782e-26
7.297392145e-27
6.407164567e-27
5.254612399e-27
6.907015495e-27
5.90324699e-27
4.111207731e-27
4.151880799e-27
3.683232748e-27
3.797363282e-27
3.064599586e-27
2.38178185e-27
2.694704352e-27
2.471625128e-27
2.104594998e-27
1.531645101e-27
1.431805578e-27
1.716840767e-27
1.600234009e-27
1.131666104e-27
7.569471749e-28
8.124687346e-28
1.081546374e-27
9.850601326e-28
6.116192718e-28
3.709041121e-28
4.861047588e-28
6.748457355e-28
6.103624746e-28
4.122979769e-28
2.197042161e-28
3.126149211e-28
4.430445817e-28
4.314523148e-28
4.139782425e-28
1.911833879e-28
3.22050301e-28
3.104796994e-28
3.619868402e-28
6.285780992e-28
2.234527924e-28
2.399878797e-26
6.516699364e-27
1.521822811e-27
6.023348826e-28
2.618912808e-28
3.955391518e-24
1.075333052e-24
2.305322339e-25
6.072622662e-26
3.488256791e-26
6.55012257e-22
1.849629746e-22
4.118649013e-23
1.493128723e-23
6.964860073e-24
1.091401083e-19
3.267921831e-20
7.553681027e-21
4.077402883e-21
1.372740921e-21
1.841686727e-17
5.973337534e-18
1.401612668e-18
1.075535022e-18
2.505075702e-19
3.175761898e-15
1.13471068e-15
2.557899632e-16
2.05376132e-16
3.775365293e-17
5.55537965e-13
2.205172521e-13
4.542650625e-14
3.160367497e-14
4.756694605e-15
9.744682386e-11
4.301908128e-11
7.686781283e-12
3.671570559e-12
4.793408954e-13
1.260671827e-08
6.271958571e-09
1.208528213e-09
2.800551836e-10
3.520247974e-11
9.774173336e-12
7.130144854e-11
1.021066998e-09
1.407951019e-08
1.671205257e-07
3.885496785e-10
2.949790008e-09
4.128892834e-08
5.254237527e-07
5.33419508e-06
2.411679864e-09
1.654770724e-08
1.939022117e-07
1.890797999e-06
1.256591973e-05
9.695413813e-09
6.092981992e-08
6.07692331e-07
4.654706611e-06
2.260420483e-05
3.165318975e-08
1.844785134e-07
1.593157302e-06
1.012008918e-05
4.156776753e-05
9.349980011e-08
5.020157051e-07
3.741580217e-06
1.977610095e-05
6.80682843e-05
2.636950706e-07
1.302047051e-06
8.152977102e-06
3.427445129e-05
9.585072752e-05
6.875284257e-07
3.08664224e-06
1.55762689e-05
5.163360908e-05
0.000120126584
1.631122162e-06
6.492345065e-06
2.606869027e-05
7.060574094e-05
0.0001447413959
3.533559119e-06
1.218269287e-05
3.95360758e-05
9.168289909e-05
0.0001725486072
7.240231783e-06
2.07152904e-05
5.547923955e-05
0.0001144604716
0.0002010433029
1.347626573e-05
3.195989257e-05
7.318283338e-05
0.0001374878681
0.0002263980292
2.310237574e-05
4.613883852e-05
9.259138958e-05
0.0001605229335
0.0002497642457
3.738898952e-05
6.39220625e-05
0.0001143105156
0.0001847760814
0.0002744378982
5.814048752e-05
8.650170671e-05
0.0001394216179
0.0002116652268
0.0003020394482
8.701903596e-05
0.0001154789952
0.00016925735
0.0002422073184
0.0003325553962
0.0001251493495
0.0001523390145
0.000205110671
0.0002769918002
0.0003653018738
0.0001719183706
0.000197080169
0.000247264284
0.0003162002282
0.0004003314887
0.0002261051049
0.0002489215136
0.000295448827
0.0003601387018
0.000439335268
0.0002858254537
0.000306430509
0.0003492030493
0.0004096515254
0.0004847107139
0.0003499478672
0.0003687166735
0.0004083134688
0.0004653448015
0.0005375736389
0.0004179244049
0.0004353474038
0.0004725693872
0.000527060144
0.0005972784293
0.0004898860633
0.0005062684705
0.0005415820225
0.0005938848097
0.0006620296371
0.0005659219047
0.0005814138095
0.0006150002328
0.0006650533938
0.0007306428157
0.0006463427631
0.000661065936
0.0006930613848
0.0007408787484
0.0008036944524
0.0007323490427
0.000746418364
0.0007770316794
0.0008229214488
0.0008834129407
0.0008259694351
0.0008395848604
0.0008692972506
0.0009140086797
0.0009732987911
0.0009300318099
0.0009435309814
0.0009730785721
0.00101781359
0.001077623281
0.001048257067
0.001062085208
0.001092483353
0.00113883213
0.001201373586
0.001186422156
0.001201237631
0.001233945695
0.001284126599
0.001352412286
0.00135509912
0.001371842186
0.001408926136
0.001466151379
0.001544578982
0.001575999011
0.001596149494
0.001640875522
0.00171003676
0.001804826864
0.001897778836
0.001923451972
0.00198022987
0.002067430424
0.002184883738
0.002423555968
0.002455586227
0.002525402429
0.002628736419
0.002760296607
0.003256143956
0.003284670594
0.003343781006
0.003423448228
0.003509302845
0.004127561073
0.004129947216
0.004130363671
0.004117891428
0.004077802998
0.004447556564
0.004417662092
0.004348999697
0.004236876715
0.004073342005
0.004040774174
0.003991322693
0.00388183168
0.00371350007
0.003485235336
0.003119040396
0.003064489954
0.002945314502
0.002766479022
0.002532023088
0.001968859132
0.001921224924
0.001818646266
0.00166895232
0.001481198799
0.0009247294621
0.000897909174
0.0008420873523
0.0007655062138
0.0006771345394
0.0003810334558
0.0003721459347
0.0003535137725
0.0003274846038
0.0002964389944
0.0001602300731
0.0001571387317
0.0001505934561
0.0001412905767
0.0001299325557
6.844854966e-05
6.731828356e-05
6.491019165e-05
6.144915256e-05
5.715912977e-05
2.957583625e-05
2.914791346e-05
2.823239846e-05
2.690655442e-05
2.524586816e-05
1.288950033e-05
1.272337529e-05
1.236691246e-05
1.184785893e-05
1.119272261e-05
5.655761743e-06
5.590075556e-06
5.448813312e-06
5.242254271e-06
4.979991771e-06
2.496392048e-06
2.47004763e-06
2.413291259e-06
2.330021906e-06
2.223792761e-06
1.108182602e-06
1.097494026e-06
1.074432286e-06
1.04050274e-06
9.970447552e-07
4.949334755e-07
4.905518811e-07
4.810859189e-07
4.67125568e-07
4.491831914e-07
2.225534391e-07
2.207395104e-07
2.168161946e-07
2.110176874e-07
2.035424384e-07
1.008470093e-07
1.000884953e-07
9.844617384e-08
9.601417493e-08
9.287028485e-08
4.60900267e-08
4.576954258e-08
4.507495115e-08
4.404454169e-08
4.270915712e-08
2.126071893e-08
2.112385159e-08
2.082694454e-08
2.03857742e-08
1.98127262e-08
9.903933437e-09
9.844866182e-09
9.716627706e-09
9.525806016e-09
9.277446271e-09
4.661289793e-09
4.635568892e-09
4.57969168e-09
4.496450643e-09
4.387939525e-09
2.218501218e-09
2.207260941e-09
2.1828351e-09
2.146427378e-09
2.098931744e-09
1.070663224e-09
1.065818175e-09
1.055295548e-09
1.039625407e-09
1.019211087e-09
5.291378831e-10
5.272146008e-10
5.23053716e-10
5.168992019e-10
5.089623824e-10
2.805936829e-10
2.79982458e-10
2.78664932e-10
2.767251721e-10
2.742369251e-10
1.616096055e-10
1.6157774e-10
1.615272696e-10
1.614990981e-10
1.615511448e-10
1.075468076e-10
1.078527964e-10
1.085416637e-10
1.09629209e-10
1.111622448e-10
8.793351555e-11
8.847884393e-11
8.96928289e-11
9.157615057e-11
9.417170834e-11
8.883308316e-11
8.958961569e-11
9.126780862e-11
9.385642241e-11
9.739684112e-11
1.044059755e-10
1.053743508e-10
1.075182064e-10
1.108142008e-10
1.153018543e-10
1.32865265e-10
1.340546863e-10
1.366840468e-10
1.407163703e-10
1.461876722e-10
1.739770975e-10
1.753914464e-10
1.785141767e-10
1.832930375e-10
1.897584151e-10
2.284604212e-10
2.3009627e-10
2.337042525e-10
2.392156989e-10
2.466534198e-10
2.94772788e-10
2.966077503e-10
3.006511896e-10
3.068183585e-10
3.151234204e-10
3.627485614e-10
3.647422545e-10
3.691327032e-10
3.758216145e-10
3.848151046e-10
5.495674118e-07
2.101920147e-05
3.415920781e-05
5.281516264e-05
9.401533929e-05
0.0001372027935
0.000168225295
0.000188267664
0.0002142394051
0.0002469364176
0.0002778054025
0.0003008119159
0.0003215029724
0.0003455042582
0.0003733210461
0.0004031704777
0.0004332030713
0.0004641004387
0.0004993617633
0.0005424799541
0.0005943329137
0.0006533548653
0.0007169073893
0.0007836406532
0.0008545379451
0.0009325803205
0.001021867756
0.001127100627
0.001253689593
0.001410101698
0.001611262848
0.001885090641
0.002281320209
0.002858813481
0.003556191084
0.004020841132
0.003925849717
0.003295115508
0.002345098914
0.001341185692
0.0006166789405
0.0002742265565
0.000121579269
5.394618942e-05
2.398601358e-05
1.069091912e-05
4.777599581e-06
2.141314873e-06
9.631307296e-07
4.351193486e-07
1.976601194e-07
9.038760126e-08
4.165122996e-08
1.935742371e-08
9.079616706e-09
4.301334729e-09
2.060991757e-09
1.002936705e-09
5.027256137e-10
2.722917658e-10
1.616890791e-10
1.125098846e-10
9.639386145e-11
1.003997982e-10
1.190869803e-10
1.507824803e-10
1.951681171e-10
2.52856863e-10
3.220318689e-10
3.922812178e-10
1.170694293e-06
1.134968464e-06
1.54066581e-07
1.586324645e-08
2.394303435e-09
6.201017279e-05
0.0002916508835
2.381439567e-05
1.619879433e-06
1.5523297e-07
7.865855025e-05
0.0001807696037
2.185239668e-05
1.957262351e-06
1.643190108e-07
0.0001174006945
0.0003502734811
0.001175782744
8.260815723e-05
4.745975949e-06
0.0002090525167
0.0006469370071
0.001793158837
0.0001478991527
1.037317865e-05
0.0002761332159
0.0006629827359
0.001213903904
0.0001330823599
1.180521365e-05
0.0003002448669
0.0005665847282
0.000785392785
0.0001102469834
1.288522892e-05
0.0003045550146
0.0004962279328
0.0006342667765
0.0005009122604
6.531579828e-05
0.0003324580789
0.0005629156416
0.0009115112846
0.001585020412
0.0002375556038
0.0003730812198
0.0006320942773
0.001011247581
0.001572645223
0.0002874266078
0.0004052055
0.0006499349301
0.0009528845561
0.001284696021
0.0002708806478
0.0004207582963
0.0006263142386
0.0008331739545
0.0009823247635
0.0003650702294
0.0004355374858
0.0006278371949
0.0008418550344
0.001099445559
0.001303507397
0.000458218494
0.0006553238089
0.0008965840358
0.001217326872
0.001610119924
0.0004861672801
0.0006861186237
0.0009295534333
0.001230422382
0.001557931793
0.0005143450207
0.0007071466527
0.000928746841
0.001173033506
0.001391448238
0.0005390288038
0.0007149658495
0.0009023231023
0.001084427888
0.001210438764
0.0005625306578
0.0007221425409
0.0008889395442
0.001056022527
0.001209097466
0.0005916981297
0.0007441434946
0.0009122330614
0.001103424544
0.00133064369
0.0006314855904
0.0007850650939
0.0009650398323
0.0011845808
0.001459912843
0.0006819941584
0.0008395504413
0.001030065557
0.001265365632
0.001555158537
0.0007399835823
0.0008993575468
0.001093072407
0.001329282018
0.001610956764
0.0008015413424
0.0009585699632
0.001147926274
0.001374258617
0.001634896524
0.0008651655608
0.001016638873
0.001197468474
0.001409789719
0.001646225757
0.0009326236541
0.001078254079
0.001251852034
0.001454934803
0.001677401026
0.001008083052
0.001150416174
0.001322021313
0.001524846073
0.00174542911
0.001096561842
0.001239944241
0.00141589175
0.001626464023
0.001849937901
0.001203369775
0.001352919722
0.001539651027
0.001763809375
0.001986305239
0.001334532185
0.001496275143
0.001700600901
0.001941261588
0.002146979863
0.001499450234
0.001680961369
0.001909523722
0.002162640145
0.002317717462
0.001714590031
0.00192463734
0.002179786775
0.002423120956
0.002470633514
0.002008896611
0.002252538742
0.002518003443
0.002693042876
0.002562119721
0.002427568947
0.002685470405
0.002896848616
0.002904272078
0.002540274117
0.003001487951
0.003185801098
0.003217069887
0.002962674289
0.002364396435
0.003612321649
0.003575099015
0.003321368183
0.002797141046
0.002038864628
0.003919949323
0.003605284325
0.003093578522
0.002396043557
0.001608462426
0.003694356992
0.003190061172
0.002545152628
0.001815715702
0.001143131895
0.003005483284
0.002443738301
0.001810287126
0.001203648812
0.0007643937342
0.002065751124
0.001571609722
0.001093640246
0.0007294889581
0.0004795353536
0.001138500976
0.0008360866481
0.0005943307871
0.0004131249317
0.000281981512
0.0005312592631
0.0004086065484
0.0003041608114
0.0002204573309
0.0001563290521
0.0002423086165
0.0001936549186
0.0001497743337
0.0001126456671
8.273947404e-05
0.0001094640004
9.014716959e-05
7.193208757e-05
5.583025713e-05
4.230155603e-05
4.92565562e-05
4.153062805e-05
3.399198006e-05
2.709064114e-05
2.108582086e-05
2.213867166e-05
1.902009582e-05
1.589543814e-05
1.295357843e-05
1.031890407e-05
9.952585044e-06
8.68249531e-06
7.383005196e-06
6.131379597e-06
4.983228266e-06
4.479009063e-06
3.957601056e-06
3.414992244e-06
2.882452235e-06
2.383975172e-06
2.019370906e-06
1.803783189e-06
1.576241845e-06
1.349354606e-06
1.133279546e-06
9.128973276e-07
8.231567098e-07
7.272951555e-07
6.303964291e-07
5.367173199e-07
4.142550516e-07
3.766443435e-07
3.360466319e-07
2.945161019e-07
2.538286459e-07
1.889210947e-07
1.730428357e-07
1.557447289e-07
1.378601797e-07
1.201296743e-07
8.669445182e-08
7.993709026e-08
7.251468287e-08
6.476729161e-08
5.700426443e-08
4.007562002e-08
3.717471033e-08
3.396478886e-08
3.05856382e-08
2.716712851e-08
1.867858744e-08
1.742187924e-08
1.602224505e-08
1.453771379e-08
1.302327486e-08
8.784380297e-09
8.235261208e-09
7.62033313e-09
6.964030322e-09
6.289970341e-09
4.171993111e-09
3.930584984e-09
3.659183679e-09
3.36831478e-09
3.068383957e-09
2.004314288e-09
1.898404965e-09
1.779258783e-09
1.65162047e-09
1.520333517e-09
9.78648196e-10
9.334871736e-10
8.831038256e-10
8.298579547e-10
7.762991563e-10
4.934775043e-10
4.768555849e-10
4.592910842e-10
4.412875963e-10
4.234890327e-10
2.694247719e-10
2.644955325e-10
2.596939224e-10
2.556534138e-10
2.530854716e-10
1.619571771e-10
1.630356558e-10
1.651863685e-10
1.689120326e-10
1.748132215e-10
1.146011617e-10
1.192336623e-10
1.256045069e-10
1.341692587e-10
1.454827964e-10
9.980738584e-11
1.07057228e-10
1.165940784e-10
1.288629516e-10
1.444050079e-10
1.049956883e-10
1.146018408e-10
1.270093345e-10
1.426594852e-10
1.620832516e-10
1.248669419e-10
1.368276459e-10
1.520944412e-10
1.710970901e-10
1.9434546e-10
1.577864312e-10
1.721663156e-10
1.903475951e-10
2.12734465e-10
2.397990949e-10
2.034021686e-10
2.201930063e-10
2.412498081e-10
2.669352875e-10
2.9766739e-10
2.622864832e-10
2.814039266e-10
3.052086453e-10
3.340097166e-10
3.681585437e-10
3.325227044e-10
3.536844156e-10
3.798778596e-10
4.113519346e-10
4.48386031e-10
4.036099608e-10
4.263762016e-10
4.544287525e-10
4.879608644e-10
5.271865033e-10
4.437368873e-10
9.175369749e-11
2.745115155e-11
1.482593801e-11
1.059176133e-11
7.761648541e-12
5.524542872e-12
3.834223762e-12
2.608032969e-12
1.750137453e-12
1.161806571e-12
7.638976852e-13
4.973381313e-13
3.202586621e-13
2.03743703e-13
1.279158397e-13
7.9209061e-14
4.836508828e-14
2.912852546e-14
1.731652561e-14
1.01765319e-14
5.926671195e-15
3.434102183e-15
1.991918472e-15
1.167214177e-15
6.995007857e-16
4.347702237e-16
2.836696924e-16
1.95379705e-16
1.416055986e-16
1.069384286e-16
8.314700363e-17
6.587513291e-17
5.27881272e-17
4.257091528e-17
3.441748579e-17
2.779264355e-17
2.23303437e-17
1.778689435e-17
1.400732292e-17
1.089176871e-17
8.365351541e-18
6.357781027e-18
4.79499042e-18
3.600059402e-18
2.698563765e-18
2.02409554e-18
1.521284443e-18
1.146320732e-18
8.656899967e-19
6.542876946e-19
4.935871149e-19
3.700166537e-19
2.736551193e-19
1.972174729e-19
1.353237958e-19
8.409813032e-20
4.245686926e-20
1.240657152e-20
1.231119463e-21
2.764831171e-08
3.877567801e-09
8.12850508e-10
3.238505431e-10
1.923136427e-10
1.283884862e-10
8.511248448e-11
5.58574735e-11
3.573027508e-11
2.249624006e-11
1.390115488e-11
8.477435873e-12
5.109939359e-12
3.052901186e-12
1.810620731e-12
1.06704357e-12
6.252035605e-13
3.642244896e-13
2.109958965e-13
1.215511625e-13
6.967308927e-14
3.979918372e-14
2.272841055e-14
1.304567348e-14
7.589480304e-15
4.527213332e-15
2.805959077e-15
1.827570234e-15
1.257101735e-15
9.100386972e-16
6.865766571e-16
5.335452765e-16
4.227562168e-16
3.390501071e-16
2.738567121e-16
2.219035933e-16
1.796819003e-16
1.447989476e-16
1.156818553e-16
9.135713471e-17
7.122127069e-17
5.483245362e-17
4.176966086e-17
3.157530146e-17
2.376327347e-17
1.785747512e-17
1.342953947e-17
1.012119418e-17
7.64797862e-18
5.791741597e-18
4.389183878e-18
3.319750641e-18
2.494835457e-18
1.849414593e-18
1.33569318e-18
9.187838663e-19
5.745992195e-19
2.965690651e-19
9.700230942e-20
1.336710444e-20
5.04315499e-08
1.079926148e-08
3.217631014e-09
1.693590496e-09
1.108207335e-09
7.68548256e-10
5.222385382e-10
3.503114294e-10
2.282185993e-10
1.458233631e-10
9.069401742e-11
5.523201292e-11
3.288083431e-11
1.920458146e-11
1.102257242e-11
6.23879383e-12
3.494533204e-12
1.943971839e-12
1.077652532e-12
5.967268901e-13
3.306327116e-13
1.836086355e-13
1.02472983e-13
5.773664295e-14
3.308063452e-14
1.947439027e-14
1.192208767e-14
7.670432159e-15
5.213123206e-15
3.733197046e-15
2.792327684e-15
2.157524728e-15
1.704878412e-15
1.367360885e-15
1.107009828e-15
9.006268263e-16
7.33013352e-16
5.94043015e-16
4.77288888e-16
3.789757172e-16
2.969328307e-16
2.296561066e-16
1.756822463e-16
1.333271527e-16
1.007196608e-16
7.597168337e-17
5.7352331e-17
4.339432887e-17
3.292389693e-17
2.503695395e-17
1.905423916e-17
1.447213326e-17
1.091999899e-17
8.125545452e-18
5.888607189e-18
4.06494822e-18
2.560143847e-18
1.342387874e-18
4.64467452e-19
7.409455162e-20
7.174137197e-07
1.39212334e-07
2.045578107e-08
6.791979078e-09
4.192202448e-09
2.933888108e-09
2.055184756e-09
1.415419463e-09
9.527973904e-10
6.278515223e-10
4.037028384e-10
2.536774372e-10
1.554982845e-10
9.312025298e-11
5.444607732e-11
3.114472432e-11
1.745260057e-11
9.615046166e-12
5.226663932e-12
2.816914696e-12
1.512207527e-12
8.12324357e-13
4.386474421e-13
2.394228129e-13
1.330474059e-13
7.597117159e-14
4.506276334e-14
2.805479672e-14
1.845181794e-14
1.282159326e-14
9.354379436e-15
7.096673982e-15
5.543551836e-15
4.422351127e-15
3.579606348e-15
2.923021553e-15
2.393875512e-15
1.954633944e-15
1.582837427e-15
1.266448671e-15
9.994553057e-16
7.78185492e-16
5.989953408e-16
4.57230913e-16
3.47324963e-16
2.633903261e-16
1.99879275e-16
1.520100052e-16
1.159160405e-16
8.859767551e-17
6.778044505e-17
5.175858238e-17
3.926614963e-17
2.937188423e-17
2.139247601e-17
1.484450207e-17
9.42966364e-18
5.02715383e-18
1.821369551e-18
3.333984074e-19
1.44927334e-06
3.586213999e-07
6.508786104e-08
1.799901483e-08
1.057771667e-08
7.575126665e-09
5.53280921e-09
3.981948905e-09
2.812732136e-09
1.948878889e-09
1.322442522e-09
8.784524099e-10
5.702481023e-10
3.617044226e-10
2.23795666e-10
1.351182224e-10
7.952602308e-11
4.568927944e-11
2.563362852e-11
1.408662081e-11
7.60343508e-12
4.052136731e-12
2.143703565e-12
1.133979313e-12
6.048247106e-13
3.285865089e-13
1.839122329e-13
1.073130075e-13
6.594208812e-14
4.291233092e-14
2.955687142e-14
2.14170864e-14
1.618287813e-14
1.263659304e-14
1.011411694e-14
8.232765953e-15
6.760050988e-15
5.553914291e-15
4.53326083e-15
3.657577261e-15
2.909793811e-15
2.282458806e-15
1.768796111e-15
1.358734555e-15
1.03852368e-15
7.924549377e-16
6.051153231e-16
4.629948365e-16
3.551270038e-16
2.72962721e-16
2.099815941e-16
1.612463947e-16
1.230411985e-16
9.259614724e-17
6.787119825e-17
4.743953792e-17
3.045406066e-17
1.655005566e-17
6.277540702e-18
1.343071556e-18
9.255745501e-07
3.289514572e-07
1.088615869e-07
3.513674042e-08
1.995238909e-08
1.452502381e-08
1.104868201e-08
8.343694393e-09
6.212233351e-09
4.553778303e-09
3.282478682e-09
2.323885125e-09
1.613673379e-09
1.097916762e-09
7.307089295e-10
4.752120526e-10
3.015331173e-10
1.865401124e-10
1.123491143e-10
6.589914435e-11
3.764067481e-11
2.098381432e-11
1.143828143e-11
6.123731237e-12
3.237176944e-12
1.704601549e-12
9.037349548e-13
4.889833255e-13
2.739971894e-13
1.612206738e-13
1.005939523e-13
6.67823808e-14
4.702746746e-14
3.486854519e-14
2.696799705e-14
2.152968185e-14
1.753815654e-14
1.440880449e-14
1.181906798e-14
9.607133442e-15
7.70472131e-15
6.088801055e-15
4.748322316e-15
3.666667386e-15
2.816136195e-15
2.1599418e-15
1.658823261e-15
1.277199986e-15
9.86033443e-16
7.628351932e-16
5.905519314e-16
4.563117121e-16
3.503896817e-16
2.654595885e-16
1.960867581e-16
1.384282287e-16
9.015497003e-17
5.024929857e-17
2.011419808e-17
5.102464785e-18
1.057131644e-06
2.564408161e-07
1.309325263e-07
5.975899399e-08
3.218769802e-08
2.272274771e-08
1.758822877e-08
1.376113545e-08
1.068655872e-08
8.202802882e-09
6.214664283e-09
4.643896904e-09
3.419983934e-09
2.480099967e-09
1.769153095e-09
1.239708179e-09
8.517654279e-10
5.726771327e-10
3.759229893e-10
2.405605139e-10
1.498210473e-10
9.075242176e-11
5.341804442e-11
3.056756935e-11
1.702214465e-11
9.258816022e-12
4.943027791e-12
2.611338007e-12
1.380744666e-12
7.422566783e-13
4.131196493e-13
2.422754577e-13
1.51601959e-13
1.016588067e-13
7.277698479e-14
5.507944865e-14
4.343519769e-14
3.510487523e-14
2.865162426e-14
2.334384959e-14
1.883703477e-14
1.499670159e-14
1.177252168e-14
9.13342175e-15
7.035780653e-15
5.409481389e-15
4.166679329e-15
3.221023213e-15
2.499598482e-15
1.94562058e-15
1.516344554e-15
1.179952907e-15
9.127397954e-16
6.970299624e-16
5.198143464e-16
3.718036458e-16
2.469502153e-16
1.423402508e-16
6.096013424e-17
1.841343725e-17
6.18156784e-06
8.310145856e-07
3.498135695e-07
1.425815877e-07
5.866941886e-08
3.396787096e-08
2.486554954e-08
1.953825086e-08
1.552265153e-08
1.227734321e-08
9.622326801e-09
7.460437345e-09
5.718149657e-09
4.330949089e-09
3.240278184e-09
2.393462341e-09
1.744097932e-09
1.252520177e-09
8.850668452e-10
6.140448265e-10
4.171769702e-10
2.767461308e-10
1.787093576e-10
1.120744105e-10
6.815893299e-11
4.018327014e-11
2.297232474e-11
1.275901237e-11
6.912363761e-12
3.681749322e-12
1.950829487e-12
1.046056169e-12
5.800259743e-13
3.400743769e-13
2.14219369e-13
1.457190256e-13
1.062691497e-13
8.161347915e-14
6.467882734e-14
5.201043182e-14
4.190067294e-14
3.351822915e-14
2.649549871e-14
2.067828355e-14
1.598366223e-14
1.230464626e-14
9.480911349e-15
7.333428761e-15
5.700798414e-15
4.452152881e-15
3.487142703e-15
2.73108692e-15
2.129011252e-15
1.640746132e-15
1.23734272e-15
8.983372937e-16
6.098228137e-16
3.641038051e-16
1.668992657e-16
5.874156099e-17
2.572717147e-05
2.629969751e-06
7.725728114e-07
3.25693286e-07
1.208769416e-07
5.289612182e-08
3.376951624e-08
2.564137365e-08
2.047756572e-08
1.650000775e-08
1.324840797e-08
1.055639251e-08
8.334701264e-09
6.517086837e-09
5.04557478e-09
3.867055208e-09
2.933118688e-09
2.20061914e-09
1.631931247e-09
1.194861297e-09
8.624373838e-10
6.124908936e-10
4.27054753e-10
2.914569254e-10
1.94030445e-10
1.255855671e-10
7.874916408e-11
4.772843127e-11
2.794384337e-11
1.582883149e-11
8.706206316e-12
4.683575292e-12
2.496300225e-12
1.344709232e-12
7.50536621e-13
4.447139549e-13
2.844856463e-13
1.967272271e-13
1.447922218e-13
1.111331484e-13
8.739249846e-14
6.943205731e-14
5.510407306e-14
4.334713387e-14
3.370961003e-14
2.602346904e-14
2.005958506e-14
1.550012148e-14
1.203434661e-14
9.396616873e-15
7.373427341e-15
5.799773091e-15
4.552409758e-15
3.541774612e-15
2.704644859e-15
1.996758022e-15
1.387914568e-15
8.598085229e-16
4.219196219e-16
1.693145908e-16
3.791001152e-05
4.304024839e-06
8.929897106e-07
4.157737467e-07
1.933186933e-07
8.107413128e-08
4.487425292e-08
3.230521208e-08
2.561927474e-08
2.086460341e-08
1.704941205e-08
1.387296409e-08
1.121008035e-08
8.986514956e-09
7.144305435e-09
5.631832112e-09
4.401511504e-09
3.409735733e-09
2.617221987e-09
1.989322267e-09
1.495730547e-09
1.111487292e-09
8.149114499e-10
5.882747733e-10
4.171029028e-10
2.896672326e-10
1.964731615e-10
1.297226627e-10
8.307264688e-11
5.142641784e-11
3.069853608e-11
1.766779877e-11
9.841121408e-12
5.35305853e-12
2.886636463e-12
1.575953641e-12
8.927586637e-13
5.378279677e-13
3.492806251e-13
2.436634234e-13
1.796772446e-13
1.375474174e-13
1.075860695e-13
8.479522392e-14
6.655739378e-14
5.176373564e-14
4.001849509e-14
3.091658901e-14
2.395883837e-14
1.866413829e-14
1.462626054e-14
1.151699368e-14
9.079943166e-15
7.122548878e-15
5.507294747e-15
4.138351638e-15
2.949082071e-15
1.897818494e-15
9.962012567e-16
4.461113956e-16
4.20166691e-05
5.49659223e-06
8.483895905e-07
3.762845188e-07
2.190259472e-07
1.116518551e-07
5.933875653e-08
4.001425394e-08
3.114915673e-08
2.546788265e-08
2.10688654e-08
1.742180231e-08
1.433867841e-08
1.172643108e-08
9.522818057e-09
7.676944822e-09
6.143060267e-09
4.878010791e-09
3.84476224e-09
3.006720342e-09
2.331217449e-09
1.790246904e-09
1.359975009e-09
1.020372151e-09
7.547276096e-10
5.491646662e-10
3.921798595e-10
2.741929223e-10
1.871583432e-10
1.243550256e-10
8.020175656e-11
5.006334693e-11
3.017349346e-11
1.755394733e-11
9.896176544e-12
5.457797968e-12
2.988738113e-12
1.657863205e-12
9.555591551e-13
5.867345906e-13
3.885464106e-13
2.755051923e-13
2.055036302e-13
1.582784382e-13
1.238648224e-13
9.716162452e-14
7.580209576e-14
5.879909393e-14
4.554283134e-14
3.538270147e-14
2.764827399e-14
2.173817536e-14
1.716138596e-14
1.353601772e-14
1.057841059e-14
8.084127514e-15
5.907509082e-15
3.950350962e-15
2.213763728e-15
1.084926489e-15
6.431137548e-05
9.770143943e-06
1.459989406e-06
4.520333159e-07
2.567258834e-07
1.535530726e-07
8.402189092e-08
5.134324878e-08
3.764133487e-08
3.028493449e-08
2.513968788e-08
2.101114814e-08
1.753740204e-08
1.457189677e-08
1.203415541e-08
9.878892102e-09
8.061374919e-09
6.536762589e-09
5.265849524e-09
4.213171262e-09
3.345765481e-09
2.634843828e-09
2.055612894e-09
1.586774405e-09
1.210125971e-09
9.10198733e-10
6.738894749e-10
4.900776067e-10
3.492772366e-10
2.43362385e-10
1.653630908e-10
1.09311976e-10
7.013143831e-11
4.358669976e-11
2.622351187e-11
1.529592842e-11
8.687962683e-12
4.846007543e-12
2.694244548e-12
1.527239709e-12
9.088482386e-13
5.811644391e-13
4.005590383e-13
2.931537799e-13
2.231673238e-13
1.735715082e-13
1.360530394e-13
1.065405309e-13
8.304915098e-14
6.45719975e-14
5.031408513e-14
3.943355885e-14
3.109509918e-14
2.458828063e-14
1.936349355e-14
1.501430397e-14
1.123806179e-14
7.806399833e-15
4.658459691e-15
2.457482452e-15
0.0002334625417
3.646499522e-05
5.425432484e-06
1.077420712e-06
4.532130852e-07
2.508893266e-07
1.379709818e-07
7.390813781e-08
4.69522571e-08
3.529538964e-08
2.86946238e-08
2.39548608e-08
2.011111518e-08
1.689269513e-08
1.410345239e-08
1.176954015e-08
9.7726776e-09
8.069697589e-09
6.623580225e-09
5.401874007e-09
4.37510975e-09
3.516796555e-09
2.80323365e-09
2.21344695e-09
1.729109246e-09
1.33433955e-09
1.01545261e-09
7.606431358e-10
5.596893217e-10
4.036860836e-10
2.848094165e-10
1.961405586e-10
1.315781708e-10
8.582299253e-11
5.435774865e-11
3.341441657e-11
1.995025762e-11
1.159966651e-11
6.606483984e-12
3.731290864e-12
2.132445742e-12
1.267615582e-12
8.037789963e-13
5.482149768e-13
3.981508005e-13
3.016340211e-13
2.338359472e-13
1.832008088e-13
1.439067944e-13
1.128108941e-13
8.823554641e-14
6.90842958e-14
5.434061544e-14
4.295672747e-14
3.398118486e-14
2.665301061e-14
2.038750391e-14
1.470195633e-14
9.321168282e-15
5.225992583e-15
0.0003344397076
5.981822301e-05
9.993611328e-06
1.766696867e-06
6.319140843e-07
3.446840557e-07
2.027514764e-07
1.130437713e-07
6.280334192e-08
4.088293249e-08
3.07758439e-08
2.489806115e-08
2.075693498e-08
1.751327623e-08
1.473983176e-08
1.245348496e-08
1.048190337e-08
8.784411196e-09
7.324954848e-09
6.073741964e-09
5.005327116e-09
4.097267004e-09
3.329430155e-09
2.683558573e-09
2.143173351e-09
1.693544338e-09
1.321794557e-09
1.0169318e-09
7.696279158e-10
5.717971204e-10
4.161614908e-10
2.96122985e-10
2.056673351e-10
1.392348663e-10
9.177924775e-11
5.886347502e-11
3.672443958e-11
2.230523549e-11
1.322228337e-11
7.694537052e-12
4.44632986e-12
2.599326544e-12
1.57681836e-12
1.015760741e-12
7.007511578e-13
5.125377688e-13
3.896420635e-13
3.024699161e-13
2.37202894e-13
1.867857981e-13
1.47199009e-13
1.159468113e-13
9.142941335e-14
7.233527813e-14
5.73853842e-14
4.539612767e-14
3.535977737e-14
2.639171942e-14
1.773314555e-14
1.049776883e-14
0.0003645568321
7.363856628e-05
1.392399673e-05
2.544811009e-06
7.203451047e-07
3.804542067e-07
2.390330856e-07
1.494095682e-07
8.73947403e-08
4.969536282e-08
3.16074063e-08
2.313922754e-08
1.845426029e-08
1.538522971e-08
1.302067122e-08
1.10823819e-08
9.438653154e-09
8.023743655e-09
6.797893652e-09
5.733984607e-09
4.811566087e-09
4.013925426e-09
3.326669559e-09
2.737030783e-09
2.233463126e-09
1.805572442e-09
1.444021101e-09
1.140432953e-09
8.874277466e-10
6.78814787e-10
5.093773448e-10
3.741585037e-10
2.684129193e-10
1.877938637e-10
1.280611839e-10
8.506882075e-11
5.505694275e-11
3.475146634e-11
2.142676755e-11
1.294888414e-11
7.722944112e-12
4.602037587e-12
2.791526314e-12
1.762801027e-12
1.179132192e-12
8.38028005e-13