/*--------------------------------*- C++ -*----------------------------------*\
  =========                 |
  \\      /  F ield         | OpenFOAM: The Open Source CFD Toolbox
   \\    /   O peration     | Website:  https://openfoam.org
    \\  /    A nd           | Version:  10
     \\/     M anipulation  |
\*---------------------------------------------------------------------------*/
FoamFile
{
    format      ascii;
    class       volScalarField;
    location    "3000";
    object      C2H3;
}
// * * * * * * * * * * * * * * * * * * * * * * * * * * * * * * * * * * * * * //

dimensions      [0 0 0 0 0 0 0];

internalField   nonuniform List<scalar> 
5170
(
9.25129131e-75
4.148435116e-75
7.483160142e-76
4.934343627e-77
5.674359241e-79
7.041824224e-72
2.959652295e-72
4.461833912e-73
1.941910258e-74
1.696146737e-76
5.226147075e-69
2.044743538e-69
2.479890816e-70
7.714011809e-72
4.457932693e-74
3.81426005e-66
1.389907485e-66
1.369095216e-67
3.179733549e-69
3.502099655e-72
2.75622689e-63
9.437047753e-64
7.741365554e-65
1.405816875e-66
0
1.988063551e-60
6.491172872e-61
4.450633744e-62
6.64806974e-64
0
1.447195476e-57
4.564520359e-58
2.663694874e-59
3.349402539e-61
0
1.059532573e-54
3.2555017e-55
1.719691907e-56
1.943232971e-58
0
7.883048744e-52
2.460262046e-52
1.225038258e-53
1.340502278e-55
0
6.00422615e-49
1.983895303e-49
9.744418555e-51
1.394488386e-52
0
4.710265392e-46
1.726543098e-46
9.323963143e-48
3.592449693e-49
0
3.797659812e-43
1.617667089e-43
1.151374135e-44
1.686491156e-45
3.671268607e-46
3.15661155e-40
1.641274833e-40
1.913910506e-41
8.962920668e-42
8.868285151e-42
2.691654996e-37
1.786105425e-37
4.046769837e-38
4.710988113e-38
5.707224531e-38
2.360094797e-34
2.099937069e-34
9.983415086e-35
2.380251849e-34
3.461248969e-34
2.094007305e-31
2.620098065e-31
2.643550559e-31
1.105188823e-30
2.093736509e-30
1.871131019e-28
3.467939374e-28
7.086869015e-28
4.610068788e-27
1.267969968e-26
1.636873988e-25
4.665406322e-25
1.848285054e-24
1.772321596e-23
7.688416736e-23
1.334013117e-22
6.081380993e-22
4.432111758e-21
5.927824135e-20
4.66749448e-19
9.145181082e-20
7.238210794e-19
9.579940197e-18
1.799505151e-16
2.873000693e-15
8.327505359e-31
3.333186015e-31
9.233309584e-32
1.289583234e-31
2.802949512e-30
1.050664727e-30
3.747825669e-31
1.609906809e-31
1.808353231e-31
3.50476076e-31
7.063325076e-31
3.878269738e-31
3.7086594e-31
3.609361432e-31
4.779647615e-31
5.513862517e-31
6.349860686e-31
8.454779254e-31
5.88732984e-31
5.95175075e-31
6.193589409e-31
1.01063632e-30
1.423342763e-30
7.684440543e-31
5.787698064e-31
6.776003134e-31
1.268514949e-30
1.777296312e-30
7.781933085e-31
4.610944156e-31
6.08238124e-31
1.244930163e-30
1.709487884e-30
5.969098016e-31
2.896733905e-31
4.527755356e-31
9.949988204e-31
1.323785306e-30
3.663047139e-31
1.48317873e-31
2.923082724e-31
6.768929036e-31
8.611206546e-31
1.95368826e-31
6.604663811e-32
1.721227168e-31
4.048671466e-31
4.872360668e-31
9.447994303e-32
2.691880737e-32
2.779986232e-31
2.717660951e-31
2.594863278e-31
5.039749166e-32
1.25266848e-32
3.001392043e-29
8.888927544e-30
2.046596493e-30
2.957178408e-31
1.105058614e-31
4.902441815e-27
1.535222705e-27
3.4806696e-28
5.008115851e-29
1.797242077e-29
8.025217896e-25
2.788369015e-25
6.565707168e-26
9.552824152e-27
3.137189932e-27
1.324965079e-22
5.325124127e-23
1.294838853e-23
1.879012787e-24
5.608870481e-25
2.211215613e-20
1.064372445e-20
2.62416388e-21
3.735337499e-22
1.013136101e-22
3.704268197e-18
2.184167245e-18
5.283643926e-19
7.255034974e-20
1.792325625e-20
6.044081171e-16
4.450470257e-16
1.018309233e-16
1.329060905e-17
3.035714352e-18
9.353103921e-14
8.895668665e-14
1.833605966e-14
2.251537389e-15
4.761036476e-16
1.373293654e-11
1.80763635e-11
3.091066261e-12
3.46183555e-13
6.596223305e-14
1.765660966e-17
2.204006188e-16
6.683080167e-15
3.066126378e-13
1.770338566e-11
5.896430993e-16
7.522514483e-15
2.238968662e-13
9.34525247e-12
4.249117824e-10
1.550633666e-15
1.656331383e-14
3.918887468e-13
1.237460028e-11
3.554077773e-10
3.462482329e-15
3.731961199e-14
8.799030127e-13
2.474430409e-11
5.487616658e-10
1.067910625e-14
1.261164551e-13
2.968061208e-12
7.252668827e-11
1.310909647e-09
2.976589882e-14
3.263145841e-13
6.601534601e-12
1.297207049e-10
1.792685222e-09
8.121796211e-14
8.272356462e-13
1.410770553e-11
2.077553804e-10
2.072700248e-09
1.948902456e-13
1.851958457e-12
2.55820468e-11
2.735364407e-10
2.059591054e-09
4.799063179e-13
4.350110694e-12
4.9703743e-11
4.288817247e-10
2.849946993e-09
1.266195265e-12
1.060268703e-11
9.958100581e-11
7.110028928e-10
4.142710633e-09
3.512287006e-12
2.355761211e-11
1.72756949e-10
1.024299555e-09
5.144030622e-09
7.92441039e-12
4.152174247e-11
2.457398394e-10
1.239049273e-09
5.416307001e-09
1.571191533e-11
6.63000591e-11
3.301194243e-10
1.468166328e-09
5.815759428e-09
3.104125924e-11
1.079290573e-10
4.679235441e-10
1.890255743e-09
6.973437055e-09
6.427312616e-11
1.851996306e-10
7.009693374e-10
2.564273814e-09
8.73207474e-09
1.361379107e-10
3.253825694e-10
1.057984594e-09
3.455642235e-09
1.073695187e-08
2.815461065e-10
5.682556738e-10
1.575328697e-09
4.547922109e-09
1.281308135e-08
5.369270099e-10
9.451433997e-10
2.268527189e-09
5.838879699e-09
1.497958375e-08
9.614626019e-10
1.528460697e-09
3.256043215e-09
7.589859209e-09
1.800302294e-08
1.64928831e-09
2.439450669e-09
4.744128951e-09
1.021946327e-08
2.275307493e-08
2.767531017e-09
3.882849278e-09
7.029103607e-09
1.417932591e-08
2.985285894e-08
4.572095414e-09
6.163861101e-09
1.04444438e-08
1.98572541e-08
3.966124058e-08
7.284189898e-09
9.469081641e-09
1.53052095e-08
2.76002911e-08
5.206440562e-08
1.132175996e-08
1.428864462e-08
2.206667404e-08
3.77445166e-08
6.775085904e-08
1.731454781e-08
2.133481099e-08
3.167860731e-08
5.165032717e-08
8.862369181e-08
2.620565687e-08
3.160256332e-08
4.523629026e-08
7.152021621e-08
1.18196812e-07
4.08842015e-08
4.850454146e-08
6.756788275e-08
1.024088676e-07
1.634203361e-07
6.554905902e-08
7.620645259e-08
1.02750325e-07
1.525046937e-07
2.359542674e-07
1.131450317e-07
1.288627511e-07
1.669330837e-07
2.368700477e-07
3.555117279e-07
2.022056504e-07
2.269032269e-07
2.863214831e-07
3.915635712e-07
5.638456108e-07
3.790556152e-07
4.191766362e-07
5.141887726e-07
6.786176986e-07
9.403402807e-07
7.54678588e-07
8.21260481e-07
9.768450111e-07
1.238941048e-06
1.638998208e-06
1.598904599e-06
1.707986712e-06
1.956335263e-06
2.35814823e-06
2.937703845e-06
3.422007031e-06
3.574802959e-06
3.908688756e-06
4.415243412e-06
5.071986121e-06
6.271521078e-06
6.38366727e-06
6.616102114e-06
6.921931327e-06
7.229819601e-06
7.787050318e-06
7.769729404e-06
7.717148048e-06
7.598990458e-06
7.378643717e-06
6.553577972e-06
6.468691167e-06
6.280040155e-06
5.988831728e-06
5.5943337e-06
4.292636359e-06
4.214791967e-06
4.046228563e-06
3.797236557e-06
3.477885362e-06
2.389160024e-06
2.338806994e-06
2.2308527e-06
2.074150332e-06
1.877914324e-06
1.166734987e-06
1.139997349e-06
1.083152371e-06
1.001938954e-06
9.026548973e-07
5.118111729e-07
5.005877992e-07
4.769366037e-07
4.436132029e-07
4.03481356e-07
2.190832644e-07
2.149606235e-07
2.062214795e-07
1.937702537e-07
1.785187072e-07
9.454663982e-08
9.299125672e-08
8.967666391e-08
8.490995724e-08
7.899668223e-08
4.108135832e-08
4.04798974e-08
3.919355061e-08
3.733147534e-08
3.500040014e-08
1.794683376e-08
1.771002196e-08
1.720222005e-08
1.646353153e-08
1.553240236e-08
7.875439343e-09
7.78092755e-09
7.577854023e-09
7.281318029e-09
6.905495276e-09
3.469891295e-09
3.431782371e-09
3.349762538e-09
3.229615539e-09
3.0766581e-09
1.53515858e-09
1.519661206e-09
1.48625921e-09
1.437198701e-09
1.374500675e-09
6.82377857e-10
6.760280242e-10
6.623244247e-10
6.421486256e-10
6.16276748e-10
3.050247758e-10
3.024031853e-10
2.967388005e-10
2.883810721e-10
2.776308351e-10
1.372674375e-10
1.361762817e-10
1.338160269e-10
1.303264802e-10
1.258252414e-10
6.226010965e-11
6.180183532e-11
6.080949514e-11
5.933959473e-11
5.7438531e-11
2.848872708e-11
2.829435123e-11
2.787302791e-11
2.724783938e-11
2.643727132e-11
1.316014214e-11
1.307683083e-11
1.28960777e-11
1.262742802e-11
1.22783349e-11
6.140160129e-12
6.104085951e-12
6.025754747e-12
5.909166615e-12
5.75736981e-12
2.895050284e-12
2.879305129e-12
2.845095185e-12
2.794122578e-12
2.727659581e-12
1.381337082e-12
1.374471477e-12
1.359552597e-12
1.337318367e-12
1.308319906e-12
6.701031499e-13
6.672000202e-13
6.60899323e-13
6.515291955e-13
6.393477416e-13
3.360078115e-13
3.349683112e-13
3.327303555e-13
3.294501033e-13
3.252790333e-13
1.853255615e-13
1.851203394e-13
1.84690437e-13
1.840898086e-13
1.833801004e-13
1.15112e-13
1.153321892e-13
1.158347463e-13
1.166466692e-13
1.178263147e-13
8.924232393e-14
8.979965261e-14
9.104065512e-14
9.296755827e-14
9.562624861e-14
9.060542326e-14
9.144872051e-14
9.331528399e-14
9.61844311e-14
1.000890932e-13
1.098144546e-13
1.10896073e-13
1.132823909e-13
1.169302193e-13
1.218569349e-13
1.417290922e-13
1.430030031e-13
1.45806715e-13
1.500747023e-13
1.558057322e-13
1.833285681e-13
1.84739139e-13
1.878370982e-13
1.925361102e-13
1.988146194e-13
2.322415163e-13
2.3372189e-13
2.369663842e-13
2.418703796e-13
2.483907781e-13
2.850631817e-13
2.865161836e-13
2.896937309e-13
2.944790363e-13
3.008095214e-13
3.363991608e-13
3.377383452e-13
3.406604592e-13
3.450453006e-13
3.508175149e-13
3.7472047e-13
3.758913457e-13
3.784409768e-13
3.822542333e-13
3.872511953e-13
3.01161795e-10
7.921649494e-09
4.082732962e-09
5.255555499e-09
1.092205557e-08
1.166215941e-08
1.058151579e-08
8.543514104e-09
1.132672544e-08
1.499611334e-08
1.660328612e-08
1.569653324e-08
1.575551786e-08
1.802498433e-08
2.127971033e-08
2.446631555e-08
2.72281679e-08
2.982925286e-08
3.406845742e-08
4.132755043e-08
5.218848722e-08
6.641344313e-08
8.376662937e-08
1.051853212e-07
1.331575327e-07
1.725624282e-07
2.324261014e-07
3.274235397e-07
4.822186181e-07
7.437647424e-07
1.203576592e-06
2.020799242e-06
3.446673589e-06
5.565554873e-06
7.370836955e-06
7.140582496e-06
5.268903399e-06
3.230051166e-06
1.730161597e-06
8.302846568e-07
3.744905223e-07
1.672595635e-07
7.456385188e-08
3.323318498e-08
1.482037948e-08
6.616119473e-09
2.958207201e-09
1.325708147e-09
5.960551691e-10
2.691953128e-10
1.222803698e-10
5.59363338e-11
2.579476238e-11
1.20008306e-11
5.636402851e-12
2.674598979e-12
1.285164941e-12
6.296654473e-13
3.220681194e-13
1.828900698e-13
1.188906092e-13
9.790491227e-14
1.033788245e-13
1.259683762e-13
1.605535896e-13
2.039833862e-13
2.537251432e-13
3.059551514e-13
3.554800827e-13
3.912640327e-13
1.031105652e-09
3.903504844e-09
5.327312591e-10
5.136665285e-11
8.179888372e-12
5.191716498e-08
1.112872492e-06
8.849778464e-08
5.806159885e-09
5.21505377e-10
2.121398414e-08
2.677177971e-07
5.11369867e-08
5.282215738e-09
5.176491636e-10
2.887402341e-08
4.702708632e-07
6.513921906e-06
4.490765319e-07
2.444479359e-08
5.616454851e-08
8.21801691e-07
9.953008964e-06
8.2547253e-07
5.806853252e-08
5.071983692e-08
5.640467823e-07
4.844292284e-06
5.511892978e-07
5.010047885e-08
3.948198473e-08
3.490537272e-07
2.423380984e-06
3.532678104e-07
4.239974353e-08
2.805409596e-08
2.071219875e-07
1.211567506e-06
1.505480879e-06
2.015169674e-07
3.70282269e-08
2.875558473e-07
1.944462332e-06
1.087260228e-05
1.605988566e-06
4.592516588e-08
3.17022893e-07
1.884390262e-06
9.475473937e-06
1.74535499e-06
4.69950142e-08
2.827994379e-07
1.476817576e-06
6.580261262e-06
1.407950326e-06
4.128406777e-08
2.17824717e-07
9.97364935e-07
3.854956982e-06
1.128195703e-06
3.974233711e-08
1.968062216e-07
8.653894113e-07
3.393679994e-06
7.832472591e-06
4.410590625e-08
2.079530415e-07
8.811800733e-07
3.411112576e-06
1.020481262e-05
4.994650672e-08
2.163287088e-07
8.538559212e-07
3.099733453e-06
9.163978198e-06
5.476969432e-08
2.170100208e-07
7.915364091e-07
2.667437607e-06
7.447704393e-06
5.795593863e-08
2.099008949e-07
7.05342487e-07
2.193781474e-06
5.683005439e-06
6.049926186e-08
2.019707295e-07
6.335829262e-07
1.852658816e-06
4.608174725e-06
6.651287613e-08
2.097661816e-07
6.320139842e-07
1.802958902e-06
4.556945653e-06
7.811929711e-08
2.350723961e-07
6.82620646e-07
1.892640275e-06
4.746368027e-06
9.529986244e-08
2.724150724e-07
7.561737625e-07
2.011818999e-06
4.882535276e-06
1.170092085e-07
3.160949882e-07
8.337375387e-07
2.115252845e-06
4.922742752e-06
1.425890407e-07
3.638249216e-07
9.112688915e-07
2.202964615e-06
4.898957443e-06
1.73422778e-07
4.188783268e-07
9.975095258e-07
2.297144608e-06
4.863182726e-06
2.130788557e-07
4.886398283e-07
1.108746262e-06
2.434996944e-06
4.901824286e-06
2.687450486e-07
5.873744399e-07
1.273093685e-06
2.669618205e-06
5.095934121e-06
3.529430268e-07
7.371764248e-07
1.527763636e-06
3.05236704e-06
5.473289144e-06
4.850785609e-07
9.684848924e-07
1.915739892e-06
3.621432936e-06
5.996923766e-06
6.974997431e-07
1.328812622e-06
2.493688938e-06
4.401401017e-06
6.563680396e-06
1.045277671e-06
1.890951246e-06
3.327775638e-06
5.364874528e-06
6.988386933e-06
1.638030841e-06
2.764010574e-06
4.461834535e-06
6.360574653e-06
7.047396539e-06
2.636079511e-06
4.058875324e-06
5.806789193e-06
7.055338721e-06
6.594654501e-06
4.235638894e-06
5.723732396e-06
6.955598722e-06
7.053389532e-06
5.660873424e-06
6.276592921e-06
7.142753076e-06
7.22009937e-06
6.208698647e-06
4.442057404e-06
7.516618116e-06
7.224487586e-06
6.263326631e-06
4.78349681e-06
3.188834072e-06
6.748576716e-06
5.795368791e-06
4.565277787e-06
3.251014983e-06
2.100168346e-06
4.775783895e-06
3.859558089e-06
2.886753704e-06
1.989398956e-06
1.295840186e-06
2.863033247e-06
2.239164476e-06
1.634181419e-06
1.127804353e-06
7.575290727e-07
1.514164393e-06
1.167545035e-06
8.561331315e-07
6.081979196e-07
4.224081947e-07
7.259487953e-07
5.678106564e-07
4.29093722e-07
3.152152641e-07
2.260809674e-07
3.327037169e-07
2.68096103e-07
2.089811407e-07
1.582920325e-07
1.169739044e-07
1.509023634e-07
1.246677294e-07
9.976904521e-08
7.762823499e-08
5.89299665e-08
6.80897655e-08
5.741076043e-08
4.697468945e-08
3.741077134e-08
2.908554285e-08
3.064198261e-08
2.62742814e-08
2.190471539e-08
1.779939204e-08
1.413270416e-08
1.377317863e-08
1.19774617e-08
1.014643023e-08
8.390098423e-09
6.786701428e-09
6.189486707e-09
5.447567735e-09
4.679008854e-09
3.928778481e-09
3.230853754e-09
2.783221003e-09
2.475305493e-09
2.152024151e-09
1.83165939e-09
1.528693129e-09
1.253503184e-09
1.125148927e-09
9.888107466e-10
8.519045016e-10
7.205334561e-10
5.66084696e-10
5.123291593e-10
4.54638037e-10
3.960191403e-10
3.390275864e-10
2.566755082e-10
2.3403969e-10
2.095205174e-10
1.843395905e-10
1.595635787e-10
1.170122799e-10
1.07418673e-10
9.69390064e-11
8.60710572e-11
7.526021485e-11
5.370114435e-11
4.960404204e-11
4.509405184e-11
4.03750547e-11
3.563346118e-11
2.483763383e-11
2.307284082e-11
2.111661537e-11
1.905305791e-11
1.696060752e-11
1.158699808e-11
1.081994971e-11
9.9644102e-12
9.055422358e-12
8.126300902e-12
5.455841533e-12
5.119685448e-12
4.742808483e-12
4.340039621e-12
3.925760963e-12
2.595345605e-12
2.447347448e-12
2.280872793e-12
2.102371729e-12
1.91825552e-12
1.250580812e-12
1.18602672e-12
1.113539837e-12
1.036124637e-12
9.568966604e-13
6.152340305e-13
5.885873079e-13
5.591781503e-13
5.286212778e-13
4.987280069e-13
3.17351111e-13
3.093057244e-13
3.009467892e-13
2.921190328e-13
2.837713472e-13
1.822051981e-13
1.813503952e-13
1.809977966e-13
1.816357673e-13
1.839812285e-13
1.205552534e-13
1.243526807e-13
1.29706545e-13
1.370547214e-13
1.469118918e-13
1.014060711e-13
1.088452004e-13
1.185755726e-13
1.309350247e-13
1.462677883e-13
1.083987155e-13
1.18750016e-13
1.318597094e-13
1.479522825e-13
1.672155517e-13
1.322180709e-13
1.44886092e-13
1.60607303e-13
1.794695549e-13
2.014932488e-13
1.677494139e-13
1.821417372e-13
1.997177128e-13
2.204198006e-13
2.441003581e-13
2.11797006e-13
2.27246089e-13
2.458502528e-13
2.674123646e-13
2.916214925e-13
2.61768573e-13
2.774846127e-13
2.961281464e-13
3.173390878e-13
3.406395578e-13
3.136931711e-13
3.286343223e-13
3.460964871e-13
3.656092869e-13
3.865951138e-13
3.624742009e-13
3.758211708e-13
3.911908862e-13
4.080541971e-13
4.25791573e-13
3.972691725e-13
4.086056287e-13
4.214789508e-13
4.353538471e-13
4.496224282e-13
2.550003532e-13
1.324566745e-14
1.801241993e-15
3.948433501e-16
1.021848441e-16
2.619172613e-17
6.205009453e-18
1.376725614e-18
2.951106061e-19
6.446569556e-20
1.645821812e-20
6.44129365e-21
4.235463915e-21
3.620181921e-21
3.297602016e-21
2.989199384e-21
2.642162243e-21
2.261414773e-21
1.869106609e-21
1.489956761e-21
1.144940185e-21
8.480621787e-22
6.056156122e-22
4.171304689e-22
2.773040813e-22
1.781036817e-22
1.106441098e-22
6.657341926e-23
3.88534594e-23
2.202967969e-23
1.215665598e-23
6.542946541e-24
3.443931398e-24
1.779097507e-24
9.062207019e-25
4.577404451e-25
2.30599246e-25
1.163235525e-25
5.875246408e-26
2.956098417e-26
1.468234787e-26
7.123002685e-27
3.34334639e-27
1.507899179e-27
6.512667607e-28
2.695056529e-28
1.074290968e-28
4.175558932e-29
1.618922903e-29
6.499008647e-30
2.836578484e-30
1.401019092e-30
7.852593504e-31
4.814835931e-31
3.063645477e-31
1.913079374e-31
1.089208558e-31
4.960533101e-32
1.219623576e-32
6.987630056e-34
1.845383822e-11
6.82749477e-13
4.334264132e-14
4.041645756e-15
5.254111209e-16
7.986542327e-17
1.294346208e-17
2.201238153e-18
4.135307709e-19
1.021436187e-19
4.34885902e-20
3.074456343e-20
2.691811167e-20
2.475493511e-20
2.264360239e-20
2.022411202e-20
1.752290227e-20
1.469559079e-20
1.192298786e-20
9.354152091e-21
7.094476743e-21
5.200933695e-21
3.685958745e-21
2.526091614e-21
1.67505011e-21
1.075606562e-21
6.695463144e-22
4.044912485e-22
2.374504419e-22
1.356250143e-22
7.549111173e-23
4.103400246e-23
2.184142406e-23
1.142747833e-23
5.906763863e-24
3.034569782e-24
1.558298039e-24
8.022243645e-25
4.132393373e-25
2.114735341e-25
1.063856503e-25
5.203563442e-26
2.452103167e-26
1.106557431e-26
4.7701745e-27
1.967087941e-27
7.806138353e-28
3.01857637e-28
1.163442249e-28
4.636959653e-29
2.006532186e-29
9.825704024e-30
5.471967243e-30
3.343398962e-30
2.123901693e-30
1.32477863e-30
7.542106273e-31
3.454289659e-31
8.881723877e-32
5.614573388e-33
1.427318121e-11
4.708136571e-13
2.868225512e-14
2.788099096e-15
3.868382018e-16
6.192314116e-17
1.048240802e-17
1.97272344e-18
4.929036177e-19
2.004463083e-19
1.277079718e-19
1.039371645e-19
9.355035521e-20
8.749762402e-20
8.183741193e-20
7.474294712e-20
6.590980622e-20
5.588484226e-20
4.555240684e-20
3.572343113e-20
2.700385661e-20
1.970832617e-20
1.390987728e-20
9.506443193e-21
6.299138741e-21
4.052120252e-21
2.533882565e-21
1.542108962e-21
9.14515564e-22
5.291052927e-22
2.990750111e-22
1.654927546e-22
8.990348992e-23
4.814230362e-23
2.554986909e-23
1.352216195e-23
7.171931578e-24
3.815385398e-24
2.025874646e-24
1.063020753e-24
5.44620885e-25
2.694265489e-25
1.276364892e-25
5.762438348e-26
2.476364946e-26
1.015565079e-26
4.001850972e-27
1.534600068e-27
5.852986795e-28
2.299410232e-28
9.760663238e-29
4.678929629e-29
2.560034944e-29
1.547061783e-29
9.769911501e-30
6.069457643e-30
3.443620493e-30
1.565659579e-30
3.916895905e-31
2.436437723e-32
5.693981727e-10
8.186737276e-12
2.498994348e-13
9.289616073e-15
6.95401054e-16
8.985149527e-17
1.716125236e-17
4.726605242e-18
1.776615811e-18
8.507462284e-19
5.024346146e-19
3.566307659e-19
2.905462487e-19
2.562927515e-19
2.328667983e-19
2.107490098e-19
1.879684401e-19
1.631489412e-19
1.363517454e-19
1.092366509e-19
8.386998462e-20
6.17921762e-20
4.380917526e-20
2.999079151e-20
1.989442693e-20
1.282619746e-20
8.056698422e-21
4.940130525e-21
2.961547677e-21
1.738399135e-21
1.000869295e-21
5.664637384e-22
3.161385697e-22
1.747153741e-22
9.613401838e-23
5.294962105e-23
2.927698382e-23
1.621000783e-23
8.911553393e-24
4.805187717e-24
2.509359946e-24
1.255949039e-24
5.982770385e-25
2.702878589e-25
1.158136911e-25
4.723711912e-26
1.847940869e-26
7.021533556e-27
2.643857983e-27
1.01835035e-27
4.197736219e-28
1.940926758e-28
1.027176073e-28
6.066805274e-29
3.781702186e-29
2.330709681e-29
1.314106122e-29
5.901781426e-30
1.400289122e-30
8.420726499e-32
2.319372205e-09
5.010063493e-11
9.511210865e-13
2.611251682e-14
1.858691527e-15
3.548637704e-16
1.058954566e-16
3.69517282e-17
1.431944007e-17
6.161563876e-18
3.012408844e-18
1.714604271e-18
1.143725527e-18
8.721078716e-19
7.252137454e-19
6.274176255e-19
5.453204531e-19
4.664424933e-19
3.899983853e-19
3.181965455e-19
2.501100633e-19
1.884503472e-19
1.360552252e-19
9.435699371e-20
6.311859668e-20
4.091917313e-20
2.582422696e-20
1.592491247e-20
9.6234532e-21
5.712289798e-21
3.338191837e-21
1.925731897e-21
1.100516882e-21
6.259381483e-22
3.56252636e-22
2.037832319e-22
1.171641144e-22
6.72731054e-23
3.81217519e-23
2.102722641e-23
1.114976371e-23
5.631761416e-24
2.694706529e-24
1.218801285e-24
5.216666992e-25
2.122278002e-25
8.270070248e-26
3.122659204e-26
1.16238633e-26
4.380634128e-27
1.738848998e-27
7.625914876e-28
3.818406639e-28
2.160970969e-28
1.312487674e-28
7.971927335e-29
4.450809658e-29
1.969613805e-29
4.384515757e-30
2.608332947e-31
3.127413981e-09
1.000895284e-10
2.135104844e-12
5.184949514e-14
4.907601779e-15
1.301347386e-15
4.549822728e-16
1.776221468e-16
7.530470943e-17
3.434530291e-17
1.690067219e-17
9.114798256e-18
5.500631572e-18
3.743565588e-18
2.823111196e-18
2.280057013e-18
1.901314983e-18
1.591679036e-18
1.314084925e-18
1.060495077e-18
8.313256144e-19
6.305580691e-19
4.612795481e-19
3.252229387e-19
2.210953082e-19
1.452947012e-19
9.259210512e-20
5.745009115e-20
3.484691556e-20
2.075066481e-20
1.218243523e-20
7.081330494e-21
4.094053178e-21
2.366719011e-21
1.37575502e-21
8.069258151e-22
4.763712966e-22
2.802784862e-22
1.620143064e-22
9.065078108e-23
4.848790811e-23
2.458755522e-23
1.176917806e-23
5.313438186e-24
2.268687265e-24
9.214784664e-25
3.589733504e-25
1.354998347e-25
5.023347388e-26
1.866010546e-26
7.164270346e-27
2.968849186e-27
1.385260436e-27
7.357444684e-28
4.28149219e-28
2.540121149e-28
1.400347582e-28
6.116276618e-29
1.275148805e-29
7.6065928e-31
3.807629787e-09
1.955845664e-10
5.763778144e-12
1.461824993e-13
6.779708832e-15
1.840465157e-15
7.818894627e-16
3.707682631e-16
1.844194742e-16
9.485344422e-17
5.05823124e-17
2.842212586e-17
1.724399503e-17
1.154022938e-17
8.549559368e-18
6.874335916e-18
5.807445264e-18
4.994216845e-18
4.267824792e-18
3.567912254e-18
2.889053649e-18
2.254016381e-18
1.689569422e-18
1.217575952e-18
8.451467649e-19
5.66827732e-19
3.680383677e-19
2.318775248e-19
1.421245941e-19
8.505712038e-20
4.994256773e-20
2.894340054e-20
1.666894105e-20
9.608100394e-21
5.581251116e-21
3.282403163e-21
1.949206678e-21
1.15488982e-21
6.719321698e-22
3.778949049e-22
2.027420832e-22
1.028900164e-22
4.917224901e-23
2.211227113e-23
9.393051757e-24
3.800619548e-24
1.479773868e-24
5.600373688e-25
2.081768284e-25
7.70309166e-26
2.897737624e-26
1.145879546e-26
4.971566676e-27
2.438367958e-27
1.332988956e-27
7.625410763e-28
4.135512713e-28
1.791443801e-28
3.535533137e-29
2.155544721e-30
1.972925799e-08
1.799131806e-09
9.714213761e-11
3.507827587e-12
1.319406097e-13
1.326198053e-14
3.481373333e-15
1.264513661e-15
5.238158388e-16
2.398259252e-16
1.195473441e-16
6.439514783e-17
3.780490396e-17
2.462571279e-17
1.7956155e-17
1.445977008e-17
1.246796943e-17
1.11302607e-17
1.001124963e-17
8.902066741e-18
7.724780586e-18
6.481992869e-18
5.225392658e-18
4.032406879e-18
2.974023847e-18
2.098488707e-18
1.418319519e-18
9.217743256e-19
5.790207224e-19
3.533218013e-19
2.102866861e-19
1.226856117e-19
7.062678049e-20
4.043775891e-20
2.319924022e-20
1.341452617e-20
7.83061409e-21
4.573799981e-21
2.632905488e-21
1.471563493e-21
7.879730882e-22
4.000012459e-22
1.912864069e-22
8.595581563e-23
3.640620068e-23
1.467982011e-23
5.708852873e-24
2.165911496e-24
8.089987983e-25
3.00064882e-25
1.11889071e-25
4.285967389e-26
1.745219918e-26
7.845392988e-27
3.943004835e-27
2.128621e-27
1.121471396e-27
4.800427148e-28
9.158449407e-29
5.72671944e-30
1.717199124e-07
1.633476499e-08
1.346177766e-09
6.562530303e-11
2.08324591e-12
1.143121009e-13
1.639133212e-14
4.244052713e-15
1.436433442e-15
5.644771364e-16
2.494549616e-16
1.228344464e-16
6.768776835e-17
4.234407119e-17
3.03218333e-17
2.44908976e-17
2.154235364e-17
1.985575279e-17
1.860701198e-17
1.737454416e-17
1.595944288e-17
1.429881583e-17
1.241871959e-17
1.040129623e-17
8.363958508e-18
6.432065735e-18
4.71565265e-18
3.294312942e-18
2.196076642e-18
1.402436179e-18
8.613215345e-19
5.125838123e-19
2.983547615e-19
1.713761555e-19
9.777675172e-20
5.55788435e-20
3.152969675e-20
1.782235734e-20
9.945699061e-21
5.41833687e-21
2.855501799e-21
1.443460231e-21
6.928898514e-22
3.132102542e-22
1.330145456e-22
5.362764871e-23
2.085229294e-23
7.919894622e-24
2.965346946e-24
1.102257835e-24
4.098284882e-25
1.542943698e-25
6.013373975e-26
2.506174892e-26
1.148736852e-26
5.733400826e-27
2.883489896e-27
1.21109789e-27
2.275814861e-28
1.474427868e-29
2.309873579e-07
2.603916118e-08
2.709103362e-09
2.184519581e-10
1.046944891e-11
4.351390069e-13
3.866277149e-14
7.616977417e-15
2.306855354e-15
8.678368242e-16
3.740589036e-16
1.803923832e-16
9.769798608e-17
6.058110683e-17
4.36078175e-17
3.593533984e-17
3.259125523e-17
3.114917414e-17
3.035842599e-17
2.955027415e-17
2.837161585e-17
2.666675536e-17
2.441359832e-17
2.168743305e-17
1.863175114e-17
1.543141143e-17
1.228423965e-17
9.366722298e-18
6.820603913e-18
4.730598785e-18
3.1225131e-18
1.967526683e-18
1.191163358e-18
6.991032382e-19
4.014333074e-19
2.270535618e-19
1.265032686e-19
6.932662381e-20
3.723890354e-20
1.954258883e-20
9.955271778e-21
4.907145085e-21
2.335452442e-21
1.065803905e-21
4.601461739e-22
1.874346208e-22
7.315942261e-23
2.782216684e-23
1.041813983e-23
3.867033957e-24
1.43167414e-24
5.328778407e-25
2.019554232e-25
7.960195954e-26
3.354761507e-26
1.530436868e-26
7.208270939e-27
2.941421864e-27
5.523350065e-28
3.777080727e-29
2.202108176e-07
2.879574046e-08
3.726004558e-09
4.022393764e-10
2.963453747e-11
1.427326009e-12
8.427434312e-14
1.114200832e-14
2.870642485e-15
1.039626027e-15
4.497797957e-16
2.198718461e-16
1.208527102e-16
7.635565355e-17
5.654358312e-17
4.841475569e-17
4.584148376e-17
4.573915501e-17
4.644784153e-17
4.702210306e-17
4.691571979e-17
4.583420001e-17
4.366812135e-17
4.045728325e-17
3.636250085e-17
3.163556026e-17
2.658353732e-17
2.152763588e-17
1.676071473e-17
1.251566843e-17
8.9437949e-18
6.103139058e-18
3.974177235e-18
2.473962507e-18
1.480466781e-18
8.568807333e-19
4.808769307e-19
2.612888059e-19
1.374047627e-19
7.002010554e-20
3.461123322e-20
1.656521089e-20
7.674963265e-21
3.449796211e-21
1.502538786e-21
6.275557596e-22
2.497671319e-22
9.553199272e-23
3.567742706e-23
1.316646103e-23
4.837413106e-24
1.779780464e-24
6.60596953e-25
2.502892272e-25
9.865715821e-26
4.122126119e-26
1.792452287e-26
7.016051131e-27
1.330955695e-27
9.871727106e-29
2.114390384e-07
3.355041292e-08
5.189981931e-09
7.287529468e-10
8.472225885e-11
6.423389273e-12
3.450877951e-13
2.784121279e-14
4.828552506e-15
1.427397023e-15
5.666886402e-16
2.680579918e-16
1.45899093e-16
9.295062441e-17
7.097761579e-17
6.378113151e-17
6.361163592e-17
6.652166789e-17
7.034696416e-17
7.379100983e-17
7.60387386e-17
7.658701276e-17
7.518056446e-17
7.178525879e-17
6.65661435e-17
5.985587594e-17
5.211046549e-17
4.385276931e-17
3.560969521e-17
2.785182293e-17
2.094406941e-17
1.511582259e-17
1.045401063e-17
6.92101539e-18
4.385613246e-18
2.662985718e-18
1.551271134e-18
8.670929922e-19
4.647254989e-19
2.381577394e-19
1.169729503e-19
5.529637169e-20
2.523645236e-20
1.114614945e-20
4.784519534e-21
2.002153494e-21
8.131002306e-22
3.182616587e-22
1.200197557e-22
4.407541862e-23
1.599809774e-23
5.800735996e-24
2.112447962e-24
7.764656173e-25
2.908457428e-25
1.126631888e-25
4.505800465e-26
1.672420048e-26
3.238196494e-27
2.7768946e-28
1.388950869e-06
2.151895088e-07
3.158362068e-08
4.481027691e-09
5.729990129e-10
6.32896697e-11
4.691866067e-12
2.779094842e-13
2.499131088e-14
4.101125913e-15
1.057995528e-15
3.793197606e-16
1.788616826e-16
1.11412399e-16
8.97107775e-17
8.712496711e-17
9.269954598e-17
1.015716978e-16
1.110688299e-16
1.195087246e-16
1.25746895e-16
1.290172226e-16
1.288844189e-16
1.25231581e-16
1.182453339e-16
1.083861098e-16
9.633647944e-17
8.292522891e-17
6.90361584e-17
5.550814956e-17
4.304412676e-17
3.214648945e-17
2.308971467e-17
1.593207343e-17
1.055151002e-17
6.702058318e-18
4.079324578e-18
2.375825374e-18
1.321356557e-18
7.013226103e-19
3.548572842e-19
1.71442672e-19
7.92044577e-20
3.504814881e-20
1.496767838e-20
6.208286596e-21
2.509307137e-21
9.916894802e-22
3.818968082e-22
1.425676103e-22
5.176354913e-23
1.849493794e-23
6.58241032e-24
2.349908771e-24
8.447946256e-25
3.080159303e-25
1.143366692e-25
4.022606523e-26
8.091665118e-27
8.731107417e-28
2.107532123e-06
3.750772917e-07
6.221312192e-08
1.000459002e-08
1.488530176e-09
1.982460121e-10
2.285211659e-11
1.786378595e-12
1.146899206e-13
1.050429101e-14
1.708546478e-15
4.638689477e-16
2.010156915e-16
1.353119181e-16
1.251876972e-16
1.351686532e-16
1.526409834e-16
1.72099082e-16
1.904661006e-16
2.05757921e-16
2.166269238e-16
2.222023654e-16
2.220475461e-16
2.161386576e-16
2.048410257e-16
1.888628511e-16
1.692103874e-16
1.471208066e-16
1.2396612e-16
1.010957746e-16
7.967992848e-17
6.062133335e-17
4.448552432e-17
3.146585415e-17
2.144046613e-17
1.406248255e-17
8.868562193e-18
5.369828467e-18
3.114733125e-18
1.726137278e-18
9.114324855e-19
4.573720725e-19
2.182890245e-19
9.932145459e-20
4.327989735e-20
1.814135846e-20
7.346615225e-21
2.890869786e-21
1.112823538e-21
4.198488621e-22
1.548493451e-22
5.568717237e-23
1.96056635e-23
6.819183169e-24
2.363347958e-24
8.218964152e-25
2.881026119e-25
9.736515564e-26
2.106404361e-26
2.698057154e-27
2.159082164e-06
4.379444426e-07
8.295686022e-08
1.491824491e-08
2.563987477e-09
4.029848615e-10
5.656856569e-11
6.846534915e-12
5.653491314e-13
3.650029968e-14
3.284887364e-15
5.834121251e-16
2.357510571e-16
1.914044772e-16
2.087346628e-16
2.424394036e-16
2.786723771e-16
3.116937335e-16
3.38641321e-16
3.579832331e-16
3.689519447e-16
3.713011574e-16
3.652060824e-16
3.512038473e-16
3.301441099e-16
3.031531311e-16
2.715813264e-16
2.369545494e-16
2.009172022e-16
1.652280163e-16
1.315617476e-16
1.01240048e-16
7.519156922e-17
5.389793874e-17
3.729912551e-17
2.491667856e-17
1.607170573e-17
1.000423246e-17
5.999112236e-18
3.456281053e-18
1.907034069e-18
1.004138752e-18