/*--------------------------------*- C++ -*----------------------------------*\
  =========                 |
  \\      /  F ield         | OpenFOAM: The Open Source CFD Toolbox
   \\    /   O peration     | Website:  https://openfoam.org
    \\  /    A nd           | Version:  10
     \\/     M anipulation  |
\*---------------------------------------------------------------------------*/
FoamFile
{
    format      ascii;
    class       volScalarField;
    location    "3000";
    object      C2H4;
}
// * * * * * * * * * * * * * * * * * * * * * * * * * * * * * * * * * * * * * //

dimensions      [0 0 0 0 0 0 0];

internalField   nonuniform List<scalar> 
5170
(
9.636145519e-61
7.784591569e-61
4.839138259e-61
2.389107031e-61
1.891264332e-61
3.263026066e-58
2.608543175e-58
1.595805874e-58
9.221728498e-59
1.625237813e-58
1.116672112e-55
8.861300685e-56
5.400016361e-56
4.244669385e-56
1.276745099e-55
3.898113383e-53
3.090003667e-53
1.943326297e-53
2.177650799e-53
9.199278134e-53
1.387875984e-50
1.109515905e-50
7.478059829e-51
1.183933656e-50
6.184142298e-50
5.061858265e-48
4.132096229e-48
3.053782467e-48
6.632534117e-48
3.929178719e-47
1.889363166e-45
1.588535418e-45
1.340086815e-45
3.784300722e-45
2.412596896e-44
7.206692893e-43
6.311040289e-43
6.340942421e-43
2.189908412e-42
1.449340534e-41
2.816299564e-40
2.620749706e-40
3.160169165e-40
1.282133782e-39
8.565804517e-39
1.129081106e-37
1.136377128e-37
1.639759549e-37
7.605558206e-37
4.998617641e-36
4.631647882e-35
5.124109402e-35
8.800705069e-35
4.560377739e-34
2.886940273e-33
1.934448179e-32
2.393227252e-32
4.884791465e-32
2.757474762e-31
1.652731527e-30
8.188265292e-30
1.149380333e-29
2.809433841e-29
1.69019112e-28
9.386823655e-28
3.483094408e-27
5.621927457e-27
1.65693254e-26
1.050073645e-25
5.295112846e-25
1.481600479e-24
2.77557089e-24
9.87262206e-24
6.579595297e-23
2.970074249e-22
6.201320818e-22
1.36110092e-21
5.823661747e-21
4.025356002e-20
1.659187125e-19
2.541560608e-19
6.615243294e-19
3.317489098e-18
2.383087026e-17
9.265527795e-17
9.979066728e-17
3.129989959e-16
1.82746163e-15
1.342334606e-14
5.179683311e-14
3.599695101e-14
1.413455131e-13
9.478357624e-13
7.061246103e-12
2.916452768e-11
1.11344831e-11
6.186174863e-11
4.800857295e-10
3.41415763e-09
1.677326018e-08
5.269308151e-28
9.561632735e-29
7.29381832e-29
3.362215814e-28
5.123924522e-28
2.417066073e-28
8.968806831e-29
7.629509225e-29
2.558343247e-28
3.305692104e-28
1.473403055e-28
6.936649774e-29
6.016698931e-29
1.339006182e-28
1.702590625e-28
8.308717901e-29
5.010310253e-29
4.473542102e-29
7.387685534e-29
8.655152994e-29
4.567558609e-29
3.458816711e-29
3.137126256e-29
4.008247562e-29
4.100172788e-29
2.504058517e-29
2.294615499e-29
2.076246156e-29
2.031221882e-29
1.784798449e-29
1.349322835e-29
1.449429406e-29
1.302121119e-29
9.26842517e-30
7.073663912e-30
7.206502364e-30
8.752228105e-30
7.662520412e-30
3.856039399e-30
2.639282206e-30
4.058579432e-30
5.176894253e-30
4.302238202e-30
1.741787196e-30
9.89606545e-31
3.282163541e-29
1.076139958e-29
3.802002745e-30
8.453923304e-31
4.106772864e-31
5.032679894e-27
1.258113747e-27
2.31248693e-28
2.787867158e-29
8.218787029e-30
8.307380432e-25
2.045271453e-25
3.643683568e-26
4.280934013e-27
1.166118013e-27
1.385183359e-22
3.373598832e-23
5.856648003e-24
6.753941191e-25
1.708225418e-25
2.331303828e-20
5.614592062e-21
9.497178411e-22
1.073467445e-22
2.516096547e-23
3.968408967e-18
9.417473041e-19
1.543399894e-19
1.699468775e-20
3.687862363e-21
6.806819517e-16
1.578240733e-16
2.485511474e-17
2.648096484e-18
5.304024653e-19
1.175977267e-13
2.624917491e-14
3.900637865e-15
3.987509856e-16
7.328611051e-17
2.052920162e-11
4.281958374e-12
5.867059764e-13
5.706882165e-14
9.688300671e-15
3.754306262e-09
6.826511159e-10
8.34008889e-11
7.675319173e-12
1.19774448e-12
7.62054959e-07
1.048656395e-07
1.103563658e-08
9.505754711e-10
1.3213711e-10
4.21129598e-10
3.231644192e-09
4.943291775e-08
7.419432938e-07
9.952003042e-06
4.042361383e-09
2.913595203e-08
3.896986659e-07
4.748220882e-06
4.575776426e-05
1.974696348e-08
1.302423742e-07
1.484943304e-06
1.429331799e-05
9.5265506e-05
7.068985754e-08
4.274658791e-07
4.133448884e-06
3.083062812e-05
0.0001441223504
2.02628122e-07
1.117657845e-06
9.070758164e-06
5.296819371e-05
0.0001893638375
5.084210646e-07
2.542433134e-06
1.738791268e-05
8.189340586e-05
0.0002406441333
1.20954421e-06
5.537615266e-06
3.178947297e-05
0.0001205039647
0.0003006835882
2.737434737e-06
1.147227096e-05
5.383019211e-05
0.00016523644
0.0003586751884
5.824672534e-06
2.184579213e-05
8.254247094e-05
0.0002101676598
0.000406874497
1.157162213e-05
3.783301195e-05
0.0001160749522
0.0002537950597
0.0004493279118
2.199409505e-05
6.001222823e-05
0.0001522768573
0.0002966735295
0.0004911623616
3.842312807e-05
8.732435761e-05
0.0001901051495
0.0003394244182
0.0005329042543
6.233790214e-05
0.0001199596337
0.000230148436
0.0003822079103
0.0005725449404
9.601674485e-05
0.0001590970334
0.0002734849214
0.0004256223425
0.000610452467
0.0001425568152
0.0002067025546
0.0003215949954
0.0004711487392
0.0006491664869
0.0002041815884
0.0002653419239
0.0003768624126
0.0005216255267
0.000692722051
0.0002819291724
0.0003375720788
0.0004426032828
0.0005807902604
0.0007448598893
0.00037399615
0.0004234938541
0.0005204129472
0.0006505801994
0.0008063116153
0.0004780102531
0.0005216000006
0.0006094854904
0.0007299039027
0.0008752409159
0.0005897639318
0.0006280248019
0.0007067157325
0.0008163164672
0.0009498029103
0.0007051925352
0.0007386630765
0.0008085078305
0.0009071702942
0.001028612948
0.000820833776
0.0008501979716
0.0009121297676
0.001000708161
0.001111079666
0.0009354414972
0.0009613479761
0.00101648539
0.001096326097
0.001197130266
0.001049316772
0.001072432621
0.001122026742
0.001194589471
0.001287360883
0.001164136162
0.001185119499
0.001230362476
0.001297090319
0.001383113055
0.001283119488
0.001302496669
0.001344401231
0.001406488513
0.001487058452
0.001410296778
0.001428497135
0.001467963939
0.001526623668
0.001602970371
0.001549889628
0.001567248771
0.001604899866
0.001660848704
0.001733625814
0.00170707032
0.001723946277
0.001760585425
0.001814775902
0.001884445887
0.001888647354
0.001905147378
0.001940689505
0.001992881544
0.002058926412
0.002102913505
0.002118554153
0.002151960208
0.002199721713
0.002257095852
0.002359258146
0.002372261036
0.002399025344
0.002434581539
0.002472240481
0.002649386604
0.002654869019
0.002663880749
0.00266837467
0.002659191068
0.002858998797
0.002846713357
0.002815438016
0.002758921057
0.002666048566
0.002689918925
0.002654362978
0.0025754204
0.0024530697
0.00228542198
0.002013534153
0.001973720755
0.001887763588
0.001761393618
0.001600770451
0.00123644293
0.001208200331
0.001147985209
0.001061400638
0.0009543230567
0.000665873333
0.000649896369
0.0006159853826
0.0005676195237
0.0005084596203
0.0003253444201
0.0003174224108
0.0003006607148
0.0002768932921
0.0002480713102
0.0001462499438
0.0001428035218
0.0001355445222
0.0001253345368
0.0001130847797
6.289338119e-05
6.15993637e-05
5.886739839e-05
5.500113091e-05
5.030617506e-05
2.712960408e-05
2.664390342e-05
2.561187073e-05
2.413529328e-05
2.231626498e-05
1.176898233e-05
1.158225751e-05
1.118381002e-05
1.06093826e-05
9.894354024e-06
5.129808548e-06
5.056689198e-06
4.900192828e-06
4.67331941e-06
4.388711859e-06
2.244792348e-06
2.215758886e-06
2.153477177e-06
2.062798004e-06
1.94834873e-06
9.857037315e-07
9.74051086e-07
9.490090817e-07
9.124234642e-07
8.660197004e-07
4.342718598e-07
4.295562458e-07
4.194066469e-07
4.045351138e-07
3.85593899e-07
1.920340105e-07
1.901121496e-07
1.859700683e-07
1.798855781e-07
1.721079469e-07
8.529615529e-08
8.450776767e-08
8.280649409e-08
8.03016841e-08
7.708940107e-08
3.809779909e-08
3.777215035e-08
3.706860888e-08
3.603059022e-08
3.469541265e-08
1.713328962e-08
1.699775708e-08
1.670462447e-08
1.627127527e-08
1.571231929e-08
7.767942975e-09
7.711060559e-09
7.587904535e-09
7.405503921e-09
7.169631916e-09
3.554749232e-09
3.530673236e-09
3.478496543e-09
3.401092515e-09
3.300769371e-09
1.644008082e-09
1.633752093e-09
1.61150888e-09
1.578469208e-09
1.535573236e-09
7.700545727e-10
7.65695715e-10
7.562399907e-10
7.421895952e-10
7.239409537e-10
3.672870873e-10
3.654938152e-10
3.616086205e-10
3.558491121e-10
3.483959064e-10
1.811125648e-10
1.804786417e-10
1.791154972e-10
1.771222044e-10
1.745962964e-10
9.613575825e-11
9.607465151e-11
9.59619989e-11
9.584770152e-11
9.58020567e-11
5.9980948e-11
6.026854421e-11
6.092203232e-11
6.197191838e-11
6.348761685e-11
4.949276508e-11
5.008538628e-11
5.141456747e-11
5.350581217e-11
5.644583165e-11
5.600204267e-11
5.692710691e-11
5.899177558e-11
6.221296716e-11
6.668965271e-11
7.606440343e-11
7.742738015e-11
8.046501878e-11
8.519270962e-11
9.174213234e-11
1.133057235e-10
1.152929654e-10
1.197150291e-10
1.265786967e-10
1.360509678e-10
1.752587119e-10
1.781169026e-10
1.844673155e-10
1.942976781e-10
2.078136385e-10
2.737124588e-10
2.777582672e-10
2.867337305e-10
3.005909015e-10
3.19573389e-10
4.265644791e-10
4.321901795e-10
4.446520761e-10
4.638423015e-10
4.90036147e-10
6.573139256e-10
6.649578114e-10
6.818651995e-10
7.078345703e-10
7.431559333e-10
9.968637946e-10
1.006960571e-09
1.029261499e-09
1.063430811e-09
1.109746319e-09
1.46054132e-09
1.473377546e-09
1.501692103e-09
1.544980606e-09
1.60348076e-09
1.984163101e-09
1.999606809e-09
2.033640497e-09
2.085586073e-09
2.155623241e-09
3.588240035e-05
0.0001676694041
0.000263954349
0.0003123378482
0.0003546095054
0.0004157648173
0.0004872140053
0.0005422828142
0.0005786456171
0.0006115878864
0.0006490206431
0.0006870898261
0.000720288493
0.0007504082077
0.0007820962167
0.0008201842933
0.0008674285984
0.0009228013077
0.0009839315813
0.001049859249
0.001120286949
0.001195364388
0.001275155153
0.001360028806
0.001451068885
0.001551071651
0.001663665558
0.001791139023
0.001938480648
0.002108499251
0.002296617873
0.002490801277
0.002633408488
0.002572415507
0.002145533065
0.001477601152
0.0008747747835
0.0004650955789
0.0002271915093
0.0001043045298
4.687530382e-05
2.096423106e-05
9.356123265e-06
4.172388541e-06
1.860687487e-06
8.302532395e-07
3.709167023e-07
1.660531733e-07
7.457823141e-08
3.364766138e-08
1.527213699e-08
6.983276544e-09
3.221280068e-09
1.501513888e-09
7.094477547e-10
3.425079007e-10
1.726606634e-10
9.587958466e-11
6.485895419e-11
5.902717064e-11
7.056660829e-11
9.738946224e-11
1.441788685e-10
2.193567415e-10
3.35709866e-10
5.122019826e-10
7.729114444e-10
1.148595159e-09
1.652364914e-09
2.213976969e-09
8.633852237e-05
1.52270519e-05
1.461197578e-06
1.149080704e-07
1.260780511e-08
0.0004761454243
0.002080167826
0.0001667513545
1.070919997e-05
9.789922046e-07
0.0006246681103
0.001650584104
0.0001604774711
1.23738321e-05
1.232998983e-06
0.0006308269156
0.001164827222
0.0003259846546
2.364858705e-05
1.487108676e-06
0.0006578251293
0.001206463254
0.001707304885
0.0001364927109
9.367062291e-06
0.0007374048156
0.001413944663
0.002379682192
0.0002498197874
2.158539695e-05
0.0008215862628
0.001511929352
0.002362800936
0.0003138012865
3.522829393e-05
0.0008566879746
0.001416150798
0.001887870075
0.0003205534879
4.380178179e-05
0.0008618291687
0.001315014639
0.00166921025
0.001031862194
0.0001560343163
0.0008746647408
0.001302898429
0.001738834526
0.001785982033
0.0003175627148
0.0009034160456
0.001337897067
0.001837637367
0.00213405839
0.0004341562438
0.000933340933
0.001352308636
0.001814037351
0.002083671988
0.000477767672
0.0009530278646
0.001331797762
0.001711200154
0.001900148358
0.0007419870758
0.000968367953
0.001313490401
0.001656081968
0.001881146173
0.001263259159
0.0009880540624
0.001315661255
0.001656928979
0.001943434174
0.001655317838
0.001017611899
0.001336868765
0.001681299287
0.001997216333
0.00186901144
0.001057082352
0.001366210979
0.001698986818
0.001999489107
0.001924931935
0.00110220639
0.001392620879
0.001695673017
0.001950493785
0.001877363681
0.001150265284
0.001417131301
0.001687702872
0.001905538542
0.001845616448
0.001202126241
0.001446615065
0.001692961037
0.001892798334
0.001858292556
0.001259386624
0.001486051647
0.0017174893
0.001910940046
0.001899277557
0.001323165757
0.001536435262
0.001758418442
0.001948377964
0.001949913264
0.001393566659
0.001595939994
0.001809397554
0.001992125601
0.001993228481
0.001470437068
0.001662375647
0.001864945197
0.002033081961
0.00201904184
0.001554351146
0.001735465125
0.001924248913
0.002071040119
0.002028388782
0.001648307674
0.001819317785
0.001991087057
0.002109803826
0.00202350693
0.001755576496
0.001914975477
0.002067271974
0.002148824022
0.001999263208
0.001877721962
0.002023175772
0.002150939412
0.002180421027
0.001944159837
0.00201911795
0.002146528546
0.002236266068
0.002188455716
0.001842939903
0.00218106731
0.002278522693
0.002305770843
0.002146350167
0.00168492408
0.002351623908
0.002396997103
0.002323272895
0.002021202471
0.0014709495
0.002510442617
0.002457246355
0.002235511537
0.001792499723
0.001217559211
0.002582194005
0.002373998467
0.001991059776
0.001472344048
0.0009505251166
0.002419912412
0.002057448255
0.001592535476
0.001107507128
0.000696020924
0.001932509498
0.001538155753
0.0011274357
0.0007590669753
0.0004753597822
0.001295722757
0.0009958484193
0.0007125786311
0.0004763277171
0.0003031248727
0.0007587537181
0.0005759423985
0.0004105196017
0.0002776362687
0.0001822574244
0.0004022360091
0.0003053882169
0.0002201373132
0.0001531286303
0.0001040552118
0.0001970954527
0.0001517110427
0.0001124304538
8.092061883e-05
5.684002909e-05
9.168989582e-05
7.262645071e-05
5.557914801e-05
4.129552982e-05
2.992015285e-05
4.190726215e-05
3.409586086e-05
2.683263714e-05
2.051025279e-05
1.528594308e-05
1.899523519e-05
1.580144701e-05
1.273587038e-05
9.979808763e-06
7.628036806e-06
8.568855104e-06
7.260582759e-06
5.972030965e-06
4.781829996e-06
3.737782905e-06
3.854894633e-06
3.317075629e-06
2.776109185e-06
2.265001761e-06
1.805934396e-06
1.731680767e-06
1.5097221e-06
1.282549217e-06
1.063780187e-06
8.632518488e-07
7.77501515e-07
6.85556283e-07
5.900619324e-07
4.965856417e-07
4.093760737e-07
3.492291554e-07
3.110067798e-07
2.708046963e-07
2.308881255e-07
1.930630533e-07
1.570919143e-07
1.411448926e-07
1.241848473e-07
1.071313948e-07
9.074460066e-08
7.085617611e-08
6.417531877e-08
5.699925297e-08
4.97012393e-08
4.259927476e-08
3.209258159e-08
2.927963226e-08
2.623097705e-08
2.309832902e-08
2.001445306e-08
1.461798503e-08
1.342641646e-08
1.212446902e-08
1.077404847e-08
9.430674194e-09
6.706007736e-09
6.197802945e-09
5.638490502e-09
5.053516939e-09
4.466236764e-09
3.10288855e-09
2.884750199e-09
2.643231532e-09
2.388936981e-09
2.13184101e-09
1.450748217e-09
1.356882702e-09
1.252579429e-09
1.142387761e-09
1.030723669e-09
6.878462941e-10
6.479276237e-10
6.036724674e-10
5.571671409e-10
5.105388275e-10
3.337535935e-10
3.177872157e-10
3.004652415e-10
2.828974526e-10
2.663076327e-10
1.698221814e-10
1.650245771e-10
1.604751728e-10
1.569408194e-10
1.553505824e-10
9.606911941e-11
9.712644266e-11
9.949102758e-11
1.03876873e-10
1.112103899e-10
6.701109561e-11
7.201936878e-11
7.929569043e-11
8.967051009e-11
1.042588649e-10
6.303163375e-11
7.187870547e-11
8.401007151e-11
1.00387808e-10
1.222857353e-10
7.65509837e-11
8.956043967e-11
1.0717868e-10
1.306386893e-10
1.615572993e-10
1.060906709e-10
1.248525604e-10
1.500066334e-10
1.831068205e-10
2.261468621e-10
1.566769471e-10
1.833854631e-10
2.188169718e-10
2.64886978e-10
3.240048344e-10
2.370720686e-10
2.746056469e-10
3.238825886e-10
3.871972829e-10
4.673811687e-10
3.604280394e-10
4.123548488e-10
4.798327264e-10
5.655225821e-10
6.726446715e-10
5.46092958e-10
6.167036158e-10
7.075484334e-10
8.216032526e-10
9.623804194e-10
8.1832469e-10
9.121554399e-10
1.031655584e-09
1.179923457e-09
1.360536157e-09
1.207780439e-09
1.329113866e-09
1.482177311e-09
1.67002865e-09
1.896121746e-09
1.726730997e-09
1.878117428e-09
2.067507558e-09
2.297730914e-09
2.571911427e-09
2.302646005e-09
2.482182298e-09
2.705347841e-09
2.974627243e-09
3.292699503e-09
2.740725954e-09
4.114553681e-10
9.286472182e-11
4.537428034e-11
3.326305326e-11
2.559149495e-11
1.905015069e-11
1.372492401e-11
9.632672163e-12
6.642665348e-12
4.519660533e-12
3.041130602e-12
2.024575697e-12
1.332867112e-12
8.672005369e-13
5.572460553e-13
3.535707033e-13
2.215129337e-13
1.370717913e-13
8.381593769e-14
5.06824381e-14
3.033987859e-14
1.801046032e-14
1.063167782e-14
6.27172477e-15
3.728765455e-15
2.264688627e-15
1.432080927e-15
9.631531346e-16
6.996661666e-16
5.494259002e-16
4.596125873e-16
4.006483671e-16
3.565316252e-16
3.190500866e-16
2.84336576e-16
2.508693818e-16
2.183568236e-16
1.871256477e-16
1.577629178e-16
1.308766377e-16
1.069363223e-16
8.618960147e-17
6.865058359e-17
5.413993747e-17
4.235000978e-17
3.291213543e-17
2.544619343e-17
1.959288383e-17
1.502999648e-17
1.148019309e-17
8.713925178e-18
6.547167466e-18
4.836111192e-18
3.47007172e-18
2.364483121e-18
1.456497405e-18
7.280544119e-19
2.105369657e-19
2.069660103e-20
1.552942091e-07
1.591231573e-08
2.423619998e-09
9.051019252e-10
5.760403148e-10
4.11162502e-10
2.870261086e-10
1.963851802e-10
1.300687682e-10
8.441699919e-11
5.360405321e-11
3.352592354e-11
2.070092455e-11
1.26635177e-11
7.691413061e-12
4.645008565e-12
2.791907394e-12
1.670565935e-12
9.952165177e-13
5.901240426e-13
3.482125734e-13
2.044952505e-13
1.196303026e-13
6.985337162e-14
4.088627284e-14
2.417991825e-14
1.463808745e-14
9.240216469e-15
6.209219993e-15
4.508107216e-15
3.538135422e-15
2.958192654e-15
2.577749724e-15
2.293883046e-15
2.053758038e-15
1.832302417e-15
1.61931834e-15
1.412426691e-15
1.213302126e-15
1.025491587e-15
8.528877165e-16
6.986393596e-16
5.645262959e-16
4.508104092e-16
3.564677683e-16
2.796139198e-16
2.179303542e-16
1.690047485e-16
1.305359567e-16
1.00448697e-16
7.695789837e-17
5.858511992e-17
4.41399543e-17
3.268787895e-17
2.350879866e-17
1.605943127e-17
9.953338268e-18
5.082688197e-18
1.641237666e-18
2.222392583e-19
2.691658309e-07
3.542234382e-08
7.975545767e-09
4.392237538e-09
3.125728974e-09
2.315411811e-09
1.660334202e-09
1.166292295e-09
7.911550289e-10
5.242132523e-10
3.370415458e-10
2.117198257e-10
1.298121322e-10
7.801973525e-11
4.606528555e-11
2.682635506e-11
1.546863381e-11
8.864930036e-12
5.06632819e-12
2.893222143e-12
1.652640212e-12
9.44486174e-13
5.403577152e-13
3.099120173e-13
1.787950133e-13
1.044849709e-13
6.258674808e-14
3.909395069e-14
2.59774076e-14
1.864344996e-14
1.447760877e-14
1.200562492e-14
1.04082612e-14
9.242283962e-15
8.277592667e-15
7.401549126e-15
6.564696761e-15
5.751509723e-15
4.965107947e-15
4.218114913e-15
3.526121646e-15
2.902775395e-15
2.356752041e-15
1.890660485e-15
1.501692469e-15
1.183189078e-15
9.263760212e-16
7.217786828e-16
5.601857958e-16
4.332020463e-16
3.335503007e-16
2.551614041e-16
1.931405972e-16
1.43640529e-16
1.036954845e-16
7.109867495e-17
4.436750749e-17
2.299292756e-17
7.829645412e-18
1.214703616e-18
3.813591479e-07
1.005113099e-07
2.696247567e-08
1.452913039e-08
1.062265553e-08
8.083850967e-09
6.025428846e-09
4.375596745e-09
3.086547135e-09
2.121870012e-09
1.418574564e-09
9.245761993e-10
5.868312614e-10
3.634867827e-10
2.197041777e-10
1.299121443e-10
7.527201099e-11
4.289641829e-11
2.413006778e-11
1.345838756e-11
7.471755448e-12
4.142935977e-12
2.30045343e-12
1.282791744e-12
7.211029505e-13
4.111344368e-13
2.401716175e-13
1.459566845e-13
9.403671547e-14
6.530743143e-14
4.916874959e-14
3.975955708e-14
3.387109459e-14
2.977636639e-14
2.656750346e-14
2.377768582e-14
2.117667795e-14
1.866641129e-14
1.622822963e-14
1.388962318e-14
1.169808128e-14
9.700793723e-15
7.932137643e-15
6.407447654e-15
5.123689937e-15
4.063837331e-15
3.202633511e-15
2.511448147e-15
1.961665359e-15
1.526719744e-15
1.183144507e-15
9.10988992e-16
6.939638213e-16
5.192395084e-16
3.769435117e-16
2.598807935e-16
1.635384241e-16
8.606597804e-17
3.056580192e-17
5.360444478e-18
1.527270891e-06
3.802209859e-07
8.172479909e-08
3.39855223e-08
2.437990057e-08
1.918536701e-08
1.498922653e-08
1.142361904e-08
8.489790738e-09
6.159974933e-09
4.36204767e-09
3.016234247e-09
2.03463919e-09
1.339573227e-09
8.597902169e-10
5.383935519e-10
3.286995164e-10
1.959531018e-10
1.141213103e-10
6.511498439e-11
3.648377881e-11
2.016086802e-11
1.103145594e-11
6.00781656e-12
3.274747668e-12
1.799343982e-12
1.00602498e-12
5.800009594e-13
3.509132446e-13
2.270848092e-13
1.592846731e-13
1.211200847e-13
9.851165713e-14
8.401106352e-14
7.370706378e-14
6.553717437e-14
5.840361335e-14
5.174421752e-14
4.532777787e-14
3.913173168e-14
3.32487151e-14
2.780942738e-14
2.292783137e-14
1.867156606e-14
1.505328641e-14
1.203951444e-14
9.568303133e-15
7.565756494e-15
5.95717837e-15
4.672243843e-15
3.647878912e-15
2.829405838e-15
2.171131226e-15
1.636346734e-15
1.196612197e-15
8.314715592e-16
5.287523289e-16
2.833054807e-16
1.048530998e-16
2.113070978e-17
1.955739439e-06
6.193943601e-07
1.833128432e-07
6.612452801e-08
4.37275909e-08
3.480103544e-08
2.826740081e-08
2.259742488e-08
1.770988485e-08
1.360725852e-08
1.024871708e-08
7.564362032e-09
5.467392634e-09
3.868081565e-09
2.67537713e-09
1.807805898e-09
1.191923049e-09
7.663921432e-10
4.799346257e-10
2.928112351e-10
1.739964643e-10
1.008884683e-10
5.714511312e-11
3.172373715e-11
1.732280664e-11
9.364363817e-12
5.052513436e-12
2.753421712e-12
1.54006351e-12
9.024034072e-13
5.65907315e-13
3.855184589e-13
2.856809976e-13
2.274604318e-13
1.908862515e-13
1.655985853e-13
1.460732236e-13
1.293390912e-13
1.139041767e-13
9.91675461e-14
8.506597626e-14
7.181780618e-14
5.972090577e-14
4.901803224e-14
3.982459224e-14
3.211141755e-14
2.574535056e-14
2.054726066e-14
1.633281679e-14
1.29302e-14
1.018637806e-14
7.96889351e-15
6.166016024e-15
4.686340935e-15
3.458146867e-15
2.429054914e-15
1.567407478e-15
8.603359771e-16
3.343540094e-16
7.857246205e-17
2.853149164e-06
7.673549917e-07
2.996610743e-07
1.186744978e-07
6.850763858e-08
5.28847592e-08
4.371885523e-08
3.616899262e-08
2.953539046e-08
2.374648737e-08
1.879090832e-08
1.463533219e-08
1.121760133e-08
8.458330659e-09
6.270153315e-09
4.56496577e-09
3.258947205e-09
2.277399725e-09
1.554495507e-09
1.034829387e-09
6.706868e-10
4.228346262e-10
2.589964226e-10
1.541295635e-10
8.913544454e-11
5.022187059e-11
2.765892988e-11
1.498338418e-11
8.062634454e-12
4.377920505e-12
2.45157564e-12
1.452719986e-12
9.316912083e-13
6.533090439e-13
4.978699762e-13
4.051792083e-13
3.445055295e-13
2.998499042e-13
2.630193807e-13
2.299586536e-13
1.989430732e-13
1.696552204e-13
1.424378761e-13
1.178566123e-13
9.639458937e-14
7.821378841e-14
6.313388626e-14
5.078015896e-14
4.072216211e-14
3.254938534e-14
2.589939156e-14
2.046527418e-14
1.599348787e-14
1.227948893e-14
9.164281374e-15
6.530141472e-15
4.299561441e-15
2.438513294e-15
1.009160101e-15
2.786751509e-16
4.27325477e-06
7.702131156e-07
3.66700322e-07
1.817200494e-07
1.022825552e-07
7.381134384e-08
6.016222193e-08
5.057303767e-08
4.240346561e-08
3.517044468e-08
2.879994805e-08
2.327504577e-08
1.856583195e-08
1.461903963e-08
1.13631714e-08
8.716653999e-09
6.595018941e-09
4.917392369e-09
3.608046765e-09
2.599768903e-09
1.834920467e-09
1.264951484e-09
8.490610571e-10
5.534815563e-10
3.497507055e-10
2.140513989e-10
1.26825614e-10
7.28207754e-11
4.063640306e-11
2.218641551e-11
1.198382302e-11
6.520894853e-12
3.667574595e-12
2.196066897e-12
1.432812595e-12
1.02610481e-12
7.97517733e-13
6.568829742e-13
5.59620619e-13
4.840042499e-13
4.193260547e-13
3.605215356e-13
3.0587505e-13
2.555743066e-13
2.106400808e-13
1.71902139e-13
1.394402716e-13
1.12723777e-13
9.094514621e-14
7.323592913e-14
5.87898487e-14
4.691990999e-14
3.706832113e-14
2.879885393e-14
2.17832876e-14
1.578282164e-14
1.063190841e-14
6.245407645e-15
2.757324773e-15
8.81141742e-16
1.712684284e-05
1.948723367e-06
6.950788223e-07
3.292287321e-07
1.628694389e-07
1.016160017e-07
7.872820745e-08
6.586731319e-08
5.605464001e-08
4.753393046e-08
3.993319362e-08
3.318511838e-08
2.727283236e-08
2.216975578e-08
1.782871668e-08
1.418541051e-08
1.116529647e-08
8.690475733e-09
6.684561442e-09
5.075738789e-09
3.799029676e-09
2.79747063e-09
2.022169533e-09
1.430605836e-09
9.87090164e-10
6.619833982e-10
4.299067106e-10
2.696257961e-10
1.631188663e-10
9.526932393e-11
5.386610327e-11
2.967774079e-11
1.613682248e-11
8.84485398e-12
5.030193689e-12
3.061263183e-12
2.039377156e-12
1.490527442e-12
1.172551371e-12
9.683052674e-13
8.21511286e-13
7.042453948e-13
6.02282516e-13
5.093349451e-13
4.242709667e-13
3.489413325e-13
2.846127241e-13
2.310263244e-13
1.870938902e-13
1.513543944e-13
1.222666672e-13
9.840318787e-14
7.856531969e-14
6.181822689e-14
4.747916103e-14
3.5059732e-14
2.4222486e-14
1.477353827e-14
6.97230814e-15
2.536469458e-15
4.123626863e-05
4.711124886e-06
1.14481486e-06
5.317019135e-07
2.666403214e-07
1.44031973e-07
1.014477495e-07
8.307936394e-08
7.108166912e-08
6.122624711e-08
5.246522483e-08
4.457256374e-08
3.750931853e-08
3.126447215e-08
2.581477402e-08
2.111812795e-08
1.711714776e-08
1.37450371e-08
1.093095814e-08
8.604451264e-09
6.69716494e-09
5.149473679e-09
3.904828889e-09
2.914248274e-09
2.135363685e-09
1.531923109e-09
1.072898612e-09
7.310912414e-10
4.828947614e-10
3.080857246e-10
1.893213029e-10
1.119779163e-10
6.394878642e-11
3.555808958e-11
1.954377559e-11
1.086216524e-11
6.285277168e-12
3.907900577e-12
2.66137516e-12
1.978477317e-12
1.572445593e-12
1.303984815e-12
1.104699885e-12
9.402600709e-13
7.940009895e-13
6.61233064e-13
5.439574102e-13
4.439967217e-13
3.609439686e-13
2.929351167e-13
2.375608595e-13
1.923125572e-13
1.548789229e-13
1.233344013e-13
9.622955105e-14
7.252728856e-14
5.148953519e-14
3.267481156e-14
1.650601211e-14
6.717135104e-15
6.559328254e-05
8.451636374e-06
1.45190117e-06
6.482897377e-07
3.602002357e-07
2.012079214e-07
1.307509274e-07
1.031370657e-07
8.805929356e-08
7.67175092e-08
6.680977337e-08
5.780297478e-08
4.960099886e-08
4.219760904e-08
3.559157478e-08
2.976603452e-08
2.468627302e-08
2.030012889e-08
1.655594914e-08
1.338658243e-08
1.072352838e-08
8.502560178e-09
6.66455292e-09
5.156337068e-09
3.930720089e-09
2.946154899e-09
2.166163739e-09
1.558478151e-09
1.094140713e-09
7.473246575e-10
4.951413278e-10
3.172557491e-10
1.960607006e-10
1.167793137e-10
6.726672226e-11
3.78128037e-11
2.106554471e-11
1.189821089e-11
7.032826428e-12
4.496291478e-12
3.160896561e-12
2.417368946e-12
1.959788005e-12
1.640493378e-12
1.389165705e-12
1.172578854e-12
9.787624776e-13
8.072142705e-13
6.602156571e-13
5.378321569e-13
4.375771083e-13
3.556996117e-13
2.883035726e-13
2.31879646e-13
1.83570413e-13
1.411853786e-13
1.030858912e-13
6.81540085e-14
3.685797371e-14
1.650433992e-14
8.216804358e-05
1.21330636e-05
1.850198199e-06
6.8431611e-07
4.114862094e-07
2.610975374e-07
1.699273434e-07
1.278851732e-07
1.073345778e-07
9.375831234e-08
8.260118162e-08
7.252591979e-08
6.324520368e-08
5.471791138e-08
4.694693338e-08
3.996723957e-08
3.377214902e-08
2.83216831e-08
2.356908729e-08
1.94603086e-08
1.593288144e-08
1.292535627e-08
1.037959176e-08
8.241311977e-09
6.460583953e-09
4.992066164e-09
3.794902594e-09
2.832223211e-09
2.070518068e-09
1.479137847e-09
1.02998914e-09
6.973761825e-10
4.579654731e-10
2.910860896e-10
1.788933679e-10
1.064194644e-10
6.152481272e-11
3.486698378e-11
1.96942871e-11
1.139856627e-11
7.020202971e-12
4.742921305e-12
3.52136421e-12
2.805011618e-12
2.32594085e-12
1.96078271e-12
1.654801312e-12
1.386176713e-12
1.148717707e-12
9.433529845e-13
7.7088101e-13
6.288636945e-13
5.122133134e-13
4.152281508e-13
3.327999867e-13
2.607676376e-13
1.957367925e-13
1.349164745e-13
7.807098684e-14
3.79266283e-14
0.0001391156925
2.254980305e-05
3.503348563e-06
8.825274549e-07
4.703898649e-07
3.13704839e-07
2.17482943e-07
1.590777596e-07
1.292306615e-07
1.112674949e-07
9.799909279e-08
8.666996407e-08
7.631650361e-08
6.683449589e-08
5.799998855e-08
5.014185045e-08
4.304606061e-08
3.669110703e-08
3.104525359e-08
2.606961837e-08
2.171771891e-08
1.793920474e-08
1.468194648e-08
1.189423404e-08
9.52663545e-09
7.533001155e-09
5.870916786e-09
4.501474322e-09
3.388844682e-09
2.499752371e-09
1.802935382e-09
1.268779489e-09
8.693535578e-10
5.788494232e-10
3.739788476e-10
2.342571848e-10
1.423206849e-10
8.405403317e-11
4.854275458e-11
2.779013918e-11
1.616251324e-11
9.897132961e-12
6.599095913e-12
4.835302957e-12
3.820641114e-12
3.155407328e-12
2.654980501e-12
2.242146856e-12
1.885240146e-12
1.57176723e-12
1.298930407e-12
1.06672759e-12
8.730275143e-13
7.121152205e-13
5.765632638e-13
4.592304113e-13
3.538245429e-13
2.543241151e-13
1.573771277e-13
8.207167512e-14
0.0002587322964
4.591837244e-05
7.656615363e-06
1.474911905e-06
6.149450053e-07
3.831529536e-07
2.703061272e-07
1.976114423e-07
1.528740576e-07
1.265329372e-07
1.087425267e-07
9.515294682e-08
8.381356827e-08
7.387713006e-08
6.463837756e-08
5.649420323e-08
4.906581658e-08
4.234638832e-08
3.63062029e-08
3.091219067e-08
2.612847331e-08
2.191589127e-08
1.823247658e-08
1.503388063e-08
1.227485631e-08
9.910795404e-09
7.89981997e-09
6.20444296e-09
4.791660272e-09
3.631553271e-09
2.695371007e-09
1.955214882e-09
1.383879337e-09
9.543521393e-10
6.404693541e-10
4.179025837e-10
2.649845929e-10
1.633458816e-10
9.810437758e-11
5.774310796e-11
3.373558614e-11
2.001650642e-11
1.247155708e-11
8.421970718e-12
6.224746906e-12
4.945139518e-12
4.097256139e-12
3.454847063e-12
2.924349285e-12
2.468009806e-12
2.069937375e-12
1.722944728e-12
1.424559074e-12
1.171676359e-12
9.577696636e-13
7.73861124e-13
6.10228825e-13
4.56308873e-13
3.015164155e-13
1.680393259e-13
0.0003758457759
7.414507579e-05
1.375236405e-05
2.526667903e-06
8.054481993e-07
4.570887085e-07
3.181118513e-07
2.350610572e-07
1.772718949e-07
1.36444756e-07
1.097189387e-07
9.219192122e-08
7.962140659e-08
6.989904557e-08
6.155704059e-08
5.416510685e-08
4.750372304e-08
4.147329486e-08
3.601608029e-08
3.109279437e-08
2.667165839e-08
2.272286158e-08
1.921638468e-08
1.612139786e-08
1.340608062e-08
1.103867272e-08
8.988123352e-09
7.224490044e-09
5.719952543e-09
4.450769002e-09
3.39669975e-09
2.536994356e-09
1.850216701e-09
1.315629642e-09
9.11446857e-10
6.147635973e-10
4.036751461e-10
2.582186442e-10
1.611034762e-10
9.833516274e-11
5.913615444e-11
3.553121698e-11
2.183421091e-11
1.414864529e-11
9.913351073e-12
7.537891093e-12
6.099303817e-12
5.108170024e-12
4.334934494e-12