/*--------------------------------*- C++ -*----------------------------------*\
  =========                 |
  \\      /  F ield         | OpenFOAM: The Open Source CFD Toolbox
   \\    /   O peration     | Website:  https://openfoam.org
    \\  /    A nd           | Version:  10
     \\/     M anipulation  |
\*---------------------------------------------------------------------------*/
FoamFile
{
    format      ascii;
    class       volScalarField;
    location    "3000";
    object      C2H5;
}
// * * * * * * * * * * * * * * * * * * * * * * * * * * * * * * * * * * * * * //

dimensions      [0 0 0 0 0 0 0];

internalField   nonuniform List<scalar> 
5170
(
1.223264685e-64
8.783558671e-65
4.139605315e-65
1.443486591e-65
9.455391496e-66
4.943406511e-62
3.474225402e-62
1.553444564e-62
6.26432852e-63
1.128714217e-62
2.017807506e-59
1.391124824e-59
5.954255632e-60
3.406393692e-60
1.203392693e-59
8.379079216e-57
5.702948158e-57
2.436192695e-57
2.13947343e-57
1.149340476e-56
3.541315077e-54
2.406036973e-54
1.079370861e-54
1.452093383e-54
1.012088521e-53
1.530097455e-51
1.053428867e-51
5.153308573e-52
1.025536804e-51
8.339250734e-51
6.769794218e-49
4.779148119e-49
2.69527887e-49
7.433918314e-49
6.610929008e-48
3.060489999e-46
2.246323382e-46
1.558056531e-46
5.510226281e-46
5.124074147e-45
1.420102841e-43
1.113606933e-43
9.678143154e-44
4.168952645e-43
3.912202949e-42
6.781731163e-41
5.824905842e-41
6.364238805e-41
3.230508329e-40
2.958507501e-39
3.332707697e-38
3.209918334e-38
4.402847352e-38
2.564049861e-37
2.225155985e-36
1.677458276e-35
1.853680995e-35
3.200929929e-35
2.077293464e-34
1.669572719e-33
8.625007696e-33
1.115500949e-32
2.44634816e-32
1.730346079e-31
1.25207257e-30
4.491384417e-30
6.906257729e-30
1.939729777e-29
1.479306613e-28
9.397376586e-28
2.359576143e-27
4.368964072e-27
1.567085185e-26
1.286685059e-25
7.061978288e-25
1.228223901e-24
2.764043065e-24
1.256325615e-23
1.093921466e-22
5.312872578e-22
6.290400214e-22
1.7439377e-21
9.681895723e-21
8.856451426e-20
4.00370593e-19
3.095016234e-19
1.071925788e-18
7.182230794e-18
6.776736971e-17
3.017155457e-16
1.394032183e-16
6.245804228e-16
4.940929841e-15
4.709992033e-14
2.277692507e-13
5.339601065e-14
3.481391682e-13
3.285055148e-12
2.970711954e-11
1.742553912e-10
1.228908981e-32
1.755620684e-32
3.664747725e-33
2.028655777e-33
5.546645229e-32
1.713513814e-32
1.626626477e-32
4.297548811e-33
1.885161005e-33
3.824989294e-33
1.303157261e-32
1.110926147e-32
5.127931839e-33
3.257956056e-33
2.837453296e-33
8.922120797e-33
9.481060688e-33
8.353570581e-33
5.083599475e-33
4.060529358e-33
7.358152977e-33
1.065362409e-32
1.282487061e-32
6.606368118e-33
4.489859688e-33
6.733564611e-33
1.186471984e-32
1.561946e-32
6.701590387e-33
3.785542797e-33
5.633129071e-33
1.118199215e-32
1.49013232e-32
5.14491442e-33
2.418819515e-33
4.093232416e-33
8.800129807e-33
1.149772184e-32
3.162033877e-33
1.337395182e-33
5.123027078e-33
6.599396685e-33
7.590985705e-33
1.710634429e-33
5.737597375e-34
4.115092772e-31
1.077228286e-31
2.385288047e-32
3.235416061e-33
9.855745094e-34
6.724252872e-29
1.673184073e-29
3.046525291e-30
3.633225033e-31
1.043868934e-31
1.113148213e-26
2.725707414e-27
4.81537985e-28
5.606829897e-29
1.491213625e-29
1.861539248e-24
4.496487758e-25
7.715361297e-26
8.786851324e-27
2.160963401e-27
3.137253575e-22
7.460918006e-23
1.241585371e-23
1.379357487e-24
3.130815551e-25
5.331723934e-20
1.241128783e-20
1.988053223e-21
2.138678468e-22
4.471656521e-23
9.120625927e-18
2.052287325e-18
3.128651033e-19
3.230688458e-20
6.185219175e-21
1.5803315e-15
3.361677159e-16
4.763277994e-17
4.665263252e-18
8.086394754e-19
2.802851971e-13
5.404720456e-14
6.898807313e-15
6.320683113e-16
9.920527057e-17
5.251124029e-11
8.422789222e-12
9.268357457e-13
7.847847328e-14
1.103361522e-14
1.077051941e-08
1.208188985e-09
1.093722921e-10
8.477399105e-12
1.027594632e-12
2.49795085e-12
2.291107139e-11
4.327483759e-10
8.265822384e-09
1.369709454e-07
1.051360017e-11
8.200912008e-11
1.203726618e-09
1.577021967e-08
1.440714761e-07
2.586555776e-11
1.75935364e-10
2.082811289e-09
2.000327396e-08
1.164276189e-07
5.066935647e-11
3.081291458e-10
3.036738408e-09
2.206827815e-08
9.249748351e-08
8.610858686e-11
4.751159405e-10
3.945502564e-09
2.23794807e-08
7.77722632e-08
1.357009362e-10
6.865731334e-10
4.90671559e-09
2.311972955e-08
7.732038893e-08
2.17568288e-10
1.045480056e-09
6.584625638e-09
2.705152943e-08
9.215015387e-08
3.653524928e-10
1.695446916e-09
9.149693006e-09
3.274754493e-08
1.077903141e-07
6.302360269e-10
2.736560883e-09
1.211010646e-08
3.778953153e-08
1.165702053e-07
1.085517894e-09
4.209193985e-09
1.524343059e-08
4.309978798e-08
1.26986444e-07
1.904141806e-09
6.142480024e-09
1.860200316e-08
4.974153591e-08
1.419717704e-07
3.135490732e-09
8.313052975e-09
2.20979601e-08
5.699966273e-08
1.567348329e-07
4.805279998e-09
1.069662355e-08
2.584682353e-08
6.429056733e-08
1.686095309e-07
6.991866315e-09
1.343456507e-08
3.021389578e-08
7.248831274e-08
1.811619255e-07
9.894384785e-09
1.68965674e-08
3.591238869e-08
8.317061859e-08
1.981552338e-07
1.388863505e-08
2.178072816e-08
4.405202076e-08
9.831244823e-08
2.235655538e-07
1.978589568e-08
2.91873785e-08
5.599035932e-08
1.18978945e-07
2.557178956e-07
2.861400092e-08
4.017408338e-08
7.259295822e-08
1.442801411e-07
2.903405772e-07
4.262131938e-08
5.706665561e-08
9.592163591e-08
1.765799254e-07
3.346486306e-07
6.361797252e-08
8.094021371e-08
1.256149421e-07
2.148902263e-07
3.847313187e-07
9.167609141e-08
1.116797014e-07
1.627130237e-07
2.63319088e-07
4.522929345e-07
1.286560145e-07
1.535625425e-07
2.125616733e-07
3.312942982e-07
5.545042125e-07
1.740330828e-07
2.035620134e-07
2.779132949e-07
4.227467849e-07
6.772951125e-07
2.378453256e-07
2.749069337e-07
3.679436428e-07
5.455734939e-07
8.22121456e-07
3.326731552e-07
3.810392949e-07
5.020249508e-07
6.967759015e-07
9.972147061e-07
4.418207107e-07
4.958253705e-07
6.279910493e-07
8.710531651e-07
1.210531373e-06
5.959472287e-07
6.610394455e-07
8.203013381e-07
1.102761832e-06
1.492310848e-06
8.130146814e-07
8.908274956e-07
1.07920811e-06
1.418854035e-06
1.873798286e-06
1.186512766e-06
1.262254138e-06
1.432372899e-06
1.779934603e-06
2.354926511e-06
1.778314919e-06
1.888069376e-06
2.141763954e-06
2.563515554e-06
3.191861391e-06
2.70950856e-06
2.853240177e-06
3.178231145e-06
3.702614432e-06
4.465420717e-06
4.20230384e-06
4.385785623e-06
4.797350079e-06
5.431538755e-06
6.286546352e-06
6.528671774e-06
6.72742859e-06
7.154664361e-06
7.782687695e-06
8.557791744e-06
9.416124384e-06
9.552849194e-06
9.821805446e-06
1.016823201e-05
1.049523729e-05
1.107067705e-05
1.104708634e-05
1.097678324e-05
1.081557227e-05
1.050025273e-05
9.661311375e-06
9.536482236e-06
9.257709099e-06
8.824277735e-06
8.232616238e-06
6.600852959e-06
6.478827755e-06
6.214625891e-06
5.824591951e-06
5.325078055e-06
3.834055539e-06
3.752319056e-06
3.57719537e-06
3.323305834e-06
3.00595276e-06
1.972778491e-06
1.92727281e-06
1.830386738e-06
1.691507778e-06
1.520653404e-06
9.097383515e-07
8.882078126e-07
8.42734756e-07
7.78525418e-07
7.0125522e-07
3.90986995e-07
3.828089047e-07
3.655651469e-07
3.412085651e-07
3.116925693e-07
1.683505514e-07
1.653019304e-07
1.588276794e-07
1.495734567e-07
1.38186931e-07
7.295080732e-08
7.178376641e-08
6.929415668e-08
6.570693012e-08
6.124501961e-08
3.17778379e-08
3.132212667e-08
3.034692185e-08
2.893361839e-08
2.716148083e-08
1.390222652e-08
1.372161599e-08
1.333420328e-08
1.277025314e-08
1.205867122e-08
6.104495171e-09
6.03209372e-09
5.876503106e-09
5.649211697e-09
5.360970213e-09
2.689898083e-09
2.66061945e-09
2.597601036e-09
2.505267842e-09
2.387676617e-09
1.189785623e-09
1.177857342e-09
1.152148086e-09
1.114382613e-09
1.066109461e-09
5.286338893e-10
5.237411627e-10
5.13182587e-10
4.9763668e-10
4.776997868e-10
2.361857226e-10
2.341645527e-10
2.297977287e-10
2.233545822e-10
2.150666746e-10
1.062403558e-10
1.053988973e-10
1.035788696e-10
1.008881046e-10
9.741721991e-11
4.817023667e-11
4.781682182e-11
4.705158864e-11
4.591813469e-11
4.445223648e-11
2.203696979e-11
2.188709673e-11
2.156225571e-11
2.108025947e-11
2.045537155e-11
1.017968524e-11
1.011548482e-11
9.976204763e-12
9.769212883e-12
9.500266462e-12
4.751015755e-12
4.723260935e-12
4.663001253e-12
4.573325902e-12
4.456596017e-12
2.242257351e-12
2.230197074e-12
2.203999747e-12
2.164981593e-12
2.114135276e-12
1.072519289e-12
1.067321184e-12
1.056032135e-12
1.039224007e-12
1.01733359e-12
5.233315789e-13
5.212023219e-13
5.165881812e-13
5.097446523e-13
5.008832401e-13
2.652219082e-13
2.64526102e-13
2.630353167e-13
2.608691823e-13
2.581513337e-13
1.45920319e-13
1.459628996e-13
1.460863012e-13
1.463517107e-13
1.468546124e-13
9.482738359e-14
9.533624944e-14
9.648471658e-14
9.830934361e-14
1.009061495e-13
7.968175082e-14
8.05910576e-14
8.262535391e-14
8.58117898e-14
9.026437098e-14
8.683706387e-14
8.820241637e-14
9.124953319e-14
9.600326114e-14
1.026106207e-13
1.127638032e-13
1.147464473e-13
1.191666392e-13
1.260505432e-13
1.355964176e-13
1.611831704e-13
1.640800247e-13
1.705348254e-13
1.80578091e-13
1.944877587e-13
2.477946554e-13
2.520833011e-13
2.616239877e-13
2.764263907e-13
2.968446696e-13
3.858714346e-13
3.921789125e-13
4.062003778e-13
4.27926738e-13
4.578413968e-13
6.176659963e-13
6.269528331e-13
6.47565166e-13
6.794157152e-13
7.230988531e-13
9.787714969e-13
9.917574254e-13
1.02051163e-12
1.064757531e-12
1.125083168e-12
1.410339106e-12
1.426776024e-12
1.463105533e-12
1.518827816e-12
1.594458054e-12
4.600787612e-07
5.330894871e-07
3.826787268e-07
2.648201765e-07
2.196109909e-07
2.281814817e-07
2.696889635e-07
2.892813547e-07
2.873611963e-07
2.961974707e-07
3.173759529e-07
3.336791746e-07
3.397459566e-07
3.48196506e-07
3.663425105e-07
4.000827151e-07
4.402515787e-07
4.793905921e-07
5.357123318e-07
5.96102858e-07
6.85191379e-07
8.008558549e-07
9.383874121e-07
1.099714783e-06
1.293333824e-06
1.533346332e-06
1.852651853e-06
2.285827068e-06
2.862390566e-06
3.768900324e-06
5.130870422e-06
6.978187109e-06
9.099476719e-06
1.061178191e-05
1.015075145e-05
7.742189945e-06
4.938533361e-06
2.767198211e-06
1.394868355e-06
6.458872215e-07
2.901710843e-07
1.297359165e-07
5.788946215e-08
2.581530861e-08
1.151384066e-08
5.138851848e-09
2.296568374e-09
1.028531611e-09
4.621145125e-10
2.085627847e-10
9.46837064e-11
4.32939088e-11
1.996006718e-11
9.286498768e-12
4.363602028e-12
2.073573947e-12
9.998883115e-13
4.938787662e-13
2.5609961e-13
1.474284604e-13
1.032176751e-13
9.414455672e-14
1.083320124e-13
1.438388166e-13
2.064800115e-13
3.143568778e-13
4.834375996e-13
7.602881133e-13
1.176050826e-12
1.657990761e-12
1.216773852e-06
1.48424171e-07
1.160703819e-08
8.16596129e-10
7.030908503e-11
1.620952968e-06
9.988254978e-06
7.961883582e-07
5.083688131e-08
3.623160159e-09
1.20297581e-06
5.698671917e-06
5.755093329e-07
4.538729215e-08
5.595420457e-09
7.629565475e-07
3.541179779e-06
2.796675648e-06
1.936458148e-07
1.074693884e-08
6.42360523e-07
3.696768675e-06
1.632548686e-05
1.306324139e-06
8.91488689e-08
6.741893344e-07
3.926039957e-06
1.722150823e-05
1.834047352e-06
1.599217842e-07
7.58790914e-07
3.892863576e-06
1.43911747e-05
1.93939085e-06
2.198083067e-07
7.44516089e-07
3.240161553e-06
9.772972203e-06
1.774450327e-06
2.478492016e-07
6.892244824e-07
2.729438524e-06
7.803436918e-06
9.850672518e-06
1.474367454e-06
6.815450295e-07
2.596199165e-06
7.575795041e-06
1.592207819e-05
2.834343177e-06
7.050641015e-07
2.5723674e-06
7.350083775e-06
1.687135191e-05
3.459666675e-06
7.117659226e-07
2.433084828e-06
6.525074852e-06
1.455407984e-05
3.383620031e-06
6.937200507e-07
2.204088561e-06
5.532981847e-06
1.17605378e-05
6.018014814e-06
6.857101477e-07
2.064811591e-06
5.022871233e-06
1.070718995e-05
1.096122958e-05
7.004582713e-07
2.023852349e-06
4.818832711e-06
1.029409885e-05
1.368118411e-05
7.471135313e-07
2.0431528e-06
4.717166759e-06
9.886703249e-06
1.444621576e-05
7.974944703e-07
2.060418947e-06
4.564628897e-06
9.233946445e-06
1.390035278e-05
8.390168085e-07
2.045274184e-06
4.334227003e-06
8.420903534e-06
1.270993464e-05
9.154125728e-07
2.050742403e-06
4.172471367e-06
7.868197765e-06
1.195194621e-05
9.893067262e-07
2.104466273e-06
4.14755383e-06
7.651561896e-06
1.167529033e-05
1.091545628e-06
2.216734506e-06
4.241669677e-06
7.652660556e-06
1.160592584e-05
1.222450991e-06
2.374066078e-06
4.404672457e-06
7.744674204e-06
1.157286304e-05
1.379823662e-06
2.562153467e-06
4.601515448e-06
7.861033315e-06
1.148948566e-05
1.56420844e-06
2.780532081e-06
4.829494054e-06
7.992739114e-06
1.134492711e-05
1.784286334e-06
3.043621313e-06
5.113040355e-06
8.180842997e-06
1.12018277e-05
2.063039193e-06
3.39375407e-06
5.510014936e-06
8.493558127e-06
1.110763805e-05
2.438516018e-06
3.876664065e-06
6.079726736e-06
8.967498655e-06
1.103225265e-05
2.950656186e-06
4.540510997e-06
6.857136082e-06
9.564519342e-06
1.086471083e-05
3.66055854e-06
5.454270964e-06
7.845837868e-06
1.016179903e-05
1.045976823e-05
4.673030181e-06
6.662269609e-06
8.962858609e-06
1.053946313e-05
9.712454423e-06
6.162587637e-06
8.149711916e-06
9.981602768e-06
1.043159544e-05
8.600565947e-06
8.013568053e-06
9.637421974e-06
1.048621259e-05
9.652224757e-06
7.203106036e-06
9.852643755e-06
1.052338897e-05
1.004412649e-05
8.219795394e-06
5.670390377e-06
1.069423011e-05
1.007208279e-05
8.536285478e-06
6.373733654e-06
4.174249698e-06
9.571690742e-06
8.15716345e-06
6.355242355e-06
4.47535267e-06
2.858387449e-06
6.997629832e-06
5.621388814e-06
4.175757115e-06
2.854691273e-06
1.823786128e-06
4.366211571e-06
3.401618208e-06
2.468856796e-06
1.678102736e-06
1.100304545e-06
2.417747886e-06
1.855269522e-06
1.34070261e-06
9.302796385e-07
6.309390498e-07
1.212577833e-06
9.318896859e-07
6.881797092e-07
4.939087282e-07
3.461604863e-07
5.664563581e-07
4.472557958e-07
3.412958329e-07
2.529536586e-07
1.828875242e-07
2.590332059e-07
2.102759111e-07
1.651218327e-07
1.259603479e-07
9.370507421e-08
1.174351171e-07
9.753521589e-08
7.848590679e-08
6.140470331e-08
4.686464956e-08
5.298298774e-08
4.484349628e-08
3.684144335e-08
2.946381687e-08
2.300369623e-08
2.383998884e-08
2.049771013e-08
1.71400857e-08
1.397189032e-08
1.112992526e-08
1.071215058e-08
9.333876699e-09
7.924429708e-09
6.568339416e-09
5.326443232e-09
4.81127788e-09
4.2406133e-09
3.648264217e-09
3.068788442e-09
2.528498811e-09
2.161949699e-09
1.924776333e-09
1.675415444e-09
1.427926849e-09
1.193503533e-09
9.729163219e-10
8.739677312e-10
7.687599818e-10
6.630003266e-10
5.614012512e-10
4.390141007e-10
3.975557853e-10
3.530310248e-10
3.077560022e-10
2.637025556e-10
1.989095717e-10
1.814490736e-10
1.625264598e-10
1.430828576e-10
1.239412498e-10
9.062134429e-11
8.322124348e-11
7.513492237e-11
6.674603895e-11
5.839826098e-11
4.157038416e-11
3.841056232e-11
3.4931604e-11
3.129074892e-11
2.763191706e-11
1.922223979e-11
1.786171296e-11
1.635355046e-11
1.476269221e-11
1.314978882e-11
8.967730904e-12
8.376965688e-12
7.718207071e-12
7.018589568e-12
6.303969338e-12
4.224812664e-12
3.966569482e-12
3.67729341e-12
3.368548431e-12
3.051605011e-12
2.013010414e-12
1.900098391e-12
1.773399579e-12
1.638036596e-12
1.499158054e-12
9.738540079e-13
9.254629888e-13
8.714638984e-13
8.143228057e-13
7.566428604e-13
4.834638518e-13
4.644728711e-13
4.439166318e-13
4.231989026e-13
4.039142528e-13
2.531122054e-13
2.482715787e-13
2.440743379e-13
2.415564505e-13
2.419913511e-13
1.48396751e-13
1.5126382e-13
1.562480033e-13
1.643441784e-13
1.768418007e-13
1.068231171e-13
1.150094657e-13
1.266122356e-13
1.427686822e-13
1.649871541e-13
1.001482204e-13
1.133367504e-13
1.3141342e-13
1.558023554e-13
1.884052426e-13
1.17162564e-13
1.363581774e-13
1.623714724e-13
1.970693407e-13
2.429450044e-13
1.56545891e-13
1.840343712e-13
2.210816873e-13
2.702098051e-13
3.347781281e-13
2.249572794e-13
2.648265154e-13
3.184110643e-13
3.892712055e-13
4.809948921e-13
3.412805295e-13
3.988005943e-13
4.751425696e-13
5.746102022e-13
7.033570882e-13
5.227515841e-13
6.063523895e-13
7.16621644e-13
8.590809989e-13
1.040587254e-12
8.172831366e-13
9.3719011e-13
1.093061978e-12
1.290811375e-12
1.537320797e-12
1.253928703e-12
1.415581636e-12
1.622437278e-12
1.880156275e-12
2.194982321e-12
1.75484472e-12
1.953765685e-12
2.20507386e-12
2.513590734e-12
2.884327704e-12
4.494939863e-12
2.871003713e-13
3.22705979e-14
6.18203519e-15
1.541083931e-15
4.1262718e-16
1.129469155e-16
3.374706838e-17
1.205366229e-17
5.373952458e-18
2.875350145e-18
1.718548203e-18
1.088921901e-18
7.120972312e-19
4.756872893e-19
3.238769301e-19
2.251578033e-19
1.602848658e-19
1.170931504e-19
8.777920925e-20
6.738725208e-20
5.282647406e-20
4.219568269e-20
3.431855938e-20
2.84461087e-20
2.40753043e-20
2.084894304e-20
1.850310468e-20
1.683530283e-20
1.568118206e-20
1.489622137e-20
1.434324071e-20
1.388871606e-20
1.340893418e-20
1.280267208e-20
1.200530529e-20
1.099874941e-20
9.812550079e-21
8.514223105e-21
7.191028121e-21
5.928756192e-21
4.794371311e-21
3.826933667e-21
3.037481067e-21
2.415301957e-21
1.936807219e-21
1.573751929e-21
1.298766142e-21
1.088156249e-21
9.226084516e-22
7.869115336e-22
6.694735097e-22
5.619052439e-22
4.588054612e-22
3.576321528e-22
2.584978283e-22
1.638772717e-22
8.098340955e-23
2.120333919e-23
1.25531672e-24
1.567916299e-10
6.595258496e-12
4.428384435e-13
4.816257773e-14
8.548177837e-15
2.019757979e-15
5.771409612e-16
2.02808257e-16
8.948376834e-17
4.650252038e-17
2.638643933e-17
1.566652551e-17
9.529508834e-18
5.901485457e-18
3.725455134e-18
2.405605483e-18
1.596072471e-18
1.092633925e-18
7.738291906e-19
5.665708016e-19
4.273832163e-19
3.307493986e-19
2.617699966e-19
2.115856373e-19
1.747531191e-19
1.477260302e-19
1.280567345e-19
1.139786699e-19
1.041671688e-19
9.756270164e-20
9.324391342e-20
9.033713886e-20
8.798514261e-20
8.539061645e-20
8.190133219e-20
7.710155464e-20
7.087623013e-20
6.341935799e-20
5.517340351e-20
4.671261274e-20
3.86046439e-20
3.129576524e-20
2.504964737e-20
1.994509051e-20
1.591699395e-20
1.28151305e-20
1.045773783e-20
8.668430436e-21
7.293917045e-21
6.208679512e-21
5.313814596e-21
4.533892967e-21
3.814171758e-21
3.119455989e-21
2.433748372e-21
1.759804706e-21
1.118111347e-21
5.585511894e-22
1.545108269e-22
1.020737281e-23
2.506188518e-10
9.384203625e-12
5.877735995e-13
8.350941625e-14
2.098577985e-14
6.942270009e-15
2.724128229e-15
1.265275595e-15
6.545089507e-16
3.591394505e-16
2.004648266e-16
1.12353626e-16
6.261644829e-17
3.569132705e-17
2.085276862e-17
1.251480154e-17
7.749376338e-18
4.989820892e-18
3.360614751e-18
2.366312903e-18
1.733157371e-18
1.31151865e-18
1.020104901e-18
8.134781066e-19
6.650819835e-19
5.583124138e-19
4.821261356e-19
4.288269101e-19
3.928353829e-19
3.698108597e-19
3.560291541e-19
3.479670881e-19
3.421330311e-19
3.352149871e-19
3.24436965e-19
3.079618806e-19
2.852015856e-19
2.568823383e-19
2.248100636e-19
1.913776854e-19
1.58983325e-19
1.295442104e-19
1.042322055e-19
8.344939264e-20
6.698876572e-20
5.427405905e-20
4.458350728e-20
3.720461303e-20
3.151230563e-20
2.69913231e-20
2.323259264e-20
1.99207218e-20
1.682592823e-20
1.380172161e-20
1.078572005e-20
7.802160275e-21
4.962085788e-21
2.477977096e-21
6.735698246e-22
4.417586709e-23
6.770047477e-10
2.416624118e-11
1.354833305e-12
1.908048797e-13
6.075996724e-14
2.692512503e-14
1.355739135e-14
7.364895956e-15
4.166723788e-15
2.393324934e-15
1.366021201e-15
7.705398068e-16
4.280044814e-16
2.351117453e-16
1.285771356e-16
7.003835156e-17
3.904805878e-17
2.280975944e-17
1.402995098e-17
9.126871279e-18
6.273851985e-18
4.517302075e-18
3.376938974e-18
2.606897766e-18
2.075255016e-18
1.705168171e-18
1.448812705e-18
1.274759327e-18
1.161482491e-18
1.093220454e-18
1.05710713e-18
1.041332587e-18
1.034356005e-18
1.025124701e-18
1.004071027e-18
9.643564356e-19
9.03074392e-19
8.217742353e-19
7.259240988e-19
6.233193202e-19
5.220487936e-19
4.287663407e-19
3.477456765e-19
2.807041974e-19
2.272806609e-19
1.857999665e-19
1.540280633e-19
1.297037258e-19
1.10816976e-19
9.569503973e-20
8.298939084e-20
7.163758056e-20
6.085329897e-20
5.013827672e-20
3.929737219e-20
2.846662186e-20
1.812351223e-20
9.017077396e-21
2.347019493e-21
1.502534695e-22
5.814252844e-09
1.902324435e-10
7.163659457e-12
5.85210647e-13
1.820297354e-13
9.897165273e-14
5.850912574e-14
3.49333793e-14
2.100528939e-14
1.265078507e-14
7.579503632e-15
4.494987087e-15
2.617418813e-15
1.49039486e-15
8.351488294e-16
4.611830302e-16
2.520249437e-16
1.377978684e-16
7.534862999e-17
4.339820958e-17
2.653216291e-17
1.71481272e-17
1.16890388e-17
8.347605699e-18
6.221803748e-18
4.835947885e-18
3.92420759e-18
3.329644293e-18
2.955239659e-18
2.737268652e-18
2.629548435e-18
2.593853075e-18
2.595206781e-18
2.600847916e-18
2.581755532e-18
2.515560491e-18
2.390020847e-18
2.205337104e-18
1.97361146e-18
1.715003097e-18
1.452127328e-18
1.204785575e-18
9.866339292e-19
8.042109314e-19
6.578261347e-19
5.435998828e-19
4.557029633e-19
3.880277667e-19
3.35084624e-19
2.922505921e-19
2.557520262e-19
2.225683987e-19
1.904199438e-19
1.578478079e-19
1.243220625e-19
9.038069447e-20
5.766984055e-20
2.856522868e-20
7.035130365e-21
4.495515824e-22
1.34102142e-08
7.459862802e-10
3.125932794e-11
2.227258333e-12
5.81355468e-13
3.092024361e-13
1.902202203e-13
1.204373911e-13
7.70664796e-14
4.951531268e-14
3.175738983e-14
2.022320911e-14
1.2727213e-14
7.88199039e-15
4.764793855e-15
2.810674855e-15
1.623988148e-15
9.19028828e-16
5.117064186e-16
2.834940939e-16
1.559745639e-16
8.827946164e-17
5.277145838e-17
3.311689892e-17
2.189620306e-17
1.52565843e-17
1.12178554e-17
8.729492471e-18
7.211955613e-18
6.330794188e-18
5.876975381e-18
5.703682931e-18
5.694309344e-18
5.74864283e-18
5.780630985e-18
5.721995865e-18
5.529068729e-18
5.189275513e-18
4.721282968e-18
4.166669274e-18
3.57771877e-18
3.004943054e-18
2.487316442e-18
2.047445783e-18
1.691565564e-18
1.413210064e-18
1.19906367e-18
1.034133564e-18
9.046430166e-19
7.988897298e-19
7.072287992e-19
6.218838952e-19
5.369665476e-19
4.48744052e-19
3.56057823e-19
2.606715281e-19
1.673157299e-19
8.282270221e-20
1.924288126e-20
1.243179932e-21
1.73908543e-08
2.552099662e-09
1.444614048e-10
1.010080248e-11
1.549114188e-12
6.811285614e-13
4.120208852e-13
2.702933754e-13
1.817549901e-13
1.233074766e-13
8.385918182e-14
5.694736239e-14
3.848975335e-14
2.581555363e-14
1.713077248e-14
1.120709022e-14
7.18155729e-15
4.49043667e-15
2.74262674e-15
1.635015725e-15
9.51782894e-16
5.450651683e-16
3.084537992e-16
1.733450461e-16
1.021704754e-16
6.276001555e-17
4.047337152e-17
2.754849997e-17
1.993787757e-17
1.548947491e-17
1.301278365e-17
1.17969569e-17
1.136538741e-17
1.135716888e-17
1.148235397e-17
1.151702191e-17
1.131381279e-17
1.080941516e-17
1.001786402e-17
9.006198036e-18
7.870400222e-18
6.715402572e-18
5.632614921e-18
4.686426393e-18
3.908184867e-18
3.296478213e-18
2.827495014e-18
2.469039439e-18
2.189483252e-18
1.961082865e-18
1.76043099e-18
1.568413326e-18
1.370561628e-18
1.157998081e-18
9.286313319e-19
6.876045495e-19
4.465820168e-19
2.227717351e-19
4.930292062e-20
3.278451758e-21
2.474009076e-08
5.392013162e-09
5.324898227e-10
3.789793477e-11
4.744795698e-12
1.425371089e-12
7.506233764e-13
4.825512143e-13
3.296588382e-13
2.301948447e-13
1.621598987e-13
1.145871276e-13
8.096351505e-14
5.707282873e-14
4.006266829e-14
2.795210391e-14
1.934104493e-14
1.323630784e-14
8.914239433e-15
5.882098509e-15
3.799916594e-15
2.397790631e-15
1.471387092e-15
8.81009854e-16
5.191207948e-16
2.984818352e-16
1.775148343e-16
1.086615575e-16
6.929556864e-17
4.655640272e-17
3.343731975e-17
2.61120127e-17
2.237682538e-17
2.082285419e-17
2.042728251e-17
2.040910754e-17
2.022276515e-17
1.958377713e-17
1.844183078e-17
1.688379709e-17
1.505089172e-17
1.309895981e-17
1.118323347e-17
9.438774341e-18
7.95971054e-18
6.778899524e-18
5.871684277e-18
5.183719943e-18
4.654466285e-18
4.226850832e-18
3.850027395e-18
3.480738639e-18
3.085320153e-18
2.642925627e-18
2.148671181e-18
1.61413194e-18
1.064413147e-18
5.371541056e-19
1.158413783e-19
7.940537556e-21
1.603847064e-07
1.647204581e-08
2.444416145e-09
2.110508017e-10
1.75830131e-11
3.420708557e-12
1.357040045e-12
7.862978221e-13
5.251088699e-13
3.689976877e-13
2.649055102e-13
1.921306778e-13
1.40040512e-13
1.022648159e-13
7.465978984e-14
5.439974864e-14
3.949817109e-14
2.85303018e-14
2.045900837e-14
1.452421877e-14
1.016020405e-14
6.984810638e-15
4.713804149e-15
3.115573298e-15
2.006765366e-15
1.259174071e-15
7.731380588e-16
4.615344555e-16
2.812111379e-16
1.747689934e-16
1.119018155e-16
7.505958051e-17
5.403099312e-17
4.266301244e-17
3.704349193e-17
3.451471585e-17
3.322800366e-17
3.19906008e-17
3.027213995e-17
2.802121779e-17
2.538738207e-17
2.255466193e-17
1.969283886e-17
1.69674506e-17
1.454248219e-17
1.254345304e-17
1.098769809e-17
9.809211639e-18
8.913791382e-18
8.202641038e-18
7.580325432e-18
6.959453156e-18
6.267626526e-18
5.45680087e-18
4.511686248e-18
3.450305149e-18
2.318408361e-18
1.189370131e-18
2.556804623e-19
1.818698355e-20
3.678530739e-07
4.117087412e-08
7.070012863e-09
8.748994335e-10
7.962659823e-11
1.005153733e-11
2.690158113e-12
1.275994688e-12
7.929526544e-13
5.468481787e-13
3.939196429e-13
2.899848545e-13
2.160588231e-13
1.62067758e-13
1.219771369e-13
9.189473595e-14
6.91776818e-14
5.196012227e-14
3.888494479e-14
2.894547e-14
2.138097238e-14
1.563209711e-14
1.125345738e-14
7.969975786e-15
5.544694648e-15
3.781855913e-15
2.519136338e-15
1.638857928e-15
1.045698588e-15
6.515811266e-16
4.097208519e-16
2.606524693e-16
1.698590884e-16
1.156165712e-16
8.415791124e-17
6.654118027e-17
5.673744643e-17
5.085490287e-17
4.650505467e-17
4.257066375e-17
3.864938321e-17
3.474178354e-17
3.093320337e-17
2.731136232e-17
2.396688632e-17
2.106777106e-17
1.87351118e-17
1.695137181e-17
1.560942916e-17
1.45635359e-17
1.365725765e-17
1.273561558e-17
1.166108694e-17
1.033350859e-17
8.708347693e-18
6.80048906e-18
4.674516163e-18
2.454700223e-18
5.372099089e-19
4.015126947e-20
5.253287273e-07
6.763229561e-08
1.037762905e-08
1.974835597e-09
2.504479581e-10
2.898501525e-11
5.789296483e-12
2.119414278e-12
1.171660854e-12
7.76239447e-13
5.541907925e-13
4.104684147e-13
3.104212075e-13
2.376805933e-13
1.832866139e-13
1.418640966e-13
1.099563168e-13
8.519140717e-14
6.59226883e-14
5.08783726e-14
3.909449782e-14
2.984163464e-14
2.256081941e-14
1.682693962e-14
1.234650854e-14
8.907233209e-15
6.309404445e-15
4.378357247e-15
2.971977304e-15
1.975450379e-15
1.291239036e-15
8.352671318e-16
5.43168668e-16
3.557995021e-16
2.373732996e-16
1.640645456e-16
1.192860702e-16
9.190189329e-17
7.487858137e-17
6.378217182e-17
5.586038445e-17
4.96067385e-17
4.435009193e-17
3.979395574e-17
3.578439303e-17
3.225623366e-17
2.928511276e-17
2.695066147e-17
2.52072824e-17
2.388675625e-17
2.276255506e-17
2.158105343e-17
2.010273139e-17
1.814288808e-17
1.560094376e-17
1.246529492e-17
8.799403303e-18
4.768201255e-18
1.084644895e-18
8.605453146e-20
5.883497458e-07
8.742600534e-08
1.262182374e-08
3.499422601e-09
6.509444202e-10
9.594506408e-11
1.574437204e-11
4.178194011e-12
1.810416742e-12
1.08398469e-12
7.490033511e-13
5.517562893e-13
4.204611532e-13
3.267234666e-13
2.567471706e-13
2.032131476e-13
1.615319946e-13
1.286386395e-13
1.024648997e-13
8.152341063e-14
6.468059202e-14
5.107560379e-14
4.004828831e-14
3.10883482e-14
2.380122784e-14
1.792537702e-14
1.327737819e-14
9.660261128e-15
6.889544069e-15
4.807572562e-15
3.288912466e-15
2.213085157e-15
1.469787192e-15
9.771951305e-16
6.489417144e-16
4.319355755e-16
2.906954793e-16
2.002838766e-16
1.43219655e-16
1.073516723e-16
8.488695682e-17
7.056573611e-17
6.102752349e-17
5.429324348e-17
4.927562682e-17
4.535360038e-17
4.2186637e-17
3.966377464e-17
3.776949562e-17
3.641173136e-17
3.53219907e-17
3.410406743e-17
3.235687235e-17
2.976031648e-17
2.612152314e-17
2.137537685e-17
1.554594181e-17
8.767187962e-18
2.120658968e-18
1.804803347e-19
1.123610323e-06
1.816321296e-07
2.785332558e-08
6.155006593e-09
1.358216729e-09
2.589299879e-10
4.549696919e-11
9.940625205e-12
3.155669871e-12
1.529615124e-12
9.698092627e-13
6.945902552e-13
5.266109083e-13
4.129198694e-13
3.28777126e-13
2.660547785e-13
2.167260554e-13
1.771652962e-13
1.450224494e-13
1.186758013e-13
9.693071971e-14
7.88788101e-14
6.381546015e-14
5.11928181e-14
4.058965736e-14
3.168555658e-14
2.434629919e-14
1.839557141e-14
1.364295466e-14
9.907327121e-15
7.046752072e-15
4.917284599e-15
3.372698097e-15
2.290999383e-15
1.548934898e-15
1.038872918e-15
6.921347686e-16
4.603167479e-16
3.08242245e-16
2.106669266e-16
1.492314717e-16
1.113271927e-16
8.816138043e-17
7.399048934e-17
6.532248493e-17
5.992187131e-17
5.647355555e-17
5.427209766e-17
5.285847568e-17
5.198236417e-17
5.135399487e-17
5.05115181e-17
4.884457216e-17
4.580709942e-17
4.104759019e-17
3.440832112e-17
2.583077388e-17
1.529500062e-17
4.052312624e-18
3.741060463e-19
2.234157187e-06
3.948877032e-07
6.537997306e-08
1.136286814e-08
2.799362136e-09
5.815184101e-10
1.221349725e-10
2.560147609e-11
6.617898539e-12
2.367372123e-12
1.227615112e-12
8.060981233e-13
5.95354632e-13
4.671432824e-13
3.760720003e-13
3.102890089e-13
2.585550265e-13
2.167650514e-13
1.823061645e-13
1.53460586e-13
1.290356784e-13
1.081622511e-13
9.018817015e-14
7.461552338e-14
6.105421373e-14
4.928926285e-14
3.92173425e-14
3.069209465e-14
2.357193509e-14
1.77225345e-14
1.304507086e-14
9.407147487e-15
6.656763191e-15
4.642804684e-15
3.210881372e-15
2.194050511e-15
1.480840321e-15
9.893141952e-16
6.568712871e-16
4.362783646e-16
2.926825793e-16
2.010202663e-16
1.440049624e-16
1.09533238e-16
8.943815432e-17
7.819834956e-17
7.231303431e-17
6.969526158e-17
6.905898927e-17
6.948623457e-17
7.021850288e-17
7.049177327e-17
6.951080173e-17
6.648989486e-17
6.083631341e-17
5.221582257e-17
4.044943153e-17
2.530362864e-17
7.641215867e-18
7.70904094e-19
3.116801702e-06
6.161894503e-07
1.14296586e-07
2.022796461e-08
5.059467729e-09
1.198446741e-09
2.714784498e-10
6.541252621e-11
1.609084376e-11
4.642189683e-12
1.760864134e-12
9.216617227e-13
6.121227453e-13
4.656354731e-13
3.769871707e-13
3.15668937e-13
2.692604337e-13
2.320307802e-13
2.009604109e-13
1.743125383e-13
1.510154677e-13
1.303580236e-13
1.118415725e-13
9.518901268e-14
8.028041634e-14
6.696731098e-14
5.512618187e-14
4.465259112e-14
3.550494901e-14
2.765976165e-14
2.108740982e-14
1.571782947e-14
1.14614754e-14
8.231353845e-15
5.816726936e-15