/*--------------------------------*- C++ -*----------------------------------*\
  =========                 |
  \\      /  F ield         | OpenFOAM: The Open Source CFD Toolbox
   \\    /   O peration     | Website:  https://openfoam.org
    \\  /    A nd           | Version:  10
     \\/     M anipulation  |
\*---------------------------------------------------------------------------*/
FoamFile
{
    format      ascii;
    class       volScalarField;
    location    "3000";
    object      C2H6;
}
// * * * * * * * * * * * * * * * * * * * * * * * * * * * * * * * * * * * * * //

dimensions      [0 0 0 0 0 0 0];

internalField   nonuniform List<scalar> 
5170
(
1.199576928e-59
9.685948588e-60
6.015496926e-60
2.969269301e-60
2.354139745e-60
4.071588755e-57
3.252974191e-57
1.987739776e-57
1.148549296e-57
2.027751109e-57
1.396678274e-54
1.107595397e-54
6.740744626e-55
5.298703775e-55
1.596346584e-54
4.885780665e-52
3.870338696e-52
2.430840711e-52
2.724166266e-52
1.152247346e-51
1.742208506e-49
1.391941023e-49
9.370496484e-50
1.483584381e-49
7.75515479e-49
6.359071553e-47
5.188536988e-47
3.831156808e-47
8.31984299e-47
4.929382446e-46
2.373179359e-44
1.994664386e-44
1.681877477e-44
4.74774569e-44
3.025239338e-43
9.041867752e-42
7.916703164e-42
7.953306552e-42
2.745041683e-41
1.814778802e-40
3.526286918e-39
3.281166261e-39
3.957095312e-39
1.604125937e-38
1.070149247e-37
1.409877588e-36
1.418906087e-36
2.047958441e-36
9.490135515e-36
6.22775244e-35
5.765773066e-34
6.37829764e-34
1.095714114e-33
5.67304383e-33
3.587023055e-32
2.400987675e-31
2.970179558e-31
6.063307783e-31
3.420973609e-30
2.049394968e-29
1.013927519e-28
1.423351473e-28
3.479956053e-28
2.093830141e-27
1.163372707e-26
4.307858082e-26
6.956612822e-26
2.051721135e-25
1.301759761e-24
6.573660397e-24
1.833201034e-23
3.438561113e-23
1.225052986e-22
8.184789541e-22
3.703065805e-21
7.690863119e-21
1.692047995e-20
7.260458891e-20
5.038200442e-19
2.082652392e-18
3.165683114e-18
8.270266593e-18
4.164799758e-17
3.00663075e-16
1.172689459e-15
1.250457044e-15
3.941469835e-15
2.312956803e-14
1.707835494e-13
6.609033083e-13
4.542187542e-13
1.793650117e-12
1.209020621e-11
9.046399297e-11
3.742771127e-10
1.414452092e-10
7.902313852e-10
6.158955682e-09
4.391162136e-08
2.155796669e-07
7.515728495e-34
1.686649831e-33
4.66417804e-33
2.199866702e-32
3.569110671e-32
1.190215751e-33
1.908792866e-33
4.326028436e-33
1.386450789e-32
2.20148413e-32
1.003802731e-33
1.470343419e-33
3.31598184e-33
8.078777114e-33
1.148060248e-32
6.601947859e-34
1.096600905e-33
2.440631865e-33
4.725311849e-33
5.982932453e-33
4.266604928e-34
8.18553525e-34
1.720462637e-33
2.627103334e-33
2.866718904e-33
3.002196491e-34
6.15501146e-34
1.170806759e-33
1.349403996e-33
1.254703484e-33
2.966524364e-34
4.734074086e-34
7.682617123e-34
6.246209532e-34
5.023306823e-34
1.344625451e-32
3.93579314e-33
1.225404115e-33
3.684247339e-34
2.349470304e-34
2.159756146e-30
5.652710978e-31
1.112734233e-31
1.43845832e-32
4.87296785e-33
3.513465073e-28
8.915567763e-29
1.676898794e-29
2.059436107e-30
6.358553149e-31
5.759768794e-26
1.429865353e-26
2.593402414e-27
3.079422725e-28
8.76780335e-29
9.522332437e-24
2.323944887e-24
4.086207844e-25
4.731550157e-26
1.244426253e-26
1.58978635e-21
3.821436832e-22
6.513064399e-23
7.363133626e-24
1.785264924e-24
2.67746862e-19
6.322153053e-20
1.042075712e-20
1.146432751e-21
2.553904189e-22
4.558296523e-17
1.049872192e-17
1.659053608e-18
1.761243381e-19
3.591958921e-20
7.828193349e-15
1.733899139e-15
2.593448276e-16
2.629090457e-17
4.871744926e-18
1.35968729e-12
2.827065175e-13
3.902249542e-14
3.724144356e-15
6.192135994e-16
2.400057829e-10
4.47903766e-11
5.514744241e-12
4.87136346e-13
7.261953914e-14
4.440660953e-08
6.767977457e-09
7.058674246e-10
5.666448369e-11
7.473066859e-12
9.020739762e-06
9.186431606e-07
7.577952164e-08
5.40708323e-09
6.048154481e-10
5.328906487e-09
4.123976754e-08
6.345051992e-07
9.546796265e-06
0.0001274078837
3.050194098e-08
2.067519817e-07
2.546498689e-06
2.750676873e-05
0.0002163049617
1.055533122e-07
6.383478731e-07
6.523301837e-06
5.422411366e-05
0.0002925849717
2.937311812e-07
1.615711307e-06
1.396536388e-05
9.083100559e-05
0.0003581006649
7.026286717e-07
3.53023111e-06
2.575420034e-05
0.000132822223
0.0004115621817
1.525071918e-06
6.972528544e-06
4.305602034e-05
0.0001801063312
0.0004631646947
3.18466308e-06
1.336313154e-05
6.948256298e-05
0.0002352095052
0.0005188497109
6.427750798e-06
2.47786561e-05
0.0001059564064
0.000293500435
0.0005736886613
1.242156326e-05
4.313124521e-05
0.0001498480382
0.0003493248535
0.0006215505959
2.277912589e-05
6.950014074e-05
0.0001979247923
0.0004017566626
0.0006637615533
4.03721589e-05
0.0001038499707
0.0002468595262
0.0004511776281
0.0007033349844
6.649934739e-05
0.0001437380797
0.0002952843727
0.0004982322258
0.0007408932145
0.0001024126464
0.0001888721437
0.0003442001247
0.0005436321009
0.0007758065102
0.0001503606942
0.0002405389991
0.00039538406
0.000588887546
0.0008095108786
0.0002135251555
0.0003011262201
0.0004510558795
0.0006362026356
0.0008447025824
0.000293666051
0.0003736434032
0.0005142674389
0.0006888675177
0.0008851701543
0.0003910110697
0.0004607976584
0.0005888109493
0.000750884369
0.000934440819
0.0005024102827
0.0005620219056
0.0006760882159
0.0008240883507
0.0009931568911
0.0006243548823
0.0006747892516
0.0007745176676
0.0009068419677
0.001059315462
0.0007516210832
0.0007941705293
0.0008801774902
0.0009963276264
0.001131277134
0.0008795087921
0.0009152724704
0.000988673477
0.00108918171
0.001206873401
0.001003930831
0.001033946598
0.001096165735
0.001182161563
0.001283417471
0.001122706647
0.00114777185
0.001200055962
0.001272796048
0.001358684978
0.001234528097
0.001255286558
0.001298749545
0.001359316259
0.001430827416
0.001338681258
0.001355631705
0.001391070881
0.001440357095
0.001497846324
0.001435562183
0.001449089949
0.001477222093
0.001515700435
0.001559703579
0.001525492434
0.00153584818
0.001557154984
0.001585550111
0.001616239328
0.001606018334
0.00161305271
0.001627047465
0.001644208727
0.001659854686
0.001672668503
0.001676275023
0.001682849746
0.001688301167
0.00168702795
0.001716891306
0.001716334778
0.00171316556
0.001703880566
0.001682820602
0.001722540174
0.001716554825
0.001701812352
0.001674597804
0.00162882725
0.001666930412
0.001654409057
0.001625087967
0.001576287102
0.001504054657
0.001515911038
0.001496527886
0.001452842702
0.001382697443
0.001286695144
0.001227338051
0.00120360995
0.001151295853
0.001073346334
0.0009723544377
0.0008338498504
0.0008130233469
0.0007687266304
0.0007052451636
0.0006271147211
0.0004756812373
0.0004629190824
0.0004360114546
0.000398075752
0.0003523918714
0.000242469033
0.0002360719113
0.0002226092555
0.0002036868483
0.0001809839827
0.0001156651918
0.0001127669025
0.0001066612507
9.806347886e-05
8.772175467e-05
5.274760179e-05
5.151264338e-05
4.890713437e-05
4.522867013e-05
4.078662883e-05
2.32766286e-05
2.277849235e-05
2.172625912e-05
2.023723527e-05
1.843241639e-05
1.012799987e-05
9.936546264e-06
9.530492233e-06
8.951367606e-06
8.240997536e-06
4.413492907e-06
4.339243572e-06
4.181075807e-06
3.953747266e-06
3.671976466e-06
1.927952868e-06
1.898762648e-06
1.836381315e-06
1.746196389e-06
1.633501063e-06
8.442452719e-07
8.326333197e-07
8.077581796e-07
7.716327309e-07
7.262001756e-07
3.705126273e-07
3.658499539e-07
3.558425273e-07
3.412558776e-07
3.228154286e-07
1.629543521e-07
1.610680972e-07
1.570133556e-07
1.51085421e-07
1.435587663e-07
7.183719957e-08
7.106966975e-08
6.941751098e-08
6.699575404e-08
6.390926798e-08
3.176330157e-08
3.14493469e-08
3.077270189e-08
2.977855283e-08
2.850728718e-08
1.41002367e-08
1.397115016e-08
1.369261437e-08
1.328249696e-08
1.275644692e-08
6.292434343e-09
6.239044976e-09
6.12371512e-09
5.953559692e-09
5.734680188e-09
2.826974802e-09
2.804741402e-09
2.756661549e-09
2.685588934e-09
2.593917851e-09
1.280397057e-09
1.271065022e-09
1.250863389e-09
1.220947057e-09
1.182263545e-09
5.853904377e-10
5.814419752e-10
5.728863741e-10
5.601959081e-10
5.437498086e-10
2.705374052e-10
2.688570258e-10
2.652132497e-10
2.598018157e-10
2.527773815e-10
1.266748652e-10
1.259621953e-10
1.244165262e-10
1.221204117e-10
1.191392043e-10
6.043153067e-11
6.013954406e-11
5.950714118e-11
5.857007553e-11
5.735818661e-11
2.981295272e-11
2.971019573e-11
2.948932197e-11
2.916653874e-11
2.875785272e-11
1.578217746e-11
1.577103285e-11
1.574998992e-11
1.572705865e-11
1.571339527e-11
9.655814852e-12
9.696641692e-12
9.789550992e-12
9.939158373e-12
1.015572783e-11
7.478180635e-12
7.557496244e-12
7.735355273e-12
8.015052336e-12
8.407963834e-12
7.496514359e-12
7.613911014e-12
7.876247179e-12
8.286416702e-12
8.858244325e-12
9.034963758e-12
9.198376037e-12
9.563037537e-12
1.013187416e-11
1.092243459e-11
1.200252059e-11
1.222737839e-11
1.272877543e-11
1.350988468e-11
1.45935255e-11
1.673682293e-11
1.704810117e-11
1.774182204e-11
1.882151582e-11
2.031741876e-11
2.401324706e-11
2.444996789e-11
2.542279498e-11
2.693564865e-11
2.90293244e-11
3.548804266e-11
3.611757603e-11
3.751957337e-11
3.969896767e-11
4.271349919e-11
5.405346783e-11
5.494263397e-11
5.691946385e-11
5.998308494e-11
6.420233876e-11
8.20972473e-11
8.335917562e-11
8.61622395e-11
9.0499511e-11
9.645987966e-11
1.231114154e-10
1.248742497e-10
1.287857746e-10
1.348269347e-10
1.43107153e-10
1.747698144e-10
1.771097452e-10
1.822969805e-10
1.902951228e-10
2.012320923e-10
0.0004393083015
0.0005528693722
0.0006261788805
0.0006639994267
0.000685614762
0.000715996455
0.0007607526496
0.0008025949396
0.0008343023842
0.0008616741019
0.0008900951477
0.0009177699114
0.0009419768965
0.0009650010761
0.0009905416131
0.001022456985
0.001063049065
0.001111504423
0.001165655517
0.001225254174
0.001288842291
0.001353942482
0.001418475981
0.001480036233
0.001536567654
0.001588038861
0.001633594825
0.001664496241
0.00167644306
0.00165595274
0.00158195565
0.001437554338
0.001205622323
0.0008934895946
0.0005696370358
0.0003195557164
0.0001647109087
8.027950287e-05
3.757474419e-05
1.711919609e-05
7.715817165e-06
3.4609982e-06
1.548264156e-06
6.915586447e-07
3.086615036e-07
1.377494871e-07
6.151550683e-08
2.751709879e-08
1.234509188e-08
5.562896433e-09
2.521724154e-09
1.151702242e-09
5.30720464e-10
2.472011531e-10
1.167724769e-10
5.64015679e-11
2.844503485e-11
1.572036189e-11
1.035222313e-11
8.75255106e-12
9.355236911e-12
1.160693987e-11
1.552973307e-11
2.160768166e-11
3.083262773e-11
4.530832916e-11
6.781371957e-11
1.015476789e-10
1.501515918e-10
2.105091309e-10
0.001020650243
0.0001013521578
6.606204774e-06
4.048157097e-07
3.054674052e-08
0.001160056511
0.001599969869
0.0001290421441
8.177279801e-06
4.840376727e-07
0.001236630826
0.002062525421
0.0001921720328
1.420594666e-05
8.31503861e-07
0.001203331111
0.001786192649
0.000186741746
1.463025457e-05
9.519936515e-07
0.00115163497
0.001595726521
0.0005294048979
4.267747415e-05
2.930234407e-06
0.00113963855
0.001605273551
0.001162147938
0.0001201882656
1.026296574e-05
0.001162007645
0.001677190183
0.001564804209
0.000204018962
2.262939833e-05
0.001174196954
0.001652459755
0.001623035564
0.0002517813082
3.365854702e-05
0.001171696195
0.001590906043
0.00159111392
0.0003681057873
5.714025322e-05
0.001170659611
0.001556179544
0.001616727401
0.0006474906713
0.0001154873818
0.001179140264
0.001552725663
0.001674429556
0.0009288693536
0.0001873922773
0.001189283271
0.001544060202
0.001686665456
0.00113903944
0.0002553355331
0.001194669592
0.001520591037
0.001661845495
0.001270254159
0.0003306475915
0.001199671837
0.001501057049
0.001647884903
0.001369334294
0.0004638400726
0.001209895867
0.001495236298
0.001652984323
0.001453181918
0.0006200336417
0.001228847828
0.001501288476
0.001663463841
0.001511594241
0.0007622232266
0.001255969327
0.001510661316
0.001662316275
0.001531958043
0.0008721965722
0.001287956096
0.001516916872
0.001645378672
0.001520984926
0.0009469674909
0.001322868381
0.001523558085
0.001627650094
0.001506742594
0.0009982958142
0.001363104465
0.001536432217
0.001619340234
0.001499929416
0.001036025517
0.001408337789
0.001556786125
0.001620671189
0.001498388388
0.00106311023
0.001456120686
0.001581704793
0.00162654177
0.001496559045
0.001079201986
0.001504446057
0.001606885733
0.00163030356
0.001487175789
0.001081064928
0.001550206671
0.001627684868
0.001625730751
0.001463879771
0.001064979239
0.001590822485
0.001641108731
0.001609945863
0.001424732066
0.001029167728
0.001626500193
0.001649333089
0.001582722054
0.001368405258
0.0009719876491
0.001654904956
0.001642770942
0.001537518609
0.001289779156
0.0008918247059
0.001665969715
0.001613498683
0.001466190446
0.001183804518
0.0007906046728
0.00165471051
0.001557639901
0.001362670616
0.001049289005
0.0006747246793
0.001609236603
0.001462051673
0.001220069208
0.0008902972642
0.0005535440729
0.001504856072
0.001311397871
0.001036078398
0.0007172118661
0.0004357737954
0.001332037576
0.001102007435
0.0008219666211
0.0005456147282
0.0003283585737
0.001081267641
0.0008463547188
0.0006016842324
0.000390093479
0.0002356924166
0.0007762585341
0.0005823455034
0.0004034408729
0.0002607116151
0.0001600682502
0.0004860488964
0.0003587248535
0.000248152827
0.0001625447777
0.0001023511292
0.0002721969843
0.0002019319786
0.0001417379041
9.505687757e-05
6.174350022e-05
0.0001412756171
0.0001064270086
7.635904783e-05
5.270267656e-05
3.540869713e-05
6.955422469e-05
5.342934551e-05
3.933410283e-05
2.80213813e-05
1.945195289e-05
3.294126355e-05
2.588965825e-05
1.96148602e-05
1.440965465e-05
1.031187548e-05
1.522032282e-05
1.226676581e-05
9.549974833e-06
7.213603241e-06
5.30827951e-06
6.952139295e-06
5.727581851e-06
4.566155538e-06
3.535524628e-06
2.668180788e-06
3.152913989e-06
2.64659155e-06
2.153800912e-06
1.70450386e-06
1.31579204e-06
1.423364713e-06
1.213954145e-06
1.005680122e-06
8.113390025e-07
6.391058648e-07
6.406548248e-07
5.538970511e-07
4.660296048e-07
3.824017864e-07
3.067198074e-07
2.878151592e-07
2.517955864e-07
2.147499554e-07
1.788864131e-07
1.458315299e-07
1.291768923e-07
1.141903661e-07
9.857149828e-08
8.322493582e-08
6.885000406e-08
5.797720788e-08
5.172815528e-08
4.513930893e-08
3.857965633e-08
3.234589607e-08
2.605128983e-08
2.343894028e-08
2.065581686e-08
1.785203789e-08
1.515237864e-08
1.173531354e-08
1.063965481e-08
9.461338109e-09
8.261393696e-09
7.092008883e-09
5.307921198e-09
4.846362055e-09
4.345695548e-09
3.830755574e-09
3.323326988e-09
2.414436687e-09
2.218906799e-09
2.005136561e-09
1.783267243e-09
1.562408658e-09
1.106232527e-09
1.022862929e-09
9.310742273e-10
8.350381894e-10
7.385885058e-10
5.113154408e-10
4.755554997e-10
4.359568175e-10
3.942601539e-10
3.521052125e-10
2.388904852e-10
2.235255268e-10
2.064555854e-10
1.884295557e-10
1.701760154e-10
1.132455933e-10
1.067318111e-10
9.951704598e-11
9.194647886e-11
8.437323284e-11
5.497975721e-11
5.239052792e-11
4.958809711e-11
4.675660824e-11
4.40995806e-11
2.798654157e-11
2.72135442e-11
2.648386423e-11
2.592272047e-11
2.56813998e-11
1.574232013e-11
1.589337251e-11
1.624675022e-11
1.691378198e-11
1.803800886e-11
1.066089612e-11
1.138178798e-11
1.243188933e-11
1.393105214e-11
1.603863165e-11
9.287057931e-12
1.047366828e-11
1.211893484e-11
1.436512384e-11
1.740320275e-11
1.01234593e-11
1.180413494e-11
1.409859073e-11
1.718354291e-11
2.129637287e-11
1.266342181e-11
1.496001404e-11
1.807309951e-11
2.222783704e-11
2.772600359e-11
1.697342313e-11
2.009972527e-11
2.431882441e-11
2.99227618e-11
3.730172571e-11
2.359600921e-11
2.788924963e-11
3.366335057e-11
4.130354418e-11
5.132276205e-11
3.36099779e-11
3.959156765e-11
4.761234284e-11
5.819084221e-11
7.201721787e-11
4.930206678e-11
5.785665843e-11
6.921477732e-11
8.398015701e-11
1.029495822e-10
7.336138047e-11
8.516769076e-11
1.007630254e-10
1.209651136e-10
1.468235867e-10
1.093544231e-10
1.258846498e-10
1.475812732e-10
1.7547378e-10
2.108571342e-10
1.609468029e-10
1.836635996e-10
2.132616365e-10
2.5098672e-10
2.983805307e-10
2.2470881e-10
2.544238336e-10
2.928795244e-10
3.415115223e-10
4.020716968e-10
2.920578402e-09
3.765192624e-10
7.14415065e-11
2.895957298e-11
2.007427573e-11
1.556432551e-11
1.187298267e-11
8.790315261e-12
6.332514994e-12
4.474752573e-12
3.11558772e-12
2.14363514e-12
1.459006048e-12
9.823658043e-13
6.542354612e-13
4.308816446e-13
2.807210665e-13
1.810312156e-13
1.156938761e-13
7.340221122e-14
4.635538042e-14
2.925127889e-14
1.854242453e-14
1.189140437e-14
7.78103364e-15
5.239314978e-15
3.652120717e-15
2.638254479e-15
1.966286623e-15
1.499460653e-15
1.15933079e-15
9.019217043e-16
7.025315901e-16
5.465366649e-16
4.242313481e-16
3.283023627e-16
2.528684039e-16
1.932602597e-16
1.459758308e-16
1.085327642e-16
7.918512936e-17
5.661006028e-17
3.967292779e-17
2.73153254e-17
1.854367476e-17
1.246729822e-17
8.339267024e-18
5.573206262e-18
3.734772063e-18
2.516478719e-18
1.707699626e-18
1.16737962e-18
8.022717222e-19
5.511600038e-19
3.740002478e-19
2.447046638e-19
1.465582408e-19
7.187014255e-20
2.050937357e-20
1.99907596e-21
5.50607817e-08
5.843582864e-09
1.037552057e-09
4.740392448e-10
3.321875905e-10
2.490312247e-10
1.79881594e-10
1.266294211e-10
8.600813825e-11
5.713836535e-11
3.709653792e-11
2.371189596e-11
1.496391582e-11
9.360470512e-12
5.818616283e-12
3.600981696e-12
2.221768202e-12
1.367802599e-12
8.41033778e-13
5.170273706e-13
3.183283961e-13
1.968721386e-13
1.228753758e-13
7.789346114e-14
5.055253632e-14
3.385620961e-14
2.352380837e-14
1.696285082e-14
1.262972733e-14
9.625350743e-15
7.439607614e-15
5.788276938e-15
4.511558154e-15
3.514495286e-15
2.733832303e-15
2.121786392e-15
1.639972094e-15
1.258127351e-15
9.538757941e-16
7.116930514e-16
5.209006207e-16
3.734789981e-16
2.624637393e-16
1.81213437e-16
1.233803474e-16
8.321013485e-17
5.58416203e-17
3.744523332e-17
2.517602584e-17
1.701514732e-17
1.157735815e-17
7.932228279e-18
5.461722633e-18
3.757969501e-18
2.553055293e-18
1.672606871e-18
1.0064197e-18
5.03197792e-19
1.599460248e-19
2.143547304e-20
1.27710811e-07
1.574805234e-08
3.882882737e-09
2.41303013e-09
1.824700419e-09
1.404261996e-09
1.03810896e-09
7.490508656e-10
5.2072731e-10
3.530865443e-10
2.321213875e-10
1.490492764e-10
9.34283972e-11
5.743751486e-11
3.471849205e-11
2.072279559e-11
1.226553554e-11
7.229677598e-12
4.261284797e-12
2.519794925e-12
1.499224472e-12
9.002961528e-13
5.480684016e-13
3.40237503e-13
2.169714735e-13
1.431784219e-13
9.823988585e-14
7.008471906e-14
5.171849567e-14
3.914283745e-14
3.01092946e-14
2.336676196e-14
1.820838551e-14
1.421208193e-14
1.109878187e-14
8.661889315e-15
6.739494775e-15
5.207260228e-15
3.976136801e-15
2.986681669e-15
2.199658142e-15
1.586158569e-15
1.120597763e-15
7.775973434e-16
5.320421511e-16
3.605900129e-16
2.431947307e-16
1.638838191e-16
1.107091285e-16
7.514978672e-17
5.133111355e-17
3.528478792e-17
2.435977464e-17
1.679496058e-17
1.14260807e-17
7.494470363e-18
4.527861153e-18
2.290363631e-18
7.654281606e-19
1.17524482e-19
1.748260998e-07
4.041325965e-08
1.227501152e-08
7.797947253e-09
6.099573024e-09
4.82608059e-09
3.710447182e-09
2.769712256e-09
2.003685085e-09
1.410493151e-09
9.646780301e-10
6.429097642e-10
4.172320308e-10
2.643305591e-10
1.635192153e-10
9.905007914e-11
5.886425303e-11
3.446396553e-11
1.99626978e-11
1.150306571e-11
6.630967178e-12
3.846693259e-12
2.259900902e-12
1.354381993e-12
8.346980263e-13
5.330132209e-13
3.545125108e-13
2.457861826e-13
1.768939768e-13
1.311557246e-13
9.932802585e-14
7.628166105e-14
5.911549877e-14
4.610144253e-14
3.612008207e-14
2.837468095e-14
2.227134794e-14
1.7377707e-14
1.34023695e-14
1.016472831e-14
7.55464911e-15
5.494303556e-15
3.913082833e-15
2.73633678e-15
1.886225894e-15
1.287644449e-15
8.744665601e-16
5.931138759e-16
4.030209408e-16
2.749864936e-16
1.886748379e-16
1.301940173e-16
9.016878207e-17
6.23225536e-17
4.247603289e-17
2.790290575e-17
1.692866873e-17
8.657949284e-18
3.006339552e-18
5.223745987e-19
3.322257818e-07
9.507231889e-08
2.915979585e-08
1.709172488e-08
1.359544967e-08
1.119851373e-08
9.045554395e-09
7.09593896e-09
5.413404051e-09
4.024554783e-09
2.916527055e-09
2.062376114e-09
1.422275751e-09
9.573446253e-10
6.283987699e-10
4.026474954e-10
2.517410846e-10
1.538535031e-10
9.199839964e-11
5.40144485e-11
3.124682358e-11
1.792107396e-11
1.026022576e-11
5.91756112e-12
3.47301179e-12
2.096309094e-12
1.312928596e-12
8.576262876e-13
5.843246315e-13
4.133724228e-13
3.015073858e-13
2.251261896e-13
1.711313886e-13
1.31965437e-13
1.029744877e-13
8.105752274e-14
6.404536869e-14
5.045054821e-14
3.933454633e-14
3.016578907e-14
2.266218109e-14
1.665038932e-14
1.197320379e-14
8.450407297e-15
5.878191396e-15
4.048826319e-15
2.773319288e-15
1.895743704e-15
1.296780456e-15
8.895648526e-16
6.128528351e-16
4.241963922e-16
2.94481855e-16
2.039247384e-16
1.39214218e-16
9.163295481e-17
5.584855954e-17
2.89104597e-17
1.041170773e-17
2.080934616e-18
6.539688895e-07
1.811542249e-07
6.214229549e-08
3.084655954e-08
2.362353826e-08
1.990831781e-08
1.677512826e-08
1.382207213e-08
1.112650728e-08
8.761592011e-09
6.753564624e-09
5.096948386e-09
3.76521087e-09
2.722104308e-09
1.924107866e-09
1.329077975e-09
8.961652412e-10
5.896496996e-10
3.781693346e-10
2.365667695e-10
1.443793631e-10
8.620709725e-11
5.049326389e-11
2.917919268e-11
1.675502123e-11
9.661867269e-12
5.661095232e-12
3.410943878e-12
2.132775705e-12
1.390164163e-12
9.439704155e-13
6.650231866e-13
4.835703702e-13
3.613083285e-13
2.763684584e-13
2.154527927e-13
1.700160232e-13
1.345776925e-13
1.058548244e-13
8.206809004e-14
6.235967747e-14
4.631716156e-14
3.363569344e-14
2.395050314e-14
1.680125844e-14
1.167204169e-14
8.065501607e-15
5.560754973e-15
3.833260161e-15
2.646152525e-15
1.831442346e-15
1.271477637e-15
8.842946349e-16
6.131509832e-16
4.1926424e-16
2.76863373e-16
1.699306305e-16
8.94587264e-17
3.362602383e-17
7.833003056e-18
1.734749748e-06
2.864915343e-07
1.096765081e-07
5.179533402e-08
3.596490625e-08
2.997337013e-08
2.581821174e-08
2.203459899e-08
1.848174192e-08
1.522504783e-08
1.232519751e-08
9.810882889e-09
7.680831143e-09
5.913773829e-09
4.476033872e-09
3.327581201e-09
2.426331712e-09
1.732432134e-09
1.208818757e-09
8.231037094e-10
5.460770857e-10
3.52799514e-10
2.21824198e-10
1.358764169e-10
8.123614172e-11
4.764020514e-11
2.758146824e-11
1.59177579e-11
9.265585483e-12
5.512254894e-12
3.390637537e-12
2.172992607e-12
1.455047383e-12
1.016893107e-12
7.394174543e-13
5.567533e-13
4.305581418e-13
3.379789163e-13
2.660037352e-13
2.07621381e-13
1.593641976e-13
1.197137296e-13
8.786947176e-14
6.312222817e-14
4.459208208e-14
3.117250526e-14
2.167804059e-14
1.504745914e-14
1.044426321e-14
7.255846173e-15
5.048469905e-15
3.518482168e-15
2.453314375e-15
1.704228943e-15
1.168207685e-15
7.755293731e-16
4.813197396e-16
2.595452782e-16
1.030984952e-16
2.812720195e-17
3.189684149e-06
3.609661528e-07
1.352727426e-07
7.342835192e-08
5.045168039e-08
4.114973451e-08
3.551055731e-08
3.093136047e-08
2.667651961e-08
2.268046738e-08
1.900054052e-08
1.569098077e-08
1.278023613e-08
1.027099679e-08
8.146133023e-09
6.375420604e-09
4.921245833e-09
3.74385427e-09
2.8030986e-09
2.061481541e-09
1.485540517e-09
1.046109512e-09
7.177872954e-10
4.788343699e-10
3.101588928e-10
1.95077157e-10
1.19261213e-10
7.108552469e-11
4.153333608e-11
2.400309357e-11
1.388418327e-11
8.155682072e-12
4.938943592e-12
3.12242672e-12
2.074971054e-12
1.451057911e-12
1.062723375e-12
8.052191359e-13
6.215969219e-13
4.821246372e-13
3.713946349e-13
2.816336506e-13
2.091306354e-13
1.518490296e-13
1.081423106e-13
7.602223991e-14
5.308927642e-14
3.698900321e-14
2.577395161e-14
1.798066291e-14
1.256314654e-14
8.78948312e-15
6.148829822e-15
4.284220274e-15
2.947620838e-15
1.969500409e-15
1.237735307e-15
6.84236569e-16
2.871175325e-16
8.997197974e-17
6.375163422e-06
6.447922704e-07
1.856812042e-07
1.004030981e-07
6.734768456e-08
5.369820951e-08
4.61699223e-08
4.059835724e-08
3.570183106e-08
3.108762479e-08
2.673751015e-08
2.27095936e-08
1.905613847e-08
1.580594339e-08
1.296413736e-08
1.051711415e-08
8.43841204e-09
6.694217201e-09
5.247400201e-09
4.060251038e-09
3.096686835e-09
2.323693906e-09
1.711900672e-09
1.234701814e-09
8.690223875e-10
5.950791499e-10
3.952230528e-10
2.541146148e-10
1.581792415e-10
9.555237717e-11
5.627780532e-11
3.258384378e-11
1.878279995e-11
1.096584212e-11
6.603890263e-12
4.164136543e-12
2.773045162e-12
1.947765347e-12
1.424959107e-12
1.068699646e-12
8.103434404e-13
6.141116089e-13
4.60384724e-13
3.387838067e-13
2.440307815e-13
1.7289027e-13
1.213268811e-13
8.475818286e-14
5.91405779e-14
4.130467527e-14
2.890775855e-14
2.027402367e-14
1.422787658e-14
9.952060327e-15
6.883495514e-15
4.636907625e-15
2.955166137e-15
1.676673944e-15
7.430920951e-16
2.621302101e-16
1.505764725e-05
1.695726145e-06
3.033191338e-07
1.401576282e-07
8.964533208e-08
6.834079751e-08
5.834233928e-08
5.165437297e-08
4.608183898e-08
4.089590078e-08
3.592870332e-08
3.121578252e-08
2.682512092e-08
2.281037865e-08
1.920141902e-08
1.600586402e-08
1.321390548e-08
1.08035178e-08
8.744950484e-09
7.004463679e-09
5.546059431e-09
4.337057296e-09
3.344264017e-09
2.537818379e-09
1.890903099e-09
1.379775044e-09
9.833947282e-10
6.825422492e-10
4.598689427e-10
2.99954586e-10
1.890769583e-10
1.152611299e-10
6.826722005e-11
3.965985561e-11
2.292813394e-11
1.342912442e-11
8.113549936e-12
5.135287225e-12
3.425806516e-12
2.395221456e-12
1.731681668e-12
1.277300859e-12
9.502053991e-13
7.049810403e-13
5.158325545e-13
3.703482462e-13
2.620025342e-13
1.837959425e-13
1.284272878e-13
8.965872528e-14
6.268688326e-14
4.395311316e-14
3.088700235e-14
2.16773477e-14
1.508102543e-14
1.025576368e-14
6.637567994e-15
3.869622712e-15
1.81037278e-15
7.040691813e-16
2.819133016e-05
3.611074222e-06
4.924881292e-07
1.794678676e-07
1.112828047e-07
8.445572331e-08
7.224961563e-08
6.458278432e-08
5.835319433e-08
5.264763028e-08
4.710553612e-08
4.171636965e-08
3.656334738e-08
3.172804019e-08
2.726938137e-08
2.322157111e-08
1.95972191e-08
1.638962295e-08
1.358705505e-08
1.116171905e-08
9.080293831e-09
7.308783562e-09
5.813766169e-09
4.563606085e-09
3.528967202e-09
2.682986341e-09
2.001177437e-09
1.461026445e-09
1.04146703e-09
7.229614495e-10
4.875456538e-10
3.186714957e-10
2.015488048e-10
1.234174813e-10
7.351452698e-11
4.301348069e-11
2.506581219e-11
1.478718408e-11
8.990520422e-12
5.717821468e-12
3.822924232e-12
2.666434729e-12
1.915108003e-12
1.398726257e-12
1.026855807e-12
7.487473889e-13
5.380577303e-13
3.809775292e-13
2.671102776e-13
1.864542968e-13
1.301236311e-13
9.103280529e-14
6.389359988e-14
4.489478515e-14
3.137883442e-14
2.15384035e-14
1.4167274e-14
8.493548409e-15
4.189777466e-15
1.761873381e-15
4.324904009e-05
6.307972157e-06
8.82563768e-07
2.259315778e-07
1.290754568e-07
9.940991574e-08
8.672355278e-08
7.938091072e-08
7.268400268e-08
6.63975063e-08
6.030395159e-08
5.426439308e-08
4.834664981e-08
4.265346746e-08
3.726903453e-08
3.227754935e-08
2.772165321e-08
2.361080656e-08
1.994209136e-08
1.670117222e-08
1.386198879e-08
1.139468401e-08
9.26811388e-09
7.450934183e-09
5.91253542e-09
4.62372249e-09
3.557036692e-09
2.686670697e-09
1.98820422e-09
1.438395079e-09
1.015109427e-09
6.973646577e-10
4.654656597e-10
3.014578112e-10
1.894441353e-10
1.157827921e-10
6.917049033e-11
4.073668707e-11
2.3958106e-11
1.43109561e-11
8.84961048e-12
5.738973481e-12
3.900157552e-12
2.74711001e-12
1.978426462e-12
1.439147777e-12
1.045773961e-12
7.526143591e-13
5.341132385e-13
3.745492911e-13
2.61124551e-13
1.820958179e-13
1.274182287e-13
8.941807258e-14
6.263322396e-14
4.331879946e-14
2.894893309e-14
1.786053497e-14
9.280266169e-15
4.150342355e-15
6.235999285e-05
1.013378751e-05
1.550967786e-06
2.942275454e-07
1.393630931e-07
1.076341028e-07
9.77180795e-08
9.346136164e-08
8.820554487e-08
8.136599157e-08
7.446051305e-08
6.765857679e-08
6.090689847e-08
5.436818568e-08
4.801355772e-08
4.216701656e-08
3.673419323e-08
3.17448503e-08
2.721154331e-08
2.313407098e-08
1.95003399e-08
1.629017751e-08
1.347768376e-08
1.103367489e-08
8.927847655e-09
7.130170673e-09
5.611737111e-09
4.344912667e-09
3.30323239e-09
2.461142906e-09
1.793695137e-09
1.276364153e-09
8.852258587e-10
5.975281785e-10
3.922263565e-10
2.504002798e-10
1.557039776e-10
9.462096247e-11
5.653994856e-11
3.358490823e-11
2.014032887e-11
1.241916103e-11
7.988727633e-12
5.374569338e-12
3.75372317e-12
2.685297482e-12
1.941716724e-12
1.406013502e-12
1.012003734e-12
7.200133671e-13
5.060946724e-13
3.53104902e-13
2.461795e-13
1.721455722e-13
1.205202351e-13
8.378425742e-14
5.681352363e-14
3.611444719e-14
1.977017798e-14
9.289386955e-15
9.63766037e-05
1.729741538e-05
2.897241956e-06
4.899062098e-07
1.664200927e-07
1.138661553e-07
1.036161163e-07
1.019098017e-07
1.002715032e-07
9.436588661e-08
8.622630458e-08
7.809083229e-08
7.042638419e-08
6.323333796e-08
5.62254929e-08
4.98267811e-08
4.382431669e-08
3.826458151e-08
3.316301019e-08
2.852353247e-08
2.434120084e-08
2.060311719e-08
1.728975655e-08
1.437595579e-08
1.183274329e-08
9.629196143e-09
7.73480687e-09
6.121469057e-09
4.763935472e-09
3.638748699e-09
2.722525101e-09
1.99175357e-09
1.422755608e-09
9.912586e-10
6.731119578e-10
4.453752174e-10
2.872553661e-10
1.808634053e-10
1.115222751e-10
6.774746651e-11
4.095507239e-11
2.498834723e-11
1.564754977e-11
1.018656412e-11
6.913683005e-12
4.853796798e-12
3.477611296e-12
2.511632894e-12
1.814328526e-12
1.303921791e-12
9.289021772e-13
6.550059525e-13
4.585119792e-13
3.203158184e-13
2.239396924e-13
1.561332499e-13
1.071623525e-13
7.012413194e-14
4.047898859e-14
1.989273068e-14
0.0001409261733
2.784425835e-05
5.164770002e-06
9.118746412e-07
2.229117162e-07
1.221661424e-07
1.047763497e-07
1.027740691e-07
1.024540571e-07
9.820154967e-08
8.940485845e-08
7.971366419e-08
7.098694915e-08
6.351133517e-08
5.673405771e-08
5.050635388e-08
4.474282618e-08
3.941432101e-08
3.450754434e-08
3.001446151e-08
2.592690477e-08
2.223370543e-08
1.891997915e-08
1.596734559e-08
1.335427036e-08
1.105746577e-08
9.052848995e-09
7.316193017e-09
5.824354575e-09
4.557440996e-09
3.498421446e-09
2.629198333e-09
1.930463632e-09
1.383147957e-09
9.666810775e-10
6.589075857e-10
4.382941841e-10
2.849585571e-10
1.814902841e-10
1.13675663e-10
7.048909293e-11
4.372359319e-11
2.750247272e-11
1.779110522e-11
1.19383682e-11
8.30177991e-12
5.924853489e-12
4.283755763e-12