/*--------------------------------*- C++ -*----------------------------------*\
  =========                 |
  \\      /  F ield         | OpenFOAM: The Open Source CFD Toolbox
   \\    /   O peration     | Website:  https://openfoam.org
    \\  /    A nd           | Version:  10
     \\/     M anipulation  |
\*---------------------------------------------------------------------------*/
FoamFile
{
    format      ascii;
    class       volScalarField;
    location    "3000";
    object      C3H7;
}
// * * * * * * * * * * * * * * * * * * * * * * * * * * * * * * * * * * * * * //

dimensions      [0 0 0 0 0 0 0];

internalField   nonuniform List<scalar> 
5170
(
2.970181179e-64
2.400275268e-64
1.492989016e-64
7.37914255e-65
5.852673143e-65
1.007533335e-61
8.057408478e-62
4.93227147e-62
2.854046936e-62
5.039915835e-62
3.454414711e-59
2.742425724e-59
1.67240228e-59
1.316564491e-59
3.967141827e-59
1.208032562e-56
9.581378868e-57
6.031250237e-57
6.768772711e-57
2.863764585e-56
4.307542404e-54
3.446243361e-54
2.325573095e-54
3.687084595e-54
1.928206859e-53
1.572684776e-51
1.285160369e-51
9.513414666e-52
2.068770266e-51
1.226521749e-50
5.872642259e-49
4.94444295e-49
4.180042972e-49
1.181584499e-48
7.53541742e-48
2.239377793e-46
1.964527984e-46
1.979059389e-46
6.840038049e-46
4.526506476e-45
8.742273602e-44
8.15257834e-44
9.860915337e-44
4.003080918e-43
2.673344555e-42
3.498898678e-41
3.530127799e-41
5.11130686e-41
2.372008373e-40
1.55816635e-39
1.432118474e-38
1.588676172e-38
2.738497229e-38
1.419978443e-37
8.986392404e-37
5.966418365e-36
7.403147742e-36
1.516769254e-35
8.570728987e-35
5.138360653e-34
2.519250757e-33
3.547650092e-33
8.705981531e-33
5.245956909e-32
2.916973617e-31
1.069318929e-30
1.732208483e-30
5.127468471e-30
3.257622212e-29
1.646740035e-28
4.541626556e-28
8.54377445e-28
3.054231034e-27
2.043037759e-26
9.259023371e-26
1.899583454e-25
4.189776696e-25
1.803378121e-24
1.252917666e-23
5.1938191e-23
7.787034956e-23
2.038239197e-22
1.029315222e-21
7.442643357e-21
2.916300691e-20
3.060679845e-20
9.658995889e-20
5.68311501e-19
4.20696023e-18
1.639983847e-17
1.105657789e-17
4.36851762e-17
2.951754501e-16
2.217558858e-15
9.282619522e-15
3.424103172e-15
1.914079446e-14
1.494537996e-13
1.07093585e-12
5.357916903e-12
7.730211744e-51
3.920356559e-51
6.604300249e-51
2.621591844e-50
4.339480817e-50
1.268094754e-49
2.740457045e-50
1.659123881e-50
4.901074e-50
1.216324828e-49
2.698889218e-49
1.092989043e-49
4.964268449e-50
5.53072774e-50
7.787024674e-50
3.904797691e-47
1.471863511e-47
4.445494566e-48
1.065217739e-48
6.007326608e-49
7.135883108e-45
2.393687899e-45
6.461736594e-46
1.347064572e-46
6.87203531e-47
1.231602496e-42
3.804706461e-43
9.315877711e-44
1.687990907e-44
7.735774838e-45
2.041942148e-40
5.899587108e-41
1.328237379e-41
2.071669357e-42
8.463426874e-43
3.332165008e-38
9.087217505e-39
1.89650273e-39
2.627185071e-40
9.74206434e-41
5.409635312e-36
1.416376991e-36
2.785555716e-37
3.588164485e-38
1.213533549e-38
8.79975172e-34
2.235326163e-34
4.21135682e-35
5.18272165e-36
1.60941637e-36
1.443083996e-31
3.588107323e-32
6.523384315e-33
7.768117309e-34
2.227531322e-34
2.387562689e-29
5.840269499e-30
1.03032292e-30
1.197672902e-31
3.1778121e-32
3.989991378e-27
9.62283457e-28
1.6476777e-28
1.872453081e-29
4.590022891e-30
6.727117577e-25
1.596182058e-25
2.64799024e-26
2.933770047e-27
6.626197484e-28
1.146803707e-22
2.660439053e-23
4.242231505e-24
4.54702129e-25
9.43856545e-26
1.973197043e-20
4.417972111e-21
6.692711257e-22
6.875425759e-23
1.304447418e-23
3.43485238e-18
7.260547304e-19
1.020724657e-19
9.926219773e-21
1.706702733e-21
6.067145636e-16
1.162257659e-16
1.470866355e-17
1.335503037e-18
2.09460639e-19
1.117754495e-13
1.779222852e-14
1.938647943e-15
1.624131838e-16
2.327612688e-17
2.248522425e-11
2.474299453e-12
2.202128896e-13
1.684742313e-14
2.196883695e-15
1.240319746e-13
9.591110848e-13
1.477618075e-11
2.246926867e-10
3.192254335e-09
6.821390695e-13
4.583882087e-12
5.597148643e-11
6.112423657e-10
5.412717542e-09
2.21502441e-12
1.305907124e-11
1.292759622e-10
1.067459857e-09
6.363337106e-09
5.698719929e-12
3.00571386e-11
2.473112918e-10
1.593103361e-09
6.824071905e-09
1.258714407e-11
6.006836225e-11
4.164817021e-10
2.170685784e-09
7.466265565e-09
2.544326495e-11
1.108033081e-10
6.629754613e-10
2.940309387e-09
8.826241361e-09
5.044389255e-11
2.057174079e-10
1.084287102e-09
4.1332163e-09
1.099665456e-08
9.931250106e-11
3.843465286e-10
1.753688466e-09
5.679184584e-09
1.334497785e-08
1.918709689e-10
6.924989528e-10
2.670207097e-09
7.378966443e-09
1.546814322e-08
3.58622588e-10
1.173606964e-09
3.808176266e-09
9.176274512e-09
1.741668114e-08
6.617927901e-10
1.866998332e-09
5.12482929e-09
1.108113852e-08
1.933079351e-08
1.148336519e-09
2.757162128e-09
6.589679975e-09
1.306986782e-08
2.109004591e-08
1.88128945e-09
3.876345994e-09
8.231151813e-09
1.508860394e-08
2.246503986e-08
2.970457276e-09
5.30150587e-09
1.010406046e-08
1.712755284e-08
2.342110865e-08
4.594015746e-09
7.160663659e-09
1.228912511e-08
1.920391238e-08
2.396460104e-08
6.960134401e-09
9.640228459e-09
1.489660888e-08
2.129932935e-08
2.395618911e-08
1.031417693e-08
1.296482254e-08
1.799614255e-08
2.313690975e-08
2.286361789e-08
1.480383259e-08
1.719417685e-08
2.132299968e-08
2.395046827e-08
2.032045396e-08
2.013000793e-08
2.173121077e-08
2.368209341e-08
2.250192105e-08
1.68028553e-08
2.399138408e-08
2.402450706e-08
2.268581849e-08
1.846997598e-08
1.312426355e-08
2.199207617e-08
2.069032679e-08
1.765214242e-08
1.357716019e-08
9.879536555e-09
1.543806304e-08
1.427394318e-08
1.204600497e-08
9.526014849e-09
7.403545668e-09
9.840485989e-09
9.202218393e-09
8.017805428e-09
6.716029207e-09
5.605636698e-09
6.325206479e-09
6.020724743e-09
5.463003356e-09
4.873061294e-09
4.395772375e-09
4.281488812e-09
4.161564882e-09
3.959650195e-09
3.755028165e-09
3.647459378e-09
3.111289328e-09
3.082081515e-09
3.052497421e-09
3.101337658e-09
3.240776452e-09
2.509881383e-09
2.538902458e-09
2.630522534e-09
2.806439015e-09
3.122766623e-09
2.271883158e-09
2.335022528e-09
2.495893825e-09
2.805967439e-09
3.276034017e-09
2.379349823e-09
2.463482286e-09
2.658625694e-09
3.04215638e-09
3.688100552e-09
2.874251381e-09
3.002016053e-09
3.307342318e-09
3.822478979e-09
4.60064365e-09
3.896558722e-09
4.076376301e-09
4.484694848e-09
5.144657561e-09
6.098338573e-09
5.675551014e-09
5.902369216e-09
6.41024494e-09
7.197140327e-09
8.262726818e-09
8.526967846e-09
8.772563798e-09
9.296058975e-09
1.004583055e-08
1.097472709e-08
1.208316512e-08
1.223375725e-08
1.251424386e-08
1.285628693e-08
1.312204016e-08
1.364459922e-08
1.354742724e-08
1.331723194e-08
1.290920176e-08
1.225408845e-08
1.052279039e-08
1.032482448e-08
9.893407904e-09
9.24959069e-09
8.416644323e-09
6.098987264e-09
5.957037867e-09
5.654580679e-09
5.220319266e-09
4.684964896e-09
3.036183624e-09
2.96328936e-09
2.808936555e-09
2.589668809e-09
2.323146938e-09
1.394261627e-09
1.362042565e-09
1.29393803e-09
1.197488988e-09
1.080592679e-09
6.137020763e-10
6.007007537e-10
5.732158423e-10
5.342683001e-10
4.86975163e-10
2.670663372e-10
2.620580364e-10
2.514265179e-10
2.362423194e-10
2.175870891e-10
1.164010634e-10
1.144509895e-10
1.102954076e-10
1.043191654e-10
9.690617803e-11
5.084613202e-11
5.007807941e-11
4.843643348e-11
4.606243495e-11
4.309480179e-11
2.22645912e-11
2.195879594e-11
2.130366117e-11
2.035208895e-11
1.915513099e-11
9.772040571e-12
9.649198207e-12
9.385525092e-12
9.001163442e-12
8.515194901e-12
4.299025968e-12
4.249315936e-12
4.142450182e-12
3.986201918e-12
3.787794855e-12
1.896189206e-12
1.875955102e-12
1.832395986e-12
1.76854045e-12
1.687149107e-12
8.390789914e-13
8.307985949e-13
8.129504751e-13
7.867244969e-13
7.531840065e-13
3.728803635e-13
3.694738649e-13
3.621225741e-13
3.512971238e-13
3.374096736e-13
1.666310663e-13
1.652214499e-13
1.621760405e-13
1.576823574e-13
1.519012506e-13
7.499241885e-14
7.440546339e-14
7.313603734e-14
7.125944165e-14
6.88389515e-14
3.404824568e-14
3.380245889e-14
3.327039809e-14
3.248261088e-14
3.146430237e-14
1.562999608e-14
1.552695868e-14
1.530378057e-14
1.49730175e-14
1.454493744e-14
7.284195395e-15
7.241641258e-15
7.149499325e-15
7.013034732e-15
6.836637457e-15
3.479033267e-15
3.462638084e-15
3.427253313e-15
3.375161316e-15
3.30844599e-15
1.742047953e-15
1.737411127e-15
1.727591237e-15
1.713639459e-15
1.696758468e-15
9.601857445e-16
9.612735118e-16
9.639416894e-16
9.687295988e-16
9.765380445e-16
6.289803933e-16
6.333252656e-16
6.431357893e-16
6.587385751e-16
6.809780703e-16
5.19111371e-16
5.25806831e-16
5.4080311e-16
5.643395938e-16
5.973180041e-16
5.276161061e-16
5.364853917e-16
5.562996031e-16
5.872641896e-16
6.304030199e-16
6.10982356e-16
6.222408222e-16
6.473625001e-16
6.865413163e-16
7.409735307e-16
7.551756208e-16
7.693030647e-16
8.008028235e-16
8.498644765e-16
9.179049472e-16
9.635411202e-16
9.812956391e-16
1.020860239e-15
1.082421931e-15
1.167680751e-15
1.255842404e-15
1.278427703e-15
1.328739484e-15
1.40697524e-15
1.515235441e-15
1.664518542e-15
1.692740774e-15
1.755521107e-15
1.852898914e-15
1.98716245e-15
2.197275764e-15
2.232427954e-15
2.310572774e-15
2.431643574e-15
2.598316001e-15
2.889424484e-15
2.933455339e-15
3.031294081e-15
3.182758263e-15
3.39104396e-15
3.843429346e-15
3.899058353e-15
4.022578165e-15
4.213546775e-15
4.475664626e-15
5.0735559e-15
5.142513964e-15
5.295500774e-15
5.531678068e-15
5.855180914e-15
6.493413446e-15
6.576529328e-15
6.760794489e-15
7.044893861e-15
7.433338225e-15
8.170541942e-09
1.622974778e-08
1.438369938e-08
1.213081374e-08
1.193776661e-08
1.332874189e-08
1.551504462e-08
1.706793396e-08
1.800592503e-08
1.879794227e-08
1.965166418e-08
2.028185389e-08
2.047954866e-08
2.036429925e-08
2.004919173e-08
1.946717243e-08
1.81306138e-08
1.59093431e-08
1.321786167e-08
1.053006544e-08
8.235578258e-09
6.439873795e-09
5.13156496e-09
4.250762263e-09
3.717821805e-09
3.46545761e-09
3.471195531e-09
3.739464025e-09
4.298847316e-09
5.326302713e-09
6.935773595e-09
9.121778234e-09
1.160634571e-08
1.312313667e-08
1.162508654e-08
7.768339624e-09
4.289568793e-09
2.129158798e-09
9.957946551e-10
4.524874425e-10
2.037732552e-10
9.13511886e-11
4.084932353e-11
1.824227268e-11
8.142140456e-12
3.634642062e-12
1.624017912e-12
7.270559679e-13
3.26548641e-13
1.473635975e-13
6.693285438e-14
3.06602413e-14
1.420644593e-14
6.697437919e-15
3.256500585e-15
1.684723332e-15
9.844931011e-16
7.00812165e-16
6.261531558e-16
6.678649249e-16
7.880837277e-16
9.766618801e-16
1.241180352e-15
1.608384681e-15
2.102249059e-15
2.740914627e-15
3.568997516e-15
4.699070373e-15
6.130184442e-15
7.762793732e-15
2.532409692e-09
2.936670732e-10
2.212885249e-11
1.527210289e-12
1.758446391e-13
6.494150005e-09
1.629264701e-08
1.29863519e-09
8.281409279e-11
6.160526401e-12
8.781275884e-09
9.640128604e-09
9.622123421e-10
7.548829393e-11
1.149615285e-11
7.388998201e-09
5.569831446e-09
2.198218622e-09
1.569553325e-10
1.166827881e-11
8.388212382e-09
6.237660113e-09
2.63168204e-08
2.092422123e-09
1.428823067e-10
9.942525005e-09
7.730752079e-09
3.281416428e-08
3.466896534e-09
3.009584875e-10
1.165023617e-08
8.585451917e-09
2.881913958e-08
3.864883157e-09
4.366768635e-10
1.213856391e-08
7.659284906e-09
1.781036306e-08
3.005014089e-09
4.222461328e-10
1.202008321e-08
6.870463982e-09
1.278521406e-08
1.355159109e-08
2.045741896e-09
1.203044977e-08
6.987200077e-09
1.270613979e-08
2.754465197e-08
4.864846301e-09
1.222063117e-08
7.389752557e-09
1.292226845e-08
3.160071808e-08
6.438800975e-09
1.22632036e-08
7.449012844e-09
1.158903599e-08
2.687026382e-08
6.215468423e-09
1.209135697e-08
7.19774649e-09
9.701718338e-09
2.030252739e-08
7.990510644e-09
1.184737159e-08
7.064649834e-09
8.84175833e-09
1.797622767e-08
1.615176433e-08
1.166747411e-08
7.118903423e-09
8.686408276e-09
1.748587372e-08
2.226754941e-08
1.161661403e-08
7.266933967e-09
8.731090415e-09
1.702211306e-08
2.463492344e-08
1.109299755e-08
7.223422625e-09
8.55122678e-09
1.579612586e-08
2.376209689e-08
1.006128824e-08
6.877769123e-09
8.056642469e-09
1.403722832e-08
2.111707792e-08
8.756809133e-09
6.373914585e-09
7.56568597e-09
1.273463621e-08
1.917442653e-08
7.396837723e-09
5.874195096e-09
7.274404126e-09
1.212874109e-08
1.834508377e-08
6.216887386e-09
5.485927422e-09
7.195422943e-09
1.198895898e-08
1.805251933e-08
5.283408685e-09
5.229474279e-09
7.253850453e-09
1.20400299e-08
1.787126996e-08
4.606560158e-09
5.088556384e-09
7.376260599e-09
1.210635885e-08
1.754438345e-08
4.160497519e-09
5.05021124e-09
7.536531808e-09
1.213154877e-08
1.701018723e-08
3.920205047e-09
5.121266354e-09
7.760715796e-09
1.217548058e-08
1.639485285e-08
3.884072167e-09
5.362654464e-09
8.140038211e-09
1.235864536e-08
1.581177036e-08
4.070241519e-09
5.81417943e-09
8.750236768e-09
1.273187836e-08
1.523524831e-08
4.508344071e-09
6.522286873e-09
9.616703492e-09
1.321784928e-08
1.450572224e-08
5.276984132e-09
7.584234642e-09
1.072700266e-08
1.363578917e-08
1.342557787e-08
6.470228153e-09
9.016756089e-09
1.193567249e-08
1.368417435e-08
1.188605571e-08
8.23586819e-09
1.072919786e-08
1.290453225e-08
1.299876013e-08
9.956824873e-09
1.040273591e-08
1.233424001e-08
1.306725431e-08
1.137896723e-08
7.852534346e-09
1.246606348e-08
1.3001005e-08
1.184452548e-08
9.02996453e-09
5.821037571e-09
1.299034607e-08
1.168546506e-08
9.281865834e-09
6.465701257e-09
4.050585014e-09
1.062798453e-08
8.543112955e-09
6.25297467e-09
4.192080316e-09
2.637317035e-09
6.807786948e-09
5.211097211e-09
3.716575836e-09
2.494846286e-09
1.611184222e-09
3.714480053e-09
2.820674483e-09
2.025234755e-09
1.392012284e-09
9.3117065e-10
1.848597463e-09
1.420454673e-09
1.043663303e-09
7.416510341e-10
5.134100826e-10
8.733596605e-10
6.863927831e-10
5.197612082e-10
3.813811863e-10
2.724863127e-10
4.025752143e-10
3.246142331e-10
2.527040894e-10
1.90779871e-10
1.402657635e-10
1.836757513e-10
1.513744939e-10
1.206854895e-10
9.342405227e-11
7.047181646e-11
8.32372444e-11
6.988522624e-11
5.687648324e-11
4.500738902e-11
3.473486717e-11
3.755851186e-11
3.203705814e-11
2.654214287e-11
2.141241494e-11
1.686490751e-11
1.690077247e-11
1.461343469e-11
1.229595397e-11
1.008960124e-11
8.09243106e-12
7.592665954e-12
6.643001735e-12
5.666037844e-12
4.720031142e-12
3.847942104e-12
3.408628725e-12
3.013440849e-12
2.601500011e-12
2.196663422e-12
1.817387895e-12
1.530697183e-12
1.36585695e-12
1.192025527e-12
1.018933978e-12
8.544125026e-13
6.883756901e-13
6.194313942e-13
5.459702902e-13
4.719533134e-13
4.006756703e-13
3.10447731e-13
2.815151395e-13
2.503979628e-13
2.187086066e-13
1.878279106e-13
1.406281882e-13
1.28436478e-13
1.152139242e-13
1.016186592e-13
8.822974621e-14
6.410028219e-14
5.894041804e-14
5.330367932e-14
4.74608638e-14
4.165686479e-14
2.946423625e-14
2.727486248e-14
2.487045896e-14
2.236458648e-14
1.986325197e-14
1.370274729e-14
1.277890553e-14
1.176330391e-14
1.070570528e-14
9.654692594e-15
6.490518651e-15
6.11322296e-15
5.702903856e-15
5.283634443e-15
4.880613474e-15
3.179753458e-15
3.044349974e-15
2.905041435e-15
2.775848009e-15
2.672866829e-15
1.667678053e-15
1.644693445e-15
1.633567161e-15
1.644752503e-15
1.691299296e-15
9.974853022e-16
1.032306989e-15
1.08902126e-15
1.177302305e-15
1.309838862e-15
7.317743507e-16
8.023029517e-16
9.026575392e-16
1.043022002e-15
1.237023029e-15
6.708303899e-16
7.695306809e-16
9.057012797e-16
1.090731591e-15
1.339936649e-15
7.257535305e-16
8.522096234e-16
1.02457319e-15
1.255952999e-15
1.563960574e-15
8.607838274e-16
1.018684441e-15
1.232519664e-15
1.517620415e-15
1.894525673e-15
1.067253122e-15
1.26324422e-15
1.527455686e-15
1.877968453e-15
2.338911069e-15
1.354422858e-15
1.598670875e-15
1.926768077e-15
2.360365614e-15
2.928308558e-15
1.751725883e-15
2.058811605e-15
2.4671346e-15
3.001015165e-15
3.692205775e-15
2.279147902e-15
2.656635086e-15
3.157083904e-15
3.808441621e-15
4.647130688e-15
2.959937509e-15
3.425841068e-15
4.042007071e-15
4.841491177e-15
5.867231239e-15
3.842174542e-15
4.421726175e-15
5.184769405e-15
6.169985942e-15
7.427008198e-15
5.041666223e-15
5.76520289e-15
6.71231824e-15
7.926799084e-15
9.464152643e-15
6.551489793e-15
7.436805538e-15
8.588831572e-15
1.00560217e-14
1.189929071e-14
8.267065226e-15
9.322216033e-15
1.068828236e-14
1.241801181e-14
1.45773159e-14
5.488339886e-13
3.55268768e-14
5.076490145e-15
1.606822057e-15
9.629151929e-16
7.359630359e-16
5.959673262e-16
4.847333061e-16
3.886394423e-16
3.06283679e-16
2.371341248e-16
1.805608291e-16
1.353177467e-16
9.987742837e-17
7.265489163e-17
5.211737013e-17
3.688980743e-17
2.578021614e-17
1.780327529e-17
1.216466062e-17
8.239956845e-18
5.546617946e-18
3.719583647e-18
2.489984948e-18
1.665924966e-18
1.11428487e-18
7.447978733e-19
4.971584955e-19
3.312519219e-19
2.202956927e-19
1.462966842e-19
9.710698177e-20
6.451354607e-20
4.297351751e-20
2.875533464e-20
1.935494471e-20
1.310379608e-20
8.905534819e-21
6.053617333e-21
4.099838574e-21
2.759158938e-21
1.844775626e-21
1.228229217e-21
8.176267193e-22
5.465599658e-22
3.679802463e-22
2.497934483e-22
1.70952348e-22
1.180326566e-22
8.249711776e-23
5.876570834e-23
4.300529977e-23
3.244503891e-23
2.503630467e-23
1.930525485e-23
1.429110155e-23
9.507606722e-24
5.046613463e-24
1.516031833e-24
1.520767524e-25
9.253112548e-12
4.436192841e-13
4.845052562e-14
1.87114316e-14
1.309522655e-14
1.025752577e-14
8.064697246e-15
6.340517963e-15
4.859790886e-15
3.645536844e-15
2.659710986e-15
1.897651211e-15
1.327146178e-15
9.142023126e-16
6.22553275e-16
4.203414749e-16
2.819662242e-16
1.88122101e-16
1.249562586e-16
8.27140412e-17
5.464394989e-17
3.609612556e-17
2.388592996e-17
1.585201955e-17
1.055399683e-17
7.045528787e-18
4.711205559e-18
3.152009535e-18
2.108200476e-18
1.409003069e-18
9.410628519e-19
6.284777548e-19
4.20127918e-19
2.815520229e-19
1.894934661e-19
1.282478029e-19
8.726431419e-20
5.95601845e-20
4.061584672e-20
2.755874362e-20
1.855677407e-20
1.239993015e-20
8.245188441e-21
5.480758626e-21
3.659570491e-21
2.462910719e-21
1.672850176e-21
1.146713937e-21
7.938170561e-22
5.567704579e-22
3.982849937e-22
2.928316471e-22
2.219458021e-22
1.719451814e-22
1.329794288e-22
9.869003952e-23
6.605010153e-23
3.583715016e-23
1.205430858e-23
1.676857388e-24
2.210305707e-11
1.015474735e-12
1.402090468e-13
8.122393123e-14
6.212432576e-14
4.992609795e-14
4.010699548e-14
3.224932841e-14
2.527952279e-14
1.937837064e-14
1.437213949e-14
1.036301211e-14
7.253372922e-15
4.951557166e-15
3.306293106e-15
2.169725521e-15
1.405545593e-15
9.027281571e-16
5.77349335e-16
3.691035736e-16
2.366883876e-16
1.526375823e-16
9.91750929e-17
6.495966489e-17
4.286941637e-17
2.846929775e-17
1.899659212e-17
1.271808849e-17
8.534009999e-18
5.735221794e-18
3.858590704e-18
2.598959653e-18
1.753421771e-18
1.18621134e-18
8.058724012e-19
5.503640378e-19
3.776322666e-19
2.595990195e-19
1.779961508e-19
1.211809149e-19
8.169381933e-20
5.454562446e-20
3.618742962e-20
2.398302229e-20
1.596896659e-20
1.072794762e-20
7.285106547e-21
5.001847651e-21
3.474282381e-21
2.449031115e-21
1.763028359e-21
1.305413247e-21
9.962871331e-22
7.764156745e-22
6.031220031e-22
4.491826452e-22
3.026088568e-22
1.667081412e-22
5.922412317e-23
9.41723624e-24
3.981289814e-11
3.020796783e-12
4.198844587e-13
2.288909214e-13
1.796541754e-13
1.487226335e-13
1.234972915e-13
1.017644568e-13
8.22032194e-14
6.489535571e-14
4.97685976e-14
3.70932449e-14
2.681701629e-14
1.884577949e-14
1.288063664e-14
8.588807943e-15
5.600844701e-15
3.587377749e-15
2.267196608e-15
1.422516015e-15
8.916289615e-16
5.614587233e-16
3.565855573e-16
2.288718949e-16
1.484971888e-16
9.730368053e-17
6.430449002e-17
4.280176709e-17
2.865924834e-17
1.928397601e-17
1.302794695e-17
8.831833602e-18
6.007691097e-18
4.103201677e-18
2.816886341e-18
1.944825173e-18
1.34863288e-18
9.358119193e-19
6.463338774e-19
4.420912288e-19
2.986058517e-19
1.992341688e-19
1.318092795e-19
8.700315649e-20
5.769157722e-20
3.863929073e-20
2.621010105e-20
1.801736777e-20
1.255920231e-20
8.903606659e-21
6.457955255e-21
4.822960022e-21
3.712386446e-21
2.91460104e-21
2.277294821e-21
1.704683578e-21
1.157807028e-21
6.481065025e-22
2.403176485e-22
4.271609301e-23
2.038683574e-11
7.32461728e-12
1.052009309e-12
4.678153994e-13
3.698013794e-13
3.192423411e-13
2.746534888e-13
2.328304363e-13
1.939942958e-13
1.58470621e-13
1.264947764e-13
9.852217208e-14
7.47177894e-14
5.517271936e-14
3.962523924e-14
2.770930183e-14
1.886661925e-14
1.253703427e-14
8.146882673e-15
5.201767139e-15
3.278788413e-15
2.053898434e-15
1.285898767e-15
8.087359743e-16
5.12595702e-16
3.280745651e-16
2.122029635e-16
1.387234827e-16
9.160773299e-17
6.104383721e-17
4.09932611e-17
2.771005126e-17
1.884480791e-17
1.289878862e-17
8.89500291e-18
6.181916098e-18
4.321066733e-18
3.022589269e-18
2.101786408e-18
1.443974359e-18
9.767058814e-19
6.505749234e-19
4.284791263e-19
2.810312704e-19
1.850924493e-19
1.232777949e-19
8.33582026e-20
5.728606915e-20
4.003313411e-20
2.852090321e-20
2.082684927e-20
1.567661485e-20
1.216456948e-20
9.622479721e-21
7.570018078e-21
5.707478092e-21
3.917330505e-21
2.234513474e-21
8.632356606e-22
1.727564057e-22
2.602423591e-11
2.884707455e-11
3.667514747e-12
9.611469372e-13
6.564351737e-13
5.630476778e-13
4.926354595e-13
4.275224612e-13
3.664169375e-13
3.094614489e-13
2.569542402e-13
2.093454724e-13
1.670339209e-13
1.303556088e-13
9.934361175e-14
7.387698069e-14
5.355274491e-14
3.784234929e-14
2.606052356e-14
1.752247472e-14
1.152412068e-14
7.445069094e-15
4.742459525e-15
2.994237681e-15
1.881900607e-15
1.183341973e-15
7.473709761e-16
4.7578391e-16
3.059761425e-16
1.989836177e-16
1.308371957e-16
8.691542612e-17
5.829792469e-17
3.949402222e-17
2.705585185e-17
1.875342053e-17
1.311956058e-17
9.206150872e-18
6.426671192e-18
4.428549716e-18
2.997170564e-18
1.990657946e-18
1.302470543e-18
8.46092932e-19
5.512730425e-19
3.636633762e-19
2.443062572e-19
1.674511601e-19
1.171413478e-19
8.378751879e-20
6.154918757e-20
4.665526726e-20
3.647239348e-20
2.906828477e-20
2.305564785e-20
1.756470547e-20
1.224095679e-20
7.165616944e-21
2.905058335e-21
6.60098681e-22
3.560357581e-11
2.237279755e-11
1.154206636e-11
2.361861822e-12
1.075524663e-12
8.549365783e-13
7.449041196e-13
6.555507308e-13
5.738241538e-13
4.974305341e-13
4.261107144e-13
3.601430638e-13
2.999066535e-13
2.457559805e-13
1.979125835e-13
1.564247624e-13
1.211409446e-13
9.178250727e-14
6.791950223e-14
4.905481827e-14
3.456299066e-14
2.377745873e-14
1.598729357e-14
1.05316195e-14
6.81527186e-15
4.351725432e-15
2.753406055e-15
1.735089124e-15
1.094008504e-15
6.93140912e-16
4.425958551e-16
2.853531497e-16
1.859760399e-16
1.226765101e-16
8.207025428e-17
5.581449994e-17
3.854584307e-17
2.685243127e-17
1.868996133e-17
1.287150257e-17
8.705803124e-18
5.766636666e-18
3.748571018e-18
2.40816576e-18
1.546477934e-18
1.005155255e-18
6.670992716e-19
4.537560172e-19
3.16547854e-19
2.267454205e-19
1.673164518e-19
1.276356057e-19
1.005110863e-19
8.07629304e-20
6.470049584e-20
4.999156615e-20
3.559468276e-20
2.1584128e-20
9.317419451e-21
2.42325521e-21
4.269045513e-11
1.472974234e-11
2.607246139e-11
5.929222006e-12
1.930682666e-12
1.231195973e-12
1.021640851e-12
8.96286718e-13
7.924418471e-13
6.979967276e-13
6.100950947e-13
5.281549278e-13
4.522791686e-13
3.827503448e-13
3.198268074e-13
2.636528531e-13
2.142161209e-13
1.713732336e-13
1.348124128e-13
1.041160952e-13
7.880006072e-14
5.834205546e-14
4.218263477e-14
2.97590188e-14
2.04875024e-14
1.378329736e-14
9.080574017e-15
5.877536951e-15
3.752882544e-15
2.376028092e-15
1.498759882e-15
9.461638181e-16
6.001343257e-16
3.838097467e-16
2.482934596e-16
1.631565109e-16
1.092779844e-16
7.435376964e-17
5.092690841e-17
3.475412107e-17
2.34124775e-17
1.547109727e-17
1.001518525e-17
6.377888404e-18
4.037559792e-18
2.578032455e-18
1.68111847e-18
1.127166116e-18
7.789760633e-19
5.557071705e-19
4.102732098e-19
3.142221283e-19
2.49032166e-19
2.017995626e-19
1.634900322e-19
1.283562636e-19
9.359872218e-20
5.891589529e-20
2.713757159e-20
8.024332639e-21
2.250330856e-10
2.543007453e-11
1.684584828e-11
1.31426809e-11
3.853778968e-12
1.845913305e-12
1.363179861e-12
1.162126678e-12
1.026005429e-12
9.110613642e-13
8.067403055e-13
7.100077694e-13
6.199985775e-13
5.365899782e-13
4.59901046e-13
3.90079022e-13
3.271988686e-13
2.712280717e-13
2.220122143e-13
1.792739861e-13
1.426389542e-13
1.116713629e-13
8.589987548e-14
6.479735047e-14
4.783388555e-14
3.449785498e-14
2.426825821e-14
1.664708408e-14
1.114919936e-14
7.311615145e-15
4.712456761e-15
2.998637397e-15
1.89365963e-15
1.193486175e-15
7.544545186e-16
4.803711915e-16
3.096382216e-16
2.027945222e-16
1.344310303e-16
8.945581645e-17
5.930009286e-17
3.891579889e-17
2.514288509e-17
1.596028684e-17
1.000392502e-17
6.283471384e-18
4.018370857e-18
2.643200124e-18
1.797737327e-18
1.26847779e-18
9.315681233e-19
7.134786357e-19
5.679658739e-19
4.640579702e-19
3.806592882e-19
3.042502446e-19
2.277077888e-19
1.49122061e-19
7.350224492e-20
2.454592904e-20
6.287473638e-10
7.103497613e-11
1.759831733e-11
2.336383025e-11
8.527510516e-12
3.171506645e-12
1.890036177e-12
1.49919669e-12
1.298523179e-12
1.151594976e-12
1.026142395e-12
9.127363804e-13
8.080390489e-13
7.107952167e-13
6.205892027e-13
5.37350347e-13
4.611194444e-13
3.919287325e-13
3.297392279e-13
2.744173125e-13
2.256964836e-13
1.833126547e-13
1.46853017e-13
1.15875965e-13
8.99133389e-14
6.849073834e-14
5.113398281e-14
3.735089134e-14
2.664786162e-14
1.854745153e-14
1.258960646e-14
8.344644584e-15
5.419573882e-15
3.466914153e-15
2.197417557e-15
1.387307843e-15
8.757430942e-16
5.551321816e-16
3.543730379e-16
2.275613201e-16
1.462495468e-16
9.371185079e-17
5.977216908e-17
3.785148363e-17
2.370622671e-17
1.475076296e-17
9.266680527e-18
5.967535773e-18
3.976180679e-18
2.757582109e-18
2.000864786e-18
1.523501968e-18
1.213315393e-18
9.976251965e-19
8.283343418e-19
6.746377238e-19
5.189514144e-19
3.542180046e-19
1.872720314e-19
7.003659899e-20
9.732553501e-10
1.252290691e-10
2.082666018e-11
1.678761141e-11
1.577613407e-11
6.003297097e-12
2.877891777e-12
1.992945329e-12
1.649282761e-12
1.443760106e-12
1.285163843e-12
1.1487473e-12
1.025814363e-12
9.126716683e-13
8.076648439e-13
7.100983563e-13
6.197393535e-13
5.364927337e-13
4.605127051e-13
3.917301285e-13
3.299746913e-13
2.750224294e-13
2.265854322e-13
1.843268786e-13
1.478721444e-13
1.168201669e-13
9.075142498e-14
6.922593485e-14
5.177439325e-14
3.791181551e-14
2.714951348e-14
1.899627934e-14
1.298011471e-14
8.668740621e-15
5.674872875e-15
3.657836143e-15
2.331185257e-15
1.472756082e-15
9.244053294e-16
5.780752375e-16
3.60977177e-16
2.248847753e-16
1.396917155e-16
8.66973714e-17
5.386838132e-17
3.346925808e-17
2.085243595e-17
1.317853704e-17
8.574541074e-18
5.812360879e-18
4.140176094e-18
3.113863103e-18
2.467118571e-18
2.033207329e-18
1.704821654e-18
1.413412121e-18
1.117599746e-18
7.957102061e-19
4.51756412e-19
1.874722997e-19
1.076832194e-09
1.595722651e-10
2.411972721e-11
1.309847713e-11
2.25487003e-11
1.195813101e-11
5.198805889e-12
2.918093317e-12
2.159859389e-12
1.817240978e-12
1.597269421e-12
1.424650534e-12
1.276369837e-12
1.143165745e-12
1.020618991e-12
9.070797543e-13
8.016632382e-13
7.038258714e-13
6.134154528e-13
5.304099294e-13
4.54704427e-13
3.861716368e-13
3.246463205e-13
2.699086224e-13
2.216857589e-13
1.796617813e-13
1.434868058e-13
1.127786513e-13
8.712006723e-14
6.60580695e-14
4.910790168e-14
3.576020037e-14
2.549056764e-14
1.778293691e-14
1.214853856e-14
8.139826279e-15
5.359438849e-15
3.472971219e-15
2.21709624e-15
1.394874633e-15
8.664842287e-16
5.331078394e-16
3.256259485e-16
1.979681856e-16
1.203706574e-16
7.363339554e-17
4.548589782e-17
2.847604163e-17
1.820217724e-17
1.204074476e-17
8.367580662e-18
6.172105774e-18
4.833418784e-18
3.971173285e-18
3.348734465e-18
2.818193665e-18
2.287588932e-18
1.698909706e-18
1.035703559e-18
4.727245204e-19
1.527374129e-09
2.514579662e-10
3.9761674e-11
1.237845473e-11
1.591749414e-11
1.830207661e-11
9.692701792e-12
4.894718574e-12
3.042495515e-12
2.323907267e-12
1.964478464e-12
1.726039745e-12
1.53821753e-12
1.378988562e-12
1.234727473e-12
1.105737766e-12
9.861556403e-13
8.747669491e-13
7.710535624e-13
6.74860591e-13
5.861396254e-13
5.04857165e-13
4.309318502e-13
3.642179541e-13
3.045144258e-13
2.515766873e-13
2.051282178e-13
1.648611555e-13
1.304334818e-13
1.014632246e-13
7.752032517e-14
5.812135199e-14
4.273587803e-14
3.080830832e-14
2.178055259e-14
1.511151311e-14
1.030001426e-14
6.902973044e-15
4.549876063e-15
2.949378114e-15
1.879102284e-15
1.176636154e-15
7.249292866e-16
4.402312545e-16
2.650422586e-16
1.593989617e-16
9.653721571e-17
5.943824243e-17
3.748752768e-17
2.439870299e-17
1.658958193e-17
1.195212957e-17
9.187672603e-18
7.477310115e-18
6.309630575e-18
5.370260572e-18
4.463863964e-18
3.455338893e-18
2.259127246e-18
1.125597915e-18
3.283486338e-09
5.796702855e-10
9.620141275e-11
1.828731528e-11
1.195766562e-11
2.164770065e-11
1.575240476e-11
8.665499409e-12
4.785285712e-12
3.112233086e-12
2.381718692e-12
1.998099193e-12
1.747140583e-12
1.555964565e-12
1.390416837e-12
1.248042192e-12
1.11763916e-12
9.970804094e-13
8.851133212e-13
7.811368468e-13
6.848882544e-13
5.962405791e-13
5.150896842e-13
4.412824076e-13
3.745965592e-13
3.147449606e-13
2.61413368e-13
2.143055646e-13
1.731585971e-13
1.377158395e-13
1.076762821e-13
8.268582108e-14
6.233259192e-14
4.612706666e-14
3.351995347e-14
2.393647402e-14
1.681105962e-14
1.162189543e-14
7.912825449e-15
5.30538433e-15
3.500168956e-15
2.268259616e-15
1.441709656e-15
8.981426992e-16
5.493185752e-16
3.315987146e-16
1.992019814e-16
1.204470778e-16
7.43449596e-17
4.74635537e-17
3.171576777e-17
2.243051827e-17
1.693194266e-17
1.360846914e-17
1.144830897e-17
9.818192723e-18
8.323139736e-18
6.688873921e-18
4.674116317e-18
2.532249174e-18
5.029720876e-09
9.875301381e-10
1.822159609e-10
3.286741638e-11
1.177541841e-11
1.537242217e-11
2.053896105e-11
1.372801425e-11
7.860537095e-12
4.501100497e-12
2.913823399e-12
2.182292205e-12
1.804424266e-12
1.570103414e-12
1.392671571e-12
1.244983432e-12
1.115175772e-12
9.978490595e-13
8.90281117e-13
7.910467758e-13
6.993735882e-13
6.148084483e-13
5.370461221e-13
4.658381979e-13
4.009383144e-13
3.420937697e-13
2.890408265e-13
2.415024333e-13
1.992089296e-13
1.619568631e-13
1.296052709e-13
1.019605214e-13
7.876384662e-14
5.973367966e-14