/*--------------------------------*- C++ -*----------------------------------*\
  =========                 |
  \\      /  F ield         | OpenFOAM: The Open Source CFD Toolbox
   \\    /   O peration     | Website:  https://openfoam.org
    \\  /    A nd           | Version:  10
     \\/     M anipulation  |
\*---------------------------------------------------------------------------*/
FoamFile
{
    format      ascii;
    class       volScalarField;
    location    "3000";
    object      C3H8;
}
// * * * * * * * * * * * * * * * * * * * * * * * * * * * * * * * * * * * * * //

dimensions      [0 0 0 0 0 0 0];

internalField   nonuniform List<scalar> 
5170
(
1.818996407e-61
1.46907788e-61
9.127605965e-62
4.506401519e-62
3.57156043e-62
6.170045374e-59
4.930758888e-59
3.014389999e-59
1.742129395e-59
3.074622407e-59
2.115402216e-56
1.677987267e-56
1.021715079e-56
8.033021804e-57
2.41956658e-56
7.397764687e-54
5.861648229e-54
3.683202248e-54
4.128553598e-54
1.746210063e-53
2.637984466e-51
2.108053836e-51
1.419649082e-51
2.248266656e-51
1.175488456e-50
9.632306538e-49
7.860498451e-49
5.805440446e-49
1.261165751e-48
7.475743992e-48
3.597477981e-46
3.024033533e-46
2.550072271e-46
7.201740302e-46
4.592120246e-45
1.372168983e-43
1.201523231e-43
1.20708468e-43
4.168351921e-43
2.758099015e-42
5.358734969e-41
4.98671208e-41
6.013856374e-41
2.439265045e-40
1.628761815e-39
2.145736773e-38
2.159769391e-38
3.117325841e-38
1.445343878e-37
9.492628068e-37
8.787838052e-36
9.723217644e-36
1.670500515e-35
8.653002205e-35
5.47442917e-34
3.663819853e-33
4.533328986e-33
9.255882945e-33
5.223779982e-32
3.130156456e-31
1.548360444e-30
2.173921195e-30
5.315797689e-30
3.198479084e-29
1.776923799e-28
6.579174029e-28
1.062437907e-27
3.133372548e-27
1.987322579e-26
1.003162225e-25
2.797933256e-25
5.246626513e-25
1.868565579e-24
1.247467578e-23
5.641015126e-23
1.172152877e-22
2.577144469e-22
1.105064588e-21
7.660300594e-21
3.165148713e-20
4.814639905e-20
1.256548668e-19
6.321927032e-19
4.559266434e-18
1.778095086e-17
1.897010295e-17
5.972261825e-17
3.501633632e-16
2.584136521e-15
1.000634676e-14
6.873221735e-15
2.711208961e-14
1.826737768e-13
1.367394794e-12
5.668042224e-12
2.135868652e-12
1.192672024e-11
9.29906531e-11
6.640622515e-10
3.272794778e-09
2.52996152e-50
4.03803269e-50
6.383134142e-50
2.712968933e-49
8.599213908e-50
5.41462251e-48
3.189228359e-48
1.389629944e-48
4.842848839e-49
2.593070197e-49
1.271172414e-45
5.600230002e-46
1.963552664e-46
5.000580591e-47
2.605002254e-47
2.552907819e-43
9.618168595e-44
2.895030004e-44
6.779889095e-45
3.666574562e-45
4.671959745e-41
1.566917712e-41
4.228119108e-42
8.807150113e-43
4.481542608e-43
8.067178925e-39
2.491577592e-39
6.097667648e-40
1.104029449e-40
5.045471313e-41
1.338083886e-36
3.864705331e-37
8.695344646e-38
1.354997823e-38
5.516893107e-39
2.184295345e-34
5.953759077e-35
1.241413861e-35
1.717634438e-36
6.342903808e-37
3.546441373e-32
9.278001636e-33
1.822284517e-33
2.343377159e-34
7.885193607e-35
5.767217672e-30
1.463210554e-30
2.75147493e-31
3.378113712e-32
1.04246018e-32
9.45103321e-28
2.345718886e-28
4.253201368e-29
5.048472837e-30
1.436352278e-30
1.562230292e-25
3.811608502e-26
6.699113567e-27
7.753880539e-28
2.037031776e-28
2.608829213e-23
6.268692596e-24
1.067784106e-24
1.206547432e-25
2.920527466e-26
4.397169254e-21
1.037759153e-21
1.709199155e-22
1.879135762e-23
4.176616566e-24
7.494107988e-19
1.724837254e-19
2.72292497e-20
2.887955941e-21
5.873627332e-22
1.287670803e-16
2.849424566e-17
4.256781921e-18
4.309561081e-19
7.962831126e-20
2.234172696e-14
4.639288176e-15
6.394201396e-16
6.091132525e-17
1.010168158e-17
3.934100729e-12
7.324345206e-13
8.997073301e-14
7.925926536e-15
1.178805649e-15
7.274637177e-10
1.10214755e-10
1.143591704e-11
9.136046432e-13
1.200991124e-13
1.485990154e-07
1.492531649e-08
1.215890033e-09
8.586209503e-11
9.540226225e-12
8.006463997e-11
6.198964624e-10
9.553413256e-09
1.442448658e-07
1.943884927e-06
4.448783063e-10
2.997386681e-09
3.664812781e-08
3.921280274e-07
3.043650264e-06
1.504014301e-09
9.007127731e-09
9.0968641e-08
7.459626539e-07
3.966879141e-06
4.106324126e-09
2.232843754e-08
1.904700295e-07
1.222349625e-06
4.766541781e-06
9.673793595e-09
4.802518628e-08
3.457004413e-07
1.759482936e-06
5.393304325e-06
2.07135128e-08
9.358354261e-08
5.701701276e-07
2.352637283e-06
5.977470443e-06
4.267660938e-08
1.770326497e-07
9.087140717e-07
3.037369084e-06
6.634352168e-06
8.503663242e-08
3.243046666e-07
1.37076876e-06
3.756173434e-06
7.289572773e-06
1.624120173e-07
5.584298379e-07
1.920216071e-06
4.434719663e-06
7.842529692e-06
2.946684677e-07
8.911053325e-07
2.514339481e-06
5.062093149e-06
8.31925848e-06
5.170272701e-07
1.319839276e-06
3.111973302e-06
5.649408872e-06
8.776263173e-06
8.439937281e-07
1.81248086e-06
3.697378001e-06
6.205551261e-06
9.210395344e-06
1.288851413e-06
2.363863157e-06
4.281498609e-06
6.731378669e-06
9.588521645e-06
1.876319108e-06
2.987462919e-06
4.882800365e-06
7.239181898e-06
9.924797223e-06
2.641060736e-06
3.709433661e-06
5.526405626e-06
7.758306708e-06
1.026946554e-05
3.599102695e-06
4.563618501e-06
6.250437945e-06
8.336656088e-06
1.068624104e-05
4.748728594e-06
5.581085879e-06
7.102609923e-06
9.026630132e-06
1.121734121e-05
6.049255439e-06
6.752958053e-06
8.097232721e-06
9.842686725e-06
1.184943464e-05
7.455095e-06
8.043861343e-06
9.206885423e-06
1.075071551e-05
1.253678242e-05
8.898115856e-06
9.387601341e-06
1.03756337e-05
1.170861893e-05
1.325882776e-05
1.031622972e-05
1.071984124e-05
1.154677003e-05
1.267701948e-05
1.399954418e-05
1.16575749e-05
1.198885845e-05
1.267446128e-05
1.362044373e-05
1.473229328e-05
1.289615129e-05
1.316638072e-05
1.372941742e-05
1.451139711e-05
1.543115357e-05
1.401637399e-05
1.42343069e-05
1.468983823e-05
1.532189408e-05
1.606019065e-05
1.500413192e-05
1.517502774e-05
1.553038286e-05
1.601851752e-05
1.65710048e-05
1.585736124e-05
1.598515403e-05
1.624752491e-05
1.659475055e-05
1.696754702e-05
1.657459727e-05
1.666178584e-05
1.683592501e-05
1.70511553e-05
1.724542531e-05
1.708737843e-05
1.712776942e-05
1.719770613e-05
1.72494493e-05
1.721983749e-05
1.729184089e-05
1.72815405e-05
1.724152431e-05
1.712113627e-05
1.684544965e-05
1.701207358e-05
1.694166801e-05
1.676438994e-05
1.644083719e-05
1.590428443e-05
1.597179485e-05
1.583242052e-05
1.551046025e-05
1.497324582e-05
1.416214714e-05
1.399392579e-05
1.379670896e-05
1.335159427e-05
1.264964276e-05
1.169429759e-05
1.119652879e-05
1.097715175e-05
1.049379515e-05
9.752876311e-06
8.801857468e-06
7.879430098e-06
7.677437375e-06
7.240592532e-06
6.611465347e-06
5.833400014e-06
4.640213123e-06
4.499581665e-06
4.205401159e-06
3.795318484e-06
3.308475141e-06
2.315390375e-06
2.245848778e-06
2.100838037e-06
1.90020013e-06
1.664458484e-06
1.066516605e-06
1.03715472e-06
9.757556039e-07
8.903726832e-07
7.893120186e-07
4.768184656e-07
4.650685123e-07
4.403806866e-07
4.057588102e-07
3.642988794e-07
2.108014102e-07
2.061708219e-07
1.963946957e-07
1.825690897e-07
1.658156651e-07
9.281167149e-08
9.098851284e-08
8.712302582e-08
8.161436855e-08
7.486756991e-08
4.079805628e-08
4.007640418e-08
3.854065762e-08
3.633758414e-08
3.361470072e-08
1.791471048e-08
1.762756383e-08
1.701472191e-08
1.613090681e-08
1.503037445e-08
7.866747658e-09
7.751878703e-09
7.506121327e-09
7.150081222e-09
6.70387187e-09
3.456850376e-09
3.410594677e-09
3.311438888e-09
3.167246009e-09
2.985560893e-09
1.520384683e-09
1.501650089e-09
1.461424577e-09
1.402743291e-09
1.32846715e-09
6.694384706e-10
6.618133717e-10
6.45418955e-10
6.214384476e-10
5.909667531e-10
2.952190144e-10
2.921034094e-10
2.853963845e-10
2.755623379e-10
2.630231077e-10
1.304998894e-10
1.292220485e-10
1.264680625e-10
1.224213171e-10
1.17245257e-10
5.789151724e-11
5.736532509e-11
5.623003647e-11
5.455842472e-11
5.241409657e-11
2.581083055e-11
2.559309909e-11
2.512282998e-11
2.442906964e-11
2.353670019e-11
1.158478235e-11
1.149418e-11
1.129829191e-11
1.100878695e-11
1.063546081e-11
5.243884552e-12
5.20597293e-12
5.123929682e-12
5.002484909e-12
4.845536377e-12
2.399145835e-12
2.383249729e-12
2.3488273e-12
2.297818977e-12
2.231806552e-12
1.113670082e-12
1.10708322e-12
1.092821727e-12
1.071696676e-12
1.044378702e-12
5.291779333e-13
5.266097877e-13
5.210647478e-13
5.128929059e-13
5.024083767e-13
2.632237028e-13
2.624651666e-13
2.608539698e-13
2.585509915e-13
2.557359473e-13
1.443195192e-13
1.444571207e-13
1.448017494e-13
1.454368228e-13
1.464991938e-13
9.52216975e-14
9.589766181e-14
9.742470449e-14
9.985544777e-14
1.033242094e-13
8.13099786e-14
8.24168672e-14
8.489686588e-14
8.879175271e-14
9.425428052e-14
8.769178424e-14
8.924991672e-14
9.273228526e-14
9.817877207e-14
1.057754693e-13
1.090250472e-13
1.111372581e-13
1.158526435e-13
1.232133996e-13
1.334533931e-13
1.452144755e-13
1.480593827e-13
1.544059766e-13
1.643008549e-13
1.780429364e-13
1.99970613e-13
2.03823086e-13
2.124127581e-13
2.257920461e-13
2.443488697e-13
2.812975012e-13
2.865762039e-13
2.98340422e-13
3.166493434e-13
3.42014501e-13
4.033700951e-13
4.107167421e-13
4.270827374e-13
4.525348836e-13
4.877609445e-13
5.988694707e-13
6.0934434e-13
6.326423269e-13
6.687704984e-13
7.185607415e-13
8.906890936e-13
9.050858679e-13
9.370860323e-13
9.866559652e-13
1.054880825e-12
1.328368921e-12
1.348430883e-12
1.392984373e-12
1.461892366e-12
1.556523421e-12
1.955422291e-12
1.982834259e-12
2.043647633e-12
2.137533637e-12
2.266140918e-12
2.727839013e-12
2.763513127e-12
2.842584826e-12
2.96446055e-12
3.131027466e-12
6.996243259e-06
7.67689708e-06
8.447904999e-06
8.844291687e-06
8.961521015e-06
9.189455368e-06
9.711220298e-06
1.02011329e-05
1.052324211e-05
1.079797198e-05
1.112455687e-05
1.143728694e-05
1.165804564e-05
1.183077966e-05
1.20388324e-05
1.23500026e-05
1.277796415e-05
1.327559819e-05
1.379337145e-05
1.43412639e-05
1.491906337e-05
1.550192986e-05
1.606337646e-05
1.655257704e-05
1.691890874e-05
1.717513188e-05
1.730013834e-05
1.708236472e-05
1.649066594e-05
1.535198446e-05
1.342487061e-05
1.089638002e-05
8.057824706e-06
5.258732583e-06
2.965185701e-06
1.499714661e-06
7.179284222e-07
3.345689825e-07
1.536239358e-07
6.989143187e-08
3.158380175e-08
1.42017511e-08
6.365162976e-09
2.846699009e-09
1.27136689e-09
5.674237963e-10
2.532919663e-10
1.132121794e-10
5.073704751e-11
2.28363634e-11
1.034153276e-11
4.721630213e-12
2.179606478e-12
1.022806249e-12
4.942230962e-13
2.536949145e-13
1.476050846e-13
1.064222535e-13
9.903633024e-14
1.123822861e-13
1.42330817e-13
1.89931458e-13
2.60376322e-13
3.638908794e-13
5.181044103e-13
7.612050404e-13
1.113232294e-12
1.6372291e-12
2.37547033e-12
3.272214037e-12
1.690346516e-05
1.638213177e-06
1.038160366e-07
6.210661291e-09
4.604748572e-10
1.597609886e-05
1.576559268e-05
1.27899141e-06
8.084882131e-08
4.685667869e-09
1.683652983e-05
2.965254969e-05
2.708113163e-06
1.964579299e-07
1.127116781e-08
1.617189108e-05
2.546236448e-05
2.494637515e-06
1.963467649e-07
1.284083818e-08
1.507384808e-05
2.13868051e-05
3.989305227e-06
3.283626263e-07
2.297458942e-08
1.459116922e-05
2.081719624e-05
1.052313691e-05
1.084704338e-06
9.251331398e-08
1.487760236e-05
2.221458924e-05
1.71248087e-05
2.213191359e-06
2.441574294e-07
1.498185665e-05
2.162326545e-05
1.86650771e-05
2.873279444e-06
3.824375671e-07
1.480806184e-05
2.042383404e-05
1.902839864e-05
3.580939211e-06
5.591893303e-07
1.470078545e-05
1.989153394e-05
2.003177481e-05
5.580939828e-06
1.001891442e-06
1.480198419e-05
1.996333718e-05
2.125137868e-05
8.268135239e-06
1.667190076e-06
1.489481629e-05
1.973842524e-05
2.117733587e-05
1.062141845e-05
2.37425741e-06
1.48288305e-05
1.907905316e-05
2.033806511e-05
1.249633716e-05
3.086418632e-06
1.472206555e-05
1.852842718e-05
1.995291625e-05
1.427604822e-05
4.10371777e-06
1.471622402e-05
1.831992193e-05
2.008129235e-05
1.585794147e-05
5.386496987e-06
1.487266971e-05
1.836648832e-05
2.03170026e-05
1.691586142e-05
6.668587165e-06
1.514119337e-05
1.840757087e-05
2.018058243e-05
1.710409698e-05
7.651408463e-06
1.541747443e-05
1.826157363e-05
1.956699869e-05
1.659491297e-05
8.259386238e-06
1.565671685e-05
1.802335099e-05
1.88708861e-05
1.603106316e-05
8.666668976e-06
1.592814939e-05
1.785544991e-05
1.835706735e-05
1.564868094e-05
8.98521978e-06
1.625550766e-05
1.781486636e-05
1.804899802e-05
1.540349794e-05
9.218463004e-06
1.661000835e-05
1.785699358e-05
1.783716832e-05
1.516484546e-05
9.316916354e-06
1.696131172e-05
1.788989008e-05
1.757297144e-05
1.478430309e-05
9.22002106e-06
1.724013005e-05
1.78092182e-05
1.712703358e-05
1.415572178e-05
8.884336523e-06
1.738405253e-05
1.754814872e-05
1.64474526e-05
1.326806817e-05
8.311610398e-06
1.742710821e-05
1.723555526e-05
1.559360087e-05
1.217105971e-05
7.540485683e-06
1.730923103e-05
1.657829887e-05
1.445184991e-05
1.085004405e-05
6.604348361e-06
1.679134918e-05
1.545568279e-05
1.294777195e-05
9.317895158e-06
5.558748617e-06
1.587620017e-05
1.400621719e-05
1.116846912e-05
7.67980851e-06
4.49418076e-06
1.444879605e-05
1.214646711e-05
9.184575396e-06
6.048667532e-06
3.494152259e-06
1.226572281e-05
9.86258895e-06
7.104033891e-06
4.521095968e-06
2.60857451e-06
9.677427019e-06
7.425729696e-06
5.126205719e-06
3.196897794e-06
1.866073329e-06
6.949993017e-06
5.108242914e-06
3.42463205e-06
2.1338505e-06
1.273928489e-06
4.422430336e-06
3.164499229e-06
2.112027478e-06
1.34056021e-06
8.251424972e-07
2.473768402e-06
1.776592791e-06
1.210126638e-06
7.926552341e-07
5.053232525e-07
1.264411327e-06
9.304035028e-07
6.543451819e-07
4.442165089e-07
2.935306476e-07
6.155957389e-07
4.665078713e-07
3.391828079e-07
2.383827124e-07
1.629665122e-07
2.917430426e-07
2.273737189e-07
1.70454711e-07
1.236292381e-07
8.719385971e-08
1.359781794e-07
1.086464813e-07
8.367520581e-08
6.240885071e-08
4.528188696e-08
6.265783572e-08
5.114627032e-08
4.032630615e-08
3.0834571e-08
2.295292716e-08
2.862119667e-08
2.379894434e-08
1.915574402e-08
1.497467728e-08
1.140683579e-08
1.29892568e-08
1.097667958e-08
8.997162218e-09
7.173042751e-09
5.578308148e-09
5.868172418e-09
5.029281556e-09
4.188766951e-09
3.398422993e-09
2.692525224e-09
2.642464381e-09
2.292764547e-09
1.936745777e-09
1.596021558e-09
1.285904186e-09
1.187217189e-09
1.041349521e-09
8.907736259e-10
7.444212404e-10
6.089679852e-10
5.326684678e-10
4.717723779e-10
4.081413285e-10
3.45442043e-10
2.865364849e-10
2.389045348e-10
2.134544849e-10
1.865714047e-10
1.597540737e-10
1.342154701e-10
1.072410701e-10
9.65878139e-11
8.522385325e-11
7.376012149e-11
6.270668258e-11
4.825091609e-11
4.378061676e-11
3.896923785e-11
3.406560898e-11
2.928322497e-11
2.17968886e-11
1.991454462e-11
1.787202475e-11
1.577083306e-11
1.370031579e-11
9.904775514e-12
9.1088934e-12
8.239073e-12
7.336987418e-12
6.440278223e-12
4.537337492e-12
4.199816386e-12
3.828897605e-12
3.441971513e-12
3.055216369e-12
2.101926626e-12
1.959311736e-12
1.802300314e-12
1.63844041e-12
1.475053186e-12
9.907287213e-13
9.320935976e-13
8.680827202e-13
8.02287977e-13
7.384329348e-13
4.821151221e-13
4.605947706e-13
4.381778891e-13
4.169218458e-13
3.991693644e-13
2.507796259e-13
2.465957287e-13
2.439919527e-13
2.445078803e-13
2.500623095e-13
1.494232865e-13
1.544005015e-13
1.626337976e-13
1.75598165e-13
1.952347267e-13
1.112612592e-13
1.223110175e-13
1.380785829e-13
1.602024263e-13
1.908855034e-13
1.06449345e-13
1.22863464e-13
1.4557238e-13
1.765295257e-13
2.183751221e-13
1.22597769e-13
1.449753247e-13
1.75579276e-13
2.168197506e-13
2.719514885e-13
1.560397157e-13
1.859075216e-13
2.26506694e-13
2.808649403e-13
3.530585964e-13
2.082745391e-13
2.480920213e-13
3.019837521e-13
3.738009913e-13
4.687093785e-13
2.850889215e-13
3.385754952e-13
4.107173577e-13
5.064852563e-13
6.325225189e-13
3.976019022e-13
4.703767322e-13
5.682324936e-13
6.97686496e-13
8.674168505e-13
5.648402924e-13
6.655156999e-13
8.005630325e-13
9.787727952e-13
1.210856177e-12
8.267247183e-13
9.662039466e-13
1.150900681e-12
1.3913085e-12
1.700814206e-12
1.202845008e-12
1.393316529e-12
1.644609979e-12
1.969734033e-12
2.385273292e-12
1.761020985e-12
2.022727669e-12
2.365612966e-12
2.805526956e-12
3.362335163e-12
2.542960266e-12
2.894875834e-12
3.352556016e-12
3.934717695e-12
4.664474449e-12
3.488256997e-12
3.93971098e-12
4.52297134e-12
5.259202547e-12
6.174202973e-12
4.148161065e-11
5.223457474e-12
1.011704017e-12
4.453735592e-13
3.283086205e-13
2.608256573e-13
2.001536961e-13
1.478221865e-13
1.058164829e-13
7.416513205e-14
5.118152144e-14
3.490468601e-14
2.356587294e-14
1.576472972e-14
1.045840034e-14
6.887704221e-15
4.511219734e-15
2.945491577e-15
1.92331407e-15
1.260837349e-15
8.337381596e-16
5.591489445e-16
3.825735076e-16
2.68555612e-16
1.942195716e-16
1.448745804e-16
1.111439528e-16
8.71280296e-17
6.920769717e-17
5.524391557e-17
4.402618845e-17
3.488682504e-17
2.744128662e-17
2.142896602e-17
1.662941517e-17
1.283225611e-17
9.839191808e-18
7.477769855e-18
5.611769115e-18
4.14156082e-18
2.995747556e-18
2.119870304e-18
1.467417208e-18
9.95385605e-19
6.637471668e-19
4.368694925e-19
2.850571601e-19
1.851532873e-19
1.201422357e-19
7.810067017e-20
5.096491953e-20
3.34159761e-20
2.199755957e-20
1.448254163e-20
9.442106945e-21
5.962954311e-21
3.467637331e-21
1.661344187e-21
4.658386099e-22
4.486857726e-23
5.104665806e-10
5.731418536e-11
1.275348063e-11
7.275348985e-12
5.474388443e-12
4.185807224e-12
3.034301332e-12
2.12990628e-12
1.43792452e-12
9.478925994e-13
6.101939302e-13
3.867130041e-13
2.421499534e-13
1.505430193e-13
9.325292242e-14
5.773307901e-14
3.582323351e-14
2.233434725e-14
1.403089324e-14
8.908962406e-15
5.738946183e-15
3.768078008e-15
2.535301244e-15
1.757194599e-15
1.259321934e-15
9.338052551e-16
7.13882739e-16
5.585783102e-16
4.432879611e-16
3.53715181e-16
2.818939635e-16
2.234772948e-16
1.759595808e-16
1.376377036e-16
1.070708826e-16
8.288568184e-17
6.379210272e-17
4.86776655e-17
3.667649574e-17
2.716845682e-17
1.971826966e-17
1.399628338e-17
9.717166535e-18
6.611138731e-18
4.422447761e-18
2.920798184e-18
1.912823405e-18
1.247180309e-18
8.123308026e-19
5.299226528e-19
3.468593614e-19
2.27998939e-19
1.503879147e-19
9.915102202e-20
6.469730886e-20
4.088687437e-20
2.386361749e-20
1.163640415e-20
3.623343037e-21
4.776074037e-22
1.579005811e-09
1.883458184e-10
5.481357692e-11
3.85086588e-11
3.022776913e-11
2.356096763e-11
1.748643183e-11
1.261116934e-11
8.738527863e-12
5.895253855e-12
3.851458622e-12
2.456346119e-12
1.529508967e-12
9.35008353e-13
5.631511911e-13
3.360578932e-13
1.998316431e-13
1.191089057e-13
7.158652102e-14
4.36078158e-14
2.705626664e-14
1.718169256e-14
1.122915653e-14
7.592909929e-15
5.332012826e-15
3.890275326e-15
2.937048902e-15
2.27638935e-15
1.794005908e-15
1.424736308e-15
1.132404138e-15
8.971118191e-16
7.072534716e-16
5.549686596e-16
4.338325736e-16
3.379633445e-16
2.620071903e-16
2.014682236e-16
1.529523802e-16
1.141153711e-16
8.337225963e-17
5.954026461e-17
4.157294354e-17
2.843974898e-17
1.912832025e-17
1.270360554e-17
8.367229484e-18
5.487103772e-18
3.594068734e-18
2.356826149e-18
1.549714127e-18
1.022466682e-18
6.762922752e-19
4.466721361e-19
2.916745968e-19
1.843360071e-19
1.078359581e-19
5.305840953e-20
1.731013649e-20
2.607148299e-21
2.250399349e-09
5.042049474e-10
1.745563095e-10
1.239067991e-10
1.003182013e-10
8.049349877e-11
6.23250567e-11
4.667563857e-11
3.378817129e-11
2.375564493e-11
1.620544944e-11
1.076334866e-11
6.95914507e-12
4.39375865e-12
2.71162867e-12
1.642015405e-12
9.787188888e-13
5.774773671e-13
3.393179597e-13
2.000562637e-13
1.192770444e-13
7.250491231e-14
4.530350207e-14
2.932437166e-14
1.977840363e-14
1.39249116e-14
1.019986942e-14
7.712960092e-15
5.961765313e-15
4.666211173e-15
3.671615329e-15
2.891674042e-15
2.275448831e-15
1.788969008e-15
1.406035662e-15
1.10431204e-15
8.647300448e-16
6.721572938e-16
5.158387564e-16
3.888610559e-16
2.868814389e-16
2.067616372e-16
1.456322876e-16
1.004693693e-16
6.813656552e-17
4.56232767e-17
3.029220991e-17
2.001881526e-17
1.320616897e-17
8.715361163e-18
5.762442088e-18
3.819273724e-18
2.534854092e-18
1.677857379e-18
1.096561971e-18
6.929080567e-19
4.060269802e-19
2.012823353e-19
6.794650426e-20
1.15610365e-20
2.730087762e-09
8.848046077e-10
3.710534246e-10
2.651243835e-10
2.211396944e-10
1.854813617e-10
1.514294583e-10
1.196348177e-10
9.168589005e-11
6.834960526e-11
4.960114458e-11
3.509176459e-11
2.419945357e-11
1.628634058e-11
1.069223246e-11
6.858388471e-12
4.299301354e-12
2.640979435e-12
1.593001101e-12
9.483037156e-13
5.601863701e-13
3.312492141e-13
1.979896629e-13
1.210278765e-13
7.65047974e-14
5.042103233e-14
3.472886334e-14
2.490198604e-14
1.843441408e-14
1.395406652e-14
1.071168745e-14
8.292231853e-15
6.455819221e-15
5.051521477e-15
3.972963124e-15
3.137490021e-15
2.479313219e-15
1.949202745e-15
1.514399395e-15
1.155728224e-15
8.627377099e-16
6.28774923e-16
4.476069961e-16
3.120036987e-16
2.137836548e-16
1.446303221e-16
9.700469438e-17
6.471483227e-17
4.305038417e-17
2.86099278e-17
1.902029322e-17
1.26576228e-17
8.424118859e-18
5.584705141e-18
3.65143512e-18
2.30677032e-18
1.353445524e-18
6.761583172e-19
2.355884436e-19
4.606156281e-20
5.91888651e-09
1.683376041e-09
7.028452721e-10
4.559654707e-10
3.791001933e-10
3.280235727e-10
2.804646359e-10
2.334859393e-10
1.89405388e-10
1.500305987e-10
1.161822071e-10
8.801205406e-11
6.522275547e-11
4.728988177e-11
3.352295067e-11
2.322929086e-11
1.57220982e-11
1.03941842e-11
6.708351253e-12
4.232390137e-12
2.613665615e-12
1.586563338e-12
9.512642923e-13
5.68230788e-13
3.416954272e-13
2.095837488e-13
1.326528336e-13
8.730237979e-14
5.979796634e-14
4.243088236e-14
3.096147453e-14
2.307343514e-14
1.747928568e-14
1.343038392e-14
1.045746646e-14
8.237069685e-15
6.533302736e-15
5.179679577e-15
4.070447263e-15
3.146628365e-15
2.379677787e-15
1.755789421e-15
1.263975694e-15
8.901272098e-16
6.159928e-16
4.210141381e-16
2.853905456e-16
1.924139203e-16
1.292567187e-16
8.661635373e-17
5.79522983e-17
3.87335117e-17
2.584275895e-17
1.715014444e-17
1.121659592e-17
7.090852633e-18
4.173433974e-18
2.10950127e-18
7.627886531e-19
1.736276184e-19
1.865171621e-08
3.057385754e-09
1.234683255e-09
7.161902628e-10
5.696627427e-10
4.946378252e-10
4.340491212e-10
3.750656902e-10
3.176112898e-10
2.636953388e-10
2.148888949e-10
1.720473349e-10
1.354030828e-10
1.04766156e-10
7.96752409e-11
5.951780314e-11
4.361615374e-11
3.131153685e-11
2.197978151e-11
1.506982617e-11
1.007942019e-11
6.576856249e-12
4.187712721e-12
2.608406353e-12
1.595658874e-12
9.661262107e-13
5.845482546e-13
3.577292042e-13
2.240384022e-13
1.449038037e-13
9.715263208e-14
6.744535423e-14
4.830238091e-14
3.555345199e-14
2.682702321e-14
2.070279983e-14
1.625610929e-14
1.287179368e-14
1.017224335e-14
7.945551406e-15
6.086737318e-15
4.552105271e-15
3.318457774e-15
2.361780818e-15
1.648781373e-15
1.136004965e-15
7.764967834e-16
5.28206575e-16
3.580819689e-16
2.420387301e-16
1.631459797e-16
1.096557403e-16
7.342729911e-17
4.88236272e-17
3.197380366e-17
2.026795093e-17
1.201253322e-17
6.184322895e-18
2.34758076e-18
6.243150618e-19
3.610829973e-08
4.068722104e-09
1.529007757e-09
9.563800054e-10
7.779759332e-10
6.808047949e-10
6.035175574e-10
5.3370901e-10
4.654474965e-10
3.993576227e-10
3.37219082e-10
2.804631475e-10
2.299313515e-10
1.859253748e-10
1.483335038e-10
1.167629191e-10
9.065082517e-11
6.936659985e-11
5.224937035e-11
3.866863625e-11
2.805360087e-11
1.990145454e-11
1.376980629e-11
9.276530573e-12
6.082055109e-12
3.885826969e-12
2.426266979e-12
1.488775408e-12
9.052510486e-13
5.517649067e-13
3.413225698e-13
2.167883673e-13
1.42540681e-13
9.738418893e-14
6.910107705e-14
5.080558283e-14
3.853833244e-14
2.988259211e-14
2.340112384e-14
1.829591407e-14
1.413906443e-14
1.071503618e-14
7.925467815e-15
5.715077996e-15
4.030696592e-15
2.798421786e-15
1.924826152e-15
1.317136581e-15
8.984979347e-16
6.113510675e-16
4.148108718e-16
2.804905296e-16
1.887474323e-16
1.259682712e-16
8.275071253e-17
5.268024118e-17
3.149219311e-17
1.652503353e-17
6.576289068e-18
1.998494189e-18
6.254967088e-08
6.327473621e-09
1.846875728e-09
1.147007292e-09
9.697692829e-10
8.82498488e-10
7.948933005e-10
7.137939504e-10
6.361767522e-10
5.597842483e-10
4.857742587e-10
4.158996059e-10
3.515554437e-10
2.935963183e-10
2.423753815e-10
1.978508762e-10
1.597022992e-10
1.274378233e-10
1.004743107e-10
7.819272576e-11
5.99838264e-11
4.527926314e-11
3.356583985e-11
2.437136365e-11
1.72816065e-11
1.193746001e-11
8.014010518e-12
5.225193799e-12
3.314480102e-12
2.055030177e-12
1.25470869e-12
7.626389096e-13
4.679499317e-13
2.942373252e-13
1.918637063e-13
1.305139464e-13
9.266853498e-14
6.833576289e-14
5.173187234e-14
3.967726221e-14
3.048798036e-14
2.325238598e-14
1.744963885e-14
1.279905174e-14
9.156350335e-15
6.42242577e-15
4.44925113e-15
3.059642414e-15
2.094942986e-15
1.430543937e-15
9.747155359e-16
6.623162467e-16
4.480252965e-16
3.005742574e-16
1.985239273e-16
1.272272563e-16
7.686856945e-17
4.116602553e-17
1.715856595e-17
5.822966622e-18
1.312727339e-07
1.483913137e-08
2.698633139e-09
1.389546992e-09
1.141775138e-09
1.087975728e-09
1.015729e-09
9.29032516e-10
8.43133485e-10
7.57334553e-10
6.719222982e-10
5.888017644e-10
5.098989555e-10
4.366635716e-10
3.699985727e-10
3.103240135e-10
2.576805363e-10
2.118343819e-10
1.723675362e-10
1.387536137e-10
1.103952784e-10
8.673694354e-11
6.719413511e-11
5.12314585e-11
3.835995819e-11
2.814044776e-11
2.017830242e-11
1.410749878e-11
9.59330136e-12
6.334825224e-12
4.061675024e-12
2.536083991e-12
1.553632025e-12
9.453300277e-13
5.804208169e-13
3.654291376e-13
2.387315319e-13
1.628237681e-13
1.156864309e-13
8.481661372e-14
6.333722384e-14
4.764481081e-14
3.579517037e-14
2.663001538e-14
1.943549711e-14
1.386029588e-14
9.705959268e-15
6.718823714e-15
4.618093023e-15
3.160001505e-15
2.156430525e-15
1.468631851e-15
9.971428685e-16
6.724452e-16
4.471102815e-16
2.890943847e-16
1.769323737e-16
9.688014041e-17
4.226073089e-17
1.56404184e-17
2.509020458e-07
3.217527234e-08
4.411121803e-09
1.688490219e-09
1.277139068e-09
1.264816874e-09
1.260680741e-09
1.19025904e-09
1.100649775e-09
1.007056584e-09
9.10621986e-10
8.135673778e-10
7.185566409e-10
6.278066557e-10
5.429246712e-10
4.649416666e-10
3.943997733e-10
3.31408804e-10
2.759347654e-10
2.275884673e-10
1.858355153e-10
1.500982544e-10
1.197859132e-10
9.432334153e-11
7.316521746e-11
5.580284466e-11
4.176489275e-11
3.061137224e-11
2.192462981e-11
1.531271287e-11
1.041175939e-11
6.884006072e-12
4.426031201e-12
2.775313068e-12
1.710155014e-12
1.048696369e-12
6.49779746e-13
4.126698047e-13
2.715926614e-13
1.860383445e-13
1.320948805e-13
9.613820267e-14
7.088313623e-14
5.246885058e-14
3.8686084e-14
2.815359278e-14
2.009863677e-14
1.40839664e-14
9.738436872e-15
6.679796497e-15
4.561808143e-15
3.107980552e-15
2.112917104e-15
1.429634216e-15
9.563671184e-16
6.243216044e-16
3.877923567e-16
2.175153729e-16
9.923291302e-17
3.918414733e-17
4.014485695e-07
5.850997362e-08
8.190654375e-09
2.137647734e-09
1.391966018e-09
1.369260285e-09
1.477779999e-09
1.490801632e-09
1.414780735e-09
1.314764023e-09
1.207536322e-09
1.09602142e-09
9.835189112e-10
8.730644579e-10
7.669786849e-10
6.674207359e-10
5.756235353e-10
4.920813097e-10
4.16977894e-10
3.502159234e-10
2.914152653e-10
2.400814332e-10
1.956634755e-10
1.575819993e-10
1.252532758e-10
9.810736276e-11
7.559813895e-11
5.720421365e-11
4.242557792e-11
3.078102134e-11
2.180822422e-11
1.506608254e-11
1.013879037e-11
6.646453299e-12
4.252546971e-12
2.668561137e-12
1.655851834e-12
1.027508369e-12
6.463912412e-13
4.176406621e-13
2.7972218e-13
1.943782938e-13
1.389832134e-13
1.010601318e-13
7.398901488e-14
5.412542531e-14
3.927030428e-14
2.807590851e-14
1.971195587e-14
1.362105137e-14
9.31761594e-15
6.344943492e-15
4.311780342e-15
2.920800353e-15
1.961825382e-15
1.291762076e-15
8.149562818e-16
4.692949681e-16
2.240102319e-16
9.268022016e-17
5.813090147e-07
9.434725386e-08
1.44268656e-08
2.76091115e-09
1.440253018e-09
1.390533064e-09
1.583276114e-09
1.755585379e-09
1.762928134e-09
1.666454651e-09
1.544190686e-09
1.414819997e-09
1.281748536e-09
1.150011995e-09
1.019987474e-09
8.9897925e-10
7.855061381e-10
6.805236149e-10
5.845588683e-10
4.978156602e-10
4.202004777e-10
3.514095243e-10
2.909846417e-10
2.383713465e-10
1.929705511e-10
1.541729716e-10
1.213812176e-10
9.401574708e-11
7.151486278e-11
5.333092503e-11
3.892536731e-11
2.776629655e-11
1.933358817e-11
1.313231613e-11
8.705138144e-12
5.641777647e-12
3.588850385e-12
2.25515108e-12
1.412903067e-12
8.937777835e-13
5.78345802e-13
3.865963324e-13
2.67499908e-13
1.902378434e-13
1.376384097e-13
1.00279497e-13
7.297146754e-14
5.275743619e-14
3.770923576e-14
2.65239658e-14
1.834927629e-14
1.253786197e-14
8.512676438e-15
5.760697093e-15
3.87588082e-15
2.569212469e-15
1.645851004e-15
9.759196471e-16
4.887835192e-16
2.093239081e-16
8.555961302e-07
1.539175868e-07
2.582442416e-08
4.392590577e-09
1.597767255e-09
1.360242253e-09
1.573994154e-09
1.853097783e-09
2.020810548e-09
1.985853086e-09
1.84664007e-09
1.687017505e-09
1.529662311e-09
1.378673618e-09
1.229525423e-09
1.092018376e-09
9.621058653e-10
8.41118792e-10
7.296344325e-10
6.279215056e-10
5.360098309e-10
4.537189441e-10
3.80694093e-10
3.164334044e-10
2.603330588e-10
2.117326196e-10
1.699709361e-10
1.344328678e-10
1.045613173e-10
7.983495525e-11
5.97313674e-11
4.37237829e-11
3.128149979e-11
2.186163913e-11
1.492584163e-11
9.964851784e-12
6.519226743e-12
4.195572971e-12
2.672722982e-12
1.700665142e-12
1.09360065e-12
7.191259504e-13
4.877012206e-13
3.413796196e-13
2.448922659e-13
1.780989499e-13
1.299371428e-13
9.440121558e-14
6.804233353e-14
4.851579424e-14
3.412619351e-14
2.364215018e-14
1.616704144e-14
1.096059661e-14
7.381455134e-15
4.916439919e-15
3.192417588e-15
1.950816585e-15
1.029479072e-15
4.553432915e-16
1.226247484e-06
2.425760507e-07
4.50336345e-08
7.968266835e-09
2.015102465e-09
1.32277757e-09
1.468630717e-09
1.761993406e-09
2.008359859e-09
2.078644426e-09
1.957843207e-09
1.768655414e-09
1.583649076e-09
1.42074604e-09
1.271194609e-09
1.132739545e-09
1.003983886e-09
8.845530847e-10
7.743261541e-10
6.732439893e-10
5.812077757e-10
4.980243576e-10
4.233971395e-10
3.569357977e-10
2.981675469e-10
2.465716669e-10
2.016035559e-10
1.627113568e-10
1.293651112e-10
1.011062313e-10
7.75389523e-11
5.824310426e-11
4.27719224e-11
3.068500735e-11
2.151076779e-11
1.474571228e-11