/*--------------------------------*- C++ -*----------------------------------*\
  =========                 |
  \\      /  F ield         | OpenFOAM: The Open Source CFD Toolbox
   \\    /   O peration     | Website:  https://openfoam.org
    \\  /    A nd           | Version:  10
     \\/     M anipulation  |
\*---------------------------------------------------------------------------*/
FoamFile
{
    format      ascii;
    class       volScalarField;
    location    "3000";
    object      CH;
}
// * * * * * * * * * * * * * * * * * * * * * * * * * * * * * * * * * * * * * //

dimensions      [0 0 0 0 0 0 0];

internalField   nonuniform List<scalar> 
5170
(
1.692964739e-78
7.581585067e-79
1.373218245e-79
9.087086057e-81
1.041106366e-82
1.276659219e-75
5.355289177e-76
8.117419763e-77
3.544194028e-78
3.051278226e-80
9.357161862e-73
3.649270369e-73
4.453997785e-74
1.388492924e-75
7.612704054e-78
6.720046239e-70
2.435724918e-70
2.415729447e-71
5.614383632e-73
4.983864478e-76
4.759802611e-67
1.615707646e-67
1.334694412e-68
2.420788066e-70
0
3.351031843e-64
1.079592759e-64
7.449399944e-66
1.109051506e-67
0
2.370929413e-61
7.331363548e-62
4.29426605e-63
5.367371242e-65
0
1.679630533e-58
5.013397583e-59
2.644815369e-60
2.95477745e-62
0
1.204215712e-55
3.611284849e-56
1.777462854e-57
1.873564372e-59
0
8.804186755e-53
2.761298036e-53
1.313036621e-54
1.62022871e-56
0
6.608598558e-50
2.271949634e-50
1.146061591e-51
3.410677717e-53
0
5.084927732e-47
2.009984499e-47
1.278455635e-48
1.532286599e-49
0
4.02792851e-44
1.929597985e-44
1.954925702e-45
8.157745253e-46
5.853416956e-46
3.271719905e-41
1.994166649e-41
3.927443859e-42
4.296816273e-42
5.13288332e-42
2.735626891e-38
2.239052205e-38
9.445353952e-39
2.170622516e-38
3.151487848e-38
2.320239227e-35
2.684259627e-35
2.468722337e-35
1.007715577e-34
1.903267864e-34
1.987932067e-32
3.43902099e-32
6.568769558e-32
4.202751762e-31
1.15130939e-30
1.674871631e-29
4.508433794e-29
1.704669258e-28
1.615566123e-27
6.977147623e-27
1.322341824e-26
5.761943224e-26
4.073429289e-25
5.402834401e-24
4.234957023e-23
8.841156016e-24
6.758820046e-23
8.783225871e-22
1.640475512e-20
2.607098622e-19
2.254605979e-21
8.64306821e-22
5.796310166e-22
1.091667055e-21
2.343149285e-21
1.223616953e-21
8.293960664e-22
6.656154024e-22
9.767620447e-22
1.287770634e-21
7.079100681e-22
5.051428029e-22
4.480477285e-22
6.040431877e-22
7.023110284e-22
4.176490141e-22
3.44925513e-22
3.114156299e-22
4.125955848e-22
4.031773086e-22
2.578493622e-22
2.558076489e-22
2.393884041e-22
2.754578587e-22
2.324554977e-22
1.66996834e-22
1.891373532e-22
1.848706529e-22
1.804356529e-22
1.343794667e-22
1.119897689e-22
1.38608776e-22
1.38220899e-22
1.155650883e-22
7.787283482e-23
7.711730045e-23
1.007043534e-22
1.005708145e-22
7.356853675e-23
4.65538342e-23
5.436708281e-23
7.288047598e-23
7.189842135e-23
4.804153281e-23
2.981244426e-23
3.91955318e-23
5.280049372e-23
5.118065261e-23
3.283884985e-23
2.077513177e-23
2.898961293e-23
3.863100654e-23
3.67998676e-23
2.367985623e-23
1.564743052e-23
2.20380466e-23
2.877168456e-23
2.706197428e-23
1.798172671e-23
1.251485104e-23
1.702348693e-23
2.187496149e-23
2.048242022e-23
1.426488355e-23
1.043482076e-23
9.300561647e-24
1.285499653e-23
1.417555317e-23
1.136226201e-23
8.831360445e-24
5.505271198e-24
7.463122173e-24
6.969259692e-24
3.470007092e-24
2.36119801e-24
7.512250576e-23
2.906213577e-23
9.081576916e-24
2.461183017e-24
1.235585148e-24
1.230157362e-20
4.783596212e-21
1.11806683e-21
3.353668171e-22
1.267010539e-22
2.104470568e-18
9.398245512e-19
2.165223571e-19
9.103503172e-20
2.642229516e-20
3.682436606e-16
1.907870281e-16
4.153173523e-17
2.790164787e-17
5.254584045e-18
8.046269615e-15
1.112801213e-14
7.727797614e-15
9.946612735e-15
8.640907345e-16
1.738531942e-21
2.084847101e-20
6.176235112e-19
2.805464636e-17
1.607090198e-15
9.103523129e-20
1.148502994e-18
3.417182138e-17
1.430135134e-15
6.511133736e-14
1.340919677e-18
1.535164873e-17
3.926276814e-16
1.326166115e-14
4.010655244e-13
2.087017916e-16
2.795198586e-15
7.657597097e-14
2.381733741e-12
5.792617625e-11
6.356851209e-16
7.19926256e-15
1.549905395e-13
3.426906613e-12
5.469847157e-11
1.123216514e-15
1.065170196e-14
1.809755753e-13
2.972802918e-12
3.325758282e-11
1.699175542e-15
1.42208563e-14
1.975065953e-13
2.369311066e-12
1.842448557e-11
5.406790022e-15
5.494366286e-14
8.318619168e-13
1.002518012e-11
8.869619413e-11
1.737954001e-14
1.670270689e-13
2.002590885e-12
1.799318253e-11
1.22931843e-10
4.046677907e-14
3.296305418e-13
2.958019641e-12
1.969952104e-11
1.038935135e-10
7.921467015e-14
4.873642052e-13
3.191415889e-12
1.636094119e-11
6.878885825e-11
1.484963118e-13
7.347335333e-13
4.106326466e-12
1.983110468e-11
8.521739096e-11
3.272990296e-13
1.400589966e-12
7.208947854e-12
3.378529591e-11
1.432658549e-10
7.157280544e-13
2.523046552e-12
1.112204075e-11
4.552607332e-11
1.68754809e-10
1.354573755e-12
3.803029149e-12
1.381715627e-11
4.782093069e-11
1.515205625e-10
2.202656257e-12
4.946724308e-12
1.469436212e-11
4.308522723e-11
1.181884743e-10
3.462323493e-12
6.59289289e-12
1.693395218e-11
4.542185813e-11
1.203352261e-10
7.380074209e-12
1.322677399e-11
3.303315071e-11
9.054830741e-11
2.529282953e-10
1.843531164e-11
3.069552984e-11
7.014380572e-11
1.768126854e-10
4.546921252e-10
3.864203375e-11
5.889304753e-11
1.194027694e-10
2.674114568e-10
6.144927704e-10
6.4456946e-11
9.079225621e-11
1.646072875e-10
3.298839197e-10
6.831078452e-10
8.902221675e-11
1.178235311e-10
1.947665726e-10
3.555997003e-10
6.753017664e-10
1.089921722e-10
1.376512775e-10
2.117426777e-10
3.595907883e-10
6.394193109e-10
1.301016062e-10
1.596562647e-10
2.351812617e-10
3.83247235e-10
6.594506464e-10
1.70953919e-10
2.078715797e-10
3.023613644e-10
4.883489134e-10
8.378699816e-10
2.58817009e-10
3.130447162e-10
4.512431171e-10
7.216777774e-10
1.22570994e-09
4.197076697e-10
5.013019165e-10
7.068474533e-10
1.100873596e-09
1.816480559e-09
6.751465715e-10
7.926755115e-10
1.084199477e-09
1.629550957e-09
2.590931735e-09
1.047578419e-09
1.208924934e-09
1.603904605e-09
2.326720227e-09
3.566104497e-09
1.57948274e-09
1.79641016e-09
2.321664098e-09
3.265586517e-09
4.848381247e-09
2.375218306e-09
2.671357709e-09
3.382818189e-09
4.645205121e-09
6.729131647e-09
3.683837837e-09
4.110174014e-09
5.129397253e-09
6.92277811e-09
9.851933159e-09
6.086973097e-09
6.749326578e-09
8.325933173e-09
1.107976241e-08
1.552859835e-08
1.116991431e-08
1.229019375e-08
1.493688122e-08
1.948188821e-08
2.665352956e-08
2.427213763e-08
2.622683486e-08
3.074977683e-08
3.823436496e-08
4.93994064e-08
5.467602974e-08
5.745838094e-08
6.368870784e-08
7.343076018e-08
8.691342342e-08
9.440379453e-08
9.70560465e-08
1.028591225e-07
1.11573071e-07
1.229740714e-07
1.213556401e-07
1.232546277e-07
1.273460433e-07
1.333152432e-07
1.407762001e-07
1.294537903e-07
1.305852392e-07
1.329540184e-07
1.361946231e-07
1.397432321e-07
1.240746087e-07
1.242794486e-07
1.244758278e-07
1.240100342e-07
1.217404437e-07
9.387049618e-08
9.193096976e-08
8.749723577e-08
8.051726967e-08
7.138175536e-08
4.004722176e-08
3.913427182e-08
3.721217325e-08
3.44982039e-08
3.122268964e-08
1.687560652e-08
1.655233873e-08
1.586687551e-08
1.489028976e-08
1.369560031e-08
7.219298201e-09
7.100575237e-09
6.847550642e-09
6.483752616e-09
6.032741634e-09
3.123801495e-09
3.078791067e-09
2.982486389e-09
2.843010944e-09
2.66831244e-09
1.363393826e-09
1.34590012e-09
1.308360066e-09
1.253693193e-09
1.184689208e-09
5.991177683e-10
5.92190951e-10
5.772928307e-10
5.555056139e-10
5.278390608e-10
2.648103141e-10
2.62027771e-10
2.560323494e-10
2.472349736e-10
2.360099536e-10
1.176980381e-10
1.165672384e-10
1.141271288e-10
1.105365946e-10
1.059369205e-10
5.261976455e-11
5.215548799e-11
5.115236242e-11
4.967276325e-11
4.777081911e-11
2.367925119e-11
2.348677881e-11
2.307044749e-11
2.245505865e-11
2.166161236e-11
1.073518327e-11
1.06546023e-11
1.048011849e-11
1.022171536e-11
9.887636703e-12
4.907357134e-12
4.873272671e-12
4.79939685e-12
4.689795362e-12
4.547739773e-12
2.263578264e-12
2.249003521e-12
2.217384545e-12
2.170397717e-12
2.109356729e-12
1.054036269e-12
1.047732451e-12
1.034044939e-12
1.013673714e-12
9.871525957e-13
4.955700551e-13
4.928109553e-13
4.868153636e-13
4.778795991e-13
4.662234559e-13
2.352316043e-13
2.340093247e-13
2.313514427e-13
2.273851946e-13
2.222023578e-13
1.12689278e-13
1.121413064e-13
1.109490395e-13
1.091679441e-13
1.068369474e-13
5.445713001e-14
5.420863399e-14
5.366772412e-14
5.285894579e-14
5.179907907e-14
2.653353924e-14
2.641964708e-14
2.6171658e-14
2.580059525e-14
2.531381351e-14
1.303282088e-14
1.298021613e-14
1.286565981e-14
1.269417116e-14
1.246903436e-14
6.475033125e-15
6.451248576e-15
6.399512117e-15
6.322202155e-15
6.220966942e-15
3.315592836e-15
3.304374627e-15
3.279840848e-15
3.244096028e-15
3.199493416e-15
1.887341645e-15
1.88466351e-15
1.878920709e-15
1.870538107e-15
1.859888121e-15
1.22621173e-15
1.226338029e-15
1.226626362e-15
1.227064874e-15
1.227627441e-15
9.053143612e-16
9.061171468e-16
9.078476982e-16
9.103740184e-16
9.135558149e-16
7.301331774e-16
7.308228807e-16
7.322936456e-16
7.344046714e-16
7.369998477e-16
6.129896162e-16
6.1332773e-16
6.140289878e-16
6.149852597e-16
6.160649186e-16
5.185807136e-16
5.185853871e-16
5.18562476e-16
5.184442956e-16
5.181347517e-16
4.384223173e-16
4.3820818e-16
4.37713167e-16
4.369025102e-16
4.357122737e-16
2.721151697e-14
1.214699802e-12
4.895826434e-12
6.091442525e-10
3.871866186e-10
1.673261051e-10
6.985387373e-11
4.437063847e-10
4.902974163e-10
3.331450204e-10
1.840166908e-10
2.507011479e-10
4.159719666e-10
4.331433692e-10
3.41677367e-10
2.392166301e-10
2.470913465e-10
5.493533527e-10
9.185615599e-10
1.136129365e-09
1.168268958e-09
1.085193892e-09
9.824174327e-10
9.953594638e-10
1.267695259e-09
1.839044176e-09
2.662412953e-09
3.689912014e-09
4.940417083e-09
6.561191638e-09
8.94580902e-09
1.293040338e-08
2.013811787e-08
3.384122155e-08
5.97648629e-08
9.832597704e-08
1.319796006e-07
1.462675401e-07
1.416459097e-07
1.179034655e-07
6.480374221e-08
2.886991426e-08
1.281681731e-08
5.695045206e-09
2.535791574e-09
1.131831522e-09
5.06484792e-10
2.272929127e-10
1.023466672e-10
4.627973697e-11
2.10371476e-11
9.623781162e-12
4.435185194e-12
2.060849184e-12
9.660194314e-13
4.569121494e-13
2.180528147e-13
1.049669901e-13
5.094739792e-14
2.492209658e-14
1.228768254e-14
6.13898289e-15
3.165686374e-15
1.851617091e-15
1.228043681e-15
9.159649758e-16
7.388994568e-16
6.167486744e-16
5.177244393e-16
4.346236203e-16
8.875235631e-14
6.140099156e-13
1.646768277e-13
2.181708545e-13
3.171417782e-14
7.967136072e-12
1.742073301e-10
2.623538383e-11
3.745176173e-12
4.047348879e-13
2.725753951e-11
3.527156245e-10
3.611740345e-09
5.496396059e-10
4.378021247e-11
3.584124433e-09
6.263849543e-08
1.007350135e-06
7.689622225e-08
5.046803231e-09
1.688381429e-09
1.737271365e-08
1.304004786e-07
1.569587662e-08
1.41550368e-09
5.761811586e-10
3.808955759e-09
1.611367863e-08
2.863880985e-09
3.483658608e-10
2.032777867e-10
1.03045332e-09
3.823214356e-09
6.800073646e-09
1.443232426e-09
1.693050249e-09
1.67800562e-08
1.461520451e-07
1.227255735e-06
1.547657706e-07
1.577847415e-09
1.142230933e-08
6.989395185e-08
3.825094762e-07
6.896172277e-08
9.192790198e-10
4.948425017e-09
2.191056267e-08
8.205645647e-08
2.031406745e-08
4.484892839e-10
1.912023275e-09
6.83907608e-09
2.16780481e-08
1.079016822e-08
6.780870202e-10
3.929401782e-09
2.144336471e-08
1.140504157e-07
5.859466652e-07
1.105511376e-09
6.08713679e-09
3.056359031e-08
1.458107265e-07
6.766869725e-07
1.046974257e-09
4.711011968e-09
1.883878515e-08
6.878412103e-08
2.299161786e-07
7.506746597e-10
2.791854764e-09
9.264106017e-09
2.818788672e-08
7.996457681e-08
4.860342389e-10
1.567901325e-09
4.623200273e-09
1.287809938e-08
3.475036451e-08
5.175094352e-10
1.908899391e-09
7.001775985e-09
2.601319839e-08
9.817065984e-08
1.198824319e-09
4.774629834e-09
1.827576597e-08
6.791179076e-08
2.465502655e-07
1.885898998e-09
6.623004777e-09
2.208079372e-08
7.045895068e-08
2.161969829e-07
2.170355136e-09
6.656528328e-09
1.947785643e-08
5.471416152e-08
1.483039391e-07
2.091742099e-09
5.722928947e-09
1.512706607e-08
3.883012129e-08
9.736541861e-08
1.842290672e-09
4.61401357e-09
1.13390097e-08
2.746139903e-08
6.591670758e-08
1.604149079e-09
3.788487626e-09
8.918974442e-09
2.097428771e-08
4.939283395e-08
1.60250221e-09
3.750329081e-09
8.882676078e-09
2.124498127e-08
5.115880282e-08
2.04759826e-09
4.868794985e-09
1.175832158e-08
2.866739404e-08
7.015536779e-08
2.944460727e-09
6.878222627e-09
1.625124036e-08
3.857713006e-08
9.146444242e-08
4.165980944e-09
9.306243628e-09
2.099839242e-08
4.75410941e-08
1.073319287e-07
5.614051213e-09
1.190772671e-08
2.555189123e-08
5.509151862e-08
1.18425832e-07
7.314435224e-09
1.477874664e-08
3.029279711e-08
6.250876448e-08
1.282564714e-07
9.488092363e-09
1.840519774e-08
3.63180574e-08
7.217443009e-08
1.411368382e-07
1.270464636e-08
2.390124179e-08
4.580926103e-08
8.802493734e-08
1.624174959e-07
1.812131221e-08
3.33031631e-08
6.214648524e-08
1.144091414e-07
1.946909393e-07
2.785595835e-08
4.973881581e-08
8.8836585e-08
1.517623575e-07
2.313813248e-07
4.568126946e-08
7.670289242e-08
1.252639393e-07
1.898369731e-07
2.525816611e-07
7.626812363e-08
1.134272143e-07
1.611085258e-07
2.102075475e-07
2.375029583e-07
1.158131735e-07
1.494770768e-07
1.851444096e-07
2.117003566e-07
2.051047128e-07
1.453732088e-07
1.678813013e-07
1.861408013e-07
1.869808272e-07
1.449902286e-07
1.541357496e-07
1.642627904e-07
1.64156117e-07
1.374764791e-07
9.030498059e-08
1.437691088e-07
1.393532053e-07
1.163033358e-07
8.017392701e-08
5.392413135e-08
1.108101492e-07
8.767342009e-08
6.316470911e-08
4.452988796e-08
3.086122029e-08
5.557595789e-08
4.294213822e-08
3.219127212e-08
2.353953925e-08
1.68608093e-08
2.54932425e-08
2.041048756e-08
1.584585483e-08
1.198157704e-08
8.857778559e-09
1.154277504e-08
9.51867527e-09
7.613786244e-09
5.929693265e-09
4.511972465e-09
5.202221699e-09
4.391226589e-09
3.600363371e-09
2.876114629e-09
2.24511373e-09
2.341481089e-09
2.013542684e-09
1.684956211e-09
1.375434786e-09
1.097938355e-09
1.054055906e-09
9.202531228e-10
7.833136542e-10
6.513418653e-10
5.301701643e-10
4.749784438e-10
4.199479985e-10
3.62658175e-10
3.063990192e-10
2.536966029e-10
2.144036439e-10
1.916099079e-10
1.675428439e-10
1.435320988e-10
1.206498682e-10
9.702835097e-11
8.752464474e-11
7.73689678e-11
6.709851219e-11
5.716345018e-11
4.40674915e-11
4.007858944e-11
3.577147386e-11
3.136358089e-11
2.704299498e-11
2.010935997e-11
1.842322442e-11
1.658578568e-11
1.468534963e-11
1.280042817e-11
9.231257684e-12
8.512892412e-12
7.723597734e-12
6.899447035e-12
6.073244486e-12
4.267544815e-12
3.958815239e-12
3.617078842e-12
3.257155136e-12
2.89280239e-12
1.98852099e-12
1.854566156e-12
1.705288552e-12
1.546824124e-12
1.384974332e-12
9.344756811e-13
8.757564171e-13
8.099186104e-13
7.3952565e-13
6.670412146e-13
4.430006338e-13
4.169845094e-13
3.876520089e-13
3.560848157e-13
3.233380157e-13
2.118478356e-13
2.001956133e-13
1.869919993e-13
1.726984936e-13
1.577712853e-13
1.021686375e-13
9.689427522e-14
9.089099124e-14
8.435818264e-14
7.7495419e-14
4.967203979e-14
4.726041174e-14
4.450467352e-14
4.149205447e-14
3.831082058e-14
2.433519787e-14
2.322225435e-14
2.194614168e-14
2.054551938e-14
1.90599058e-14
1.201586493e-14
1.14993187e-14
1.090560259e-14
1.025229614e-14
9.557543062e-15
6.015879238e-15
5.779825914e-15
5.504600716e-15
5.206323104e-15
4.893395946e-15
3.115848058e-15
3.026525041e-15
2.930822055e-15
2.834021294e-15
2.736426866e-15
1.839375189e-15
1.817214985e-15
1.792748373e-15
1.766308955e-15
1.737485068e-15
1.228633321e-15
1.229327283e-15
1.229202617e-15
1.227380877e-15
1.222682722e-15
9.194743135e-16
9.251801133e-16
9.301598031e-16
9.332635381e-16
9.332051473e-16
7.416249631e-16
7.457061117e-16
7.486972781e-16
7.495639791e-16
7.472313733e-16
6.176567102e-16
6.183566911e-16
6.176171531e-16
6.146604871e-16
6.087224921e-16
5.170091682e-16
5.147886574e-16
5.109612398e-16
5.050091858e-16
4.96451827e-16
4.329114306e-16
4.289786306e-16
4.234624463e-16
4.160458918e-16
4.06453236e-16
8.230134393e-16
4.021702435e-17
5.775740309e-18
1.579919375e-18
5.155871451e-19
1.623768039e-19
4.669167541e-20
1.268049353e-20
3.507607893e-21
1.139086706e-21
5.252850065e-22
3.553410687e-22
2.987386881e-22
2.70561898e-22
2.476534956e-22
2.233399764e-22
1.962692639e-22
1.671694279e-22
1.376262526e-22
1.09350912e-22
8.378799221e-23
6.189252371e-23
4.407468918e-23
3.026486026e-23
2.005042496e-23
1.282648345e-23
7.931284144e-24
4.746349669e-24
2.75262741e-24
1.549356992e-24
8.478066052e-25
4.519046895e-25
2.352305154e-25
1.199742138e-25
6.022278178e-26
2.991704767e-26
1.479496177e-26
7.31607782e-27
3.620318031e-27
1.785146302e-27
8.696136987e-28
4.140838554e-28
1.907893608e-28
8.438122056e-29
3.563461481e-29
1.433098712e-29
5.486094962e-30
2.001652681e-30
6.979072397e-31
2.334193959e-31
7.526363366e-32
2.356038986e-32
7.239435672e-33
2.225438088e-33
7.065294318e-34
2.408174365e-34
8.817914697e-35
3.085461565e-35
6.713191009e-36
3.691255209e-37
1.492488049e-14
5.892243846e-16
6.482298594e-17
1.242506607e-17
2.700664732e-18
5.84786275e-19
1.26289141e-19
2.969300036e-20
8.972707011e-21
4.113479285e-21
2.766951006e-21
2.295956495e-21
2.063263133e-21
1.887471867e-21
1.710190767e-21
1.514674749e-21
1.303627016e-21
1.087578713e-21
8.787006261e-22
6.869710443e-22
5.193902871e-22
3.796164982e-22
2.682037347e-22
1.83188796e-22
1.210134137e-22
7.737114962e-23
4.792250479e-23
2.878511633e-23
1.678624203e-23
9.515188097e-24
5.250423263e-24
2.825695681e-24
1.487071225e-24
7.680137203e-25
3.911592464e-25
1.976418403e-25
9.965581071e-26
5.032416361e-26
2.542383545e-26
1.276760365e-26
6.308760654e-27
3.032999903e-27
1.404853854e-27
6.224611167e-28
2.627119593e-28
1.054492067e-28
4.027400093e-29
1.466746584e-29
5.110778038e-30
1.711063863e-30
5.532945089e-31
1.739952499e-31
5.375692288e-32
1.659470692e-32
5.260937769e-33
1.770626375e-33
6.32698103e-34
2.162615763e-34
4.823497514e-35
2.907239752e-36
1.383052971e-12
2.973647686e-14
9.812963719e-16
6.968240494e-17
8.788789502e-18
1.400257817e-18
2.635546846e-19
6.63673867e-20
2.509426997e-20
1.383469346e-20
9.857806954e-21
8.168664812e-21
7.294647918e-21
6.738018437e-21
6.228055021e-21
5.631742784e-21
4.926428276e-21
4.150458673e-21
3.365649933e-21
2.627996713e-21
1.978853969e-21
1.438893971e-21
1.011736589e-21
6.886858355e-22
4.543299771e-22
2.908259759e-22
1.80852313e-22
1.093760802e-22
6.440353873e-23
3.696326376e-23
2.070456147e-23
1.133992591e-23
6.089307787e-24
3.21821702e-24
1.682893153e-24
8.761972766e-25
4.566232233e-25
2.385718727e-25
1.244506235e-25
6.421096395e-26
3.23784525e-26
1.577437348e-26
7.35860084e-27
3.26781901e-27
1.377702102e-27
5.514010925e-28
2.099370664e-28
7.630437962e-29
2.659317788e-29
8.930381642e-30
2.905069538e-30
9.212272458e-31
2.872175028e-31
8.919801249e-32
2.814954494e-32
9.23631051e-33
3.142288522e-33
1.009324868e-33
2.114804317e-34
1.240420321e-35
1.692111723e-10
3.236515265e-12
5.735257053e-14
1.534098213e-15
7.995634736e-17
7.039498782e-18
1.090524575e-18
3.031438396e-19
1.229027077e-19
6.259818154e-20
3.842683341e-20
2.777612177e-20
2.268693891e-20
1.988527266e-20
1.789128738e-20
1.602753337e-20
1.416235315e-20
1.219352e-20
1.012081116e-20
8.06008587e-21
6.155549066e-21
4.512587389e-21
3.183604885e-21
2.168412386e-21
1.430703017e-21
9.170348767e-22
5.723648807e-22
3.484977903e-22
2.073035749e-22
1.206442482e-22
6.880213636e-23
3.853079565e-23
2.125223619e-23
1.159229531e-23
6.28675251e-24
3.408808334e-24
1.85420346e-24
1.01000622e-24
5.466404142e-25
2.904605407e-25
1.496013951e-25
7.387992691e-26
3.471841664e-26
1.545788057e-26
6.512925474e-27
2.600831359e-27
9.880260026e-28
3.588789959e-28
1.253423839e-28
4.233465278e-29
1.39046318e-29
4.465548345e-30
1.410870037e-30
4.420506238e-31
1.387834345e-31
4.404591189e-32
1.398434513e-32
4.078555759e-33
7.624021986e-34
4.213989717e-35
6.48441407e-11
1.567660807e-12
3.162162839e-14
9.884048004e-16
8.14818444e-17
1.707102323e-17
5.514530536e-18
2.080774321e-18
8.708547511e-19
4.039090936e-19
2.114323401e-19
1.269092822e-19
8.737209891e-20
6.739731041e-20
5.597630984e-20
4.808561909e-20
4.142221262e-20
3.511343881e-20
2.911177254e-20
2.356849582e-20
1.839324262e-20
1.376562167e-20
9.87361501e-21
6.803022832e-21
4.520450416e-21
2.910155358e-21
1.823060652e-21
1.115362453e-21
6.683167744e-22
3.930861769e-22
2.274518858e-22
1.298082406e-22
7.331742276e-23
4.117015673e-23
2.31099076e-23
1.302746469e-23
7.379536506e-24
4.176184446e-24
2.334322907e-24
1.271171402e-24
6.659099203e-25
3.323903812e-25
1.57139255e-25
7.016454953e-26
2.95959204e-26
1.182679659e-26
4.499273178e-27
1.639379487e-27
5.758143411e-28
1.961737615e-28
6.51897021e-29
2.12309251e-29
6.803195506e-30
2.151662983e-30
6.722354319e-31
2.061625691e-31
6.053586824e-32
1.561291888e-32
2.494425684e-33
1.295789786e-34
2.309701096e-11
8.255336022e-13
1.911123259e-14
5.347089217e-16
7.693406709e-17
3.489695632e-17
1.775981734e-17
8.868007302e-18
4.379232049e-18
2.198415067e-18
1.156883406e-18
6.569372451e-19
4.115862415e-19
2.861287206e-19
2.172038274e-19
1.749264019e-19
1.448146476e-19
1.201735373e-19
9.832537411e-20
7.865463097e-20
6.113503928e-20
4.599005197e-20
3.337338264e-20
2.334218614e-20
1.574127778e-20
1.025980241e-20
6.483084546e-21
3.987263277e-21
2.396381244e-21
1.413297269e-21
8.21325131e-22
4.722863161e-22
2.69924572e-22
1.541341753e-22
8.843995993e-23
5.118053504e-23
2.981198933e-23
1.731506571e-23
9.88784308e-24
5.469533101e-24
2.893771275e-24
1.451708998e-24
6.873263512e-25
3.067365964e-25
1.2929146e-25
5.171864906e-26
1.97566888e-26
7.254242237e-27
2.575996425e-27
8.895032607e-28
3.00064386e-28
9.925131038e-29
3.226014482e-29
1.029994244e-29
3.210335442e-30
9.586740741e-31
2.628919567e-31
5.991721681e-32
7.987289893e-33
3.82723626e-34
1.857157572e-10
1.145634103e-11
4.232826762e-13
1.276688132e-14
6.425902382e-16
1.816892331e-16
7.84664084e-17
3.661114855e-17
1.740647712e-17
8.429702824e-18
4.241162936e-18
2.281651247e-18
1.350204429e-18
8.935313796e-19
6.581513622e-19
5.260225599e-19
4.409739918e-19
3.758723686e-19
3.182185237e-19
2.635433583e-19
2.114216506e-19
1.634382144e-19
1.213974831e-19
8.669123444e-20
5.962674587e-20
3.962346341e-20
2.54879447e-20
1.590645462e-20
9.655410025e-21
5.721209986e-21
3.324945532e-21
1.906458086e-21
1.085788565e-21
6.186043235e-22
3.550196919e-22
2.062380278e-22
1.209933904e-22
7.085804718e-23
4.077541316e-23
2.269453439e-23
1.205414123e-23
6.056936184e-24
2.865542158e-24
1.274976822e-24
5.353374368e-25
2.137347807e-25
8.186946468e-26
3.032062967e-26
1.091924145e-26
3.83847701e-27
1.320469273e-27
4.451945583e-28
1.471154713e-28
4.749867126e-29
1.482420223e-29
4.354725058e-30
1.137198858e-30
2.341930703e-31
2.622086441e-32
1.13942006e-33
1.404270706e-08
1.079504425e-09
5.081771138e-11
1.464019151e-12
4.457797467e-14
3.770161956e-15
7.454032889e-16
2.10590538e-16
6.992541515e-17
2.630901118e-17
1.12256302e-17
5.448065155e-18
3.016094142e-18
1.910090216e-18
1.374572974e-18
1.097376424e-18
9.380860322e-19
8.296109528e-19
7.389113699e-19
6.50556632e-19
5.589665352e-19
4.644439791e-19
3.707414397e-19
2.832906174e-19
2.068774438e-19
1.445330437e-19
9.672208983e-20
6.223899007e-20
3.870814872e-20
2.338396553e-20
1.377693031e-20
7.955295955e-21
4.531606952e-21
2.56664211e-21
1.456255881e-21
8.327063585e-22
4.807869378e-22
2.778876868e-22
1.58378988e-22
8.768239737e-23
4.651900916e-23
2.339819319e-23
1.108479793e-23
4.932332585e-24
2.067041848e-24
8.236462425e-25
3.158916403e-25
1.177962199e-25
4.297952213e-26
1.538659627e-26
5.4070508e-27
1.863404506e-27
6.282040835e-28
2.059413805e-28
6.472728997e-29
1.890381875e-29
4.801128599e-30
9.210866238e-31
8.968555093e-32
3.450682932e-33
8.378679277e-09
8.401805137e-10
6.946236287e-11
3.309476689e-12
1.023366446e-13
5.902678907e-15
9.211081563e-16
2.587369546e-16
9.422290186e-17
3.907500066e-17
1.782625157e-17
8.930318448e-18
4.977483929e-18
3.14167763e-18
2.260333175e-18
1.823283232e-18
1.593405636e-18
1.454848763e-18
1.348956087e-18
1.24600867e-18
1.132302627e-18
1.003846111e-18
8.628667346e-19
7.153362513e-19
5.694087029e-19
4.334847137e-19
3.146205428e-19
2.175938619e-19
1.436136288e-19
9.081202151e-20
5.52316574e-20
3.255215274e-20
1.876446941e-20
1.067365482e-20
6.030189841e-21
3.394274082e-21
1.907096212e-21
1.068002018e-21
5.907047429e-22
3.190595983e-22
1.667417372e-22
8.358434859e-23
3.977867191e-23
1.781991563e-23
7.4951497e-24
2.989988657e-24
1.148782593e-24
4.302210983e-25
1.58245859e-25
5.737594453e-26
2.0511642e-26
7.213188038e-27
2.483279415e-27
8.295069449e-28
2.642741975e-28
7.756411213e-29
1.953617239e-29
3.615527333e-30
3.229089335e-31
1.117787264e-32
3.252509589e-09
4.267799694e-10
4.588085337e-11
3.748056056e-12
1.785843877e-13
7.72786155e-15
8.006901935e-16
2.02730971e-16
8.078570284e-17
3.857179403e-17
1.998211341e-17
1.099211194e-17
6.50679595e-18
4.261497594e-18
3.150162986e-18
2.611153393e-18
2.353734021e-18
2.22456793e-18
2.141056216e-18
2.058309547e-18
1.95284588e-18
1.814872914e-18
1.643696903e-18
1.445078607e-18
1.229060992e-18
1.008036321e-18
7.948128229e-19
6.003910389e-19
4.331851618e-19
2.977410718e-19
1.947865791e-19
1.216650031e-19
7.30243499e-20
4.249624423e-20
2.419880686e-20
1.357495443e-20
7.502606043e-21
4.079406796e-21
2.174560722e-21
1.132663325e-21
5.727276038e-22
2.802079881e-22
1.323444097e-22
5.991639312e-23
2.56481022e-23
1.035061925e-23
3.998870822e-24
1.503296809e-24
5.552334763e-25
2.024286996e-25
7.298762015e-26
2.599738718e-26
9.100370512e-27
3.096288738e-27
1.003803289e-27
2.98837663e-28
7.588444516e-29
1.398667712e-29
1.210516825e-30
3.953499225e-32
2.607803918e-09
4.830829665e-10
7.519092738e-11
9.675143757e-12
8.140425987e-13
4.095423121e-14
2.6491177e-15
4.337650902e-16
1.317604165e-16
5.4994088e-17
2.712196781e-17
1.46779627e-17
8.58763582e-18
5.565649543e-18
4.113652334e-18
3.465163342e-18
3.215121114e-18
3.146938152e-18
3.142333083e-18
3.134876166e-18
3.087523925e-18
2.981404166e-18
2.810413866e-18
2.578217709e-18
2.295986834e-18
1.980202867e-18
1.650261467e-18
1.32586047e-18
1.024435534e-18
7.593510038e-19
5.387588531e-19
3.65078094e-19
2.361051146e-19
1.459942163e-19
8.679264901e-20
4.991234763e-20
2.783482659e-20
1.503130864e-20
7.85643086e-21
3.979215586e-21
1.954864455e-21
9.297563441e-22
4.279876404e-22
1.91073976e-22
8.262398084e-23
3.424238038e-23
1.35135187e-23
5.120426608e-24
1.891832479e-24
6.889902975e-25
2.485618283e-25
8.886222558e-26
3.135617984e-26
1.08044551e-26
3.560693845e-27
1.080270374e-27
2.80102858e-28
5.270270374e-29
4.620542781e-30
1.499476637e-31
9.684356843e-08
1.408669498e-08
1.949091762e-09
2.495203868e-10
2.772264883e-11
1.933060364e-12
9.145093037e-14
6.861872645e-15
1.058152945e-15
2.413299656e-16
7.13475723e-17
2.675451354e-17
1.256717248e-17
7.286576565e-18
5.186263881e-18
4.41440418e-18
4.233164833e-18
4.305776604e-18
4.462385992e-18
4.608905562e-18
4.690298558e-18
4.674834843e-18
4.5476485e-18
4.307801833e-18
3.966236474e-18
3.543475236e-18
3.066782348e-18
2.56675722e-18
2.073684478e-18
1.614127445e-18
1.208226329e-18
8.681390917e-19
5.978015394e-19
3.940861804e-19
2.486696591e-19
1.503674039e-19
8.723276427e-20
4.855821448e-20
2.591628192e-20
1.322418354e-20
6.466065637e-21
3.04228731e-21
1.381541968e-21
6.069617476e-22
2.590686785e-22
1.077517185e-22
4.347051916e-23
1.68909523e-23
6.317111056e-24
2.297069534e-24
8.231187769e-25
2.928222901e-25
1.032486657e-25
3.572654021e-26
1.18935219e-26
3.671921496e-27
9.782460139e-28
1.912711455e-28
1.757489333e-29
5.937367111e-31
1.258391318e-07
2.022229555e-08
3.062864946e-09
4.378634136e-10
5.760539726e-11
6.616495793e-12
5.026601994e-13
2.958073634e-14
2.641225974e-15
4.457603349e-16
1.14055782e-16
3.782617304e-17
1.572004485e-17
8.550452705e-18
6.137118416e-18
5.520372113e-18
5.605202179e-18
5.969593991e-18
6.410118295e-18
6.812224762e-18
7.104064927e-18
7.239997906e-18
7.194880903e-18
6.962014021e-18
6.551651032e-18
5.989019725e-18
5.311298327e-18
4.563425207e-18
3.793160686e-18
3.045734785e-18
2.358949732e-18
1.759693525e-18
1.262476723e-18
8.700796334e-19
5.755012253e-19
3.650372792e-19
2.218496582e-19
1.289909052e-19
7.16070406e-20
3.792625682e-20
1.914439282e-20
9.224280454e-21
4.24845943e-21
1.873444523e-21
7.969602049e-22
3.291303415e-22
1.32389347e-22
5.203919819e-23
1.99179992e-23
7.38237275e-24
2.656158463e-24
9.369329547e-25
3.265655529e-25
1.121749945e-25
3.734505248e-26
1.164801044e-26
3.188351706e-27
6.579178182e-28
6.55894866e-29
2.41184216e-30
5.812907024e-08
1.180325392e-08
2.163461764e-09
3.68743059e-10
5.836455645e-11
8.371916433e-12
1.016017905e-12
8.009032915e-14
5.067112132e-15
4.946779189e-16
9.572259532e-17
2.988743727e-17
1.333653174e-17
8.466234091e-18
7.225881785e-18
7.373346832e-18
8.051168513e-18
8.907437021e-18
9.755721153e-18
1.048106143e-17
1.100671893e-17
1.128226246e-17
1.128005751e-17
1.0993907e-17
1.043792891e-17
9.644369436e-18
8.661456569e-18
7.550051736e-18
6.378813072e-18
5.216182505e-18
4.122388077e-18
3.144717161e-18
2.313557289e-18
1.640311027e-18
1.120063662e-18
7.359881459e-19
4.648615179e-19
2.817999599e-19
1.635873081e-19
9.069475859e-20
4.788846888e-20
2.402098879e-20
1.145438697e-20
5.204651216e-21
2.26371627e-21
9.465900351e-22
3.822023858e-22
1.498629474e-22
5.744668553e-23
2.156453184e-23
7.903314362e-24
2.81763252e-24
9.784949563e-25
3.319230904e-25
1.093488161e-25
3.415975081e-26
9.577599078e-27
2.11204979e-27
2.394318965e-28
9.944804961e-30
2.384518894e-08
5.735321187e-09
1.240872639e-09
2.507306206e-10
4.63029276e-11
7.900623753e-12
1.195161274e-12
1.492691979e-13
1.225093077e-14
7.937737187e-16
8.161480134e-17
2.02401916e-17
1.092893874e-17
9.495433328e-18
1.008706021e-17
1.135627061e-17
1.279868949e-17
1.417340564e-17
1.534578202e-17
1.623419195e-17
1.678879782e-17
1.698242995e-17
1.680732405e-17
1.627350985e-17
1.540750962e-17
1.425135518e-17
1.286059588e-17
1.130218156e-17
9.651664944e-18
7.992698515e-18
6.407436448e-18
4.963207197e-18
3.709662316e-18
2.675299308e-18
1.86201953e-18
1.25049971e-18
8.105046341e-19
5.066929047e-19
3.049778263e-19
1.762596926e-19
9.750002455e-20
5.143791624e-20