/*--------------------------------*- C++ -*----------------------------------*\
  =========                 |
  \\      /  F ield         | OpenFOAM: The Open Source CFD Toolbox
   \\    /   O peration     | Website:  https://openfoam.org
    \\  /    A nd           | Version:  10
     \\/     M anipulation  |
\*---------------------------------------------------------------------------*/
FoamFile
{
    format      ascii;
    class       volScalarField;
    location    "3000";
    object      CH2;
}
// * * * * * * * * * * * * * * * * * * * * * * * * * * * * * * * * * * * * * //

dimensions      [0 0 0 0 0 0 0];

internalField   nonuniform List<scalar> 
5170
(
1.672488351e-61
8.657997075e-63
2.038609067e-62
1.440941948e-61
5.069322154e-60
7.01245509e-62
1.096599152e-61
4.414004546e-61
2.114678207e-60
9.801300103e-61
1.696705547e-60
2.58367657e-60
9.457627181e-61
2.708712241e-60
1.406533408e-59
4.835590043e-60
5.903756488e-60
1.015119957e-60
0
0
1.373362557e-60
1.528568704e-60
6.501713106e-61
0
0
3.908834143e-59
1.37355375e-59
1.232747137e-60
0
0
2.842161801e-56
9.006595323e-57
5.239876393e-58
6.621341672e-60
0
2.116413851e-53
6.551351308e-54
3.454542914e-55
3.950074645e-57
0
1.603340835e-50
5.055848628e-51
2.518804835e-52
2.843383689e-54
0
1.244527989e-47
4.165948763e-48
2.053979037e-49
3.093690193e-51
0
9.954211302e-45
3.70349778e-45
2.013412926e-46
7.855542266e-48
0
8.184005035e-42
3.541274023e-42
2.534762705e-43
3.578920046e-44
2.261660545e-44
6.934801835e-39
3.659880134e-39
4.259434348e-40
1.884123289e-40
1.551258016e-40
6.025012257e-36
4.048503517e-36
9.048990976e-37
9.916112224e-37
9.492715509e-37
5.37748893e-33
4.827223476e-33
2.238568333e-33
5.02603665e-33
5.750070734e-33
4.85130736e-30
6.096531671e-30
5.948668963e-30
2.343416157e-29
3.481305974e-29
4.403787066e-27
8.155523723e-27
1.604303984e-26
9.833518442e-26
2.109861172e-25
3.911147915e-24
1.108624882e-23
4.223961169e-23
3.814751966e-22
1.280289212e-21
3.236960709e-21
1.462548328e-20
1.028952958e-19
1.297120864e-18
7.778330373e-18
2.259539558e-18
1.768339724e-17
2.279081341e-16
4.072408975e-15
4.791634959e-14
3.015705682e-21
1.135177996e-21
7.364309809e-22
1.408529565e-21
3.146649681e-21
1.243143226e-21
1.000078307e-21
7.99515414e-22
1.166739849e-21
1.306392404e-21
6.033362629e-22
5.832807016e-22
5.254798016e-22
6.533770766e-22
6.422788896e-22
3.68525993e-22
3.643473165e-22
3.469915102e-22
3.813297789e-22
3.4924123e-22
2.414346637e-22
2.473753943e-22
2.36904276e-22
2.66649077e-22
2.161177834e-22
1.647044952e-22
1.891768265e-22
1.877019877e-22
1.845678342e-22
1.346719886e-22
1.161167248e-22
1.437583982e-22
1.454363312e-22
1.266086909e-22
8.516738032e-23
8.377670255e-23
1.082771835e-22
1.10010751e-22
8.586058424e-23
5.542019101e-23
6.205373234e-23
8.163075432e-23
8.201328458e-23
6.049408026e-23
3.870723504e-23
4.676686211e-23
6.174451588e-23
6.111014777e-23
4.340185399e-23
2.839439083e-23
3.615136131e-23
4.709048077e-23
4.622597134e-23
3.386669357e-23
2.255522238e-23
2.842878102e-23
3.657895932e-23
3.568695984e-23
2.681154378e-23
1.86215097e-23
1.573438878e-23
2.186587708e-23
2.540165461e-23
2.024454063e-23
1.554452685e-23
9.4085062e-24
1.283186327e-23
1.266767092e-23
6.342286705e-24
4.260472385e-24
1.270690693e-22
4.359372578e-23
1.391413185e-23
3.447352683e-24
1.854059589e-24
2.066648641e-20
6.657940042e-21
1.469206665e-21
3.084527243e-22
1.464904985e-22
3.522292152e-18
1.241949853e-18
2.78847713e-19
7.342365547e-20
3.191849347e-20
6.053663229e-16
2.342853957e-16
5.263422461e-17
1.91820513e-17
7.111936826e-18
1.070643049e-13
4.458747668e-14
9.748598789e-15
5.681183333e-15
1.576859178e-15
1.422740381e-11
5.750999347e-12
1.761325385e-12
1.98199428e-12
3.229339021e-13
4.741745317e-16
6.087384964e-15
1.876464143e-13
8.685339513e-12
2.954753969e-10
1.439023643e-15
1.553960682e-14
3.877549077e-13
1.399045743e-11
2.628289835e-10
2.791224826e-15
2.764434166e-14
6.197756047e-13
1.625737406e-11
1.854607672e-10
6.971210727e-15
7.732313093e-14
1.873144841e-12
4.823200313e-11
8.892983923e-10
1.606652652e-14
1.770884675e-13
3.861924914e-12
7.817235832e-11
1.170323681e-09
3.055775187e-14
3.077319992e-13
5.716513961e-12
8.741646295e-11
1.005273335e-09
5.812751998e-14
5.480940148e-13
8.712011255e-12
9.739560562e-11
7.9847562e-10
1.332889912e-13
1.264792727e-12
1.633562818e-11
1.506101007e-10
1.172413031e-09
3.502556948e-13
3.229345509e-12
3.493642179e-11
2.960055095e-10
2.048257121e-09
8.692330915e-13
7.170640152e-12
6.294795062e-11
4.401576608e-10
2.513721442e-09
2.109854226e-12
1.333818569e-11
9.029189295e-11
5.108145999e-10
2.433005118e-09
4.396657246e-12
2.070766983e-11
1.132834135e-10
5.483998611e-10
2.307158024e-09
8.619660537e-12
3.350995843e-11
1.663297425e-10
7.542886453e-10
3.087620707e-09
1.728228463e-11
5.95699764e-11
2.629911063e-10
1.087782813e-09
4.108973792e-09
3.576454075e-11
1.027141307e-10
3.880927388e-10
1.411768143e-09
4.752198286e-09
7.046317925e-11
1.656608464e-10
5.261189587e-10
1.669565965e-09
5.014219674e-09
1.306769145e-10
2.579920087e-10
6.936982644e-10
1.937322197e-09
5.274910328e-09
2.405704477e-10
4.203397144e-10
1.002228081e-09
2.57779103e-09
6.662295187e-09
4.677551947e-10
7.526622088e-10
1.638090653e-09
3.928833744e-09
9.648416273e-09
8.989091435e-10
1.351419132e-09
2.694729718e-09
5.965129588e-09
1.364728115e-08
1.593977909e-09
2.255692532e-09
4.132811184e-09
8.425154224e-09
1.787123618e-08
2.558568167e-09
3.443740881e-09
5.849640842e-09
1.106929724e-08
2.1919575e-08
3.787780178e-09
4.8913359e-09
7.815394703e-09
1.388473589e-08
2.58844784e-08
5.365121951e-09
6.710265715e-09
1.020369648e-08
1.721396167e-08
3.058736215e-08
7.557668967e-09
9.241997836e-09
1.354873463e-08
2.19532358e-08
3.756342754e-08
1.092388731e-08
1.312520924e-08
1.867756272e-08
2.936069001e-08
4.872484568e-08
1.648383252e-08
1.951246152e-08
2.707747774e-08
4.128903993e-08
6.657670202e-08
2.572996988e-08
3.003046267e-08
4.065607902e-08
6.042279679e-08
9.476577312e-08
4.150512193e-08
4.770701913e-08
6.285156352e-08
9.087721477e-08
1.391460165e-07
6.926816878e-08
7.870058717e-08
1.016157241e-07
1.428770383e-07
2.121048349e-07
1.20715946e-07
1.355732314e-07
1.71227574e-07
2.343611134e-07
3.384934056e-07
2.231576785e-07
2.475933987e-07
3.057251979e-07
4.068372298e-07
5.688634109e-07
4.479158757e-07
4.896290025e-07
5.873424917e-07
7.534751198e-07
1.010533834e-06
9.823433515e-07
1.053157696e-06
1.215248752e-06
1.48021438e-06
1.867672128e-06
2.166149068e-06
2.266485487e-06
2.489879973e-06
2.834102634e-06
3.29699627e-06
3.913494294e-06
4.004949133e-06
4.200944295e-06
4.483554099e-06
4.830689026e-06
5.194567746e-06
5.239535921e-06
5.33158395e-06
5.452572985e-06
5.578505814e-06
5.386419405e-06
5.387198897e-06
5.383571315e-06
5.363450359e-06
5.308768775e-06
4.707826932e-06
4.680091602e-06
4.615129198e-06
4.50535163e-06
4.337097182e-06
3.530127084e-06
3.482851109e-06
3.375590465e-06
3.203895262e-06
2.959481391e-06
1.97234605e-06
1.920155128e-06
1.80877758e-06
1.650397294e-06
1.462079767e-06
8.21482041e-07
8.026183189e-07
7.630149839e-07
7.075244033e-07
6.411665529e-07
3.461814234e-07
3.39579891e-07
3.255960126e-07
3.057056217e-07
2.814042227e-07
1.481225182e-07
1.457013292e-07
1.40541879e-07
1.331240019e-07
1.239255878e-07
6.408175008e-08
6.31628345e-08
6.119661594e-08
5.834845206e-08
5.477972346e-08
2.795413416e-08
2.75966273e-08
2.682942585e-08
2.57120589e-08
2.430132249e-08
1.227469409e-08
1.213307031e-08
1.182847332e-08
1.138300647e-08
1.081727145e-08
5.420778921e-09
5.363889709e-09
5.241319336e-09
5.061468704e-09
4.83198453e-09
2.407289067e-09
2.3841783e-09
2.334311734e-09
2.260938462e-09
2.166946298e-09
1.075438222e-09
1.065954769e-09
1.045465976e-09
1.015247089e-09
9.764044954e-10
4.836803519e-10
4.797513775e-10
4.712532307e-10
4.58692725e-10
4.424990008e-10
2.192071716e-10
2.175635097e-10
2.140046468e-10
2.087344907e-10
2.01921495e-10
1.002016502e-10
9.950714855e-11
9.800195584e-11
9.576907872e-11
9.287539714e-11
4.623814121e-11
4.59418319e-11
4.529908246e-11
4.434412806e-11
4.310390154e-11
2.155983108e-11
2.14324287e-11
2.115587953e-11
2.074450216e-11
2.020934222e-11
1.017542496e-11
1.012063431e-11
1.00016705e-11
9.824627913e-12
9.594187208e-12
4.883613928e-12
4.860673294e-12
4.810914749e-12
4.736998975e-12
4.641059512e-12
2.417371263e-12
2.408982283e-12
2.390900834e-12
2.364344766e-12
2.330466375e-12
1.285573064e-12
1.28455463e-12
1.282578163e-12
1.28026064e-12
1.278450013e-12
8.102708681e-13
8.140456807e-13
8.226164538e-13
8.363688991e-13
8.561917048e-13
7.020508055e-13
7.105840842e-13
7.297085e-13
7.59759694e-13
8.019382178e-13
9.0997704e-13
9.255500107e-13
9.602291411e-13
1.014113119e-12
1.088549955e-12
1.469214537e-12
1.491785691e-12
1.541775038e-12
1.618708452e-12
1.723584941e-12
2.315235228e-12
2.343854994e-12
2.407009577e-12
2.503588495e-12
2.634094368e-12
3.391662148e-12
3.424828865e-12
3.497807264e-12
3.608855886e-12
3.757883633e-12
4.635598592e-12
4.671296228e-12
4.74964935e-12
4.868371216e-12
5.026760215e-12
5.969179237e-12
6.005122223e-12
6.083833387e-12
6.202639723e-12
6.36030043e-12
7.291205578e-12
7.3250403e-12
7.398969499e-12
7.510146792e-12
7.656933984e-12
8.491080864e-12
8.520994968e-12
8.586205325e-12
8.68390599e-12
8.812243162e-12
9.320050769e-12
9.345183599e-12
9.39984977e-12
9.481462547e-12
9.588145371e-12
7.102177626e-10
1.945922998e-09
9.897009042e-10
9.171736497e-09
9.038351504e-09
5.884494302e-09
3.666452674e-09
5.254556222e-09
8.445853913e-09
8.849234339e-09
7.435878868e-09
6.483849217e-09
8.706003662e-09
1.081492371e-08
1.139853603e-08
1.105816007e-08
1.089827876e-08
1.34545768e-08
1.886441552e-08
2.530970144e-08
3.133565565e-08
3.651586376e-08
4.131377335e-08
4.71976942e-08
5.644200495e-08
7.16126083e-08
9.579820563e-08
1.334811683e-07
1.922352278e-07
2.868735093e-07
4.482322234e-07
7.342393971e-07
1.260822529e-06
2.217122319e-06
3.671497607e-06
5.079124309e-06
5.643581353e-06
5.234244454e-06
4.175662355e-06
2.747412848e-06
1.332381128e-06
5.936777976e-07
2.635241233e-07
1.170332362e-07
5.207111176e-08
2.322034015e-08
1.038054737e-08
4.653766544e-09
2.093582882e-09
9.459544076e-10
4.297549773e-10
1.965409618e-10
9.058304256e-11
4.211872425e-11
1.978335262e-11
9.410653533e-12
4.564960524e-12
2.304251543e-12
1.278340478e-12
8.740950495e-13
8.388994208e-13
1.152433994e-12
1.81212482e-12
2.743065342e-12
3.881242257e-12
5.156891862e-12
6.48896194e-12
7.775947502e-12
8.915622899e-12
9.673544671e-12
1.458446738e-09
9.626301681e-10
1.330838122e-10
7.114430717e-11
4.908437026e-11
1.201687216e-08
2.41875345e-07
1.931501729e-08
1.328358073e-09
5.067584921e-10
4.908490985e-09
5.47127074e-08
5.730107177e-08
7.85908224e-09
1.556087685e-09
5.40936335e-08
9.558652702e-07
1.546003909e-05
1.125290552e-06
7.042112238e-08
4.324143294e-08
5.505940763e-07
5.821824696e-06
5.41378906e-07
4.388170287e-08
2.340659911e-08
2.19245785e-07
1.596266322e-06
2.023122816e-07
2.018984557e-08
1.261336138e-08
9.590342864e-08
5.921664053e-07
1.322955079e-07
2.102500511e-08
1.859790498e-08
1.632475453e-07
1.278358272e-06
8.823792611e-06
1.120333149e-06
2.819712514e-08
2.248894177e-07
1.576948907e-06
1.010101504e-05
1.563903681e-06
2.641024387e-08
1.71300964e-07
9.593035411e-07
4.754756158e-06
9.445762261e-07
2.017984469e-08
1.109822759e-07
5.359944643e-07
2.328076659e-06
5.528695348e-07
1.672789951e-08
8.559812754e-08
3.94825526e-07
1.685478481e-06
3.252326337e-06
2.271982801e-08
1.217807688e-07
6.009411262e-07
2.829067504e-06
1.172817023e-05
2.675421784e-08
1.279858976e-07
5.532369041e-07
2.225850378e-06
7.881098825e-06
2.636148919e-08
1.105858112e-07
4.224968998e-07
1.50886853e-06
4.789352048e-06
2.411242153e-08
9.077697247e-08
3.163032445e-07
1.040925019e-06
3.066279862e-06
2.27130463e-08
7.959923044e-08
2.632117653e-07
8.339141664e-07
2.419701724e-06
2.770132776e-08
9.753453456e-08
3.323790762e-07
1.107663707e-06
3.547818493e-06
3.785841068e-08
1.281008872e-07
4.18549259e-07
1.326855434e-06
4.02884234e-06
4.861841714e-08
1.521673758e-07
4.603825859e-07
1.349698561e-06
3.786968593e-06
5.74062149e-08
1.656645063e-07
4.65410202e-07
1.272693425e-06
3.339619045e-06
6.40580068e-08
1.71972171e-07
4.535130606e-07
1.171769526e-06
2.917591055e-06
6.983974604e-08
1.764523489e-07
4.417190095e-07
1.08978132e-06
2.59687141e-06
7.743053661e-08
1.863028408e-07
4.471760507e-07
1.061862159e-06
2.434916698e-06
9.040248817e-08
2.092698498e-07
4.858646278e-07
1.119277843e-06
2.49075772e-06
1.123606771e-07
2.512806561e-07
5.6546097e-07
1.264110221e-06
2.724378306e-06
1.472790637e-07
3.178133851e-07
6.90903416e-07
1.490266124e-06
3.077818914e-06
2.009279701e-07
4.174632819e-07
8.737328077e-07
1.807514021e-06
3.535301886e-06
2.836188281e-07
5.672412079e-07
1.140382728e-06
2.248711412e-06
4.108791308e-06
4.141761992e-07
7.979806231e-07
1.535366054e-06
2.85758893e-06
4.794245321e-06
6.332060595e-07
1.164552789e-06
2.122667848e-06
3.665706554e-06
5.536043728e-06
1.009052482e-06
1.751987936e-06
2.966548239e-06
4.635992634e-06
6.189155766e-06
1.667864245e-06
2.664303648e-06
4.061659513e-06
5.589182227e-06
6.519681808e-06
2.766404925e-06
3.914405621e-06
5.200969634e-06
6.198032452e-06
6.282284724e-06
4.233783677e-06
5.184586816e-06
5.960033362e-06
6.185644902e-06
5.460428245e-06
5.432062139e-06
5.869390506e-06
5.981795132e-06
5.520869359e-06
4.286146758e-06
5.718108739e-06
5.641999173e-06
5.219116893e-06
4.294353961e-06
2.900527733e-06
5.102377317e-06
4.678006005e-06
3.927692282e-06
2.835383491e-06
1.840739197e-06
3.916190516e-06
3.288001931e-06
2.441992884e-06
1.662250659e-06
1.111759069e-06
2.422885357e-06
1.826701659e-06
1.3135391e-06
9.242360939e-07
6.387519368e-07
1.149963632e-06
8.902108161e-07
6.677141525e-07
4.880474554e-07
3.491644657e-07
5.254618773e-07
4.21612257e-07
3.277116277e-07
2.478938024e-07
1.832243107e-07
2.375881829e-07
1.962042341e-07
1.571012742e-07
1.224256166e-07
9.317401604e-08
1.0697113e-07
9.037564589e-08
7.415437897e-08
5.926957232e-08
4.628105827e-08
4.809869217e-08
4.138553743e-08
3.464969458e-08
2.829655189e-08
2.259470424e-08
2.162957336e-08
1.889065629e-08
1.60851423e-08
1.337925215e-08
1.089311158e-08
9.736164609e-09
8.610104903e-09
7.437210027e-09
6.284866996e-09
5.204935e-09
4.390245043e-09
3.924090857e-09
3.431747791e-09
2.940424408e-09
2.472089353e-09
1.984909331e-09
1.79067974e-09
1.58309115e-09
1.373128055e-09
1.170002389e-09
9.007781084e-10
8.193135761e-10
7.313436353e-10
6.41312211e-10
5.530651605e-10
4.108213279e-10
3.764110159e-10
3.389136484e-10
3.00133374e-10
2.616756654e-10
1.885369079e-10
1.738895574e-10
1.577982958e-10
1.410012995e-10
1.241702139e-10
8.716902663e-11
8.088358386e-11
7.392947443e-11
6.661074286e-11
5.921045845e-11
4.065000976e-11
3.793218072e-11
3.49073424e-11
3.170251293e-11
2.843862393e-11
1.914780247e-11
1.796743538e-11
1.664851804e-11
1.524550037e-11
1.381163609e-11
9.136800787e-12
8.628030419e-12
8.060008201e-12
7.457499172e-12
6.84576003e-12
4.451626567e-12
4.24317368e-12
4.014240031e-12
3.777796187e-12
3.548053426e-12
2.265641786e-12
2.19877717e-12
2.132474888e-12
2.075639022e-12
2.038986056e-12
1.279041991e-12
1.288613764e-12
1.31320595e-12
1.36136936e-12
1.444169047e-12
9.021733987e-13
9.673542197e-13
1.061819893e-12
1.196178829e-12
1.384618166e-12
8.962182292e-13
1.023401912e-12
1.199859717e-12
1.44133674e-12
1.760635918e-12
1.25062324e-12
1.459538688e-12
1.733787477e-12
2.083657054e-12
2.519128715e-12
1.947337863e-12
2.227056637e-12
2.582472763e-12
3.019968757e-12
3.544588143e-12
2.908742569e-12
3.244761205e-12
3.661805666e-12
4.161795306e-12
4.744413711e-12
4.068135844e-12
4.441203974e-12
4.895448377e-12
5.428199985e-12
6.034009659e-12
5.353446154e-12
5.740456677e-12
6.203843318e-12
6.736787875e-12
7.32952017e-12
6.682766259e-12
7.059625307e-12
7.503963296e-12
8.005738987e-12
8.552105276e-12
7.954735839e-12
8.298290446e-12
8.697335374e-12
9.139841561e-12
9.611353797e-12
9.070521842e-12
9.364581095e-12
9.700926169e-12
1.006681292e-11
1.044755313e-11
9.801173639e-12
1.004066735e-11
1.031046736e-11
1.05982296e-11
1.08901116e-11
1.342129974e-12
5.929331699e-14
6.667816757e-15
1.200651364e-15
2.705089705e-16
6.304853302e-17
1.394792842e-17
2.945177362e-18
6.077377514e-19
1.276862369e-19
3.048076225e-20
1.063758751e-20
6.372852433e-21
5.252814231e-21
4.73358813e-21
4.276596237e-21
3.775482117e-21
3.229753972e-21
2.668863905e-21
2.127285964e-21
1.634600073e-21
1.210658957e-21
8.644277899e-22
5.95267154e-22
3.956385599e-22
2.540826219e-22
1.578981936e-22
9.513099685e-23
5.570098486e-23
3.17969788e-23
1.777424925e-23
9.789413963e-24
5.358399296e-24
2.948725847e-24
1.653844752e-24
9.576506753e-25
5.766046884e-25
3.601077761e-25
2.306202288e-25
1.491232124e-25
9.598871725e-26
6.090342612e-26
3.790434551e-26
2.31295482e-26
1.388032934e-26
8.236806583e-27
4.865939929e-27
2.881092929e-27
1.719539291e-27
1.038597368e-27
6.36073449e-28
3.950130807e-28
2.482311404e-28
1.569784177e-28
9.867541374e-29
6.005843191e-29
3.340119017e-29
1.497573837e-29
3.655954888e-30
2.090217945e-31
1.572271572e-11
5.703181575e-13
3.673165611e-14
3.734145889e-15
5.519343856e-16
9.621018581e-17
1.756987533e-17
3.28210481e-18
6.60393295e-19
1.682201384e-19
6.943923996e-20
4.64713678e-20
3.934019357e-20
3.565823802e-20
3.243825492e-20
2.891258043e-20
2.502928444e-20
2.09819385e-20
1.701924624e-20
1.335018583e-20
1.01234746e-20
7.419796281e-21
5.256832867e-21
3.601218428e-21
2.386960434e-21
1.532306815e-21
9.539816664e-22
5.769940257e-22
3.39775217e-22
1.953717485e-22
1.101489442e-22
6.125875184e-23
3.389387686e-23
1.886970332e-23
1.071212729e-23
6.276511895e-24
3.818694377e-24
2.403930826e-24
1.547206373e-24
1.002700824e-24
6.455850174e-25
4.092553445e-25
2.544035819e-25
1.551056101e-25
9.307616196e-26
5.52916613e-26
3.273684415e-26
1.944636571e-26
1.165190695e-26
7.066912963e-27
4.345266443e-27
2.708205005e-27
1.707114555e-27
1.082134774e-27
6.811619851e-28
4.146554311e-28
2.306676272e-28
1.03988852e-28
2.654657037e-29
1.674894969e-30
3.931194783e-11
9.862941594e-13
4.063277348e-14
3.193470109e-15
4.271732343e-16
7.170245004e-17
1.323015097e-17
2.891525976e-18
8.941040538e-19
4.102768566e-19
2.449449185e-19
1.740438534e-19
1.425854369e-19
1.275596325e-19
1.174811997e-19
1.068434731e-19
9.410335638e-20
7.974703055e-20
6.497708372e-20
5.09374788e-20
3.848791935e-20
2.807513129e-20
1.980238261e-20
1.352346529e-20
8.953849883e-21
5.756011517e-21
3.598504113e-21
2.191640619e-21
1.303129896e-21
7.585090096e-22
4.338523171e-22
2.452405538e-22
1.381080307e-22
7.832112361e-23
4.528523321e-23
2.698721138e-23
1.665077449e-23
1.058543636e-23
6.849479276e-24
4.445716676e-24
2.859162899e-24
1.807972836e-24
1.120744213e-24
6.817916939e-25
4.087422572e-25
2.429933729e-25
1.442442351e-25
8.60462141e-26
5.183201237e-26
3.161803684e-26
1.955133096e-26
1.224791018e-26
7.753557101e-27
4.930341616e-27
3.107920535e-27
1.890164086e-27
1.048743047e-27
4.692541452e-28
1.16572617e-28
7.241322756e-30
2.015973186e-09
3.361881227e-11
7.141212662e-13
2.163378811e-14
1.289336152e-15
1.350608378e-16
2.49035351e-17
8.3312951e-18
3.816343102e-18
2.070309768e-18
1.24030658e-18
8.020272788e-19
5.579461451e-19
4.07597964e-19
3.418969364e-19
3.02168495e-19
2.682247985e-19
2.325291959e-19
1.941937691e-19
1.554590771e-19
1.192571362e-19
8.777795911e-20
6.216248906e-20
4.250154767e-20
2.815598342e-20
1.812974833e-20
1.137780434e-20
6.97608827e-21
4.188730097e-21
2.46996356e-21
1.435728333e-21
8.270467454e-22
4.75638021e-22
2.757288337e-22
1.628689462e-22
9.889598003e-23
6.188678709e-23
3.967212733e-23
2.573641991e-23
1.667143101e-23
1.067041449e-23
6.707020716e-24
4.133613523e-24
2.503221511e-24
1.496906189e-24
8.898245013e-25
5.294829569e-25
3.172648471e-25
1.922178072e-25
1.180012557e-25
7.343349662e-26
4.627605609e-26
2.944318804e-26
1.879085996e-26
1.186286438e-26
7.20335389e-27
3.979372573e-27
1.758673356e-27
4.143483594e-28
2.489712271e-29
1.940941234e-09
4.221317984e-11
8.130401377e-13
2.454241048e-14
1.932476254e-15
3.976782354e-16
1.258870811e-16
5.093944147e-17
2.353361678e-17
1.204111885e-17
6.713800574e-18
4.023352009e-18
2.566257233e-18
1.732886047e-18
1.244332515e-18
9.299290851e-19
7.817657764e-19
6.64025162e-19
5.540122957e-19
4.513840724e-19
3.543008179e-19
2.665400232e-19
1.921004015e-19
1.329721324e-19
8.876907915e-20
5.7429958e-20
3.617635304e-20
2.227906179e-20
1.346088014e-20
8.005697597e-21
4.704675888e-21
2.745450267e-21
1.601646092e-21
9.421773185e-22
5.641890762e-22
3.463728565e-22
2.181651757e-22
1.399564604e-22
9.034234097e-23
5.796839671e-23
3.665203627e-23
2.274062501e-23
1.384589205e-23
8.301684243e-24
4.931029798e-24
2.922436469e-24
1.7398996e-24
1.045893615e-24
6.367002779e-25
3.92950265e-25
2.458012164e-25
1.556185915e-25
9.939682971e-26
6.360676158e-26
4.018760362e-26
2.435399317e-26
1.338053175e-26
5.829312193e-27
1.288267258e-27
7.65937305e-29
2.687815478e-09
8.588385239e-11
1.874515908e-12
4.831192293e-14
4.827349743e-15
1.389937134e-15
5.252844871e-16
2.263821372e-16
1.107128883e-16
5.784558795e-17
3.216147404e-17
1.898624801e-17
1.186237998e-17
7.811105019e-18
5.38947549e-18
3.867078253e-18
2.834969204e-18
2.284744793e-18
1.865114967e-18
1.498796232e-18
1.171897332e-18
8.868388661e-19
6.472073884e-19
4.551367547e-19
3.085638513e-19
2.021923881e-19
1.284790811e-19
7.950204343e-20
4.812011866e-20
2.862718434e-20
1.682654385e-20
9.827960626e-21
5.74236576e-21
3.383581734e-21
2.028023284e-21
1.243835423e-21
7.799207786e-22
4.956696868e-22
3.153954984e-22
1.986605395e-22
1.229518756e-22
7.458565348e-23
4.443053902e-23
2.612831407e-23
1.528772717e-23
8.975583954e-24
5.324195124e-24
3.203517228e-24
1.957484889e-24
1.213924953e-24
7.628768835e-25
4.848314911e-25
3.105323106e-25
1.990382435e-25
1.257976787e-25
7.614354962e-26
4.167610191e-26
1.795323783e-26
3.715030617e-27
2.21470788e-28
5.904822146e-09
3.493188922e-10
1.08415071e-11
2.936971254e-13
1.348306366e-14
3.375174242e-15
1.362970798e-15
6.266753209e-16
3.202613924e-16
1.715190804e-16
9.671612873e-17
5.761925104e-17
3.636005021e-17
2.430117e-17
1.713801345e-17
1.264955378e-17
9.656471056e-18
7.475067709e-18
6.126965166e-18
5.041580409e-18
4.05426173e-18
3.15014568e-18
2.353355054e-18
1.690364852e-18
1.169345643e-18
7.814976142e-19
5.05583155e-19
3.173779243e-19
1.938517643e-19
1.156586397e-19
6.776457841e-20
3.925565515e-20
2.266743139e-20
1.316421327e-20
7.759739035e-21
4.67433769e-21
2.875350799e-21
1.788608841e-21
1.110792201e-21
6.810563752e-22
4.093452237e-22
2.408539428e-22
1.391548354e-22
7.94706561e-23
4.531523908e-23
2.608803614e-23
1.528906508e-23
9.152774577e-24
5.593325189e-24
3.479378391e-24
2.195642735e-24
1.400792831e-24
8.997722428e-25
5.776778207e-25
3.654171468e-25
2.213663776e-25
1.212291433e-25
5.205818273e-26
1.020009977e-26
6.21410873e-28
1.042529522e-07
8.818167798e-09
4.338329776e-10
1.359682317e-11
4.508039143e-13
4.016875678e-14
8.796536902e-15
2.745688312e-15
1.012332433e-15
4.415385594e-16
2.232313928e-16
1.259141946e-16
7.770551355e-17
5.18057813e-17
3.696465664e-17
2.79366997e-17
2.207785506e-17
1.798170712e-17
1.483710258e-17
1.268772709e-17
1.082104924e-17
9.002364169e-18
7.217993914e-18
5.545877552e-18
4.073603653e-18
2.862724015e-18
1.92695824e-18
1.247207961e-18
7.802489858e-19
4.742208708e-19
2.812001336e-19
1.635519885e-19
9.397552307e-20
5.382433688e-20
3.100479216e-20
1.810186705e-20
1.074971838e-20
6.449592851e-21
3.862696205e-21
2.285351103e-21
1.326431142e-21
7.534334091e-22
4.200386257e-22
2.314523512e-22
1.275124123e-22
7.124278588e-23
4.081446506e-23
2.407613274e-23
1.460069752e-23
9.060793242e-24
5.723044164e-24
3.660433209e-24
2.35779077e-24
1.51728151e-24
9.615366103e-25
5.837310011e-25
3.205917936e-25
1.377116078e-25
2.614162986e-26
1.634077152e-27
1.729884079e-07
1.868635853e-08
1.574708416e-09
7.597992673e-11
2.398804981e-12
1.350124868e-13
2.004435417e-14
5.389990937e-15
1.906282356e-15
7.971977503e-16
3.930324692e-16
2.164815126e-16
1.316832902e-16
8.762872974e-17
6.316328216e-17
4.871165497e-17
3.959753151e-17
3.33836978e-17
2.874520724e-17
2.507830567e-17
2.232908541e-17
1.970751988e-17
1.697294595e-17
1.413354592e-17
1.131072765e-17
8.659618806e-18
6.321317587e-18
4.397081507e-18
2.918770263e-18
1.856200534e-18
1.135428073e-18
6.731497962e-19
3.90488106e-19
2.237128696e-19
1.274935855e-19
7.258104933e-20
4.141266162e-20
2.36894546e-20
1.349657042e-20
7.602698683e-21
4.21951005e-21
2.305589119e-21
1.240473557e-21
6.595456953e-22
3.498484234e-22
1.884150073e-22
1.046106414e-22
6.022803113e-23
3.590555399e-23
2.2049715e-23
1.385840096e-23
8.855629988e-24
5.713002417e-24
3.686491782e-24
2.344223342e-24
1.429259645e-24
7.894678963e-25
3.408353462e-25
6.413445912e-26
4.164677918e-27
1.318489943e-07
1.834098634e-08
2.190076462e-09
1.771134421e-10
8.494625514e-12
3.5758731e-13
3.299477498e-14
6.984039977e-15
2.348026421e-15
1.025199752e-15
5.23452485e-16
2.966444027e-16
1.843758123e-16
1.251245551e-16
9.220284792e-17
7.300671313e-17
6.119438291e-17
5.339480102e-17
4.771290821e-17
4.299006937e-17
3.945557761e-17
3.630411748e-17
3.286285564e-17
2.898576764e-17
2.476870586e-17
2.042028324e-17
1.618688222e-17
1.229251212e-17
8.915890953e-18
6.160129839e-18
4.050922561e-18
2.543327241e-18
1.534504621e-18
8.978196817e-19
5.142203694e-19
2.903905908e-19
1.618275873e-19
8.897862225e-20
4.819607863e-20
2.57115303e-20
1.348657467e-20
6.982366811e-21
3.593907792e-21
1.848156568e-21
9.505027567e-22
4.938805678e-22
2.642374201e-22
1.472219636e-22
8.548263035e-23
5.146832379e-23
3.191960403e-23
2.024561764e-23
1.3027506e-23
8.414953264e-24
5.37077873e-24
3.295186602e-24
1.836846955e-24
8.027405644e-25
1.530398678e-25
1.057843399e-26
9.437656745e-08
1.453319931e-08
2.998937779e-09
3.637174032e-10
2.740382493e-11
1.323963019e-12
7.933967639e-14
1.111292959e-14
3.085002213e-15
1.28853582e-15
6.533446183e-16
3.741377763e-16
2.358001626e-16
1.626685085e-16
1.22475542e-16
9.970195015e-17
8.635067231e-17
7.808092683e-17
7.241320456e-17
6.784401971e-17
6.414077368e-17
6.11108814e-17
5.748019835e-17
5.284891306e-17
4.724761259e-17
4.093168596e-17
3.426857161e-17
2.765767219e-17
2.146521879e-17
1.598021849e-17
1.138640796e-17
7.748223732e-18
5.031894878e-18
3.124477284e-18
1.865424683e-18
1.077585463e-18
6.039432037e-19
3.281140186e-19
1.729007612e-19
8.864914425e-20
4.441377172e-20
2.182636629e-20
1.061291902e-20
5.179126315e-21
2.568648707e-21
1.299445095e-21
6.735246983e-22
3.613422337e-22
2.02291306e-22
1.181715909e-22
7.164166628e-23
4.473030668e-23
2.851081545e-23
1.83453745e-23
1.172350178e-23
7.238350191e-24
4.084767269e-24
1.821890087e-24
3.59888059e-25
2.758953107e-26
5.618306481e-07
8.566671068e-08
1.438230055e-08
2.032610084e-09
2.306909048e-10
1.653749383e-11
8.173255197e-13
6.399998471e-14
1.051047591e-14
2.766663022e-15
1.05153751e-15
5.134721986e-16
3.009348842e-16
2.029491707e-16
1.539817877e-16
1.288209848e-16
1.15824283e-16
1.090602634e-16
1.052462712e-16
1.023951556e-16
1.003744847e-16
9.880699675e-17
9.588236979e-17
9.095352821e-17
8.398074614e-17
7.527797191e-17
6.537153685e-17
5.489381596e-17
4.448987323e-17
3.473636484e-17
2.607837194e-17
1.879218488e-17
1.297729977e-17
8.579369754e-18
5.429202638e-18
3.292684713e-18
1.916183859e-18
1.07041053e-18
5.73779751e-19
2.945529584e-19
1.454034261e-19
6.955535198e-20
3.255544734e-20
1.51136013e-20
7.099461399e-21
3.439093757e-21
1.729059092e-21
9.007130219e-22
4.862614442e-22
2.732676969e-22
1.60149251e-22
9.744091652e-23
6.099924021e-23
3.882068159e-23
2.470620425e-23
1.530960112e-23
8.759080204e-24
4.02097531e-24
8.444615985e-25
7.870986024e-26
2.072805052e-06
3.200800157e-07
4.867806927e-08
7.268459241e-09
9.547863252e-10
1.077515685e-10
8.126804034e-12
4.78426088e-13
4.223885682e-14
6.975917701e-15
1.843384078e-15
7.156262679e-16
3.664340689e-16
2.372501984e-16
1.831830171e-16
1.610601747e-16
1.529590082e-16
1.51449464e-16
1.527147177e-16
1.541866751e-16
1.573395226e-16
1.591155106e-16
1.578189303e-16
1.527701978e-16
1.439456892e-16
1.317831733e-16
1.170484919e-16
1.007122724e-16
8.38255547e-17
6.739285393e-17
5.225897125e-17
3.902899115e-17
2.803394624e-17
1.934403389e-17
1.281126633e-17
8.137396192e-18
4.953069058e-18
2.884991869e-18
1.605048176e-18
8.526136597e-19
4.323174659e-19
2.099259528e-19
9.81359952e-20
4.459628133e-20
2.014198903e-20
9.284368229e-21
4.454351335e-21
2.239819482e-21
1.174821002e-21
6.398583325e-22
3.618597272e-22
2.125970428e-22
1.292766304e-22
8.059511928e-23
5.070063017e-23
3.137377685e-23
1.818634615e-23
8.673524478e-24
2.004598129e-24
2.401652339e-25
1.736299184e-06
3.230140789e-07
5.631803322e-08
1.037453344e-08
1.647549348e-09
2.259821682e-10
2.665431412e-11
2.090746311e-12
1.327310919e-13
1.237318818e-14
2.202858159e-15
7.293660659e-16
3.675634474e-16
2.535919636e-16
2.153728696e-16
2.075871525e-16
2.120625927e-16
2.210024191e-16
2.325316345e-16
2.451559369e-16
2.551637622e-16
2.604136032e-16
2.597576139e-16
2.52801332e-16
2.397546881e-16
2.213129781e-16
1.985707929e-16
1.729258968e-16
1.459577854e-16
1.192382367e-16
9.414443665e-17
7.175103047e-17
5.274237845e-17
3.736695238e-17
2.550057329e-17
1.674948232e-17
1.057722996e-17
6.412433157e-18
3.724056145e-18
2.066585131e-18
1.093142735e-18
5.502155666e-19
2.642309623e-19
1.219281916e-19
5.489346144e-20
2.471285409e-20
1.144918517e-20
5.53134838e-21
2.791456951e-21
1.471830535e-21
8.093428056e-22
4.619415428e-22
2.725130341e-22
1.652971753e-22
1.019784908e-22
6.262855119e-23
3.667227232e-23
1.830750288e-23
4.894314274e-24
7.179948092e-25
1.207027035e-06
2.57995313e-07
5.144495746e-08
1.132137092e-08
2.211181491e-09
3.684375119e-10
5.266868235e-11
6.423682877e-12
5.284349502e-13
3.402272337e-14
3.234309319e-15
7.494075634e-16
3.637071873e-16
2.863214131e-16
2.810578551e-16
2.97839799e-16
3.254600076e-16
3.548266312e-16
3.805520255e-16
4.000339818e-16
4.116626857e-16
4.146089608e-16
4.086585323e-16
3.941062618e-16
3.716767416e-16
3.424693191e-16
3.078905243e-16
2.695929591e-16
2.294049884e-16
1.893198892e-16
1.512669852e-16
1.167988996e-16
8.703476336e-17
6.258779585e-17
4.344644848e-17
2.910834469e-17
1.882715547e-17
1.174956816e-17
7.062691087e-18
4.078475816e-18
2.255755558e-18
1.191243959e-18
5.993771131e-19
2.875916138e-19
1.324949207e-19