/*--------------------------------*- C++ -*----------------------------------*\
  =========                 |
  \\      /  F ield         | OpenFOAM: The Open Source CFD Toolbox
   \\    /   O peration     | Website:  https://openfoam.org
    \\  /    A nd           | Version:  10
     \\/     M anipulation  |
\*---------------------------------------------------------------------------*/
FoamFile
{
    format      ascii;
    class       volScalarField;
    location    "3000";
    object      CH2(S);
}
// * * * * * * * * * * * * * * * * * * * * * * * * * * * * * * * * * * * * * //

dimensions      [0 0 0 0 0 0 0];

internalField   nonuniform List<scalar> 
5170
(
1.347738885e-65
2.38065754e-66
8.239845785e-66
5.411105462e-65
1.852315142e-63
1.90744367e-65
4.635341777e-65
1.882093415e-64
8.95485586e-64
3.585856991e-64
6.994700084e-64
1.015792508e-63
4.109110984e-64
1.269927293e-63
1.036773279e-62
2.081402869e-63
2.544846404e-63
4.126971022e-64
0
0
4.994082466e-63
2.171633187e-63
3.832463662e-64
0
0
3.244546118e-60
1.064766057e-60
7.285583101e-62
1.011032078e-63
0
2.398737315e-57
7.620758357e-58
4.435279939e-59
5.605456219e-61
0
1.786190315e-54
5.546513057e-55
2.927927621e-56
3.353567216e-58
0
1.353035991e-51
4.282517651e-52
2.137993428e-53
2.431326654e-55
0
1.050042467e-48
3.53041607e-49
1.747929034e-50
2.698734272e-52
0
8.396236819e-46
3.139806301e-46
1.720821087e-47
6.992976817e-49
1.801462954e-49
6.900289955e-43
3.003236053e-43
2.179325181e-44
3.200708656e-45
2.48653785e-45
5.843864076e-40
3.104391638e-40
3.682543333e-41
1.685275274e-41
1.563730652e-41
5.073565121e-37
3.434072226e-37
7.850160265e-38
8.86205635e-38
9.486857887e-38
4.524106227e-34
4.09364768e-34
1.94404468e-34
4.485652907e-34
5.743271787e-34
4.076405753e-31
5.166890028e-31
5.162172348e-31
2.087610749e-30
3.478622402e-30
3.694119655e-28
6.903418163e-28
1.388811523e-27
8.736304347e-27
2.10922884e-26
3.27282359e-25
9.363051623e-25
3.641068715e-24
3.375193341e-23
1.280371297e-22
2.698218923e-22
1.230305889e-21
8.806129627e-21
1.139061965e-19
7.780907665e-19
1.870816713e-19
1.477726203e-18
1.928871178e-17
3.522794165e-16
4.794063424e-15
2.056541382e-22
7.360704771e-23
4.650693393e-23
9.146378024e-23
2.158466284e-22
8.427849154e-23
6.370439952e-23
4.988761821e-23
7.464987921e-23
8.905269727e-23
4.060852558e-23
3.730351655e-23
3.300379467e-23
4.191053148e-23
4.344369132e-23
2.330790955e-23
2.322934241e-23
2.182910198e-23
2.38712803e-23
2.235226881e-23
1.482264192e-23
1.512304612e-23
1.482405669e-23
1.641330188e-23
1.350173567e-23
9.963282805e-24
1.126344245e-23
1.130426952e-23
1.11586257e-23
8.194397651e-24
6.918097196e-24
8.518315314e-24
8.660594335e-24
7.488559967e-24
5.043450557e-24
4.919352738e-24
6.356188234e-24
6.46593428e-24
4.970021041e-24
3.195943946e-24
3.593911634e-24
4.743902727e-24
4.758525909e-24
3.459424984e-24
2.186005803e-24
2.674635491e-24
3.551932174e-24
3.504390638e-24
2.453136558e-24
1.588467438e-24
2.044073203e-24
2.680161266e-24
2.61411967e-24
1.88661106e-24
1.250357399e-24
1.591516134e-24
2.064836132e-24
2.005669265e-24
1.496605131e-24
1.030938797e-24
8.809687236e-25
1.228678846e-24
1.390081599e-24
1.113067983e-24
8.564633522e-25
5.251224065e-25
7.178009287e-25
6.932836829e-25
3.490135042e-25
2.347841938e-25
6.868619044e-24
2.318615421e-24
7.446635336e-25
1.907702598e-25
1.064072288e-25
1.116447391e-21
3.473530109e-22
7.711997603e-23
1.773676434e-23
9.207680149e-24
1.905081995e-19
6.394915579e-20
1.464895557e-20
4.383173997e-21
2.070508553e-21
3.283990319e-17
1.185501531e-17
2.781726315e-18
1.190899733e-18
4.775825272e-19
5.846434016e-15
2.203217285e-15
5.225112061e-16
3.646560998e-16
1.097854081e-16
9.222712996e-13
3.167169375e-13
9.68411317e-14
1.300386406e-13
2.339456027e-14
3.740042471e-17
4.800292961e-16
1.479506222e-14
6.847913523e-13
2.9566104e-11
1.041177233e-16
1.102898461e-15
2.687130743e-14
9.472541361e-13
2.131716316e-11
1.870627603e-16
1.798774276e-15
3.91432524e-14
1.032011842e-12
1.348548204e-11
4.315809808e-16
4.639563018e-15
1.098714673e-13
2.968161902e-12
5.526610057e-11
9.680773172e-16
1.04649276e-14
2.255611126e-13
4.767508445e-12
6.907254762e-11
1.848771211e-15
1.848479476e-14
3.430586985e-13
5.303734727e-12
5.714127606e-11
3.473641561e-15
3.246914299e-14
5.123082504e-13
5.704055839e-12
4.403575428e-11
7.718493715e-15
7.251634229e-14
9.991986053e-13
9.275751546e-12
7.21288858e-11
2.041660774e-14
1.884097498e-13
2.152532966e-12
1.79539609e-11
1.239753312e-10
5.062103832e-14
4.174333636e-13
3.725641354e-12
2.582651819e-11
1.464427516e-10
1.201024228e-13
7.752674089e-13
5.173347086e-12
2.899161402e-11
1.367296628e-10
2.548026089e-13
1.215993627e-12
6.447257209e-12
3.109432627e-11
1.306261033e-10
5.06952667e-13
1.959919419e-12
9.60961903e-12
4.368650445e-11
1.795279932e-10
1.024559252e-12
3.459489978e-12
1.522263591e-11
6.295016551e-11
2.376488048e-10
2.06298777e-12
5.88854153e-12
2.216631599e-11
8.03471316e-11
2.693173145e-10
3.979935911e-12
9.315588427e-12
2.94291787e-11
9.28463942e-11
2.770506314e-10
7.249101697e-12
1.42608739e-11
3.816927314e-11
1.061086691e-10
2.876897317e-10
1.334146579e-11
2.331302945e-11
5.563954308e-11
1.43443194e-10
3.721733416e-10
2.628138879e-11
4.237824179e-11
9.254024336e-11
2.228126956e-10
5.494185546e-10
5.082479624e-11
7.649231005e-11
1.527412344e-10
3.384968304e-10
7.749180367e-10
8.957298942e-11
1.266949196e-10
2.318900791e-10
4.720023513e-10
9.991059279e-10
1.416909746e-10
1.904127693e-10
3.225343883e-10
6.083301525e-10
1.20018637e-09
2.058201805e-10
2.652268791e-10
4.222839074e-10
7.471765871e-10
1.387431402e-09
2.862338879e-10
3.573034445e-10
5.415569829e-10
9.100967624e-10
1.611791174e-09
3.973165767e-10
4.851701264e-10
7.095669873e-10
1.147431405e-09
1.960572259e-09
5.691081752e-10
6.833273898e-10
9.713426631e-10
1.525309242e-09
2.53148933e-09
8.520348415e-10
1.008175894e-09
1.398107515e-09
2.132240985e-09
3.440334414e-09
1.318216319e-09
1.538019707e-09
2.08093706e-09
3.090374574e-09
4.848325114e-09
2.093631406e-09
2.407776874e-09
3.175327762e-09
4.589068434e-09
7.019510512e-09
3.417024853e-09
3.884910883e-09
5.020929192e-09
7.066937167e-09
1.050308503e-08
5.791241569e-09
6.5127335e-09
8.24599031e-09
1.132101774e-08
1.639852371e-08
1.039460878e-08
1.155922287e-08
1.433426875e-08
1.917649447e-08
2.697272934e-08
2.03177678e-08
2.228288106e-08
2.689969421e-08
3.478591004e-08
4.707584175e-08
4.384165624e-08
4.717832997e-08
5.484549967e-08
6.746516836e-08
8.610316783e-08
9.673494028e-08
1.015728561e-07
1.123932637e-07
1.292094735e-07
1.521082094e-07
1.774673766e-07
1.821256925e-07
1.921705653e-07
2.068258642e-07
2.251521443e-07
2.401027728e-07
2.427114442e-07
2.481330562e-07
2.554956441e-07
2.636585695e-07
2.538484329e-07
2.543435887e-07
2.551658223e-07
2.556825468e-07
2.549703436e-07
2.265625045e-07
2.255859731e-07
2.232261365e-07
2.190462224e-07
2.122972274e-07
1.741783076e-07
1.720965735e-07
1.673255858e-07
1.595571913e-07
1.482524274e-07
1.000685249e-07
9.748131315e-08
9.193147537e-08
8.397382572e-08
7.442764807e-08
4.180038688e-08
4.084280992e-08
3.883209181e-08
3.601293712e-08
3.263857818e-08
1.76204939e-08
1.728490877e-08
1.657396695e-08
1.556252958e-08
1.432650725e-08
7.540891244e-09
7.41773864e-09
7.155295279e-09
6.777949406e-09
6.309996021e-09
3.262892467e-09
3.216137824e-09
3.116094538e-09
2.971173075e-09
2.789581659e-09
1.42353091e-09
1.405336856e-09
1.366292458e-09
1.309426477e-09
1.237628431e-09
6.251320546e-10
6.179232989e-10
6.024189738e-10
5.797439187e-10
5.50946467e-10
2.760909912e-10
2.731948515e-10
2.66954955e-10
2.577989047e-10
2.461158837e-10
1.226136957e-10
1.214370256e-10
1.188980925e-10
1.151623021e-10
1.103766577e-10
5.477839268e-11
5.429551241e-11
5.325225948e-11
5.171356298e-11
4.973575421e-11
2.463731045e-11
2.443725082e-11
2.400453455e-11
2.336496938e-11
2.254040894e-11
1.116625937e-11
1.108257522e-11
1.090138367e-11
1.063306953e-11
1.0286214e-11
5.104797692e-12
5.069455777e-12
4.992861474e-12
4.879243486e-12
4.732012153e-12
2.356383526e-12
2.341325818e-12
2.308665254e-12
2.260146689e-12
2.197146424e-12
1.099708957e-12
1.093259782e-12
1.079263383e-12
1.058450333e-12
1.031388417e-12
5.2029547e-13
5.175539491e-13
5.116046796e-13
5.027596153e-13
4.912635233e-13
2.514461148e-13
2.503421906e-13
2.479521501e-13
2.444135204e-13
2.398432912e-13
1.269177852e-13
1.265795637e-13
1.258577939e-13
1.248171733e-13
1.235277024e-13
7.102758906e-14
7.110372085e-14
7.128924167e-14
7.161918497e-14
7.215262612e-14
4.971026933e-14
5.009269757e-14
5.095419911e-14
5.231930389e-14
5.425609985e-14
4.92286633e-14
4.995857869e-14
5.159232461e-14
5.415413285e-14
5.77399435e-14
6.982352765e-14
7.109257614e-14
7.391788922e-14
7.830611625e-14
8.436521075e-14
1.157792657e-13
1.176001018e-13
1.216333902e-13
1.278423651e-13
1.363101058e-13
1.837300214e-13
1.860437215e-13
1.91150786e-13
1.989647926e-13
2.095315882e-13
2.703402026e-13
2.730397234e-13
2.789817032e-13
2.880290193e-13
3.001812593e-13
3.71365609e-13
3.742976375e-13
3.807356948e-13
3.904974126e-13
4.035332941e-13
4.810094601e-13
4.839928489e-13
4.905289511e-13
5.00401862e-13
5.135173627e-13
5.913333883e-13
5.941754348e-13
6.003883373e-13
6.097392281e-13
6.220995431e-13
6.931250342e-13
6.956712305e-13
7.012248951e-13
7.095535692e-13
7.205086189e-13
7.651683786e-13
7.673373169e-13
7.720582272e-13
7.791143047e-13
7.883527447e-13
5.482915655e-11
1.121091991e-10
5.738478732e-11
5.65021674e-10
5.277734686e-10
3.300232386e-10
1.995611023e-10
3.286952788e-10
5.10196804e-10
5.116312633e-10
4.138277708e-10
3.673528668e-10
5.0818177e-10
6.247642545e-10
6.432197072e-10
6.073705091e-10
5.926356252e-10
7.550173722e-10
1.077732245e-09
1.437134352e-09
1.74811945e-09
1.993442293e-09
2.207740474e-09
2.481542176e-09
2.943955946e-09
3.722567833e-09
4.954770809e-09
6.834607099e-09
9.701041335e-09
1.422132351e-08
2.176946402e-08
3.498204269e-08
5.915838787e-08
1.031364307e-07
1.709510002e-07
2.38630899e-07
2.685371179e-07
2.528742502e-07
2.054829427e-07
1.381920652e-07
6.781912429e-08
3.022230146e-08
1.341695604e-08
5.959340652e-09
2.651751669e-09
1.182611323e-09
5.287154988e-10
2.37042655e-10
1.066412875e-10
4.81852724e-11
2.189150706e-11
1.001230085e-11
4.61538886e-12
2.147115413e-12
1.009862142e-12
4.821259607e-13
2.362433869e-13
1.225728332e-13
7.269216821e-14
5.597455282e-14
6.087212936e-14
8.956267486e-14
1.434629933e-13
2.183632956e-13
3.102518491e-13
4.142569298e-13
5.242350413e-13
6.321362845e-13
7.293487237e-13
7.957636771e-13
9.713568812e-11
5.413300243e-11
7.514610666e-12
4.899291442e-12
3.851541302e-12
6.713349246e-10
1.319665738e-08
1.053784508e-09
7.361940381e-11
3.997112566e-11
2.80191671e-10
3.010655859e-09
3.509739398e-09
4.885819572e-10
1.204792625e-10
3.328739492e-09
5.872593895e-08
9.497624558e-07
6.950655246e-08
4.457171811e-09
2.502890057e-09
3.131997803e-08
3.243749624e-07
3.065045817e-08
2.593886583e-09
1.298558874e-09
1.190083853e-08
8.464049255e-08
1.088624097e-08
1.113378063e-09
6.801002229e-10
5.051861969e-09
3.064106879e-08
7.692619953e-09
1.285775995e-09
1.178355171e-09
1.058200142e-08
8.479593414e-08
6.165573288e-07
7.81712323e-08
1.698771097e-09
1.344797814e-08
9.340213749e-08
5.957947482e-07
9.327993636e-08
1.517631918e-09
9.712182169e-09
5.362152519e-08
2.634983945e-07
5.297017438e-08
1.114821078e-09
6.035785721e-09
2.871416513e-08
1.238249923e-07
3.024647289e-08
9.493912473e-10
4.891080897e-09
2.288062622e-08
1.005595684e-07
2.410382518e-07
1.329916597e-09
7.165821539e-09
3.555280931e-08
1.68609516e-07
7.180676777e-07
1.543627203e-09
7.357450352e-09
3.166949682e-08
1.269794695e-07
4.532538291e-07
1.482396511e-09
6.16267339e-09
2.334680919e-08
8.281470015e-08
2.640886198e-07
1.318128991e-09
4.911631304e-09
1.695811037e-08
5.546042831e-08
1.642956155e-07
1.232762675e-09
4.311386557e-09
1.428828882e-08
4.567802288e-08
1.361323124e-07
1.560863316e-09
5.553253359e-09
1.916581976e-08
6.485174369e-08
2.125352811e-07
2.168201258e-09
7.371860595e-09
2.418562621e-08
7.698126723e-08
2.355401945e-07
2.759958582e-09
8.630324224e-09
2.607238591e-08
7.634793993e-08
2.147816782e-07
3.196489798e-09
9.188498391e-09
2.571444847e-08
7.012553686e-08
1.843425126e-07
3.487886507e-09
9.316798688e-09
2.446264436e-08
6.304469733e-08
1.573859546e-07
3.722152676e-09
9.359547006e-09
2.334579275e-08
5.752515116e-08
1.376784968e-07
4.063380702e-09
9.749552542e-09
2.337373374e-08
5.559491591e-08
1.284787039e-07
4.713171212e-09
1.091339894e-08
2.539055727e-08
5.879622212e-08
1.323874073e-07
5.844498627e-09
1.310032663e-08
2.959486614e-08
6.661992109e-08
1.45538435e-07
7.624682898e-09
1.649804742e-08
3.601973883e-08
7.827423886e-08
1.640081379e-07
1.029758231e-08
2.145225749e-08
4.510195341e-08
9.407349785e-08
1.869405402e-07
1.432255651e-08
2.87299979e-08
5.807544168e-08
1.156681195e-07
2.152207411e-07
2.056289411e-08
3.977001316e-08
7.709934801e-08
1.45359555e-07
2.490288037e-07
3.084041484e-08
5.714972326e-08
1.053411296e-07
1.849937321e-07
2.860385857e-07
4.833072419e-08
8.493383482e-08
1.46103774e-07
2.331216629e-07
3.192890837e-07
7.889158953e-08
1.281885369e-07
1.994280089e-07
2.810557913e-07
3.368109105e-07
1.300621046e-07
1.879088961e-07
2.554749942e-07
3.121784412e-07
3.252473198e-07
1.994484557e-07
2.495355116e-07
2.934920589e-07
3.120865029e-07
2.827079758e-07
2.580314376e-07
2.843830584e-07
2.961391461e-07
2.797231358e-07
2.222845618e-07
2.747737228e-07
2.760207912e-07
2.605172488e-07
2.189968797e-07
1.501893729e-07
2.487252853e-07
2.318350094e-07
1.982784807e-07
1.454060031e-07
9.470457397e-08
1.943359157e-07
1.655704007e-07
1.244844283e-07
8.498228269e-08
5.69586296e-08
1.226491294e-07
9.299182927e-08
6.695324508e-08
4.717189152e-08
3.26476567e-08
5.85239223e-08
4.532641007e-08
3.402125229e-08
2.488807236e-08
1.782279784e-08
2.675135987e-08
2.147027393e-08
1.66956078e-08
1.263615761e-08
9.345699812e-09
1.209758629e-08
9.992491311e-09
8.003373539e-09
6.239184363e-09
4.750527168e-09
5.447413737e-09
4.603055165e-09
3.777673625e-09
3.020189014e-09
2.359068282e-09
2.449609197e-09
2.107980503e-09
1.765168753e-09
1.44179555e-09
1.151527032e-09
1.101647585e-09
9.622397609e-10
8.194315634e-10
6.816810819e-10
5.551021624e-10
4.959135831e-10
4.385894368e-10
3.788773632e-10
3.202070966e-10
2.652185423e-10
2.236264559e-10
1.998930658e-10
1.748251159e-10
1.498076651e-10
1.259592056e-10
1.01108041e-10
9.12183292e-11
8.064806527e-11
6.995651078e-11
5.961275258e-11
4.588494604e-11
4.173680833e-11
3.725736397e-11
3.267290484e-11
2.817931828e-11
2.092744361e-11
1.91753682e-11
1.726614603e-11
1.529169778e-11
1.333383425e-11
9.604836987e-12
8.859241798e-12
8.040249611e-12
7.185490378e-12
6.32924842e-12
4.441709134e-12
4.122025086e-12
3.768454332e-12
3.396540225e-12
3.020784212e-12
2.072537245e-12
1.934612965e-12
1.781244536e-12
1.618964484e-12
1.454020095e-12
9.77756043e-13
9.182198186e-13
8.518493482e-13
7.814889681e-13
7.099490909e-13
4.68503639e-13
4.433093334e-13
4.153708818e-13
3.860365322e-13
3.567125746e-13
2.308984549e-13
2.21224361e-13
2.108656254e-13
2.005962115e-13
1.912961608e-13
1.211951338e-13
1.190866535e-13
1.174968217e-13
1.170319655e-13
1.184477688e-13
7.357144137e-14
7.59137112e-14
7.971564678e-14
8.562580088e-14
9.449931202e-14
5.865200052e-14
6.470689313e-14
7.326480993e-14
8.516818112e-14
1.015516679e-13
6.572351168e-14
7.643338068e-14
9.12144399e-14
1.112307901e-13
1.375403623e-13
9.754982647e-14
1.145348814e-13
1.368257792e-13
1.652670038e-13
2.006996417e-13
1.5438923e-13
1.770204706e-13
2.058252295e-13
2.413618667e-13
2.840975614e-13
2.317962633e-13
2.590920053e-13
2.930527768e-13
3.338917311e-13
3.816546885e-13
3.255164429e-13
3.560541104e-13
3.933413799e-13
4.372245257e-13
4.873330082e-13
4.304625859e-13
4.624479969e-13
5.008638003e-13
5.452140733e-13
5.947661544e-13
5.403883057e-13
5.718810765e-13
6.091380467e-13
6.513878145e-13
6.976287423e-13
6.472234628e-13
6.76298801e-13
7.101982306e-13
7.479700289e-13
7.884591334e-13
7.426039832e-13
7.678527722e-13
7.968616963e-13
8.286017142e-13
8.618774204e-13
8.068491044e-13
8.277356997e-13
8.513952901e-13
8.768160288e-13
9.028553453e-13
1.05971439e-13
4.659276025e-15
5.222203915e-16
9.338908943e-17
2.088542041e-17
4.83494069e-18
1.063019492e-18
2.231629728e-19
4.576178246e-20
9.532452563e-21
2.247868432e-21
7.796355877e-22
4.728601003e-22
3.961130387e-22
3.60839581e-22
3.281053655e-22
2.907848823e-22
2.493556299e-22
2.063707672e-22
1.646593275e-22
1.26609097e-22
9.381590376e-23
6.70076856e-23
4.615330134e-23
3.067848485e-23
1.970052805e-23
1.223807622e-23
7.366336379e-24
4.304957076e-24
2.448864368e-24
1.360491368e-24
7.416317153e-25
3.99319458e-25
2.143424797e-25
1.160744438e-25
6.425220934e-26
3.673403118e-26
2.175470514e-26
1.325944404e-26
8.209337718e-27
5.08959889e-27
3.123962424e-27
1.885489961e-27
1.116452829e-27
6.494296239e-28
3.72534648e-28
2.118320942e-28
1.200315482e-28
6.806621769e-29
3.872402565e-29
2.211230368e-29
1.265703551e-29
7.243278617e-30
4.126625178e-30
2.321360193e-30
1.264959779e-30
6.35380817e-31
2.611708029e-31
5.965766628e-32
3.296482882e-33
1.22078981e-12
4.395224149e-14
2.794285554e-15
2.793952409e-16
4.081268954e-17
7.076475522e-18
1.289445212e-18
2.396868371e-19
4.746806949e-20
1.172319964e-20
4.766753822e-21
3.285650928e-21
2.885051177e-21
2.67770801e-21
2.468135077e-21
2.215970348e-21
1.92657575e-21
1.619355379e-21
1.315799277e-21
1.033339493e-21
7.842235743e-22
5.751258373e-22
4.076574736e-22
2.793672103e-22
1.852150647e-22
1.189064978e-22
7.401053654e-23
4.47277204e-23
2.629227193e-23
1.50667871e-23
8.443279495e-24
4.648129422e-24
2.530275834e-24
1.374561658e-24
7.539906567e-25
4.228604388e-25
2.447086171e-25
1.463348258e-25
8.974459755e-26
5.570622798e-26
3.452515621e-26
2.114681699e-26
1.272814467e-26
7.517905667e-27
4.366299385e-27
2.50423285e-27
1.425904652e-27
8.102200163e-28
4.612293764e-28
2.635690111e-28
1.511920021e-28
8.692230109e-29
4.994327135e-29
2.855071466e-29
1.609892452e-29
8.779531961e-30
4.407763807e-30
1.81443692e-30
4.293613552e-31
2.588412859e-32
3.032192458e-12
7.489287908e-14
3.047235639e-15
2.354053366e-16
3.093372906e-17
5.127435852e-18
9.272534043e-19
1.87514433e-19
5.124222982e-20
2.200366643e-20
1.365374553e-20
1.090556113e-20
9.856374077e-21
9.343477858e-21
8.846489038e-21
8.147952014e-21
7.223743902e-21
6.145723307e-21
5.020108254e-21
3.942143656e-21
2.982306477e-21
2.177500022e-21
1.537046655e-21
1.050361555e-21
6.958105872e-22
4.474649738e-22
2.797599833e-22
1.703046592e-22
1.011192052e-22
5.86834755e-23
3.338160177e-23
1.869240639e-23
1.036832051e-23
5.746943784e-24
3.218406047e-24
1.841583646e-24
1.084513672e-24
6.569024774e-25
4.056986709e-25
2.521911761e-25
1.558716656e-25
9.497490874e-26
5.682044456e-26
3.337693404e-26
1.930897595e-26
1.105622086e-26
6.3013692e-27
3.592656704e-27
2.055950257e-27
1.182386338e-27
6.82866263e-28
3.951849552e-28
2.284260443e-28
1.312283479e-28
7.422500738e-29
4.047597443e-29
2.024487185e-29
8.230629034e-30
1.879577212e-30
1.106307952e-31
1.304132706e-10
2.221561624e-12
4.611702081e-14
1.388575195e-15
8.30101359e-17
8.711196944e-18
1.49665977e-18
4.279136281e-19
1.889099788e-19
1.014361177e-19
6.215056523e-20
4.247501984e-20
3.11423115e-20
2.691684168e-20
2.47484048e-20
2.270585188e-20
2.044366436e-20
1.785139436e-20
1.497542041e-20
1.202490951e-20
9.244861953e-21
6.815977224e-21
4.83352581e-21
3.308645621e-21
2.194129981e-21
1.414020556e-21
8.879266734e-22
5.444766043e-22
3.266934902e-22
1.922382377e-22
1.112618827e-22
6.359746423e-23
3.611219124e-23
2.053154555e-23
1.180061957e-23
6.91825002e-24
4.155468874e-24
2.549354653e-24
1.58203266e-24
9.81119908e-25
6.018682646e-25
3.629481078e-25
2.14755488e-25
1.248988293e-25
7.171592589e-26
4.089569892e-26
2.329847787e-26
1.332275558e-26
7.666227834e-27
4.44038205e-27
2.584904843e-27
1.508047109e-27
8.782836863e-28
5.077357359e-28
2.88272574e-28
1.571178196e-28
7.812887465e-29
3.120213674e-29
6.704645704e-30
3.781679942e-31
1.168694691e-10
2.563393926e-12
4.962875326e-14
1.502110066e-15
1.194234975e-16
2.478867017e-17
7.792553619e-18
2.839712728e-18
1.197135742e-18
5.980045409e-19
3.303435238e-19
2.010188283e-19
1.332295722e-19
9.589197637e-20
7.558381002e-20
6.62706832e-20
5.846419469e-20
5.052734216e-20
4.253327246e-20
3.485244583e-20
2.746759702e-20
2.072749159e-20
1.497560016e-20
1.038776446e-20
6.947339833e-21
4.501958458e-21
2.839816067e-21
1.750673417e-21
1.058169879e-21
6.28931731e-22
3.687431245e-22
2.141201839e-22
1.238168513e-22
7.181603038e-23
4.21298244e-23
2.516798049e-23
1.533367703e-23
9.472486528e-24
5.869450331e-24
3.606585722e-24
2.179493e-24
1.290496272e-24
7.491440318e-25
4.281085129e-25
2.423880678e-25
1.369559519e-25
7.771459875e-26
4.446588855e-26
2.568842364e-26
1.496881218e-26
8.775081185e-27
5.156913623e-27
3.024543966e-27
1.758911867e-27
1.00215228e-27
5.457282068e-28
2.694289988e-28
1.054954791e-28
2.112883786e-29
1.168382758e-30
1.870442301e-10
5.978214545e-12
1.321902246e-13
3.436682845e-15
3.385483024e-16
9.508201725e-17
3.491173179e-17
1.419446106e-17
6.238181531e-18
3.01022106e-18
1.637456142e-18
9.581890513e-19
6.062713864e-19
4.131728634e-19
2.983059428e-19
2.370794829e-19
2.006142781e-19
1.702624775e-19
1.419531987e-19
1.153239917e-19
9.080080791e-20
6.906438533e-20
5.060632366e-20
3.570841075e-20
2.428020673e-20
1.595206012e-20
1.016051924e-20
6.300391392e-21
3.819809913e-21
2.274738718e-21
1.336951674e-21
7.794762555e-22
4.534268891e-22
2.649993163e-22
1.567805901e-22
9.438947793e-23
5.776685107e-23
3.563583187e-23
2.189118494e-23
1.323992169e-23
7.825851758e-24
4.511901227e-24
2.544883571e-24
1.41397233e-24
7.813135399e-25
4.336363042e-25
2.435501549e-25
1.388952964e-25
8.039278335e-26
4.707943088e-26
2.77752256e-26
1.64312812e-26
9.696949237e-27
5.668217014e-27
3.239789547e-27
1.764063675e-27
8.660558887e-28
3.335848236e-28
6.22470458e-29
3.418416796e-30
4.536279786e-10
2.666050813e-11
8.177613006e-13
2.185542376e-14
9.889795077e-16
2.38327928e-16
9.314192322e-17
4.129636013e-17
1.937776786e-17
9.549836416e-18
5.099137744e-18
2.97073559e-18
1.866713661e-18
1.270472126e-18
9.314693122e-19
7.226543922e-19
6.088204328e-19
5.293625421e-19
4.572564935e-19
3.85366068e-19
3.138080926e-19
2.457644147e-19
1.846759557e-19
1.332826194e-19
9.258240491e-20
6.210372694e-20
4.031269769e-20
2.538381519e-20
1.554696624e-20
9.297730486e-21
5.457149718e-21
3.16383715e-21
1.825559151e-21
1.056940559e-21
6.190576482e-22
3.689934555e-22
2.23511935e-22
1.361601507e-22
8.229111677e-23
4.874426333e-23
2.807342543e-23
1.569501537e-23
8.550612932e-24
4.578747101e-24
2.441528116e-24
1.31520853e-24
7.233915064e-25
4.078841151e-25
2.352884795e-25
1.380843851e-25
8.189183422e-26
4.875704977e-26
2.895546943e-26
1.701499228e-26
9.761885145e-27
5.326076252e-27
2.612194758e-27
9.984892716e-28
1.757495685e-28
9.754788913e-30
7.281649746e-09
6.174127342e-10
3.011079593e-11
9.287240862e-13
3.035926018e-14
2.691622991e-15
5.831237163e-16
1.800251989e-16
6.488769615e-17
2.649995318e-17
1.231103085e-17
6.647373797e-18
4.023633085e-18
2.69691892e-18
1.982291254e-18
1.571728318e-18
1.320170842e-18
1.179175562e-18
1.06873965e-18
9.575050277e-19
8.357278866e-19
7.042032981e-19
5.693156609e-19
4.401624954e-19
3.249962315e-19
2.294403312e-19
1.550832544e-19
1.007588347e-19
6.325511882e-20
3.856809192e-20
2.293457406e-20
1.337034231e-20
7.694511969e-21
4.408513884e-21
2.535452394e-21
1.473865549e-21
8.68295216e-22
5.144779497e-22
3.025394998e-22
1.744608336e-22
9.778475622e-23
5.30565267e-23
2.793079289e-23
1.43824905e-23
7.351812928e-24
3.803035771e-24
2.022974081e-24
1.114163178e-24
6.34090736e-25
3.701917289e-25
2.196949725e-25
1.31366779e-25
7.848006242e-26
4.639533246e-26
2.675387341e-26
1.465410057e-26
7.204149906e-27
2.746354144e-27
4.66870133e-28
2.628731452e-29
1.041008992e-08
1.176584408e-09
9.965749954e-11
4.807570814e-12
1.516074347e-13
8.539073412e-15
1.271436499e-15
3.425099756e-16
1.204345781e-16
4.884408415e-17
2.224418701e-17
1.155214133e-17
6.849517679e-18
4.547863653e-18
3.358943872e-18
2.71058274e-18
2.327405363e-18
2.117785612e-18
1.988984655e-18
1.867315018e-18
1.723790004e-18
1.550329054e-18
1.350158896e-18
1.132935505e-18
9.121198581e-19
7.019231447e-19
5.147564857e-19
3.59583061e-19
2.396258413e-19
1.529393331e-19
9.385780633e-20
5.580652254e-20
3.245341274e-20
1.862797995e-20
1.062623417e-20
6.046157507e-21
3.440084776e-21
1.956067531e-21
1.102840091e-21
6.109782735e-22
3.306784847e-22
1.742568832e-22
8.919603867e-23
4.445610607e-23
2.181769847e-23
1.079075848e-23
5.502807081e-24
2.92685533e-24
1.623999843e-24
9.333680739e-25
5.499897501e-25
3.286996701e-25
1.971319893e-25
1.17255969e-25
6.808041875e-26
3.753964651e-26
1.857095686e-26
7.104246768e-27
1.193730608e-27
6.893242258e-29
7.467058405e-09
1.132636776e-09
1.390124256e-10
1.126351609e-11
5.405309817e-13
2.271307891e-14
2.095100748e-15
4.440349109e-16
1.479133631e-16
6.137077863e-17
2.910777837e-17
1.571760714e-17
9.524771874e-18
6.444368995e-18
4.866625425e-18
4.039790004e-18
3.592335144e-18
3.354400503e-18
3.258255334e-18
3.18019939e-18
3.064494421e-18
2.889257166e-18
2.651253395e-18
2.359041068e-18
2.028874212e-18
1.681507755e-18
1.339025415e-18
1.02107616e-18
7.434037884e-19
5.154231574e-19
3.400333899e-19
2.141113083e-19
1.295200156e-19
7.594911938e-20
4.357424114e-20
2.463177373e-20
1.372482712e-20
7.531884278e-21
4.060461007e-21
2.146614075e-21
1.108379658e-21
5.59341879e-22
2.768994515e-22
1.34718765e-22
6.439349177e-23
3.064658022e-23
1.493331427e-23
7.60412475e-24
4.068216237e-24
2.27499213e-24
1.316791675e-24
7.799407054e-25
4.669952694e-25
2.787770849e-25
1.629830565e-25
9.068882502e-26
4.534362207e-26
1.755516168e-26
2.98063715e-27
1.796250358e-28
5.277923689e-09
8.658462315e-10
2.033924092e-10
2.490669408e-11
1.879861652e-12
9.065057643e-14
5.407354888e-15
7.533542164e-16
2.044167143e-16
7.852516746e-17
3.661667095e-17
1.993835235e-17
1.218859826e-17
8.361578225e-18
6.459402204e-18
5.537160853e-18
5.11824257e-18
4.961080165e-18
5.004802866e-18
5.070758522e-18
5.071595243e-18
4.966149724e-18
4.740032873e-18
4.397292459e-18
3.955825224e-18
3.443605182e-18
2.894631378e-18
2.344381009e-18
1.825151072e-18
1.362597947e-18
9.73380574e-19
6.639046163e-19
4.320550706e-19
2.687676547e-19
1.607082707e-19
9.294062514e-20
5.212064881e-20
2.830993367e-20
1.489411478e-20
7.605908352e-21
3.779461254e-21
1.828964984e-21
8.656510091e-22
4.044436063e-22
1.882425245e-22
8.764275344e-23
4.126468092e-23
2.006217888e-23
1.024169496e-23
5.505031508e-24
3.093714682e-24
1.797058584e-24
1.064885738e-24
6.340713864e-25
3.721192362e-25
2.089562208e-25
1.059999112e-25
4.191768536e-26
7.34930379e-27
4.704313712e-28
4.115617494e-08
6.215893399e-09
1.057880484e-09
1.486851235e-10
1.678399659e-11
1.199123854e-12
5.900827177e-14
4.573308222e-15
7.405099576e-16
1.880781913e-16
6.45060444e-17
2.840482784e-17
1.585018757e-17
1.05498924e-17
8.2399699e-18
7.321259821e-18
7.071282632e-18
7.219173904e-18
7.595013206e-18
7.971281921e-18
8.228788454e-18
8.302413131e-18
8.161117177e-18
7.800436875e-18
7.238471452e-18
6.511872906e-18
5.670817535e-18
4.772762393e-18
3.875553634e-18
3.030814906e-18
2.278554298e-18
1.643909327e-18
1.136407054e-18
7.519420644e-19
4.761782405e-19
2.889345546e-19
1.68186133e-19
9.394012775e-20
5.032035385e-20
2.578687515e-20
1.268066802e-20
6.017825735e-21
2.772304711e-21
1.249244466e-21
5.57834394e-22
2.507697913e-22
1.148100527e-22
5.404241269e-23
2.641937885e-23
1.354087731e-23
7.296015003e-24
4.106177401e-24
2.383002557e-24
1.403031295e-24
8.212545903e-25
4.639326893e-25
2.391660268e-25
9.747099405e-26
1.807095245e-26
1.259021456e-27
1.275675527e-07
1.979241723e-08
3.067981026e-09
4.654227179e-10
6.149316683e-11
6.950235707e-12
5.244401627e-13
3.088241245e-14
2.733197908e-15
4.52035912e-16
1.162692611e-16
4.089660076e-17
1.975050598e-17
1.267372963e-17
1.026926735e-17
9.763046202e-18
1.010191024e-17
1.098265985e-17
1.200288914e-17
1.29324689e-17
1.362870108e-17
1.400147296e-17
1.400109268e-17
1.361424698e-17
1.286136051e-17
1.179297036e-17
1.048393881e-17
9.025096892e-18
7.513245073e-18
6.04021482e-18
4.682915157e-18
3.496283936e-18
2.510311119e-18
1.731341729e-18
1.146021803e-18
7.274812025e-19
4.424947614e-19
2.575255412e-19
1.43123885e-19
7.591826764e-20
3.840476885e-20
1.856910358e-20
8.606228216e-21
3.841576287e-21
1.674399102e-21
7.25089241e-22
3.181338433e-22
1.444165321e-22
6.844550541e-23
3.386704768e-23
1.750105747e-23
9.448589487e-24
5.301305261e-24
3.051223929e-24
1.765633755e-24
9.974584239e-25
5.220143711e-25
2.213289174e-25
4.477237309e-26
3.542920548e-27
1.008117618e-07
1.888536187e-08
3.336892244e-09
6.424846762e-10
1.029059606e-10
1.413092703e-11
1.667928724e-12
1.309308718e-13
8.324529539e-15
7.782215522e-16
1.36424503e-16
4.058997664e-17
1.994401797e-17
1.44268152e-17
1.346082354e-17
1.454696495e-17
1.646077944e-17
1.860342003e-17
2.063256922e-17
2.232637812e-17
2.353509996e-17
2.416270663e-17
2.416139315e-17
2.352882405e-17
2.230532624e-17
2.056873868e-17
1.842945439e-17
1.602304291e-17
1.34997176e-17
1.100712067e-17
8.673190481e-18
6.596536307e-18
4.838845439e-18
3.421114471e-18
2.329914648e-18
1.527279095e-18
9.625738324e-19
5.824279597e-19
3.375883793e-19
1.869515362e-19
9.865352686e-20
4.949380002e-20
2.363962684e-20
1.079165926e-20
4.7474717e-21
2.037508369e-21
8.694944622e-22
3.787900043e-22
1.724724032e-22
8.262742383e-23
4.147050478e-23
2.16719115e-23
1.174364801e-23
6.555003438e-24
3.715149235e-24
2.083590607e-24
1.102839673e-24
4.898111852e-25
1.127863718e-25
1.102186001e-26
6.719690317e-08
1.447172556e-08
2.916784317e-09
6.934619255e-10
1.38720145e-10
2.325376156e-11
3.323636686e-12
4.05978444e-13
3.349497589e-14
2.162320679e-15
2.014510355e-16
4.120676353e-17
2.08258102e-17
1.915589106e-17
2.199578644e-17
2.603030267e-17
3.014834684e-17
3.384345817e-17
3.68432223e-17
3.899484589e-17
4.022040605e-17
4.049594355e-17
3.984250317e-17
3.832029051e-17
3.602349378e-17
3.307640764e-17
2.962768665e-17
2.584498024e-17
2.190867047e-17
1.801136353e-17
1.433620188e-17
1.102748668e-17
8.186368301e-18
5.865034722e-18
4.056505892e-18
2.708180148e-18
1.745672899e-18
1.085873666e-18
6.50671337e-19
3.745899365e-19
2.065345813e-19
1.086886777e-19