/*--------------------------------*- C++ -*----------------------------------*\
  =========                 |
  \\      /  F ield         | OpenFOAM: The Open Source CFD Toolbox
   \\    /   O peration     | Website:  https://openfoam.org
    \\  /    A nd           | Version:  10
     \\/     M anipulation  |
\*---------------------------------------------------------------------------*/
FoamFile
{
    format      ascii;
    class       volScalarField;
    location    "3000";
    object      CH2CHO;
}
// * * * * * * * * * * * * * * * * * * * * * * * * * * * * * * * * * * * * * //

dimensions      [0 0 0 0 0 0 0];

internalField   nonuniform List<scalar> 
5170
(
1.060062816e-72
4.772657775e-73
8.60348815e-74
5.665602549e-75
7.164032194e-77
8.09869409e-70
3.420619272e-70
5.151140451e-71
2.239446305e-72
2.373565228e-74
6.039541738e-67
2.377674433e-67
2.879993481e-68
8.953122132e-70
8.705917984e-72
4.434795892e-64
1.629002646e-64
1.602653878e-65
3.722595816e-67
3.462141109e-69
3.228397427e-61
1.116964281e-61
9.154709677e-63
1.66437312e-64
1.588719872e-66
2.349094458e-58
7.77541032e-59
5.331856794e-60
7.989791834e-62
1.053551821e-63
1.727220664e-55
5.544981465e-56
3.244726107e-57
4.127807784e-59
1.824319699e-60
1.278877396e-52
4.020771298e-53
2.141624773e-54
2.555354885e-56
6.626805802e-57
9.632948678e-50
3.094910286e-50
1.572453375e-51
2.123592306e-53
2.847481413e-53
7.434296526e-47
2.545392238e-47
1.307577058e-48
3.409350586e-50
1.254387141e-49
5.912499159e-44
2.260167944e-44
1.332685301e-45
1.175938588e-46
5.548717533e-46
4.833595297e-41
2.159851178e-41
1.773101234e-42
5.450899865e-43
2.458788321e-42
4.072730909e-38
2.231421733e-38
3.12892865e-39
2.640059004e-39
1.091699567e-38
3.517856465e-35
2.466977676e-35
6.815039843e-36
1.257406368e-35
4.858646708e-35
3.120373255e-32
2.93672884e-32
1.684507384e-32
5.761376055e-32
2.167857236e-31
2.795072316e-29
3.694121999e-29
4.384362701e-29
2.428942411e-28
9.698515441e-28
2.515004607e-26
4.901459719e-26
1.138752637e-25
9.179204431e-25
4.351343412e-24
2.207490347e-23
6.567583757e-23
2.852340326e-22
3.18945405e-21
1.957207944e-20
1.795962857e-20
8.468776925e-20
6.520486308e-19
9.58694363e-18
8.824638988e-17
1.220461162e-17
9.927292709e-17
1.346737835e-15
2.607913065e-14
4.03690908e-13
4.443666936e-27
4.720670906e-27
9.753534443e-28
7.598559895e-28
2.25039396e-26
5.85680588e-27
4.391602485e-27
1.196194399e-27
6.471410335e-28
1.529471159e-27
4.113288447e-27
3.14036819e-27
1.697848078e-27
1.190644501e-27
1.100752906e-27
2.81372782e-27
3.133654311e-27
3.199601979e-27
1.97500161e-27
1.592457544e-27
2.597171626e-27
4.030129357e-27
5.188697492e-27
2.661908402e-27
1.796828774e-27
2.620264418e-27
4.776674083e-27
6.456554008e-27
2.755975732e-27
1.544940449e-27
2.308814506e-27
4.634098847e-27
6.235977645e-27
2.14402847e-27
1.003564025e-27
1.719615589e-27
3.710323147e-27
4.860204407e-27
1.338052715e-27
6.562139783e-28
1.116713074e-27
2.541250749e-27
3.213487459e-27
1.03971466e-27
2.856670207e-28
6.583788332e-28
1.531585865e-27
1.832411491e-27
4.649019279e-28
1.252370217e-28
3.700364027e-28
8.532799386e-28
1.11846764e-27
2.216867055e-27
2.492480285e-28
2.517840906e-28
4.57671776e-28
5.60089395e-28
8.186173061e-28
1.897021631e-28
7.912517974e-27
2.161189811e-27
6.115176861e-28
3.843972882e-28
4.604210779e-28
1.310830573e-24
3.234756668e-25
5.650194581e-26
6.680270324e-27
1.762173368e-27
2.225497836e-22
5.47528941e-23
9.352365781e-24
1.073252155e-24
2.572923942e-25
3.81319842e-20
9.326854527e-21
1.552984242e-21
1.746261341e-22
4.007582546e-23
6.619180347e-18
1.59522398e-18
2.548567238e-19
2.790948541e-20
6.270045257e-21
1.167470723e-15
2.710019034e-16
4.066612441e-17
4.309314726e-18
1.006625187e-18
2.141454148e-13
4.529729305e-14
6.188926819e-15
6.33625416e-16
1.692613995e-16
4.246545152e-11
7.341313445e-12
8.814748338e-13
8.663604164e-14
3.022190558e-14
2.105691333e-15
2.695238118e-14
8.301396565e-13
3.840510421e-11
1.870755433e-09
1.982655529e-14
2.437143634e-13
6.973052236e-12
2.823691998e-10
1.048594417e-08
6.47488311e-14
7.355995026e-13
1.863638818e-11
5.811755261e-10
1.409081878e-08
1.584656176e-13
1.707986215e-12
3.910950591e-11
9.233456151e-10
1.48446852e-08
3.203373741e-13
3.301281314e-12
6.753029447e-11
1.254466627e-09
1.543341743e-08
6.479758855e-13
6.517827434e-12
1.176862518e-10
1.881675984e-09
1.985959864e-08
1.636389551e-12
1.651369404e-11
2.71596743e-10
3.62894776e-09
3.063556533e-08
4.483333006e-12
4.426298384e-11
6.19879015e-10
6.372215602e-09
4.161135725e-08
1.151366266e-11
1.054213929e-10
1.177214621e-09
9.299414588e-09
4.871004267e-08
2.807835187e-11
2.299024534e-10
2.014176947e-09
1.269484985e-08
5.595635976e-08
7.247019112e-11
4.750755058e-10
3.231445467e-09
1.698888896e-08
6.523404789e-08
1.638726108e-10
8.511617992e-10
4.795535208e-09
2.181058624e-08
7.419255506e-08
3.390090556e-10
1.409276458e-09
6.73389375e-09
2.674774627e-08
8.090450085e-08
6.772292723e-10
2.260119303e-09
9.237931708e-09
3.225239172e-08
8.674051577e-08
1.324251225e-09
3.639806426e-09
1.272657328e-08
3.916350948e-08
9.350915439e-08
2.649399399e-09
6.031087103e-09
1.789801267e-08
4.847628462e-08
1.02378737e-07
5.395880078e-09
1.029498648e-08
2.566386602e-08
6.034102847e-08
1.102454848e-07
1.077299275e-08
1.761732188e-08
3.69178017e-08
7.299586083e-08
1.124567848e-07
2.13485056e-08
3.024366772e-08
5.194596863e-08
8.427995502e-08
1.096820475e-07
3.832501843e-08
4.756356394e-08
6.676206008e-08
8.838782881e-08
9.600124687e-08
5.684493922e-08
6.349047184e-08
7.49172154e-08
8.248900728e-08
7.7389466e-08
6.806512145e-08
7.110071252e-08
7.256768825e-08
7.028804744e-08
6.755436318e-08
6.241175614e-08
6.162146273e-08
5.899518435e-08
5.686192305e-08
5.88363623e-08
4.586491062e-08
4.476466498e-08
4.395213389e-08
4.909632156e-08
5.215945719e-08
3.298085799e-08
3.433434854e-08
4.002043567e-08
4.414547263e-08
4.843887429e-08
2.373251391e-08
2.533756771e-08
3.012117448e-08
3.905127928e-08
4.647505525e-08
2.27423238e-08
2.491582435e-08
3.07216551e-08
3.866726713e-08
4.797206743e-08
2.5591688e-08
2.766165995e-08
3.280947236e-08
4.229062793e-08
5.375070541e-08
3.529082638e-08
3.700486611e-08
4.080260814e-08
4.936921513e-08
6.381210837e-08
5.055746834e-08
5.312930508e-08
5.916559187e-08
6.936790161e-08
8.457060528e-08
7.492179073e-08
7.846773134e-08
8.649062002e-08
9.942574192e-08
1.180995313e-07
1.157676257e-07
1.203394111e-07
1.305955278e-07
1.465888108e-07
1.682430443e-07
1.833655549e-07
1.884871369e-07
1.994240955e-07
2.154142104e-07
2.351708901e-07
2.720619596e-07
2.752092543e-07
2.810994541e-07
2.881570404e-07
2.934041154e-07
3.139973742e-07
3.115073583e-07
3.056176309e-07
2.95364584e-07
2.793541263e-07
2.408499683e-07
2.360787863e-07
2.257369238e-07
2.104439758e-07
1.909193675e-07
1.371485949e-07
1.339133585e-07
1.270452079e-07
1.172451903e-07
1.052564149e-07
6.78323687e-08
6.624328894e-08
6.288362452e-08
5.812234981e-08
5.234397449e-08
3.159765911e-08
3.090695591e-08
2.944525759e-08
2.73695943e-08
2.484110399e-08
1.437515949e-08
1.408747378e-08
1.347634546e-08
1.26022975e-08
1.152603727e-08
6.423246243e-09
6.300564416e-09
6.039341638e-09
5.665040784e-09
5.205308683e-09
2.792721727e-09
2.744874628e-09
2.643030505e-09
2.496853643e-09
2.316054438e-09
1.217153003e-09
1.198484088e-09
1.158607443e-09
1.10101248e-09
1.029138246e-09
5.322327092e-10
5.248446474e-10
5.090222996e-10
4.86057023e-10
4.571983161e-10
2.334165007e-10
2.304601705e-10
2.241158271e-10
2.14871364e-10
2.031900195e-10
1.026504923e-10
1.014572459e-10
9.889226624e-11
9.514291612e-11
9.0383649e-11
4.527506874e-11
4.479023895e-11
4.374656057e-11
4.221680748e-11
4.026743217e-11
2.003975366e-11
1.984164226e-11
1.94146299e-11
1.878725473e-11
1.798507054e-11
8.910874377e-12
8.829519574e-12
8.653963058e-12
8.395483154e-12
8.063985876e-12
3.986787677e-12
3.953235034e-12
3.880757132e-12
3.773848912e-12
3.63638851e-12
1.798711864e-12
1.784850711e-12
1.754885625e-12
1.710625554e-12
1.653611698e-12
8.212915899e-13
8.156075971e-13
8.033177695e-13
7.851608615e-13
7.617685908e-13
3.822412376e-13
3.799969571e-13
3.75152165e-13
3.680159603e-13
3.588655956e-13
1.843488762e-13
1.835882308e-13
1.819603666e-13
1.796009378e-13
1.766509005e-13
9.56949513e-14
9.561283221e-14
9.546062639e-14
9.530392951e-14
9.523471518e-14
5.751310567e-14
5.77870219e-14
5.841337014e-14
5.943001193e-14
6.091646173e-14
4.367588115e-14
4.419263829e-14
4.535417288e-14
4.718830951e-14
4.977920406e-14
4.294641857e-14
4.369570336e-14
4.53733528e-14
4.800543596e-14
5.169229744e-14
5.127724621e-14
5.23115609e-14
5.462403889e-14
5.824334056e-14
6.32968757e-14
7.012156319e-14
7.154618193e-14
7.471874884e-14
7.964869475e-14
8.646081508e-14
9.65233852e-14
9.838574873e-14
1.025382175e-13
1.090066984e-13
1.179805962e-13
1.362496379e-13
1.387899795e-13
1.444489347e-13
1.532492017e-13
1.654269966e-13
1.98032802e-13
2.015169325e-13
2.092678429e-13
2.212924655e-13
2.378758202e-13
2.923700467e-13
2.971070248e-13
3.076299323e-13
3.239137243e-13
3.462917538e-13
4.330865871e-13
4.39438218e-13
4.535272536e-13
4.752734901e-13
5.050514197e-13
6.395403613e-13
6.47914751e-13
6.664634701e-13
6.950200998e-13
7.339848491e-13
9.344757731e-13
9.452699946e-13
9.691428344e-13
1.005801479e-12
1.055641804e-12
1.345051464e-12
1.358562168e-12
1.388398709e-12
1.434097949e-12
1.496008873e-12
1.873930153e-12
1.890198111e-12
1.926074464e-12
1.980897666e-12
2.054932778e-12
2.436285421e-12
2.454867914e-12
2.495804758e-12
2.558244155e-12
2.642345172e-12
6.056104137e-09
8.592356301e-08
8.848283316e-08
7.256631262e-08
6.759035998e-08
7.921291858e-08
1.040941467e-07
1.159536541e-07
1.151318835e-07
1.167130228e-07
1.23356299e-07
1.275530239e-07
1.260325536e-07
1.234671259e-07
1.2266659e-07
1.247163368e-07
1.231063369e-07
1.141436537e-07
1.059021337e-07
8.850946081e-08
7.540228814e-08
6.666317069e-08
5.964872822e-08
5.481749155e-08
5.266660018e-08
5.255823184e-08
5.567047541e-08
6.322301969e-08
7.587120366e-08
9.841755152e-08
1.344546212e-07
1.858039512e-07
2.487233101e-07
2.930452848e-07
2.643903369e-07
1.759403066e-07
9.647091279e-08
4.814000201e-08
2.299027123e-08
1.072664564e-08
4.866942613e-09
2.181076146e-09
9.748667445e-10
4.352160561e-10
1.942294957e-10
8.671166172e-11
3.875590706e-11
1.736036017e-11
7.804838968e-12
3.528581519e-12
1.608797151e-12
7.433841647e-13
3.517247753e-13
1.744335652e-13
9.532800665e-14
6.228017573e-14
5.206678009e-14
5.49155752e-14
6.769835862e-14
9.232133443e-14
1.257293362e-13
1.759131357e-13
2.520933268e-13
3.653914948e-13
5.303520187e-13
7.669421529e-13
1.097606002e-12
1.547901449e-12
2.116738663e-12
2.712322478e-12
4.689302664e-09
1.166210309e-09
1.268617664e-10
1.165921023e-11
6.022425765e-12
8.727349327e-08
2.110967768e-07
1.68767458e-08
1.162104203e-09
9.767986346e-10
1.682984892e-07
1.084122104e-07
1.131954877e-08
1.106741246e-09
3.069616639e-09
1.553018972e-07
7.15186826e-08
1.089395803e-07
7.622054807e-09
1.363207379e-09
1.513213481e-07
9.856415297e-08
5.091445266e-07
4.099377966e-08
3.45318678e-09
1.773760901e-07
1.179696866e-07
4.600247272e-07
4.951027939e-08
4.918403931e-09
2.184445589e-07
1.256140805e-07
3.291953652e-07
4.508208636e-08
5.356119532e-09
2.174438824e-07
1.11803257e-07
1.952649815e-07
5.245843987e-08
7.345681604e-09
1.955817723e-07
1.03182008e-07
1.73017049e-07
3.54497512e-07
5.286885913e-08
1.845526254e-07
1.061754228e-07
1.853204945e-07
4.911356655e-07
8.802430682e-08
1.835350785e-07
1.116671407e-07
1.832810275e-07
4.563669333e-07
9.460674508e-08
1.772234382e-07
1.106380554e-07
1.59630528e-07
3.419659995e-07
8.402003581e-08
1.624321194e-07
1.04649232e-07
1.362713624e-07
2.649618646e-07
2.153937741e-07
1.477162358e-07
1.006620272e-07
1.28307313e-07
2.512248049e-07
3.696367363e-07
1.360691203e-07
9.929310963e-08
1.272135799e-07
2.475630226e-07
4.20011572e-07
1.292238695e-07
9.916145624e-08
1.267575768e-07
2.373918321e-07
4.051551971e-07
1.159051174e-07
9.582755496e-08
1.227587596e-07
2.178179994e-07
3.575280212e-07
9.700876384e-08
8.853006755e-08
1.151838219e-07
1.947071003e-07
3.06911749e-07
9.411483815e-08
8.443017443e-08
1.097318835e-07
1.803077895e-07
2.819753103e-07
8.18436537e-08
7.986398827e-08
1.073720797e-07
1.754633658e-07
2.755006851e-07
7.198749114e-08
7.70276163e-08
1.08045576e-07
1.765631799e-07
2.761609104e-07
6.556429221e-08
7.624518852e-08
1.107313023e-07
1.800529877e-07
2.776326854e-07
6.16166744e-08
7.70092304e-08
1.144980627e-07
1.840518386e-07
2.773358599e-07
5.972938988e-08
7.912354842e-08
1.191772128e-07
1.882908482e-07
2.752357831e-07
5.998984858e-08
8.287106101e-08
1.253510059e-07
1.938791888e-07
2.733553075e-07
6.248611584e-08
8.909637791e-08
1.344206517e-07
2.026905147e-07
2.732776396e-07
6.809840466e-08
9.903973034e-08
1.480378935e-07
2.160311972e-07
2.743914131e-07
7.830457461e-08
1.142460259e-07
1.675397068e-07
2.335615631e-07
2.734929736e-07
9.46726979e-08
1.366800795e-07
1.936463635e-07
2.526307077e-07
2.655683595e-07
1.200440808e-07
1.681527114e-07
2.250610775e-07
2.669548728e-07
2.460430298e-07
1.59858236e-07
2.093406011e-07
2.560383913e-07
2.668838772e-07
2.141132334e-07
2.121209191e-07
2.53290259e-07
2.728496418e-07
2.441252254e-07
1.73859249e-07
2.673055459e-07
2.801612861e-07
2.580807209e-07
2.000075544e-07
1.316740026e-07
2.896364971e-07
2.605518073e-07
2.077435349e-07
1.461381631e-07
9.302232643e-08
2.40863187e-07
1.930421744e-07
1.416462249e-07
9.59351228e-08
6.117829634e-08
1.538600412e-07
1.179051736e-07
8.473847041e-08
5.76316266e-08
3.758726167e-08
8.372453477e-08
6.4089948e-08
4.659790243e-08
3.242080748e-08
2.175891798e-08
4.205663355e-08
3.271228186e-08
2.432341186e-08
1.737063613e-08
1.20148334e-08
2.030628143e-08
1.610582573e-08
1.223255893e-08
8.959801118e-09
6.392225074e-09
9.561663258e-09
7.694597903e-09
5.971088847e-09
4.496981229e-09
3.30018191e-09
4.376289689e-09
3.595655323e-09
2.85902029e-09
2.208214762e-09
1.662605699e-09
1.98418359e-09
1.662085783e-09
1.349814656e-09
1.066087101e-09
8.213839348e-10
8.953896927e-10
7.625046685e-10
6.306977157e-10
5.080247544e-10
3.995722166e-10
4.029262731e-10
3.479896879e-10
2.924534195e-10
2.396956863e-10
1.920396218e-10
1.810351595e-10
1.582633846e-10
1.348729998e-10
1.122598672e-10
9.144757696e-11
8.129375566e-11
7.182969617e-11
6.197550788e-11
5.230330287e-11
4.325434542e-11
3.652186007e-11
3.257867278e-11
2.842431939e-11
2.429237875e-11
2.037064219e-11
1.643564694e-11
1.478866672e-11
1.303558535e-11
1.127169139e-11
9.576391583e-12
7.420736342e-12
6.731246385e-12
5.990837703e-12
5.238515145e-12
4.507873661e-12
3.368615867e-12
3.079626043e-12
2.767125129e-12
2.447247862e-12
2.134382794e-12
1.54225397e-12
1.421558266e-12
1.29057543e-12
1.15616954e-12
1.024737409e-12
7.160941713e-13
6.666715322e-13
6.132892031e-13
5.590705882e-13
5.071209143e-13
3.411602031e-13
3.223666983e-13
3.026872411e-13
2.837550352e-13
2.673500706e-13
1.712096446e-13
1.660168814e-13
1.61533989e-13
1.588349172e-13
1.592148926e-13
9.556322805e-14
9.691186722e-14
9.994262723e-14
1.055694129e-13
1.149784964e-13
6.443138327e-14
6.953530026e-14
7.708643251e-14
8.802557338e-14
1.036175875e-13
5.562483004e-14
6.361239396e-14
7.482784066e-14
9.034579101e-14
1.1162675e-13
5.991003892e-14
7.094944633e-14
8.620439167e-14
1.069929596e-13
1.351121349e-13
7.450846011e-14
8.947090711e-14
1.100175083e-13
1.378490975e-13
1.745914371e-13
1.013523887e-13
1.20881872e-13
1.472158254e-13
1.822317584e-13
2.2845049e-13
1.376747317e-13
1.63495099e-13
1.982517235e-13
2.442574051e-13
3.04549684e-13
1.920611174e-13
2.267964063e-13
2.732334134e-13
3.341524856e-13
4.13113204e-13
2.73947684e-13
3.205778921e-13
3.82323147e-13
4.624408144e-13
5.650146326e-13
3.946966726e-13
4.567132454e-13
5.380172933e-13
6.423093023e-13
7.741373966e-13
5.690999426e-13
6.504196036e-13
7.559619234e-13
8.897891612e-13
1.05679052e-12
8.173231314e-13
9.221898601e-13
1.056940357e-12
1.225857771e-12
1.433952855e-12
1.16163796e-12
1.293790392e-12
1.461845872e-12
1.669959439e-12
1.922856898e-12
1.626934614e-12
1.788715032e-12
1.992396616e-12
2.241730999e-12
2.540850492e-12
2.210724148e-12
2.401667715e-12
2.639910131e-12
2.928530015e-12
3.27077488e-12
2.818593917e-12
3.033181239e-12
3.29894829e-12
3.618150181e-12
3.993008436e-12
3.077528783e-13
2.007949616e-14
2.447956805e-15
4.882632759e-16
1.210104457e-16
3.123792687e-17
7.98202273e-18
2.12907358e-18
6.508411851e-19
2.491713188e-19
1.214546848e-19
7.110252641e-20
4.674163489e-20
3.304129736e-20
2.453347378e-20
1.885898366e-20
1.484930186e-20
1.187006321e-20
9.563448622e-21
7.722504505e-21
6.227722172e-21
5.008502967e-21
4.019748227e-21
3.227436939e-21
2.601056965e-21
2.11052323e-21
1.726591928e-21
1.423009433e-21
1.178439198e-21
9.772369999e-22
8.089567567e-22
6.669925343e-22
5.47034238e-22
4.458636082e-22
3.60676161e-22
2.888993836e-22
2.283143792e-22
1.772284348e-22
1.345082402e-22
9.942656577e-23
7.140450936e-23
4.978695922e-23
3.374163034e-23
2.228912924e-23
1.440971588e-23
9.159750518e-24
5.751690997e-24
3.582155192e-24
2.219769664e-24
1.371829511e-24
8.469468779e-25
5.229904191e-25
3.230826768e-25
1.991990447e-25
1.215214754e-25
7.171870966e-26
3.875880412e-26
1.695202996e-26
4.058163349e-27
2.296601406e-28
4.399152814e-11
1.6538289e-12
1.014302721e-13
8.408556503e-15
1.012151726e-15
1.642241925e-16
3.493570904e-17
1.006881447e-17
3.895453557e-18
1.880848145e-18
1.039531722e-18
6.265515301e-19
4.018716993e-19
2.712972256e-19
1.915019476e-19
1.403099121e-19
1.058613216e-19
8.157713093e-20
6.375291989e-20
5.022454451e-20
3.9720965e-20
3.147342055e-20
2.499174788e-20
1.99264957e-20
1.59995855e-20
1.296870694e-20
1.061991387e-20
8.773005762e-21
7.288088632e-21
6.065760767e-21
5.041478034e-21
4.175250918e-21
3.441046957e-21
2.819400287e-21
2.293337621e-21
1.84729225e-21
1.467939732e-21
1.145376399e-21
8.73356194e-22
6.482492861e-22
4.672655614e-22
3.269085603e-22
2.222899695e-22
1.473527684e-22
9.562717474e-23
6.104842654e-23
3.851715692e-23
2.41122134e-23
1.50218576e-23
9.33294297e-24
5.7911392e-24
3.592633948e-24
2.228407829e-24
1.378360546e-24
8.425006585e-25
4.973746436e-25
2.687225512e-25
1.179795307e-25
2.943931849e-26
1.832184865e-27
1.335339076e-10
3.547444111e-12
1.411823055e-13
1.108473896e-14
1.680456093e-15
4.097969567e-16
1.361371948e-16
5.71859836e-17
2.759057232e-17
1.446365025e-17
7.93289527e-18
4.500667053e-18
2.62333457e-18
1.614868248e-18
1.048223335e-18
7.135835094e-19
5.054766417e-19
3.693770771e-19
2.763685704e-19
2.10164479e-19
1.615840545e-19
1.25199533e-19
9.770749568e-20
7.690873961e-20
6.12037523e-20
4.933312868e-20
4.028093943e-20
3.324917762e-20
2.764898827e-20
2.307444812e-20
1.926379278e-20
1.605367514e-20
1.33359821e-20
1.102926834e-20
9.064208659e-21
7.379776385e-21
5.926443589e-21
4.670406097e-21
3.593841375e-21
2.689627344e-21
1.95327266e-21
1.376012063e-21
9.418215481e-22
6.283983237e-22
4.105612657e-22
2.639828064e-22
1.678388127e-22
1.059288693e-22
6.655006676e-23
4.169395481e-23
2.607935889e-23
1.629773971e-23
1.017271442e-23
6.322262557e-24
3.874106775e-24
2.285644986e-24
1.230762203e-24
5.351508023e-25
1.295350345e-25
7.915148386e-27
5.63636154e-10
1.439242643e-11
4.137293842e-13
2.652010062e-14
4.893598738e-15
1.691001424e-15
7.467957286e-16
3.676624817e-16
1.913214338e-16
1.028008482e-16
5.629844761e-17
3.138870176e-17
1.781957097e-17
1.035260101e-17
6.178956385e-18
3.801702312e-18
2.407192581e-18
1.596855803e-18
1.103516716e-18
7.879225765e-19
5.764079998e-19
4.291758675e-19
3.241802691e-19
2.483892397e-19
1.933711088e-19
1.531542284e-19
1.233691892e-19
1.0083236e-19
8.33137875e-20
6.932572363e-20
5.791381119e-20
4.846806978e-20
4.057512492e-20
3.392155995e-20
2.824806505e-20
2.333674669e-20
1.902297199e-20
1.520880406e-20
1.186073684e-20
8.986144338e-21
6.600214565e-21
4.699163156e-21
3.249297568e-21
2.189872546e-21
1.445381844e-21
9.391546901e-22
6.03614897e-22
3.851927801e-22
2.446754353e-22
1.549465835e-22
9.792225755e-23
6.178138428e-23
3.888247324e-23
2.431703416e-23
1.494931102e-23
8.811322173e-24
4.720432366e-24
2.022456512e-24
4.628029289e-25
2.726572551e-26
6.980127833e-09
2.1010376e-10
4.327522272e-12
1.487494559e-13
2.010484823e-14
7.803351938e-15
3.901091053e-15
2.055733367e-15
1.115449795e-15
6.174389521e-16
3.464342716e-16
1.964045196e-16
1.122909967e-16
6.484295987e-17
3.786474357e-17
2.243509087e-17
1.351243298e-17
8.306387545e-18
5.24946532e-18
3.418398877e-18
2.278217039e-18
1.567911947e-18
1.107861383e-18
8.015688448e-19
5.935474243e-19
4.500998769e-19
3.494382878e-19
2.771475727e-19
2.237534314e-19
1.831564559e-19
1.514977647e-19
1.263126159e-19
1.059522372e-19
8.921694571e-20
7.516244287e-20
6.302614376e-20
5.224434141e-20
4.249666877e-20
3.370199841e-20
2.593916335e-20
1.933230203e-20
1.395318878e-20
9.774221498e-21
6.67200629e-21
4.461270558e-21
2.937950872e-21
1.914441053e-21
1.238531519e-21
7.971830063e-22
5.111268389e-22
3.267025058e-22
2.082252291e-22
1.321863117e-22
8.321149586e-23
5.133212629e-23
3.023069173e-23
1.609860082e-23
6.784048704e-24
1.452142991e-24
8.436576747e-26
7.253164145e-09
6.987939059e-10
2.121233979e-11
6.86901978e-13
8.99805536e-14
3.298008223e-14
1.597446531e-14
8.533175278e-15
4.80515967e-15
2.791315343e-15
1.650688521e-15
9.85559479e-16
5.91222795e-16
3.55395394e-16
2.137055083e-16
1.286666951e-16
7.766149932e-17
4.710051777e-17
2.878210206e-17
1.780943306e-17
1.119014367e-17
7.165224168e-18
4.68005477e-18
3.110087494e-18
2.114178613e-18
1.480255381e-18
1.06766558e-18
7.931201172e-19
6.057632354e-19
4.743669736e-19
3.796258476e-19
3.095392787e-19
2.564390031e-19
2.151642042e-19
1.820241295e-19
1.542310936e-19
1.297500163e-19
1.073766235e-19
8.672177115e-20
6.796568784e-20
5.152989106e-20
3.778103625e-20
2.684576373e-20
1.856996593e-20
1.258202917e-20
8.402889489e-21
5.558711425e-21
3.652997494e-21
2.3879825e-21
1.553543849e-21
1.006019502e-21
6.483853634e-22
4.153622128e-22
2.632280858e-22
1.630267728e-22
9.607908953e-23
5.097169449e-23
2.120149029e-23
4.239866118e-24
2.460890334e-25
2.03249789e-09
3.375693408e-09
1.589331435e-10
5.273055947e-12
3.150787779e-13
8.586227604e-14
3.915535194e-14
2.125615183e-14
1.24644176e-14
7.608350162e-15
4.751194005e-15
3.007957965e-15
1.920166641e-15
1.231654669e-15
7.919743551e-16
5.094655647e-16
3.273082797e-16
2.097632753e-16
1.339946753e-16
8.536091793e-17
5.42595736e-17
3.447678322e-17
2.193386949e-17
1.402110059e-17
9.043512148e-18
5.919801027e-18
3.949999592e-18
2.698398668e-18
1.893733064e-18
1.367037136e-18
1.016763523e-18
7.811352534e-19
6.190670495e-19
5.043561088e-19
4.198805641e-19
3.541375657e-19
2.992504329e-19
2.503259963e-19
2.052299316e-19
1.636930763e-19
1.264163566e-19
9.436247139e-20
6.81446684e-20
4.779445875e-20
3.277951309e-20
2.215732854e-20
1.485147015e-20
9.902669759e-21
6.574110363e-21
4.34372424e-21
2.854308716e-21
1.86358657e-21
1.206631635e-21
7.708711792e-22
4.801124096e-22
2.840105338e-22
1.508913631e-22
6.250172972e-23
1.181680684e-23
6.979921701e-25
1.2039917e-09
3.747981018e-09
5.629441333e-10
2.740819181e-11
1.372567231e-12
2.107813042e-13
7.814653349e-14
4.064727889e-14
2.396446667e-14
1.496130444e-14
9.632826732e-15
6.319474634e-15
4.198049379e-15
2.813635406e-15
1.898070469e-15
1.286593362e-15
8.750815803e-16
5.965077258e-16
4.068073072e-16
2.77001411e-16
1.878732181e-16
1.265946768e-16
8.454580487e-17
5.591921817e-17
3.665434964e-17
2.387773223e-17
1.55091835e-17
1.010490089e-17
6.654268936e-18
4.462849223e-18
3.067344007e-18
2.173508659e-18
1.596250804e-18
1.217978916e-18
9.610578439e-19
7.817600656e-19
6.477634325e-19
5.381059571e-19
4.421912764e-19
3.561982393e-19
2.794295507e-19
2.125048202e-19
1.563756976e-19
1.115114126e-19
7.75149688e-20
5.299274021e-20
3.590577e-20
2.421667813e-20
1.62804126e-20
1.090460867e-20
7.267171564e-21
4.810127418e-21
3.153191806e-21
2.035364956e-21
1.277984273e-21
7.608934782e-22
4.063376273e-22
1.684089865e-22
3.082059963e-23
1.859988102e-24
6.096139168e-09
3.760405571e-09
3.026008442e-09
2.403838063e-10
1.083642493e-11
8.539613609e-13
1.867449717e-13
7.652531742e-14
4.126991011e-14
2.508297615e-14
1.617799381e-14
1.079007982e-14
7.350568266e-15
5.08098353e-15
3.54962179e-15
2.499764336e-15
1.771404475e-15
1.261396769e-15
9.015207618e-16
6.457952514e-16
4.628525565e-16
3.31177021e-16
2.359582064e-16
1.668186727e-16
1.166034704e-16
8.032814345e-17
5.442138173e-17
3.629349015e-17
2.391246928e-17
1.566649263e-17
1.02799927e-17
6.82541069e-18
4.638049051e-18
3.259116736e-18
2.382540951e-18
1.81141336e-18
1.422706969e-18
1.137305445e-18
9.122013081e-19
7.273178747e-19
5.717296328e-19
4.403486711e-19
3.303616165e-19
2.404830628e-19
1.700429737e-19
1.177887213e-19
8.067746663e-20
5.493689955e-20
3.728098386e-20
2.522549966e-20
1.700476786e-20
1.139769289e-20
7.568578279e-21
4.945995277e-21
3.140598851e-21
1.888971581e-21
1.018417782e-21
4.249516107e-22
7.707707521e-23
4.8103213e-24
1.166150266e-08
2.681508164e-09
5.527918149e-09
9.96029292e-10
7.496762846e-11
4.330902222e-12
5.286231918e-13
1.504659333e-13
6.832694229e-14
3.862772014e-14
2.430743695e-14
1.621799609e-14
1.120984388e-14
7.928532026e-15
5.696764427e-15
4.139430393e-15
3.033075582e-15
2.236950865e-15
1.658434308e-15
1.234587701e-15
9.214837059e-16
6.886673819e-16
5.141016957e-16
3.822766125e-16
2.822384612e-16
2.061992931e-16
1.485867866e-16
1.052609367e-16
7.313658536e-17
4.980182119e-17
3.329948618e-17
2.199981308e-17
1.450238566e-17
9.6546481e-18
6.569966741e-18
4.612993118e-18
3.349801177e-18
2.506653843e-18
1.913708513e-18
1.475218176e-18
1.136371271e-18
8.677500699e-19
6.545562345e-19
4.852547462e-19
3.508926371e-19
2.474836037e-19
1.716492547e-19
1.17976095e-19
8.067745079e-20
5.49761514e-20
3.734421507e-20
2.526173947e-20
1.696032737e-20
1.122059257e-20
7.218273351e-21
4.401527123e-21
2.407840293e-21
1.020417855e-21
1.876494244e-22
1.238683279e-23
1.457498779e-08
2.547109854e-09
4.338614328e-09
2.668438647e-09
3.272743118e-10
2.224398118e-11
1.750456068e-12
3.147649489e-13
1.120159002e-13
5.663203591e-14
3.399939646e-14
2.239383798e-14
1.557749098e-14
1.121112119e-14
8.248358144e-15
6.158906621e-15
4.646956268e-15
3.533229659e-15
2.704256328e-15
2.080825893e-15
1.607368181e-15
1.244446544e-15
9.636603415e-16
7.445024861e-16
5.721708006e-16
4.360723656e-16
3.285453876e-16
2.43961046e-16
1.780480292e-16
1.274488305e-16
8.939245571e-17
6.145063102e-17
4.150876959e-17
2.771546687e-17
1.847320132e-17
1.242430064e-17
8.498301962e-18
5.934655856e-18
4.237919485e-18
3.090058941e-18
2.287827613e-18
1.705513694e-18
1.271521108e-18
9.436038976e-19
6.928248736e-19
4.986629553e-19
3.518653278e-19
2.444539707e-19
1.682135197e-19
1.151283798e-19
7.854581835e-20
5.341752732e-20
3.612207595e-20
2.412903607e-20
1.571506502e-20
9.730726689e-21
5.427120418e-21
2.359064089e-21
4.50193304e-22
3.249708563e-23
1.493419825e-08
2.576013323e-09
2.18134445e-09
3.493808501e-09
8.47992713e-10
1.007366095e-10
7.758321723e-12
8.434867825e-13
1.985633519e-13
8.193055997e-14
4.514116422e-14
2.883023683e-14
2.000235824e-14
1.457453893e-14
1.094063668e-14
8.376861724e-15
6.501628477e-15
5.09434748e-15
4.020563343e-15
3.191373296e-15
2.543860273e-15
2.032830598e-15
1.625311168e-15
1.297045992e-15
1.030252583e-15
8.120298085e-16
6.331619705e-16
4.869295518e-16
3.68323996e-16
2.73415925e-16
1.988780002e-16
1.416754091e-16
9.891248519e-17
6.784044718e-17
4.591290249e-17
3.086598591e-17
2.076532e-17
1.407416285e-17
9.66033551e-18
6.729896832e-18
4.768053143e-18
3.431731174e-18
2.497372138e-18
1.826799833e-18
1.336664132e-18
9.730819445e-19
7.002348629e-19
4.954256348e-19
3.436343795e-19
2.358228489e-19
1.609925593e-19
1.095926343e-19
7.431433281e-20
4.991236128e-20
3.280641707e-20
2.06085021e-20
1.1754605e-20
5.293907924e-21
1.076696117e-21
9.113348366e-23
3.951599297e-08
6.457374165e-09
1.794709845e-09
3.394444476e-09
1.770048266e-09
3.227005735e-10
3.763570927e-11
3.363478082e-12
4.534986248e-13
1.246284224e-13
5.696425054e-14
3.393938297e-14
2.312751924e-14
1.702015581e-14
1.30204863e-14
1.02725338e-14
8.231946538e-15
6.665009655e-15
5.435779208e-15
4.457305723e-15
3.66895017e-15
3.026395783e-15
2.496466242e-15
2.054304837e-15
1.681568543e-15
1.3650546e-15
1.095623238e-15
8.668902992e-16
6.743610691e-16
5.14622149e-16
3.846596517e-16
2.814037145e-16
2.015281692e-16
1.414920131e-16
9.767644255e-17
6.658923277e-17
4.508047858e-17
3.048685944e-17
2.071042332e-17
1.420646927e-17
9.868784322e-18
6.952735666e-18
4.959642781e-18
3.567714599e-18
2.580409682e-18
1.868593255e-18
1.348203217e-18
9.657439779e-19
6.830955528e-19
4.756341714e-19
3.258229731e-19
2.20999772e-19
1.49381019e-19
1.002828747e-19
6.619353201e-20
4.205291546e-20
2.455051318e-20
1.158055683e-20
2.601509386e-21
2.834325796e-22
7.539692119e-08
1.341815261e-08
2.730524735e-09
2.981682548e-09
2.919819204e-09
7.420928501e-10
1.340947541e-10
1.598559069e-11
1.562100087e-12
2.32508018e-13
7.069992283e-14
3.58664138e-14
2.354062245e-14
1.748268864e-14
1.370292618e-14
1.117387548e-14
9.275003774e-15
7.787804692e-15
6.589053258e-15
5.602881274e-15
4.778209481e-15
4.078315428e-15
3.475975387e-15
2.950863059e-15
2.488173609e-15
2.077669544e-15
1.712711079e-15
1.389632243e-15
1.106869249e-15
8.637367059e-16
6.59310031e-16
4.919471076e-16
3.589800235e-16
2.565668654e-16
1.800762198e-16
1.245782614e-16
8.5355548e-17
5.824669242e-17
3.981529328e-17
2.739960964e-17
1.905025949e-17
1.339504845e-17
9.519946757e-18
6.821518069e-18
4.913429475e-18
3.544612535e-18
2.551257194e-18
1.826773928e-18
1.299128662e-18
9.151906625e-19
6.366758553e-19
4.364731448e-19
2.952413823e-19
1.971555302e-19
1.299875816e-19
8.315147155e-20
4.959697514e-20
2.471634397e-20
6.456114056e-21
8.663685517e-22
9.642672974e-08
1.923106642e-08
3.872916655e-09
2.037530124e-09
3.305969824e-09
1.613324527e-09
3.63038546e-10
6.585918442e-11
8.019625956e-12
7.949475624e-13
1.217201696e-13
3.992813293e-14
2.23870239e-14
1.616403916e-14
1.293465489e-14
1.087593698e-14
9.379790672e-15
8.201255101e-15
7.223391093e-15
6.38306186e-15
5.64259245e-15
4.977689251e-15
4.372275394e-15
3.815564696e-15
3.30047653e-15
2.822975548e-15
2.381393997e-15
1.975879472e-15
1.607912351e-15
1.280343901e-15
9.960866257e-16
7.563040617e-16
5.60384861e-16
4.059668004e-16
2.884706738e-16
2.018492805e-16