/*--------------------------------*- C++ -*----------------------------------*\
  =========                 |
  \\      /  F ield         | OpenFOAM: The Open Source CFD Toolbox
   \\    /   O peration     | Website:  https://openfoam.org
    \\  /    A nd           | Version:  10
     \\/     M anipulation  |
\*---------------------------------------------------------------------------*/
FoamFile
{
    format      ascii;
    class       volScalarField;
    location    "3000";
    object      CH2CO;
}
// * * * * * * * * * * * * * * * * * * * * * * * * * * * * * * * * * * * * * //

dimensions      [0 0 0 0 0 0 0];

internalField   nonuniform List<scalar> 
5170
(
3.462702673e-62
2.795162582e-62
1.734978134e-62
8.556764666e-63
6.77935611e-63
1.17435619e-59
9.381135407e-60
5.730765785e-60
3.308310861e-60
5.833230446e-60
4.021306486e-57
3.189047986e-57
1.940957844e-57
1.524107528e-57
4.583287503e-57
1.40305227e-54
1.111643062e-54
6.984820413e-55
7.818090783e-55
3.299405307e-54
4.987029205e-52
3.985530621e-52
2.684917592e-52
4.245191623e-52
2.213586507e-51
1.813865787e-49
1.48044055e-49
1.094036975e-49
2.372549258e-49
1.402253957e-48
6.745899327e-47
5.671304944e-47
4.785373347e-47
1.349119519e-46
8.578439519e-46
2.562578687e-44
2.24385042e-44
2.255067366e-44
7.775247267e-44
5.132690865e-43
9.973183077e-42
9.278432469e-42
1.118909149e-41
4.532890066e-41
3.021996486e-40
3.98409869e-39
4.00808615e-39
5.782172221e-39
2.678940138e-38
1.758469505e-37
1.630346226e-36
1.802637402e-36
3.094308091e-36
1.602595318e-35
1.014414068e-34
6.804045804e-34
8.413030783e-34
1.716038701e-33
9.689945399e-33
5.814176029e-32
2.883882338e-31
4.047061583e-31
9.888514812e-31
5.957009711e-30
3.315066001e-29
1.231229803e-28
1.987921057e-28
5.861066048e-28
3.723617071e-27
1.882243273e-26
5.268663159e-26
9.881061401e-26
3.519314169e-25
2.353439899e-24
1.064673028e-23
2.222850061e-23
4.888385823e-23
2.095814037e-22
1.453938179e-21
6.000341413e-21
9.195728233e-21
2.399398314e-20
1.205722508e-19
8.684562027e-19
3.374646234e-18
3.645960432e-18
1.146100726e-17
6.697369492e-17
4.920840228e-16
1.891930071e-15
1.327107662e-15
5.214998744e-15
3.491510892e-14
2.591695571e-13
1.061500261e-12
4.135362757e-13
2.2918049e-12
1.769734763e-11
1.248062945e-10
6.03932526e-10
2.979389533e-22
1.654969023e-22
5.162507148e-23
1.762229111e-22
2.246972167e-22
1.421088517e-22
1.038483823e-22
6.671814334e-23
2.31452864e-22
1.554470561e-22
8.758889174e-23
6.507161968e-23
4.947368888e-23
1.027041753e-22
8.214629502e-23
4.940374499e-23
4.177497024e-23
3.597294878e-23
5.234824682e-23
4.426648065e-23
2.768041162e-23
2.744107597e-23
2.517938697e-23
2.806828591e-23
2.252938478e-23
1.572209259e-23
1.781092712e-23
1.67480477e-23
1.460177741e-23
1.054987912e-23
8.837835921e-24
1.119568887e-23
1.060883219e-23
6.934132485e-24
4.520061549e-24
4.96499602e-24
6.872113056e-24
6.318482871e-24
3.072153427e-24
2.25080408e-24
2.830937443e-24
4.182968966e-24
4.02437203e-24
2.745873488e-24
1.516778488e-24
1.783801067e-24
2.515960696e-24
2.543580819e-24
1.039601673e-24
6.487068321e-25
1.25655654e-24
1.557365643e-24
1.791451899e-24
1.422877239e-24
5.831616143e-25
7.944878137e-25
1.381444145e-24
1.415918198e-24
2.867836499e-24
9.79299794e-25
6.163350118e-24
2.197042759e-24
1.704328187e-24
8.887910765e-25
7.858078176e-25
9.584124855e-22
2.477391199e-22
4.602582507e-23
5.903721874e-24
1.779349876e-24
1.622900089e-19
4.268908637e-20
7.81311056e-21
9.673670345e-22
2.621101868e-22
2.775771801e-17
7.494448842e-18
1.361268739e-18
1.689087522e-19
4.398180568e-20
4.79943114e-15
1.339188451e-15
2.379849025e-16
2.96874331e-17
7.424644195e-18
8.374378719e-13
2.41820903e-13
4.116535409e-14
5.224524843e-15
1.263759384e-15
1.505352784e-10
4.410044747e-11
6.944259007e-12
9.330190646e-13
2.149022075e-13
2.813605915e-08
7.760895329e-09
1.126345545e-09
1.543289783e-10
3.526765049e-11
1.653234716e-11
1.242500966e-10
1.857634863e-09
2.718476185e-08
3.524240332e-07
3.898218262e-10
2.958434471e-09
4.179189717e-08
5.415361097e-07
5.635969622e-06
2.360164084e-09
1.623590488e-08
1.928371648e-07
1.9311795e-06
1.338500403e-05
9.236138307e-09
5.775997019e-08
5.760094469e-07
4.412447168e-06
2.108727857e-05
2.772955733e-08
1.574181884e-07
1.313045319e-06
7.866107658e-06
2.886010777e-05
7.207040586e-08
3.700906813e-07
2.602040346e-06
1.262126224e-05
3.83559108e-05
1.774469929e-07
8.33005912e-07
4.91456278e-06
1.91888163e-05
4.939435984e-05
4.144490569e-07
1.77647723e-06
8.539175285e-06
2.686504353e-05
5.961982905e-05
9.053548352e-07
3.461085307e-06
1.334099359e-05
3.462721641e-05
6.812188464e-05
1.837684973e-06
6.104652677e-06
1.904450637e-05
4.230628753e-05
7.59763043e-05
3.557730362e-06
9.833673259e-06
2.53107858e-05
5.000305064e-05
8.389662878e-05
6.309339475e-06
1.449165356e-05
3.19372167e-05
5.769786648e-05
9.157917174e-05
1.036482723e-05
2.01155471e-05
3.898378935e-05
6.534478666e-05
9.868044163e-05
1.613173263e-05
2.690470092e-05
4.661967487e-05
7.308178577e-05
0.0001054905999
2.416116709e-05
3.520125781e-05
5.511372365e-05
8.122902847e-05
0.0001125734497
3.486106951e-05
4.546073376e-05
6.489307762e-05
9.028659787e-05
0.0001205590271
4.842789561e-05
5.812923344e-05
7.651417603e-05
0.0001008328802
0.0001299204568
6.453421531e-05
7.319756952e-05
9.020249166e-05
0.0001131247062
0.000140694404
8.271996847e-05
9.035854106e-05
0.0001057814469
0.0001269678292
0.0001526404192
0.0001022156676
0.0001089229267
0.0001227363426
0.0001420279632
0.0001656215917
0.0001223461617
0.000128229342
0.0001405294153
0.0001579667346
0.0001795366867
0.0001426014029
0.000147796492
0.0001587789764
0.0001745508032
0.0001943024546
0.0001628504526
0.0001674742133
0.0001773365175
0.0001916677849
0.0002098399694
0.0001831638041
0.0001873221729
0.0001962576231
0.0002093635743
0.0002261790724
0.0002037957743
0.0002075913522
0.0002157835565
0.0002278926117
0.0002435445283
0.000225292598
0.0002288139523
0.0002364361703
0.0002477493816
0.00026246558
0.0002483924318
0.0002517185261
0.0002589387617
0.000269695333
0.0002837298301
0.0002739733128
0.0002771790502
0.0002841436907
0.0002945270139
0.0003080841279
0.0003032051422
0.0003063708159
0.0003132565115
0.0003234944517
0.0003367541586
0.0003377293702
0.0003409071837
0.0003477784597
0.0003579334797
0.0003709199719
0.0003798948299
0.000383051546
0.0003898321515
0.0003996551365
0.0004117564756
0.0004330401899
0.0004359379444
0.0004420117071
0.0004503907296
0.0004598842637
0.0004988570536
0.0005006891169
0.0005041895133
0.0005080113183
0.0005102418708
0.0005622400573
0.0005610328061
0.0005576865368
0.0005506531991
0.000537690267
0.0005653779318
0.0005594486343
0.0005460683435
0.000524905259
0.000495290904
0.0004622004762
0.0004544888443
0.0004377610371
0.0004129747811
0.0003811482735
0.0003177870871
0.00031174322
0.0002988053125
0.0002800573827
0.0002565969481
0.0001982538011
0.0001944141189
0.0001862103729
0.00017435889
0.0001595684938
0.000116651092
0.0001143683503
0.0001094783437
0.0001023797286
9.34566153e-05
6.421132887e-05
6.2837433e-05
5.988465423e-05
5.557890845e-05
5.015208977e-05
3.035762851e-05
2.959346482e-05
2.798441678e-05
2.573365452e-05
2.307564805e-05
1.276234163e-05
1.249298706e-05
1.192550263e-05
1.112571242e-05
1.016069173e-05
5.435624075e-06
5.338518632e-06
5.132325609e-06
4.837719855e-06
4.475458952e-06
2.34162973e-06
2.305205959e-06
2.227468813e-06
2.115372983e-06
1.975787783e-06
1.017242411e-06
1.003194997e-06
9.731098236e-07
9.294488056e-07
8.745957028e-07
4.447711979e-07
4.392446046e-07
4.273785478e-07
4.100768268e-07
3.881955571e-07
1.955145711e-07
1.93308454e-07
1.885624193e-07
1.816166959e-07
1.727864341e-07
8.63760461e-08
8.548531532e-08
8.356599559e-08
8.074862758e-08
7.715142388e-08
3.835962219e-08
3.799656564e-08
3.721317973e-08
3.606027272e-08
3.458281957e-08
1.713691796e-08
1.698763897e-08
1.666513591e-08
1.618943333e-08
1.557785462e-08
7.709292008e-09
7.647391232e-09
7.513512312e-09
7.315635821e-09
7.06050932e-09
3.496662798e-09
3.470782774e-09
3.414753719e-09
3.331793615e-09
3.224563572e-09
1.601312832e-09
1.59042117e-09
1.566821992e-09
1.531829094e-09
1.486508893e-09
7.42022751e-10
7.374369892e-10
7.274967564e-10
7.127469816e-10
6.936271297e-10
3.495205996e-10
3.476302874e-10
3.435357489e-10
3.374682381e-10
3.29619985e-10
1.69433697e-10
1.687309069e-10
1.67216188e-10
1.649919377e-10
1.62154731e-10
8.763374376e-11
8.749910569e-11
8.722309287e-11
8.68559778e-11
8.646269174e-11
5.40428747e-11
5.423033336e-11
5.465719189e-11
5.534484929e-11
5.634022e-11
4.317645968e-11
4.356296831e-11
4.442807576e-11
4.578396423e-11
4.767983299e-11
4.460383324e-11
4.51989916e-11
4.652630304e-11
4.859417195e-11
5.146243924e-11
5.639768013e-11
5.7266566e-11
5.920022449e-11
6.220177517e-11
6.634418217e-11
8.017703784e-11
8.140727163e-11
8.413920657e-11
8.836392986e-11
9.416368983e-11
1.194407465e-10
1.211321263e-10
1.248804705e-10
1.306564057e-10
1.385464909e-10
1.79427433e-10
1.816799805e-10
1.866622419e-10
1.943135486e-10
2.04716199e-10
2.666552784e-10
2.695534527e-10
2.759518422e-10
2.857464846e-10
2.990041109e-10
3.888503667e-10
3.924463784e-10
4.003714787e-10
4.124668211e-10
4.287705981e-10
5.532503035e-10
5.575387051e-10
5.669737317e-10
5.813327697e-10
6.006124651e-10
7.658647868e-10
7.707653718e-10
7.815300216e-10
7.978693141e-10
8.197285047e-10
1.022021685e-09
1.027372928e-09
1.039109728e-09
1.056882276e-09
1.080582805e-09
1.278953465e-09
1.284548646e-09
1.296806225e-09
1.315332679e-09
1.339976043e-09
1.272417391e-06
2.281069571e-05
3.836045386e-05
4.636852365e-05
5.548344358e-05
6.850340085e-05
8.202928738e-05
9.134479437e-05
9.781949797e-05
0.0001045114937
0.0001120260779
0.0001189939782
0.0001248153511
0.0001302835435
0.0001362799229
0.0001434133176
0.000151880819
0.0001614580655
0.0001719273685
0.0001833834868
0.000195900066
0.0002094684363
0.0002239803904
0.0002394073141
0.0002559532208
0.000274195251
0.0002949308032
0.0003188617912
0.0003471448844
0.0003808436763
0.0004204499367
0.0004655770053
0.0005087655972
0.000523503572
0.0004700301769
0.00035641123
0.0002388636148
0.0001484022204
8.665618791e-05
4.603983891e-05
2.121689202e-05
9.461059784e-06
4.206731724e-06
1.870648725e-06
8.328226778e-07
3.713925788e-07
1.659603828e-07
7.435538477e-08
3.34290101e-08
1.509827401e-08
6.859714841e-09
3.139901087e-09
1.450637985e-09
6.784790659e-10
3.234223493e-10
1.59958932e-10
8.624305116e-11
5.724253619e-11
4.933272235e-11
5.393905744e-11
6.98973931e-11
9.91063584e-11
1.452285077e-10
2.134735747e-10
3.101023215e-10
4.423471574e-10
6.165882249e-10
8.37759193e-10
1.100054265e-09
1.360157862e-09
3.020135956e-06
1.425023651e-06
1.755132349e-07
1.779235993e-08
5.895215742e-09
6.885803516e-05
0.0003294001141
2.658208656e-05
1.761292193e-06
4.356334282e-07
9.241805309e-05
0.0002471329216
2.445386312e-05
1.9494307e-06
5.921231967e-07
9.458737974e-05
0.0001794122139
0.0001038429499
7.456921266e-06
7.264173868e-07
0.0001058520415
0.0002158669864
0.0003842648059
3.092428661e-05
2.36490894e-06
0.0001255132712
0.0002611344121
0.0004703125988
4.966069146e-05
4.378427316e-06
0.0001413728636
0.0002696832306
0.000420754663
5.640376199e-05
6.412941073e-06
0.0001459002311
0.0002431617094
0.0003156818499
7.678797978e-05
1.035527125e-05
0.000147088805
0.0002284281059
0.0002978479786
0.0002493516472
3.76223114e-05
0.0001512902661
0.0002321306953
0.0003229988516
0.0003742698075
6.693878578e-05
0.0001578331792
0.0002398035084
0.0003371640987
0.0004050447167
8.305121224e-05
0.0001630396316
0.0002393250001
0.0003215360497
0.0003648059175
9.264960287e-05
0.0001661531359
0.0002341764849
0.0003018225663
0.0003376900915
0.0001839567049
0.0001690928217
0.0002318497658
0.0002959719877
0.0003450225629
0.0002840013712
0.0001732449973
0.0002336738054
0.00029873686
0.0003582962126
0.0003386207405
0.0001790256937
0.0002378803097
0.0003023167628
0.000362676417
0.0003546823795
0.0001859988585
0.0002421043726
0.0003021131618
0.0003549458113
0.0003452965433
0.0001935019396
0.0002453197618
0.0002986405643
0.0003421669148
0.0003321684291
0.0002014726653
0.0002487621734
0.0002964051262
0.0003348440835
0.0003305856137
0.0002104412491
0.0002539963108
0.000298216997
0.0003353876207
0.0003381391222
0.0002207713336
0.0002616497437
0.0003041147908
0.0003413994993
0.0003489433952
0.0002325149903
0.0002714235624
0.0003126952601
0.0003497083786
0.0003590393314
0.0002454845016
0.0002826345349
0.0003224360446
0.0003578862929
0.0003660290466
0.0002595399649
0.000294834418
0.0003325258894
0.0003649595358
0.0003695218965
0.0002748385089
0.0003081875905
0.0003433296316
0.000371875962
0.0003713836877
0.0002920356798
0.0003236248859
0.0003559260371
0.000379903648
0.0003726571359
0.0003119224009
0.0003417184056
0.0003709919917
0.000389281393
0.0003724987047
0.0003351337141
0.000363000925
0.0003886072768
0.0003991011775
0.0003689288726
0.0003627170738
0.0003881788109
0.0004082356031
0.0004071451685
0.0003590996506
0.0003954917607
0.0004168695723
0.0004277173106
0.0004093391652
0.0003402721651
0.0004328391194
0.0004466260746
0.0004419153768
0.0003996472317
0.0003110092689
0.0004727919348
0.0004711634307
0.0004416810388
0.0003722354399
0.0002723458796
0.0005043685397
0.0004757315002
0.0004150934291
0.000325492718
0.0002271982468
0.0004998617362
0.0004391604755
0.000356375653
0.0002644274576
0.0001791864943
0.0004312650613
0.0003569228837
0.0002760948926
0.0001988286133
0.0001324737017
0.0003196771502
0.0002572026746
0.0001951673441
0.0001388375395
9.15298336e-05
0.0002127975905
0.0001698462088
0.0001279351052
8.997414264e-05
5.856387005e-05
0.0001319999307
0.0001047912859
7.796175248e-05
5.381080298e-05
3.55492062e-05
7.663949642e-05
5.978332076e-05
4.342559941e-05
3.01829863e-05
2.058013802e-05
4.002809476e-05
3.054795113e-05
2.250737395e-05
1.61804933e-05
1.139339745e-05
1.857235783e-05
1.465422288e-05
1.119783571e-05
8.328681537e-06
6.054745687e-06
8.451008095e-06
6.875951436e-06
5.419860121e-06
4.156100266e-06
3.112139593e-06
3.81574051e-06
3.182351487e-06
2.574545746e-06
2.027301044e-06
1.558859394e-06
1.716855855e-06
1.460673745e-06
1.207581641e-06
9.727985479e-07
7.657045794e-07
7.71480804e-07
6.671234651e-07
5.616372583e-07
4.613713524e-07
3.706754708e-07
3.466449852e-07
3.03841543e-07
2.597715424e-07
2.170329687e-07
1.775427702e-07
1.558832448e-07
1.382181718e-07
1.197522391e-07
1.015396198e-07
8.440256847e-08
7.021963769e-08
6.288782038e-08
5.512468456e-08
4.735667339e-08
3.993124211e-08
3.171951399e-08
2.865959665e-08
2.538361177e-08
2.206411646e-08
1.884677993e-08
1.438667898e-08
1.310224756e-08
1.171376762e-08
1.029124499e-08
8.895614078e-09
6.561388092e-09
6.018970863e-09
5.427662562e-09
4.816033421e-09
4.209656068e-09
3.013971455e-09
2.783596168e-09
2.530688481e-09
2.267036186e-09
2.003480098e-09
1.397235829e-09
1.299101289e-09
1.190848841e-09
1.077452872e-09
9.636355801e-10
6.559220471e-10
6.144245091e-10
5.686524843e-10
5.208166203e-10
4.73114467e-10
3.142080179e-10
2.974005053e-10
2.791330756e-10
2.605129495e-10
2.427250124e-10
1.567239547e-10
1.51108288e-10
1.455002086e-10
1.40600763e-10
1.372385722e-10
8.597616882e-11
8.606211541e-11
8.71407548e-11
8.977319781e-11
9.441485013e-11
5.865913314e-11
6.195434995e-11
6.671833415e-11
7.343928516e-11
8.273204976e-11
5.189045631e-11
5.750574909e-11
6.518482607e-11
7.549685392e-11
8.917460761e-11
5.775685702e-11
6.600330094e-11
7.708068374e-11
9.166875116e-11
1.106194295e-10
7.535983806e-11
8.701404932e-11
1.0242942e-10
1.223791779e-10
1.477990027e-10
1.066850081e-10
1.226678294e-10
1.43512541e-10
1.700510076e-10
2.032529488e-10
1.554479221e-10
1.767527339e-10
2.041536098e-10
2.384872991e-10
2.806891869e-10
2.268343812e-10
2.543849002e-10
2.893514901e-10
3.325022579e-10
3.846520034e-10
3.269959073e-10
3.614733763e-10
4.046881126e-10
4.572560639e-10
5.197789607e-10
4.629688016e-10
5.046522992e-10
5.562921882e-10
6.182679403e-10
6.908766546e-10
6.40806152e-10
6.893178782e-10
7.487598762e-10
8.191920616e-10
9.00534703e-10
8.650405119e-10
9.192440711e-10
9.849994282e-10
1.062014056e-09
1.149813177e-09
1.129470195e-09
1.187490568e-09
1.25726605e-09
1.338166088e-09
1.429353506e-09
1.390608461e-09
1.450333149e-09
1.521671674e-09
1.603728203e-09
1.69539187e-09
6.567486332e-10
9.545842979e-11
2.064059482e-11
9.557443329e-12
6.918642627e-12
5.377984539e-12
4.066214761e-12
2.97088295e-12
2.106730137e-12
1.462498922e-12
9.986775661e-13
6.728536448e-13
4.477940607e-13
2.943959418e-13
1.911712072e-13
1.225931589e-13
7.765717951e-14
4.861996301e-14
3.011863772e-14
1.848937492e-14
1.127410857e-14
6.851213688e-15
4.169236867e-15
2.557749893e-15
1.596068698e-15
1.023830782e-15
6.820264288e-16
4.749715014e-16
3.460243001e-16
2.622708054e-16
2.049639395e-16
1.636068886e-16
1.323602337e-16
1.079245279e-16
8.833860481e-17
7.234152186e-17
5.906790093e-17
4.791752161e-17
3.849248563e-17
3.054433038e-17
2.391497655e-17
1.848193769e-17
1.412141481e-17
1.069432343e-17
8.050132199e-18
6.039118955e-18
4.524764605e-18
3.390931515e-18
2.543876623e-18
1.910452575e-18
1.434848962e-18
1.075230525e-18
8.005949921e-19
5.881326963e-19
4.210826545e-19
2.871152756e-19
1.773716118e-19
8.90519542e-20
2.588921399e-20
2.558040878e-21
4.879908287e-08
4.743072619e-09
6.330261873e-10
2.009150863e-10
1.223917796e-10
8.772344622e-11
6.197077491e-11
4.284861285e-11
2.858816633e-11
1.863619328e-11
1.185750842e-11
7.417482165e-12
4.574909214e-12
2.793203752e-12
1.692513489e-12
1.019744738e-12
6.117605216e-13
3.657276155e-13
2.180674356e-13
1.297862703e-13
7.720674663e-14
4.601645051e-14
2.758931905e-14
1.673861849e-14
1.036231158e-14
6.611512107e-15
4.38964949e-15
3.051240565e-15
2.22063383e-15
1.682240809e-15
1.314397756e-15
1.049354939e-15
8.494521561e-16
6.933927827e-16
5.684944115e-16
4.665657952e-16
3.819537808e-16
3.107338803e-16
2.503317738e-16
1.991873881e-16
1.563552181e-16
1.211248436e-16
9.276312757e-17
7.041548332e-17
5.313358642e-17
3.996186696e-17
3.002121949e-17
2.256126112e-17
1.697399122e-17
1.278372029e-17
9.627698063e-18
7.23384705e-18
5.399829795e-18
3.97618488e-18
2.852943372e-18
1.950047042e-18
1.212139089e-18
6.219247438e-19
2.021621524e-19
2.76500948e-20
9.012986105e-08
1.046191003e-08
1.907895009e-09
9.438545338e-10
6.639242498e-10
4.955890743e-10
3.588237303e-10
2.541178e-10
1.733979477e-10
1.1531886e-10
7.427770194e-11
4.667024915e-11
2.858671265e-11
1.71490222e-11
1.010103111e-11
5.867473411e-12
3.375804112e-12
1.932058018e-12
1.104504502e-12
6.326303796e-13
3.639656109e-13
2.108419978e-13
1.234259138e-13
7.339937971e-14
4.467461263e-14
2.808824199e-14
1.840725062e-14
1.264611312e-14
9.110419404e-15
6.845038633e-15
5.316626415e-15
4.22971168e-15
3.420048152e-15
2.794457971e-15
2.297439452e-15
1.893338307e-15
1.557829495e-15
1.274335001e-15
1.032340331e-15
8.258338461e-16
6.515074367e-16
5.070492917e-16
3.899890831e-16
2.972298986e-16
2.25153609e-16
1.69993033e-16
1.282113284e-16
9.674520089e-17
7.309222573e-17
5.528515138e-17
4.181773806e-17
3.155512527e-17
2.365196655e-17
1.748283373e-17
1.258719772e-17
8.633515593e-18
5.403266259e-18
2.814817993e-18
9.665994713e-19
1.524601639e-19
1.263813119e-07
2.838665621e-08
6.21568323e-09
3.10648655e-09
2.261724507e-09
1.731068964e-09
1.298964844e-09
9.48996711e-10
6.726012629e-10
4.639152476e-10
3.107405818e-10
2.026570322e-10
1.28565373e-10
7.952349281e-11
4.796733439e-11
2.82933545e-11
1.635240732e-11
9.300001273e-12
5.22677128e-12
2.918780164e-12
1.628125868e-12
9.120472137e-13
5.15899929e-13
2.965719629e-13
1.746286234e-13
1.062698886e-13
6.743535066e-14
4.491067679e-14
3.144266877e-14
2.305453458e-14
1.756833095e-14
1.379047318e-14
1.106200684e-14
9.010498646e-15
7.415520573e-15
6.137135429e-15
5.081936884e-15
4.188397204e-15
3.419617225e-15
2.756547252e-15
2.190489974e-15
1.716388693e-15
1.328532089e-15
1.018622805e-15
7.760615966e-16
5.892148287e-16
4.46827674e-16
3.38975459e-16
2.574554327e-16
1.95766683e-16
1.48881851e-16
1.129672051e-16
8.514185447e-17
6.32702768e-17
4.578140523e-17
3.156225563e-17
1.991732359e-17
1.054223438e-17
3.784286021e-18
6.812625395e-19
4.549311694e-07
1.061045557e-07
2.136789764e-08
7.698793945e-09
5.312627839e-09
4.1514434e-09
3.242020962e-09
2.474846257e-09
1.84322642e-09
1.339988694e-09
9.501603004e-10
6.574038325e-10
4.433781338e-10
2.916385963e-10
1.86883406e-10
1.167732379e-10
7.11148845e-11
4.22875404e-11
2.457524801e-11
1.400682397e-11
7.85549947e-12
4.360443666e-12
2.41038781e-12
1.337874464e-12
7.526460941e-13
4.338500966e-13
2.591126846e-13
1.619182965e-13
1.065235177e-13
7.384433217e-14
5.370761792e-14
4.067367207e-14
3.180923031e-14
2.550021591e-14
2.082208342e-14
1.721079469e-14
1.430322133e-14
1.186751053e-14
9.769115374e-15
7.94267577e-15
6.363932908e-15
5.024854568e-15
3.916850713e-15
3.023206848e-15
2.318441631e-15
1.771922159e-15
1.352654712e-15
1.032816482e-15
7.893193437e-16
6.037649883e-16
4.61825671e-16
3.524549806e-16
2.672248533e-16
1.997992829e-16
1.454941753e-16
1.010230886e-16
6.44031813e-17
3.472105894e-17
1.30228612e-17
2.724066415e-18
9.634267178e-07
2.342974187e-07
5.917105171e-08
1.673329527e-08
9.925838612e-09
7.678901168e-09
6.174725137e-09
4.915773265e-09
3.84666289e-09
2.954353142e-09
2.22501482e-09
1.641985187e-09
1.186232005e-09
8.384608111e-10
5.79101028e-10
3.905637952e-10
2.569076705e-10
1.64756223e-10
1.028961125e-10
6.262330846e-11
3.714886006e-11
2.153614575e-11
1.222981463e-11
6.838072813e-12
3.788221158e-12
2.100053719e-12
1.178823233e-12
6.79440345e-13
4.075856002e-13
2.571968896e-13
1.715710547e-13
1.208308925e-13
8.931175344e-14
6.874697468e-14
5.466921854e-14
4.45401888e-14
3.683198806e-14
3.061355623e-14
2.535262485e-14
2.078137652e-14
1.679435238e-14
1.336603694e-14
1.048956096e-14
8.143011894e-15
6.278462744e-15
4.825946414e-15
3.707411543e-15
2.850158154e-15
2.19352459e-15
1.689518711e-15
1.300976112e-15
9.993007361e-16
7.625493103e-16
5.740165069e-16
4.212392917e-16
2.953676107e-16
1.909609621e-16
1.054982753e-16
4.166781933e-17
1.027546402e-17
8.984055495e-07
2.331978232e-07
8.423305339e-08
3.043570915e-08
1.593142819e-08
1.184672995e-08
9.645730577e-09
7.916415582e-09
6.434825186e-09
5.159294281e-09
4.075237274e-09
3.169632464e-09
2.426329216e-09
1.826959734e-09
1.352112979e-09
9.824916354e-10
6.998123125e-10
4.877782264e-10
3.320089639e-10
2.203767505e-10
1.42433637e-10
8.959221679e-11
5.480788188e-11
3.263472654e-11
1.89420473e-11
1.076443089e-11
6.024367054e-12
3.35180209e-12
1.877489209e-12
1.075999465e-12
6.415662952e-13
4.034195939e-13
2.693587181e-13
1.908362527e-13
1.425950892e-13
1.113512953e-13
8.979327688e-14
7.376096129e-14
6.095805131e-14
5.017754975e-14
4.085286197e-14
3.278464593e-14
2.591933906e-14
2.023021274e-14
1.565613046e-14
1.207228624e-14
9.308252118e-15
7.189656332e-15
5.565374767e-15
4.315136367e-15
3.346555121e-15
2.589549386e-15
1.991031515e-15
1.510908639e-15
1.119413855e-15
7.951608967e-16
5.24092925e-16
2.991767503e-16
1.261535842e-16
3.687547901e-17
1.093908588e-06
3.639820117e-07
1.331444629e-07
5.515296317e-08
2.602299912e-08
1.710918263e-08
1.348310862e-08
1.116342188e-08
9.279847655e-09
7.655006392e-09
6.244973716e-09
5.032793746e-09
4.005165929e-09
3.146979289e-09
2.440869671e-09
1.868170139e-09
1.410031914e-09
1.048600343e-09
7.672415496e-10
5.512180487e-10
3.878981152e-10
2.666436189e-10
1.785231419e-10
1.161574931e-10
7.335106747e-11
4.494899704e-11
2.674897473e-11
1.549907854e-11
8.788641267e-12
4.922185101e-12
2.758819261e-12
1.575025341e-12
9.343722551e-13
5.862027251e-13
3.926290261e-13
2.807634106e-13
2.125425951e-13
1.676756376e-13
1.355066669e-13
1.105919793e-13
9.015551007e-14
7.283523925e-14
5.806125233e-14
4.563487491e-14
3.547129608e-14
2.741122607e-14
2.11608434e-14
1.636741165e-14
1.270099685e-14
9.886910523e-15
7.709926046e-15
6.006876148e-15
4.65569065e-15
3.565952613e-15
2.671794314e-15
1.926267183e-15
1.297228772e-15
7.66566527e-16
3.453671151e-16
1.173279266e-16
4.175810491e-06
8.978467735e-07
2.899376354e-07
1.155000933e-07
4.7381759e-08
2.499061663e-08
1.802468485e-08
1.466992678e-08
1.231523867e-08
1.035711109e-08
8.651936016e-09
7.159678425e-09
5.864151897e-09
4.752838531e-09
3.811720187e-09
3.024684155e-09
2.374303048e-09
1.842927644e-09
1.413520709e-09
1.070200416e-09
7.986648118e-10
5.864107066e-10
4.227274625e-10
2.983272757e-10
2.054339877e-10
1.376100488e-10
8.937339238e-11
5.616543972e-11
3.414808737e-11
2.013102799e-11
1.156084626e-11
6.523904025e-12
3.669619313e-12
2.099572211e-12
1.250087961e-12
7.895538086e-13
5.344985966e-13
3.867164854e-13
2.944409135e-13
2.316807211e-13
1.85560933e-13
1.494909108e-13
1.199458493e-13
9.518390337e-14
7.453178386e-14
5.782344182e-14
4.47029013e-14
3.457436848e-14
2.681903435e-14
2.088824913e-14
1.632888136e-14
1.278325686e-14
9.979799116e-15
7.718539889e-15
5.856781281e-15
4.293767242e-15
2.96031766e-15
1.81419836e-15
8.73957818e-16
3.381761131e-16
8.766997842e-06
1.339378692e-06
4.743697072e-07
1.917726295e-07
8.429055754e-08
3.82845343e-08
2.393187314e-08
1.869296632e-08
1.566443571e-08
1.33368093e-08
1.134143057e-08
9.58169224e-09
8.027894102e-09
6.666539861e-09
5.486293034e-09
4.474300392e-09
3.615855405e-09
2.8950721e-09
2.295706978e-09
1.801917222e-09
1.398525325e-09
1.072356647e-09
8.11007539e-10
6.037734304e-10
4.41430356e-10
3.161152746e-10
2.211274749e-10
1.506288658e-10
9.958566475e-11
6.371568857e-11
3.937554626e-11
2.35183393e-11
1.364271519e-11
7.765531087e-12
4.408326189e-12
2.549177005e-12
1.535609525e-12
9.825484468e-13
6.728202976e-13
4.895802068e-13
3.724997782e-13
2.916354963e-13
2.318090106e-13
1.848696959e-13
1.463951875e-13
1.145935192e-13
8.89666705e-14
6.887463142e-14
5.33797021e-14
4.151537382e-14
3.243440498e-14
2.543352831e-14
1.995235533e-14
1.556401885e-14
1.196057272e-14
8.925849109e-15
6.308960066e-15
4.015443614e-15
2.0679962e-15
8.930406028e-16
1.263931865e-05
1.7586593e-06
6.313211299e-07
2.528533202e-07
1.216116186e-07
5.820639225e-08
3.231345374e-08
2.353827569e-08
1.946217838e-08
1.668604056e-08
1.438781567e-08
1.236151519e-08
1.055072286e-08
8.936547003e-09
7.508958808e-09
6.258492212e-09
5.174023494e-09
4.241977802e-09
3.44965759e-09
2.78156787e-09
2.22227802e-09
1.757505913e-09
1.374225436e-09
1.060802491e-09
8.069692667e-10
6.037325651e-10
4.432367608e-10
3.185720482e-10
2.235787999e-10
1.52800474e-10
1.014348828e-10
6.524703651e-11
4.059584075e-11
2.444623595e-11
1.432033294e-11
8.248961057e-12
4.748150809e-12
2.786411893e-12
1.70561605e-12
1.10984124e-12
7.720675311e-13
5.682929635e-13
4.35203881e-13
3.412792864e-13
2.704040796e-13
2.139521954e-13
1.679030259e-13
1.306985868e-13
1.013689935e-13
7.871010834e-14
6.137104155e-14
4.808615458e-14
3.779461019e-14
2.965670131e-14
2.304152007e-14
1.749133161e-14
1.267934749e-14
8.385999649e-15
4.611085089e-15
2.181067463e-15
1.60639027e-05
2.448932284e-06
6.650404307e-07
2.864534094e-07
1.466016158e-07
8.105435381e-08
4.504389553e-08
3.000688373e-08
2.386136136e-08
2.035733899e-08
1.770271157e-08
1.540993302e-08
1.335293672e-08
1.149464329e-08
9.820829449e-09
8.330318255e-09
7.01619686e-09
5.866369361e-09
4.868483076e-09
4.009384132e-09
3.274653089e-09
2.65043689e-09
2.123829683e-09
1.682923144e-09
1.316860981e-09
1.015858243e-09
7.711552632e-10
5.74896531e-10
4.199882785e-10
2.999852851e-10
2.090194206e-10
1.417590181e-10
9.339387425e-11
5.968814913e-11
3.700565131e-11
2.231228722e-11
1.315866311e-11
7.66706898e-12
4.485045204e-12
2.692284771e-12
1.699627768e-12
1.146160393e-12
8.234317367e-13
6.204039452e-13
4.814794441e-13
3.792453998e-13
2.997598679e-13
2.359870858e-13
1.844855606e-13
1.435503573e-13
1.117339122e-13
8.734659236e-14
6.861999158e-14
5.400936354e-14
4.23016553e-14
3.259231252e-14
2.420610513e-14
1.663606284e-14
9.747574721e-15
4.970247871e-15
3.39249689e-05
5.462926637e-06
1.025781168e-06
4.188528816e-07
1.913119919e-07
1.086968134e-07
6.42844898e-08
3.986888521e-08
2.930747791e-08
2.419435974e-08
2.090079333e-08
1.827920054e-08
1.597375278e-08
1.391059606e-08
1.201716369e-08
1.035060306e-08
8.857486309e-09
7.52851644e-09
6.353847686e-09
5.323124088e-09
4.425047343e-09
3.647959326e-09
2.980155538e-09
2.410257736e-09
1.927537766e-09
1.522080667e-09
1.184845332e-09
9.075953571e-10
6.827955744e-10
5.034933397e-10
3.631993923e-10
2.558060723e-10
1.75587658e-10
1.172820727e-10
7.616390391e-11
4.809475056e-11
2.958022009e-11
1.778923141e-11
1.053923504e-11
6.236001425e-12
3.759933218e-12
2.366158372e-12
1.582422279e-12
1.126414192e-12
8.430165725e-13
6.512892103e-13
5.112590386e-13
4.037367853e-13
3.186553315e-13
2.503836941e-13
1.958959283e-13
1.531553637e-13
1.201254236e-13
9.458310573e-14
7.445235801e-14
5.805063273e-14
4.407881161e-14
3.146749436e-14
1.961365119e-14
1.065054972e-14
5.835379151e-05
1.039091704e-05
1.835927763e-06
6.373982131e-07
2.733543212e-07
1.460924009e-07
8.893394932e-08
5.526174388e-08
3.673005666e-08
2.794177076e-08
2.315740037e-08
1.992089389e-08
1.737809929e-08
1.522044661e-08
1.325300011e-08
1.154065307e-08
9.992727061e-09
8.601958803e-09
7.358427253e-09
6.25275901e-09
5.275777704e-09
4.418147728e-09
3.670316808e-09
3.022509149e-09
2.464963065e-09
1.98819593e-09
1.583390718e-09
1.242701391e-09
9.592493769e-10
7.268281388e-10
5.39510811e-10
3.915810251e-10
2.774952665e-10
1.917795011e-10
1.291563785e-10
8.473728525e-11
5.418197577e-11
3.382057611e-11
2.06868924e-11
1.249060456e-11
7.540297168e-12
4.636295795e-12
2.968282139e-12
2.011365855e-12
1.445276094e-12
1.087853096e-12
8.426017837e-13
6.61867808e-13
5.22861636e-13
4.134599635e-13
3.264267807e-13
2.570903769e-13
2.023711081e-13
1.596091685e-13
1.260818687e-13
9.920321496e-14
7.674603223e-14
5.675132923e-14
3.755063092e-14
2.158715967e-14
7.749140522e-05
1.539201569e-05
2.931280188e-06
8.073467369e-07
3.66160902e-07
1.85830539e-07
1.12907624e-07
7.287585162e-08
4.741520732e-08
3.196786641e-08
2.377813569e-08
1.928012515e-08
1.638090425e-08
1.425782386e-08
1.248786817e-08
1.094598075e-08
9.57173129e-09
8.337185471e-09
7.22631298e-09
6.228499363e-09
5.335568779e-09
4.540297735e-09
3.835777891e-09
3.215181392e-09
2.671655209e-09
2.198485101e-09
1.789192101e-09
1.437588436e-09
1.137961559e-09
8.854490756e-10
6.759139339e-10
5.051410948e-10
3.687996637e-10
2.627152683e-10
1.825211136e-10
1.236434981e-10