/*--------------------------------*- C++ -*----------------------------------*\
  =========                 |
  \\      /  F ield         | OpenFOAM: The Open Source CFD Toolbox
   \\    /   O peration     | Website:  https://openfoam.org
    \\  /    A nd           | Version:  10
     \\/     M anipulation  |
\*---------------------------------------------------------------------------*/
FoamFile
{
    format      ascii;
    class       volScalarField;
    location    "3000";
    object      CH2O;
}
// * * * * * * * * * * * * * * * * * * * * * * * * * * * * * * * * * * * * * //

dimensions      [0 0 0 0 0 0 0];

internalField   nonuniform List<scalar> 
5170
(
2.495078916e-51
2.531896668e-51
2.723743381e-51
3.676865078e-51
8.886121079e-51
6.87064931e-51
7.036156754e-51
7.855861358e-51
1.170351272e-50
2.353508194e-50
1.320094617e-50
1.372186773e-50
1.601177195e-50
2.5267403e-50
4.277969215e-50
2.193580686e-50
2.314540136e-50
2.811021089e-50
4.591093353e-50
6.762779711e-50
1.093369878e-49
9.64260702e-50
8.578399153e-50
1.398360743e-49
4.375403314e-49
2.80166777e-47
2.28730588e-47
1.692085986e-47
3.670165548e-47
2.166251773e-46
1.04255554e-44
8.76450155e-45
7.394101648e-45
2.085962028e-44
1.3263549e-43
3.964475608e-42
3.472483808e-42
3.491451878e-42
1.20390394e-41
7.935958424e-41
1.542048333e-39
1.435621297e-39
1.733172871e-39
7.016494887e-39
4.663382294e-38
6.145037594e-37
6.188148503e-37
8.94166916e-37
4.136083185e-36
2.701926134e-35
2.503227249e-34
2.770810223e-34
4.765012873e-34
2.461284163e-33
1.54804802e-32
1.037825681e-31
1.284506521e-31
2.624391208e-31
1.476235187e-30
8.79077119e-30
4.361777011e-29
6.125069154e-29
1.498217316e-28
8.979276231e-28
4.955674666e-27
1.843781813e-26
2.9776971e-26
8.780780532e-26
5.542282089e-25
2.777850986e-24
7.803576014e-24
1.463195679e-23
5.207290838e-23
3.454173885e-22
1.549729498e-21
3.254430924e-21
7.152379348e-21
3.06091972e-20
2.102127834e-19
8.607208636e-19
1.330480938e-18
3.467437675e-18
1.737472377e-17
1.236003307e-16
4.763022749e-16
5.211653193e-16
1.634845713e-15
9.508723795e-15
6.873156906e-14
2.617609401e-13
1.873045453e-13
7.331941639e-13
4.870327015e-12
3.539255365e-11
1.428734928e-10
5.752048926e-11
3.166094366e-10
2.40902524e-09
1.650844605e-08
7.800061679e-08
3.019017305e-13
1.505889128e-13
1.141715263e-13
1.786001041e-13
3.115612949e-13
2.462772649e-13
1.729321061e-13
1.473304805e-13
1.932669785e-13
2.449822423e-13
1.772004885e-13
1.603107169e-13
1.505663101e-13
1.66352574e-13
1.711702196e-13
1.281602366e-13
1.333663317e-13
1.309201991e-13
1.319425366e-13
1.195285418e-13
9.496165949e-14
1.078047256e-13
1.082475867e-13
1.01857226e-13
8.394843157e-14
7.244861291e-14
8.650994614e-14
8.784829862e-14
7.800092804e-14
6.015208126e-14
5.665006949e-14
6.939945436e-14
7.068347019e-14
5.974436035e-14
4.436578916e-14
4.528954946e-14
5.593972605e-14
5.679438672e-14
4.625567724e-14
3.404529584e-14
3.700371334e-14
4.551665221e-14
4.586471951e-14
3.663859781e-14
2.735674883e-14
3.088044016e-14
3.750229344e-14
3.74615666e-14
2.989215932e-14
2.296232833e-14
2.632390176e-14
3.139630268e-14
3.111509827e-14
2.514483345e-14
1.997925972e-14
2.289593273e-14
2.676229708e-14
2.637068268e-14
2.175621905e-14
1.786501544e-14
2.028404625e-14
2.324306893e-14
2.282294675e-14
1.927769664e-14
1.629364595e-14
1.825795688e-14
2.054505961e-14
2.014562726e-14
1.740951006e-14
1.506955579e-14
1.660001417e-14
1.843692969e-14
1.8089962e-14
1.595415801e-14
1.407251e-14
1.145629682e-14
1.554602796e-14
1.614575018e-14
1.469825521e-14
1.319898292e-14
3.720476859e-13
8.489757082e-14
1.854585603e-14
8.242496502e-15
1.084663317e-14
6.494851467e-11
1.21652434e-11
1.507408957e-12
1.37780299e-13
2.39749827e-14
1.204851431e-08
1.848408738e-09
1.942810495e-10
1.64655917e-11
2.479273869e-12
2.443036782e-06
2.525117001e-07
2.118107627e-08
1.788710096e-09
2.671139663e-10
2.140446088e-09
1.617489109e-08
2.396010345e-07
3.402250486e-06
4.264871489e-05
1.276290679e-08
8.528489419e-08
1.024227041e-06
1.065612643e-05
8.129158604e-05
4.530539154e-08
2.710557913e-07
2.713345746e-06
2.18814177e-05
0.0001150896763
1.275525722e-07
6.938442353e-07
5.872666838e-06
3.711049032e-05
0.0001421148061
3.059655629e-07
1.51766693e-06
1.083056404e-05
5.433253158e-05
0.0001633439178
6.620015325e-07
2.982488401e-06
1.800308286e-05
7.331881364e-05
0.0001830923157
1.37100748e-06
5.655661582e-06
2.872079333e-05
9.475005503e-05
0.000203313682
2.73680452e-06
1.034952739e-05
4.321072599e-05
0.000116794229
0.0002223130025
5.226273924e-06
1.777924638e-05
6.034609123e-05
0.0001374530754
0.0002384346848
9.470911864e-06
2.830297925e-05
7.882711576e-05
0.0001565480336
0.0002525365297
1.657573448e-05
4.182164424e-05
9.737627871e-05
0.0001743436783
0.0002657872107
2.698615431e-05
5.732446392e-05
0.0001155027875
0.0001911064452
0.0002782514316
4.109684257e-05
7.46313674e-05
0.0001335554207
0.0002070258758
0.0002895461243
5.965141053e-05
9.415755576e-05
0.0001521605837
0.0002226154488
0.0003001659365
8.370416179e-05
0.0001167265471
0.00017212431
0.0002386979541
0.0003111259825
0.0001137393828
0.0001433895721
0.0001945760199
0.0002565081037
0.0003237968352
0.0001496794732
0.0001750742219
0.0002208967958
0.0002774944431
0.000339400051
0.0001902599998
0.0002115102781
0.0002515702072
0.0003022856662
0.0003581741725
0.0002341010351
0.0002516619482
0.0002858902667
0.0003301661087
0.000379362177
0.0002791579587
0.0002935505391
0.0003222212487
0.0003599598998
0.0004023229458
0.0003234238915
0.000335094741
0.0003587124586
0.0003902865205
0.0004261432155
0.0003651581126
0.0003745621359
0.0003938152418
0.000419869566
0.0004497421439
0.0004035255014
0.0004110580566
0.000426602882
0.0004478417086
0.0004723459231
0.00043826503
0.0004442582385
0.0004566910623
0.0004737405493
0.000493490376
0.0004695198138
0.000474229261
0.0004839875837
0.000497387584
0.0005127219443
0.0004979129143
0.0005015388655
0.0005090068021
0.0005190237975
0.000530261651
0.0005239096846
0.0005265669163
0.0005319611964
0.0005389498105
0.0005462245698
0.000546992751
0.0005486533923
0.0005518645908
0.0005555281822
0.000558480854
0.0005658297016
0.0005665101124
0.0005676465651
0.0005680390797
0.0005662403246
0.0005777083061
0.0005771857981
0.0005754736176
0.0005717370914
0.0005646553733
0.0005778453908
0.0005758353509
0.0005710545485
0.0005627138481
0.0005495646372
0.0005604016134
0.0005568032981
0.0005485518516
0.0005352420686
0.0005161651812
0.0005169777209
0.000511918302
0.0005006728976
0.0004833150472
0.0004596033258
0.0004408044477
0.00043501761
0.0004224885113
0.0004035537192
0.0003786749261
0.0003380723179
0.0003328253939
0.0003214821003
0.0003048230914
0.0002836708852
0.0002345019243
0.0002307429452
0.0002226988041
0.0002110438333
0.0001964305344
0.0001543784722
0.0001520420259
0.0001470301071
0.0001397318074
0.0001305002463
9.972099773e-05
9.826695057e-05
9.512645974e-05
9.049665768e-05
8.454043668e-05
6.300391358e-05
6.202406339e-05
5.989383623e-05
5.671794245e-05
5.257292034e-05
3.716620652e-05
3.644420986e-05
3.487451286e-05
3.254048035e-05
2.952661798e-05
1.808322453e-05
1.762988428e-05
1.667432126e-05
1.533498434e-05
1.374910759e-05
7.610882247e-06
7.449835592e-06
7.110762256e-06
6.633230497e-06
6.05740147e-06
3.242008393e-06
3.184060683e-06
3.061040111e-06
2.885322428e-06
2.669329621e-06
1.397014002e-06
1.375292959e-06
1.32893893e-06
1.262106022e-06
1.178897533e-06
6.07065786e-07
5.986895516e-07
5.807510119e-07
5.547192668e-07
5.220167718e-07
2.654998332e-07
2.62203872e-07
2.551273625e-07
2.448095105e-07
2.317610578e-07
1.167353958e-07
1.154194325e-07
1.125884789e-07
1.08445566e-07
1.031787697e-07
5.158243224e-08
5.105110931e-08
4.990629009e-08
4.822591889e-08
4.608060792e-08
2.291425498e-08
2.269785431e-08
2.22309646e-08
2.154395337e-08
2.066374982e-08
1.02443162e-08
1.015560965e-08
9.964015577e-09
9.681526068e-09
9.318569742e-09
4.618962452e-09
4.582546665e-09
4.503838192e-09
4.387634397e-09
4.238058698e-09
2.109704701e-09
2.09496756e-09
2.063123206e-09
2.016134075e-09
1.955710572e-09
9.86941612e-10
9.813691487e-10
9.69368621e-10
9.517708326e-10
9.293599281e-10
4.864694119e-10
4.849646788e-10
4.817964871e-10
4.773465479e-10
4.720649161e-10
2.699208659e-10
2.704471205e-10
2.717119957e-10
2.739224177e-10
2.774341805e-10
1.878147419e-10
1.896378832e-10
1.937570221e-10
2.003178511e-10
2.096905556e-10
1.756197286e-10
1.786070288e-10
1.853086375e-10
1.95858797e-10
2.107052682e-10
2.085273926e-10
2.12891109e-10
2.226588708e-10
2.379787128e-10
2.594306908e-10
2.828234919e-10
2.890780861e-10
3.03063858e-10
3.249601745e-10
3.555470769e-10
4.109928492e-10
4.200645576e-10
4.403359933e-10
4.720362011e-10
5.162476689e-10
6.310737243e-10
6.446791157e-10
6.75041802e-10
7.224098991e-10
7.88243824e-10
1.014636387e-09
1.034669568e-09
1.079282817e-09
1.148623036e-09
1.244506324e-09
1.634027689e-09
1.662747738e-09
1.726579956e-09
1.825447089e-09
1.961478927e-09
2.592482114e-09
2.632475199e-09
2.721190731e-09
2.858132081e-09
3.045660016e-09
4.021245595e-09
4.075235991e-09
4.194783941e-09
4.378733863e-09
4.629527299e-09
6.088129199e-09
6.158778996e-09
6.314952398e-09
6.554557635e-09
6.879907978e-09
8.973258509e-09
9.062703154e-09
9.260116564e-09
9.562190638e-09
9.970862842e-09
1.288182053e-08
1.299150056e-08
1.323323723e-08
1.360225183e-08
1.409984521e-08
1.783928171e-08
1.79689349e-08
1.825433355e-08
1.868909675e-08
1.927368972e-08
2.308420562e-08
2.323072005e-08
2.355294467e-08
2.404305176e-08
2.470066273e-08
0.0001317623524
0.0001943054042
0.0002322588667
0.0002504252921
0.0002612454289
0.0002742606737
0.0002903162685
0.0003034509041
0.0003128119333
0.0003211450245
0.0003301113766
0.0003386382612
0.0003456943402
0.0003521569701
0.0003593715218
0.0003686445445
0.0003807456036
0.0003955147012
0.0004122026635
0.0004307023579
0.0004502976654
0.0004699731415
0.0004890203737
0.0005067856501
0.0005228156806
0.0005372825805
0.0005500680884
0.0005587854234
0.0005623720374
0.0005566517488
0.00053689413
0.0004992420993
0.000439776198
0.0003588459135
0.000267436304
0.0001853235331
0.0001233869855
7.98515357e-05
4.926325275e-05
2.718654863e-05
1.263909637e-05
5.640240728e-06
2.509170575e-06
1.11623415e-06
4.97114093e-07
2.217412199e-07
9.910753573e-08
4.44132758e-08
1.997656936e-08
9.034191867e-09
4.12065337e-09
1.908326508e-09
9.120423317e-10
4.684192622e-10
2.809319424e-10
2.180750096e-10
2.237580213e-10
2.781799023e-10
3.822016573e-10
5.546999231e-10
8.452345806e-10
1.326979096e-09
2.077745726e-09
3.204984722e-09
4.841419794e-09
7.15338807e-09
1.03127959e-08
1.45144521e-08
1.975906037e-08
2.52451966e-08
0.0002753499132
2.815927884e-05
1.895509787e-06
1.251024799e-07
2.796676406e-08
0.000391992062
0.0006570217693
5.282756918e-05
3.413047486e-06
8.973501783e-07
0.0004368995295
0.0006883681937
6.545826303e-05
5.059152271e-06
2.408906244e-06
0.0004328855238
0.0005906552533
0.000186614301
1.379968366e-05
2.077567849e-06
0.0004220748281
0.0005597551532
0.0003942444548
3.216544681e-05
2.701081235e-06
0.0004231658537
0.0005776558114
0.0005519258097
5.80179895e-05
5.22142533e-06
0.0004310835619
0.0005925355198
0.0005988538152
7.93311152e-05
9.022319035e-06
0.0004315336524
0.00057116268
0.0005614875495
0.00013647586
1.812001928e-05
0.0004275720332
0.000549905959
0.0005583606354
0.000295237039
4.494662931e-05
0.0004256836042
0.0005417546054
0.0005757939734
0.0004008859209
7.216884018e-05
0.0004274739822
0.000541290235
0.0005901958116
0.0004583900052
9.385728251e-05
0.0004293134284
0.0005362518169
0.0005837292366
0.0004773182365
0.000122554952
0.0004292551425
0.0005269688601
0.0005723469684
0.0004987403556
0.0002376982187
0.0004290379105
0.0005195201256
0.0005668751034
0.0005206469
0.0003142179245
0.0004305613309
0.0005162015952
0.0005663450965
0.0005375453927
0.0003620482332
0.0004348409538
0.0005159995175
0.0005658848378
0.000544721043
0.0003893840219
0.0004416687094
0.0005165216813
0.00056160329
0.0005411339242
0.0004028093115
0.0004502644081
0.0005167926687
0.0005547652157
0.0005339864378
0.0004157648696
0.0004600205634
0.0005179827536
0.0005493075519
0.0005290609765
0.0004269467077
0.000471795121
0.0005214566075
0.0005468974379
0.0005265165704
0.0004342181516
0.0004851498218
0.0005271266035
0.0005469027203
0.0005248514462
0.0004376846085
0.0004990427609
0.0005338364708
0.0005477195421
0.0005225595723
0.0004376252655
0.0005128117386
0.0005403727913
0.0005477449875
0.0005181904984
0.0004338413467
0.0005256057656
0.0005456347684
0.0005457364902
0.0005107783421
0.0004262472565
0.0005368309129
0.0005490369713
0.0005413046362
0.0005003393252
0.0004150960609
0.0005466781612
0.0005512893291
0.0005345286141
0.0004865860606
0.0003996493107
0.0005545623042
0.0005498029107
0.0005236752682
0.0004680097532
0.000378572085
0.0005578404756
0.0005427926743
0.0005067902556
0.0004430698975
0.0003512300858
0.000555201727
0.0005291919062
0.0004823568793
0.0004108587569
0.0003179854747
0.000543195136
0.0005056998513
0.0004484359663
0.0003710876958
0.0002802115749
0.0005164758449
0.0004688181652
0.000403651592
0.0003243855836
0.000239783652
0.0004727313521
0.0004171348804
0.0003485606588
0.0002728949748
0.0001986966043
0.0004094102288
0.0003512889488
0.0002859698122
0.0002198837505
0.0001585011229
0.0003290473701
0.0002763432082
0.0002215014901
0.0001688445833
0.0001204786438
0.0002433752502
0.0002029371824
0.0001621865351
0.0001230891855
8.645519199e-05
0.0001689134276
0.0001413134436
0.0001129846905
8.49274252e-05
5.815964708e-05
0.0001128252455
9.444585783e-05
7.481442388e-05
5.477360468e-05
3.630765764e-05
7.283954507e-05
6.015807183e-05
4.626079942e-05
3.249729663e-05
2.166408781e-05
4.429934802e-05
3.525896852e-05
2.590200707e-05
1.81079809e-05
1.242106775e-05
2.374164742e-05
1.818353282e-05
1.342684608e-05
9.682528805e-06
6.843571495e-06
1.10612589e-05
8.732958446e-06
6.681695721e-06
4.979081317e-06
3.628318846e-06
5.038188737e-06
4.100888439e-06
3.235110202e-06
2.483776845e-06
1.862782871e-06
2.276177071e-06
1.898994987e-06
1.537188159e-06
1.211438342e-06
9.324994994e-07
1.024578368e-06
8.719437168e-07
7.211707162e-07
5.812980132e-07
4.578908394e-07
4.605463855e-07
3.983419196e-07
3.354662851e-07
2.75698547e-07
2.216272357e-07
2.069840454e-07
1.814610525e-07
1.551832168e-07
1.296990988e-07
1.061517672e-07
9.309736854e-08
8.256237996e-08
7.155085198e-08
6.069210485e-08
5.047753854e-08
4.194716768e-08
3.757625206e-08
3.294984099e-08
2.832321373e-08
2.390493833e-08
1.8958573e-08
1.713762195e-08
1.519014587e-08
1.322014113e-08
1.131600611e-08
8.6123936e-09
7.852493892e-09
7.033494238e-09
6.198381466e-09
5.385265168e-09
3.946396114e-09
3.631265493e-09
3.290659776e-09
2.943056353e-09
2.605744572e-09
1.83806237e-09
1.711590896e-09
1.576279522e-09
1.440922631e-09
1.314405833e-09
8.865352072e-10
8.422637242e-10
7.978253576e-10
7.583013435e-10
7.294828293e-10
4.633412389e-10
4.57335953e-10
4.563527852e-10
4.643556282e-10
4.863626384e-10
2.866056572e-10
3.014759424e-10
3.253579205e-10
3.62265731e-10
4.175794868e-10
2.311815378e-10
2.612124378e-10
3.042775631e-10
3.650907171e-10
4.500972929e-10
2.440285262e-10
2.89259983e-10
3.524287441e-10
4.394693352e-10
5.58526498e-10
3.072294985e-10
3.714318812e-10
4.601771048e-10
5.812092104e-10
7.451361847e-10
4.234506285e-10
5.141609128e-10
6.388415383e-10
8.078710244e-10
1.035414877e-09
6.141588985e-10
7.444794768e-10
9.229298973e-10
1.163909029e-09
1.48577884e-09
9.331814854e-10
1.12409291e-09
1.382028566e-09
1.724084847e-09
2.171860659e-09
1.453912968e-09
1.726213504e-09
2.088850074e-09
2.561965074e-09
3.170473959e-09
2.256232423e-09
2.634746816e-09
3.131904722e-09
3.770362533e-09
4.57738524e-09
3.448975741e-09
3.960796225e-09
4.624282018e-09
5.463704803e-09
6.507466207e-09
5.165183075e-09
5.837465199e-09
6.698366237e-09
7.772470854e-09
9.087715132e-09
7.570380762e-09
8.428208783e-09
9.514409214e-09
1.085229384e-08
1.2467509e-08
1.083320074e-08
1.189472713e-08
1.322526156e-08
1.484516397e-08
1.677598214e-08
1.514437698e-08
1.641972557e-08
1.800380086e-08
1.991241795e-08
2.216140486e-08
2.049550131e-08
2.197673596e-08
2.380231389e-08
2.59824457e-08
2.852629531e-08
2.607053112e-08
2.772249127e-08
2.974665143e-08
3.214777615e-08
3.492875029e-08
2.05611974e-09
2.250537357e-10
4.674088109e-11
2.607703308e-11
2.365173406e-11
2.130518334e-11
1.776416128e-11
1.394502236e-11
1.048879188e-11
7.684057134e-12
5.535238138e-12
3.946106407e-12
2.795054278e-12
1.972152162e-12
1.389317584e-12
9.791376821e-13
6.918216454e-13
4.910020945e-13
3.50665273e-13
2.524069031e-13
1.834018152e-13
1.347674732e-13
1.003591096e-13
7.590240859e-14
5.840097347e-14
4.57325251e-14
3.639108067e-14
2.932411575e-14
2.381816248e-14
1.940915661e-14
1.580767916e-14
1.283646882e-14
1.038244987e-14
8.364383828e-15
6.71416432e-15
5.369215935e-15
4.272414512e-15
3.375145754e-15
2.639631115e-15
2.038561545e-15
1.552292303e-15
1.165308454e-15
8.63536472e-16
6.331610503e-16
4.606883858e-16
3.336084889e-16
2.410677562e-16
1.741908183e-16
1.260585651e-16
9.144996849e-17
6.650952757e-17
4.843409198e-17
3.520493793e-17
2.537782536e-17
1.79239307e-17
1.211454564e-17
7.447430611e-18
3.730978467e-18
1.08430687e-18
1.072614719e-19
7.196637681e-08
5.865556814e-09
9.186160763e-10
5.085549453e-10
4.34221864e-10
3.649746193e-10
2.821673389e-10
2.078410363e-10
1.460335609e-10
9.99082347e-11
6.67690606e-11
4.404935088e-11
2.884042099e-11
1.885865238e-11
1.237368946e-11
8.177683033e-12
5.460222541e-12
3.690800689e-12
2.529541261e-12
1.759531525e-12
1.243400447e-12
8.938176097e-13
6.547329718e-13
4.895413158e-13
3.740203456e-13
2.918657662e-13
2.320258052e-13
1.870718851e-13
1.521415306e-13
1.24162812e-13
1.01274095e-13
8.236225783e-14
6.672370912e-14
5.385310603e-14
4.332309614e-14
3.473526708e-14
2.772177457e-14
2.196889003e-14
1.723505185e-14
1.334931984e-14
1.019190797e-14
7.669399841e-15
5.696013538e-15
4.185531205e-15
3.052120894e-15
2.215289702e-15
1.604635748e-15
1.162389494e-15
8.433640273e-16
6.133817822e-16
4.471990748e-16
3.264385506e-16
2.378181592e-16
1.71799077e-16
1.215740995e-16
8.23543205e-17
5.092991344e-17
2.607012631e-17
8.472754463e-18
1.161620626e-18
2.578827647e-07
2.05389181e-08
4.075183021e-09
2.998842926e-09
2.599865899e-09
2.165692052e-09
1.683111831e-09
1.257817998e-09
8.986356495e-10
6.242493539e-10
4.203941783e-10
2.772114138e-10
1.793044296e-10
1.145687443e-10
7.266572813e-11
4.604647968e-11
2.932622216e-11
1.887476711e-11
1.233458897e-11
8.211621802e-12
5.58332426e-12
3.884997213e-12
2.772322201e-12
2.032236756e-12
1.531133656e-12
1.183905615e-12
9.358769119e-13
7.52074323e-13
6.105831089e-13
4.980099053e-13
4.063773771e-13
3.309580923e-13
2.687727517e-13
2.176845574e-13
1.759065128e-13
1.41792128e-13
1.138360474e-13
9.077094029e-14
7.16449379e-14
5.580950892e-14
4.283134236e-14
3.238087139e-14
2.414930225e-14
1.781236682e-14
1.303475705e-14
9.493296374e-15
6.900157688e-15
5.016082623e-15
3.65254169e-15
2.666302038e-15
1.951174404e-15
1.429532118e-15
1.045133712e-15
7.574781102e-16
5.376013445e-16
3.652604077e-16
2.273299495e-16
1.181129666e-16
4.056035078e-17
6.423614973e-18
5.837512885e-07
8.81806603e-08
1.72708361e-08
1.08031681e-08
9.158091091e-09
7.652926086e-09
6.112287754e-09
4.694443796e-09
3.474804356e-09
2.496011513e-09
1.741017912e-09
1.184965579e-09
7.878888788e-10
5.140673984e-10
3.299358232e-10
2.093658405e-10
1.319243207e-10
8.306618373e-11
5.257905992e-11
3.368304399e-11
2.197324287e-11
1.46804047e-11
1.009378347e-11
7.168061973e-12
5.264356045e-12
3.990824671e-12
3.107789748e-12
2.469312008e-12
1.98774912e-12
1.611294505e-12
1.309611011e-12
1.064664956e-12
8.650479456e-13
7.02601492e-13
5.706496117e-13
4.632088544e-13
3.749786049e-13
3.016610132e-13
2.401983095e-13
1.886680428e-13
1.459058271e-13
1.110733256e-13
8.335871275e-14
6.183758379e-14
4.549215194e-14
3.329802351e-14
2.431766874e-14
1.775821216e-14
1.298764209e-14
9.521901465e-15
6.998851573e-15
5.15100222e-15
3.783035623e-15
2.753887648e-15
1.962562297e-15
1.339122713e-15
8.397323859e-16
4.430560441e-16
1.590755934e-16
2.882054835e-17
1.679693802e-06
3.08617258e-07
5.686391185e-08
2.625949553e-08
2.132331149e-08
1.814605799e-08
1.50482494e-08
1.206342986e-08
9.372930253e-09
7.081778704e-09
5.210850232e-09
3.742243945e-09
2.624762731e-09
1.801770339e-09
1.211220963e-09
7.995521286e-10
5.191210093e-10
3.328670701e-10
2.115522569e-10
1.341212235e-10
8.537976304e-11
5.506333161e-11
3.628846127e-11
2.464458044e-11
1.734040588e-11
1.265562753e-11
9.546181322e-12
7.391813634e-12
5.830152819e-12
4.651903613e-12
3.736240565e-12
3.011890062e-12
2.434513346e-12
1.973632627e-12
1.605487029e-12
1.309620191e-12
1.068306444e-12
8.675222875e-13
6.97726721e-13
5.534361616e-13
4.318804673e-13
3.314437612e-13
2.505296357e-13
1.870584045e-13
1.384588149e-13
1.019497285e-13
7.488329862e-14
5.497946595e-14
4.040863716e-14
2.975927042e-14
2.196646421e-14
1.62348013e-14
1.19754173e-14
8.757766756e-15
6.271954486e-15
4.304357316e-15
2.723552297e-15
1.462394041e-15
5.486312249e-16
1.15748356e-16
2.590654321e-06
6.660046065e-07
1.482796183e-07
5.199114408e-08
3.846097221e-08
3.288209989e-08
2.814862267e-08
2.353929818e-08
1.920244435e-08
1.530268037e-08
1.192631279e-08
9.097468554e-09
6.794583281e-09
4.971435588e-09
3.563031421e-09
2.502675593e-09
1.723047393e-09
1.164192971e-09
7.726344529e-10
5.052837152e-10
3.267796695e-10
2.104298952e-10
1.359513368e-10
8.904682473e-11
5.971442026e-11
4.134443869e-11
2.964206817e-11
2.195578414e-11
1.669446819e-11
1.293631052e-11
1.015273407e-11
8.038052696e-12
6.408312725e-12
5.144783952e-12
4.162574003e-12
3.393153411e-12
2.778487731e-12
2.272981705e-12
1.845855886e-12
1.479651216e-12
1.166430357e-12
9.031374036e-13
6.876069358e-13
5.163795365e-13
3.841562133e-13
2.842991312e-13
2.099526134e-13
1.550161058e-13
1.14562677e-13
8.480470909e-14
6.288890905e-14
4.667859252e-14
3.457777152e-14
2.540372095e-14
1.829642029e-14
1.265627023e-14
8.107850378e-15
4.455642597e-15
1.759740319e-15
4.38368877e-16
1.832008986e-06
1.032320797e-06
2.874828296e-07
9.541574496e-08
5.993690944e-08
5.021136688e-08
4.364469342e-08
3.758358527e-08
3.178950296e-08
2.639058749e-08
2.151619579e-08
1.724165569e-08
1.358694054e-08
1.053223984e-08
8.031208138e-09
6.022394446e-09
4.437691949e-09
3.210843356e-09
2.279120702e-09
1.587268453e-09
1.085149889e-09
7.299523595e-10
4.847386162e-10
3.197425192e-10
2.1115854e-10
1.410881861e-10
9.626949839e-11
6.753942112e-11
4.879493611e-11
3.619894675e-11
2.742071497e-11
2.10935742e-11
1.641936964e-11
1.291753259e-11
1.027890181e-11
8.282145092e-12
6.745917428e-12
5.523215114e-12
4.512025423e-12
3.650884602e-12
2.909120602e-12
2.276015423e-12
1.747805757e-12
1.320390653e-12
9.859064801e-13
7.315720277e-13
5.417634928e-13
4.013976967e-13
2.978969385e-13
2.215506372e-13
1.650911579e-13
1.231257531e-13
9.164895562e-14
6.769254031e-14
4.909182256e-14
3.431735395e-14
2.236367927e-14
1.267724581e-14
5.341151824e-15
1.577655876e-15
2.02393176e-06
1.526684871e-06
5.742018124e-07
1.874502223e-07
9.186650805e-08
7.032664509e-08
6.036093428e-08
5.268833507e-08
4.560061937e-08
3.891344252e-08
3.271475745e-08
2.710523433e-08
2.21460343e-08
1.785354835e-08
1.420760543e-08
1.116267358e-08
8.658035278e-09
6.627446681e-09
5.002778639e-09
3.719759031e-09
2.720724492e-09
1.955370763e-09
1.379950124e-09
9.571984883e-10
6.545340212e-10
4.436314649e-10
3.002076753e-10
2.046247632e-10
1.416696067e-10
1.002598381e-10
7.26657312e-11
5.384053847e-11
4.063022523e-11
3.112720413e-11
2.417262073e-11
1.904477671e-11
1.523897583e-11
1.234341662e-11
1.004953237e-11
8.160206806e-12
6.560702376e-12
5.192357032e-12
4.032521035e-12
3.073072846e-12
2.306376166e-12
1.715102901e-12
1.270876964e-12
9.418868716e-13
6.996647855e-13
5.213823879e-13
3.897124678e-13
2.918304931e-13
2.183043685e-13
1.622260168e-13
1.185995841e-13
8.389285669e-14
5.570722081e-14
3.26135176e-14
1.465693484e-14
5.025586725e-15
5.120012885e-06
1.989192332e-06
1.015202149e-06
3.776531171e-07
1.496024596e-07
9.527435793e-08
7.860173735e-08
6.860381425e-08
6.024520551e-08
5.245980936e-08
4.513377368e-08
3.834628736e-08
3.218459234e-08
2.67010123e-08
2.190797036e-08
1.778482456e-08
1.428761946e-08
1.13587246e-08
8.934130549e-09
6.948542608e-09
5.33942539e-09
4.049644401e-09
3.028548566e-09
2.230569667e-09
1.616435816e-09
1.152765861e-09
8.100581616e-10
5.629761293e-10
3.893806343e-10
2.701900673e-10
1.895651437e-10
1.352884588e-10
9.850174033e-11
7.316043992e-11
5.531547422e-11
4.248633051e-11
3.31455753e-11
2.626480018e-11
2.105218953e-11
1.69551073e-11
1.363186123e-11
1.087627791e-11
8.55939645e-12
6.6129255e-12
5.011227819e-12
3.744916897e-12
2.779074192e-12
2.058045661e-12
1.526084779e-12
1.135612868e-12
8.488118387e-13
6.368266967e-13
4.782780219e-13
3.576338523e-13
2.638377244e-13
1.891099651e-13
1.281346628e-13
7.756623466e-14
3.717567895e-14
1.448303747e-14
9.563753414e-06
1.919104783e-06
1.437842664e-06
6.38797789e-07
2.549255286e-07
1.301492938e-07
9.911874718e-08
8.579042014e-08
7.602417399e-08
6.724592977e-08
5.893582087e-08
5.10932651e-08
4.381365589e-08
3.718017375e-08
3.123915171e-08
2.599994408e-08
2.14423568e-08
1.752550333e-08
1.419566073e-08
1.139282527e-08
9.05389455e-09
7.121820737e-09
5.539566215e-09
4.256298816e-09
3.226878492e-09
2.411800852e-09
1.77650435e-09
1.28987811e-09
9.242278749e-10
6.553135076e-10
4.618978255e-10
3.25778948e-10
2.316818382e-10
1.67236048e-10
1.229832489e-10
9.216124542e-11
7.023257021e-11
5.434071341e-11
4.261057336e-11
3.373972053e-11
2.682714773e-11
2.131559776e-11
1.685666605e-11
1.320040132e-11
1.016968528e-11
7.690135136e-12
5.737777007e-12
4.25325359e-12
3.148318892e-12
2.335329913e-12
1.740221238e-12
1.303821181e-12
9.805929173e-13
7.367694471e-13
5.483147703e-13
3.984838913e-13
2.757441386e-13
1.727264959e-13
8.818619802e-14
3.820424662e-14
1.431823772e-05
2.168552808e-06
1.622196465e-06
8.781549217e-07
3.93449266e-07
1.851145435e-07
1.237709213e-07
1.045988088e-07
9.315301803e-08
8.348189392e-08
7.433782806e-08
6.5561576e-08
5.72436796e-08
4.949648585e-08
4.240236599e-08
3.600554697e-08
3.031613993e-08
2.531387821e-08
2.097085268e-08
1.723478349e-08
1.404598784e-08
1.13450477e-08
9.074756787e-09
7.181924895e-09
5.618069386e-09
4.339538343e-09
3.30721094e-09
2.485740716e-09
1.842622797e-09
1.348189595e-09
9.75573713e-10
7.003663604e-10
5.010419622e-10
3.59336873e-10
2.601239916e-10
1.911642929e-10
1.42963325e-10
1.086701031e-10
8.372672599e-11
6.519583984e-11
5.115104442e-11
4.025916619e-11
3.166327637e-11
2.481718398e-11
1.932165072e-11
1.485917795e-11
1.124625345e-11
8.394131519e-12
6.217091661e-12
4.598243024e-12
3.412038022e-12
2.546610355e-12
1.911925729e-12
1.439203629e-12
1.078258585e-12
7.936434312e-13
5.607973285e-13
3.634721592e-13
1.972323898e-13
9.315757078e-14
2.109064542e-05
3.293805869e-06
1.436701499e-06
1.037940998e-06
5.444301495e-07
2.707548966e-07
1.584938546e-07
1.255937336e-07
1.112969546e-07
1.005234742e-07
9.067812418e-08
8.11590269e-08
7.19700874e-08
6.32287275e-08
5.504082204e-08
4.751642633e-08
4.07045989e-08
3.460512644e-08
2.920016835e-08
2.445614271e-08
2.032382761e-08
1.675027317e-08
1.36824577e-08
1.106874675e-08
8.860057073e-09
7.010684133e-09
5.478552751e-09
4.224900041e-09
3.213720295e-09
2.411313779e-09
1.786055986e-09
1.308340387e-09
9.506529286e-10
6.881466504e-10
4.990407094e-10
3.648305827e-10
2.702695245e-10
2.033988572e-10
1.554147562e-10
1.201830487e-10
9.370410913e-11
7.339673072e-11
5.753826436e-11
4.500125716e-11
3.504643392e-11
2.7131968e-11
2.081532485e-11
1.577353632e-11
1.179604964e-11
8.741028038e-12
6.463431778e-12
4.799123839e-12
3.58795342e-12
2.697399857e-12
2.027766605e-12
1.507580585e-12
1.086182838e-12
7.27955456e-13
4.186739574e-13
2.119558512e-13
4.370679108e-05
7.070289521e-06
1.607776105e-06
1.259678573e-06
7.240621752e-07
3.912426194e-07
2.201966669e-07
1.518418911e-07
1.29596065e-07
1.166618686e-07
1.057666985e-07
9.555025559e-08
8.562935671e-08
7.615179379e-08
6.703893407e-08
5.872859022e-08
5.106797577e-08
4.408349303e-08
3.777814659e-08
3.213843104e-08
2.713602655e-08
2.27334198e-08
1.888719401e-08
1.555123764e-08
1.267944228e-08
1.022740545e-08
8.153351468e-09
6.418138808e-09
4.984954439e-09
3.818826835e-09
2.886069065e-09
2.153898416e-09
1.590549982e-09
1.165954833e-09
8.524027844e-10
6.250432158e-10
4.62436437e-10
3.468373425e-10
2.642851888e-10
2.044553465e-10
1.600002801e-10
1.260284099e-10
9.941663274e-11
7.817929266e-11
6.114463387e-11
4.750435163e-11
3.662678311e-11
2.801542644e-11
2.123055106e-11
1.591710733e-11
1.182947668e-11
8.765790051e-12
6.519249694e-12
4.880731578e-12
3.668996167e-12
2.74601123e-12
2.012157129e-12
1.393383614e-12
8.474341033e-13
4.537822265e-13
6.529044823e-05
1.175585678e-05
2.244167715e-06
1.410416706e-06
9.234857507e-07
5.297047013e-07
3.070192418e-07
1.938214156e-07
1.471119311e-07
1.280935938e-07
1.149252297e-07
1.034811756e-07
9.305046808e-08
8.338543221e-08
7.404380228e-08
6.55691552e-08
5.766317839e-08
5.037513472e-08
4.371443894e-08
3.767648074e-08
3.224645106e-08
2.740079618e-08
2.310890583e-08
1.93342986e-08
1.603679314e-08
1.317470689e-08
1.070765452e-08
8.598902249e-09
6.815841638e-09
5.328537957e-09
4.107451418e-09
3.123094504e-09
2.345887171e-09
1.745487818e-09
1.291617201e-09
9.553978977e-10
7.105287514e-10
5.342726216e-10
4.078831043e-10
3.16641101e-10
2.4955615e-10
1.987704962e-10
1.590424857e-10
1.270444104e-10
1.008150242e-10
7.925317743e-11
6.164587152e-11
4.745124379e-11
3.619982437e-11
2.73958302e-11
2.057626826e-11
1.535595689e-11
1.143441483e-11
8.539143062e-12
6.408155472e-12
4.812900813e-12
3.573308689e-12
2.549242122e-12
1.635830496e-12
9.202248729e-13
8.32943966e-05
1.664274928e-05
3.273739074e-06
1.328256616e-06
1.059396858e-06
6.573851087e-07
3.965068282e-07
2.499296557e-07
1.711043998e-07
1.322171631e-07
1.125559635e-07
9.906919527e-08
8.812726357e-08
7.891690223e-08
7.059432679e-08
6.295855399e-08
5.589843234e-08
4.937545657e-08
4.337057954e-08
3.7871145e-08
3.286465099e-08
2.833556198e-08
2.426440458e-08
2.062806756e-08
1.740013502e-08
1.455248428e-08
1.20563244e-08
9.882865963e-09
8.004725051e-09
6.39858292e-09
5.044773175e-09
3.922332487e-09
3.008730828e-09
2.28173073e-09
1.717097361e-09
1.288312707e-09
9.693477613e-10