/*--------------------------------*- C++ -*----------------------------------*\
  =========                 |
  \\      /  F ield         | OpenFOAM: The Open Source CFD Toolbox
   \\    /   O peration     | Website:  https://openfoam.org
    \\  /    A nd           | Version:  10
     \\/     M anipulation  |
\*---------------------------------------------------------------------------*/
FoamFile
{
    format      ascii;
    class       volScalarField;
    location    "3000";
    object      CH2OH;
}
// * * * * * * * * * * * * * * * * * * * * * * * * * * * * * * * * * * * * * //

dimensions      [0 0 0 0 0 0 0];

internalField   nonuniform List<scalar> 
5170
(
1.134069991e-74
5.082928398e-75
9.128845562e-76
5.997323445e-77
7.018439652e-79
8.702262185e-72
3.65715735e-72
5.485921467e-73
2.381035788e-74
2.356736525e-76
6.522154856e-69
2.553407845e-69
3.080791808e-70
9.567767523e-72
1.011897854e-73
4.815942734e-66
1.758048353e-66
1.722863761e-67
4.00017317e-69
5.271128382e-71
3.527121722e-63
1.211829559e-63
9.892329533e-65
1.798491375e-66
2.562599851e-68
2.583095182e-60
8.482104362e-61
5.790949005e-62
8.67620335e-64
1.415299606e-65
1.912081062e-57
6.082011173e-58
3.539576589e-59
4.484127168e-61
1.29938636e-62
1.425579717e-54
4.433636119e-55
2.340919662e-56
2.702395221e-58
2.496184526e-59
1.081258931e-51
3.428825112e-52
1.712835842e-53
1.991949398e-55
6.979349633e-56
8.401944901e-49
2.831109784e-49
1.403517275e-50
2.249161606e-52
2.179049573e-52
6.726377943e-46
2.521427092e-46
1.38506824e-47
5.763134275e-49
7.071005461e-49
5.533968003e-43
2.414583998e-43
1.757945247e-44
2.601025808e-45
2.348029868e-45
4.691015725e-40
2.498049425e-40
2.974674492e-41
1.367316043e-41
1.302009067e-41
4.075525925e-37
2.764791241e-37
6.344478159e-38
7.188251009e-38
7.831602909e-38
3.635760795e-34
3.296448372e-34
1.571024895e-34
3.637593554e-34
4.742889261e-34
3.276473793e-31
4.160139581e-31
4.169791964e-31
1.692366468e-30
2.874157149e-30
2.968724768e-28
5.555807484e-28
1.120985029e-27
7.078531529e-27
1.743336048e-26
2.628764443e-25
7.529320688e-25
2.93571233e-24
2.73254405e-23
1.058572895e-22
2.165083443e-22
9.881376031e-22
7.088400433e-21
9.20808053e-20
6.434717865e-19
1.4986192e-19
1.184682988e-18
1.548773698e-17
2.839373363e-16
3.965569597e-15
8.401243973e-19
3.155833802e-19
2.091409285e-19
3.996243929e-19
8.66546787e-19
3.470866457e-19
2.896867035e-19
2.358949133e-19
3.393939395e-19
3.606495478e-19
2.004939884e-19
1.715826011e-19
1.546769276e-19
1.904517026e-19
1.863681528e-19
1.213332447e-19
1.086733159e-19
1.041500974e-19
1.247795993e-19
1.096844682e-19
7.692939588e-20
7.712701003e-20
7.382172214e-20
8.496421991e-20
6.701705053e-20
5.144128786e-20
5.811384697e-20
5.784373274e-20
5.779651441e-20
4.152830408e-20
3.57932317e-20
4.385787427e-20
4.45069901e-20
3.888180666e-20
2.601274487e-20
2.566932068e-20
3.299741777e-20
3.356030984e-20
2.613295968e-20
1.684444949e-20
1.890009701e-20
2.480761441e-20
2.496509071e-20
1.799585416e-20
1.160910403e-20
1.426591909e-20
1.872600473e-20
1.854719545e-20
1.293327297e-20
8.609602322e-21
1.10604513e-20
1.430766964e-20
1.394762633e-20
9.766050937e-21
6.822159683e-21
8.815987391e-21
1.11438368e-20
1.073630874e-20
7.737691477e-21
5.691466379e-21
7.214370685e-21
8.890768374e-21
8.511425308e-21
6.388255669e-21
4.925113762e-21
5.19905809e-21
7.023849726e-21
6.893902766e-21
5.436429569e-21
4.365918803e-21
2.860089565e-21
4.00675044e-21
3.590993058e-21
3.634571536e-21
3.601255388e-21
6.128586181e-21
3.583009457e-21
2.059079071e-21
1.140682605e-21
9.43992361e-22
7.867455824e-19
2.478149832e-19
5.338872648e-20
1.399538509e-20
5.951153186e-21
1.362019332e-16
4.492545517e-17
9.702386727e-18
3.59910861e-18
1.317367865e-18
2.454936621e-14
8.168859631e-15
1.76179167e-15
1.063207071e-15
3.016155308e-16
4.659237165e-12
1.421847719e-12
3.126215206e-13
3.599148719e-13
6.291971475e-14
2.968705681e-17
3.803634917e-16
1.170686088e-14
5.414455979e-13
2.446161399e-11
1.147378564e-16
1.293030136e-15
3.394456624e-14
1.283464669e-12
3.947622926e-11
2.386886493e-16
2.41475977e-15
5.490056533e-14
1.705779e-12
3.266615694e-11
6.88252543e-16
7.874745111e-15
1.95059485e-13
5.697184526e-12
1.254908086e-10
1.759686787e-15
1.993916768e-14
4.442734336e-13
1.027922374e-11
1.744903038e-10
3.631117677e-15
3.733324836e-14
7.050491381e-13
1.297257859e-11
1.670364832e-10
7.647171105e-15
7.417604567e-14
1.212658172e-12
1.656459206e-11
1.569061067e-10
1.837299083e-14
1.759027223e-13
2.468761801e-12
2.706501745e-11
2.136482015e-10
5.082788392e-14
4.738561804e-13
5.564765475e-12
4.941637121e-11
3.381694905e-10
1.334410289e-13
1.116620755e-12
1.042537694e-11
7.352344349e-11
4.197960395e-10
3.340589592e-13
2.192899301e-12
1.564111514e-11
8.959063656e-11
4.322343716e-10
6.933637099e-13
3.553411422e-12
2.050234068e-11
1.007533593e-10
4.301671038e-10
1.392745755e-12
5.880359229e-12
2.94837736e-11
1.331515213e-10
5.405024019e-10
2.907829674e-12
1.021271895e-11
4.490993011e-11
1.842918961e-10
6.90280586e-10
6.06963184e-12
1.748510882e-11
6.602742413e-11
2.401520857e-10
8.095975726e-10
1.215646997e-11
2.87066526e-11
9.169591077e-11
2.931315323e-10
8.884952832e-10
2.321569588e-11
4.614494224e-11
1.2526444e-10
3.536294276e-10
9.741729368e-10
4.326561374e-11
7.582084497e-11
1.813426488e-10
4.671169215e-10
1.206248421e-09
8.207701394e-11
1.31641537e-10
2.848343975e-10
6.777894917e-10
1.648538954e-09
1.519035625e-10
2.272252466e-10
4.495924933e-10
9.867805119e-10
2.238068766e-09
2.631119069e-10
3.710634136e-10
6.764450867e-10
1.372337097e-09
2.898785333e-09
4.257826258e-10
5.733343773e-10
9.645304027e-10
1.821906847e-09
3.609315107e-09
6.372827956e-10
8.235242785e-10
1.317330519e-09
2.347397834e-09
4.360538823e-09
9.25282331e-10
1.160753119e-09
1.774655052e-09
2.985788173e-09
5.27024615e-09
1.333828017e-09
1.635180045e-09
2.40722934e-09
3.873869851e-09
6.560556641e-09
1.933112513e-09
2.323129674e-09
3.30600065e-09
5.193823791e-09
8.518963498e-09
2.93313226e-09
3.473165278e-09
4.823058569e-09
7.285272345e-09
1.157322167e-08
4.644880556e-09
5.367986434e-09
7.174091189e-09
1.059646359e-08
1.633936929e-08
7.653801878e-09
8.697755272e-09
1.122868294e-08
1.588011387e-08
2.379259114e-08
1.29391103e-08
1.450718534e-08
1.828797884e-08
2.500018986e-08
3.603914362e-08
2.266974125e-08
2.509107118e-08
3.084183011e-08
4.085543893e-08
5.695595859e-08
4.155881926e-08
4.536954907e-08
5.432977932e-08
6.961104754e-08
9.34192999e-08
8.014815309e-08
8.618053712e-08
1.001141423e-07
1.232702319e-07
1.58047355e-07
1.59605079e-07
1.686882638e-07
1.892088339e-07
2.220284281e-07
2.686115302e-07
3.044401414e-07
3.154795426e-07
3.397968406e-07
3.765751007e-07
4.247792498e-07
4.778107787e-07
4.863723403e-07
5.045431259e-07
5.302671721e-07
5.609813959e-07
5.732428679e-07
5.765846504e-07
5.832501581e-07
5.915078583e-07
5.990349948e-07
5.553303719e-07
5.545644587e-07
5.524015683e-07
5.478078527e-07
5.391884552e-07
4.63232234e-07
4.60145157e-07
4.530171808e-07
4.412353687e-07
4.236258621e-07
3.368255544e-07
3.322373666e-07
3.218597583e-07
3.053287597e-07
2.819319641e-07
1.853525467e-07
1.805224853e-07
1.702287924e-07
1.556151319e-07
1.382371831e-07
7.742472821e-08
7.567632782e-08
7.200411087e-08
6.685428331e-08
6.068616108e-08
3.270485645e-08
3.208969479e-08
3.07860424e-08
2.893019108e-08
2.665993326e-08
1.401634634e-08
1.378970769e-08
1.330659725e-08
1.261159639e-08
1.174902818e-08
6.070435369e-09
5.984122924e-09
5.799400576e-09
5.531713004e-09
5.196108554e-09
2.649952146e-09
2.616286872e-09
2.544032683e-09
2.438772473e-09
2.305824632e-09
1.164112748e-09
1.150751921e-09
1.122013945e-09
1.079978055e-09
1.026579596e-09
5.142369839e-10
5.08862916e-10
4.972837371e-10
4.80291456e-10
4.586061433e-10
2.284033391e-10
2.262181064e-10
2.215028771e-10
2.145644521e-10
2.056752598e-10
1.020498256e-10
1.011525397e-10
9.921395398e-11
9.635461954e-11
9.267905547e-11
4.590321118e-11
4.553132522e-11
4.472695812e-11
4.353806037e-11
4.200521774e-11
2.080811173e-11
2.065254018e-11
2.031570184e-11
1.981690328e-11
1.917209723e-11
9.516008151e-12
9.450348626e-12
9.30805477e-12
9.096994593e-12
8.823521589e-12
4.396321992e-12
4.368428267e-12
4.307935077e-12
4.218094231e-12
4.101484843e-12
2.056556547e-12
2.044732721e-12
2.019084756e-12
1.980980031e-12
1.931501809e-12
9.797566029e-13
9.749086236e-13
9.644062524e-13
9.488403504e-13
9.28703029e-13
4.832923833e-13
4.816022706e-13
4.779701516e-13
4.726651907e-13
4.65955045e-13
2.583957186e-13
2.582964198e-13
2.581395351e-13
2.580628901e-13
2.58266506e-13
1.657854361e-13
1.667132754e-13
1.688166513e-13
1.721839365e-13
1.770242143e-13
1.459938966e-13
1.479191686e-13
1.522351054e-13
1.590203231e-13
1.68550487e-13
1.860658524e-13
1.894101496e-13
1.968644852e-13
2.084661001e-13
2.245294438e-13
2.918053136e-13
2.965136196e-13
3.06936242e-13
3.229590166e-13
3.448572973e-13
4.416565846e-13
4.477307089e-13
4.611628665e-13
4.817820252e-13
5.097971144e-13
6.424883507e-13
6.498912624e-13
6.662220981e-13
6.911836758e-13
7.248940682e-13
8.926127512e-13
9.01124343e-13
9.198581627e-13
9.483795125e-13
9.866853182e-13
1.186078253e-12
1.195323894e-12
1.215630078e-12
1.246432217e-12
1.287590834e-12
1.510610936e-12
1.520101577e-12
1.54090309e-12
1.572347479e-12
1.614163153e-12
1.846941278e-12
1.856115124e-12
1.876181436e-12
1.906411929e-12
1.946425655e-12
2.167104725e-12
2.175466428e-12
2.193717713e-12
2.221120536e-12
2.257223008e-12
2.405058961e-12
2.412316838e-12
2.428127827e-12
2.451791949e-12
2.482833859e-12
1.603888322e-10
5.128301204e-10
2.933478144e-10
1.281696366e-09
1.3597617e-09
1.007529597e-09
7.604315102e-10
9.47072628e-10
1.375214389e-09
1.480069417e-09
1.340543873e-09
1.225224379e-09
1.508014053e-09
1.804022013e-09
1.947965551e-09
1.977838852e-09
2.033249746e-09
2.428674123e-09
3.194059225e-09
4.122130879e-09
5.069123022e-09
5.985074273e-09
6.922935932e-09
8.078963509e-09
9.768625859e-09
1.237761064e-08
1.642336231e-08
2.265187811e-08
3.22930349e-08
4.765999138e-08
7.34295315e-08
1.168860082e-07
1.906517671e-07
3.091096799e-07
4.625149545e-07
5.820114298e-07
6.015102794e-07
5.294733162e-07
4.071386185e-07
2.617576623e-07
1.262188968e-07
5.6260809e-08
2.498681968e-08
1.110200287e-08
4.941203624e-09
2.203902777e-09
9.853445734e-10
4.417615451e-10
1.987359858e-10
8.979738517e-11
4.079886484e-11
1.866290513e-11
8.606933066e-12
4.008932897e-12
1.892218779e-12
9.128010797e-13
4.60826969e-13
2.587638558e-13
1.813829652e-13
1.769093081e-13
2.38357534e-13
3.634283315e-13
5.333568049e-13
7.530253594e-13
1.018428165e-12
1.321477259e-12
1.648381168e-12
1.978974544e-12
2.286416894e-12
2.507796545e-12
4.998916901e-10
2.606788583e-10
3.403366066e-11
1.314090597e-11
9.741826504e-12
3.237243283e-09
6.253294179e-08
4.982846803e-09
3.368126593e-10
1.275726485e-10
1.549224723e-09
1.751487539e-08
8.596910295e-09
1.129622417e-09
3.798628159e-10
7.451345558e-09
1.293298699e-07
2.019769411e-06
1.47025081e-07
9.61375001e-09
6.567471683e-09
8.55205914e-08
9.104542625e-07
8.275761656e-08
6.905045022e-09
4.121534982e-09
4.10507548e-08
3.109251312e-07
3.768630876e-08
3.703902238e-09
2.736867102e-09
2.208213553e-08
1.408632269e-07
2.632430078e-08
3.870284727e-09
3.308042128e-09
2.81231537e-08
2.053030307e-07
1.203412729e-06
1.529399755e-07
4.547516022e-09
3.567992391e-08
2.418374141e-07
1.452521485e-06
2.244218522e-07
4.429362948e-09
2.899729046e-08
1.613127119e-07
7.714696025e-07
1.506644694e-07
3.683109273e-09
2.085096722e-08
1.01398648e-07
4.265580372e-07
9.795698655e-08
3.191029728e-09
1.662477958e-08
7.549158807e-08
3.033146952e-07
4.47129515e-07
3.89994417e-09
2.046920461e-08
9.670717438e-08
4.285287086e-07
1.590531006e-06
4.441711238e-09
2.10762184e-08
8.90816965e-08
3.466430738e-07
1.141663326e-06
4.520112636e-09
1.88909013e-08
7.157690248e-08
2.505243826e-07
7.477567662e-07
4.346291383e-09
1.643216806e-08
5.71637608e-08
1.8500891e-07
5.126768956e-07
4.271159829e-09
1.497974866e-08
4.908414787e-08
1.511589055e-07
4.073304644e-07
4.982687664e-09
1.711341086e-08
5.629366199e-08
1.784765451e-07
5.292276405e-07
6.361453744e-09
2.090294563e-08
6.609153115e-08
2.012833161e-07
5.772039192e-07
7.875263835e-09
2.410832315e-08
7.119609721e-08
2.024887439e-07
5.425613544e-07
9.243330283e-09
2.624961045e-08
7.238728839e-08
1.929327247e-07
4.852365284e-07
1.044930211e-08
2.769184795e-08
7.183087957e-08
1.810005219e-07
4.316016699e-07
1.16441773e-08
2.904804933e-08
7.145979117e-08
1.715596319e-07
3.903070605e-07
1.317129285e-08
3.120643649e-08
7.334363456e-08
1.687469028e-07
3.678617262e-07
1.550960022e-08
3.517097205e-08
7.951653665e-08
1.765089643e-07
3.717013494e-07
1.920050687e-08
4.184177548e-08
9.119432397e-08
1.955135571e-07
3.973677933e-07
2.490113788e-08
5.212774793e-08
1.093033686e-07
2.252347192e-07
4.373866216e-07
3.35518423e-08
6.735661115e-08
1.354506974e-07
2.665366493e-07
4.884212153e-07
4.677394958e-08
8.995821514e-08
1.728337853e-07
3.223181216e-07
5.496146365e-07
6.721686873e-08
1.238654944e-07
2.26165706e-07
3.955171952e-07
6.178352097e-07
1.00854268e-07
1.755292104e-07
3.010732275e-07
4.860098983e-07
6.846430459e-07
1.553206944e-07
2.529313585e-07
4.005315186e-07
5.847877557e-07
7.335960945e-07
2.428579586e-07
3.623622272e-07
5.168366004e-07
6.689344047e-07
7.418685831e-07
3.718293975e-07
4.945783647e-07
6.209426758e-07
7.05047555e-07
6.887477791e-07
5.183964696e-07
6.065686926e-07
6.695020808e-07
6.720383166e-07
5.79764773e-07
6.112355836e-07
6.417529069e-07
6.373748508e-07
5.764170876e-07
4.424986631e-07
6.029448262e-07
5.85048994e-07
5.333687878e-07
4.346501721e-07
2.935464498e-07
5.130595288e-07
4.663161171e-07
3.890688655e-07
2.806462521e-07
1.833975604e-07
3.808526747e-07
3.189412416e-07
2.372002956e-07
1.625167197e-07
1.093508227e-07
2.309575834e-07
1.749398788e-07
1.265473945e-07
8.954061284e-08
6.220423451e-08
1.092784423e-07
8.496765392e-08
6.401518534e-08
4.699464237e-08
3.37626499e-08
4.989773561e-08
4.016430593e-08
3.132255257e-08
2.377283596e-08
1.762912237e-08
2.255838682e-08
1.867146766e-08
1.49867397e-08
1.170833216e-08
8.933600983e-09
1.015702423e-08
8.595196108e-09
7.065065058e-09
5.657612066e-09
4.426451461e-09
4.567258703e-09
3.934400157e-09
3.298368171e-09
2.697427136e-09
2.157117449e-09
2.05388691e-09
1.795334563e-09
1.530188734e-09
1.274136492e-09
1.03856721e-09
9.24494872e-10
8.180838471e-10
7.071550939e-10
5.980710193e-10
4.957427888e-10
4.168521863e-10
3.727664762e-10
3.261762983e-10
2.796521603e-10
2.352738112e-10
1.884562199e-10
1.700767571e-10
1.504248699e-10
1.305390123e-10
1.112913795e-10
8.552193483e-11
7.781028824e-11
6.948049495e-11
6.095296855e-11
5.259205746e-11
3.900657131e-11
3.574884863e-11
3.21984033e-11
2.852619575e-11
2.488452536e-11
1.790545577e-11
1.651944972e-11
1.499708867e-11
1.340845816e-11
1.181755094e-11
8.284402508e-12
7.690924286e-12
7.034877704e-12
6.345370705e-12
5.649670425e-12
3.871005461e-12
3.616246405e-12
3.333513111e-12
3.035243259e-12
2.733465413e-12
1.833676987e-12
1.725579356e-12
1.605849724e-12
1.480161469e-12
1.354277602e-12
8.891619941e-13
8.460877709e-13
7.994137724e-13
7.521564378e-13
7.076380242e-13
4.533163498e-13
4.407137893e-13
4.289317199e-13
4.200925153e-13
4.167760763e-13
2.597233318e-13
2.635833589e-13
2.713837043e-13
2.851983606e-13
3.077354696e-13
1.882119079e-13
2.040018818e-13
2.268098172e-13
2.591699831e-13
3.044933611e-13
1.898769395e-13
2.186966528e-13
2.587573292e-13
3.133204564e-13
3.860463291e-13
2.59642115e-13
3.052416625e-13
3.65616131e-13
4.431428487e-13
5.397035407e-13
3.918453949e-13
4.512097014e-13
5.276571681e-13
6.234286245e-13
7.408063229e-13
5.692829435e-13
6.431578017e-13
7.364742523e-13
8.50774154e-13
9.873821229e-13
7.957876637e-13
8.824763702e-13
9.900978042e-13
1.119307652e-12
1.270323522e-12
1.066543211e-12
1.162826163e-12
1.280482159e-12
1.419163031e-12
1.57791856e-12
1.372705174e-12
1.473996615e-12
1.595961065e-12
1.737252539e-12
1.895834573e-12
1.699983097e-12
1.800864044e-12
1.920647262e-12
2.05712568e-12
2.207390762e-12
2.02793781e-12
2.122619193e-12
2.233505612e-12
2.3577692e-12
2.491937594e-12
2.330230028e-12
2.414020986e-12
2.510802456e-12
2.617424671e-12
2.730192362e-12
2.545174909e-12
2.615930913e-12
2.696585347e-12
2.783966421e-12
2.874462246e-12
2.84236219e-13
1.260864924e-14
1.423387376e-15
2.565530654e-16
5.779318426e-17
1.348997231e-17
3.005089874e-18
6.477886534e-19
1.412062406e-19
3.385807273e-20
1.030086334e-20
4.471957254e-21
2.644354289e-21
1.870181263e-21
1.447879927e-21
1.171661951e-21
9.63749221e-22
7.902969694e-22
6.374648403e-22
5.013792966e-22
3.825671304e-22
2.824628794e-22
2.01626986e-22
1.391947315e-22
9.307597983e-23
6.044660091e-23
3.828141223e-23
2.377633958e-23
1.459111206e-23
8.929578802e-24
5.507318235e-24
3.459627114e-24
2.233410199e-24
1.48945774e-24
1.026258741e-24
7.267043278e-25
5.237831904e-25
3.79734474e-25
2.736646354e-25
1.941227033e-25
1.3459423e-25
9.087017841e-26
5.969204997e-26
3.822120108e-26
2.39488077e-26
1.476269948e-26
9.006640428e-27
5.471363318e-27
3.328304666e-27
2.037940777e-27
1.26190049e-27
7.931931034e-28
5.068990182e-28
3.281333891e-28
2.122860905e-28
1.33190005e-28
7.611546527e-29
3.484067841e-29
8.613196527e-30
4.950171776e-31
4.162365637e-12
1.49686607e-13
9.365095639e-15
9.000037018e-16
1.275300405e-16
2.227856669e-17
4.357285873e-18
9.721574141e-19
2.734047212e-19
1.04906253e-19
5.227236819e-20
3.066627117e-20
1.990329847e-20
1.394425375e-20
1.039823699e-20
8.102636057e-21
6.455203778e-21
5.158468619e-21
4.07526066e-21
3.151760596e-21
2.37254312e-21
1.73324243e-21
1.22756367e-21
8.430621099e-22
5.622359745e-22
3.650588756e-22
2.316981006e-22
1.445399974e-22
8.926574491e-23
5.506031091e-23
3.42608819e-23
2.1724667e-23
1.415604679e-23
9.524735925e-24
6.616542475e-24
4.719843748e-24
3.423882956e-24
2.495757193e-24
1.806488686e-24
1.285763798e-24
8.938043284e-25
6.047246162e-25
3.980197348e-25
2.553949667e-25
1.604333035e-25
9.920744561e-26
6.075603545e-26
3.706925312e-26
2.265593334e-26
1.393797371e-26
8.668872336e-27
5.470557751e-27
3.507414978e-27
2.275710495e-27
1.473790902e-27
9.24326842e-28
5.281144203e-28
2.430395455e-28
6.286886998e-29
3.992528655e-30
9.981810028e-12
2.462576354e-13
9.923875131e-15
8.094685955e-16
1.240006248e-16
2.647808886e-17
7.284637298e-18
2.648085748e-18
1.201949686e-18
6.220315158e-19
3.414431302e-19
1.934685691e-19
1.12348931e-19
6.973854298e-20
4.686185683e-20
3.390683224e-20
2.584206953e-20
2.021821652e-20
1.580497294e-20
1.213297646e-20
9.071615258e-21
6.584882847e-21
4.638530254e-21
3.173718949e-21
2.113242138e-21
1.373479565e-21
8.749446521e-22
5.49244489e-22
3.421166633e-22
2.132134997e-22
1.341941718e-22
8.610613647e-23
5.677356187e-23
3.8640289e-23
2.714025363e-23
1.956414297e-23
1.432985386e-23
1.053461681e-23
7.680287707e-24
5.498994141e-24
3.841493761e-24
2.610043744e-24
1.724586881e-24
1.11097512e-24
7.009287279e-25
4.35621932e-25
2.683508415e-25
1.64815085e-25
1.014437421e-25
6.285091404e-26
3.935160473e-26
2.497775466e-26
1.608788816e-26
1.04692699e-26
6.78579726e-27
4.248374414e-27
2.419257928e-27
1.104663697e-27
2.780524309e-28
1.739006448e-29
2.808706843e-10
4.753424349e-12
1.01646354e-13
3.24707847e-15
3.03737988e-16
7.23208416e-17
2.841145979e-17
1.376067747e-17
7.265695767e-18
3.97709022e-18
2.202870714e-18
1.228711277e-18
6.90778754e-19
3.955722313e-19
2.32852451e-19
1.399989243e-19
9.225893899e-20
6.662025091e-20
5.030801752e-20
3.829318429e-20
2.865454252e-20
2.083422606e-20
1.467479963e-20
1.002572066e-20
6.665581603e-21
4.330441292e-21
2.762484772e-21
1.740124144e-21
1.08960883e-21
6.835965144e-22
4.335279463e-22
2.804365066e-22
1.864744675e-22
1.28057033e-22
9.081878796e-23
6.614263743e-23
4.894896822e-23
3.633388879e-23
2.671590323e-23
1.926930988e-23
1.35481938e-23
9.25959979e-24
6.153654163e-24
3.987935205e-24
2.532492909e-24
1.585426468e-24
9.845676906e-25
6.0995833e-25
3.78767282e-25
2.367090576e-25
1.494096859e-25
9.551024441e-26
6.186016634e-26
4.039644457e-26
2.620359822e-26
1.636364078e-26
9.270598484e-27
4.179445993e-27
9.97323591e-28
6.033773111e-29
3.358681379e-10
7.339951705e-12
1.423705421e-13
5.060796727e-15
6.838255456e-16
2.612203257e-16
1.310549831e-16
7.022138419e-17
3.895697168e-17
2.202448684e-17
1.254476547e-17
7.154353178e-18
4.074367322e-18
2.323612926e-18
1.333632962e-18
7.756856771e-19
4.603345119e-19
2.750692559e-19
1.781378218e-19
1.251929688e-19
9.087196337e-20
6.564954341e-20
4.634530131e-20
3.17656443e-20
2.114564154e-20
1.372327829e-20
8.730602551e-21
5.479095876e-21
3.415517038e-21
2.131330328e-21
1.342977178e-21
8.624155804e-22
5.693202624e-22
3.887557012e-22
2.749862004e-22
2.004823262e-22
1.489770181e-22
1.112252563e-22
8.229758793e-23
5.972154951e-23
4.223394899e-23
2.903057164e-23
1.940803109e-23
1.266090778e-23
8.101831098e-24
5.117054562e-24
3.209089844e-24
2.008516437e-24
1.259755585e-24
7.945377105e-25
5.055138059e-25
3.252513243e-25
2.116649898e-25
1.385962446e-25
8.991680064e-26
5.599297652e-26
3.153004723e-26
1.400866238e-26
3.133686404e-27
1.875508612e-28
6.853673979e-10
2.507944646e-11
5.714180637e-13
1.839268689e-14
2.538187245e-15
9.782901044e-16
4.926017072e-16
2.716343968e-16
1.571111882e-16
9.332782294e-17
5.615923499e-17
3.391651785e-17
2.044177814e-17
1.226318664e-17
7.31652316e-18
4.353981495e-18
2.594632297e-18
1.553752457e-18
9.369700527e-19
5.569969007e-19
3.599004581e-19
2.424967642e-19
1.658964981e-19
1.126086376e-19
7.4937892e-20
4.869908496e-20
3.092335323e-20
1.926443936e-20
1.184711497e-20
7.250881382e-21
4.459593066e-21
2.785824769e-21
1.786562377e-21
1.186914504e-21
8.206615136e-22
5.887851913e-22
4.334318129e-22
3.222119633e-22
2.381997294e-22
1.730550404e-22
1.226525456e-22
8.454403847e-23
5.670596417e-23
3.714225034e-23
2.390014542e-23
1.521227716e-23
9.634719876e-24
6.098133426e-24
3.868552607e-24
2.46558161e-24
1.582440583e-24
1.024854697e-24
6.698195701e-25
4.395140425e-25
2.851889386e-25
1.773194261e-25
9.94607106e-26
4.370273001e-26
9.149211958e-27
5.488172409e-28
1.382951776e-09
9.037408888e-11
3.174767443e-12
1.048903545e-13
7.256921749e-15
2.290583667e-15
1.140192798e-15
6.511900249e-16
3.939852241e-16
2.456670425e-16
1.558197665e-16
9.976227628e-17
6.413357392e-17
4.125150016e-17
2.649366969e-17
1.697072006e-17
1.08386726e-17
6.903070699e-18
4.383824067e-18
2.773285519e-18
1.751577757e-18
1.069274542e-18
6.916373615e-19
4.542902281e-19
2.982947931e-19
1.935911573e-19
1.233104817e-19
7.690510536e-20
4.701234776e-20
2.829997264e-20
1.691196845e-20
1.014834245e-20
6.199416923e-21
3.908504818e-21
2.569467523e-21
1.76583114e-21
1.257851734e-21
9.134409521e-22
6.64870268e-22
4.785353176e-22
3.374668904e-22
2.321457246e-22
1.556514429e-22
1.019888606e-22
6.571648186e-23
4.197466011e-23
2.675453761e-23
1.708668366e-23
1.09545641e-23
7.057598336e-24
4.574104355e-24
2.985483387e-24
1.96160486e-24
1.290917371e-24
8.388011356e-25
5.221471604e-25
2.932027623e-25
1.285211619e-25
2.547588929e-26
1.560754498e-27
1.442172008e-08
1.328666228e-09
6.517936759e-11
2.029176957e-12
7.615671009e-14
9.170657403e-15
2.921567578e-15
1.393888476e-15
7.873888741e-16
4.843819544e-16
3.116715758e-16
2.053812973e-16
1.37104424e-16
9.218999685e-17
6.22498972e-17
4.21462562e-17
2.859388544e-17
1.943717829e-17
1.322964231e-17
9.000540629e-18
6.10160008e-18
4.091819461e-18
2.705983436e-18
1.740908711e-18
1.146326947e-18
7.533985634e-19
4.875635976e-19
3.085690785e-19
1.907452155e-19
1.153945619e-19
6.856493234e-20
4.029439384e-20
2.368453608e-20
1.413262123e-20
8.691153834e-21
5.568672688e-21
3.722107901e-21
2.565258967e-21
1.793603489e-21
1.254783545e-21
8.691046419e-22
5.91739227e-22
3.946843876e-22
2.579069137e-22
1.658946927e-22
1.05920058e-22
6.76394331e-23
4.338997511e-23
2.800634843e-23
1.81934e-23
1.189482314e-23
7.826648563e-24
5.176138046e-24
3.422180912e-24
2.230879275e-24
1.393183624e-24
7.854701606e-25
3.448244564e-25
6.625740894e-26
4.16013708e-27
2.486311461e-08
3.02257245e-09
2.683078062e-10
1.300340594e-11
4.125464043e-13
2.958363671e-14
6.195078308e-15
2.479802517e-15
1.31961926e-15
7.982593642e-16
5.155476194e-16
3.452719358e-16
2.36252954e-16
1.63846114e-16
1.146529631e-16
8.075140699e-17
5.717396563e-17
4.067371335e-17
2.906459885e-17
2.084649872e-17
1.498208365e-17
1.075382594e-17
7.67479886e-18
5.404951306e-18
3.711567998e-18
2.51789524e-18
1.704666083e-18
1.132942037e-18
7.320035841e-19
4.582902473e-19
2.779984788e-19
1.643678985e-19
9.567825162e-20
5.549832539e-20
3.248003025e-20
1.939599199e-20
1.193246205e-20
7.582172656e-21
4.938098936e-21
3.262666853e-21
2.168373034e-21
1.439252297e-21
9.474340968e-22
6.153791717e-22
3.942400184e-22
2.509816856e-22
1.600927908e-22
1.027538119e-22
6.646734815e-23
4.334863178e-23
2.850100981e-23
1.887931196e-23
1.257197072e-23
8.364940934e-24
5.485540205e-24
3.447458199e-24
1.958589407e-24
8.657949304e-25
1.65095696e-25
1.073967436e-26
2.086148554e-08
3.227049124e-09
4.351956374e-10
3.91516054e-11
2.068137853e-12
1.082099359e-13
1.373693129e-14
4.182603468e-15
2.005433259e-15
1.174513098e-15
7.555262612e-16
5.110170905e-16
3.561416895e-16
2.53043229e-16
1.821771793e-16
1.32421828e-16
9.699182412e-17
7.151818579e-17
5.30660499e-17
3.960372726e-17
2.969228325e-17
2.232478138e-17
1.677457588e-17
1.253462161e-17
9.254567551e-18
6.712188878e-18
4.74229101e-18
3.34714823e-18
2.320857469e-18
1.560013184e-18
1.008743475e-18
6.269606049e-19
3.762893778e-19
2.200297596e-19
1.26745334e-19
7.27404976e-20
4.191717897e-20
2.447080459e-20
1.45715938e-20
8.87901578e-21
5.509226084e-21
3.465504471e-21
2.203964397e-21
1.409783891e-21
8.988578384e-22
5.702156697e-22
3.623817983e-22
2.319632496e-22
1.49819458e-22
9.766259063e-23
6.427383385e-23
4.269887738e-23
2.85700997e-23
1.912839296e-23
1.263863345e-23
8.017900257e-24
4.610077714e-24
2.068365367e-24
4.002941269e-25
2.751223916e-26
1.633370296e-08
2.585971764e-09
6.762318281e-10
8.832630443e-11
7.596897776e-12
4.416996157e-13
3.644574395e-14
7.493451241e-15
3.007732662e-15
1.648603806e-15
1.038175728e-15
7.016324827e-16
4.941706759e-16
3.573875064e-16
2.631613332e-16
1.963060737e-16
1.479203355e-16
1.12407589e-16
8.612926332e-17
6.649580691e-17
5.166617633e-17
4.032393434e-17
3.152178232e-17
2.458312123e-17
1.903253041e-17
1.454673834e-17
1.091185872e-17
7.981442903e-18
5.809938133e-18
4.16035508e-18
2.893745318e-18
1.939169114e-18
1.246974498e-18
7.696385449e-19
4.583571932e-19
2.653381088e-19
1.50187048e-19
8.358672657e-20
4.628981339e-20
2.596729373e-20
1.493895842e-20
8.778738469e-21
5.253162231e-21
3.211819416e-21
2.004612236e-21
1.265067263e-21
8.01618914e-22
5.103613572e-22
3.2761182e-22
2.124504676e-22
1.393113454e-22
9.238236244e-23
6.18452084e-23
4.154583528e-23
2.763328137e-23
1.771827463e-23
1.035318765e-23
4.757574034e-24
9.561474531e-25
7.12598094e-26
7.75263949e-08
1.191115582e-08
2.295607744e-09
3.510451996e-10
4.221434063e-11
3.249970378e-12
2.034231529e-13
2.190977379e-14
5.526691666e-15
2.428163341e-15
1.399490703e-15
9.174837645e-16
6.436558882e-16
4.697937154e-16
3.51604577e-16
2.680186994e-16
2.072247394e-16
1.620571026e-16
1.280005622e-16
1.02007211e-16
8.189954066e-17
6.610874488e-17
5.34961713e-17
4.323791695e-17
3.474973622e-17
2.763192602e-17
2.162203429e-17
1.654981979e-17
1.242081191e-17
9.251583279e-18
6.74533289e-18
4.769982959e-18
3.252779414e-18
2.132023571e-18
1.341537051e-18
8.11204627e-19
4.723907555e-19
2.657462389e-19
1.453196739e-19
7.81705222e-20
4.249686147e-20
2.368415393e-20
1.338016948e-20
7.705123496e-21
4.571977486e-21
2.798533587e-21
1.751527314e-21
1.110070448e-21
7.081707409e-22
4.550449135e-22
2.955928391e-22
1.945596935e-22
1.296321847e-22
8.696479917e-23
5.802416216e-23
3.755726434e-23
2.236068804e-23
1.062323894e-23
2.275605441e-24
1.939130805e-25
2.816734797e-07
4.363015405e-08
6.902977738e-09
1.118328832e-09
1.534812854e-10
1.734121497e-11
1.323905995e-12
9.867026457e-14
1.311670183e-14
3.810180331e-15
1.828947506e-15
1.118124282e-15
7.66786423e-16
5.614113038e-16
4.252181297e-16
3.32176484e-16
2.642070301e-16
2.131153979e-16
1.739165316e-16
1.433373998e-16
1.190779094e-16
9.946615579e-17
8.327170236e-17
6.9599885e-17
5.782212733e-17
4.752215221e-17
3.84480891e-17
3.047365766e-17
2.361044093e-17
1.812378162e-17
1.365112131e-17
1.000067215e-17
7.088015746e-18
4.844193745e-18
3.185917434e-18
2.013762822e-18
1.222458162e-18
7.124441576e-19
3.991082713e-19
2.165888037e-19
1.161309107e-19
6.36187068e-20
3.472780164e-20
1.906902506e-20
1.075248019e-20
6.291444716e-21
3.816933207e-21
2.385020888e-21
1.513666971e-21
9.666603993e-22
6.220816921e-22
4.043584959e-22
2.66203548e-22
1.771442897e-22
1.179328339e-22
7.680036036e-23
4.661731491e-23
2.312851757e-23
5.463868042e-24
5.953097637e-25
2.495897364e-07
4.623683794e-08
8.155484409e-09
1.682919723e-09
2.819433031e-10
3.937661144e-11
4.722300484e-12
4.382965481e-13
3.959241506e-14
6.556828192e-15
2.270165858e-15
1.220264395e-15
8.070144202e-16
5.916821563e-16
4.553853077e-16
3.657031076e-16
3.005438956e-16
2.514428021e-16
2.133103319e-16
1.828942475e-16
1.579841925e-16
1.370126323e-16
1.188540061e-16
1.027105672e-16
8.804592759e-17
7.453504606e-17
6.203506771e-17
5.048910941e-17
4.042681083e-17
3.19097947e-17
2.461169193e-17
1.844857734e-17
1.339638883e-17
9.403627836e-18
6.371725783e-18
4.162290275e-18
2.618263891e-18
1.584349737e-18
9.216701352e-19
5.164070579e-19
2.814730235e-19
1.54654482e-19
8.415159461e-20
4.557748344e-20
2.503147307e-20
1.414369975e-20
8.280350744e-21
5.020600902e-21
3.134761613e-21
1.99562447e-21
1.283481503e-21
8.27547145e-22
5.38281911e-22
3.537360965e-22
2.336368184e-22
1.523887478e-22
9.412710944e-23
4.914563717e-23
1.339944263e-23
1.811177574e-24
1.858142137e-07
3.932503721e-08
7.83679105e-09
1.934122069e-09
4.143127929e-10
7.274740938e-11
1.138629208e-11
1.578936947e-12
1.660157871e-13
1.775222749e-14
3.489562784e-15
1.340051155e-15
7.728917843e-16
5.495389978e-16
4.309148513e-16
3.573093602e-16
3.065120853e-16
2.68704595e-16
2.388221952e-16
2.139702687e-16
1.923670347e-16
1.728633811e-16
1.547132383e-16
1.374536644e-16
1.207959811e-16
1.045800275e-16
8.917102929e-17
7.506518734e-17
6.20164489e-17
5.006519811e-17
3.93422624e-17
2.999055696e-17
2.212325814e-17
1.578057603e-17
1.08824317e-17
7.252185369e-18