/*--------------------------------*- C++ -*----------------------------------*\
  =========                 |
  \\      /  F ield         | OpenFOAM: The Open Source CFD Toolbox
   \\    /   O peration     | Website:  https://openfoam.org
    \\  /    A nd           | Version:  10
     \\/     M anipulation  |
\*---------------------------------------------------------------------------*/
FoamFile
{
    format      ascii;
    class       volScalarField;
    location    "3000";
    object      CH3;
}
// * * * * * * * * * * * * * * * * * * * * * * * * * * * * * * * * * * * * * //

dimensions      [0 0 0 0 0 0 0];

internalField   nonuniform List<scalar> 
5170
(
2.852033481e-39
2.867774532e-39
2.960314629e-39
3.476658149e-39
6.204110058e-39
5.70345672e-39
5.756619608e-39
6.055747339e-39
7.588801479e-39
1.177535355e-38
8.574650879e-39
8.718944901e-39
9.401136379e-39
1.221088354e-38
1.693676644e-38
1.152760727e-38
1.182794719e-38
1.307053835e-38
1.733895359e-38
2.203126627e-38
1.458727631e-38
1.510919774e-38
1.706135246e-38
2.293948862e-38
2.713604569e-38
1.781268934e-38
1.861070868e-38
2.140106186e-38
2.894960068e-38
3.237860738e-38
2.116792793e-38
2.227381813e-38
2.611335922e-38
3.527521216e-38
3.782551232e-38
2.467359443e-38
2.615044166e-38
3.108871476e-38
4.178489147e-38
4.34725644e-38
2.870051788e-38
3.057041382e-38
3.673321653e-38
5.016303965e-38
6.126696179e-38
1.882771078e-37
1.926642408e-37
2.721728438e-37
1.124217167e-36
7.061255468e-36
6.359723696e-35
7.085166827e-35
1.228325523e-34
6.368750556e-34
4.023202838e-33
2.633608475e-32
3.28270504e-32
6.765225725e-32
3.826676831e-31
2.293442083e-30
1.107038276e-29
1.566739965e-29
3.868191822e-29
2.335950663e-28
1.300728986e-27
4.68448267e-27
7.631695116e-27
2.274176205e-26
1.450199113e-25
7.354869991e-25
1.98676082e-24
3.76230969e-24
1.355383873e-23
9.114858354e-23
4.15187114e-22
8.310438563e-22
1.847031391e-21
8.021574378e-21
5.609925149e-20
2.341048633e-19
3.410518208e-19
9.001147152e-19
4.590035825e-18
3.341149871e-17
1.319015231e-16
1.341988658e-16
4.26838725e-16
2.53402221e-15
1.882972788e-14
7.383075758e-14
4.844969139e-14
1.924359116e-13
1.306091865e-12
9.758009816e-12
4.064025247e-11
1.493889928e-11
8.347390284e-11
6.459530413e-10
4.475712532e-09
2.135085317e-08
2.561923997e-20
1.014021049e-20
6.579880097e-21
1.219877331e-20
2.735024292e-20
1.059379388e-20
8.702388595e-21
6.897280948e-21
1.012975156e-20
1.137752425e-20
5.158678848e-21
5.059889364e-21
4.532858251e-21
5.651758173e-21
5.592798104e-21
2.93691373e-21
3.133371716e-21
2.98473848e-21
3.237124697e-21
3.031233712e-21
1.955680814e-21
2.024973555e-21
2.008632181e-21
2.099036611e-21
1.907141587e-21
1.388676944e-21
1.491858384e-21
1.465727116e-21
1.483780875e-21
1.223979599e-21
1.006375622e-21
1.150097016e-21
1.165939582e-21
1.035272291e-21
7.583463504e-22
7.385125637e-22
9.121100704e-22
9.331874759e-22
7.938466192e-22
4.973999412e-22
5.316143155e-22
6.93530413e-22
7.233008438e-22
5.426172156e-22
3.371876778e-22
4.214498572e-22
5.283362891e-22
5.628918964e-22
4.03871174e-22
2.78652313e-22
3.337969646e-22
4.113968146e-22
4.333639402e-22
2.879271467e-22
2.259347016e-22
2.573836089e-22
3.30885358e-22
3.172963619e-22
2.495795899e-22
1.89376937e-22
3.119682021e-22
2.336913222e-22
1.98097332e-22
2.086357163e-22
1.759101336e-22
2.869184471e-20
6.889374665e-21
1.221560339e-21
1.891849477e-22
7.552538151e-23
4.86365519e-18
1.126066587e-18
1.791943126e-19
1.918283431e-20
4.001727397e-21
8.327741015e-16
1.85891158e-16
2.807376453e-17
2.878471582e-18
5.503517208e-19
1.442738019e-13
3.033768644e-14
4.244316536e-15
4.124035673e-16
7.21635823e-17
2.549016229e-11
4.834146291e-12
6.064979674e-13
5.524604958e-14
9.023337155e-15
4.743094166e-09
7.40897593e-10
7.949344444e-11
6.788560251e-12
1.073996197e-12
9.697590998e-07
1.033959483e-07
8.971017329e-09
7.54412272e-10
1.234038865e-10
5.059186793e-10
3.84169424e-09
5.65578052e-08
7.615423601e-07
9.222995674e-06
2.222807143e-09
1.40822492e-08
1.547782734e-07
1.389814462e-06
1.013082398e-05
5.942060078e-09
3.216912111e-08
2.767276843e-07
1.847168489e-06
9.79254902e-06
1.276944989e-08
6.068138666e-08
4.265178939e-07
2.291629161e-06
9.718162756e-06
2.399411659e-08
1.018077064e-07
6.002752316e-07
2.725189573e-06
9.934840651e-06
4.166777453e-08
1.596902159e-07
8.136504065e-07
3.2761496e-06
1.080812112e-05
7.084462756e-08
2.520326226e-07
1.147070416e-06
4.165435604e-06
1.245157313e-05
1.197713132e-07
4.034599989e-07
1.63525504e-06
5.246010618e-06
1.41210287e-05
2.000222445e-07
6.335940881e-07
2.242421597e-06
6.306548829e-06
1.546382379e-05
3.263240026e-07
9.547724634e-07
2.93728014e-06
7.372537419e-06
1.68224436e-05
5.299933931e-07
1.376621289e-06
3.684090228e-06
8.467700041e-06
1.825660393e-05
8.218428739e-07
1.867478208e-06
4.446793429e-06
9.544209232e-06
1.957438071e-05
1.217520132e-06
2.4345346e-06
5.255511275e-06
1.063217337e-05
2.081748693e-05
1.757382085e-06
3.116507845e-06
6.170130215e-06
1.182970228e-05
2.221531319e-05
2.516464167e-06
3.981324804e-06
7.266145929e-06
1.323725867e-05
2.390686301e-05
3.579003627e-06
5.121953064e-06
8.633596332e-06
1.495149125e-05
2.601302476e-05
5.038272812e-06
6.65188842e-06
1.039595826e-05
1.710006718e-05
2.86384694e-05
6.929161507e-06
8.62258432e-06
1.261099615e-05
1.972711012e-05
3.173928614e-05
9.307018388e-06
1.110325932e-05
1.536354205e-05
2.291340366e-05
3.542223745e-05
1.22033547e-05
1.413351277e-05
1.871170078e-05
2.675672879e-05
3.983206192e-05
1.570515207e-05
1.779766206e-05
2.274930453e-05
3.135624639e-05
4.511924426e-05
1.989368048e-05
2.21792841e-05
2.755217464e-05
3.677192171e-05
5.132282923e-05
2.488994802e-05
2.737850571e-05
3.319562385e-05
4.308653224e-05
5.855380054e-05
3.080750145e-05
3.352022332e-05
3.984211887e-05
5.052424228e-05
6.701904316e-05
3.786787178e-05
4.086138779e-05
4.781219362e-05
5.942907969e-05
7.718674715e-05
4.657817305e-05
4.99272145e-05
5.767198654e-05
7.059949012e-05
9.012678765e-05
5.792649628e-05
6.175291911e-05
7.058356506e-05
8.531359833e-05
0.0001074673808
7.357868975e-05
7.809645244e-05
8.849939317e-05
0.0001057237201
0.0001313192754
9.582942508e-05
0.000101173959
0.0001133689639
0.0001335691889
0.0001637708221
0.0001292925735
0.0001358997621
0.0001512698938
0.0001762655664
0.0002128136324
0.0001824560017
0.0001910194768
0.0002103664703
0.0002414385752
0.0002860952904
0.0002666045691
0.0002773902966
0.0003016544642
0.0003395193972
0.0003915753202
0.0003955689114
0.0004080903291
0.0004355873214
0.0004773736235
0.0005318206183
0.0005734326269
0.000585292504
0.0006104481892
0.0006464288548
0.0006894588232
0.0007520794488
0.0007584810899
0.0007712806852
0.0007871723769
0.0008015787029
0.0008245165478
0.0008233424465
0.0008197583245
0.0008116782695
0.0007962228981
0.0007520275905
0.0007460316383
0.0007324150082
0.0007106184975
0.0006795681778
0.0005933504537
0.0005858996255
0.0005694326855
0.0005442162991
0.0005102032898
0.0004120642992
0.0004050332641
0.0003896674786
0.0003665928623
0.0003363083417
0.0002433561628
0.0002377157387
0.0002255539927
0.0002077734667
0.000185443937
0.0001118071231
0.000108817837
0.0001025898654
9.400780659e-05
8.399338402e-05
4.667520979e-05
4.565905411e-05
4.352263412e-05
4.05217197e-05
3.69135743e-05
1.98072587e-05
1.944509488e-05
1.867676439e-05
1.758069725e-05
1.62356009e-05
8.512367754e-06
8.377536687e-06
8.089913002e-06
7.675547098e-06
7.160230097e-06
3.692149963e-06
3.640430108e-06
3.529694074e-06
3.369084415e-06
3.167478352e-06
1.612743585e-06
1.592476048e-06
1.548967339e-06
1.485552533e-06
1.405399192e-06
7.085082227e-07
7.00441009e-07
6.830876065e-07
6.576975977e-07
6.254311779e-07
3.128877968e-07
3.096373318e-07
3.026336672e-07
2.923546123e-07
2.792337063e-07
1.389099515e-07
1.375870042e-07
1.347324726e-07
1.305318734e-07
1.251496824e-07
6.203565299e-08
6.149222424e-08
6.031820479e-08
5.85865835e-08
5.636057508e-08
2.78944481e-08
2.76692332e-08
2.71821363e-08
2.646220982e-08
2.553403183e-08
1.264337627e-08
1.254923045e-08
1.234540588e-08
1.204360666e-08
1.165351038e-08
5.784673163e-09
5.745041059e-09
5.659166781e-09
5.531825832e-09
5.366890715e-09
2.677322115e-09
2.660626547e-09
2.624435105e-09
2.570728106e-09
2.501099874e-09
1.259509612e-09
1.252627739e-09
1.237720686e-09
1.215629358e-09
1.18705205e-09
6.101061524e-10
6.075591619e-10
6.020706194e-10
5.940138961e-10
5.83742501e-10
3.152616227e-10
3.147818573e-10
3.137997814e-10
3.124976874e-10
3.111113965e-10
1.886419649e-10
1.893487089e-10
1.9096952e-10
1.936121731e-10
1.974971723e-10
1.476050504e-10
1.492655369e-10
1.52995848e-10
1.588809517e-10
1.671844484e-10
1.590048909e-10
1.617699225e-10
1.679573128e-10
1.776557205e-10
1.912236605e-10
2.1785551e-10
2.222523611e-10
2.320787579e-10
2.474484816e-10
2.688904202e-10
3.490156246e-10
3.560342185e-10
3.716791865e-10
3.960357169e-10
4.297866358e-10
5.927927679e-10
6.033984113e-10
6.26969101e-10
6.634728388e-10
7.136867915e-10
9.924482139e-10
1.007647586e-09
1.041344548e-09
1.093306072e-09
1.164357086e-09
1.602319572e-09
1.623090977e-09
1.6690412e-09
1.739630214e-09
1.835647193e-09
2.486638031e-09
2.513783514e-09
2.573718465e-09
2.66548338e-09
2.789726561e-09
3.707533088e-09
3.741487013e-09
3.816324125e-09
3.930566695e-09
4.0846122e-09
5.320548312e-09
5.361263156e-09
5.450862872e-09
5.587282981e-09
5.770568869e-09
7.309062044e-09
7.355829746e-09
7.458606236e-09
7.614732572e-09
7.823843934e-09
9.324391611e-09
9.37550168e-09
9.487707192e-09
9.657865043e-09
9.885232635e-09
3.982019505e-05
3.832495585e-05
3.040161662e-05
2.570969929e-05
2.421389919e-05
2.487550909e-05
2.690191712e-05
2.824552207e-05
2.904901665e-05
3.02052391e-05
3.160133852e-05
3.269960334e-05
3.360907567e-05
3.482313788e-05
3.649071813e-05
3.872088558e-05
4.151920027e-05
4.475483404e-05
4.863150287e-05
5.33797743e-05
5.918212533e-05
6.599239788e-05
7.393515876e-05
8.323332014e-05
9.450855652e-05
0.000108973677
0.0001284908265
0.0001553063112
0.0001923541541
0.0002462089847
0.0003255878854
0.0004353193704
0.0005741890044
0.0007186264469
0.0008062869528
0.0007790625983
0.0006523096783
0.0004820587749
0.0003121374143
0.0001688081759
7.702133094e-05
3.43059599e-05
1.52401023e-05
6.772704257e-06
3.014116618e-06
1.343894777e-06
6.005011065e-07
2.690385928e-07
1.209474428e-07
5.461525081e-08
2.480356209e-08
1.134550621e-08
5.236330497e-09
2.445925729e-09
1.164482413e-09
5.757996288e-10
3.103482504e-10
2.01082303e-10
1.745056908e-10
2.030674552e-10
2.875457305e-10
4.588858785e-10
7.565859712e-10
1.224603243e-09
1.916526444e-09
2.893771061e-09
4.212951357e-09
5.922574246e-09
7.996593151e-09
1.007250495e-08
0.000109846914
1.20732815e-05
8.692431352e-07
6.165176401e-08
1.50197328e-08
0.0001110204776
0.0005157363904
4.119609884e-05
2.646367885e-06
3.870106772e-07
8.338241895e-05
0.000321246603
3.347417049e-05
2.717955316e-06
6.404388039e-07
6.590653627e-05
0.0002557620718
0.0005842174175
4.120297181e-05
2.664407049e-06
5.997317891e-05
0.0002510957404
0.001010567955
8.308918195e-05
5.922537906e-06
5.908043777e-05
0.0002307420128
0.0008023115081
8.711194327e-05
7.725404186e-06
6.026252463e-05
0.0002112257575
0.0006334324003
8.660986965e-05
9.974583676e-06
5.901909836e-05
0.0001845900846
0.0004937642711
0.0002324596176
3.071026689e-05
5.753779714e-05
0.0001695742725
0.0004645588061
0.0008604861523
0.000128634954
5.753622094e-05
0.0001616079524
0.0004320226654
0.0009230367786
0.0001678967063
5.816874876e-05
0.0001550752893
0.0003943329659
0.0008320651398
0.0001735242756
5.818003114e-05
0.0001463371187
0.000349330236
0.0007015445471
0.0001968566418
5.790653856e-05
0.0001381928924
0.0003163669412
0.0006446281997
0.0006423977296
5.835782979e-05
0.0001334616963
0.0002962593354
0.0006062103271
0.0008395960013
5.962560232e-05
0.0001312278948
0.0002819852961
0.0005665648189
0.0008509024206
6.178217294e-05
0.000130981703
0.0002715040455
0.0005289429148
0.000803867287
6.457431109e-05
0.000131492826
0.0002621165414
0.000492327334
0.0007402014143
6.770610542e-05
0.0001323461028
0.0002546872471
0.0004654506244
0.0007082118445
7.162884545e-05
0.000134978986
0.0002525927823
0.0004539279457
0.000706423712
7.670929241e-05
0.0001400792609
0.0002556935222
0.0004515698963
0.0007066223461
8.314747381e-05
0.0001474962335
0.0002625025205
0.0004536910945
0.0007029389907
9.073552057e-05
0.0001566274562
0.0002714183103
0.0004576234508
0.0006966536839
9.965563485e-05
0.000167229292
0.0002819745254
0.0004631703931
0.0006895333538
0.0001102057374
0.0001798487206
0.0002951504755
0.0004718801391
0.0006841966221
0.0001231261299
0.0001956485659
0.0003127986911
0.0004866940402
0.0006856097371
0.0001399022181
0.0002169021473
0.0003379949388
0.0005112601022
0.0006966694615
0.0001627458499
0.0002464275407
0.0003741237561
0.0005479701647
0.000715975298
0.0001941467911
0.0002872172005
0.000423799978
0.0005965659853
0.000738625475
0.0002379877692
0.000343261917
0.0004887088148
0.0006537375627
0.0007570259835
0.0002989558988
0.0004179637542
0.0005677694958
0.0007118325001
0.0007622037846
0.0003873471557
0.0005138529831
0.0006549847406
0.0007584237473
0.0007453099221
0.0005022249051
0.0006246211667
0.0007352690919
0.0007775909492
0.000699874126
0.0006367379169
0.0007308147166
0.0007843546717
0.0007545148923
0.0006235994385
0.0007588337907
0.0007951865287
0.0007759992079
0.0006824304603
0.0005207007858
0.000809127888
0.0007783873777
0.00069866975
0.0005685508462
0.0004039483503
0.0007504074829
0.0006754876268
0.0005669740143
0.0004310360152
0.0002872148715
0.0006099382911
0.0005214649983
0.0004126720362
0.0002938676884
0.0001885559994
0.0004392839715
0.000357275194
0.0002659231718
0.0001801262367
0.0001176239722
0.0002760034553
0.0002121128148
0.0001508590907
0.0001034709387
6.975968882e-05
0.0001447528878
0.0001088723027
7.93070343e-05
5.641134861e-05
3.933744395e-05
6.710497459e-05
5.252248404e-05
3.980303468e-05
2.93638688e-05
2.118057726e-05
3.054555977e-05
2.471630116e-05
1.936701669e-05
1.476101347e-05
1.098647149e-05
1.379292809e-05
1.145895017e-05
9.23084341e-06
7.236016726e-06
5.538355347e-06
6.206195577e-06
5.265544068e-06
4.339674481e-06
3.484246976e-06
2.732888751e-06
2.789007523e-06
2.406916929e-06
2.021715876e-06
1.656640489e-06
1.327422708e-06
1.253336993e-06
1.096963355e-06
9.362682352e-07
7.807535464e-07
6.37377732e-07
5.63704772e-07
4.992763257e-07
4.320184901e-07
3.657825352e-07
3.035572677e-07
2.539605684e-07
2.2725244e-07
1.99000354e-07
1.70760275e-07
1.437954043e-07
1.147219109e-07
1.035848703e-07
9.166925067e-08
7.96037898e-08
6.791776981e-08
5.202570015e-08
4.735323546e-08
4.230424424e-08
3.713339347e-08
3.206179416e-08
2.371830207e-08
2.174539102e-08
1.959491607e-08
1.737059943e-08
1.516503838e-08
1.088736504e-08
1.004919787e-08
9.128909261e-09
8.169204572e-09
7.209253829e-09
5.041951829e-09
4.684655783e-09
4.290347706e-09
3.877012782e-09
3.461680627e-09
2.363759352e-09
2.212533901e-09
2.04562108e-09
1.87101027e-09
1.696630406e-09
1.130925376e-09
1.0696975e-09
1.003125106e-09
9.352321407e-10
8.703299071e-10
5.641021189e-10
5.438387684e-10
5.236835388e-10
5.062255476e-10
4.945339388e-10
3.094308152e-10
3.098389946e-10
3.138475228e-10
3.237441806e-10
3.424740691e-10
2.067492018e-10
2.203064365e-10
2.405111186e-10
2.699568708e-10
3.121192468e-10
1.85886315e-10
2.113821939e-10
2.470994252e-10
2.96404021e-10
3.638633115e-10
2.214073962e-10
2.618432154e-10
3.175550114e-10
3.932367842e-10
4.952819244e-10
3.163961634e-10
3.796700142e-10
4.658802021e-10
5.810839027e-10
7.330352412e-10
5.037075908e-10
6.001372174e-10
7.288427361e-10
8.969538019e-10
1.113110237e-09
8.224274047e-10
9.618725383e-10
1.144602232e-09
1.37841929e-09
1.672428444e-09
1.316787149e-09
1.50938871e-09
1.757716516e-09
2.06970679e-09
2.454260359e-09
2.039951377e-09
2.294740712e-09
2.61854951e-09
3.018768367e-09
3.50330601e-09
3.052168357e-09
3.375690364e-09
3.781610128e-09
4.276028061e-09
4.865051388e-09
4.407932682e-09
4.802441319e-09
5.291859436e-09
5.880307331e-09
6.571394177e-09
6.153075225e-09
6.61564006e-09
7.183782294e-09
7.859082039e-09
8.642133514e-09
8.258158721e-09
8.779306729e-09
9.413962815e-09
1.016093114e-08
1.101764927e-08
1.035572614e-08
1.091698672e-08
1.159606629e-08
1.238930959e-08
1.329143658e-08
5.247322445e-10
2.406016121e-11
2.78727479e-12
6.045514565e-13
2.265726377e-13
1.301605425e-13
9.416230439e-14
7.413075102e-14
5.926853338e-14
4.715223811e-14
3.709262347e-14
2.881905984e-14
2.211173387e-14
1.676091081e-14
1.256312804e-14
9.321885565e-15
6.858105692e-15
5.012002559e-15
3.647562693e-15
2.651534265e-15
1.932240887e-15
1.416872946e-15
1.048943175e-15
7.857827163e-16
5.961256626e-16
4.576380544e-16
3.547211198e-16
2.767179411e-16
2.164829125e-16
1.692843768e-16
1.319883022e-16
1.024617039e-16
7.916326316e-17
6.089015453e-17
4.664050099e-17
3.555878169e-17
2.693027634e-17
2.018982836e-17
1.491853072e-17
1.081910334e-17
7.677207405e-18
5.324107613e-18
3.612034125e-18
2.40472292e-18
1.578502153e-18
1.027247122e-18
6.661315327e-19
4.319294361e-19
2.803745743e-19
1.819808544e-19
1.177699968e-19
7.572721098e-20
4.821803226e-20
3.029519872e-20
1.866901525e-20
1.111128795e-20
6.115591148e-21
2.797645241e-21
7.563100999e-22
7.092485036e-23
1.428440279e-08
5.063334362e-10
3.239857221e-11
4.700871117e-12
2.104453645e-12
1.522216872e-12
1.184853486e-12
9.357687038e-13
7.261551126e-13
5.545500226e-13
4.134689763e-13
3.023106223e-13
2.171644898e-13
1.540269539e-13
1.083040205e-13
7.577498628e-14
5.29147947e-14
3.697393624e-14
2.592110856e-14
1.828336915e-14
1.301511085e-14
9.37931015e-15
6.860163744e-15
5.099158728e-15
3.851233638e-15
2.950588914e-15
2.286220154e-15
1.78461746e-15
1.397733718e-15
1.094387047e-15
8.543390147e-16
6.640237842e-16
5.136721815e-16
3.956513642e-16
3.035694638e-16
2.31920587e-16
1.7607084e-16
1.323495478e-16
9.80519145e-17
7.128310369e-17
5.069490739e-17
3.522891966e-17
2.394870178e-17
1.597822189e-17
1.05136599e-17
6.860765079e-18
4.462376723e-18
2.902644217e-18
1.890094648e-18
1.23039249e-18
7.98368041e-19
5.146008073e-19
3.284046932e-19
2.067688548e-19
1.276515067e-19
7.610437567e-20
4.205651032e-20
1.955524992e-20
5.841932838e-21
7.418544828e-22
2.359447273e-08
6.467026129e-10
4.197220873e-11
1.276787054e-11
8.910795208e-12
7.115730193e-12
5.718458731e-12
4.631285817e-12
3.686112099e-12
2.887733683e-12
2.19891841e-12
1.633002062e-12
1.179941494e-12
8.332373771e-13
5.768346119e-13
3.936218715e-13
2.662351786e-13
1.795570364e-13
1.2150447e-13
8.29629797e-14
5.744191778e-14
4.047836777e-14
2.910193294e-14
2.13608378e-14
1.599073544e-14
1.217740701e-14
9.397938762e-15
7.317416809e-15
5.722784873e-15
4.478387271e-15
3.497039884e-15
2.72090922e-15
2.108773156e-15
1.628687281e-15
1.254130806e-15
9.62370117e-16
7.343232911e-16
5.54962026e-16
4.133706513e-16
3.020673474e-16
2.158495851e-16
1.506564594e-16
1.02835879e-16
6.888176756e-17
4.550470021e-17
2.981744088e-17
1.94781159e-17
1.272628952e-17
8.323240562e-18
5.440917748e-18
3.544459942e-18
2.293126475e-18
1.468481013e-18
9.274697311e-19
5.740304056e-19
3.428241187e-19
1.900373332e-19
8.905799587e-20
2.776909946e-20
4.017178145e-21
1.031020404e-07
2.442159481e-09
1.274266492e-10
3.627373768e-11
2.581325266e-11
2.092583559e-11
1.724031946e-11
1.424372292e-11
1.165332734e-11
9.395233294e-12
7.40355176e-12
5.694390418e-12
4.261701794e-12
3.10800126e-12
2.20977374e-12
1.53720908e-12
1.049763996e-12
7.079184354e-13
4.745336734e-13
3.187508798e-13
2.162235519e-13
1.491074741e-13
1.049957959e-13
7.564697414e-14
5.573930887e-14
4.189174963e-14
3.198279183e-14
2.468495946e-14
1.917034191e-14
1.492106686e-14
1.160802539e-14
9.013807046e-15
6.985235986e-15
5.40535549e-15
4.178894661e-15
3.225537811e-15
2.479065439e-15
1.888502474e-15
1.418071205e-15
1.044361738e-15
7.517982202e-16
5.283683012e-16
3.630124172e-16
2.446692755e-16
1.626119107e-16
1.071862396e-16
7.042474321e-17
4.62676017e-17
3.041598628e-17
1.997878656e-17
1.307556665e-17
8.498287771e-18
5.466675552e-18
3.467118119e-18
2.153119607e-18
1.288669266e-18
7.16403204e-19
3.380210625e-19
1.087985787e-19
1.786689812e-20
4.08390949e-07
1.322183317e-08
5.319310303e-10
8.727104761e-11
5.493788377e-11
4.505158303e-11
3.794111514e-11
3.194602043e-11
2.674990307e-11
2.217257802e-11
1.809410271e-11
1.449001359e-11
1.134764745e-11
8.68231198e-12
6.480775637e-12
4.724778809e-12
3.366760758e-12
2.353295372e-12
1.619482236e-12
1.104623856e-12
7.519887466e-13
5.152432129e-13
3.577097484e-13
2.529371606e-13
1.825499669e-13
1.34404684e-13
1.006610864e-13
7.636784017e-14
5.842803671e-14
4.490557446e-14
3.457401743e-14
2.662999823e-14
2.051898219e-14
1.583059974e-14
1.224027915e-14
9.480285092e-15
7.332672335e-15
5.632837264e-15
4.269470817e-15
3.174290349e-15
2.305886406e-15
1.634374812e-15
1.131725026e-15
7.684315757e-16
5.143778986e-16
3.414396846e-16
2.258540473e-16
1.493033505e-16
9.869070091e-17
6.513644843e-17
4.281431554e-17
2.794236932e-17
1.804966547e-17
1.149417321e-17
7.162855673e-18
4.297751567e-18
2.395981308e-18
1.139261023e-18
3.784964048e-19
7.243076646e-20
8.767678045e-07
5.265161506e-08
2.284106359e-09
2.219907424e-10
1.034815157e-10
8.058790922e-11
6.780066483e-11
5.779374477e-11
4.931191172e-11
4.188196098e-11
3.525028323e-11
2.929497586e-11
2.39642292e-11
1.925546512e-11
1.516573222e-11
1.169800024e-11
8.830142143e-12
6.528037351e-12
4.731449058e-12
3.373911102e-12
2.376394124e-12
1.664156293e-12
1.165641234e-12
8.221932109e-13
5.866374441e-13
4.246682486e-13
3.118276752e-13
2.317781916e-13
1.738092718e-13
1.310829248e-13
9.919386867e-14
7.523649122e-14
5.721236426e-14
4.367968259e-14
3.35411616e-14
2.591463905e-14
2.008730797e-14
1.552435291e-14
1.187055993e-14
8.915339822e-15
6.542375123e-15
4.680221907e-15
3.266554462e-15
2.23274273e-15
1.503564394e-15
1.004109786e-15
6.684192928e-16
4.447025915e-16
2.957360313e-16
1.962504328e-16
1.296080602e-16
8.494074956e-17
5.507784373e-17
3.519906106e-17
2.200921701e-17
1.325125121e-17
7.423282615e-18
3.573708848e-18
1.235393605e-18
2.810829276e-19
1.090712168e-06
1.500394969e-07
9.675800594e-09
7.164138672e-10
1.792860315e-10
1.227232023e-10
1.01298104e-10
8.686518532e-11
7.518714544e-11
6.511215531e-11
5.61601515e-11
4.809099066e-11
4.077962441e-11
3.416988384e-11
2.824055202e-11
2.2985455e-11
1.839644598e-11
1.446333808e-11
1.116162192e-11
8.459520255e-12
6.304399856e-12
4.63346987e-12
3.370085796e-12
2.437798757e-12
1.761920932e-12
1.278587492e-12
9.33986438e-13
6.874051123e-13
5.090301852e-13
3.784526804e-13
2.818980608e-13
2.101771541e-13
1.569553515e-13
1.176514207e-13
8.880964685e-14
6.770991609e-14
5.210223587e-14
4.022732459e-14
3.089940395e-14
2.340505695e-14
1.735537671e-14
1.254756191e-14
8.837748221e-15
6.080631925e-15
4.112299566e-15
2.755134584e-15
1.840218633e-15
1.229265909e-15
8.213324378e-16
5.478043633e-16
3.636325744e-16
2.394735111e-16
1.559744228e-16
1.000839456e-16
6.283387354e-17
3.803031184e-17
2.149109382e-17
1.05521416e-17
3.84741058e-18
1.046419216e-18
3.004353992e-06
4.849771481e-07
4.849763671e-08
3.399209528e-09
4.31111073e-10
1.875530293e-10
1.384934998e-10
1.160725725e-10
1.005273256e-10
8.790843348e-11
7.697590591e-11
6.720886984e-11
5.835409005e-11
5.02836354e-11
4.293523628e-11
3.628090661e-11
3.030672191e-11
2.500457776e-11
2.035827985e-11
1.634421794e-11
1.293111791e-11
1.008114238e-11
7.74756759e-12
5.878961169e-12
4.416236334e-12
3.295631018e-12
2.451135834e-12
1.821877288e-12
1.354871233e-12
1.00813143e-12
7.495262668e-13
5.560984538e-13
4.116022386e-13
3.043864495e-13
2.256256619e-13
1.684678371e-13
1.272396127e-13
9.702080015e-14
7.414192496e-14
5.628385286e-14
4.208237506e-14
3.077485859e-14
2.193130704e-14
1.523156536e-14
1.035919538e-14
6.957216796e-15
4.650293865e-15
3.107706338e-15
2.078706921e-15
1.389588265e-15
9.256232937e-16
6.12289213e-16
4.007889434e-16
2.585004877e-16
1.631556989e-16
9.939884652e-17
5.675816166e-17
2.845611531e-17
1.093398935e-17
3.457674712e-18
1.39434014e-05
1.652119852e-06
2.146435746e-07
1.904719137e-08
1.561551238e-09
3.411680957e-10
1.894795708e-10
1.469272342e-10
1.249294982e-10
1.092609017e-10
9.64602945e-11
8.532701363e-11
7.53353001e-11
6.6225901e-11
5.786703014e-11
5.019397612e-11
4.317701732e-11
3.680339062e-11
3.10652031e-11
2.595132894e-11
2.144436228e-11
1.752084981e-11
1.415166154e-11
1.129763796e-11
8.914980412e-12
6.958441582e-12
5.377306493e-12
4.120729222e-12
3.137152952e-12
2.37638808e-12
1.791838433e-12
1.344353278e-12
1.002935058e-12
7.441490338e-13
5.498945354e-13
4.058992888e-13
3.007960649e-13
2.247515186e-13
1.689832301e-13
1.27044889e-13
9.486563352e-14
6.990891526e-14
5.050426624e-14
3.558839863e-14
2.445317313e-14
1.650661764e-14
1.10483212e-14
7.375480091e-15
4.923238646e-15
3.286170029e-15
2.189418773e-15
1.451683406e-15
9.543279348e-16
6.190515238e-16
3.934095073e-16
2.416977994e-16
1.397140379e-16
7.162238709e-17
2.896263175e-17
1.034204979e-17
2.210969635e-05
2.693995591e-06
4.6018801e-07
6.290099739e-08
6.264174651e-09
7.99428093e-10
2.80019254e-10
1.849059035e-10
1.499875372e-10
1.296030254e-10
1.145474469e-10
1.021191638e-10
9.125124219e-11
8.144062892e-11
7.243118064e-11
6.409235409e-11
5.636189251e-11
4.92143387e-11
4.264197159e-11
3.664326246e-11
3.121172556e-11
2.634608089e-11
2.202983035e-11
1.82417572e-11
1.495460408e-11
1.213690766e-11
9.753642848e-12
7.764043401e-12
6.123655017e-12
4.787656669e-12
3.711450009e-12
2.853269659e-12
2.175500484e-12
1.645356804e-12
1.234889263e-12
9.205419068e-13
6.825537922e-13
5.050148325e-13
3.739247279e-13
2.769773953e-13
2.044586981e-13
1.498415273e-13
1.087039726e-13
7.770515333e-14
5.435890254e-14
3.715228259e-14
2.499494441e-14
1.669077039e-14
1.111347656e-14
7.390097738e-15
4.907396184e-15
3.249783327e-15
2.139994804e-15
1.394556685e-15
8.92602732e-16
5.538491962e-16
3.246920269e-16
1.704438979e-16
7.238075982e-17
2.833089732e-17
2.670913668e-05
3.538995765e-06
6.97935809e-07
1.368550617e-07
1.966158625e-08
2.312307893e-09
4.882567502e-10
2.417021539e-10
1.786790712e-10
1.500526663e-10
1.316812658e-10
1.17679472e-10
1.05986193e-10
9.567985213e-11
8.629612656e-11
7.75932524e-11
6.945002034e-11
6.180703639e-11
5.466069684e-11
4.800919848e-11
4.185465432e-11
3.620154914e-11
3.105159082e-11
2.640229628e-11
2.224606407e-11
1.857009904e-11
1.535658843e-11
1.258217832e-11
1.021647449e-11
8.223767838e-12
6.56490505e-12
5.197774547e-12
4.080472166e-12
3.175117495e-12
2.448751321e-12
1.872267046e-12
1.419089037e-12
1.065790986e-12
7.932232607e-13
5.856805118e-13
4.295337482e-13
3.125951224e-13
2.25463135e-13
1.611318896e-13
1.139496491e-13
7.933162292e-14
5.418119235e-14
3.640286654e-14
2.421886819e-14
1.603826941e-14
1.05974827e-14
6.988964124e-15
4.593894543e-15
2.998458768e-15
1.929774319e-15
1.209098847e-15
7.197615022e-16
3.873475565e-16
1.722530674e-16
7.190305412e-17
3.470104365e-05
5.289137125e-06
9.855282405e-07
2.438406851e-07
4.975765618e-08
7.798818135e-09
1.209567312e-09
3.726683768e-10
2.20841766e-10
1.726407957e-10
1.481421299e-10
1.317350657e-10
1.190332226e-10
1.083113868e-10
9.874337337e-11
8.993906685e-11
8.16866367e-11
7.386933011e-11
6.644336002e-11
5.940299375e-11
5.275364714e-11
4.650984732e-11
4.068926247e-11
3.530786015e-11
3.037746628e-11
2.59047589e-11
2.189086432e-11
1.833065332e-11
1.521181534e-11
1.251438218e-11
1.021105257e-11
8.268128683e-12
6.646645947e-12
5.305775663e-12
4.205816268e-12
3.31004501e-12
2.584691649e-12
1.999549892e-12
1.529356883e-12
1.153901562e-12
8.58024219e-13
6.291720546e-13
4.552797901e-13
3.253922543e-13
2.300829306e-13
1.611559396e-13
1.116161122e-13
7.618277395e-14
5.115434728e-14
3.389408638e-14
2.228752661e-14
1.461108229e-14
9.560364047e-15
6.229605897e-15
4.018702065e-15
2.537469871e-15
1.533651188e-15
8.471493494e-16
3.937075092e-16
1.711836161e-16
0.0001157022547
1.818303095e-05
2.834898628e-06
5.797898513e-07
1.197364772e-07
2.349728025e-08
3.991622731e-09
8.080167208e-10
3.128562269e-10
2.02857433e-10
1.636445768e-10
1.427747542e-10
1.285424324e-10
1.174775998e-10
1.078714183e-10
9.935992834e-11
9.137257865e-11
8.373777721e-11
7.638096863e-11
6.928382427e-11
6.245603296e-11
5.592204001e-11
4.971124461e-11
4.385265817e-11
3.837259615e-11
3.329349759e-11
2.863343553e-11
2.440512625e-11
2.061488483e-11
1.726148707e-11
1.433491198e-11
1.181538082e-11
9.6736625e-12
7.873555223e-12
6.374911626e-12
5.136010163e-12
4.116157396e-12
3.277436718e-12
2.586616782e-12
2.017478419e-12
1.549873764e-12
1.169564581e-12
8.658375832e-13
6.286139392e-13
4.486264623e-13
3.157051269e-13
2.195510879e-13
1.511379105e-13
1.028628676e-13
6.899268739e-14
4.559696471e-14
2.981292366e-14
1.93890574e-14
1.257113997e-14
8.100207872e-15
5.138786946e-15
3.149534235e-15
1.789363326e-15
8.69721749e-16
3.871102481e-16
0.0001739438991
3.10801177e-05
5.241284834e-06
1.053844561e-06
2.396063578e-07
5.248152155e-08
1.142197853e-08
2.30365049e-09
5.862448685e-10
2.614402642e-10
1.790538766e-10
1.481142761e-10
1.315895921e-10
1.203462895e-10
1.110768064e-10
1.031428932e-10
9.571237933e-11
8.857829693e-11
8.164094886e-11
7.486924217e-11
6.827064614e-11
6.187261615e-11
5.571104908e-11
4.982187431e-11
4.423656412e-11
3.897988507e-11
3.407126529e-11
2.952806771e-11
2.536731281e-11
2.160371994e-11
1.824469041e-11
1.528913411e-11
1.272705078e-11
1.053682631e-11
8.68633207e-12
7.136386979e-12
5.844296803e-12
4.767863243e-12
3.868360267e-12
3.112858526e-12
2.475696156e-12
1.937944678e-12
1.487497261e-12
1.116401233e-12
8.185200388e-13
5.871553802e-13
4.132213e-13
2.862540489e-13
1.958919063e-13
1.325801574e-13
8.863660754e-14
5.844685913e-14
3.808232156e-14
2.461831531e-14
1.581521088e-14
1.005091465e-14
6.230458039e-15
3.641591555e-15
1.856998491e-15
8.405662727e-16
0.0001980881664
3.985363045e-05
7.539558482e-06
1.517779951e-06
3.867518563e-07
9.830015878e-08
2.474571106e-08
6.22835696e-09
1.504560192e-09
4.41156651e-10
2.107131602e-10
1.491583572e-10
1.263497286e-10
1.143331141e-10
1.057041647e-10
9.846008862e-11
9.183251566e-11
8.551208276e-11
7.936970226e-11
7.336010179e-11
6.747975968e-11
6.174575014e-11
5.618438299e-11
5.082466135e-11
4.569378149e-11
4.081581929e-11
3.621072454e-11
3.189347609e-11
2.787541258e-11
2.417005547e-11
2.07944566e-11
1.775859226e-11
1.506345331e-11
1.270639614e-11
1.067478695e-11
8.942126126e-12