/*--------------------------------*- C++ -*----------------------------------*\
  =========                 |
  \\      /  F ield         | OpenFOAM: The Open Source CFD Toolbox
   \\    /   O peration     | Website:  https://openfoam.org
    \\  /    A nd           | Version:  10
     \\/     M anipulation  |
\*---------------------------------------------------------------------------*/
FoamFile
{
    format      ascii;
    class       volScalarField;
    location    "3000";
    object      CH3CHO;
}
// * * * * * * * * * * * * * * * * * * * * * * * * * * * * * * * * * * * * * //

dimensions      [0 0 0 0 0 0 0];

internalField   nonuniform List<scalar> 
5170
(
4.670578313e-62
3.771577011e-62
2.342720891e-62
1.156451059e-62
9.167518258e-63
1.58485668e-59
1.266348026e-59
7.739588798e-60
4.472390789e-60
7.894761691e-60
5.435203079e-57
4.310728072e-57
2.624050257e-57
2.062849972e-57
6.214122394e-57
1.901025552e-54
1.506090287e-54
9.461245605e-55
1.060391664e-54
4.485126438e-54
6.778885872e-52
5.41650258e-52
3.646950377e-52
5.77478151e-52
3.019034031e-51
2.474835831e-49
2.019413818e-49
1.491236933e-49
3.238999754e-49
1.919593926e-48
9.24015476e-47
7.76664049e-47
6.548741578e-47
1.849086752e-46
1.178728928e-45
3.522909095e-44
3.084561579e-44
3.098634441e-44
1.069800154e-43
7.076365908e-43
1.375109073e-41
1.279537463e-41
1.54299345e-41
6.257116046e-41
4.176737636e-40
5.503367537e-39
5.538795796e-39
7.993800774e-39
3.705577997e-38
2.433113387e-37
2.252896392e-36
2.492401002e-36
4.281579028e-36
2.217483192e-35
1.402732002e-34
9.39004282e-34
1.161717909e-33
2.371619478e-33
1.338401961e-32
8.020005203e-32
3.968097248e-31
5.570852633e-31
1.362087064e-30
8.196177309e-30
4.554108045e-29
1.686512912e-28
2.72349724e-28
8.032253373e-28
5.095609227e-27
2.572770664e-26
7.17645871e-26
1.345904748e-25
4.794120476e-25
3.201835882e-24
1.448193935e-23
3.009205365e-23
6.61813426e-23
2.838633491e-22
1.968639074e-21
8.13519539e-21
1.237476869e-20
3.230999894e-20
1.626127105e-19
1.17315823e-18
4.57475864e-18
4.881990081e-18
1.537671426e-17
9.017765444e-17
6.655382331e-16
2.575843486e-15
1.770942488e-15
6.987997619e-15
4.708256104e-14
3.523050488e-13
1.458846264e-12
5.508207046e-13
3.075874707e-12
2.397427587e-11
1.710786002e-10
8.417396798e-10
1.309737217e-22
1.02197585e-22
3.61629593e-23
6.155814718e-23
1.493121216e-22
1.37178736e-22
1.332977586e-22
6.671548796e-23
1.051543476e-22
8.031977574e-23
1.215765286e-22
1.112747645e-22
1.217192759e-22
8.203217147e-23
1.180754013e-22
9.070789236e-23
9.45682503e-23
1.183162738e-22
7.925935479e-23
7.30129634e-23
7.225788773e-23
8.568330656e-23
9.809923715e-23
7.272895926e-23
5.537254663e-23
5.896671822e-23
8.759076612e-23
9.612587671e-23
6.889332895e-23
4.066090176e-23
4.398441659e-23
6.785983925e-23
7.584603116e-23
3.959097093e-23
2.446019575e-23
3.394262862e-23
5.030168868e-23
6.631947733e-23
2.308459919e-23
2.011376757e-23
2.146657103e-23
3.801607577e-23
5.292193039e-23
5.37627501e-23
1.897600576e-23
1.813601045e-23
2.902567526e-23
4.176103998e-23
1.838536636e-23
1.049974577e-23
1.667729389e-23
1.975403e-23
3.441527224e-23
5.837673109e-23
1.084364841e-23
9.710037955e-24
2.319653127e-23
2.865339073e-23
2.688327987e-23
1.052107473e-23
1.280558476e-23
1.294416562e-23
2.488869919e-23
1.515439481e-23
1.796255841e-23
1.026364263e-21
2.488404734e-22
5.774270708e-23
2.439373011e-23
1.41694291e-23
1.741505092e-19
4.025063702e-20
6.394312085e-21
6.885657334e-22
1.428621984e-22
2.992684376e-17
6.663208104e-18
1.002753173e-18
1.023006807e-19
1.91974523e-20
5.195635531e-15
1.089052616e-15
1.516875782e-16
1.460955174e-17
2.478506496e-18
9.156130641e-13
1.730250992e-13
2.15922596e-14
1.933721425e-15
2.984744932e-16
1.69290331e-10
2.630287958e-11
2.800363394e-12
2.29721948e-13
3.242161918e-14
3.452676289e-08
3.63598885e-09
3.106486973e-10
2.297644979e-11
3.015421788e-12
2.07152616e-11
1.603003674e-10
2.468381557e-09
3.722318887e-08
4.994581078e-07
1.208973086e-10
8.213193577e-10
1.015664815e-08
1.106019802e-07
8.879648092e-07
4.272084677e-10
2.595683813e-09
2.67135314e-08
2.249185404e-07
1.248448023e-06
1.210419648e-09
6.696475429e-09
5.830387983e-08
3.834316503e-07
1.540405819e-06
2.936136083e-09
1.484528419e-08
1.090937706e-07
5.685168353e-07
1.790668929e-06
6.462087763e-09
2.97967934e-08
1.860343474e-07
7.922089798e-07
2.101970672e-06
1.374165105e-08
5.844574015e-08
3.09748047e-07
1.081326034e-06
2.505251063e-06
2.83611907e-08
1.114320636e-07
4.891885698e-07
1.407703695e-06
2.894585099e-06
5.611523362e-08
1.992750421e-07
7.129302106e-07
1.725000622e-06
3.200478111e-06
1.05271788e-07
3.288467276e-07
9.643209165e-07
2.023508784e-06
3.460177034e-06
1.907740377e-07
5.018862109e-07
1.226631538e-06
2.310439681e-06
3.717390587e-06
3.207106521e-07
7.077583959e-07
1.492573559e-06
2.589828325e-06
3.967529725e-06
5.034556593e-07
9.459109886e-07
1.765601623e-06
2.85903554e-06
4.186743464e-06
7.525535097e-07
1.222921253e-06
2.052081078e-06
3.120830433e-06
4.380179756e-06
1.086208574e-06
1.550566283e-06
2.361685724e-06
3.387336538e-06
4.573134407e-06
1.514695446e-06
1.944155216e-06
2.710550277e-06
3.679918803e-06
4.796126749e-06
2.039332628e-06
2.417872918e-06
3.119690141e-06
4.022100773e-06
5.06834506e-06
2.641742362e-06
2.967279735e-06
3.594969225e-06
4.419983369e-06
5.383172792e-06
3.299220614e-06
3.575053157e-06
4.123281917e-06
4.857972643e-06
5.720522997e-06
3.976636607e-06
4.207762074e-06
4.676281143e-06
5.313354168e-06
6.065033351e-06
4.640484772e-06
4.831564188e-06
5.224314748e-06
5.764940353e-06
6.407587269e-06
5.26274329e-06
5.419389333e-06
5.744616477e-06
6.197405056e-06
6.741605932e-06
5.82863978e-06
5.956040121e-06
6.222904167e-06
6.598901461e-06
7.056763463e-06
6.330113794e-06
6.432999223e-06
6.650209277e-06
6.959366661e-06
7.340209445e-06
6.762618998e-06
6.844928014e-06
7.01951894e-06
7.269484346e-06
7.579578459e-06
7.120214768e-06
7.184043269e-06
7.319569876e-06
7.514152974e-06
7.755158567e-06
7.390379531e-06
7.436793692e-06
7.53527295e-06
7.676173358e-06
7.849853207e-06
7.564695116e-06
7.596247136e-06
7.663433889e-06
7.760571734e-06
7.881423939e-06
7.629413332e-06
7.647879261e-06
7.687164067e-06
7.746087243e-06
7.824011792e-06
7.578071291e-06
7.587050348e-06
7.60808594e-06
7.641581842e-06
7.69063681e-06
7.445983292e-06
7.45285631e-06
7.469391913e-06
7.501392949e-06
7.560308645e-06
7.308364646e-06
7.321330669e-06
7.353512667e-06
7.409876992e-06
7.47033236e-06
7.231914344e-06
7.247451886e-06
7.281725721e-06
7.340989289e-06
7.370160352e-06
7.253661567e-06
7.246975969e-06
7.230601687e-06
7.165753361e-06
7.013134582e-06
6.577069892e-06
6.509846818e-06
6.350878323e-06
6.08519078e-06
5.700257071e-06
4.594017539e-06
4.505244354e-06
4.312491352e-06
4.027841732e-06
3.662715626e-06
2.558045454e-06
2.50050644e-06
2.377883274e-06
2.201964139e-06
1.984887185e-06
1.262242853e-06
1.233613702e-06
1.172881022e-06
1.086357004e-06
9.806279629e-07
5.851639737e-07
5.724530466e-07
5.455053699e-07
5.071293029e-07
4.602220746e-07
2.617329359e-07
2.564112067e-07
2.451209642e-07
2.290213964e-07
2.093112839e-07
1.145988559e-07
1.124846675e-07
1.079955651e-07
1.015802357e-07
9.36903273e-08
5.006027176e-08
4.923300096e-08
4.746952126e-08
4.493178227e-08
4.178086887e-08
2.190552145e-08
2.157829306e-08
2.087867658e-08
1.986642722e-08
1.8600108e-08
9.604914486e-09
9.47417482e-09
9.194021266e-09
8.786946429e-09
8.274616954e-09
4.219901581e-09
4.167237118e-09
4.054180158e-09
3.889329706e-09
3.680819213e-09
1.857831326e-09
1.836474964e-09
1.790559169e-09
1.723413302e-09
1.638127309e-09
8.198638057e-10
8.111575744e-10
7.924142112e-10
7.649342589e-10
7.299020106e-10
3.629273855e-10
3.593611773e-10
3.516742466e-10
3.403786026e-10
3.259315743e-10
1.613320668e-10
1.598646649e-10
1.566981002e-10
1.520352373e-10
1.460537954e-10
7.212828954e-11
7.152173805e-11
7.02114654e-11
6.827843425e-11
6.579224769e-11
3.249566006e-11
3.224409156e-11
3.170017182e-11
3.089648352e-11
2.986059704e-11
1.479456195e-11
1.46904053e-11
1.44650923e-11
1.413189677e-11
1.370198668e-11
6.84130265e-12
6.79903212e-12
6.707643663e-12
6.572648911e-12
6.398798905e-12
3.24964085e-12
3.233857798e-12
3.199877276e-12
3.150070413e-12
3.086692968e-12
1.627953794e-12
1.623968085e-12
1.61561466e-12
1.6039856e-12
1.590395317e-12
9.087434063e-13
9.104975521e-13
9.146608948e-13
9.21804662e-13
9.329324484e-13
6.134653694e-13
6.185628184e-13
6.300617549e-13
6.483252466e-13
6.74315914e-13
5.281581563e-13
5.358149939e-13
5.529684916e-13
5.799052339e-13
6.176790827e-13
5.5993375e-13
5.701495952e-13
5.929837283e-13
6.287036311e-13
6.785394999e-13
6.739347145e-13
6.871907274e-13
7.167879961e-13
7.630016634e-13
8.273163611e-13
8.677169222e-13
8.849610975e-13
9.234372588e-13
9.834454048e-13
1.066825992e-12
1.165409437e-12
1.188237263e-12
1.239150474e-12
1.318498364e-12
1.428643838e-12
1.638136731e-12
1.668521798e-12
1.736135125e-12
1.841165741e-12
1.986290863e-12
2.315239003e-12
2.354995147e-12
2.443382158e-12
2.580351491e-12
2.768953903e-12
3.26929547e-12
3.320818821e-12
3.435222268e-12
3.612115507e-12
3.854942835e-12
4.611242356e-12
4.677748633e-12
4.825260104e-12
5.052914797e-12
5.364609885e-12
6.521645151e-12
6.607478535e-12
6.797583676e-12
7.090228115e-12
7.489458806e-12
9.224402029e-12
9.332023619e-12
9.569990861e-12
9.935250284e-12
1.043152253e-11
1.270891359e-11
1.283879873e-11
1.312556371e-11
1.356459499e-11
1.415898752e-11
1.642648795e-11
1.657547349e-11
1.69040306e-11
1.740603062e-11
1.808376861e-11
1.695973798e-06
2.403291508e-06
2.818965322e-06
2.91413561e-06
3.040114358e-06
3.392799299e-06
3.891743134e-06
4.245335509e-06
4.43732606e-06
4.611123264e-06
4.829137519e-06
5.038721912e-06
5.188584967e-06
5.305219251e-06
5.434212244e-06
5.608483785e-06
5.833143141e-06
6.085587621e-06
6.34530271e-06
6.607226433e-06
6.872802014e-06
7.139861553e-06
7.39645518e-06
7.626209871e-06
7.813661326e-06
7.935918639e-06
7.979611001e-06
7.974067284e-06
7.889161387e-06
7.737659277e-06
7.612106649e-06
7.507380534e-06
7.351152695e-06
6.825594996e-06
5.366985033e-06
3.382225416e-06
1.82428151e-06
9.031073813e-07
4.258003679e-07
1.948155898e-07
8.783708644e-08
3.94165644e-08
1.764101351e-08
7.883616844e-09
3.520676275e-09
1.572271562e-09
7.027235196e-10
3.14676411e-10
1.4137624e-10
6.384153075e-11
2.904566016e-11
1.336339068e-11
6.262283549e-12
3.037791387e-12
1.581271721e-12
9.438101293e-13
6.97457018e-13
6.507437273e-13
7.218975103e-13
8.830997324e-13
1.139005074e-12
1.523879366e-12
2.111012082e-12
2.930329255e-12
4.061910881e-12
5.62941176e-12
7.827034069e-12
1.084898764e-11
1.465676473e-11
1.864933046e-11
3.922415865e-06
4.21010082e-07
2.957721246e-08
1.9391149e-09
2.479777485e-10
5.526487926e-06
1.561645714e-05
1.247861786e-06
8.041752233e-08
2.519651052e-08
5.878028407e-06
1.302633723e-05
1.256723037e-06
1.026768398e-07
1.212700571e-07
5.356602064e-06
8.556874034e-06
2.514734017e-06
1.855992263e-07
5.061598058e-08
5.231475637e-06
8.656895484e-06
1.275735335e-05
1.023906434e-06
7.779121007e-08
5.711474185e-06
1.046456233e-05
1.834208653e-05
1.92778389e-06
1.791437561e-07
6.36073304e-06
1.158901483e-05
1.899375707e-05
2.516937268e-06
2.869822242e-07
6.53743259e-06
1.055600631e-05
1.395439289e-05
2.451038582e-06
3.380879648e-07
6.451768447e-06
9.537275462e-06
1.188370511e-05
8.638907277e-06
1.305039989e-06
6.459263764e-06
9.39776049e-06
1.259852758e-05
1.445699262e-05
2.574581817e-06
6.609976432e-06
9.638181877e-06
1.337567423e-05
1.65809431e-05
3.383716673e-06
6.737992199e-06
9.5825569e-06
1.27891026e-05
1.50852879e-05
3.491878106e-06
6.751535743e-06
9.199386657e-06
1.159131188e-05
1.293319092e-05
5.66388662e-06
6.731020067e-06
8.900614685e-06
1.10442599e-05
1.276316265e-05
9.82117301e-06
6.757170329e-06
8.809846621e-06
1.101498731e-05
1.325067341e-05
1.249149261e-05
6.858988909e-06
8.85478476e-06
1.109307905e-05
1.346158458e-05
1.349901778e-05
7.009278725e-06
8.89502002e-06
1.096065259e-05
1.300001851e-05
1.309395228e-05
7.158089556e-06
8.837100274e-06
1.055551728e-05
1.204757332e-05
1.192800029e-05
7.290216375e-06
8.726992762e-06
1.011512145e-05
1.123848352e-05
1.113692411e-05
7.42060242e-06
8.64285352e-06
9.807406245e-06
1.077478798e-05
1.082825222e-05
7.5678168e-06
8.626669559e-06
9.657636164e-06
1.05720677e-05
1.075878919e-05
7.734620025e-06
8.66571192e-06
9.603797096e-06
1.047446674e-05
1.071103734e-05
7.904568642e-06
8.721861049e-06
9.564683692e-06
1.035401016e-05
1.055234122e-05
8.054226286e-06
8.754908693e-06
9.480949026e-06
1.014357234e-05
1.023533243e-05
8.163773165e-06
8.741158792e-06
9.334789123e-06
9.848614039e-06
9.797017819e-06
8.204907271e-06
8.638780847e-06
9.122756639e-06
9.498662496e-06
9.281739469e-06
8.172710264e-06
8.496349924e-06
8.878415317e-06
9.123966456e-06
8.700743886e-06
8.11414126e-06
8.380296681e-06
8.643051396e-06
8.735233261e-06
8.028791898e-06
7.989147327e-06
8.204792378e-06
8.381030933e-06
8.284767486e-06
7.210832781e-06
7.813203949e-06
7.993506661e-06
8.06986732e-06
7.693096963e-06
6.216433023e-06
7.689152218e-06
7.784715166e-06
7.658855706e-06
6.860047824e-06
5.086059764e-06
7.552731049e-06
7.485575137e-06
6.985677391e-06
5.725391623e-06
3.924875034e-06
7.290341595e-06
6.860307285e-06
5.870270949e-06
4.381268919e-06
2.848610657e-06
6.504165216e-06
5.607526591e-06
4.367152197e-06
3.048747629e-06
1.939980724e-06
4.853039324e-06
3.869955416e-06
2.843011674e-06
1.933189004e-06
1.236855165e-06
2.968172975e-06
2.289672108e-06
1.656419284e-06
1.131574986e-06
7.403469472e-07
1.590417846e-06
1.224623478e-06
8.937783687e-07
6.231353023e-07
4.206405857e-07
7.906227148e-07
6.158887516e-07
4.581449623e-07
3.283671557e-07
2.290250403e-07
3.758692747e-07
2.97895778e-07
2.270409199e-07
1.676314145e-07
1.204886542e-07
1.737868529e-07
1.407097961e-07
1.100350001e-07
8.346139029e-08
6.165094175e-08
7.931522219e-08
6.556572587e-08
5.244885109e-08
4.074559546e-08
3.084723984e-08
3.59613248e-08
3.026042992e-08
2.468944057e-08
1.958996988e-08
1.516140659e-08
1.623490567e-08
1.38712103e-08
1.151373281e-08
9.307653107e-09
7.347000928e-09
7.308863016e-09
6.327529331e-09
5.331678717e-09
4.381913768e-09
3.520591023e-09
3.284755152e-09
2.876605882e-09
2.456240492e-09
2.048680072e-09
1.672465274e-09
1.475072955e-09
1.305001181e-09
1.127577666e-09
9.530639474e-10
7.894274278e-10
6.625449828e-10
5.915422794e-10
5.166298699e-10
4.420004891e-10
3.710382115e-10
2.980136678e-10
2.683077941e-10
2.366507826e-10
2.047531721e-10
1.740426433e-10
1.344422996e-10
1.219840612e-10
1.085895555e-10
9.495782294e-11
8.169030567e-11
6.094648534e-11
5.571016214e-11
5.003821264e-11
4.421830643e-11
3.8505724e-11
2.783514298e-11
2.563475826e-11
2.323905768e-11
2.076871144e-11
1.833480042e-11
1.286030511e-11
1.194454991e-11
1.094758434e-11
9.922448962e-12
8.920546142e-12
6.059757429e-12
5.694099729e-12
5.301889824e-12
4.909029299e-12
4.542662327e-12
2.965823796e-12
2.841459455e-12
2.717860841e-12
2.610392971e-12
2.536843313e-12
1.568756129e-12
1.55590931e-12
1.558930318e-12
1.589533382e-12
1.662488641e-12
9.613441579e-13
1.006315142e-12
1.077239245e-12
1.185176258e-12
1.344758273e-12
7.335619301e-13
8.156325112e-13
9.322426045e-13
1.095249704e-12
1.320637763e-12
7.019991144e-13
8.154806159e-13
9.724917474e-13
1.186576044e-12
1.476070878e-12
7.889491594e-13
9.35930877e-13
1.137121546e-12
1.408508051e-12
1.771711423e-12
9.692605447e-13
1.157147633e-12
1.412819147e-12
1.755555768e-12
2.211353496e-12
1.250401445e-12
1.492492333e-12
1.820618347e-12
2.25859676e-12
2.838503167e-12
1.670789443e-12
1.98943383e-12
2.419035719e-12
2.985263246e-12
3.721730653e-12
2.302912853e-12
2.714165934e-12
3.261527024e-12
3.975847416e-12
4.89558221e-12
3.178182005e-12
3.705111815e-12
4.399758623e-12
5.296493457e-12
6.438049212e-12
4.379290752e-12
5.049302917e-12
5.925201247e-12
7.045290428e-12
8.457080439e-12
6.034940322e-12
6.885940758e-12
7.990425997e-12
9.391463225e-12
1.113977114e-11
8.343010345e-12
9.416061128e-12
1.079282526e-11
1.251438322e-11
1.462744339e-11
1.148570844e-11
1.279749652e-11
1.446148695e-11
1.651519017e-11
1.899995446e-11
1.541466597e-11
1.696304839e-11
1.890755487e-11
2.128005991e-11
2.411444623e-11
1.950922477e-11
2.125452997e-11
2.342928676e-11
2.605918007e-11
2.917050466e-11
2.013242688e-11
2.156795778e-12
9.049609496e-13
1.518095463e-12
2.103324929e-12
2.331143785e-12
2.265751663e-12
2.045486513e-12
1.774831649e-12
1.517313734e-12
1.296312143e-12
1.115779018e-12
9.698659304e-13
8.499477876e-13
7.480886403e-13
6.582826183e-13
5.76905195e-13
5.021175702e-13
4.333900391e-13
3.708209946e-13
3.147500541e-13
2.65423179e-13
2.228177271e-13
1.865798077e-13
1.560770555e-13
1.30490559e-13
1.089462513e-13
9.065032825e-14
7.497719197e-14
6.149364253e-14
4.992867778e-14
4.011077266e-14
3.190315272e-14
2.515873246e-14
1.970098872e-14
1.532961156e-14
1.184207582e-14
9.057802935e-15
6.83331756e-15
5.06375585e-15
3.673632442e-15
2.604155693e-15
1.803336922e-15
1.221491362e-15
8.11278824e-16
5.299241537e-16
3.414220537e-16
2.174810585e-16
1.371715788e-16
8.572766327e-17
5.30899903e-17
3.256932208e-17
1.978116071e-17
1.187608621e-17
7.01372296e-18
4.014517927e-18
2.132848449e-18
9.452497756e-19
2.4852624e-19
2.281711658e-20
1.718779533e-09
1.137970208e-10
2.409421799e-11
2.828471851e-11
3.370884569e-11
3.434476012e-11
3.107392668e-11
2.662753266e-11
2.189737293e-11
1.775353037e-11
1.428380486e-11
1.153844734e-11
9.388746006e-12
7.709629143e-12
6.37810123e-12
5.301622564e-12
4.41586551e-12
3.677444999e-12
3.058226159e-12
2.538213541e-12
2.102971484e-12
1.741003953e-12
1.442270025e-12
1.197089467e-12
9.961970512e-13
8.308416433e-13
6.932495254e-13
5.771022161e-13
4.77801771e-13
3.923446251e-13
3.189691244e-13
2.566238082e-13
2.044730294e-13
1.616012469e-13
1.268914686e-13
9.906178542e-14
7.681044375e-14
5.898114956e-14
4.466668607e-14
3.321767419e-14
2.417660493e-14
1.718932084e-14
1.193753662e-14
8.109618681e-15
5.4030519e-15
3.541376043e-15
2.29017954e-15
1.464622601e-15
9.275712766e-16
5.820446711e-16
3.618385416e-16
2.22775186e-16
1.357468588e-16
8.172882162e-17
4.836909451e-17
2.772344927e-17
1.476880642e-17
6.632630637e-18
1.915731603e-18
2.358486326e-19
9.930351093e-09
5.978944198e-10
1.398676365e-10
1.621653854e-10
1.781381923e-10
1.746695376e-10
1.569773703e-10
1.356317271e-10
1.130670025e-10
9.298908988e-11
7.551354974e-11
6.123277927e-11
4.960207125e-11
4.024858111e-11
3.265360745e-11
2.645646447e-11
2.138121508e-11
1.723589426e-11
1.387550549e-11
1.117238532e-11
9.01432652e-12
7.300649333e-12
5.945365912e-12
4.873585367e-12
4.021454448e-12
3.335687825e-12
2.773894877e-12
2.304488148e-12
1.905961152e-12
1.564835872e-12
1.273204504e-12
1.026274802e-12
8.202516773e-13
6.511075823e-13
5.141269865e-13
4.04039153e-13
3.155826573e-13
2.441653382e-13
1.862785133e-13
1.394996842e-13
1.021879414e-13
7.308920233e-14
5.104423417e-14
3.486551873e-14
2.335668501e-14
1.539593138e-14
1.001604398e-14
6.445610946e-15
4.108298492e-15
2.594414675e-15
1.622865064e-15
1.00495865e-15
6.155527309e-16
3.722036903e-16
2.209269206e-16
1.267645817e-16
6.759218001e-17
3.04591161e-17
9.116629913e-18
1.267996789e-18
1.264418982e-08
1.637842786e-09
4.859154403e-10
5.180719839e-10
5.471773609e-10
5.294214969e-10
4.828248978e-10
4.244210555e-10
3.627885635e-10
3.051952845e-10
2.537270836e-10
2.098818589e-10
1.729521034e-10
1.42258403e-10
1.165789053e-10
9.50843825e-11
7.702736684e-11
6.196934956e-11
4.954538018e-11
3.946060059e-11
3.140484805e-11
2.506238684e-11
2.012017226e-11
1.628434524e-11
1.329361994e-11
1.092885382e-11
9.020736667e-12
7.447289417e-12
6.127506675e-12
5.01112906e-12
4.06783134e-12
3.277792548e-12
2.624935895e-12
2.092967728e-12
1.664114986e-12
1.319565944e-12
1.041356378e-12
8.144723632e-13
6.280586299e-13
4.751601476e-13
3.51431745e-13
2.536494963e-13
1.786894469e-13
1.23089967e-13
8.31550275e-14
5.527876358e-14
3.627057657e-14
2.354108537e-14
1.513112538e-14
9.634067381e-15
6.074634011e-15
3.790605723e-15
2.338133222e-15
1.422133309e-15
8.475013706e-16
4.869165139e-16
2.596425447e-16
1.171461727e-16
3.58716001e-17
5.60681739e-18
5.451021602e-08
8.357670185e-09
1.578122827e-09
1.130683838e-09
1.14316855e-09
1.109812927e-09
1.033922969e-09
9.333145714e-10
8.22777352e-10
7.134698171e-10
6.113584806e-10
5.199808091e-10
4.397622579e-10
3.704547638e-10
3.105203574e-10
2.588798972e-10
2.142125534e-10
1.758571192e-10
1.431303395e-10
1.156744696e-10
9.298630158e-11
7.460823415e-11
5.99430943e-11
4.837263372e-11
3.925846228e-11
3.202625352e-11
2.620226831e-11
2.143435448e-11
1.748084524e-11
1.418407204e-11
1.144120235e-11
9.179054289e-12
7.33693242e-12
5.856281472e-12
4.676729206e-12
3.736916574e-12
2.979649406e-12
2.358544746e-12
1.84177908e-12
1.410835055e-12
1.055920247e-12
7.70742495e-13
5.488316034e-13
3.820625264e-13
2.608630297e-13
1.753071773e-13
1.162959448e-13
7.629854286e-14
4.954801576e-14
3.185172313e-14
2.026266886e-14
1.27480656e-14
7.922085278e-15
4.848943949e-15
2.902357519e-15
1.670257349e-15
8.903640923e-16
4.0228823e-16
1.25820548e-16
2.262839421e-17
1.676809087e-07
2.851197801e-08
5.095989196e-09
2.017889377e-09
1.878662677e-09
1.825337579e-09
1.732132475e-09
1.604781134e-09
1.457802182e-09
1.304456633e-09
1.154053953e-09
1.012480977e-09
8.825318018e-10
7.653085834e-10
6.601947135e-10
5.664008477e-10
4.826590543e-10
4.082765618e-10
3.424488574e-10
2.849866182e-10
2.354169431e-10
1.934905327e-10
1.585178932e-10
1.297821998e-10
1.062788947e-10
8.705598353e-11
7.120168157e-11
5.80207025e-11
4.700917041e-11
3.783286874e-11
3.025302796e-11
2.407460677e-11
1.911464458e-11
1.51908524e-11
1.211904662e-11
9.713892264e-12
7.80152493e-12
6.24073014e-12
4.935891631e-12
3.833255e-12
2.908223262e-12
2.14997209e-12
1.548781923e-12
1.089710265e-12
7.518416005e-13
5.108357036e-13
3.428863261e-13
2.277255726e-13
1.496871313e-13
9.733429992e-14
6.256646954e-14
3.972474374e-14
2.488101869e-14
1.532748711e-14
9.218525249e-15
5.321177931e-15
2.841938553e-15
1.291605323e-15
4.152292482e-16
8.734674543e-17
6.414378403e-08
4.020887141e-08
9.35256315e-09
3.170177435e-09
2.610916193e-09
2.563635898e-09
2.465275768e-09
2.326077667e-09
2.159278896e-09
1.978443634e-09
1.794564889e-09
1.615447149e-09
1.445829028e-09
1.28813488e-09
1.143042116e-09
1.01020343e-09
8.886141099e-10
7.773710109e-10
6.755806154e-10
5.829941474e-10
4.993831959e-10
4.249340045e-10
3.594554387e-10
3.02726529e-10
2.539461736e-10
2.122267796e-10
1.764049453e-10
1.455429859e-10
1.189063965e-10
9.607386072e-11
7.678145032e-11
6.082003906e-11
4.792445148e-11
3.773937449e-11
2.984325982e-11
2.378146745e-11
1.908519278e-11
1.533861402e-11
1.224696849e-11
9.634727671e-12
7.416994463e-12
5.564343161e-12
4.062553863e-12
2.890818478e-12
2.013523243e-12
1.380400542e-12
9.354853823e-13
6.279692948e-13
4.175879877e-13
2.748064205e-13
1.787173941e-13
1.146960359e-13
7.251395963e-14
4.501829e-14
2.724658457e-14
1.581717878e-14
8.503779333e-15
3.918004353e-15
1.310799327e-15
3.231420341e-16
4.433637512e-08
8.906990766e-08
2.153980571e-08
6.016932535e-09
3.42675816e-09
3.2521926e-09
3.148143119e-09
3.004202649e-09
2.828432109e-09
2.632570496e-09
2.427917214e-09
2.223455879e-09
2.025524422e-09
1.83804334e-09
1.662967198e-09
1.500829475e-09
1.351197758e-09
1.213232315e-09
1.085806929e-09
9.678975153e-10
8.586936433e-10
7.57761173e-10
6.648200341e-10
5.798465219e-10
5.026805013e-10
4.330180461e-10
3.701807494e-10
3.135189868e-10
2.624389609e-10
2.167153532e-10
1.763243441e-10
1.414196517e-10
1.120806387e-10
8.815945628e-11
6.919800594e-11
5.452704976e-11
4.331694232e-11
3.463190668e-11
2.768110702e-11
2.194288262e-11
1.711512415e-11
1.304817979e-11
9.684207636e-12
6.991359616e-12
4.925048683e-12
3.406110547e-12
2.325915678e-12
1.573424853e-12
1.055400092e-12
7.014205312e-13
4.611165216e-13
2.992596776e-13
1.912649799e-13
1.199242889e-13
7.322011921e-14
4.286066951e-14
2.327129417e-14
1.089889443e-14
3.792575418e-15
1.063827281e-15
1.514478632e-07
8.792829371e-08
3.608673169e-08
1.090447556e-08
4.58349258e-09
3.84285807e-09
3.742798687e-09
3.606572096e-09
3.432548071e-09
3.232570484e-09
3.017921249e-09
2.798455634e-09
2.581767503e-09
2.373127464e-09
2.175748626e-09
1.991198931e-09
1.81983793e-09
1.661254262e-09
1.514593179e-09
1.378775e-09
1.252677842e-09
1.135301191e-09
1.025810274e-09
9.233810171e-10
8.272630678e-10
7.368576728e-10
6.514649201e-10
5.705802583e-10
4.939342418e-10
4.21688696e-10
3.543321401e-10
2.927301888e-10
2.378424354e-10
1.904720271e-10
1.509036314e-10
1.188437147e-10
9.357835463e-11
7.398817073e-11
5.865513678e-11
4.637410141e-11
3.634574167e-11
2.807099435e-11
2.122569701e-11
1.562827997e-11
1.118786589e-11
7.828633125e-12
5.392365128e-12
3.672372104e-12
2.47813336e-12
1.657841163e-12
1.098702405e-12
7.200290232e-13
4.6527821e-13
2.951103976e-13
1.822738415e-13
1.079543125e-13
5.94157635e-14
2.838725807e-14
1.027899026e-14
3.184138005e-15
3.381997996e-07
6.253439669e-08
7.114681509e-08
2.308817754e-08
8.059366001e-09
4.607520244e-09
4.255817889e-09
4.128226923e-09
3.96452595e-09
3.768934019e-09
3.552309472e-09
3.325305902e-09
3.096756098e-09
2.873229529e-09
2.659158782e-09
2.457174929e-09
2.268507092e-09
2.093369808e-09
1.931292744e-09
1.781388872e-09
1.642441111e-09
1.513401706e-09
1.393002052e-09
1.280055362e-09
1.173386617e-09
1.071878642e-09
9.74477742e-10
8.801523626e-10
7.880155303e-10
6.976054581e-10
6.089948586e-10
5.230236972e-10
4.412730388e-10
3.657444203e-10
2.98241405e-10
2.398703771e-10
1.908697457e-10
1.50883562e-10
1.188838864e-10
9.339085127e-11
7.292182111e-11
5.640539197e-11
4.308930008e-11
3.235403518e-11
2.370930812e-11
1.690719527e-11
1.179396081e-11
8.100571798e-12
5.499468426e-12
3.696877968e-12
2.462444414e-12
1.624556238e-12
1.059284261e-12
6.794500509e-13
4.251369839e-13
2.555355604e-13
1.431197917e-13
7.005836416e-14
2.643910591e-14
8.78584558e-15
5.144990858e-07
8.020285984e-08
9.988515374e-08
3.849492684e-08
1.375378663e-08
6.150410369e-09
4.721636728e-09
4.551812245e-09
4.411488802e-09
4.231028989e-09
4.02069875e-09
3.792641666e-09
3.557535848e-09
3.32358133e-09
3.096600096e-09
2.880406414e-09
2.677217825e-09
2.487883812e-09
2.312808598e-09
2.151346115e-09
2.002375719e-09
1.8645988e-09
1.736613912e-09
1.616992634e-09
1.504301004e-09
1.397119598e-09
1.294068564e-09
1.193846404e-09
1.095214173e-09
9.97151897e-10
8.990408964e-10
8.007768818e-10
7.029426587e-10
6.070139854e-10
5.152172048e-10
4.299715902e-10
3.531393976e-10
2.857384202e-10
2.281227045e-10
1.800655208e-10
1.407644973e-10
1.089261283e-10
8.333897459e-11
6.299633417e-11
4.694886731e-11
3.430330121e-11
2.446331441e-11
1.704825098e-11
1.167014861e-11
7.884735328e-12
5.272874007e-12
3.493855381e-12
2.292045626e-12
1.483310342e-12
9.395284724e-13
5.737505052e-13
3.280672885e-13
1.652560595e-13
6.517008196e-14
2.266581102e-14
6.056326027e-07
9.759242322e-08
5.960147811e-08
4.959104435e-08
2.009670981e-08
8.811940658e-09
5.320566264e-09
4.833454157e-09
4.736440335e-09
4.585247246e-09
4.390361082e-09
4.168496222e-09
3.932744474e-09
3.693105057e-09
3.45670027e-09
3.229488965e-09
3.015014496e-09
2.814826941e-09
2.629554343e-09
2.459055603e-09
2.302448805e-09
2.15852499e-09
2.025890238e-09
1.903025809e-09
1.78833389e-09
1.680173279e-09
1.576893648e-09
1.476869173e-09
1.378538529e-09
1.280479541e-09
1.181534771e-09
1.080973244e-09
9.78593115e-10
8.749069329e-10
7.712286693e-10
6.695493692e-10
5.72047378e-10
4.806470281e-10
3.968873152e-10
3.218823452e-10
2.56497137e-10
2.01094881e-10
1.552649487e-10
1.181361421e-10
8.865318361e-11
6.561965454e-11
4.777945385e-11
3.408189795e-11
2.375498677e-11
1.62131434e-11
1.089378793e-11
7.241034245e-12
4.76909859e-12
3.105682607e-12
1.986518012e-12
1.231349139e-12
7.199378533e-13
3.748100799e-13
1.551708606e-13
5.550152132e-14
1.061568503e-06
1.754821602e-07
4.453062031e-08
6.666392563e-08
2.843868972e-08
1.285811455e-08
6.809787186e-09
5.065104135e-09
4.870326831e-09
4.764805944e-09
4.591805095e-09
4.38055387e-09
4.147676909e-09
3.908052231e-09
3.66591955e-09
3.436736771e-09
3.219009637e-09
3.015113236e-09
2.826213558e-09
2.652625836e-09
2.493960061e-09
2.34934301e-09
2.217543662e-09
2.097077503e-09
1.98629012e-09
1.883409316e-09
1.786586314e-09
1.693929672e-09
1.603553876e-09
1.513652345e-09
1.422600169e-09
1.329080102e-09
1.23221029e-09
1.131705188e-09
1.028013395e-09
9.222830076e-10
8.161803802e-10
7.115492694e-10
6.101707195e-10
5.138604644e-10
4.242935513e-10
3.431251673e-10
2.717303148e-10
2.10771865e-10
1.604258848e-10
1.200526055e-10
8.840740792e-11
6.408455685e-11
4.563059759e-11
3.180057026e-11
2.167865525e-11
1.450956234e-11
9.585502448e-12
6.264281905e-12
4.034640462e-12
2.532619498e-12
1.513970428e-12
8.184165607e-13
3.58349463e-13
1.308162799e-13
2.008524495e-06
3.58040998e-07
7.04011084e-08
6.692743697e-08
3.784273104e-08
1.73450845e-08
9.112972006e-09
5.717066855e-09
4.77445299e-09
4.629974098e-09
4.488930016e-09
4.289340621e-09
4.066451385e-09
3.839248436e-09
3.607747978e-09
3.391023423e-09
3.184789331e-09
2.992091844e-09
2.814227792e-09
2.651647867e-09
2.504210395e-09
2.371310988e-09
2.251972526e-09
2.144901073e-09
2.048547013e-09
1.961148039e-09
1.880783893e-09
1.80543151e-09
1.733008795e-09
1.661414289e-09
1.588572019e-09
1.512577404e-09
1.431915771e-09
1.345606448e-09
1.253314637e-09
1.155414086e-09
1.052891531e-09
9.471697927e-10
8.399073734e-10
7.328941424e-10
6.280659233e-10
5.273956314e-10
4.330836104e-10
3.472778977e-10
2.718358052e-10
2.079519093e-10
1.557224818e-10
1.143474676e-10
8.249711575e-11
5.848128604e-11
4.066646965e-11
2.769289248e-11
1.849635784e-11
1.215988913e-11
7.875094124e-12
4.993380642e-12
3.045607992e-12
1.712254491e-12
7.994047032e-13
2.995847988e-13
2.841036226e-06
5.621206813e-07
1.100353193e-07
4.668587691e-08
5.015497548e-08
2.364211165e-08
1.209373485e-08
7.096097365e-09
4.899706344e-09
4.15394628e-09
3.936963202e-09
3.760675217e-09
3.562585889e-09
3.366480424e-09
3.17615428e-09
2.996000336e-09
2.827478289e-09
2.671731308e-09
2.529363277e-09
2.400562408e-09
2.285171433e-09
2.182733834e-09
2.092520586e-09
2.01355946e-09
1.94465455e-09
1.884415895e-09
1.831264549e-09
1.783419741e-09
1.738894115e-09
1.695538265e-09
1.651121431e-09
1.603344758e-09
1.549962943e-09
1.48914048e-09
1.419686429e-09
1.341091022e-09