/*--------------------------------*- C++ -*----------------------------------*\
  =========                 |
  \\      /  F ield         | OpenFOAM: The Open Source CFD Toolbox
   \\    /   O peration     | Website:  https://openfoam.org
    \\  /    A nd           | Version:  10
     \\/     M anipulation  |
\*---------------------------------------------------------------------------*/
FoamFile
{
    format      ascii;
    class       volScalarField;
    location    "3000";
    object      CH3O;
}
// * * * * * * * * * * * * * * * * * * * * * * * * * * * * * * * * * * * * * //

dimensions      [0 0 0 0 0 0 0];

internalField   nonuniform List<scalar> 
5170
(
8.870894848e-58
8.975624168e-58
9.538029573e-58
1.240172172e-57
2.803833533e-57
2.302754319e-57
2.344344235e-57
2.565455378e-57
3.638657601e-57
6.853981165e-57
6.86410731e-57
6.167709497e-57
5.696856467e-57
7.733555113e-57
1.329662638e-56
1.117174773e-54
7.678953703e-55
3.402584892e-55
3.09437529e-55
1.595581752e-54
4.652982683e-52
3.183686542e-52
1.461381323e-52
1.992644036e-52
1.368779339e-51
1.993113495e-49
1.381946564e-49
6.917746118e-50
1.388401791e-49
1.110994653e-48
8.743841348e-47
6.21538958e-47
3.583147797e-47
9.924833118e-47
8.677665376e-46
3.920549796e-44
2.896338444e-44
2.048372322e-44
7.251738057e-44
6.627419379e-43
1.804742898e-41
1.423310428e-41
1.257057281e-41
5.406834242e-41
4.986292144e-40
8.552758632e-39
7.379224379e-39
8.162308401e-39
4.127965326e-38
3.716251717e-37
4.172083285e-36
4.030341304e-36
5.574215328e-36
3.227660567e-35
2.755017518e-34
2.085269764e-33
2.307124305e-33
4.000643208e-33
2.576481357e-32
2.037741982e-31
1.06506835e-30
1.376454418e-30
3.019332359e-30
2.115170185e-29
1.506496076e-28
5.511848393e-28
8.451905961e-28
2.36536231e-27
1.782908169e-26
1.114499771e-25
2.878809407e-25
5.3044397e-25
1.889139263e-24
1.529609353e-23
8.251696872e-23
1.490448829e-22
3.331269786e-22
1.49830308e-21
1.283224993e-20
6.110926082e-20
7.595636759e-20
2.087538266e-19
1.14349419e-18
1.026153331e-17
4.526761021e-17
3.719836334e-17
1.2751003e-16
8.407208587e-16
7.756535509e-15
3.346536774e-14
1.668256706e-14
7.387889753e-14
5.742159871e-13
5.335390661e-12
2.472235713e-11
6.364498296e-12
4.093534531e-11
3.794356256e-10
3.340596761e-09
1.845813057e-08
1.391714754e-20
5.117971895e-21
3.364459538e-21
6.520314601e-21
1.444259878e-20
5.733463731e-21
4.662324132e-21
3.774819469e-21
5.498783319e-21
5.995509409e-21
3.070156593e-21
2.745207908e-21
2.478601161e-21
3.074313653e-21
2.953948458e-21
1.815757184e-21
1.724615975e-21
1.651121897e-21
1.881130355e-21
1.64373518e-21
1.140736963e-21
1.14646427e-21
1.127138897e-21
1.273068183e-21
9.947939639e-22
7.560791192e-22
8.58010246e-22
8.691693589e-22
8.596319493e-22
6.099808947e-22
5.212542042e-22
6.433748333e-22
6.608989711e-22
5.720310082e-22
3.764727728e-22
3.699361376e-22
4.803195231e-22
4.926053643e-22
3.785894224e-22
2.389368999e-22
2.691236601e-22
3.576016692e-22
3.616879484e-22
2.558839568e-22
1.609497648e-22
2.003755521e-22
2.667281086e-22
2.647147119e-22
1.80241711e-22
1.167434627e-22
1.530666715e-22
2.009923605e-22
1.958068573e-22
1.335130451e-22
9.07785107e-23
1.201734325e-22
1.542113207e-22
1.481519411e-22
1.039607917e-22
7.460629939e-23
1.008586975e-22
1.219744549e-22
1.155654568e-22
8.453491989e-23
6.380762775e-23
9.022299571e-22
2.720341047e-22
1.159041157e-22
7.264572754e-23
5.61793565e-23
1.446946566e-19
3.32977135e-20
5.284720402e-21
5.765078618e-22
1.278203797e-22
2.489310661e-17
5.494028839e-18
8.18542914e-19
8.27278637e-20
1.527069208e-20
4.358785935e-15
9.005653261e-16
1.234562635e-16
1.172522669e-17
1.933109254e-18
7.793867723e-13
1.441818855e-13
1.757592352e-14
1.541127408e-15
2.26858513e-16
1.448245742e-10
2.192216497e-11
2.261646098e-12
1.798897246e-13
2.349810604e-14
2.874395022e-08
2.919047575e-09
2.384321981e-10
1.692238651e-11
1.928243299e-12
3.184170402e-10
2.889117207e-09
5.372366615e-08
9.89806432e-07
1.402080726e-05
1.56770587e-09
1.245695989e-08
1.86891398e-07
2.435075749e-06
1.858402751e-05
4.454315178e-09
3.155202913e-08
3.902036807e-07
3.697075374e-06
1.638576666e-05
1.001393845e-08
6.426850613e-08
6.625312987e-07
4.556213008e-06
1.279401718e-05
1.934774731e-08
1.131461915e-07
9.667350629e-07
4.898853324e-06
9.756997108e-06
3.411856489e-08
1.810494581e-07
1.279711676e-06
4.91251326e-06
7.634097399e-06
5.914617803e-08
2.866361024e-07
1.647875725e-06
4.793442116e-06
6.306271554e-06
1.026644574e-07
4.529924111e-07
2.043610796e-06
4.597267567e-06
5.38535508e-06
1.76973424e-07
6.904651474e-07
2.392378386e-06
4.340920096e-06
4.626033044e-06
2.977121295e-07
9.886378282e-07
2.650192232e-06
4.067132026e-06
4.014140896e-06
4.943058417e-07
1.320475188e-06
2.811812051e-06
3.818479835e-06
3.55794075e-06
7.633811229e-07
1.638186589e-06
2.905374138e-06
3.598894873e-06
3.191546007e-06
1.092835086e-06
1.927271408e-06
2.949206125e-06
3.377183009e-06
2.848574976e-06
1.470787856e-06
2.184591343e-06
2.949383404e-06
3.138786094e-06
2.524764933e-06
1.873503289e-06
2.404352898e-06
2.907725188e-06
2.888089272e-06
2.231387994e-06
2.239440582e-06
2.565546083e-06
2.815500334e-06
2.617899281e-06
1.957201761e-06
2.478466572e-06
2.6169932e-06
2.636208371e-06
2.297696501e-06
1.673292342e-06
2.489152399e-06
2.48295652e-06
2.320672065e-06
1.902675808e-06
1.362033843e-06
2.212654427e-06
2.118996817e-06
1.86446985e-06
1.465478666e-06
1.050634091e-06
1.707822164e-06
1.595304785e-06
1.358503021e-06
1.058199317e-06
7.754039644e-07
1.167148844e-06
1.083647994e-06
9.224213285e-07
7.325329593e-07
5.577293106e-07
7.455211187e-07
6.957464502e-07
6.05369153e-07
4.98153893e-07
3.982834071e-07
4.701959097e-07
4.450847634e-07
3.978019534e-07
3.419691873e-07
2.924807218e-07
3.034709718e-07
2.920515536e-07
2.704995611e-07
2.458570668e-07
2.249960413e-07
2.074694321e-07
2.032766158e-07
1.955982292e-07
1.878239042e-07
1.828725511e-07
1.543478412e-07
1.538114232e-07
1.533437915e-07
1.545001516e-07
1.584151287e-07
1.263189341e-07
1.275229946e-07
1.305502618e-07
1.36554334e-07
1.461858998e-07
1.142279825e-07
1.164868183e-07
1.218072123e-07
1.310788826e-07
1.441074605e-07
1.133639371e-07
1.159076808e-07
1.214497474e-07
1.314974743e-07
1.47247888e-07
1.244525026e-07
1.276193702e-07
1.356824474e-07
1.485694445e-07
1.666181022e-07
1.505036916e-07
1.546990794e-07
1.639596668e-07
1.783560025e-07
1.979487516e-07
1.91638232e-07
1.961859193e-07
2.061882357e-07
2.208345328e-07
2.390934654e-07
2.450781028e-07
2.488340645e-07
2.566635852e-07
2.674475985e-07
2.789421879e-07
2.911518615e-07
2.922087144e-07
2.938102064e-07
2.946641456e-07
2.927635372e-07
2.83920717e-07
2.815811272e-07
2.761307542e-07
2.671594545e-07
2.540626024e-07
2.151162433e-07
2.118719768e-07
2.048041157e-07
1.942563901e-07
1.805669966e-07
1.367351523e-07
1.343741075e-07
1.293061087e-07
1.21929217e-07
1.126380154e-07
7.954336635e-08
7.81697543e-08
7.52289021e-08
7.096478674e-08
6.561438394e-08
4.44484327e-08
4.370352439e-08
4.210352545e-08
3.976791987e-08
3.680419558e-08
2.414084808e-08
2.371558158e-08
2.279353302e-08
2.142540366e-08
1.965326432e-08
1.179421411e-08
1.152965259e-08
1.096637098e-08
1.016378059e-08
9.195053198e-09
5.032810274e-09
4.933733909e-09
4.724354487e-09
4.427507244e-09
4.066428919e-09
2.162126945e-09
2.125501075e-09
2.047581742e-09
1.935859762e-09
1.797821848e-09
9.369145357e-10
9.229294238e-10
8.930474326e-10
8.498636124e-10
7.959251524e-10
4.08621474e-10
4.031581297e-10
3.914491379e-10
3.744326399e-10
3.530111439e-10
1.79128617e-10
1.769592206e-10
1.722994165e-10
1.654989547e-10
1.568872072e-10
7.887828071e-11
7.800674833e-11
7.613141642e-11
7.338546088e-11
6.989167357e-11
3.489355507e-11
3.454039893e-11
3.377940137e-11
3.266211252e-11
3.123510165e-11
1.552123651e-11
1.537735097e-11
1.506694553e-11
1.461024012e-11
1.402517959e-11
6.957497544e-12
6.898880802e-12
6.77233741e-12
6.585911949e-12
6.346675516e-12
3.158020814e-12
3.134526617e-12
3.083823987e-12
3.009175929e-12
2.913493557e-12
1.468179872e-12
1.45941014e-12
1.440554666e-12
1.412985765e-12
1.378028704e-12
7.188535446e-13
7.164968784e-13
7.115464206e-13
7.046243031e-13
6.964697311e-13
3.939663098e-13
3.946683942e-13
3.963796324e-13
3.994275567e-13
4.043637756e-13
2.656363321e-13
2.68111758e-13
2.737137486e-13
2.826599249e-13
2.954827243e-13
2.342258013e-13
2.380929587e-13
2.467737316e-13
2.604534255e-13
2.79729232e-13
2.5826798e-13
2.63591029e-13
2.75509661e-13
2.942120107e-13
3.20417305e-13
3.242642748e-13
3.314005496e-13
3.473605174e-13
3.723543961e-13
4.072808538e-13
4.347913976e-13
4.44392186e-13
4.658480411e-13
4.994054045e-13
5.462157203e-13
6.078808841e-13
6.210679784e-13
6.505242906e-13
6.965559825e-13
7.606941365e-13
8.881975477e-13
9.065726314e-13
9.475501861e-13
1.011395832e-12
1.099971714e-12
1.330354458e-12
1.355370067e-12
1.4110182e-12
1.497335982e-12
1.616518648e-12
1.966818074e-12
2.000521808e-12
2.075441111e-12
2.191511148e-12
2.351286244e-12
2.903259776e-12
2.948218492e-12
3.048009076e-12
3.202208453e-12
3.413691836e-12
4.255777395e-12
4.314595979e-12
4.444951728e-12
4.645846306e-12
4.920353049e-12
6.167814807e-12
6.243024165e-12
6.409461567e-12
6.665307611e-12
7.01366083e-12
8.779849646e-12
8.87342525e-12
9.080221247e-12
9.397353413e-12
9.827738372e-12
1.225141117e-11
1.236475482e-11
1.261492514e-11
1.299775449e-11
1.351576442e-11
1.65533388e-11
1.66861024e-11
1.697881216e-11
1.742591529e-11
1.802937348e-11
2.101270433e-11
2.116191612e-11
2.149063395e-11
2.199206172e-11
2.266758225e-11
1.554593399e-05
1.944776105e-05
1.419112279e-05
1.01290009e-05
7.421350138e-06
5.76578194e-06
4.846286579e-06
4.137933922e-06
3.501205036e-06
3.017118851e-06
2.682638086e-06
2.411693746e-06
2.149108019e-06
1.907370394e-06
1.695257372e-06
1.497455093e-06
1.292027347e-06
1.063585923e-06
8.340493821e-07
6.307485182e-07
4.680403521e-07
3.490836419e-07
2.68732656e-07
2.163076085e-07
1.831780966e-07
1.640179062e-07
1.552563604e-07
1.555757362e-07
1.623676792e-07
1.820373967e-07
2.138319953e-07
2.523905883e-07
2.851988263e-07
2.882124843e-07
2.424794685e-07
1.698122209e-07
1.055608691e-07
6.154434306e-08
3.451127168e-08
1.825821779e-08
8.504724646e-09
3.802259009e-09
1.694835881e-09
7.551431009e-10
3.366562328e-10
1.502629693e-10
6.718808557e-11
3.012546542e-11
1.356852294e-11
6.159562279e-12
2.83881227e-12
1.35117802e-12
6.909119555e-13
4.093642586e-13
3.069961067e-13
2.967023562e-13
3.433386944e-13
4.377304947e-13
5.869368466e-13
8.164115137e-13
1.176476748e-12
1.718890766e-12
2.487946005e-12
3.593735335e-12
5.152957825e-12
7.307517086e-12
1.018929618e-11
1.394931643e-11
1.853285245e-11
2.32298629e-11
3.178915916e-06
3.040410055e-07
1.917629624e-08
1.151976368e-09
1.04309673e-10
3.161088162e-06
7.426652309e-07
6.196922423e-08
4.195809717e-09
1.185898392e-09
2.745321507e-06
5.837829519e-07
5.711948445e-08
4.675009904e-09
4.703599928e-09
2.434037283e-06
5.028333644e-07
2.170069644e-07
1.587684873e-08
3.584767235e-09
1.986315617e-06
4.922335381e-07
6.183616161e-07
5.018620476e-08
4.699829572e-09
1.78140617e-06
5.306604456e-07
6.839808547e-07
7.276411031e-08
6.928663369e-09
1.782953945e-06
5.864762969e-07
6.072803883e-07
8.169954905e-08
9.541960096e-09
1.700803715e-06
5.794526392e-07
4.722529266e-07
1.336794862e-07
1.797028862e-08
1.522995027e-06
5.472352704e-07
4.316615829e-07
4.254335571e-07
6.415698083e-08
1.38954726e-06
5.406193585e-07
4.380755498e-07
5.754577682e-07
1.034441987e-07
1.312898085e-06
5.490714412e-07
4.400435642e-07
5.823496251e-07
1.201810582e-07
1.236921145e-06
5.437996439e-07
4.172195332e-07
5.162551937e-07
1.356013317e-07
1.138915585e-06
5.216631111e-07
3.908695572e-07
4.692758254e-07
2.964234908e-07
1.04500502e-06
5.025487447e-07
3.798327234e-07
4.561656862e-07
4.303181818e-07
9.592966168e-07
4.893077241e-07
3.769562416e-07
4.484021413e-07
4.811424518e-07
8.695690447e-07
4.739783253e-07
3.730447765e-07
4.338707013e-07
4.810051826e-07
7.767587333e-07
4.485355778e-07
3.604402834e-07
4.090109086e-07
4.561150033e-07
6.65649586e-07
4.080584742e-07
3.386246563e-07
3.811843927e-07
4.325670493e-07
5.483227779e-07
3.611248801e-07
3.155941034e-07
3.60519581e-07
4.195573772e-07
4.413789208e-07
3.173301316e-07
2.964329151e-07
3.476622644e-07
4.120035289e-07
3.536803523e-07
2.812555695e-07
2.820728763e-07
3.39464572e-07
4.048832355e-07
2.86516199e-07
2.532084683e-07
2.712123658e-07
3.327432727e-07
3.959375239e-07
2.39161454e-07
2.324250527e-07
2.626553693e-07
3.260131355e-07
3.846280353e-07
2.068730586e-07
2.175635749e-07
2.560628076e-07
3.193929331e-07
3.718672487e-07
1.858031689e-07
2.078907123e-07
2.519940127e-07
3.142429717e-07
3.595796549e-07
1.739036477e-07
2.038326244e-07
2.518798969e-07
3.120256968e-07
3.48083683e-07
1.70012134e-07
2.061230228e-07
2.568178244e-07
3.129328508e-07
3.35820946e-07
1.738264211e-07
2.147186223e-07
2.666479898e-07
3.15147562e-07
3.200145799e-07
1.851820497e-07
2.300734248e-07
2.800380217e-07
3.150585941e-07
2.978306805e-07
2.052028489e-07
2.514492287e-07
2.933655014e-07
3.075668223e-07
2.679503932e-07
2.376147922e-07
2.758797258e-07
3.00066019e-07
2.877372404e-07
2.312810741e-07
2.713534901e-07
2.929853326e-07
2.908030646e-07
2.535335397e-07
1.905637121e-07
2.926574091e-07
2.881590038e-07
2.589486443e-07
2.078876418e-07
1.491149941e-07
2.795791979e-07
2.506830228e-07
2.074391098e-07
1.575684071e-07
1.099812811e-07
2.245024546e-07
1.88846411e-07
1.491571588e-07
1.103524762e-07
7.597161428e-08
1.537760292e-07
1.260780396e-07
9.807878179e-08
7.202576474e-08
4.91786308e-08
9.512494801e-08
7.769397788e-08
6.033590558e-08
4.402618456e-08
2.960788487e-08
5.554459431e-08
4.540629333e-08
3.504281442e-08
2.507852198e-08
1.701613466e-08
3.110865318e-08
2.513064459e-08
1.89026406e-08
1.349506638e-08
9.423066934e-09
1.618666947e-08
1.268756061e-08
9.560968607e-09
7.021961193e-09
5.04459049e-09
7.518097764e-09
6.028671617e-09
4.684228242e-09
3.542332237e-09
2.617042235e-09
3.419696879e-09
2.81440332e-09
2.245771255e-09
1.743973553e-09
1.322511356e-09
1.544678774e-09
1.298899479e-09
1.060333505e-09
8.429308937e-10
6.545322451e-10
6.954035916e-10
5.951680038e-10
4.95331297e-10
4.019061967e-10
3.187542711e-10
3.126164402e-10
2.715112151e-10
2.297209479e-10
1.897511209e-10
1.533629586e-10
1.405004292e-10
1.235559533e-10
1.060404415e-10
8.898185771e-11
7.315240536e-11
6.319528139e-11
5.618018973e-11
4.882898691e-11
4.156114591e-11
3.470877442e-11
2.848393108e-11
2.557107628e-11
2.24847019e-11
1.939637231e-11
1.644832037e-11
1.289211461e-11
1.168275856e-11
1.039110762e-11
9.08834401e-12
7.836349874e-12
5.882251125e-12
5.384656669e-12
4.851991536e-12
4.315004256e-12
3.802135191e-12
2.728265228e-12
2.531103122e-12
2.322730698e-12
2.117798869e-12
1.931157685e-12
1.311728279e-12
1.244182034e-12
1.177855091e-12
1.12123137e-12
1.083980905e-12
6.832211978e-13
6.746218952e-13
6.744643645e-13
6.891640412e-13
7.268268586e-13
4.175189779e-13
4.392564236e-13
4.745901317e-13
5.296463488e-13
6.126186999e-13
3.250191429e-13
3.665330583e-13
4.263672949e-13
5.112393791e-13
6.30327555e-13
3.230775789e-13
3.820704786e-13
4.646655193e-13
5.787524356e-13
7.351626208e-13
3.788643778e-13
4.574760031e-13
5.662909482e-13
7.14909851e-13
9.164936552e-13
4.848618487e-13
5.885818429e-13
7.312673363e-13
9.248893354e-13
1.185803188e-12
6.499102878e-13
7.879686041e-13
9.770620388e-13
1.232455099e-12
1.574943937e-12
9.025270622e-13
1.090185218e-12
1.345202032e-12
1.686556979e-12
2.138858928e-12
1.294429537e-12
1.549434731e-12
1.892365617e-12
2.344535616e-12
2.932060771e-12
1.876378457e-12
2.213672084e-12
2.662439023e-12
3.248111066e-12
4.002915974e-12
2.697811742e-12
3.143690796e-12
3.731068897e-12
4.488727602e-12
5.452376499e-12
3.869694599e-12
4.450971368e-12
5.20873551e-12
6.174463082e-12
7.386423242e-12
5.508802966e-12
6.251930016e-12
7.210686417e-12
8.418156167e-12
9.913799572e-12
7.756240893e-12
8.685694096e-12
9.873054004e-12
1.135168204e-11
1.316067905e-11
1.074049283e-11
1.187358858e-11
1.330806537e-11
1.507614041e-11
1.721500712e-11
1.460924737e-11
1.595682103e-11
1.764906171e-11
1.97157302e-11
2.219076198e-11
1.929831082e-11
2.085226973e-11
2.279038808e-11
2.513903327e-11
2.792801158e-11
2.408393313e-11
2.581039551e-11
2.79527902e-11
3.05340562e-11
3.357998079e-11
1.989600304e-11
1.040924814e-12
1.178163997e-13
2.206411423e-14
5.280384558e-15
1.361397336e-15
3.793920255e-16
1.381359107e-16
7.794047748e-17
6.476456022e-17
6.901616862e-17
8.49951481e-17
1.122012265e-16
1.509348933e-16
2.009329959e-16
2.605177168e-16
3.261340604e-16
3.923417359e-16
4.527001006e-16
5.012491985e-16
5.342127396e-16
5.50965994e-16
5.538414083e-16
5.468811332e-16
5.342237795e-16
5.187655689e-16
5.016250175e-16
4.824578009e-16
4.602438829e-16
4.340982293e-16
4.037730099e-16
3.697397429e-16
3.32972214e-16
2.946396678e-16
2.55866083e-16
2.176377958e-16
1.808402527e-16
1.463305201e-16
1.149497428e-16
8.744119927e-17
6.431246956e-17
4.572307872e-17
3.145802274e-17
2.099728188e-17
1.364562614e-17
8.671159166e-18
5.411539649e-18
3.329691325e-18
2.025599996e-18
1.220099148e-18
7.276204286e-19
4.29010595e-19
2.493953392e-19
1.422837194e-19
7.898755098e-20
4.189075077e-20
2.025575139e-20
7.966492244e-21
1.743050186e-21
9.388920895e-23
3.934561596e-10
1.390010987e-11
8.941331385e-13
9.422978951e-14
1.660574358e-14
4.502811318e-15
1.817527723e-15
1.007250511e-15
6.676080342e-16
5.132464448e-16
4.714868005e-16
5.231894201e-16
6.618791101e-16
8.829734629e-16
1.177241423e-15
1.527582888e-15
1.907676435e-15
2.283167384e-15
2.617455007e-15
2.87943847e-15
3.052479157e-15
3.138130079e-15
3.153501275e-15
3.122813793e-15
3.068299576e-15
3.003339601e-15
2.930644503e-15
2.844991036e-15
2.73833546e-15
2.604400234e-15
2.441422161e-15
2.25225184e-15
2.04273097e-15
1.819898847e-15
1.590643649e-15
1.361188136e-15
1.137332754e-15
9.24900521e-16
7.297729438e-16
5.572997558e-16
4.113264636e-16
2.933943682e-16
2.025249151e-16
1.356590507e-16
8.85148925e-17
5.650772001e-17
3.54528857e-17
2.194381732e-17
1.343548176e-17
8.146925155e-18
4.891186692e-18
2.902933973e-18
1.698280546e-18
9.745957694e-19
5.437260008e-19
2.893403169e-19
1.401345146e-19
5.519140752e-20
1.243979498e-20
7.237197788e-22
1.762502951e-09
4.728005779e-11
1.850669577e-12
1.806956796e-13
4.746155685e-14
2.231993508e-14
1.299985148e-14
8.253031236e-15
5.323657462e-15
3.511175197e-15
2.430860116e-15
1.921289684e-15
1.93650666e-15
2.379333641e-15
3.165005726e-15
4.222817816e-15
5.462912139e-15
6.759649942e-15
7.962787152e-15
8.935802556e-15
9.608584401e-15
9.989183599e-15
1.014622872e-14
1.016844249e-14
1.01285811e-14
1.006196446e-14
9.966147817e-15
9.814509319e-15
9.57511591e-15
9.225401118e-15
8.759099514e-15
8.185131314e-15
7.521532654e-15
6.789726748e-15
6.011257298e-15
5.207274126e-15
4.400119124e-15
3.614763447e-15
2.878170097e-15
2.215943539e-15
1.647733636e-15
1.183530466e-15
8.225369308e-16
5.547938049e-16
3.64666731e-16
2.346886824e-16
1.48568489e-16
9.286766684e-17
5.746397222e-17
3.523037278e-17
2.138823889e-17
1.283378162e-17
7.587053164e-18
4.3958923e-18
2.471903775e-18
1.321675589e-18
6.403807081e-19
2.495245872e-19
5.411752989e-20
3.054080143e-21
6.760630116e-09
3.320702214e-10
1.09168401e-11
7.895243946e-13
2.334916224e-13
1.321996985e-13
8.449993178e-14
5.503865268e-14
3.567485819e-14
2.290426359e-14
1.45842877e-14
9.484736729e-15
6.730773763e-15
5.718705901e-15
6.27913469e-15
7.825519297e-15
1.006696392e-14
1.276317542e-14
1.560325882e-14
1.823434465e-14
2.038331114e-14
2.194060561e-14
2.298935647e-14
2.370810615e-14
2.425714521e-14
2.470500849e-14
2.502817599e-14
2.514882111e-14
2.498498683e-14
2.448500396e-14
2.363882161e-14
2.246954754e-14
2.101650179e-14
1.93211768e-14
1.742343836e-14
1.536594353e-14
1.320477422e-14
1.101639187e-14
8.894375839e-15
6.9347869e-15
5.217032873e-15
3.788984357e-15
2.662083657e-15
1.815484638e-15
1.207171056e-15
7.865026761e-16
5.044747e-16
3.19758496e-16
2.007447958e-16
1.249135421e-16
7.698113031e-17
4.688539568e-17
2.811905939e-17
1.650897901e-17
9.385347905e-18
5.051656025e-18
2.44930982e-18
9.414995567e-19
1.921744461e-19
1.033621375e-20
1.015255814e-08
2.194603672e-09
7.76406511e-11
4.191283201e-12
1.090265927e-12
6.461502178e-13
4.254813696e-13
2.80715665e-13
1.84586326e-13
1.206430744e-13
7.829721158e-14
5.056743147e-14
3.262519396e-14
2.208461565e-14
1.669538379e-14
1.518704519e-14
1.681288156e-14
1.968505594e-14
2.326669676e-14
2.729362984e-14
3.12593452e-14
3.483862429e-14
3.797613711e-14
4.08043122e-14
4.348461439e-14
4.603972147e-14
4.83307285e-14
5.012823783e-14
5.122538172e-14
5.150400075e-14
5.094429911e-14
4.958912919e-14
4.749987889e-14
4.472698436e-14
4.130797654e-14
3.728983928e-14
3.276719574e-14
2.791221166e-14
2.297201973e-14
1.822804735e-14
1.393653774e-14
1.027694649e-14
7.327732506e-15
5.072263696e-15
3.42553122e-15
2.268983884e-15
1.48097995e-15
9.558171472e-16
6.111317684e-16
3.872391658e-16
2.429302112e-16
1.505462794e-16
9.181136908e-17
5.474832552e-17
3.153801435e-17
1.712604329e-17
8.32030313e-18
3.159261329e-18
6.038914864e-19
3.177590396e-20
7.034767592e-09
6.659335465e-09
5.417059247e-10
2.591240807e-11
4.981623437e-12
2.496776906e-12
1.556516096e-12
1.027623441e-12
6.938836113e-13
4.727091756e-13
3.22702405e-13
2.202087704e-13
1.502453358e-13
1.024336724e-13
7.137114884e-14
5.241869819e-14
4.258352532e-14
4.083984723e-14
4.181651671e-14
4.394703978e-14
4.659104937e-14
4.952304997e-14
5.278274532e-14
5.660076903e-14
6.121212584e-14
6.662949604e-14
7.253559418e-14
7.834990767e-14
8.344210701e-14
8.732553663e-14
8.973851174e-14
9.058963312e-14
8.98499122e-14
8.747249132e-14
8.339194871e-14
7.757842026e-14
7.012750666e-14
6.134533003e-14
5.175918911e-14
4.20313929e-14
3.282681184e-14
2.468207546e-14
1.791744203e-14
1.261725724e-14
8.671505919e-15
5.852797399e-15
3.898956037e-15
2.571482691e-15
1.681014942e-15
1.088764881e-15
6.975827883e-16
4.410173801e-16
2.740375559e-16
1.66248086e-16
9.722577392e-17
5.342042282e-17
2.610532982e-17
9.851671692e-18
1.769220473e-18
9.252777909e-20
3.298524682e-09
7.425083954e-09
2.387358124e-09
1.56634497e-10
1.560645974e-11
6.169779595e-12
3.668400613e-12
2.439573694e-12
1.689350601e-12
1.191295034e-12
8.482218685e-13
6.080772012e-13
4.38990046e-13
3.197438148e-13
2.353498993e-13
1.761295406e-13
1.369293871e-13
1.130583437e-13
1.013789094e-13
9.611725946e-14
9.265371197e-14
8.94917771e-14
8.65737557e-14
8.462570173e-14
8.453518613e-14
8.696300279e-14
9.203499506e-14
9.936435344e-14
1.081884342e-13
1.175678248e-13
1.26596457e-13
1.344672495e-13
1.40409712e-13
1.435972494e-13
1.432169762e-13
1.386985035e-13
1.299458442e-13
1.174335189e-13
1.02150854e-13
8.539535305e-14
6.854668036e-14
5.286189476e-14
3.925967133e-14
2.821373587e-14
1.975992779e-14
1.359398486e-14
9.244111674e-15
6.234909034e-15
4.17401267e-15
2.770145079e-15
1.818089031e-15
1.176174901e-15
7.467167069e-16
4.619903369e-16
2.750101195e-16
1.535026045e-16
7.595191348e-17
2.880835394e-17
4.933888232e-18
2.61552636e-19
2.5223975e-09
5.362210749e-09
5.415758193e-09
8.900284123e-10
7.283588425e-11
1.55603434e-11
7.366967692e-12
4.60795301e-12
3.161661477e-12
2.25440905e-12
1.639507337e-12
1.207881537e-12
9.002845366e-13
6.798410699e-13
5.214379406e-13
4.069645367e-13
3.237240208e-13
2.665829566e-13
2.28425696e-13
2.060453779e-13
1.931056133e-13
1.822463834e-13
1.706447488e-13
1.581381205e-13
1.458893156e-13
1.356187358e-13
1.286802605e-13
1.260765343e-13
1.282384036e-13
1.349944349e-13
1.45720864e-13
1.594835393e-13
1.748710231e-13
1.896889632e-13
2.009960637e-13
2.057927822e-13
2.021881367e-13
1.901907751e-13
1.714220324e-13
1.482279867e-13
1.230093975e-13
9.796627884e-14
7.496617106e-14
5.532053142e-14
3.964899322e-14
2.785721436e-14
1.934103058e-14
1.333055253e-14
9.13187772e-15
6.209070742e-15
4.177929611e-15
2.771047786e-15
1.802375004e-15
1.14094889e-15
6.937614484e-16
3.949591614e-16
1.989808409e-16
7.64511034e-17
1.281748968e-17
6.938884421e-19
7.476275738e-09
4.605615855e-09
6.828624468e-09
3.550644664e-09
3.932152173e-10
4.897139298e-11
1.500749843e-11
7.926087738e-12
5.157773744e-12
3.63702401e-12
2.663021354e-12
1.993438459e-12
1.517474356e-12
1.173917793e-12
9.242164203e-13
7.417723958e-13
6.071097009e-13
5.069912385e-13
4.362022761e-13
3.873260198e-13
3.566450923e-13
3.374927597e-13
3.202242765e-13
3.005853386e-13
2.776495251e-13
2.524319736e-13
2.270597833e-13
2.042438255e-13
1.863616022e-13
1.752278121e-13
1.717554639e-13
1.766417566e-13
1.898714869e-13
2.099013435e-13
2.329125305e-13
2.530002363e-13
2.638650851e-13
2.615135276e-13
2.462338095e-13
2.212313825e-13
1.904964604e-13
1.575775746e-13
1.25282925e-13
9.58261443e-14
7.084371296e-14
5.112469458e-14
3.637035994e-14
2.565498325e-14
1.798129733e-14
1.251596651e-14
8.630456526e-15
5.872118163e-15
3.920269825e-15
2.546852779e-15
1.588379672e-15
9.267282742e-16
4.781822579e-16
1.876570593e-16
3.157335965e-17
1.76957186e-18
1.378914568e-08
3.517553966e-09
6.119508869e-09
5.322799958e-09
1.559473444e-09
1.720476829e-10
3.267921736e-11
1.325930183e-11
7.811480807e-12
5.333342685e-12
3.884874033e-12
2.93067852e-12
2.263710827e-12
1.783373461e-12
1.432307288e-12
1.173654958e-12
9.814967531e-13
8.364391738e-13
7.271048988e-13
6.486546207e-13
5.933086418e-13
5.5782491e-13
5.344977727e-13
5.116676573e-13
4.840350659e-13
4.502007766e-13
4.111544015e-13
3.69170124e-13
3.27445385e-13
2.893410518e-13
2.582205799e-13
2.372917148e-13
2.288073553e-13
2.334887494e-13
2.496286295e-13
2.724564741e-13
2.940655315e-13
3.060222362e-13
3.029440578e-13
2.850244837e-13
2.558261885e-13
2.202380919e-13
1.825652551e-13
1.459969008e-13
1.126801246e-13
8.438378866e-14
6.194639698e-14
4.493103256e-14
3.231052882e-14
2.30443649e-14
1.627833975e-14
1.135527485e-14
7.782508666e-15
5.196716149e-15
3.334030454e-15
2.002695789e-15
1.064914344e-15
4.31183723e-16
7.450559392e-17
4.403552149e-18
1.848296477e-08
3.204290679e-09
4.534330781e-09
6.305108933e-09
3.788612822e-09
6.372439141e-10
8.605165576e-11
2.358513409e-11
1.164679372e-11
7.451688112e-12
5.313969743e-12
4.002119327e-12
3.117206471e-12
2.489365228e-12
2.031925722e-12
1.694145045e-12
1.442603814e-12
1.25291813e-12
1.106523199e-12
9.962499153e-13
9.170834854e-13
8.610419993e-13
8.258787413e-13
8.008652589e-13
7.724357901e-13
7.347041087e-13
6.86406785e-13
6.291111044e-13
5.660728465e-13
5.01476819e-13
4.398346986e-13
3.854437944e-13
3.424078784e-13
3.139397243e-13
3.015051357e-13
3.03171685e-13
3.131730421e-13
3.235990136e-13
3.27363377e-13
3.200198087e-13
3.002937283e-13
2.70333794e-13
2.342281151e-13
1.960857618e-13
1.590463085e-13
1.251639112e-13
9.594837648e-14
7.212612841e-14
5.347461077e-14
3.91997509e-14
2.841365494e-14
2.032674527e-14
1.429466594e-14
9.808846936e-15
6.480339937e-15
4.019085856e-15
2.214993431e-15
9.350595383e-16
1.696434069e-16
1.073850732e-17
2.36637532e-08
3.965000092e-09
3.009509074e-09
5.129566524e-09
4.900605868e-09
1.930579086e-09
2.998544013e-10
5.271396369e-11
1.84486612e-11
1.023916076e-11
6.940583099e-12
5.150386974e-12
4.01873174e-12
3.242209948e-12
2.685064822e-12
2.277908843e-12
1.977139529e-12
1.752136028e-12
1.580463221e-12
1.445096374e-12
1.345964247e-12
1.275160358e-12
1.227222713e-12
1.200596492e-12
1.175061461e-12
1.137379665e-12
1.082657039e-12
1.010912735e-12
9.252945946e-13
8.308587351e-13
7.335900658e-13
6.396019781e-13
5.544960491e-13
4.828551272e-13
4.276024423e-13
3.893810106e-13
3.6586626e-13
3.524099965e-13
3.434116682e-13
3.3324333e-13
3.183278994e-13
2.966953795e-13
2.685553784e-13
2.358061237e-13
2.011143731e-13
1.668833599e-13
1.348675928e-13
1.063081677e-13
8.198090315e-14
6.20927515e-14
4.631697865e-14
3.403312522e-14
2.456834787e-14
1.731601914e-14
1.17744934e-14
7.545624846e-15
4.326888132e-15
1.923365864e-15
3.75071917e-16
2.583287058e-17
5.442273182e-08
8.914943833e-09
2.632365666e-09
4.131716049e-09
5.268785203e-09
3.666470247e-09
1.036943639e-09
1.657105703e-10
3.554619036e-11
1.440142438e-11
8.623551394e-12
6.142994953e-12
4.756444225e-12
3.879138817e-12
3.270519989e-12
2.848069687e-12
2.541684755e-12
2.316129753e-12
2.146166746e-12
2.011396505e-12
1.913599405e-12
1.846390389e-12
1.802863126e-12
1.782064262e-12
1.764846942e-12
1.729777962e-12
1.667815054e-12
1.577361061e-12
1.461676937e-12
1.327163971e-12
1.181942247e-12
1.034629147e-12
8.933255507e-13
7.64841118e-13
6.539342843e-13
5.628145134e-13
4.910828191e-13
4.360961226e-13
3.941202274e-13
3.614896109e-13
3.345143634e-13
3.103113557e-13
2.860332219e-13
2.599209887e-13
2.318222344e-13
2.022296991e-13
1.722033894e-13
1.431214766e-13
1.160033594e-13
9.17286289e-14
7.088037343e-14
5.363984469e-14
3.976108213e-14
2.876303496e-14
2.01056049e-14
1.330045561e-14
7.947299997e-15
3.756061725e-15
8.114949665e-16
6.182161856e-17
8.877107044e-08
1.59550451e-08
3.334575014e-09
3.42134459e-09
4.695268927e-09
4.211639606e-09
2.287252197e-09
5.738624085e-10
9.762154292e-11
2.35700102e-11
1.038366291e-11
6.62791606e-12
5.038321552e-12
4.188183073e-12
3.655138772e-12
3.319493472e-12
3.09242366e-12
2.935259671e-12
2.819008591e-12
2.737934318e-12
2.691195004e-12
2.668187217e-12
2.666272199e-12
2.682266441e-12
2.68236522e-12
2.647091737e-12
2.567434537e-12
2.442054383e-12
2.275623312e-12
2.077026426e-12
1.857621241e-12
1.630079414e-12
1.406788055e-12
1.197993632e-12
1.010995475e-12
8.496536457e-13
7.147750314e-13
6.047314765e-13
5.162734513e-13
4.456857198e-13
3.893834415e-13
3.442655561e-13
3.080556458e-13
2.782633352e-13
2.524079296e-13
2.277907456e-13
2.026734893e-13
1.767324289e-13
1.505470261e-13
1.249995944e-13
1.010254512e-13
7.941379874e-14
6.073084087e-14
4.513034976e-14
3.238684063e-14
2.207260716e-14
1.372700485e-14
6.944151521e-15
1.731214559e-15
1.474574016e-16
1.108687888e-07
2.220228599e-08
4.538485992e-09
2.595163948e-09
3.888306002e-09
4.619826411e-09
3.502787339e-09
1.436688526e-09
3.436448557e-10
6.015154707e-11
1.497213307e-11
6.89040884e-12
4.826124187e-12
4.126222667e-12
3.839016108e-12
3.720907692e-12
3.676064678e-12
3.671483522e-12
3.698682073e-12
3.744466601e-12
3.808583515e-12
3.890934604e-12
3.971127256e-12
4.024211521e-12
4.032292745e-12
3.983349999e-12
3.870778905e-12
3.693279478e-12
3.454893007e-12
3.165947157e-12
2.841433964e-12
2.498248718e-12
2.154858885e-12
1.828940751e-12
1.53307821e-12