/*--------------------------------*- C++ -*----------------------------------*\
  =========                 |
  \\      /  F ield         | OpenFOAM: The Open Source CFD Toolbox
   \\    /   O peration     | Website:  https://openfoam.org
    \\  /    A nd           | Version:  10
     \\/     M anipulation  |
\*---------------------------------------------------------------------------*/
FoamFile
{
    format      ascii;
    class       volScalarField;
    location    "3000";
    object      CH3OH;
}
// * * * * * * * * * * * * * * * * * * * * * * * * * * * * * * * * * * * * * //

dimensions      [0 0 0 0 0 0 0];

internalField   nonuniform List<scalar> 
5170
(
9.991192008e-61
8.062935858e-61
5.005704917e-61
2.483114394e-61
2.01665184e-61
3.394204255e-58
2.709065895e-58
1.652260114e-58
9.538649983e-59
1.686038884e-58
1.166613462e-55
9.241214746e-56
5.612151415e-56
4.407800716e-56
1.3293502e-55
4.087774033e-53
3.234346361e-53
2.026813873e-53
2.269617874e-53
9.607228335e-53
1.459315073e-50
1.164497429e-50
7.821777712e-51
1.237435083e-50
6.470604695e-50
5.329060663e-48
4.342761249e-48
3.199869882e-48
6.943140327e-48
4.112919793e-47
1.98823948e-45
1.669050763e-45
1.404627183e-45
3.961238846e-45
2.522261693e-44
7.567494953e-43
6.617353961e-43
6.636327931e-43
2.287872734e-42
1.510768701e-41
2.946331097e-40
2.737800651e-40
3.296274066e-40
1.334495483e-39
8.889634685e-39
1.175480777e-37
1.181231449e-37
1.701978588e-37
7.875733322e-37
5.160288392e-36
4.796088862e-35
5.29671019e-35
9.081997071e-35
4.695450121e-34
2.964834234e-33
1.993000266e-32
2.460995568e-32
5.0135668e-32
2.824976102e-31
1.690715885e-30
8.404006705e-30
1.177604875e-29
2.873144145e-29
1.726984018e-28
9.590638904e-28
3.569136706e-27
5.754390495e-27
1.69401937e-26
1.074319027e-25
5.424111526e-25
1.520348312e-24
2.84850402e-24
1.013534699e-23
6.773231986e-23
3.063809293e-22
6.39493566e-22
1.406409898e-21
6.031528284e-21
4.188856981e-20
1.730435757e-19
2.643282512e-19
6.909388047e-19
3.48004513e-18
2.514657784e-17
9.791444174e-17
1.049790532e-16
3.313709625e-16
1.945641664e-15
1.437097582e-14
5.541717735e-14
3.836461522e-14
1.517962211e-13
1.023777296e-12
7.65275346e-12
3.144996273e-11
1.201655271e-11
6.724917245e-11
5.243228337e-10
3.730081667e-09
1.809420641e-08
2.87885482e-20
1.235855095e-20
8.610099374e-21
1.505078953e-20
3.052599486e-20
1.463767627e-20
1.152581724e-20
9.6313952e-21
1.300504621e-20
1.508286728e-20
8.341167475e-21
6.869193151e-21
6.257422008e-21
7.467239148e-21
8.241047211e-21
5.151686733e-21
4.380120612e-21
4.206935049e-21
5.043192571e-21
4.967338262e-21
3.426940018e-21
3.296539231e-21
3.215311678e-21
3.653610497e-21
3.164468855e-21
2.421573886e-21
2.595412651e-21
2.599895294e-21
2.70089544e-21
2.094436769e-21
1.786783505e-21
2.073341768e-21
2.115085975e-21
1.995338853e-21
1.428218081e-21
1.360235059e-21
1.659222534e-21
1.70307613e-21
1.468399466e-21
1.009534222e-21
1.062874639e-21
1.327836351e-21
1.355938233e-21
1.093572407e-21
7.500903891e-22
8.488531459e-22
1.065334347e-21
1.075605085e-21
8.349102329e-22
5.869483249e-22
6.929304031e-22
8.613725505e-22
8.589338752e-22
6.62150756e-22
4.827509025e-22
5.771418148e-22
7.057592784e-22
6.961069921e-22
5.427882037e-22
4.127953212e-22
4.707198391e-22
5.790654183e-22
5.709665113e-22
4.559237422e-22
3.623848514e-22
8.790021406e-21
2.346800088e-21
6.305098344e-22
3.014129887e-22
2.898544427e-22
1.457011661e-18
3.357435109e-19
5.318800483e-20
5.719074533e-21
1.239539449e-21
2.502846772e-16
5.54197476e-17
8.289232499e-18
8.426673121e-19
1.606465659e-19
4.360432867e-14
9.056493163e-15
1.249270211e-15
1.199204902e-16
2.115453047e-17
7.747367518e-12
1.443165691e-12
1.774591264e-13
1.58887553e-14
2.710980994e-15
1.441460441e-09
2.195869351e-10
2.289323246e-11
1.90589716e-12
3.470564017e-13
2.914905249e-07
2.982450025e-08
2.470690319e-09
1.982018578e-10
4.680420172e-11
4.623030327e-10
3.586107526e-09
5.520255899e-08
8.285478989e-07
1.062917576e-05
2.437309027e-09
1.63236289e-08
1.970037364e-07
2.049775607e-06
1.443378905e-05
7.734331585e-09
4.561076305e-08
4.482327886e-07
3.483486119e-06
1.618002334e-05
1.966399385e-08
1.042053478e-07
8.536793326e-07
5.101096259e-06
1.728818166e-05
4.32239734e-08
2.07540071e-07
1.424337863e-06
6.715033647e-06
1.820475867e-05
8.66984045e-08
3.771822284e-07
2.185730726e-06
8.379454167e-06
1.933212529e-05
1.679349705e-07
6.691540178e-07
3.268645619e-06
1.02342913e-05
2.078686804e-05
3.171341841e-07
1.161791602e-06
4.688314662e-06
1.215711788e-05
2.231630412e-05
5.79886866e-07
1.920081366e-06
6.333161382e-06
1.398437975e-05
2.367688106e-05
1.01680456e-06
2.972390932e-06
8.086328938e-06
1.570637599e-05
2.491217779e-05
1.735224978e-06
4.304264582e-06
9.838997018e-06
1.735036004e-05
2.613185506e-05
2.772769512e-06
5.814990974e-06
1.155743731e-05
1.893627906e-05
2.732136875e-05
4.162702068e-06
7.490725809e-06
1.328091675e-05
2.046456809e-05
2.839943047e-05
5.975072401e-06
9.377048322e-06
1.507033272e-05
2.196952313e-05
2.939555106e-05
8.314036671e-06
1.156063331e-05
1.700474454e-05
2.352627518e-05
3.041525174e-05
1.12359318e-05
1.415494504e-05
1.919945803e-05
2.525788355e-05
3.160106994e-05
1.475800689e-05
1.726987901e-05
2.179655966e-05
2.730202098e-05
3.30607171e-05
1.878938679e-05
2.089696685e-05
2.483843507e-05
2.969741158e-05
3.478665422e-05
2.319447926e-05
2.49164893e-05
2.821762262e-05
3.233693271e-05
3.668001646e-05
2.76906047e-05
2.90533247e-05
3.171028501e-05
3.507811056e-05
3.868037039e-05
3.196315816e-05
3.301147213e-05
3.509082345e-05
3.778067614e-05
4.0712402e-05
3.579991691e-05
3.659911436e-05
3.820987968e-05
4.033173811e-05
4.268094342e-05
3.915672171e-05
3.976625769e-05
4.100819521e-05
4.266778533e-05
4.45242291e-05
4.20618818e-05
4.252644488e-05
4.347958612e-05
4.476055807e-05
4.620282097e-05
4.456830234e-05
4.491821335e-05
4.563506333e-05
4.660078702e-05
4.766999491e-05
4.675910284e-05
4.701691844e-05
4.754112798e-05
4.822532864e-05
4.896149216e-05
4.869849408e-05
4.887771631e-05
4.923506366e-05
4.967933562e-05
5.010477833e-05
5.036280701e-05
5.04628726e-05
5.064736885e-05
5.082911765e-05
5.091399413e-05
5.167276904e-05
5.169674135e-05
5.17205957e-05
5.164836454e-05
5.136170973e-05
5.244747919e-05
5.237802058e-05
5.21785624e-05
5.178122711e-05
5.107427144e-05
5.232407604e-05
5.213485369e-05
5.168777169e-05
5.091587442e-05
4.970847224e-05
5.083203805e-05
5.050836126e-05
4.976545699e-05
4.856391681e-05
4.683159745e-05
4.713119224e-05
4.667166209e-05
4.564822884e-05
4.406490572e-05
4.18878609e-05
4.042506913e-05
3.98936021e-05
3.874320786e-05
3.700029716e-05
3.470534347e-05
3.133446674e-05
3.085618016e-05
2.981643869e-05
2.827960346e-05
2.631382557e-05
2.220627044e-05
2.184495627e-05
2.106800854e-05
1.993299377e-05
1.849444986e-05
1.480140099e-05
1.455699863e-05
1.403124426e-05
1.326231075e-05
1.228536682e-05
9.428129838e-06
9.26712945e-06
8.920001574e-06
8.410343505e-06
7.759751323e-06
5.693160068e-06
5.586334571e-06
5.355743793e-06
5.016661621e-06
4.583477987e-06
3.120116472e-06
3.049984976e-06
2.899378065e-06
2.680484159e-06
2.40706327e-06
1.424499359e-06
1.389021351e-06
1.314785735e-06
1.211691658e-06
1.09015169e-06
6.006365173e-07
5.882410413e-07
5.621147292e-07
5.252525162e-07
4.806673761e-07
2.565980036e-07
2.520951735e-07
2.42528362e-07
2.288437321e-07
2.119875456e-07
1.107662345e-07
1.090668044e-07
1.054383658e-07
1.002021472e-07
9.36746528e-08
4.818158492e-08
4.752326728e-08
4.611302917e-08
4.406544211e-08
4.149120316e-08
2.108335613e-08
2.082359061e-08
2.026579118e-08
1.945225479e-08
1.842297794e-08
9.272679094e-09
9.16882536e-09
8.945403187e-09
8.61840303e-09
8.202624817e-09
4.098945612e-09
4.057036143e-09
3.966743246e-09
3.834225492e-09
3.665068541e-09
1.823004941e-09
1.806011942e-09
1.769361355e-09
1.715462073e-09
1.646464458e-09
8.181431146e-10
8.1128603e-10
7.964907828e-10
7.747165708e-10
7.468178848e-10
3.732692252e-10
3.705973599e-10
3.648410792e-10
3.563930985e-10
3.456171137e-10
1.765162189e-10
1.756237411e-10
1.73719002e-10
1.709725028e-10
1.675656406e-10
9.081959766e-11
9.074133488e-11
9.060614993e-11
9.049825911e-11
9.053805068e-11
5.599358359e-11
5.636051584e-11
5.720019428e-11
5.856536191e-11
6.056619612e-11
4.590364923e-11
4.660439226e-11
4.818205134e-11
5.068082603e-11
5.422554257e-11
4.981558053e-11
5.086599159e-11
5.322190154e-11
5.692970846e-11
6.21461306e-11
6.435780421e-11
6.585706901e-11
6.921460764e-11
7.448521848e-11
8.187477679e-11
9.03312873e-11
9.246109025e-11
9.722650751e-11
1.046957498e-10
1.151459988e-10
1.32002016e-10
1.35057469e-10
1.418894482e-10
1.525852097e-10
1.675254646e-10
1.985442994e-10
2.030145532e-10
2.130041989e-10
2.286273295e-10
2.50419173e-10
3.094052706e-10
3.161921647e-10
3.313556683e-10
3.550594967e-10
3.880385073e-10
5.036692246e-10
5.136474e-10
5.358646164e-10
5.703832152e-10
6.181438366e-10
8.045524434e-10
8.190457175e-10
8.512885287e-10
9.013138922e-10
9.703159763e-10
1.282220838e-09
1.3031353e-09
1.349593931e-09
1.421485578e-09
1.520281443e-09
2.034201095e-09
2.06385885e-09
2.129634342e-09
2.231133e-09
2.370071993e-09
3.198055339e-09
3.239151677e-09
3.330149588e-09
3.470175631e-09
3.6611058e-09
4.941487413e-09
4.996758204e-09
5.11894987e-09
5.306468276e-09
5.561198117e-09
7.477171084e-09
7.549209015e-09
7.708233972e-09
7.951657381e-09
8.281165206e-09
1.090419816e-08
1.099433226e-08
1.119303426e-08
1.149650068e-08
1.190600181e-08
1.474116051e-08
1.484789884e-08
1.508296851e-08
1.544134971e-08
1.592378016e-08
2.053799673e-05
2.596697881e-05
2.701486438e-05
2.696137236e-05
2.687039011e-05
2.742927761e-05
2.86049704e-05
2.965499255e-05
3.039782421e-05
3.110002921e-05
3.19411265e-05
3.27785925e-05
3.34500594e-05
3.403580076e-05
3.468841816e-05
3.554372004e-05
3.665730053e-05
3.797696765e-05
3.941012818e-05
4.096557997e-05
4.259373322e-05
4.420371829e-05
4.573854398e-05
4.713272808e-05
4.833861782e-05
4.938689563e-05
5.028120591e-05
5.08103735e-05
5.092693432e-05
5.030512598e-05
4.854701825e-05
4.528446803e-05
4.005786385e-05
3.287225248e-05
2.478986658e-05
1.738713408e-05
1.153063021e-05
7.254512348e-06
4.247975394e-06
2.20365673e-06
1.004578305e-06
4.482207659e-07
1.994559975e-07
8.875121182e-08
3.952910643e-08
1.763218086e-08
7.881163967e-09
3.533632578e-09
1.592663568e-09
7.250459009e-10
3.372648719e-10
1.650344177e-10
9.076839419e-11
6.240745119e-11
5.73718942e-11
6.67317165e-11
8.834377267e-11
1.24270891e-10
1.805446268e-10
2.69375149e-10
4.166094779e-10
6.592727517e-10
1.029487499e-09
1.604602536e-09
2.488068731e-09
3.822455849e-09
5.775445044e-09
8.557072343e-09
1.224754285e-08
1.632491185e-08
3.271794954e-05
3.256771162e-06
2.136295391e-07
1.434762708e-08
7.338296234e-09
4.065492727e-05
5.029944834e-05
4.059343825e-06
2.792474685e-07
2.889876887e-07
4.3009104e-05
5.527359039e-05
5.230098171e-06
4.310268951e-07
6.366716627e-07
4.152432263e-05
4.846045185e-05
1.177593937e-05
8.834471751e-07
2.766210992e-07
3.992322788e-05
4.707989545e-05
3.109979633e-05
2.525175354e-06
2.581656874e-07
3.97984858e-05
4.972608224e-05
4.581514316e-05
4.807353628e-06
4.64257373e-07
4.062519693e-05
5.211187688e-05
5.10926667e-05
6.745814462e-06
7.749938262e-07
4.07360402e-05
5.075347707e-05
4.801576366e-05
9.349035943e-06
1.258588143e-06
4.033958021e-05
4.906528819e-05
4.769393357e-05
2.200235396e-05
3.348955561e-06
4.016499684e-05
4.862065943e-05
4.975283e-05
3.250015866e-05
5.828030419e-06
4.042474617e-05
4.898309082e-05
5.172641862e-05
3.864339879e-05
7.883774605e-06
4.07015519e-05
4.884272762e-05
5.154894407e-05
4.078698987e-05
9.685927078e-06
4.072280424e-05
4.811071433e-05
5.055183433e-05
4.244731469e-05
1.720336118e-05
4.068160849e-05
4.749675711e-05
5.018854722e-05
4.465898234e-05
2.450071057e-05
4.080728113e-05
4.730020299e-05
5.040690376e-05
4.663848145e-05
2.960132283e-05
4.120501332e-05
4.741457712e-05
5.066834951e-05
4.774290489e-05
3.275508769e-05
4.182504414e-05
4.755019779e-05
5.047885286e-05
4.767305915e-05
3.430950774e-05
4.254625809e-05
4.754623523e-05
4.985153887e-05
4.695283124e-05
3.522914475e-05
4.329603082e-05
4.753603619e-05
4.926723946e-05
4.642736373e-05
3.617675271e-05
4.420468218e-05
4.771880858e-05
4.899033536e-05
4.624075105e-05
3.702005825e-05
4.525644627e-05
4.813210397e-05
4.899603756e-05
4.622963637e-05
3.76190625e-05
4.635240809e-05
4.866190544e-05
4.911489378e-05
4.61956066e-05
3.7901853e-05
4.743877156e-05
4.918529155e-05
4.916543684e-05
4.595315994e-05
3.779521098e-05
4.842359455e-05
4.957930267e-05
4.900291345e-05
4.53792832e-05
3.72577012e-05
4.924123974e-05
4.977773594e-05
4.858193411e-05
4.447361626e-05
3.631601554e-05
4.992724366e-05
4.988383561e-05
4.794112292e-05
4.324640241e-05
3.495305688e-05
5.043643988e-05
4.963246591e-05
4.693065848e-05
4.158289129e-05
3.308384109e-05
5.053400898e-05
4.889008245e-05
4.539038948e-05
3.935268655e-05
3.066409158e-05
5.015580844e-05
4.762112196e-05
4.320642754e-05
3.647885866e-05
2.772898705e-05
4.902195367e-05
4.552950835e-05
4.019367384e-05
3.29350455e-05
2.43973599e-05
4.667462526e-05
4.228000475e-05
3.6209413e-05
2.878145706e-05
2.08216243e-05
4.285429526e-05
3.770345093e-05
3.130471639e-05
2.420518132e-05
1.716465862e-05
3.724999697e-05
3.184775209e-05
2.574211009e-05
1.947250523e-05
1.357340631e-05
3.011477011e-05
2.519760392e-05
1.998720129e-05
1.487643018e-05
1.0200226e-05
2.25212951e-05
1.862302053e-05
1.460333928e-05
1.0725453e-05
7.228972622e-06
1.574386722e-05
1.29328868e-05
1.003965367e-05
7.25488289e-06
4.793865396e-06
1.041033934e-05
8.475853857e-06
6.474564363e-06
4.567140244e-06
2.984795385e-06
6.504198069e-06
5.199550208e-06
3.864300991e-06
2.66585651e-06
1.777685504e-06
3.751545303e-06
2.907695384e-06
2.109517265e-06
1.477463556e-06
1.0151398e-06
1.909072272e-06
1.462660503e-06
1.084930159e-06
7.850694183e-07
5.562967048e-07
8.823831015e-07
6.996451658e-07
5.373387132e-07
4.01698123e-07
2.934963187e-07
4.013132858e-07
3.277214622e-07
2.593156349e-07
1.996342477e-07
1.500830487e-07
1.812082305e-07
1.515329849e-07
1.229446275e-07
9.710445689e-08
7.490064397e-08
8.154572268e-08
6.951255109e-08
5.759210398e-08
4.650318369e-08
3.669511237e-08
3.664691323e-08
3.173540387e-08
2.676169233e-08
2.202532814e-08
1.773347426e-08
1.646726923e-08
1.445039838e-08
1.237165419e-08
1.035380094e-08
8.488138189e-09
7.406575993e-09
6.574358172e-09
5.704296008e-09
4.846452532e-09
4.040254698e-09
3.339253284e-09
2.994939034e-09
2.63094563e-09
2.267795764e-09
1.922507155e-09
1.513006506e-09
1.370925997e-09
1.219698062e-09
1.06793539e-09
9.23201763e-10
6.928101344e-10
6.35273371e-10
5.741893408e-10
5.134166795e-10
4.56631791e-10
3.249400046e-10
3.033286021e-10
2.811260034e-10
2.603437326e-10
2.431368134e-10
1.613729057e-10
1.556568169e-10
1.510450684e-10
1.489013357e-10
1.50883263e-10
9.124081911e-11
9.333985902e-11
9.773504292e-11
1.056620871e-10
1.187560735e-10
6.531596862e-11
7.225381768e-11
8.259032936e-11
9.76915782e-11
1.194308936e-10
6.227658787e-11
7.339018168e-11
8.917093995e-11
1.112835909e-10
1.420323688e-10
7.385332255e-11
8.974816009e-11
1.119691321e-10
1.426455966e-10
1.847245231e-10
9.837372335e-11
1.206069824e-10
1.514551966e-10
1.937123405e-10
2.512316867e-10
1.384037877e-10
1.695941201e-10
2.126498632e-10
2.713052358e-10
3.506870242e-10
2.006922505e-10
2.450000039e-10
3.059089725e-10
3.885054542e-10
4.997412731e-10
2.986886879e-10
3.629545689e-10
4.509841554e-10
5.699069309e-10
7.294636508e-10
4.607092675e-10
5.564822136e-10
6.857905284e-10
8.571522677e-10
1.081530146e-09
7.226097887e-10
8.588800394e-10
1.041170752e-09
1.280535789e-09
1.591144456e-09
1.120451396e-09
1.314629351e-09
1.571895641e-09
1.90591676e-09
2.333812257e-09
1.733976937e-09
2.00774787e-09
2.366609276e-09
2.826790669e-09
3.408146264e-09
2.668747671e-09
3.047607357e-09
3.538739339e-09
4.160524989e-09
4.934905302e-09
4.069016913e-09
4.581350585e-09
5.23822077e-09
6.05934273e-09
7.067654851e-09
6.102216999e-09
6.775311974e-09
7.629254485e-09
8.683886723e-09
9.961681131e-09
8.977111251e-09
9.835346948e-09
1.091348539e-08
1.222999598e-08
1.380517377e-08
1.276671655e-08
1.381976236e-08
1.513116616e-08
1.671658879e-08
1.859262786e-08
1.69339252e-08
1.816224037e-08
1.968157705e-08
2.150407901e-08
2.364201296e-08
6.114686752e-09
9.119768098e-10
1.839152311e-10
7.246553006e-11
4.604449889e-11
3.297347157e-11
2.358950488e-11
1.658836815e-11
1.147325614e-11
7.857274199e-12
5.349284155e-12
3.630993039e-12
2.461510095e-12
1.66877038e-12
1.133339604e-12
7.727527596e-13
5.305454673e-13
3.679748049e-13
2.586987144e-13
1.849102826e-13
1.347121954e-13
1.002120763e-13
7.619512084e-14
5.92072344e-14
4.694594026e-14
3.785991966e-14
3.090124547e-14
2.537518074e-14
2.084045127e-14
1.703433509e-14
1.381131647e-14
1.109232469e-14
8.826885358e-15
6.96971409e-15
5.470131071e-15
4.271528461e-15
3.316794676e-15
2.555034729e-15
1.945901712e-15
1.460083151e-15
1.07672502e-15
7.798428487e-16
5.55485411e-16
3.903975918e-16
2.719609226e-16
1.887625133e-16
1.311837393e-16
9.165381946e-17
6.455607323e-17
4.590484707e-17
3.295548075e-17
2.385016675e-17
1.733668946e-17
1.256747176e-17
8.964813964e-18
6.135324654e-18
3.82074858e-18
1.936338581e-18
5.678805793e-19
5.651468662e-20
1.156914857e-07
1.416535518e-08
2.535405865e-09
1.073284894e-09
6.96990111e-10
4.925868018e-10
3.391928282e-10
2.293803528e-10
1.507849014e-10
9.762656168e-11
6.22192115e-11
3.933745653e-11
2.476699821e-11
1.561387994e-11
9.901505457e-12
6.343466658e-12
4.122534531e-12
2.727475742e-12
1.843070731e-12
1.275263087e-12
9.052504543e-13
6.600969204e-13
4.946952396e-13
3.807275035e-13
3.001939117e-13
2.41454096e-13
1.969319725e-13
1.61764422e-13
1.329563604e-13
1.087716952e-13
8.827859199e-14
7.098508349e-14
5.657644056e-14
4.476588488e-14
3.522880539e-14
2.76002037e-14
2.151140417e-14
1.663573212e-14
1.271772143e-14
9.575723145e-15
7.083375109e-15
5.144544607e-15
3.673997988e-15
2.588709877e-15
1.808091287e-15
1.258397743e-15
8.770092063e-16
6.144710165e-16
4.339867792e-16
3.093846312e-16
2.226203517e-16
1.614510437e-16
1.175875347e-16
8.539189066e-17
6.101056879e-17
4.183520235e-17
2.620353008e-17
1.357135658e-17
4.456290913e-18
6.177967005e-19
2.605503602e-07
3.543267397e-08
8.665753587e-09
5.045127589e-09
3.614323452e-09
2.66222404e-09
1.894100298e-09
1.321064697e-09
8.91919007e-10
5.902103338e-10
3.807138795e-10
2.413365954e-10
1.504512378e-10
9.28356957e-11
5.697559447e-11
3.502688604e-11
2.172676654e-11
1.369624575e-11
8.833191406e-12
5.857688796e-12
4.008349648e-12
2.835853978e-12
2.075807682e-12
1.570273519e-12
1.223496832e-12
9.764102451e-13
7.923067634e-13
6.486131983e-13
5.31934645e-13
4.346909724e-13
3.527998811e-13
2.840527404e-13
2.27003625e-13
1.803564466e-13
1.427102515e-13
1.125437426e-13
8.835489062e-14
6.884009229e-14
5.300822664e-14
4.018024341e-14
2.990273625e-14
2.183607432e-14
1.567089746e-14
1.109161639e-14
7.779979164e-15
5.436986377e-15
3.80440135e-15
2.67590259e-15
1.896919205e-15
1.356992075e-15
9.796212322e-16
7.126186614e-16
5.204825718e-16
3.789464327e-16
2.713618736e-16
1.865239552e-16
1.175341418e-16
6.179455998e-17
2.146783569e-17
3.456866024e-18
4.433106123e-07
1.125751311e-07
2.860915282e-08
1.597602034e-08
1.181351474e-08
8.990342969e-09
6.679853137e-09
4.832535083e-09
3.398441949e-09
2.33326263e-09
1.562151235e-09
1.023552375e-09
6.565380416e-10
4.138968425e-10
2.570590268e-10
1.581604924e-10
9.692834917e-11
5.964996604e-11
3.716891274e-11
2.366386901e-11
1.551452145e-11
1.053858665e-11
7.442673513e-12
5.466756867e-12
4.162608811e-12
3.26393263e-12
2.612807105e-12
2.11634754e-12
1.721261588e-12
1.397907851e-12
1.130088104e-12
9.085260636e-13
7.269319084e-13
5.798637712e-13
4.618846896e-13
3.674682371e-13
2.914326798e-13
2.294873487e-13
1.785495259e-13
1.366602836e-13
1.026160627e-13
7.554646312e-14
5.462244786e-14
3.892735252e-14
2.747942403e-14
1.931785451e-14
1.359086038e-14
9.606217505e-15
6.839175309e-15
4.911425138e-15
3.558422794e-15
2.597668513e-15
1.903807276e-15
1.390665676e-15
9.989226197e-16
6.88954457e-16
4.371584552e-16
2.334076393e-16
8.490820527e-17
1.574925422e-17
7.752747997e-07
2.835481051e-07
7.438135037e-08
3.551828662e-08
2.624142875e-08
2.07713891e-08
1.623946952e-08
1.236187863e-08
9.171060468e-09
6.645056785e-09
4.704371223e-09
3.25841909e-09
2.208018632e-09
1.466244897e-09
9.545396097e-10
6.109560842e-10
3.853143184e-10
2.407209559e-10
1.497904896e-10
9.366881672e-11
5.941284537e-11
3.865021024e-11
2.602406308e-11
1.824989662e-11
1.333705288e-11
1.010711307e-11
7.871974102e-12
6.238600663e-12
4.987017982e-12
3.995902145e-12
3.197920785e-12
2.553449939e-12
2.035932934e-12
1.624093904e-12
1.298463827e-12
1.040485357e-12
8.334059744e-13
6.638517991e-13
5.227209869e-13
4.047526831e-13
3.072080603e-13
2.283897247e-13
1.66595929e-13
1.196879143e-13
8.512750533e-14
6.026760158e-14
4.267425216e-14
3.033082918e-14
2.169265363e-14
1.563449388e-14
1.136080824e-14
8.315588753e-15
6.111167049e-15
4.477460028e-15
3.227296528e-15
2.236012759e-15
1.430448279e-15
7.771384121e-16
2.958195343e-16
6.430404146e-17
6.045153964e-07
4.432518796e-07
1.556688959e-07
6.557454166e-08
4.574310477e-08
3.686490263e-08
3.005640911e-08
2.404458929e-08
1.883063499e-08
1.445035835e-08
1.087121119e-08
8.019769306e-09
5.800686113e-09
4.114561024e-09
2.861114463e-09
1.951276739e-09
1.305636051e-09
8.586111905e-10
5.559767389e-10
3.561904796e-10
2.270924644e-10
1.454777509e-10
9.460810024e-11
6.320312025e-11
4.374075965e-11
3.146989092e-11
2.344321783e-11
1.792714537e-11
1.393316051e-11
1.091848191e-11
8.584667248e-12
6.759933633e-12
5.334170804e-12
4.226622328e-12
3.370575683e-12
2.706413576e-12
2.181591081e-12
1.754696169e-12
1.398069984e-12
1.096253618e-12
8.422137184e-13
6.329582338e-13
4.659533545e-13
3.373082501e-13
2.415066297e-13
1.720609375e-13
1.225865918e-13
8.763453781e-14
6.29920741e-14
4.558332533e-14
3.322403216e-14
2.437589555e-14
1.795316528e-14
1.31879712e-14
9.542297716e-15
6.6537416e-15
4.305143654e-15
2.393128338e-15
9.60217468e-16
2.475781705e-16
2.371922273e-07
4.89990507e-07
2.555704035e-07
1.140319977e-07
7.032492616e-08
5.519933057e-08
4.583386413e-08
3.795566972e-08
3.097701583e-08
2.487229999e-08
1.964934711e-08
1.527950698e-08
1.16972788e-08
8.816194944e-09
6.540564337e-09
4.774171229e-09
3.426041493e-09
2.415658251e-09
1.672671452e-09
1.138404504e-09
7.628569524e-10
5.053881687e-10
3.328876635e-10
2.199283894e-10
1.472160793e-10
1.0091847e-10
7.129354517e-11
5.193858702e-11
3.881001482e-11
2.950980527e-11
2.266416075e-11
1.750397341e-11
1.357972325e-11
1.05989373e-11
8.346261629e-12
6.646075878e-12
5.343744006e-12
4.312051135e-12
3.463649294e-12
2.747185754e-12
2.137837819e-12
1.626950569e-12
1.210578232e-12
8.833004792e-13
6.358081806e-13
4.547646488e-13
3.251657471e-13
2.333192558e-13
1.683483324e-13
1.222638286e-13
8.939880984e-14
6.577059516e-14
4.856551819e-14
3.578399333e-14
2.601658466e-14
1.830057844e-14
1.203025039e-14
6.894521786e-15
2.953463792e-15
9.044700948e-16
1.77210733e-07
4.317934338e-07
3.700168211e-07
1.900481082e-07
1.056756212e-07
7.63789429e-08
6.235663115e-08
5.241799136e-08
4.390399444e-08
3.635106755e-08
2.970172684e-08
2.394683011e-08
1.905699774e-08
1.497477027e-08
1.162196876e-08
8.909481347e-09
6.745500244e-09
5.042619718e-09
3.719631206e-09
2.704967849e-09
1.937683123e-09
1.366834668e-09
9.499725893e-10
6.523045073e-10
4.448199983e-10
3.035610877e-10
2.091016214e-10
1.465524079e-10
1.04997507e-10
7.692500775e-11
5.739812459e-11
4.338289684e-11
3.30738996e-11
2.539473909e-11
1.965647169e-11
1.538146179e-11
1.219286765e-11
9.76002775e-12
7.830938781e-12
6.246136194e-12
4.914865673e-12
3.792095747e-12
2.86011326e-12
2.10974444e-12
1.529230577e-12
1.097673822e-12
7.860141931e-13
5.643405458e-13
4.074478161e-13
2.962269e-13
2.169445968e-13
1.599402575e-13
1.184177098e-13
8.757456215e-14
6.403667005e-14
4.548842847e-14
3.042136674e-14
1.798692551e-14
8.216882916e-15
2.916496326e-15
4.038319347e-07
3.364288048e-07
4.702230714e-07
3.030384056e-07
1.60403659e-07
1.02906817e-07
8.039617929e-08
6.734070378e-08
5.724407348e-08
4.843714e-08
4.05785946e-08
3.36151781e-08
2.753454357e-08
2.230857904e-08
1.788500576e-08
1.419267793e-08
1.114975992e-08
8.671413952e-09
6.675114463e-09
5.083916567e-09
3.828740827e-09
2.849467923e-09
2.094860774e-09
1.520775423e-09
1.090450423e-09
7.736379959e-10
5.44763874e-10
3.827858065e-10
2.702583218e-10
1.93010507e-10
1.399944708e-10
1.032067162e-10
7.718702063e-11
5.840233975e-11
4.460503543e-11
3.436101646e-11
2.673388221e-11
2.102906725e-11
1.666330925e-11
1.321459602e-11
1.042075102e-11
8.123785243e-12
6.223804677e-12
4.665398397e-12
3.421520362e-12
2.471948967e-12
1.7745428e-12
1.273637056e-12
9.177745435e-13
6.658097005e-13
4.869819868e-13
3.590770558e-13
2.663524045e-13
1.977451282e-13
1.455698952e-13
1.045537155e-13
7.121706131e-14
4.347400162e-14
2.115215006e-14
8.497809053e-15
7.802431769e-07
2.238838376e-07
4.798003918e-07
3.984831357e-07
2.3775662e-07
1.395369049e-07
1.015343251e-07
8.365386379e-08
7.152103833e-08
6.143759286e-08
5.24573894e-08
4.438425271e-08
3.718847516e-08
3.085911172e-08
2.536820818e-08
2.066660345e-08
1.668901397e-08
1.336088251e-08
1.060431804e-08
8.342800611e-09
6.503054917e-09
5.021450472e-09
3.838487373e-09
2.903030709e-09
2.171240746e-09
1.605943708e-09
1.175659818e-09
8.532133517e-10
6.154366475e-10
4.429424121e-10
3.196016223e-10
2.323497117e-10
1.70885361e-10
1.273863973e-10
9.620158883e-11
7.344320015e-11
5.653263378e-11
4.382943151e-11
3.419622969e-11
2.677894783e-11
2.094733447e-11
1.629962175e-11
1.257594439e-11
9.578794869e-12
7.159358428e-12
5.243673947e-12
3.789166552e-12
2.723731556e-12
1.959166015e-12
1.415922793e-12
1.031317423e-12
7.58225932e-13
5.621544291e-13
4.184654093e-13
3.100663591e-13
2.253146821e-13
1.564314394e-13
9.863250912e-14
5.100846129e-14
2.26711028e-14
1.204242465e-06
2.146498925e-07
3.602509973e-07
4.221407741e-07
3.063057392e-07
1.883957855e-07
1.28353147e-07
1.023401183e-07
8.727509358e-08
7.573829613e-08
6.564137554e-08
5.649528013e-08
4.821375734e-08
4.078879697e-08
3.421222026e-08
2.845792913e-08
2.348129321e-08
1.922061762e-08
1.56152328e-08
1.259039338e-08
1.007144848e-08
7.989292579e-09
6.281081802e-09
4.890917797e-09
3.769709372e-09
2.874699432e-09
2.168784625e-09
1.619610514e-09
1.198661768e-09
8.81026012e-10
6.45160713e-10
4.7248723e-10
3.474648522e-10
2.576056953e-10
1.931500746e-10
1.466407679e-10
1.125536965e-10
8.702619727e-11
6.754348438e-11
5.249099136e-11
4.077097038e-11
3.15574191e-11
2.428084789e-11
1.854807636e-11
1.404005492e-11
1.048155949e-11
7.695395179e-12
5.573625507e-12
4.011305305e-12
2.889020549e-12
2.09332946e-12
1.530990858e-12
1.131147171e-12
8.41950006e-13
6.267496708e-13
4.603296425e-13
3.257184749e-13
2.120727197e-13
1.162409504e-13
5.600529049e-14
1.668177016e-06
2.779740417e-07
2.206103921e-07
3.844758573e-07
3.455307687e-07
2.459728935e-07
1.656708484e-07
1.254737282e-07
1.048292264e-07
9.099347282e-08
7.964757453e-08
6.947473364e-08
6.018396594e-08
5.17242959e-08
4.408646145e-08
3.729138579e-08
3.131843296e-08
2.611486167e-08
2.162235004e-08
1.777686198e-08
1.450801294e-08
1.174811552e-08
9.434263981e-09
7.508711528e-09
5.919145363e-09
4.618738626e-09
3.565885144e-09
2.723606847e-09
2.058881347e-09
1.542113141e-09
1.146798504e-09
8.493282774e-10
6.28879933e-10
4.67597032e-10
3.506247702e-10
2.65996152e-10
2.043461802e-10
1.586625755e-10
1.239993125e-10
9.704895184e-11
7.57580862e-11
5.883567309e-11
4.537197389e-11
3.470480879e-11
2.633224865e-11
1.982082901e-11
1.477311628e-11
1.087557378e-11
7.905888066e-12
5.702374949e-12
4.113468761e-12
2.988995609e-12
2.195627966e-12
1.629296902e-12
1.214709264e-12
8.995216539e-13
6.478255346e-13
4.353174923e-13
2.521450661e-13
1.294628972e-13
3.186749677e-06
5.285347834e-07
1.731295255e-07
3.409814261e-07
3.702207778e-07
2.972962151e-07
2.14032248e-07
1.556729513e-07
1.246712645e-07
1.061046867e-07
9.259502856e-08
8.12196818e-08
7.095698408e-08
6.167121213e-08
5.312027792e-08
4.560009118e-08
3.888478419e-08
3.293641182e-08
2.770879339e-08
2.315068647e-08
1.920557866e-08
1.581527085e-08
1.292182214e-08
1.046945431e-08
8.406047515e-09
6.683831663e-09
5.259585587e-09
4.094282489e-09
3.152599665e-09
2.40238305e-09
1.81412324e-09
1.360598237e-09
1.016849579e-09
7.604791955e-10
5.718923861e-10
4.343990481e-10
3.34297151e-10
2.607670551e-10
2.056670153e-10
1.632566419e-10
1.296570999e-10
1.024609931e-10
8.024331936e-11
6.211148256e-11
4.751901657e-11
3.597447364e-11
2.697650045e-11
2.006032526e-11
1.478636604e-11
1.0792826e-11
7.821427631e-12
5.66562675e-12
4.133809294e-12
3.049718159e-12
2.269871173e-12
1.689522731e-12
1.235767787e-12
8.56687952e-13
5.232779117e-13
2.826714806e-13
5.070334681e-06
9.165128879e-07
2.046927815e-07
2.710151875e-07
3.706834194e-07
3.345789691e-07
2.600535606e-07
1.928446826e-07
1.465454004e-07
1.187573502e-07
1.00526448e-07
8.697690085e-08
7.589402986e-08
6.633669306e-08
5.757634006e-08
4.995527206e-08
4.308939589e-08
3.695183268e-08
3.149719325e-08
2.667936349e-08
2.245183099e-08
1.876715152e-08
1.557726067e-08
1.283377919e-08
1.048919731e-08
8.498042916e-09
6.818459877e-09
5.41336714e-09
4.25032561e-09
3.300253413e-09
2.535822329e-09
1.931195784e-09
1.461900922e-09
1.104435656e-09
8.367615823e-10
6.390038929e-10
4.939638497e-10
3.874518602e-10
3.08273045e-10
2.480151751e-10
2.006959252e-10
1.622764437e-10
1.302897847e-10
1.033456486e-10
8.074349067e-11
6.211286065e-11
4.709747268e-11
3.527666518e-11
2.618183709e-11
1.929254165e-11
1.412942e-11
1.030379333e-11
7.519893256e-12
5.526648692e-12
4.100946566e-12
3.059711725e-12
2.265491949e-12
1.616428894e-12
1.039490781e-12
5.872419547e-13
6.779079058e-06
1.353082652e-06
2.819659413e-07
1.886541947e-07
3.279243655e-07
3.441070823e-07
2.899750663e-07
2.25699018e-07
1.701840811e-07
1.275013697e-07
9.96327133e-08
8.208217742e-08
6.995883328e-08
6.08184845e-08
5.311997359e-08
4.640257731e-08
4.043010338e-08
3.508932073e-08
3.031118402e-08
2.604684356e-08
2.225661669e-08
1.890451905e-08
1.595599875e-08
1.337719508e-08
1.113463978e-08
9.1959963e-09
7.530454298e-09
6.108929303e-09
4.90475124e-09
3.895084468e-09
3.060363249e-09
2.381101557e-09
1.837793143e-09
1.412060722e-09
1.085359131e-09
8.389351245e-10