/*--------------------------------*- C++ -*----------------------------------*\
  =========                 |
  \\      /  F ield         | OpenFOAM: The Open Source CFD Toolbox
   \\    /   O peration     | Website:  https://openfoam.org
    \\  /    A nd           | Version:  10
     \\/     M anipulation  |
\*---------------------------------------------------------------------------*/
FoamFile
{
    format      ascii;
    class       volScalarField;
    location    "3000";
    object      CH4;
}
// * * * * * * * * * * * * * * * * * * * * * * * * * * * * * * * * * * * * * //

dimensions      [0 0 0 0 0 0 0];

internalField   nonuniform List<scalar> 
5170
(
0.1561
0.1561
0.1561
0.1561
0.1561
0.1561
0.1561
0.1561
0.1561
0.1561
0.1561
0.1561
0.1561
0.1561
0.1561
0.1561
0.1561
0.1561
0.1561
0.1561
0.1561
0.1561
0.1561
0.1561
0.1561
0.1561
0.1561
0.1561
0.1561
0.1561
0.1561
0.1561
0.1561
0.1561
0.1561
0.1561
0.1561
0.1561
0.1561
0.1561
0.1561
0.1561
0.1561
0.1561
0.1561
0.1561
0.1561
0.1561
0.1561
0.1561
0.1561
0.1561
0.1561
0.1561
0.1561
0.1561
0.1561
0.1561
0.1561
0.1561
0.1561
0.1561
0.1561
0.1561
0.1561
0.1561
0.1561
0.1561
0.1561
0.1561
0.1561
0.1561
0.1561
0.1561
0.1561
0.1561
0.1561
0.1561
0.1561
0.1561
0.1561
0.1561
0.1561
0.1561
0.1561
0.1561
0.1561
0.1561
0.1561
0.1561
0.1561
0.1560999999
0.1560999991
0.1560999933
0.1560999722
0.1560999895
0.1560999414
0.1560995431
0.1560967426
0.1560839901
7.595038439e-21
2.885245943e-21
1.75986253e-21
3.186249001e-21
8.065743846e-21
3.124107822e-21
2.427296634e-21
1.831676116e-21
2.907506261e-21
3.338391656e-21
1.511567082e-21
1.41566323e-21
1.228651112e-21
1.620404024e-21
1.633790909e-21
8.685083502e-22
8.788390738e-22
8.181769502e-22
9.30153996e-22
9.385956818e-22
6.007583201e-22
5.719876432e-22
5.561203025e-22
6.245616009e-22
6.23317082e-22
4.602965816e-22
4.382295904e-22
4.16568077e-22
4.842200771e-22
4.409096458e-22
3.642972416e-22
3.673650158e-22
3.642322457e-22
3.915471704e-22
3.10599503e-22
2.856886536e-22
3.181740423e-22
3.226178575e-22
3.299149758e-22
2.280176942e-22
2.188055569e-22
2.638217845e-22
2.818355844e-22
2.690286378e-22
1.78898307e-22
1.861079974e-22
2.225389724e-22
2.441890676e-22
2.278978673e-22
1.607070658e-22
1.649674908e-22
1.916699115e-22
2.093659667e-22
2.105112126e-22
1.421140548e-22
7.900704904e-22
3.312239203e-22
2.008954076e-22
1.872928288e-22
1.269125096e-22
1.148720105e-19
2.767631954e-20
4.794216689e-21
6.590300541e-22
2.500760804e-22
1.931612663e-17
4.556486245e-18
7.501855932e-19
8.244701509e-20
1.836610308e-20
3.285455332e-15
7.554946852e-16
1.191578303e-16
1.262563504e-17
2.568913448e-18
5.647644389e-13
1.247633001e-13
1.860359128e-14
1.880963875e-15
3.469541059e-16
9.848189443e-11
2.039301784e-11
2.801649989e-12
2.66340712e-13
4.394271606e-14
1.746090941e-08
3.241726144e-09
3.966505891e-10
3.48400723e-11
5.140265807e-12
3.222891623e-06
4.887372859e-07
5.060629557e-08
4.031608503e-09
5.266049765e-10
0.0006452879194
6.515293213e-05
5.316754303e-06
3.756387253e-07
4.201247659e-08
0.1560996069
0.1560969575
0.1560532087
0.1553961753
0.1466569175
0.1560978536
0.1560855734
0.1559246082
0.1542433302
0.1419649565
0.1560929118
0.156057783
0.1556782226
0.1527114151
0.1387715458
0.1560811809
0.1559985821
0.1552479321
0.1507722327
0.1362050167
0.1560568379
0.1558880237
0.1545983249
0.1486377977
0.1339382364
0.1560097386
0.1556966288
0.1536769401
0.1462814675
0.1315878051
0.1559177784
0.1553519897
0.152306363
0.1435920205
0.129119423
0.1557427149
0.1547506663
0.150454552
0.1407965755
0.1266916968
0.1554256354
0.153800984
0.1482585638
0.1381216026
0.1244519926
0.1548861609
0.1524541035
0.1458707275
0.1355762647
0.1223598445
0.1539808845
0.1507161901
0.1434491566
0.1331576785
0.1203962225
0.1526496267
0.1487128533
0.1410571986
0.1308467216
0.1185388437
0.1508342061
0.1464562717
0.1386344214
0.1285863626
0.1167394204
0.1484232193
0.1438748009
0.1360780879
0.1262824457
0.1149131413
0.1452539935
0.1408398875
0.133270634
0.1238362796
0.1129872302
0.1412316318
0.1371946311
0.1300646477
0.121111244
0.1108267253
0.1363368694
0.1328004144
0.1262757971
0.1179142193
0.1082365867
0.1307180428
0.1276778668
0.1218209326
0.1141158892
0.1050927601
0.1245276657
0.1219265225
0.1167391033
0.109735119
0.1014064821
0.1179940937
0.1157588602
0.1111918541
0.1048869798
0.09727043809
0.1113230629
0.109394812
0.1053856175
0.09974942875
0.09284009564
0.1047051276
0.1030319594
0.09951181127
0.09449449299
0.08826484306
0.09824170182
0.09678651742
0.0936975165
0.08924370362
0.08365148977
0.09197485792
0.09070448098
0.08798798388
0.08403581988
0.07902252818
0.08587997011
0.08476106655
0.08235739814
0.07883624548
0.07433465639
0.0798642711
0.078870605
0.07672952179
0.07357554111
0.0695151308
0.07382403689
0.07293460821
0.07101159345
0.06816623091
0.06448190732
0.06768599505
0.06688320758
0.06514397038
0.06256033854
0.05919797641
0.06142460755
0.06069468932
0.0591091921
0.05674672859
0.05366286227
0.05504654438
0.0543778318
0.05292396822
0.05075303772
0.04791202659
0.04855749807
0.04794182714
0.04660173409
0.04459866523
0.04197552285
0.04191625438
0.04134698313
0.04010805377
0.03825670481
0.03583280423
0.03500339635
0.03447812913
0.03333664762
0.03163839914
0.02942594552
0.02771078744
0.027240891
0.02622467118
0.02472246545
0.02279216428
0.02025728351
0.01987516467
0.01905291316
0.01785143647
0.01633328555
0.01359107716
0.01331943333
0.01273802996
0.01189627477
0.0108426847
0.008542829149
0.00836793799
0.007993887758
0.007452904487
0.006777143721
0.005100909488
0.004992276239
0.00475987498
0.004423695765
0.004004063645
0.002847586447
0.002781512446
0.002640510042
0.002437580376
0.00218657755
0.001413915516
0.001377428415
0.001300374873
0.001191706262
0.001061441653
0.0006102980594
0.0005956641059
0.0005651078948
0.0005226792566
0.0004723825167
0.0002587187419
0.0002535705123
0.0002426969086
0.0002272991105
0.0002085803056
0.0001109947904
0.0001090965327
0.0001050587353
9.92706592e-05
9.212060516e-05
4.803936392e-05
4.731589605e-05
4.57702364e-05
4.353695901e-05
4.074825282e-05
2.092875748e-05
2.064667054e-05
2.004217788e-05
1.916385465e-05
1.805848399e-05
9.165034863e-06
9.053221436e-06
8.813077947e-06
8.462679225e-06
8.019063967e-06
4.031349982e-06
3.986490388e-06
3.889972737e-06
3.748664916e-06
3.568902293e-06
1.780963669e-06
1.762792135e-06
1.723636906e-06
1.666150037e-06
1.59272504e-06
7.905821199e-07
7.831615501e-07
7.671512138e-07
7.435878263e-07
7.133867865e-07
3.529755886e-07
3.499227267e-07
3.433283472e-07
3.336022744e-07
3.21098626e-07
1.587281892e-07
1.574641203e-07
1.547309061e-07
1.506922977e-07
1.454869851e-07
7.203871483e-08
7.151364752e-08
7.037749479e-08
6.869653884e-08
6.652615419e-08
3.311990738e-08
3.290373961e-08
3.243598579e-08
3.174395876e-08
3.085064572e-08
1.555913544e-08
1.547464371e-08
1.529224374e-08
1.502355689e-08
1.467904828e-08
7.638620757e-09
7.612674164e-09
7.557448551e-09
7.478222912e-09
7.380805075e-09
4.138888031e-09
4.141760582e-09
4.149415239e-09
4.164600319e-09
4.191697134e-09
2.734535196e-09
2.755122924e-09
2.801718345e-09
2.876129249e-09
2.98277147e-09
2.40756885e-09
2.443371414e-09
2.523675311e-09
2.65004455e-09
2.827763545e-09
2.755279175e-09
2.808727218e-09
2.92830334e-09
3.115670287e-09
3.377686388e-09
3.715449844e-09
3.79370455e-09
3.968617443e-09
4.242269171e-09
4.624163851e-09
5.518852836e-09
5.630805595e-09
5.880499674e-09
6.269643691e-09
6.809753257e-09
8.32987227e-09
8.489235744e-09
8.844238362e-09
9.396316823e-09
1.016029837e-08
1.277356066e-08
1.299994242e-08
1.350350811e-08
1.428461962e-08
1.536166005e-08
1.972540997e-08
2.00434676e-08
2.074989715e-08
2.184278942e-08
2.334417967e-08
3.038938377e-08
3.082862549e-08
3.180273015e-08
3.330572755e-08
3.536287555e-08
4.643621895e-08
4.703053332e-08
4.834659559e-08
5.037199076e-08
5.313422824e-08
6.983955596e-08
7.062351037e-08
7.235707652e-08
7.501856723e-08
7.863620357e-08
1.031336274e-07
1.041420937e-07
1.063692585e-07
1.097810019e-07
1.14404248e-07
1.473477421e-07
1.486017458e-07
1.51367963e-07
1.555972797e-07
1.613132354e-07
1.963745298e-07
1.978606537e-07
2.011361823e-07
2.061369418e-07
2.128819343e-07
0.1218847157
0.1214935395
0.1214645281
0.1209663632
0.1199743184
0.1185212076
0.1168389882
0.1151659822
0.1136015258
0.1121038655
0.1106749604
0.1093075528
0.1079675223
0.1065769592
0.1050825631
0.1033473756
0.1011826698
0.09848002057
0.09525394899
0.09158866303
0.08763193317
0.08352091377
0.07935047356
0.07512948083
0.07080924333
0.06631089389
0.06155578591
0.05651490941
0.05119410551
0.04563229098
0.03986948383
0.03389170658
0.02767014973
0.02128809651
0.0151746753
0.01004692247
0.006267521164
0.003688254012
0.002000540033
0.0009689616675
0.0004365754179
0.0001948750013
8.678690881e-05
3.864052679e-05
1.721487394e-05
7.677936102e-06
3.429821052e-06
1.535624154e-06
6.897955794e-07
3.112936845e-07
1.413918889e-07
6.481502452e-08
3.014681138e-08
1.441027931e-08
7.309486903e-09
4.221367781e-09
3.078496881e-09
2.983876488e-09
3.60630397e-09
4.956571023e-09
7.276560308e-09
1.081811981e-08
1.628482704e-08
2.462507051e-08
3.710970179e-08
5.546918706e-08
8.168139117e-08
1.182809256e-07
1.660902477e-07
2.185046415e-07
0.07236521359
0.006924181403
0.0004352673777
2.599365101e-05
2.042845833e-06
0.08493852511
0.03040976204
0.002501502358
0.0001626850246
1.456119234e-05
0.09097000195
0.04545161281
0.004208680518
0.0003103654565
3.250736377e-05
0.09414591688
0.0523720854
0.006205572022
0.0004700800093
3.671828021e-05
0.09559365335
0.0568474377
0.01428182738
0.001159633471
8.258796358e-05
0.09606465362
0.06049885716
0.02299201829
0.002400721224
0.0002076328002
0.09621069557
0.06359309439
0.0291264491
0.003813224713
0.0004248860396
0.09619260689
0.06614288128
0.03411396212
0.005434336011
0.0007231942087
0.09602700169
0.06814717399
0.03842686012
0.009958410216
0.001526511112
0.09570685375
0.06972591899
0.04214766198
0.01526559944
0.0027329393
0.09530717759
0.07100445229
0.04519980068
0.01958263187
0.003976213039
0.0948448248
0.0720261104
0.04785032696
0.02352729672
0.00532355685
0.09432136042
0.07286182216
0.0502325526
0.02735799088
0.007935807735
0.09368535169
0.07346729668
0.05221818708
0.03068336885
0.01142712461
0.09290932308
0.07383374667
0.05378238939
0.03335861033
0.01452040776
0.09185113513
0.07381850021
0.05483757359
0.0354066294
0.01708091677
0.09035921623
0.07332274305
0.05536319418
0.03692287215
0.01923527417
0.08835970939
0.07232527424
0.05538171131
0.0379632631
0.02106117602
0.08586385531
0.07083332325
0.05491359241
0.03851265257
0.02245649375
0.0829420249
0.06892086193
0.05401279372
0.03860222713
0.02340956625
0.07972518402
0.06670613427
0.05278528109
0.03833225724
0.02400596159
0.07633144163
0.06429999225
0.0513437653
0.03781753602
0.02432315935
0.07283617397
0.06175502237
0.04972107558
0.03707623986
0.02438590147
0.06923124777
0.05903901405
0.04786991055
0.03606111098
0.0241629469
0.06546322155
0.05608670876
0.04572011584
0.03469914696
0.02356737214
0.06144789617
0.05280297799
0.04317759068
0.03289574495
0.02250937812
0.05711320896
0.0491283844
0.04017723114
0.03059241897
0.02095295949
0.05244150657
0.04505272873
0.03672406928
0.02781753621
0.01895747413
0.04744706186
0.0405997474
0.03286836932
0.02465286559
0.01663688586
0.04217467831
0.03583440544
0.02869914861
0.02122505226
0.01414389894
0.0366795507
0.03082778238
0.024321716
0.01767923569
0.01162660545
0.03095911944
0.02563374002
0.0198526255
0.01417000456
0.009213062863
0.02503065914
0.0203500935
0.01545687313
0.0108583822
0.007002560233
0.01904565597
0.01521188885
0.01137249412
0.007901378585
0.005071787553
0.01346175752
0.01062560666
0.007867990215
0.005429121061
0.003478626656
0.008876065113
0.006961071035
0.005119007979
0.003508518258
0.00225158086
0.005519041776
0.004295402141
0.0031270156
0.002128639061
0.00138652408
0.003225625568
0.002475858271
0.001780470844
0.001219644137
0.0008172197797
0.001730327144
0.001310825847
0.0009484934964
0.0006684552098
0.0004617671473
0.0008370209798
0.0006455964298
0.0004826645995
0.0003515837046
0.0002505257555
0.0003851930627
0.0003073861293
0.0002375256916
0.0001785618663
0.0001311181158
0.0001750206361
0.0001435979658
0.0001141545168
8.827467141e-05
6.66411476e-05
7.901091594e-05
6.629373071e-05
5.397322725e-05
4.277613894e-05
3.310452749e-05
3.555353398e-05
3.037920982e-05
2.523328176e-05
2.042724108e-05
1.615942101e-05
1.597506163e-05
1.385704199e-05
1.170623103e-05
9.651960392e-06
7.784603685e-06
7.175257297e-06
6.303365753e-06
5.402796125e-06
4.526439184e-06
3.713815165e-06
3.224431459e-06
2.863691804e-06
2.485759243e-06
2.112116795e-06
1.759659907e-06
1.451147377e-06
1.301192343e-06
1.142175935e-06
9.828024888e-07
8.302044787e-07
6.548394161e-07
5.92218345e-07
5.251137817e-07
4.570558059e-07
3.910382763e-07
2.96745412e-07
2.704778117e-07
2.420759841e-07
2.129785302e-07
1.844448562e-07
1.353088076e-07
1.24255349e-07
1.122191462e-07
9.979442032e-08
8.751918194e-08
6.227145858e-08
5.763208993e-08
5.256298108e-08
4.731805648e-08
4.213751076e-08
2.910109061e-08
2.719877273e-08
2.513322533e-08
2.302248593e-08
2.098621226e-08
1.401277238e-08
1.330713419e-08
1.25722398e-08
1.187387715e-08
1.128585466e-08
7.207120511e-09
7.055326619e-09
6.950002815e-09
6.939758753e-09
7.084992255e-09
4.270881713e-09
4.412801817e-09
4.655044231e-09
5.044919682e-09
5.645006183e-09
3.228310023e-09
3.573168482e-09
4.069535522e-09
4.772156745e-09
5.755257093e-09
3.226217145e-09
3.76605108e-09
4.518197286e-09
5.551552489e-09
6.96008431e-09
3.96026569e-09
4.740169569e-09
5.814210854e-09
7.272970198e-09
9.24021796e-09
5.470737356e-09
6.596777034e-09
8.127179327e-09
1.016577903e-08
1.285565152e-08
7.996479188e-09
9.555372173e-09
1.165681609e-08
1.444090013e-08
1.809113593e-08
1.183103862e-08
1.400904964e-08
1.692024337e-08
2.073883969e-08
2.568742355e-08
1.770372987e-08
2.072992707e-08
2.473497265e-08
2.992848574e-08
3.657284978e-08
2.659002862e-08
3.074511361e-08
3.618733878e-08
4.316074404e-08
5.196478272e-08
3.978434755e-08
4.539176964e-08
5.266057214e-08
6.186482199e-08
7.333444923e-08
5.903772976e-08
6.645777215e-08
7.598088487e-08
8.79033307e-08
1.025753491e-07
8.632756833e-08
9.591398535e-08
1.081042789e-07
1.232058438e-07
1.415760339e-07
1.241862681e-07
1.362862514e-07
1.515435047e-07
1.702632641e-07
1.927948756e-07
1.733578805e-07
1.881573254e-07
2.066829698e-07
2.292246003e-07
2.561093059e-07
2.270503187e-07
2.443715144e-07
2.659336828e-07
2.920034568e-07
3.228780987e-07
2.367167711e-07
3.09162883e-08
5.72657464e-09
2.095602423e-09
1.309681214e-09
9.467200617e-10
6.857158794e-10
4.860237311e-10
3.36442661e-10
2.287995539e-10
1.534036743e-10
1.016482956e-10
6.662614809e-11
4.32052265e-11
2.772595459e-11
1.761732653e-11
1.110040151e-11
6.951796893e-12
4.342573656e-12
2.718661985e-12
1.716384889e-12
1.101052762e-12
7.23755235e-13
4.914316179e-13
3.466797714e-13
2.544232227e-13
1.934228085e-13
1.510009035e-13
1.19762589e-13
9.55398349e-14
7.608002381e-14
6.019753852e-14
4.723878536e-14
3.677030606e-14
2.842159115e-14
2.183157078e-14
1.665453236e-14
1.258691292e-14
9.38744793e-15
6.878933472e-15
4.934117061e-15
3.456095867e-15
2.362561498e-15
1.577933401e-15
1.032297269e-15
6.63764211e-16
4.210430365e-16
2.643913753e-16
1.64835456e-16
1.022727901e-16
6.327172821e-17
3.909521116e-17
2.415388723e-17
1.490861131e-17
9.136013883e-18
5.453665323e-18
3.018203668e-18
1.383796091e-18
3.725577276e-19
3.469375386e-20
2.303869396e-06
2.808895115e-07
5.92281423e-08
2.908062913e-08
2.000007092e-08
1.449057177e-08
1.010262736e-08
6.86332669e-09
4.499166451e-09
2.883714131e-09
1.805483663e-09
1.112200872e-09
6.760980239e-10
4.073060505e-10
2.439294322e-10
1.45621989e-10
8.688742638e-11
5.195039047e-11
3.122879333e-11
1.894912786e-11
1.166727877e-11
7.338440499e-12
4.751969006e-12
3.191741431e-12
2.235326695e-12
1.633402408e-12
1.239058454e-12
9.664294914e-13
7.66309793e-13
6.113522853e-13
4.869705576e-13
3.85556926e-13
3.029044205e-13
2.362030826e-13
1.830415709e-13
1.410679999e-13
1.080370627e-13
8.199341181e-14
6.140551313e-14
4.5171297e-14
3.251493934e-14
2.284936674e-14
1.566906533e-14
1.049934058e-14
6.892998168e-15
4.449583247e-15
2.834725743e-15
1.788375213e-15
1.120378522e-15
6.984655296e-16
4.340478552e-16
2.692774303e-16
1.669365517e-16
1.033092017e-16
6.34068121e-17
3.78731406e-17
2.100495207e-17
9.762181011e-18
2.892775679e-18
3.615847297e-19
6.334942648e-06
8.239660463e-07
2.272838811e-07
1.443291128e-07
1.068000923e-07
7.99318219e-08
5.736309092e-08
4.01288908e-08
2.701736033e-08
1.771967763e-08
1.125278066e-08
6.969907603e-09
4.209052983e-09
2.490607972e-09
1.448685817e-09
8.327490829e-10
4.757756816e-10
2.718437544e-10
1.563559351e-10
9.109086444e-11
5.409576481e-11
3.297113697e-11
2.078395363e-11
1.365024016e-11
9.387875348e-12
6.763083117e-12
5.074912293e-12
3.926113293e-12
3.094651266e-12
2.459052281e-12
1.954593596e-12
1.547126653e-12
1.217427418e-12
9.526306049e-13
7.420520208e-13
5.756767679e-13
4.442302139e-13
3.398405957e-13
2.565225971e-13
1.901178904e-13
1.378018455e-13
9.746452692e-14
6.724739575e-14
4.533259298e-14
2.994560455e-14
1.945659665e-14
1.248175902e-14
7.93249863e-15
5.007099961e-15
3.144845438e-15
1.968125681e-15
1.228722559e-15
7.657259459e-16
4.756605169e-16
2.924877632e-16
1.746673225e-16
9.687253758e-17
4.517771385e-17
1.387837047e-17
1.941516563e-18
1.081095109e-05
2.5392244e-06
7.470274612e-07
4.616957123e-07
3.52151713e-07
2.718070481e-07
2.036036501e-07
1.478405308e-07
1.038816328e-07
7.091998014e-08
4.696423818e-08
3.02543876e-08
1.894721526e-08
1.156650063e-08
6.887393522e-09
4.014754435e-09
2.298258488e-09
1.299745479e-09
7.309774929e-10
4.123354222e-10
2.354532516e-10
1.374690019e-10
8.291119429e-11
5.216785221e-11
3.449059448e-11
2.400333699e-11
1.749850649e-11
1.322655691e-11
1.023939805e-11
8.028717461e-12
6.324323168e-12
4.980872252e-12
3.914936251e-12
3.071267985e-12
2.406623798e-12
1.883317006e-12
1.468616405e-12
1.136248718e-12
8.673849496e-13
6.49826838e-13
4.758492859e-13
3.398431298e-13
2.366929637e-13
1.610449092e-13
1.07382638e-13
7.044132251e-14
4.563455001e-14
2.929054138e-14
1.867006211e-14
1.183736064e-14
7.474436061e-15
4.704282752e-15
2.95164974e-15
1.842616182e-15
1.135802592e-15
6.780008639e-16
3.756122847e-16
1.753526883e-16
5.504344756e-17
8.457347789e-18
2.134101291e-05
6.442325658e-06
1.882920582e-06
1.017906469e-06
7.8071376e-07
6.27287376e-07
4.947793458e-07
3.785764383e-07
2.81314543e-07
2.034238783e-07
1.431712115e-07
9.816651314e-08
6.553346207e-08
4.263106208e-08
2.700508184e-08
1.668148445e-08
1.005100022e-08
5.924124253e-09
3.424186481e-09
1.952148071e-09
1.104902187e-09
6.272115552e-10
3.612778576e-10
2.141196821e-10
1.322940985e-10
8.599217008e-11
5.889654039e-11
4.223939555e-11
3.136879378e-11
2.383700399e-11
1.835618969e-11
1.423627238e-11
1.108801069e-11
8.668423772e-12
6.804416372e-12
5.358774217e-12
4.220300749e-12
3.304755707e-12
2.555603203e-12
1.93948763e-12
1.438022956e-12
1.039343522e-12
7.322928119e-13
5.040070579e-13
3.400363851e-13
2.257845449e-13
1.480944384e-13
9.622266172e-14
6.20511449e-14
3.976618146e-14
2.53513577e-14
1.608912911e-14
1.016429676e-14
6.376577227e-15
3.9402104e-15
2.351416334e-15
1.30072977e-15
6.07918238e-16
1.943201624e-16
3.318548021e-17
2.881395139e-05
1.123715699e-05
3.948599533e-06
1.848170442e-06
1.352122094e-06
1.109106441e-06
9.132956403e-07
7.352844141e-07
5.778457057e-07
4.437586811e-07
3.331742852e-07
2.445799652e-07
1.754804192e-07
1.230317648e-07
8.421375456e-08
5.625900003e-08
3.665380679e-08
2.329421247e-08
1.44358547e-08
8.739723554e-09
5.179138197e-09
3.019762079e-09
1.742950187e-09
1.006142765e-09
5.881763361e-10
3.535437964e-10
2.213194939e-10
1.453005587e-10
9.988726483e-11
7.134151688e-11
5.241145778e-11
3.927382492e-11
2.986010718e-11
2.2983759e-11
1.789885825e-11
1.408263399e-11
1.114615572e-11
8.810741269e-12
6.897732989e-12
5.306965025e-12
3.989697132e-12
2.921961907e-12
2.084190828e-12
1.451152832e-12
9.90421118e-13
6.657451868e-13
4.424389316e-13
2.91406465e-13
1.904462579e-13
1.235727122e-13
7.964072381e-14
5.10018534e-14
3.24471263e-14
2.045540929e-14
1.267550525e-14
7.573611471e-15
4.193540472e-15
1.971236912e-15
6.449311018e-16
1.236681948e-16
3.899494767e-05
1.440348648e-05
6.556170672e-06
3.127280422e-06
2.059956592e-06
1.656474611e-06
1.391245145e-06
1.160298863e-06
9.511595864e-07
7.654144544e-07
6.047963643e-07
4.694331175e-07
3.579704639e-07
2.681471812e-07
1.972278509e-07
1.423282576e-07
1.006418835e-07
6.96357216e-08
4.706942055e-08
3.105666817e-08
1.998812932e-08
1.255648511e-08
7.706922579e-09
4.637285355e-09
2.749656425e-09
1.621773398e-09
9.624511739e-10
5.82626242e-10
3.641619283e-10
2.368135283e-10
1.603350236e-10
1.125181878e-10
8.134895082e-11
6.029915319e-11
4.569897711e-11
3.533981184e-11
2.775586074e-11
2.195102803e-11
1.730532421e-11
1.346858602e-11
1.02675028e-11
7.630339785e-12
5.518034144e-12
3.888226006e-12
2.681477883e-12
1.820659333e-12
1.223080348e-12
8.151891937e-13
5.395446616e-13
3.545753439e-13
2.312733561e-13
1.496662699e-13
9.602275924e-14
6.091119751e-14
3.791227364e-14
2.274604418e-14
1.2670645e-14
6.039646153e-15
2.048117613e-15
4.434943701e-16
7.021231057e-05
1.797328977e-05
9.473555867e-06
4.937599955e-06
3.003668484e-06
2.274037466e-06
1.890067621e-06
1.603286847e-06
1.350372914e-06
1.121878593e-06
9.182139575e-07
7.404137242e-07
5.884379455e-07
4.610796419e-07
3.562742498e-07
2.714612354e-07
2.038863827e-07
1.508593045e-07
1.098382837e-07
7.855908122e-08
5.508063899e-08
3.777424758e-08
2.528292348e-08
1.649641905e-08
1.049490429e-08
6.524337259e-09
3.979199195e-09
2.397483003e-09
1.441087612e-09
8.752372501e-10
5.438741334e-10
3.49257653e-10
2.329668982e-10
1.614657434e-10
1.15944326e-10
8.596875881e-11
6.554107409e-11
5.093598508e-11
3.9891892e-11
3.113609987e-11
2.398202268e-11
1.808470601e-11
1.328786729e-11
9.50072261e-12
6.630314916e-12
4.545074966e-12
3.079496305e-12
2.070365337e-12
1.383375251e-12
9.186624412e-13
6.058222858e-13
3.963222424e-13
2.567996545e-13
1.642707396e-13
1.029598788e-13
6.219523355e-14
3.496913852e-14
1.695230161e-14
5.968151458e-15
1.440106958e-15
0.0001697011998
2.643239196e-05
1.314879062e-05
7.460088736e-06
4.310374508e-06
3.005836979e-06
2.427956549e-06
2.062273427e-06
1.766581855e-06
1.502194721e-06
1.262569638e-06
1.047959263e-06
8.591200469e-07
6.959255822e-07
5.57246341e-07
4.411880139e-07
3.453954986e-07
2.673300521e-07
2.044643689e-07
1.54406892e-07
1.149901583e-07
8.431659051e-08
6.076381039e-08
4.293303426e-08
2.966120699e-08
1.99930711e-08
1.312323838e-08
8.388353739e-09
5.235478381e-09
3.209537812e-09
1.949609234e-09
1.187580861e-09
7.356755682e-10
4.697271044e-10
3.1184795e-10
2.157761825e-10
1.552968182e-10
1.155760612e-10
8.795185931e-11
6.759024963e-11
5.190131293e-11
3.946934557e-11
2.947503553e-11
2.147217857e-11
1.522595461e-11
1.056441063e-11
7.224654676e-12
4.893327956e-12
3.291365426e-12
2.201074662e-12
1.463440579e-12
9.664143097e-13
6.325665959e-13
4.08767825e-13
2.587599119e-13
1.579347943e-13
8.996863162e-14
4.453220821e-14
1.63330528e-14
4.335458704e-15
0.0003573506713
4.490542138e-05
1.705445985e-05
1.008432897e-05
6.091902028e-06
3.950173139e-06
3.046167591e-06
2.567958547e-06
2.220633219e-06
1.921445131e-06
1.649280201e-06
1.401128304e-06
1.177671201e-06
9.795697353e-07
8.066283374e-07
6.577793921e-07
5.31303412e-07
4.250831514e-07
3.368187516e-07
2.641977698e-07
2.049703607e-07
1.571672786e-07
1.189312315e-07
8.865960901e-08
6.497457348e-08
4.670565408e-08
3.285961332e-08
2.257521873e-08
1.511361078e-08
9.849250256e-09
6.252419842e-09
3.88223893e-09
2.378576532e-09
1.457244867e-09
9.070072387e-10
5.81821032e-10
3.879597094e-10
2.695580592e-10
1.942517429e-10
1.437150744e-10
1.077993336e-10
8.114423149e-11
6.08203709e-11
4.503341296e-11
3.264160131e-11
2.307101477e-11
1.598042785e-11
1.091994278e-11
7.392388871e-12
4.968791426e-12
3.3204132e-12
2.206655443e-12
1.456332354e-12
9.505783789e-13
6.087232537e-13
3.765839294e-13
2.182034249e-13
1.107885108e-13
4.253797583e-14
1.225601856e-14
0.0006010914964
7.909280075e-05
2.004462435e-05
1.18487618e-05
7.786764039e-06
5.143557183e-06
3.803831861e-06
3.153277574e-06
2.737545691e-06
2.401601987e-06
2.098376527e-06
1.818123553e-06
1.560621837e-06
1.327072429e-06
1.118199324e-06
9.338893335e-07
7.732605087e-07
6.347545198e-07
5.167532114e-07
4.171059338e-07
3.336000264e-07
2.64152576e-07
2.068448366e-07
1.599533048e-07
1.219520399e-07
9.150226786e-08
6.743343727e-08
4.871530239e-08
3.442879006e-08
2.375932159e-08
1.598976722e-08
1.04876807e-08
6.709813696e-09
4.204223432e-09
2.602884911e-09
1.613926975e-09
1.017410394e-09
6.601677408e-10
4.44172117e-10
3.100268325e-10
2.230520254e-10
1.635176098e-10
1.208257896e-10
8.928555759e-11
6.553256795e-11
4.73674492e-11
3.351761134e-11
2.323403905e-11
1.585921369e-11
1.071388508e-11
7.187215455e-12
4.795447702e-12
3.181949617e-12
2.093327416e-12
1.355299161e-12
8.508821008e-13
5.030933666e-13
2.632030792e-13
1.063631709e-13
3.288613798e-14
0.0009052756516
0.0001335734049
2.47523423e-05
1.274815365e-05
8.953349936e-06
6.451668594e-06
4.766452913e-06
3.867055061e-06
3.337074341e-06
2.947516983e-06
2.611623776e-06
2.300906438e-06
2.010778217e-06
1.741995604e-06
1.495775606e-06
1.27390083e-06
1.076568761e-06
9.027544399e-07
7.511134613e-07
6.200031968e-07
5.074713462e-07
4.115729268e-07
3.304539863e-07
2.62376102e-07
2.057356142e-07
1.590738447e-07
1.210749783e-07
9.05508803e-08
6.642172042e-08
4.770050006e-08
3.348378134e-08
2.294725308e-08
1.534505967e-08
1.001957354e-08
6.406391049e-09
4.035317432e-09
2.527508479e-09
1.593034542e-09
1.023410946e-09
6.770070672e-10
4.634652116e-10
3.274188777e-10
2.364017256e-10
1.725217277e-10
1.261765369e-10
9.190339195e-11
6.62338385e-11
4.694277878e-11
3.260792159e-11
2.224514861e-11
1.498801807e-11
1.002677539e-11
6.674700424e-12
4.414449802e-12
2.883061236e-12
1.835324629e-12
1.109034264e-12
6.004106049e-13
2.568959876e-13
8.458648437e-14
0.001484774959
0.0002406044001
3.980202092e-05
1.482950174e-05
9.95187339e-06
7.548999685e-06
5.850689708e-06
4.718554441e-06
4.031791852e-06
3.54382892e-06
3.152521511e-06
2.805083705e-06
2.480528867e-06
2.179190434e-06
1.895797002e-06
1.642051467e-06
1.411778061e-06
1.204748971e-06
1.020264575e-06
8.572972223e-07
7.145024223e-07
5.903576078e-07
4.832424247e-07
3.915204673e-07
3.136079197e-07
2.480122665e-07
1.933516851e-07
1.483501705e-07
1.118256175e-07
8.267426333e-08
5.985521539e-08
4.238089012e-08
2.932029858e-08
1.98153149e-08
1.309493895e-08
8.484896577e-09
5.41750499e-09
3.434495826e-09
2.183960267e-09
1.410148591e-09
9.344978988e-10
6.392543449e-10
4.504595685e-10
3.239934778e-10
2.35491639e-10
1.714719319e-10
1.242554206e-10
8.923719034e-11
6.323550229e-11
4.401252981e-11
3.006596325e-11
2.023914413e-11
1.350359844e-11
8.954449988e-12
5.882922144e-12
3.789225998e-12
2.339958012e-12
1.316514801e-12
6.005302642e-13
2.100041857e-13
0.002368163082
0.0004245300176
7.267758512e-05
1.915921108e-05
1.123651811e-05
8.482030617e-06
6.811944914e-06
5.600566606e-06
4.744549419e-06
4.115167411e-06
3.610805309e-06
3.193147883e-06
2.831151018e-06
2.507092649e-06
2.201502449e-06
1.929345198e-06
1.679176697e-06
1.451500748e-06
1.245847641e-06
1.061496368e-06
8.97527299e-07
7.528276877e-07
6.261248739e-07
5.160130833e-07
4.210150934e-07
3.396447637e-07
2.704871256e-07
2.122620103e-07
1.638312117e-07
1.241530285e-07
9.221798583e-08
6.7041296e-08
4.766178595e-08
3.31280933e-08
2.252381016e-08
1.500333486e-08
9.820186311e-09
6.347233282e-09
4.081195622e-09
2.636430255e-09
1.730592777e-09
1.16540613e-09
8.087829915e-10
5.765645169e-10
4.183306648e-10
3.056508225e-10
2.228656776e-10
1.612302442e-10
1.15430083e-10
8.159536146e-11
5.679936884e-11
3.886639125e-11
2.619349028e-11
1.745784411e-11
1.152387176e-11
7.492928937e-12
4.719179601e-12
2.762213829e-12
1.351250382e-12
5.042487853e-13
0.003315810952
0.0006578927222
0.0001234456642
2.636481721e-05
1.245820268e-05
9.115166344e-06
7.444728686e-06
6.256669435e-06
5.310115009e-06
4.491725605e-06
3.809183632e-06
3.275604575e-06
2.858123095e-06
2.522982994e-06
2.229777273e-06
1.966583225e-06
1.727217456e-06
1.50904505e-06
1.310611526e-06
1.13094458e-06
9.692175347e-07
8.245779778e-07
6.960924749e-07
5.827410443e-07
4.834227547e-07
3.970047948e-07
3.223550352e-07
2.583639234e-07
2.039875501e-07
1.583226945e-07
1.20586204e-07
8.997255009e-08
6.56525768e-08
4.682633023e-08
3.266525316e-08
2.231364941e-08
1.4965577e-08
9.89765056e-09
6.492595156e-09
4.257773283e-09
2.819084395e-09
1.903919979e-09
1.32139012e-09
9.437021199e-10
6.892680599e-10
5.093170076e-10
3.765212914e-10
2.761503972e-10
2.000458652e-10
1.429387419e-10
1.007413776e-10
6.999451317e-11
4.790147944e-11
3.233812784e-11
2.157340785e-11
1.419133122e-11
9.103714091e-12
5.524961603e-12
2.90010952e-12
1.167889301e-12
0.004253234291
0.0009243069312
0.0001896525176
3.901333032e-05
1.384433073e-05
9.341569963e-06
7.657839384e-06
6.520307147e-06
5.562951992e-06
4.656719252e-06
3.752157224e-06
3.019947575e-06
2.529596184e-06
2.190048741e-06
1.92807946e-06
1.70734688e-06
1.511246568e-06
1.33352082e-06
1.171413436e-06
1.023520292e-06
8.889925443e-07
7.671814624e-07
6.574740462e-07
5.592249919e-07
4.71739326e-07
3.942839729e-07
3.261202025e-07
2.665321217e-07
2.148417847e-07
1.704479486e-07
1.328422775e-07
1.01539604e-07
7.601761422e-08
5.567647965e-08
3.988091564e-08
2.796863459e-08
1.924680238e-08
1.304750663e-08
8.761713894e-09
5.872671046e-09
3.965426568e-09
2.722951319e-09
1.9163505e-09
1.387138321e-09
1.029573251e-09
7.764721679e-10
5.87884095e-10
4.417641172e-10
3.26872955e-10
2.374170776e-10
1.693904274e-10
1.190201445e-10
8.251381189e-11
5.650332348e-11
3.824209561e-11
2.554986557e-11
1.672829907e-11
1.049450422e-11
5.884615139e-12
2.585929783e-12
0.005177608528
0.001216481541
0.0002700568331
5.79727009e-05
1.624276477e-05
9.346358837e-06
7.512266389e-06
6.442675755e-06
5.504882415e-06
4.60066311e-06
3.672355439e-06
2.756171815e-06
2.089026156e-06
1.717981766e-06
1.489383462e-06
1.318056513e-06
1.172703959e-06
1.042971915e-06
9.247372592e-07
8.161636585e-07
7.164321759e-07
6.251339845e-07
5.419708947e-07
4.666346815e-07