/*--------------------------------*- C++ -*----------------------------------*\
  =========                 |
  \\      /  F ield         | OpenFOAM: The Open Source CFD Toolbox
   \\    /   O peration     | Website:  https://openfoam.org
    \\  /    A nd           | Version:  10
     \\/     M anipulation  |
\*---------------------------------------------------------------------------*/
FoamFile
{
    format      ascii;
    class       volScalarField;
    location    "3000";
    object      CN;
}
// * * * * * * * * * * * * * * * * * * * * * * * * * * * * * * * * * * * * * //

dimensions      [0 0 0 0 0 0 0];

internalField   nonuniform List<scalar> 
5170
(
1.224684607e-75
5.487212392e-76
9.763205021e-77
6.358346948e-78
7.444621085e-80
9.548293646e-73
4.01546308e-73
5.96850061e-74
2.576554824e-75
2.45947165e-77
7.277979546e-70
2.855271043e-70
3.417319887e-71
1.058421834e-72
8.959006027e-75
5.468596325e-67
2.003859273e-67
1.950620003e-68
4.525750419e-70
2.522952696e-72
4.075439774e-64
1.408152739e-64
1.143380747e-65
2.080038964e-67
0
3.035529967e-61
1.004290346e-61
6.830399111e-63
1.024365186e-64
0
2.282559227e-58
7.326597746e-59
4.255241739e-60
5.38531373e-62
0
1.725904674e-55
5.423373541e-56
2.861187599e-57
3.267770144e-59
0
1.324549674e-52
4.244333071e-53
2.118583175e-54
2.362773826e-56
0
1.038540916e-49
3.531250822e-50
1.744270712e-51
2.52094515e-53
0
8.361998905e-47
3.153265773e-47
1.711011052e-48
6.246920176e-50
0
6.894085547e-44
3.011794138e-44
2.132439365e-45
2.833693231e-46
1.438060459e-46
5.833296565e-41
3.091873787e-41
3.520734729e-42
1.491197439e-42
1.411782513e-42
5.037936277e-38
3.379597788e-38
7.334974259e-39
7.833962107e-39
8.959428119e-39
4.449188746e-35
3.963354354e-35
1.782004707e-35
3.960752506e-35
5.479431207e-35
3.952976663e-32
4.902204162e-32
4.654825543e-32
1.839852758e-31
3.34278002e-31
3.515991546e-29
6.400499014e-29
1.233059787e-28
7.669859498e-28
2.041325746e-27
3.042903101e-26
8.460989114e-26
3.180458041e-25
2.946503775e-24
1.247874461e-23
2.43814096e-23
1.080371781e-22
7.542739895e-22
9.8348091e-21
7.635182384e-20
1.6311102e-20
1.25476838e-19
1.610232765e-18
2.979554168e-17
4.735071673e-16
6.881365528e-17
4.166597785e-17
3.365772683e-17
4.737925989e-17
7.026273412e-17
6.322844956e-17
5.00809587e-17
4.451116765e-17
5.376425281e-17
6.249128437e-17
4.911433421e-17
4.556654052e-17
4.247642125e-17
4.672006796e-17
4.683380356e-17
3.745904433e-17
3.864692872e-17
3.751257635e-17
3.849243778e-17
3.456440686e-17
2.887218754e-17
3.213870887e-17
3.200050274e-17
3.102100315e-17
2.55853822e-17
2.268665045e-17
2.653343156e-17
2.684889664e-17
2.470605921e-17
1.916888686e-17
1.815178359e-17
2.18579703e-17
2.228366992e-17
1.953231543e-17
1.459965118e-17
1.475757201e-17
1.801881444e-17
1.837477903e-17
1.544553955e-17
1.138763909e-17
1.218410216e-17
1.490729748e-17
1.51187209e-17
1.235677917e-17
9.168547671e-18
1.021071899e-17
1.24098207e-17
1.248272317e-17
1.008301077e-17
7.632686312e-18
8.689824987e-18
1.042962128e-17
1.040069327e-17
8.418400068e-18
6.546235994e-18
7.507975985e-18
8.871615035e-18
8.782984916e-18
7.190872259e-18
5.751125104e-18
6.580535604e-18
7.6495225e-18
7.532294166e-18
6.268715247e-18
5.14563558e-18
5.841945376e-18
6.68525064e-18
6.56078159e-18
5.558304934e-18
4.665476012e-18
5.244967593e-18
5.918503408e-18
5.797542992e-18
4.995407464e-18
4.26972142e-18
4.776576588e-18
5.308791748e-18
5.190907028e-18
4.536609336e-18
3.93048605e-18
8.267070276e-18
6.501774561e-18
5.131451879e-18
4.254871072e-18
3.66135057e-18
6.333674634e-16
3.224613317e-16
7.455208466e-17
1.710354587e-17
6.664159477e-18
9.999009228e-14
6.232730748e-14
1.088518006e-14
1.53001584e-15
3.006420184e-16
1.514350245e-11
1.264151958e-11
1.519431115e-12
1.507044343e-13
2.162226046e-14
2.996582762e-18
3.70802989e-17
1.108988362e-15
5.063994475e-14
2.937793089e-12
6.013627265e-18
5.515182448e-17
1.118104067e-15
3.260254555e-14
9.947171042e-13
7.873003157e-18
6.167879434e-17
1.090198333e-15
2.875662111e-14
7.429128984e-13
1.515331002e-17
1.426574533e-16
3.099337823e-15
8.510623994e-14
1.888133223e-12
2.895451507e-17
2.695933758e-16
5.137650163e-15
1.06245632e-13
1.610036555e-12
4.584289876e-17
3.802567834e-16
5.948341983e-15
9.386032558e-14
1.027610513e-12
8.251947761e-17
6.928691247e-16
1.032214572e-14
1.405389298e-13
1.343472167e-12
2.699484927e-16
2.737176123e-15
4.161775606e-14
5.021038056e-13
4.41338038e-12
7.516780564e-16
7.104128737e-15
8.381277623e-14
7.364324895e-13
4.874958658e-12
1.566571438e-15
1.258299269e-14
1.111045356e-13
7.235326988e-13
3.706769493e-12
3.161783393e-15
1.986566192e-14
1.341511299e-13
7.210993666e-13
3.26451437e-12
7.372723614e-15
3.90406233e-14
2.376144891e-13
1.261255618e-12
5.958400272e-12
1.681116447e-14
7.327689971e-14
3.804862062e-13
1.769979843e-12
7.315405383e-12
3.248566381e-14
1.123454315e-13
4.792193952e-13
1.87541581e-12
6.571888849e-12
5.430352932e-14
1.488221687e-13
5.230460885e-13
1.745901339e-12
5.336361364e-12
9.159403801e-14
2.089335595e-13
6.408721798e-13
1.982834223e-12
5.902714299e-12
2.03149247e-13
4.161143308e-13
1.190169152e-12
3.608436829e-12
1.086180347e-11
4.946267368e-13
9.056426978e-13
2.303510932e-12
6.325524866e-12
1.735973759e-11
1.019920009e-12
1.661821332e-12
3.65700599e-12
8.772975105e-12
2.125102889e-11
1.675346539e-12
2.472458754e-12
4.765100836e-12
1.006641168e-11
2.170809215e-11
2.323363019e-12
3.18153645e-12
5.519619701e-12
1.054541738e-11
2.081843921e-11
3.041397714e-12
3.9793306e-12
6.475348132e-12
1.168709709e-11
2.211475853e-11
4.377817725e-12
5.619044997e-12
8.917626256e-12
1.581478503e-11
2.969987535e-11
7.292307824e-12
9.24690622e-12
1.441834566e-11
2.512338416e-11
4.641755221e-11
1.271902101e-11
1.583442091e-11
2.393157481e-11
4.021982436e-11
7.151302296e-11
2.135445967e-11
2.596988328e-11
3.770431078e-11
6.054913744e-11
1.027272349e-10
3.399236358e-11
4.040540543e-11
5.64262219e-11
8.669968525e-11
1.406956238e-10
5.210452912e-11
6.075398962e-11
8.205236763e-11
1.214390283e-10
1.898278654e-10
7.833973749e-11
8.991884913e-11
1.181386886e-10
1.695471191e-10
2.57113895e-10
1.169572871e-10
1.325943431e-10
1.704032722e-10
2.381627928e-10
3.513907165e-10
1.747510157e-10
1.95968621e-10
2.468277362e-10
3.367311956e-10
4.844894686e-10
2.64798565e-10
2.940034268e-10
3.635253809e-10
4.847236936e-10
6.802306196e-10
4.198681745e-10
4.616643655e-10
5.604652059e-10
7.316007665e-10
1.001631141e-09
7.409391641e-10
8.052806474e-10
9.557078549e-10
1.210509064e-09
1.604984187e-09
1.437422393e-09
1.538682094e-09
1.772673144e-09
2.160180355e-09
2.742610722e-09
2.804987908e-09
2.953546221e-09
3.291958301e-09
3.839329688e-09
4.637688185e-09
5.015076383e-09
5.212879295e-09
5.65942579e-09
6.370606955e-09
7.386630806e-09
8.048486428e-09
8.296747148e-09
8.854230155e-09
9.733547655e-09
1.097226525e-08
1.200265747e-08
1.231082824e-08
1.299855425e-08
1.406978949e-08
1.554683503e-08
1.750032425e-08
1.786601029e-08
1.866374126e-08
1.984688899e-08
2.133360134e-08
2.422955059e-08
2.436134721e-08
2.456312299e-08
2.462249469e-08
2.424307795e-08
1.993872017e-08
1.960496053e-08
1.886787313e-08
1.775167662e-08
1.629347977e-08
1.03959815e-08
1.017790171e-08
9.714757836e-09
9.054079298e-09
8.24633038e-09
4.69854221e-09
4.607769676e-09
4.415383284e-09
4.141576324e-09
3.806945035e-09
2.057420363e-09
2.023095824e-09
1.950063022e-09
1.844715977e-09
1.714295252e-09
9.004574514e-10
8.87395783e-10
8.594579496e-10
8.190206292e-10
7.684767681e-10
3.969521357e-10
3.919196352e-10
3.811215277e-10
3.654049134e-10
3.455837024e-10
1.768362419e-10
1.74862063e-10
1.706149774e-10
1.644030687e-10
1.565140503e-10
7.981747173e-11
7.902929456e-11
7.733005175e-11
7.483464281e-11
7.164829094e-11
3.661479595e-11
3.629622258e-11
3.560851802e-11
3.459569699e-11
3.32974902e-11
1.723623836e-11
1.71027267e-11
1.681821691e-11
1.639065529e-11
1.584299817e-11
8.290546e-12
8.232736211e-12
8.10749075e-12
7.921567935e-12
7.68065311e-12
4.083689759e-12
4.058920303e-12
4.005256951e-12
3.925707694e-12
3.82275434e-12
2.072103853e-12
2.061380577e-12
2.038120653e-12
2.003560153e-12
1.958664281e-12
1.095015078e-12
1.090407932e-12
1.080405114e-12
1.065514467e-12
1.046117172e-12
6.126479955e-13
6.107217579e-13
6.065338684e-13
6.002842849e-13
5.921133483e-13
3.693611781e-13
3.685937516e-13
3.669214707e-13
3.644127317e-13
3.611062976e-13
2.426740548e-13
2.423774197e-13
2.417268806e-13
2.407381819e-13
2.3941014e-13
1.729781523e-13
1.728478704e-13
1.725585837e-13
1.721084982e-13
1.714841889e-13
1.31255737e-13
1.311671154e-13
1.309687238e-13
1.306559415e-13
1.302148491e-13
1.035199466e-13
1.034305215e-13
1.032310743e-13
1.029192741e-13
1.024847752e-13
8.315242485e-14
8.305452428e-14
8.283746039e-14
8.250207726e-14
8.204218882e-14
6.708991892e-14
6.698818027e-14
6.676357076e-14
6.641940334e-14
6.595289015e-14
5.39300024e-14
5.383136126e-14
5.361419553e-14
5.328322294e-14
5.283797622e-14
4.300853959e-14
4.291847748e-14
4.272056798e-14
4.24200126e-14
4.201770432e-14
3.396024481e-14
3.388187793e-14
3.370988572e-14
3.344931955e-14
3.31017288e-14
2.653619785e-14
2.647059882e-14
2.632676112e-14
2.610921875e-14
2.581971373e-14
2.052299049e-14
2.046976493e-14
2.035313299e-14
2.01769517e-14
1.994289416e-14
1.575581606e-14
1.571365558e-14
1.562132023e-14
1.548196654e-14
1.529706325e-14
1.231931785e-14
1.228583632e-14
1.221252231e-14
1.210193134e-14
1.195530315e-14
5.04058118e-11
1.045753437e-11
8.315347103e-12
1.828099385e-11
1.088943976e-11
5.153780694e-12
6.877642455e-12
2.175070426e-11
1.870947509e-11
1.152497367e-11
9.655974019e-12
1.892947148e-11
2.041736008e-11
1.591838694e-11
1.171152908e-11
1.316419585e-11
2.472001364e-11
3.655002537e-11
4.056429529e-11
3.80068151e-11
3.433409516e-11
3.571899555e-11
4.802532555e-11
7.412667669e-11
1.107058421e-10
1.533577209e-10
2.031925827e-10
2.667305184e-10
3.533428457e-10
4.734353816e-10
6.406081719e-10
8.824720562e-10
1.274204246e-09
1.992593123e-09
3.29494798e-09
5.368477231e-09
8.294346909e-09
1.205807074e-08
1.679510374e-08
2.23795977e-08
2.351451869e-08
1.515768245e-08
7.654333503e-09
3.560827324e-09
1.616977555e-09
7.302243388e-10
3.304163645e-10
1.504239884e-10
6.917219899e-11
3.228304536e-11
1.54079131e-11
7.494742058e-12
3.741380704e-12
1.922979626e-12
1.030643779e-12
5.855627628e-13
3.584265898e-13
2.38307e-13
1.709451215e-13
1.298270181e-13
1.021081803e-13
8.165120315e-14
6.556182836e-14
5.246822919e-14
4.168570375e-14
3.281611765e-14
2.558254656e-14
1.975157029e-14
1.514615097e-14
1.183574821e-14
1.791063858e-10
2.498454485e-09
1.728427215e-10
1.136443528e-11
8.469246384e-13
3.077418083e-11
2.039250606e-10
2.764679483e-10
2.368636689e-11
1.423375235e-12
4.766350775e-11
8.825606197e-10
1.837548117e-08
1.241387563e-09
5.38739832e-11
1.01099342e-10
1.620264795e-09
2.409034463e-08
2.527913426e-09
1.94514573e-10
4.608408134e-11
4.539572876e-10
3.322238264e-09
1.111195762e-09
1.245117633e-10
1.805735601e-11
1.30961158e-10
7.435089251e-10
2.70741863e-09
2.931411805e-10
2.66052994e-11
2.666128853e-10
2.412089753e-09
2.138368915e-08
2.510637261e-09
8.168093116e-11
7.82126715e-10
6.548265177e-09
5.252957163e-08
7.633014754e-09
5.822328865e-11
3.889280349e-10
2.113190936e-09
9.332996159e-09
3.319999018e-09
3.106502263e-11
1.591572739e-10
6.739861872e-10
2.473455526e-09
4.853468409e-09
2.591496502e-11
1.444384144e-10
7.631140061e-10
4.047187705e-09
2.051764257e-08
5.371002901e-11
3.35835862e-10
1.925025699e-09
1.054819877e-08
5.560020409e-08
5.226980537e-11
2.609770232e-10
1.143135642e-09
4.499948679e-09
1.54919787e-08
3.671585072e-11
1.482067997e-10
5.220920096e-10
1.643947458e-09
4.546467837e-09
2.529780342e-11
9.231486876e-11
3.120637536e-10
1.026285004e-09
3.369044509e-09
2.92451972e-11
1.188024026e-10
4.674866644e-10
1.820214452e-09
7.032218177e-09
5.570671207e-11
2.322409133e-10
9.182035085e-10
3.507315662e-09
1.306009214e-08
7.733759239e-11
2.832839405e-10
9.746242612e-10
3.185912404e-09
9.931803652e-09
7.938491034e-11
2.505260834e-10
7.437271136e-10
2.091041522e-09
5.570986423e-09
6.932844609e-11
1.931633425e-10
5.136373509e-10
1.313009565e-09
3.23995631e-09
5.965408291e-11
1.549062442e-10
3.943946178e-10
9.925650426e-10
2.47890463e-09
6.114904629e-11
1.586628374e-10
4.131015614e-10
1.080632351e-09
2.830844226e-09
8.23735743e-11
2.171745723e-10
5.755972613e-10
1.527318974e-09
4.034470805e-09
1.255795458e-10
3.235397816e-10
8.348673687e-10
2.147316435e-09
5.475620729e-09
1.821907857e-10
4.440867531e-10
1.083580055e-09
2.632433799e-09
6.332355177e-09
2.439776048e-10
5.584990557e-10
1.283008676e-09
2.939680315e-09
6.675812773e-09
3.132796634e-10
6.782400858e-10
1.479820877e-09
3.231222252e-09
7.007143776e-09
4.004980577e-10
8.285381249e-10
1.734926216e-09
3.647295465e-09
7.624801149e-09
5.189993843e-10
1.034051121e-09
2.091487905e-09
4.253102525e-09
8.591025285e-09
6.815867357e-10
1.312002385e-09
2.565333321e-09
5.036629334e-09
9.783130822e-09
9.04508346e-10
1.679580003e-09
3.164690833e-09
5.962968884e-09
1.103999862e-08
1.221122021e-09
2.182336015e-09
3.942979779e-09
7.077039602e-09
1.237692409e-08
1.725849021e-09
2.956143285e-09
5.092516051e-09
8.659774149e-09
1.425536458e-08
2.627193058e-09
4.273961847e-09
6.974471412e-09
1.122088149e-08
1.746095383e-08
4.186013705e-09
6.373348819e-09
9.752904057e-09
1.475323464e-08
2.155388952e-08
6.529819406e-09
9.228624218e-09
1.31412194e-08
1.847340272e-08
2.459022531e-08
9.721219271e-09
1.291003339e-08
1.728233804e-08
2.261984875e-08
2.644126413e-08
1.374828123e-08
1.736094972e-08
2.182220192e-08
2.553558626e-08
2.322688461e-08
1.869859394e-08
2.226212636e-08
2.496845618e-08
2.308726735e-08
1.73644216e-08
2.380416278e-08
2.450938517e-08
2.169359232e-08
1.664105728e-08
1.1708963e-08
2.220753148e-08
1.861388936e-08
1.436822519e-08
1.04427692e-08
7.309391516e-09
1.348803259e-08
1.071329265e-08
8.129547817e-09
5.959849825e-09
4.261784544e-09
6.798835296e-09
5.456752536e-09
4.229774889e-09
3.187725721e-09
2.349127848e-09
3.204196463e-09
2.635811715e-09
2.102031098e-09
1.632954e-09
1.240866763e-09
1.475177921e-09
1.243093227e-09
1.018070341e-09
8.132693457e-10
6.358914923e-10
6.741908862e-10
5.800687637e-10
4.861809284e-10
3.981086706e-10
3.194113581e-10
3.081122579e-10
2.69812958e-10
2.306864898e-10
1.93034511e-10
1.584745511e-10
1.414395972e-10
1.257428096e-10
1.09392632e-10
9.33122748e-11
7.82144229e-11
6.551058219e-11
5.902746703e-11
5.217135211e-11
4.531157207e-11
3.874632784e-11
3.077984446e-11
2.808735411e-11
2.519665094e-11
2.222792788e-11
1.93259093e-11
1.476303646e-11
1.361093397e-11
1.23442115e-11
1.103632363e-11
9.732494205e-12
7.219572582e-12
6.71616489e-12
6.164824396e-12
5.583094357e-12
4.995437658e-12
3.620233298e-12
3.397156947e-12
3.149722368e-12
2.887793859e-12
2.62092175e-12
1.869760205e-12
1.771059069e-12
1.660736044e-12
1.543023105e-12
1.4218629e-12
1.00753496e-12
9.643791899e-13
9.157109646e-13
8.631766953e-13
8.083116468e-13
5.757595355e-13
5.572600099e-13
5.361008835e-13
5.128351119e-13
4.879436658e-13
3.543980303e-13
3.466233217e-13
3.374649522e-13
3.270188255e-13
3.153466494e-13
2.366319695e-13
2.332445216e-13
2.290261584e-13
2.239104479e-13
2.178198191e-13
1.701143691e-13
1.683229273e-13
1.659400751e-13
1.62865316e-13
1.58999542e-13
1.292254944e-13
1.278952044e-13
1.260873344e-13
1.237165849e-13
1.207045862e-13
1.015273011e-13
1.002727929e-13
9.860929219e-14
9.647958283e-14
9.383496022e-14
8.105256156e-14
7.980027638e-14
7.819361385e-14
7.620150816e-14
7.38009464e-14
6.496633719e-14
6.375058478e-14
6.223110959e-14
6.039623424e-14
5.824107485e-14
5.190727078e-14
5.078100137e-14
4.939931729e-14
4.776293791e-14
4.587796868e-14
4.118325601e-14
4.018593873e-14
3.897826495e-14
3.756774463e-14
3.596600376e-14
3.23846228e-14
3.153490266e-14
3.051537698e-14
2.933647654e-14
2.801170486e-14
2.522465968e-14
2.4523873e-14
2.368854714e-14
2.27296015e-14
2.166021312e-14
1.946312623e-14
1.890057451e-14
1.823322026e-14
1.747116075e-14
1.662613185e-14
1.49187515e-14
1.447660394e-14
1.39538734e-14
1.335921278e-14
1.270245622e-14
1.165566699e-14
1.130618457e-14
1.089390723e-14
1.042604136e-14
9.910669903e-15
2.077638772e-14
9.528085844e-16
1.070213976e-16
1.855419136e-17
3.987736326e-18
8.874523009e-19
1.878766806e-19
3.805443334e-20
7.518891597e-21
1.482307613e-21
3.044442052e-22
7.379693746e-23
2.735369679e-23
1.710981979e-23
1.410195442e-23
1.250619856e-23
1.110422704e-23
9.653603169e-24
8.150969965e-24
6.658649051e-24
5.252266524e-24
3.996075101e-24
2.931257065e-24
2.072990599e-24
1.41394492e-24
9.308446966e-25
5.92035171e-25
3.641963345e-25
2.169672007e-25
1.253511358e-25
7.034341552e-26
3.841517243e-26
2.046504372e-26
1.066946218e-26
5.466754101e-27
2.767187773e-27
1.391381045e-27
6.978140704e-28
3.493356544e-28
1.738972282e-28
8.540563818e-29
4.097983511e-29
1.902960965e-29
8.487316172e-30
3.617289048e-30
1.469325027e-30
5.68497248e-31
2.097314327e-31
7.394085863e-32
2.498630578e-32
8.121245868e-33
2.548247791e-33
7.747171933e-34
2.289444249e-34
6.587173263e-35
1.83727101e-35
4.828883235e-36
1.087846805e-36
1.491213889e-37
6.018172326e-39
4.488497952e-14
1.984904356e-15
1.803329259e-16
2.531838161e-17
4.616962767e-18
9.095258495e-19
1.767684587e-19
3.358818368e-20
6.461803733e-21
1.370062468e-21
3.880035034e-22
1.817949107e-22
1.287144689e-22
1.084560446e-22
9.58663601e-23
8.488668872e-23
7.398515965e-23
6.297069152e-23
5.212950046e-23
4.186018511e-23
3.254769706e-23
2.447719182e-23
1.779528041e-23
1.250495767e-23
8.495962181e-24
5.584189591e-24
3.553773804e-24
2.191879323e-24
1.311571482e-24
7.622553743e-25
4.308648731e-25
2.37310492e-25
1.276743584e-25
6.732729082e-26
3.496165059e-26
1.797823712e-26
9.20539136e-27
4.708924965e-27
2.404269878e-27
1.218113265e-27
6.066703101e-28
2.939303349e-28
1.372599012e-28
6.135901521e-29
2.614927899e-29
1.060667083e-29
4.096299307e-30
1.509084491e-30
5.318806573e-31
1.799794584e-31
5.869365399e-32
1.851856086e-32
5.673797552e-33
1.693062894e-33
4.923497769e-34
1.385479967e-34
3.640470434e-35
8.010517067e-36
1.058729908e-36
4.235148263e-38
1.024117256e-12
2.471453638e-14
8.59267051e-16
4.999121405e-17
5.126664416e-18
7.300756999e-19
1.217192815e-19
2.275022144e-20
5.160580462e-21
1.68203045e-21
8.501021885e-22
5.843008897e-22
4.680600542e-22
4.049176378e-22
3.613091018e-22
3.225669653e-22
2.830552348e-22
2.417549149e-22
2.000357068e-22
1.599650349e-22
1.235954686e-22
9.229247642e-23
6.665680382e-23
4.659925507e-23
3.156220656e-23
2.073328922e-23
1.322378981e-23
8.197329997e-24
4.943857156e-24
2.90396362e-24
1.66334931e-24
9.30734352e-25
5.100845125e-25
2.748162477e-25
1.462917786e-25
7.739781818e-26
4.090001228e-26
2.161981413e-26
1.138840237e-26
5.92609784e-27
3.012385432e-27
1.479725876e-27
6.963953347e-28
3.122417916e-28
1.330197352e-28
5.383616496e-29
2.073869491e-29
7.628700307e-30
2.690495642e-30
9.136333213e-31
2.999682319e-31
9.559898312e-32
2.967626619e-32
8.992919901e-33
2.656552381e-33
7.556665373e-34
1.977435565e-34
4.179712826e-35
5.037312821e-36
1.839105558e-37
7.499811443e-12
1.64543083e-13
3.091047459e-15
1.044558765e-16
7.408527853e-18
8.792174097e-19
1.529410791e-19
3.923331622e-20
1.415294273e-20
6.519163821e-21
3.604822412e-21
2.316918596e-21
1.68455883e-21
1.340274717e-21
1.125997848e-21
9.682035238e-22
8.397554774e-22
7.214498303e-22
6.042839682e-22
4.891669067e-22
3.813748817e-22
2.86084043e-22
2.067475774e-22
1.442969591e-22
9.754521295e-23
6.403485393e-23
4.09110229e-23
2.548122524e-23
1.549404178e-23
9.210121454e-24
5.360557094e-24
3.061263315e-24
1.720263035e-24
9.55034432e-25
5.264981727e-25
2.897427497e-25
1.596632115e-25
8.794497237e-26
4.806203373e-26
2.576641168e-26
1.338753309e-26
6.671566155e-27
3.165606417e-27
1.42415002e-27
6.067450843e-28
2.451560728e-28
9.427558842e-29
3.467139263e-29
1.225910484e-29
4.189134969e-30
1.39001437e-30
4.495891529e-31
1.421189798e-31
4.393232777e-32
1.321771882e-32
3.797285983e-33
9.854158144e-34
1.989858625e-34
2.156372865e-35
7.059771509e-37
5.389413054e-12
1.302059125e-13
2.61607321e-15
8.397567928e-17
7.753546233e-18
1.892778714e-18
6.664704974e-19
2.607334136e-19
1.091970878e-19
4.900020617e-20
2.395055106e-20
1.29766117e-20
7.887442365e-21
5.367794659e-21
4.010220834e-21
3.188853131e-21
2.614348182e-21
2.157127042e-21
1.770136408e-21
1.435408821e-21
1.131212735e-21
8.595133615e-22
6.280095057e-22
4.416405489e-22
2.998050866e-22
1.972325311e-22
1.262372636e-22
7.88722578e-23
4.823302644e-23
2.893396214e-23
1.706341206e-23
9.918268689e-24
5.701559157e-24
3.255964504e-24
1.856832875e-24
1.062052878e-24
6.09479764e-25
3.489062207e-25
1.970625182e-25
1.083692932e-25
5.732402145e-26
2.890024785e-26
1.380614572e-26
6.232856654e-27
2.659734555e-27
1.075817528e-27
4.144255419e-28
1.529313093e-28
5.439735396e-29
1.875973099e-29
6.304182753e-30
2.072135587e-30
6.67411577e-31
2.103692026e-31
6.433465387e-32
1.860200775e-32
4.76903033e-33
9.224690137e-34
9.094907436e-35
2.779499872e-36
1.620474545e-11
5.273328383e-13
1.230574442e-14
3.408076634e-16
3.56949594e-17
1.098068461e-17
4.180446569e-18
1.697912785e-18
7.280170387e-19
3.284741329e-19
1.564193472e-19
7.952591152e-20
4.389825467e-20
2.665996744e-20
1.781871014e-20
1.292279235e-20
9.909674771e-21
7.817607511e-21
6.206724887e-21
4.891468939e-21
3.786885772e-21
2.859809327e-21
2.094924678e-21
1.484885403e-21
1.01747884e-21
6.7498257e-22
4.345260501e-22
2.723668138e-22
1.668277452e-22
1.002430083e-22
5.932803208e-23
3.472711441e-23
2.019326627e-23
1.172487013e-23
6.835250153e-24
4.014460818e-24
2.370024103e-24
1.393393852e-24
8.046909215e-25
4.499204804e-25
2.405814759e-25
1.220010339e-25
5.840822797e-26
2.636830983e-26
1.12482136e-26
4.555464697e-27
1.762391468e-27
6.554662788e-28
2.357555725e-28
8.243513039e-29
2.814334051e-29
9.410123162e-30
3.08480261e-30
9.8862857e-31
3.06175411e-31
8.883450978e-32
2.248409067e-32
4.19532599e-33
3.816877072e-34
1.115981093e-35
1.983444908e-10
8.993638708e-12
2.681093221e-13
7.249719965e-15
3.069776453e-16
5.952064667e-17
1.84516343e-17
6.616947709e-18
2.62727981e-18
1.145583484e-18
5.413120964e-19
2.750536368e-19
1.508104148e-19
9.012170699e-20
5.910275331e-20
4.229584425e-20
3.239661289e-20
2.585740761e-20
2.095331607e-20
1.689510681e-20
1.33611665e-20
1.027327202e-20
7.638596091e-21
5.486169415e-21
3.808419408e-21
2.560947928e-21
1.670192695e-21
1.058259868e-21
6.528149367e-22
3.933352822e-22
2.325100884e-22
1.356106824e-22
7.855371871e-23
4.550363688e-23
2.653556495e-23
1.564815056e-23
9.307730227e-24
5.520261743e-24
3.214367106e-24
1.809489967e-24
9.720144292e-25
4.940234486e-25
2.364639797e-25
1.064772946e-25
4.526066793e-26
1.829920834e-26
7.099530972e-27
2.663398846e-27
9.715642811e-28
3.45904966e-28
1.204790121e-28
4.11017732e-29
1.372736119e-29
4.468594615e-30
1.398672801e-30
4.070218196e-31
1.020885141e-31
1.859324497e-32
1.592294889e-33
4.541904579e-35
7.793382832e-10
5.915048396e-11
2.66027266e-12
7.088883793e-14
2.086654584e-15
1.963349121e-16
4.413203823e-17
1.45066484e-17
5.685301611e-18
2.48083775e-18
1.174347197e-18
5.977218912e-19
3.278859677e-19
1.957014071e-19
1.282952467e-19
9.23770648e-20
7.201900157e-20
5.932504437e-20
5.027744746e-20
4.285260182e-20
3.610047611e-20
2.967832616e-20
2.359287026e-20
1.803882339e-20
1.322799806e-20
9.305145386e-21
6.282998419e-21
4.086202743e-21
2.572026761e-21
1.574344846e-21
9.406896155e-22
5.512977029e-22
3.188997615e-22
1.834664005e-22
1.057226996e-22
6.136277065e-23
3.592645937e-23
2.103417129e-23
1.213440907e-23
6.797237842e-24
3.648557386e-24
1.856967319e-24
8.903950567e-25
4.01103956e-25
1.702245046e-25
6.870295712e-26
2.66920914e-26
1.008302165e-26
3.726574232e-27
1.351239883e-27
4.808634505e-28
1.677733398e-28
5.723323377e-29
1.896511942e-29
6.010437865e-30
1.759416438e-30
4.406004708e-31
7.9379489e-32
6.578645371e-33
1.855481441e-34
5.115079619e-10
5.366583054e-11
4.402437516e-12
2.08728239e-13
6.482927191e-15
3.824750921e-16
6.238969511e-17
1.910091467e-17
7.791422158e-18
3.625539233e-18
1.816535395e-18
9.621443888e-19
5.402230736e-19
3.264031575e-19
2.158828227e-19
1.574265909e-19
1.253060605e-19
1.063344142e-19
9.363343111e-20
8.359014603e-20
7.435945189e-20
6.510882391e-20
5.561522464e-20
4.601749618e-20
3.66748463e-20
2.802085211e-20
2.044902021e-20
1.424229474e-20
9.478610245e-21
6.050668996e-21
3.718861437e-21
2.217130635e-21
1.294014755e-21
7.458548241e-22
4.272160392e-22
2.438409293e-22
1.388800699e-22
7.878837352e-23
4.411852127e-23
2.411754989e-23
1.275485439e-23
6.470890429e-24
3.117425177e-24
1.414112993e-24
6.024610376e-25
2.434919917e-25
9.478760747e-26
3.596577568e-26
1.340204377e-26
4.922162052e-27
1.782213244e-27
6.346907005e-28
2.2123575e-28
7.479720936e-29
2.409707812e-29
7.133876975e-30
1.798500264e-30
3.247526085e-31
2.669745315e-32
7.603119495e-34
7.771321468e-10
9.961182135e-11
1.05393605e-11
8.920339398e-13
4.430611649e-14
1.862452171e-15
1.727110811e-16
3.731821137e-17
1.267516148e-17
5.427209211e-18
2.639197603e-18
1.386603661e-18
7.763564131e-19
4.684862607e-19
3.110664217e-19
2.299424851e-19
1.875171884e-19
1.643554877e-19
1.502312308e-19
1.396811912e-19
1.297931917e-19
1.191372861e-19
1.071734316e-19
9.394916863e-20
7.988984093e-20
6.564133496e-20
5.19292629e-20
3.940570746e-20
2.859093073e-20
1.978029472e-20
1.303725163e-20
8.211414418e-21
4.974383366e-21
2.92437315e-21
1.683656377e-21
9.55592561e-22
5.345797697e-22
2.942554958e-22
1.587788541e-22
8.370729368e-23
4.283994775e-23
2.121560548e-23
1.014394203e-23
4.650028041e-24
2.016123318e-24
8.243922516e-25
3.227645932e-25
1.229628647e-25
4.601984128e-26
1.699915682e-26
6.209173741e-27
2.2402448e-27
7.942801724e-28
2.737045297e-28
8.985605568e-29
2.70693194e-29
6.934614656e-30
1.274139316e-30
1.065464977e-31
3.136378469e-33
3.293497767e-09
4.53317531e-10
5.531521628e-11
5.980335956e-12
4.505250152e-13
2.136602897e-14
1.207469653e-15
1.545058283e-16
3.628677996e-17
1.173213712e-17
4.641894499e-18
2.126393303e-18
1.09328123e-18
6.283475681e-19
4.094822825e-19
3.050902422e-19
2.556896805e-19
2.326053631e-19
2.213508552e-19
2.142278923e-19
2.070811307e-19
1.977245151e-19
1.851908902e-19
1.69349309e-19
1.506691591e-19
1.3003644e-19
1.085796586e-19
8.749148791e-20
6.785612153e-20
5.052515647e-20
3.603497063e-20
2.456299995e-20
1.599124832e-20
9.961697225e-21
5.971174427e-21
3.46513651e-21
1.951489724e-21
1.064961395e-21
5.628172192e-22
2.883567794e-22
1.433398183e-22
6.899979522e-23
3.215486708e-23
1.453585989e-23
6.365591809e-24
2.672372155e-24
1.068676286e-24
4.104215819e-25
1.53698233e-25
5.673122764e-26
2.073992769e-26
7.512787365e-27
2.685911049e-27
9.377231688e-28
3.131655323e-28
9.62905683e-29
2.528579538e-29
4.795366999e-30
4.170896e-31
1.293381008e-32
9.690523893e-09
1.460923646e-09
1.967574858e-10
2.39776273e-11
2.622474405e-12
1.923343483e-13
9.964093374e-15
7.254031445e-16
1.077405207e-16
2.627917521e-17
8.418390695e-18
3.244395538e-18
1.469866309e-18
7.839708198e-19
4.988076241e-19
3.786849305e-19
3.3105805e-19
3.158861761e-19
3.142830122e-19
3.164738334e-19
3.170474052e-19
3.129614338e-19
3.026829349e-19
2.85791638e-19
2.62750612e-19
2.347126462e-19
2.033163871e-19
1.704569735e-19
1.380448502e-19
1.077803213e-19
8.097195767e-20
5.842729478e-20
4.042807981e-20
2.679713482e-20
1.701296312e-20
1.035807392e-20
6.05477899e-21
3.398702427e-21
1.830632803e-21
9.434637451e-22
4.662820566e-22
2.218861723e-22
1.019612328e-22
4.534805427e-23
1.960111769e-23
8.257490917e-24
3.374912344e-24
1.328860218e-24
5.037560952e-25
1.857004367e-25
6.745585691e-26
2.432351609e-26
8.692394362e-27
3.048620372e-27
1.028929835e-27
3.221929578e-28
8.709007428e-29
1.725512895e-29
1.594011513e-30
5.315208474e-32
5.010729759e-09
1.024881422e-09
1.790761556e-10
2.65928931e-11
3.563364237e-12
4.162971351e-13
3.221306939e-14
1.92138547e-15
1.740351473e-16
3.140836994e-17
8.961689184e-18
3.316139046e-18
1.482791137e-18
8.108996611e-19
5.469997064e-19
4.518909705e-19
4.271066304e-19
4.331330535e-19
4.508190674e-19
4.697587424e-19
4.83750232e-19
4.889985958e-19
4.833933666e-19
4.662030018e-19
4.378934726e-19
3.999593789e-19
3.547100711e-19
3.049906275e-19
2.538586166e-19
2.042337809e-19
1.585756176e-19
1.186505929e-19
8.542915505e-20
5.911978586e-20
3.928824343e-20
2.505305025e-20
1.531685159e-20
8.965125104e-21
5.013737272e-21
2.677309914e-21
1.363700518e-21
6.63596623e-22
3.089308948e-22
1.378049275e-22
5.93366747e-23
2.481506188e-23
1.011121985e-23
4.026909654e-24
1.561916788e-24
5.867933145e-25
2.140493687e-25
7.655605259e-26
2.70553765e-26
9.423549927e-27
3.181945199e-27
1.007101892e-27
2.799392232e-28
5.867759986e-29
5.919535806e-30
2.183964403e-31
4.388104113e-09
9.795226912e-10
1.979903462e-10
3.376965094e-11
5.172823556e-12
7.145747407e-13
8.483345392e-14
6.757695125e-15
4.403812687e-16
4.248042542e-17
8.069759056e-18
2.644399047e-18
1.243598054e-18
7.777786501e-19
6.157568063e-19
5.817637032e-19
6.005650362e-19
6.407779368e-19
6.857552204e-19
7.256723313e-19
7.543166467e-19
7.677575896e-19
7.638368671e-19
7.419363335e-19
7.02834043e-19
6.485277737e-19
5.820834629e-19
5.07414044e-19
4.289642192e-19
3.511850306e-19
2.78008683e-19
2.125387359e-19
1.567851975e-19
1.115178348e-19
7.643376361e-20
5.044024184e-20
3.201431715e-20
1.951370769e-20
1.139743246e-20
6.362082671e-21
3.384811509e-21
1.712136164e-21
8.240365313e-22
3.782580741e-22
1.663489487e-22
7.038766947e-23
2.877645697e-23
1.143003737e-23
4.439699574e-24
1.689069995e-24
6.275087291e-25
2.268288297e-25
7.988785579e-26
2.748962643e-26
9.189203787e-27
2.914147735e-27
8.300600396e-28
1.86110537e-28
2.14160351e-29
8.992135066e-31
9.863802802e-09
2.115023199e-09
4.290790408e-10
7.82113836e-11
1.292383842e-11
1.978928703e-12
2.768145862e-13
3.435625471e-14
2.965930288e-15
1.971088741e-16
1.762824512e-17
3.322722628e-18
1.375076164e-18
9.519683858e-19
8.625242158e-19
8.846924806e-19
9.462597815e-19
1.016342923e-18
1.079565217e-18
1.1275928e-18
1.155754639e-18
1.161580855e-18
1.14420312e-18
1.104069774e-18
1.042775836e-18
9.629622552e-19
8.681706312e-19
7.627036539e-19
6.514472051e-19
5.398497208e-19
4.332882079e-19
3.361829985e-19
2.518132007e-19
1.820795615e-19
1.271265237e-19
8.568870814e-20
5.577186676e-20
3.50318054e-20
2.119789685e-20
1.232388342e-20
6.862007789e-21
3.646589032e-21