/*--------------------------------*- C++ -*----------------------------------*\
  =========                 |
  \\      /  F ield         | OpenFOAM: The Open Source CFD Toolbox
   \\    /   O peration     | Website:  https://openfoam.org
    \\  /    A nd           | Version:  10
     \\/     M anipulation  |
\*---------------------------------------------------------------------------*/
FoamFile
{
    format      ascii;
    class       volScalarField;
    location    "3000";
    object      CO;
}
// * * * * * * * * * * * * * * * * * * * * * * * * * * * * * * * * * * * * * //

dimensions      [0 0 0 0 0 0 0];

internalField   nonuniform List<scalar> 
5170
(
3.670312818e-56
3.872004564e-56
1.878625985e-56
1.3288921e-56
0
4.881231731e-56
6.138786115e-56
3.59827263e-56
2.904197057e-56
6.77326585e-56
7.431689113e-54
5.840686009e-54
3.553622414e-54
2.832719628e-54
8.503534101e-54
2.594371136e-51
2.053697165e-51
1.28802687e-51
1.444161652e-51
6.120053428e-51
9.273680675e-49
7.404411665e-49
4.978103467e-49
7.885060339e-49
4.127644583e-48
3.390662775e-46
2.765104805e-46
2.039688836e-46
4.430689585e-46
2.627050847e-45
1.266280945e-43
1.063963269e-43
8.966398264e-44
2.531089929e-43
1.612688762e-42
4.822384975e-41
4.22174916e-41
4.241063528e-41
1.463243247e-40
9.665270898e-40
1.877575798e-38
1.74711573e-38
2.107752454e-38
8.53822361e-38
5.687213248e-37
7.485903884e-36
7.534590137e-36
1.088112245e-35
5.037216591e-35
3.299036322e-34
3.050078962e-33
3.374330896e-33
5.800068003e-33
2.999562804e-32
1.892821393e-31
1.264781723e-30
1.564608503e-30
3.195462764e-30
1.801031564e-29
1.077323496e-28
5.318930862e-28
7.466821054e-28
1.826321047e-27
1.098200086e-26
6.098478314e-26
2.252019403e-25
3.637782586e-25
1.073615186e-24
6.814137207e-24
3.443394226e-23
9.563482355e-23
1.795557646e-22
6.406627409e-22
4.288227194e-21
1.944006245e-20
4.011821854e-20
8.844921606e-20
3.806330229e-19
2.65093637e-18
1.099349638e-17
1.655166687e-17
4.339875652e-17
2.195547697e-16
1.593388309e-15
6.2407489e-15
6.569217984e-15
2.081531352e-14
1.22882557e-13
9.12877944e-13
3.548836198e-12
2.402236127e-12
9.547007198e-12
6.476653051e-11
4.872658717e-10
2.023557684e-09
7.537213284e-10
4.238247325e-09
3.320703515e-08
2.374710083e-07
1.167084248e-06
0.002647816305
0.002795087967
0.002851706511
0.002755675055
0.002635573971
0.001828444846
0.002030355307
0.00208916932
0.001975859863
0.00178672462
0.001349359702
0.001543642968
0.001593750817
0.001487840906
0.001293401682
0.001044813387
0.001219102163
0.001257937285
0.001154361097
0.0009772687272
0.0008397807258
0.0009906606135
0.001020635934
0.0009179769542
0.0007600777456
0.0006967608371
0.0008230165984
0.0008454824147
0.0007463544527
0.0006102736974
0.0005924568969
0.0006956867052
0.0007112684242
0.0006195593928
0.0005063134101
0.0005142646672
0.0005975633199
0.000607296577
0.0005263015314
0.0004343015086
0.0004547750012
0.0005214617702
0.0005265275619
0.0004578208277
0.0003841855339
0.0004089147512
0.0004619862096
0.0004638029486
0.0004070375668
0.0003486226447
0.000373256774
0.0004153780461
0.000415101151
0.0003688690356
0.000322656291
0.0003452027395
0.0003786830186
0.0003771985526
0.0003397745551
0.0003030549148
0.0003228443575
0.0003496088768
0.000347490333
0.0003172116812
0.0002877468608
0.0003047418693
0.0003263179902
0.0003239515118
0.0002993568939
0.0002753743552
0.0002898470648
0.0003074539967
0.0003050504845
0.0002849037606
0.0002650265814
0.0002773502761
0.0002919346796
0.0002896409961
0.0002728978688
0.0002560309375
0.0002666868717
0.0002789273953
0.0002767504634
0.0002626108366
0.0002479354954
0.0002576542188
0.0002677933816
0.0002655893946
0.0002534341053
0.0002404042427
0.0002585655592
0.0002602074784
0.0002559674733
0.0002448677632
0.0002329346546
0.001189317957
0.0004684574779
0.0002855682299
0.000242356106
0.0002219523897
2.850153257e-08
2.216544658e-07
3.417518338e-06
5.135543596e-05
0.00068509441
1.606965326e-07
1.093505307e-06
1.348693827e-05
0.0001453726998
0.001139825585
5.528842945e-07
3.361906541e-06
3.453902269e-05
0.0002889235322
0.001581075339
1.562449421e-06
8.704802797e-06
7.664704881e-05
0.0005139594157
0.002148757252
3.880405431e-06
1.997047287e-05
0.0001510533382
0.0008259032272
0.002825792588
8.918031859e-06
4.225355366e-05
0.0002747890578
0.001243103931
0.003581883094
2.001793683e-05
8.793287075e-05
0.0004864616447
0.001791703453
0.004387841148
4.359740614e-05
0.0001770888012
0.0008088731787
0.002433649169
0.00522017151
9.060125637e-05
0.0003324013445
0.001234389896
0.003113425018
0.006031890475
0.0001777247759
0.0005731716621
0.001743492887
0.003810268067
0.006803821524
0.0003359109697
0.0009103948361
0.002304658276
0.004507087667
0.007526945112
0.0005863278552
0.001329679854
0.002898255325
0.005200245889
0.008220251816
0.0009530960594
0.001835448749
0.003533453406
0.005901867064
0.008903432722
0.00147379475
0.002448398324
0.004230223161
0.006629223932
0.009587551639
0.002200334457
0.003201818855
0.005011878439
0.007397711554
0.01027851859
0.003171675701
0.004136722854
0.005910545619
0.008236394809
0.01101165392
0.004406495833
0.005292179366
0.006973259684
0.009198803244
0.0118532081
0.00587705571
0.006670125802
0.008228420314
0.0103298384
0.0128531353
0.007549863443
0.008253393904
0.009676225731
0.01163509365
0.01401518472
0.009367069178
0.009991505328
0.01128056975
0.01308790241
0.01531122637
0.01127195414
0.01182617199
0.01298738521
0.01463962162
0.01669481541
0.01320780717
0.01370064616
0.01474349542
0.01624372618
0.01812802084
0.01514286534
0.01558097244
0.01651515458
0.01787220438
0.01959269425
0.01706574185
0.01745667668
0.0182959115
0.01952521319
0.02109901858
0.01898925217
0.01934221992
0.02010340399
0.0212261466
0.0226754075
0.02095079002
0.02127363603
0.02197206983
0.02300839711
0.02435624589
0.02299427922
0.02329351577
0.02394318241
0.02491170489
0.0261791655
0.02515777406
0.02543905916
0.02605107467
0.02696727227
0.0281725839
0.02746886777
0.02773686409
0.02832153119
0.02919957893
0.03035834312
0.02995282285
0.0302119757
0.03077791493
0.03162966489
0.03275653398
0.03265139372
0.03290554507
0.03346119762
0.03429827518
0.03540630128
0.03565375256
0.03590693955
0.03646032396
0.03729327443
0.03839375335
0.03913440355
0.03938899027
0.03994406703
0.0407748717
0.04186223581
0.04334154385
0.04359001899
0.0441281558
0.04492178815
0.04593635826
0.04831457065
0.04852489893
0.04897325309
0.04961696629
0.05040717733
0.05325268545
0.05338271065
0.05365393649
0.0540269131
0.05445417388
0.05701076316
0.05705120333
0.05712825443
0.05721350776
0.05726846835
0.05911595142
0.0590797618
0.05899073951
0.0588296743
0.05856476002
0.05959996843
0.05949844079
0.05926639877
0.0588891682
0.05833550135
0.0584956969
0.05832537392
0.05794049402
0.05732635861
0.05644603836
0.05531283648
0.05505077852
0.05446518509
0.05355170267
0.05229090217
0.04933517995
0.04902895367
0.04835774081
0.04734438922
0.04600183873
0.04207549889
0.04179061158
0.04116932741
0.04023924342
0.0390199816
0.03476386493
0.03451980039
0.03398844155
0.03319535268
0.03215981061
0.02794604151
0.02774718674
0.02731469848
0.02666818622
0.02582506965
0.02187129944
0.02171485063
0.02137472846
0.02086835608
0.02020969822
0.01667667733
0.01655884139
0.01630277923
0.01592187825
0.0154268382
0.01240922805
0.0123237871
0.01213815258
0.01186209786
0.01150345836
0.009037609581
0.008977841591
0.008847992683
0.008654901994
0.008404048098
0.006469126641
0.006428677529
0.006340794645
0.006210080751
0.006040215719
0.004576172233
0.004549566347
0.004491768871
0.004405747372
0.004293892492
0.003218494906
0.003201444238
0.003164387037
0.003109226246
0.00303745241
0.002266693576
0.002256004648
0.002232769817
0.002198167901
0.002153110967
0.001610496595
0.001603933818
0.001589666758
0.001568412446
0.001540720457
0.001163033253
0.001159092246
0.001150525388
0.00113776162
0.001121128048
0.0008597240501
0.0008574251173
0.000852429575
0.0008449894711
0.0008352977919
0.000654586127
0.0006533059059
0.0006505267102
0.0006463929269
0.0006410174201
0.0005158503831
0.0005151980138
0.0005137851146
0.0005116908193
0.000508980245
0.0004219874403
0.0004217194404
0.000421143106
0.0004202980602
0.0004192208583
0.0003585519298
0.000358516687
0.0003584468815
0.0003583582644
0.0003582701999
0.0003158777637
0.0003159804212
0.0003162105913
0.0003165697092
0.0003170667273
0.0002874751168
0.0002876559243
0.0002880559066
0.0002886680887
0.0002894951139
0.0002689509337
0.0002691719634
0.000269659124
0.0002704007239
0.0002713956221
0.0002573059805
0.0002575430902
0.0002580648169
0.0002588570852
0.000259916551
0.0002504509935
0.0002506887954
0.0002512115623
0.0002520043228
0.0002530625378
0.000246941082
0.0002471699486
0.0002476727851
0.0002484346685
0.000249450513
0.0002457071292
0.0002459211342
0.0002463911401
0.0002471028684
0.0002480511096
0.000246036404
0.0002462323097
0.000246662452
0.0002473135445
0.0002481805114
0.0002472869127
0.0002474631791
0.0002478501276
0.0002484356703
0.000249215052
0.0002488098474
0.0002489687229
0.0002493174547
0.0002498450639
0.0002505471435
0.002455945933
0.002975334169
0.003521056109
0.004395628958
0.005339696162
0.006205970919
0.007022062471
0.007861405228
0.008661045748
0.009379750338
0.01002551954
0.01064911738
0.01126485711
0.01186902306
0.01246238028
0.01309310094
0.01383901289
0.01474768472
0.01581350063
0.01700261112
0.01826882338
0.01958144828
0.02093101511
0.02233522138
0.02382439165
0.02543382998
0.02719950378
0.029147663
0.03129876454
0.03367309012
0.03630725363
0.03928412314
0.04272849171
0.04671759832
0.05098192559
0.05473177907
0.05725201342
0.05829304471
0.05782419867
0.05565545448
0.05122229706
0.04491145333
0.03804112932
0.03133234119
0.02515304626
0.0196857953
0.0150335039
0.01121862541
0.008204812382
0.00590524344
0.004204959134
0.002980328077
0.002117213287
0.001518641098
0.001107861548
0.0008275721117
0.0006367418743
0.0005068375677
0.0004183865214
0.0003582283033
0.0003174931611
0.0002901849932
0.0002722185871
0.0002607894996
0.0002539325265
0.000250284495
0.0002488288472
0.0002488910858
0.0002498535324
0.0002511220972
0.005963402013
0.01954893455
0.002879776748
0.0005184055183
0.0001643239759
0.006566927831
0.01603848498
0.01233680315
0.002026851137
0.0005156675902
0.007321827985
0.01687799843
0.03223987611
0.006107597802
0.001711730708
0.008877851468
0.02115972289
0.04580159373
0.0120409933
0.003539816352
0.01019874339
0.02181604977
0.03774586771
0.01716749902
0.004860987957
0.01103613022
0.02078921603
0.03108464874
0.02508551327
0.007287653823
0.01166773685
0.02036665882
0.03013106119
0.03525112004
0.01196502206
0.01240620494
0.02099201263
0.03196624754
0.04497953891
0.01822111806
0.0130867488
0.02125819793
0.03110842262
0.04101444933
0.02357665007
0.01362304152
0.02111600996
0.02949522205
0.03712807185
0.02932856385
0.01406769089
0.02099398161
0.02864411673
0.03617518474
0.0358555965
0.01453320574
0.02115163233
0.02866099372
0.03690341503
0.04265371478
0.01500643784
0.02132074227
0.02840110645
0.03595190403
0.04182290138
0.01544998153
0.02137772296
0.02781587606
0.03432224456
0.03918113129
0.01586312954
0.02139540457
0.0272975181
0.03321752313
0.03802205511
0.01632020028
0.02153423029
0.02711636647
0.03288499786
0.03818689565
0.01691056963
0.02190197099
0.02733700419
0.03316679007
0.03905389089
0.01767113922
0.02247460158
0.02776657084
0.03349560981
0.03934173803
0.0185800792
0.02317046076
0.02822214364
0.03362782646
0.03900870837
0.01959443975
0.02392805181
0.02867162675
0.03368595028
0.03860037579
0.02067171154
0.02472531834
0.02915384372
0.03382029149
0.03840247884
0.02179420047
0.02557238767
0.0297201729
0.03412287835
0.03851770628
0.02296666254
0.02649800112
0.03041813462
0.03463581155
0.03892954035
0.02421654897
0.02753883475
0.03127725305
0.03535195682
0.03955572439
0.0255753137
0.02872145054
0.03230457043
0.0362424864
0.04031847372
0.02707781516
0.03007595392
0.03351927792
0.03731702689
0.04122538945
0.02875700894
0.03163047327
0.03495020324
0.03860771433
0.04231633651
0.03063607404
0.03340681153
0.03661874914
0.04013578467
0.04361021863
0.03273379537
0.03542289
0.03853711362
0.04189991709
0.04507798411
0.03507047883
0.03769383523
0.04070799554
0.04387288667
0.0466506824
0.03767830917
0.04024330297
0.04312763557
0.04600170256
0.04823250823
0.04063395032
0.04311279027
0.04577921346
0.0482042172
0.04972196387
0.04403114842
0.04632061361
0.04858909666
0.0503556706
0.05101271221
0.04787411446
0.04974473805
0.05135494377
0.05226135016
0.05195236702
0.05181131924
0.05297492379
0.05370338957
0.05362053056
0.05226455346
0.05510962027
0.05543116155
0.05521396109
0.05411328824
0.05165371852
0.05718899653
0.05671420627
0.05560409632
0.05350367435
0.04990940479
0.0578459289
0.05664688026
0.05466674539
0.05151793503
0.04689043774
0.0570112685
0.0550653429
0.05213380274
0.04799711649
0.04292703781
0.05441385312
0.05161226899
0.04786248718
0.04335545969
0.03836922009
0.04958885457
0.04632657653
0.04244533017
0.03811348106
0.03352947429
0.04326908072
0.04014739803
0.03657328498
0.03269503931
0.02867463529
0.03657321167
0.03382771046
0.03073138151
0.02741523029
0.02401543498
0.03009395988
0.02779444719
0.02522147105
0.02248669112
0.01970239507
0.02414859076
0.02229378737
0.02023002203
0.01804809494
0.01583744159
0.01890348413
0.0174621751
0.0158635008
0.01417930059
0.01247775006
0.01444655139
0.01336602993
0.0121695731
0.0109107524
0.009640511382
0.01079373762
0.01001174701
0.009146289698
0.008235870485
0.007317027473
0.007907658751
0.007360430394
0.006754476407
0.006116451982
0.005471595279
0.005703930924
0.005332693376
0.004920975431
0.004486462784
0.004046158562
0.004072282742
0.003827199121
0.003554704184
0.003266460572
0.002973428419
0.002895088781
0.002737188661
0.002561220021
0.002374547438
0.002184181687
0.002063631547
0.00196418708
0.001853110328
0.001734941848
0.00161406898
0.00148567761
0.001424393096
0.001355810743
0.001282700545
0.001207763247
0.001088054124
0.001051196851
0.001009920414
0.0009658968947
0.0009207700743
0.0008160406715
0.0007946011383
0.0007706276239
0.0007451209437
0.0007190716508
0.0006303664156
0.0006185625403
0.000605442903
0.0005916010769
0.0005776268906
0.0005036509475
0.0004978222575
0.0004914537977
0.0004848924913
0.0004784828331
0.0004171565357
0.0004150007161
0.0004127902479
0.0004107222105
0.0004089906332
0.0003581834399
0.0003582533276
0.0003585632677
0.0003592188357
0.0003603214905
0.0003181484177
0.0003195311258
0.0003213242153
0.0003235771109
0.0003263342259
0.0002912336222
0.0002933501587
0.0002959663534
0.0002990972111
0.0003027521578
0.0002734653535
0.0002759464577
0.0002789638424
0.0002825116377
0.000286578156
0.000262109911
0.0002647199064
0.0002678688872
0.0002715386949
0.0002757053732
0.000255247298
0.0002578360492
0.0002609449578
0.0002645491072
0.0002686179974
0.0002515441189
0.0002540181333
0.0002569802961
0.0002604025024
0.0002642514
0.0002500030985
0.0002523053446
0.0002550560783
0.0002582263863
0.0002617825251
0.0002499635847
0.0002520637069
0.0002545689513
0.0002574510384
0.0002606773119
0.0002508171072
0.0002527019514
0.0002549478698
0.0002575282811
0.0002604126924
0.0002519896989
0.0002536855647
0.0002557045932
0.0002580220313
0.0002606095913
1.852282569e-05
2.300830154e-06
3.623873857e-07
8.24683445e-08
2.760467649e-08
1.214575367e-08
6.512401832e-09
3.968331388e-09
2.556180614e-09
1.675497667e-09
1.099486488e-09
7.179831536e-10
4.651659759e-10
2.983373625e-10
1.890920185e-10
1.18262668e-10
7.291076558e-11
4.42739117e-11
2.646551313e-11
1.556647299e-11
9.00605353e-12
5.123889613e-12
2.866120859e-12
1.576038219e-12
8.521107348e-13
4.532983493e-13
2.375990412e-13
1.230157419e-13
6.316598153e-14
3.2364166e-14
1.669215162e-14
8.768194774e-15
4.756768064e-15
2.702216287e-15
1.623086691e-15
1.03239129e-15
6.899127778e-16
4.772988716e-16
3.361272821e-16
2.373637014e-16
1.662206292e-16
1.146357123e-16
7.761756051e-17
5.158901699e-17
3.373008442e-17
2.176866762e-17
1.392368319e-17
8.862154437e-18
5.634129985e-18
3.590360079e-18
2.301008743e-18
1.487581913e-18
9.717346018e-19
6.399644068e-19
4.205254875e-19
2.687766494e-19
1.579731938e-19
7.598200614e-20
2.116721156e-20
2.013941358e-21
9.366035283e-05
1.176887312e-05
1.861444165e-06
5.007955396e-07
2.284101949e-07
1.342520707e-07
8.42914846e-08
5.401207801e-08
3.415119647e-08
2.135395652e-08
1.312990052e-08
7.974484212e-09
4.789512213e-09
2.851896886e-09
1.685816034e-09
9.899734674e-10
5.776358679e-10
3.34725967e-10
1.925020741e-10
1.097510066e-10
6.195663304e-11
3.459357495e-11
1.908707968e-11
1.039837539e-11
5.591086979e-12
2.967651427e-12
1.556458127e-12
8.082097214e-13
4.168949718e-13
2.14737388e-13
1.113094561e-13
5.868638279e-14
3.188592603e-14
1.80967361e-14
1.084011896e-14
6.872968737e-15
4.581608311e-15
3.165644925e-15
2.228848186e-15
1.574703347e-15
1.103754533e-15
7.622142287e-16
5.16986185e-16
3.444079087e-16
2.258389433e-16
1.462720643e-16
9.394615202e-17
6.006776306e-17
3.836960998e-17
2.456458535e-17
1.581048869e-17
1.025972089e-17
6.722613076e-18
4.437292307e-18
2.919447554e-18
1.867080419e-18
1.100570351e-18
5.37821718e-19
1.656777242e-19
2.129581131e-20
0.0003479850827
3.896536343e-05
5.644695723e-06
1.996826239e-06
1.14933206e-06
7.631090056e-07
5.094881847e-07
3.38820596e-07
2.195922822e-07
1.397569895e-07
8.661145814e-08
5.256170484e-08
3.118136776e-08
1.814716886e-08
1.03775702e-08
5.850860664e-09
3.262832603e-09
1.805343222e-09
9.937541279e-10
5.448848485e-10
2.976464173e-10
1.618452527e-10
8.750899645e-11
4.699295478e-11
2.503941381e-11
1.323337993e-11
6.939031199e-12
3.613882632e-12
1.873636208e-12
9.707327338e-13
5.056080324e-13
2.670831835e-13
1.447446151e-13
8.154125823e-14
4.831236193e-14
3.027590062e-14
1.998631828e-14
1.371848128e-14
9.62402707e-15
6.790480856e-15
4.761157626e-15
3.293024628e-15
2.239412422e-15
1.497250424e-15
9.862930518e-16
6.423270657e-16
4.15162464e-16
2.672859827e-16
1.719574976e-16
1.108620083e-16
7.181921947e-17
4.686812331e-17
3.084712075e-17
2.042210482e-17
1.345449728e-17
8.603735967e-18
5.078377335e-18
2.498194789e-18
8.015652188e-19
1.153629421e-19
0.001119368896
0.0002057712211
2.738066381e-05
7.7178895e-06
4.425586204e-06
3.007917973e-06
2.073147492e-06
1.412450785e-06
9.43411372e-07
6.178542988e-07
3.952073574e-07
2.471666493e-07
1.508278956e-07
8.992639785e-08
5.234653996e-08
2.980748983e-08
1.66218317e-08
9.106828323e-09
4.917254178e-09
2.627055424e-09
1.393296071e-09
7.354337486e-10
3.868756598e-10
2.029608471e-10
1.061987332e-10
5.54097231e-11
2.88232397e-11
1.495157381e-11
7.74192872e-12
4.010598367e-12
2.08695929e-12
1.097798163e-12
5.891504841e-13
3.264253571e-13
1.891240684e-13
1.156339228e-13
7.462457625e-14
5.031131081e-14
3.485329878e-14
2.439897047e-14
1.703941671e-14
1.177553841e-14
8.022545745e-15
5.385484729e-15
3.568524947e-15
2.341130401e-15
1.525868282e-15
9.911373628e-16
6.43354325e-16
4.183398786e-16
2.731640295e-16
1.795009284e-16
1.187937078e-16
7.893812422e-17
5.209054323e-17
3.330442468e-17
1.967427383e-17
9.728042888e-18
3.206165782e-18
5.046707728e-19
0.001974780432
0.0005549571335
0.0001018284575
2.410297655e-05
1.266131741e-05
8.590924831e-06
6.059168535e-06
4.250702919e-06
2.946019112e-06
2.012023831e-06
1.350043238e-06
8.886801681e-07
5.724942233e-07
3.607036661e-07
2.218155952e-07
1.331493312e-07
7.792092862e-08
4.450419149e-08
2.48087466e-08
1.353165539e-08
7.235784514e-09
3.80801702e-09
1.978733489e-09
1.019098374e-09
5.218366026e-10
2.663848719e-10
1.357958307e-10
6.920578439e-11
3.528881182e-11
1.802475384e-11
9.242082571e-12
4.775463664e-12
2.502851908e-12
1.343800526e-12
7.486389622e-13
4.380185248e-13
2.705444388e-13
1.754063516e-13
1.177175299e-13
8.046753494e-14
5.527974367e-14
3.782747852e-14
2.566229163e-14
1.723559945e-14
1.147105312e-14
7.581388552e-15
4.987464103e-15
3.272505829e-15
2.145477943e-15
1.407924961e-15
9.266639187e-16
6.129094096e-16
4.076312735e-16
2.717332873e-16
1.795639941e-16
1.148185286e-16
6.789742609e-17
3.377642338e-17
1.140111817e-17
1.979877976e-18
0.003006517536
0.001180054605
0.0003212605135
7.108862382e-05
3.039459132e-05
1.94581717e-05
1.373951016e-05
9.852141582e-06
7.064149598e-06
5.035134915e-06
3.552820925e-06
2.473713329e-06
1.694922329e-06
1.140570707e-06
7.520279027e-07
4.850760225e-07
3.055009223e-07
1.876632187e-07
1.12238261e-07
6.535837884e-08
3.703564024e-08
2.045468753e-08
1.101927388e-08
5.805805422e-09
2.998977816e-09
1.525112179e-09
7.665280705e-10
3.823799911e-10
1.900208759e-10
9.438609439e-11
4.700334988e-11
2.354411207e-11
1.19176817e-11
6.14263131e-12
3.260173144e-12
1.803956123e-12
1.048903811e-12
6.400668172e-13
4.061640361e-13
2.646571467e-13
1.750291236e-13
1.164902245e-13
7.760520857e-14
5.161429956e-14
3.426005442e-14
2.271463225e-14
1.505396074e-14
9.975399729e-15
6.609746623e-15
4.381363894e-15
2.908593782e-15
1.936618142e-15
1.29394924e-15
8.649612649e-16
5.724925606e-16
3.666971731e-16
2.177036873e-16
1.095509298e-16
3.81050153e-17
7.374964262e-18
0.004261867765
0.001982031246
0.0007474999167
0.0002053614499
6.592146555e-05
3.633740134e-05
2.491826433e-05
1.805083993e-05
1.326887593e-05
9.775598247e-06
7.176639319e-06
5.231898125e-06
3.777641835e-06
2.695669582e-06
1.897298614e-06
1.314395958e-06
8.941068094e-07
5.957693631e-07
3.878319641e-07
2.461960569e-07
1.521013481e-07
9.135805523e-08
5.327305751e-08
3.01499966e-08
1.6557674e-08
8.838761129e-09
4.593554277e-09
2.330984093e-09
1.159060579e-09
5.675879168e-10
2.753054719e-10
1.331061028e-10
6.45928916e-11
3.171762257e-11
1.592873293e-11
8.285945472e-12
4.503658021e-12
2.55678264e-12
1.506494982e-12
9.137336586e-13
5.665226291e-13
3.57535987e-13
2.288920533e-13
1.481679073e-13
9.67915997e-14
6.374699943e-14
4.227153245e-14
2.816719981e-14
1.882177671e-14
1.259508049e-14
8.437333985e-15
5.660510447e-15
3.803206987e-15
2.551777451e-15
1.693966447e-15
1.08992849e-15
6.529830058e-16
3.352540374e-16
1.218636424e-16
2.656815045e-17
0.005821792775
0.002875656589
0.001377234577
0.0004959961462
0.0001518383318
6.510873653e-05
4.004673462e-05
2.838611434e-05
2.100224046e-05
1.575421638e-05
1.185260742e-05
8.897551456e-06
6.644832764e-06
4.927211948e-06
3.622101724e-06
2.636100624e-06
1.896581527e-06
1.346885632e-06
9.422307503e-07
6.476542211e-07
4.361217785e-07
2.867856454e-07
1.835319266e-07
1.13996541e-07
6.858625573e-08
3.992613939e-08
2.246647221e-08
1.221740621e-08
6.424536579e-09
3.274476985e-09
1.622944702e-09
7.862983533e-10
3.751918934e-10
1.781166753e-10
8.515213884e-11
4.160282861e-11
2.106074482e-11
1.107779664e-11
6.017099821e-12
3.352837963e-12
1.91033035e-12
1.113847685e-12
6.665027745e-13
4.096399329e-13
2.582097273e-13
1.664536553e-13
1.092512445e-13
7.261822561e-14
4.865264353e-14
3.274412221e-14
2.20933396e-14
1.493125183e-14
1.009755671e-14
6.811400301e-15
4.543969718e-15
2.943023907e-15
1.783949841e-15
9.368713267e-16
3.569330919e-16
8.734955377e-17
0.007824997487
0.003671079208
0.00199978078
0.0009376695667
0.0003287278521
0.0001184091404
6.191107775e-05
4.123584639e-05
3.015986177e-05
2.278096932e-05
1.740231936e-05
1.332948804e-05
1.019422622e-05
7.765757009e-06
5.883270511e-06
4.427286906e-06
3.305745354e-06
2.446450244e-06
1.792272458e-06
1.297828877e-06
9.27188245e-07
6.520726219e-07
4.503329609e-07
3.044041994e-07
2.006336506e-07
1.284665208e-07
7.958449958e-08
4.754991032e-08
2.734889484e-08
1.513339585e-08
8.056154829e-09
4.131185274e-09
2.048111349e-09
9.884789721e-10
4.689839551e-10
2.213968003e-10
1.056060151e-10
5.15834274e-11
2.581667482e-11
1.317746749e-11
6.854971381e-12
3.651091463e-12
2.004157851e-12
1.141568847e-12
6.772106009e-13
4.187075192e-13
2.6817168e-13
1.760492567e-13
1.173678171e-13
7.897840717e-14
5.345576764e-14
3.631627772e-14
2.471452786e-14
1.678294333e-14
1.127826793e-14
7.373555568e-15
4.535483857e-15
2.444223235e-15
9.802711768e-16
2.6822476e-16
0.01092295734
0.004599854504
0.002599069236
0.001417472859
0.0006288117398
0.0002237583232
9.729344806e-05
5.856597435e-05
4.139983197e-05
3.111356023e-05
2.393394512e-05
1.857578741e-05
1.445161593e-05
1.123118698e-05
8.701293053e-06
6.711106941e-06
5.147572716e-06
3.922942977e-06
2.967717e-06
2.226339009e-06
1.653874787e-06
1.215217842e-06
8.814175803e-07
6.296370149e-07
4.417817095e-07
3.035473735e-07
2.035986885e-07
1.328134502e-07
8.390658413e-08
5.112139717e-08
2.991891459e-08
1.677674852e-08
9.011831479e-09
4.648504461e-09
2.313855358e-09
1.119003647e-09
5.298731501e-10
2.484300712e-10
1.165627772e-10
5.505854657e-11
2.622364111e-11
1.26902308e-11
6.330317212e-12
3.299633448e-12
1.809623143e-12
1.048956205e-12
6.423286781e-13
4.106744491e-13
2.700072356e-13
1.804797391e-13
1.218779677e-13
8.288897631e-14
5.662763266e-14
3.869216993e-14
2.622137996e-14
1.734583828e-14
1.085780102e-14
6.025373935e-15
2.555944441e-15
7.766534027e-16
0.01522819127
0.005860924566
0.003230132667
0.001917051424
0.001013114183
0.0004208419013
0.0001642640215
8.48994931e-05
5.615832718e-05
4.137953691e-05
3.178107014e-05
2.483215962e-05
1.954093906e-05
1.540844883e-05
1.213949443e-05
9.538828193e-06
7.46658668e-06
5.815907842e-06
4.506480385e-06
3.470515337e-06
2.653265777e-06
2.011092525e-06
1.508969062e-06
1.118793693e-06
8.179915313e-07
5.883978562e-07
4.153564387e-07
2.869572055e-07
1.934300635e-07
1.267877481e-07
8.053160884e-08
4.93736149e-08
2.909895427e-08
1.643419002e-08
8.886781628e-09
4.609103478e-09
2.299106874e-09
1.105638232e-09
5.149367025e-10
2.343052865e-10
1.053661871e-10
4.728608342e-11
2.148157765e-11
1.010591575e-11
5.039895197e-12
2.695796174e-12
1.547614701e-12
9.452400943e-13
6.043003828e-13
3.977293238e-13
2.664580386e-13
1.805923006e-13
1.233778429e-13
8.459720885e-14
5.775722871e-14
3.867913043e-14
2.468973519e-14
1.415107584e-14
6.375364199e-15
2.133524216e-15
0.0203556068
0.007677014284
0.003921815236
0.00239677024
0.00142939884
0.0007372409152
0.0003073910243
0.0001347163812
7.785198199e-05
5.43413088e-05
4.108113115e-05
3.205918418e-05
2.536994623e-05
2.019381969e-05
1.609465606e-05
1.282315862e-05
1.019987957e-05
8.088586199e-06
6.388491481e-06
5.021222205e-06
3.923022411e-06
3.043037252e-06
2.340477629e-06
1.782286659e-06
1.341529905e-06
9.962082616e-07
7.283081249e-07
5.22998922e-07
3.679843134e-07
2.530125368e-07
1.695169047e-07
1.103466369e-07
6.956589597e-08
4.233756212e-08
2.480176598e-08
1.395395606e-08
7.525567727e-09
3.882505773e-09
1.91287993e-09
8.995649868e-10
4.058903455e-10
1.778201272e-10
7.681114223e-11
3.339179641e-11
1.504210878e-11
7.252434131e-12
3.814764339e-12
2.185670055e-12
1.339381664e-12
8.586092329e-13
5.66148282e-13
3.802813312e-13
2.58729455e-13
1.774032794e-13
1.21676677e-13
8.237166085e-14
5.364661387e-14
3.183881199e-14
1.528658694e-14
5.587767165e-15
0.02475080129
0.00987492404
0.004673770302
0.002855000221
0.001802963958
0.001070413881
0.0005481142473
0.0002400766391
0.0001168736402
7.204006832e-05
5.160176204e-05
3.947543573e-05
3.103397531e-05
2.476567321e-05
1.982210267e-05
1.598268288e-05
1.288761352e-05
1.037330871e-05
8.323052673e-06
6.649811153e-06
5.285268469e-06
4.174660549e-06
3.273338331e-06
2.544626769e-06
1.958338243e-06
1.489571999e-06
1.117747086e-06
8.257587748e-07
5.992993203e-07
4.26310806e-07
2.965422363e-07
2.012216644e-07
1.328565066e-07
8.513026066e-08
5.280627834e-08
3.16294233e-08
1.824569469e-08
1.010506909e-08
5.352603813e-09
2.702772579e-09
1.297679378e-09
5.931050752e-10
2.598789379e-10
1.106555114e-10
4.703952775e-11
2.069382181e-11
9.783449254e-12
5.107861137e-12
2.939518144e-12
1.817898147e-12
1.174869447e-12
7.789523593e-13
5.253254989e-13
3.586369876e-13
2.462391471e-13
1.680705804e-13
1.115871125e-13
6.874081899e-14
3.528368424e-14
1.399375832e-14
0.02891937106
0.01267171416
0.005670220548
0.003342746481
0.002177755832
0.001390146979
0.0008261050673
0.0004303006794
0.0001999640203
0.0001025063824
6.370464486e-05
4.531016218e-05
3.457753931e-05
2.734644169e-05
2.185484667e-05
1.772551848e-05
1.441235345e-05
1.172217784e-05
9.519215547e-06
7.707173664e-06
6.214491115e-06
4.985547958e-06
3.975672984e-06
3.148073474e-06
2.472111458e-06
1.922173263e-06
1.477017586e-06
1.119228564e-06
8.345173267e-07
6.109231796e-07
4.381122742e-07
3.070902903e-07
2.099825991e-07
1.398074491e-07
9.04675779e-08
5.678246336e-08
3.448991163e-08
2.021861554e-08
1.140147093e-08
6.160638112e-09
3.176659906e-09
1.557047279e-09
7.247906315e-10
3.217805614e-10
1.381010309e-10
5.881735644e-11
2.582908316e-11
1.222004547e-11
6.422780156e-12
3.740467558e-12
2.346374004e-12
1.536162744e-12
1.029043462e-12
6.992369185e-13
4.794958308e-13
3.290705544e-13
2.221586446e-13
1.419708016e-13
7.803663216e-14
3.352010337e-14
0.03331097367
0.01606371765
0.007067155804
0.003906942475
0.002558981752
0.001709999139
0.001102689857
0.0006656089193
0.0003588060885
0.0001712553843
8.508071528e-05
5.013955708e-05
3.446413587e-05
2.608026864e-05
2.058549314e-05
1.660621923e-05
1.354203711e-05
1.109870168e-05
9.109650078e-06
7.470894825e-06
6.111973783e-06
4.981731434e-06
4.041030122e-06
3.258767619e-06
2.609498085e-06
2.072160598e-06
1.629153686e-06
1.265658438e-06
9.692720653e-07
7.299133545e-07
5.393174475e-07
3.900666789e-07
2.754484856e-07
1.895782188e-07
1.270180797e-07
8.272332919e-08
5.230024072e-08
3.205342213e-08
1.899783037e-08
1.085403509e-08
5.954938561e-09
3.124570948e-09
1.562145006e-09
7.429208504e-10
3.369399689e-10
1.474707476e-10
6.398018055e-11
2.869975708e-11
1.394156854e-11
7.535042252e-12
4.498785778e-12
2.878951711e-12
1.91572589e-12
1.30183761e-12
8.953428785e-13
6.186241918e-13
4.238791958e-13
2.798128866e-13
1.64287679e-13
7.66714314e-14
0.03795232161
0.01992723735
0.008902215687
0.004611287545
0.002954964515
0.002024810532
0.001374339536
0.0008994620331
0.0005560754816
0.0003084243204
0.0001448726753
6.432488752e-05
3.403455584e-05
2.226750916e-05
1.652012601e-05
1.301709742e-05
1.055308336e-05
8.678506011e-06
7.186945092e-06
5.968265533e-06
4.956727837e-06
4.109358957e-06
3.395874732e-06
2.793615715e-06
2.284848245e-06
1.855262437e-06
1.493144002e-06
1.188839934e-06
9.343272575e-07
7.230434643e-07
5.496678538e-07
4.095891004e-07
2.98539704e-07
2.123661445e-07
1.471525851e-07
9.920502677e-08
6.49985466e-08
4.135149316e-08
2.551188307e-08
1.523887445e-08
8.793085491e-09