/*--------------------------------*- C++ -*----------------------------------*\
  =========                 |
  \\      /  F ield         | OpenFOAM: The Open Source CFD Toolbox
   \\    /   O peration     | Website:  https://openfoam.org
    \\  /    A nd           | Version:  10
     \\/     M anipulation  |
\*---------------------------------------------------------------------------*/
FoamFile
{
    format      ascii;
    class       volScalarField;
    location    "3000";
    object      CO2;
}
// * * * * * * * * * * * * * * * * * * * * * * * * * * * * * * * * * * * * * //

dimensions      [0 0 0 0 0 0 0];

internalField   nonuniform List<scalar> 
5170
(
6.905614616e-57
3.285199844e-57
3.542053278e-57
4.326507965e-57
0
2.281117607e-55
1.824953373e-55
1.143016293e-55
6.668062605e-56
1.328081547e-55
7.483311237e-53
5.933382359e-53
3.611824206e-53
2.840887607e-53
8.558327009e-53
2.617639076e-50
2.073785486e-50
1.302676399e-50
1.459981961e-50
6.175038974e-50
9.332038804e-48
7.45712196e-48
5.021636843e-48
7.950529355e-48
4.154893403e-47
3.404347687e-45
2.778426006e-45
2.052541175e-45
4.456946143e-45
2.639425672e-44
1.269403568e-42
1.067313962e-42
9.005212426e-43
2.541605008e-42
1.61846724e-41
4.831052647e-40
4.231695219e-40
4.254430835e-40
1.468036108e-39
9.698311801e-39
1.881653211e-37
1.751690479e-37
2.114214528e-37
8.56837221e-37
5.712038365e-36
7.513042882e-35
7.564909992e-35
1.092723783e-34
5.062543699e-34
3.320213541e-33
3.068602801e-32
3.396304732e-32
5.838718932e-32
3.022681719e-31
1.910523727e-30
1.276502468e-29
1.579953058e-29
3.227558739e-29
1.821166582e-28
1.09095196e-27
5.386970914e-27
7.566786004e-27
1.851349836e-26
1.114293071e-25
6.192993812e-25
2.288227757e-24
3.69789823e-24
1.091549896e-23
6.929885312e-23
3.501451702e-22
9.739883827e-22
1.828590499e-21
6.521460127e-21
4.360983025e-20
1.974557428e-19
4.088843367e-19
9.005605346e-19
3.868916301e-18
2.687541386e-17
1.111935226e-16
1.684576007e-16
4.406134522e-16
2.2216567e-15
1.605473206e-14
6.267751575e-14
6.660498295e-14
2.101724076e-13
1.234680715e-12
9.123684038e-12
3.53401553e-11
2.421111504e-11
9.568297926e-11
6.453732769e-10
4.830815538e-09
2.000563382e-08
7.541240536e-09
4.214621821e-08
3.284724626e-07
2.34151769e-06
1.150882508e-05
0.1120345215
0.1118031297
0.1117141712
0.1118650549
0.1120537565
0.1133219112
0.1130046711
0.1129122631
0.1130902939
0.1133874617
0.114074646
0.1137693897
0.1136906607
0.1138570654
0.1141625668
0.1145531466
0.1142793056
0.1142182882
0.1143810261
0.1146592721
0.1148752919
0.1146382309
0.1145911339
0.1147524307
0.1150005204
0.1151000032
0.1149016315
0.1148663334
0.1150220822
0.1152358909
0.1152638843
0.1151016908
0.115077209
0.1152213013
0.1153992321
0.1153867391
0.1152558612
0.1152405684
0.115367827
0.1155123764
0.1154802086
0.1153754311
0.1153674718
0.1154754231
0.1155911179
0.1155522636
0.1154688784
0.115466024
0.1155552131
0.1156469939
0.115608289
0.1155421086
0.1155425437
0.115615183
0.1156877919
0.1156523671
0.1155997634
0.1156020958
0.1156608959
0.1157185893
0.1156874963
0.1156454443
0.1156487729
0.1156963464
0.1157426411
0.1157159387
0.1156820386
0.1156857568
0.1157243996
0.1157620806
0.1157393412
0.1157116774
0.1157154538
0.1157471081
0.1157783389
0.115758976
0.1157360612
0.115739665
0.1157659716
0.1157924727
0.1157757337
0.115756499
0.1157599185
0.1157821339
0.1158051908
0.1157902124
0.1157740666
0.115777458
0.1157965076
0.1158169189
0.115809824
0.115791382
0.1157926685
0.1158066102
0.115820817
0.1158855024
0.1158351137
0.1157297877
0.1155735667
0.1152632391
2.826743743e-07
2.1871326e-06
3.363042894e-05
0.0005059214053
0.006791732073
1.539293226e-06
1.033648422e-05
0.0001255249171
0.001326828742
0.0100760053
5.067071331e-06
3.013171406e-05
0.0003003834744
0.002405544251
0.012233166
1.339186418e-05
7.198649383e-05
0.0006025772752
0.003746453297
0.0138546102
3.053310763e-05
0.0001493877756
0.0010524603
0.005185097509
0.0151816295
6.336782139e-05
0.000281720901
0.001679609661
0.006728131454
0.01651009167
0.0001267130324
0.0005166314052
0.002595450369
0.008442716054
0.01788966451
0.0002458062721
0.0009206896833
0.003810272436
0.01018014958
0.01922677522
0.0004588698448
0.001549885546
0.005224232744
0.01180284029
0.02043684146
0.0008169623334
0.002429582553
0.006733046457
0.01331596372
0.02155734124
0.001410463015
0.003548265171
0.00823540216
0.01473212082
0.02260931883
0.002272259848
0.004818984202
0.009695415581
0.01606953797
0.02360247496
0.003431982691
0.006229976962
0.01115424909
0.0173655296
0.0245625188
0.00495177558
0.007823609348
0.01267859529
0.01868149136
0.02554562898
0.006924361462
0.009678066723
0.01434427774
0.02008324593
0.02660320252
0.009399089945
0.01188869701
0.01624479714
0.02165809038
0.02781845292
0.0123805679
0.01453859313
0.01849329054
0.02352225535
0.02930206445
0.01577454343
0.0176127111
0.02113769494
0.02574882318
0.03111961386
0.01948763846
0.02104799729
0.02415017989
0.02832139652
0.03326034768
0.02338330645
0.02471528129
0.02743106033
0.03116899387
0.03566989286
0.0273410567
0.02848395978
0.03085697509
0.03418614139
0.03825832044
0.03125152045
0.0322393003
0.03431569927
0.03727155423
0.04093705446
0.03505836938
0.03591504908
0.03773270304
0.04035167699
0.04363802117
0.03873857786
0.03948475503
0.04107986592
0.04339957778
0.04634085227
0.0423057698
0.04296131059
0.04436921194
0.04643073484
0.04906502941
0.04581049277
0.04639056163
0.04764007621
0.04947983785
0.051846666
0.04930708321
0.04982361015
0.05093998535
0.05259083615
0.05472686414
0.05283095232
0.05329406448
0.05429708587
0.05578643155
0.05772354935
0.05638632725
0.05680373178
0.05771011512
0.05906058652
0.06082371862
0.05995387951
0.06033221851
0.06115493589
0.06238368318
0.06399296308
0.06350786705
0.06385192084
0.06460108994
0.06572228099
0.06719449213
0.0670331097
0.06734715299
0.06803169742
0.06905780157
0.0704077521
0.07054002125
0.07082754182
0.07145459303
0.07239492581
0.07363232731
0.07405672361
0.0743187341
0.07488983693
0.07574495923
0.0768672859
0.07756097036
0.07779362437
0.07829994095
0.0790562908
0.08004625112
0.08086504069
0.08106528204
0.08150162359
0.0821551446
0.08301462943
0.08381037976
0.08398672638
0.08437266534
0.08495520355
0.08572983447
0.08652171175
0.08668814433
0.08705399349
0.08761040415
0.08835792322
0.08926731246
0.08943600796
0.089808082
0.09037725856
0.0911480146
0.09234266707
0.09252569053
0.09293052923
0.09355280946
0.09440059443
0.09620508658
0.09641695298
0.09688443064
0.09759817462
0.09855634876
0.1013006626
0.1015150458
0.1019814055
0.1026757762
0.1035771763
0.1067727712
0.1069495058
0.1073313445
0.1078931505
0.1086108575
0.1118269932
0.1119540616
0.1122269717
0.1126241185
0.1131232816
0.116068115
0.1161438446
0.1163047309
0.1165345109
0.1168142973
0.119257836
0.1192854751
0.1193417402
0.1194151535
0.1194910871
0.121246645
0.1212322632
0.1211972884
0.1211352164
0.1210356122
0.1219863644
0.1219382343
0.1218301265
0.1216598455
0.1214207304
0.1215364463
0.1214636147
0.1213020854
0.1210530463
0.1207129154
0.1200457721
0.1199568348
0.1197605685
0.1194605731
0.1190555533
0.1177171807
0.1176194705
0.1174043638
0.1170770439
0.1166377575
0.1147728145
0.1146719266
0.1144501632
0.1141134893
0.1136631387
0.1114177589
0.1113176775
0.1110978674
0.1107646223
0.1103197037
0.1078263587
0.107729655
0.1075173612
0.1071957621
0.1067668467
0.1041346504
0.1040428205
0.1038412764
0.1035360874
0.1031292841
0.1004413038
0.1003550824
0.1001658679
0.09987940133
0.09949764836
0.09681314788
0.09673276725
0.09655637529
0.09628933316
0.09593348591
0.09329225053
0.09321763616
0.09305389316
0.0928059902
0.09247562867
0.08990278802
0.0898336932
0.08968205444
0.08945245667
0.0891464528
0.08665660174
0.08659269437
0.0864524296
0.08624002907
0.08595690246
0.0835576539
0.08349857067
0.08336888378
0.0831724768
0.08291062591
0.08060461233
0.08054998641
0.08043007335
0.08024844559
0.08000625762
0.07779365191
0.07774313272
0.07763222638
0.07746422043
0.07724015929
0.07511840284
0.07507165843
0.0749690311
0.07481354823
0.07460615571
0.07257340351
0.07253013051
0.07243511908
0.07229115946
0.07209910941
0.07014997674
0.07010988892
0.07002186557
0.06988848126
0.06971051569
0.0678453477
0.06780819907
0.06772662681
0.06760300837
0.06743805314
0.06565139063
0.06561693317
0.06554126647
0.06542658932
0.06527355027
0.06359692764
0.06356496551
0.0634947782
0.06338839924
0.06324641974
0.06186338911
0.06183348891
0.06176782137
0.06166828072
0.0615354097
0.02466218527
0.02454340705
0.02423144535
0.02413181792
0.02432709529
0.02487714593
0.02563362983
0.02639387853
0.02709973748
0.02779736618
0.02848779628
0.02915361363
0.02980994284
0.03051404998
0.03130643806
0.03226582856
0.03349148708
0.03503736985
0.03689444907
0.03901726371
0.04132202573
0.04372589629
0.0461646918
0.04862436564
0.05112707409
0.05371299226
0.05642223177
0.05926900303
0.0622363617
0.06528701099
0.06838178951
0.07149843329
0.07463160932
0.07777034584
0.08084106612
0.08371019
0.08636572002
0.08897928861
0.09179496596
0.09511641275
0.09934297287
0.1042893686
0.1091668741
0.1135014107
0.1170162795
0.1195307471
0.1209364656
0.1212119589
0.1204253049
0.118717797
0.1162740484
0.1132918048
0.1099537068
0.1064144746
0.1027953065
0.09918433068
0.09564144951
0.09220448873
0.08889526678
0.08572445164
0.08269559832
0.07980733512
0.07705608732
0.07443574378
0.0719412749
0.069564232
0.06730244203
0.06514772013
0.06312966519
0.06142612837
0.06045007019
0.1083219288
0.1109974517
0.1012545749
0.0765769161
0.05018055416
0.08623275937
0.1117026586
0.09374779876
0.05856756194
0.04516349302
0.0746824733
0.1044772031
0.09597919653
0.0533532179
0.04194539135
0.0671148675
0.09096354481
0.1006423362
0.06283967111
0.04002339804
0.06269648704
0.08557093333
0.1042385562
0.07510693971
0.03905073884
0.06008964834
0.08224112224
0.1045782
0.08750448371
0.0384984528
0.05799284309
0.07881734604
0.1003720471
0.09687448577
0.03807418305
0.05581643164
0.07421368139
0.0919612858
0.1009808996
0.03779245003
0.05411425151
0.0710608193
0.08814304942
0.1023292494
0.03769767649
0.05293574648
0.06896772251
0.08572335835
0.1015878604
0.03772470971
0.05203102003
0.0671983874
0.08317790852
0.09873300716
0.03780504284
0.05120061096
0.06526952166
0.07974142262
0.09342594403
0.03793522868
0.05049621148
0.06361419605
0.07706011944
0.09022831093
0.03816870124
0.05002109169
0.06243941575
0.07532649899
0.08846862752
0.03852999024
0.04976224929
0.06160337391
0.07400751018
0.08684319667
0.0390892005
0.04974498951
0.06100863696
0.07281090698
0.0849702056
0.03991040822
0.04997482855
0.06059519994
0.07163790011
0.08284608549
0.04102513688
0.05046915822
0.06042908294
0.07073616458
0.08116283015
0.04243424532
0.0512624098
0.06059731106
0.07029328656
0.0802051281
0.04410689379
0.05233582496
0.06109309724
0.07025914446
0.07973646737
0.04597100764
0.05361923213
0.06182715879
0.0704839675
0.07949747219
0.0479519386
0.05502832329
0.06268806206
0.07081778572
0.07932097929
0.04999181578
0.05650885487
0.0636224101
0.07121220852
0.07916848081
0.0520840321
0.05806691805
0.0646513353
0.07170934363
0.07911539762
0.05425371616
0.05973931969
0.0658271993
0.07238758093
0.07928988029
0.05654497568
0.06157944205
0.06721382775
0.07332398339
0.07978009879
0.05899611592
0.06362717389
0.06885356337
0.07455756105
0.08060877542
0.06161580339
0.06588458955
0.07073915564
0.07606599156
0.08173059491
0.06438154203
0.06832176715
0.07283117997
0.07779821033
0.08308142388
0.06725193223
0.07089029144
0.07507342793
0.0796877853
0.08458720761
0.07018437367
0.07354314093
0.07741253061
0.08167454729
0.08619105794
0.07315375873
0.07624666416
0.07980369323
0.0837064662
0.08785094289
0.07614660744
0.07897115698
0.08220225348
0.08574131757
0.08954616675
0.07913666406
0.08167051963
0.08456289634
0.08776330377
0.09129517819
0.082042316
0.08427933007
0.0868698389
0.08981714256
0.09319002777
0.08476420515
0.0867723393
0.0891691362
0.09199567575
0.09534733562
0.08733362556
0.0892318546
0.09156711273
0.09440559359
0.09784730566
0.0899286426
0.09183544379
0.09423706459
0.09721321524
0.1007528699
0.09278627972
0.09481379694
0.09739905996
0.1005278614
0.1038891466
0.09621392076
0.09845383059
0.1011761921
0.1041463049
0.1070563554
0.1005308714
0.102775914
0.1052601892
0.1077707148
0.1100737369
0.1053495507
0.1072484915
0.1092431218
0.1111504235
0.1127788181
0.1099879445
0.1114059415
0.1128240251
0.1140850394
0.1150308779
0.1140542667
0.1149609507
0.1157927834
0.1164196357
0.1167152727
0.1173050185
0.1177181125
0.1179963036
0.1180373903
0.1177454496
0.1195770253
0.1195440964
0.1193306987
0.1188613635
0.1180674984
0.1207760646
0.1203672901
0.1197458732
0.1188600828
0.1176649013
0.1208888196
0.1201874347
0.1192531698
0.1180541034
0.1165640283
0.1199855142
0.1190770706
0.1179254472
0.1165140131
0.1148307193
0.1182041643
0.1171672461
0.1158848587
0.1143515177
0.1125649165
0.1157225976
0.1146227808
0.113281261
0.111699426
0.1098816612
0.1127297459
0.1116166679
0.1102695983
0.1086943815
0.1068991313
0.1094002857
0.10830852
0.1069932679
0.1054627816
0.1037270852
0.1058819682
0.1048337128
0.1035741294
0.1021124423
0.1004593574
0.1022907625
0.1012986248
0.1001080591
0.09872840587
0.09717028135
0.09871107484
0.09778086465
0.09666523982
0.09537317001
0.09391474584
0.09520036485
0.09433342837
0.09329378977
0.09208980129
0.09073081306
0.09179496508
0.09098991709
0.09002432547
0.08890582624
0.08764295062
0.08851586641
0.08776981221
0.08687468438
0.08583738882
0.08466563769
0.08537332937
0.08468263157
0.08385358303
0.08289239107
0.08180599055
0.08237077121
0.08173155489
0.08096395981
0.08007354657
0.07906653277
0.07950681533
0.07891520194
0.07820444921
0.07737953133
0.07644601592
0.07677798097
0.07623028753
0.07557200585
0.0748075832
0.07394200266
0.07417825837
0.07367098595
0.07306102344
0.07235234958
0.07154942722
0.07170277454
0.07123275095
0.07066734521
0.07001011787
0.06926506685
0.06934317488
0.06890737928
0.06838294593
0.06777306797
0.06708133407
0.06709749422
0.06669335531
0.06620684038
0.06564081148
0.06499848727
0.06495755265
0.06458244252
0.06413073228
0.06360499921
0.06300814248
0.06295318782
0.06260503749
0.06218565109
0.06169733411
0.06114268045
0.06126093309
0.06093496268
0.06054215904
0.06008461042
0.05956466997
0.008757537719
0.001057634344
0.0001591956816
3.233818764e-05
8.412625351e-06
2.400129364e-06
7.237040665e-07
2.514292467e-07
1.079726798e-07
5.611392249e-08
3.274862186e-08
2.020617453e-08
1.275548551e-08
8.105582505e-09
5.141740334e-09
3.239791587e-09
2.021563657e-09
1.246509952e-09
7.584080219e-10
4.547846747e-10
2.685435987e-10
1.560270592e-10
8.913658076e-11
5.003655385e-11
2.758371106e-11
1.49274762e-11
7.928429871e-12
4.132632294e-12
2.114196309e-12
1.061778487e-12
5.236539378e-13
2.537597166e-13
1.209392914e-13
5.677254757e-14
2.63152145e-14
1.208890122e-14
5.530690325e-15
2.532417376e-15
1.164171678e-15
5.369702398e-16
2.47279118e-16
1.128219422e-16
5.062599584e-17
2.226450136e-17
9.637237143e-18
4.174738708e-18
1.871969185e-18
9.119212036e-19
5.033325155e-19
3.167112336e-19
2.202684608e-19
1.625485264e-19
1.232249706e-19
9.368328543e-20
6.979668094e-20
4.938506631e-20
3.136627147e-20
1.597536769e-20
4.640548943e-21
4.543469306e-22
0.01449535796
0.002306667717
0.0004011918487
8.732145608e-05
2.50882868e-05
8.861862619e-06
3.740909666e-06
1.863441803e-06
1.025014101e-06
5.944262707e-07
3.510858051e-07
2.089494673e-07
1.245203702e-07
7.41896739e-08
4.414285025e-08
2.620578933e-08
1.550738356e-08
9.134976172e-09
5.349610615e-09
3.109363109e-09
1.790774543e-09
1.020410541e-09
5.745089942e-10
3.191797528e-10
1.747892539e-10
9.427001588e-11
5.004452923e-11
2.613818611e-11
1.342745758e-11
6.782837157e-12
3.36919504e-12
1.646262093e-12
7.919372153e-13
3.756667722e-13
1.762228845e-13
8.209726621e-14
3.818602854e-14
1.781814921e-14
8.356500885e-15
3.928182348e-15
1.83763742e-15
8.47724836e-16
3.826078202e-16
1.683720171e-16
7.255956913e-17
3.113003783e-17
1.374815527e-17
6.567403386e-18
3.554201567e-18
2.203994735e-18
1.520852132e-18
1.119103995e-18
8.481771334e-19
6.453533744e-19
4.81272574e-19
3.409436339e-19
2.175569599e-19
1.129854773e-19
3.653990679e-20
4.89129487e-21
0.0162588887
0.002863721185
0.0005349665174
0.0001490972616
5.862902794e-05
2.892594254e-05
1.595454089e-05
9.437126035e-06
5.700458206e-06
3.476095127e-06
2.10170663e-06
1.260116771e-06
7.456039578e-07
4.35954113e-07
2.518518183e-07
1.440273864e-07
8.169741187e-08
4.606107825e-08
2.586115757e-08
1.447000896e-08
8.066690731e-09
4.475406266e-09
2.46772147e-09
1.350196912e-09
7.319468932e-10
3.926648828e-10
2.082514097e-10
1.090883123e-10
5.63986365e-11
2.875929936e-11
1.445791203e-11
7.165790284e-12
3.503801514e-12
1.692995972e-12
8.109902311e-13
3.870438859e-13
1.850662134e-13
8.900449347e-14
4.303162816e-14
2.078873568e-14
9.935862068e-15
4.648303074e-15
2.111320513e-15
9.280888131e-16
3.965033047e-16
1.672028965e-16
7.184406467e-17
3.306126431e-17
1.718006003e-17
1.030909947e-17
6.97673114e-18
5.090684993e-18
3.849732165e-18
2.9304333e-18
2.187862144e-18
1.552053938e-18
9.947866682e-19
5.227567703e-19
1.773989785e-19
2.680804809e-20
0.02525110134
0.005916092854
0.001054207555
0.0003087340049
0.0001503294816
8.879821445e-05
5.534856513e-05
3.511413765e-05
2.230071978e-05
1.410035918e-05
8.810195278e-06
5.433784023e-06
3.296327823e-06
1.967116913e-06
1.152768593e-06
6.639917007e-07
3.759646134e-07
2.097342722e-07
1.155180836e-07
6.301325013e-08
3.413034747e-08
1.839253341e-08
9.871024803e-09
5.277540867e-09
2.81008566e-09
1.488887409e-09
7.841385004e-10
4.100132634e-10
2.126067801e-10
1.092240663e-10
5.555686854e-11
2.797251471e-11
1.394751386e-11
6.898051311e-12
3.395346345e-12
1.671658353e-12
8.273314944e-13
4.123439701e-13
2.061595989e-13
1.024331418e-13
4.997365159e-14
2.36713592e-14
1.080219774e-14
4.735186304e-15
2.00143396e-15
8.267746677e-16
3.433009986e-16
1.501758925e-16
7.336597659e-17
4.160886919e-17
2.712181836e-17
1.942540138e-17
1.459252082e-17
1.109736317e-17
8.295055042e-18
5.896826234e-18
3.799425546e-18
2.019994919e-18
7.1003756e-19
1.18227796e-19
0.03677430665
0.01168832649
0.002488756556
0.0006600003848
0.0003378246366
0.0002171540867
0.0001455310024
9.75779902e-05
6.508562475e-05
4.308472372e-05
2.821262476e-05
1.824078068e-05
1.161172359e-05
7.27016952e-06
4.466052756e-06
2.690729608e-06
1.587235798e-06
9.17175646e-07
5.188965741e-07
2.879499626e-07
1.569326125e-07
8.426377237e-08
4.468957443e-08
2.348540622e-08
1.226067062e-08
6.371904056e-09
3.300089167e-09
1.703662283e-09
8.762910619e-10
4.487279595e-10
2.285903025e-10
1.157928684e-10
5.834617971e-11
2.929707271e-11
1.471416071e-11
7.428803014e-12
3.783941922e-12
1.941991215e-12
9.966516933e-13
5.053352912e-13
2.498527392e-13
1.191678369e-13
5.444708148e-14
2.377208132e-14
9.949179375e-15
4.034851708e-15
1.621377579e-15
6.714672139e-16
3.03450048e-16
1.581481288e-16
9.64789248e-17
6.650441252e-17
4.911572858e-17
3.715383265e-17
2.777707879e-17
1.980781057e-17
1.284878634e-17
6.926093664e-18
2.515769361e-18
4.649056218e-19
0.05085211564
0.02179821918
0.006406973758
0.001549672499
0.0006861914775
0.000435972049
0.0003016510962
0.0002109191021
0.0001473117964
0.0001024081146
7.065842227e-05
4.826609474e-05
3.256512249e-05
2.16634567e-05
1.417639052e-05
9.111281396e-06
5.739757792e-06
3.539730819e-06
2.132789925e-06
1.255160138e-06
7.208350405e-07
4.044518129e-07
2.217874721e-07
1.191203474e-07
6.277969485e-08
3.258060424e-08
1.670206022e-08
8.486877008e-09
4.286383411e-09
2.156518754e-09
1.082273067e-09
5.422503824e-10
2.714946894e-10
1.361434908e-10
6.867047021e-11
3.501642403e-11
1.808998497e-11
9.426998386e-12
4.902776647e-12
2.508819444e-12
1.245608802e-12
5.937632224e-13
2.700950818e-13
1.170420277e-13
4.847618893e-14
1.93711083e-14
7.598526047e-15
3.013331571e-15
1.266509941e-15
5.992007127e-16
3.329738244e-16
2.152145573e-16
1.537210326e-16
1.14761652e-16
8.561203105e-17
6.132023932e-17
4.018970926e-17
2.210229343e-17
8.351239805e-18
1.728276132e-18
0.065413469
0.03435335587
0.01368726854
0.003977997933
0.001337729251
0.0007448428579
0.0005071055083
0.000362154898
0.0002615824223
0.0001891512758
0.0001363401085
9.771613995e-05
6.949883091e-05
4.896657377e-05
3.411845527e-05
2.346482052e-05
1.589198079e-05
1.057420324e-05
6.894246121e-06
4.396210183e-06
2.73610862e-06
1.660136658e-06
9.804560563e-07
5.633311542e-07
3.14735684e-07
1.712213585e-07
9.08017264e-08
4.705222424e-08
2.389139354e-08
1.193569619e-08
5.893382974e-09
2.889692753e-09
1.413719272e-09
6.935375807e-10
3.433395463e-10
1.727881268e-10
8.865766964e-11
4.608276812e-11
2.394672205e-11
1.224057569e-11
6.060144939e-12
2.874556171e-12
1.298072215e-12
5.569035262e-13
2.278187242e-13
8.974583784e-14
3.456634194e-14
1.330426271e-14
5.294118953e-15
2.292506288e-15
1.143512046e-15
6.7360197e-16
4.543924184e-16
3.30434859e-16
2.447676574e-16
1.761916596e-16
1.172226957e-16
6.634664788e-17
2.645548856e-17
6.194637869e-18
0.07709967571
0.04666366721
0.02378536863
0.008952562323
0.002859037389
0.001250707417
0.0007682752014
0.000539288568
0.0003937014543
0.0002909200744
0.0002155257243
0.0001593970529
0.0001174117522
8.600776519e-05
6.257986848e-05
4.517445251e-05
3.230978444e-05
2.286276803e-05
1.597373592e-05
1.099163355e-05
7.427061634e-06
4.912251137e-06
3.16938613e-06
1.989374501e-06
1.212326546e-06
7.163936229e-07
4.100501421e-07
2.272450255e-07
1.219638277e-07
6.351048812e-08
3.217050916e-08
1.591819617e-08
7.740800097e-09
3.729578133e-09
1.797168837e-09
8.758912508e-10
4.359590188e-10
2.211172194e-10
1.127916837e-10
5.691171936e-11
2.794384977e-11
1.317413946e-11
5.914135866e-12
2.518482546e-12
1.019704466e-12
3.965973143e-13
1.50456889e-13
5.66744177e-14
2.169924642e-14
8.756741638e-15
3.926048015e-15
2.056456714e-15
1.267410067e-15
8.769187454e-16
6.376204082e-16
4.594705244e-16
3.10378288e-16
1.811090007e-16
7.645166126e-17
2.021213955e-17
0.08667209386
0.05708306102
0.03347047145
0.01628316617
0.005903611293
0.002175282242
0.001138202753
0.0007507952282
0.000542066904
0.0004036844224
0.0003039595891
0.0002295895693
0.0001733168623
0.0001304989187
9.787920553e-05
7.305549622e-05
5.4209293e-05
3.994845218e-05
2.920127223e-05
2.114054878e-05
1.512933894e-05
1.06791661e-05
7.416287222e-06
5.050507922e-06
3.360076774e-06
2.175919686e-06
1.366021879e-06
8.287629408e-07
4.849745449e-07
2.73523822e-07
1.486415466e-07
7.789872462e-08
3.948450847e-08
1.946902915e-08
9.415066729e-09
4.509662174e-09
2.166259619e-09
1.053787583e-09
5.16902984e-10
2.52477164e-10
1.212513454e-10
5.659100432e-11
2.53498573e-11
1.079144242e-11
4.350134224e-12
1.677282034e-12
6.28943759e-13
2.330229277e-13
8.678649962e-14
3.329970832e-14
1.369437693e-14
6.370528566e-15
3.492232464e-15
2.229461186e-15
1.560645674e-15
1.116293218e-15
7.640055801e-16
4.601612043e-16
2.064620872e-16
6.149652418e-17
0.09457361175
0.06750480494
0.04276894325
0.02419902489
0.01100453
0.004001597465
0.001742832423
0.001036047849
0.0007210044306
0.0005333385894
0.0004040022016
0.0003090437327
0.0002372625486
0.0001822348863
0.0001397716112
0.0001069173255
8.148775136e-05
6.182472395e-05
4.66497377e-05
3.496968376e-05
2.600453394e-05
1.915977689e-05
1.395806248e-05
1.003084256e-05
7.091588319e-06
4.917375382e-06
3.333807198e-06
2.201775062e-06
1.410681668e-06
8.731835794e-07
5.201173776e-07
2.973501565e-07
1.630880245e-07
8.598325529e-08
4.375736935e-08
2.161725293e-08
1.043103821e-08
4.95931405e-09
2.339870712e-09
1.096239104e-09
5.063785775e-10
2.292274279e-10
1.012600735e-10
4.3281178e-11
1.763818936e-11
6.823077632e-12
2.543908257e-12
9.311169853e-13
3.396581169e-13
1.256154718e-13
4.842122026e-14
2.034422749e-14
9.834619829e-15
5.622672864e-15
3.684052572e-15
2.574463491e-15
1.774240973e-15
1.102506508e-15
5.275672443e-16
1.761645721e-16
0.09987153814
0.07741226708
0.05222357949
0.03249701107
0.01754794356
0.007424156794
0.002912590598
0.001482171896
0.0009601627273
0.0006935990718
0.0005231022721
0.0004020395468
0.0003117668633
0.0002427229873
0.0001891831727
0.0001473592629
0.0001145695456
8.881247262e-05
6.861558502e-05
5.278228747e-05
4.03759805e-05
3.067064178e-05
2.309859719e-05
1.721502769e-05
1.267000175e-05
9.187019832e-06
6.546381387e-06
4.571700884e-06
3.119456091e-06
2.072795392e-06
1.336647478e-06
8.332687899e-07
5.001393415e-07
2.88106173e-07
1.591188221e-07
8.436559651e-08
4.30301915e-08
2.11398236e-08
1.002932649e-08
4.619615584e-09
2.077963583e-09
9.130791729e-10
3.915553468e-10
1.640593816e-10
6.706168223e-11
2.646055628e-11
9.999921041e-12
3.648351712e-12
1.308743801e-12
4.702092891e-13
1.727730235e-13
6.705046899e-14
2.887681568e-14
1.452677876e-14
8.627649088e-15
5.744132308e-15
3.936821023e-15
2.514471369e-15
1.285129894e-15
4.777092159e-16
0.1020669054
0.08566267179
0.06116303352
0.04036722275
0.02467257565
0.01293031543
0.00545248635
0.002362093594
0.001328306475
0.0009028779811
0.0006670460304
0.0005102483605
0.0003968616565
0.0003112713233
0.0002450547597
0.0001933180761
0.0001526000713
0.0001203471343
9.471617007e-05
7.43184867e-05
5.806465868e-05
4.511224123e-05
3.480474522e-05
2.662414539e-05
2.015833951e-05
1.507772776e-05
1.111726446e-05
8.062016441e-06
5.73586034e-06
3.993112711e-06
2.712483473e-06
1.792640737e-06
1.148991996e-06
7.119419652e-07
4.252103032e-07
2.442254855e-07
1.346153188e-07
7.103101584e-08
3.579121706e-08
1.718560287e-08
7.879731705e-09
3.471210847e-09
1.477129948e-09
6.095723428e-10
2.451137338e-10
9.643897166e-11
3.700881066e-11
1.375956068e-11
4.952226229e-12
1.74772938e-12
6.188060726e-13
2.261240723e-13
8.861535933e-14
3.927927113e-14
2.060025686e-14
1.265197994e-14
8.447258053e-15
5.500151531e-15
2.998593985e-15
1.23083039e-15
0.1026718441
0.09215591457
0.06944736585
0.04802191284
0.03130889558
0.018861571
0.009782511033
0.004286330996
0.002031883338
0.001207975263
0.0008385049297
0.0006250331076
0.0004808285398
0.0003769237702
0.0002972621876
0.000236931332
0.0001893480078
0.0001514035837
0.0001209339073
9.637319713e-05
7.653543528e-05
6.050278837e-05
4.755183898e-05
3.710643201e-05
2.870515803e-05
2.197654575e-05
1.662006798e-05
1.239060507e-05
9.086359786e-06
6.539395636e-06
4.60813136e-06
3.171807035e-06
2.127065805e-06
1.386194126e-06
8.75672178e-07
5.348445356e-07
3.150032888e-07
1.783159073e-07
9.661778247e-08
4.991042142e-08
2.448416156e-08
1.138672748e-08
5.027853845e-09
2.11432493e-09
8.542770075e-10
3.345460697e-10
1.277136808e-10
4.777906564e-11
1.74970863e-11
6.246014747e-12
2.187031535e-12
7.672420009e-13
2.79284204e-13
1.108231782e-13
5.088778604e-14
2.797847078e-14
1.771127918e-14
1.16009673e-14
6.715016711e-15
3.018763277e-15
0.1021550747
0.09719292527
0.07739757525
0.05581858136
0.03819883347
0.02480124535
0.01491743295
0.007839481432
0.003604736818
0.001780159576
0.001058326641
0.0007250840153
0.0005373689049
0.0004153928251
0.0003258905716
0.0002606150854
0.0002095913577
0.0001690693659
0.000136492022
0.0001100947133
8.86070459e-05
7.107587887e-05
5.676291487e-05
4.508121745e-05
3.555759171e-05
2.780756343e-05
2.151995764e-05
1.644500099e-05
1.2381774e-05
9.165148566e-06
6.654544545e-06
4.728834089e-06
3.282432184e-06
2.221405042e-06
1.462937245e-06
9.356644249e-07
5.798179048e-07
3.471616187e-07
2.001432273e-07
1.106327e-07
5.835677386e-08
2.921907313e-08
1.383390087e-08
6.183792289e-09
2.615704065e-09
1.053695591e-09
4.074349705e-10
1.525766883e-10
5.586750127e-11
2.009939449e-11
7.109349359e-12
2.479787382e-12
8.679620347e-13
3.172682886e-13
1.291522845e-13
6.266299827e-14
3.66097795e-14
2.365552589e-14
1.439860295e-14
7.047565779e-15
0.1005943699
0.1006624276
0.08473517493
0.06375003461
0.04535907548
0.03102778156
0.02025339991
0.01235697369
0.006691900739
0.003144000825
0.001496439264
0.0008360829163
0.0005490916485
0.0004018551009
0.0003093090687
0.0002447912584
0.0001967331092
0.0001594759979
0.0001298490014
0.0001059048301
8.635478275e-05
7.029122322e-05
5.704337795e-05
4.609719559e-05
3.704707311e-05
2.956837796e-05
2.339800891e-05
1.832051138e-05
1.415989973e-05
1.077633889e-05
8.057886513e-06
5.905889596e-06
4.232075117e-06
2.959727055e-06
2.017609688e-06
1.33857287e-06
8.630958622e-07
5.400381904e-07
3.270760034e-07
1.910913316e-07
1.072427692e-07
5.753164954e-08
2.934523173e-08
1.416095563e-08
6.438462467e-09
2.755195222e-09
1.114045339e-09
4.291459253e-10
1.591571692e-10
5.742857159e-11
2.033940728e-11
7.10583695e-12
2.464284215e-12
8.682130391e-13
3.26796989e-13
1.418876095e-13
7.523037397e-14
4.68276184e-14
2.949449299e-14
1.564844096e-14
0.09795201801
0.102544943
0.09080272441
0.07143922843
0.05260942322
0.03740246775
0.02574855502
0.01703214361
0.01062515517
0.005908397704
0.002737552602
0.001164793235
0.0005790681398
0.0003583783559
0.000255307949
0.0001953827455
0.0001550296633
0.0001254718419
0.0001026942869
8.457107626e-05
6.985007591e-05
5.772953248e-05
4.766020286e-05
3.924502158e-05
3.218476109e-05
2.624703469e-05
2.124838599e-05
1.704269866e-05
1.351240937e-05
1.056430752e-05
8.125314444e-06
6.134285948e-06
4.536236806e-06
3.278327295e-06
2.310936662e-06
1.586909934e-06
1.060285291e-06
6.885799087e-07
4.340333039e-07
2.650495642e-07
1.564009515e-07
8.881021597e-08
4.828204414e-08
2.499734661e-08
1.22593181e-08
5.667497277e-09
2.462136102e-09
1.005022388e-09
3.874294112e-10
1.426354182e-10
5.084940358e-11
1.778404357e-11
6.166994056e-12
2.151616933e-12
7.808671246e-13
3.149404184e-13
1.528563403e-13
9.023079786e-14
5.771095677e-14
3.298224914e-14
0.0945951878
0.1030657865
0.09544997293
0.07830532271
0.05971952406
0.04380367546
0.03132753048
0.02179865859
0.01462124248
0.009240173413
0.00514191385
0.002245532827
0.0008169380362
0.0003578928036
0.0002095235885
0.0001458819999
0.0001105874058
8.764103025e-05
7.119771287e-05
5.867099956e-05
4.874674087e-05
4.068082913e-05
3.401105229e-05
2.842871754e-05
2.371586919e-05
1.971150059e-05
1.629328736e-05
1.336711754e-05
1.086059873e-05
8.718429363e-06
6.897568742e-06
5.363940727e-06
4.089968016e-06
3.0507977e-06
2.221781643e-06
1.578099372e-06
1.092493488e-06
7.360467357e-07
4.817903914e-07
3.059247931e-07
1.880879412e-07
1.117480008e-07
6.397059628e-08
3.510304611e-08
1.835957594e-08
9.102639236e-09
4.256383751e-09
1.869375925e-09
7.698147921e-10
2.981230475e-10