/*--------------------------------*- C++ -*----------------------------------*\
  =========                 |
  \\      /  F ield         | OpenFOAM: The Open Source CFD Toolbox
   \\    /   O peration     | Website:  https://openfoam.org
    \\  /    A nd           | Version:  10
     \\/     M anipulation  |
\*---------------------------------------------------------------------------*/
FoamFile
{
    format      ascii;
    class       volScalarField;
    location    "3000";
    object      EDC:kappa;
}
// * * * * * * * * * * * * * * * * * * * * * * * * * * * * * * * * * * * * * //

dimensions      [0 0 0 0 0 0 0];

internalField   nonuniform List<scalar> 
5170
(
0.2578797856
0.2581648755
0.2605271544
0.2898840989
0.5775788152
0.2597627782
0.2599947789
0.2646268299
0.3511879497
0.517188128
0.2604501867
0.2621778539
0.2782422582
0.4057888389
0.4706763345
0.2632444789
0.2675100287
0.2985640328
0.4593320971
0.447390658
0.2640928706
0.2720311796
0.3178195986
0.5091906634
0.426826705
0.2695359792
0.2808260689
0.3384563551
0.549818086
0.4160613554
0.2719424845
0.2845420698
0.3730046135
0.579845578
0.4114580542
0.276966151
0.295887027
0.3979155295
0.5991512905
0.4088706559
0.2814279607
0.3056810777
0.4172892132
0.608353697
0.4076869879
0.2897068753
0.3194714449
0.4385568164
0.608639347
0.4074764553
0.2958593109
0.3299250661
0.4622081601
0.5970451967
0.407915928
0.3048798557
0.345183694
0.485047484
0.5830025305
0.4087528209
0.3118056688
0.3541497078
0.5051486261
0.5653736472
0.4097912858
0.3216252363
0.3708864382
0.5229562722
0.5462855297
0.4108941643
0.3302590743
0.3814502153
0.5356798476
0.5241690862
0.4120006619
0.3381287945
0.3980997339
0.542538503
0.4833611975
0.4130670801
0.3500093471
0.4115265824
0.544973342
0.4721076927
0.4140372483
0.3576347031
0.4224507047
0.5394611329
0.4304632868
0.4148560982
0.3690697254
0.4327312981
0.5321390966
0.4253030067
0.4154631702
0.3760992192
0.4501436217
0.5356117201
0.3966244593
0.4244087497
1
1
1
1
1
1
1
1
1
1
1
1
1
1
1
1
1
1
1
1
1
1
1
1
1
1
1
1
1
1
1
1
1
1
1
1
1
1
1
1
1
1
1
1
1
1
1
1
1
1
1
1
1
1
1
1
1
1
1
1
1
1
1
1
1
1
1
1
1
1
1
1
1
1
1
1
1
1
1
1
1
1
1
1
1
1
1
1
1
1
1
1
1
1
1
1
1
1
1
1
0.3899774594
0.4645153898
0.5148633099
0.3905983575
0.5328161455
0.3974264628
0.4705528567
0.4859487871
0.3839506824
0.4824788772
0.4113661431
0.4737662457
0.4652320894
0.3726110134
0.4208193597
0.4183626391
0.4712907793
0.4321105317
0.3487080389
0.3642776618
0.4231595777
0.4627482695
0.3980018531
0.3335347422
0.3472165683
0.4259305149
0.4502514684
0.3827925822
0.3287307338
0.3337488482
0.4242311584
0.4264166125
0.3541274637
0.3017119073
0.3113019995
0.4213873063
0.3958040269
0.313583804
0.2796343663
0.2914016685
0.4138371065
0.3588740133
0.2827198802
0.2665277816
0.2804043434
0.3973965132
0.3234124002
0.2606410251
0.2562212449
0.2704140779
0.3480243848
0.281176764
0.245503895
0.2478340245
0.2620291248
0.3016189497
0.2577724103
0.2386901172
0.2428155609
0.256074214
0.273089686
0.2445199637
0.233790392
0.2384495841
0.2503765338
0.2526622757
0.2353529439
0.229169932
0.2338348394
0.2444215348
0.2343503397
0.2270088889
0.2243517403
0.2289578583
0.2385983192
0.2206373092
0.2194605435
0.2200228025
0.2249896469
0.2338952133
0.2106050432
0.2127161352
0.2158770608
0.2219174466
0.2304350252
0.2069848687
0.2099612355
0.2146470533
0.2206353144
0.2286776075
0.2061087348
0.2091884619
0.2142858739
0.2204686019
0.2281648412
0.2080545276
0.2107005155
0.2154820545
0.2214828169
0.2286934056
0.2106429734
0.2129834508
0.2173588789
0.2229623464
0.2296035575
0.2139059851
0.215835102
0.219614329
0.2246282802
0.2306669762
0.2165522541
0.2181739747
0.2216049824
0.2261261399
0.2315867232
0.219088069
0.2206510269
0.2236273655
0.2277301426
0.2327710279
0.2223488645
0.2236530226
0.2261721462
0.2297748602
0.2342066374
0.2261365656
0.2270835845
0.2293154078
0.2325395593
0.2365888375
0.2300662324
0.231027596
0.2330274669
0.2358788409
0.2397379461
0.2344720444
0.2352785697
0.2370895987
0.2399033741
0.243492761
0.2391457192
0.2399850744
0.2417907162
0.2443936631
0.2477410996
0.2444215236
0.2451781571
0.246804373
0.2492055573
0.2523284145
0.2498111572
0.250511399
0.2520265265
0.2542765378
0.2572144589
0.2555691486
0.2562183239
0.2576361327
0.2597484617
0.26251191
0.261947486
0.2625609266
0.2638909422
0.2658662891
0.2684410044
0.2693109111
0.2698592313
0.2710587632
0.2728312195
0.2751173411
0.2772527967
0.277709683
0.2786913277
0.2801255785
0.2819462862
0.2842706343
0.2845912721
0.2852845506
0.2862899209
0.2875533562
0.2888009347
0.2890143382
0.289469468
0.2901253165
0.2909430354
0.2908800705
0.291018259
0.2913173757
0.2917454163
0.2922716502
0.2912727776
0.2913674695
0.2915662039
0.2918423649
0.2921651193
0.290670551
0.2907196336
0.2908209651
0.2909460035
0.2910585545
0.2891277021
0.289121896
0.2890990884
0.289037942
0.2889119346
0.2865937999
0.2865529027
0.2864613138
0.2863108884
0.2860895056
0.2838985747
0.2838452272
0.283724782
0.2835328016
0.283259671
0.2812293123
0.2811595048
0.2810051829
0.280763574
0.2804268442
0.2783557063
0.278270232
0.2780803312
0.277784965
0.2773787043
0.2750731369
0.2749710845
0.2747466193
0.2744018704
0.2739334673
0.2712771293
0.2711639687
0.2709144167
0.2705329915
0.2700182571
0.2670004021
0.2668792924
0.2666135676
0.2662090641
0.2656659464
0.2623307634
0.2622069034
0.2619346282
0.261520984
0.2609672908
0.2573869369
0.2572630089
0.256991339
0.2565793949
0.2560292642
0.2522635584
0.2521428181
0.251877777
0.25147615
0.2509405259
0.2470490055
0.2469327588
0.2466779734
0.2462922877
0.2457784436
0.2418146508
0.2417045033
0.2414628343
0.2410971074
0.2406101131
0.2366355464
0.2365318212
0.2363044616
0.2359605078
0.2355026695
0.2315744137
0.2314775603
0.2312650816
0.2309436234
0.2305157411
0.2266838461
0.226593566
0.2263956276
0.2260961839
0.2256975991
0.2219939045
0.2219100322
0.2217260125
0.2214475702
0.2210768669
0.2175201698
0.2174421447
0.2172710271
0.2170120905
0.216667301
0.2132605806
0.2131880292
0.2130288226
0.2127878551
0.2124669132
0.2092071191
0.2091394837
0.208991115
0.2087665298
0.2084673546
0.2053458802
0.2052827741
0.2051442738
0.2049345844
0.2046551942
0.2016569801
0.2015979496
0.2014684334
0.2012723295
0.2010110042
0.1981368215
0.1980815403
0.1979601981
0.197776433
0.1975314967
0.1947400233
0.1946881533
0.1945743288
0.1944019355
0.1941721256
0.1915205836
0.1914717547
0.1913645701
0.1912022251
0.1909858109
0.1883331447
0.1882871828
0.1881863207
0.188033546
0.1878298496
0.1854083455
0.1853649187
0.1852695939
0.1851251985
0.1849326902
0.1823752481
0.1823341154
0.1822438489
0.1821071209
0.1819248002
0.1796552616
0.1796169023
0.1795326931
0.1794051017
0.1792349248
0.1780608757
0.1780224751
0.1779381444
0.1778103326
0.177639735
0.2809982386
0.4211006754
0.4186480097
0.3909866502
0.3748279063
0.357689045
0.3320916712
0.3108207125
0.2979337794
0.2861413065
0.2762575763
0.2687901159
0.2616021063
0.2542676154
0.2474650527
0.2420206709
0.2379319739
0.23549328
0.234447462
0.2344705507
0.2348789172
0.2353792435
0.2358763293
0.2366519152
0.2378070274
0.2399117887
0.2428278046
0.2463738855
0.2504364441
0.2548546865
0.2595920905
0.2647469727
0.2705079097
0.2769251758
0.2833594173
0.2885244924
0.2915677209
0.2926657264
0.2923878502
0.2910977993
0.288772756
0.2858898647
0.2830198936
0.2801367587
0.2770338928
0.2735407198
0.2695900584
0.2652167083
0.2605109946
0.2555771012
0.2505010168
0.2453573704
0.2402112542
0.2351278209
0.2301654406
0.2253712631
0.2207732874
0.2163848695
0.2122039299
0.2082221351
0.2044261242
0.2007966914
0.1973305449
0.1939835586
0.1908082046
0.1876626667
0.1847746681
0.181775129
0.1790951822
0.1774994893
0.6250331033
1
1
1
1
0.5272747384
1
1
1
1
0.4841112763
0.7975833019
1
1
1
0.4544039778
0.6553023401
1
1
1
0.431955404
0.566798997
0.8302763623
1
1
0.4053841721
0.4948737846
0.6623173981
0.891615334
0.9226340952
0.3714634801
0.4460900088
0.5770791579
0.7820163559
0.8131497057
0.3452617286
0.4106491025
0.5184814968
0.6948031606
0.7366951092
0.3282743424
0.3856529535
0.4683348274
0.5955027347
0.669998862
0.3126084093
0.3606529815
0.4274359683
0.5249402961
0.6140832148
0.2997556806
0.3420858436
0.4013573709
0.4835453509
0.5728249677
0.2896324419
0.3268875049
0.3776544268
0.4484648516
0.5344437361
0.2799610401
0.3123117908
0.3551739903
0.4132774092
0.4861183034
0.2703744667
0.2984747117
0.3351571415
0.3834959644
0.4441387818
0.2619802775
0.2875565781
0.320459085
0.3632633189
0.4163458179
0.2553219768
0.2784117817
0.3082132684
0.3465760252
0.394387939
0.2500881859
0.2710601581
0.2981000313
0.3326145896
0.3758304907
0.2463746146
0.2658768928
0.2903743212
0.3208450035
0.3588939846
0.2444751467
0.2621210918
0.2841500078
0.3112964241
0.3446492293
0.2434894264
0.2594047552
0.2791490065
0.3033368543
0.3325969845
0.2429914962
0.257321065
0.2749537229
0.2964011628
0.3219753966
0.2425826827
0.2555034144
0.2714124183
0.2908066871
0.3140479099
0.2423934664
0.2541777927
0.2686700458
0.2863076554
0.3073343943
0.2425335684
0.2532696113
0.2664179095
0.2823091076
0.3010476819
0.2432371986
0.2531503162
0.2652023419
0.2796673269
0.2966304949
0.2449235587
0.2541435405
0.2653019693
0.2786220126
0.2941181955
0.2474858645
0.2560955798
0.266474719
0.2787701608
0.2928934386
0.2507147423
0.2587844548
0.2684861251
0.2798809999
0.2927771012
0.2544969479
0.2620883577
0.2711699514
0.2817074172
0.2933706395
0.2586593762
0.2658038153
0.2742840564
0.2839585939
0.2943551358
0.2631722321
0.2698905186
0.277755272
0.2864953597
0.2955174732
0.2681069489
0.2743540846
0.2814984755
0.2891462422
0.2966712489
0.2736032571
0.2792383326
0.2854552865
0.2918090515
0.2977496901
0.2796113203
0.284340524
0.2893376006
0.2942161329
0.298544366
0.2854354816
0.2889749893
0.2925837659
0.2959665496
0.298753427
0.2899336442
0.2922965781
0.2946371135
0.2967020251
0.2981080656
0.2924595834
0.2939266245
0.2952902659
0.2962845416
0.2964960834
0.2932128358
0.2940451285
0.2946466435
0.2947155654
0.2939759491
0.2926747443
0.2929664047
0.2928583121
0.292155891
0.2909242334
0.2911046912
0.2908245745
0.2901402017
0.2890691056
0.2876308055
0.2885288034
0.2879145683
0.2870181879
0.2858123332
0.2842717743
0.2855666256
0.2848451675
0.2838531304
0.2825527579
0.2809123532
0.2826399553
0.2818149988
0.280707864
0.279283229
0.277514192
0.2796837757
0.2787248614
0.277471837
0.2758972037
0.2739826757
0.2765009574
0.2753998233
0.2739971069
0.272275122
0.2702251556
0.272938039
0.2717137334
0.27018527
0.268344888
0.2661923546
0.2689360771
0.2676244119
0.2660101526
0.2640941771
0.2618827477
0.2645328464
0.2631736164
0.2615184032
0.2595743003
0.2573520932
0.2598179293
0.2584486614
0.2567932603
0.2548620533
0.2526735895
0.2548913918
0.253541962
0.2519182594
0.2500352205
0.2479117432
0.2498352333
0.2485283396
0.2469611462
0.2451496428
0.2431113222
0.2447199943
0.2434708618
0.2419762385
0.2402508978
0.2383130973
0.2396077656
0.2384257902
0.2370124276
0.2353828368
0.2335544246
0.2345608606
0.2334505379
0.2321234535
0.2305938974
0.2288781641
0.2296357055
0.2285980721
0.2273577985
0.2259281094
0.2243240037
0.2248778166
0.2239108957
0.222754767
0.2214214898
0.2199247147
0.2203142611
0.2194143126
0.2183377111
0.2170953603
0.2156996044
0.2159578175
0.2151200914
0.2141173376
0.2129593717
0.2116573214
0.2118062698
0.2110257425
0.2100908584
0.2090104524
0.2077945537
0.2078513224
0.2071230905
0.2062502807
0.2052408594
0.2041038778
0.2040797178
0.203399069
0.2025828005
0.2016380917
0.2005731108
0.2004725913
0.1998354578
0.1990709104
0.1981854454
0.197186453
0.1970266391
0.1964289474
0.1957113504
0.1948797272
0.193940764
0.1936983495
0.1931370634
0.1924627375
0.1916807756
0.1907972628
0.1905395969
0.1900108079
0.1893753389
0.1886380644
0.1878045092
0.1874097998
0.1869117936
0.1863127583
0.1856172875
0.1848304793
0.1845356764
0.1840648497
0.183498585
0.1828409464
0.1820965386
0.1815487556
0.1811025608
0.1805653697
0.1799410509
0.1792339295
0.178883806
0.1784672785
0.1779658366
0.1773828048
0.1767219834
0.1772873385
0.176868358
0.1763630942
0.1757748731
0.1751080416
1
1
1
1
0.6424759187
0.5519104565
0.5093663057
0.4742590848
0.4409844024
0.4112596841
0.3851034729
0.3633266759
0.3454861883
0.3312333349
0.3199543335
0.3112172355
0.3044954682
0.2994003153
0.2956061233
0.2928133964
0.2908083077
0.2894650084
0.2886757209
0.2883220714
0.2882325245
0.2883274583
0.2885670522
0.2888554525
0.2891242037
0.2893405583
0.2894967977
0.2895952913
0.2896413169
0.2896507214
0.2896427885
0.2896347464
0.2896368247
0.289650371
0.2896718137
0.289697783
0.289726431
0.2897590222
0.2897990712
0.2898510677
0.2899163445
0.2899776002
0.2900190593
0.2900532419
0.2900875854
0.2901215444
0.2901535958
0.290182384
0.2902080953
0.2902329921
0.2902676784
0.2904454249
0.2922777464
0.3058185272
0.4322695016
1
1
1
1
1
1
1
1
1
0.9010648352
0.7822980454
0.6784131767
0.5927565425
0.5221314853
0.4658133216
0.4213029191
0.3866716122
0.3599855187
0.339760074
0.3245665633
0.3132891057
0.3049631031
0.2988304435
0.2944070732
0.2912945454
0.289230847
0.2879529483
0.2872332044
0.2868956474
0.2868077593
0.2868864797
0.2870680809
0.2873027395
0.287548429
0.287773141
0.2879621322
0.2881153527
0.2882427525
0.2883552871
0.2884616107
0.2885642239
0.2886629511
0.2887569671
0.2888458041
0.2889220579
0.2889770145
0.2890282287
0.2890965103
0.2891849497
0.2892795111
0.289364131
0.2894358304
0.2894952402
0.2895436283
0.2895869673
0.2896925
0.2904602663
0.2966676436
0.3282066972
0.5433317982
1
1
1
1
1
1
1
1
1
1
1
1
1
0.9595770522
0.8094809446
0.6877153928
0.5912752692
0.5152995235
0.4563945597
0.4105295311
0.3756223067
0.3492003221
0.3289377218
0.3135898818
0.3024554034
0.2943232657
0.288424233
0.2842628908
0.2815158396
0.279903935
0.2793792701
0.2796318693
0.280384328
0.2814246768
0.2825440479
0.2835704868
0.2844044914
0.2850391833
0.2855267103
0.2859388225
0.2863181422
0.2866689787
0.2869717412
0.2871888159
0.2873111726
0.2873967093
0.2874448534
0.2874776387
0.287486943
0.2875144228
0.2876126931
0.2877934461
0.287991679
0.288145105
0.2882672138
0.2885670654
0.2904269137
0.301598586
0.350625323
0.6348138362
1
1
1
1
1
1
1
1
1
1
1
1
1
1
1
1
0.9821808567
0.839742856
0.7187907103
0.6181679443
0.5369152671
0.4724458269
0.4225276028
0.384076078
0.3546715279
0.3323188023
0.3155344604
0.3029436983
0.2935835322
0.2867138653
0.2817131228
0.2782946464
0.2762525458
0.2754005796
0.2754769946
0.2761887421
0.2772370262
0.2783424027
0.279334218
0.2801644744
0.2808913532
0.2816014493
0.2823497598
0.2831510633
0.2839497246
0.2846070594
0.285053608
0.2852599539
0.2852794407
0.2851873567
0.2850832976
0.2850482109
0.2851403291
0.2853349122
0.2856233938
0.2864216015
0.2901771394
0.3062076056
0.3720173447
0.718580313
1
1
1
1
1
1
0.9981077533
0.9425816231
0.952086925
0.9776665065
1
1
1
1
1
1
1
1
1
0.9247540903
0.8192166882
0.7167235557
0.6265029394
0.5499883958
0.4866053677
0.4351660079
0.3944415106
0.3628457786
0.33869468
0.3203962412
0.3066442628
0.2964996085
0.2892069432
0.2841869242
0.2808970889
0.2789423667
0.2780155798
0.2777463607
0.2777841199
0.277867831
0.2778592774
0.2778165247
0.2778941124
0.27822043
0.2788757764
0.279844332
0.2809915282
0.2820879876
0.2829155001
0.2833584227
0.283420664
0.283220455
0.2829424264
0.2828143349
0.2830672591
0.2846068185
0.2907152644
0.3123724602
0.3947641185
0.8016674517
1
1
1
1
1
0.7165780766
0.4511074016
0.4230835474
0.4276952695
0.4419379284
0.463986199
0.4958830022
0.5340686599
0.5791483133
0.6327589762
0.690247216
0.7466249843
0.8030613009
0.8564014297
0.8965000689
0.9125383129
0.8971860054
0.854026876
0.7914862455
0.717421526
0.6402807519
0.5677278982
0.5044361576
0.4513464014
0.4078138469
0.3730763625
0.3461218934
0.3256545238
0.3103284368
0.2988973636
0.2906793003
0.2852399772
0.2818265746
0.2798104818
0.2786448372
0.2778903949
0.2771969497
0.2764278078
0.2756090004
0.2749174987
0.2746898955
0.2750742533
0.2760234761
0.2773305496
0.2786469229
0.2796818807
0.280226774
0.2802959987
0.2801751623
0.280468102
0.2828551772
0.2918331843
0.3202267218
0.419017699
0.8902198628
1
0.7860037824
0.9743194556
1
1
0.9575351768
0.4004652263
0.320921436
0.2989569029
0.2911217487
0.2893944955
0.2915030087
0.2979778494
0.3088715702
0.3246124447
0.3470020413
0.3778835928
0.4190228496
0.4722701471
0.5330070974
0.5996866307
0.6626673737
0.7205295588
0.7694160029
0.7974912119
0.7967264648
0.7664932004
0.7162439334
0.6535729328
0.5861149682
0.521560062
0.4650652067
0.4179639253
0.3797319288
0.3494559299
0.325526487
0.3076363707
0.295441803
0.2876498443
0.2829342713
0.2802189724
0.2786720031
0.2775125854
0.2761784549
0.2744688064
0.2724663771
0.2707454013
0.2697698366
0.2697599102
0.2705902772
0.271879522
0.273215541
0.2743011613
0.2751732581
0.2765041748
0.2804862116
0.2927571293
0.32846456
0.4411356182
0.9755614723
1
0.7069270546
0.6717130215
0.8827747745
1
1
0.533015224
0.3237098238
0.2715207505
0.2516530463
0.2422457262
0.2377741001
0.2363436994
0.2372241567
0.2401685972
0.2452019775
0.2525603728
0.2626534695
0.2764501778
0.2961901545
0.323184517
0.3606671154
0.4107628726
0.4731783641
0.5412396921
0.6086431873
0.6669671866
0.7157533295
0.742344023
0.738279456
0.7041096401
0.6513762987
0.5883142451
0.5231907759
0.4633235423
0.4117051342
0.3673203124
0.3330178235
0.3099124108
0.2949504296
0.2866563779
0.2830916141
0.2812209197
0.2799620742
0.278441237
0.2759407411
0.2724819763
0.2687625741
0.265728943
0.2639709617
0.2635775683
0.2642715794
0.2656749502
0.2676142881
0.2706763572
0.277126782
0.2930201275
0.3347328479
0.4595876949
1
1
0.6586363135
0.6205385393
0.6128814144
0.8179751838
0.9725887488
0.6760677845
0.3913552918
0.2816740241
0.2441751654
0.2272682714
0.218256664
0.2131825607
0.2104778733
0.2094478133
0.2097875935
0.211400849
0.2143239826
0.2187119735
0.2248707581
0.2331927598
0.2441958967
0.2585873143
0.2781115946
0.3053269901
0.3424808059
0.3928422062
0.4575864269
0.5262303527
0.5934470991
0.6453161299
0.6828172379
0.6917749461
0.6673826593
0.6172176066
0.5532938556
0.4839474465
0.416570793
0.3632181263
0.3274230062
0.3037382045
0.2896669352
0.2846166634
0.2850946264
0.285548359
0.2841647131
0.2805457175
0.2753576744
0.2695719075
0.2641477841
0.2600820074
0.2579899806
0.2578498477
0.2596378592
0.2638341201
0.272644539
0.2920926737
0.3389845719
0.474136705
1
1
0.6196628523
0.5870675211
0.5606247249
0.5949771182
0.7842372007
0.8142155687
0.503734248
0.3238343209
0.2572580842
0.2298298757
0.2156245611
0.2071651163
0.2017535338
0.1982220645
0.1960183939
0.1948794399
0.1946962994
0.1954543601
0.1972089845
0.200071881
0.2042038296
0.2098206055
0.2172322013
0.2269037044
0.2393660044
0.2553339599
0.2760205546
0.3050319719
0.3437712218
0.3959286189
0.4607472771
0.5240798243
0.5768164484
0.6056843946
0.6056196665
0.5734838814
0.516826424
0.4488365335
0.3902994864
0.347944731
0.3205414483
0.300684387
0.2894536892
0.2882189179
0.2935994747
0.2944112563
0.2887123964
0.2806894951
0.2723781583
0.2647942772
0.258682639
0.2550137215
0.2546268903
0.2583677042
0.2683007468
0.2903319946
0.3409839331
0.4818568884
1
1
0.5869616395
0.5625567444
0.5307613923
0.5214273087
0.6282127808
0.7632539787
0.6620284411
0.4093996734
0.2899821361
0.2452639147
0.2241338904
0.2117274619
0.2034917981
0.1976438266
0.1933965318
0.1903201835
0.1881678723
0.1868148844
0.1862182201
0.1863915819
0.1873913596
0.1893071092
0.1922583252
0.1963978387
0.2019106067
0.2090211058
0.2180227079
0.2293941923
0.2436974225
0.2616445806
0.2842372361
0.3148244697
0.3530776171
0.3979981858
0.4419081259
0.4740895156
0.4855139962
0.4771035063
0.4447539699
0.4044005399
0.3691865344
0.3429396927
0.3220050647
0.3058706055
0.2991540471
0.3032187694
0.306139693
0.2998030904
0.2883944583
0.2769408715
0.2671120955
0.2598121868
0.2559399899
0.2572142312
0.26630412
0.2888741431
0.341156613
0.4833460383
1
1
0.5542659444
0.5386186454
0.5079064428
0.4833953859
0.4804125263
0.6227850926
0.7199888211
0.5685857517
0.3654580019
0.2751843567
0.2393996315
0.2208731173
0.209432066
0.2018045709
0.1962944532
0.1920854501
0.1887830088
0.1861807159
0.1841837319
0.1827650847
0.1819401736
0.1817528777
0.1822788007
0.1836360608
0.185920796
0.1892323391
0.1936704389
0.1993730989
0.2065161815
0.2153152795
0.2260448481
0.2391239276
0.2549413937
0.2737625758
0.2955036663
0.3199359644
0.345870716
0.3694297358
0.3895860241
0.4022793142
0.3971265614
0.3812938868
0.3625174774
0.3447286339
0.3276678302
0.3138388667
0.3099430061
0.3118681435
0.3092610644
0.2977978147
0.2826312397
0.2702890836
0.2623757443
0.26031471
0.2663251225
0.2867942247
0.3381418619
0.4790790056
1
1
0.5231537311
0.5182781695
0.4930849688
0.4659265267
0.4507304336
0.4610665833
0.6091699448
0.6797577173
0.5227341393
0.3498474173
0.2719219176
0.2390999975
0.2219213442
0.2112201149
0.203385212
0.1975789092
0.1930187401
0.1893417173
0.1863677986
0.1840207823
0.1822878021
0.1811934757
0.1807496365
0.1808950222
0.1816590499
0.183077667
0.1852199057
0.1881233213
0.1918288229
0.1964080368
0.2021125959
0.2091532752
0.2176369879
0.2276314969
0.2393524267
0.253035364
0.2690185688
0.2877141286
0.308135212
0.3293458037
0.3495701589
0.3620233263
0.3705893017
0.3669156544
0.3551835297
0.3404460774
0.3259618867
0.3130427948
0.3084143109
0.3061180477
0.2992838233
0.2860059758
0.2721524367
0.2638664804
0.2662254925
0.2838866814
0.332018422
0.4690905253
1
1
0.493350684
0.4973521969
0.4789494375
0.4530726481
0.4327106203
0.4274474691
0.4532131017
0.6121926335
0.6800487806
0.5416784246
0.3757300119
0.2922154337
0.2569556411
0.2367325984
0.2234764146
0.2135446534
0.2056534793
0.1991725987
0.1937530272
0.1891740336
0.1853669145
0.1823447689
0.1802270688
0.1791202848
0.1790615431
0.1800823673
0.1819024011
0.1843565265
0.187367149
0.1912129295
0.195483356
0.1998382768
0.2045645587
0.209969458
0.2162169362
0.2239335287
0.2332399705
0.2444612047
0.2580565542
0.274275819
0.2933646413
0.3141310099
0.3312431387
0.3437494733
0.3455915575
0.3431283066
0.3336872349
0.3199136487
0.3051088332
0.2946438899
0.2887638783
0.2836905865
0.2774375752
0.2719941784
0.271904802
0.2850800089
0.326479312
0.4512326838
1
1
0.4693297685
0.4779566113
0.4654074752
0.4423742918
0.4199081525
0.4063067903
0.4088256986
0.4457600803
0.6168693389
0.7256978414
0.5996650233
0.4190240902
0.3116656221
0.2662492455
0.2408416779
0.2241688112
0.2121875935
0.203070956
0.1958798223
0.1900938684
0.1854192995
0.1816706899
0.1786955037
0.1765132836
0.1751844172
0.1747700431
0.1755840007
0.1777647301
0.1811349788
0.1849860587
0.1897066534
0.1954264896
0.2010558766
0.2057778113
0.2106712847
0.2152791269
0.2200683409
0.2258002211
0.2334719294
0.2432952001
0.255562599
0.2704663511
0.2876321981
0.3061350667
0.3232519924
0.3316949835
0.3295495146
0.3187033624
0.3058703459
0.291643575
0.2789965391
0.2721445635
0.269234002
0.2682276622
0.2712210026
0.2839291543
0.3189816973
0.4170178879
0.8880850366
1
0.447762092
0.4592920111
0.4511937735
0.4321540799
0.4096855658
0.3915502752
0.3822098434
0.387488643
0.4237467291
0.5830961982
0.7554256626
0.6527777464
0.4459569506
0.3155345792
0.2585534959
0.2287006919
0.2103259674
0.1978702172
0.1889045154
0.182223112
0.1771815923
0.1734239971
0.1707528405
0.1690675969
0.1683354445
0.1685549213
0.1697497308
0.1719592221
0.1752090628
0.1792328879
0.1834170708
0.1879707067
0.193354716
0.199666693
0.2056567387
0.211742931
0.2165358861
0.2212615102
0.2253261717
0.2300212483
0.2366475559
0.2459175535
0.2576430192
0.2716421309
0.2874447618
0.3035460153
0.3171351661
0.3240741653
0.3192766663
0.3056069227
0.2893258196
0.2754363877
0.2663715741
0.2625996918
0.2645912499
0.2756045803
0.3050493942
0.383718614
0.7105851599
1
0.4269224774
0.4413069474
0.4369350044
0.4213766651
0.4005300445
0.3802286478
0.3651891312
0.3578546917
0.3631189471
0.3937343118
0.5261537538
0.7292858461
0.6643883178
0.4358809157
0.2982987334
0.2380419243
0.208156413
0.1907827
0.1796375341
0.1720599752
0.1667679079
0.1630946415
0.1606827812
0.1593446311
0.1589907983
0.1595951726
0.1611685075
0.1637276175
0.1672425673
0.1716176718
0.1768555681
0.1826694731
0.1887967821
0.1949910276
0.2005341671
0.2051093282
0.210552642
0.2158631786
0.2213466418
0.2260123273
0.2303360706
0.2344831894
0.2412231816
0.2507963785
0.2624783838
0.2758912561
0.2902429058
0.3037032195
0.3128636264
0.3137544494
0.3047718471
0.2891674298
0.2737651537
0.2635476904
0.2605899699
0.2672120538
0.2901660799
0.3520313319
0.5811996643
1
0.4048536083
0.4229881735
0.4216486198
0.4092275747
0.3905736009
0.3704343983
0.35310049
0.3406176328
0.335149282
0.3413473364
0.3711026268
0.5022963601
0.7034070905
0.6108804448
0.3866336853
0.2684100797
0.2161122508
0.1899384865
0.1750928108
0.1659531956
0.1601043428
0.1563825906
0.1541891023
0.1532061831
0.1532649115
0.1542805298
0.1561552846
0.1589171243
0.1625233155
0.1669164472
0.1720366235
0.1777523254
0.1838654575
0.1901271984
0.1961976479
0.2017171861
0.2066411724
0.2110060369
0.2145878714
0.2197341861
0.2246138305
0.2301953645
0.2341364574
0.2389548908
0.2469305057
0.2571317619
0.2689668456
0.2818463459
0.294269488
0.3034561816
0.3057383014
0.2988467749
0.2852994768
0.2714353578
0.2629545012
0.2638663208
0.2801435557
0.3297649482
0.5078446243
1
0.3852172643
0.4066244522
0.4078087002
0.3981146896
0.3817540345
0.3626704679
0.3445037819
0.329862619
0.3199213275
0.3172617897
0.3273327715
0.3679857045
0.5409033574
0.68975717
0.5077235864
0.322460821
0.2371793544
0.1975659725
0.1769518079
0.1652298685
0.1581445579
0.1538694838
0.1515233616
0.1506566591
0.1510605863
0.1525724178
0.1550566434
0.158425848
0.1625802048
0.1673430702
0.1725009113
0.1778481692
0.1831841648
0.1883580912
0.193276459
0.1978879561
0.2021911004
0.2062582227
0.2100692793
0.2140493327
0.2178330756
0.2221962297
0.2277210442
0.2330491575
0.2376946129
0.2447556554
0.2539726587
0.2646566803
0.2763065301
0.287575076
0.2959532378
0.2981590421
0.2923912748
0.2810994201
0.2702896873
0.2663746635
0.2765906431
0.3184024
0.4728771812
1
0.3686818537
0.3915832994
0.3948749778
0.3875368348
0.37345166
0.3559409002
0.3380490539
0.322598003
0.3107904102
0.3039771261
0.3056057108
0.3242188052
0.3895306388
0.5901549807
0.6370119331
0.4105972882
0.2700227726
0.2107776217
0.1834202684
0.1684300849
0.159540029
0.1542232893
0.1512410514
0.1500034906
0.1502354077
0.1519033447
0.1548293264
0.1587507932
0.1636148144
0.1691356836
0.1748849281
0.1804214356
0.1853962453
0.1896493237
0.1932190608
0.1962856877
0.1990892459
0.2018544264
0.2047619956
0.207985334
0.2115802361
0.215322441
0.2197020597
0.225151544
0.2310497658
0.2360822904
0.2426245816
0.2510460348
0.2607631349
0.2712087406
0.2810392642
0.2879401274
0.2893108948
0.2843854641
0.2761546994
0.2707471563
0.2767197888
0.3132507489
0.4550861745
1
0.3548573877
0.3785945772
0.3829606554
0.3774419311
0.3654744792
0.3497267227
0.3328214084
0.3171084356
0.3043545891
0.2954411347
0.2921906581
0.2992758658
0.3309521878
0.4564798757
0.6378738692
0.52707841
0.3352963376
0.2345041047
0.1927890286
0.1728800219
0.1621020454
0.1556629098
0.151853784
0.1499034316
0.1494648662
0.1505886059
0.153324181
0.1571287042
0.1619567105
0.167828307
0.1742032187
0.1803612962
0.1856898964
0.1898599387
0.1928986068
0.195092551
0.1968257154
0.1984531053
0.2002530173
0.2024498416
0.205275959
0.2087632952
0.2126803631
0.2172302503
0.2223445401
0.2276437227
0.2325056931
0.2387740676
0.246454011
0.2550556985
0.2638651797
0.2715576513
0.2762972719
0.2766998704
0.2734500987
0.2703536186
0.2751472679
0.3072512529
0.4353847083
1
0.3437469317
0.3672561187
0.3722434423
0.3681418174
0.358027002
0.3440508047
0.3284157206
0.3130375112
0.2997836927
0.2895868321
0.2835869685
0.2842980819
0.2980590762
0.3473898887
0.5211020553
0.6218893644
0.432460043
0.2810630522
0.2121590735
0.1817175047
0.1662189251
0.1575418161
0.1525592449
0.1498702883
0.1487608089
0.1489715365
0.1504160996
0.1534928983
0.1578203379
0.1628655548
0.1689704077
0.1753260734
0.1811631626
0.1859125337
0.1893711886
0.1917014279
0.1932731773
0.1944932342
0.1957076424
0.1971754816
0.1990541834
0.2016343896
0.205261965
0.2093501574
0.2136225712
0.218291109
0.2227016266
0.2268993106
0.2324558792
0.2390366197
0.2459732265
0.2525399781
0.2577607229
0.2607753675
0.2616364506
0.2623462616
0.2685096377
0.2968208306
0.406171504
1
0.3339709755
0.3568161545
0.3619299686
0.3589807865
0.350468066
0.3381249067
0.3237951677
0.3092234112
0.2957865486
0.2848770043
0.2772107645
0.274306622
0.2798232331
0.3043197366
0.3915291793
0.5806253774
0.5489174454
0.3574074681
0.2439102931
0.1956277413
0.1730140226
0.160922004
0.1538985336
0.1498296964
0.1478157251
0.1474229813
0.148347627
0.1503942157
0.1535163763
0.1573099232
0.1618435431
0.1674146123
0.1731450344
0.1782510109
0.1823436894
0.1853410535
0.1874278062
0.1889199426
0.190146856
0.1913874727
0.1928449611
0.1946319912
0.196882464
0.2005898395
0.2049260461
0.2092302119
0.213516965
0.2168690118
0.2199200814
0.2239829558
0.2289828754
0.2340482459
0.2387319691
0.2427087219
0.2461338215
0.2502488198
0.2588678514
0.284689792
0.3757224687
1
0.3244491485
0.3474558599
0.3533681268
0.3510315228
0.3437519655
0.3328132279
0.3197099395
0.3059677595
0.2928350119
0.281394796
0.2725503594
0.2672470518
0.2674033026
0.2778545792
0.3131468028
0.4526239515
0.5991183589
0.4684966286
0.3033367728
0.2193796906
0.1838220069
0.1661843446
0.1563037269
0.1504490255
0.1470485033
0.1453526987
0.1450832389
0.1461278547
0.1486423285
0.1525494875
0.1562657725
0.1601691037
0.1647207404
0.1694924489
0.1737741418
0.1772535062
0.1799301375
0.181953808
0.1835470422
0.1849410978
0.1863357836
0.1878792531
0.1896639357
0.1918958824
0.1953569388
0.1997589523
0.2042717479
0.2083049149
0.2108839275
0.2128294598
0.2153855856
0.2190847439
0.2232476128
0.2277548231
0.2329356975
0.2398633531
0.2514848244
0.2775746418
0.35897593
1
0.3176864308
0.3384813042
0.3445871397
0.3428099883
0.3366964462
0.3270407599
0.3151188671
0.3022782666
0.2896938067
0.2781958863
0.2686544095
0.2618189622
0.2589332432
0.2624975367
0.2788520701
0.3287595938
0.4952026066
0.5662566557
0.3961267788
0.2625456872
0.2019363987
0.1746219846
0.1604465856
0.1522253731
0.1472790182
0.1444317935
0.1431292958
0.1430998134
0.1441784122
0.1464374857
0.1499692654
0.1538174724
0.1577680451
0.1617017573
0.1656503067
0.1692227581
0.1722335443
0.1746895287
0.1766951142
0.1783982657