/*--------------------------------*- C++ -*----------------------------------*\
  =========                 |
  \\      /  F ield         | OpenFOAM: The Open Source CFD Toolbox
   \\    /   O peration     | Website:  https://openfoam.org
    \\  /    A nd           | Version:  10
     \\/     M anipulation  |
\*---------------------------------------------------------------------------*/
FoamFile
{
    format      ascii;
    class       volScalarField;
    location    "3000";
    object      epsilon;
}
// * * * * * * * * * * * * * * * * * * * * * * * * * * * * * * * * * * * * * //

dimensions      [0 2 -3 0 0 0 0];

internalField   nonuniform List<scalar> 
5170
(
6420.711991
6430.200527
6528.880552
7902.826633
34117.83739
5469.539849
5480.560589
5644.149192
9078.957683
52380.71786
4734.711598
4785.565788
5284.023017
10720.53426
76584.35009
4145.025556
4243.057365
5071.371329
12224.52286
94405.11236
3684.398555
3850.699035
4938.577183
13757.94733
115080.462
3309.667094
3514.837961
4831.434804
15001.00828
128299.1595
2984.907992
3166.293954
4708.670256
15882.19604
134701.2399
2724.970236
2978.408568
4612.639259
16587.23143
138584.1847
2513.468335
2808.248761
4509.178335
17248.18406
140526.1599
2327.637455
2652.898142
4437.973309
17935.24256
141039.3017
2167.463715
2511.235967
4353.068085
18978.85297
140563.4289
2029.331434
2382.65708
4302.306674
20126.97887
139469.5206
1900.218941
2274.675328
4320.464917
21369.78746
138058.813
1798.202084
2185.701677
4402.23887
22794.16029
136540.0822
1688.832456
2119.857341
4568.472422
24208.23898
135011.6916
1624.038382
2071.331933
4800.887649
25916.14258
133549.0731
1526.422955
2025.828583
5122.391969
27610.57344
132251.3705
1487.134308
2025.966006
5509.953635
29717.33874
131198.4472
1405.126564
2043.58778
6002.909387
32120.53211
130471.8774
1402.839902
2205.719873
7261.989179
38579.3198
119762.7228
1125.305655
273.5602366
177.1683014
347.2331284
1177.968272
526.9144016
268.2384595
193.6468446
331.7623237
466.1851838
281.2989688
234.1208967
184.3613177
241.7379047
210.5197782
197.9448516
180.8684939
165.187485
240.2853261
150.0004197
160.206082
161.8723097
154.9121815
286.9458314
149.6156339
137.952654
152.5072023
158.5628115
394.6882152
176.9154091
132.3641938
160.5419575
179.945635
643.1562898
250.0444924
133.0902558
178.9731861
224.2542436
1033.628164
355.6216477
136.3499084
194.9279306
280.2313965
1396.001587
465.2855538
142.6942273
215.077189
340.6704624
1708.030291
570.2679325
149.119166
233.6484761
403.1604228
2006.786875
676.126094
155.6866301
251.0587316
461.4135896
2248.038979
767.8384494
160.9618409
263.0561157
515.0167868
2447.099926
850.9100939
167.6024154
276.7020336
566.6462866
2631.257808
929.6038072
173.0659076
285.9417803
614.3193788
2822.002311
1005.647898
179.9444068
295.8063063
652.9525641
2884.243221
1043.515738
187.0595858
302.259842
694.4685342
2961.060305
1091.944122
204.4349609
311.6220627
764.1203764
3158.906183
1173.834001
244.1737272
320.743902
871.7457016
3228.03329
1204.295486
2206.569303
644.4876331
1299.663541
3547.660157
1283.639942
1378.805128
2267.895104
7992.960108
35714.00789
74688.61839
1371.242858
2341.196772
8592.185215
33699.873
65185.57742
1371.161555
2443.136697
9142.2808
32371.35125
64616.46571
1383.447685
2590.301439
9836.039383
32622.23071
65322.28084
1410.999285
2793.938858
10786.90605
32993.3059
64312.95593
1456.03747
3035.143717
11411.26694
33332.38437
62172.29995
1539.467145
3422.848639
12444.81829
34690.26299
61384.29366
1702.50058
4153.763058
14629.03937
37369.71555
61133.39923
1966.281844
5232.876019
17478.13008
39068.90784
60553.2578
2369.073473
6698.07334
20277.46891
39953.34865
59598.42608
2996.104158
8608.992292
22705.71738
40492.85754
58535.67945
4068.770309
10618.67399
24357.08688
40648.25058
57187.8213
5425.905845
12345.12076
25509.76645
40612.60766
55700.03863
6870.945925
13990.3726
26507.00763
40500.72056
54252.69835
9031.547448
15823.8746
27476.79958
40285.4554
52779.19797
11577.08928
17701.24896
28218.80233
39789.89207
51048.09372
14502.40804
19441.42035
28360.43587
38614.46614
48613.70434
16857.60338
20815.82013
28160.2357
36843.37455
45591.96579
18813.86624
21784.20087
27619.10631
34848.44421
42421.5653
19968.96747
22313.02525
26931.13502
32908.77212
39402.97286
20788.46537
22578.381
26255.82949
31176.48979
36706.78327
21244.94977
22708.41447
25685.67617
29757.2741
34453.45416
21554.84259
22701.53469
25140.50953
28511.21407
32468.0442
21579.96803
22552.97274
24521.71767
27283.677
30577.03044
21421.24385
22175.03026
23743.36834
25974.25665
28672.87631
20880.33128
21466.32506
22715.6528
24506.99927
26699.96562
20030.70027
20495.79559
21491.05515
22925.78113
24701.32905
18988.62665
19371.19839
20169.08913
21325.10053
22770.32571
17915.39757
18213.3373
18853.69793
19789.35141
20970.37703
16826.57954
17076.08859
17599.04001
18365.78993
19340.30181
15811.84638
16009.93399
16437.69867
17068.84281
17877.03436
14826.63817
14995.41609
15350.18329
15875.07903
16551.149
13890.99717
14027.1343
14322.65278
14762.91848
15334.43868
12964.60698
13085.37983
13339.36051
13718.73012
14213.77287
12122.25128
12224.98364
12448.83571
12784.55037
13223.86777
11403.96293
11499.59741
11701.46561
12002.92692
12395.85515
10844.48792
10926.33983
11104.00315
11368.88818
11712.9332
10370.38723
10442.84887
10595.7868
10822.7453
11116.21763
9935.907644
9994.834573
10122.33036
10311.47377
10555.56202
9493.720735
9543.545474
9648.509444
9803.44591
10002.32518
9042.372995
9080.791385
9163.540308
9285.446159
9441.265284
8549.954232
8580.056858
8643.258258
8736.010196
8854.1997
8018.408176
8040.452005
8087.830863
8157.487625
8246.303436
7465.733144
7482.943631
7518.945583
7571.728036
7638.898806
6920.922592
6933.599829
6960.790461
7000.694224
7051.427535
6394.58616
6404.486786
6425.085144
6455.173591
6493.264405
5894.680169
5901.783386
5916.959048
5939.119117
5967.079952
5418.319976
5423.634016
5434.592902
5450.480982
5470.37293
4965.008845
4968.533479
4976.005656
4986.805415
5000.214254
4532.08984
4534.481484
4539.31571
4546.207038
4554.612339
4121.396265
4122.736249
4125.51728
4129.423759
4134.047643
3734.251865
3734.970867
3736.313562
3738.099263
3740.027397
3373.518232
3373.703811
3374.015834
3374.313864
3374.375676
3040.107089
3040.011185
3039.666469
3039.002929
3037.858399
2734.623261
2734.297391
2733.524625
2732.253713
2730.365222
2456.100709
2455.679148
2454.674883
2453.071743
2450.78295
2203.518858
2203.022827
2201.898589
2200.136867
2197.674011
1975.09687
1974.594841
1973.44484
1971.654437
1969.177495
1769.405447
1768.901673
1767.77348
1766.029603
1763.63592
1584.451781
1583.979659
1582.91313
1581.268761
1579.021405
1418.899682
1418.455303
1417.465411
1415.945374
1413.876011
1270.508821
1270.107563
1269.207093
1267.826112
1265.949997
1138.521918
1138.155866
1137.342686
1136.098939
1134.412972
1019.875917
1019.552517
1018.829327
1017.72371
1016.226491
915.7359029
915.445355
914.8010062
913.8182648
912.4898043
819.8224049
819.571055
819.0101107
818.1545494
816.9998461
740.2693489
740.0434313
739.5430175
738.7815845
737.7542428
657.4255619
657.2393364
656.8239934
656.1908353
655.3372812
607.5628986
607.3829445
606.9844233
606.3783695
605.5622642
511.991413
511.8521088
511.5467115
511.0854533
510.4720277
22151.58657
76616.69771
87100.28752
85750.54135
82231.31701
78693.71087
76935.05749
75356.78929
73383.0669
71438.97875
69426.56515
67095.41439
64678.08419
62422.21176
60167.82947
57708.73305
54581.90488
50920.21054
47165.02046
43599.42026
40393.67206
37664.97511
35226.67923
32914.53223
30620.9313
28308.56239
26023.96481
23861.23198
21872.54047
20091.94619
18506.08287
17081.79933
15787.12845
14608.4325
13574.77036
12708.33275
11985.21321
11347.37605
10747.163
10157.43077
9562.086409
8945.589322
8314.974745
7690.732458
7090.483174
6522.438927
5988.368326
5485.364463
5010.179318
4560.698467
4137.226202
3741.137115
3374.070176
3036.644978
2728.606403
2448.741834
2195.527063
1967.045743
1761.594471
1577.116376
1412.130597
1264.373151
1133.002834
1014.974615
911.383776
816.0375046
736.9017389
654.6264711
604.8846845
509.9709839
62394.26142
14791.89439
3606.145736
2735.916472
627.4477229
110883.2032
63219.32472
15796.0028
3999.489569
709.8685444
114231.096
95825.0643
45175.29079
12916.38161
2346.27873
109954.3827
105780.4028
77453.65767
36199.13518
8911.51477
105124.1149
111554.6851
95529.65579
54749.30607
20352.4553
100379.9159
113222.8169
103233.9078
69207.55311
33203.09946
97366.68743
111693.9769
105175.7554
79123.80323
44980.60301
94096.72425
108560.0917
105259.9636
86112.54702
54794.74467
90381.16117
104705.05
104572.9336
90621.48119
62726.14673
87168.35406
101308.2328
102804.1262
92056.02213
68678.6612
83891.77033
97398.57883
100071.2261
91641.75637
72540.24208
80225.75967
92720.3717
95930.91622
90381.62254
75387.69403
76596.50137
88390.83494
92445.95754
89010.49584
77525.84784
73305.1304
84520.68664
89058.31303
86845.29299
77785.02598
70024.56606
80515.31654
85270.05313
84215.22987
77012.46567
66574.12793
76129.93858
80801.10477
80424.13693
75066.63539
62565.28236
71369.63459
76014.3553
76359.87457
72587.10361
58120.60219
66375.68497
71125.19285
72293.03637
69921.30032
53632.96485
61429.4544
66369.65335
68267.29412
67004.60555
49383.2478
56726.73262
61744.8636
64129.23831
63668.97142
45530.59855
52350.79227
57301.01402
60007.69115
60189.3964
42177.98967
48392.62469
53105.51829
55934.54205
56622.99668
39130.10312
44680.52676
49068.68652
51927.80297
53003.92378
36243.8214
41135.2754
45170.57208
47970.86914
49300.83247
33414.31508
37654.60195
41301.52
44017.66574
45546.25482
30629.71888
34263.97384
37515.79166
40084.29187
41715.01553
27943.90234
31038.80851
33911.78414
36299.21143
37978.35629
25453.36532
28088.49866
30617.45428
32812.166
34464.4714
23195.53751
25436.77678
27651.80565
29648.58677
31242.39354
21198.72739
23113.083
25055.87968
26866.30656
28376.96659
19435.83247
21074.36797
22776.53727
24406.81913
25813.81339
17868.84451
19280.61963
20778.16975
22245.04641
23543.0439
16460.85364
17688.83621
19012.6019
20328.21826
21509.36705
15197.16365
16280.80277
17457.96147
18634.08804
19696.06737
14098.4201
15062.39339
16107.25316
17147.79192
18085.30117
13173.84934
14024.14356
14937.96622
15840.3387
16646.62465
12390.05673
13123.04401
13903.29056
14665.61567
15337.58218
11690.46448
12306.71683
12956.25068
13582.28265
14123.81258
11031.08613
11536.73204
12062.77535
12560.87714
12983.3155
10386.67029
10789.60328
11202.20358
11586.56301
11907.28586
9740.248858
10050.09063
10364.0654
10653.59117
10891.73344
9080.230415
9313.425185
9548.620882
9763.817491
9937.949093
8416.129191
8590.938375
8766.404956
8925.346709
9051.099371
7767.029252
7898.265711
8028.945106
8145.536041
8234.800451
7147.90906
7245.998182
7342.498626
7426.67841
7487.994325
6565.249925
6637.5688
6707.432934
6766.317564
6805.840438
6019.522382
6071.33205
6120.009239
6158.811069
6181.108183
5507.206453
5542.629428
5574.414782
5597.276134
5606.024226
5024.601304
5047.044619
5065.542602
5075.993184
5074.385631
4569.399029
4581.881653
4590.278323
4591.445165
4582.345082
4141.650323
4146.77341
4147.828251
4142.444084
4128.256931
3742.524454
3742.488901
3738.527075
3728.821598
3711.603462
3373.389312
3369.927091
3362.748268
3350.49164
3331.819451
3034.644346
3029.06768
3020.04274
3006.541558
2987.551745
2725.821579
2719.07692
2709.17848
2695.348214
2676.817043
2445.559529
2438.314916
2428.216327
2414.673677
2397.10061
2192.207395
2184.910887
2175.056238
2162.194152
2145.875282
1963.765636
1956.711622
1947.381297
1935.431352
1920.515797
1758.463876
1751.831822
1743.188573
1732.269724
1718.807243
1574.201671
1568.091038
1560.212852
1550.361112
1538.327084
1409.464841
1403.919611
1396.830399
1388.034346
1377.367412
1261.967926
1256.992683
1250.673132
1242.879181
1233.481433
1130.853833
1126.429004
1120.837999
1113.976949
1105.743155
1013.070532
1009.166429
1004.254293
998.2468837
991.0635778
909.7008879
906.268303
901.963407
896.7188126
890.4688629
814.5752009
811.586827
807.8542828
803.3156286
797.9195396
735.6062206
732.978935
729.7010347
725.7275339
721.0158327
653.5464752
651.3449737
648.6016011
645.2752511
641.3313848
603.8555278
601.7669782
599.1745133
596.0522437
592.3770302
509.215158
507.715662
505.8958569
503.7429494
501.2169424
12.77967105
0.3981723936
0.03861576575
0.006916270376
0.003792500784
0.003125312916
0.00279744413
0.002525968487
0.002271005933
0.002046644236
0.00185365035
0.001694978453
0.001567900233
0.001468628956
0.001392488732
0.001335007887
0.001292230372
0.001260778542
0.001237873481
0.001221291973
0.00120934801
0.001201024715
0.001195634189
0.001192483923
0.001190606877
0.001189590403
0.001189319763
0.001189331488
0.001189306737
0.001189086784
0.001188613177
0.00118786392
0.001186855175
0.001185662609
0.00118440028
0.001183164259
0.001182024317
0.001180995478
0.00118005907
0.001179196253
0.001178408984
0.00117767646
0.001176968414
0.001176279429
0.001175582403
0.001174889683
0.001174242832
0.001173631008
0.001173028981
0.001172459289
0.001171915246
0.001171397094
0.00117091399
0.001170530192
0.001170387808
0.001171337221
0.001182633705
0.001266959481
0.002094440525
0.02156902934
27.71321775
0.7987991229
0.0902725716
0.02383880617
0.01344250788
0.01055124721
0.009069663336
0.007767791161
0.006522018548
0.005427398607
0.004477996159
0.003701745781
0.003078766629
0.002594154997
0.00222352399
0.001945132174
0.001739119645
0.001588515311
0.001479441188
0.001400795529
0.001344301051
0.001303771723
0.001275103435
0.001254822598
0.001240768318
0.001231072942
0.001224341131
0.001219651976
0.001216300934
0.001213833084
0.001211938738
0.001210313533
0.001208708354
0.001206991715
0.00120515782
0.001203227867
0.00120124957
0.001199258336
0.001197274887
0.001195317546
0.001193416642
0.001191582125
0.001189810888
0.001188098358
0.001186443016
0.001184865225
0.001183426778
0.001182153962
0.001180999036
0.001179936104
0.001178960373
0.00117809428
0.001177354013
0.001176799598
0.00117684888
0.001181186208
0.00121925795
0.001417270707
0.002833117904
0.0206407313
117.9841449
2.675534692
0.1970689921
0.08279378863
0.04634725897
0.03567568067
0.03044062665
0.02570152243
0.02111725123
0.01706979034
0.01353028738
0.0106272768
0.008280315503
0.006452234844
0.005051242768
0.004002536303
0.003229295849
0.002666959995
0.002261123276
0.001969484251
0.001760731243
0.001611078058
0.001504195392
0.001430198226
0.001378066195
0.001340846298
0.001313932864
0.001294320545
0.001280143884
0.001271313918
0.001266066181
0.001262832058
0.001260630976
0.001258710327
0.00125650066
0.001253596478
0.001249893507
0.001245509049
0.001240664886
0.001235529009
0.001230205196
0.001224844576
0.00121957515
0.001214590639
0.001210155841
0.001206206604
0.001202844549
0.001200014415
0.001197650043
0.001195801129
0.001194410076
0.001193211973
0.001192060712
0.001191206722
0.001191996127
0.001202677044
0.001271340094
0.001581625971
0.003430028503
0.01997973215
1027.09568
45.90371782
1.693216846
0.313771702
0.1585136922
0.1162517327
0.09872157482
0.08325453375
0.06824571371
0.05481622364
0.04300141067
0.03321621878
0.02525564963
0.01903276359
0.01425125609
0.01068602473
0.008056474092
0.006144165062
0.004757844949
0.003761963891
0.003050235512
0.002544820944
0.002186217173
0.001930210843
0.001746908398
0.001616644951
0.001523639021
0.001456606679
0.001408052879
0.001372189346
0.001346302007
0.001328410773
0.001316858392
0.001309889614
0.001305838506
0.001303223642
0.001300776914
0.001297831581
0.001294279198
0.001290319768
0.001286199287
0.001281906304
0.001277210928
0.001271647394
0.001264923081
0.001257439634
0.001249685481
0.001242381567
0.001236221439
0.001231603665
0.001228498405
0.001226665773
0.001225529962
0.001225138532
0.00122814394
0.001249401098
0.001347160722
0.001766388205
0.003957244344
0.01912572833
3737.246248
289.1062135
13.584913
1.39211939
0.5567144953
0.3698349142
0.3110290259
0.2635252686
0.2171597728
0.1745239805
0.1367098979
0.1050798083
0.07930450323
0.05909903678
0.04366016381
0.03219278529
0.02367089985
0.01739994035
0.01280050253
0.009490371225
0.007128352408
0.005470072303
0.00429752524
0.003459936508
0.002856573053
0.002420830747
0.002107113775
0.00188112737
0.001717268922
0.001597704254
0.001510865633
0.001448811057
0.00140513685
0.001375100024
0.001354910674
0.001341528528
0.001332380169
0.001325620735
0.001320129016
0.001315395176
0.001311612979
0.001309096616
0.001307587635
0.001306458422
0.001305097794
0.001302839179
0.001298963996
0.001293261437
0.001286217182
0.001278857229
0.001272313343
0.001267710734
0.001265732014
0.00126695095
0.001276052742
0.001312267666
0.001445282211
0.001974599806
0.004446106509
0.01814527558
8728.477774
1320.357778
105.0814782
8.297745127
2.060017437
1.166854899
0.9676184349
0.8259487879
0.6838427977
0.5488253627
0.4297795903
0.3301112136
0.2489901849
0.1855349781
0.1381429551
0.1023069783
0.07492531116
0.05425806169
0.03902367289
0.0280771423
0.02036197198
0.01498740759
0.01115251962
0.008389067
0.00639600111
0.004968201189
0.003947350208
0.003210937166
0.002674953883
0.002285729266
0.002005010174
0.001803288149
0.001659061509
0.001557040199
0.001486177632
0.001439553415
0.001409052276
0.001389005086
0.001375427618
0.001365630072
0.001357988355
0.001351968306
0.001347516514
0.00134465552
0.001344148038
0.001345457729
0.001347497765
0.001348667529
0.001347474108
0.001343383493
0.001336753312
0.001329232694
0.001323392032
0.001322608822
0.001336084745
0.001390220202
0.001567350955
0.002206682992
0.004930721025
0.01764096186
17130.0004
3780.668354
520.2902668
48.67483031
7.653543867
2.963543938
2.185498376
1.847769457
1.584240144
1.344760354
1.121549833
0.9175373864
0.7358138813
0.5777630533
0.442385319
0.3308053844
0.241218371
0.1726226177
0.1230409941
0.08764841648
0.06354652515
0.04635860995
0.03366877047
0.02444576466
0.01784243683
0.01320584874
0.009910349003
0.007502690134
0.005739218199
0.004465142899
0.003558125091
0.002909287689
0.002443097515
0.002111776177
0.001880302848
0.001721940934
0.001619326185
0.001553818616
0.001511841909
0.001483286055
0.001461906962
0.001444540726
0.001430147367
0.001418519992
0.001409838724
0.001406046319
0.001407510827
0.00141316955
0.001420328278
0.001426028471
0.001428016437
0.001426042791
0.001422155971
0.001421837713
0.00143929629
0.001510260252
0.001735586072
0.002467780036
0.005398272823
0.01707958041
25203.95878
8101.812606
1714.450041
229.1777442
28.30745252
7.434621789
3.725542263
2.802076462
2.340589247
1.999105311
1.708249828
1.450598806
1.221472216
1.019327997
0.8428570121
0.6905524964
0.5604071048
0.4486713706
0.352153232
0.2707825515
0.2025370831
0.147651141
0.105278125
0.07522025439
0.05405510398
0.03972845772
0.02919425724
0.02127002598
0.01548737947
0.01138062164
0.008489770311
0.006395724922
0.004884558827
0.003817621655
0.003077604262
0.00256300614
0.002211718046
0.001988531395
0.001851240975
0.001762367466
0.001698809707
0.001648669185
0.00160667122
0.00157093316
0.00154054808
0.00151619988
0.001500064376
0.001494617132
0.001499204549
0.001510714468
0.001524692617
0.001537357981
0.001547693315
0.001560351945
0.001591597852
0.001683908673
0.001951788924
0.002768729968
0.005856765567
0.016028406
32732.46038
12737.24216
3707.56223
751.9322366
101.8256242
17.59869381
6.455587131
3.865741969
2.982877393
2.491476406
2.128787833
1.827273514
1.5657191
1.336487058
1.136042136
0.9619143742
0.8117300702
0.6829167152
0.5726473017
0.4783376817
0.3975911631
0.3283428049
0.2681408654
0.2140063111
0.1664220869
0.1249518568
0.09057937911
0.06455837131
0.04601590837
0.03341873284
0.0243013194
0.01745640004
0.0125427106
0.009145418722
0.006797989034
0.005139678212
0.003990715633
0.003222330842
0.002738968404
0.002445697206
0.002251547677
0.002109775327
0.001997599604
0.001903853026
0.001821740944
0.001747436309
0.001686558026
0.001643507194
0.001619182733
0.001613288305
0.001623812268
0.001645435666
0.001673663144
0.001710140587
0.001769935837
0.001897957384
0.002217900239
0.003126168093
0.006326606181
0.01561534199
40097.56932
17988.86763
6506.794057
1720.37652
331.5484306
48.47790769
11.83810188
5.3861099
3.630034562
2.889289823
2.431602076
2.084580788
1.796323023
1.548322563
1.33295366
1.146177449
0.9850015929
0.8466557497
0.728380757
0.6274606582
0.5413048335
0.4675087592
0.4038608202
0.3482245277
0.2988572607
0.2544009012
0.2138579108
0.175048781
0.1381273073
0.1039662702
0.07454697576
0.0520807678
0.03641463348
0.02604254299
0.01857145126
0.0131759851
0.009456330435
0.006968386702
0.005309179133
0.004241364155
0.003597780598
0.003171597332
0.002869215787
0.002642848083
0.00246942736
0.002281558235
0.002105505352
0.001964829132
0.001865143816
0.001804089895
0.001775407164
0.001775222606
0.001801097966
0.001852680669
0.001942421323
0.002114353886
0.002494666731
0.003485744788
0.006721698895
0.01531640006
46641.11353
23641.42595
9945.214717
3402.333026
825.9320236
145.1960318
25.31780632
8.299871946
4.441566749
3.242888285
2.650377694
2.249786824
1.935592677
1.673225172
1.448963892
1.255906116
1.089665214
0.9469095377
0.824775559
0.7206343653
0.6320129781
0.5565925583
0.4922165485
0.4368827237
0.3887555988
0.3462024011
0.3078022332
0.2722617299
0.2384464304
0.2056940188
0.1737466516
0.1413976827
0.1095280593
0.08002835468
0.05550116573
0.03811783801
0.02637901335
0.01862269228
0.01315157819
0.009477441533
0.007173080736
0.005749475192
0.004827515873
0.004209486125
0.003801970122
0.003516647436
0.003160643818
0.002745539125
0.002429885326
0.002218936929
0.002086340028
0.002014372418
0.001991828569
0.002018213888
0.002108331907
0.002303658372
0.002726764923
0.003763843557
0.006956088894
0.01512660291
52220.24745
29141.69984
13750.33168
5509.040527
1776.491194
415.4096454
74.63094305
15.9481329
6.200349659
3.721558801
2.838078798
2.344963939
1.994645468
1.719360883
1.49093987
1.296462005
1.129427227
0.9858795526
0.8628831001
0.7579414259
0.6687927518
0.5933262735
0.5295554091
0.4756255003
0.4298168377
0.390514632
0.3562090916
0.3255761213
0.2974122429
0.2706584943
0.2444454714
0.2180359273
0.190868176
0.1629777807
0.1348261969
0.1059078595
0.07868887053
0.05506463047
0.03714136596
0.02531335134
0.01760618827
0.01267298627
0.009573406003
0.007609026071
0.006318109897
0.005451424818
0.004909216051
0.004448210466
0.003868415272
0.003270640591
0.002809241139
0.002533816252
0.002380620223
0.002320427197
0.002351679338
0.002514815567
0.002930340683
0.003966821856
0.007064224055
0.01510260398
56801.66692
34021.85085
17442.12997
7772.209229
2972.619492
909.5225328
212.5559603
41.33292541
10.63118726
4.661666084
3.028612005
2.365806458
1.97800851
1.695443637
1.46723035
1.275109307
1.110961315
0.9702265839
0.8497800953
0.7471342265
0.660094088
0.5866293097
0.5248487276
0.4729914797
0.429407623
0.3926567685
0.3615570899
0.3349227375
0.3116819689
0.2908803499
0.2716527696
0.2531897578
0.2344671878
0.2146067043
0.1932320338
0.1701682083
0.145659499
0.1204978316
0.09517684084
0.07061141144
0.04932189282
0.03287424676
0.02239788262
0.01591451468
0.01184964152
0.009266505206
0.007599077637
0.00653437955
0.00583262372
0.005197277452
0.004510045992
0.003825325084
0.003297968693
0.002973358854
0.002846018161
0.002903821483
0.00324466644
0.004238054928
0.007177679483
0.01535628363
59992.71833
38459.78969
21287.14262
10354.0588
4449.54117
1650.132129
487.5410017
116.9213012
24.87977365
7.176625424
3.335661761
2.229715375
1.775630342
1.489289299
1.274670788
1.10102296
0.9562111793
0.8338306348
0.7300478154
0.6428327638
0.5695703761
0.5084066428
0.4577935932
0.4162972527
0.3824903893
0.3549318932
0.3321691105
0.3124635175
0.2949771774
0.2798608149
0.2662245252
0.2528733459
0.2398659555
0.2270646093
0.21376658
0.1994911395
0.1834089512
0.1652188686
0.1450780933
0.1232877563
0.1007167395
0.07837632203
0.05694320719
0.03907719716
0.02601604621
0.01807958253
0.01328979916
0.01033647923
0.008463130307
0.007251298378
0.00638293921
0.005627555195
0.004931482819
0.004346678647
0.003929621651
0.003749895508
0.003904811802
0.004759968801
0.007464703253
0.01605956377
62051.87984
42372.9217
25211.01589
13285.9824
6266.750834
2641.461196
970.7234929
288.0286613
72.61288017
16.75979897
4.865296914
2.169344772
1.363797867
1.049309004
0.8634366899
0.7326625687
0.6322177494
0.5515964327
0.4853741552
0.430337738
0.3843666426
0.3460568902
0.3144074963
0.2886790543
0.2683199737
0.2529053387
0.2419879483
0.2353669194
0.2321210095
0.2301202338
0.2286723303
0.2271531912
0.2234462293
0.2167490529
0.2089157648
0.1998499525
0.1896319319
0.1784536813
0.165994265
0.1515784881
0.1349772957
0.1164581923
0.09658380505
0.07645189096
0.0574207897
0.04049324547
0.02758097094
0.01894349084
0.01386721876
0.01081194433
0.008895238112
0.007706914129
0.006854737738
0.006132508486
0.005541727768
0.005153567709
0.005083864789
0.005616625973
0.008166964062
0.01742773962
62926.57437
45494.99789
28918.09645
16386.22364
8377.277865
3892.890667
1642.735473
618.9804389
194.0861397
52.08194188
12.71315392
3.392208219
1.343482962
0.7601239613
0.5499171435
0.443022861
0.375753745
0.3280427226
0.2917060719
0.2628021802
0.2391907225
0.2196255342
0.203349012
0.1898895568
0.1789331063
0.1702988161
0.1639847069
0.1600150228
0.1584429482
0.1589549429
0.1612145344
0.16570788
0.1721498339
0.1792686953
0.1840898961
0.1849289587
0.1813006107
0.1749108068
0.1663810711
0.1567111002
0.1460778191
0.1338956339
0.1195768132
0.1033407631
0.08589436098
0.06825229342
0.051727143
0.03754447856
0.02641013832
0.01882521432
0.01414160334
0.01132788938
0.009576760229
0.00839615639
0.007537793298
0.006947438637
0.006703958214
0.00709275432
0.009463297274
0.01956899248
63018.72798
47852.35137
32195.53393
19443.88829
10666.61532
5376.889105
2509.70615
1086.10473
429.4009971
145.279191
40.51341064
9.830676449
2.341382358
0.8192384548
0.4215534251
0.2880745195
0.2281184464
0.1942549897
0.1722915247
0.1567655316
0.1451778858
0.1362544025
0.1292943856
0.1238907735
0.1198034915
0.1168704232
0.1149832739
0.1140912372
0.1141555773
0.1151369943
0.1172707591
0.1206005403
0.1252644405
0.1312183626
0.1380128669
0.1453113838
0.1525058327
0.1568676525
0.1567752916
0.1521629934
0.1451677781
0.1361570308
0.1264173216
0.1152829092
0.1022056574
0.08755158592
0.07213607856
0.05700646019
0.04324991355
0.03183553367
0.02328054469
0.01743624956
0.01371821823
0.01140350333
0.009928143478
0.008999719969
0.00856943127
0.008878021062
0.01122929318
0.02257243959
62664.2681
49516.20099
34968.411
22325.99974
13032.96748
7035.935591
3550.532284
1685.735235
751.5728025
307.6006292
107.9872184
29.74170067
6.729875605
1.476324152
0.5003744904
0.2535332463
0.1701331115
0.1332706731
0.1132396076
0.1008500031
0.09258903016
0.08689292153
0.08299139997
0.08048106292
0.07914488733
0.07886938442
0.07953680176
0.08113169633
0.08356827595
0.08674756909
0.09056712234
0.09488638462
0.09954219096
0.1044448529
0.1096024132
0.1150602784
0.1208505167
0.1265669554
0.1316048133
0.1356899095
0.1358781304
0.1324514136
0.1256802403
0.1172113702
0.1080104187
0.09719883696
0.08478557389
0.07139557634
0.05785720073
0.04513567172
0.03414788451
0.02550312404
0.01933322686
0.01526665653
0.01270669192
0.01116607139
0.01042964861
0.0106661669
0.01324104676
0.02647504442
61610.72474
50440.28132
37194.02981
24938.09447
15361.69136
8788.860295
4726.284525
2407.035509
1161.192993
524.3423314
213.891782
72.10274759
18.40198221
3.667929374
0.8398037948
0.3092188797
0.1684936866
0.1163477376
0.09129676579
0.07703204022
0.067904075
0.0617179313
0.05748533291
0.05473630887
0.05325181317
0.05290573997
0.05364377368
0.05547445957
0.05840878744
0.06242599736
0.06746024473
0.0733504557
0.07980677739
0.08644804722
0.09289489167
0.09882813076
0.1041200334
0.1088169779
0.1129728198
0.1165830124
0.119124568
0.1204322362
0.1193797353
0.1153132937
0.1081665297
0.1001357098
0.09080630965
0.07998720296
0.0681695941
0.05603876185
0.04443978779
0.03421841326
0.02601005687
0.02002113386
0.01600487027
0.01351917056
0.01225760863
0.01238878374
0.01542770457
0.03122284351
59704.63954
50474.78483
38781.78097
27217.62704
17615.98361
10621.37453
6028.949204
3248.814411
1664.534647
804.5903065
359.1752176
140.4553681
42.12215249
9.766326568
1.830636983
0.488999873
0.2047409961
0.1225925116
0.08905108253
0.07090165551
0.05945605642
0.0516245713
0.0460427208
0.0420776932
0.03942000412
0.03796462424
0.03762080692
0.038375218
0.04031917217
0.0435332209
0.04807574805
0.05392074178
0.06089308748
0.06864106891
0.07668905241
0.08451252237
0.09162822537
0.0977263233
0.1026497489
0.1063674714
0.1089351237
0.1103471484
0.1104183689
0.1092955954
0.1060454265
0.09990245358
0.0925603058
0.08412824323
0.07441720233
0.06380086983
0.05287564052
0.04238912324
0.03311860824
0.02563652034
0.0201335203
0.01646286007
0.01442368464
0.01433088016
0.01800354537
0.03735712427
57443.49396
50093.99549
39882.73334
29160.91911
19737.10443
12475.63957
7431.298559
4205.020999
2266.821798
1158.068578
551.9434611
238.0172799
86.40721087
23.05397988
4.652373793
0.9411730596
0.306706959
0.1480945073
0.0967108615
0.07311527728
0.05934907563
0.04993412798
0.04303949797
0.03786958672
0.0340399227
0.03142462138
0.02993711738
0.02947232449
0.03005524016
0.03184504289
0.03496499484
0.03951392126
0.04548842249
0.05271616443
0.06083822241
0.0693556108
0.07771181698
0.08540079624
0.09204489195
0.09738238675
0.1012773697
0.1036985106
0.104616335
0.1040914616
0.1021911838
0.09841478419
0.09243759102
0.08549315183
0.07764821077
0.06876913293
0.05916014531
0.04935465259
0.04003116266
0.03185687976
0.02528239685
0.0204808904
0.01752673974
0.01702432946
0.02131583731
0.04608943854
54858.95781
49174.18251
40457.98569
30709.61753
21645.75355
14278.46696
8884.832854
5251.026681
2958.148117
1584.216234
797.6717147
369.4680022
150.8078005
48.62128937
11.78257115
2.222288364
0.5440238495
0.2095460786
0.1168216716
0.08139386843
0.06315672772
0.05177907637
0.04383146827
0.0379359784
0.03342863672
0.03001561717
0.0275764715
0.02619448837
0.02574560143
0.02628749279
0.02798006127
0.03094363469
0.03526947272
0.04094925449
0.04782381693
0.05557337598
0.06375418466
0.07186800723
0.07944047193
0.08607293567
0.0914663615
0.09543261004
0.09787286078
0.09873340529