/*--------------------------------*- C++ -*----------------------------------*\
  =========                 |
  \\      /  F ield         | OpenFOAM: The Open Source CFD Toolbox
   \\    /   O peration     | Website:  https://openfoam.org
    \\  /    A nd           | Version:  10
     \\/     M anipulation  |
\*---------------------------------------------------------------------------*/
FoamFile
{
    format      ascii;
    class       volScalarField;
    location    "3000";
    object      G;
}
// * * * * * * * * * * * * * * * * * * * * * * * * * * * * * * * * * * * * * //

dimensions      [1 0 -3 0 0 0 0];

internalField   nonuniform List<scalar> 
5170
(
10082.17941
10079.82983
10074.66164
10066.81148
10056.30545
10429.88145
10427.4353
10422.05462
10413.8815
10402.94313
11044.24811
11041.63017
11035.87221
11027.12676
11015.42308
11943.91715
11941.04836
11934.73833
11925.15406
11912.32764
13156.18518
13152.97865
13145.92548
13135.21212
13120.87433
14717.89924
14714.25676
14706.24501
14694.07602
14677.79048
16676.43712
16672.24855
16663.03552
16649.04182
16630.31425
19091.15877
19086.29651
19075.60203
19059.35864
19037.62078
22035.39968
22029.71694
22017.21734
21998.23166
21972.82346
25598.43563
25591.76014
25577.07702
25554.77486
25524.92822
29888.47286
29880.60094
29863.28675
29836.98901
29801.79581
35035.73421
35026.42753
35005.95751
34974.86655
34933.25884
41196.43378
41185.4111
41161.16622
41124.34123
41075.05936
48557.50268
48544.42932
48515.6742
48471.99906
48413.54988
57342.30375
57326.78322
57292.64576
57240.79589
57171.4068
67817.31563
67798.87846
67758.32573
67696.73168
67614.3016
80300.26975
80278.36046
80230.16948
80156.97118
80059.00762
95169.45815
95143.46707
95086.27709
94999.35781
94882.95523
112869.4085
112840.0873
112774.9924
112674.6366
112538.0612
133762.2886
133768.4283
133770.6461
133742.2375
133644.3626
2406228.592
2405951.791
2405961.513
2406211.39
2406671.455
2398018.109
2397701.209
2397711.415
2397995.889
2398522.036
2383053.643
2382708.883
2382720.319
2383030.517
2383603.773
2360734.505
2360366.878
2360379.143
2360710.029
2361321.408
2330560.873
2330171.6
2330184.493
2330534.646
2331181.722
2292057.73
2291645.807
2291659.065
2292028.834
2292712.487
2244733.244
2244296.233
2244309.608
2244700.565
2245423.959
2188049.08
2187583.718
2187597.05
2188011.622
2188779.465
2121400.3
2120902.758
2120916.019
2121357.347
2122175.609
2044099.513
2043565.444
2043578.725
2044050.602
2044926.39
1955362.446
1954786.993
1954800.474
1955307.31
1956248.797
1854294.24
1853671.986
1853685.901
1854232.668
1855249.036
1739875.707
1739200.629
1739215.244
1739807.483
1740908.95
1610948.627
1610214.028
1610229.632
1610873.492
1612071.388
1466199.384
1465397.838
1465414.763
1466117.082
1467423.997
1304140.816
1303264.089
1303282.691
1304051.01
1305480.866
1123092.356
1122130.984
1122151.05
1122993.054
1124560.856
921172.7509
920108.739
920119.4657
921034.3409
922751.5875
696490.5136
695185.689
695041.1517
695922.4105
697748.6926
450106.3137
446168.177
444182.6601
443839.1709
445137.9401
153888.2549
154668.2383
156413.1613
159165.3384
163189.4739
90725.06143
90456.37285
89846.36235
88847.88975
87314.00631
56222.15823
56035.81589
55623.10876
54974.46436
54051.488
42085.3672
42011.23166
41847.35691
41591.22713
41235.55218
36210.20144
36183.33113
36123.6299
36030.29561
35902.25196
33381.65978
33371.14924
33347.5671
33310.59277
33260.10852
31762.67819
31757.93225
31747.14311
31730.22138
31707.19711
30696.24713
30693.76088
30688.04738
30679.15416
30667.10305
29921.00529
29919.50329
29916.05367
29910.74877
29903.59282
29321.28518
29320.24942
29317.90365
29314.31545
29309.48389
28842.88033
28842.12409
28840.45264
28837.89526
28834.45095
28453.62515
28453.07211
28451.8722
28450.0319
28447.54705
28130.75273
28130.34965
28129.47015
28128.111
28126.26097
27858.57807
27858.26902
27857.58122
27856.50825
27855.02795
27627.60715
27627.35371
27626.78611
27625.89813
27624.65436
27431.34632
27431.1324
27430.65465
27429.90356
27428.83021
27264.44287
27264.26238
27263.85598
27263.20485
27262.2482
27122.2305
27122.07267
27121.71086
27121.11517
27120.21522
27000.69211
27000.53855
27000.18214
26999.58462
26998.66931
26896.60642
26896.43896
26896.04888
26895.39355
26894.39432
26807.29987
26807.10194
26806.64316
26805.88151
26804.74127
26730.55953
26730.31717
26729.7612
26728.85498
26727.5297
26664.53208
26664.23562
26663.56339
26662.4875
26660.94854
26607.84982
26607.49465
26606.6965
26605.43762
26603.66914
26559.46427
26559.04884
26558.12133
26556.67444
26554.66997
26518.56968
26518.09399
26517.03708
26515.40207
26513.16119
26484.39559
26483.86106
26482.67789
26480.8592
26478.38702
26456.14897
26455.55827
26454.25448
26452.26012
26449.56629
26432.98507
26432.34233
26430.92661
26428.76892
26425.86857
26413.99483
26413.3054
26411.78922
26409.48484
26406.3989
26398.28203
26397.55245
26395.94991
26393.51952
26390.27412
26384.98284
26384.22069
26382.54811
26380.01557
26376.64105
26373.29016
26372.50363
26370.77869
26368.16991
26364.69903
26362.47496
26361.67288
26359.91443
26357.25655
26353.72276
26351.84554
26351.03656
26349.26267
26346.58075
26343.01314
26340.72702
26339.91659
26338.13832
26335.44683
26331.86089
26328.46829
26327.65702
26325.87528
26323.17461
26319.56931
26314.48984
26313.67476
26311.88308
26309.16345
26305.52568
26298.26094
26297.43687
26295.62389
26292.86811
26289.17469
26279.21261
26278.37212
26276.52126
26273.70329
26269.9177
26256.63646
26255.76681
26253.84946
26250.92452
26246.98487
26229.52568
26228.60891
26226.58674
26223.50004
26219.34031
26196.5925
26195.62101
26193.47877
26190.21062
26185.81005
26156.69573
26155.67071
26153.4114
26149.96728
26145.3347
26108.90984
26107.83685
26105.47272
26101.8713
26097.03184
26052.53519
26051.42214
26048.97056
26045.2382
26040.22711
25987.22438
25986.08083
25983.56283
25979.73141
25974.59113
25913.02259
25911.85929
25909.29841
25905.40338
25900.18091
25830.40701
25829.23481
25826.65484
25822.73216
25817.47518
25740.32792
25739.15712
25736.58064
25732.66438
25727.41811
25644.12098
25642.96089
25640.40831
25636.52924
25631.33445
25543.46654
25542.325
25539.8135
25535.9976
25530.88874
25440.35298
25439.23628
25436.77968
25433.04778
25428.05249
25337.01909
25335.93193
25333.54047
25329.90803
25325.04677
25236.00605
25234.95146
25232.63181
25229.10884
25224.39485
25140.21527
25139.19467
25136.94993
25133.54104
25128.98032
25053.09521
25052.1083
25049.93778
25046.64189
25042.23285
24978.908
24977.9527
24975.85179
24972.6618
24968.39485
24923.13443
24922.20654
24920.16594
24917.06768
24912.92368
24893.08791
24892.18043
24890.18478
24887.15488
24883.10249
24898.85616
24897.95839
24895.9841
24892.98669
24888.97783
24954.70043
24953.79606
24951.80728
24948.78785
24944.74953
25081.35908
25080.42295
25078.3643
25075.23873
25071.0583
25309.73699
25308.7291
25306.51262
25303.14731
25298.64603
25687.28637
25686.14065
25683.62106
25679.79542
25674.67824
26289.32509
26287.92707
26284.85264
26280.1846
26273.94068
27240.31775
27238.45743
27234.36652
27228.1556
27219.84885
28756.14194
28753.40758
28747.39524
28738.26887
28726.06607
31233.91716
31229.43592
31219.58434
31204.63519
31184.65625
35457.09579
35448.8418
35430.70157
35403.1894
35366.448
167088.0529
85814.16453
53244.72009
40937.00305
35796.83082
33218.87233
31688.49185
30657.35881
29897.81595
29305.56395
28831.6293
28445.48111
28124.69012
27853.73905
27623.54327
27427.84554
27261.34695
27119.35013
26997.78526
26893.44037
26803.67669
26726.32349
26659.5805
26602.12752
26552.94953
26511.26108
26476.31053
26447.32024
26423.46413
26403.85199
26387.60474
26373.87252
26361.85625
26350.83011
26340.09024
26328.91697
26316.60221
26302.52444
26286.11972
26266.77682
26243.70621
26215.87768
26182.15111
26141.48801
26093.01833
26036.07578
25970.33674
25895.86179
25813.13024
25723.08421
25627.04483
25526.6715
25423.93015
25321.03602
25220.50638
25125.21894
25038.59711
24964.87668
24909.50718
24879.76172
24885.67302
24941.42038
25067.61185
25294.93484
25670.45904
26268.79252
27213.00086
28716.00962
31168.20144
35336.21669
172750.2321
167784.9236
156382.267
137023.8129
105927.8006
83509.637
79684.17461
74912.16298
68751.15695
59903.10782
52045.45645
50284.03589
48746.28775
46901.0784
44224.69033
40497.45374
39862.69717
39363.30834
38771.53916
37943.64453
35642.17052
35413.463
35218.40555
34993.34962
34705.49673
33158.34749
33064.80309
32977.79285
32884.23747
32769.70164
31660.98138
31616.48857
31572.53794
31527.11351
31471.01672
30642.98724
30618.71892
30593.34999
30566.85293
30532.10448
29889.25572
29874.0858
29857.05918
29837.80842
29811.89373
29299.71511
29288.80185
29275.76976
29260.30542
29240.49872
28827.38577
28819.07527
28808.67449
28796.01335
28780.42532
28442.34517
28435.89099
28427.44732
28416.88075
28404.05264
28122.28003
28117.0546
28109.90933
28100.65181
28089.18032
27851.73997
27847.20206
27840.78418
27832.26193
27821.54367
27621.80256
27617.70349
27611.7734
27603.79094
27593.71022
27426.28849
27422.51122
27416.96205
27409.4346
27399.91864
27259.91072
27256.34845
27251.07085
27243.88829
27234.81107
27117.96507
27114.49626
27109.35849
27102.37467
27093.55003
26996.37033
26992.85357
26987.6996
26980.74423
26971.98122
26891.92067
26888.23035
26882.9262
26875.86117
26867.02444
26801.99422
26798.03549
26792.48472
26785.21481
26776.21635
26724.43395
26720.13518
26714.26461
26706.71733
26697.49091
26657.4549
26652.76695
26646.52397
26638.64521
26629.13851
26599.74815
26594.63952
26587.98739
26579.73585
26569.90345
26550.30864
26544.76248
26537.67911
26529.0269
26518.83429
26508.35722
26502.36693
26494.83998
26485.76815
26475.18885
26473.14806
26466.71689
26458.74429
26449.24431
26438.26166
26443.90884
26437.04986
26428.6405
26418.715
26407.32249
26419.81981
26412.55861
26403.73513
26393.40021
26381.6026
26399.99815
26392.37348
26383.17234
26372.45658
26360.26747
26383.57071
26375.63208
26366.1006
26355.04074
26342.47777
26369.69253
26361.4973
26351.68802
26340.32186
26327.40062
26357.56675
26349.17284
26339.13436
26327.49148
26314.21898
26346.46596
26337.92331
26327.69046
26315.78493
26302.15461
26335.67852
26327.01961
26316.60883
26304.43893
26290.42935
26324.46981
26315.70466
26305.11425
26292.664
26278.23863
26312.11561
26303.23135
26292.43877
26279.67036
26264.76733
26297.98177
26288.94318
26277.8985
26264.73787
26249.26029
26281.49094
26272.23222
26260.84238
26247.16947
26231.00704
26262.01192
26252.42262
26240.55011
26226.23644
26209.30307
26238.72693
26228.66677
26216.18669
26201.14629
26183.39177
26210.6191
26200.00212
26186.85502
26171.05443
26152.46718
26176.59704
26165.40941
26151.59606
26135.0513
26115.662
26135.65219
26123.92622
26109.4913
26092.25994
26072.13913
26086.9323
26074.73187
26059.75365
26041.92824
26021.18232
26029.78349
26017.19519
26001.77774
25983.47892
25962.244
25963.89073
25951.01696
25935.28221
25916.6499
25895.08224
25889.31965
25876.27281
25860.35378
25841.53978
25819.808
25806.55062
25793.44451
25777.47569
25758.63318
25736.90701
25716.52266
25703.46504
25687.57366
25668.84736
25647.28688
25620.55135
25607.63929
25591.93987
25573.45988
25552.20893
25520.28849
25507.60423
25492.19392
25474.07081
25453.25159
25417.69147
25405.30079
25390.25708
25372.57869
25352.28799
25314.96679
25302.91821
25288.29808
25271.12875
25251.43697
25214.62268
25202.94704
25188.78628
25172.16577
25153.11556
25119.52792
25108.23848
25094.55174
25078.49528
25060.1015
25033.09651
25022.18791
25008.96743
24993.46415
24975.71204
24959.5542
24949.00126
24936.21535
24921.22643
24904.06937
24904.33863
24894.09276
24881.68141
24867.13495
24850.48858
24874.70787
24864.69043
24852.55734
24838.33904
24822.07068
24880.6736
24870.7645
24858.76318
24844.69993
24828.60961
24936.38416
24926.40179
24914.31128
24900.14274
24883.9307
25062.39805
25052.06289
25039.54364
25024.87054
25008.07819
25289.32039
25278.18968
25264.70468
25248.8966
25230.80113
25664.07592
25651.42012
25636.08555
25618.1065
25597.52208
26261.00404
26245.56224
26226.85249
26204.91681
26179.80311
27202.64133
27182.1077
27157.23697
27128.08975
27094.7351
28700.79848
28670.6684
28634.20419
28591.51172
28542.71157
31143.31844
31094.08868
31034.59719
30965.06619
30885.74871
35290.51874
35200.27594
35091.47503
34964.66398
34820.46487
69454.721
56374.79766
50823.82931
47395.88648
44780.32061
42659.72619
40899.79131
39416.58698
38150.96468
37059.31912
36108.71934
35273.88279
34535.1319
33876.96063
33287.00813
32755.3135
32273.76807
31835.70835
31435.61013
31068.85625
30731.55842
30420.41928
30132.6244
29865.7572
29617.73121
29386.73579
29171.19229
28969.71837
28781.09879
28604.2612
28438.25619
28282.24052
28135.46322
27997.25374
27867.01209
27744.20033
27628.33545
27518.98315
27415.75255
27318.29163
27226.28323
27139.44169
27057.50999
26980.25729
26907.47686
26838.98415
26774.61524
26714.22544
26657.68813
26604.89395
26555.75007
26510.17974
26468.12195
26429.53127
26394.37792
26362.648
26334.34396
26309.4853
26288.10956
26270.2735
50395.21814
45951.21145
43830.76076
42363.02615
41096.11948
39928.50268
38849.12416
37857.37578
36950.86593
36124.82924
35373.0818
34688.91682
34065.67369
33497.05711
32977.28945
32501.16372
32064.03977
31661.81094
31290.85732
30947.99449
30630.42298
30335.68058
30061.59925
29806.26701
29567.99464
29345.28691
29136.81752
28941.40734
28758.00564
28585.67411
28423.57314
28270.95021
28127.12965
27991.50381
27863.52528
27742.70023
27628.58275
27520.76996
27418.89773
27322.6369
27231.68995
27145.78806
27064.68871
26988.17351
26916.04642
26848.13218
26784.27484
26724.33662
26668.19694
26615.75163
26566.9124
26521.60637
26479.77581
26441.37807
26406.38564
26374.78647
26346.58447
26321.80015
26300.47164
26282.65591
41193.41067
39664.52621
38886.20391
38282.53792
37700.9383
37110.05321
36515.01718
35926.24107
35352.44168
34799.77015
34272.06725
33771.4108
33298.59218
32853.50976
32435.46185
32043.36416
31675.90605
31331.66135
31009.16515
30706.96563
30423.6578
30157.90417
29908.44635
29674.11041
29453.80803
29246.53496
29051.36761
28867.45853
28694.03132
28530.37548
28375.84125
28229.83482
28091.81365
27961.28227
27837.78817
27720.91819
27610.29512
27505.57469
27406.4428
27312.61316
27223.82507
27139.84154
27060.44764
26985.44896
26914.67027
26847.95428
26785.16063
26726.16506
26670.85871
26619.14761
26570.95227
26526.20738
26484.86169
26446.87795
26412.23319
26380.91899
26352.94205
26328.32483
26307.10655
26289.34438
36861.80601
36156.31683
35786.9681
35493.51005
35200.01624
34883.97475
34547.69947
34197.8829
33840.98406
33482.43736
33126.59057
32776.81501
32435.64035
32104.89817
31785.84725
31479.28638
31185.65017
30905.09083
30637.54565
30382.79227
30140.49309
29910.23082
29691.5366
29483.9117
29286.84397
29099.81997
28922.33374
28753.89319
28594.02457
28442.27557
28298.21698
28161.44361
28031.57435
27908.25198
27791.14268
27679.93546
27574.34129
27474.09215
27378.93998
27288.65568
27203.02817
27121.86357
27044.98449
26972.22928
26903.45127
26838.51812
26777.3113
26719.72554
26665.66861
26615.06099
26567.83568
26523.93816
26483.32635
26445.97081
26411.855
26380.97573
26353.34365
26328.98396
26307.9374
26290.26139
34299.58789
33936.53003
33724.35663
33559.60754
33392.80784
33208.08287
33005.12939
32787.65934
32559.45079
32323.78136
32083.49077
31841.03243
31598.50566
31357.68284
31120.03455
30886.7576
30658.80264
30436.90338
30221.60473
30013.29009
29812.20651
29618.48802
29432.17648
29253.23999
29081.58878
28917.08854
28759.57161
28608.84629
28464.70451
28326.92819
28195.29426
28069.57871
27949.55959
27835.01946
27725.74716
27621.53922
27522.20089
27427.54683
27337.4016
27251.5999
27169.98688
27092.41814
27018.75985
26948.88862
26882.69141
26820.06549
26760.91831
26705.16755
26652.74107
26603.57693
26557.62343
26514.83928
26475.19373
26438.66695
26405.25042
26374.94732
26347.7732
26323.75662
26302.9401
26285.38128
32601.72206
32401.65534
32259.95969
32153.22425
32045.84418
31928.41462
31798.14171
31656.42045
31505.23596
31346.37131
31181.43366
31011.897
30839.11767
30664.33707
30488.68269
30313.16716
30138.68751
29966.02653
29795.85573
29628.74071
29465.1481
29305.45413
29149.9535
28998.86865
28852.35867
28710.52813
28573.43541
28441.10032
28313.51093
28190.62946
28072.39755
27958.74069
27849.5723
27744.7971
27644.31403
27548.01858
27455.80467
27367.56633
27283.19898
27202.60066
27125.67307
27052.32232
26982.45961
26916.00162
26852.87102
26792.99674
26736.3144
26682.76663
26632.30334
26584.88199
26540.46787
26499.03442
26460.56366
26425.04655
26392.48356
26362.88508
26336.27213
26312.67695
26292.14401
26274.73104
31385.87206
31268.57972
31162.47553
31081.17809
31005.75488
30926.15144
30838.84792
30743.32796
30640.34025
30530.78136
30415.52289
30295.40128
30171.22354
30043.77002
29913.79306
29782.01283
29649.11222
29515.73062
29382.45847
29249.83335
29118.33813
28988.40067
28860.39462
28734.64123
28611.41193
28490.93179
28373.38354
28258.91187
28147.62777
28039.61262
27934.92214
27833.59003
27735.63142
27641.04595
27549.82058
27461.93211
27377.34924
27296.03457
27217.94627
27143.03964
27071.26842
27002.58592
26936.94602
26874.30397
26814.6172
26757.84595
26703.95397
26652.90907
26604.68358
26559.25483
26516.60566
26476.72483
26439.60764
26405.25641
26373.68097
26344.8993
26318.93804
26295.83326
26275.6313
26258.38975
30478.17382
30399.24079
30313.50023
30244.05787
30185.52906
30127.64887
30066.42672
30000.038
29928.12076
29850.95189
29768.94567
29682.54892
29592.21963
29498.42236
29401.6268
29302.30563
29200.93075
29097.96807
28993.87196
28889.07977
28784.00646
28679.04008
28574.53875
28470.82882
28368.20434
28266.92744
28167.2292
28069.31094
27973.34575
27879.48052
27787.83818
27698.52008
27611.60831
27527.16792
27445.24901
27365.88866
27289.11283
27214.9381
27143.37336
27074.4213
27008.07976
26944.34283
26883.20196
26824.64694
26768.66679
26715.25064
26664.38851
26616.07196
26570.29471
26527.05323
26486.34736
26448.18088
26412.56211
26379.50452
26349.02723
26321.15559
26295.92176
26273.36545
26253.53463
26236.48642
29773.01648
29714.44222
29644.95952
29580.26124
29529.32913
29484.29606
29438.96658
29390.96106
29339.17247
29283.36663
29223.65773
29160.25736
29093.41045
29023.3805
28950.4466
28874.90246
28797.05469
28717.21972
28635.71982
28552.87854
28469.01603
28384.4447
28299.46512
28214.36318
28129.40789
28044.84964
27960.9193
27877.82776
27795.76603
27714.9057
27635.39983
27557.38385
27480.97674
27406.28218
27333.38982
27262.37652
27193.30774
27126.2388
27061.2162
26998.27878
26937.45882
26878.78311
26822.27386
26767.94972
26715.82664
26665.91876
26618.23913
26572.80044
26529.61562
26488.69853
26450.06461
26413.73148
26379.71959
26348.05278
26318.75876
26291.86972
26267.42286
26245.46105
26226.03352
26209.1965
29211.2859
29165.87734
29108.75317
29049.14784
29000.12941
28960.72584
28924.57045
28887.75906
28848.73339
28806.85949
28762.00404
28714.21449
28663.59709
28610.28441
28554.42776
28496.19569
28435.77299
28373.35908
28309.16587
28243.41432
28176.33183
28108.14888
28039.09599
27969.40098
27899.28606
27828.96547
27758.64365
27688.514
27618.75821
27549.54581
27481.03405
27413.36787
27346.68011
27281.09187
27216.71294
27153.64249
27091.96971
27031.77465
26973.12894
26916.09657
26860.73462
26807.09408
26755.22061
26705.15539
26656.93584
26610.59639
26566.16912
26523.68435
26483.17133
26444.65884
26408.17583
26373.75204
26341.41854
26311.20823
26283.15638
26257.30107
26233.6838
26212.34998
26193.34951
26176.73727
28757.50679
28720.74688
28672.43552
28618.05887
28568.0833
28529.62786
28497.55069
28466.97796
28435.66563
28402.65663
28367.58816
28330.36253
28290.97594
28249.46322
28205.8824
28160.31073
28112.84016
28063.57758
28012.6442
27960.17446
27906.3152
27851.22312
27795.06205
27738.00016
27680.20742
27621.85336
27563.10522
27504.12638
27445.07529
27386.10454
27327.36017
27268.98111
27211.09881
27153.83695
27097.31141
27041.6303
26986.89419
26933.19631
26880.62285
26829.25326
26779.16069
26730.41246
26683.07068
26637.19276
26592.83204
26550.03826
26508.85813
26469.33583
26431.51359
26395.43226
26361.13181
26328.65191
26298.03237
26269.31356
26242.53689
26217.74522
26194.98333
26174.29839
26155.74033
26139.36213
28384.93615
28353.68709
28311.39664
28261.36287
28211.15712
28169.53778
28137.24825
28109.32868
28082.32269
28054.79035
28026.11208
27996.05074
27964.51262
27931.45595
27896.85809
27860.72154
27823.04998
27783.86855
27743.22307
27701.17789
27657.81364
27613.2249
27567.51744
27520.80576
27473.211
27424.85907
27375.87899
27326.40144
27276.55736
27226.4768
27176.28782
27126.1156
27076.08174
27026.30373
26976.89457
26927.96242
26879.61038
26831.93633
26785.03277
26738.98689
26693.88066
26649.79107
26606.79047
26564.94683
26524.32415
26484.98275
26446.97969
26410.36916
26375.20299
26341.53101
26309.40159
26278.86192
26249.95847
26222.73728
26197.24433
26173.52594
26151.62911
26131.60185
26113.49339
26097.35433
28072.07078
28044.59304
28006.64499
27959.96633
27910.11961
27864.91616
27829.39481
27801.03278
27775.79549
27751.30481
27726.61081
27701.34443
27675.34426
27648.47787
27620.62892
27591.70786
27561.62479
27530.33678
27497.82601
27464.09693
27429.17374
27393.09792
27355.92583
27317.72647
27278.57952
27238.57347
27197.80392
27156.37202
27114.38292
27071.94435
27029.16535
26986.15519
26943.02257
26899.87481
26856.81732
26813.95307
26771.38205
26729.20093
26687.5027
26646.37649
26605.9075
26566.17698
26527.26235
26489.23727
26452.1718
26416.13257
26381.18309
26347.38401
26314.79344
26283.46731
26253.45963
26224.82275
26197.60764
26171.86411
26147.64116
26124.98718
26103.95025
26084.57827
26066.91905
26051.0203
27805.99999
27781.54815
27747.18579
27703.49766
27654.40171
27606.48568
27565.9747
27534.30895
27508.25531
27484.79168
27462.28806
27440.10785
27417.97509
27395.65158
27372.91471
27349.55771
27325.41244
27300.36732
27274.34182
27247.28491
27219.17142
27189.99861
27159.78296
27128.55747
27096.3693
27063.27761
27029.3515
26994.66809
26959.31078
26923.36763
26886.9301
26850.09196
26812.94831
26775.59486
26738.12719
26700.64014
26663.2272
26625.98007
26588.98825
26552.33871
26516.11569
26480.40055
26445.27163
26410.80424
26377.07064
26344.14014
26312.07926
26280.95189
26250.81953
26221.7414
26193.77465
26166.97449
26141.39434
26117.08601
26094.09991
26072.48518
26052.28982
26033.56073
26016.3436
26000.68283
27579.51183
27557.49018
27526.10294
27485.10791
27437.07582
27387.34142
27342.13059
27305.26023
27275.99595
27251.53861
27229.8039
27209.49688
27190.01072
27170.97438
27152.03186
27132.87331
27113.26186
27093.0174
27072.0078
27050.14019
27027.35392
27003.61503
26978.91198
26953.25206
26926.65853
26899.16801
26870.82829
26841.69631
26811.83654
26781.31941
26750.21999
26718.61688
26686.59135
26654.2265
26621.60653
26588.81609
26555.93983
26523.06179
26490.26511
26457.63155
26425.24127
26393.17248
26361.50123
26330.30126
26299.64394
26269.59826
26240.23087
26211.6062
26183.78649
26156.83184
26130.80027
26105.74774
26081.72829
26058.79407
26036.99545
26016.38107
25996.9978
25978.89066
25962.10264
25946.67444
27386.79489
27366.68556
27337.73283
27299.15829
27252.47638
27201.82829
27152.94521
27110.71773
27076.78485
27049.52575
27026.81156
27007.27197
26989.58193
26972.93436
26956.78279
26940.69071
26924.35862
26907.57797
26890.19889
26872.114
26853.24868
26833.55452
26813.00463
26791.59008
26769.31713
26746.20483
26722.28314
26697.59121
26672.1759
26646.09057
26619.39387
26592.1488
26564.4219
26536.28246
26507.80193
26479.05325
26450.11034
26421.04769
26391.93986
26362.86116
26333.88517
26305.08445
26276.53022
26248.29215
26220.43827
26193.03485
26166.14641
26139.83562
26114.16329
26089.18833
26064.96768
26041.55631
26019.00724
25997.37151
25976.69819
25957.03427
25938.42457
25920.91148
25904.53477
25889.3312
27222.48363
27203.79832
27176.78502
27140.31574
27095.12967
27044.29306
26992.79424
26945.81661
26906.6181
26875.39115
26850.32365
26829.91225
26813.01278
26798.02224
26783.92959
26770.06069
26756.04912
26741.6838
26726.82641
26711.3806
26695.27837
26678.47275
26660.93359
26642.64495
26623.60297
26603.8144
26583.29524
26562.06968
26540.16906
26517.631
26494.49853
26470.81939
26446.64528
26422.03131
26397.03539
26371.71777
26346.14059
26320.36747
26294.46306
26268.49259
26242.52141
26216.61466
26190.83692
26165.252
26139.92273
26114.91088
26090.27696
26066.08012
26042.37801
26019.22666
25996.6804
25974.79174
25953.61137
25933.18801
25913.56833
25894.79675
25876.91521
25859.96291
25843.976
25828.98712
27081.6271
27063.81571
27038.31837
27003.66619
26959.9928
26909.44759
26856.17754
26805.20602
26760.6841
26724.4931
26695.97805
26673.4256
26655.85574
26641.576
26628.83808
26616.59249
26604.27126
26591.63831
26578.57344
26565.00145
26550.87029
26536.14277
26520.79326
26504.80571
26488.17252
26470.89381
26452.97675
26434.43503
26415.28829
26395.56162
26375.28502
26354.49293
26333.22378
26311.51953
26289.42533
26266.98916
26244.26144
26221.29466
26198.14297
26174.86178
26151.50731
26128.13628
26104.80558
26081.572
26058.49204
26035.62168
26013.01613
25990.72972
25968.81564
25947.32579
25926.3107
25905.81935
25885.89902
25866.59518
25847.95122
25830.00823
25812.80467
25796.37611
25780.75481
25765.96923
26960.16642
26942.88291
26918.5781
26885.47861
26843.24064
26793.2543
26738.82672
26684.56634
26635.01346
26593.26884
26560.14793
26534.44191
26514.69864
26499.98792
26487.78677
26476.56313
26465.4345
26454.05665
26442.30161
26430.10597
26417.42999
26404.24586
26390.53362
26376.27963
26361.4759
26346.11975
26330.21357
26313.76454
26296.78448
26279.28953
26261.29994
26242.83979
26223.93678
26204.62202
26184.92978
26164.89726
26144.56426
26123.97293
26103.16735
26082.19327
26061.09772
26039.92877
26018.73521
25997.56634
25976.47164
25955.50059
25934.70233
25914.12551
25893.81803
25873.82688
25854.19795
25834.97589
25816.20387
25797.92335
25780.17381
25762.99246
25746.41388
25730.46969
25715.18813
25700.59351
26855.16979
26838.22439
26814.84349
26783.0379
26742.10432
26692.81427
26637.68975
26580.77291
26526.648
26479.19026
26440.53281
26410.56847
26387.74041
26370.93772
26358.34003
26347.45143
26337.03769
26326.51235
26315.69154
26304.50448
26292.91356
26280.89429
26268.4293
26255.50626
26242.11703
26228.25735
26213.92664
26199.12797
26183.86787
26168.15629
26152.00647
26135.43486
26118.46105
26101.10764
26083.40014
26065.36679
26047.03833
26028.44783
26009.63041
25990.62297
25971.46403
25952.19343
25932.85212
25913.48187
25894.12506
25874.82437
25855.62253
25836.56212
25817.68533
25799.03376
25780.64823
25762.56856
25744.8333
25727.47946
25710.54219
25694.05447
25678.04675
25662.54657
25647.5781
25633.16159
26764.23598
26747.48512
26724.79992
26694.04495
26654.25475
26605.70635
26550.22997
26491.22383
26433.06328
26380.04154
26335.30465
26299.98713
26273.09566
26253.0255
26238.76565
26227.47604
26217.28588
26207.26653
26197.07643
26186.60783
26175.81449
26164.66968
26153.15528
26141.2583
26128.9696
26116.28323
26103.19625
26089.70852
26075.82267
26061.54404
26046.88072
26031.84349
26016.44579
26000.7037
25984.63579
25968.26307
25951.60879
25934.69835
25917.55915
25900.22041
25882.71304
25865.06945
25847.3233
25829.50931
25811.66297
25793.82034
25776.01777
25758.29176
25740.67869
25723.21465
25705.93517
25688.87501
25672.06786
25655.54601
25639.3401
25623.47874
25607.98813
25592.89172
25578.20967
25563.95832
26685.32106
26668.64823
26646.46627
26616.5422
26577.72407
26529.90291
26474.31808
26413.71673
26352.08363
26293.83835
26242.82169
26201.32286
26169.39583
26145.39217
26127.9327
26115.3587
26104.85459
26095.0225
26085.2121
26075.22723
26064.9999
26054.49656
26043.69593
26032.58282
26021.14605
26009.37752
25997.27183
25984.82602
25972.0395
25958.91402
25945.45361
25931.66461
25917.55563
25903.13754
25888.42337
25873.42824
25858.16931
25842.66567
25826.93829
25811.00987
25794.90474
25778.64873
25762.26896
25745.79366
25729.25194
25712.67365
25696.08911
25679.52897
25663.02398
25646.60478
25630.30168
25614.14434
25598.16152
25582.38082
25566.82829
25551.52818
25536.50251
25521.77068
25507.34897
25493.25003
26616.72237
26600.02051
26578.16967
26548.878
26510.86451
26463.72657
26408.21597
26346.47955
26281.99616
26219.06602
26161.92087
26113.74611
26075.75861
26046.9556
26025.50931
26010.33364
25998.84664
25988.79544
25979.11879
25969.41585
25959.56453
25949.51469
25939.2378
25928.71438
25917.93005
25906.87395
25895.53808
25883.91685
25872.00692
25859.80705
25847.31804
25834.54265
25821.4856
25808.15352
25794.55488
25780.70003
25766.60111
25752.27201
25737.72833
25722.98731
25708.06767
25692.98952
25677.77422
25662.44421
25647.02288
25631.53438
25616.00348
25600.45538
25584.91553
25569.40939
25553.96217
25538.59863
25523.34277
25508.21754
25493.24459
25478.4439
25463.83344
25449.42873
25435.24238
25421.28355
26557.18176
26540.33471
26518.63713
26489.77766
26452.38314
26405.83196
26350.48357
26287.95553
26221.19395
26154.19719
26091.32781
26036.39399
25991.67782
25957.20933
25931.22001
25912.09652
25898.55671
25887.72759
25877.9225
25868.34444
25858.73108
25848.9957
25839.09792
25829.01286
25818.72287
25808.21462
25797.47786
25786.5048
25775.28979
25763.82914
25752.12097
25740.16515
25727.96323
25715.51841
25702.83552
25689.92101
25676.78292
25663.43083
25649.87587
25636.13058
25622.20891
25608.12603
25593.89828
25579.54305
25565.07864
25550.52417
25535.8994
25521.22455
25506.52017
25491.80686
25477.10509
25462.43496
25447.81594
25433.26664
25418.80447
25404.44541
25390.20356
25376.09077
25362.11621
25348.28583
26505.75629
26488.63659
26466.88847
26438.24356
26401.26314
26355.1633
26299.99427
26236.92088
26168.37567
26097.94414
26029.8969
25968.39473
25916.55164
25875.52436
25844.25757
25820.7178
25803.67389
25791.29316
25780.97312
25771.36101
25761.87597
25752.34755
25742.71502
25732.94728
25723.02386
25712.92952
25702.65229
25692.18265
25681.51309
25670.63786
25659.55286
25648.2555
25636.74474
25625.02095
25613.08601
25600.94319
25588.59716
25576.05397
25563.32099
25550.40681
25537.32127
25524.07531
25510.68094
25497.15116
25483.49984
25469.74165
25455.89188
25441.96628
25427.98093
25413.952
25399.89559
25385.82751
25371.76305
25357.71675
25343.70214
25329.73141