/*--------------------------------*- C++ -*----------------------------------*\
  =========                 |
  \\      /  F ield         | OpenFOAM: The Open Source CFD Toolbox
   \\    /   O peration     | Website:  https://openfoam.org
    \\  /    A nd           | Version:  10
     \\/     M anipulation  |
\*---------------------------------------------------------------------------*/
FoamFile
{
    format      ascii;
    class       volScalarField;
    location    "3000";
    object      H;
}
// * * * * * * * * * * * * * * * * * * * * * * * * * * * * * * * * * * * * * //

dimensions      [0 0 0 0 0 0 0];

internalField   nonuniform List<scalar> 
5170
(
4.519663398e-62
2.658233334e-63
7.01340953e-63
5.521867668e-62
1.999108299e-60
2.73329428e-62
3.67422683e-62
1.469928505e-61
7.064470328e-61
3.869392109e-61
5.716584924e-61
8.572043912e-61
3.152495733e-61
8.787867752e-61
3.544732681e-60
1.660875866e-60
1.998661816e-60
3.460521735e-61
0
0
1.890491393e-59
6.863580619e-60
7.414441598e-61
0
0
1.353248905e-56
4.455015669e-57
3.043045916e-58
4.535368164e-60
0
1.002639972e-53
3.198353311e-54
1.862283272e-55
2.34998764e-57
0
7.477860507e-51
2.33285772e-51
1.232749106e-52
1.401717637e-54
0
5.669865046e-48
1.803670106e-48
9.02059095e-50
1.003038632e-51
0
4.401163832e-45
1.487503109e-45
7.385833518e-47
1.098021642e-48
0
3.517135416e-42
1.322017727e-42
7.277497651e-44
2.906521901e-45
0
2.886216238e-39
1.262226169e-39
9.217305458e-41
1.362169775e-41
5.562356033e-42
2.43843454e-36
1.300968604e-36
1.55588665e-37
7.22268206e-38
7.100445551e-38
2.109788555e-33
1.433504101e-33
3.308972683e-34
3.796982582e-34
4.513852172e-34
1.87296307e-30
1.700550481e-30
8.166432109e-31
1.919074568e-30
2.747151452e-30
1.678284609e-27
2.13384911e-27
2.158808772e-27
8.912091748e-27
1.667540562e-26
1.510478945e-24
2.831408408e-24
5.77356718e-24
3.716703454e-23
1.013199429e-22
1.326805734e-21
3.808079126e-21
1.501607249e-20
1.428442348e-19
6.162777585e-19
1.081809406e-18
4.949898016e-18
3.588995867e-17
4.773665229e-16
3.752171201e-15
7.382978189e-16
5.857903554e-15
7.724255971e-14
1.447584353e-12
2.3157821e-11
1.31181862e-05
1.490466124e-05
1.553001098e-05
1.446709313e-05
1.299151557e-05
7.662608928e-06
9.457060711e-06
1.004224571e-05
8.962148921e-06
7.413868029e-06
4.951562617e-06
6.351815474e-06
6.794676757e-06
5.948032956e-06
4.693041878e-06
3.414681151e-06
4.484815987e-06
4.778154302e-06
4.068423849e-06
3.126282344e-06
2.469368543e-06
3.277336226e-06
3.468837091e-06
2.841122532e-06
2.128729582e-06
1.86010083e-06
2.459210029e-06
2.575867023e-06
2.021880137e-06
1.492218573e-06
1.44373002e-06
1.880559518e-06
1.941678302e-06
1.470057815e-06
1.087746135e-06
1.15083766e-06
1.465695283e-06
1.488383672e-06
1.11184016e-06
8.396801339e-07
9.425289842e-07
1.168694635e-06
1.167827236e-06
8.854515687e-07
6.90092572e-07
7.930094704e-07
9.553221755e-07
9.436076017e-07
7.394049241e-07
5.972373585e-07
6.853288231e-07
8.024422423e-07
7.873633773e-07
6.413691132e-07
5.362229341e-07
6.068919856e-07
6.924447246e-07
6.778834049e-07
5.728665978e-07
4.934908208e-07
5.488351557e-07
6.125113755e-07
5.998528037e-07
5.230253286e-07
4.617114488e-07
5.048633677e-07
5.53269897e-07
5.428450124e-07
4.853501436e-07
4.368057938e-07
4.707506393e-07
5.08460021e-07
5.000051873e-07
4.558322793e-07
4.163687435e-07
4.434811456e-07
4.736294298e-07
4.668323905e-07
4.31857843e-07
3.988015879e-07
4.210795766e-07
4.457350212e-07
4.40118934e-07
4.116219271e-07
3.830998328e-07
4.026162043e-07
4.226712837e-07
4.17615334e-07
3.9375317e-07
3.68558e-07
4.090511702e-07
4.090306407e-07
3.987925872e-07
3.771896674e-07
3.542019664e-07
3.33990883e-06
1.225785167e-06
5.040571776e-07
3.757518745e-07
3.345004173e-07
1.365403441e-13
1.738229471e-12
5.322007532e-11
2.456098857e-09
1.430361343e-07
2.720243227e-13
2.581176233e-12
5.404243691e-11
1.606218423e-09
4.977711624e-08
3.315995489e-13
2.530900009e-12
4.119792426e-11
9.543983784e-10
2.055599138e-08
3.475759286e-13
2.37920495e-12
3.608770118e-11
7.473806229e-10
1.284015503e-08
3.538062644e-13
2.400905995e-12
3.648735502e-11
6.715164782e-10
9.517319866e-09
4.009325972e-13
2.952159001e-12
4.663935735e-11
8.010097087e-10
1.011391443e-08
7.202892892e-13
6.465471643e-12
1.064392544e-10
1.581328752e-09
1.634218179e-08
1.816364684e-12
1.753933511e-11
2.525765175e-10
2.851616561e-09
2.302250947e-08
4.451078747e-12
4.042588945e-11
4.612283445e-10
3.936637774e-09
2.549106049e-08
1.025291383e-11
8.326740576e-11
7.545798713e-10
5.154435866e-09
2.85136538e-08
2.567995973e-11
1.683293956e-10
1.20600521e-09
6.997546248e-09
3.456370522e-08
5.841227775e-11
3.058385069e-10
1.819142158e-09
9.287228563e-09
4.144084327e-08
1.19387609e-10
5.065830449e-10
2.543475594e-09
1.141964033e-08
4.563268075e-08
2.31138142e-10
7.992452748e-10
3.433379327e-09
1.368495218e-08
4.95690358e-08
4.529605859e-10
1.291128244e-09
4.817172575e-09
1.735484704e-08
5.678373063e-08
9.271954892e-10
2.206689979e-09
7.14511692e-09
2.329050664e-08
6.966426606e-08
1.943969193e-09
3.942952497e-09
1.102063571e-08
3.21678517e-08
8.721058937e-08
3.929070733e-09
6.993758009e-09
1.707459071e-08
4.31815766e-08
1.048025266e-07
7.904860961e-09
1.233478552e-08
2.536455881e-08
5.554939222e-08
1.214949255e-07
1.438793756e-08
2.012366764e-08
3.579208458e-08
6.959528625e-08
1.405322894e-07
2.333139302e-08
3.025415853e-08
4.864825308e-08
8.743017305e-08
1.676360545e-07
3.406547062e-08
4.236876468e-08
6.503741098e-08
1.119494515e-07
2.075315493e-07
4.819577462e-08
5.893278425e-08
8.720989542e-08
1.454792748e-07
2.6003207e-07
6.70932478e-08
8.092633738e-08
1.168358216e-07
1.89057529e-07
3.258751865e-07
9.328409849e-08
1.111315097e-07
1.568566637e-07
2.451032589e-07
4.069690112e-07
1.286675871e-07
1.511770449e-07
2.079539906e-07
3.172633499e-07
5.097120103e-07
1.818245278e-07
2.110428774e-07
2.838461951e-07
4.181799496e-07
6.51134813e-07
2.620036911e-07
3.000221904e-07
3.934295433e-07
5.656050914e-07
8.563677986e-07
3.893961261e-07
4.394131866e-07
5.602749184e-07
7.816598433e-07
1.157328971e-06
5.958726662e-07
6.654944585e-07
8.332812836e-07
1.131184227e-06
1.622011932e-06
9.363871202e-07
1.035049646e-06
1.269779551e-06
1.679978152e-06
2.343101008e-06
1.523020536e-06
1.664887158e-06
1.999810266e-06
2.575912407e-06
3.486759365e-06
2.594386794e-06
2.802004945e-06
3.286017162e-06
4.103188431e-06
5.364979273e-06
4.640437181e-06
4.943470638e-06
5.639968054e-06
6.79080973e-06
8.512093404e-06
8.433138293e-06
8.845456333e-06
9.783372565e-06
1.129355682e-05
1.347936179e-05
1.413537156e-05
1.462783332e-05
1.573686906e-05
1.749738119e-05
2.001051093e-05
2.060662143e-05
2.115806097e-05
2.240284877e-05
2.438860059e-05
2.724396823e-05
2.721480732e-05
2.788321048e-05
2.940089023e-05
3.184577153e-05
3.540332059e-05
3.532976849e-05
3.626072553e-05
3.837858774e-05
4.179800569e-05
4.677651011e-05
4.926857741e-05
5.071240516e-05
5.397550948e-05
5.917138059e-05
6.655280495e-05
7.855991771e-05
8.060465476e-05
8.507790734e-05
9.176221213e-05
0.0001003528409
0.000118694043
0.0001200845842
0.0001229974121
0.0001270355406
0.0001317319136
0.0001400638114
0.0001404743285
0.0001412813404
0.0001422572277
0.0001431215744
0.0001394244168
0.0001392261192
0.0001387448272
0.0001378962847
0.0001365566823
0.0001244726714
0.0001240123342
0.0001229851528
0.0001213828603
0.0001191717128
0.000102994928
0.0001024845752
0.0001013619399
9.965590869e-05
9.737459552e-05
8.046584628e-05
8.001355231e-05
7.902412951e-05
7.753480659e-05
7.556766743e-05
6.004757353e-05
5.969079046e-05
5.891231196e-05
5.77457385e-05
5.621402293e-05
4.316009575e-05
4.289929828e-05
4.233101167e-05
4.14813299e-05
4.036900152e-05
3.007817194e-05
2.989774819e-05
2.950484248e-05
2.891795527e-05
2.8150675e-05
2.044189265e-05
2.032216762e-05
2.006143418e-05
1.967236919e-05
1.916365921e-05
1.362748028e-05
1.355058561e-05
1.338318492e-05
1.313322195e-05
1.280649175e-05
8.960450269e-06
8.912166475e-06
8.807039675e-06
8.65000302e-06
8.444617758e-06
5.838766793e-06
5.808939888e-06
5.743984529e-06
5.646903772e-06
5.519829079e-06
3.787466709e-06
3.769231296e-06
3.729508115e-06
3.670100067e-06
3.59226023e-06
2.455942087e-06
2.444848627e-06
2.420674807e-06
2.384495033e-06
2.337038099e-06
1.597864101e-06
1.591115914e-06
1.576405377e-06
1.554371473e-06
1.525435915e-06
1.046409006e-06
1.042286614e-06
1.033296398e-06
1.019819529e-06
1.002100105e-06
6.91597735e-07
6.890592151e-07
6.83520805e-07
6.752115097e-07
6.642732937e-07
4.622774137e-07
4.606967491e-07
4.572466141e-07
4.52066095e-07
4.452384935e-07
3.12978446e-07
3.119806486e-07
3.098017986e-07
3.065275418e-07
3.022073546e-07
2.148386489e-07
2.141988232e-07
2.128010542e-07
2.1069895e-07
2.079223516e-07
1.495859982e-07
1.491686276e-07
1.482564676e-07
1.468836889e-07
1.450686103e-07
1.056399329e-07
1.053627289e-07
1.047566612e-07
1.038439376e-07
1.026360317e-07
7.563223321e-08
7.54447282e-08
7.503463633e-08
7.441668646e-08
7.359822041e-08
5.484818889e-08
5.471904326e-08
5.443650002e-08
5.401053146e-08
5.344594922e-08
4.024229706e-08
4.015183291e-08
3.995387282e-08
3.965530256e-08
3.925934696e-08
2.984115581e-08
2.977676545e-08
2.963583026e-08
2.942319673e-08
2.914108252e-08
2.237366131e-08
2.232714374e-08
2.222532109e-08
2.207166567e-08
2.186773353e-08
1.732486396e-08
1.729004198e-08
1.721379674e-08
1.709870457e-08
1.694590181e-08
2.45142545e-06
5.365964788e-07
1.761504936e-07
9.676349554e-08
6.356403591e-08
6.237797814e-08
8.843151792e-08
1.031688401e-07
9.547764437e-08
9.420817414e-08
1.054187035e-07
1.166768987e-07
1.16286808e-07
1.163257295e-07
1.258208234e-07
1.478669247e-07
1.758740721e-07
1.985345671e-07
2.171416438e-07
2.404189991e-07
2.783346933e-07
3.339330406e-07
4.064620714e-07
4.948565688e-07
6.002299621e-07
7.32004532e-07
9.130812805e-07
1.175504148e-06
1.560932254e-06
2.141495584e-06
3.02944537e-06
4.405641741e-06
6.599438644e-06
1.013252379e-05
1.546372502e-05
2.226483942e-05
2.983343432e-05
3.866939205e-05
5.13293309e-05
7.302549715e-05
0.0001068818242
0.0001348924427
0.0001434088217
0.000135260269
0.0001172899531
9.549893178e-05
7.397351294e-05
5.498142671e-05
3.947701515e-05
2.753632684e-05
1.875710866e-05
1.254488189e-05
8.280049406e-06
5.417894828e-06
3.529737552e-06
2.298864187e-06
1.502124734e-06
9.878025636e-07
6.554336247e-07
4.397123789e-07
2.987055573e-07
2.056686203e-07
1.435934396e-07
1.01653183e-07
7.293155996e-08
5.298567857e-08
3.893630668e-08
2.891079164e-08
2.17011856e-08
1.682106235e-08
8.798610316e-06
0.0001211942071
1.40024882e-05
1.457642002e-06
2.221920859e-07
1.701611217e-06
1.343953685e-05
7.526236209e-05
8.734386452e-06
5.837474262e-07
7.65098301e-07
9.817676498e-06
0.0001759099709
3.453039757e-05
1.997140747e-06
4.423178627e-07
5.389661057e-06
6.76816669e-05
7.403488653e-05
7.014054127e-06
2.649828632e-07
2.635625354e-06
2.507218249e-05
0.0001233401747
1.855457063e-05
2.504639304e-07
2.423100727e-06
2.218381671e-05
0.0001805315467
4.478057288e-05
3.355392929e-07
3.081712129e-06
2.601286521e-05
0.0002075140416
8.786619866e-05
3.469974993e-07
2.662857878e-06
1.858923953e-05
0.0001223318206
0.0001269698889
2.84484981e-07
1.787304341e-06
1.03200463e-05
5.498863347e-05
0.0001631322648
2.62218501e-07
1.515273151e-06
8.336390918e-06
4.388858748e-05
0.000192827841
2.823555006e-07
1.571761527e-06
8.363694149e-06
4.296001346e-05
0.0002004574931
2.980486544e-07
1.538134197e-06
7.484671537e-06
3.483768424e-05
0.0001509706018
2.775328329e-07
1.25963501e-06
5.337103519e-06
2.130434303e-05
7.824028471e-05
2.633624472e-07
1.097314912e-06
4.337912922e-06
1.646015572e-05
5.955500752e-05
2.756004666e-07
1.096823262e-06
4.201996967e-06
1.563547823e-05
5.635009099e-05
3.160828776e-07
1.201477819e-06
4.418690838e-06
1.578844015e-05
5.471612722e-05
3.629084149e-07
1.289791511e-06
4.427783917e-06
1.47220424e-05
4.734471026e-05
3.906043031e-07
1.270727651e-06
4.000832607e-06
1.217811721e-05
3.570470884e-05
4.081669202e-07
1.227397541e-06
3.60865313e-06
1.035000027e-05
2.887143642e-05
4.360620889e-07
1.240249947e-06
3.486897786e-06
9.659562657e-06
2.625157256e-05
4.895017053e-07
1.333762787e-06
3.618840279e-06
9.722696027e-06
2.568775763e-05
5.71361599e-07
1.492149806e-06
3.894376407e-06
1.008890314e-05
2.575117624e-05
6.770160155e-07
1.688116279e-06
4.218585434e-06
1.04878698e-05
2.573123406e-05
8.020279028e-07
1.903685857e-06
4.539862473e-06
1.078754065e-05
2.530155003e-05
9.461445474e-07
2.136133042e-06
4.858633128e-06
1.102986207e-05
2.47306172e-05
1.124335641e-06
2.423167414e-06
5.276905679e-06
1.149563587e-05
2.475883329e-05
1.369963366e-06
2.833381753e-06
5.93684886e-06
1.246478983e-05
2.58731808e-05
1.726214817e-06
3.438620505e-06
6.950767695e-06
1.408092964e-05
2.815889257e-05
2.249332768e-06
4.324022293e-06
8.433953835e-06
1.646312009e-05
3.163409649e-05
3.019716253e-06
5.600224909e-06
1.051775815e-05
1.971050029e-05
3.62406541e-05
4.179581608e-06
7.433305715e-06
1.337566601e-05
2.393015619e-05
4.191216883e-05
5.928375528e-06
1.005883346e-05
1.721254645e-05
2.919000244e-05
4.851778254e-05
8.617938762e-06
1.380841111e-05
2.225053561e-05
3.555542521e-05
5.607835475e-05
1.2740301e-05
1.904573619e-05
2.87002362e-05
4.325954849e-05
6.518999149e-05
1.861363758e-05
2.589432462e-05
3.670879546e-05
5.285032757e-05
7.711175643e-05
2.582728917e-05
3.4029973e-05
4.629312762e-05
6.475703846e-05
9.218537101e-05
3.39390246e-05
4.360324608e-05
5.82811952e-05
8.028078613e-05
0.0001108313299
4.38620106e-05
5.623796872e-05
7.485590543e-05
0.0001010604963
0.0001300542955
5.853604332e-05
7.527451495e-05
9.842727138e-05
0.0001243001975
0.000143979816
8.303742826e-05
0.0001033554401
0.0001246804765
0.0001413456581
0.0001498037879
0.0001163704118
0.0001308915592
0.0001421726374
0.0001478840356
0.0001469840444
0.0001392650239
0.0001443331385
0.000146088117
0.0001435744818
0.0001366374342
0.0001436023151
0.0001420018916
0.0001378028971
0.0001307272386
0.0001209553686
0.0001331886779
0.0001282576096
0.0001214209211
0.0001127294467
0.0001024771735
0.0001144078422
0.0001085120451
0.0001012502528
9.280637648e-05
8.348321031e-05
9.266237765e-05
8.713981544e-05
8.064582973e-05
7.339549083e-05
6.564982827e-05
7.157628152e-05
6.700945749e-05
6.175818423e-05
5.601191072e-05
4.997990467e-05
5.313319594e-05
4.965073059e-05
4.569213684e-05
4.140610928e-05
3.694809504e-05
3.814153963e-05
3.563841135e-05
3.280892121e-05
2.976063831e-05
2.660260476e-05
2.661720813e-05
2.489788043e-05
2.295850611e-05
2.08732997e-05
1.871513016e-05
1.81488566e-05
1.701041411e-05
1.5726321e-05
1.43443257e-05
1.291204293e-05
1.215358021e-05
1.142075203e-05
1.059284606e-05
9.699974875e-06
8.772053168e-06
8.033842764e-06
7.571788293e-06
7.048448719e-06
6.482283419e-06
5.891655327e-06
5.265335005e-06
4.978287453e-06
4.652151019e-06
4.297990435e-06
3.926872278e-06
3.436118098e-06
3.259458381e-06
3.058036556e-06
2.838385403e-06
2.60708394e-06
2.241672686e-06
2.133419294e-06
2.00952921e-06
1.873822776e-06
1.730177676e-06
1.467179886e-06
1.400825544e-06
1.324593148e-06
1.24070692e-06
1.15144375e-06
9.663567336e-07
9.255053417e-07
8.783906998e-07
8.263080879e-07
7.705952668e-07
6.421663349e-07
6.168153133e-07
5.874665093e-07
5.548775623e-07
5.198380246e-07
4.314133777e-07
4.155082103e-07
3.97027547e-07
3.764181611e-07
3.541498082e-07
2.934435794e-07
2.833303564e-07
2.715388374e-07
2.583354384e-07
2.440027202e-07
2.022802008e-07
1.957506278e-07
1.881128865e-07
1.795280953e-07
1.701685603e-07
1.413744217e-07
1.370879891e-07
1.320592312e-07
1.263871887e-07
1.201786153e-07
1.001740594e-07
9.731059117e-08
9.394224406e-08
9.013105454e-08
8.594438319e-08
7.192785305e-08
6.998105671e-08
6.768561134e-08
6.508116024e-08
6.221104668e-08
5.229247357e-08
5.094568624e-08
4.935449839e-08
4.754481624e-08
4.554513899e-08
3.844962119e-08
3.750282511e-08
3.638233817e-08
3.51054576e-08
3.369131422e-08
2.856377803e-08
2.788793847e-08
2.708705967e-08
2.617297239e-08
2.515881718e-08
2.14501526e-08
2.096091821e-08
2.038057401e-08
1.971736044e-08
1.898046044e-08
1.663286332e-08
1.626583479e-08
1.583006592e-08
1.533155467e-08
1.477700546e-08
5.723659904e-09
2.641489484e-10
2.817357287e-11
4.789057454e-12
1.022972795e-12
2.260529583e-13
4.729377526e-14
9.422199804e-15
1.821867985e-15
3.476687842e-16
6.655876062e-17
1.318124627e-17
2.971363553e-18
9.650871671e-19
5.321972714e-19
4.04840132e-19
3.373495047e-19
2.820331936e-19
2.306920863e-19
1.831681699e-19
1.407383993e-19
1.044945196e-19
7.492109488e-20
5.186388036e-20
3.467319733e-20
2.240146356e-20
1.399957513e-20
8.472392468e-21
4.971919665e-21
2.833425664e-21
1.570767224e-21
8.488564266e-22
4.483947091e-22
2.323757946e-22
1.187355437e-22
6.019128512e-23
3.047522796e-23
1.549226138e-23
7.920796627e-24
4.060913632e-24
2.07443847e-24
1.048607744e-24
5.22360545e-25
2.5670997e-25
1.254115426e-25
6.176185679e-26
3.121145423e-26
1.644798076e-26
9.112198203e-27
5.292334721e-27
3.188153124e-27
1.966154228e-27
1.226746814e-27
7.662495515e-28
4.729478712e-28
2.816616091e-28
1.532803004e-28
6.744340043e-29
1.623587132e-29
9.218683653e-31
1.830773292e-08
7.154729734e-10
5.549835764e-11
6.940343839e-12
1.196612855e-12
2.283875077e-13
4.323275584e-14
7.958942427e-15
1.450341231e-15
2.698319179e-16
5.460397752e-17
1.419578435e-17
6.002908343e-18
3.965978063e-18
3.179802687e-18
2.671949884e-18
2.239666368e-18
1.84298834e-18
1.479804728e-18
1.155453678e-18
8.754668281e-19
6.427945876e-19
4.570207138e-19
3.145469039e-19
2.09595048e-19
1.352851037e-19
8.465275678e-20
5.140101931e-20
3.031873056e-20
1.739309543e-20
9.71899049e-21
5.300667995e-21
2.829518771e-21
1.484096723e-21
7.689440684e-22
3.961400241e-22
2.042412081e-22
1.058259541e-22
5.50876893e-23
2.866015767e-23
1.478426657e-23
7.505869577e-24
3.736331567e-24
1.82722501e-24
8.856997646e-25
4.321889682e-25
2.164922978e-25
1.133185224e-25
6.253650432e-26
3.627827228e-26
2.186893812e-26
1.350917316e-26
8.445988233e-27
5.285607243e-27
3.266473229e-27
1.945628613e-27
1.058878003e-27
4.680765761e-28
1.176143856e-28
7.353134028e-30
5.055636601e-08
1.236662246e-09
5.153921514e-11
4.467976521e-12
6.790152167e-13
1.241590793e-13
2.302636341e-14
4.212446842e-15
7.953684356e-16
1.731534087e-16
5.340710781e-17
2.633385963e-17
1.801694232e-17
1.43600556e-17
1.211296252e-17
1.032808476e-17
8.70605177e-18
7.174052847e-18
5.748251457e-18
4.465573893e-18
3.36098822e-18
2.450504219e-18
1.731504869e-18
1.186301651e-18
7.886415511e-19
5.091900947e-19
3.196240461e-19
1.95248919e-19
1.161933857e-19
6.743627634e-20
3.822093524e-20
2.11962625e-20
1.153477593e-20
6.185057447e-21
3.2863714e-21
1.741788994e-21
9.260317052e-22
4.948126516e-22
2.647852946e-22
1.407391451e-22
7.358060902e-23
3.754489317e-23
1.863747809e-23
9.02792577e-24
4.311461106e-24
2.066034252e-24
1.015920137e-24
5.234301679e-25
2.857441254e-25
1.64844436e-25
9.922923351e-26
6.136508272e-26
3.845197304e-26
2.411882697e-26
1.492379224e-26
8.880712035e-27
4.819232228e-27
2.112254885e-27
5.156578025e-28
3.169210889e-29
2.230911702e-07
4.437325097e-09
1.032099122e-10
4.373330276e-12
4.428337034e-13
7.2459468e-14
1.452040756e-14
3.443637619e-15
1.024426859e-15
3.921600237e-16
1.878742344e-16
1.074617798e-16
7.060460587e-17
5.147497957e-17
4.020227322e-17
3.255311557e-17
2.68589078e-17
2.211935211e-17
1.786338795e-17
1.400641955e-17
1.061652755e-17
7.766423465e-18
5.487594543e-18
3.752832194e-18
2.490489448e-18
1.607659121e-18
1.011519995e-18
6.213392472e-19
3.731162285e-19
2.193353885e-19
1.264230377e-19
7.160473921e-20
3.997556625e-20
2.209255666e-20
1.215367797e-20
6.693738657e-21
3.703521037e-21
2.055080355e-21
1.135285553e-21
6.176072116e-22
3.273164035e-22
1.677068752e-22
8.286502427e-23
3.963019999e-23
1.855030538e-23
8.66316276e-24
4.14041025e-24
2.076912743e-24
1.110322779e-24
6.321900422e-25
3.782644278e-25
2.336681423e-25
1.4664256e-25
9.218644418e-26
5.710727773e-26
3.392755424e-26
1.832408474e-26
7.923454586e-27
1.831702746e-27
1.087099883e-28
7.810300076e-07
1.710980138e-08
3.509088415e-10
1.017025292e-11
8.290713791e-13
1.853555011e-13
5.902774367e-14
2.077814043e-14
7.881694765e-15
3.22705506e-15
1.441670065e-15
7.10219165e-16
3.893017391e-16
2.381033224e-16
1.609098031e-16
1.174225726e-16
8.979170553e-17
7.007089164e-17
5.495248333e-17
4.291390176e-17
3.275226256e-17
2.420254171e-17
1.725546234e-17
1.187315853e-17
7.904603614e-18
5.110304742e-18
3.220126661e-18
1.984010996e-18
1.198278672e-18
7.109362387e-19
4.152311895e-19
2.393615717e-19
1.366581188e-19
7.763409517e-20
4.412668565e-20
2.52099325e-20
1.44837507e-20
8.319755871e-21
4.725751167e-21
2.620503601e-21
1.402954156e-21
7.200999589e-22
3.536417046e-22
1.668042697e-22
7.639014328e-23
3.462384349e-23
1.595501567e-23
7.698343271e-24
3.974559076e-24
2.205397664e-24
1.299181301e-24
7.966564341e-25
4.988599227e-25
3.136553778e-25
1.94308842e-25
1.151824446e-25
6.183637982e-26
2.6324477e-26
5.700741149e-27
3.341962973e-28
3.024485234e-06
9.587483041e-08
2.133847226e-09
5.474116536e-11
5.008294291e-12
1.257198422e-12
4.037181012e-13
1.428372792e-13
5.510532539e-14
2.293919675e-14
1.019934455e-14
4.834727546e-15
2.459481454e-15
1.355754909e-15
8.146070814e-16
5.323723229e-16
3.727002971e-16
2.730467274e-16
2.044995495e-16
1.538876405e-16
1.147581213e-16
8.399981206e-17
5.990957786e-17
4.1482936e-17
2.784211141e-17
1.813145247e-17
1.148044106e-17
7.090159892e-18
4.285691998e-18
2.545042912e-18
1.490669646e-18
8.646320225e-19
4.988447546e-19
2.877731232e-19
1.669299612e-19
9.771638674e-20
5.759643128e-20
3.38629615e-20
1.958744252e-20
1.098948271e-20
5.911803794e-21
3.028544074e-21
1.474921431e-21
6.853987531e-22
3.071226807e-22
1.351788416e-22
6.001086535e-23
2.772270076e-23
1.369617588e-23
7.322891371e-24
4.204017029e-24
2.539636879e-24
1.578806639e-24
9.897034431e-25
6.12243214e-25
3.622258719e-25
1.935628886e-25
8.136316017e-26
1.64774255e-26
9.666973909e-28
1.119099764e-05
5.416555883e-07
1.564853174e-08
3.931293272e-10
1.64816816e-11
3.280149793e-12
1.051947761e-12
3.961858521e-13
1.646285951e-13
7.36825928e-14
3.489961032e-14
1.735453863e-14
9.077666782e-15
5.038773347e-15
3.000371924e-15
1.927567171e-15
1.329931725e-15
9.698274247e-16
7.309164617e-16
5.570363369e-16
4.215917967e-16
3.130151092e-16
2.261456623e-16
1.585129058e-16
1.077313044e-16
7.10973765e-17
4.559482475e-17
2.845365131e-17
1.73118282e-17
1.030094754e-17
6.020556729e-18
3.475902324e-18
1.995324557e-18
1.146784144e-18
6.643816566e-19
3.897828859e-19
2.309916012e-19
1.366688514e-19
7.948376236e-20
4.474719849e-20
2.408031082e-20
1.229482847e-20
5.939852847e-21
2.721949679e-21
1.194701815e-21
5.11510219e-22
2.192106457e-22
9.698054749e-23
4.565157206e-23
2.330997426e-23
1.290659293e-23
7.615048564e-24
4.672373904e-24
2.910219553e-24
1.795283819e-24
1.061254392e-24
5.666793183e-25
2.370618326e-25
4.539994067e-26
2.71521655e-27
2.589915874e-05
2.433168381e-06
1.154824041e-07
3.370542511e-09
1.07155642e-10
1.046814602e-11
2.559430869e-12
8.962102323e-13
3.666218226e-13
1.649577593e-13
7.926965769e-14
4.004340248e-14
2.119716792e-14
1.183959528e-14
7.061765885e-15
4.544627061e-15
3.160875192e-15
2.35142313e-15
1.833907934e-15
1.465442972e-15
1.175031806e-15
9.296997251e-16
7.168772085e-16
5.345747385e-16
3.838113258e-16
2.650915953e-16
1.761165421e-16
1.128776317e-16
7.010840013e-17
4.238978728e-17
2.504212033e-17
1.452222186e-17
8.319093382e-18
4.743913927e-18
2.712394949e-18
1.563915677e-18
9.107600966e-19
5.310128663e-19
3.053609276e-19
1.706644344e-19
9.150512315e-20
4.660288282e-20
2.24280708e-20
1.019555986e-20
4.409296484e-21
1.845685734e-21
7.6679151e-22
3.256148678e-22
1.457143587e-22
7.044229734e-23
3.713378859e-23
2.113106437e-23
1.268037043e-23
7.806328965e-24
4.790848803e-24
2.828502356e-24
1.511637455e-24
6.314189826e-25
1.169744496e-25
7.156494812e-27
4.81989516e-05
6.398240052e-06
5.634574775e-07
2.761237446e-08
8.803318801e-10
4.968292481e-11
7.527640241e-12
2.083307508e-12
7.618383877e-13
3.227100497e-13
1.500282441e-13
7.439390621e-14
3.891302234e-14
2.154192107e-14
1.277377026e-14
8.217138629e-15
5.761504129e-15
4.366506403e-15
3.508734085e-15
2.920659729e-15
2.465305152e-15
2.074712493e-15
1.718696795e-15
1.387712522e-15
1.083846922e-15
8.139682338e-16
5.851362555e-16
4.02080583e-16
2.643355905e-16
1.668419726e-16
1.014667504e-16
5.989219991e-17
3.462605057e-17
1.977986469e-17
1.123520078e-17
6.364033523e-18
3.60051036e-18
2.031073832e-18
1.131904748e-18
6.162894553e-19
3.249003257e-19
1.644989724e-19
7.923905728e-20
3.606077734e-20
1.55095272e-20
6.402093535e-21
2.59933152e-21
1.066359717e-21
4.549706099e-22
2.075841168e-22
1.031838799e-22
5.591378596e-23
3.244802662e-23
1.959880895e-23
1.192534578e-23
7.027492934e-24
3.764650684e-24
1.576775593e-24
2.889752836e-25
1.82909842e-26
8.003515802e-05
1.457864277e-05
1.678591114e-06
1.376613683e-07
6.676754232e-09
2.762886547e-10
2.450848453e-11
4.838443728e-12
1.471598323e-12
5.617505339e-13
2.456854756e-13
1.174962373e-13
6.009319814e-14
3.279637802e-14
1.931392974e-14
1.245266476e-14
8.847202623e-15
6.866459164e-15
5.698250676e-15
4.928655941e-15
4.343341805e-15
3.83370163e-15
3.347868488e-15
2.867295346e-15
2.392638267e-15
1.935083479e-15
1.510158252e-15
1.132260528e-15
8.126315707e-16
5.565976126e-16
3.634148272e-16
2.268485997e-16
1.362399675e-16
7.94257515e-17
4.535845035e-17
2.554451964e-17
1.418568273e-17
7.755769686e-18
4.159480218e-18
2.180945184e-18
1.110847303e-18
5.4795703e-19
2.612914154e-19
1.197014062e-19
5.206101017e-20
2.15084855e-20
8.624757737e-21
3.448829488e-21
1.412524788e-21
6.09231478e-22
2.838502141e-22
1.447165471e-22
8.013280992e-23
4.698420734e-23
2.816620353e-23
1.653282837e-23
8.889041605e-24
3.756318588e-24
6.956197677e-25
4.654581357e-26
0.0001161176907
2.818833411e-05
4.195490353e-06
4.680731915e-07
3.455056019e-08
1.640883266e-09
9.412321787e-11
1.193718233e-11
2.839511024e-12
9.409876817e-13
3.757113085e-13
1.692778374e-13
8.332106804e-14
4.442450845e-14
2.590179061e-14
1.677998612e-14
1.216271295e-14
9.746711349e-15
8.409889088e-15
7.580911518e-15
6.964797043e-15
6.408999708e-15
5.838880823e-15
5.225719125e-15
4.569247383e-15
3.886782143e-15
3.205251659e-15
2.554518668e-15
1.961710658e-15
1.447467852e-15
1.023633673e-15
6.921663276e-16
4.47141713e-16
2.764421456e-16
1.644686882e-16
9.474061321e-17
5.29699575e-17
2.870251271e-17
1.506555909e-17
7.668866788e-18
3.789268459e-18
1.814164228e-18
8.415309e-19
3.79167487e-19
1.658773727e-19
6.985795619e-20
2.825264605e-20
1.114732375e-20
4.414084027e-21
1.808368738e-21
7.894281873e-22
3.755300647e-22
1.956912332e-22
1.098500797e-22
6.422540489e-23
3.735183723e-23
2.015681319e-23
8.651179633e-24
1.653659119e-24
1.208443569e-25
0.0001447407566
4.651470525e-05
8.887552755e-06
1.229241522e-06
1.366144815e-07
1.007421481e-08
5.26709321e-10
3.977243809e-11
6.235760298e-12
1.633137977e-12
5.677018493e-13
2.338552369e-13
1.085410922e-13
5.580901279e-14
3.205017611e-14
2.097551762e-14
1.571063484e-14
1.317119831e-14
1.191276545e-14
1.122166546e-14
1.072893062e-14
1.024016766e-14
9.657094405e-15
8.940084529e-15
8.088549438e-15
7.128536862e-15
6.103134711e-15
5.063809035e-15
4.062406887e-15
3.144263211e-15
2.342992552e-15
1.677616251e-15
1.152226067e-15
7.582596555e-16
4.780205793e-16
2.890124817e-16
1.677733988e-16
9.352654254e-17
5.00302374e-17
2.560875053e-17
1.257196508e-17
5.944300185e-18
2.715342437e-18
1.201415473e-18
5.172961528e-19
2.176231675e-19
8.923972504e-20
3.558328867e-20
1.391315243e-20
5.47387511e-21
2.246614114e-21
9.939904949e-22
4.824510942e-22
2.55577951e-22
1.437868844e-22
8.21096507e-23
4.435793526e-23
1.945666593e-23
3.932546346e-24
3.36584378e-25
0.0001651031425
6.825439702e-05
1.620137148e-05
2.688662032e-06
3.656050638e-07
4.160054932e-08
3.176332624e-09
1.900952307e-10
1.703675275e-11
2.914298486e-12
7.955832667e-13
2.87310762e-13
1.2383401e-13
6.215799032e-14
3.606824822e-14
2.489272719e-14
1.996216395e-14
1.787433051e-14
1.706526195e-14
1.67643436e-14
1.656575226e-14
1.624814082e-14
1.569550098e-14
1.486066094e-14
1.374606914e-14
1.239139238e-14
1.08630427e-14
9.243534988e-15
7.620672062e-15
6.07669771e-15
4.678870468e-15
3.473104368e-15
2.481641846e-15
1.704757584e-15
1.124801586e-15
7.122317584e-16
4.324354948e-16
2.513772814e-16
1.39624386e-16
7.405151531e-17
3.746207473e-17
1.8106327e-17
8.373303116e-18
3.711439078e-18
1.589048902e-18
6.616915564e-19
2.691858629e-19
1.076277109e-19
4.237718867e-20
1.652172547e-20
6.516709085e-21
2.696484888e-21
1.211031763e-21
5.978141445e-22
3.191706127e-22
1.769660178e-22
9.522421504e-23
4.29800478e-23
9.49066217e-24
1.040560347e-24
0.0001842203813
9.440958191e-05
2.734719665e-05
5.458373262e-06
8.728087717e-07
1.173053124e-07
1.371777743e-08
1.087404589e-09
7.021251932e-11
6.460741998e-12
1.09660183e-12
3.110849637e-13
1.246481981e-13
6.405476075e-14
4.025214457e-14
3.095303064e-14
2.733491154e-14
2.621254916e-14
2.611156047e-14
2.629377375e-14
2.636466238e-14
2.610748907e-14
2.541200979e-14
2.424081802e-14
2.261157306e-14
2.058436689e-14
1.825321415e-14
1.573703822e-14
1.316867273e-14
1.06781523e-14
8.37684769e-15
6.348972535e-15
4.644784057e-15
3.277408442e-15
2.228994996e-15
1.459934441e-15
9.198396659e-16
5.566521844e-16
3.228326549e-16
1.789496485e-16
9.45468876e-17
4.749398246e-17
2.270080982e-17
1.034930385e-17
4.521456619e-18
1.901786578e-18
7.739844019e-19
3.070111161e-19
1.199111296e-19
4.653350175e-20
1.813923126e-20
7.242247916e-21
3.056359608e-21
1.40333536e-21
7.04179762e-22
3.753819751e-22
1.999553877e-22
9.338737653e-23
2.362571006e-23
3.165468185e-24
0.0001943901863
0.0001216909557
4.270282416e-05
1.025130675e-05
1.901214928e-06
3.048747243e-07
4.266987297e-08
5.223954097e-09
4.38212951e-10
2.838552083e-11
2.519990475e-12
4.397524989e-13
1.461280188e-13
7.65644522e-14
5.362228274e-14
4.538442667e-14
4.264178646e-14
4.200765185e-14
4.202936244e-14
4.20241511e-14
4.165456328e-14
4.075562082e-14
3.926149649e-14
3.717110944e-14
3.452992555e-14
3.142014542e-14
2.795223662e-14
2.425840721e-14
2.048600158e-14
1.679660086e-14
1.334570235e-14
1.025548876e-14
7.61091889e-15
5.454286306e-15
3.775372211e-15
2.523549289e-15
1.629220074e-15
1.015336135e-15
6.097025805e-16
3.518297976e-16
1.944741849e-16
1.02605917e-16
5.150929949e-17
2.455866669e-17