/*--------------------------------*- C++ -*----------------------------------*\
  =========                 |
  \\      /  F ield         | OpenFOAM: The Open Source CFD Toolbox
   \\    /   O peration     | Website:  https://openfoam.org
    \\  /    A nd           | Version:  10
     \\/     M anipulation  |
\*---------------------------------------------------------------------------*/
FoamFile
{
    format      ascii;
    class       volScalarField;
    location    "3000";
    object      H2;
}
// * * * * * * * * * * * * * * * * * * * * * * * * * * * * * * * * * * * * * //

dimensions      [0 0 0 0 0 0 0];

internalField   nonuniform List<scalar> 
5170
(
2.842747446e-60
2.294267182e-60
1.423527615e-60
7.027463193e-61
5.582863419e-61
9.675984937e-58
7.725847673e-58
4.715318691e-58
2.725075419e-58
4.822489193e-58
3.329482208e-55
2.638487132e-55
1.603494779e-55
1.260943037e-55
3.807665945e-55
1.168224571e-52
9.247382618e-53
5.799262692e-53
6.502265999e-53
2.755884941e-52
4.176612916e-50
3.334584454e-50
2.241686004e-50
3.55084706e-50
1.859010804e-49
1.527345917e-47
1.245488205e-47
9.186389613e-48
1.995591167e-47
1.183377014e-46
5.705145405e-45
4.793316131e-45
4.039041518e-45
1.140215659e-44
7.265721888e-44
2.17308292e-42
1.90229905e-42
1.910799231e-42
6.592824222e-42
4.355167949e-41
8.462007227e-40
7.873536808e-40
9.497900051e-40
3.847525466e-39
2.562890271e-38
3.374080496e-37
3.395807148e-37
4.903689878e-37
2.270038493e-36
1.486694446e-35
1.374745367e-34
1.520787056e-34
2.613863225e-34
1.351713993e-33
8.529096444e-33
5.700139742e-32
7.050795626e-32
1.439898632e-31
8.114807434e-31
4.853440568e-30
2.396683248e-29
3.364135015e-29
8.2275524e-29
4.946703119e-28
2.746597038e-27
1.014468202e-26
1.638484986e-26
4.835002652e-26
3.068247606e-25
1.550293288e-24
4.306656165e-24
8.084535769e-24
2.884178171e-23
1.930239225e-22
8.749897789e-22
1.806031891e-21
3.981195733e-21
1.713081946e-20
1.193022673e-19
4.947607028e-19
7.449316334e-19
1.953055894e-18
9.880425165e-18
7.171282486e-17
2.809132121e-16
2.956271741e-16
9.367642114e-16
5.530987665e-15
4.110047853e-14
1.598225679e-13
1.081173278e-13
4.297727841e-13
2.916553639e-12
2.195216519e-11
9.119983115e-11
3.393477927e-11
1.90892085e-10
1.496410962e-09
1.070684446e-08
5.264165625e-08
8.156479335e-05
8.707263445e-05
8.912991096e-05
8.563974116e-05
8.11457517e-05
5.571253041e-05
6.248081841e-05
6.453035274e-05
6.066239816e-05
5.443366109e-05
4.102195077e-05
4.728640366e-05
4.89901021e-05
4.549432933e-05
3.936148388e-05
3.182255197e-05
3.729285169e-05
3.857008596e-05
3.524768971e-05
2.982629727e-05
2.568954003e-05
3.032869804e-05
3.128341897e-05
2.805204782e-05
2.332200645e-05
2.1443632e-05
2.526319556e-05
2.595381779e-05
2.287073966e-05
1.886307686e-05
1.836317684e-05
2.144298596e-05
2.190148212e-05
1.906932561e-05
1.57852732e-05
1.606424325e-05
1.851811461e-05
1.878551117e-05
1.630174823e-05
1.367145839e-05
1.432289237e-05
1.626508704e-05
1.638562847e-05
1.43013336e-05
1.221904164e-05
1.29863602e-05
1.451617501e-05
1.453982004e-05
1.284169828e-05
1.120208652e-05
1.195191854e-05
1.31553904e-05
1.312095674e-05
1.17586191e-05
1.04669426e-05
1.114142078e-05
1.209143898e-05
1.202723319e-05
1.093994742e-05
9.914639595e-06
1.049748691e-05
1.125362117e-05
1.11767808e-05
1.030734298e-05
9.482891048e-06
9.976787188e-06
1.058538977e-05
1.050660422e-05
9.806338216e-06
9.131888148e-06
9.548004601e-06
1.004540641e-05
9.969740983e-06
9.398884743e-06
8.835481085e-06
9.186950388e-06
9.600918186e-06
9.531528726e-06
9.057609861e-06
8.574606307e-06
8.876908448e-06
9.227054811e-06
9.163170574e-06
8.762012405e-06
8.336650877e-06
8.611676491e-06
8.904902713e-06
8.841640121e-06
8.494952537e-06
8.112159895e-06
8.628483729e-06
8.684260441e-06
8.5602759e-06
8.241178761e-06
7.885629998e-06
3.57100923e-05
1.51724105e-05
9.386923911e-06
8.111822079e-06
7.497894895e-06
1.285086441e-09
9.99675847e-09
1.541855989e-07
2.317599352e-06
3.091876989e-05
7.564438254e-09
5.183791305e-08
6.45592843e-07
7.063249318e-06
5.694196257e-05
2.712023829e-08
1.669937842e-07
1.74452994e-06
1.4944654e-05
8.487357905e-05
7.961784059e-08
4.507460785e-07
4.047759377e-06
2.781529626e-05
0.0001198352326
2.042209405e-07
1.069419738e-06
8.252667166e-06
4.617313972e-05
0.0001619998432
4.829865802e-07
2.328599211e-06
1.544343245e-05
7.140912813e-05
0.0002105512941
1.113323921e-06
4.973397397e-06
2.802226905e-05
0.0001052432273
0.0002627626398
2.479997555e-06
1.022790419e-05
4.74557311e-05
0.0001450088933
0.0003152030018
5.245935252e-06
1.949675281e-05
7.332968796e-05
0.0001871093926
0.0003657390889
1.043273695e-05
3.40073068e-05
0.0001045223322
0.0002305074944
0.000414613365
1.994197114e-05
5.450957029e-05
0.0001391904518
0.0002743285136
0.0004612858399
3.512222665e-05
8.019895189e-05
0.0001761028772
0.0003180853762
0.0005057524089
5.751995954e-05
0.0001113786581
0.0002157403512
0.0003623064753
0.0005490325998
8.951579778e-05
0.0001493415603
0.0002593184089
0.0004081756722
0.0005925115873
0.0001344029189
0.0001961977555
0.0003083779098
0.0004569375654
0.0006371501862
0.0001947344801
0.0002545966951
0.0003650427121
0.000510532184
0.0006850486592
0.0002718297659
0.0003270692621
0.0004322474748
0.0005720716669
0.0007396135783
0.0003640394248
0.0004137412294
0.0005116208544
0.000644006433
0.0008034182537
0.0004692255337
0.0005134666546
0.000603059551
0.0007266078407
0.0008769025047
0.0005837139708
0.0006230777348
0.0007044031083
0.0008185412436
0.0009590666467
0.0007040646265
0.0007391098365
0.000812595245
0.0009172865405
0.00104772113
0.0008269974194
0.0008583201896
0.0009246694109
0.001020299441
0.001140728469
0.0009507915083
0.0009788318103
0.001038698682
0.001125859104
0.001236697767
0.001074848981
0.001100063133
0.001154255346
0.001233794549
0.001335884923
0.001199955029
0.001222881073
0.001272364358
0.001345456436
0.001439960889
0.001328486192
0.001349587659
0.001395262992
0.001463091899
0.001551396254
0.001463414621
0.001483101026
0.001525857971
0.001589639043
0.001673157969
0.001607594908
0.001626252055
0.001666859167
0.001727675266
0.001807727959
0.001763622612
0.001781610945
0.00182087378
0.0018798558
0.001957701223
0.001934519404
0.001952201221
0.001990820582
0.002048963083
0.002125871081
0.002125213386
0.002142914166
0.0021816137
0.002239872504
0.002316807695
0.002345509359
0.002363549017
0.00240292151
0.002462000139
0.002539653556
0.00261354434
0.002631961061
0.002671937578
0.002731185307
0.002807615918
0.002950941232
0.002968363368
0.003005650221
0.003059411795
0.003125456977
0.003345386093
0.003357429125
0.003382310606
0.003415765259
0.003452126366
0.003682949595
0.003685159335
0.003688490776
0.003689455493
0.003683373019
0.003841142949
0.003834045362
0.003817454513
0.003789604686
0.003747517556
0.003807509614
0.003794222863
0.00376442757
0.003717572054
0.003651871108
0.003625554603
0.00360839182
0.00357025019
0.00351115475
0.00342980478
0.003328151397
0.003307824395
0.003262751558
0.003193210747
0.003098122348
0.002907380721
0.002883970753
0.002832529645
0.002754634964
0.002651401947
0.002381401357
0.0023600115
0.002313582203
0.002244661044
0.002155407451
0.001875865266
0.001858918592
0.001822205156
0.001767883456
0.001697814701
0.001440140032
0.001427411525
0.001399842073
0.001359065491
0.001306490459
0.001083392515
0.00107415226
0.001054134964
0.001024438754
0.0009860935122
0.0008001793983
0.000793608084
0.000779363854
0.0007582664711
0.0007310176235
0.0005810828568
0.000576527314
0.0005666476963
0.0005520025775
0.0005330596356
0.0004154898961
0.0004123929722
0.0004056725339
0.0003956994728
0.0003827794073
0.0002930189004
0.0002909499104
0.0002864574768
0.0002797833184
0.0002711231853
0.0002042408539
0.0002028801196
0.0001999239577
0.0001955275946
0.0001898149678
0.0001412051187
0.0001403222284
0.0001384054607
0.0001355432174
0.0001318352832
9.722622585e-05
9.664387653e-05
9.537592255e-05
9.348206148e-05
9.100575072e-05
6.667448065e-05
6.630610409e-05
6.550477831e-05
6.431002427e-05
6.275201771e-05
4.560046103e-05
4.536570362e-05
4.485462857e-05
4.409138736e-05
4.30934917e-05
3.118775548e-05
3.103785326e-05
3.071133429e-05
3.022318427e-05
2.95839668e-05
2.140368148e-05
2.130797474e-05
2.109942059e-05
2.078737844e-05
2.037829309e-05
1.479154329e-05
1.473037523e-05
1.459703726e-05
1.439739293e-05
1.413538962e-05
1.032720878e-05
1.028799225e-05
1.020247649e-05
1.007435025e-05
9.906041765e-06
7.30487036e-06
7.279597254e-06
7.224469582e-06
7.141822732e-06
7.033161098e-06
5.24641984e-06
5.23002905e-06
5.194266625e-06
5.140624263e-06
5.070044715e-06
3.832346334e-06
3.821652769e-06
3.79831693e-06
3.763301584e-06
3.717206976e-06
2.850924935e-06
2.843925863e-06
2.828651766e-06
2.805730643e-06
2.775552458e-06
2.162440446e-06
2.15787261e-06
2.147906261e-06
2.132954398e-06
2.113276166e-06
1.674592663e-06
1.671653472e-06
1.665244053e-06
1.655636626e-06
1.643007356e-06
1.326149766e-06
1.32432268e-06
1.320343094e-06
1.314388927e-06
1.306582189e-06
1.07619539e-06
1.075142552e-06
1.072854951e-06
1.069445687e-06
1.065000208e-06
8.969858688e-07
8.964802619e-07
8.953887439e-07
8.937787228e-07
8.917098681e-07
7.697337495e-07
7.696191948e-07
7.693821774e-07
7.690571747e-07
7.686850255e-07
6.811582829e-07
6.813198644e-07
6.816861388e-07
6.822678148e-07
6.830916229e-07
6.24493724e-07
6.248383431e-07
6.256040488e-07
6.267852834e-07
6.283987786e-07
0.0001109794543
0.0001575584669
0.0001982828936
0.0002510554929
0.0003118318918
0.0003713722384
0.0004263991064
0.0004781138601
0.0005273853655
0.0005741302034
0.0006173717028
0.0006576305692
0.0006964157025
0.0007351351055
0.0007744602001
0.0008167295781
0.000865517589
0.0009233081324
0.0009904568483
0.001066005681
0.001147809983
0.001233932495
0.001323228639
0.001416292903
0.001514991818
0.00162203575
0.00174040496
0.001872487552
0.002020834614
0.002188313921
0.002379075815
0.002601787284
0.002866865379
0.003172955028
0.003473077999
0.003670847114
0.003707953097
0.003594570224
0.003360255489
0.003017720444
0.002568057849
0.002084894991
0.001642684455
0.001265136907
0.0009558982986
0.0007095335237
0.0005180968601
0.0003725534032
0.0002642548377
0.0001852758143
0.0001288367731
8.906630829e-05
6.150890776e-05
4.229417274e-05
2.907094945e-05
2.004948195e-05
1.392451656e-05
9.770409865e-06
6.945496435e-06
5.013049588e-06
3.679960327e-06
2.75116284e-06
2.09738075e-06
1.632822002e-06
1.300307488e-06
1.061453038e-06
8.900913031e-07
7.68442629e-07
6.8381787e-07
6.297635277e-07
0.0002693338295
0.0007242839784
9.311162441e-05
1.411522419e-05
3.297126035e-06
0.0003673988421
0.001026791232
0.0004437119397
5.370601001e-05
6.459040494e-06
0.0004256455281
0.0009994559131
0.001268328096
0.0001805688216
2.273230021e-05
0.000513284794
0.001210812659
0.002427102756
0.0004230584573
4.789705384e-05
0.0006039325925
0.001325205446
0.002392731382
0.0006421143268
8.506675418e-05
0.0006708605485
0.001306301626
0.002016629573
0.0009730403508
0.0001804356267
0.000717085956
0.001272805483
0.001855319596
0.001431428812
0.0003686538576
0.0007584050672
0.001277521098
0.001870798202
0.002155112181
0.0006554842553
0.0007994581711
0.001297767034
0.001885703962
0.002395240893
0.0009436357434
0.000837608159
0.001308532885
0.001846133348
0.002308299583
0.001229332096
0.0008707858179
0.001311615509
0.001801686998
0.002227515058
0.001539598808
0.0009008624174
0.001315441529
0.00177142772
0.002193898556
0.001977612888
0.0009300098541
0.001322612567
0.001753475222
0.002179171383
0.002308675102
0.0009592038092
0.001330998069
0.001735081582
0.002136334939
0.002338969272
0.0009887138705
0.001340469389
0.001719693505
0.00209612689
0.002318661681
0.001021345322
0.001354987122
0.001713274438
0.00207063015
0.002307151066
0.001060492174
0.00137798065
0.00171932929
0.002064132702
0.002323201654
0.001108295395
0.001410899706
0.001738131572
0.002074043374
0.002355591419
0.001165062006
0.001453292651
0.001766380409
0.002090763885
0.002376146254
0.001229867231
0.001503523326
0.001801962301
0.002112636247
0.002391452656
0.00130072368
0.001559612096
0.001843268706
0.002139600849
0.002408072979
0.001376016653
0.001620108201
0.001889165276
0.00217153826
0.002429588006
0.001455015592
0.001684854993
0.001940107413
0.002209425693
0.002457152316
0.001538761881
0.00175554583
0.001998275003
0.002255575443
0.002492963075
0.00162935934
0.001834743664
0.00206658204
0.002313203512
0.002540339273
0.001729797611
0.001925920086
0.002148523653
0.002385542969
0.00260094634
0.001843028243
0.002031748768
0.002246897248
0.00247461579
0.002674415787
0.001971299357
0.002154407554
0.002363471921
0.002580991978
0.002759032906
0.002117118667
0.002296338924
0.002499500561
0.002703514641
0.002849999843
0.002283400055
0.002459662623
0.002655287188
0.00283856136
0.002939830271
0.002473571939
0.002646633033
0.00282932115
0.002978723366
0.003018530952
0.002695388727
0.002859701646
0.003016183946
0.003111664695
0.003075303017
0.002954689547
0.003094473061
0.003200604531
0.003219290033
0.003098802427
0.003240844817
0.003326028111
0.003352326407
0.00327898752
0.003075876805
0.003499497326
0.003500323078
0.003431582552
0.003267975147
0.002991479987
0.003647293742
0.00356257057
0.003410157435
0.003173454569
0.002838866932
0.003644815816
0.003496119074
0.003282896565
0.002992250981
0.002615850129
0.003505482158
0.003313553777
0.003056825793
0.002726671801
0.002337326018
0.003252983496
0.003028201735
0.002738561625
0.002395134522
0.00203327808
0.002894541567
0.002646269333
0.002353712713
0.002040072709
0.001725891113
0.002442984917
0.002211493881
0.001956252231
0.00169199374
0.001432274169
0.001979816986
0.001789485966
0.001582960679
0.001371318639
0.001164429394
0.001560663504
0.00141277038
0.001252840667
0.001089169725
0.0009290583583
0.001203631495
0.001092667293
0.0009725439263
0.0008493331276
0.0007283825353
0.0009109805271
0.0008298245009
0.000741752508
0.0006510877815
0.0005616668543
0.0006775630105
0.000619581283
0.0005564027423
0.0004910711473
0.0004262685943
0.0004958195424
0.0004552358364
0.0004108119301
0.0003646152879
0.0003185100187
0.0003573191455
0.0003294465646
0.0002987898909
0.0002667277948
0.0002345236963
0.0002540162276
0.0002352030229
0.0002144111624
0.000192546669
0.0001704551547
0.0001785053702
0.0001660153485
0.0001521451377
0.0001374494667
0.0001224831374
0.0001243754695
0.0001161489978
0.0001069606655
9.718727798e-05
8.71798997e-05
8.618183794e-05
8.086969074e-05
7.496998272e-05
6.858332381e-05
6.195902727e-05
5.965177559e-05
5.618685376e-05
5.228129605e-05
4.806810377e-05
4.368545989e-05
4.109851265e-05
3.885446114e-05
3.63113227e-05
3.355663563e-05
3.067797485e-05
2.830302342e-05
2.685644494e-05
2.521054541e-05
2.342012362e-05
2.154035435e-05
1.955702114e-05
1.862656623e-05
1.756421852e-05
1.640398615e-05
1.518042304e-05
1.360853324e-05
1.300989893e-05
1.232420955e-05
1.157254421e-05
1.077651215e-05
9.567075741e-06
9.18089538e-06
8.737237089e-06
8.249208021e-06
7.730367058e-06
6.814015989e-06
6.563745596e-06
6.275463422e-06
5.957385829e-06
5.618093834e-06
4.927537056e-06
4.76446826e-06
4.576233835e-06
4.368055089e-06
4.145440088e-06
3.624064111e-06
3.517345372e-06
3.393997505e-06
3.257401854e-06
3.111162084e-06
2.714559678e-06
2.644657723e-06
2.563857503e-06
2.474400759e-06
2.378699632e-06
2.073531041e-06
2.028035913e-06
1.975538263e-06
1.917562707e-06
1.855762863e-06
1.617550236e-06
1.588511415e-06
1.555153417e-06
1.518539106e-06
1.479827425e-06
1.2909127e-06
1.27317102e-06
1.252981458e-06
1.231099578e-06
1.208350913e-06
1.056158455e-06
1.046306439e-06
1.035324056e-06
1.023754604e-06
1.012190648e-06
8.876957219e-07
8.834224188e-07
8.789487721e-07
8.746651387e-07
8.709949269e-07
7.681153492e-07
7.678167263e-07
7.679720238e-07
7.688575217e-07
7.707700122e-07
6.849455088e-07
6.874352863e-07
6.908262864e-07
6.953081442e-07
7.010817352e-07
6.318496569e-07
6.361694433e-07
6.416741216e-07
6.484917801e-07
6.567554177e-07
3.744519841e-07
4.583164975e-08
7.050822029e-09
1.548837688e-09
4.912880482e-10
2.032057612e-10
1.038498457e-10
6.175894405e-11
3.944390657e-11
2.581483563e-11
1.695944496e-11
1.109926644e-11
7.211118107e-12
4.64047206e-12
2.953340581e-12
1.856731138e-12
1.152537143e-12
7.063251851e-13
4.2760956e-13
2.560367017e-13
1.519497376e-13
8.968933378e-14
5.293381943e-14
3.148174652e-14
1.906840132e-14
1.190907738e-14
7.755085435e-15
5.295263875e-15
3.781293418e-15
2.796572065e-15
2.115441139e-15
1.618491234e-15
1.242789937e-15
9.537598025e-16
7.301983594e-16
5.571010923e-16
4.228125353e-16
3.181988458e-16
2.36416437e-16
1.725952024e-16
1.233053938e-16
8.597547256e-17
5.845121267e-17
3.877588717e-17
2.515298538e-17
1.600028164e-17
1.00114097e-17
6.177484182e-18
3.765490236e-18
2.268884975e-18
1.350897232e-18
7.938110648e-19
4.593999142e-19
2.609196835e-19
1.444072493e-19
7.660936703e-20
3.729491055e-20
1.498013995e-20
3.536382849e-21
2.932749334e-22
1.258082342e-06
1.721236091e-07
2.901205238e-08
7.952344412e-09
3.575991527e-09
2.07170973e-09
1.292214622e-09
8.267784297e-10
5.232247217e-10
3.277764206e-10
2.020098202e-10
1.230139805e-10
7.410072044e-11
4.42735934e-11
2.627878064e-11
1.551180343e-11
9.112109244e-12
5.328249782e-12
3.102673613e-12
1.800066578e-12
1.041772415e-12
6.02975912e-13
3.506319472e-13
2.062903261e-13
1.240173014e-13
7.708050715e-14
5.004818933e-14
3.411322233e-14
2.43297223e-14
1.797527838e-14
1.358649604e-14
1.039142585e-14
7.982082539e-15
6.133083005e-15
4.705555697e-15
3.601038904e-15
2.74327178e-15
2.073018092e-15
1.546563438e-15
1.133440878e-15
8.126269354e-16
5.684767974e-16
3.87726806e-16
2.580725379e-16
1.680163794e-16
1.073173468e-16
6.745772415e-17
4.183504315e-17
2.563801655e-17
1.553328158e-17
9.299137551e-18
5.49352759e-18
3.195556745e-18
1.823518519e-18
1.013189005e-18
5.388980841e-19
2.628259731e-19
1.062229237e-19
2.690156137e-20
2.793348542e-21
4.594454796e-06
5.235588554e-07
8.069565719e-08
2.985859684e-08
1.735339868e-08
1.15447066e-08
7.71986386e-09
5.143635931e-09
3.340784448e-09
2.13113725e-09
1.32402187e-09
8.056932143e-10
4.794163402e-10
2.799892633e-10
1.607790474e-10
9.111192689e-11
5.114333357e-11
2.854311143e-11
1.589661275e-11
8.85912757e-12
4.952140607e-12
2.783701044e-12
1.580006909e-12
9.111737255e-13
5.386441486e-13
3.299178023e-13
2.113845705e-13
1.423171798e-13
1.003858618e-13
7.349228093e-14
5.517855699e-14
4.20368435e-14
3.225373529e-14
2.481997175e-14
1.911670311e-14
1.471417328e-14
1.128878343e-14
8.596521726e-15
6.46322711e-15
4.771995118e-15
3.445139545e-15
2.425788172e-15
1.664840133e-15
1.115010023e-15
7.305931857e-16
4.698693017e-16
2.975668838e-16
1.860369223e-16
1.149877453e-16
7.028356341e-17
4.245010617e-17
2.529613802e-17
1.48366352e-17
8.530011947e-18
4.767958033e-18
2.544302944e-18
1.241256165e-18
4.992676254e-19
1.276174004e-19
1.390115221e-20
1.377373082e-05
2.585869657e-06
3.647810304e-07
1.105592452e-07
6.503841895e-08
4.460444521e-08
3.091249579e-08
2.115265783e-08
1.418037829e-08
9.317486081e-09
5.97827609e-09
3.75030471e-09
2.295822738e-09
1.373560984e-09
8.027139114e-10
4.592267049e-10
2.575628427e-10
1.42159932e-10
7.751569422e-11
4.197312515e-11
2.268653048e-11
1.230634568e-11
6.738703067e-12
3.751630424e-12
2.142602352e-12
1.268054598e-12
7.850570859e-13
5.111875886e-13
3.496832186e-13
2.494351373e-13
1.83566262e-13
1.379469513e-13
1.050480272e-13
8.068120501e-14
6.23242339e-14
4.829594219e-14
3.739903771e-14
2.87824412e-14
2.187603098e-14
1.632366937e-14
1.19050945e-14
8.464703634e-15
5.865018345e-15
3.965616047e-15
2.623847574e-15
1.704668872e-15
1.091040906e-15
6.896287971e-16
4.310522441e-16
2.664732109e-16
1.627944334e-16
9.811987294e-17
5.818590795e-17
3.379167169e-17
1.904196249e-17
1.020683374e-17
4.980782271e-18
1.990452804e-18
5.057997744e-19
5.603451035e-20
2.464297899e-05
6.907139522e-06
1.29892078e-06
3.273447455e-07
1.783506135e-07
1.230907014e-07
8.782246786e-08
6.216738985e-08
4.339663002e-08
2.981221823e-08
2.010224879e-08
1.32897375e-08
8.595475061e-09
5.436624517e-09
3.356569033e-09
2.023512266e-09
1.189972362e-09
6.835984439e-10
3.838334747e-10
2.113381021e-10
1.144666025e-10
6.134461746e-11
3.273568164e-11
1.754585192e-11
9.541823426e-12
5.327433923e-12
3.089865771e-12
1.879275447e-12
1.203700403e-12
8.101225065e-13
5.687015273e-13
4.125413075e-13
3.066935772e-13
2.322810379e-13
1.784767186e-13
1.385487918e-13
1.080427628e-13
8.400878744e-14
6.461227406e-14
4.880898276e-14
3.603147413e-14
2.592425919e-14
1.817315981e-14
1.243347948e-14
8.328017195e-15
5.480750673e-15
3.555207244e-15
2.27794525e-15
1.443125202e-15
9.039022647e-16
5.592773465e-16
3.412855173e-16
2.048253796e-16
1.202882622e-16
6.841855816e-17
3.689045392e-17
1.802713878e-17
7.176310264e-18
1.81344937e-18
2.065568739e-19
3.348808346e-05
1.289612625e-05
3.619005531e-06
8.638486725e-07
3.972350886e-07
2.64087916e-07
1.908806288e-07
1.392305543e-07
1.011371466e-07
7.282232931e-08
5.180242151e-08
3.631062846e-08
2.502176551e-08
1.692376411e-08
1.121134379e-08
7.264877206e-09
4.59695552e-09
2.838097892e-09
1.707102153e-09
1.000789356e-09
5.718670934e-10
3.193173162e-10
1.746388039e-10
9.404621863e-11
5.019928613e-11
2.683871524e-11
1.455275637e-11
8.117883342e-12
4.719024703e-12
2.883548504e-12
1.856104762e-12
1.253951926e-12
8.831852544e-13
6.440612399e-13
4.833901889e-13
3.710377892e-13
2.888624392e-13
2.257800488e-13
1.753339901e-13
1.340550871e-13
1.002442487e-13
7.304900951e-14
5.183548657e-14
3.588395995e-14
2.432651541e-14
1.62196039e-14
1.067222262e-14
6.942284349e-15
4.466185858e-15
2.839731265e-15
1.782294852e-15
1.102242514e-15
6.69826866e-16
3.979079347e-16
2.286234557e-16
1.24265829e-16
6.103714433e-17
2.4382317e-17
6.183399406e-18
7.32344599e-19
5.564603239e-05
2.082684131e-05
8.017190272e-06
2.307335436e-06
8.027115847e-07
4.683926566e-07
3.321683808e-07
2.463633233e-07
1.84375137e-07
1.377630168e-07
1.022879863e-07
7.526441577e-08
5.476795607e-08
3.934372079e-08
2.785578324e-08
1.940265311e-08
1.326675622e-08
8.885315607e-09
5.814741926e-09
3.712243002e-09
2.308147237e-09
1.396828149e-09
8.221385839e-10
4.709827716e-10
2.630295072e-10
1.438613835e-10
7.753564682e-11
4.158231125e-11
2.247522979e-11
1.243549731e-11
7.15124572e-12
4.322845493e-12
2.760490356e-12
1.860200222e-12
1.316384807e-12
9.712795031e-13
7.393233841e-13
5.726086908e-13
4.450099046e-13
3.428172586e-13
2.593063384e-13
1.914654122e-13
1.376519687e-13
9.642456902e-14
6.607106931e-14
4.452770743e-14
2.964706052e-14
1.954440803e-14
1.275855892e-14
8.237325729e-15
5.249755565e-15
3.294897683e-15
2.030122202e-15
1.221363567e-15
7.099887189e-16
3.902744503e-16
1.938951527e-16
7.860281664e-17
2.036782066e-17
2.544825634e-18
0.0001117776137
3.266213391e-05
1.492319614e-05
5.449441733e-06
1.742143869e-06
7.95541118e-07
5.122444692e-07
3.743821189e-07
2.833797747e-07
2.164017405e-07
1.651695022e-07
1.254643555e-07
9.462906088e-08
7.076116348e-08
5.23999018e-08
3.838482929e-08
2.778148886e-08
1.984044322e-08
1.395563784e-08
9.645529194e-09
6.532628638e-09
4.322612734e-09
2.785847131e-09
1.744761736e-09
1.060521557e-09
6.255983331e-10
3.584521855e-10
2.000367934e-10
1.092917772e-10
5.900213914e-11
3.187817626e-11
1.752621434e-11
9.986637106e-12
5.992909545e-12
3.821291278e-12
2.591295172e-12
1.855770782e-12
1.382462717e-12
1.052239357e-12
8.054003274e-13
6.118907125e-13
4.568058764e-13
3.330049595e-13
2.364765668e-13
1.639433887e-13
1.115924028e-13
7.500087379e-14
4.993768203e-14
3.296833625e-14
2.155931122e-14
1.393474459e-14
8.876656306e-15
5.551968957e-15
3.389500083e-15
1.998484795e-15
1.114526901e-15
5.628640821e-16
2.331981835e-16
6.240151502e-17
8.334950672e-18
0.0002009954764
4.39433401e-05
2.110080142e-05
9.958218422e-06
3.589243968e-06
1.367068829e-06
7.573165952e-07
5.251767284e-07
3.951987086e-07
3.050837573e-07
2.371500963e-07
1.842625364e-07
1.426140276e-07
1.097477272e-07
8.38760332e-08
6.360813289e-08
4.782620098e-08
3.562185829e-08
2.625501201e-08
1.912365356e-08
1.37420787e-08
9.72226366e-09
6.756563758e-09
4.598313798e-09
3.054092001e-09
1.973222991e-09
1.235997661e-09
7.490924185e-10
4.392477292e-10
2.497752607e-10
1.383767495e-10
7.531819983e-11
4.083133329e-11
2.24744516e-11
1.283248445e-11
7.739266103e-12
4.98000172e-12
3.41090773e-12
2.448753174e-12
1.808463303e-12
1.35193237e-12
1.009609455e-12
7.444848563e-13
5.372799231e-13
3.780501971e-13
2.604190271e-13
1.767485049e-13
1.186804828e-13
7.899061856e-14
5.212398736e-14
3.405854877e-14
2.197900393e-14
1.395102717e-14
8.653866428e-15
5.188966276e-15
2.946559754e-15
1.520073431e-15
6.482106441e-16
1.813426767e-16
2.632586355e-17
0.0003347685836
6.721857573e-05
2.766893108e-05
1.474254422e-05
6.644896707e-06
2.455120877e-06
1.134236384e-06
7.183808281e-07
5.261903551e-07
4.059898332e-07
3.188362705e-07
2.516626152e-07
1.98554728e-07
1.561547547e-07
1.222279514e-07
9.512516013e-08
7.355378039e-08
5.646842042e-08
4.30111862e-08
3.247585465e-08
2.427677322e-08
1.794835625e-08
1.309958734e-08
9.418011247e-09
6.653260341e-09
4.605495793e-09
3.11496445e-09
2.051940053e-09
1.311925935e-09
8.116668263e-10
4.849569214e-10
2.799858389e-10
1.569506156e-10
8.628465585e-11
4.725365442e-11
2.630131133e-11
1.51911369e-11
9.268593203e-12
6.013014227e-12
4.117250116e-12
2.92753577e-12
2.127215281e-12
1.55840502e-12
1.136639683e-12
8.151445131e-13
5.713036614e-13
3.92691003e-13
2.661892815e-13
1.785229568e-13
1.186055827e-13
7.807181061e-14
5.085759944e-14
3.267949117e-14
2.058075328e-14
1.256287901e-14
7.285344158e-15
3.856462873e-15
1.704674366e-15
5.053085238e-16
8.085624803e-17
0.0005153454582
0.0001142094698
3.576736676e-05
1.948004755e-05
1.037560505e-05
4.418659032e-06
1.814553979e-06
9.963924946e-07
6.895709625e-07
5.247675399e-07
4.131386155e-07
3.292891346e-07
2.634183637e-07
2.106134038e-07
1.679234561e-07
1.333343243e-07
1.053428637e-07
8.274707565e-08
6.461377595e-08
5.012011664e-08
3.858106016e-08
2.943762041e-08
2.223217788e-08
1.659154599e-08
1.221176358e-08
8.845312448e-09
6.290340804e-09
4.381147503e-09
2.980405686e-09
1.974737394e-09
1.27100048e-09
7.926417035e-10
4.780556262e-10
2.789640672e-10
1.58273822e-10
8.822660782e-11
4.905980307e-11
2.771815795e-11
1.623888546e-11
1.002973446e-11
6.560554069e-12
4.498688471e-12
3.182722517e-12
2.28892588e-12
1.651586146e-12
1.180128174e-12
8.277097648e-13
5.691538808e-13
3.851701785e-13
2.575460748e-13
1.705155457e-13
1.118117447e-13
7.248257968e-14
4.621277534e-14
2.868157582e-14
1.699874727e-14
9.264359787e-15
4.271191255e-15
1.358472198e-15
2.424554206e-16
0.0007492221189
0.0001913388081
4.939196707e-05
2.44837486e-05
1.43548129e-05
7.501915836e-06
3.222668764e-06
1.496062374e-06
9.16050898e-07
6.666304474e-07
5.195416679e-07
4.152276015e-07
3.350423825e-07
2.710645095e-07
2.190732809e-07
1.76665036e-07
1.42026923e-07
1.137076618e-07
9.059213012e-08
7.177892213e-08
5.650629234e-08
4.414940367e-08
3.419531134e-08
2.621992959e-08
1.987177704e-08
1.485952999e-08
1.094152801e-08
7.916403833e-09
5.615240275e-09
3.895570039e-09
2.636964201e-09
1.737734011e-09
1.112488082e-09
6.908720852e-10
4.161509268e-10
2.437077455e-10
1.395077555e-10
7.878810224e-11
4.453950806e-11
2.569077361e-11
1.544514953e-11
9.807735434e-12
6.559465948e-12
4.555298829e-12
3.232241534e-12
2.311376829e-12
1.645920449e-12
1.155957784e-12
7.962219808e-13
5.38142675e-13
3.584190331e-13
2.36174407e-13
1.540546042e-13
9.912302306e-14
6.236496542e-14
3.771886998e-14
2.119160586e-14
1.02422733e-14
3.534767634e-15
7.105813931e-16
0.001001828712
0.0002930361087
7.321788069e-05
3.023142548e-05
1.791513536e-05
1.06587643e-05
5.535112367e-06
2.511897039e-06
1.299097039e-06
8.466514781e-07
6.314615069e-07
4.978373844e-07
4.008355643e-07
3.261297127e-07
2.653654613e-07
2.169388641e-07
1.770498005e-07
1.440483075e-07
1.167115953e-07
9.409248361e-08
7.541837633e-08
6.004904125e-08
4.744715187e-08
3.716033731e-08
2.880846909e-08
2.207240241e-08
1.668426031e-08
1.241823777e-08
9.082886756e-09
6.514694374e-09
4.572742212e-09
3.134744363e-09
2.094781304e-09
1.362361825e-09
8.615093915e-10
5.297337512e-10
3.172127856e-10
1.856549349e-10
1.069237634e-10
6.134600366e-11
3.568059382e-11
2.146986515e-11
1.356421456e-11
9.002488768e-12
6.210275724e-12
4.381841729e-12
3.116094185e-12
2.210954004e-12
1.552266304e-12
1.070824992e-12
7.240195448e-13
4.809699833e-13
3.152437812e-13
2.040415879e-13
1.296896872e-13
7.980712333e-14
4.618501434e-14
2.350275539e-14
8.888449079e-15
2.026811584e-15
0.001230794302
0.0004185106601
0.0001129731448
3.815402582e-05
2.154331206e-05
1.355284122e-05
8.108052543e-06
4.289470645e-06
2.07411426e-06
1.130849346e-06
7.44266378e-07
5.525021681e-07
4.350984258e-07
3.525010565e-07
2.873920315e-07
2.368961314e-07
1.953335819e-07
1.608499147e-07
1.320837358e-07
1.080368347e-07
8.794189726e-08
7.11820446e-08
5.72456932e-08
4.569866877e-08
3.616970527e-08
2.834117301e-08
2.194465673e-08
1.675681537e-08
1.259209936e-08
9.293129086e-09
6.721748755e-09
4.755737589e-09
3.286310784e-09
2.215305579e-09
1.455550464e-09
9.318493719e-10
5.814802174e-10
3.542180501e-10
2.113905896e-10
1.24422975e-10
7.305732683e-11
4.34810041e-11
2.671372809e-11
1.715898104e-11
1.152837042e-11
8.011907006e-12
5.668409095e-12
4.027522726e-12
2.849598826e-12
1.995391373e-12
1.375746094e-12
9.304667313e-13
6.173978949e-13
4.027884478e-13
2.581397699e-13
1.611047424e-13
9.573895924e-14
5.130614452e-14
2.139221148e-14
5.569721432e-15
0.001456741955
0.0005670011242
0.0001725614342
5.179224052e-05
2.571544961e-05
1.636140129e-05
1.054538195e-05
6.410840669e-06
3.510997758e-06
1.741078799e-06
9.201594573e-07
5.779007802e-07
4.172670441e-07
3.268798508e-07
2.648465871e-07
2.181415795e-07
1.809905431e-07
1.505529393e-07
1.251996845e-07
1.038947867e-07
8.591927316e-08
7.073602118e-08
5.792116939e-08
4.712727319e-08
3.806137387e-08
3.047441439e-08
2.415317718e-08
1.891417756e-08
1.460101423e-08
1.108510122e-08
8.259961779e-09
6.02798325e-09
4.298900179e-09
2.992204307e-09
2.031845476e-09
1.345685285e-09
8.69787168e-10
5.495429897e-10
3.402339068e-10
2.073180637e-10
1.25280731e-10
7.596917693e-11
4.693524874e-11
2.998535054e-11
1.995808327e-11
1.378674226e-11
9.758634695e-12
6.972298609e-12
4.97079725e-12
3.512663267e-12
2.451783371e-12
1.68527517e-12
1.137499264e-12
7.535083783e-13
4.89578066e-13