/*--------------------------------*- C++ -*----------------------------------*\
  =========                 |
  \\      /  F ield         | OpenFOAM: The Open Source CFD Toolbox
   \\    /   O peration     | Website:  https://openfoam.org
    \\  /    A nd           | Version:  10
     \\/     M anipulation  |
\*---------------------------------------------------------------------------*/
FoamFile
{
    format      ascii;
    class       volScalarField;
    location    "3000";
    object      H2CN;
}
// * * * * * * * * * * * * * * * * * * * * * * * * * * * * * * * * * * * * * //

dimensions      [0 0 0 0 0 0 0];

internalField   nonuniform List<scalar> 
5170
(
6.495347876e-66
5.228634124e-66
3.229079499e-66
1.591056592e-66
1.270843232e-66
2.231589483e-63
1.776302102e-63
1.077746062e-63
6.219666891e-64
1.108027317e-63
7.754121945e-61
6.123145728e-61
3.695694256e-61
2.90366148e-61
8.825621697e-61
2.745823329e-58
2.165265074e-58
1.347868065e-58
1.510498952e-58
6.437733156e-58
9.891479019e-56
7.866924313e-56
5.250104304e-56
8.312124102e-56
4.36863003e-55
3.635562861e-53
2.953717691e-53
2.164299837e-53
4.697349097e-53
2.789882661e-52
1.360397724e-50
1.139079733e-50
9.546852475e-51
2.690313671e-50
1.712399905e-49
5.170991966e-48
4.512449238e-48
4.514098718e-48
1.552966418e-47
1.021912132e-46
2.001233232e-45
1.856418967e-45
2.232467115e-45
9.005834439e-45
5.960961241e-44
7.8995469e-43
7.924507684e-43
1.141258778e-42
5.255016386e-42
3.413664904e-41
3.175752104e-40
3.49957657e-40
5.996813472e-40
3.08184792e-39
1.927783108e-38
1.296483402e-37
1.596220959e-37
3.247123547e-37
1.818026672e-36
1.079128741e-35
5.365489475e-35
7.492329472e-35
1.823934123e-34
1.090247428e-33
6.023401214e-33
2.239988261e-32
3.600535682e-32
1.05784628e-31
6.69104513e-31
3.375765875e-30
9.423587858e-30
1.7638179e-29
6.279717602e-29
4.207957642e-28
1.911116428e-27
3.945065332e-27
8.703620934e-27
3.754267127e-26
2.632491485e-25
1.096428881e-24
1.639213873e-24
4.324718882e-24
2.205307207e-23
1.619056963e-22
6.37256844e-22
6.613808726e-22
2.121261806e-21
1.268120068e-20
9.543655266e-20
3.719100649e-19
2.476713894e-19
1.000769424e-18
6.887063995e-18
5.230486716e-17
2.159818506e-16
7.98257297e-17
4.565300253e-16
3.619736838e-15
2.592212879e-14
1.245291897e-13
6.624147766e-21
3.205955422e-21
2.34394173e-21
3.848009155e-21
6.785208033e-21
3.94801694e-21
3.235863044e-21
2.754014163e-21
3.516157405e-21
3.600701386e-21
2.511050665e-21
1.945348814e-21
1.769264331e-21
1.998362766e-21
2.019484848e-21
1.61002035e-21
1.255767864e-21
1.194610328e-21
1.444564569e-21
1.329402535e-21
1.07670363e-21
1.025452741e-21
9.11534291e-22
1.079124612e-21
8.802652274e-22
7.514023269e-22
8.161615779e-22
7.753170843e-22
7.955954963e-22
5.874098658e-22
5.414281025e-22
6.418821072e-22
6.330898319e-22
5.763456733e-22
3.948746313e-22
3.998559539e-22
5.003514921e-22
5.01766271e-22
4.125467686e-22
2.713185649e-22
3.017747909e-22
3.880726249e-22
3.895035597e-22
2.976308944e-22
1.945403732e-22
2.324085089e-22
3.009352473e-22
2.996611662e-22
2.202438738e-22
1.4700368e-22
1.828615655e-22
2.349571119e-22
2.31366588e-22
1.686366399e-22
1.16812403e-22
1.4707531e-22
1.858520345e-22
1.811840277e-22
1.338999015e-22
9.680833212e-23
1.20951985e-22
1.496608669e-22
1.448661864e-22
1.099490226e-22
8.287106192e-23
1.01600803e-22
1.229367571e-22
1.1859759e-22
9.291184022e-23
7.26648283e-23
8.73544027e-23
1.03121681e-22
9.941395327e-23
8.037796171e-23
6.483489458e-23
2.073514669e-22
1.085468463e-22
8.685947331e-23
7.066499364e-23
5.843620233e-23
2.763446661e-20
6.720921644e-21
1.065532248e-21
1.280724776e-22
5.61879735e-23
4.954982038e-18
1.169945114e-18
1.642485734e-19
1.583469348e-20
2.567824075e-21
9.459180677e-16
2.089255415e-16
2.544371599e-17
2.228639018e-18
3.148533661e-19
1.890902824e-13
3.601000913e-14
3.498516894e-15
2.688762914e-16
3.285296943e-17
3.190325001e-15
2.518178377e-14
3.899755826e-13
5.774420775e-12
7.085167915e-11
1.617871265e-14
1.105367575e-13
1.349470408e-12
1.387559391e-11
9.155017932e-11
4.812640214e-14
2.870361876e-13
2.82226731e-12
2.114091893e-11
8.553381375e-11
1.185429661e-13
6.382239617e-13
5.314035002e-12
3.176754597e-11
1.028802763e-10
2.599807195e-13
1.277650777e-12
9.027348843e-12
4.317813517e-11
1.100267164e-10
5.230308359e-13
2.326619171e-12
1.380543919e-11
5.247980128e-11
1.060914334e-10
1.003271123e-12
4.044898484e-12
1.984497507e-11
5.95392075e-11
1.016879733e-10
1.856141257e-12
6.819901611e-12
2.74349501e-11
6.870583136e-11
1.116011555e-10
3.310548579e-12
1.093498216e-11
3.585969813e-11
7.669545763e-11
1.139791339e-10
5.651167058e-12
1.637074829e-11
4.384428076e-11
8.0980076e-11
1.07934574e-10
9.368917775e-12
2.284722251e-11
5.069854179e-11
8.312896593e-11
1.013086267e-10
1.461468089e-11
3.00161523e-11
5.76138504e-11
8.738501747e-11
1.009820597e-10
2.160393944e-11
3.807405355e-11
6.509347516e-11
9.21170154e-11
9.962496399e-11
3.065730097e-11
4.705736015e-11
7.227703348e-11
9.438265692e-11
9.355174233e-11
4.191370463e-11
5.671525907e-11
7.837565837e-11
9.380482736e-11
8.454761868e-11
5.48228489e-11
6.672735733e-11
8.329158439e-11
9.121608753e-11
7.466987641e-11
6.824839553e-11
7.64963826e-11
8.668698752e-11
8.628420615e-11
6.358666124e-11
7.97661821e-11
8.383418564e-11
8.630526839e-11
7.628959419e-11
5.004827564e-11
8.4154272e-11
8.33637899e-11
7.689168196e-11
5.916853588e-11
3.567078862e-11
7.343914831e-11
6.860918791e-11
5.666684979e-11
3.914214193e-11
2.356695199e-11
4.921921243e-11
4.419179366e-11
3.433156683e-11
2.331479031e-11
1.592261723e-11
2.724544753e-11
2.450185189e-11
1.897509821e-11
1.399931857e-11
1.215367983e-11
1.392623962e-11
1.271618178e-11
1.072961468e-11
9.570148543e-12
9.504625216e-12
7.399382976e-12
7.049324752e-12
6.67563519e-12
6.995790292e-12
7.963583036e-12
4.669801536e-12
4.76290322e-12
5.251058252e-12
6.094762056e-12
7.64576706e-12
3.541769936e-12
3.787819583e-12
4.517409671e-12
6.101034596e-12
8.413511831e-12
3.71502389e-12
4.164081368e-12
5.361993047e-12
7.270254065e-12
1.042413602e-11
4.615800912e-12
5.190719012e-12
6.645076131e-12
9.456239744e-12
1.3771574e-11
6.737943551e-12
7.409551179e-12
9.002200001e-12
1.244172445e-11
1.849263971e-11
1.074928388e-11
1.183112767e-11
1.447207468e-11
1.918278574e-11
2.686833215e-11
1.753161955e-11
1.915291898e-11
2.299379046e-11
2.966867544e-11
4.043711643e-11
2.892044491e-11
3.136600411e-11
3.715239479e-11
4.702923587e-11
6.259495854e-11
4.866349534e-11
5.235042662e-11
6.099572001e-11
7.575721051e-11
9.861336094e-11
8.43907137e-11
9.006697878e-11
1.032590635e-10
1.253112084e-10
1.589338244e-10
1.557606506e-10
1.646766144e-10
1.850713443e-10
2.183357116e-10
2.671147955e-10
2.972328836e-10
3.093593129e-10
3.364158716e-10
3.784620558e-10
4.361354337e-10
4.785887109e-10
4.89896696e-10
5.144889333e-10
5.50966811e-10
5.977263048e-10
5.981519359e-10
6.052323082e-10
6.201843045e-10
6.4111084e-10
6.653880721e-10
6.107309637e-10
6.128799314e-10
6.168108846e-10
6.204739013e-10
6.205834877e-10
5.236122683e-10
5.202597847e-10
5.11820798e-10
4.960394242e-10
4.694624472e-10
3.196758735e-10
3.130185298e-10
2.988347207e-10
2.7868289e-10
2.543099164e-10
1.550850442e-10
1.518770709e-10
1.450626957e-10
1.353432665e-10
1.234623466e-10
6.913195908e-11
6.780432047e-11
6.498971915e-11
6.09816969e-11
5.607937905e-11
2.997983357e-11
2.947488236e-11
2.840025877e-11
2.68588568e-11
2.495347277e-11
1.300654589e-11
1.281497127e-11
1.240553722e-11
1.18129953e-11
1.107238593e-11
5.678844247e-12
5.604663598e-12
5.445566663e-12
5.214117961e-12
4.922448181e-12
2.495928035e-12
2.466694686e-12
2.403843744e-12
2.311998078e-12
2.195492246e-12
1.103962181e-12
1.092266945e-12
1.067073881e-12
1.030125327e-12
9.830149426e-13
4.914146912e-13
4.86678172e-13
4.764591156e-13
4.614273772e-13
4.421806543e-13
2.202796299e-13
2.183417363e-13
2.141554084e-13
2.079826204e-13
2.00052043e-13
9.95513087e-14
9.874894106e-14
9.701534724e-14
9.444910588e-14
9.113759939e-14
4.529082614e-14
4.495947011e-14
4.42425616e-14
4.318233952e-14
4.18147453e-14
2.078102471e-14
2.064069981e-14
2.033656079e-14
1.988531719e-14
1.930031772e-14
9.63871107e-15
9.579384091e-15
9.450765638e-15
9.259864281e-15
9.012315268e-15
4.540197034e-15
4.515655507e-15
4.462493966e-15
4.383704941e-15
4.281770816e-15
2.196878994e-15
2.187587868e-15
2.16754669e-15
2.138072153e-15
2.100388379e-15
1.144501164e-15
1.142676744e-15
1.138606924e-15
1.132188295e-15
1.123013296e-15
6.634162015e-16
6.633935619e-16
6.633968942e-16
6.635325616e-16
6.639705934e-16
4.356969667e-16
4.366479765e-16
4.387822326e-16
4.421319796e-16
4.468162724e-16
3.305774356e-16
3.319575569e-16
3.350233913e-16
3.397584216e-16
3.462418787e-16
2.85912347e-16
2.874798549e-16
2.9095193e-16
2.962904995e-16
3.035577178e-16
2.731027065e-16
2.747779554e-16
2.784842981e-16
2.841728372e-16
2.918981434e-16
2.793958584e-16
2.81165715e-16
2.850778166e-16
2.9107353e-16
2.99199948e-16
2.992862536e-16
3.011606412e-16
3.053002163e-16
3.116357416e-16
3.202063812e-16
3.308679276e-16
3.328606756e-16
3.372572885e-16
3.439753336e-16
3.530432638e-16
3.740001042e-16
3.761157258e-16
3.807782061e-16
3.878893618e-16
3.974635816e-16
4.286187776e-16
4.308428896e-16
4.357385139e-16
4.4319048e-16
4.531964098e-16
4.944505806e-16
4.967494051e-16
5.018032674e-16
5.094806836e-16
5.197611341e-16
5.683573104e-16
5.706782805e-16
5.757746233e-16
5.835016998e-16
5.938218242e-16
6.362602088e-16
6.385481869e-16
6.435673381e-16
6.511657281e-16
6.612929036e-16
9.727192988e-11
1.022304102e-10
8.273261489e-11
1.20878922e-10
1.134263667e-10
9.859714325e-11
9.140801726e-11
1.022865322e-10
9.767104315e-11
8.687108333e-11
7.833727721e-11
7.640033458e-11
7.356432438e-11
6.722715846e-11
5.963408064e-11
5.244206665e-11
4.43432088e-11
3.526613501e-11
2.710251915e-11
2.005345698e-11
1.549994636e-11
1.261753845e-11
1.056353421e-11
9.454127791e-12
9.561127702e-12
1.098085212e-11
1.385608093e-11
1.830977471e-11
2.461770972e-11
3.485963183e-11
5.148922793e-11
7.830578516e-11
1.212506193e-10
1.914085286e-10
3.115933244e-10
4.843319345e-10
6.334319654e-10
6.809108522e-10
6.14958806e-10
4.42759505e-10
2.363744208e-10
1.147396177e-10
5.24694052e-11
2.353110071e-11
1.051214956e-11
4.699459185e-12
2.105686938e-12
9.464639482e-13
4.271686319e-13
1.938388166e-13
8.855087218e-14
4.072564193e-14
1.88365132e-14
8.816113488e-15
4.201253823e-15
2.071132732e-15
1.115559518e-15
6.646333216e-16
4.508941666e-16
3.517464436e-16
3.096844431e-16
2.983919319e-16
3.060140014e-16
3.273755196e-16
3.606069687e-16
4.054239462e-16
4.614873412e-16
5.282502085e-16
6.023160554e-16
6.696066137e-16
1.96755407e-11
5.668438894e-12
3.790559138e-13
2.376119913e-14
2.550306852e-15
1.452137463e-11
1.461479605e-11
1.570805452e-12
1.181126628e-13
1.654453189e-14
1.194835169e-11
1.215639388e-11
4.608581643e-11
4.150254351e-12
4.79528476e-13
2.706036618e-11
2.226734578e-10
3.467148142e-09
2.633899986e-10
1.910396321e-11
2.275210333e-11
7.01221408e-11
4.999804321e-10
5.940316051e-11
6.160987426e-12
2.241270241e-11
2.395354402e-11
9.658738633e-11
2.018513801e-11
2.591896941e-12
2.224986482e-11
1.503438315e-11
5.205370271e-11
6.849727708e-11
9.89972729e-12
2.43754553e-11
4.961359904e-11
3.61201894e-10
2.797378873e-09
3.567789775e-10
2.598929755e-11
4.268102119e-11
2.286704216e-10
1.260184763e-09
2.173103896e-10
2.594747671e-11
2.616024132e-11
9.186461183e-11
3.325467229e-10
8.690285545e-11
2.435147474e-11
1.758066536e-11
4.47454754e-11
1.356515112e-10
8.683573839e-11
2.267490652e-11
1.828839457e-11
5.37224379e-11
2.126776292e-10
7.65278563e-10
2.432702592e-11
2.815869487e-11
1.063600932e-10
4.893345259e-10
2.261654534e-09
2.419044584e-11
2.602865518e-11
7.721195189e-11
2.671811812e-10
8.559334808e-10
2.327183202e-11
2.07522484e-11
4.735379288e-11
1.329460338e-10
3.463936721e-10
2.335061411e-11
1.741756644e-11
3.224430354e-11
8.03271779e-11
1.916141957e-10
2.185495003e-11
1.657053822e-11
3.032901779e-11
7.894849007e-11
2.129256503e-10
2.09378983e-11
2.45307456e-11
6.543413376e-11
2.186408823e-10
7.541964749e-10
2.029564298e-11
3.149222474e-11
8.551715115e-11
2.590159809e-10
7.786054229e-10
1.845592087e-11
3.255336948e-11
8.226244604e-11
2.210781793e-10
5.83751103e-10
1.630978484e-11
2.990024989e-11
6.991653675e-11
1.708863322e-10
4.116362241e-10
1.43733666e-11
2.642286425e-11
5.800688265e-11
1.324804797e-10
3.003754077e-10
1.289993208e-11
2.376983755e-11
4.99718423e-11
1.089880354e-10
2.369702927e-10
1.227028132e-11
2.288070062e-11
4.697536834e-11
9.955467795e-11
2.103832796e-10
1.30090487e-11
2.485165623e-11
5.104684606e-11
1.079666574e-10
2.288071401e-10
1.548971992e-11
3.026844338e-11
6.24318736e-11
1.320468484e-10
2.803469835e-10
1.981452041e-11
3.870262419e-11
7.858514939e-11
1.624651253e-10
3.358629741e-10
2.608200479e-11
4.983456242e-11
9.797519668e-11
1.948974454e-10
3.859032694e-10
3.488725839e-11
6.478395726e-11
1.227731913e-10
2.344298831e-10
4.435294843e-10
4.82444311e-11
8.690403376e-11
1.592471629e-10
2.936310095e-10
5.331437745e-10
6.995086344e-11
1.216913564e-10
2.163272679e-10
3.868253295e-10
6.715444292e-10
1.043776091e-10
1.758871374e-10
3.030562257e-10
5.213291081e-10
8.459775095e-10
1.585177041e-10
2.576526456e-10
4.251056727e-10
6.841298223e-10
9.987701113e-10
2.441937695e-10
3.760023104e-10
5.738791466e-10
8.236590609e-10
1.029681185e-09
3.819554746e-10
5.3629295e-10
7.269656777e-10
9.048185422e-10
9.510634463e-10
5.577382796e-10
6.939740161e-10
8.259070482e-10
8.933904678e-10
7.865814834e-10
6.856149443e-10
7.634489279e-10
8.038435875e-10
7.436416546e-10
5.263395633e-10
7.013552557e-10
7.087440629e-10
6.530671001e-10
4.950925587e-10
3.399658201e-10
6.024693396e-10
5.39668857e-10
4.188460616e-10
3.020013906e-10
2.078165849e-10
4.002883135e-10
3.170790642e-10
2.395806868e-10
1.728583184e-10
1.207253347e-10
2.102540671e-10
1.671600788e-10
1.270570809e-10
9.332201402e-11
6.68500313e-11
1.021089363e-10
8.21626851e-11
6.382075761e-11
4.81692879e-11
3.55169405e-11
4.723404165e-11
3.887474675e-11
3.100430274e-11
2.406727489e-11
1.825449402e-11
2.14575951e-11
1.805854563e-11
1.475894756e-11
1.175291906e-11
9.147562477e-12
9.691529204e-12
8.312961877e-12
6.938122127e-12
5.64918063e-12
4.498990262e-12
4.371580149e-12
3.809541854e-12
3.236479727e-12
2.68632998e-12
2.183139818e-12
1.97325368e-12
1.742530251e-12
1.503006591e-12
1.268497675e-12
1.049491889e-12
8.924377594e-13
7.970757914e-13
6.966028069e-13
5.966007454e-13
5.015446728e-13
4.049374361e-13
3.652732993e-13
3.229677247e-13
2.80275264e-13
2.390769883e-13
1.846229973e-13
1.680294139e-13
1.501405953e-13
1.318530295e-13
1.139676079e-13
8.470348456e-14
7.771312183e-14
7.009787664e-14
6.223634453e-14
5.445350492e-14
3.910242932e-14
3.611370005e-14
3.281552654e-14
2.940083388e-14
2.600094535e-14
1.814567788e-14
1.687412842e-14
1.54711244e-14
1.400422633e-14
1.253528865e-14
8.523916192e-15
7.986225998e-15
7.393229413e-15
6.77381474e-15
6.156453073e-15
4.081533721e-15
3.863049788e-15
3.625439361e-15
3.383026777e-15
3.151157802e-15
2.027974468e-15
1.952505964e-15
1.876224488e-15
1.805461805e-15
1.736347918e-15
1.104547515e-15
1.085987341e-15
1.068862017e-15
1.055806626e-15
1.049096867e-15
6.658334153e-16
6.70061635e-16
6.780090385e-16
6.911853589e-16
7.112267683e-16
4.571980794e-16
4.709134199e-16
4.89379336e-16
5.135960333e-16
5.44700276e-16
3.601740961e-16
3.77788536e-16
4.005233349e-16
4.291556857e-16
4.646131793e-16
3.190387383e-16
3.383613894e-16
3.629751015e-16
3.935450211e-16
4.308582871e-16
3.082944103e-16
3.286389619e-16
3.543829397e-16
3.861103374e-16
4.24497748e-16
3.16394573e-16
3.376305627e-16
3.643600815e-16
3.97092821e-16
4.364044201e-16
3.38285955e-16
3.605071875e-16
3.883196578e-16
4.221474252e-16
4.624524746e-16
3.721045127e-16
3.954001861e-16
4.243684429e-16
4.593293422e-16
5.006132917e-16
4.175082875e-16
4.418503574e-16
4.71900729e-16
5.078581737e-16
5.499071435e-16
4.740562692e-16
4.992172131e-16
5.300432161e-16
5.66602128e-16
6.089278662e-16
5.411009356e-16
5.666688081e-16
5.977573585e-16
6.343044506e-16
6.762008165e-16
6.151586868e-16
6.405595248e-16
6.712277142e-16
7.069859496e-16
7.476029927e-16
6.821633507e-16
7.068837975e-16
7.365640787e-16
7.709456903e-16
8.097148017e-16
8.409078514e-15
1.278686025e-15
3.119389692e-16
1.737701019e-16
1.43168435e-16
1.224914531e-16
1.021301242e-16
8.352362968e-17
6.768554493e-17
5.501116496e-17
4.519171983e-17
3.771357701e-17
3.199733285e-17
2.752082445e-17
2.387392932e-17
2.076643744e-17
1.802288816e-17
1.555004022e-17
1.331181453e-17
1.130093959e-17
9.522103317e-18
7.978540931e-18
6.664854801e-18
5.564387373e-18
4.651045224e-18
3.893006645e-18
3.257836445e-18
2.717444964e-18
2.251046537e-18
1.845610171e-18
1.494283245e-18
1.193730698e-18
9.415479813e-19
7.345251313e-19
5.679585645e-19
4.359035803e-19
3.31998985e-19
2.503761252e-19
1.862549458e-19
1.360749959e-19
9.725731939e-20
6.783032888e-20
4.612051668e-20
3.059606136e-20
1.984492255e-20
1.262093417e-20
7.894059947e-21
4.868309315e-21
2.96512159e-21
1.784593536e-21
1.060821162e-21
6.219010072e-22
3.587035632e-22
2.027582388e-22
1.11479827e-22
5.862920675e-23
2.823614825e-23
1.119979438e-23
2.607323978e-24
2.132920614e-25
1.151844132e-13
1.775323669e-14
4.752676631e-15
2.832279858e-15
2.197445391e-15
1.771836283e-15
1.390758969e-15
1.083963519e-15
8.331731529e-16
6.417087847e-16
4.959464152e-16
3.881140575e-16
3.08121106e-16
2.482937014e-16
2.024639482e-16
1.663726517e-16
1.372424726e-16
1.13304544e-16
9.346190295e-17
7.697491643e-17
6.332765499e-17
5.211722788e-17
4.299132059e-17
3.56077452e-17
2.963605887e-17
2.476546825e-17
2.072475028e-17
1.730063425e-17
1.434626628e-17
1.177460072e-17
9.543086662e-18
7.632776592e-18
6.029674074e-18
4.713775073e-18
3.654991724e-18
2.814968664e-18
2.152649852e-18
1.630410413e-18
1.218019704e-18
8.93397737e-19
6.40850373e-19
4.484441553e-19
3.059060368e-19
2.036189213e-19
1.325537082e-19
8.46486365e-20
5.318973411e-20
3.296875502e-20
2.018864927e-20
1.221801006e-20
7.30273973e-21
4.304261245e-21
2.495547429e-21
1.417441212e-21
7.82513594e-22
4.126837267e-22
1.991287973e-22
7.942673308e-23
1.978095916e-23
2.00746808e-24
2.611025e-12
2.602040582e-13
3.602177446e-14
1.686084862e-14
1.237485385e-14
9.748564021e-15
7.566607941e-15
5.8703336e-15
4.504113e-15
3.468263638e-15
2.672139388e-15
2.078672602e-15
1.630986358e-15
1.292227855e-15
1.030049243e-15
8.235313676e-16
6.585506265e-16
5.261241609e-16
4.201540176e-16
3.358421123e-16
2.692543872e-16
2.169960262e-16
1.761949285e-16
1.44346263e-16
1.193038056e-16
9.928021163e-17
8.287316637e-17
6.906938275e-17
5.721596761e-17
4.694184444e-17
3.80632077e-17
3.049146683e-17
2.415718439e-17
1.896749696e-17
1.479256132e-17
1.147329713e-17
8.843323639e-18
6.753232614e-18
5.086089945e-18
3.759226806e-18
2.71580329e-18
1.913053077e-18
1.313260072e-18
8.79625289e-19
5.76338237e-19
3.705976725e-19
2.346215163e-19
1.466087674e-19
9.05495715e-20
5.528678421e-20
3.334100208e-20
1.982429767e-20
1.159074142e-20
6.634249279e-21
3.685612795e-21
1.950773242e-21
9.417663092e-22
3.736482789e-22
9.365798343e-23
9.883146772e-24
7.268453994e-12
1.715111635e-12
2.05383509e-13
7.019226364e-14
4.745806421e-14
3.606223744e-14
2.76105506e-14
2.112287148e-14
1.612991882e-14
1.236813426e-14
9.531110049e-15
7.416958375e-15
5.826476862e-15
4.621730046e-15
3.687167749e-15
2.948751639e-15
2.354035925e-15
1.872591811e-15
1.483698351e-15
1.173070003e-15
9.283274011e-16
7.381432992e-16
5.918505687e-16
4.796452485e-16
3.929136911e-16
3.245375717e-16
2.691404652e-16
2.229921775e-16
1.837604319e-16
1.501302009e-16
1.214100502e-16
9.719793986e-17
7.715047313e-17
6.0857559e-17
4.781323236e-17
3.7444985e-17
2.918647405e-17
2.255285619e-17
1.718457558e-17
1.284368062e-17
9.376963016e-18
6.671742427e-18
4.624681939e-18
3.127665032e-18
2.069522976e-18
1.344384473e-18
8.602089149e-19
5.434703272e-19
3.394583639e-19
2.09638571e-19
1.278878031e-19
7.692162655e-20
4.5480845e-20
2.630360373e-20
1.47377311e-20
7.839340666e-21
3.786889259e-21
1.492215947e-21
3.708551992e-22
3.93860737e-23
1.593084705e-12
6.633012142e-12
1.205558739e-12
2.729297161e-13
1.438146138e-13
1.013288317e-13
7.560958214e-14
5.712725097e-14
4.346318013e-14
3.330552771e-14
2.571943807e-14
2.00576728e-14
1.580181311e-14
1.258101332e-14
1.009545898e-14
8.144441025e-15
6.57696217e-15
5.303261743e-15
4.25964992e-15
3.409666764e-15
2.723137617e-15
2.177313818e-15
1.748648537e-15
1.414734623e-15
1.153747634e-15
9.468007989e-16
7.789981197e-16
6.398771702e-16
5.227847463e-16
4.237817052e-16
3.405419497e-16
2.714674937e-16
2.151282615e-16
1.699660203e-16
1.342239791e-16
1.060292843e-16
8.359512818e-17
6.544930523e-17
5.055997539e-17
3.830361838e-17
2.833041018e-17
2.040945823e-17
1.431909776e-17
9.801524984e-18
6.56666363e-18
4.321653954e-18
2.802816168e-18
1.795165126e-18
1.136568272e-18
7.112378047e-19
4.394877583e-19
2.676800426e-19
1.602183604e-19
9.373594605e-20
5.303789207e-20
2.839561525e-20
1.374303166e-20
5.394448995e-21
1.330617827e-21
1.438256233e-22
9.426921771e-13
4.949139655e-12
2.049229756e-12
6.005276788e-13
3.07332643e-13
2.136700632e-13
1.600308549e-13
1.217909405e-13
9.349662376e-14
7.233855856e-14
5.641084425e-14
4.436954517e-14
3.522333722e-14
2.82392053e-14
2.284320106e-14
1.861778417e-14
1.524537037e-14
1.251211522e-14
1.026267513e-14
8.404960525e-15
6.868864355e-15
5.61110118e-15
4.588192126e-15
3.763442077e-15
3.096625223e-15
2.552692502e-15
2.101140286e-15
1.720694619e-15
1.397739756e-15
1.124606209e-15
8.96477356e-16
7.093245985e-16
5.588037492e-16
4.399953089e-16
3.475110428e-16
2.757113759e-16
2.19229913e-16
1.736789495e-16
1.360541781e-16
1.046219257e-16
7.853545947e-17
5.737664222e-17
4.078300361e-17
2.82624977e-17
1.917117286e-17
1.278547935e-17
8.412397056e-18
5.470794646e-18
3.517725709e-18
2.234885565e-18
1.401030694e-18
8.649883308e-19
5.243810037e-19
3.104486058e-19
1.775335809e-19
9.587428759e-20
4.666780302e-20
1.83863367e-20
4.545485139e-21
5.058966895e-22
1.822138033e-12
1.280944002e-12
6.546532014e-12
1.93647347e-12
6.619646911e-13
3.862820222e-13
2.775375005e-13
2.106977561e-13
1.632192482e-13
1.278810681e-13
1.010755177e-13
8.056020447e-14
6.476971377e-14
5.255394999e-14
4.303950133e-14
3.555645356e-14
2.958946824e-14
2.475866385e-14
2.078210216e-14
1.747006413e-14
1.468559103e-14
1.234243339e-14
1.037060793e-14
8.718120334e-15
7.329123459e-15
6.154717211e-15
5.146263562e-15
4.269111548e-15
3.500737915e-15
2.831870161e-15
2.259593318e-15
1.78235669e-15
1.395587917e-15
1.090454877e-15
8.549288555e-16
6.753154343e-16
5.373007548e-16
4.282050858e-16
3.390370515e-16
2.644068719e-16
2.016355252e-16
1.496878513e-16
1.079938616e-16
7.581580485e-17
5.201745909e-17
3.508031917e-17
2.33624978e-17
1.540002316e-17
1.004937696e-17
6.483897937e-18
4.128079101e-18
2.587050617e-18
1.590586201e-18
9.54039976e-19
5.522548925e-19
3.017915876e-19
1.48678104e-19
5.947281297e-20
1.50128847e-20
1.747247748e-21
3.458863233e-11
4.505759767e-12
6.072128434e-12
3.846306498e-12
1.283243246e-12
6.145898725e-13
4.099313076e-13
3.084173737e-13
2.408300825e-13
1.909839434e-13
1.528634018e-13
1.232919899e-13
1.002139741e-13
8.214267405e-14
6.794214033e-14
5.672450945e-14
4.779131706e-14
4.060137948e-14
3.473325355e-14
2.986964064e-14
2.577718454e-14
2.22905821e-14
1.929008676e-14
1.669206715e-14
1.442822979e-14
1.244020925e-14
1.067126207e-14
9.077590304e-15
7.628742636e-15
6.314955321e-15
5.139353967e-15
4.113451435e-15
3.24648701e-15
2.538909152e-15
1.979446853e-15
1.548647803e-15
1.221424398e-15
9.6955235e-16
7.6934888e-16
6.052377957e-16
4.681843653e-16
3.536476064e-16
2.597407506e-16
1.853073428e-16
1.288241814e-16
8.782196639e-17
5.906820993e-17
3.933749349e-17
2.596580765e-17
1.697166526e-17
1.096028271e-17
6.972938317e-18
4.353145949e-18
2.650550953e-18
1.556947705e-18
8.637133065e-19
4.328415233e-19
1.770869871e-19
4.617805161e-20
5.718530724e-21
2.661593333e-11
3.997880944e-12
2.446451978e-12
8.656405468e-12
3.048434803e-12
1.08337211e-12
5.948931724e-13
4.195192858e-13
3.235411745e-13
2.575251101e-13
2.079241816e-13
1.693677564e-13
1.389897475e-13
1.149243514e-13
9.580643077e-14
8.057702686e-14
6.839495771e-14
5.859017069e-14
5.063124336e-14
4.40995202e-14
3.866927674e-14
3.409145841e-14
3.017728526e-14
2.677837052e-14
2.377862814e-14
2.108764568e-14
1.862734691e-14
1.633798841e-14
1.417874463e-14
1.213400729e-14
1.021002737e-14
8.433519191e-15
6.839232885e-15
5.458321933e-15
4.30474232e-15
3.372430207e-15
2.640593257e-15
2.075625614e-15
1.635434494e-15
1.284542087e-15
9.9952343e-16
7.657759836e-16
5.738050415e-16
4.181772689e-16
2.959511143e-16
2.045274e-16
1.390481547e-16
9.343517431e-17
6.219726392e-17
4.103116671e-17
2.679280392e-17
1.727160272e-17
1.094538547e-17
6.773676552e-18
4.04816485e-18
2.287927477e-18
1.172054577e-18
4.940196301e-19
1.348313513e-19
1.814627963e-20
1.373949431e-11
2.545807057e-12
1.374118154e-12
4.088387085e-12
4.105262123e-12
1.661038202e-12
8.181452615e-13
5.4160895e-13
4.099593714e-13
3.261762013e-13
2.648887865e-13
2.174648679e-13
1.799056188e-13
1.498691409e-13
1.257513081e-13
1.06346076e-13
9.070221675e-14
7.805409167e-14
6.778182691e-14
5.938513164e-14
5.245770673e-14
4.668693408e-14
4.181463985e-14
3.763805304e-14
3.399406196e-14
3.075029091e-14
2.779751992e-14
2.504330674e-14
2.241312068e-14
1.985722191e-14
1.735334605e-14
1.491277485e-14
1.257804562e-14
1.041058779e-14
8.468665334e-15
6.789316766e-15
5.381860215e-15
4.236144617e-15
3.321743133e-15
2.595374775e-15
2.014126705e-15
1.547101419e-15
1.172612731e-15
8.72783626e-16
6.333891755e-16
4.469009018e-16
3.082788751e-16
2.093356731e-16
1.404923641e-16
9.334462319e-17
6.141827603e-17
3.997469922e-17
2.565128707e-17
1.612187884e-17
9.812460993e-18
5.666487059e-18
2.980659585e-18
1.303642034e-18
3.776626558e-19
5.625721143e-20
1.557627353e-11
3.046705328e-12
1.30047623e-12
1.726489257e-12
6.083537339e-12
2.956376537e-12
1.248544605e-12
7.126037294e-13
5.102708639e-13
4.00178369e-13
3.247932369e-13
2.677646616e-13
2.227860898e-13
1.866547938e-13
1.57398993e-13
1.33635496e-13
1.143099844e-13
9.856983186e-14
8.575180951e-14
7.52763679e-14
6.666626609e-14
5.953706199e-14
5.357768065e-14
4.853629386e-14
4.42072746e-14
4.042077153e-14
3.70348409e-14
3.393013123e-14
3.100531201e-14
2.817924512e-14
2.539491502e-14
2.262192889e-14
1.986052486e-14
1.714568813e-14
1.454046411e-14
1.211679546e-14
9.931126425e-15
8.014515001e-15
6.377661911e-15
5.014074101e-15
3.900830552e-15
3.001240276e-15
2.280937148e-15
1.711208962e-15
1.264798926e-15
9.159512843e-16
6.47112439e-16
4.466410415e-16
3.027925557e-16
2.025918558e-16
1.341223844e-16
8.789464632e-17
5.691392694e-17
3.622331783e-17
2.242420421e-17
1.324069927e-17
7.175611006e-18
3.276815962e-18
1.020837739e-18
1.70870187e-19
1.356382768e-10
2.211500879e-11
4.489775467e-12
1.822327246e-12
3.983108202e-12
4.635320183e-12
2.083720178e-12
9.973635528e-13
6.364706086e-13
4.797268643e-13
3.857211764e-13
3.180932725e-13
2.655866755e-13
2.23433574e-13
1.890608665e-13
1.609693481e-13
1.379868546e-13
1.191469632e-13
1.036920558e-13
9.100340595e-14
8.055722867e-14
7.192429509e-14
6.475289771e-14
5.875216187e-14
5.367950845e-14
4.933084277e-14
4.5532803e-14
4.213678035e-14
3.901495707e-14
3.605902589e-14
3.318168012e-14
3.032000808e-14
2.743765738e-14
2.452907564e-14
2.162035346e-14
1.876336635e-14
1.60192597e-14
1.344361383e-14
1.108133329e-14
8.965107082e-15
7.120452933e-15
5.558724978e-15
4.269328288e-15
3.228250449e-15
2.40566789e-15
1.767251966e-15
1.276713739e-15
9.034369937e-16
6.246379038e-16
4.228907089e-16
2.81801871e-16
1.856432775e-16
1.209906569e-16
7.773421307e-17
4.87985204e-17
2.941640126e-17
1.644424674e-17
7.880776961e-18
2.670741532e-18
5.08221201e-19
4.015233187e-10
6.273312326e-11
1.024628058e-11
2.466494427e-12
2.114173689e-12
5.663798475e-12
3.494895689e-12
1.570109641e-12
8.349576915e-13
5.692545065e-13
4.414800925e-13
3.602196266e-13
2.999462754e-13
2.527941484e-13
2.140630732e-13
1.830288226e-13
1.574072556e-13
1.361970961e-13
1.186255663e-13
1.040751524e-13
9.203158792e-14
8.206310551e-14
7.38040605e-14
6.694372202e-14
6.121735458e-14
5.639790812e-14
5.228896305e-14
4.871876606e-14
4.553622635e-14
4.260901772e-14
3.982375199e-14
3.708793569e-14
3.433280976e-14
3.15173061e-14
2.863101183e-14
2.569180852e-14
2.273882227e-14
1.982069812e-14
1.698697089e-14
1.428951529e-14
1.177708082e-14
9.498336e-15
7.494325464e-15
5.785858527e-15
4.379229543e-15
3.256641982e-15
2.382280165e-15
1.715218508e-15
1.213157767e-15
8.398978313e-16
5.687467719e-16
3.779433602e-16
2.475964533e-16
1.60068381e-16
1.015437558e-16
6.230434668e-17
3.589532467e-17
1.813095374e-17
6.750881779e-18
1.471424032e-18
2.156630055e-10
4.301908022e-11
8.37564931e-12
2.186267121e-12
1.335526595e-12
3.035486187e-12
4.039136369e-12
2.355458432e-12
1.183194679e-12
6.902240337e-13
4.847694802e-13
3.782767726e-13
3.101617508e-13
2.606469261e-13
2.207531829e-13
1.894147254e-13
1.634602685e-13
1.418907063e-13
1.239244319e-13
1.089592421e-13
9.651275291e-14
8.618442453e-14
7.763358789e-14
7.056509806e-14
6.472125841e-14
5.987566901e-14
5.582931662e-14
5.240685522e-14
4.945206784e-14
4.682363414e-14
4.439267474e-14
4.204528035e-14
3.968768905e-14
3.725008794e-14
3.469005491e-14
3.199403543e-14
2.917368992e-14
2.625942208e-14
2.329300066e-14
2.032308375e-14
1.740450454e-14
1.459459446e-14
1.195802854e-14
9.558559327e-15
7.451547816e-15
5.672591482e-15
4.224810339e-15
3.084667782e-15
2.212880678e-15
1.560087188e-15
1.079010554e-15
7.306487483e-16
4.848266543e-16
3.160388893e-16
2.022132457e-16
1.258738943e-16
7.450450929e-17
3.966682892e-17
1.632390349e-17
4.098950066e-18
1.197080079e-10
2.749817727e-11
6.15985097e-12
1.769835039e-12
9.504373416e-13
1.351657037e-12
3.529096925e-12
2.972176834e-12
1.750650277e-12
9.285670087e-13
5.393537491e-13
3.695605668e-13
2.846549742e-13
2.340349414e-13
1.978424025e-13
1.698922382e-13
1.473511714e-13
1.287897465e-13
1.133527647e-13
1.004680707e-13
8.971659953e-14
8.076891085e-14
7.335276247e-14
6.723557142e-14
6.221360707e-14
5.810632319e-14
5.475125306e-14
5.199948063e-14
4.971259255e-14
4.776166615e-14
4.602568806e-14
4.438788676e-14
4.273867578e-14
4.098566722e-14
3.905988092e-14
3.691786954e-14
3.454608971e-14