/*--------------------------------*- C++ -*----------------------------------*\
  =========                 |
  \\      /  F ield         | OpenFOAM: The Open Source CFD Toolbox
   \\    /   O peration     | Website:  https://openfoam.org
    \\  /    A nd           | Version:  10
     \\/     M anipulation  |
\*---------------------------------------------------------------------------*/
FoamFile
{
    format      ascii;
    class       volScalarField;
    location    "3000";
    object      H2O;
}
// * * * * * * * * * * * * * * * * * * * * * * * * * * * * * * * * * * * * * //

dimensions      [0 0 0 0 0 0 0];

internalField   nonuniform List<scalar> 
5170
(
9.175630991e-52
9.352500237e-52
1.025405122e-51
1.463790464e-51
3.866269807e-51
2.814071592e-51
2.897325425e-51
3.301548162e-51
5.171222921e-51
1.102530365e-50
5.86616832e-51
6.119844343e-51
7.264744646e-51
1.195879585e-50
2.104001498e-50
3.463971428e-50
3.018227019e-50
2.555921072e-50
3.637588065e-50
9.200513917e-50
8.794222423e-48
7.031300978e-48
4.744731817e-48
7.515721064e-48
3.913345421e-47
3.203144922e-45
2.614027183e-45
1.930834945e-45
4.192799827e-45
2.483255787e-44
1.194554089e-42
1.004312937e-42
8.472671194e-43
2.391343923e-42
1.522872876e-41
4.546532201e-40
3.982246026e-40
4.003309324e-40
1.381371908e-39
9.125741184e-39
1.770803001e-37
1.648418088e-37
1.989465966e-37
8.062479722e-37
5.374429743e-36
7.069627864e-35
7.118124923e-35
1.028155856e-34
4.763073466e-34
3.123440424e-33
2.88690354e-32
3.195051643e-32
5.49260384e-32
2.843235138e-31
1.796845762e-30
1.200589646e-29
1.485911188e-29
3.035353695e-29
1.712538552e-28
1.025746342e-27
5.06506821e-27
7.114192674e-27
1.740548683e-26
1.047512144e-25
5.821391176e-25
2.150878404e-24
3.47576566e-24
1.025953504e-23
6.513233826e-23
3.290948402e-22
9.153354161e-22
1.718463637e-21
6.128888708e-21
4.098775142e-20
1.856023807e-19
3.842351605e-19
8.463383341e-19
3.636477115e-18
2.526637719e-17
1.045569439e-16
1.583213873e-16
4.141879222e-16
2.089011596e-15
1.510176315e-14
5.89732591e-14
6.261830573e-14
1.976638225e-13
1.161695131e-12
8.588292897e-12
3.327615294e-11
2.277401291e-11
9.00479153e-11
6.076720208e-10
4.55050614e-09
1.884810832e-08
7.098224852e-09
3.969156576e-08
3.094790416e-07
2.20652541e-06
1.08428969e-05
0.09506547691
0.09497106061
0.09493597699
0.09499570301
0.09507280665
0.09555302271
0.09543137435
0.09539602764
0.09546339349
0.09557804768
0.09584367423
0.09572429024
0.09569369392
0.0957584221
0.09587899166
0.0960341207
0.09592448553
0.09590028806
0.09596494423
0.09607837051
0.09616638202
0.09606895841
0.09604979081
0.09611495385
0.09621959637
0.09626142088
0.09617763827
0.09616271232
0.09622666504
0.09631999726
0.0963325846
0.09626211733
0.09625122326
0.09631154962
0.09639195787
0.09638732732
0.09632877028
0.09632145783
0.09637624191
0.0964438459
0.09643010937
0.09638182117
0.09637755866
0.09642570913
0.09648160714
0.09646404505
0.09642445322
0.09642251148
0.09646386615
0.0965096069
0.09649126629
0.09645889223
0.09645860431
0.09649363051
0.09653093235
0.09651341309
0.09648689651
0.09648768915
0.09651715376
0.09654771748
0.09653171104
0.09650985308
0.09651131499
0.09653607696
0.09656140199
0.09654711125
0.09652891437
0.09653073993
0.0965516412
0.09657297311
0.09656032107
0.09654495289
0.09654695758
0.09656477421
0.09658311715
0.09657190869
0.09655869902
0.09656074027
0.09657617694
0.09659236394
0.09658226963
0.09657073589
0.09657279859
0.09658641813
0.09660109075
0.09659172873
0.09658159121
0.09658375784
0.09659597338
0.0966095025
0.09661094866
0.09659434173
0.0965938893
0.09660259525
0.09661173921
0.09730024664
0.09677319452
0.09656328975
0.09641082953
0.09614623379
2.662952447e-07
2.061259094e-06
3.1699357e-05
0.0004766874647
0.006391363252
1.456756898e-06
9.796773375e-06
0.0001191857515
0.001262814008
0.009628828164
4.822550394e-06
2.875463086e-05
0.0002877254722
0.00231709033
0.01189969316
1.285073901e-05
6.938641069e-05
0.0005845867071
0.00367134639
0.01381471849
2.961091406e-05
0.0001458335578
0.001037334396
0.005187249646
0.01556090517
6.227025831e-05
0.0002793019542
0.001686472128
0.006885773005
0.01737331257
0.0001265366907
0.0005217529163
0.00266203197
0.008848064242
0.0192750656
0.0002498059736
0.0009482361907
0.003992841239
0.01091125262
0.02115856807
0.0004746383277
0.00162690039
0.005585495911
0.01290563798
0.0229052506
0.0008596749665
0.002596351118
0.007332038402
0.01481663595
0.02453377167
0.001509865561
0.003855943596
0.009116981219
0.01664137422
0.0260601786
0.002471911693
0.005317731223
0.01089216474
0.0183934104
0.02751016194
0.003792117815
0.00697501371
0.01270087618
0.02011502476
0.02892019187
0.005556336454
0.008881850723
0.01461761012
0.02187359739
0.03034757131
0.0078889347
0.01113402903
0.0167277433
0.02373955471
0.03184354675
0.01086528491
0.0138488165
0.01913987099
0.02581438045
0.03351270961
0.01450450596
0.01713124456
0.02199246186
0.02824523007
0.03550811286
0.01870040561
0.02096940861
0.02535092231
0.03113283032
0.03792655011
0.02334247097
0.0252929621
0.02918995626
0.03446568939
0.04075882386
0.02826184967
0.02994565007
0.03339107294
0.03815845437
0.04393367723
0.03330484823
0.03476376653
0.03780079155
0.04207852823
0.04733517688
0.03832834762
0.03959965612
0.04227705956
0.04609954242
0.05085581932
0.04325752283
0.0443681499
0.04672789267
0.05013552352
0.05442307536
0.04806419044
0.04903878219
0.05112466162
0.05416414636
0.05802818084
0.0527722203
0.05363596987
0.05549322026
0.0582184633
0.06171064958
0.05745874188
0.05823160387
0.05989850819
0.06235824042
0.06553263125
0.06221050813
0.0629084909
0.06441906799
0.06665813698
0.06956461735
0.06709161442
0.06772808413
0.06910835003
0.07116235576
0.0738420706
0.07213127747
0.07271681086
0.07398995534
0.07589030268
0.07837697492
0.07733717923
0.07788088877
0.07906409487
0.08083400725
0.08315591754
0.08272456333
0.08323303571
0.08434094271
0.08599997206
0.08817808328
0.08835939509
0.0888383429
0.08988182302
0.09144397336
0.09349365499
0.09438768459
0.09483923638
0.09582148915
0.09728570984
0.09919583474
0.1009775266
0.1013913268
0.1022870669
0.1036112442
0.1053126997
0.1080141584
0.1083568961
0.1090931082
0.1101654166
0.1115134235
0.1145714895
0.1148094206
0.1153160817
0.1160423946
0.1169370983
0.1195658496
0.119702094
0.1199900539
0.1203970042
0.12088693
0.1227526861
0.1228148705
0.122944139
0.1231206098
0.1233203237
0.1244847333
0.1244981388
0.1245223489
0.1245448613
0.124548104
0.1251849126
0.1251639403
0.1251133579
0.1250241883
0.1248811139
0.1251133399
0.1250626901
0.1249470292
0.1247595046
0.1244860756
0.124324342
0.1242465623
0.1240725619
0.1238002795
0.1234213183
0.1229182988
0.1228230415
0.1226117447
0.1222857575
0.1218401327
0.1210440174
0.1209371182
0.1207009322
0.1203390528
0.1198488955
0.1187698438
0.1186556409
0.1184039534
0.1180193879
0.1175013295
0.1161393745
0.1160212247
0.1157612492
0.1153658019
0.1148354994
0.1132065399
0.1130878574
0.1128270022
0.1124310197
0.1119014159
0.1100333941
0.1099166888
0.1096603608
0.1092717481
0.1087529152
0.1066845374
0.1065716433
0.1063238021
0.1059483666
0.1054476988
0.1032219471
0.1031141101
0.1028774412
0.1025191161
0.1020416061
0.0997018045
0.09959978508
0.09937592273
0.09903712123
0.09858575631
0.09617389415
0.09607815794
0.09586811766
0.09555028343
0.09512704194
0.09268222547
0.09259280946
0.09239664271
0.09209980912
0.09170453818
0.08926132413
0.08917819837
0.08899583564
0.0887198951
0.08835245205
0.08593754039
0.08586050953
0.08569151526
0.08543579088
0.08509524164
0.08272981568
0.08265858542
0.08250230877
0.08226580694
0.08195081466
0.07965037848
0.07958459707
0.0794402649
0.0792218127
0.07893081113
0.0767056639
0.07664495212
0.07651173155
0.07631006891
0.07604138158
0.07389753698
0.07384151039
0.07371855922
0.07353241416
0.07328435195
0.07122443519
0.07117271923
0.07105921658
0.07088735022
0.07065826965
0.06868261105
0.0686348515
0.06853002226
0.06837126562
0.06815961676
0.0662666513
0.06622251715
0.06612563644
0.06597889629
0.06578322996
0.06397074019
0.06392992847
0.06384033369
0.06370461112
0.06352360317
0.06178799634
0.06175022776
0.06166730682
0.06154167824
0.06137410383
0.05971287837
0.05967790175
0.05960110575
0.05948474388
0.05932950633
0.05773762887
0.05770520989
0.057634025
0.0575261542
0.05738222465
0.05585949661
0.05582943542
0.05576342542
0.05566338836
0.05552989484
0.05407158576
0.05404368199
0.05398240623
0.05388953697
0.05376559608
0.05239714808
0.05237124474
0.05231436168
0.05222814498
0.05211307054
0.0509839987
0.05095974883
0.05090649012
0.050825757
0.05071798668
0.02310082722
0.02364837388
0.0239606776
0.0246642345
0.02565428251
0.0268876435
0.0282654971
0.02965238727
0.03094118675
0.03214834655
0.03329149962
0.03439611606
0.03548106467
0.03659315518
0.03777207343
0.03913031823
0.04081978029
0.0429229483
0.04542365581
0.04825520601
0.05130829987
0.0544868186
0.05772914032
0.06103710407
0.06445381737
0.06804561831
0.07188020919
0.07598699488
0.0803736427
0.0850248084
0.08993209756
0.09513946791
0.1007143802
0.106637311
0.1125333346
0.1175963894
0.1212359584
0.1234476218
0.1245222477
0.1247374342
0.1242371681
0.1230940773
0.1214629963
0.119438571
0.11707069
0.1143969014
0.1114648385
0.1083261434
0.1050364496
0.1016497237
0.09821571994
0.09477982403
0.09138043567
0.08805117231
0.08481598367
0.08169246941
0.07869209077
0.07582091361
0.0730807564
0.07047020558
0.06798582007
0.06562251912
0.0633748983
0.06123640593
0.0592019208
0.05726391228
0.05542014304
0.05366368522
0.05201843576
0.0506293449
0.05644194167
0.106428467
0.09454792647
0.08470686851
0.06399505047
0.04881191364
0.08837577411
0.1028924264
0.07959924942
0.04939242682
0.04540448944
0.07944700571
0.1141200162
0.08454664524
0.04625956105
0.04398214353
0.07619329821
0.1153153394
0.09295939613
0.0558591059
0.04343941753
0.07289621848
0.1052677624
0.09995059053
0.06680027209
0.04333299509
0.06987304295
0.09732245016
0.1069632748
0.07846190932
0.0434344288
0.06780309908
0.0938007052
0.1126245724
0.08956190549
0.04369798711
0.06638540247
0.09120881632
0.1144744825
0.09792023448
0.04400642275
0.06504743363
0.08769447947
0.1090131883
0.1035279614
0.04435507486
0.06386727322
0.08457336569
0.1042854209
0.1079763453
0.04474741726
0.0629922521
0.0824343092
0.1017295756
0.111624619
0.04520728774
0.06240873806
0.08081106348
0.09959518669
0.1134727884
0.0457073192
0.06191035872
0.07910654865
0.09652188916
0.1107694137
0.04626594151
0.06151141844
0.07755743336
0.09371304958
0.1075970341
0.04691189365
0.06128096942
0.07639179175
0.09172410411
0.1055938833
0.04777336809
0.06137839184
0.07574324748
0.09050153589
0.1044327373
0.04897911202
0.06188629914
0.07558031557
0.08976729505
0.1035138142
0.05057921819
0.06278156271
0.07576935369
0.08922807252
0.1023479174
0.05255198075
0.06402796112
0.07625683247
0.08891599157
0.1012910652
0.05483900513
0.06556834368
0.07703025678
0.08891341455
0.1005957424
0.0573459079
0.067330639
0.0780521252
0.08921813802
0.1002784047
0.05999472696
0.06925246621
0.07926896543
0.08977486215
0.1002846841
0.0627414297
0.07130927361
0.0806674223
0.09056380585
0.1005511072
0.06560092895
0.07353068684
0.08227786808
0.0915945062
0.1010434826
0.06861862759
0.07596627309
0.0841457036
0.09290542054
0.1018050752
0.07186426344
0.07869342465
0.08634693378
0.09457859906
0.1029317972
0.07540011207
0.08176314766
0.08894171186
0.09667637912
0.1044788228
0.07924725667
0.0851943363
0.0919398154
0.09919379887
0.1064185832
0.08340778121
0.08898345879
0.09531670556
0.1020789399
0.1086641884
0.08786271005
0.09309563178
0.09901691852
0.1052396314
0.1110873114
0.09259185855
0.0974957576
0.1029719366
0.1085612704
0.1135488014
0.09762841184
0.1021664114
0.1071007738
0.1119087032
0.1159136164
0.1029984679
0.1070530974
0.1112670983
0.1151184109
0.1180585538
0.1086106933
0.1119585774
0.1152304508
0.1179970849
0.1198679024
0.1140346029
0.1164493281
0.1186535154
0.1203388714
0.1212244611
0.1185552879
0.1200158475
0.1212320096
0.1219775484
0.1220200679
0.1217350004
0.1224227523
0.1228602319
0.1228625684
0.1222178172
0.1236186794
0.1237489222
0.1236077956
0.123029766
0.1218338672
0.1244651459
0.1241872687
0.1235967317
0.1225520707
0.1209568894
0.1245029807
0.1238910656
0.1229280161
0.1215398051
0.1196869263
0.1238453442
0.1229541801
0.1217260919
0.1201176622
0.1180985263
0.1225889539
0.1215168483
0.1201200967
0.1183689414
0.1162441301
0.1208853401
0.1196946537
0.1181870355
0.1163450132
0.114159634
0.1188128738
0.117545242
0.1159694116
0.1140778277
0.1118696619
0.1164159919
0.1151057877
0.1134982383
0.1115931533
0.1093956491
0.1137315466
0.1124101861
0.1108033359
0.1089164347
0.1067584734
0.1108035569
0.1094968978
0.1079176981
0.1060747278
0.1039798501
0.1076803967
0.1064087676
0.1048782807
0.1030997725
0.1010866087
0.1044146514
0.1031927721
0.1017261341
0.1000265847
0.09810801577
0.10105751
0.09989517297
0.09850233435
0.09689120414
0.09507564135
0.09765665404
0.09655989445
0.09524689333
0.09372951101
0.09202113438
0.09425535664
0.09322660071
0.09199531102
0.09057335781
0.08897328849
0.09089099409
0.08993109803
0.08878256343
0.08745600015
0.08596317703
0.08759623047
0.08670381742
0.08563587838
0.08440213181
0.08301336325
0.08439430104
0.08356684163
0.08257631395
0.08143154746
0.080142334
0.08130235539
0.08053651722
0.0796193582
0.07855883753
0.07736378255
0.07833159255
0.07762356343
0.07677521145
0.0757936707
0.07468685884
0.07548795595
0.07483369989
0.07404935755
0.07314129958
0.07211660408
0.07277325549
0.07216872782
0.07144360303
0.07060355755
0.06965490658
0.07018613896
0.06962741438
0.06895686351
0.06817953947
0.06730107214
0.06772328101
0.06720666205
0.06658631322
0.06586673186
0.06505293617
0.0653797275
0.06490175632
0.06432752064
0.0636610255
0.06290674634
0.0631502251
0.06270774203
0.06217588186
0.06155821401
0.06085873266
0.06102834755
0.06061842306
0.06012546984
0.0595526741
0.05890360595
0.05900912586
0.05862914274
0.05817199734
0.05764053658
0.05703795445
0.0570851207
0.05673261256
0.05630835197
0.05581488966
0.05525509046
0.05525427268
0.05492715536
0.05453330682
0.0540750122
0.05355484017
0.05350966363
0.05320581767
0.05283987168
0.05241388351
0.05193016718
0.05187538978
0.05159315977
0.05125313278
0.05085715017
0.05040728317
0.05049534647
0.05023090491
0.04991219972
0.04954089956
0.04911888446
0.007328539167
0.0008852781327
0.0001332741428
2.70827921e-05
7.052336222e-06
2.016788609e-06
6.112877666e-07
2.142729249e-07
9.296536608e-08
4.870078985e-08
2.855729972e-08
1.766375328e-08
1.116344911e-08
7.096655277e-09
4.501301314e-09
2.83505779e-09
1.767860436e-09
1.089171264e-09
6.620391865e-10
3.965678194e-10
2.338907913e-10
1.357194649e-10
7.742791289e-11
4.339897455e-11
2.388582144e-11
1.2903483e-11
6.840238542e-12
3.557941637e-12
1.816046363e-12
9.09805598e-13
4.475328234e-13
2.1628283e-13
1.027957761e-13
4.812892157e-14
2.225801027e-14
1.020906699e-14
4.669093079e-15
2.141253684e-15
9.885147744e-16
4.594489911e-16
2.141103663e-16
9.937922388e-17
4.566821067e-17
2.073595879e-17
9.34583149e-18
4.234332877e-18
1.967585942e-18
9.594219155e-19
4.995575333e-19
2.791467316e-19
1.662537014e-19
1.042719519e-19
6.804574497e-20
4.563877977e-20
3.091472509e-20
2.050492555e-20
1.253401275e-20
6.262536437e-21
1.805928713e-21
1.766517171e-22
0.01220303703
0.001938564293
0.0003369535575
7.344302589e-05
2.119403748e-05
7.545670292e-06
3.215990669e-06
1.615352696e-06
8.934957667e-07
5.198790997e-07
3.076288152e-07
1.832606422e-07
1.092497674e-07
6.508688435e-08
3.871228133e-08
2.296816319e-08
1.358107293e-08
7.993034689e-09
4.676151692e-09
2.71493923e-09
1.561762732e-09
8.887873226e-10
4.997230895e-10
2.772259879e-10
1.515758263e-10
8.161121208e-11
4.324468134e-11
2.254167835e-11
1.155508831e-11
5.823676577e-12
2.885803685e-12
1.40657806e-12
6.749719885e-13
3.19443349e-13
1.495585008e-13
6.958922165e-14
3.23660167e-14
1.512748958e-14
7.122747423e-15
3.371179805e-15
1.59351594e-15
7.461366728e-16
3.438442833e-16
1.556799219e-16
6.961583636e-17
3.116725101e-17
1.427372933e-17
6.856755008e-18
3.524471757e-18
1.951396189e-18
1.155992956e-18
7.23267764e-19
4.716940706e-19
3.164375533e-19
2.14437681e-19
1.423295534e-19
8.735338716e-20
4.447779986e-20
1.429025685e-20
1.932270093e-21
0.01394493797
0.002432823236
0.0004527364185
0.0001266464034
5.020161623e-05
2.498484796e-05
1.387918297e-05
8.251359643e-06
5.000932308e-06
3.056105621e-06
1.850149642e-06
1.109999438e-06
6.568657843e-07
3.839669752e-07
2.216924202e-07
1.266794524e-07
7.178874138e-08
4.043175092e-08
2.267489159e-08
1.267217295e-08
7.055722321e-09
3.909487568e-09
2.152776905e-09
1.176210034e-09
6.366728837e-10
3.410099845e-10
1.805496321e-10
9.440692448e-11
4.871530589e-11
2.479165105e-11
1.243749337e-11
6.151496664e-12
3.001699682e-12
1.447666371e-12
6.924179412e-13
3.301619187e-13
1.578823406e-13
7.604076357e-14
3.688007618e-14
1.791021516e-14
8.627297176e-15
4.082020961e-15
1.88438385e-15
8.475319923e-16
3.735503876e-16
1.636790268e-16
7.296316351e-17
3.403412074e-17
1.702268629e-17
9.226873022e-18
5.391052153e-18
3.347606612e-18
2.175566775e-18
1.457445192e-18
9.870256513e-19
6.549570008e-19
4.031882329e-19
2.075809053e-19
7.019414459e-20
1.097854713e-20
0.02225215393
0.005156023028
0.0009091068705
0.0002660271496
0.000130286145
7.739819333e-05
4.846540681e-05
3.085732747e-05
1.965011663e-05
1.244894706e-05
7.788961687e-06
4.8079327e-06
2.917737468e-06
1.74112399e-06
1.01993815e-06
5.870855758e-07
3.321185953e-07
1.850756725e-07
1.018151214e-07
5.546816948e-08
3.000421232e-08
1.614726706e-08
8.654129337e-09
4.620429482e-09
2.456646139e-09
1.299679791e-09
6.834318857e-10
3.567826564e-10
1.846982903e-10
9.472504423e-11
4.809877818e-11
2.417580337e-11
1.203443691e-11
5.942902879e-12
2.921602839e-12
1.437316154e-12
7.112952378e-13
3.547997816e-13
1.777248642e-13
8.858776879e-14
4.343219913e-14
2.072573114e-14
9.563723356e-15
4.262343942e-15
1.845233097e-15
7.869674007e-16
3.384531657e-16
1.513299502e-16
7.248230792e-17
3.785265953e-17
2.153432567e-17
1.315614338e-17
8.475507751e-18
5.65301277e-18
3.819476331e-18
2.531643224e-18
1.562625824e-18
8.132965144e-19
2.866859276e-19
5.17740471e-20
0.03268089783
0.01032629764
0.002182774778
0.0005763143286
0.0002955006989
0.0001904913211
0.0001280176637
8.605650582e-05
5.753116149e-05
3.815705559e-05
2.502462204e-05
1.619859687e-05
1.0320008e-05
6.464314396e-06
3.971449821e-06
2.392252063e-06
1.410480777e-06
8.144426749e-07
4.60342092e-07
2.55174078e-07
1.388982826e-07
7.448168987e-08
3.944692449e-08
2.070075925e-08
1.079126982e-08
5.600022033e-09
2.896018066e-09
1.492818582e-09
7.66677824e-10
3.919974228e-10
1.993847031e-10
1.008452651e-10
5.073929832e-11
2.544224615e-11
1.276267906e-11
6.437599687e-12
3.277357728e-12
1.681980708e-12
8.637225743e-13
4.385291309e-13
2.173484986e-13
1.040875149e-13
4.787447813e-14
2.112654173e-14
8.989476465e-15
3.734356641e-15
1.546876544e-15
6.581874422e-16
2.975418325e-16
1.467850684e-16
7.970550107e-17
4.715073852e-17
2.978338865e-17
1.96440866e-17
1.319184955e-17
8.721217438e-18
5.395826666e-18
2.843908783e-18
1.046217328e-18
2.239710177e-19
0.04537626759
0.01939337851
0.005675869236
0.001366881868
0.000604606713
0.0003844872489
0.0002664208606
0.0001866057115
0.0001305620617
9.091879455e-05
6.282861348e-05
4.297560534e-05
2.902792675e-05
1.932690446e-05
1.265475903e-05
8.135833975e-06
5.125455046e-06
3.160179077e-06
1.903202192e-06
1.119266746e-06
6.4221533e-07
3.599541833e-07
1.971469676e-07
1.057453021e-07
5.565159208e-08
2.88386119e-08
1.476135198e-08
7.489230657e-09
3.776691379e-09
1.897170496e-09
9.506628095e-10
4.75590263e-10
2.377665432e-10
1.190603282e-10
5.997426251e-11
3.05464849e-11
1.576588755e-11
8.21034247e-12
4.268519078e-12
2.184418569e-12
1.085315185e-12
5.182555503e-13
2.365610474e-13
1.031488148e-13
4.317346277e-14
1.754151756e-14
7.045017009e-15
2.869276732e-15
1.223786153e-15
5.646144982e-16
2.876381284e-16
1.618051002e-16
9.87816376e-17
6.381388102e-17
4.237204257e-17
2.790243706e-17
1.733323719e-17
9.304700301e-18
3.608966837e-18
9.344161024e-19
0.05840721156
0.03064060205
0.01217580628
0.003527980691
0.001184291401
0.0006595579966
0.0004494722572
0.0003214006642
0.0002324731224
0.0001683459679
0.0001215149594
8.720541319e-05
6.209632682e-05
4.379519144e-05
3.054019512e-05
2.101678333e-05
1.42396734e-05
9.476467803e-06
6.178245878e-06
3.938583832e-06
2.45010518e-06
1.485580881e-06
8.765944461e-07
5.031260438e-07
2.807591747e-07
1.52532842e-07
8.077357385e-08
4.179147697e-08
2.118629789e-08
1.056702085e-08
5.20902741e-09
2.549974402e-09
1.245525194e-09
6.100790673e-10
3.015782237e-10
1.515645067e-10
7.76723646e-11
4.032916682e-11
2.093764048e-11
1.069492217e-11
5.293013431e-12
2.511304162e-12
1.135529642e-12
4.886965239e-13
2.011422266e-13
8.008757521e-14
3.136668918e-14
1.234379246e-14
5.012752245e-15
2.167045107e-15
1.026164832e-15
5.39790055e-16
3.131698143e-16
1.956990179e-16
1.275660846e-16
8.349512841e-17
5.220956899e-17
2.876392972e-17
1.194619986e-17
3.757105213e-18
0.06900899617
0.04170443005
0.02121930781
0.007967567815
0.002539427414
0.001110651039
0.0006828297245
0.0004798678129
0.0003507733834
0.0002595454656
0.0001925370722
0.0001425757656
0.0001051441778
7.710180736e-05
5.61500145e-05
4.056247557e-05
2.902720607e-05
2.054755758e-05
1.435878241e-05
9.880352589e-06
6.674918799e-06
4.41314741e-06
2.845790007e-06
1.784951782e-06
1.086768739e-06
6.415139677e-07
3.66743225e-07
2.029689802e-07
1.087735466e-07
5.655238255e-08
2.859849911e-08
1.412660127e-08
6.857743985e-09
3.298493581e-09
1.586827801e-09
7.721732083e-10
3.837789854e-10
1.943897373e-10
9.90330616e-11
4.991124473e-11
2.448199527e-11
1.153413194e-11
5.177509667e-12
2.207084799e-12
8.962836495e-13
3.507372465e-13
1.344953513e-13
5.14878393e-14
2.009510968e-14
8.200983044e-15
3.602964875e-15
1.747629082e-15
9.442755306e-16
5.605467921e-16
3.543525967e-16
2.289890607e-16
1.43750749e-16
8.119638929e-17
3.605487856e-17
1.336325269e-17
0.07809245518
0.05101479352
0.029890734
0.0145190842
0.005254835589
0.001935089215
0.001013450895
0.0006694068622
0.0004839800333
0.0003609277885
0.0002721339429
0.0002058158428
0.000155555721
0.0001172515771
8.802549916e-05
6.575227509e-05
4.882036764e-05
3.599351052e-05
2.631783026e-05
1.905533205e-05
1.363645925e-05
9.62347124e-06
6.680777416e-06
4.547326544e-06
3.023333196e-06
1.956277535e-06
1.226960609e-06
7.435729632e-07
4.345800263e-07
2.447624047e-07
1.328111705e-07
6.949006059e-08
3.516259586e-08
1.73076721e-08
8.355125025e-09
3.995036293e-09
1.915852258e-09
9.304956328e-10
4.557292566e-10
2.222687873e-10
1.06594192e-10
4.968802938e-11
2.223698651e-11
9.463487545e-12
3.818207147e-12
1.476534034e-12
5.571110296e-13
2.086143825e-13
7.886849884e-14
3.071121479e-14
1.262964809e-14
5.64321955e-15
2.802052193e-15
1.550662609e-15
9.356652349e-16
5.910749012e-16
3.707013705e-16
2.142448265e-16
1.014392377e-16
4.298082046e-17
0.08672711114
0.06025517407
0.03817991407
0.02158671282
0.009805406839
0.003562618476
0.001552990913
0.0009247777308
0.0006446790316
0.0004776514022
0.0003623686545
0.0002775866141
0.0002133859734
0.000164083998
0.0001259755686
9.644483455e-05
7.355556754e-05
5.583492984e-05
4.214466022e-05
3.159842131e-05
2.349829359e-05
1.731120922e-05
1.260813833e-05
9.05719968e-06
6.399921265e-06
4.434904952e-06
3.004396934e-06
1.982446056e-06
1.268859474e-06
7.844928305e-07
4.666867502e-07
2.664255254e-07
1.459018335e-07
7.679600945e-08
3.901460996e-08
1.923999632e-08
9.267219417e-09
4.398074761e-09
2.071390761e-09
9.687641301e-10
4.467316703e-10
2.018979564e-10
8.905831793e-11
3.802401022e-11
1.548909952e-11
5.996709397e-12
2.242501875e-12
8.259429605e-13
3.044153611e-13
1.140784799e-13
4.437269237e-14
1.839772922e-14
8.36688362e-15
4.252628317e-15
2.40409638e-15
1.463445533e-15
9.093102007e-16
5.355485649e-16
2.690689717e-16
1.265924908e-16
0.09440533618
0.06915659618
0.04656659674
0.02897597589
0.01563733485
0.006610696333
0.002594583739
0.001323018276
0.0008589786601
0.0006217552159
0.0004697691475
0.0003616403681
0.0002808488827
0.0002189331644
0.0001708296583
0.0001331864931
0.0001036278091
8.037657853e-05
6.212306194e-05
4.779941186e-05
3.656751296e-05
2.7776076e-05
2.09146562e-05
1.558241041e-05
1.14633825e-05
8.307482965e-06
5.915695312e-06
4.128040168e-06
2.814224863e-06
1.868108503e-06
1.203315951e-06
7.492300543e-07
4.490937503e-07
2.583227122e-07
1.424445271e-07
7.539781977e-08
3.838813681e-08
1.882443463e-08
8.913807291e-09
4.09782741e-09
1.839678456e-09
8.068306104e-10
3.453634927e-10
1.4447159e-10
5.898294582e-11
2.326152056e-11
8.798247395e-12
3.219763483e-12
1.162292039e-12
4.217310102e-13
1.566551291e-13
6.090981334e-14
2.549439789e-14
1.181518598e-14
6.148901532e-15
3.539621514e-15
2.150740595e-15
1.281321413e-15
6.781841515e-16
3.45219763e-16
0.1004141722
0.07708494629
0.05447978023
0.03596546141
0.02197718193
0.01151114558
0.004852733195
0.002105722114
0.001187474035
0.0008092716768
0.0005992421693
0.0004592899998
0.0003578464011
0.0002810923347
0.0002215798243
0.0001749857761
0.0001382477298
0.0001091006605
8.590628456e-05
6.742689494e-05
5.268845242e-05
4.093567648e-05
3.157847344e-05
2.415006452e-05
1.827827745e-05
1.366484487e-05
1.006948626e-05
7.297048131e-06
5.187411348e-06
3.60800533e-06
2.448393618e-06
1.616296101e-06
1.034696156e-06
6.402694002e-07
3.818544424e-07
2.189849003e-07
1.20503513e-07
6.347287723e-08
3.192313214e-08
1.529815785e-08
6.999992586e-09
3.077255836e-09
1.306789221e-09
5.382166871e-10
2.160441663e-10
8.489155367e-11
3.256135798e-11
1.211695515e-11
4.374948081e-12
1.553864943e-12
5.552981784e-13
2.045144603e-13
7.958427393e-14
3.368927664e-14
1.594777927e-14
8.507781481e-15
4.965914927e-15
2.95989153e-15
1.635462883e-15
8.809073776e-16
0.1046460923
0.08390308548
0.06177457959
0.04271555768
0.02785512241
0.01677663181
0.008696980456
0.00381265155
0.001812195134
0.001081065067
0.0007526633568
0.0005624598386
0.0004336231813
0.0003405349421
0.0002689775625
0.000214653812
0.0001717167202
0.0001374136348
0.0001098243001
8.755591257e-05
6.955031435e-05
5.498613898e-05
4.321406744e-05
3.371550838e-05
2.607408909e-05
1.995381738e-05
1.508229809e-05
1.123693492e-05
8.234166593e-06
5.92101873e-06
4.168389591e-06
2.86609771e-06
1.919828775e-06
1.249567678e-06
7.882943629e-07
4.807755315e-07
2.827183443e-07
1.597747617e-07
8.641874581e-08
4.455825802e-08
2.181535366e-08
1.012453858e-08
4.460979122e-09
1.871912007e-09
7.547756815e-10
2.950449195e-10
1.124860246e-10
4.206475816e-11
1.542132777e-11
5.524041351e-12
1.946846082e-12
6.888005342e-13
2.516770421e-13
9.802666232e-14
4.210999509e-14
2.05071965e-14
1.128416838e-14
6.642726603e-15
3.793833431e-15
2.123943491e-15
0.1078936091
0.0900963595
0.06888594646
0.04955037734
0.03392848388
0.02202907729
0.01324490553
0.006958554631
0.003203577153
0.001587385996
0.0009475231532
0.0006514487332
0.0004841652004
0.0003751185957
0.0002948541256
0.0002361490357
0.0001901460445
0.000153531352
0.0001240399012
0.0001001051965
8.05965758e-05
6.466325381e-05
5.16441783e-05
4.101217429e-05
3.234096624e-05
2.528326517e-05
1.955732689e-05
1.493652927e-05
1.123821773e-05
8.311991293e-06
6.029595281e-06
4.280381766e-06
2.967827211e-06
2.006052904e-06
1.319382653e-06
8.426654655e-07
5.214066063e-07
3.11692227e-07
1.793920519e-07
9.898541081e-08
5.211471653e-08
2.604188467e-08
1.230400822e-08
5.488113959e-09
2.316423758e-09
9.312061311e-10
3.594241954e-10
1.344315911e-10
4.921348313e-11
1.773189878e-11
6.296923845e-12
2.211371957e-12
7.796642168e-13
2.843119276e-13
1.117482405e-13
4.950102416e-14
2.532208262e-14
1.451523303e-14
8.481097998e-15
4.879598459e-15
0.1105868713
0.09561373603
0.07576381775
0.05647301061
0.04020327405
0.02750931638
0.01795343856
0.01094896136
0.00592898672
0.002789593688
0.001332574517
0.000748017643
0.0004933219053
0.0003622035275
0.0002794915901
0.0002216330744
0.0001784023525
0.0001447969175
0.0001180113246
9.632054752e-05
7.858089286e-05
6.398492571e-05
5.193424369e-05
4.196885549e-05
3.372466292e-05
2.690936749e-05
2.128539158e-05
1.665765897e-05
1.286644407e-05
9.784552568e-06
7.309925084e-06
5.352429356e-06
3.831294604e-06
2.676240807e-06
1.82200514e-06
1.207127625e-06
7.771968744e-07
4.855358241e-07
2.935854707e-07
1.71229847e-07
9.592269339e-08
5.136130429e-08
2.614589124e-08
1.259096638e-08
5.712461115e-09
2.439312375e-09
9.843367099e-10
3.785449496e-10
1.402526173e-10
5.062019283e-11
1.796830271e-11
6.30855155e-12
2.203770429e-12
7.801784586e-13
2.897808151e-13
1.186804996e-13
5.623550131e-14
3.09410394e-14
1.826906946e-14
1.075684106e-14
0.1127354789
0.1003535791
0.08197966559
0.06321648203
0.04652204428
0.03309315739
0.02278299154
0.01506530073
0.009394218234
0.005223728387
0.002423057298
0.001034501101
0.0005170035446
0.0003215692205
0.0002299698332
0.0001765044106
0.0001403640639
0.000113800213
9.326734574e-05
7.688711666e-05
6.355215074e-05
5.255231228e-05
4.340008291e-05
3.574207257e-05
2.931114863e-05
2.389917682e-05
1.934132441e-05
1.550590688e-05
1.228665502e-05
9.599072433e-06
7.376711237e-06
5.563780704e-06
4.109947471e-06
2.966746466e-06
2.088617995e-06
1.432269258e-06
9.555610144e-07
6.196102313e-07
3.899272694e-07
2.377132498e-07
1.400235832e-07
7.936492563e-08
4.306477996e-08
2.225199631e-08
1.089060844e-08
5.024276603e-09
2.178246437e-09
8.874886947e-10
3.416412392e-10
1.257174637e-10
4.486864442e-11
1.574820637e-11
5.496011695e-12
1.931453341e-12
7.000929572e-13
2.734599457e-13
1.219807678e-13
6.417103568e-14
3.788746928e-14
2.28554065e-14
0.1138623142
0.1041779172
0.0874012502
0.06937174047
0.0526946844
0.03867394159
0.02766604066
0.01924751429
0.01290488883
0.008152465297
0.004536251155
0.001982527086
0.0007234143481
0.0003186384099
0.0001875702927
0.000131173649
9.977598103e-05
7.928084855e-05
6.453743696e-05
5.326623829e-05
4.430895666e-05
3.700950709e-05
3.095995973e-05
2.588740616e-05
2.159868772e-05
1.795068022e-05
1.48342858e-05
1.216529224e-05
9.878717103e-06
7.924760045e-06
6.264511549e-06
4.867023104e-06
3.707109519e-06
2.761950215e-06
2.008838043e-06
1.424878411e-06
9.849760938e-07
6.625856777e-07
4.330056881e-07
2.744861961e-07
1.684653478e-07
9.990980858e-08
5.708773186e-08
3.126622755e-08
1.632066396e-08
8.075544288e-09