/*--------------------------------*- C++ -*----------------------------------*\
  =========                 |
  \\      /  F ield         | OpenFOAM: The Open Source CFD Toolbox
   \\    /   O peration     | Website:  https://openfoam.org
    \\  /    A nd           | Version:  10
     \\/     M anipulation  |
\*---------------------------------------------------------------------------*/
FoamFile
{
    format      ascii;
    class       volScalarField;
    location    "3000";
    object      H2O2;
}
// * * * * * * * * * * * * * * * * * * * * * * * * * * * * * * * * * * * * * //

dimensions      [0 0 0 0 0 0 0];

internalField   nonuniform List<scalar> 
5170
(
5.291314352e-54
5.369430694e-54
5.776630733e-54
7.799635315e-54
1.88576613e-53
1.456405102e-53
1.491530513e-53
1.665475973e-53
2.481814066e-53
4.994255573e-53
2.798903049e-53
2.909230048e-53
3.394779269e-53
5.358404573e-53
9.081802063e-53
5.031320705e-53
5.207446322e-53
6.147638522e-53
9.947677365e-53
1.524997802e-52
1.597135529e-51
1.290074039e-51
9.064298512e-52
1.43982372e-51
6.909558499e-51
5.586856183e-49
4.53791419e-49
3.325194754e-49
7.198739696e-49
4.262746425e-48
2.084882561e-46
1.743805751e-46
1.459055287e-46
4.105716306e-46
2.612478802e-45
7.932551072e-44
6.908829419e-44
6.888169412e-44
2.369235535e-43
1.562621106e-42
3.085330746e-41
2.854339377e-41
3.416106583e-41
1.379577828e-40
9.175358921e-40
1.229150803e-38
1.229169521e-38
1.760084736e-38
8.122795683e-38
5.312695045e-37
5.007235073e-36
5.500601774e-36
9.370198559e-36
4.830636088e-35
3.044943491e-34
2.078276098e-33
2.551777249e-33
5.163195297e-33
2.900818297e-32
1.733509637e-31
8.761383247e-31
1.22057418e-30
2.957601867e-30
1.772912823e-29
9.832677822e-29
3.725891291e-28
5.973670577e-28
1.747164744e-27
1.105617212e-26
5.573629777e-26
1.592677605e-25
2.969487127e-25
1.050650665e-24
7.011722875e-24
3.164058542e-23
6.740273654e-23
1.477035947e-22
6.306225316e-22
4.376520223e-21
1.800400546e-20
2.810841038e-20
7.334100807e-20
3.682083077e-19
2.658348929e-18
1.027513024e-17
1.128994962e-17
3.564201423e-17
2.087786815e-16
1.538376483e-15
5.858632116e-15
4.179343815e-15
1.656481516e-14
1.115129106e-13
8.289416768e-13
3.334905905e-12
1.326219326e-12
7.433807924e-12
5.78759056e-11
4.082152877e-10
1.909709578e-09
8.888595758e-08
5.955288835e-08
5.128184982e-08
6.559208149e-08
9.078433571e-08
9.958332865e-08
8.163437244e-08
7.510271385e-08
8.675389332e-08
9.97983338e-08
9.465085903e-08
8.763613001e-08
8.401537373e-08
8.9817009e-08
9.331597704e-08
8.809116862e-08
8.666586981e-08
8.513387136e-08
8.757812294e-08
8.600758917e-08
8.22908078e-08
8.370213442e-08
8.329694979e-08
8.382556086e-08
7.980181135e-08
7.755249461e-08
8.024005689e-08
8.045845947e-08
7.98018124e-08
7.482051292e-08
7.374184594e-08
7.686990054e-08
7.736671165e-08
7.594726545e-08
7.087061831e-08
7.064635581e-08
7.377491506e-08
7.433178114e-08
7.237167845e-08
6.770327814e-08
6.810745139e-08
7.100076194e-08
7.147754567e-08
6.921155357e-08
6.518989646e-08
6.60043277e-08
6.856049996e-08
6.889165528e-08
6.657244974e-08
6.322599969e-08
6.424925062e-08
6.644390604e-08
6.662644303e-08
6.443663572e-08
6.169109544e-08
6.277306609e-08
6.462845405e-08
6.469038554e-08
6.272305339e-08
6.046927214e-08
6.152022062e-08
6.308125241e-08
6.305737437e-08
6.133772839e-08
5.946816719e-08
6.044354268e-08
6.176123839e-08
6.168307304e-08
6.019653095e-08
5.86186799e-08
5.950439183e-08
6.062861687e-08
6.051873035e-08
5.923222624e-08
5.787101451e-08
5.866959028e-08
5.964399764e-08
5.951946045e-08
5.839306046e-08
5.718644499e-08
5.791526823e-08
5.877234689e-08
5.863891584e-08
5.763697117e-08
5.653734771e-08
5.723811677e-08
5.798368572e-08
5.783394931e-08
5.692613857e-08
5.590253478e-08
5.716319357e-08
5.737098988e-08
5.708852717e-08
5.622715099e-08
5.525289532e-08
1.132274666e-07
6.624787148e-08
5.839313132e-08
5.622838616e-08
5.593970956e-08
5.45525752e-11
4.245288054e-10
6.522547873e-09
9.599932716e-08
1.099522765e-06
3.035469519e-10
2.064847828e-09
2.528949017e-08
2.595823296e-07
1.570096586e-06
9.989216665e-10
6.015833884e-09
6.015845476e-08
4.499923538e-07
1.69653917e-06
2.593695976e-09
1.399259965e-08
1.150956213e-07
6.332726753e-07
1.669936803e-06
5.747968961e-09
2.784478125e-08
1.875179644e-07
7.78561543e-07
1.605233763e-06
1.146436394e-08
4.959308813e-08
2.736824531e-07
8.854203687e-07
1.546117859e-06
2.169496178e-08
8.40032516e-08
3.757608349e-07
9.639708478e-07
1.512332892e-06
3.941521667e-08
1.364399171e-07
4.861727698e-07
1.026466787e-06
1.504458132e-06
6.862504106e-08
2.08930373e-07
5.94235074e-07
1.079400997e-06
1.506174958e-06
1.137789711e-07
2.989909543e-07
6.938830358e-07
1.127065768e-06
1.510920666e-06
1.815258449e-07
4.003921626e-07
7.819212345e-07
1.171754302e-06
1.520708872e-06
2.704043914e-07
5.036609397e-07
8.603388964e-07
1.214209934e-06
1.533283094e-06
3.772174172e-07
6.061148303e-07
9.317970738e-07
1.252107524e-06
1.541477288e-06
5.000786096e-07
7.086377563e-07
9.989305779e-07
1.285533157e-06
1.544970082e-06
6.379656006e-07
8.140484218e-07
1.065457464e-06
1.318333315e-06
1.549794576e-06
7.870906286e-07
9.262452179e-07
1.137173715e-06
1.357447064e-06
1.564185092e-06
9.435959567e-07
1.048749185e-06
1.220824333e-06
1.410192661e-06
1.593940754e-06
1.102526361e-06
1.181008871e-06
1.319113777e-06
1.479204814e-06
1.638578495e-06
1.261302897e-06
1.320044731e-06
1.429127946e-06
1.560511674e-06
1.692422567e-06
1.416310096e-06
1.460493515e-06
1.545233454e-06
1.649475261e-06
1.753037605e-06
1.564397847e-06
1.597508084e-06
1.662030894e-06
1.741573433e-06
1.817226453e-06
1.703299207e-06
1.727672681e-06
1.775116541e-06
1.831613906e-06
1.878372394e-06
1.832639613e-06
1.84945601e-06
1.880976891e-06
1.914103635e-06
1.929310806e-06
1.950096305e-06
1.959102113e-06
1.973389828e-06
1.979561627e-06
1.958400747e-06
2.045206624e-06
2.044400612e-06
2.036556197e-06
2.009476106e-06
1.943545838e-06
2.093478364e-06
2.080426354e-06
2.045745159e-06
1.97660685e-06
1.861890948e-06
2.04442562e-06
2.017932628e-06
1.955176899e-06
1.848871652e-06
1.696507809e-06
1.844347521e-06
1.808359959e-06
1.727628198e-06
1.601230759e-06
1.442008108e-06
1.512681529e-06
1.480073461e-06
1.411820491e-06
1.306334929e-06
1.172523336e-06
1.165579982e-06
1.14085339e-06
1.086939512e-06
1.012667187e-06
9.274755798e-07
9.054862848e-07
8.900595172e-07
8.577039749e-07
8.137017595e-07
7.628381929e-07
7.402265052e-07
7.308561742e-07
7.115076889e-07
6.846516345e-07
6.525913772e-07
6.327979157e-07
6.266191382e-07
6.134979353e-07
5.944339638e-07
5.70183161e-07
5.479144959e-07
5.424537861e-07
5.30442624e-07
5.124025266e-07
4.883903792e-07
4.470320848e-07
4.41326683e-07
4.287933526e-07
4.100414173e-07
3.855093048e-07
3.225901996e-07
3.176047963e-07
3.068670885e-07
2.911378925e-07
2.712005068e-07
2.075961279e-07
2.042354873e-07
1.970627274e-07
1.867366882e-07
1.739621655e-07
1.244349969e-07
1.226089773e-07
1.187569125e-07
1.133392614e-07
1.068939262e-07
7.359881003e-08
7.292762364e-08
7.157902095e-08
6.987557866e-08
6.825248611e-08
4.842501465e-08
4.867493345e-08
4.934645364e-08
5.070453244e-08
5.317668414e-08
4.618808396e-08
4.739368581e-08
5.014872326e-08
5.45977984e-08
6.097858235e-08
6.796468307e-08
6.962946186e-08
7.328583594e-08
7.8822073e-08
8.617817793e-08
9.814360319e-08
9.968995421e-08
1.030607289e-07
1.081021994e-07
1.147024287e-07
1.263209028e-07
1.276186294e-07
1.304437649e-07
1.346601773e-07
1.401671602e-07
1.494617606e-07
1.505165943e-07
1.528138944e-07
1.562579173e-07
1.607683727e-07
1.673674562e-07
1.682269807e-07
1.70102017e-07
1.729110474e-07
1.765999521e-07
1.805501185e-07
1.812558153e-07
1.827984348e-07
1.851177504e-07
1.881801666e-07
1.897275919e-07
1.903219105e-07
1.916243516e-07
1.935913327e-07
1.962049808e-07
1.956808713e-07
1.962001929e-07
1.973412802e-07
1.99072531e-07
2.013876794e-07
1.99183024e-07
1.996565321e-07
2.00699321e-07
2.022876141e-07
2.044230811e-07
2.008851604e-07
2.013354739e-07
2.023272268e-07
2.038483154e-07
2.058911935e-07
2.014134073e-07
2.018696673e-07
2.028785605e-07
2.04426319e-07
2.065275541e-07
2.016680641e-07
2.02125457e-07
2.031364164e-07
2.04685766e-07
2.067858932e-07
2.022756121e-07
2.027506142e-07
2.038010795e-07
2.054125736e-07
2.076001115e-07
2.035829838e-07
2.04082236e-07
2.051863548e-07
2.068801619e-07
2.091793131e-07
2.058350352e-07
2.063614185e-07
2.075253261e-07
2.093102425e-07
2.117318356e-07
2.092310386e-07
2.097859912e-07
2.110127651e-07
2.128932378e-07
2.154428109e-07
2.139393439e-07
2.145236371e-07
2.158149219e-07
2.177933164e-07
2.204737952e-07
2.201031182e-07
2.207171201e-07
2.22073689e-07
2.241510884e-07
2.269637551e-07
2.278400572e-07
2.284838443e-07
2.299058376e-07
2.32082385e-07
2.350273056e-07
2.372389664e-07
2.379123493e-07
2.393993313e-07
2.416743215e-07
2.447504786e-07
2.483644259e-07
2.490671626e-07
2.506185993e-07
2.529912197e-07
2.561975297e-07
2.612592286e-07
2.619911909e-07
2.63606811e-07
2.660766887e-07
2.694127341e-07
2.75986247e-07
2.767478746e-07
2.784286717e-07
2.809973736e-07
2.844653543e-07
2.926017475e-07
2.933936145e-07
2.951408437e-07
2.978102636e-07
3.014126862e-07
3.112339068e-07
3.120566465e-07
3.138716699e-07
3.166437541e-07
3.203829553e-07
3.318164601e-07
3.326684367e-07
3.34547548e-07
3.374163884e-07
3.412839251e-07
3.542684878e-07
3.551472728e-07
3.570850271e-07
3.600419809e-07
3.640255096e-07
3.775955286e-07
3.784938678e-07
3.804741365e-07
3.834942992e-07
3.87559733e-07
3.980988805e-07
3.99009734e-07
4.010170322e-07
4.040766838e-07
4.08191801e-07
1.469195911e-06
1.867260022e-06
1.972889906e-06
1.928672343e-06
1.838896671e-06
1.772574973e-06
1.751968049e-06
1.746189107e-06
1.732297609e-06
1.717059041e-06
1.711441918e-06
1.709785204e-06
1.70072522e-06
1.686866894e-06
1.677633952e-06
1.681054368e-06
1.699755778e-06
1.72985715e-06
1.764506402e-06
1.804558782e-06
1.847203827e-06
1.884831061e-06
1.910033316e-06
1.908685483e-06
1.861196968e-06
1.749800305e-06
1.568801581e-06
1.32368554e-06
1.080915482e-06
8.707600099e-07
7.281841438e-07
6.293176946e-07
5.50948336e-07
4.685967844e-07
3.659589726e-07
2.559448938e-07
1.645063977e-07
1.024172739e-07
6.762206882e-08
5.592374488e-08
6.65756663e-08
9.216525484e-08
1.199932237e-07
1.445727945e-07
1.643870487e-07
1.795743215e-07
1.906669996e-07
1.983446589e-07
2.032982035e-07
2.061971734e-07
2.076286675e-07
2.082550769e-07
2.085474297e-07
2.09438608e-07
2.111112969e-07
2.137653133e-07
2.175819363e-07
2.227207376e-07
2.293194009e-07
2.374915823e-07
2.473224767e-07
2.588763683e-07
2.72198163e-07
2.873592933e-07
3.044171611e-07
3.234995745e-07
3.445051309e-07
3.673402275e-07
3.909390314e-07
4.116085266e-07
1.751682111e-06
3.295672413e-07
1.673645902e-07
1.49413117e-07
4.548071286e-07
2.195618331e-06
8.482782309e-07
3.071888328e-07
3.631331033e-07
1.124614233e-06
2.264458653e-06
1.053443961e-06
2.864775653e-07
5.908254844e-07
2.899725354e-06
2.196696859e-06
1.239293814e-06
3.871559755e-07
5.532568254e-07
1.90788017e-06
2.090999415e-06
1.484451309e-06
7.900170131e-07
5.133137624e-07
1.488837073e-06
2.053461146e-06
1.83349375e-06
9.303517501e-07
4.439860239e-07
1.020581706e-06
2.08528265e-06
2.133629621e-06
9.572198732e-07
3.666373006e-07
6.897549237e-07
2.089814838e-06
2.170268262e-06
9.031584748e-07
3.279622181e-07
5.56507116e-07
2.048616837e-06
2.092516895e-06
9.493039391e-07
6.276149152e-07
5.004077444e-07
2.002074517e-06
2.043561231e-06
1.056297606e-06
7.665570907e-07
4.542609605e-07
1.975279931e-06
2.038962513e-06
1.168116363e-06
7.957946288e-07
4.006193076e-07
1.953339309e-06
2.01863603e-06
1.240696492e-06
7.744203432e-07
3.491099783e-07
1.918118859e-06
1.965472099e-06
1.296757528e-06
7.9315308e-07
5.034687421e-07
1.879032694e-06
1.917542622e-06
1.359606194e-06
8.42517972e-07
6.369150825e-07
1.851148399e-06
1.894401986e-06
1.422038415e-06
8.871680045e-07
6.852056202e-07
1.840716947e-06
1.886929888e-06
1.463012588e-06
9.157427684e-07
6.918179888e-07
1.843984823e-06
1.874974473e-06
1.463454475e-06
9.20294203e-07
6.773953385e-07
1.851656556e-06
1.845326917e-06
1.426122301e-06
9.093437896e-07
6.677460089e-07
1.855641687e-06
1.801796651e-06
1.372978066e-06
8.97058248e-07
6.722674427e-07
1.863316876e-06
1.755680572e-06
1.318629726e-06
8.859006187e-07
6.78403286e-07
1.872577299e-06
1.708825431e-06
1.265949671e-06
8.737299121e-07
6.798894691e-07
1.873522198e-06
1.654092785e-06
1.21145784e-06
8.574273138e-07
6.746508664e-07
1.858589502e-06
1.583067687e-06
1.150389561e-06
8.342156949e-07
6.624889772e-07
1.81244937e-06
1.487034244e-06
1.079515796e-06
8.029027602e-07
6.440199116e-07
1.718804208e-06
1.362933557e-06
9.993360031e-07
7.641260354e-07
6.202059248e-07
1.569702988e-06
1.218874681e-06
9.140144637e-07
7.199329702e-07
5.914544079e-07
1.374503896e-06
1.064770679e-06
8.269215842e-07
6.71859167e-07
5.572184348e-07
1.151604757e-06
9.163419555e-07
7.425302302e-07
6.211607541e-07
5.167900471e-07
9.524059506e-07
7.8990987e-07
6.663865986e-07
5.690576976e-07
4.70162894e-07
7.891117355e-07
6.866782008e-07
5.983064364e-07
5.143877896e-07
4.17785994e-07
6.786268228e-07
6.065730439e-07
5.354151896e-07
4.552188112e-07
3.611816182e-07
5.95170748e-07
5.375496446e-07
4.70432964e-07
3.898163325e-07
3.027701195e-07
5.217743776e-07
4.656167314e-07
3.966922033e-07
3.191942513e-07
2.457047169e-07
4.383362103e-07
3.801575343e-07
3.140363141e-07
2.482190525e-07
1.940106565e-07
3.36583134e-07
2.846115261e-07
2.315118406e-07
1.846988047e-07
1.525293639e-07
2.334157215e-07
1.963697431e-07
1.61963214e-07
1.359626489e-07
1.25020749e-07
1.507586723e-07
1.298366885e-07
1.132137523e-07
1.057115996e-07
1.132099049e-07
9.612105578e-08
8.85348826e-08
8.659165688e-08
9.474886504e-08
1.162225392e-07
6.711173896e-08
7.034957547e-08
8.09016735e-08
1.01117241e-07
1.2868028e-07
6.053749775e-08
7.346432058e-08
9.305200035e-08
1.178553125e-07
1.459028995e-07
7.521579065e-08
9.300649661e-08
1.145031988e-07
1.386547678e-07
1.643709125e-07
1.01185404e-07
1.183474969e-07
1.379876144e-07
1.593496254e-07
1.817678935e-07
1.279224667e-07
1.427426267e-07
1.595085601e-07
1.776823574e-07
1.968493591e-07
1.51170697e-07
1.635020788e-07
1.775024995e-07
1.928119293e-07
2.091929384e-07
1.698118666e-07
1.80011031e-07
1.917088551e-07
2.046930438e-07
2.188618404e-07
1.840420952e-07
1.925448995e-07
2.024478316e-07
2.136510981e-07
2.261568715e-07
1.944125758e-07
2.016475861e-07
2.102253896e-07
2.201361847e-07
2.31456404e-07
2.015773474e-07
2.079203262e-07
2.155804132e-07
2.246148299e-07
2.351560892e-07
2.061934047e-07
2.119589467e-07
2.190387826e-07
2.275362011e-07
2.376193925e-07
2.088923217e-07
2.143246114e-07
2.210859884e-07
2.293312224e-07
2.392557287e-07
2.102633929e-07
2.155921738e-07
2.222940811e-07
2.305225927e-07
2.404984881e-07
2.108765572e-07
2.161897363e-07
2.228519533e-07
2.311751184e-07
2.413750182e-07
2.112330939e-07
2.167442352e-07
2.237362293e-07
2.324139814e-07
2.430296547e-07
2.122430702e-07
2.18009663e-07
2.253303429e-07
2.344059613e-07
2.454889223e-07
2.14057896e-07
2.201132483e-07
2.277909187e-07
2.372912221e-07
2.488640528e-07
2.168656697e-07
2.232283938e-07
2.312804589e-07
2.412202492e-07
2.532936163e-07
2.20842109e-07
2.275220166e-07
2.359575094e-07
2.463439018e-07
2.58921984e-07
2.261438733e-07
2.331458683e-07
2.419689315e-07
2.528045257e-07
2.658876905e-07
2.329067493e-07
2.402323543e-07
2.494435553e-07
2.607274212e-07
2.74312822e-07
2.412429608e-07
2.488911547e-07
2.584883983e-07
2.702171091e-07
2.842999484e-07
2.512364858e-07
2.592041358e-07
2.691833246e-07
2.81351946e-07
2.95926901e-07
2.629516821e-07
2.712363588e-07
2.815950071e-07
2.942015577e-07
3.092680226e-07
2.764344931e-07
2.850361326e-07
2.957751609e-07
3.088222125e-07
3.243851264e-07
2.917595783e-07
3.006846639e-07
3.118126457e-07
3.253109145e-07
3.413826407e-07
3.08984502e-07
3.182384991e-07
3.297609364e-07
3.437144603e-07
3.60294806e-07
3.282360937e-07
3.37821327e-07
3.497370427e-07
3.641375802e-07
3.812057972e-07
3.493992111e-07
3.592880786e-07
3.715569303e-07
3.863467448e-07
4.03820418e-07
3.72374212e-07
3.825271104e-07
3.950917905e-07
4.101892509e-07
4.279537406e-07
3.960692335e-07
4.063921632e-07
4.191299251e-07
4.343780143e-07
4.522355636e-07
4.167932045e-07
4.272010231e-07
4.400040181e-07
4.552704475e-07
4.730636742e-07
3.227285087e-06
5.900208158e-07
9.035541592e-08
1.792941527e-08
4.518360768e-09
1.221006002e-09
3.324569706e-10
9.820228953e-11
3.543166951e-11
1.663699706e-11
9.628945346e-12
6.26369056e-12
4.316937096e-12
3.071058982e-12
2.233854102e-12
1.656473955e-12
1.251561079e-12
9.633534629e-13
7.5516923e-13
6.023709924e-13
4.88324925e-13
4.016538797e-13
3.344732658e-13
2.812548826e-13
2.381344923e-13
2.024279728e-13
1.723006305e-13
1.465354117e-13
1.243454506e-13
1.052188707e-13
8.879720168e-14
7.478642221e-14
6.290511765e-14
5.286645079e-14
4.438078623e-14
3.71714922e-14
3.099713459e-14
2.567039616e-14
2.106426325e-14
1.710208316e-14
1.373627758e-14
1.092626469e-14
8.623992899e-15
6.769873024e-15
5.296555374e-15
4.135981565e-15
3.22588426e-15
2.513253236e-15
1.955138995e-15
1.517571338e-15
1.173899912e-15
9.032353229e-16
6.890474388e-16
5.180809691e-16
3.795866226e-16
2.648943764e-16
1.674382202e-16
8.593926392e-17
2.551034802e-17
2.564904885e-18
2.912542483e-06
9.010452447e-07
1.860912889e-07
4.124185924e-08
1.102672622e-08
3.385795066e-09
1.213653592e-09
5.369705867e-10
2.836525735e-10
1.674232452e-10
1.040808099e-10
6.661480905e-11
4.348249081e-11
2.894124697e-11
1.967638866e-11
1.369618989e-11
9.778511793e-12
7.165988644e-12
5.389865492e-12
4.156136635e-12
3.279770199e-12
2.642456468e-12
2.167254701e-12
1.803045463e-12
1.515868607e-12
1.28309548e-12
1.089783072e-12
9.262414838e-13
7.86339735e-13
6.661694717e-13
5.631290616e-13
4.75220856e-13
4.00611705e-13
3.37490448e-13
2.840542868e-13
2.385764913e-13
1.99535589e-13
1.657451263e-13
1.364082775e-13
1.110629167e-13
8.944236803e-14
7.132544296e-14
5.643599488e-14
4.441295531e-14
3.483599657e-14
2.727456736e-14
2.133098664e-14
1.666569941e-14
1.300234086e-14
1.012161201e-14
7.851811373e-15
6.05839589e-15
4.634412928e-15
3.493630694e-15
2.566010102e-15
1.795843411e-15
1.14306358e-15
6.006349383e-16
2.002517919e-16
2.824339416e-17
2.807255296e-06
8.616811736e-07
2.03553741e-07
5.666459993e-08
2.007594687e-08
8.849300005e-09
4.554370853e-09
2.641740963e-09
1.621850757e-09
1.027284092e-09
6.548488318e-10
4.195868965e-10
2.69325874e-10
1.739948314e-10
1.13576386e-10
7.536020254e-11
5.110068657e-11
3.556795099e-11
2.549085839e-11
1.883092311e-11
1.433112087e-11
1.121084946e-11
8.984601605e-12
7.344764827e-12
6.095585583e-12
5.111898393e-12
4.314042979e-12
3.651709624e-12
3.093563533e-12
2.619735746e-12
2.216922694e-12
1.875251999e-12
1.586269853e-12
1.342112612e-12
1.135299076e-12
9.588318793e-13
8.066202991e-13
6.739809017e-13
5.578843638e-13
4.567178722e-13
3.696974851e-13
2.962204676e-13
2.354266148e-13
1.860509476e-13
1.465249781e-13
1.151827738e-13
9.045204031e-14
7.096832908e-14
5.561104986e-14
4.348655034e-14
3.389195808e-14
2.627336582e-14
2.019001741e-14
1.528611081e-14
1.127248267e-14
7.922635438e-15
5.083857997e-15
2.719384024e-15
9.633297781e-16
1.591650549e-16
4.609928149e-06
1.471317729e-06
3.113687581e-07
9.557834566e-08
4.490406253e-08
2.574872461e-08
1.59361037e-08
1.023523846e-08
6.67427684e-09
4.378467594e-09
2.864861155e-09
1.868606017e-09
1.213022653e-09
7.862447286e-10
5.100190744e-10
3.329550024e-10
2.198684285e-10
1.478573497e-10
1.018330184e-10
7.218814228e-11
5.281131744e-11
3.987844049e-11
3.100842743e-11
2.472497485e-11
2.011201265e-11
1.659929057e-11
1.383450594e-11
1.159944223e-11
9.758826444e-12
8.226903646e-12
6.946275284e-12
5.874935164e-12
4.978985587e-12
4.228742884e-12
3.597199627e-12
3.059561052e-12
2.594516775e-12
2.186066365e-12
1.824493294e-12
1.505445606e-12
1.227644726e-12
9.904482765e-13
7.922743994e-13
6.299626795e-13
4.990780257e-13
3.946051445e-13
3.116558311e-13
2.459127441e-13
1.937932218e-13
1.52420574e-13
1.195066003e-13
9.321935884e-14
7.208449993e-14
5.491034003e-14
4.073063846e-14
2.880528275e-14
1.867038827e-14
1.018082593e-14
3.797920042e-15
7.316927358e-16
7.578748212e-06
2.989554917e-06
6.75474097e-07
1.873529627e-07
9.719908896e-08
6.302475272e-08
4.286358474e-08
2.937471846e-08
2.015402009e-08
1.38021117e-08
9.404270972e-09
6.368313391e-09
4.279919784e-09
2.857760493e-09
1.896652008e-09
1.255369237e-09
8.310845985e-10
5.53557736e-10
3.730249448e-10
2.562694807e-10
1.805749037e-10
1.311667189e-10
9.832770242e-11
7.592351784e-11
6.009576146e-11
4.848256131e-11
3.964761575e-11
3.272355153e-11
2.717997382e-11
2.268127067e-11
1.900344205e-11
1.5986253e-11
1.350736827e-11
1.146670923e-11
9.776847732e-12
8.358040558e-12
7.140211942e-12
6.069615033e-12
5.113516415e-12
4.258244673e-12
3.50218584e-12
2.84746366e-12
2.293851958e-12
1.836161763e-12
1.464419125e-12
1.16584478e-12
9.272680969e-13
7.368363097e-13
5.847296209e-13
4.630653531e-13
3.655599129e-13
2.871323018e-13
2.23616567e-13
1.715843242e-13
1.282413587e-13
9.147657892e-14
6.002918362e-14
3.347074135e-14
1.315806691e-14
3.014013938e-15
4.442647945e-06
4.277331495e-06
1.518727669e-06
4.047261106e-07
1.908677369e-07
1.256534542e-07
8.947845958e-08
6.440129188e-08
4.638160462e-08
3.33292648e-08
2.38431634e-08
1.695179257e-08
1.196188448e-08
8.373727151e-09
5.811989906e-09
4.0023251e-09
2.737030186e-09
1.863707895e-09
1.26749796e-09
8.660978134e-10
5.983682362e-10
4.21401144e-10
3.042860642e-10
2.26182603e-10
1.729329476e-10
1.355129844e-10
1.08194012e-10
8.753430155e-11
7.146385418e-11
5.873740247e-11
4.855784662e-11
4.037654929e-11
3.378862934e-11
2.84793498e-11
2.418832374e-11
2.067980478e-11
1.773777159e-11
1.518718306e-11
1.291364237e-11
1.086151005e-11
9.018482127e-12
7.393711934e-12
5.99737664e-12
4.828712124e-12
3.872509894e-12
3.101606735e-12
2.483860555e-12
1.988818285e-12
1.591046922e-12
1.270414552e-12
1.011135397e-12
8.006190434e-13
6.285489513e-13
4.863253034e-13
3.668698596e-13
2.647538656e-13
1.766466714e-13
1.013730211e-13
4.236581264e-14
1.16897203e-14
2.079099848e-06
6.560458042e-06
3.203040684e-06
1.007510605e-06
3.635778397e-07
2.133380635e-07
1.510145299e-07
1.116603987e-07
8.341668432e-08
6.240178118e-08
4.658191583e-08
3.463762657e-08
2.562533605e-08
1.884567083e-08
1.376857454e-08
9.987353367e-09
7.188487418e-09
5.133511615e-09
3.638746785e-09
2.565405827e-09
1.80467227e-09
1.273511176e-09
9.06942324e-10
6.564193734e-10
4.853664598e-10
3.677741973e-10
2.851791807e-10
2.254395743e-10
1.80742619e-10
1.463298173e-10
1.19283379e-10
9.779412023e-11
8.066160117e-11
6.702060054e-11
5.61968964e-11
4.760834545e-11
4.068166806e-11
3.489140024e-11
2.985487232e-11
2.53438948e-11
2.126087034e-11
1.760099499e-11
1.439095281e-11
1.165242468e-11
9.38222404e-12
7.541629772e-12
6.065848035e-12
4.884511114e-12
3.935291665e-12
3.168133722e-12
2.544193074e-12
2.033325195e-12
1.611571739e-12
1.25941145e-12
9.610038881e-13
7.040423012e-13
4.802292893e-13
2.860545352e-13
1.288565409e-13
4.285155587e-14
1.480178486e-06
5.760928779e-06
4.784295752e-06
2.09884697e-06
7.330450366e-07
3.480401648e-07
2.270918972e-07
1.668575051e-07
1.267654707e-07
9.724053451e-08
7.471879247e-08
5.732274152e-08
4.384139957e-08
3.340193896e-08
2.533947859e-08
1.913473883e-08
1.437818996e-08
1.074855671e-08
7.990973918e-09
5.906348167e-09
4.340604329e-09
3.174710866e-09
2.315676842e-09
1.691147535e-09
1.243134609e-09
9.251510846e-10
7.000820036e-10
5.398270616e-10
4.237795013e-10
3.377332341e-10
2.72131461e-10
2.20918534e-10
1.803056098e-10
1.479158225e-10
1.221402967e-10
1.018018062e-10
8.58271049e-11
7.304068401e-11
6.24067692e-11
5.321639213e-11
4.504937038e-11
3.770548676e-11
3.114838549e-11
2.541889317e-11
2.056473386e-11
1.657436854e-11
1.33571941e-11
1.078272327e-11
8.721423507e-12
7.06171912e-12
5.713848473e-12
4.607950604e-12
3.689730301e-12
2.916648898e-12
2.255496475e-12
1.680914159e-12
1.174753015e-12
7.273856956e-13
3.529461815e-13
1.377050445e-13
1.020750904e-06
3.119126136e-06
5.875725876e-06
3.577264112e-06
1.451008892e-06
5.836184392e-07
3.310035883e-07
2.319759439e-07
1.75770029e-07
1.365922683e-07
1.070149331e-07
8.398649287e-08
6.584551447e-08
5.150472108e-08
4.017045337e-08
3.122912067e-08
2.419362057e-08
1.867408708e-08
1.43577675e-08
1.099370707e-08
8.381638618e-09
6.362884455e-09
4.81218641e-09
3.628543859e-09
2.732057679e-09
2.059736676e-09
1.56010801e-09
1.192032057e-09
9.22118486e-10
7.236407365e-10
5.757691239e-10
4.633601179e-10
3.759493577e-10
3.067257927e-10
2.513232504e-10
2.069456502e-10
1.717148773e-10
1.439200828e-10
1.216322786e-10
1.032057733e-10
8.752068942e-11
7.386450375e-11
6.177355481e-11
5.103036425e-11
4.163667551e-11
3.371166897e-11
2.722739018e-11
2.200285019e-11
1.781798098e-11
1.446373963e-11
1.17583861e-11
9.551305525e-12
7.722465481e-12
6.17880983e-12
4.85029888e-12
3.684435228e-12
2.643329665e-12
1.703698563e-12
8.895398696e-13
3.969538729e-13
7.7393311e-07
2.119224471e-06
6.337978754e-06
4.92680501e-06
2.568059512e-06
1.022632641e-06
4.899131522e-07
3.156447088e-07
2.335773987e-07
1.81768601e-07
1.440263051e-07
1.148576864e-07
9.174344964e-08
7.323382044e-08
5.835591614e-08
4.639138437e-08
3.678059642e-08
2.907551632e-08
2.29127349e-08
1.79964687e-08
1.408339935e-08
1.098234988e-08
8.532607484e-09
6.605861686e-09
5.098754609e-09
3.928049805e-09
3.026254595e-09
2.337194111e-09
1.814326162e-09
1.419611602e-09
1.121922326e-09
8.963875206e-10
7.236146846e-10
5.890707934e-10
4.824131695e-10
3.966675888e-10
3.272608323e-10
2.712944607e-10
2.263404006e-10
1.89973919e-10
1.599799577e-10
1.347968831e-10
1.133525656e-10
9.478532812e-11
7.844429877e-11
6.416409625e-11
5.208875287e-11
4.218031868e-11
3.418274416e-11
2.77666796e-11
2.261662694e-11
1.845167572e-11
1.503211903e-11
1.216265515e-11
9.693765698e-12
7.514181743e-12
5.541154859e-12
3.720721208e-12
2.085750085e-12
1.039554509e-12
6.10934202e-07
1.462461634e-06
4.191421882e-06
5.605412043e-06
3.704699707e-06
1.763001527e-06
7.693798205e-07
4.35528702e-07
3.061966393e-07
2.355805572e-07
1.873269978e-07
1.508891644e-07
1.221491575e-07
9.901633665e-08
8.022167175e-08
6.48944553e-08
5.238568804e-08
4.217925121e-08
3.387941616e-08
2.713942351e-08
2.167265473e-08
1.724688785e-08
1.367282143e-08
1.079633944e-08
8.491691981e-09
6.65592036e-09
5.204252882e-09
4.066045945e-09
3.181341679e-09
2.499302561e-09
1.976967431e-09
1.577873028e-09
1.271881877e-09
1.035173296e-09
8.495987627e-10
7.017528066e-10
5.819784966e-10
4.836585541e-10
4.025499458e-10
3.357447128e-10
2.808039867e-10
2.352864599e-10
1.972451259e-10
1.65241164e-10
1.380384224e-10
1.145113841e-10
9.408984675e-11
7.670036099e-11
6.230562013e-11
5.064049191e-11
4.127736785e-11
3.375097856e-11
2.763370377e-11
2.255849517e-11
1.822805497e-11
1.440997533e-11
1.092468432e-11
7.641535631e-12
4.583306388e-12
2.499056238e-12
5.044864964e-07
1.055921856e-06
2.671737612e-06
6.062226596e-06
4.797431951e-06
2.852316923e-06
1.330259096e-06
6.485065052e-07
4.071618357e-07
3.006042497e-07
2.369111614e-07
1.913879666e-07
1.562067824e-07
1.280045099e-07
1.049687705e-07
8.606193786e-08
7.04988282e-08
5.765212754e-08
4.704379976e-08
3.829104192e-08
3.107224649e-08
2.512544638e-08
2.02367672e-08
1.622986617e-08
1.295857245e-08
1.030137275e-08
8.156854061e-09
6.439632859e-09
5.076934854e-09
4.006034223e-09
3.172490131e-09
2.528963436e-09
2.034403589e-09
1.654094046e-09
1.3595949e-09
1.128481607e-09
9.436145924e-10
7.924733745e-10
6.664968382e-10
5.601263744e-10
4.700630733e-10
3.940837764e-10
3.301026675e-10
2.762302704e-10
2.308900657e-10
1.926363215e-10
1.600722377e-10
1.321649168e-10
1.083520695e-10
8.843453834e-11
7.216476592e-11
5.906624792e-11
4.850535506e-11
3.985264444e-11
3.25649168e-11
2.62014268e-11
2.03997086e-11
1.485353994e-11
9.494786351e-12
5.566374239e-12
4.638244967e-07
8.411502936e-07
1.985206484e-06
5.125715608e-06
5.371664114e-06
3.787602955e-06
2.177638798e-06
1.062712575e-06
5.744289088e-07
3.830550352e-07
2.897532073e-07
2.310918831e-07
1.881987532e-07
1.549886827e-07
1.27837504e-07
1.060734177e-07
8.802004556e-08
7.295614683e-08
6.035064294e-08
4.979599098e-08
4.096259846e-08
3.357939666e-08
2.742002513e-08
2.229443182e-08
1.804309854e-08
1.453203535e-08
1.164853859e-08
9.297106064e-09
7.395993063e-09
5.874321285e-09
4.669674591e-09
3.726357871e-09
2.994550639e-09
2.430336887e-09
1.995854572e-09
1.659278439e-09
1.394853591e-09
1.182531266e-09
1.007463745e-09
8.595343132e-10
7.321232156e-10
6.213971299e-10
5.251915416e-10
4.419167961e-10
3.705340518e-10
3.098436987e-10
2.584522278e-10
2.15057691e-10
1.783286863e-10
1.471680127e-10
1.209694848e-10
9.934022094e-11
8.175596162e-11
6.745425938e-11
5.559253976e-11
4.540403327e-11
3.622615183e-11
2.74290464e-11
1.862014117e-11
1.158097345e-11
4.374806559e-07
6.849544684e-07
1.432878262e-06
3.384362981e-06
5.678665977e-06
4.572190738e-06
3.0537873e-06
1.752960317e-06
9.011112934e-07
5.101296409e-07
3.429695176e-07
2.583253823e-07
2.05978821e-07
1.689242023e-07
1.395633428e-07
1.16666126e-07
9.769834184e-08
8.183968378e-08
6.848942682e-08
5.721056749e-08
4.767052619e-08
3.960446233e-08
3.279438069e-08
2.705594688e-08
2.223157588e-08
1.81860989e-08
1.480499105e-08
1.199297962e-08
9.67107526e-09
7.772124339e-09
6.236254941e-09
5.009309383e-09
4.041803903e-09
3.287473671e-09
2.703688139e-09
2.252476751e-09
1.901290041e-09
1.623498088e-09
1.398281827e-09
1.210202485e-09
1.048541857e-09
9.062441058e-10
7.793187675e-10
6.657384162e-10
5.647153722e-10
4.760363421e-10
3.992532892e-10
3.336068671e-10
2.781584954e-10
2.315453552e-10
1.923651058e-10
1.594772998e-10
1.321383225e-10
1.096287065e-10
9.102371771e-11
7.527555836e-11
6.134130285e-11
4.814099514e-11
3.458659236e-11
2.264963851e-11
4.059522863e-07
5.761079663e-07
1.087823845e-06
2.422941557e-06
5.3604127e-06
5.15592832e-06
3.820383789e-06
2.523063233e-06
1.476640093e-06
7.699728426e-07
4.209634251e-07
2.706429419e-07
1.98914207e-07
1.581783557e-07
1.300336449e-07
1.087105263e-07
9.163514147e-08
7.753825351e-08
6.569259989e-08
5.563801787e-08
4.70578564e-08
3.971789929e-08
3.343506962e-08
2.806042907e-08
2.346890099e-08
1.955435905e-08
1.622589811e-08
1.340498381e-08
1.102441605e-08
9.029339637e-09
7.374874187e-09
6.018950453e-09
4.921402099e-09
4.04574231e-09
3.35620128e-09