/*--------------------------------*- C++ -*----------------------------------*\
  =========                 |
  \\      /  F ield         | OpenFOAM: The Open Source CFD Toolbox
   \\    /   O peration     | Website:  https://openfoam.org
    \\  /    A nd           | Version:  10
     \\/     M anipulation  |
\*---------------------------------------------------------------------------*/
FoamFile
{
    format      ascii;
    class       volScalarField;
    location    "3000";
    object      HCCOH;
}
// * * * * * * * * * * * * * * * * * * * * * * * * * * * * * * * * * * * * * //

dimensions      [0 0 0 0 0 0 0];

internalField   nonuniform List<scalar> 
5170
(
4.210850414e-65
3.390101084e-65
2.093568594e-65
1.02935982e-65
8.195347012e-66
1.438116558e-62
1.146159516e-62
6.969373631e-63
4.01237662e-63
7.095589185e-63
4.938727688e-60
3.909938734e-60
2.371431084e-60
1.856944549e-60
5.581936391e-60
1.719455412e-57
1.361203674e-57
8.538830419e-58
9.524844136e-58
4.002907155e-57
6.064953879e-55
4.848078728e-55
3.268310463e-55
5.144344159e-55
2.660860027e-54
2.176845681e-52
1.778977598e-52
1.318868734e-52
2.843313142e-52
1.661041245e-51
7.947431389e-50
6.695902196e-50
5.679529597e-50
1.58972589e-49
9.965361093e-49
2.951306378e-47
2.591015318e-47
2.620112215e-47
8.961771279e-47
5.825179983e-46
1.120090503e-44
1.044663724e-44
1.267394978e-44
5.092959233e-44
3.34510749e-43
4.362902702e-42
4.397264219e-42
6.374611928e-42
2.932324764e-41
1.901454028e-40
1.745721853e-39
1.932317654e-39
3.32746211e-39
1.714713446e-38
1.077585205e-37
7.166973557e-37
8.87004375e-37
1.812924195e-36
1.02215762e-35
6.127125181e-35
3.015157825e-34
4.239863654e-34
1.038571842e-33
6.277464584e-33
3.510111382e-32
1.291701074e-31
2.095087091e-31
6.209170683e-31
3.979989199e-30
2.028807408e-29
5.609311971e-29
1.060627793e-28
3.812573581e-28
2.58423908e-27
1.179749621e-26
2.42485427e-26
5.397269036e-26
2.342916148e-25
1.649978497e-24
6.856089912e-24
1.03449131e-23
2.738255975e-23
1.393609616e-22
1.015499708e-21
3.950565709e-21
4.236354462e-21
1.349516347e-20
7.951145505e-20
5.855604783e-19
2.230842557e-18
1.586375196e-18
6.280783383e-18
4.197611917e-17
3.075948119e-16
1.226824393e-15
5.040412259e-16
2.781021699e-15
2.111423539e-14
1.44064135e-13
6.606560761e-13
1.496410965e-26
1.160377415e-26
3.236681728e-27
8.071133788e-27
8.460848929e-27
1.018238042e-26
1.26940616e-26
5.613554307e-27
1.331641955e-26
1.086547421e-26
1.012515106e-26
8.048719818e-27
5.466977064e-27
7.890116686e-27
6.572159852e-27
5.721308663e-27
5.262915741e-27
4.641911722e-27
5.831512375e-27
4.784463262e-27
3.944433316e-27
4.194011612e-27
3.769858216e-27
3.351836676e-27
3.057443389e-27
2.970042429e-27
3.251865739e-27
2.899820216e-27
2.246075006e-27
2.057293945e-27
2.399530081e-27
2.707900068e-27
2.348152303e-27
1.7574357e-27
1.404842975e-27
1.4534835e-27
1.933274871e-27
1.899443691e-27
2.028088024e-27
1.138393527e-27
1.064288342e-27
1.441342274e-27
1.512096987e-27
2.498154811e-27
1.575651399e-27
7.380037405e-28
1.071733315e-27
1.175131119e-27
1.937308741e-27
1.131715835e-27
1.573694926e-27
1.231476534e-27
1.363565414e-27
2.000932053e-27
1.134916568e-27
1.634278925e-25
6.385666595e-26
3.335865099e-26
2.0185859e-26
1.112418782e-26
2.639120169e-23
1.168316272e-23
6.108877376e-24
3.29342689e-24
1.6000759e-24
4.278728135e-21
2.17287312e-21
1.105998937e-21
5.466528293e-22
2.351507067e-22
6.961695861e-19
3.869394732e-19
1.887015755e-19
8.513053183e-20
3.258147854e-20
1.137212489e-16
6.464367441e-17
2.994645607e-17
1.225717977e-17
4.176563893e-18
1.873431179e-14
9.712315599e-15
4.327149807e-15
1.602253968e-15
4.825168013e-16
2.735693107e-12
1.227731984e-12
5.437738236e-13
1.806570554e-13
4.825152195e-14
2.116481037e-10
1.006197246e-10
5.238690488e-11
1.575719893e-11
3.795456785e-12
5.119899291e-10
1.848112626e-09
1.869240851e-09
7.410503904e-10
1.872349373e-10
2.176243147e-14
1.57244883e-13
2.223564514e-12
3.019382011e-11
3.517353341e-10
8.977800874e-13
6.764026702e-12
9.364562825e-11
1.175198926e-09
1.174057966e-08
5.538856002e-12
3.773005768e-11
4.370010012e-10
4.190706398e-09
2.722090252e-08
2.288684603e-11
1.441593756e-10
1.444478174e-09
1.122404106e-08
5.676797406e-08
7.805174611e-11
4.588180111e-10
4.012387161e-09
2.606561956e-08
1.111952096e-07
2.387429167e-10
1.289704707e-09
9.673133888e-09
5.153706097e-08
1.787199196e-07
6.828895064e-10
3.368886738e-09
2.099633969e-08
8.746330148e-08
2.405990069e-07
1.775431518e-09
7.916395572e-09
3.94740388e-08
1.285617372e-07
2.921098728e-07
4.168816759e-09
1.643432579e-08
6.507431451e-08
1.732088778e-07
3.487242133e-07
8.915043153e-09
3.042175307e-08
9.739170424e-08
2.224453864e-07
4.127282646e-07
1.799590913e-08
5.096438185e-08
1.346322195e-07
2.734493659e-07
4.723404749e-07
3.294952747e-08
7.731646948e-08
1.744017426e-07
3.218516914e-07
5.192781922e-07
5.547637573e-08
1.095942863e-07
2.165022379e-07
3.686278088e-07
5.626509036e-07
8.812519401e-08
1.491249564e-07
2.627774569e-07
4.181651278e-07
6.120262359e-07
1.345787895e-07
1.984908153e-07
3.159062439e-07
4.735199238e-07
6.68145183e-07
1.980140885e-07
2.609289996e-07
3.783364067e-07
5.353119056e-07
7.27104222e-07
2.800842273e-07
3.38914276e-07
4.518008191e-07
6.031839527e-07
7.858550444e-07
3.784222919e-07
4.315258073e-07
5.363025877e-07
6.779698315e-07
8.477826949e-07
4.898197047e-07
5.368294618e-07
6.319063032e-07
7.626185318e-07
9.210891457e-07
6.107069155e-07
6.52498702e-07
7.389258493e-07
8.606522161e-07
1.012007022e-06
7.396131969e-07
7.774884401e-07
8.574017515e-07
9.727770144e-07
1.119992605e-06
8.755570376e-07
9.106496232e-07
9.857186249e-07
1.095982645e-06
1.23903683e-06
1.017430885e-06
1.050104075e-06
1.120550433e-06
1.224994076e-06
1.361430243e-06
1.16293514e-06
1.193117573e-06
1.258474919e-06
1.355734129e-06
1.483066641e-06
1.310139714e-06
1.337858929e-06
1.398007013e-06
1.487688755e-06
1.605451246e-06
1.458991198e-06
1.484453309e-06
1.539838059e-06
1.622962281e-06
1.732917806e-06
1.610820482e-06
1.634551081e-06
1.686469827e-06
1.765101226e-06
1.870699496e-06
1.767872885e-06
1.790791012e-06
1.841317433e-06
1.919020135e-06
2.0254149e-06
1.932536007e-06
1.955725792e-06
2.007278331e-06
2.08811478e-06
2.201885669e-06
2.110103287e-06
2.135506454e-06
2.192896612e-06
2.284133106e-06
2.415079651e-06
2.317992728e-06
2.348988289e-06
2.419226063e-06
2.532708396e-06
2.699013374e-06
2.603747243e-06
2.646201409e-06
2.743293953e-06
2.900456543e-06
3.129026031e-06
3.08621758e-06
3.149222595e-06
3.292082568e-06
3.526100794e-06
3.856717188e-06
4.070025606e-06
4.164140377e-06
4.377156005e-06
4.705752668e-06
5.155174717e-06
5.970048619e-06
6.08663039e-06
6.339418235e-06
6.713276214e-06
7.18982165e-06
8.586036575e-06
8.676356542e-06
8.864950067e-06
9.123158123e-06
9.413475813e-06
1.071702122e-05
1.073801438e-05
1.077238221e-05
1.079203539e-05
1.075679909e-05
1.13550335e-05
1.129806296e-05
1.116274803e-05
1.092969359e-05
1.056703813e-05
1.018974263e-05
1.006755164e-05
9.792575484e-06
9.358407335e-06
8.749751364e-06
7.339887771e-06
7.183989932e-06
6.842495108e-06
6.329435389e-06
5.661300271e-06
3.673513441e-06
3.563180622e-06
3.332958585e-06
3.016627612e-06
2.652959744e-06
1.504854664e-06
1.468406159e-06
1.392148104e-06
1.2859952e-06
1.160043467e-06
6.296456125e-07
6.17152832e-07
5.907360718e-07
5.532772964e-07
5.076902897e-07
2.68092709e-07
2.635724425e-07
2.539492596e-07
2.401381046e-07
2.230526286e-07
1.155868396e-07
1.138878524e-07
1.102546657e-07
1.049977622e-07
9.84213774e-08
5.030082954e-08
4.96446434e-08
4.823702936e-08
4.618852111e-08
4.360501831e-08
2.205013371e-08
2.179164274e-08
2.123583936e-08
2.042342288e-08
1.939247767e-08
9.72670527e-09
9.623332633e-09
9.400653544e-09
9.074040151e-09
8.657537245e-09
4.316511322e-09
4.27468265e-09
4.184443022e-09
4.051711182e-09
3.881769143e-09
1.928159447e-09
1.911075204e-09
1.874173237e-09
1.819770424e-09
1.749889227e-09
8.681971445e-10
8.611810682e-10
8.460128653e-10
8.236136973e-10
7.947742359e-10
3.953656735e-10
3.92500798e-10
3.863060802e-10
3.771552345e-10
3.653695335e-10
1.836851071e-10
1.82567889e-10
1.801571532e-10
1.766095682e-10
1.720676611e-10
8.971041917e-11
8.937928593e-11
8.86762326e-11
8.767265231e-11
8.644861156e-11
5.247910679e-11
5.2654641e-11
5.306923783e-11
5.377747865e-11
5.487848403e-11
5.194234933e-11
5.220513054e-11
5.278262572e-11
5.365838059e-11
5.482642883e-11
5.287668032e-11
5.307667259e-11
5.351469131e-11
5.417556665e-11
5.505249099e-11
5.177676785e-11
5.19294031e-11
5.226615706e-11
5.278096612e-11
5.347690107e-11
4.971413498e-11
4.987930113e-11
5.024522484e-11
5.08085578e-11
5.157706781e-11
4.979059976e-11
4.999902157e-11
5.046010128e-11
5.116799477e-11
5.212989122e-11
5.333024686e-11
5.357894831e-11
5.412785475e-11
5.496705742e-11
5.610061639e-11
5.999965888e-11
6.02782888e-11
6.089225042e-11
6.18282026e-11
6.308735143e-11
6.928690465e-11
6.958319976e-11
7.023527272e-11
7.12271537e-11
7.255748798e-11
8.057874476e-11
8.08804464e-11
8.154377888e-11
8.255111797e-11
8.38990895e-11
9.322950312e-11
9.352593253e-11
9.417717922e-11
9.516492543e-11
9.648441244e-11
1.066638354e-10
1.069467999e-10
1.075680965e-10
1.085095262e-10
1.097655352e-10
1.203483444e-10
1.206121302e-10
1.211910301e-10
1.220675826e-10
1.2323593e-10
1.338997785e-10
1.341411994e-10
1.346708103e-10
1.354722875e-10
1.365398121e-10
1.467984813e-10
1.4701624e-10
1.474937645e-10
1.482161042e-10
1.491777343e-10
1.577015507e-10
1.578984116e-10
1.583300253e-10
1.589827462e-10
1.598514196e-10
1.14488666e-09
4.569096199e-08
7.211556859e-08
1.435158272e-07
2.614084204e-07
3.596091105e-07
4.12519534e-07
4.474520459e-07
5.106148472e-07
5.857995306e-07
6.44059706e-07
6.782838165e-07
7.145158115e-07
7.642528524e-07
8.20941195e-07
8.753857126e-07
9.236748201e-07
9.743731411e-07
1.040899915e-06
1.129820743e-06
1.237494405e-06
1.354615527e-06
1.471895009e-06
1.586203895e-06
1.701179322e-06
1.823344193e-06
1.959382871e-06
2.117077472e-06
2.302973673e-06
2.534194208e-06
2.852556287e-06
3.338969799e-06
4.150793064e-06
5.53138248e-06
7.549148501e-06
9.589826443e-06
1.066227134e-05
1.021666562e-05
8.224910325e-06
5.142075716e-06
2.406942903e-06
1.070526286e-06
4.742931639e-07
2.10287407e-07
9.343996045e-08
4.162818267e-08
1.85974362e-08
8.334330041e-09
3.749217758e-09
1.695157083e-09
7.7212106e-10
3.561111308e-10
1.685311228e-10
8.556393742e-11
5.593745732e-11
5.578348423e-11
5.576905557e-11
5.405927494e-11
5.222694247e-11
5.293903915e-11
5.704689928e-11
6.413314083e-11
7.365815775e-11
8.501112896e-11
9.757061181e-11
1.107978339e-10
1.241950701e-10
1.374154318e-10
1.499660417e-10
1.605632605e-10
2.425810508e-09
2.945718636e-09
1.45355163e-09
4.378606648e-09
8.804332205e-10
1.346200165e-07
6.600185404e-07
5.432866711e-08
4.746139173e-09
3.113358894e-09
1.629276353e-07
3.622722984e-07
5.621174913e-08
5.840960684e-09
2.10383445e-09
3.456038668e-07
1.317019561e-06
5.953572851e-06
4.245308719e-07
3.495166735e-08
5.952653858e-07
1.897613188e-06
5.397754039e-06
4.580719378e-07
3.476399752e-08
7.179283621e-07
1.656145035e-06
2.922832427e-06
3.283893477e-07
3.015281503e-08
7.177021118e-07
1.25812015e-06
1.641675466e-06
2.430546099e-07
2.982397584e-08
7.082408784e-07
1.122251044e-06
1.570580643e-06
2.760425638e-06
3.543589809e-07
7.869935762e-07
1.364438314e-06
2.452603367e-06
5.761587351e-06
8.71216686e-07
8.792573583e-07
1.49463745e-06
2.463367926e-06
4.445166425e-06
8.298349771e-07
9.262138953e-07
1.449200736e-06
2.095331294e-06
3.081463112e-06
6.681404434e-07
9.308867782e-07
1.339206351e-06
1.748584243e-06
2.244947228e-06
1.474695529e-06
9.547076989e-07
1.364147382e-06
1.895928165e-06
2.893474786e-06
5.370492621e-06
1.006263524e-06
1.446965841e-06
2.055788681e-06
3.103309868e-06
5.359860223e-06
1.063207014e-06
1.502575016e-06
2.071372958e-06
2.916139893e-06
4.435363282e-06
1.10816094e-06
1.509813303e-06
1.980844183e-06
2.591918109e-06
3.532680665e-06
1.137084688e-06
1.483582946e-06
1.85570178e-06
2.294885403e-06
2.917532698e-06
1.168992751e-06
1.483572074e-06
1.837241549e-06
2.314541406e-06
3.172499123e-06
1.225772176e-06
1.542185187e-06
1.936719436e-06
2.527204497e-06
3.633995248e-06
1.312806228e-06
1.646269374e-06
2.085129496e-06
2.746876419e-06
3.928308858e-06
1.42045158e-06
1.76582266e-06
2.223733352e-06
2.897498304e-06
4.039228808e-06
1.534194868e-06
1.876367804e-06
2.324989065e-06
2.969703194e-06
4.023066377e-06
1.642854079e-06
1.968173104e-06
2.389935542e-06
2.988497974e-06
3.942274812e-06
1.745263022e-06
2.048427717e-06
2.441782838e-06
3.001267699e-06
3.878022958e-06
1.848834644e-06
2.134852947e-06
2.514192104e-06
3.065707373e-06
3.928792307e-06
1.963342581e-06
2.243271872e-06
2.631112049e-06
3.212114903e-06
4.120775988e-06
2.097711976e-06
2.387555709e-06
2.806404504e-06
3.450048343e-06
4.439259945e-06
2.261315445e-06
2.578702081e-06
3.053355867e-06
3.791975228e-06
4.876884923e-06
2.463230332e-06
2.831059629e-06
3.395347526e-06
4.264424644e-06
5.433011597e-06
2.724423579e-06
3.177970515e-06
3.876764103e-06
4.905609971e-06
6.094481964e-06
3.098630544e-06
3.684512344e-06
4.565815298e-06
5.744122049e-06
6.80773224e-06
3.674144947e-06
4.451327135e-06
5.531900754e-06
6.746695651e-06
7.446606726e-06
4.613160596e-06
5.60049226e-06
6.77594793e-06
7.75512908e-06
7.803891296e-06
6.105887966e-06
7.156308702e-06
8.111200383e-06
8.474387158e-06
7.646827838e-06
8.072394506e-06
8.80413076e-06
9.121385165e-06
8.593733924e-06
6.891715135e-06
9.817538493e-06
9.868449534e-06
9.322096538e-06
7.911794259e-06
5.644670807e-06
1.047763767e-05
9.754350805e-06
8.39901077e-06
6.361969487e-06
4.063854791e-06
9.653400235e-06
8.304070539e-06
6.449058893e-06
4.360180346e-06
2.756588357e-06
7.417056425e-06
5.802034821e-06
4.063765162e-06
2.691079013e-06
1.75807868e-06
4.380110392e-06
3.192350796e-06
2.247088779e-06
1.549221133e-06
1.050256999e-06
2.061203554e-06
1.572559198e-06
1.161721219e-06
8.362379332e-07
5.89366152e-07
9.421967995e-07
7.486101035e-07
5.756627827e-07
4.305956126e-07
3.146698832e-07
4.259227826e-07
3.493124159e-07
2.775490038e-07
2.14515519e-07
1.618743095e-07
1.916716604e-07
1.611362241e-07
1.314771739e-07
1.044504489e-07
8.104085355e-08
8.613986034e-08
7.385200806e-08
6.1579359e-08
5.006305493e-08
3.978405569e-08
3.872067031e-08
3.372912024e-08
2.863356289e-08
2.373766241e-08
1.925807906e-08
1.742482407e-08
1.538011621e-08
1.325585382e-08
1.117496924e-08
9.231324568e-09
7.856567363e-09
7.01289037e-09
6.123701129e-09
5.238598253e-09
4.397469645e-09
3.552925013e-09
3.202667075e-09
2.829115201e-09
2.452335062e-09
2.089168217e-09
1.613987047e-09
1.467932966e-09
1.310700176e-09
1.150488191e-09
9.944621732e-10
7.384929753e-10
6.776460149e-10
6.117791422e-10
5.443436007e-10
4.785068948e-10
3.423703688e-10
3.175309258e-10
2.907575414e-10
2.636295326e-10
2.377144263e-10
1.633041893e-10
1.540625839e-10
1.444807492e-10
1.354203744e-10
1.278344277e-10
8.430197674e-11
8.250877656e-11
8.143590403e-11
8.179296046e-11
8.450389718e-11
5.757981443e-11
6.096638796e-11
6.507170276e-11
6.985095191e-11
7.530349391e-11
5.722622788e-11
6.00310872e-11
6.336437733e-11
6.724289594e-11
7.158295364e-11
5.684991067e-11
5.896720066e-11
6.151737879e-11
6.452039681e-11
6.801989337e-11
5.494620304e-11
5.676204148e-11
5.906273446e-11
6.191900516e-11
6.542344582e-11
5.322044162e-11
5.528650176e-11
5.793923381e-11
6.126091668e-11
6.534659335e-11
5.417291246e-11
5.670631904e-11
5.990428034e-11
6.382713776e-11
6.853914266e-11
5.84858033e-11
6.140415457e-11
6.503615866e-11
6.942149833e-11
7.459945699e-11
6.57201021e-11
6.890870702e-11
7.283307434e-11
7.751239951e-11
8.296298106e-11
7.532581094e-11
7.865270996e-11
8.271250983e-11
8.750692516e-11
9.303344043e-11
8.669402926e-11
9.003353363e-11
9.408277514e-11
9.883022727e-11
1.042595885e-10
9.921299052e-11
1.024593154e-10
1.063771401e-10
1.109460639e-10
1.161408635e-10
1.123576834e-10
1.154322626e-10
1.191302596e-10
1.23426179e-10
1.282899351e-10
1.256437347e-10
1.284933968e-10
1.31912759e-10
1.358742619e-10
1.403461439e-10
1.387374354e-10
1.413345704e-10
1.444458612e-10
1.48043745e-10
1.520968958e-10
1.511560442e-10
1.534915999e-10
1.562867839e-10
1.595155194e-10
1.631484146e-10
1.61637694e-10
1.637454257e-10
1.662666637e-10
1.691772005e-10
1.724498675e-10
1.104299294e-10
1.474706799e-11
2.510780798e-12
6.354753422e-13
2.44584327e-13
1.228405527e-13
7.177019235e-14
4.541652061e-14
2.958142066e-14
1.939582544e-14
1.26836325e-14
8.243595879e-15
5.313753632e-15
3.390578392e-15
2.138255642e-15
1.330937378e-15
8.169593353e-16
4.942426154e-16
2.946514921e-16
1.731278128e-16
1.003173546e-16
5.739335308e-17
3.249016278e-17
1.826498391e-17
1.025799511e-17
5.808357512e-18
3.357129637e-18
2.008666292e-18
1.258958951e-18
8.306299012e-19
5.745696997e-19
4.123684886e-19
3.034090195e-19
2.266021963e-19
1.706084555e-19
1.288650062e-19
9.72266115e-20
7.292004883e-20
5.407068386e-20
3.942778354e-20
2.814756126e-20
1.961659725e-20
1.33317187e-20
8.84134963e-21
5.733346438e-21
3.645742486e-21
2.280085098e-21
1.406043851e-21
8.563329036e-22
5.153770201e-22
3.063497632e-22
1.795927834e-22
1.035850942e-22
5.855112271e-23
3.21920854e-23
1.69302723e-23
8.153680504e-24
3.23413509e-24
7.529138888e-25
6.159283572e-26
5.946810726e-10
8.713834068e-11
1.62997739e-11
5.048027254e-12
2.502470945e-12
1.527396471e-12
9.71853287e-13
6.245588695e-13
3.9436185e-13
2.458133798e-13
1.505480285e-13
9.103688142e-14
5.442641759e-14
3.225629663e-14
1.897856395e-14
1.109477342e-14
6.446712583e-15
3.722410203e-15
2.135260225e-15
1.216161052e-15
6.875766651e-16
3.860027192e-16
2.154812805e-16
1.199559616e-16
6.694563534e-17
3.777240337e-17
2.179777488e-17
1.303497541e-17
8.165521103e-18
5.381402547e-18
3.716326383e-18
2.662830037e-18
1.957190745e-18
1.461694776e-18
1.101812465e-18
8.341941554e-19
6.314517971e-19
4.753880301e-19
3.538794801e-19
2.59006557e-19
1.855417302e-19
1.297239461e-19
8.844090241e-20
5.884604063e-20
3.829821785e-20
2.445291808e-20
1.536340759e-20
9.522000264e-21
5.830556669e-21
3.528479611e-21
2.108928933e-21
1.242987133e-21
7.206552694e-22
4.093188659e-22
2.259667507e-22
1.191699939e-22
5.750184336e-23
2.293581287e-23
5.712118669e-24
5.797035291e-25
7.920556829e-10
1.708408995e-10
4.417378403e-11
2.028618494e-11
1.251465834e-11
8.486155525e-12
5.715853956e-12
3.817801943e-12
2.479361946e-12
1.578740706e-12
9.777339237e-13
5.923934359e-13
3.505843379e-13
2.034194029e-13
1.159238372e-13
6.511627477e-14
3.618014153e-14
1.995246001e-14
1.095514269e-14
5.999889371e-15
3.281033256e-15
1.792400202e-15
9.792438127e-16
5.361950737e-16
2.955189494e-16
1.651195532e-16
9.447419376e-17
5.598922866e-17
3.471235226e-17
2.261726694e-17
1.544629419e-17
1.096642956e-17
8.011793136e-18
5.968688526e-18
4.503296275e-18
3.422259008e-18
2.605380341e-18
1.974868777e-18
1.480657566e-18
1.091334889e-18
7.870178316e-19
5.537386245e-19
3.798284024e-19
2.542751503e-19
1.665438566e-19
1.070658336e-19
6.777174938e-20
4.234452278e-20
2.615143713e-20
1.596658496e-20
9.628460048e-21
5.724888725e-21
3.347138479e-21
1.915794201e-21
1.064295924e-21
5.633211762e-22
2.719507131e-22
1.07897027e-22
2.704543584e-23
2.854008153e-24
7.895569518e-09
1.43134182e-09
2.049100207e-10
7.078230291e-11
4.427262205e-11
3.112842463e-11
2.189217044e-11
1.513298352e-11
1.021535168e-11
6.741949966e-12
4.335690174e-12
2.72101098e-12
1.663536691e-12
9.923331447e-13
5.772765494e-13
3.282117687e-13
1.826283023e-13
9.981494081e-14
5.377300867e-14
2.86849776e-14
1.521438682e-14
8.053302407e-15
4.267760172e-15
2.272194566e-15
1.220809644e-15
6.659429739e-16
3.718414234e-16
2.145878324e-16
1.291760986e-16
8.159253049e-17
5.409496123e-17
3.745471003e-17
2.686687402e-17
1.980077158e-17
1.488446908e-17
1.133555485e-17
8.683648865e-18
6.638707178e-18
5.024980519e-18
3.739778098e-18
2.722782566e-18
1.933669076e-18
1.338684389e-18
9.045824055e-19
5.982097196e-19
3.884612996e-19
2.485005888e-19
1.569772224e-19
9.804120466e-20
6.05437341e-20
3.693274631e-20
2.221367174e-20
1.313386898e-20
7.595797334e-21
4.25582586e-21
2.263752017e-21
1.093526041e-21
4.309005759e-22
1.070908396e-22
1.137379122e-23
1.114698693e-08
3.182019522e-09
6.213249942e-10
1.816324856e-10
1.09169106e-10
7.897121925e-11
5.810148098e-11
4.207975799e-11
2.988379816e-11
2.079488096e-11
1.415450366e-11
9.419615697e-12
6.11799832e-12
3.877550707e-12
2.394098969e-12
1.440553155e-12
8.439150536e-13
4.819904875e-13
2.684875614e-13
1.462961277e-13
7.817619015e-14
4.116400804e-14
2.145503882e-14
1.113396144e-14
5.788550722e-15
3.036958279e-15
1.620893201e-15
8.880773728e-16
5.042151831e-16
2.991166247e-16
1.863537872e-16
1.21998249e-16
8.362542269e-17
5.965507327e-17
4.396633981e-17
3.31990082e-17
2.543288215e-17
1.955367286e-17
1.493119031e-17
1.122652271e-17
8.261751128e-18
5.931654462e-18
4.152072633e-18
2.837784484e-18
1.899317316e-18
1.249188861e-18
8.098484023e-19
5.185757279e-19
3.282792627e-19
2.05412701e-19
1.269222247e-19
7.730241296e-20
4.62678978e-20
2.706864207e-20
1.531584037e-20
8.199761322e-21
3.968523068e-21
1.557727475e-21
3.842376148e-22
4.15339173e-23
7.594950939e-09
3.492741928e-09
1.166226008e-09
3.71313388e-10
2.092129657e-10
1.523910085e-10
1.162649993e-10
8.815569887e-11
6.592466806e-11
4.85316891e-11
3.511658087e-11
2.493944609e-11
1.735726827e-11
1.182508239e-11
7.871889279e-12
5.114668393e-12
3.238388468e-12
1.996541008e-12
1.196788823e-12
6.977181085e-13
3.955357771e-13
2.18498163e-13
1.177922196e-13
6.220663281e-14
3.231589035e-14
1.66281098e-14
8.541924626e-15
4.424576296e-15
2.336554941e-15
1.272753129e-15
7.228939935e-16
4.316888249e-16
2.722557587e-16
1.813802986e-16
1.271420686e-16
9.29906966e-17
7.007929168e-17
5.361623425e-17
4.105645937e-17
3.109980446e-17
2.311133581e-17
1.677092977e-17
1.186715231e-17
8.199733643e-18
5.551663602e-18
3.698180421e-18
2.431587086e-18
1.580685602e-18
1.016148575e-18
6.454963125e-19
4.046255477e-19
2.498020972e-19
1.514327954e-19
8.965068548e-20
5.126694408e-20
2.768556699e-20
1.347609596e-20
5.309320285e-21
1.31257884e-21
1.460942363e-22
4.222300982e-09
2.693195401e-09
1.522544671e-09
6.803835608e-10
3.514952127e-10
2.440720209e-10
1.880042137e-10
1.469993347e-10
1.14313692e-10
8.795464795e-11
6.682160859e-11
5.006934035e-11
3.696283522e-11
2.685537876e-11
1.917983469e-11
1.344477867e-11
9.232000853e-12
6.196826506e-12
4.056427726e-12
2.585366309e-12
1.601623047e-12
9.63691218e-13
5.626094127e-13
3.187610858e-13
1.753728443e-13
9.396525879e-14
4.920315054e-14
2.532777626e-14
1.292019261e-14
6.606072771e-15
3.432867275e-15
1.841344445e-15
1.034968919e-15
6.170065894e-16
3.927767383e-16
2.667257554e-16
1.911412081e-16
1.41959316e-16
1.072158605e-16
8.101013916e-17
6.048050303e-17
4.426986371e-17
3.164591547e-17
2.208623301e-17
1.509815242e-17
1.015979612e-17
6.757513198e-18
4.45118773e-18
2.903486607e-18
1.872927203e-18
1.192282733e-18
7.471459352e-19
4.59345041e-19
2.755091658e-19
1.594777489e-19
8.714864113e-20
4.29333484e-20
1.717362314e-20
4.335187089e-21
5.045784769e-22
3.375173301e-08
9.911757565e-09
4.823599419e-09
1.860407077e-09
6.968418931e-10
3.800788849e-10
2.724427963e-10
2.125005477e-10
1.684190381e-10
1.331965716e-10
1.045063496e-10
8.115761239e-11
6.231168468e-11
4.72677512e-11
3.540431207e-11
2.61663862e-11
1.906449212e-11
1.367805861e-11
9.6474201e-12
6.674311321e-12
4.516903081e-12
2.98142133e-12
1.913272632e-12
1.190805787e-12
7.176465951e-13
4.18521723e-13
2.361456765e-13
1.290401884e-13
6.845906536e-14
3.545064661e-14
1.806150767e-14
9.163370591e-15
4.707222687e-15
2.499079651e-15
1.399657742e-15
8.404239376e-16
5.436789983e-16
3.745764976e-16
2.693018315e-16
1.97994536e-16
1.463171579e-16
1.072299918e-16
7.723686899e-17
5.443562676e-17
3.756462813e-17
2.549810036e-17
1.710792747e-17
1.137799636e-17
7.504882708e-18
4.903378407e-18
3.16591891e-18
2.013920737e-18
1.257187598e-18
7.654462807e-19
4.496144261e-19
2.494173454e-19
1.249909649e-19
5.11364442e-20
1.3334537e-20
1.651417764e-21
9.570258907e-08
1.787489912e-08
8.299584985e-09
3.839784566e-09
1.419413925e-09
6.044563545e-10
3.778065469e-10
2.840508903e-10
2.258682223e-10
1.816909806e-10
1.458485955e-10
1.162705479e-10
9.187507895e-11
7.189819103e-11
5.569727356e-11
4.269594679e-11
3.237297765e-11
2.426395781e-11
1.796236132e-11
1.311828181e-11
9.436595234e-12
6.673075108e-12
4.628489038e-12
3.139224767e-12
2.074593991e-12
1.331318956e-12
8.264857242e-13
4.950309361e-13
2.857465688e-13
1.59049435e-13
8.552770573e-14
4.462925795e-14
2.279283458e-14
1.155765865e-14
5.935005043e-15
3.158957651e-15
1.783930645e-15
1.083354493e-15
7.035959059e-16
4.810095601e-16
3.400879285e-16
2.444856105e-16
1.758581604e-16
1.249542306e-16
8.710254494e-17
5.967478461e-17
4.037595547e-17
2.706125064e-17
1.798930435e-17
1.185885576e-17
7.740699356e-18
4.988899126e-18
3.16120948e-18
1.956219747e-18
1.169050195e-18
6.607004737e-19
3.384547276e-19
1.426557402e-19
3.893427354e-20
5.240272589e-21
1.1140502e-07
1.577128405e-08
7.565584691e-09
4.487803692e-09
2.187489006e-09
9.295967521e-10
5.113840702e-10
3.650452567e-10
2.880069188e-10
2.338912081e-10
1.908460721e-10
1.551908412e-10
1.25373963e-10
1.0049406e-10
7.987453136e-11
6.293160107e-11
4.913646073e-11
3.800780736e-11
2.911228067e-11
2.206650012e-11
1.653350718e-11
1.223430548e-11
8.925181644e-12
6.405827278e-12
4.511973154e-12
3.110040294e-12
2.091657124e-12
1.367841789e-12
8.663890343e-13
5.295367194e-13
3.113130596e-13
1.758075369e-13
9.555053654e-14
5.026959007e-14
2.58664402e-14
1.321455169e-14
6.83243442e-15
3.66194227e-15
2.077321848e-15
1.258439934e-15
8.09937741e-16
5.47057229e-16
3.815816606e-16
2.698282469e-16
1.899235616e-16
1.316783872e-16
8.996896582e-17
6.078508134e-17
4.068783392e-17
2.699664313e-17
1.775050922e-17
1.154880313e-17
7.409250834e-18
4.656210118e-18
2.833781986e-18
1.636380034e-18
8.607353379e-19
3.764484265e-19
1.090547409e-19
1.624559175e-20
1.061260366e-07
1.493507519e-08
5.899239848e-09
4.102813667e-09
2.579568869e-09
1.328338521e-09
7.002911659e-10
4.654263766e-10
3.589159114e-10
2.918521262e-10
2.406274596e-10
1.985345367e-10
1.631399909e-10
1.332408231e-10
1.080579982e-10
8.69796719e-11
6.947186502e-11
5.503931046e-11
4.326001299e-11
3.371755288e-11
2.603964848e-11
1.990618075e-11
1.504370511e-11
1.122150659e-11
8.246384692e-12
5.957409229e-12
4.220896307e-12
2.925464107e-12
1.977762312e-12
1.300121652e-12
8.284432198e-13
5.099678584e-13
3.022793207e-13
1.722309309e-13
9.447683612e-14
5.01801721e-14
2.604747028e-14
1.338349433e-14
6.939561516e-15
3.725073625e-15
2.119070035e-15
1.289067938e-15
8.339690055e-16
5.651931097e-16
3.933150003e-16
2.752050803e-16
1.907738972e-16
1.303526108e-16
8.79133866e-17
5.866650883e-17
3.878739343e-17
2.540127001e-17
1.644209858e-17
1.046271185e-17
6.476297882e-18
3.823781094e-18
2.072157456e-18
9.46242517e-19
2.947795269e-19
4.934172348e-20
2.56818375e-07
3.940985214e-08
8.84776984e-09
4.93085326e-09
3.226568797e-09
1.952535258e-09
1.047267822e-09
6.223082064e-10
4.474718923e-10
3.562256816e-10
2.93824712e-10
2.444950541e-10
2.033862002e-10
1.685101179e-10
1.387880116e-10
1.136194527e-10
9.244300925e-11
7.4715169e-11
5.996826686e-11
4.77829668e-11
3.777105684e-11
2.959355057e-11
2.295805406e-11
1.76128373e-11
1.334226918e-11
9.962742084e-12
7.318532953e-12
5.277484637e-12
3.727081409e-12
2.571337241e-12
1.728456451e-12
1.129030925e-12
7.1466252e-13
4.372565027e-13
2.581225504e-13
1.469624727e-13
8.080237212e-14
4.304782406e-14
2.239004357e-14
1.153088111e-14
6.027979465e-15
3.29789297e-15
1.929012048e-15
1.20966414e-15
8.023700159e-16
5.512172758e-16
3.838163925e-16
2.663146811e-16
1.822599948e-16
1.227573123e-16
8.159185222e-17
5.368174269e-17
3.496380089e-17
2.245607529e-17
1.409452976e-17
8.495515184e-18
4.748839841e-18
2.275748864e-18
7.712117655e-19
1.467550795e-19
9.565008605e-07
1.490023283e-07
2.421504555e-08
9.472184231e-09
5.326421733e-09
3.176441388e-09
1.767674538e-09
9.373190452e-10
5.807620551e-10
4.283146831e-10
3.442217316e-10
2.851643117e-10
2.380168945e-10
1.989682953e-10
1.653853321e-10
1.374457224e-10
1.136485359e-10
9.343293572e-11
7.633076286e-11
6.193850811e-11
4.989351254e-11
3.987134607e-11
3.158239988e-11
2.477060422e-11
1.921222022e-11
1.471333723e-11
1.110684743e-11
8.248716272e-12
6.014516064e-12
4.2963291e-12
3.000023384e-12
2.043208665e-12
1.354150956e-12
8.714263744e-13
5.434727867e-13
3.279797224e-13
1.913488738e-13
1.078967625e-13
5.887034708e-14
3.124358425e-14
1.631345629e-14
8.559930282e-15
4.647607582e-15
2.678948221e-15
1.657408118e-15
1.088684122e-15
7.424692852e-16
5.149649305e-16
3.572611337e-16
2.449210791e-16
1.650374126e-16
1.094047516e-16
7.158713384e-17
4.625269891e-17
2.933268807e-17
1.799476092e-17
1.036634017e-17
5.235800759e-18
1.94941801e-18
4.248870666e-19
1.131994314e-06
2.050236062e-07
3.575202928e-08
1.194586778e-08
6.834141209e-09
4.298506391e-09
2.625533285e-09
1.482520141e-09
8.148616973e-10
5.169419441e-10
3.809645833e-10
3.039101884e-10
2.509020238e-10
2.101059481e-10
1.756682846e-10
1.475467409e-10
1.234765661e-10
1.028850429e-10
8.528550883e-11
7.028430036e-11
5.755010545e-11
4.67936792e-11
3.775744936e-11
3.020921455e-11
2.394046174e-11
1.876565281e-11
1.452310755e-11
1.107497185e-11
8.304287706e-12
6.109917522e-12
4.401543956e-12
3.098185456e-12
2.127055493e-12
1.422100099e-12
9.24539042e-13
5.836949907e-13
3.574063406e-13
2.120465317e-13
1.218540269e-13
6.790303999e-14
3.685850134e-14
1.96871619e-14
1.054962726e-14
5.827013061e-15
3.403746907e-15
2.124161482e-15
1.400996078e-15
9.560047735e-16
6.620102091e-16
4.584692772e-16
3.142925818e-16
2.118912882e-16
1.402993016e-16
9.135891824e-17
5.842425539e-17
3.635835546e-17
2.151741472e-17
1.145512658e-17
4.713822396e-18
1.183604806e-18
1.059841291e-06
2.177627119e-07
4.247736028e-08
1.135129035e-08
6.63316077e-09
4.600431883e-09
3.126953578e-09
2.007381319e-09
1.18453379e-09
6.643601266e-10
4.098250554e-10
2.918073715e-10
2.28343273e-10
1.879438309e-10
1.574838064e-10
1.329052223e-10
1.123152903e-10
9.476957614e-11
7.97027582e-11
6.673403925e-11
5.557994748e-11
4.601171825e-11
3.783460259e-11
3.087760363e-11
2.498758636e-11
2.002778753e-11
1.587623084e-11
1.242428647e-11
9.576758087e-12
7.253690953e-12
5.387543924e-12
3.915099412e-12
2.776972802e-12
1.919597548e-12