/*--------------------------------*- C++ -*----------------------------------*\
  =========                 |
  \\      /  F ield         | OpenFOAM: The Open Source CFD Toolbox
   \\    /   O peration     | Website:  https://openfoam.org
    \\  /    A nd           | Version:  10
     \\/     M anipulation  |
\*---------------------------------------------------------------------------*/
FoamFile
{
    format      ascii;
    class       volScalarField;
    location    "3000";
    object      HCCO;
}
// * * * * * * * * * * * * * * * * * * * * * * * * * * * * * * * * * * * * * //

dimensions      [0 0 0 0 0 0 0];

internalField   nonuniform List<scalar> 
5170
(
6.391408333e-75
2.861707787e-75
5.153097158e-76
3.392409676e-77
3.898653478e-79
4.871852614e-72
2.044502861e-72
3.079266874e-73
1.33957349e-74
1.15829322e-76
3.616317403e-69
1.412443277e-69
1.712892945e-70
5.328604156e-72
2.940717835e-74
2.635673582e-66
9.582474655e-67
9.445198553e-68
2.193894709e-69
1.933638943e-72
1.898391095e-63
6.478342717e-64
5.320579536e-65
9.659458319e-67
0
1.361966806e-60
4.424480552e-61
3.037670433e-62
4.533115345e-64
0
9.838467538e-58
3.079432417e-58
1.798077957e-59
2.25615031e-61
0
7.129932721e-55
2.165497654e-55
1.142041382e-56
1.283833793e-58
0
5.237488297e-52
1.607572341e-52
7.949288291e-54
8.512022434e-56
0
3.928412327e-49
1.268724841e-49
6.116659307e-51
7.965189322e-53
0
3.027403337e-46
1.077463511e-46
5.590187899e-48
1.811358806e-49
0
2.392192021e-43
9.827961106e-44
6.530496646e-45
8.238944004e-46
0
1.94496273e-40
9.698143517e-41
1.032909286e-41
4.374504603e-42
3.619671766e-42
1.61960962e-37
1.026262615e-37
2.110922643e-38
2.301370418e-38
2.712123051e-38
1.385410656e-34
1.174309256e-34
5.105681418e-35
1.162925269e-34
1.658532826e-34
1.198674643e-31
1.427901386e-31
1.335695227e-31
5.400225868e-31
1.005238015e-30
1.044261614e-28
1.846452004e-28
3.55114721e-28
2.252017487e-27
6.101487605e-27
8.911159265e-26
2.433049589e-25
9.201784143e-25
8.655774684e-24
3.708872521e-23
7.09464207e-23
3.114518081e-22
2.194460414e-21
2.893204982e-20
2.257401261e-19
4.761109722e-20
3.647773963e-19
4.719052635e-18
8.780186242e-17
1.393163815e-15
3.088993845e-23
2.075280791e-23
5.81443019e-24
1.672656257e-23
2.244597143e-23
1.595749959e-23
1.340613538e-23
8.039578061e-24
2.283996075e-23
1.676306569e-23
1.098338468e-23
9.46079224e-24
6.588607073e-24
1.132778699e-23
9.266656843e-24
6.16880993e-24
5.885106704e-24
5.08828173e-24
6.417956157e-24
5.350567258e-24
3.597919689e-24
4.045757652e-24
3.710830527e-24
3.58960023e-24
2.976599389e-24
2.171706117e-24
2.689731004e-24
2.550156413e-24
2.22852032e-24
1.582583057e-24
1.462703182e-24
1.854012818e-24
1.760797469e-24
1.211493925e-24
8.471304962e-25
9.078297413e-25
1.23910947e-24
1.141488909e-24
7.378091878e-25
4.915637606e-25
5.886036942e-25
8.582069201e-25
8.319660984e-25
6.054329494e-25
3.135997274e-25
4.254765858e-25
6.040916247e-25
5.861087005e-25
3.049073183e-25
2.260505819e-25
3.298924163e-25
4.360274959e-25
4.528806924e-25
2.884350173e-25
2.302283872e-25
2.296251854e-25
3.410648962e-25
3.888582711e-25
3.661034075e-25
2.212509372e-25
1.661516748e-25
2.028723735e-25
2.357313587e-25
2.630022061e-25
1.87541576e-25
6.552003661e-24
2.051519173e-24
7.128054588e-25
1.442681374e-24
3.159119289e-25
1.085163259e-21
3.486271298e-22
1.069433734e-22
1.101603101e-22
4.414008471e-23
1.831680625e-19
6.447256464e-20
2.038364967e-20
3.355989824e-20
8.366070563e-21
3.120455756e-17
1.231145364e-17
3.618766736e-18
7.220511372e-18
1.300617305e-18
5.346734534e-15
2.419592823e-15
5.893276569e-16
1.091759323e-15
1.553756632e-16
9.342651185e-13
4.925621554e-13
9.020808742e-14
1.166529872e-13
1.393822605e-14
1.056410079e-11
2.831302058e-11
1.281131794e-11
6.956790253e-12
7.606989935e-13
9.276109049e-18
1.117993224e-16
3.307961377e-15
1.50074894e-13
8.606493273e-12
4.151879424e-16
5.246297807e-15
1.55214277e-13
6.467266069e-12
2.940706742e-10
1.182085478e-15
1.272129882e-14
3.049051953e-13
9.780180881e-12
2.700330593e-10
5.344938597e-15
6.745787788e-14
1.808435066e-12
5.55643395e-11
1.33353564e-09
2.125862421e-14
2.637487641e-13
6.322718303e-12
1.547553282e-10
2.778951749e-09
5.565719424e-14
6.068461457e-13
1.203157147e-11
2.302063084e-10
3.07704125e-09
1.30053408e-13
1.283601818e-12
2.111021693e-11
2.991803499e-10
2.847862047e-09
2.993195389e-13
2.817080422e-12
3.87347801e-11
4.149139543e-10
3.160218002e-09
7.998000375e-13
7.390555308e-12
8.629286768e-11
7.641391135e-10
5.23266202e-09
2.200146537e-12
1.859367996e-11
1.758040987e-10
1.260309997e-09
7.344057394e-09
5.872870793e-12
3.911628635e-11
2.837182675e-10
1.656063445e-09
8.150133504e-09
1.258994145e-11
6.515809432e-11
3.796027769e-10
1.880214771e-09
8.066802047e-09
2.489666038e-11
1.048971725e-10
5.228862628e-10
2.338256604e-09
9.364223558e-09
5.112901247e-11
1.791681301e-10
7.856236468e-10
3.216491888e-09
1.203879978e-08
1.084487502e-10
3.136731397e-10
1.191690441e-09
4.368522171e-09
1.487112035e-08
2.260323729e-10
5.379687021e-10
1.737120899e-09
5.620994155e-09
1.726067495e-08
4.487123099e-10
8.981792263e-10
2.460711866e-09
7.010284317e-09
1.947294322e-08
8.386391282e-10
1.470018713e-09
3.511348944e-09
9.00903989e-09
2.309880343e-08
1.539283988e-09
2.455428393e-09
5.26543222e-09
1.239230746e-08
2.976718598e-08
2.777582826e-09
4.137786826e-09
8.138941767e-09
1.776207174e-08
4.009484639e-08
4.855073367e-09
6.849972161e-09
1.250457791e-08
2.543725071e-08
5.396124234e-08
8.109245628e-09
1.09527208e-08
1.864554937e-08
3.553709229e-08
7.105641507e-08
1.279058898e-08
1.661920583e-08
2.683308237e-08
4.828935903e-08
9.091015731e-08
1.94486733e-08
2.449304496e-08
3.768060532e-08
6.437340014e-08
1.153837263e-07
2.924966584e-08
3.598603012e-08
5.329777369e-08
8.689141074e-08
1.491137721e-07
4.407908982e-08
5.314056199e-08
7.603705663e-08
1.202011079e-07
1.991346129e-07
6.870933606e-08
8.150722202e-08
1.135136991e-07
1.729398305e-07
2.773320654e-07
1.09734184e-07
1.281906118e-07
1.738230625e-07
2.5880953e-07
4.033594581e-07
1.876039967e-07
2.143741553e-07
2.793892582e-07
4.009229478e-07
6.102727272e-07
3.357410574e-07
3.785451028e-07
4.818951391e-07
6.664732953e-07
9.720036152e-07
6.269435775e-07
6.972897987e-07
8.647210136e-07
1.157546068e-06
1.629203465e-06
1.245720994e-06
1.36473149e-06
1.644820313e-06
2.124479589e-06
2.872410566e-06
2.669803235e-06
2.876134774e-06
3.351319158e-06
4.13916714e-06
5.311331367e-06
6.035393873e-06
6.367952676e-06
7.11096737e-06
8.273965048e-06
9.864081419e-06
1.260608941e-05
1.296173037e-05
1.371903956e-05
1.479516748e-05
1.606596782e-05
1.886651974e-05
1.898276505e-05
1.920021575e-05
1.942831013e-05
1.95567696e-05
1.936185691e-05
1.925738627e-05
1.901310362e-05
1.860492901e-05
1.799863647e-05
1.561207318e-05
1.545126524e-05
1.509757979e-05
1.456026772e-05
1.384260013e-05
1.102419782e-05
1.088937278e-05
1.059545595e-05
1.015478096e-05
9.573859729e-06
7.209588098e-06
7.106853888e-06
6.880164257e-06
6.532372817e-06
6.057992277e-06
4.049546079e-06
3.950590407e-06
3.736170902e-06
3.423781801e-06
3.043382866e-06
1.701163682e-06
1.663184596e-06
1.583240411e-06
1.470701422e-06
1.335408555e-06
7.191315937e-07
7.056673648e-07
6.771152929e-07
6.364281673e-07
5.866080241e-07
3.082927418e-07
3.033199777e-07
2.927179984e-07
2.774617485e-07
2.585216329e-07
1.335415129e-07
1.316459084e-07
1.275887987e-07
1.217089361e-07
1.143363855e-07
5.830162717e-08
5.75619099e-08
5.597425554e-08
5.366124783e-08
5.073963805e-08
2.561416158e-08
2.532049429e-08
2.468883304e-08
2.376485554e-08
2.259106805e-08
1.131609377e-08
1.119794307e-08
1.094336777e-08
1.05697727e-08
1.009297807e-08
5.026828519e-09
4.978774037e-09
4.875082055e-09
4.722496195e-09
4.527002996e-09
2.246324796e-09
2.226587719e-09
2.183944984e-09
2.121046789e-09
2.040190257e-09
1.01059006e-09
1.002406697e-09
9.847060758e-10
9.585424445e-10
9.248076994e-10
4.581512871e-10
4.547251192e-10
4.47306494e-10
4.363198423e-10
4.221154249e-10
2.094869199e-10
2.080377717e-10
2.048968632e-10
2.002370546e-10
1.941974144e-10
9.667835633e-11
9.605881095e-11
9.47147571e-11
9.271748152e-11
9.012286915e-11
4.505518334e-11
4.478745048e-11
4.420614357e-11
4.334104806e-11
4.22149249e-11
2.121290876e-11
2.109612258e-11
2.0842384e-11
2.046432534e-11
1.997138758e-11
1.010007016e-11
1.004895702e-11
9.937870527e-12
9.772261368e-12
9.556164082e-12
4.882308394e-12
4.860411863e-12
4.812860273e-12
4.742064108e-12
4.649871503e-12
2.440313394e-12
2.432285125e-12
2.414975936e-12
2.389540066e-12
2.357071256e-12
1.396448608e-12
1.394711658e-12
1.390996048e-12
1.385592472e-12
1.378778366e-12
8.921554982e-13
8.9319411e-13
8.955620222e-13
8.993701165e-13
9.048585628e-13
6.769616091e-13
6.796193508e-13
6.855130354e-13
6.945919426e-13
7.069759306e-13
6.173957289e-13
6.210028976e-13
6.289553877e-13
6.410896747e-13
6.57430951e-13
6.44640565e-13
6.487564383e-13
6.578009344e-13
6.715266937e-13
6.898740896e-13
7.201032923e-13
7.243712658e-13
7.33725811e-13
7.478606525e-13
7.666419547e-13
8.195347651e-13
8.236387586e-13
8.32612099e-13
8.461160463e-13
8.639584586e-13
9.251370283e-13
9.288049647e-13
9.368040364e-13
9.487904431e-13
9.645341999e-13
1.02154733e-12
1.024553977e-12
1.031090612e-12
1.040836552e-12
1.053548763e-12
1.095509448e-12
1.097743832e-12
1.102581274e-12
1.109746339e-12
1.119007044e-12
1.131802012e-12
1.133323438e-12
1.13659799e-12
1.141403166e-12
1.147532818e-12
1.033655423e-10
5.071979712e-09
2.587071209e-09
1.386830061e-08
2.282673926e-08
1.922661902e-08
1.376026909e-08
1.344293566e-08
2.139680464e-08
2.646323228e-08
2.573117901e-08
2.299623342e-08
2.575096811e-08
3.150825446e-08
3.613902025e-08
3.886685479e-08
4.088116865e-08
4.610131612e-08
5.704560123e-08
7.365106006e-08
9.481458778e-08
1.190716673e-07
1.46079418e-07
1.789215134e-07
2.24194718e-07
2.915770207e-07
3.963367772e-07
5.633327807e-07
8.347284195e-07
1.295558111e-06
2.112968316e-06
3.607424281e-06
6.389436394e-06
1.11638133e-05
1.690673219e-05
1.949079813e-05
1.744762823e-05
1.325452502e-05
9.101126643e-06
5.656260583e-06
2.778121803e-06
1.238180349e-06
5.498707674e-07
2.443109493e-07
1.087359334e-07
4.849966268e-08
2.168459929e-08
9.722597717e-09
4.374385532e-09
1.97679468e-09
8.982562079e-10
4.108966627e-10
1.894120217e-10
8.806108407e-11
4.131773806e-11
1.957785286e-11
9.383491257e-12
4.576419678e-12
2.33193798e-12
1.373566823e-12
9.097907967e-13
7.17432324e-13
6.710139567e-13
7.049827187e-13
7.819907358e-13
8.78435609e-13
9.772116298e-13
1.06369328e-12
1.12630926e-12
1.152281805e-12
3.290116559e-10
2.469969717e-09
3.701882985e-10
1.316014634e-10
2.939066965e-11
3.322055686e-08
7.044741679e-07
5.683230228e-08
4.05551424e-09
8.008080186e-10
1.312991778e-08
1.510605583e-07
9.341742071e-08
1.194773513e-08
1.613506974e-09
8.151265685e-08
1.438373857e-06
2.296607308e-05
1.637418656e-06
9.848920194e-08
1.153889567e-07
1.629639175e-06
1.926259035e-05
1.652057569e-06
1.242492112e-07
8.066607619e-08
8.35797584e-07
6.663547606e-06
7.970268616e-07
7.58298603e-08
4.907012961e-08
3.975067959e-07
2.50145003e-06
4.429438973e-07
6.089358365e-08
4.547074715e-08
3.639279369e-07
2.514980296e-06
1.320043528e-05
1.685173178e-06
7.125707672e-08
5.696616682e-07
3.988151628e-06
2.464778919e-05
3.738477266e-06
8.054873478e-08
5.463974294e-07
3.19272953e-06
1.615836746e-05
3.065111198e-06
7.156233315e-08
4.143456199e-07
2.08016519e-06
9.066290587e-06
2.050053452e-06
5.980685467e-08
3.090930874e-07
1.398773938e-06
5.571120445e-06
7.172282273e-06
6.584534661e-08
3.373858622e-07
1.563133961e-06
6.750578999e-06
2.285276285e-05
7.775992827e-08
3.721569861e-07
1.604500612e-06
6.402394356e-06
2.136595211e-05
8.453605293e-08
3.644164482e-07
1.424622186e-06
5.15883338e-06
1.587475888e-05
8.616166062e-08
3.342988874e-07
1.192071915e-06
3.952604925e-06
1.120091867e-05
8.620971484e-08
3.064246753e-07
1.014748576e-06
3.149513537e-06
8.5088455e-06
9.380654544e-08
3.171231707e-07
1.020578712e-06
3.137957494e-06
8.813642323e-06
1.126097249e-07
3.650700608e-07
1.139070261e-06
3.41883904e-06
9.540684423e-06
1.404927303e-07
4.315029439e-07
1.282003282e-06
3.671525016e-06
9.824260689e-06
1.738743348e-07
5.016847089e-07
1.408045149e-06
3.818701876e-06
9.694288544e-06
2.099145395e-07
5.681968528e-07
1.505406139e-06
3.868019654e-06
9.326661051e-06
2.483691258e-07
6.329754403e-07
1.588894739e-06
3.88224535e-06
8.91338541e-06
2.947084906e-07
7.11737733e-07
1.70203967e-06
3.97224409e-06
8.708693487e-06
3.590842596e-07
8.271139052e-07
1.895156046e-06
4.247050072e-06
8.938402888e-06
4.555371447e-07
1.005015903e-06
2.212318877e-06
4.766321235e-06
9.609483175e-06
6.049143711e-07
1.280393546e-06
2.706737199e-06
5.587537271e-06
1.068879855e-05
8.402160063e-07
1.705311199e-06
3.453959537e-06
6.788239328e-06
1.214485128e-05
1.217929058e-06
2.367739278e-06
4.574173051e-06
8.472343587e-06
1.389163091e-05
1.841574514e-06
3.416522129e-06
6.242650803e-06
1.071705781e-05
1.569112199e-05
2.918725679e-06
5.103251724e-06
8.674319872e-06
1.344888686e-05
1.714059241e-05
4.807954233e-06
7.785626262e-06
1.196950904e-05
1.62126756e-05
1.778783622e-05
8.097065202e-06
1.173325715e-05
1.567516219e-05
1.810168662e-05
1.730546668e-05
1.311555188e-05
1.627388633e-05
1.837183179e-05
1.821736492e-05
1.558679079e-05
1.805258457e-05
1.901802285e-05
1.85092436e-05
1.63267317e-05
1.278483402e-05
1.929334971e-05
1.816526863e-05
1.609455887e-05
1.319739164e-05
9.703599561e-06
1.658307959e-05
1.472477437e-05
1.23817575e-05
9.628950509e-06
6.542162972e-06
1.236288669e-05
1.064893511e-05
8.61745978e-06
6.266779231e-06
4.092075342e-06
8.384511298e-06
6.98063322e-06
5.264699254e-06
3.614899344e-06
2.433510435e-06
5.0408367e-06
3.858485179e-06
2.798511261e-06
1.983623153e-06
1.379624615e-06
2.404557155e-06
1.872219427e-06
1.412655988e-06
1.038452185e-06
7.468814807e-07
1.098366552e-06
8.847060951e-07
6.905385037e-07
5.245646859e-07
3.893244817e-07
4.965429805e-07
4.111724717e-07
3.302111488e-07
2.581310434e-07
1.970764879e-07
2.235548903e-07
1.892403657e-07
1.556106227e-07
1.246633362e-07
9.757817927e-08
1.00519725e-07
8.661156458e-08
7.262985978e-08
5.941527684e-08
4.752958734e-08
4.520260582e-08
3.951915067e-08
3.368955385e-08
2.805853842e-08
2.287657179e-08
2.034690992e-08
1.800731661e-08
1.55680062e-08
1.316881449e-08
1.091773537e-08
9.174877766e-09
8.205396984e-09
7.180708805e-09
6.157315998e-09
5.180948977e-09
4.148295234e-09
3.744025638e-09
3.31171814e-09
2.87420085e-09
2.450650752e-09
1.882734386e-09
1.713061256e-09
1.529764009e-09
1.342083241e-09
1.15802718e-09
8.588069709e-10
7.870927841e-10
7.089182844e-10
6.280386218e-10
5.477967019e-10
3.942070039e-10
3.636576782e-10
3.300861323e-10
2.950264781e-10
2.59876129e-10
1.822845792e-10
1.691576316e-10
1.546266257e-10
1.393224938e-10
1.238318184e-10
8.498686983e-11
7.929374431e-11
7.29504199e-11
6.62186869e-11
5.93465633e-11
3.997868297e-11
3.748703127e-11
3.469510397e-11
3.171292281e-11
2.864667957e-11
1.899005002e-11
1.789230797e-11
1.665718672e-11
1.533201791e-11
1.396351794e-11
9.125507453e-12
8.643156398e-12
8.100109084e-12
7.517777531e-12
6.918028752e-12
4.466826592e-12
4.26337033e-12
4.036942907e-12
3.798568528e-12
3.560206756e-12
2.294924534e-12
2.230926484e-12
2.167954656e-12
2.11537555e-12
2.064540196e-12
1.366033776e-12
1.354953195e-12
1.347627602e-12
1.346847799e-12
1.354326208e-12
9.175016993e-13
9.350544759e-13
9.595603154e-13
9.924018047e-13
1.034746836e-12
7.33398839e-13
7.66382517e-13
8.081506436e-13
8.592487776e-13
9.199520679e-13
6.916263255e-13
7.330530587e-13
7.838783605e-13
8.439608549e-13
9.128081017e-13
7.278237823e-13
7.729566508e-13
8.272064931e-13
8.89844317e-13
9.597539472e-13
8.051233264e-13
8.501930932e-13
9.0343441e-13
9.636554534e-13
1.029284732e-12
9.001901242e-13
9.420114898e-13
9.905895269e-13
1.044422409e-12
1.101663624e-12
9.962024228e-13
1.032188147e-12
1.073217109e-12
1.11762609e-12
1.163478142e-12
1.078832198e-12
1.107034996e-12
1.138469289e-12
1.171495072e-12
1.204278983e-12
1.137152284e-12
1.156885344e-12
1.178176681e-12
1.199545703e-12
1.219391122e-12
1.159280223e-12
1.17156974e-12
1.184134852e-12
1.195715709e-12
1.204984708e-12
8.065874758e-13
3.942867144e-14
4.915848759e-15
1.01118738e-15
2.541469393e-16
6.437995178e-17
1.519902275e-17
3.377704985e-18
7.281321089e-19
1.606007216e-19
4.141192926e-20
1.611826256e-20
1.036642241e-20
8.692593723e-21
7.823548173e-21
7.039187403e-21
6.192372801e-21
5.283817368e-21
4.358775575e-21
3.470553875e-21
2.665144033e-21
1.973388951e-21
1.408965747e-21
9.703234938e-22
6.449518303e-22
4.14119419e-22
2.571547867e-22
1.546306648e-22
9.016919883e-23
5.107134192e-23
2.814815815e-23
1.513046868e-23
7.955310773e-24
4.107741152e-24
2.094406481e-24
1.061835663e-24
5.394251054e-25
2.763856286e-25
1.432689918e-25
7.503850306e-26
3.9549693e-26
2.090508754e-26
1.108983762e-26
5.943908791e-27
3.257432427e-27
1.850094203e-27
1.09965764e-27
6.855472988e-28
4.461218386e-28
3.00526423e-28
2.077410517e-28
1.461573204e-28
1.037601852e-28
7.34927146e-29
5.104023399e-29
3.373532376e-29
2.000306354e-29
9.403022352e-30
2.371023397e-30
1.376724019e-31
2.710562747e-11
1.002475069e-12
6.612578628e-14
6.776493532e-15
9.735799688e-16
1.611899045e-16
2.794373603e-17
5.025717785e-18
9.999682232e-19
2.62247646e-19
1.134738831e-19
7.774355756e-20
6.597377726e-20
5.948795357e-20
5.376513561e-20
4.765606451e-20
4.108711958e-20
3.434709852e-20
2.780958625e-20
2.178990003e-20
1.651309808e-20
1.209975423e-20
8.572321972e-21
5.87310069e-21
3.893113065e-21
2.498763091e-21
1.554475222e-21
9.383325651e-22
5.50261708e-22
3.138996457e-22
1.744723459e-22
9.469513479e-23
5.033733373e-23
2.631741284e-23
1.361152185e-23
7.014812396e-24
3.628923498e-24
1.894332228e-24
9.986622372e-25
5.297456309e-25
2.811487318e-25
1.487230287e-25
7.852615154e-26
4.172735852e-26
2.263190659e-26
1.273011988e-26
7.513149484e-27
4.666530122e-27
3.034421649e-27
2.046404403e-27
1.417508515e-27
9.996782149e-28
7.113452767e-28
5.048200485e-28
3.510155458e-28
2.320849464e-28
1.37773915e-28
6.527143351e-29
1.728524992e-29
1.112849349e-30
4.423797291e-11
1.240424971e-12
6.205409782e-14
5.748860855e-15
8.165129384e-16
1.361052194e-16
2.45328763e-17
5.295420867e-18
1.608923511e-18
7.007219198e-19
3.981298365e-19
2.846302724e-19
2.368669575e-19
2.133053737e-19
1.958340881e-19
1.769614541e-19
1.549978055e-19
1.308465703e-19
1.063506858e-19
8.32482914e-20
6.285078928e-20
4.583045061e-20
3.2324008e-20
2.207699505e-20
1.461857395e-20
9.39636475e-21
5.870119531e-21
3.568385332e-21
2.113238979e-21
1.220691781e-21
6.887663875e-22
3.80418531e-22
2.062997361e-22
1.103307091e-22
5.854461555e-23
3.104434437e-23
1.655479132e-23
8.901567494e-24
4.813289354e-24
2.599211112e-24
1.391180027e-24
7.349686666e-25
3.841451813e-25
2.006601812e-25
1.065666657e-25
5.870516245e-26
3.407364839e-26
2.094394838e-26
1.355742925e-26
9.140150758e-27
6.344374237e-27
4.48825729e-27
3.204185637e-27
2.280182279e-27
1.587961798e-27
1.049741393e-27
6.22636777e-28
2.93715844e-28
7.59965607e-29
4.833744473e-30
2.741904596e-09
4.656569694e-11
1.095225651e-12
3.535688391e-14
2.292999353e-15
2.642144259e-16
5.52605699e-17
1.828610935e-17
7.988839264e-18
4.025083951e-18
2.214815953e-18
1.326453814e-18
8.52033065e-19
6.614019775e-19
5.704886262e-19
5.053486898e-19
4.454887098e-19
3.838160346e-19
3.191999785e-19
2.548689534e-19
1.952246562e-19
1.435833717e-19
1.016536847e-19
6.950184359e-20
4.604645289e-20
2.964731753e-20
1.859542361e-20
1.138332773e-20
6.81148057e-21
3.990002984e-21
2.292040037e-21
1.294163973e-21
7.205813701e-22
3.974307245e-22
2.184104374e-22
1.203326006e-22
6.672236766e-23
3.71898709e-23
2.069685585e-23
1.13879085e-23
6.140664982e-24
3.231273779e-24
1.664057139e-24
8.482322434e-25
4.365722477e-25
2.326193184e-25
1.311444144e-25
7.897655673e-26
5.055483411e-26
3.394872936e-26
2.357841582e-26
1.672933097e-26
1.198783144e-26
8.560145517e-27
5.974090682e-27
3.949202152e-27
2.338605266e-27
1.094096973e-27
2.696025214e-28
1.665299034e-29
5.538092903e-09
1.201242157e-10
2.283297305e-12
6.509241884e-14
4.804014543e-15
9.408289606e-16
2.973902826e-16
1.203269403e-16
5.391658767e-17
2.626787014e-17
1.37076761e-17
7.6037391e-18
4.479154336e-18
2.844936465e-18
1.936497127e-18
1.560618373e-18
1.317095452e-18
1.109297753e-18
9.187259044e-19
7.448191494e-19
5.827954369e-19
4.376238237e-19
3.150917063e-19
2.180143038e-19
1.455258075e-19
9.414592169e-20
5.928856127e-20
3.64785863e-20
2.19907873e-20
1.301946868e-20
7.587427408e-21
4.364385887e-21
2.486862157e-21
1.410507762e-21
8.009194738e-22
4.575080096e-22
2.631126627e-22
1.515034859e-22
8.642433181e-23
4.825675258e-23
2.612479147e-23
1.365422089e-23
6.908013283e-24
3.420811725e-24
1.692804429e-24
8.616270383e-25
4.644879845e-25
2.698704883e-25
1.688039648e-25
1.120289891e-25
7.748898301e-26
5.499485466e-26
3.950240188e-26
2.82916181e-26
1.97912959e-26
1.309310223e-26
7.741555738e-27
3.587977948e-27
8.327101242e-28
5.110950731e-29
7.05737938e-09
2.335013883e-10
5.077670014e-12
1.278921841e-13
1.23320297e-14
3.385785902e-15
1.25039619e-15
5.535566359e-16
2.643500374e-16
1.343751119e-16
7.195275124e-17
4.033997047e-17
2.365411104e-17
1.454633758e-17
9.401482393e-18
6.312444561e-18
4.8294233e-18
3.879414792e-18
3.13463211e-18
2.498117609e-18
1.942254665e-18
1.464492448e-18
1.066396631e-18
7.489700305e-19
5.074492398e-19
3.324344131e-19
2.112160127e-19
1.306627534e-19
7.90162416e-20
4.690709328e-20
2.745039499e-20
1.590345241e-20
9.163522963e-21
5.279595837e-21
3.059392896e-21
1.789792572e-21
1.054944537e-21
6.207265588e-22
3.597154136e-22
2.025219766e-22
1.096254655e-22
5.677848627e-23
2.819027684e-23
1.354972946e-23
6.432087546e-24
3.10875294e-24
1.584838164e-24
8.757848646e-25
5.281957236e-25
3.431296831e-25
2.349916203e-25
1.662724425e-25
1.195020974e-25
8.577622062e-26
6.01705803e-26
3.991244859e-26
2.362847833e-26
1.089049288e-26
2.376168774e-27
1.469352315e-28
1.017795452e-08
6.096026696e-10
1.866016254e-11
4.955442494e-13
2.333990558e-14
6.354139501e-15
2.815941705e-15
1.392891771e-15
7.270763061e-16
3.946857237e-16
2.21915734e-16
1.294004695e-16
7.850510325e-17
4.974907084e-17
3.304261596e-17
2.297393222e-17
1.651227737e-17
1.28830769e-17
1.046065717e-17
8.509353674e-18
6.783168824e-18
5.239547389e-18
3.899501985e-18
2.79433617e-18
1.930334013e-18
1.289108148e-18
8.336974991e-19
5.232873549e-19
3.195735599e-19
1.905715787e-19
1.114983683e-19
6.438530843e-20
3.694622655e-20
2.121893733e-20
1.228245871e-20
7.200196554e-21
4.264549075e-21
2.522666673e-21
1.467629572e-21
8.272506119e-22
4.464352534e-22
2.292597142e-22
1.120140053e-22
5.2438451e-23
2.393988992e-23
1.098399233e-23
5.265038907e-24
2.734039823e-24
1.566381505e-24
9.834163078e-25
6.613269049e-25
4.64483812e-25
3.333927718e-25
2.397324223e-25
1.68785718e-25
1.125707623e-25
6.707077288e-26
3.100945391e-26
6.432957101e-27
4.088968315e-28
1.571704036e-07
1.382541666e-08
6.814804902e-10
2.135084981e-11
7.091467602e-13
6.521092422e-14
1.505504274e-14
5.017615721e-15
2.054553049e-15
9.734181596e-16
5.120624956e-16
2.914710063e-16
1.765857057e-16
1.131200797e-16
7.650021216e-17
5.452812215e-17
4.072509398e-17
3.153313954e-17
2.574744134e-17
2.171875507e-17
1.830314727e-17
1.509657008e-17
1.203560052e-17
9.213923601e-18
6.752576827e-18
4.738889159e-18
3.187380966e-18
2.062226193e-18
1.289944359e-18
7.839616498e-19
4.647779486e-19
2.701350754e-19
1.549313196e-19
8.838138663e-20
5.052276125e-20
2.91146357e-20
1.694401081e-20
9.873032632e-21
5.675013894e-21
3.171526917e-21
1.701724392e-21
8.687295491e-22
4.204411537e-22
1.93434765e-22
8.570397206e-23
3.757340424e-23
1.694430385e-23
8.19636088e-24
4.385805872e-24
2.611594149e-24
1.699335279e-24
1.174221968e-24
8.381590724e-25
6.030261212e-25
4.263198056e-25
2.863033331e-25
1.721353302e-25
8.013872016e-26
1.618310475e-26
1.062578067e-27
4.079289174e-07
4.30061553e-08
3.708259883e-09
1.793156199e-10
5.646676139e-12
3.133039042e-13
4.578859552e-14
1.215368263e-14
4.330417652e-15
1.904810436e-15
9.516616632e-16
5.255658356e-16
3.148688421e-16
2.023620785e-16
1.386525479e-16
1.007964842e-16
7.724378551e-17
6.177896036e-17
5.089129441e-17
4.361533042e-17
3.821500985e-17
3.333373517e-17
2.848549535e-17
2.360242835e-17
1.88291431e-17
1.438733952e-17
1.048957021e-17
7.291204031e-18
4.837992095e-18
3.076211037e-18
1.881598583e-18
1.115446119e-18
6.468633244e-19
3.702427341e-19
2.105182804e-19
1.192780823e-19
6.746535941e-20
3.803633163e-20
2.118265252e-20
1.152566648e-20
6.07387864e-21
3.076431153e-21
1.485040703e-21
6.797258329e-22
2.96250103e-22
1.257588201e-22
5.391637954e-23
2.434434742e-23
1.204443855e-23
6.677671366e-24
4.12646983e-24
2.76761831e-24
1.949854271e-24
1.399442268e-24
9.934434852e-25
6.728921878e-25
4.094042469e-25
1.928788821e-25
3.882375424e-26
2.67037013e-27
4.145173158e-07
5.184558039e-08
6.207468582e-09
5.006043612e-10
2.397909377e-11
1.003032638e-12
9.073394743e-14
1.859368188e-14
6.207604009e-15
2.719636604e-15
1.37405462e-15
7.692374577e-16
4.678137656e-16
3.060016675e-16
2.140715733e-16
1.593568809e-16
1.253746005e-16
1.032641583e-16
8.79612255e-17
7.635659172e-17
6.847048767e-17
6.19717199e-17
5.551078193e-17
4.864416711e-17
4.139959385e-17
3.404496196e-17
2.694347114e-17
2.044009942e-17
1.481575618e-17
1.023238053e-17
6.727355707e-18
4.223223381e-18
2.547863071e-18
1.490469568e-18
8.532293649e-19
4.81220253e-19
2.67411282e-19
1.462017225e-19
7.83718283e-20
4.106157261e-20
2.089664909e-20
1.030137516e-20
4.912894653e-21
2.255185355e-21
9.868603153e-22
4.138555595e-22
1.714292556e-22
7.304891418e-23
3.341837672e-23
1.701714706e-23
9.781109882e-24
6.248541883e-24
4.290103018e-24
3.050941548e-24
2.169607977e-24
1.483249043e-24
9.159676626e-25
4.398272576e-25
9.028283142e-26
6.698317585e-27
3.352687295e-07
4.759862322e-08
8.017397256e-09
9.703502063e-10
7.25402596e-11
3.512917653e-12
2.09578207e-13
2.880954556e-14
8.446499845e-15
3.546372837e-15
1.795374227e-15
1.019533317e-15
6.30483392e-16
4.200126433e-16
3.000819442e-16
2.289058677e-16
1.850980458e-16
1.570251793e-16
1.380602552e-16
1.242274619e-16
1.131748479e-16
1.053245438e-16
9.770192966e-17
8.909916235e-17
7.926484997e-17
6.845909696e-17
5.720217289e-17
4.610686409e-17
3.575209288e-17
2.660027305e-17
1.894571157e-17
1.288860407e-17
8.368629958e-18
5.195632261e-18
3.101448132e-18
1.790983703e-18
1.002991606e-18
5.439543297e-19
2.855643879e-19
1.453045917e-19
7.173911308e-20
3.431178346e-20
1.590245397e-20
7.164621569e-21
3.14056305e-21
1.331437832e-21
5.476056894e-22
2.243033518e-22
9.564481776e-23
4.450806592e-23
2.338200503e-23
1.391947347e-23
9.144570249e-24
6.367274529e-24
4.507602567e-24
3.104560761e-24
1.950457724e-24
9.624460819e-25
2.063930227e-25
1.747900506e-26
1.226859052e-06
1.84010204e-07
2.883523539e-08
4.101307816e-09
4.63801914e-10
3.359134035e-11
1.691137926e-12
1.314729891e-13
2.193052019e-14
6.509391138e-15
2.696205009e-15
1.388598222e-15
8.264872343e-16
5.468008212e-16
3.950201375e-16
3.085401425e-16
2.574330926e-16
2.260934957e-16
2.058690653e-16
1.915610381e-16
1.794581789e-16
1.715178009e-16
1.637328495e-16
1.53878844e-16
1.41304966e-16
1.26232148e-16
1.093780069e-16
9.170861721e-17
7.424794494e-17
5.792548908e-17
4.346249109e-17
3.130566226e-17
2.161164973e-17
1.428402311e-17
9.037380035e-18
5.479828572e-18
3.188047266e-18
1.779877962e-18
9.529101594e-19
4.878588688e-19
2.394091936e-19
1.131000019e-19
5.160425841e-20
2.280767376e-20
9.817372992e-21
4.138269937e-21
1.709492539e-21
6.948858693e-22
2.83822573e-22
1.218131403e-22
5.792538532e-23
3.146872027e-23
1.935226838e-23
1.297037685e-23
9.041516425e-24
6.240142346e-24
3.990021332e-24
2.040604668e-24
4.706506912e-25
5.180210277e-26
4.083526115e-06
6.363246293e-07
9.627350292e-08
1.488419176e-08
1.977997064e-09
2.212035897e-10
1.657430939e-11
9.803768771e-13
8.761568025e-14
1.493174362e-14
4.457237569e-15
1.886234936e-15
1.017621838e-15
6.574336607e-16
4.820557312e-16
3.924256111e-16
3.434571887e-16
3.161216038e-16
3.002727749e-16
2.899658097e-16
2.808396626e-16
2.760350544e-16
2.696084716e-16
2.587309071e-16
2.425255082e-16
2.213045511e-16
1.961272964e-16
1.684920343e-16
1.400803778e-16
1.125221398e-16
8.719507555e-17
6.508590551e-17
4.673039766e-17
3.223403639e-17
2.134224681e-17
1.355289093e-17
8.247487691e-18
4.802480556e-18
2.670505556e-18
1.417145755e-18
7.169323768e-19
3.463279324e-19
1.599980168e-19
7.082310397e-20
3.028281812e-20
1.260390251e-20
5.138524456e-21
2.072447958e-21
8.351949515e-22
3.433109825e-22
1.50275336e-22
7.373329457e-23
4.14905802e-23
2.620523124e-23
1.772001784e-23
1.214877475e-23
7.88942173e-24
4.221161596e-24
1.092115315e-24
1.548964108e-25
4.53767465e-06
8.242174535e-07
1.405063639e-07
2.510619115e-08
4.031056353e-09
5.452028518e-10
6.366789054e-11
4.994104134e-12
3.192573406e-13
2.981795058e-14
5.912683516e-15
2.067834514e-15
1.065964867e-15
7.090220534e-16
5.538950109e-16
4.86400975e-16
4.569649381e-16
4.461978119e-16
4.436930693e-16
4.423626104e-16
4.461227137e-16
4.473877352e-16
4.41758075e-16
4.272810019e-16
4.036259952e-16
3.715827885e-16
3.327676137e-16
2.89387194e-16
2.4399686e-16
1.991637567e-16
1.57144687e-16
1.197011195e-16
8.795038457e-17
6.22885465e-17
4.249529572e-17
2.790513886e-17
1.761812847e-17
1.067861242e-17
6.199884714e-18
3.438798334e-18
1.81713425e-18
9.125023169e-19
4.357971797e-19
1.984308001e-19
8.655567874e-20
3.635173217e-20
1.47870855e-20
5.882118352e-21
2.323703334e-21
9.29846508e-22
3.882182114e-22
1.763515083e-22
9.068743912e-23
5.312956003e-23
3.430018483e-23
2.311334074e-23
1.517125014e-23
8.557100358e-24
2.68557211e-24
4.612576725e-25
3.849291333e-06
7.988191063e-07
1.550096242e-07
3.09507264e-08
6.040037176e-09
1.009978364e-09
1.429700449e-10
1.737529713e-11
1.432369803e-12
9.243537829e-14
9.988439208e-15
2.334914947e-15
1.06931945e-15
7.495425581e-16
6.526285571e-16
6.314592593e-16
6.384236688e-16
6.530142051e-16
6.759844827e-16
6.950152868e-16
7.054964424e-16
7.044639031e-16
6.904927427e-16
6.634120566e-16
6.240228527e-16
5.739039129e-16
5.152367928e-16
4.5066749e-16
3.831679579e-16
3.160057094e-16
2.52354245e-16
1.947671859e-16
1.45082214e-16
1.042996939e-16
7.238394953e-17
4.848620309e-17
3.135527782e-17
1.956488462e-17
1.175826326e-17
6.788013645e-18
3.752203441e-18
1.978970431e-18