/*--------------------------------*- C++ -*----------------------------------*\
  =========                 |
  \\      /  F ield         | OpenFOAM: The Open Source CFD Toolbox
   \\    /   O peration     | Website:  https://openfoam.org
    \\  /    A nd           | Version:  10
     \\/     M anipulation  |
\*---------------------------------------------------------------------------*/
FoamFile
{
    format      ascii;
    class       volScalarField;
    location    "3000";
    object      HCN;
}
// * * * * * * * * * * * * * * * * * * * * * * * * * * * * * * * * * * * * * //

dimensions      [0 0 0 0 0 0 0];

internalField   nonuniform List<scalar> 
5170
(
1.882439529e-63
1.517096485e-63
9.389834248e-64
4.634961778e-64
3.701260301e-64
6.459106522e-61
5.147310833e-61
3.130013741e-61
1.809699214e-61
3.224348929e-61
2.243722599e-58
1.77376755e-58
1.072867457e-58
8.445709329e-59
2.568917799e-58
7.951950836e-56
6.277226031e-56
3.915120138e-56
4.396365824e-56
1.876336699e-55
2.870116563e-53
2.28492222e-53
1.527433424e-53
2.42337197e-53
1.276232832e-52
1.057915629e-50
8.603388268e-51
6.313112717e-51
1.373186022e-50
8.175983151e-50
3.972672907e-48
3.32978884e-48
2.794492685e-48
7.892331698e-48
5.036888912e-47
1.515868639e-45
1.324385636e-45
1.326783429e-45
4.574129856e-45
3.017511077e-44
5.888359627e-43
5.470049132e-43
6.589353706e-43
2.663188316e-42
1.766299405e-41
2.331380099e-40
2.342696661e-40
3.380864668e-40
1.559078466e-39
1.013917794e-38
9.388854452e-38
1.036538199e-37
1.780443019e-37
9.158214564e-37
5.728349736e-36
3.832132284e-35
4.726434319e-35
9.638100937e-35
5.396540206e-34
3.199106255e-33
1.581538883e-32
2.211332958e-32
5.393920847e-32
3.220645477e-31
1.775581294e-30
6.564630037e-30
1.055686075e-29
3.104625306e-29
1.959199446e-28
9.864185641e-28
2.737505857e-27
5.120557698e-27
1.82269275e-26
1.217738411e-25
5.526185399e-25
1.133195988e-24
2.495859529e-24
1.075809116e-23
7.526858934e-23
3.140509456e-22
4.650323209e-22
1.224434372e-21
6.244336395e-21
4.586668886e-20
1.81585868e-19
1.854571821e-19
5.941937838e-19
3.561097555e-18
2.693226492e-17
1.061544289e-16
6.884290249e-17
2.785215451e-16
1.92796938e-15
1.478979733e-14
6.222766721e-14
2.209302437e-14
1.269644671e-13
1.015650831e-12
7.374691293e-12
3.644850978e-11
1.917616095e-14
1.330270838e-14
1.128596534e-14
1.466780607e-14
1.939577034e-14
1.953327188e-14
1.670221475e-14
1.536737876e-14
1.729645078e-14
1.929124508e-14
1.666206284e-14
1.551981612e-14
1.455001811e-14
1.576280137e-14
1.594270152e-14
1.384405989e-14
1.386765949e-14
1.340658136e-14
1.392729004e-14
1.29367632e-14
1.15416437e-14
1.226111256e-14
1.212895922e-14
1.213021515e-14
1.054155826e-14
9.730699935e-15
1.077782083e-14
1.084138919e-14
1.045174506e-14
8.655358811e-15
8.301377013e-15
9.447975087e-15
9.595100382e-15
8.923915196e-15
7.170203511e-15
7.154602466e-15
8.269784065e-15
8.426410356e-15
7.58009516e-15
6.010456538e-15
6.225492892e-15
7.237600856e-15
7.360351979e-15
6.457532076e-15
5.126513149e-15
5.467529194e-15
6.346331894e-15
6.420869179e-15
5.555577403e-15
4.461472496e-15
4.848304144e-15
5.589403844e-15
5.619736318e-15
4.843930718e-15
3.958554582e-15
4.341028593e-15
4.955373164e-15
4.9531673e-15
4.284983837e-15
3.571108172e-15
3.923830239e-15
4.429267444e-15
4.405995586e-15
3.843328836e-15
3.265167043e-15
3.57807155e-15
3.993500961e-15
3.958669961e-15
3.489771799e-15
3.016746837e-15
3.289073787e-15
3.632224622e-15
3.592009482e-15
3.20175385e-15
2.809104271e-15
3.068926124e-15
3.339658566e-15
3.292518321e-15
2.963339558e-15
2.63010413e-15
6.728935366e-15
4.510812013e-15
3.501380119e-15
2.916102114e-15
2.523934871e-15
5.930659653e-13
2.133303136e-13
6.388602783e-14
2.007044777e-14
7.423827466e-15
8.434719818e-11
2.963715246e-11
7.12858001e-12
1.639116807e-12
4.065718989e-13
1.042153954e-08
4.012629204e-09
6.506449418e-10
1.137448785e-10
2.423231694e-11
8.58862941e-13
6.821349912e-12
1.067281284e-10
1.60882876e-09
2.11961289e-08
4.955274163e-12
3.462371368e-11
4.38883221e-10
4.855965137e-09
3.917295968e-08
1.831569652e-11
1.155021956e-10
1.245795304e-09
1.114728373e-08
6.779368855e-08
7.567434393e-11
4.837751345e-10
5.158861897e-09
4.521580177e-08
2.7391733e-07
2.909573571e-10
1.799150113e-09
1.711430687e-08
1.240560367e-07
5.883254082e-07
9.609749046e-10
5.430617236e-09
4.338238178e-08
2.475894854e-07
8.992003696e-07
2.844888758e-09
1.449992169e-08
9.435342009e-08
4.104290276e-07
1.158739673e-06
7.568270684e-09
3.466705155e-08
1.793993101e-07
6.100932518e-07
1.451250965e-06
1.822005662e-08
7.364256464e-08
3.019980229e-07
8.389934207e-07
1.770476849e-06
4.000665544e-08
1.395514998e-07
4.599593102e-07
1.084183792e-06
2.066052872e-06
8.276317678e-08
2.382519366e-07
6.42068206e-07
1.326974108e-06
2.311907888e-06
1.546908286e-07
3.673370181e-07
8.406076353e-07
1.571293411e-06
2.561191188e-06
2.654051717e-07
5.294988741e-07
1.059829793e-06
1.830393544e-06
2.839496109e-06
4.28941936e-07
7.321271147e-07
1.305827433e-06
2.105376879e-06
3.122059078e-06
6.636561256e-07
9.849566047e-07
1.580537717e-06
2.384877405e-06
3.373438938e-06
9.819916485e-07
1.297559903e-06
1.885836743e-06
2.665009492e-06
3.594494405e-06
1.387495995e-06
1.679128477e-06
2.235408178e-06
2.972216866e-06
3.844923343e-06
1.871300839e-06
2.133737501e-06
2.650977487e-06
3.350874979e-06
4.196058306e-06
2.430788784e-06
2.6678198e-06
3.150642471e-06
3.824425461e-06
4.661822824e-06
3.058543104e-06
3.276086607e-06
3.729934039e-06
4.378444513e-06
5.198476741e-06
3.738855598e-06
3.938562004e-06
4.360819028e-06
4.970745407e-06
5.743815756e-06
4.442253212e-06
4.62275296e-06
5.006290667e-06
5.561207246e-06
6.261313992e-06
5.143504525e-06
5.303182472e-06
5.643528862e-06
6.136945892e-06
6.759218664e-06
5.834757522e-06
5.975796443e-06
6.278186209e-06
6.720068619e-06
7.28396139e-06
6.534574535e-06
6.663315048e-06
6.941567479e-06
7.353983867e-06
7.891170458e-06
7.284451715e-06
7.408239373e-06
7.678018186e-06
8.084052911e-06
8.623968791e-06
8.133489584e-06
8.258467443e-06
8.532765825e-06
8.949925561e-06
9.511939855e-06
9.125421062e-06
9.255544391e-06
9.541957639e-06
9.979709864e-06
1.057256753e-05
1.028975353e-05
1.042652677e-05
1.072795889e-05
1.118898943e-05
1.181296322e-05
1.164052835e-05
1.178393174e-05
1.209969135e-05
1.258173982e-05
1.323220383e-05
1.318399284e-05
1.333302944e-05
1.366084548e-05
1.416014144e-05
1.483146001e-05
1.49397282e-05
1.509423247e-05
1.543375823e-05
1.59499491e-05
1.66421805e-05
1.698081259e-05
1.714311921e-05
1.749960981e-05
1.804070293e-05
1.876481767e-05
1.947156585e-05
1.964621914e-05
2.002935776e-05
2.060987664e-05
2.138328412e-05
2.266299697e-05
2.285144815e-05
2.326342103e-05
2.388287907e-05
2.469785165e-05
2.678036471e-05
2.697143396e-05
2.738507463e-05
2.799537502e-05
2.877472293e-05
3.166348845e-05
3.182214762e-05
3.215870034e-05
3.263565258e-05
3.320516364e-05
3.638318996e-05
3.645769005e-05
3.660360145e-05
3.677501802e-05
3.690438334e-05
3.945168308e-05
3.938579133e-05
3.921685751e-05
3.889198777e-05
3.832025332e-05
3.887083155e-05
3.858855076e-05
3.793544624e-05
3.685232759e-05
3.522688814e-05
3.103382492e-05
3.04803564e-05
2.925602592e-05
2.739053012e-05
2.492941103e-05
1.694484327e-05
1.653564137e-05
1.567024039e-05
1.44458734e-05
1.29677998e-05
7.620466197e-06
7.449701073e-06
7.090008512e-06
6.58365232e-06
5.974076557e-06
3.27830965e-06
3.21544674e-06
3.082312479e-06
2.893026262e-06
2.661871443e-06
1.409901819e-06
1.38687407e-06
1.337826426e-06
1.267210862e-06
1.179677482e-06
6.118146239e-07
6.031465586e-07
5.845957855e-07
5.577182679e-07
5.240485207e-07
2.681354078e-07
2.647993314e-07
2.576375285e-07
2.472025988e-07
2.340221673e-07
1.187589071e-07
1.174512873e-07
1.146376228e-07
1.10520319e-07
1.052879124e-07
5.328110471e-08
5.276255847e-08
5.164493134e-08
5.00042975e-08
4.791030018e-08
2.435170493e-08
2.414615315e-08
2.370283177e-08
2.305098278e-08
2.221732853e-08
1.1528505e-08
1.144654541e-08
1.12721795e-08
1.101112984e-08
1.067927981e-08
5.716517573e-09
5.684249697e-09
5.614623039e-09
5.51197404e-09
5.380312055e-09
3.039948612e-09
3.029488668e-09
3.007131055e-09
2.974773562e-09
2.934383468e-09
1.798438702e-09
1.797220779e-09
1.794861403e-09
1.79208157e-09
1.789830129e-09
1.234747034e-09
1.237860029e-09
1.244901837e-09
1.256106896e-09
1.272051455e-09
1.011290448e-09
1.016790872e-09
1.029029172e-09
1.047997958e-09
1.074101262e-09
9.761611586e-10
9.832139365e-10
9.98833808e-10
1.022857729e-09
1.055576771e-09
1.058886008e-09
1.06703871e-09
1.085050881e-09
1.112638396e-09
1.149994933e-09
1.223831696e-09
1.232743993e-09
1.252401726e-09
1.282421558e-09
1.322906467e-09
1.449709203e-09
1.459068609e-09
1.479686594e-09
1.511102458e-09
1.553337693e-09
1.720835773e-09
1.73034663e-09
1.751277626e-09
1.783114559e-09
1.825810948e-09
2.023851798e-09
2.033247613e-09
2.053909445e-09
2.085293778e-09
2.127302214e-09
2.346611351e-09
2.355668707e-09
2.375574118e-09
2.405777076e-09
2.446143685e-09
2.678446342e-09
2.686994106e-09
2.705770732e-09
2.734237336e-09
2.772239227e-09
3.009849158e-09
3.017767604e-09
3.035155291e-09
3.061499195e-09
3.096635942e-09
3.333539706e-09
3.340757977e-09
3.356603613e-09
3.380599248e-09
3.41258189e-09
3.642784103e-09
3.649268853e-09
3.663500772e-09
3.685044245e-09
3.713743263e-09
3.933710417e-09
3.939463734e-09
3.952088117e-09
3.971192326e-09
3.996631143e-09
4.198983088e-09
4.204030516e-09
4.215104006e-09
4.231857206e-09
4.254158549e-09
4.415844464e-09
4.420298133e-09
4.430068574e-09
4.444848536e-09
4.464519464e-09
7.46158736e-08
1.073263348e-07
1.766667762e-07
8.286555553e-07
1.445246804e-06
1.806078626e-06
1.99018443e-06
2.327770619e-06
2.693434378e-06
2.962521245e-06
3.139397934e-06
3.370220453e-06
3.659167223e-06
3.929218298e-06
4.128459727e-06
4.28061952e-06
4.488548304e-06
4.83932014e-06
5.317562369e-06
5.845063509e-06
6.347602235e-06
6.801262782e-06
7.238317577e-06
7.725552428e-06
8.323740659e-06
9.069577743e-06
9.98216615e-06
1.107029436e-05
1.233561593e-05
1.377460383e-05
1.53885361e-05
1.721418616e-05
1.936089411e-05
2.201550306e-05
2.535127275e-05
2.937183947e-05
3.35951664e-05
3.689663779e-05
3.769150899e-05
3.370326542e-05
2.299894471e-05
1.1903443e-05
5.534034752e-06
2.491878556e-06
1.114165984e-06
4.984984647e-07
2.239173828e-07
1.012456169e-07
4.628407203e-08
2.156798932e-08
1.041569227e-08
5.281838721e-09
2.904072418e-09
1.789489448e-09
1.286202998e-09
1.096396783e-09
1.083172992e-09
1.181277122e-09
1.35663492e-09
1.588385424e-09
1.861131353e-09
2.161968769e-09
2.479392136e-09
2.803493979e-09
3.125501605e-09
3.438833468e-09
3.737283997e-09
4.017486529e-09
4.272434987e-09
4.480636202e-09
1.781829174e-07
5.659137724e-07
4.351453432e-08
4.852395286e-09
8.780091324e-10
2.482223842e-07
7.046197905e-07
1.255765846e-07
1.447062936e-08
4.362975944e-09
4.210940636e-07
1.405020624e-06
4.425256269e-06
3.386019939e-07
7.022098471e-08
2.210888922e-06
9.07275608e-06
2.993525868e-05
2.540092374e-06
6.009549632e-07
3.28620544e-06
9.049505432e-06
1.591734712e-05
1.648236027e-06
3.136764885e-07
3.534131714e-06
7.100218095e-06
8.778657331e-06
1.581594478e-06
2.232533807e-07
3.449877279e-06
5.830122523e-06
7.121620159e-06
5.737963015e-06
7.469453978e-07
3.886901829e-06
7.379302063e-06
1.386046639e-05
2.849872371e-05
3.939976497e-06
4.299736848e-06
7.718303336e-06
1.240975209e-05
1.692397994e-05
3.133142097e-06
4.457454288e-06
7.141743055e-06
9.687452984e-06
1.032640296e-05
2.929505936e-06
4.469521373e-06
6.569397906e-06
8.31053909e-06
8.980553462e-06
6.346479181e-06
4.66948117e-06
6.936155056e-06
9.828986671e-06
1.430323962e-05
2.178099872e-05
4.976041174e-06
7.370412724e-06
1.042542254e-05
1.431711865e-05
1.834536946e-05
5.208295059e-06
7.405991673e-06
9.797832238e-06
1.191643597e-05
1.245436646e-05
5.301847653e-06
7.147634701e-06
8.86375052e-06
9.987664175e-06
9.753395702e-06
5.332599218e-06
6.903597786e-06
8.330816247e-06
9.448023393e-06
1.014282263e-05
5.478414181e-06
7.048254005e-06
8.795507171e-06
1.099742002e-05
1.429052192e-05
5.841102568e-06
7.594748912e-06
9.817827612e-06
1.285914599e-05
1.717280489e-05
6.343462717e-06
8.207763739e-06
1.053839927e-05
1.343013024e-05
1.677101338e-05
6.849892114e-06
8.644557314e-06
1.073410123e-05
1.301309043e-05
1.515555964e-05
7.274731192e-06
8.868882689e-06
1.058958758e-05
1.227576752e-05
1.364029735e-05
7.621435873e-06
8.991738472e-06
1.041124815e-05
1.17611319e-05
1.287938012e-05
7.963336648e-06
9.184121495e-06
1.048400698e-05
1.182847613e-05
1.31890186e-05
8.397323919e-06
9.586231131e-06
1.095701331e-05
1.255672283e-05
1.445722322e-05
8.988198394e-06
1.023799037e-05
1.177986946e-05
1.369896508e-05
1.608822491e-05
9.759041655e-06
1.111044935e-05
1.282752791e-05
1.498917447e-05
1.764766481e-05
1.0711527e-05
1.216589241e-05
1.40189177e-05
1.632093003e-05
1.906582942e-05
1.184145442e-05
1.338208129e-05
1.53266972e-05
1.769281176e-05
2.042010515e-05
1.314308297e-05
1.474785745e-05
1.674495534e-05
1.911942285e-05
2.175586046e-05
1.4609721e-05
1.625567886e-05
1.827078479e-05
2.060377185e-05
2.307229608e-05
1.624343787e-05
1.791338195e-05
1.991997158e-05
2.216802899e-05
2.438553102e-05
1.8089515e-05
1.978264649e-05
2.177588047e-05
2.392022365e-05
2.581981682e-05
2.027075597e-05
2.201179088e-05
2.401312016e-05
2.60509875e-05
2.755171067e-05
2.297675431e-05
2.478007526e-05
2.676483954e-05
2.857685605e-05
2.939257323e-05
2.633485178e-05
2.808348395e-05
2.979791785e-05
3.091386434e-05
3.027899047e-05
3.025052068e-05
3.162123861e-05
3.25747263e-05
3.230871289e-05
2.932897795e-05
3.413556065e-05
3.46433821e-05
3.421812076e-05
3.180458074e-05
2.582019917e-05
3.680855183e-05
3.586376248e-05
3.329582602e-05
2.793602172e-05
1.993986369e-05
3.663106669e-05
3.351272187e-05
2.811892971e-05
2.076783213e-05
1.400058397e-05
3.12835516e-05
2.579530194e-05
1.934974659e-05
1.354127888e-05
9.115327022e-06
2.015720523e-05
1.552115698e-05
1.135583721e-05
8.01635493e-06
5.527130809e-06
1.03762824e-05
8.068377498e-06
6.047460874e-06
4.406300535e-06
3.141623523e-06
4.9007426e-06
3.926020765e-06
3.043971907e-06
2.297124165e-06
1.6953674e-06
2.245462898e-06
1.852464018e-06
1.482207748e-06
1.155140997e-06
8.802374528e-07
1.018594162e-06
8.612569392e-07
7.077858064e-07
5.672265663e-07
4.447637729e-07
4.610362482e-07
3.977622195e-07
3.343064649e-07
2.744718597e-07
2.207741268e-07
2.090475179e-07
1.834245184e-07
1.571615179e-07
1.31817075e-07
1.085220801e-07
9.528075986e-08
8.484642366e-08
7.397211582e-08
6.328705706e-08
5.328547245e-08
4.388002125e-08
3.963059844e-08
3.515226634e-08
3.070005559e-08
2.648433833e-08
2.060716168e-08
1.889830421e-08
1.708337036e-08
1.524914398e-08
1.34973413e-08
1.00268165e-08
9.345539018e-09
8.612416158e-09
7.880970053e-09
7.184859923e-09
5.137665064e-09
4.88390124e-09
4.622250651e-09
4.365344419e-09
4.134052168e-09
2.859931622e-09
2.787381962e-09
2.720281366e-09
2.668394358e-09
2.642251528e-09
1.789891951e-09
1.798921914e-09
1.821890687e-09
1.865063598e-09
1.935247032e-09
1.308235895e-09
1.357553296e-09
1.425741884e-09
1.517266508e-09
1.637030392e-09
1.130611587e-09
1.202828933e-09
1.296910249e-09
1.416221724e-09
1.56440764e-09
1.125312064e-09
1.21236253e-09
1.323060645e-09
1.459909579e-09
1.625536497e-09
1.228906785e-09
1.326042955e-09
1.447724897e-09
1.595689952e-09
1.77167686e-09
1.407882672e-09
1.51142144e-09
1.639688523e-09
1.793736433e-09
1.974534448e-09
1.641552216e-09
1.748186026e-09
1.87914025e-09
2.03488249e-09
2.215744874e-09
1.914644218e-09
2.021353989e-09
2.151498198e-09
2.305073293e-09
2.481914124e-09
2.214438821e-09
2.318595251e-09
2.444934422e-09
2.59310177e-09
2.762572216e-09
2.529677118e-09
2.629142851e-09
2.749279444e-09
2.889492648e-09
3.049019799e-09
2.850735188e-09
2.943925748e-09
3.056112132e-09
3.186555048e-09
3.334355356e-09
3.169112074e-09
3.254958666e-09
3.358042138e-09
3.477554021e-09
3.612538184e-09
3.478479925e-09
3.556399589e-09
3.649782321e-09
3.757806015e-09
3.879514697e-09
3.772827821e-09
3.842595839e-09
3.926085688e-09
4.022502163e-09
4.130930668e-09
4.048967722e-09
4.110705756e-09
4.184500626e-09
4.269607656e-09
4.365176915e-09
4.300021465e-09
4.354077224e-09
4.418636609e-09
4.493023249e-09
4.576469066e-09
4.504960908e-09
4.552601617e-09
4.609468203e-09
4.674948909e-09
4.748350852e-09
1.086299574e-10
1.508984562e-11
2.809442569e-12
9.180815535e-13
4.808077735e-13
2.988111466e-13
1.936119215e-13
1.269249907e-13
8.322125167e-14
5.445998697e-14
3.550262582e-14
2.302427276e-14
1.482704041e-14
9.460807335e-15
5.969866976e-15
3.718599892e-15
2.283573676e-15
1.381046584e-15
8.21921972e-16
4.810585931e-16
2.767481625e-16
1.564183616e-16
8.681683254e-17
4.72958632e-17
2.528018612e-17
1.325506198e-17
6.817040509e-18
3.439250037e-18
1.702531699e-18
8.272737708e-19
3.94769996e-19
1.851374808e-19
8.542307045e-20
3.884595344e-20
1.745921345e-20
7.788324862e-21
3.467146272e-21
1.548640984e-21
6.960494382e-22
3.141910424e-22
1.413934383e-22
6.2752888e-23
2.715454493e-23
1.134686923e-23
4.548203857e-24
1.742520056e-24
6.375374893e-25
2.230268135e-25
7.481007697e-26
2.415846139e-26
7.548749809e-27
2.296564127e-27
6.857266492e-28
2.031137294e-28
6.049628742e-29
1.832835238e-29
5.571214457e-30
1.559082647e-30
2.910746745e-31
2.190708471e-32
9.760975085e-10
1.503418513e-10
3.234968769e-11
1.295868893e-11
7.432940447e-12
4.727041388e-12
2.993091465e-12
1.889373166e-12
1.171678817e-12
7.197942883e-13
4.362357452e-13
2.619351058e-13
1.559097463e-13
9.216815608e-14
5.415645905e-14
3.163548709e-14
1.836833784e-14
1.059230608e-14
6.060888273e-15
3.436602185e-15
1.928238604e-15
1.069202679e-15
5.85223832e-16
3.158152414e-16
1.678705926e-16
8.783013288e-17
4.521096468e-17
2.288994498e-17
1.139637906e-17
5.579078354e-18
2.685850154e-18
1.272168116e-18
5.934497515e-19
2.731533343e-19
1.244531403e-19
5.640093592e-20
2.557533708e-20
1.166300468e-20
5.35590189e-21
2.465906745e-21
1.127387149e-21
5.057042642e-22
2.200423785e-22
9.206648071e-23
3.684020859e-23
1.406637101e-23
5.126441324e-24
1.787377804e-24
5.983705014e-25
1.932158052e-25
6.049021245e-26
1.847139792e-26
5.541307037e-27
1.647832364e-27
4.907743009e-28
1.473375291e-28
4.373145655e-29
1.179983158e-29
2.256190189e-30
2.068154466e-31
1.56990916e-08
1.924757614e-09
2.681169554e-10
8.884200745e-11
4.959212429e-11
3.191395372e-11
2.055926551e-11
1.319449864e-11
8.278541395e-12
5.121107748e-12
3.097343823e-12
1.84133204e-12
1.073641056e-12
6.159031194e-13
3.479865942e-13
1.941998812e-13
1.073434812e-13
5.892265036e-14
3.219281698e-14
1.752276682e-14
9.500382122e-15
5.124830531e-15
2.746847929e-15
1.460539165e-15
7.692472384e-16
4.008529907e-16
2.064676729e-16
1.050236711e-16
5.272155035e-17
2.61032575e-17
1.274173076e-17
6.132512163e-18
2.912495647e-18
1.367510867e-18
6.371049561e-19
2.961432775e-19
1.381922154e-19
6.499388661e-20
3.076500568e-20
1.454249791e-20
6.78173652e-21
3.08005004e-21
1.347749613e-21
5.640194594e-22
2.248953172e-22
8.539845805e-23
3.094580321e-23
1.074213622e-23
3.589179116e-24
1.160200844e-24
3.647109793e-25
1.120871753e-25
3.387217328e-26
1.012723542e-26
3.011421402e-27
8.888492328e-28
2.531265195e-28
6.358455643e-29
1.145996047e-29
1.052720968e-30
1.580362303e-07
2.32720076e-08
2.256455181e-09
4.574591405e-10
2.282283778e-10
1.454305909e-10
9.54512231e-11
6.223159996e-11
3.99373757e-11
2.52250802e-11
1.561952022e-11
9.490028519e-12
5.644891513e-12
3.290909706e-12
1.878477687e-12
1.051549567e-12
5.777044968e-13
3.123792673e-13
1.666905816e-13
8.809263872e-14
4.624194901e-14
2.416208995e-14
1.257973404e-14
6.527583603e-15
3.374501716e-15
1.736340494e-15
8.882264899e-16
4.511587202e-16
2.272608915e-16
1.134168402e-16
5.603911023e-17
2.74069648e-17
1.327410787e-17
6.378033616e-18
3.051570895e-18
1.461919753e-18
7.050863568e-19
3.429299368e-19
1.673867847e-19
8.110650421e-20
3.848217186e-20
1.765089381e-20
7.752034696e-21
3.240672651e-21
1.286695541e-21
4.857831359e-22
1.750555758e-22
6.053511997e-23
2.020728676e-23
6.549228846e-24
2.071729542e-24
6.425126694e-25
1.960836183e-25
5.904381413e-26
1.752605007e-26
5.067104724e-27
1.372047402e-27
3.149948358e-28
5.131473378e-29
4.444918181e-30
1.485848723e-07
4.172838479e-08
7.17847962e-09
1.512722023e-09
7.234038301e-10
4.633716638e-10
3.117863959e-10
2.093074956e-10
1.391632539e-10
9.14155535e-11
5.915898429e-11
3.76611e-11
2.352696269e-11
1.441249792e-11
8.639289415e-12
5.067367987e-12
2.904309799e-12
1.627921599e-12
8.921921994e-13
4.791523693e-13
2.525710409e-13
1.311395782e-13
6.726126804e-14
3.419616047e-14
1.727951029e-14
8.696852087e-15
4.364199347e-15
2.183759776e-15
1.088945683e-15
5.406454543e-16
2.670221939e-16
1.311262556e-16
6.404630396e-17
3.11735857e-17
1.518153549e-17
7.43779365e-18
3.680306966e-18
1.836476445e-18
9.164615823e-19
4.513499858e-19
2.162711876e-19
9.963507604e-20
4.377322238e-20
1.825841563e-20
7.224151925e-21
2.717722718e-21
9.768155694e-22
3.375078229e-22
1.128383177e-22
3.672493516e-23
1.169559227e-23
3.65854873e-24
1.126533275e-24
3.412745605e-25
1.010257061e-25
2.860269248e-26
7.361880797e-27
1.541913829e-27
2.227638679e-28
1.779924759e-29
1.146123425e-07
5.371911213e-08
1.635707878e-08
4.040928758e-09
1.768200578e-09
1.108607096e-09
7.584890724e-10
5.246714628e-10
3.624268838e-10
2.489646293e-10
1.695065336e-10
1.140599187e-10
7.566140725e-11
4.938594354e-11
3.164507082e-11
1.987537918e-11
1.221205162e-11
7.332148318e-12
4.29362413e-12
2.451923489e-12
1.364446066e-12
7.409163703e-13
3.927839592e-13
2.037695204e-13
1.036662613e-13
5.191743124e-14
2.568376879e-14
1.259693119e-14
6.142945515e-15
2.985025624e-15
1.4472726e-15
7.006519165e-16
3.390054453e-16
1.643133787e-16
8.014342597e-17
3.954782771e-17
1.979022423e-17
9.996003831e-18
5.038378105e-18
2.496086911e-18
1.19748557e-18
5.501116083e-19
2.40351311e-19
9.958311543e-20
3.915909188e-20
1.467472261e-20
5.272189026e-21
1.827455385e-21
6.147539239e-22
2.01725247e-22
6.483217776e-23
2.046621563e-23
6.352047324e-24
1.933018251e-24
5.70464168e-25
1.586679711e-25
3.912957716e-26
7.577548874e-27
9.732229897e-28
7.070325939e-29
1.989482519e-07
1.048198781e-07
4.207048855e-08
1.227646454e-08
3.994852725e-09
2.151361969e-09
1.431826367e-09
1.00446956e-09
7.142943962e-10
5.089939606e-10
3.615789995e-10
2.552767354e-10
1.786916453e-10
1.237679475e-10
8.466540044e-11
5.70844399e-11
3.784458826e-11
2.461030988e-11
1.565687088e-11
9.72642745e-12
5.888100348e-12
3.469462667e-12
1.986634919e-12
1.104891818e-12
5.965982492e-13
3.13220873e-13
1.601000934e-13
7.987817048e-14
3.902343031e-14
1.875089923e-14
8.905319187e-15
4.201406864e-15
1.97880906e-15
9.35238914e-16
4.464775073e-16
2.169329196e-16
1.07591353e-16
5.409259897e-17
2.718299774e-17
1.342179511e-17
6.406406905e-18
2.922744101e-18
1.265932597e-18
5.191690138e-19
2.020488164e-19
7.51304558e-20
2.691896079e-20
9.361694163e-21
3.176375e-21
1.054849422e-21
3.435071495e-22
1.097798012e-22
3.440424446e-23
1.052425326e-23
3.099870547e-24
8.510836953e-25
2.034804377e-25
3.719316483e-26
4.324313944e-27
2.837346105e-28
6.456937081e-07
2.670699248e-07
1.159288387e-07
3.799889724e-08
1.040885546e-08
4.066459396e-09
2.368185836e-09
1.617055819e-09
1.158430969e-09
8.427010714e-10
6.152494836e-10
4.484334778e-10
3.253675489e-10
2.345804644e-10
1.678228752e-10
1.189874834e-10
8.349169323e-11
5.78948195e-11
3.959187533e-11
2.663244165e-11
1.756865072e-11
1.132783833e-11
7.113834466e-12
4.338900548e-12
2.564849696e-12
1.467553146e-12
8.118498169e-13
4.340321222e-13
2.243286045e-13
1.123221908e-13
5.464173146e-14
2.594635339e-14
1.210613143e-14
5.599131967e-15
2.59273529e-15
1.216197518e-15
5.836011277e-16
2.85683678e-16
1.40650902e-16
6.842577761e-17
3.233462248e-17
1.463775908e-17
6.293760933e-18
2.559776758e-18
9.864284035e-19
3.633179055e-19
1.294045716e-19
4.499586035e-20
1.535990147e-20
5.158071769e-21
1.703542971e-21
5.524695488e-22
1.753791787e-22
5.411635187e-23
1.597509927e-23
4.359196509e-24
1.024453663e-24
1.807320974e-25
1.938124457e-26
1.139723907e-27
5.157133408e-07
2.341993984e-07
1.365862903e-07
6.401970715e-08
2.158379263e-08
7.35271171e-09
3.665374438e-09
2.358056721e-09
1.67567028e-09
1.231825942e-09
9.161703386e-10
6.833361651e-10
5.090026191e-10
3.777997478e-10
2.790313366e-10
2.048510248e-10
1.493471463e-10
1.080156801e-10
7.740919892e-11
5.488618057e-11
3.843073147e-11
2.651278283e-11
1.797584926e-11
1.193691189e-11
7.733058887e-12
4.868495895e-12
2.965965071e-12
1.742742823e-12
9.856667785e-13
5.362088524e-13
2.805105871e-13
1.412612043e-13
6.870357875e-14
3.247788384e-14
1.505572173e-14
6.917084758e-15
3.191065571e-15
1.492865098e-15
7.046102827e-16
3.309981269e-16
1.526848352e-16
6.832302044e-17
2.927624913e-17
1.189119975e-17
4.560023645e-18
1.666705573e-18
5.894200578e-19
2.039996384e-19
6.958573671e-20
2.346411831e-20
7.818944138e-21
2.567367139e-21
8.261539253e-22
2.580056374e-22
7.677734791e-23
2.09979879e-23
4.915993183e-24
8.560642804e-25
8.756457994e-26
4.70054843e-27
4.895869425e-07
1.776908767e-07
1.244155647e-07
7.520804045e-08
3.494533205e-08
1.281557236e-08
5.593416694e-09
3.31556972e-09
2.295377201e-09
1.68660666e-09
1.267328128e-09
9.603209655e-10
7.293023082e-10
5.53328955e-10
4.186453669e-10
3.154809487e-10
2.365735923e-10
1.763887985e-10
1.306518814e-10
9.604469929e-11
6.997241324e-11
5.046303731e-11
3.595158172e-11
2.524215151e-11
1.741725587e-11
1.177385732e-11
7.771751822e-12
4.99006658e-12
3.102984807e-12
1.860517091e-12
1.071229154e-12
5.906716487e-13
3.118090832e-13
1.579331112e-13
7.710384348e-14
3.650722664e-14
1.687591804e-14
7.686912472e-15
3.475500886e-15
1.560285073e-15
6.901427631e-16
2.988217119e-16
1.260869404e-16
5.13845309e-17
1.991517954e-17
7.304508654e-18
2.573361875e-18
8.852207108e-19
3.001900569e-19
1.007997492e-19
3.356784677e-20
1.106970497e-20
3.594153856e-21
1.135455148e-21
3.418520481e-22
9.447603452e-23
2.231519079e-23
3.917930733e-24
3.973740254e-25
2.011552741e-26
1.072473404e-06
2.573061878e-07
1.494247196e-07
9.560933949e-08
5.309638886e-08
2.299090707e-08
9.236996155e-09
4.775203774e-09
3.109498078e-09
2.24543265e-09
1.68754762e-09
1.2894157e-09
9.920213286e-10
7.648094169e-10
5.892730615e-10
4.530011937e-10
3.470831241e-10
2.647840415e-10
2.010846068e-10
1.518862891e-10
1.139723978e-10
8.484825798e-11
6.256894968e-11
4.561877102e-11
3.281494575e-11
2.323276374e-11
1.614717303e-11
1.098591666e-11
7.293565479e-12
4.708635831e-12
2.945381822e-12
1.777966839e-12
1.031302168e-12
5.729115013e-13
3.044965548e-13
1.55062056e-13
7.583035515e-14
3.566351314e-14
1.617609794e-14
7.116349593e-15
3.055123825e-15
1.280218899e-15
5.230372819e-16
2.085758337e-16
8.104588058e-17
3.033975045e-17
1.084794981e-17
3.730458237e-18
1.253550837e-18
4.16422665e-19
1.374614181e-19
4.510110108e-20
1.464374869e-20
4.652131543e-21
1.415343624e-21
3.968684117e-22
9.557108334e-23
1.721372122e-23
1.790857375e-24
8.918018164e-26
3.772308362e-06
7.113707689e-07
2.809621306e-07
1.583067369e-07
8.983901e-08
4.489906826e-08
1.809211342e-08
7.68031593e-09
4.32230998e-09
2.948408798e-09
2.181325096e-09
1.666378863e-09
1.290936758e-09
1.006004903e-09
7.851034268e-10
6.127170717e-10
4.77635575e-10
3.714074537e-10
2.878126639e-10
2.220857994e-10
1.704468735e-10
1.29949182e-10
9.82859692e-11
7.363548224e-11
5.455199704e-11
3.988534803e-11
2.871811816e-11
2.031490184e-11
1.40825448e-11
9.540343644e-12
6.298002523e-12
4.039027218e-12
2.50817877e-12
1.503134568e-12
8.666962754e-13
4.796366319e-13
2.541999534e-13
1.286907501e-13
6.20764414e-14
2.847002339e-14
1.244352056e-14
5.21756906e-15
2.110852747e-15
8.273215783e-16
3.156740324e-16
1.177576739e-16
4.278899229e-17
1.502735586e-17
5.087831974e-18
1.676262126e-18
5.451593076e-19
1.76518875e-19
5.68238087e-20
1.800055503e-20
5.498037607e-21
1.561166383e-21
3.851194705e-22
7.211060999e-23
7.91832895e-24
4.067485415e-25
3.891531429e-06
7.718654946e-07
2.817606783e-07
1.769699544e-07
1.124573983e-07
6.577409717e-08
3.27419018e-08
1.376664918e-08
6.466286135e-09
3.884741088e-09
2.724657838e-09
2.043558529e-09
1.57521025e-09
1.232687319e-09
9.673284386e-10
7.652199286e-10
6.055966739e-10
4.786103443e-10
3.772122994e-10
2.961677128e-10
2.314217568e-10
1.797807857e-10
1.386958562e-10
1.061205543e-10
8.040879534e-11
6.02336547e-11
4.452327063e-11
3.240763407e-11
2.317675275e-11
1.624770068e-11
1.113852141e-11
7.448750794e-12
4.846418701e-12
3.059693065e-12
1.86947208e-12
1.102530812e-12
6.258499852e-13
3.407816013e-13
1.772291981e-13
8.767254412e-14
4.108667593e-14
1.821012697e-14
7.645906552e-15
3.051442867e-15
1.168507202e-15
4.332931799e-16
1.564931718e-16
5.533598971e-17
1.911518853e-17
6.407912971e-18
2.087002325e-18
6.667795197e-19
2.108577108e-19
6.588190055e-20
2.000531628e-20
5.710324049e-21
1.441967254e-21
2.84242757e-22
3.390732546e-23
1.888349579e-24
3.474110871e-06
7.408234685e-07
2.38866332e-07
1.562157358e-07
1.133209305e-07
7.576015349e-08
4.561955224e-08
2.357042991e-08
1.076334951e-08
5.434131236e-09
3.324570732e-09
2.32439608e-09
1.742628295e-09
1.35389205e-09
1.062403298e-09
8.466415812e-10
6.765039564e-10
5.408747655e-10
4.318884065e-10
3.439365526e-10
2.728548741e-10
2.154319036e-10
1.691231397e-10
1.31871234e-10
1.019984437e-10
7.813248283e-11
5.915820982e-11
4.417726087e-11
3.246475504e-11
2.342572804e-11
1.655920465e-11
1.144117144e-11
7.711269954e-12
5.060321051e-12
3.226888609e-12
1.995472086e-12
1.193716734e-12
6.887943471e-13
3.819850388e-13
2.0270262e-13
1.024181256e-13
4.900197715e-14
2.211392662e-14
9.399131991e-15
3.772129663e-15
1.439156303e-15
5.263113122e-16
1.862050517e-16
6.434157136e-17
2.179733555e-17
7.222436814e-18
2.330977125e-18
7.333015886e-19
2.255296495e-19
6.748254406e-20
1.921459287e-20
4.952856289e-21
1.038019326e-21
1.387763227e-22
8.746725679e-24
4.327605218e-06
9.554131657e-07
2.608673738e-07
1.417964451e-07
1.077760065e-07
7.934033441e-08
5.399123099e-08
3.346213698e-08
1.828294095e-08
8.81737685e-09
4.382879896e-09
2.552493569e-09
1.724415148e-09
1.281971131e-09
9.942256528e-10
7.883565386e-10
6.321545712e-10
5.096189636e-10
4.115682132e-10
3.322009064e-10
2.675538793e-10
2.147432253e-10
1.715709424e-10
1.36306286e-10
1.075529144e-10
8.417339595e-11
6.523368209e-11
4.996213882e-11
3.772430471e-11
2.801028539e-11
2.040666639e-11
1.455277126e-11
1.013228521e-11
6.87525255e-12