/*--------------------------------*- C++ -*----------------------------------*\
  =========                 |
  \\      /  F ield         | OpenFOAM: The Open Source CFD Toolbox
   \\    /   O peration     | Website:  https://openfoam.org
    \\  /    A nd           | Version:  10
     \\/     M anipulation  |
\*---------------------------------------------------------------------------*/
FoamFile
{
    format      ascii;
    class       volScalarField;
    location    "3000";
    object      HCNN;
}
// * * * * * * * * * * * * * * * * * * * * * * * * * * * * * * * * * * * * * //

dimensions      [0 0 0 0 0 0 0];

internalField   nonuniform List<scalar> 
5170
(
2.40166895e-80
1.076239707e-80
1.941397492e-81
1.280093441e-82
1.471106509e-84
1.826472801e-77
7.670921972e-78
1.156986366e-78
5.037075179e-80
4.37871681e-82
1.353149133e-74
5.289128011e-75
6.420517155e-76
1.997869978e-77
1.132596605e-79
9.848262601e-72
3.583629012e-72
3.53427361e-73
8.209501776e-75
8.405514747e-78
7.08846174e-69
2.421791523e-69
1.98942758e-70
3.611826038e-72
0
5.086456172e-66
1.655317336e-66
1.136498445e-67
1.69633392e-69
0
3.678918111e-63
1.154738771e-63
6.743772847e-65
8.467368186e-67
0
2.672764334e-60
8.154399376e-61
4.3052036e-62
4.850100636e-64
0
1.97099797e-57
6.091886165e-58
3.023437542e-59
3.272660001e-61
0
1.486388838e-54
4.849566612e-55
2.361076968e-56
3.23789298e-58
0
1.153539264e-51
4.163398093e-52
2.20778032e-53
7.918331693e-55
0
9.19432763e-49
3.84682238e-49
2.657910267e-50
3.673407482e-51
1.177311445e-52
7.552222798e-46
3.850499342e-46
4.326278326e-47
1.951708407e-47
1.831912703e-47
6.362763843e-43
4.136855782e-43
9.024673343e-44
1.026056221e-43
1.232140277e-43
5.513004745e-40
4.806826048e-40
2.20969134e-40
5.184368943e-40
7.495034609e-40
4.835377463e-37
5.933753946e-37
5.824701959e-37
2.40722542e-36
4.538111083e-36
4.272828141e-34
7.781033246e-34
1.556612831e-33
1.003989328e-32
2.75069276e-32
3.698520167e-31
1.038303672e-30
4.049522632e-30
3.859212925e-29
1.6693842e-28
2.984454346e-28
1.343821329e-27
9.688598777e-27
1.290317326e-25
1.014379245e-24
2.026356323e-25
1.588923093e-24
2.089289363e-23
3.915585943e-22
6.249721438e-21
8.511977253e-24
3.225398552e-24
2.148161812e-24
4.078394256e-24
8.820582578e-24
4.239537815e-24
3.035539202e-24
2.443225186e-24
3.57709911e-24
4.519886759e-24
2.494286389e-24
1.837401701e-24
1.626927718e-24
2.104628964e-24
2.454953253e-24
1.483355684e-24
1.246975629e-24
1.12403595e-24
1.454105098e-24
1.41050896e-24
9.197244714e-25
9.200043413e-25
8.58716421e-25
9.76269379e-25
8.182163196e-25
5.973061937e-25
6.8041419e-25
6.635624408e-25
6.421427676e-25
4.755308884e-25
4.012680008e-25
4.984260246e-25
4.960813513e-25
4.128721999e-25
2.770939012e-25
2.766887087e-25
3.620115141e-25
3.610235533e-25
2.638333008e-25
1.666356103e-25
1.953421323e-25
2.620362637e-25
2.583025698e-25
1.729139536e-25
1.073631096e-25
1.411026079e-25
1.900071449e-25
1.841554858e-25
1.186512926e-25
7.528425803e-26
1.046442939e-25
1.392571993e-25
1.327304902e-25
8.593202326e-26
5.70687244e-26
7.984585337e-26
1.039962236e-25
9.793897388e-26
6.559096083e-26
4.595703147e-26
6.207561154e-26
7.939644036e-26
7.447129934e-26
5.235293386e-26
3.860505821e-26
3.390983219e-26
4.679970593e-26
5.267604398e-26
4.217417827e-26
3.299086309e-26
2.011958743e-26
2.726071885e-26
2.587592586e-26
1.2884535e-26
8.81416445e-27
2.798286694e-25
1.132231438e-25
3.551583039e-26
9.344856271e-27
4.727875072e-27
4.566760449e-23
1.899865083e-23
4.539762088e-24
1.274370359e-24
5.015832068e-25
7.74145546e-21
3.726136383e-21
8.764605046e-22
3.371989264e-22
1.061201919e-22
1.326569225e-18
7.422538205e-19
1.652019196e-19
1.004434499e-19
2.17527414e-20
4.490171674e-17
5.96293228e-17
3.003156095e-17
3.49089855e-17
3.888866347e-18
3.866391982e-23
4.805715318e-22
1.453430044e-20
6.666716516e-19
3.854613064e-17
1.033618134e-21
1.303233635e-20
3.861899304e-19
1.61009381e-17
7.312103401e-16
5.316992544e-21
5.946858969e-20
1.485695591e-18
4.909901516e-17
1.455878967e-15
5.351199995e-19
7.316170495e-18
2.039582629e-16
6.408004147e-15
1.569448206e-13
1.69182783e-18
1.973076787e-17
4.363969169e-16
9.855688572e-15
1.608629886e-13
3.108200012e-18
3.051048784e-17
5.361805645e-16
9.075611762e-15
1.050483751e-13
4.926636758e-18
4.279881831e-17
6.16015325e-16
7.635061982e-15
6.171227466e-14
1.444917426e-17
1.445706444e-16
2.150249423e-15
2.543373904e-14
2.206628879e-13
4.699805803e-17
4.518412927e-16
5.434096103e-15
4.915405235e-14
3.397606459e-13
1.156336316e-16
9.533394585e-16
8.688964614e-15
5.909304164e-14
3.204505348e-13
2.412731671e-16
1.511916973e-15
1.01433938e-14
5.367572898e-14
2.348651429e-13
4.521609894e-16
2.241133249e-15
1.249045747e-14
5.96851886e-14
2.512509705e-13
9.696629627e-16
4.13247055e-15
2.115452992e-14
9.862263809e-14
4.167596452e-13
2.153588293e-15
7.628729577e-15
3.388438908e-14
1.401321676e-13
5.264081824e-13
4.281059669e-15
1.216672036e-14
4.496916559e-14
1.588615599e-13
5.15596003e-13
7.432102841e-15
1.697334668e-14
5.164299978e-14
1.557360831e-13
4.411518154e-13
1.213989077e-14
2.331842919e-14
6.044964062e-14
1.628751342e-13
4.30020696e-13
2.375988828e-14
4.197419104e-14
1.024463e-13
2.732603731e-13
7.415156935e-13
5.472078595e-14
9.016542552e-14
2.03255256e-13
5.061794709e-13
1.289534351e-12
1.138285056e-13
1.731298319e-13
3.504612932e-13
7.853595472e-13
1.810466915e-12
1.964590966e-13
2.776427326e-13
5.064977726e-13
1.023800511e-12
2.143304839e-12
2.8666935e-13
3.819253441e-13
6.385667705e-13
1.182353824e-12
2.281827378e-12
3.743812859e-13
4.766935337e-13
7.436191033e-13
1.283974549e-12
2.324620071e-12
4.705119759e-13
5.809282673e-13
8.644126865e-13
1.423961956e-12
2.474957483e-12
6.193090744e-13
7.527485455e-13
1.093182923e-12
1.759376996e-12
3.000961096e-12
8.951213618e-13
1.077174173e-12
1.53844424e-12
2.432809385e-12
4.081097366e-12
1.382927181e-12
1.643516105e-12
2.297295427e-12
3.542750934e-12
5.788381815e-12
2.174941752e-12
2.545931746e-12
3.464492199e-12
5.178362268e-12
8.190972376e-12
3.392046512e-12
3.910789103e-12
5.180622588e-12
7.505208837e-12
1.14936554e-11
5.252228102e-12
5.977367196e-12
7.735270368e-12
1.090094474e-11
1.622393602e-11
8.22983929e-12
9.269697026e-12
1.177174276e-11
1.62227215e-11
2.359554823e-11
1.343264073e-11
1.500753622e-11
1.877646024e-11
2.541553404e-11
3.626883398e-11
2.378440432e-11
2.636216542e-11
3.248578832e-11
4.313994264e-11
6.027305874e-11
4.83924516e-11
5.295487686e-11
6.363953288e-11
8.181419159e-11
1.099697072e-10
1.144860598e-10
1.222736023e-10
1.400511313e-10
1.68707819e-10
2.098028176e-10
2.467162824e-10
2.560011005e-10
2.764059592e-10
3.072398835e-10
3.479186703e-10
3.746115331e-10
3.812886609e-10
3.956126672e-10
4.163483877e-10
4.420614321e-10
4.214410887e-10
4.247763223e-10
4.317804811e-10
4.414969004e-10
4.526620545e-10
3.983536992e-10
3.995011237e-10
4.017160191e-10
4.041676895e-10
4.054917413e-10
3.427248044e-10
3.418923328e-10
3.394905476e-10
3.341357496e-10
3.233513251e-10
2.390390927e-10
2.3389864e-10
2.223222942e-10
2.04475518e-10
1.815455991e-10
1.01643451e-10
9.935351957e-11
9.453072987e-11
8.772202751e-11
7.950657625e-11
4.290818865e-11
4.209510633e-11
4.037062783e-11
3.791269683e-11
3.490364742e-11
1.837973878e-11
1.80801588e-11
1.744153928e-11
1.652291391e-11
1.538328038e-11
7.960016014e-12
7.846121882e-12
7.602389951e-12
7.249277133e-12
6.80676621e-12
3.476244475e-12
3.431883787e-12
3.336678174e-12
3.198004231e-12
3.022900982e-12
1.528179429e-12
1.510586711e-12
1.472745668e-12
1.41739771e-12
1.347097729e-12
6.756436562e-13
6.685684539e-13
6.533231168e-13
6.309505555e-13
6.023998073e-13
3.003620426e-13
2.97484318e-13
2.912743947e-13
2.821360626e-13
2.704280826e-13
1.3431002e-13
1.331277448e-13
1.305732381e-13
1.26805173e-13
1.21961145e-13
6.045238638e-14
5.996200798e-14
5.890126361e-14
5.733328833e-14
5.531150776e-14
2.741257955e-14
2.720718944e-14
2.676244496e-14
2.610377409e-14
2.525216308e-14
1.253409039e-14
1.244718012e-14
1.225880398e-14
1.197932159e-14
1.16170652e-14
5.782998413e-15
5.745822254e-15
5.665169338e-15
5.545312964e-15
5.389600611e-15
2.693572785e-15
2.67748859e-15
2.642564266e-15
2.590584856e-15
2.522911246e-15
1.266752216e-15
1.259710485e-15
1.244408407e-15
1.221601912e-15
1.191851579e-15
6.014348698e-16
5.983146393e-16
5.915295373e-16
5.814042628e-16
5.681729799e-16
2.881834238e-16
2.867841757e-16
2.837396877e-16
2.791915379e-16
2.732390523e-16
1.392917495e-16
1.386570372e-16
1.372754227e-16
1.352095669e-16
1.3250228e-16
6.790158025e-17
6.761115103e-17
6.697879559e-17
6.603267721e-17
6.479163112e-17
3.348135106e-17
3.335038393e-17
3.306539074e-17
3.263932344e-17
3.208105119e-17
1.708886689e-17
1.704055793e-17
1.693620795e-17
1.678220366e-17
1.658423928e-17
1.018799165e-17
1.020327568e-17
1.023931692e-17
1.030057735e-17
1.039512108e-17
1.0278875e-17
1.034171227e-17
1.048046305e-17
1.069276147e-17
1.097963667e-17
1.176805676e-17
1.183884106e-17
1.199381112e-17
1.22274669e-17
1.253686645e-17
1.323015484e-17
1.329176988e-17
1.342600732e-17
1.362671723e-17
1.388940883e-17
1.411149856e-17
1.415745295e-17
1.425709209e-17
1.440486566e-17
1.459606681e-17
1.422173989e-17
1.42508516e-17
1.431354628e-17
1.440546989e-17
1.452246309e-17
1.364637394e-17
1.366096347e-17
1.369194248e-17
1.373627379e-17
1.379067266e-17
1.256870028e-17
1.257303278e-17
1.258170426e-17
1.259279931e-17
1.260392033e-17
6.568488376e-16
1.361062467e-14
1.731508633e-14
1.660644752e-12
1.170792459e-12
5.516679118e-13
2.45232148e-13
1.085503195e-12
1.377620956e-12
1.061414235e-12
6.562942383e-13
7.193032257e-13
1.209646062e-12
1.3708991e-12
1.190724862e-12
9.204408511e-13
8.726841082e-13
1.57290059e-12
2.591772942e-12
3.363400188e-12
3.704598104e-12
3.719197691e-12
3.624539735e-12
3.760326994e-12
4.5116585e-12
6.062541275e-12
8.423492228e-12
1.162556326e-11
1.592018578e-11
2.200286453e-11
3.146387389e-11
4.767210865e-11
7.785996891e-11
1.37376281e-10
2.459710749e-10
3.802366835e-10
4.609132299e-10
4.597685498e-10
4.041250244e-10
3.102553606e-10
1.651573469e-10
7.359964756e-11
3.268754789e-11
1.45291746e-11
6.470872724e-12
2.888711238e-12
1.292820964e-12
5.80223583e-13
2.612881745e-13
1.18163137e-13
5.372017947e-14
2.457950896e-14
1.133002296e-14
5.265854686e-15
2.468984053e-15
1.168085401e-15
5.575793835e-16
2.68463757e-16
1.303266894e-16
6.379309026e-17
3.16325484e-17
1.642940123e-17
1.048688719e-17
1.121889619e-17
1.278843907e-17
1.409983937e-17
1.474694041e-17
1.461273855e-17
1.383048765e-17
1.260929481e-17
1.778664003e-15
6.808546125e-15
1.268559043e-15
1.322225707e-15
3.52932378e-16
8.919581243e-14
1.937889896e-12
1.860959509e-13
1.803071091e-14
2.830340956e-15
9.346480076e-14
1.16420355e-12
9.799817242e-12
1.456257516e-12
1.176246303e-13
9.819202038e-12
1.729975122e-10
2.804199719e-09
2.104591868e-10
1.352010362e-11
5.253475615e-12
5.797757862e-11
4.98207369e-10
5.417829572e-11
4.899488279e-12
1.979259476e-12
1.456888712e-11
7.554387867e-11
1.183470718e-11
1.384794744e-12
7.429603971e-13
4.181342075e-12
1.818621035e-11
1.738616532e-11
3.616334375e-12
4.100959135e-12
4.008956556e-11
3.462736402e-10
2.884116236e-09
3.642590108e-10
4.503940516e-12
3.392097981e-11
2.200995432e-10
1.314190018e-09
2.222903424e-10
3.010684682e-12
1.734822134e-11
8.44415153e-11
3.628565844e-10
8.183858735e-11
1.658475167e-12
7.740011457e-12
3.121551628e-11
1.155400574e-10
4.007349835e-11
1.900856302e-12
1.046509288e-11
5.429022191e-11
2.761461991e-10
1.2939404e-09
3.219677273e-12
1.786064981e-11
9.090824455e-11
4.418594906e-10
2.077301312e-09
3.354177138e-12
1.554252646e-11
6.449352669e-11
2.469815984e-10
8.744582186e-10
2.668095907e-12
1.039987502e-11
3.654230434e-11
1.193402184e-10
3.660237071e-10
1.918147738e-12
6.559020748e-12
2.065571656e-11
6.18411644e-11
1.778664268e-10
1.802555226e-12
6.365445836e-12
2.199150329e-11
7.630500194e-11
2.678196324e-10
3.373948341e-12
1.303778492e-11
4.880359204e-11
1.786472356e-10
6.421114083e-10
5.306351512e-12
1.861313296e-11
6.233519075e-11
2.008984557e-10
6.255262727e-10
6.45645893e-12
2.007297692e-11
5.980740424e-11
1.718543789e-10
4.78201026e-10
6.698267995e-12
1.875051511e-11
5.087878344e-11
1.344676085e-10
3.473875087e-10
6.397088376e-12
1.647971771e-11
4.171802114e-11
1.041152278e-10
2.567831544e-10
5.999184016e-12
1.455387692e-11
3.515032397e-11
8.45846813e-11
2.026252831e-10
6.087002386e-12
1.434406266e-11
3.403595653e-11
8.111437669e-11
1.931780919e-10
7.239184009e-12
1.693848902e-11
4.014638552e-11
9.585824164e-11
2.288736566e-10
9.616118521e-12
2.2062048e-11
5.124516258e-11
1.196836578e-10
2.786074551e-10
1.309417085e-11
2.892320495e-11
6.464129657e-11
1.45084207e-10
3.235649272e-10
1.763364027e-11
3.723637356e-11
7.964870004e-11
1.7113889e-10
3.639426813e-10
2.357027417e-11
4.767210123e-11
9.785051152e-11
2.017027158e-10
4.076204141e-10
3.189032109e-11
6.215426195e-11
1.230582121e-10
2.437233338e-10
4.634740634e-10
4.482079862e-11
8.469596525e-11
1.622791058e-10
3.071678356e-10
5.389458229e-10
6.688628846e-11
1.22646547e-10
2.257677889e-10
3.998570083e-10
6.304175296e-10
1.071521196e-10
1.876374158e-10
3.22207374e-10
5.140023183e-10
7.125451884e-10
1.818928817e-10
2.904119245e-10
4.418724905e-10
6.120470432e-10
7.368548651e-10
3.022523036e-10
4.159246465e-10
5.414711326e-10
6.44529786e-10
6.667301258e-10
4.284517001e-10
5.099786659e-10
5.808938997e-10
6.121065285e-10
5.530281764e-10
4.880367522e-10
5.257463638e-10
5.432529751e-10
5.115238114e-10
3.822887651e-10
4.691447734e-10
4.730220711e-10
4.479052798e-10
3.610965241e-10
2.372608737e-10
4.002475183e-10
3.731797123e-10
3.03243572e-10
2.091824973e-10
1.409813241e-10
2.877441499e-10
2.259004524e-10
1.633173965e-10
1.154930956e-10
8.024237341e-11
1.421390944e-10
1.102172497e-10
8.288544297e-11
6.077746975e-11
4.363798547e-11
6.511511518e-11
5.227276109e-11
4.068473969e-11
3.083443896e-11
2.284331347e-11
2.947293989e-11
2.435016782e-11
1.95138935e-11
1.522539974e-11
1.160526892e-11
1.328225665e-11
1.122632517e-11
9.217188266e-12
7.373369654e-12
5.763646044e-12
5.978240739e-12
5.14574189e-12
4.310389565e-12
3.522319522e-12
2.814723024e-12
2.691228903e-12
2.351183238e-12
2.002814929e-12
1.666723543e-12
1.357796476e-12
1.212731158e-12
1.072755573e-12
9.269291312e-13
7.836155979e-13
6.492539062e-13
5.474305845e-13
4.894129514e-13
4.281229293e-13
3.669419748e-13
3.086016846e-13
2.477482832e-13
2.235450799e-13
1.976718127e-13
1.714952465e-13
1.461621364e-13
1.125279851e-13
1.023648264e-13
9.138783287e-14
8.015049138e-14
6.913197345e-14
5.135581547e-14
4.70581048e-14
4.237376318e-14
3.752765195e-14
3.27198451e-14
2.357880921e-14
2.174714983e-14
1.973430315e-14
1.763219344e-14
1.55244369e-14
1.09024884e-14
1.011505147e-14
9.243323534e-15
8.325080485e-15
7.395408677e-15
5.081337313e-15
4.739578701e-15
4.358695691e-15
3.954336533e-15
3.541302861e-15
2.388490172e-15
2.238642324e-15
2.070619694e-15
1.890962457e-15
1.70595874e-15
1.13257727e-15
1.066171161e-15
9.91297789e-16
9.107178931e-16
8.271250944e-16
5.417382278e-16
5.119898785e-16
4.782801494e-16
4.417871363e-16
4.036755727e-16
2.613175446e-16
2.478477287e-16
2.325154257e-16
2.158292117e-16
1.982978704e-16
1.270687751e-16
1.209077818e-16
1.138668919e-16
1.061683894e-16
9.803701676e-17
6.229709234e-17
5.946107618e-17
5.621068037e-17
5.264529589e-17
4.886669058e-17
3.096108232e-17
2.969242571e-17
2.82464256e-17
2.667426204e-17
2.503109538e-17
1.620030957e-17
1.579327196e-17
1.537267031e-17
1.498394367e-17
1.46829193e-17
1.063454976e-17
1.101245671e-17
1.161168409e-17
1.24893071e-17
1.360520034e-17
1.158230688e-17
1.23147694e-17
1.32104279e-17
1.425319602e-17
1.540839433e-17
1.31667004e-17
1.389478468e-17
1.473845924e-17
1.566524746e-17
1.663271711e-17
1.441431487e-17
1.500285046e-17
1.566102535e-17
1.635295255e-17
1.7036633e-17
1.497099796e-17
1.537799604e-17
1.581492549e-17
1.624898204e-17
1.664407108e-17
1.474550676e-17
1.497554767e-17
1.520531251e-17
1.540837418e-17
1.555701689e-17
1.388764422e-17
1.397451463e-17
1.404146488e-17
1.406913361e-17
1.403807993e-17
1.26151146e-17
1.260717373e-17
1.256971553e-17
1.248944099e-17
1.235351878e-17
9.161662478e-18
4.234504183e-19
5.18998623e-20
1.125133072e-20
3.098437004e-21
8.690898994e-22
2.284684228e-22
5.721202093e-23
1.449555048e-23
4.269606971e-24
1.843328547e-24
1.248869157e-24
1.081331316e-24
1.005314354e-24
9.367534258e-25
8.54248287e-25
7.555291445e-25
6.455231101e-25
5.318990664e-25
4.223302795e-25
3.230455249e-25
2.380563168e-25
1.690474898e-25
1.157263501e-25
7.642609495e-26
4.873472873e-26
3.004018298e-26
1.792179908e-26
1.036289236e-26
5.81641906e-27
3.174221491e-27
1.687690976e-27
8.764284274e-28
4.460249308e-28
2.234363284e-28
1.1079296e-28
5.470132874e-29
2.701221609e-29
1.335222337e-29
6.578924694e-30
3.203810232e-30
1.525996426e-30
7.040400601e-31
3.124236625e-31
1.32936456e-31
5.435429746e-32
2.157397151e-32
8.511976122e-33
3.491021833e-33
1.586212364e-33
8.39769967e-34
5.149614935e-34
3.467859038e-34
2.422550371e-34
1.681554017e-34
1.115308001e-34
6.658136777e-35
3.169314006e-35
8.152427098e-36
4.800539919e-37
9.934885933e-17
3.965965806e-18
3.494887086e-19
5.517093717e-20
1.112473985e-20
2.338407269e-21
4.901099362e-22
1.088118903e-22
3.023432073e-23
1.319549333e-23
9.07987825e-24
7.906577739e-24
7.406603617e-24
6.978055662e-24
6.446364237e-24
5.778662491e-24
5.008223951e-24
4.192713837e-24
3.391162074e-24
2.649884309e-24
2.000349675e-24
1.458768605e-24
1.027906536e-24
7.000530736e-25
4.610603123e-25
2.938876512e-25
1.814813863e-25
1.086881418e-25
6.320250656e-26
3.572888519e-26
1.966429759e-26
1.055737091e-26
5.543374454e-27
2.856868302e-27
1.452188379e-27
7.324409258e-28
3.687309167e-28
1.859523241e-28
9.384349436e-29
4.709173911e-29
2.326011771e-29
1.11840915e-29
5.185770025e-30
2.304196937e-30
9.788820025e-31
3.987020137e-31
1.572922909e-31
6.149773701e-32
2.488118352e-32
1.109965699e-32
5.766137881e-33
3.488494732e-33
2.334068855e-33
1.62759761e-33
1.130038642e-33
7.502071287e-34
4.492066947e-34
2.162754795e-34
5.879420741e-35
3.861146004e-36
3.514082596e-15
7.970604373e-17
2.671435807e-18
1.867928184e-19
2.402178354e-20
3.98883165e-21
7.724157114e-22
1.931913471e-22
7.203046912e-23
4.064819774e-23
3.062310975e-23
2.697919806e-23
2.53671929e-23
2.434457214e-23
2.310242676e-23
2.125089325e-23
1.878399574e-23
1.591629152e-23
1.293978916e-23
1.010853253e-23
7.604992877e-24
5.520384113e-24
3.872929867e-24
2.629628925e-24
1.730120917e-24
1.104439765e-24
6.849160647e-25
4.131053572e-25
2.426097384e-25
1.388906923e-25
7.761100784e-26
4.241069398e-26
2.272459117e-26
1.198569788e-26
6.255839432e-27
3.251491177e-27
1.691900685e-27
8.828166998e-28
4.600329691e-28
2.371656816e-28
1.195290752e-28
5.822609382e-29
2.717761107e-29
1.209283016e-29
5.123467418e-30
2.07415922e-30
8.104708699e-31
3.121794624e-31
1.233111271e-31
5.310445286e-32
2.650689361e-32
1.554141314e-32
1.022378609e-32
7.084850264e-33
4.913276178e-33
3.262953073e-33
1.957235836e-33
9.428695977e-34
2.522229776e-34
1.646087471e-35
4.300141039e-13
7.940097409e-15
1.484519203e-16
4.072671711e-18
2.151158958e-19
1.919924336e-20
3.001137878e-21
8.344429586e-22
3.39151936e-22
1.759122418e-22
1.124789968e-22
8.611851059e-23
7.464910607e-23
6.878697726e-23
6.424365447e-23
5.906645801e-23
5.309904164e-23
4.621299132e-23
3.859677542e-23
3.083204598e-23
2.3568601e-23
1.7270169e-23
1.216789628e-23
8.27242818e-24
5.446301089e-24
3.482799271e-24
2.168587018e-24
1.31723604e-24
7.817119022e-25
4.538907227e-25
2.582775617e-25
1.443349793e-25
7.944884665e-26
4.325282895e-26
2.341436575e-26
1.267448255e-26
6.883867031e-27
3.744841512e-27
2.024575631e-27
1.074798347e-27
5.531861403e-28
2.730715209e-28
1.283308252e-28
5.71953183e-29
2.417302236e-29
9.728228734e-30
3.763958058e-30
1.426050693e-30
5.470883996e-31
2.245767479e-31
1.053801433e-31
5.844601859e-32
3.715106212e-32
2.53593488e-32
1.750645299e-32
1.161892022e-32
6.976556127e-33
3.350569649e-33
8.597111229e-34
5.484176478e-35
2.135102667e-13
4.928148302e-15
9.789617056e-17
3.039862527e-18
2.448967975e-19
5.044844807e-20
1.602511197e-20
5.947810219e-21
2.459436209e-21
1.137195073e-21
6.027656037e-22
3.739752362e-22
2.705968143e-22
2.203083992e-22
1.918195885e-22
1.708662843e-22
1.510679098e-22
1.30375731e-22
1.09388338e-22
8.922816522e-23
6.993921249e-23
5.245355079e-23
3.764375539e-23
2.592362586e-23
1.720485817e-23
1.105792137e-23
6.9141348e-24
4.221597501e-24
2.524330472e-24
1.481680962e-24
8.556019363e-25
4.873248003e-25
2.747135515e-25
1.539711206e-25
8.627301606e-26
4.855204606e-26
2.746088015e-26
1.551952188e-26
8.664549261e-27
4.713463201e-27
2.466966789e-27
1.230504375e-27
5.814773333e-28
2.596776728e-28
1.096921371e-28
4.402524739e-29
1.693483607e-29
6.336313253e-30
2.366213957e-30
9.217423864e-31
3.990660754e-31
2.028261293e-31
1.208825368e-31
7.977233231e-32
5.434917893e-32
3.594602625e-32
2.15790474e-32
1.031219721e-32
2.50709545e-33
1.598284836e-34
1.107062884e-13
3.757525259e-15
8.433862051e-17
2.302721323e-18
2.942666328e-19
1.161244449e-19
5.462620424e-20
2.610409244e-20
1.258877967e-20
6.252256046e-21
3.293682315e-21
1.900448962e-21
1.230827406e-21
8.957833574e-22
7.136450746e-22
5.994615851e-22
5.12769083e-22
4.358124084e-22
3.626838418e-22
2.935775436e-22
2.300240603e-22
1.739416643e-22
1.266141693e-22
8.869226645e-23
5.983363268e-23
3.89801999e-23
2.460564396e-23
1.511157158e-23
9.067128025e-24
5.337881279e-24
3.096306759e-24
1.777123306e-24
1.01376896e-24
5.778176955e-25
3.309482307e-25
1.9119568e-25
1.111949e-25
6.449180114e-26
3.678148356e-26
2.032241973e-26
1.074061467e-26
5.38307611e-27
2.546670596e-27
1.136000277e-27
4.78962633e-28
1.919640563e-28
7.375789038e-29
2.748754312e-29
1.011583008e-29
3.79083576e-30
1.521569972e-30
6.965897804e-31
3.766594278e-31
2.335343458e-31
1.545353746e-31
1.012420421e-31
6.070798832e-32
2.891013564e-32
6.632479915e-33
4.278052308e-34
7.239907863e-13
3.991987634e-14
1.379748307e-15
4.029749855e-17
1.953716701e-18
5.249894095e-19
2.203242994e-19
1.0120332e-19
4.786311526e-20
2.325395173e-20
1.182200462e-20
6.480536778e-21
3.951977773e-21
2.72596493e-21
2.104201173e-21
1.757422917e-21
1.527459183e-21
1.338119656e-21
1.155767873e-21
9.710641014e-22
7.870563269e-22
6.128547584e-22
4.574926247e-22
3.27776507e-22
2.258901127e-22
1.502493546e-22
9.666061743e-23
6.029409715e-23
3.656435462e-23
2.163791439e-23
1.255602174e-23
7.187369238e-24
4.086256594e-24
2.323892939e-24
1.331331002e-24
7.720836147e-25
4.522410173e-25
2.644641346e-25
1.519831416e-25
8.448434866e-26
4.482062093e-26
2.249616722e-26
1.063202535e-26
4.726527496e-27
1.98366054e-27
7.923274707e-28
3.042671715e-28
1.135334447e-28
4.167271613e-29
1.53304927e-29
5.841847251e-30
2.430564876e-30
1.167825106e-30
6.568429902e-31
4.110152362e-31
2.633377749e-31
1.573128519e-31
7.497344531e-32
1.635199845e-32
1.085081309e-33
3.333769349e-11
2.586976156e-12
1.23240107e-13
3.634611646e-15
1.131659538e-16
9.656154644e-18
1.952668968e-18
5.622657223e-19
1.891606006e-19
7.202048257e-20
3.116403597e-20
1.541093714e-20
8.766869057e-21
5.766895953e-21
4.341461096e-21
3.622508339e-21
3.213863916e-21
2.924226983e-21
2.65941317e-21
2.377052473e-21
2.064898041e-21
1.729468786e-21
1.388582298e-21
1.065467758e-21
7.803239963e-22
5.461905972e-22
3.659035069e-22
2.355495134e-22
1.464762458e-22
8.84375648e-23
5.205595118e-23
3.002280859e-23
1.707777954e-23
9.657510992e-24
5.470495254e-24
3.123001521e-24
1.800346378e-24
1.039058627e-24
5.913920896e-25
3.269837973e-25
1.732600446e-25
8.70398727e-26
4.118605751e-26
1.830620491e-26
7.664830317e-27
3.052805595e-27
1.171577193e-27
4.38273383e-28
1.613806725e-28
5.911906715e-29
2.193310816e-29
8.521379486e-30
3.650786195e-30
1.8064011e-30
1.026632299e-30
6.255998676e-31
3.674909824e-31
1.746441813e-31
3.690836287e-32
2.518881299e-33
2.60555566e-11
2.64693293e-12
2.176110206e-13
1.041357349e-14
3.244714168e-16
1.855113899e-17
2.845622081e-18
7.859300075e-19
2.812818604e-19
1.14894012e-19
5.191289268e-20
2.599384713e-20
1.467668658e-20
9.53335557e-21
7.141142596e-21
6.009437242e-21
5.44674586e-21
5.114247846e-21
4.839731732e-21
4.536459861e-21
4.166438269e-21
3.722496064e-21
3.218019258e-21
2.679079973e-21
2.139160887e-21
1.632145495e-21
1.186411664e-21
8.213120625e-22
5.423244744e-22
3.429481657e-22
2.085160761e-22
1.228179521e-22
7.073433881e-23
4.019007055e-23
2.267628762e-23
1.274609591e-23
7.151207341e-24
3.999165099e-24
2.208923218e-24
1.191551016e-24
6.219092378e-25
3.113549372e-25
1.479905117e-25
6.621463665e-26
2.781815476e-26
1.108690377e-26
4.257960076e-27
1.595978938e-27
5.892927838e-28
2.159788422e-28
7.930971078e-29
2.969001198e-29
1.171253021e-29
5.108614309e-30
2.550039085e-30
1.420447849e-30
8.001714998e-31
3.756464318e-31
7.822016978e-32
5.509848962e-33
1.241560477e-11
1.820444395e-12
1.924367665e-13
1.559774824e-14
7.439097164e-16
3.173686385e-17
3.111872063e-18
7.27370452e-19
2.690927157e-19
1.215566953e-19
6.074782849e-20
3.284462444e-20
1.948779888e-20
1.305154484e-20
1.001134409e-20
8.642320733e-21
8.069069018e-21
7.832465114e-21
7.684101505e-21
7.488079432e-21
7.173834447e-21
6.714338217e-21
6.112978591e-21
5.395410273e-21
4.602410047e-21
3.783066636e-21
2.987681065e-21
2.259434881e-21
1.631418542e-21
1.12178973e-21
7.339798513e-22
4.583804386e-22
2.75014125e-22
1.599427607e-22
9.100067062e-23
5.099762923e-23
2.815325687e-23
1.528920059e-23
8.139840303e-24
4.234448331e-24
2.138418027e-24
1.044890635e-24
4.928801662e-25
2.228581724e-25
9.527799276e-26
3.840531853e-26
1.482362482e-26
5.570767061e-27
2.059775869e-27
7.543226435e-28
2.753697864e-28
1.011361285e-28
3.800947574e-29
1.507729498e-29
6.584379197e-30
3.228970777e-30
1.678627554e-30
7.639792598e-31
1.583403908e-31
1.159551588e-32
8.556418248e-12
1.610948251e-12
2.588432491e-13
3.143792297e-14
2.547562036e-15
1.266579856e-16
8.069670443e-18
1.281292164e-18
3.84886356e-19
1.597879816e-19
7.843209625e-20
4.251172637e-20
2.524252971e-20
1.68876418e-20
1.304719474e-20
1.149626835e-20
1.106258303e-20
1.111373298e-20
1.12966667e-20
1.140825763e-20
1.133281019e-20
1.10115149e-20
1.042800342e-20
9.599955832e-21
8.572047599e-21
7.408394579e-21
6.18384566e-21
4.974252362e-21
3.846803614e-21
2.85315271e-21
2.025070366e-21
1.37246562e-21
8.875744012e-22
5.487015467e-22
3.260652742e-22
1.874020014e-22
1.044309811e-22
5.634440268e-23
2.941987363e-23
1.488451451e-23
7.30377102e-24
3.469543644e-24
1.595115233e-24
7.112330463e-25
3.071608176e-25
1.271400102e-25
5.011653824e-26
1.897242927e-26
7.00789686e-27
2.555609584e-27
9.266953713e-28
3.359936585e-28
1.227576034e-28
4.585733718e-29
1.800006582e-29
7.677823104e-30
3.534177806e-30
1.509162556e-30
3.114415226e-31
2.372721984e-32
2.155933895e-10
3.166875464e-11
4.529783838e-12
5.842824634e-13
6.520934808e-14
4.562757924e-15
2.172253181e-16
1.651249472e-17
2.587625662e-18
6.058551355e-19
1.861768651e-19
7.293925062e-20
3.581863764e-20
2.183444277e-20
1.643389417e-20
1.471447968e-20
1.464505978e-20
1.52659746e-20
1.607384286e-20
1.677723593e-20
1.719874103e-20
1.723311932e-20
1.683118922e-20
1.599267574e-20
1.476042261e-20
1.321271885e-20
1.145309664e-20
9.597725304e-21
7.761723176e-21
6.046290402e-21
4.528451068e-21
3.25508896e-21
2.241970315e-21
1.478065842e-21
9.325835578e-22
5.637869672e-22
3.269431493e-22
1.818956542e-22
9.70144622e-23
4.946255704e-23
2.41622257e-23
1.135639677e-23
5.15124859e-24
2.260434342e-24
9.636329396e-25
4.002982435e-25
1.612977107e-25
6.260372772e-26
2.339323022e-26
8.504980135e-27
3.052441801e-27
1.09224414e-27
3.913297942e-28
1.409041041e-28
5.149858917e-29
1.951767517e-29
7.792830626e-30
2.996848248e-30
6.085951216e-31
4.791951555e-32
3.777054108e-10
5.964991222e-11
9.075476582e-12
1.287178497e-12
1.675894546e-13
1.912860253e-14
1.450755496e-15
8.538172328e-17
7.578930293e-18
1.264235967e-18
3.213779253e-19
1.071148635e-19
4.555223e-20
2.594078986e-20
1.974990136e-20
1.865734957e-20
1.957275001e-20
2.126886487e-20
2.312901681e-20
2.478741815e-20
2.600338858e-20
2.661854703e-20
2.654378091e-20
2.575550961e-20
2.429213603e-20
2.22477273e-20
1.976127899e-20
1.700131364e-20
1.414746709e-20
1.1370385e-20
8.813221641e-21
6.578370707e-21
4.721779797e-21
3.255219224e-21
2.153502822e-21
1.366011147e-21
8.301066809e-22
4.825391547e-22
2.67773256e-22
1.417517639e-22
7.150662407e-23
3.44265969e-23
1.584145378e-23
6.97843931e-24
2.965318286e-24
1.223197552e-24
4.914356409e-25
1.929476861e-25
7.377232403e-26
2.732137537e-26
9.829760494e-27
3.473931102e-27
1.219034683e-27
4.266087166e-28
1.488690356e-28
5.198228147e-29
1.832192113e-29
6.206850294e-30
1.221072274e-30
9.789461496e-32
2.093388652e-10
4.110040336e-11
7.451325191e-12
1.282458469e-12
1.995487636e-13
2.818613772e-14
3.390689622e-15
2.668725335e-16
1.687559759e-17
1.617711602e-18
3.009956579e-19
9.122982009e-20
4.079230039e-20
2.686458339e-20
2.406825085e-20
2.544423793e-20
2.840736e-20
3.186342691e-20
3.521364817e-20
3.807266582e-20
4.017308658e-20
4.133373813e-20
4.145260751e-20
4.050495193e-20
3.854087109e-20
3.567817583e-20
3.209490111e-20
2.80170848e-20
2.370085328e-20
1.940255002e-20
1.534874537e-20
1.171825767e-20
8.627010313e-21
6.119933564e-21
4.180670159e-21
2.747888973e-21
1.735879178e-21
1.052316959e-21
6.108111062e-22
3.385577331e-22
1.786963637e-22
8.958809268e-23
4.269198021e-23
1.93831008e-23
8.422831055e-24
3.518510431e-24
1.419121727e-24
5.55820498e-25
2.12827153e-25
7.981255574e-26
2.923117612e-26
1.042308992e-26
3.628488186e-27
1.241079846e-27
4.184002485e-28
1.38718385e-28
4.497415878e-29
1.368807943e-29
2.620586885e-30
2.089885446e-31
1.018493868e-10
2.338004412e-11
4.925245666e-12
1.066999557e-12
1.926870599e-13
3.193737122e-14
4.723400094e-15
5.835584228e-16
4.778682213e-17
3.079496028e-18
3.040261997e-19
6.903846237e-20
3.56161262e-20
3.150428223e-20
3.447413727e-20
3.966417122e-20
4.534155289e-20
5.069327715e-20
5.526253702e-20
5.876652529e-20
6.102758214e-20
6.194526531e-20
6.148766416e-20
5.968751809e-20
5.663872076e-20
5.249344227e-20
4.745522553e-20
4.177134561e-20
3.572242885e-20
2.962040561e-20
2.377284299e-20
1.843325753e-20
1.378994837e-20
9.952566667e-21
6.931486892e-21
4.657462612e-21
3.019867477e-21
1.888365193e-21
1.136737438e-21
6.569577348e-22
3.633485857e-22
1.916365249e-22