/*--------------------------------*- C++ -*----------------------------------*\
  =========                 |
  \\      /  F ield         | OpenFOAM: The Open Source CFD Toolbox
   \\    /   O peration     | Website:  https://openfoam.org
    \\  /    A nd           | Version:  10
     \\/     M anipulation  |
\*---------------------------------------------------------------------------*/
FoamFile
{
    format      ascii;
    class       volScalarField;
    location    "3000";
    object      HCNO;
}
// * * * * * * * * * * * * * * * * * * * * * * * * * * * * * * * * * * * * * //

dimensions      [0 0 0 0 0 0 0];

internalField   nonuniform List<scalar> 
5170
(
6.018923272e-65
4.856663389e-65
3.012364312e-65
1.485881989e-65
1.179654022e-65
2.047059789e-62
1.63442719e-62
9.974499728e-63
5.760018986e-63
1.018012177e-62
7.030860751e-60
5.572508781e-60
3.387600356e-60
2.661416104e-60
8.021444049e-60
2.460149764e-57
1.94804356e-57
1.22252885e-57
1.369174379e-57
5.789207922e-57
8.765046325e-55
7.001333053e-55
4.711621607e-55
7.453504967e-55
3.891642455e-54
3.192786081e-52
2.605036179e-52
1.923817893e-52
4.173259375e-52
2.467811419e-51
1.187815487e-49
9.985139717e-50
8.424254927e-50
2.374838408e-49
1.509398189e-48
4.507344185e-47
3.947393826e-47
3.968887893e-47
1.367711504e-46
9.0160042e-46
1.749670647e-44
1.628387276e-44
1.965482927e-44
7.954657204e-44
5.291206495e-43
6.961440002e-42
7.006502358e-42
1.01193681e-41
4.682029708e-41
3.06455242e-40
2.833792538e-39
3.134478041e-39
5.386478716e-39
2.78532583e-38
1.757910675e-37
1.17555487e-36
1.453905853e-36
2.968203885e-36
1.673441517e-35
1.001714267e-34
4.952043108e-34
6.950720973e-34
1.699488161e-33
1.022599337e-32
5.683542031e-32
2.102540091e-31
3.39613399e-31
1.002086196e-30
6.364996193e-30
3.218079615e-29
8.960090135e-29
1.682180657e-28
6.000614341e-28
4.018114854e-27
1.820983446e-26
3.772518709e-26
8.314729429e-26
3.575439347e-25
2.488658282e-24
1.030445946e-23
1.561401889e-23
4.089778744e-23
2.065101302e-22
1.495336195e-21
5.83779873e-21
6.209696804e-21
1.963064599e-20
1.154705382e-19
8.540791444e-19
3.302613048e-18
2.271828195e-18
8.991855059e-18
6.065987237e-17
4.534008616e-16
1.868376745e-15
7.120914808e-16
3.978646516e-15
3.094624138e-14
2.194973678e-13
1.067735225e-12
3.664884981e-20
3.38257808e-20
3.243032172e-20
3.471905879e-20
3.685302441e-20
5.463897269e-20
5.047164695e-20
4.942631512e-20
5.130249228e-20
5.538712902e-20
6.327682443e-20
5.916522968e-20
5.786189279e-20
6.015643665e-20
6.381670762e-20
6.691807945e-20
6.401203957e-20
6.304545037e-20
6.492175192e-20
6.700008826e-20
6.784039425e-20
6.634760518e-20
6.575541549e-20
6.691785642e-20
6.737684586e-20
6.732630406e-20
6.705756313e-20
6.678400845e-20
6.716633922e-20
6.624779157e-20
6.60839034e-20
6.674291255e-20
6.669879945e-20
6.636289264e-20
6.441812421e-20
6.445729268e-20
6.578127952e-20
6.588152972e-20
6.493030124e-20
6.227997495e-20
6.262945887e-20
6.440924021e-20
6.458039285e-20
6.31285953e-20
6.003339806e-20
6.070141151e-20
6.277596907e-20
6.295946612e-20
6.112430192e-20
5.778407595e-20
5.873226758e-20
6.097948922e-20
6.113551719e-20
5.902567174e-20
5.558344107e-20
5.675642765e-20
5.908742251e-20
5.919339879e-20
5.690235448e-20
5.344870305e-20
5.489309283e-20
5.717622527e-20
5.720084059e-20
5.480192455e-20
5.139343234e-20
6.46271546e-20
5.862524069e-20
5.623162753e-20
5.340144457e-20
5.006215639e-20
1.364931498e-18
4.328263913e-19
1.662286665e-19
1.130921512e-19
1.007449805e-19
1.418288671e-16
4.026707506e-17
1.150774388e-17
5.478436354e-18
4.005256454e-18
1.448561946e-14
3.992093555e-15
1.08027682e-15
4.38353667e-16
2.695589591e-16
1.329972284e-12
3.52938719e-13
9.094343396e-14
3.13962208e-14
1.621162568e-14
9.063050756e-11
2.427114305e-11
6.259826945e-12
1.845602161e-12
8.030948003e-13
4.928826101e-09
1.174750754e-09
2.700517182e-10
7.363990733e-11
2.789283378e-11
2.784001979e-14
2.124600215e-13
3.216624301e-12
4.751401203e-11
6.21692841e-10
4.392332448e-13
3.257018535e-12
4.453999301e-11
5.519860898e-10
5.40735695e-09
2.461764415e-12
1.669099948e-11
1.939208151e-10
1.881239881e-09
1.248712569e-08
9.736620666e-12
6.111221298e-11
6.129402975e-10
4.765101433e-09
2.378126201e-08
3.226541759e-11
1.893831639e-10
1.660695527e-09
1.081986826e-08
4.598529145e-08
9.824969924e-11
5.340667545e-10
4.061494824e-09
2.210186723e-08
7.876150816e-08
2.876187915e-10
1.442356614e-09
9.236097877e-09
4.001506081e-08
1.159016841e-07
7.782353106e-10
3.55530049e-09
1.836767701e-08
6.278040002e-08
1.513536789e-07
1.911984584e-09
7.752572408e-09
3.188559852e-08
8.899093588e-08
1.886107565e-07
4.281648734e-09
1.504801387e-08
5.003542429e-08
1.193841212e-07
2.31492892e-07
9.062771309e-09
2.642017425e-08
7.247417239e-08
1.53594649e-07
2.772419166e-07
1.738527487e-08
4.198203604e-08
9.842062458e-08
1.896716487e-07
3.204368963e-07
3.066394183e-08
6.228794126e-08
1.278318274e-07
2.268936586e-07
3.613150773e-07
5.096595143e-08
8.845783971e-08
1.614285205e-07
2.663753361e-07
4.034266091e-07
8.120247507e-08
1.223231572e-07
2.006004985e-07
3.098280236e-07
4.491140145e-07
1.241716775e-07
1.663712922e-07
2.47317029e-07
3.589587262e-07
4.993166364e-07
1.819575354e-07
2.230914101e-07
3.038120101e-07
4.152451486e-07
5.540642813e-07
2.540826335e-07
2.928734716e-07
3.708949687e-07
4.793195194e-07
6.134576781e-07
3.389949134e-07
3.747765368e-07
4.48203324e-07
5.512464717e-07
6.788081716e-07
4.336602204e-07
4.663737351e-07
5.345456201e-07
6.314333471e-07
7.524579375e-07
5.3573246e-07
5.656714894e-07
6.289253001e-07
7.20180518e-07
8.358352774e-07
6.436674181e-07
6.714004691e-07
7.306389297e-07
8.172900219e-07
9.287415359e-07
7.573107404e-07
7.832654268e-07
8.391796192e-07
9.219021473e-07
1.029514722e-06
8.768532207e-07
9.013245979e-07
9.543717641e-07
1.033420354e-06
1.137036105e-06
1.003033041e-06
1.026295641e-06
1.076874866e-06
1.152550234e-06
1.252150612e-06
1.137877449e-06
1.160148147e-06
1.208647752e-06
1.281461654e-06
1.377670616e-06
1.284371751e-06
1.305927039e-06
1.352996805e-06
1.423902246e-06
1.518040517e-06
1.446253329e-06
1.467513567e-06
1.514047031e-06
1.584475978e-06
1.678555481e-06
1.628200349e-06
1.649702054e-06
1.696921408e-06
1.768764816e-06
1.86532564e-06
1.837362077e-06
1.859873408e-06
1.909467623e-06
1.985199172e-06
2.087444279e-06
2.086924842e-06
2.111441821e-06
2.165498834e-06
2.248217132e-06
2.360046578e-06
2.402160334e-06
2.429860014e-06
2.490892053e-06
2.583814245e-06
2.70801076e-06
2.828930384e-06
2.860180135e-06
2.92830716e-06
3.030367265e-06
3.161418057e-06
3.420534087e-06
3.450263253e-06
3.513318807e-06
3.600872132e-06
3.700920149e-06
4.040085839e-06
4.049982992e-06
4.066774891e-06
4.079136387e-06
4.071177941e-06
4.137777097e-06
4.117785198e-06
4.070847872e-06
3.991800681e-06
3.873188341e-06
3.570297309e-06
3.537726677e-06
3.465423004e-06
3.353737407e-06
3.201254237e-06
2.754266259e-06
2.722494332e-06
2.65262735e-06
2.546411348e-06
2.404107551e-06
1.969646064e-06
1.941710735e-06
1.880365909e-06
1.787342474e-06
1.663264755e-06
1.275001875e-06
1.250302957e-06
1.196309762e-06
1.115310068e-06
1.009564668e-06
6.523148154e-07
6.344470067e-07
5.967729343e-07
5.440740137e-07
4.821922809e-07
2.710106349e-07
2.647629418e-07
2.516645279e-07
2.333531284e-07
2.114953673e-07
1.14157248e-07
1.119793813e-07
1.073679137e-07
1.008122987e-07
9.280646977e-08
4.882533109e-08
4.802770792e-08
4.632828051e-08
4.388546525e-08
4.085691119e-08
2.111538518e-08
2.081307888e-08
2.016633293e-08
1.922969888e-08
1.805644894e-08
9.212071645e-09
9.094864444e-09
8.843422097e-09
8.477411329e-09
8.015664711e-09
4.055737948e-09
4.009880472e-09
3.911337443e-09
3.76746143e-09
3.585206306e-09
1.81785101e-09
1.800219313e-09
1.762328062e-09
1.706983296e-09
1.636843753e-09
8.526424994e-10
8.460568854e-10
8.318833927e-10
8.111111661e-10
7.847710225e-10
4.477041346e-10
4.454434332e-10
4.405357089e-10
4.335638543e-10
4.244196973e-10
2.525801894e-10
2.528573713e-10
2.534267315e-10
2.546505835e-10
2.567574823e-10
2.190339896e-10
2.201941636e-10
2.227605124e-10
2.267113987e-10
2.320953857e-10
2.239511708e-10
2.246446089e-10
2.261620618e-10
2.284432713e-10
2.314469601e-10
2.211777838e-10
2.217206581e-10
2.229212704e-10
2.247643985e-10
2.272705449e-10
2.153472422e-10
2.159463269e-10
2.172734677e-10
2.193174085e-10
2.221075987e-10
2.154745574e-10
2.162046031e-10
2.178181085e-10
2.202927865e-10
2.236512538e-10
2.256798892e-10
2.265380483e-10
2.284299881e-10
2.313185763e-10
2.352139233e-10
2.459320349e-10
2.468716392e-10
2.489398774e-10
2.520884565e-10
2.563170085e-10
2.74099238e-10
2.75078156e-10
2.772305821e-10
2.805007979e-10
2.848803717e-10
3.081883113e-10
3.091715467e-10
3.11331672e-10
3.146087857e-10
3.189886235e-10
3.464445425e-10
3.474047188e-10
3.495126851e-10
3.527068909e-10
3.569689641e-10
3.873881152e-10
3.883044172e-10
3.903147155e-10
3.93357742e-10
3.974123735e-10
4.298143027e-10
4.306719311e-10
4.325522286e-10
4.353956735e-10
4.391794974e-10
4.728185647e-10
4.736074078e-10
4.75335644e-10
4.779465255e-10
4.814164243e-10
5.156704966e-10
5.16383781e-10
5.179451799e-10
5.203014694e-10
5.23428795e-10
5.578283846e-10
5.58461988e-10
5.598476289e-10
5.619361614e-10
5.647040247e-10
5.987520114e-10
5.993039224e-10
6.005094788e-10
6.023240208e-10
6.047247559e-10
6.380309043e-10
6.385012658e-10
6.39527222e-10
6.410688606e-10
6.43104532e-10
6.747324698e-10
6.751240668e-10
6.759766282e-10
6.772550859e-10
6.789392918e-10
7.053589508e-10
7.056835155e-10
7.063887489e-10
7.07443909e-10
7.08830351e-10
2.188026255e-09
2.032721515e-08
3.414762815e-08
5.754309768e-08
1.069652541e-07
1.631897645e-07
2.09608788e-07
2.446660757e-07
2.866110767e-07
3.385823502e-07
3.907336962e-07
4.338577352e-07
4.728230429e-07
5.145167595e-07
5.60680551e-07
6.105189167e-07
6.624556052e-07
7.16803777e-07
7.766994237e-07
8.460588287e-07
9.26596229e-07
1.017456651e-06
1.116039244e-06
1.220850418e-06
1.332998207e-06
1.456089803e-06
1.595232646e-06
1.756203358e-06
1.945558063e-06
2.17273414e-06
2.453078935e-06
2.809262237e-06
3.261600783e-06
3.762645024e-06
4.039463239e-06
3.763492825e-06
3.072928894e-06
2.286754113e-06
1.561691826e-06
9.264793645e-07
4.396331332e-07
1.958584118e-07
8.691718053e-08
3.858804357e-08
1.716631171e-08
7.662242922e-09
3.445040599e-09
1.582882242e-09
7.646195839e-10
4.1740277e-10
2.586666926e-10
2.351388221e-10
2.338651674e-10
2.293833925e-10
2.244685714e-10
2.264718834e-10
2.384593521e-10
2.598217723e-10
2.884973586e-10
3.225964591e-10
3.604725337e-10
4.007395361e-10
4.422794935e-10
4.842547783e-10
5.259827789e-10
5.669604779e-10
6.066780933e-10
6.447570657e-10
6.803028803e-10
7.099495181e-10
5.12728945e-09
1.889529761e-09
2.294402771e-09
1.217417887e-09
3.267507805e-10
5.842781784e-08
2.635316184e-07
2.25045409e-08
7.041861404e-09
2.314721744e-09
7.960393649e-08
1.986859807e-07
2.676951081e-08
5.494206987e-09
3.310040214e-09
1.31389153e-07
4.105388353e-07
1.26769581e-06
9.466349911e-08
1.931144284e-08
2.417592874e-07
7.594812292e-07
2.049957938e-06
1.723105172e-07
3.089888774e-08
3.352380662e-07
8.403442295e-07
1.622038003e-06
1.777995504e-07
2.527639206e-08
3.842303736e-07
7.773014371e-07
1.200157907e-06
1.726151109e-07
2.343936386e-08
4.079141749e-07
7.176331028e-07
1.018449423e-06
8.360006931e-07
1.102998834e-07
4.559711699e-07
8.061589695e-07
1.324038443e-06
2.087653209e-06
3.170220319e-07
5.222149169e-07
9.139517385e-07
1.491160341e-06
2.2600464e-06
4.125870696e-07
5.813151038e-07
9.660856481e-07
1.469813264e-06
2.018391133e-06
4.273149701e-07
6.191361073e-07
9.580068683e-07
1.334143189e-06
1.637914403e-06
6.932353867e-07
6.519894716e-07
9.684334318e-07
1.33050195e-06
1.728077185e-06
1.799690947e-06
6.918505639e-07
1.008712794e-06
1.394845532e-06
1.873941073e-06
2.27484324e-06
7.380734338e-07
1.057122312e-06
1.448205156e-06
1.922292749e-06
2.328907727e-06
7.864281115e-07
1.098083141e-06
1.466553576e-06
1.881693532e-06
2.193778889e-06
8.324411173e-07
1.124126436e-06
1.449968175e-06
1.784616718e-06
1.993482785e-06
8.773714922e-07
1.146407713e-06
1.439203662e-06
1.738150932e-06
1.964780342e-06
9.279334825e-07
1.182211046e-06
1.464492669e-06
1.772708525e-06
2.069422042e-06
9.904035588e-07
1.239443165e-06
1.526410557e-06
1.857692041e-06
2.208310991e-06
1.066593312e-06
1.315952723e-06
1.611598165e-06
1.96092973e-06
2.337302341e-06
1.154309629e-06
1.404152419e-06
1.70420188e-06
2.059212832e-06
2.437500928e-06
1.249414784e-06
1.496383085e-06
1.793160644e-06
2.140384027e-06
2.500014569e-06
1.34986242e-06
1.590366597e-06
1.877899516e-06
2.208826845e-06
2.538571266e-06
1.457317023e-06
1.690410451e-06
1.968352174e-06
2.284673467e-06
2.589343614e-06
1.576633316e-06
1.804545986e-06
2.077197551e-06
2.385886919e-06
2.672285168e-06
1.713943988e-06
1.941076411e-06
2.214302845e-06
2.521137439e-06
2.786616942e-06
1.875709241e-06
2.107222506e-06
2.386598926e-06
2.693091876e-06
2.922035013e-06
2.069100243e-06
2.310638516e-06
2.599994061e-06
2.899710148e-06
3.058647615e-06
2.303975077e-06
2.560718656e-06
2.858726519e-06
3.129333783e-06
3.163913009e-06
2.595699249e-06
2.867981465e-06
3.158168824e-06
3.347751298e-06
3.191780185e-06
2.962632881e-06
3.233609581e-06
3.463820113e-06
3.484671563e-06
3.095463445e-06
3.408373722e-06
3.614221176e-06
3.679174941e-06
3.447110708e-06
2.846950611e-06
3.842649408e-06
3.856219838e-06
3.653963137e-06
3.175367753e-06
2.453164701e-06
3.976191395e-06
3.730796513e-06
3.30051947e-06
2.69279257e-06
1.960515196e-06
3.58974245e-06
3.203883366e-06
2.698895526e-06
2.095235261e-06
1.445597198e-06
2.876149043e-06
2.484137555e-06
2.011510256e-06
1.483161057e-06
9.702454467e-07
2.108280923e-06
1.762095075e-06
1.359358225e-06
9.441117428e-07
6.136473461e-07
1.407996845e-06
1.118144352e-06
8.095810702e-07
5.51674731e-07
3.695122844e-07
8.036498005e-07
6.027266062e-07
4.341556893e-07
3.059585995e-07
2.117517572e-07
3.796209292e-07
2.93921732e-07
2.206055798e-07
1.613907796e-07
1.155859017e-07
1.733941339e-07
1.39171611e-07
1.082279182e-07
8.19234001e-08
6.060920756e-08
7.83747187e-08
6.474338695e-08
5.186433294e-08
4.044605162e-08
3.081906371e-08
3.527596668e-08
2.981470524e-08
2.447903778e-08
1.958728782e-08
1.532600338e-08
1.58610677e-08
1.36570611e-08
1.144868202e-08
9.370904072e-09
7.514183691e-09
7.142410463e-09
6.24973721e-09
5.339475994e-09
4.468441413e-09
3.679526833e-09
3.238572808e-09
2.880966922e-09
2.514247774e-09
2.160752816e-09
1.839360643e-09
1.503414012e-09
1.365706005e-09
1.224545074e-09
1.08955895e-09
9.693574197e-10
7.349915283e-10
6.840682593e-10
6.317629907e-10
5.826821016e-10
5.394058287e-10
4.070648108e-10
3.891545419e-10
3.711125687e-10
3.615486511e-10
3.599582401e-10
2.622831858e-10
2.641364084e-10
2.76014854e-10
2.894749818e-10
3.093658931e-10
2.393293506e-10
2.477350667e-10
2.578475333e-10
2.714181937e-10
2.879252008e-10
2.375147316e-10
2.448010143e-10
2.539087599e-10
2.651417226e-10
2.78716561e-10
2.326120979e-10
2.393150295e-10
2.479309355e-10
2.587439034e-10
2.720663476e-10
2.280788184e-10
2.355894961e-10
2.452207833e-10
2.572333984e-10
2.719025148e-10
2.307716542e-10
2.395946789e-10
2.507234018e-10
2.643496463e-10
2.806493448e-10
2.433907125e-10
2.533623269e-10
2.657249558e-10
2.805768271e-10
2.980018664e-10
2.651359836e-10
2.757781151e-10
2.888222946e-10
3.042968962e-10
3.222128364e-10
2.939737652e-10
3.048675099e-10
3.18114059e-10
3.336890436e-10
3.51548545e-10
3.280531803e-10
3.388551339e-10
3.519132586e-10
3.671650346e-10
3.845253291e-10
3.657670632e-10
3.762085322e-10
3.887723691e-10
4.033666903e-10
4.198766021e-10
4.057638016e-10
4.156414516e-10
4.274811283e-10
4.411719925e-10
4.565803785e-10
4.469576314e-10
4.561298134e-10
4.670867619e-10
4.797059249e-10
4.938426158e-10
4.885352629e-10
4.969066327e-10
5.068753196e-10
5.183126446e-10
5.310690351e-10
5.29831844e-10
5.373406592e-10
5.462544175e-10
5.564429372e-10
5.677568615e-10
5.703586028e-10
5.769710363e-10
5.847957743e-10
5.937049347e-10
6.035535313e-10
6.096174261e-10
6.153216348e-10
6.220492156e-10
6.296779555e-10
6.380708313e-10
6.472412842e-10
6.52048632e-10
6.576979289e-10
6.640751857e-10
6.710539662e-10
6.823506284e-10
6.86300252e-10
6.909231763e-10
6.961157851e-10
7.017642617e-10
7.116281626e-10
7.148549689e-10
7.186159913e-10
7.2281762e-10
7.273578775e-10
4.183381087e-11
5.641728618e-12
9.40385492e-13
2.268347331e-13
8.066649286e-14
3.691938895e-14
1.990868548e-14
1.193068626e-14
7.519958004e-15
4.838007545e-15
3.130618337e-15
2.023891038e-15
1.301845822e-15
8.305423244e-16
5.242295786e-16
3.266814915e-16
2.006941587e-16
1.214058818e-16
7.22569697e-17
4.228160409e-17
2.431183018e-17
1.372995682e-17
7.612040101e-18
4.14099012e-18
2.209617782e-18
1.156251571e-18
5.933150472e-19
2.985835724e-19
1.474052902e-19
7.141599688e-20
3.397359211e-20
1.588094618e-20
7.302781113e-21
3.309431052e-21
1.482229194e-21
6.589382544e-22
2.923879083e-22
1.302110817e-22
5.836979491e-23
2.628477936e-23
1.180189074e-23
5.225931002e-24
2.25617762e-24
9.407600215e-25
3.765095661e-25
1.442345826e-25
5.292085272e-26
1.867024302e-26
6.381802942e-27
2.139624624e-27
7.165546893e-28
2.456416254e-28
8.853363954e-29
3.417530069e-29
1.409813638e-29
6.037323974e-30
2.518475183e-30
9.038338131e-31
1.965614243e-31
1.536414395e-32
4.089653987e-10
4.962411161e-11
7.429554627e-12
1.861681366e-12
7.992047784e-13
4.468253243e-13
2.690626057e-13
1.66628928e-13
1.026240211e-13
6.291180744e-14
3.812629515e-14
2.291407789e-14
1.365818924e-14
8.087143289e-15
4.759481858e-15
2.784340807e-15
1.618673202e-15
9.343243623e-16
5.349612968e-16
3.034219231e-16
1.702392117e-16
9.436034577e-17
5.161004879e-17
2.782173977e-17
1.476818769e-17
7.713790223e-18
3.962952498e-18
2.001975999e-18
9.943005219e-19
4.854637002e-19
2.330429987e-19
1.100490128e-19
5.11745167e-20
2.347816155e-20
1.066202457e-20
4.816448964e-21
2.177454077e-21
9.902401736e-22
4.536011741e-22
2.083450867e-22
9.502159217e-23
4.251222284e-23
1.844677985e-23
7.69695036e-24
3.0727e-24
1.171810384e-24
4.27596689e-25
1.499905127e-25
5.097419109e-26
1.698290307e-26
5.641931636e-27
1.912186352e-27
6.78520184e-28
2.571076789e-28
1.041257409e-28
4.388495377e-29
1.807338357e-29
6.440430607e-30
1.478077285e-30
1.40747373e-31
8.50752688e-10
1.237514565e-10
2.142502208e-11
7.673767339e-12
4.227962046e-12
2.688798738e-12
1.729206913e-12
1.113875442e-12
7.030712362e-13
4.37869191e-13
2.666410041e-13
1.595476797e-13
9.35829915e-14
5.396724401e-14
3.062864172e-14
1.715647228e-14
9.511567359e-15
5.233223514e-15
2.864180664e-15
1.560875836e-15
8.468791905e-16
4.569627634e-16
2.448933171e-16
1.301453348e-16
6.848543174e-17
3.564418798e-17
1.833123065e-17
9.307582033e-18
4.662635091e-18
2.303158141e-18
1.121358462e-18
5.38211725e-19
2.548612442e-19
1.192993026e-19
5.540675608e-20
2.567545407e-20
1.194617655e-20
5.603114599e-21
2.645315117e-21
1.247106161e-21
5.799034581e-22
2.625359775e-22
1.144807041e-22
4.773650606e-23
1.896917107e-23
7.183809848e-24
2.600818689e-24
9.052304955e-25
3.053467775e-25
1.009038954e-25
3.314950607e-26
1.104158633e-26
3.817400612e-27
1.398673055e-27
5.462449411e-28
2.225053418e-28
8.89459353e-29
3.077873057e-29
6.973676979e-30
6.795779252e-31
5.57495186e-09
1.037188557e-09
1.297757658e-10
3.27405708e-11
1.751496039e-11
1.140343012e-11
7.591978599e-12
5.017930696e-12
3.264544921e-12
2.090014898e-12
1.311236491e-12
8.066801837e-13
4.854377691e-13
2.860066392e-13
1.647847167e-13
9.298581342e-14
5.142550018e-14
2.7955664e-14
1.49791472e-14
7.940397916e-15
4.177071809e-15
2.185611673e-15
1.138761682e-15
5.910111021e-16
3.054378423e-16
1.570465767e-16
8.024647921e-17
4.069896009e-17
2.046377731e-17
1.019089498e-17
5.023157824e-18
2.450110525e-18
1.183235445e-18
5.667812887e-19
2.703137531e-19
1.290860088e-19
6.206418635e-20
3.009430614e-20
1.464462335e-20
7.073317105e-21
3.344341817e-21
1.528080959e-21
6.683097067e-22
2.781499721e-22
1.099496621e-22
4.134255976e-23
1.485373694e-23
5.133195859e-24
1.720311301e-24
5.646037577e-25
1.836723732e-25
6.014037463e-26
2.019690919e-26
7.091523153e-27
2.628788611e-27
1.013924923e-27
3.852938403e-28
1.271321933e-28
2.772469288e-29
2.662248297e-30
1.1904744e-08
3.206178154e-09
5.383250988e-10
1.109064284e-10
5.347634899e-11
3.473535306e-11
2.372879312e-11
1.619230753e-11
1.095065372e-11
7.318358998e-12
4.817572875e-12
3.118450775e-12
1.979585754e-12
1.231231115e-12
7.485243852e-13
4.447183833e-13
2.578043198e-13
1.459288528e-13
8.063329604e-14
4.358854443e-14
2.309162067e-14
1.203292817e-14
6.186472389e-15
3.149589298e-15
1.592356769e-15
8.013098946e-16
4.018069679e-16
2.008041853e-16
9.996234453e-17
4.952602502e-17
2.440086864e-17
1.194943553e-17
5.818780843e-18
2.822983602e-18
1.370113382e-18
6.689260822e-19
3.29848679e-19
1.640261754e-19
8.156464196e-20
4.001942508e-20
1.909815588e-20
8.759634062e-21
3.830134713e-21
1.589565498e-21
6.25669542e-22
2.341764915e-22
8.378351426e-23
2.885420763e-23
9.641623218e-24
3.152910798e-24
1.018672846e-24
3.288345734e-25
1.074887122e-25
3.610232065e-26
1.257887287e-26
4.508158269e-27
1.589598862e-27
4.899763768e-28
1.013520587e-28
9.624841829e-30
1.227746703e-08
5.158230105e-09
1.43837171e-09
3.160637503e-10
1.309832425e-10
8.160383376e-11
5.629809727e-11
3.949821052e-11
2.77467699e-11
1.940571678e-11
1.345715441e-11
9.223131719e-12
6.229982889e-12
4.138820077e-12
2.697389803e-12
1.721579354e-12
1.073703845e-12
6.534804421e-13
3.873215767e-13
2.235011017e-13
1.254562577e-13
6.859611648e-14
3.655376251e-14
1.903148341e-14
9.702994432e-15
4.863907529e-15
2.40599273e-15
1.17898391e-15
5.740387446e-16
2.783565975e-16
1.346170564e-16
6.498104295e-17
3.133948187e-17
1.513752114e-17
7.356605108e-18
3.616813936e-18
1.803165702e-18
9.07335861e-19
4.555393387e-19
2.247393373e-19
1.073319447e-19
4.90672064e-20
2.132646375e-20
8.787379091e-21
3.435666724e-21
1.280027929e-21
4.572906028e-22
1.577191526e-22
5.287187545e-23
1.734088021e-23
5.602023895e-24
1.795899095e-24
5.762016699e-25
1.866706597e-25
6.138744529e-26
2.033737027e-26
6.548065782e-27
1.85124895e-27
3.590124008e-28
3.370875945e-29
1.052502632e-08
5.906029823e-09
2.548047025e-09
7.94629139e-10
2.771111797e-10
1.544508434e-10
1.048964823e-10
7.487335389e-11
5.416092207e-11
3.927138222e-11
2.839605358e-11
2.04094487e-11
1.454423682e-11
1.025392348e-11
7.137343406e-12
4.894141707e-12
3.297558426e-12
2.177480358e-12
1.405130581e-12
8.842398703e-13
5.414290336e-13
3.221512945e-13
1.859486213e-13
1.040667e-13
5.644772788e-14
2.972239369e-14
1.521421215e-14
7.591795309e-15
3.705289836e-15
1.777108789e-15
8.418596619e-16
3.959699782e-16
1.858613741e-16
8.752177733e-17
4.162337353e-17
2.014563345e-17
9.952669054e-18
4.983930235e-18
2.494145203e-18
1.22601147e-18
5.823624468e-19
2.642980945e-19
1.138357534e-19
4.640892876e-20
1.794988293e-20
6.632348257e-21
2.361365662e-21
8.162852454e-22
2.755104075e-22
9.116300917e-23
2.967191492e-23
9.533188722e-24
3.035139998e-24
9.606314909e-25
3.020281885e-25
9.326167421e-26
2.734639703e-26
7.00172547e-27
1.26099947e-27
1.166860098e-28
2.072203183e-08
1.109412204e-08
5.610280994e-09
2.106336499e-09
6.667999444e-10
2.863145264e-10
1.738215741e-10
1.213499942e-10
8.842065612e-11
6.535209143e-11
4.848349651e-11
3.5921776e-11
2.650185432e-11
1.943041263e-11
1.41346768e-11
1.018705356e-11
7.262513526e-12
5.11308785e-12
3.547170011e-12
2.418186429e-12
1.614848401e-12
1.052718602e-12
6.674925561e-13
4.104455816e-13
2.442249873e-13
1.404362293e-13
7.795295137e-14
4.175385449e-14
2.159094382e-14
1.080247541e-14
5.245502553e-15
2.484072602e-15
1.155135987e-15
5.32227835e-16
2.454586714e-16
1.146644675e-16
5.479498718e-17
2.671071616e-17
1.309295213e-17
6.339772515e-18
2.980637194e-18
1.341896729e-18
5.735619831e-19
2.318147147e-19
8.874492656e-20
3.246510044e-20
1.148432198e-20
3.966501134e-21
1.345469947e-21
4.493561003e-22
1.478393826e-22
4.791026326e-23
1.528531393e-23
4.790168502e-24
1.463824956e-24
4.28416082e-25
1.155573903e-25
2.657008086e-26
4.338757658e-27
3.902537765e-28
4.537118903e-08
1.966232665e-08
1.03264743e-08
4.724177654e-09
1.608683722e-09
5.533524673e-10
2.787037927e-10
1.812410805e-10
1.302730349e-10
9.697568293e-11
7.311919931e-11
5.533945316e-11
4.185478203e-11
3.155464377e-11
2.367361426e-11
1.765172394e-11
1.306524381e-11
9.588084109e-12
6.966984698e-12
5.004331078e-12
3.546223418e-12
2.473316515e-12
1.693359602e-12
1.134131195e-12
7.401054053e-13
4.687604422e-13
2.869242331e-13
1.691603318e-13
9.586839769e-14
5.219026259e-14
2.7288274e-14
1.371926166e-14
6.654939366e-15
3.135220714e-15
1.447602392e-15
6.621892542e-16
3.041097539e-16
1.416165443e-16
6.652324072e-17
3.109333864e-17
1.426609269e-17
6.347075783e-18
2.702955606e-18
1.090666469e-18
4.153537529e-19
1.507245724e-19
5.291478084e-20
1.818132202e-20
6.15820648e-21
2.06290524e-21
6.835179535e-22
2.235289343e-22
7.185935362e-23
2.254871158e-23
6.816403258e-24
1.935534797e-24
4.927104408e-25
1.032617457e-25
1.51252389e-26
1.301417478e-27
6.016203595e-08
2.131803937e-08
1.243852298e-08
6.912283285e-09
3.059616136e-09
1.061603374e-09
4.456694581e-10
2.617754244e-10
1.82071114e-10
1.351143114e-10
1.027894049e-10
7.896390922e-11
6.084064604e-11
4.684836845e-11
3.597539024e-11
2.751065737e-11
2.0926527e-11
1.581853826e-11
1.187066355e-11
8.833736196e-12
6.509054381e-12
4.743022549e-12
3.410702619e-12
2.414562472e-12
1.678084281e-12
1.141318283e-12
7.571638952e-13
4.88076502e-13
3.043672772e-13
1.828148849e-13
1.053270927e-13
5.805057406e-14
3.059789365e-14
1.545944295e-14
7.52217709e-15
3.547221712e-15
1.632237661e-15
7.397899111e-16
3.327316266e-16
1.485563611e-16
6.532910879e-17
2.81139884e-17
1.178647988e-17
4.77091637e-18
1.835864904e-18
6.683202182e-19
2.336420136e-19
7.975314583e-20
2.684048064e-20
8.946880421e-21
2.95922422e-21
9.701360811e-22
3.136597334e-22
9.898022091e-23
2.9948257e-23
8.423606948e-24
2.083900294e-24
4.112840311e-25
5.476097541e-26
4.421646607e-27
6.868706864e-08
1.894953291e-08
1.187717713e-08
7.791372748e-09
4.347290377e-09
1.863882675e-09
7.371665388e-10
3.802086205e-10
2.497542017e-10
1.82600359e-10
1.391232891e-10
1.078256594e-10
8.416444329e-11
6.583200007e-11
5.145163293e-11
4.01085308e-11
3.114729615e-11
2.406964482e-11
1.850247689e-11
1.413479757e-11
1.071801075e-11
8.055788099e-12
5.992005476e-12
4.402488111e-12
3.18830103e-12
2.2704605e-12
1.585728662e-12
1.083137919e-12
7.212737818e-13
4.666242745e-13
2.922304845e-13
1.764488853e-13
1.022802453e-13
5.672894256e-14
3.00760612e-14
1.526501508e-14
7.434500375e-15
3.479759852e-15
1.569851737e-15
6.865864829e-16
2.929272555e-16
1.219455976e-16
4.948059528e-17
1.959172138e-17
7.556831331e-18
2.807366358e-18
9.958401488e-19
3.396945228e-19
1.132297619e-19
3.731811385e-20
1.222576518e-20
3.983210822e-21
1.285470507e-21
4.066033535e-22
1.23577594e-22
3.486291189e-23
8.589799356e-24
1.655641901e-24
2.07455511e-25
1.559209218e-26
1.207863605e-07
2.490608873e-08
1.315483904e-08
8.758893887e-09
5.581059968e-09
3.036762486e-09
1.326295166e-09
5.992874677e-10
3.493254623e-10
2.434126307e-10
1.830950147e-10
1.419937735e-10
1.116018176e-10
8.820031463e-11
6.978184549e-11
5.518359034e-11
4.356311788e-11
3.428079342e-11
2.686359608e-11
2.094509602e-11
1.62293389e-11
1.2481696e-11
9.515147095e-12
7.179106231e-12
5.35167458e-12
3.933931323e-12
2.84540709e-12
2.020323375e-12
1.404589925e-12
9.535442904e-13
6.302832382e-13
4.044034216e-13
2.510452619e-13
1.502791534e-13
8.648255755e-14
4.772991984e-14
2.520757873e-14
1.270715068e-14
6.098917044e-15
2.781218828e-15
1.207938547e-15
5.030494932e-16
2.020571501e-16
7.860121525e-17
2.975971533e-17
1.101389219e-17
3.969844151e-18
1.382724543e-18
4.642356911e-19
1.516721904e-19
4.892536452e-20
1.571851299e-20
5.023593648e-21
1.581467855e-21
4.809240381e-22
1.364971025e-22
3.39802387e-23
6.596012586e-24
8.141511506e-25
5.787272383e-26
3.27399818e-07
5.775236566e-08
2.124315502e-08
1.248148089e-08
7.762037702e-09
4.64293217e-09
2.413835298e-09
1.076450922e-09
5.302396423e-10
3.273523296e-10
2.337354951e-10
1.779261037e-10
1.390637511e-10
1.102762475e-10
8.766593837e-11
7.019807095e-11
5.61998985e-11
4.490093424e-11
3.574977146e-11
2.833480999e-11
2.233346423e-11
1.748780458e-11
1.358830837e-11
1.046360203e-11
7.973250345e-12
6.001945095e-12
4.454841466e-12
3.253547877e-12
2.332924368e-12
1.638525086e-12
1.124549442e-12
7.523214616e-13
4.893187622e-13
3.085919048e-13
1.882128844e-13
1.107224214e-13
6.265024322e-14
3.398062338e-14
1.759094961e-14
8.655989893e-15
4.032359154e-15
1.775406741e-15
7.40100716e-16
2.931108941e-16
1.113452635e-16
4.09483027e-17
1.466555516e-17
5.141951473e-18
1.761124118e-18
5.853162813e-19
1.890009124e-19
5.987773881e-20
1.878340494e-20
5.825263113e-21
1.757605844e-21
4.99603393e-22
1.263166749e-22
2.532411374e-23
3.234715084e-24
2.268885036e-25
4.735877861e-07
8.894824355e-08
2.67492163e-08
1.55829324e-08
1.000464227e-08
6.351416705e-09
3.769809692e-09
1.963248807e-09
9.12903428e-10
4.689427953e-10
2.914323162e-10
2.067505524e-10
1.571277144e-10
1.236428444e-10
9.823373237e-11
7.91773113e-11
6.394630472e-11
5.163917397e-11
4.161787495e-11
3.342716669e-11
2.672715919e-11
2.125291734e-11
1.679144842e-11
1.316750405e-11
1.023551557e-11
7.874221723e-12
5.983413449e-12
4.481136408e-12
3.300293918e-12
2.38495103e-12
1.687200541e-12
1.165828489e-12
7.852840069e-13
5.146613767e-13
3.275541055e-13
2.020319873e-13
1.204694882e-13
6.924635494e-14
3.823121269e-14
2.01850069e-14
1.01409118e-14
4.82142825e-15
2.160862464e-15
9.115963107e-16
3.629466076e-16
1.373216189e-16
4.978868905e-17
1.746101981e-17
5.980534185e-18
2.008291423e-18
6.596167569e-19
2.110326761e-19
6.581951256e-20
2.007559604e-20
5.961011385e-21
1.686524353e-21
4.33325865e-22
9.134100625e-23
1.266748336e-23
9.266507379e-25
5.428539467e-07
1.117029608e-07
2.957815046e-08
1.633460514e-08
1.111382732e-08
7.593084858e-09
4.956183571e-09
3.005338951e-09
1.61774958e-09
7.72731377e-10
3.867203929e-10
2.292059807e-10
1.57695396e-10
1.190698992e-10
9.36053814e-11
7.511855496e-11
6.08859115e-11
4.956229176e-11
4.037903799e-11
3.285137803e-11
2.664745375e-11
2.152406992e-11
1.729376378e-11
1.380677327e-11
1.094023238e-11
8.592336722e-12
6.678050006e-12
5.125935005e-12
3.876342787e-12
2.88072298e-12
2.099194293e-12
1.49636299e-12
1.040698428e-12
7.049409348e-13
4.645172075e-13