/*--------------------------------*- C++ -*----------------------------------*\
  =========                 |
  \\      /  F ield         | OpenFOAM: The Open Source CFD Toolbox
   \\    /   O peration     | Website:  https://openfoam.org
    \\  /    A nd           | Version:  10
     \\/     M anipulation  |
\*---------------------------------------------------------------------------*/
FoamFile
{
    format      ascii;
    class       volScalarField;
    location    "3000";
    object      HCO;
}
// * * * * * * * * * * * * * * * * * * * * * * * * * * * * * * * * * * * * * //

dimensions      [0 0 0 0 0 0 0];

internalField   nonuniform List<scalar> 
5170
(
3.424449148e-73
1.535047693e-73
2.757781352e-74
1.812231355e-75
2.121362613e-77
2.626444302e-70
1.103909176e-70
1.656451112e-71
7.190661843e-73
7.137221334e-75
1.967392471e-67
7.703110959e-68
9.296916746e-69
2.887537261e-70
3.08507032e-72
1.451870539e-64
5.30044842e-65
5.195775642e-66
1.206398722e-67
1.615224055e-69
1.062683478e-61
3.651295936e-62
2.981315669e-63
5.420096423e-65
7.779098496e-67
7.777787586e-59
2.554041225e-59
1.744062047e-60
2.612891198e-62
4.376352155e-64
5.75383758e-56
1.830188696e-56
1.065288245e-57
1.349569801e-59
4.221436335e-61
4.287314011e-53
1.333336238e-53
7.040764132e-55
8.130502738e-57
8.389033188e-58
3.249969273e-50
1.030572989e-50
5.148723406e-52
5.995138992e-54
2.339307069e-54
2.524066311e-47
8.504919207e-48
4.216966639e-49
6.774605725e-51
7.150414867e-51
2.01972094e-44
7.57127995e-45
4.160300415e-46
1.73512647e-47
2.242769207e-47
1.660932932e-41
7.247686132e-42
5.27970895e-43
7.825522227e-44
7.094817972e-44
1.407350618e-38
7.495714307e-39
8.933848066e-40
4.114011923e-40
3.951591665e-40
1.222216606e-35
8.293541503e-36
1.905348033e-36
2.162650907e-36
2.377661134e-36
1.089916127e-32
9.885331425e-33
4.717381092e-33
1.094268083e-32
1.439806371e-32
9.818226993e-30
1.247123277e-29
1.251782578e-29
5.090166386e-29
8.725298152e-29
8.8921605e-27
1.664883276e-26
3.364015699e-26
2.128487319e-25
5.292773191e-25
7.869828305e-24
2.255205314e-23
8.805379064e-23
8.2135259e-22
3.214097069e-21
6.477365665e-21
2.9578007e-20
2.124417163e-19
2.765825049e-18
1.953899186e-17
4.479062254e-18
3.542890539e-17
4.636223012e-16
8.516508462e-15
1.204230827e-13
6.893735448e-11
3.061760839e-11
2.205671499e-11
3.732287505e-11
7.138921974e-11
4.969349148e-11
3.284078423e-11
2.714862307e-11
3.73317984e-11
4.925495943e-11
3.220767193e-11
2.753196546e-11
2.479815564e-11
2.91629511e-11
3.08951816e-11
2.133866979e-11
2.146880624e-11
2.04842905e-11
2.163962908e-11
1.973108781e-11
1.466706275e-11
1.650350334e-11
1.629350193e-11
1.573292537e-11
1.275987653e-11
1.048072665e-11
1.266002109e-11
1.274109563e-11
1.132246673e-11
8.415053812e-12
7.720242811e-12
9.713603922e-12
9.846037545e-12
8.105422004e-12
5.69788518e-12
5.835522073e-12
7.475651177e-12
7.55971846e-12
5.85390088e-12
4.034341555e-12
4.522379126e-12
5.798695048e-12
5.810178124e-12
4.347685962e-12
3.03299512e-12
3.592414964e-12
4.552388993e-12
4.511018922e-12
3.357008046e-12
2.421387614e-12
2.929005203e-12
3.637581145e-12
3.568732499e-12
2.700251273e-12
2.032345805e-12
2.450523283e-12
2.97040216e-12
2.894664968e-12
2.255743347e-12
1.771376374e-12
2.101061717e-12
2.484299727e-12
2.412882208e-12
1.945320807e-12
1.586037695e-12
1.841176713e-12
2.126832988e-12
2.065133839e-12
1.72063512e-12
1.447105842e-12
1.644318321e-12
1.861024211e-12
1.80985021e-12
1.551946157e-12
1.337708724e-12
1.491231327e-12
1.659362021e-12
1.618188144e-12
1.420424839e-12
1.247170803e-12
1.35405962e-12
1.497621892e-12
1.46807497e-12
1.313375228e-12
1.168940908e-12
7.238394497e-13
9.756332221e-13
1.257025853e-12
1.208261299e-12
1.095646301e-12
2.066160467e-12
1.610824283e-12
6.918055219e-13
4.010655868e-13
8.433765924e-13
2.069679085e-10
1.375823142e-10
1.752023567e-11
5.146855495e-12
9.03520124e-13
8.824322918e-16
1.130400473e-14
3.478615014e-13
1.608807756e-11
7.428785504e-10
3.224616081e-15
3.604291024e-14
9.364078686e-13
3.506890269e-11
9.377765911e-10
7.518798522e-15
7.914013116e-14
1.883869277e-12
5.426939896e-11
8.60480057e-10
1.656727385e-14
1.740300511e-13
3.951901096e-12
8.648551283e-11
1.003775444e-09
3.442634507e-14
3.593628025e-13
7.532554981e-12
1.212379011e-10
1.141509653e-09
6.998224745e-14
7.091297305e-13
1.318844369e-11
1.6010408e-10
1.289018017e-09
1.682609125e-13
1.697432898e-12
2.526690997e-11
2.360357543e-10
1.628185183e-09
4.174998219e-13
4.064187105e-12
4.703339534e-11
3.424287697e-10
2.012892035e-09
1.089064665e-12
9.058128137e-12
7.906220408e-11
4.707669379e-10
2.447337287e-09
2.621987789e-12
1.826228913e-11
1.223279097e-10
6.20932069e-10
2.87681821e-09
6.327710324e-12
3.354976178e-11
1.755720397e-10
7.814620548e-10
3.234008555e-09
1.334977768e-11
5.422236583e-11
2.365108149e-10
9.500857229e-10
3.574515835e-09
2.539565443e-11
8.280961209e-11
3.169041362e-10
1.176132117e-09
4.127736569e-09
4.587967434e-11
1.246139779e-10
4.280538052e-10
1.469039993e-09
4.795052074e-09
8.193268763e-11
1.903858703e-10
5.899267758e-10
1.867150238e-09
5.700955459e-09
1.47102595e-10
2.972208141e-10
8.202616663e-10
2.363831654e-09
6.664422504e-09
2.653458226e-10
4.73603396e-10
1.152819663e-09
2.997445566e-09
7.763263285e-09
4.71787059e-10
7.612396981e-10
1.653196259e-09
3.921887771e-09
9.461229798e-09
8.353445007e-10
1.242278353e-09
2.438817346e-09
5.299397965e-09
1.193182655e-08
1.427757337e-09
1.987585711e-09
3.5595198e-09
7.135161322e-09
1.500203138e-08
2.318567279e-09
3.057211277e-09
5.07494075e-09
9.474921023e-09
1.876263841e-08
3.59940562e-09
4.584125735e-09
7.177061283e-09
1.269666097e-08
2.403350839e-08
5.385360019e-09
6.668841503e-09
1.00413825e-08
1.700166135e-08
3.020641569e-08
7.913126666e-09
9.584995469e-09
1.391326732e-08
2.247493082e-08
3.795931657e-08
1.174046222e-08
1.396658804e-08
1.964930992e-08
3.015203825e-08
4.858439443e-08
1.727304065e-08
2.013359677e-08
2.730218124e-08
4.097224813e-08
6.365263119e-08
2.651909199e-08
3.044422777e-08
4.017794819e-08
5.734713136e-08
8.584682028e-08
4.123784385e-08
4.646688888e-08
5.91977813e-08
8.231975204e-08
1.190194747e-07
6.674157218e-08
7.354931907e-08
8.958616567e-08
1.189719551e-07
1.675557882e-07
1.114447665e-07
1.212819189e-07
1.446315967e-07
1.845287231e-07
2.465384779e-07
1.898529714e-07
2.040029942e-07
2.366684762e-07
2.909302718e-07
3.727805899e-07
3.27306106e-07
3.468696009e-07
3.915411594e-07
4.636645155e-07
5.674613478e-07
5.623371712e-07
5.872948247e-07
6.427436141e-07
7.291310519e-07
8.473981029e-07
9.123598693e-07
9.381057742e-07
9.935404713e-07
1.075513038e-06
1.179075244e-06
1.266503469e-06
1.282058162e-06
1.31461307e-06
1.359179357e-06
1.409300689e-06
1.378725861e-06
1.381702136e-06
1.387182555e-06
1.392671819e-06
1.395152752e-06
1.239657941e-06
1.236756187e-06
1.229995465e-06
1.218672333e-06
1.201552616e-06
1.001496537e-06
9.972230484e-07
9.876488185e-07
9.725633982e-07
9.512342107e-07
7.638354553e-07
7.596239126e-07
7.501554134e-07
7.351086655e-07
7.134781939e-07
5.590833668e-07
5.54417955e-07
5.437151044e-07
5.26140096e-07
4.999437077e-07
3.558682934e-07
3.491798241e-07
3.345034273e-07
3.126652073e-07
2.853556966e-07
1.818122555e-07
1.790034436e-07
1.730453499e-07
1.645212788e-07
1.540085563e-07
1.030918889e-07
1.01847214e-07
9.91699452e-08
9.52556421e-08
9.028649606e-08
6.241251493e-08
6.17351843e-08
6.027045021e-08
5.810962393e-08
5.533409961e-08
3.849006576e-08
3.808654228e-08
3.721321565e-08
3.59209699e-08
3.425713162e-08
2.349597302e-08
2.325269121e-08
2.272631581e-08
2.194914554e-08
2.095001611e-08
1.400431819e-08
1.386208479e-08
1.355446877e-08
1.310062483e-08
1.251758421e-08
8.112952276e-09
8.033023628e-09
7.860161794e-09
7.605133055e-09
7.27747776e-09
4.570318952e-09
4.527122603e-09
4.433676529e-09
4.295734255e-09
4.118364198e-09
2.510007892e-09
2.487426732e-09
2.438547164e-09
2.366304068e-09
2.273237141e-09
1.332303022e-09
1.320687778e-09
1.295353866e-09
1.25766959e-09
1.206627001e-09
6.713748602e-10
6.671321443e-10
6.58056645e-10
6.449489384e-10
6.286700812e-10
3.416863222e-10
3.394060523e-10
3.344304075e-10
3.269599359e-10
3.170891252e-10
1.759905116e-10
1.748492458e-10
1.723665304e-10
1.686621552e-10
1.638261856e-10
9.207621795e-11
9.152804127e-11
9.033740019e-11
8.856518346e-11
8.625869525e-11
4.905091007e-11
4.879006915e-11
4.822360494e-11
4.738037536e-11
4.628272656e-11
2.669846891e-11
2.657470962e-11
2.63058733e-11
2.590536034e-11
2.538314714e-11
1.490627598e-11
1.484907031e-11
1.472508024e-11
1.454107096e-11
1.430256506e-11
8.657249015e-12
8.635229056e-12
8.587979298e-12
8.519116829e-12
8.43231704e-12
5.430276925e-12
5.430059151e-12
5.43054696e-12
5.433796864e-12
5.442877734e-12
3.983205123e-12
4.000304355e-12
4.038851022e-12
4.099936455e-12
4.186505801e-12
3.732298768e-12
3.763987178e-12
3.834495737e-12
3.943851002e-12
4.094561089e-12
4.282172616e-12
4.326369009e-12
4.424233523e-12
4.574778654e-12
4.779878848e-12
5.417913568e-12
5.472517269e-12
5.59303345e-12
5.777383695e-12
6.026594478e-12
6.992430169e-12
7.054744552e-12
7.191922259e-12
7.400820167e-12
7.681463445e-12
8.883309356e-12
8.949969965e-12
9.096382199e-12
9.318473763e-12
9.615227979e-12
1.095935048e-11
1.102657362e-11
1.117390912e-11
1.139660435e-11
1.169269772e-11
1.306942031e-11
1.313328756e-11
1.327298169e-11
1.348340905e-11
1.376187816e-11
1.502491727e-11
1.508226148e-11
1.520742738e-11
1.539534037e-11
1.564287852e-11
1.643139371e-11
1.648070404e-11
1.658813129e-11
1.67489245e-11
1.695985834e-11
4.555962076e-09
7.704584489e-09
5.14639847e-09
6.093111753e-09
6.530683581e-09
6.452466329e-09
6.972945789e-09
7.473298806e-09
8.360492458e-09
8.982720238e-09
9.232779772e-09
9.468995748e-09
1.039334893e-08
1.141481454e-08
1.293075225e-08
1.424519461e-08
1.562470358e-08
1.818954864e-08
2.196327613e-08
2.640602922e-08
3.195135524e-08
3.855214862e-08
4.630189917e-08
5.610958345e-08
6.94999153e-08
8.846714544e-08
1.160359041e-07
1.565463957e-07
2.158417615e-07
3.071605889e-07
4.495561897e-07
6.59719512e-07
9.4522831e-07
1.256012683e-06
1.44080042e-06
1.392366479e-06
1.185361727e-06
9.322507003e-07
6.937353314e-07
4.754950826e-07
2.658362111e-07
1.461858724e-07
8.64510832e-08
5.31625021e-08
3.295234239e-08
2.016739986e-08
1.206123098e-08
7.020947252e-09
3.97932394e-09
2.200115226e-09
1.174593773e-09
6.126389617e-10
3.090255874e-10
1.59964076e-10
8.44225543e-11
4.54084545e-11
2.496642663e-11
1.411377394e-11
8.366332273e-12
5.455446342e-12
4.263073241e-12
4.223542577e-12
4.952914656e-12
6.234802813e-12
7.914095641e-12
9.859527851e-12
1.193492835e-11
1.398833121e-11
1.584301007e-11
1.71294913e-11
1.410479856e-08
2.932652608e-08
2.237745797e-09
2.052801537e-10
7.91980057e-11
4.642536299e-08
7.805555914e-07
7.088116298e-08
4.75969655e-09
1.331879608e-09
2.772116364e-08
2.971251069e-07
9.657089194e-08
9.87589757e-09
4.401723296e-09
2.954248539e-08
4.53002277e-07
5.204764279e-06
3.892435018e-07
3.496988741e-08
2.902898167e-08
3.854131464e-07
3.578589731e-06
3.294509513e-07
3.467569956e-08
2.556754207e-08
2.813003668e-07
1.993668142e-06
2.613594206e-07
2.766588572e-08
2.495555745e-08
2.099619667e-07
1.216385893e-06
2.489797069e-07
3.907818317e-08
2.417982553e-08
1.959749875e-07
1.141613957e-06
4.14890694e-06
5.441946401e-07
2.540702183e-08
1.880001236e-07
1.049539562e-06
4.539603959e-06
7.362209018e-07
2.548741537e-08
1.669260126e-07
8.288044169e-07
3.174483479e-06
6.447022983e-07
2.454030905e-08
1.442037025e-07
6.46859735e-07
2.245754998e-06
5.515357614e-07
2.387333224e-08
1.285179585e-07
5.344868115e-07
1.784694358e-06
2.03489395e-06
2.529379219e-08
1.277486205e-07
5.181728163e-07
1.826095627e-06
4.675061415e-06
2.660921379e-08
1.229645945e-07
4.6199967e-07
1.510567245e-06
3.707566135e-06
2.909445027e-08
1.161142133e-07
4.033941764e-07
1.229678588e-06
2.858412326e-06
3.067885052e-08
1.10999481e-07
3.592538007e-07
1.02724927e-06
2.266233645e-06
3.258892371e-08
1.096044206e-07
3.340945672e-07
9.109840529e-07
1.998165397e-06
3.663189473e-08
1.169972931e-07
3.455271909e-07
9.389725758e-07
2.228567675e-06
4.261900029e-08
1.276420392e-07
3.592370674e-07
9.396458264e-07
2.187893732e-06
4.923728476e-08
1.381274308e-07
3.666186915e-07
9.084963442e-07
2.012726166e-06
5.671368845e-08
1.488057331e-07
3.7235229e-07
8.735754566e-07
1.835537384e-06
6.528431379e-08
1.60581201e-07
3.79593281e-07
8.451162874e-07
1.689178725e-06
7.540773076e-08
1.74579347e-07
3.910679049e-07
8.287155711e-07
1.579970951e-06
8.836917936e-08
1.934849788e-07
4.123580672e-07
8.34958805e-07
1.52597006e-06
1.06125895e-07
2.206615001e-07
4.492817476e-07
8.733046788e-07
1.540462016e-06
1.312935128e-07
2.599343387e-07
5.057593928e-07
9.427643378e-07
1.598027881e-06
1.674420278e-07
3.15601698e-07
5.858124592e-07
1.040858711e-06
1.674097425e-06
2.195325578e-07
3.93466891e-07
6.943760664e-07
1.165863406e-06
1.753676158e-06
2.952762696e-07
5.025633906e-07
8.375471458e-07
1.314286617e-06
1.822910234e-06
4.055214385e-07
6.52918996e-07
1.017880532e-06
1.473609305e-06
1.864915784e-06
5.726186236e-07
8.548224915e-07
1.22817994e-06
1.61905635e-06
1.865928806e-06
8.04252534e-07
1.102424395e-06
1.438634808e-06
1.714693322e-06
1.815183212e-06
1.093666953e-06
1.355899749e-06
1.591271066e-06
1.724188127e-06
1.698313277e-06
1.367451176e-06
1.523833686e-06
1.620157898e-06
1.621281079e-06
1.495907059e-06
1.483049128e-06
1.517285316e-06
1.499252117e-06
1.408200853e-06
1.212395688e-06
1.385281842e-06
1.34828947e-06
1.272440462e-06
1.139419808e-06
9.174726552e-07
1.159368497e-06
1.096623099e-06
9.999254803e-07
8.489692358e-07
6.198956531e-07
9.023528481e-07
8.334131591e-07
7.282777156e-07
5.685710462e-07
3.966404633e-07
6.623200512e-07
5.861030548e-07
4.709083679e-07
3.45361965e-07
2.510295907e-07
4.367872509e-07
3.536086125e-07
2.737512546e-07
2.095913245e-07
1.584036248e-07
2.381857476e-07
1.978010598e-07
1.608962497e-07
1.282719384e-07
1.001606133e-07
1.347771273e-07
1.160761973e-07
9.748249261e-08
7.984841497e-08
6.379891596e-08
8.078375129e-08
7.090586506e-08
6.058928014e-08
5.041733223e-08
4.087543209e-08
4.99395396e-08
4.419654304e-08
3.808774018e-08
3.197323599e-08
2.616414541e-08
3.101495867e-08
2.755068092e-08
2.385368053e-08
2.013983957e-08
1.659612675e-08
1.900606302e-08
1.693037918e-08
1.471568942e-08
1.248952753e-08
1.036014577e-08
1.138436101e-08
1.017431139e-08
8.882702149e-09
7.581948045e-09
6.33368808e-09
6.640471959e-09
5.959266462e-09
5.230584998e-09
4.494183585e-09
3.784053277e-09
3.773031867e-09
3.402490897e-09
3.004482551e-09
2.599986551e-09
2.20698114e-09
2.09152999e-09
1.895390663e-09
1.683441495e-09
1.467201601e-09
1.255931507e-09
1.124644593e-09
1.027244736e-09
9.205208554e-10
8.10038175e-10
7.00769432e-10
5.87718383e-10
5.370745752e-10
4.777331772e-10
4.209673101e-10
3.667707445e-10
2.969110114e-10
2.740046001e-10
2.485157832e-10
2.222261229e-10
1.962485705e-10
1.541981209e-10
1.435009964e-10
1.316401519e-10
1.191950036e-10
1.066725845e-10
8.168351486e-11
7.660750061e-11
7.095703267e-11
6.497546326e-11
5.889330995e-11
4.410391632e-11
4.168029581e-11
3.897137729e-11
3.608753306e-11
3.313202557e-11
2.434447536e-11
2.318852961e-11
2.189901773e-11
2.05342874e-11
1.915533936e-11
1.383291062e-11
1.331892306e-11
1.275978301e-11
1.219262461e-11
1.166099715e-11
8.269935371e-12
8.110365894e-12
7.96646844e-12
7.869970679e-12
7.856246653e-12
5.47765667e-12
5.551674915e-12
5.689129615e-12
5.921461588e-12
6.284627831e-12
4.38214953e-12
4.648366389e-12
5.016944755e-12
5.512992551e-12
6.163295189e-12
4.421601731e-12
4.841459197e-12
5.390523913e-12
6.088565247e-12
6.955505452e-12
5.217103676e-12
5.76318217e-12
6.456766376e-12
7.31083632e-12
8.336428102e-12
6.551440733e-12
7.194491671e-12
7.994249196e-12
8.955914644e-12
1.008104873e-11
8.266752323e-12
8.972694175e-12
9.835482436e-12
1.085228828e-11
1.201553282e-11
1.022883141e-11
1.095879732e-11
1.18372217e-11
1.285388366e-11
1.399334505e-11
1.230017784e-11
1.301378322e-11
1.386032646e-11
1.482364995e-11
1.588249622e-11
1.432894228e-11
1.498716143e-11
1.575735011e-11
1.661944057e-11
1.754883203e-11
1.614333657e-11
1.671745466e-11
1.738020385e-11
1.810981141e-11
1.888076769e-11
1.738350007e-11
1.786435524e-11
1.841252784e-11
1.900650969e-11
1.962182207e-11
2.23434302e-12
9.900210001e-14
1.115484359e-14
1.994570175e-15
4.437066101e-16
1.020280802e-16
2.234624078e-17
4.724989667e-18
1.007596005e-18
2.370305521e-19
7.253780078e-20
3.305430352e-20
2.08683689e-20
1.560283779e-20
1.257640967e-20
1.045695633e-20
8.751137776e-21
7.252729557e-21
5.888747205e-21
4.651789063e-21
3.560943549e-21
2.636424724e-21
1.886848699e-21
1.306016331e-21
8.756241909e-22
5.701683892e-22
3.620173522e-22
2.25386584e-22
1.386360613e-22
8.506422372e-23
5.265666446e-23
3.327445946e-23
2.168045044e-23
1.464774173e-23
1.02559249e-23
7.391966582e-24
5.424241339e-24
4.001757914e-24
2.933866181e-24
2.118136089e-24
1.497005147e-24
1.032909077e-24
6.958346913e-25
4.587529225e-25
2.971656351e-25
1.900390937e-25
1.205730992e-25
7.624273276e-26
4.824307269e-26
3.065409315e-26
1.961752595e-26
1.266937763e-26
8.254535398e-27
5.399392051e-27
3.499720058e-27
2.186224544e-27
1.240612297e-27
5.642421678e-28
1.389987871e-28
7.980045622e-30
4.130414915e-11
1.472605e-12
8.958627097e-14
8.077355434e-15
1.055540986e-15
1.701401943e-16
3.108527926e-17
6.602610594e-18
1.825928058e-18
7.189445075e-19
3.770756626e-19
2.339293029e-19
1.600320575e-19
1.174004029e-19
9.079088476e-20
7.258997581e-20
5.879486125e-20
4.745892041e-20
3.772617644e-20
2.929894262e-20
2.212638845e-20
1.621020055e-20
1.151234864e-20
7.928264066e-21
5.302084719e-21
3.452093661e-21
2.196701885e-21
1.373634359e-21
8.50237543e-22
5.257397485e-22
3.28295651e-22
2.093697693e-22
1.376636569e-22
9.38033639e-23
6.618339771e-23
4.802305425e-23
3.544261475e-23
2.627337274e-23
1.933658433e-23
1.400271149e-23
9.920410027e-24
6.858935281e-24
4.629669654e-24
3.058747052e-24
1.986284109e-24
1.274020478e-24
8.11120573e-25
5.148851562e-25
3.271337537e-25
2.087150152e-25
1.340884443e-25
8.690213646e-26
5.679088467e-26
3.723304167e-26
2.416355946e-26
1.509531801e-26
8.568671221e-27
3.920097048e-27
1.010759934e-27
6.410466567e-29
1.103146552e-10
2.645781194e-12
1.007869055e-13
6.979889724e-15
9.091192357e-16
1.764187345e-16
4.640036994e-17
1.711055403e-17
8.116003284e-18
4.405668628e-18
2.528332915e-18
1.494462715e-18
9.041927347e-19
5.842938914e-19
4.072066353e-19
3.032627654e-19
2.356420317e-19
1.864726139e-19
1.467436221e-19
1.131538389e-19
8.489935514e-20
6.181950304e-20
4.367901204e-20
2.997606852e-20
2.001996717e-20
1.304971773e-20
8.335437541e-21
5.245029708e-21
3.274041577e-21
2.045070342e-21
1.291257148e-21
8.328910214e-22
5.537427704e-22
3.813134024e-22
2.717146738e-22
1.989863833e-22
1.48101836e-22
1.106071334e-22
8.192448591e-23
5.964522096e-23
4.244953998e-23
2.946759948e-23
1.996530334e-23
1.324120767e-23
8.634169838e-24
5.563861884e-24
3.561014417e-24
2.273627445e-24
1.453419546e-24
9.330097287e-25
6.02936875e-25
3.928305685e-25
2.578472778e-25
1.695820623e-25
1.102068056e-25
6.878031056e-26
3.894734722e-26
1.769407755e-26
4.442557445e-27
2.775596003e-28
1.095488961e-09
1.981682843e-11
4.297810452e-13
1.473421295e-14
1.574089539e-15
4.179970158e-16
1.76377131e-16
9.037736144e-17
5.006041307e-17
2.857994302e-17
1.6449067e-17
9.514376387e-18
5.5419282e-18
3.286875636e-18
2.003251133e-18
1.24307662e-18
8.389297082e-19
6.152110629e-19
4.684015098e-19
3.586102278e-19
2.695421395e-19
1.967346382e-19
1.390716196e-19
9.534553316e-20
6.360653641e-20
4.145716731e-20
2.652395805e-20
1.674971636e-20
1.051028262e-20
6.607286073e-21
4.20136944e-21
2.729458127e-21
1.827543497e-21
1.26752668e-21
9.101454247e-22
6.720463218e-22
5.04452323e-22
3.798193415e-22
2.834056261e-22
2.07686291e-22
1.486838023e-22
1.037846611e-22
7.070278826e-23
4.715720588e-23
3.093798459e-23
2.007013817e-23
1.293882949e-23
8.324401554e-24
5.362617243e-24
3.468631131e-24
2.257757218e-24
1.480685772e-24
9.772476938e-25
6.452365613e-25
4.200028765e-25
2.617556272e-25
1.476347292e-25
6.629271775e-26
1.579469764e-26
9.550241868e-28
2.056265144e-09
4.529846965e-11
9.034289019e-13
3.071443425e-14
4.093309112e-15
1.615609125e-15
8.416887824e-16
4.686216872e-16
2.699250387e-16
1.581850495e-16
9.323637347e-17
5.495290962e-17
3.231702029e-17
1.902513456e-17
1.126905016e-17
6.760784027e-18
4.133194941e-18
2.540595029e-18
1.658735851e-18
1.177016101e-18
8.595562147e-19
6.242189544e-19
4.427357567e-19
3.04788211e-19
2.037344005e-19
1.327375177e-19
8.474466773e-20
5.334418308e-20
3.333428766e-20
2.084249104e-20
1.315976944e-20
8.475223767e-21
5.621068856e-21
3.865322371e-21
2.75951118e-21
2.033647109e-21
1.528817136e-21
1.155403036e-21
8.661887303e-22
6.379062691e-22
4.589335663e-22
3.219580586e-22
2.205052053e-22
1.479547463e-22
9.774351971e-23
6.391774654e-23
4.157124685e-23
2.69899417e-23
1.754165177e-23
1.143936536e-23
7.500065233e-24
4.949246489e-24
3.282835414e-24
2.175039539e-24
1.417737982e-24
8.823293181e-25
4.953140621e-25
2.194455232e-25
4.906773117e-26
2.936821588e-27
8.213168733e-09
2.973143842e-10
6.536413765e-12
1.745643335e-13
2.087761953e-14
7.298169111e-15
3.489984885e-15
1.897607438e-15
1.108551872e-15
6.728226722e-16
4.155884073e-16
2.580711209e-16
1.600286873e-16
9.880137439e-17
6.067838998e-17
3.717005018e-17
2.279092052e-17
1.402544406e-17
8.664480021e-18
5.287216815e-18
3.424869346e-18
2.322569559e-18
1.598126185e-18
1.090907786e-18
7.298494453e-19
4.766767042e-19
3.040825627e-19
1.902115554e-19
1.173737017e-19
7.202579484e-20
4.438576039e-20
2.777493621e-20
1.78513734e-20
1.189998459e-20
8.269302822e-21
5.972153587e-21
4.431508784e-21
3.32500487e-21
2.484867939e-21
1.828920825e-21
1.316941132e-21
9.254628643e-22
6.35330296e-22
4.2766344e-22
2.838638488e-22
1.868943004e-22
1.226276333e-22
8.04193745e-23
5.280601285e-23
3.476580667e-23
2.297986557e-23
1.526217555e-23
1.01712783e-23
6.759604307e-24
4.412706721e-24
2.746060159e-24
1.537573412e-24
6.743780737e-25
1.412563599e-25
8.479516144e-27
1.851779164e-08
1.140223431e-09
3.73908739e-11
1.082348277e-12
6.235329133e-14
1.751574066e-14
8.246137273e-15
4.629363054e-15
2.815376594e-15
1.78478475e-15
1.156880934e-15
7.586017092e-16
4.999576313e-16
3.29853034e-16
2.173872076e-16
1.429395083e-16
9.372493317e-17
6.126834741e-17
3.989729194e-17
2.584179345e-17
1.663641942e-17
1.0352794e-17
6.725393913e-18
4.443767511e-18
2.936724219e-18
1.917788586e-18
1.228740152e-18
7.704844595e-19
4.732745687e-19
2.8605189e-19
1.714709386e-19
1.031005961e-19
6.304705306e-20
3.976882345e-20
2.616256746e-20
1.800905142e-20
1.28680324e-20
9.39130044e-21
6.885962884e-21
5.006923049e-21
3.579328581e-21
2.505785875e-21
1.717130385e-21
1.154924627e-21
7.668668574e-22
5.061978178e-22
3.339260682e-22
2.207335774e-22
1.46328801e-22
9.730035433e-23
6.491026283e-23
4.344263595e-23
2.911864555e-23
1.942715739e-23
1.27164323e-23
7.933696879e-24
4.452160153e-24
1.949400985e-24
3.868376137e-25
2.373183428e-26
5.647586786e-08
6.970317102e-09
3.759536064e-10
1.1267216e-11
4.363785693e-13
5.595887917e-14
1.896138513e-14
9.490951922e-15
5.568516927e-15
3.530114374e-15
2.330112286e-15
1.572125411e-15
1.073974425e-15
7.390390955e-16
5.108401096e-16
3.541721884e-16
2.461237441e-16
1.713783814e-16
1.194440573e-16
8.31401993e-17
5.757797967e-17
3.940070283e-17
2.658947225e-17
1.720860644e-17
1.141852718e-17
7.556683249e-18
4.923391743e-18
3.136077978e-18
1.950248693e-18
1.186218503e-18
7.080916443e-19
4.176292904e-19
2.460167483e-19
1.468676046e-19
9.020445655e-20
5.76570862e-20
3.845045371e-20
2.647975259e-20
1.855005464e-20
1.304937623e-20
9.127339576e-21
6.304824241e-21
4.287192115e-21
2.86994324e-21
1.89946167e-21
1.251882946e-21
8.265798093e-22
5.483272419e-22
3.656482465e-22
2.449810094e-22
1.647861283e-22
1.111702458e-22
7.503111585e-23
5.033496419e-23
3.309543865e-23
2.074093015e-23
1.169802858e-23
5.133068938e-24
9.876642202e-25
6.215397899e-26
8.62532052e-08
1.82386472e-08
1.763492148e-09
8.872042549e-11
2.964054113e-12
2.10553054e-13
4.407340395e-14
1.780675056e-14
9.633622365e-15
5.943500073e-15
3.917868192e-15
2.67834106e-15
1.870996784e-15
1.325137756e-15
9.473731307e-16
6.820125202e-16
4.93769381e-16
3.592844858e-16
2.62595115e-16
1.925666544e-16
1.41374193e-16
1.035311293e-16
7.52619971e-17
5.383084208e-17
3.756351552e-17
2.563378514e-17
1.747260951e-17
1.16937974e-17
7.606695292e-18
4.792139198e-18
2.923103631e-18
1.736558742e-18
1.014653398e-18
5.899097383e-19
3.453045761e-19
2.056756336e-19
1.258824756e-19
7.949201375e-20
5.15132689e-20
3.398692075e-20
2.267346982e-20
1.519337025e-20
1.015492589e-20
6.734735305e-21
4.428363215e-21
2.905072052e-21
1.913663984e-21
1.269062908e-21
8.475486074e-22
5.697979745e-22
3.852991067e-22
2.616549199e-22
1.778598065e-22
1.201584581e-22
7.955274201e-23
5.022320395e-23
2.856615472e-23
1.262667854e-23
2.411074937e-24
1.574625869e-25
9.423696849e-08
2.36425334e-08
3.773614497e-09
3.543043439e-10
1.908547575e-11
9.53364853e-13
1.133732834e-13
3.297735951e-14
1.548895468e-14
9.055762365e-15
5.878460445e-15
4.03435475e-15
2.8607576e-15
2.071240493e-15
1.521014524e-15
1.128569917e-15
8.443145066e-16
6.362028009e-16
4.825228779e-16
3.680642658e-16
2.819016211e-16
2.163083683e-16
1.656334807e-16
1.259010194e-16
9.440328487e-17
6.940617497e-17
4.950274152e-17
3.516756246e-17
2.455641669e-17
1.661494526e-17
1.080743217e-17
6.75222001e-18
4.07056334e-18
2.388461228e-18
1.378681916e-18
7.911434851e-19
4.543720585e-19
2.6332945e-19
1.551922787e-19
9.36358521e-20
5.782204864e-20
3.646771497e-20
2.341512664e-20
1.521702301e-20
9.916524182e-21
6.463261254e-21
4.234170544e-21
2.7974306e-21
1.864359482e-21
1.252419853e-21
8.476075892e-22
5.772907795e-22
3.943866649e-22
2.682369518e-22
1.790555406e-22
1.141900588e-22
6.576432637e-23
2.950624455e-23
5.717243814e-24
3.963459196e-25
9.962953672e-08
1.915555862e-08
7.400951294e-09
9.743921317e-10
8.275768812e-11
4.580859612e-12
3.423177949e-13
6.434822793e-14
2.448627079e-14
1.312996191e-14
8.252533159e-15
5.628160401e-15
4.02255471e-15
2.960497312e-15
2.221933723e-15
1.691141013e-15
1.301269352e-15
1.010467511e-15
7.914922825e-16
6.247427402e-16
4.961162099e-16
3.95418901e-16
3.15255019e-16
2.503302247e-16
1.969571004e-16
1.526753962e-16
1.158950444e-16
8.56012747e-17
6.277189971e-17
4.525345849e-17
3.165997132e-17
2.132156278e-17
1.376838858e-17
8.527379657e-18
5.091712311e-18
2.951574027e-18
1.669544168e-18
9.253769525e-19
5.076578554e-19
2.804594315e-19
1.588753203e-19
9.275903748e-20
5.564959491e-20
3.434993221e-20
2.178608059e-20
1.405690976e-20
9.152307712e-21
6.004475509e-21
3.974705875e-21
2.655854191e-21
1.791097541e-21
1.218003286e-21
8.328323437e-22
5.686109146e-22
3.822967032e-22
2.465317785e-22
1.443229633e-22
6.631023574e-23
1.334031487e-23
1.01752809e-24
3.643631336e-07
5.818993509e-08
1.702623254e-08
2.804898232e-09
3.517541945e-10
2.869418999e-11
1.762901247e-12
1.824494925e-13
4.463848625e-14
1.940090265e-14
1.120693524e-14
7.425350367e-15
5.290922943e-15
3.933164065e-15
3.002956474e-15
2.337621024e-15
1.847251744e-15
1.47756933e-15
1.194316019e-15
9.741819706e-16
8.003092906e-16
6.60429551e-16
5.455931093e-16
4.493502877e-16
3.672146857e-16
2.962467485e-16
2.346625304e-16
1.814075459e-16
1.374183599e-16
1.031106778e-16
7.560202686e-17
5.369417226e-17
3.673975658e-17
2.414523391e-17
1.522369109e-17
9.21737707e-18
5.368703732e-18
3.015004032e-18
1.639626001e-18
8.706985252e-19
4.62162531e-19
2.526878977e-19
1.42193194e-19
8.20283378e-20
4.908945016e-20
3.056750437e-20
1.958858005e-20
1.274638394e-20
8.369804549e-21
5.540192954e-21
3.702501549e-21
2.50033456e-21
1.702582286e-21
1.161551873e-21
7.838175151e-22
5.104237011e-22
3.044710813e-22
1.445863011e-22
3.101700055e-23
2.824465326e-24
8.706146935e-07
1.419795372e-07
2.928531515e-08
6.246568229e-09
9.262507163e-10
1.159781307e-10
9.979529004e-12
7.515488207e-13
1.007766215e-13
2.969881769e-14
1.453338129e-14
9.072621705e-15
6.357882048e-15
4.75848544e-15
3.687771361e-15
2.948565022e-15
2.402338645e-15
1.986492931e-15
1.662679716e-15
1.405448169e-15
1.196693816e-15
1.02314903e-15
8.750549378e-16
7.454292159e-16
6.295760717e-16
5.246778314e-16
4.293753524e-16
3.433359558e-16
2.685941121e-16
2.078237743e-16
1.573150972e-16
1.15617876e-16
8.211672907e-17
5.619747584e-17
3.698969777e-17
2.338793651e-17
1.419357038e-17
8.261050867e-18
4.611565835e-18
2.480670063e-18
1.302034446e-18
6.901381788e-19
3.735466773e-19
2.036581081e-19
1.146046569e-19
6.750965878e-20
4.162706388e-20
2.662936858e-20
1.741170195e-20
1.147550949e-20
7.588985319e-21
5.063392376e-21
3.410056349e-21
2.309619107e-21
1.556067971e-21
1.019786624e-21
6.201227454e-22
3.07478625e-22
7.292384244e-23
8.621227384e-24
8.421006296e-07
1.623636891e-07
3.228897604e-08
1.056977616e-08
1.930904361e-09
2.926012752e-10
3.822863338e-11
3.567422625e-12
3.196244489e-13
5.236390286e-14
1.826523905e-14
1.003284483e-14
6.80799571e-15
5.125459112e-15
4.056764581e-15
3.35042711e-15
2.83402523e-15
2.441082104e-15
2.131193985e-15
1.878262151e-15
1.664437009e-15
1.477105218e-15
1.307398209e-15
1.14933782e-15
9.993366587e-16
8.557969038e-16
7.186508555e-16
5.895392681e-16
4.767119039e-16
3.783727358e-16
2.926746277e-16
2.196620177e-16
1.595480604e-16
1.119518759e-16
7.579448354e-17
4.945546917e-17
3.106337947e-17
1.875853912e-17
1.08768232e-17
6.055203564e-18
3.251291387e-18
1.714702044e-18
9.210241781e-19
4.922762399e-19
2.674622442e-19
1.505537945e-19
8.870643715e-20
5.468823387e-20
3.498777164e-20
2.292498073e-20
1.519431886e-20
1.011065213e-20
6.731766191e-21
4.504829279e-21
3.013368653e-21
1.978395283e-21
1.224044772e-21
6.390253423e-22
1.767315839e-22
2.582564939e-23
7.40170818e-07
1.640383776e-07
3.506769645e-08
1.387830072e-08
3.41572356e-09
6.174623255e-10
9.84694985e-11
1.385590036e-11
1.454355159e-12
1.501799059e-13
2.884374617e-14
1.125895387e-14
6.717456044e-15
4.957850151e-15
4.039906245e-15
3.479397301e-15
3.095079293e-15
2.806118768e-15
2.570669398e-15
2.36499021e-15
2.174858115e-15
1.991602255e-15
1.810220559e-15
1.627851418e-15
1.443486414e-15
1.259090658e-15
1.084629708e-15
9.185884444e-16
7.614689849e-16
6.155216221e-16
4.836050968e-16
3.682150745e-16
2.711135115e-16
1.929331449e-16
1.326965823e-16
8.817870331e-17