/*--------------------------------*- C++ -*----------------------------------*\
  =========                 |
  \\      /  F ield         | OpenFOAM: The Open Source CFD Toolbox
   \\    /   O peration     | Website:  https://openfoam.org
    \\  /    A nd           | Version:  10
     \\/     M anipulation  |
\*---------------------------------------------------------------------------*/
FoamFile
{
    format      ascii;
    class       volScalarField;
    location    "3000";
    object      HNCO;
}
// * * * * * * * * * * * * * * * * * * * * * * * * * * * * * * * * * * * * * //

dimensions      [0 0 0 0 0 0 0];

internalField   nonuniform List<scalar> 
5170
(
6.583851231e-64
5.311937566e-64
3.29437373e-64
1.626323794e-64
1.293507595e-64
2.245503622e-61
1.792037767e-61
1.092725978e-61
6.316441856e-62
1.119829155e-61
7.747700509e-59
6.135421691e-59
3.723641874e-59
2.9293356e-59
8.865185803e-59
2.727225058e-56
2.156893272e-56
1.350306846e-56
1.514859912e-56
6.435582798e-56
9.783426255e-54
7.803210785e-54
5.23555976e-54
8.298631823e-54
4.35433722e-53
3.589082351e-51
2.923726153e-51
2.152273013e-51
4.678334535e-51
2.779199169e-50
1.344066977e-48
1.128136302e-48
9.489917172e-49
2.680013845e-48
1.709547557e-47
5.1272992e-46
4.484401062e-46
4.498571052e-46
1.552095139e-45
1.025366452e-44
1.996808475e-43
1.856461405e-43
2.237469545e-43
9.058591485e-43
6.027708565e-42
7.949588221e-41
7.994356967e-41
1.153722289e-40
5.33440796e-40
3.485999554e-39
3.228097498e-38
3.567514021e-38
6.128080545e-38
3.163031122e-37
1.989684443e-36
1.33159019e-35
1.644852706e-35
3.355990873e-35
1.886503992e-34
1.124376274e-33
5.561579901e-33
7.791885034e-33
1.902803089e-32
1.140516918e-31
6.31203658e-31
2.336174203e-30
3.764461541e-30
1.108540472e-29
7.012873628e-29
3.535114441e-28
9.840549049e-28
1.842749232e-27
6.559888615e-27
4.380108405e-26
1.983680123e-25
4.098501838e-25
9.016481844e-25
3.874780509e-24
2.697153714e-23
1.119377207e-22
1.682431261e-22
4.407996266e-22
2.231336199e-21
1.622872595e-20
6.373213118e-20
6.665766106e-20
2.11539321e-19
1.252920912e-18
9.353238505e-18
3.651917423e-17
2.442761818e-17
9.749826535e-17
6.653048194e-16
5.038214495e-15
2.1028524e-14
7.708687095e-15
4.363085862e-14
3.44341393e-13
2.478092085e-12
1.222188195e-11
2.321803544e-12
1.912776316e-12
1.756362935e-12
2.016102964e-12
2.345712245e-12
3.138030587e-12
2.8153003e-12
2.68891592e-12
2.904037885e-12
3.166219925e-12
3.376939617e-12
3.192866955e-12
3.111154826e-12
3.24264918e-12
3.367090777e-12
3.377769583e-12
3.311943891e-12
3.271476688e-12
3.339620578e-12
3.328611655e-12
3.276993335e-12
3.303803974e-12
3.291411305e-12
3.306421509e-12
3.194436148e-12
3.137742465e-12
3.228065451e-12
3.235483352e-12
3.20129508e-12
3.023341755e-12
2.990162519e-12
3.118503592e-12
3.136671883e-12
3.059704181e-12
2.847057128e-12
2.845745707e-12
2.99280373e-12
3.014480663e-12
2.905106918e-12
2.680777986e-12
2.709797708e-12
2.861580809e-12
2.88135111e-12
2.75222395e-12
2.532299911e-12
2.584364763e-12
2.731847597e-12
2.746610828e-12
2.608931359e-12
2.403391012e-12
2.470038543e-12
2.607974994e-12
2.616704937e-12
2.478812889e-12
2.29242042e-12
2.366371324e-12
2.492369002e-12
2.495388634e-12
2.362800837e-12
2.196376977e-12
2.27242678e-12
2.386036976e-12
2.384191959e-12
2.260028111e-12
2.112191384e-12
2.186914422e-12
2.288790049e-12
2.283188187e-12
2.168727436e-12
2.037048769e-12
2.108574951e-12
2.200042374e-12
2.191644211e-12
2.086853971e-12
1.968569867e-12
2.036374433e-12
2.118756333e-12
2.10849977e-12
2.012399997e-12
1.904547085e-12
2.006334258e-12
2.053890983e-12
2.034488248e-12
1.944175701e-12
1.843653166e-12
6.001435419e-12
3.063369454e-12
2.232668307e-12
1.96169101e-12
1.816783718e-12
3.43150736e-10
9.183717489e-11
2.440749107e-11
7.845971981e-12
3.811906744e-12
2.823923825e-08
6.098436996e-09
1.26714272e-09
3.00749842e-10
9.314726922e-11
2.95202222e-13
2.310361147e-12
3.581525045e-11
5.394866208e-10
7.178603722e-09
2.007151191e-12
1.408570847e-11
1.805720013e-10
2.052022129e-09
1.757044392e-08
8.195999248e-12
5.23414517e-11
5.719753625e-10
5.194877484e-09
3.203842799e-08
2.96858649e-11
1.809203635e-10
1.7924012e-09
1.415182249e-08
7.495747347e-08
9.887953642e-11
5.759242992e-10
5.094976584e-09
3.417175237e-08
1.518296692e-07
3.052409683e-10
1.652204535e-09
1.260520712e-08
6.920972004e-08
2.478044419e-07
8.922825994e-10
4.440137445e-09
2.823998699e-08
1.213516577e-07
3.460854804e-07
2.392655126e-09
1.083266489e-08
5.544747282e-08
1.877124117e-07
4.483240494e-07
5.829111784e-09
2.346030502e-08
9.580950618e-08
2.66012532e-07
5.630578617e-07
1.296307381e-08
4.530208204e-08
1.498061648e-07
3.558663643e-07
6.876922855e-07
2.722678272e-08
7.897142011e-08
2.152619847e-07
4.527558298e-07
8.090823698e-07
5.175872478e-08
1.243299546e-07
2.892674048e-07
5.522175967e-07
9.224115376e-07
9.039494494e-08
1.826813863e-07
3.72147438e-07
6.551540031e-07
1.035118347e-06
1.488018788e-07
2.571482155e-07
4.664365521e-07
7.651202999e-07
1.153209638e-06
2.349369587e-07
3.526959638e-07
5.75515994e-07
8.844129187e-07
1.275780654e-06
3.559828684e-07
4.755246885e-07
7.034040053e-07
1.014975397e-06
1.40205546e-06
5.166166191e-07
6.315306513e-07
8.55503986e-07
1.161474116e-06
1.537231838e-06
7.147538703e-07
8.216819609e-07
1.035549311e-06
1.330325667e-06
1.691505677e-06
9.470401466e-07
1.045042039e-06
1.245654927e-06
1.526399806e-06
1.873416781e-06
1.20740637e-06
1.297281293e-06
1.484645724e-06
1.751343439e-06
2.085613343e-06
1.490688131e-06
1.573496744e-06
1.748624933e-06
2.001706922e-06
2.323047842e-06
1.791039547e-06
1.867783082e-06
2.031606649e-06
2.270832134e-06
2.577314884e-06
2.104349578e-06
2.175371201e-06
2.327944565e-06
2.552393858e-06
2.841643271e-06
2.427895921e-06
2.493525242e-06
2.635206538e-06
2.84470069e-06
3.116121868e-06
2.762706329e-06
2.823754007e-06
2.955936708e-06
3.152244807e-06
3.407845103e-06
3.11559991e-06
3.173083171e-06
3.297846934e-06
3.484022499e-06
3.728009094e-06
3.497023751e-06
3.552135153e-06
3.672174836e-06
3.852174237e-06
4.089643152e-06
3.918654597e-06
3.972664583e-06
4.090592886e-06
4.268257127e-06
4.50410575e-06
4.392553613e-06
4.446709413e-06
4.565324306e-06
4.744667675e-06
4.983606272e-06
4.933135392e-06
4.988742855e-06
5.110649084e-06
5.295456597e-06
5.542401018e-06
5.562671133e-06
5.621098878e-06
5.749369267e-06
5.94400004e-06
6.204109937e-06
6.32244283e-06
6.3853678e-06
6.523411682e-06
6.732512879e-06
7.010890798e-06
7.288423699e-06
7.356970292e-06
7.506694963e-06
7.731448884e-06
8.025321887e-06
8.573964243e-06
8.644127607e-06
8.795383936e-06
9.014989319e-06
9.287492663e-06
1.015226976e-05
1.020233195e-05
1.030464592e-05
1.043913547e-05
1.057854045e-05
1.131592205e-05
1.131405751e-05
1.130215267e-05
1.126318339e-05
1.117307569e-05
1.123120652e-05
1.118271218e-05
1.107143305e-05
1.088977008e-05
1.062358199e-05
1.00706538e-05
9.99813445e-06
9.835956285e-06
9.581855855e-06
9.227036407e-06
8.342155774e-06
8.257038426e-06
8.067749605e-06
7.774124151e-06
7.369740091e-06
6.257412735e-06
6.161947803e-06
5.951195722e-06
5.629411946e-06
5.198772131e-06
3.832061317e-06
3.747412599e-06
3.566533737e-06
3.306558633e-06
2.987234397e-06
1.903816405e-06
1.861283026e-06
1.771334799e-06
1.643881238e-06
1.48931484e-06
8.664754608e-07
8.487544535e-07
8.112686272e-07
7.580996267e-07
6.934335954e-07
3.819456459e-07
3.7511411e-07
3.606072918e-07
3.398840319e-07
3.144162511e-07
1.679354624e-07
1.653458534e-07
1.598246335e-07
1.518382609e-07
1.41901971e-07
7.45467439e-08
7.354960265e-08
7.141504299e-08
6.832031993e-08
6.444241308e-08
3.371890849e-08
3.333555315e-08
3.25134494e-08
3.131777734e-08
2.98116371e-08
1.582636367e-08
1.568202786e-08
1.537236024e-08
1.4921522e-08
1.435285473e-08
7.981067951e-09
7.930459805e-09
7.822129875e-09
7.664977899e-09
7.467566889e-09
4.536766056e-09
4.521867043e-09
4.490174281e-09
4.444676373e-09
4.388401577e-09
2.967116569e-09
2.965319406e-09
2.961300281e-09
2.957677576e-09
2.953445977e-09
2.213707823e-09
2.216318341e-09
2.222248962e-09
2.23174905e-09
2.245275467e-09
1.804709003e-09
1.809100019e-09
1.818904434e-09
1.834176148e-09
1.855322397e-09
1.582169579e-09
1.588068172e-09
1.601167038e-09
1.621401624e-09
1.649119581e-09
1.503297911e-09
1.510642194e-09
1.526890327e-09
1.551836653e-09
1.5857282e-09
1.546176832e-09
1.55469897e-09
1.573499812e-09
1.602225816e-09
1.640992968e-09
1.688592082e-09
1.697851737e-09
1.718237154e-09
1.749269653e-09
1.790935418e-09
1.906141638e-09
1.915641476e-09
1.936524584e-09
1.968229735e-09
2.01063957e-09
2.174341199e-09
2.183639286e-09
2.204057537e-09
2.234998543e-09
2.276277054e-09
2.471319451e-09
2.480085653e-09
2.49932196e-09
2.528434248e-09
2.567202987e-09
2.779291391e-09
2.787320011e-09
2.804928715e-09
2.831554273e-09
2.866968135e-09
3.084986729e-09
3.092175179e-09
3.107934986e-09
3.131749803e-09
3.16339797e-09
3.379144409e-09
3.385468466e-09
3.399328493e-09
3.42026229e-09
3.448064029e-09
3.656260491e-09
3.661747169e-09
3.673767929e-09
3.691915683e-09
3.716003843e-09
3.913353788e-09
3.918057373e-09
3.928358302e-09
3.943901999e-09
3.964521443e-09
4.149607411e-09
4.15359366e-09
4.162319234e-09
4.175477859e-09
4.192920811e-09
4.364721926e-09
4.368057682e-09
4.375354384e-09
4.386349505e-09
4.400911036e-09
4.559493494e-09
4.562243558e-09
4.568253805e-09
4.577301045e-09
4.589268241e-09
4.732265776e-09
4.73449418e-09
4.739358383e-09
4.746670459e-09
4.756327237e-09
4.870811281e-09
4.872620349e-09
4.876564042e-09
4.882483158e-09
4.890285968e-09
2.550125077e-08
5.400739614e-08
8.266849866e-08
2.006152544e-07
3.645976888e-07
5.076028982e-07
6.120359492e-07
7.21581755e-07
8.587507328e-07
1.002566161e-06
1.127698932e-06
1.236673862e-06
1.348209954e-06
1.467158313e-06
1.586422302e-06
1.703130581e-06
1.824932638e-06
1.966965467e-06
2.140083637e-06
2.345585454e-06
2.575422205e-06
2.819383997e-06
3.070898288e-06
3.332134074e-06
3.612440959e-06
3.924837132e-06
4.282733797e-06
4.697054604e-06
5.179822591e-06
5.745678124e-06
6.417996725e-06
7.237743254e-06
8.25775366e-06
9.48540448e-06
1.064880552e-05
1.106004152e-05
1.038050212e-05
8.918777194e-06
7.024934993e-06
4.849454867e-06
2.75327742e-06
1.377028751e-06
6.461699224e-07
2.955462636e-07
1.344402067e-07
6.14989621e-08
2.866143831e-08
1.391802326e-08
7.317454588e-09
4.346627773e-09
2.953727557e-09
2.257552132e-09
1.873517385e-09
1.672660966e-09
1.614221133e-09
1.673314366e-09
1.825450441e-09
2.045605536e-09
2.310196958e-09
2.598988042e-09
2.895957968e-09
3.18927737e-09
3.470780237e-09
3.7356724e-09
3.981345813e-09
4.207141214e-09
4.412769568e-09
4.599000095e-09
4.764166058e-09
4.896606255e-09
6.102199513e-08
1.278141394e-07
2.36038823e-08
6.475802943e-09
1.530135958e-09
1.364635593e-07
4.749552802e-07
7.139027582e-08
1.870196953e-08
6.438232271e-09
1.898977624e-07
5.110657357e-07
6.9064711e-07
8.601116784e-08
2.928540023e-08
4.988896268e-07
1.86999543e-06
6.1567729e-06
5.84183083e-07
1.872325482e-07
8.323900022e-07
2.508598575e-06
5.753759932e-06
5.779305259e-07
1.593860565e-07
1.023488044e-06
2.351824297e-06
3.820566517e-06
5.534934542e-07
1.145486129e-07
1.096042547e-06
2.056062886e-06
2.829864495e-06
1.026864177e-06
1.726971076e-07
1.202717549e-06
2.172780617e-06
3.449268296e-06
4.832214262e-06
7.238086383e-07
1.373746476e-06
2.474033183e-06
4.100194015e-06
6.319547533e-06
1.07083967e-06
1.538998152e-06
2.628482817e-06
4.029282049e-06
5.406075844e-06
1.164101247e-06
1.654974602e-06
2.631772654e-06
3.714071952e-06
4.531797504e-06
1.509173659e-06
1.74583297e-06
2.641540267e-06
3.617081862e-06
4.498769956e-06
3.671853341e-06
1.85110223e-06
2.744325792e-06
3.80530884e-06
5.060368139e-06
6.069590048e-06
1.968092824e-06
2.859104897e-06
3.917791263e-06
5.11922614e-06
6.04899187e-06
2.077731217e-06
2.930967642e-06
3.896382136e-06
4.88745882e-06
5.497601899e-06
2.174994482e-06
2.96670924e-06
3.81685214e-06
4.625458973e-06
5.056189956e-06
2.272359534e-06
3.007222859e-06
3.784651008e-06
4.539987978e-06
5.071138461e-06
2.393659274e-06
3.101533156e-06
3.880379666e-06
4.721466907e-06
5.558889225e-06
2.552784499e-06
3.256394119e-06
4.060819763e-06
4.975376069e-06
5.95402986e-06
2.747448382e-06
3.448865017e-06
4.261806805e-06
5.185416762e-06
6.151193484e-06
2.964504668e-06
3.652688316e-06
4.447171344e-06
5.332297833e-06
6.222691614e-06
3.191204223e-06
3.852623892e-06
4.6089184e-06
5.435947028e-06
6.245215974e-06
3.42193317e-06
4.048909693e-06
4.761371921e-06
5.532863483e-06
6.277586395e-06
3.662347891e-06
4.256390794e-06
4.932639595e-06
5.665945666e-06
6.374699647e-06
3.925253179e-06
4.495193028e-06
5.15062002e-06
5.869234518e-06
6.572209305e-06
4.226123658e-06
4.784046269e-06
5.433085068e-06
6.153030757e-06
6.85892109e-06
4.578609839e-06
5.134317665e-06
5.787645346e-06
6.514156198e-06
7.209091407e-06
4.992851074e-06
5.554532399e-06
6.218941965e-06
6.949719475e-06
7.605420402e-06
5.480628763e-06
6.05602151e-06
6.734431423e-06
7.459083742e-06
8.028712991e-06
6.057000533e-06
6.652708043e-06
7.343971579e-06
8.037725684e-06
8.44659641e-06
6.744759745e-06
7.364614853e-06
8.054496135e-06
8.660113278e-06
8.795753554e-06
7.582198737e-06
8.212559946e-06
8.847918403e-06
9.24754174e-06
8.972310704e-06
8.605140015e-06
9.180477262e-06
9.626539802e-06
9.63779561e-06
8.84199569e-06
9.768731055e-06
1.011475848e-05
1.015124713e-05
9.614164069e-06
8.286734528e-06
1.072772487e-05
1.061743199e-05
1.010160082e-05
9.024494126e-06
7.289722337e-06
1.086444588e-05
1.02815564e-05
9.312410664e-06
7.870684081e-06
5.946985054e-06
9.995982684e-06
9.11963728e-06
7.89363965e-06
6.282982956e-06
4.436517453e-06
8.440048229e-06
7.417452645e-06
6.083157221e-06
4.521612027e-06
3.085482813e-06
6.494518487e-06
5.414779649e-06
4.156704189e-06
2.965546929e-06
2.016381157e-06
4.326205643e-06
3.407388282e-06
2.535108623e-06
1.803239378e-06
1.242621056e-06
2.415334681e-06
1.888690395e-06
1.414450955e-06
1.024294224e-06
7.238929973e-07
1.215136544e-06
9.651033718e-07
7.397216032e-07
5.51058673e-07
4.015355868e-07
5.778318856e-07
4.703771422e-07
3.709562049e-07
2.849750519e-07
2.143819341e-07
2.681196322e-07
2.237957917e-07
1.814851249e-07
1.436611984e-07
1.115549262e-07
1.235419346e-07
1.055021979e-07
8.781307595e-08
7.155835179e-08
5.739932924e-08
5.718304514e-08
4.990239203e-08
4.262170623e-08
3.580688085e-08
2.977490803e-08
2.697181587e-08
2.408602732e-08
2.116935243e-08
1.841591199e-08
1.596804658e-08
1.327921833e-08
1.218644792e-08
1.108469575e-08
1.005320905e-08
9.150847503e-09
7.097551742e-09
6.726338842e-09
6.360420339e-09
6.030655915e-09
5.759493534e-09
4.286101792e-09
4.189657087e-09
4.104649842e-09
4.047532674e-09
4.022415701e-09
2.954556145e-09
2.960254265e-09
2.98137947e-09
3.020999667e-09
3.084842855e-09
2.276708942e-09
2.318467516e-09
2.376339025e-09
2.454182481e-09
2.556346789e-09
1.901522128e-09
1.961212294e-09
2.039960759e-09
2.141210408e-09
2.268716263e-09
1.708710928e-09
1.78402768e-09
1.881013468e-09
2.002406895e-09
2.150968134e-09
1.657673234e-09
1.746860141e-09
1.859315004e-09
1.996808878e-09
2.160914079e-09
1.722438748e-09
1.821776815e-09
1.944848534e-09
2.092424629e-09
2.264960917e-09
1.877772359e-09
1.982342105e-09
2.11011653e-09
2.261008708e-09
2.434599239e-09
2.09850996e-09
2.203328302e-09
2.330101237e-09
2.478128174e-09
2.646400525e-09
2.361449474e-09
2.46236964e-09
2.583542514e-09
2.723897013e-09
2.882094441e-09
2.646970413e-09
2.741054875e-09
2.85346018e-09
2.98294604e-09
3.128037788e-09
2.939693184e-09
3.025207378e-09
3.127027113e-09
3.243867664e-09
3.374244506e-09
3.228302674e-09
3.304462282e-09
3.394934133e-09
3.498478298e-09
3.613682017e-09
3.505024375e-09
3.571763967e-09
3.650915006e-09
3.741327176e-09
3.841698947e-09
3.765313596e-09
3.823021565e-09
3.891369365e-09
3.969313438e-09
4.055677344e-09
4.006693355e-09
4.055990591e-09
4.114299861e-09
4.180686551e-09
4.254099631e-09
4.228557607e-09
4.270161283e-09
4.319296054e-09
4.375130667e-09
4.436732787e-09
4.430621313e-09
4.46524853e-09
4.506068238e-09
4.55234585e-09
4.603260267e-09
4.613640976e-09
4.641988841e-09
4.675326878e-09
4.713009259e-09
4.754317398e-09
4.775951094e-09
4.79871358e-09
4.825404383e-09
4.855461268e-09
4.88826181e-09
4.906100015e-09
4.924387297e-09
4.945757489e-09
4.969717185e-09
4.995722803e-09
1.924330769e-10
2.574631594e-11
4.296052236e-12
1.057104284e-12
3.859903556e-13
1.789854014e-13
9.59599518e-14
5.660520527e-14
3.509372182e-14
2.226451425e-14
1.424494101e-14
9.122891078e-15
5.820544731e-15
3.686161073e-15
2.31086217e-15
1.430808391e-15
8.736228316e-16
5.25379396e-16
3.109310295e-16
1.80965995e-16
1.035240784e-16
5.818304237e-17
3.211183238e-17
1.739580942e-17
9.246500035e-18
4.821440233e-18
2.466141016e-18
1.237510596e-18
6.093784023e-19
2.94576833e-19
1.398647708e-19
6.527340131e-20
2.997517008e-20
1.35689598e-20
6.071730486e-21
2.697110945e-21
1.195887497e-21
5.321777278e-22
2.383911598e-22
1.072915152e-22
4.816156145e-23
2.132901555e-23
9.213122454e-24
3.844638961e-24
1.539948184e-24
5.901745207e-25
2.163898295e-25
7.611048744e-26
2.582245571e-26
8.525963032e-27
2.776272863e-27
9.087899873e-28
3.06549922e-28
1.092593384e-28
4.167423172e-29
1.676035896e-29
6.701930215e-30
2.345148391e-30
5.030206905e-31
3.904746436e-32
1.236341514e-09
1.65113375e-10
2.82222706e-11
8.207055642e-12
3.792199802e-12
2.146694559e-12
1.27858058e-12
7.795033114e-13
4.733031044e-13
2.86704674e-13
1.720168785e-13
1.024816214e-13
6.060348355e-14
3.562027882e-14
2.081758677e-14
1.209765313e-14
6.988327767e-15
4.00933978e-15
2.282367577e-15
1.287449268e-15
7.186205205e-16
3.963957192e-16
2.1583422e-16
1.158690415e-16
6.127143409e-17
3.189299923e-17
1.633390204e-17
8.228453348e-18
4.076688081e-18
1.986170073e-18
9.517016478e-19
4.487296043e-19
2.084033694e-19
9.551463516e-20
4.333892351e-20
1.956336665e-20
8.838118673e-21
4.016560171e-21
1.838782217e-21
8.442727918e-22
3.850594363e-22
1.723529426e-22
7.485262193e-23
3.126916511e-23
1.249861373e-23
4.771071459e-24
1.741058479e-24
6.095409602e-25
2.059636399e-25
6.77601766e-26
2.19771273e-26
7.151718664e-27
2.388985231e-27
8.390646866e-28
3.141695074e-28
1.238977528e-28
4.865061101e-29
1.681404312e-29
3.790422077e-30
3.578355685e-31
6.551878945e-09
8.180908958e-10
1.205955101e-10
3.985206493e-11
2.130878964e-11
1.324680622e-11
8.335388081e-12
5.261751129e-12
3.262332829e-12
2.000175764e-12
1.201450431e-12
7.102772042e-13
4.121839279e-13
2.354354552e-13
1.324737943e-13
7.362594867e-14
4.052658002e-14
2.215044667e-14
1.2048995e-14
6.529074963e-15
3.523900595e-15
1.892268327e-15
1.009611491e-15
5.343823218e-16
2.801768705e-16
1.453426297e-16
7.452831921e-17
3.774358612e-17
1.886519374e-17
9.30078561e-18
4.521090792e-18
2.167125205e-18
1.025143935e-18
4.794797192e-19
2.225472794e-19
1.030743721e-19
4.793563998e-20
2.247434487e-20
1.060807131e-20
5.001472671e-21
2.326842531e-21
1.054419355e-21
4.604140359e-22
1.923053586e-22
7.655444313e-23
2.903968359e-23
1.052419929e-23
3.661417814e-24
1.230954562e-24
4.032855118e-25
1.301658808e-25
4.200284503e-26
1.38134637e-26
4.729897055e-27
1.711120331e-27
6.488037765e-28
2.449791657e-28
8.141436805e-29
1.799076356e-29
1.732838298e-30
5.09368232e-08
8.252775229e-09
8.808127172e-10
1.883958689e-10
9.354920187e-11
5.873470314e-11
3.802252941e-11
2.450209088e-11
1.557438028e-11
9.760738132e-12
6.00573889e-12
3.629911842e-12
2.14962113e-12
1.248327893e-12
7.099969965e-13
3.960692812e-13
2.168391235e-13
1.168345073e-13
6.21171135e-14
3.270445268e-14
1.710160447e-14
8.901183722e-15
4.616231559e-15
2.386000696e-15
1.228670734e-15
6.297659874e-16
3.209231104e-16
1.623892505e-16
8.149358043e-17
4.051995754e-17
1.994796301e-17
9.720929658e-18
4.691542476e-18
2.246395173e-18
1.07113502e-18
5.114623768e-19
2.459082431e-19
1.192523967e-19
5.805040642e-20
2.805651437e-20
1.327924913e-20
6.076241965e-21
2.662255646e-21
1.110349909e-21
4.399044041e-22
1.657818329e-22
5.967612437e-23
2.064343411e-23
6.911981539e-24
2.258234793e-24
7.266293658e-25
2.328753182e-25
7.539489609e-26
2.506737339e-26
8.668713992e-27
3.102998057e-27
1.101106009e-27
3.438985874e-28
7.230215005e-29
6.823489837e-30
6.894465352e-08
1.907692352e-08
3.234118137e-09
6.49277403e-10
2.996922706e-10
1.882085703e-10
1.247914528e-10
8.275299616e-11
5.445566564e-11
3.546397009e-11
2.278501367e-11
1.441722822e-11
8.960070506e-12
5.464439501e-12
3.262641782e-12
1.906834382e-12
1.089203075e-12
6.085316195e-13
3.324335164e-13
1.77953092e-13
9.349270353e-14
4.837981506e-14
2.472919199e-14
1.252918674e-14
6.309184385e-15
3.164490478e-15
1.582542078e-15
7.891803258e-16
3.922029261e-16
1.940718735e-16
9.55331861e-17
4.67588629e-17
2.276385874e-17
1.10440502e-17
5.361262264e-18
2.618427612e-18
1.291756341e-18
6.427590094e-19
3.198915632e-19
1.571321103e-19
7.509723276e-20
3.450667558e-20
1.511996405e-20
6.289993645e-21
2.482205012e-21
9.315205552e-22
3.341279842e-22
1.15309342e-22
3.856849425e-23
1.259723098e-23
4.048848324e-24
1.291193416e-24
4.123968721e-25
1.332820675e-25
4.390966339e-26
1.466302998e-26
4.786619873e-27
1.372530193e-27
2.691256083e-28
2.487534448e-29
6.795998715e-08
2.943279537e-08
8.392837892e-09
1.872101203e-09
7.609764463e-10
4.609465727e-10
3.089512356e-10
2.104613956e-10
1.436034624e-10
9.764728413e-11
6.591440635e-11
4.402952478e-11
2.902312585e-11
1.884051615e-11
1.201458429e-11
7.513924182e-12
4.599103269e-12
2.751600947e-12
1.60598849e-12
9.142132985e-13
5.071629518e-13
2.745465392e-13
1.450923954e-13
7.503316626e-14
3.804977128e-14
1.899374887e-14
9.365477317e-15
4.578347388e-15
2.225354667e-15
1.077850228e-15
5.209050291e-16
2.513725423e-16
1.212380433e-16
5.857793911e-17
2.848249878e-17
1.401247147e-17
6.991503427e-18
3.521446759e-18
1.770082213e-18
8.745409507e-19
4.184033506e-19
1.916695688e-19
8.350200082e-20
3.449535009e-20
1.35245836e-20
5.053616603e-21
1.810722216e-21
6.262363966e-22
2.103939577e-22
6.907422439e-23
2.22854418e-23
7.105059913e-24
2.250979543e-24
7.12073314e-25
2.250887823e-25
7.032968922e-26
2.096799945e-26
5.435749987e-27
9.788166776e-28
8.817614462e-29
8.255896541e-08
4.493580243e-08
1.828028054e-08
5.345352311e-09
1.715605074e-09
9.047553366e-10
5.918293972e-10
4.091074062e-10
2.872156965e-10
2.023957115e-10
1.423918388e-10
9.968596149e-11
6.926834212e-11
4.766976847e-11
3.242511896e-11
2.175288422e-11
1.435692513e-11
9.298764519e-12
5.89409383e-12
3.649115747e-12
2.201998307e-12
1.293497399e-12
7.384288841e-13
4.09448975e-13
2.204126791e-13
1.153599444e-13
5.877816202e-14
2.923096842e-14
1.423338903e-14
6.816486577e-15
3.226588902e-15
1.517241697e-15
7.12275324e-16
3.355640888e-16
1.596964671e-16
7.735854502e-17
3.825571569e-17
1.917922139e-17
9.611234671e-18
4.73225607e-18
2.252230721e-18
1.024438518e-18
4.423433503e-19
1.808322015e-19
7.014853265e-20
2.600003704e-20
9.286516694e-21
3.220295038e-21
1.090057784e-21
3.615156607e-22
1.177916488e-22
3.779615739e-23
1.19671964e-23
3.739686201e-24
1.147401203e-24
3.396804867e-25
9.31990241e-26
2.176790116e-26
3.564822565e-27
3.103592941e-28
1.899760335e-07
9.501118595e-08
4.402044583e-08
1.52730797e-08
4.386975436e-09
1.731556914e-09
9.971711849e-10
6.71025357e-10
4.739778357e-10
3.404257138e-10
2.457620914e-10
1.773748217e-10
1.275982129e-10
9.130867099e-11
6.489744346e-11
4.574890002e-11
3.193884483e-11
2.204745203e-11
1.501651773e-11
1.006419079e-11
6.616584253e-12
4.252640217e-12
2.662501094e-12
1.619096803e-12
9.542743837e-13
5.443971173e-13
3.002511641e-13
1.600230217e-13
8.244346392e-14
4.114422807e-14
1.994833161e-14
9.440085574e-15
4.389542042e-15
2.02333172e-15
9.338484592e-16
4.366679567e-16
2.089083511e-16
1.019679224e-16
5.005771209e-17
2.428154989e-17
1.143948836e-17
5.162243406e-18
2.212292781e-18
8.967160819e-19
3.443528643e-19
1.263852026e-19
4.485892691e-20
1.554624669e-20
5.290880112e-21
1.772397587e-21
5.845387989e-22
1.89661214e-22
6.044459598e-23
1.884316457e-23
5.68559175e-24
1.621537202e-24
4.166457678e-25
8.815877424e-26
1.290233472e-26
1.063978019e-27
2.170631151e-07
1.152576014e-07
6.409175091e-08
2.959323979e-08
9.938510009e-09
3.309583093e-09
1.600155061e-09
1.004189845e-09
6.999088019e-10
5.06390218e-10
3.715951136e-10
2.739895882e-10
2.020786694e-10
1.487105527e-10
1.090181342e-10
7.951680953e-11
5.764182998e-11
4.147988433e-11
2.959341675e-11
2.08985808e-11
1.457958645e-11
1.002448007e-11
6.775355765e-12
4.485765172e-12
2.897580729e-12
1.818997323e-12
1.104962547e-12
6.473419771e-13
3.65017082e-13
1.979502376e-13
1.032195614e-13
5.180585354e-14
2.51096502e-14
1.182863534e-14
5.464343887e-15
2.501949193e-15
1.150435019e-15
5.365044872e-16
2.524373101e-16
1.182150235e-16
5.435632882e-17
2.424248319e-17
1.035191861e-17
4.18955404e-18
1.600647007e-18
5.828367476e-19
2.053424166e-19
7.080938391e-20
2.406997079e-20
8.09103173e-21
2.689370033e-21
8.817547853e-22
2.838560297e-22
8.899342144e-23
2.67634527e-23
7.49697642e-24
1.851036843e-24
3.639577373e-25
4.781352025e-26
3.674308638e-27
2.162128002e-07
1.064687773e-07
6.968441849e-08
3.977400743e-08
1.782383858e-08
6.206159228e-09
2.554800658e-09
1.453442717e-09
9.794991384e-10
7.056967964e-10
5.220183318e-10
3.904396284e-10
2.932497936e-10
2.203833488e-10
1.653696175e-10
1.237235551e-10
9.219291566e-11
6.835595431e-11
5.038093826e-11
3.68719716e-11
2.675528703e-11
1.922518617e-11
1.36505791e-11
9.554050911e-12
6.572567871e-12
4.430074774e-12
2.915885338e-12
1.86689294e-12
1.157544702e-12
6.919961089e-13
3.97207894e-13
2.1832005e-13
1.148669795e-13
5.798180073e-14
2.820792177e-14
1.330854944e-14
6.130182031e-15
2.782444946e-15
1.253660445e-15
5.608693326e-16
2.472155601e-16
1.066595165e-16
4.48408342e-17
1.820574938e-17
7.028732935e-18
2.567756888e-18
9.009984276e-19
3.087184233e-19
1.042932728e-19
3.48954787e-20
1.158362471e-20
3.810087356e-21
1.235191601e-21
3.903783033e-22
1.180185656e-22
3.300566108e-23
8.030119395e-24
1.519235312e-24
1.844668699e-25
1.307632617e-26
2.826539981e-07
1.085682471e-07
7.441656113e-08
4.803758215e-08
2.646270841e-08
1.121928017e-08
4.32509121e-09
2.142451185e-09
1.353426336e-09
9.562704691e-10
7.064397145e-10
5.321284036e-10
4.044593184e-10
3.08578664e-10
2.356038902e-10
1.796857784e-10
1.367142518e-10
1.036550638e-10
7.828876482e-11
5.884572823e-11
4.396235907e-11
3.259717197e-11
2.394908705e-11
1.740104106e-11
1.247636627e-11
8.805686901e-12
6.101640705e-12
4.139032915e-12
2.739831651e-12
1.763579775e-12
1.099865063e-12
6.618936436e-13
3.827139463e-13
2.119085067e-13
1.122437381e-13
5.695791395e-14
2.775341253e-14
1.300416872e-14
5.876052811e-15
2.575148519e-15
1.101275435e-15
4.59683206e-16
1.870662528e-16
7.430153563e-17
2.875524104e-17
1.072063121e-17
3.817219343e-18
1.307223183e-18
4.374774964e-19
1.447598042e-19
4.76109502e-20
1.557028335e-20
5.042207486e-21
1.599408243e-21
4.868765019e-22
1.372014979e-22
3.354938791e-23
6.309164361e-24
7.389332928e-25
4.875029978e-26
6.878699823e-07
1.878974787e-07
1.03976795e-07
6.48099394e-08
3.87616765e-08
2.006554582e-08
8.275479959e-09
3.4966548e-09
1.923137023e-09
1.282514891e-09
9.310506606e-10
6.999780227e-10
5.349165376e-10
4.11977309e-10
3.182475156e-10
2.46174943e-10
1.904215035e-10
1.470646709e-10
1.132763865e-10
8.69356975e-11
6.639572286e-11
5.039437958e-11
3.795830122e-11
2.832888041e-11
2.091104627e-11
1.523617656e-11
1.093383204e-11
7.70948114e-12
5.327353097e-12
3.597720879e-12
2.367560681e-12
1.513565414e-12
9.368939983e-13
5.596411951e-13
3.216046853e-13
1.773648725e-13
9.366553187e-14
4.724371648e-14
2.270155285e-14
1.037018504e-14
4.513980182e-15
1.884812837e-15
7.593122158e-16
2.963359186e-16
1.125872517e-16
4.181981874e-17
1.513094335e-17
5.291155586e-18
1.783766293e-18
5.852236333e-19
1.8956556e-19
6.11514464e-20
1.962028781e-20
6.198820639e-21
1.89061894e-21
5.374077815e-22
1.33502009e-22
2.559286643e-23
3.023691977e-24
1.919584199e-25
1.203811405e-06
2.68601422e-07
1.275926029e-07
8.141869199e-08
5.122268133e-08
3.017199062e-08
1.522954468e-08
6.453145442e-09
2.982553773e-09
1.743304826e-09
1.193305047e-09
8.774082935e-10
6.652445163e-10
5.134824692e-10
3.982062885e-10
3.11896812e-10
2.44722218e-10
1.919516273e-10
1.502716077e-10
1.172741489e-10
9.113405182e-11
7.044131335e-11
5.408991603e-11
4.120530515e-11
3.109323932e-11
2.320052489e-11
1.708486613e-11
1.239059577e-11
8.829962135e-12
6.16863223e-12
4.21438475e-12
2.808725515e-12
1.821237942e-12
1.145871497e-12
6.977082525e-13
4.100329296e-13
2.319204644e-13
1.258184555e-13
6.518565631e-14
3.211967899e-14
1.49911792e-14
6.616243067e-15
2.765888559e-15
1.098937885e-15
4.189290487e-16
1.546428827e-16
5.56021536e-17
1.957369076e-17
6.731828018e-18
2.246875819e-18
7.286688416e-19
2.318515498e-19
7.304019898e-20
2.274430775e-20
6.888185171e-21
1.963849176e-21
4.970343604e-22
9.915394434e-23
1.234799801e-23
7.952292044e-25
1.408684221e-06
3.099148446e-07
1.288035599e-07
8.697443007e-08
5.933981046e-08
3.835250007e-08
2.27747177e-08
1.168165223e-08
5.239780505e-09
2.555957835e-09
1.509214991e-09
1.025979591e-09
7.529230171e-10
5.752570182e-10
4.451297359e-10
3.507131091e-10
2.775010638e-10
2.199722921e-10
1.74315695e-10
1.378689033e-10
1.086946322e-10
8.532810691e-11
6.663017726e-11
5.169563018e-11
3.979767685e-11
3.034999147e-11
2.288166348e-11
1.701701202e-11
1.245550889e-11
8.952602656e-12
6.304273343e-12
4.339401089e-12
2.913849265e-12
1.905080109e-12
1.210371423e-12
7.457237697e-13
4.4444805e-13
2.554920968e-13
1.411476403e-13
7.460830107e-14
3.754536386e-14
1.788901623e-14
8.038398162e-15
3.401433251e-15
1.358883586e-15
5.160517901e-16
1.878472419e-16
6.615126858e-17
2.275360104e-17
7.673794602e-18
2.531492441e-18
8.135072251e-19
2.54861592e-19
7.807984159e-20
2.328326967e-20
6.612970992e-21
1.703849617e-21
3.589631139e-22
4.915056773e-23
3.396825936e-24
1.566200342e-06
3.580183893e-07
1.281925167e-07
8.486295981e-08
6.230313656e-08
4.371688273e-08
2.886378301e-08
1.754080328e-08
9.380149838e-09
4.377775881e-09
2.090654735e-09
1.171854592e-09
7.679949982e-10
5.584039928e-10
4.25653261e-10
3.328260284e-10
2.637678351e-10
2.105005627e-10
1.684935073e-10
1.349206883e-10
1.07880699e-10
8.601306415e-11
6.829890376e-11
5.39496801e-11
4.233973409e-11
3.296707449e-11
2.542514338e-11
1.938233703e-11
1.456901847e-11
1.077028257e-11
7.813209097e-12
5.548674722e-12
3.847397221e-12
2.600100031e-12
1.710515238e-12
1.093708155e-12