/*--------------------------------*- C++ -*----------------------------------*\
  =========                 |
  \\      /  F ield         | OpenFOAM: The Open Source CFD Toolbox
   \\    /   O peration     | Website:  https://openfoam.org
    \\  /    A nd           | Version:  10
     \\/     M anipulation  |
\*---------------------------------------------------------------------------*/
FoamFile
{
    format      ascii;
    class       volScalarField;
    location    "3000";
    object      HNO;
}
// * * * * * * * * * * * * * * * * * * * * * * * * * * * * * * * * * * * * * //

dimensions      [0 0 0 0 0 0 0];

internalField   nonuniform List<scalar> 
5170
(
3.633278807e-65
2.930502664e-65
1.816375535e-65
8.96399335e-66
7.135359412e-66
1.240382449e-62
9.896859014e-63
6.032048266e-63
3.485922119e-63
6.182800607e-63
4.280808471e-60
3.389726732e-60
2.056841989e-60
1.617667757e-60
4.894950248e-60
1.506020601e-57
1.19119222e-57
7.458496323e-58
8.364384088e-58
3.55093036e-57
5.395211589e-55
4.304449568e-55
2.889653607e-55
4.57789926e-55
2.399154505e-54
1.975177939e-52
1.60977106e-52
1.186104497e-52
2.576487572e-52
1.528211401e-51
7.377890938e-50
6.196399752e-50
5.218507423e-50
1.472643391e-49
9.378327874e-49
2.806730453e-47
2.456524399e-47
2.467335969e-47
8.506892975e-47
5.611724576e-46
1.090243979e-44
1.014362341e-44
1.22397849e-44
4.953003343e-44
3.292601657e-43
4.331770652e-42
4.359508434e-42
6.298116091e-42
2.911804382e-41
1.902546096e-40
1.757365949e-39
1.94385829e-39
3.34234759e-39
1.726110405e-38
1.086779424e-37
7.253353937e-37
8.970449427e-37
1.832382792e-36
1.031498678e-35
6.16018096e-35
3.03695873e-34
4.262398262e-34
1.04268595e-33
6.265614861e-33
3.477593776e-32
1.281502887e-31
2.070351374e-31
6.113113056e-31
3.881615311e-30
1.96304815e-29
5.433356023e-29
1.021073335e-28
3.648493553e-28
2.447094815e-27
1.111594456e-26
2.281042519e-26
5.040275703e-26
2.175405324e-25
1.520849436e-24
6.325602319e-24
9.443693085e-24
2.485669505e-23
1.263192908e-22
9.214057821e-22
3.620866984e-21
3.770451425e-21
1.201054205e-20
7.129577318e-20
5.323830041e-19
2.075519672e-18
1.389189499e-18
5.554247912e-18
3.787945644e-17
2.860121838e-16
1.188780093e-15
4.392233176e-16
2.483112295e-15
1.952222343e-14
1.396646973e-13
6.842251462e-13
1.065150317e-10
6.65043288e-11
5.492020947e-11
7.481716037e-11
1.089959814e-10
1.068209518e-10
8.54949392e-11
7.667974725e-11
9.213249735e-11
1.06192919e-10
9.005465646e-11
8.332104645e-11
7.829283394e-11
8.571327782e-11
8.678853401e-11
7.46064018e-11
7.540131319e-11
7.346940895e-11
7.59089899e-11
7.032167426e-11
6.261816011e-11
6.700546275e-11
6.67368519e-11
6.622584629e-11
5.786924053e-11
5.365260593e-11
5.930505911e-11
5.988379763e-11
5.756243128e-11
4.867215116e-11
4.692025531e-11
5.263678796e-11
5.349623601e-11
5.011827825e-11
4.190001907e-11
4.178616063e-11
4.69937201e-11
4.780485958e-11
4.388530336e-11
3.692303445e-11
3.783385631e-11
4.228762454e-11
4.287786918e-11
3.890128102e-11
3.3342197e-11
3.476900765e-11
3.842095798e-11
3.875070625e-11
3.510007205e-11
3.081555213e-11
3.238849794e-11
3.52948275e-11
3.540483595e-11
3.228009614e-11
2.903994519e-11
3.053590388e-11
3.280386357e-11
3.276361352e-11
3.021153433e-11
2.77776685e-11
2.909119926e-11
3.084172256e-11
3.071442857e-11
2.869132399e-11
2.68595822e-11
2.795803526e-11
2.930344132e-11
2.913789112e-11
2.756130323e-11
2.617018529e-11
2.706217608e-11
2.809969825e-11
2.792616336e-11
2.670545648e-11
2.563120852e-11
2.63425807e-11
2.715166147e-11
2.698924676e-11
2.603905526e-11
2.51863806e-11
2.575351737e-11
2.639464601e-11
2.624900888e-11
2.549992923e-11
2.479801383e-11
2.528022933e-11
2.577934759e-11
2.564355744e-11
2.504022263e-11
2.443874968e-11
2.668716417e-11
2.570404555e-11
2.521112187e-11
2.463507914e-11
2.407690877e-11
2.720764997e-10
7.611788219e-11
3.271033445e-11
2.543258021e-11
2.361906971e-11
1.670663739e-14
1.303725054e-13
2.009962649e-12
3.007566588e-11
3.974945051e-10
8.975426039e-14
6.09832707e-13
7.471000607e-12
7.925445261e-11
6.000575008e-10
2.882773953e-13
1.730403936e-12
1.737528817e-11
1.392648238e-10
6.986607544e-10
7.574570976e-13
4.126316214e-12
3.519586599e-11
2.248663061e-10
8.711055302e-10
1.748947358e-12
8.720299238e-12
6.32689506e-11
3.254329377e-10
1.010087566e-09
3.71103582e-12
1.684778937e-11
1.036226825e-10
4.318470738e-10
1.094995824e-09
7.612122294e-12
3.167240402e-11
1.63636435e-10
5.491569552e-10
1.185137831e-09
1.515908829e-11
5.796240604e-11
2.467723543e-10
6.830662841e-10
1.339502284e-09
2.904827538e-11
1.002503816e-10
3.480733423e-10
8.162909563e-10
1.469261545e-09
5.300091837e-11
1.609507276e-10
4.582704803e-10
9.32885101e-10
1.540879486e-09
9.35522668e-11
2.395011361e-10
5.675176635e-10
1.032272897e-09
1.588227038e-09
1.535792693e-10
3.302682726e-10
6.749313708e-10
1.130558327e-09
1.662361794e-09
2.358818204e-10
4.328644313e-10
7.842248953e-10
1.229457975e-09
1.73957677e-09
3.450101549e-10
5.490666457e-10
8.955540093e-10
1.31935956e-09
1.788452998e-09
4.857699839e-10
6.805049034e-10
1.007077748e-09
1.395461613e-09
1.808891177e-09
6.564625137e-10
8.277689972e-10
1.119841246e-09
1.464607946e-09
1.824358679e-09
8.48441567e-10
9.891469025e-10
1.238551969e-09
1.539894566e-09
1.858664226e-09
1.043343031e-09
1.154102195e-09
1.360403886e-09
1.618637927e-09
1.900518125e-09
1.219118777e-09
1.303068442e-09
1.465269503e-09
1.673313521e-09
1.91057503e-09
1.344528918e-09
1.403661918e-09
1.520276704e-09
1.674908672e-09
1.867395336e-09
1.387325363e-09
1.425191197e-09
1.503120758e-09
1.616765669e-09
1.780035859e-09
1.339667569e-09
1.365397682e-09
1.42289395e-09
1.519629828e-09
1.676675797e-09
1.235711499e-09
1.259528566e-09
1.316875322e-09
1.420112253e-09
1.593459231e-09
1.128134169e-09
1.157219814e-09
1.227438396e-09
1.35221345e-09
1.556413479e-09
1.056871306e-09
1.094224896e-09
1.18261438e-09
1.335048221e-09
1.575102734e-09
1.043579992e-09
1.089870797e-09
1.19776967e-09
1.379759008e-09
1.658813265e-09
1.099642025e-09
1.155049833e-09
1.283334676e-09
1.497528392e-09
1.820607634e-09
1.234410205e-09
1.299660879e-09
1.450032288e-09
1.699139679e-09
2.070894633e-09
1.46935896e-09
1.545386473e-09
1.719885269e-09
2.011097599e-09
2.449297751e-09
1.84148649e-09
1.934543392e-09
2.147571164e-09
2.49889261e-09
3.026530753e-09
2.423057925e-09
2.540637082e-09
2.809965111e-09
3.252461705e-09
3.913834409e-09
3.347441379e-09
3.502656003e-09
3.857362143e-09
4.436708425e-09
5.297043916e-09
4.929222709e-09
5.144754905e-09
5.637269947e-09
6.39885027e-09
7.540187493e-09
7.641240029e-09
7.934301023e-09
8.584171509e-09
9.637242627e-09
1.115659386e-08
1.224335671e-08
1.262494828e-08
1.347736833e-08
1.480847139e-08
1.66460081e-08
1.897585207e-08
1.939082777e-08
2.030237712e-08
2.168260637e-08
2.351907447e-08
2.606353301e-08
2.642491239e-08
2.721119189e-08
2.838185471e-08
2.99012882e-08
3.150660757e-08
3.178648978e-08
3.239169134e-08
3.328152861e-08
3.441060725e-08
3.498409509e-08
3.519225419e-08
3.563394581e-08
3.625633728e-08
3.698019572e-08
3.705035959e-08
3.713656148e-08
3.728248621e-08
3.737373679e-08
3.721750196e-08
3.484543326e-08
3.455474446e-08
3.388219558e-08
3.27979605e-08
3.130236319e-08
2.586550607e-08
2.558299248e-08
2.497307243e-08
2.407848259e-08
2.294560415e-08
1.850545754e-08
1.834036831e-08
1.79873153e-08
1.74768767e-08
1.683959506e-08
1.40020112e-08
1.391497451e-08
1.372802723e-08
1.345543069e-08
1.311043719e-08
1.132718271e-08
1.127661029e-08
1.116720994e-08
1.100496131e-08
1.079552231e-08
9.544727533e-09
9.510411113e-09
9.435776288e-09
9.324520712e-09
9.179403184e-09
8.177631411e-09
8.151998301e-09
8.096129356e-09
8.01254552e-09
7.90299817e-09
7.024657017e-09
7.004745336e-09
6.961311154e-09
6.896238616e-09
6.81078668e-09
6.011398823e-09
5.995863385e-09
5.96196291e-09
5.91114811e-09
5.844404839e-09
5.114541987e-09
5.102582206e-09
5.07647912e-09
5.037317686e-09
4.985793951e-09
4.325698803e-09
4.316601803e-09
4.296722433e-09
4.266846559e-09
4.227414102e-09
3.639829937e-09
3.633024448e-09
3.618165724e-09
3.595853045e-09
3.566450145e-09
3.0520303e-09
3.046889017e-09
3.035653836e-09
3.018748543e-09
2.996400177e-09
2.553651941e-09
2.549814557e-09
2.541427585e-09
2.528801303e-09
2.51209648e-09
2.13527182e-09
2.132426938e-09
2.126208236e-09
2.116840219e-09
2.104432919e-09
1.786986008e-09
1.784885983e-09
1.780294461e-09
1.773372551e-09
1.764193896e-09
1.498995767e-09
1.497446822e-09
1.494059369e-09
1.488948527e-09
1.482162594e-09
1.261921365e-09
1.260776404e-09
1.258271715e-09
1.254489556e-09
1.249461079e-09
1.067267948e-09
1.066417875e-09
1.064557759e-09
1.061746582e-09
1.058004146e-09
9.076199803e-10
9.069851419e-10
9.055955765e-10
9.034938141e-10
9.0069224e-10
7.766641875e-10
7.761865108e-10
7.751406358e-10
7.735574239e-10
7.71444398e-10
6.690800843e-10
6.68716886e-10
6.679213703e-10
6.667160994e-10
6.651053795e-10
5.80430555e-10
5.801501384e-10
5.795356933e-10
5.786038936e-10
5.773569051e-10
5.070217e-10
5.06800404e-10
5.063152492e-10
5.055787724e-10
5.045917382e-10
4.458323614e-10
4.456526626e-10
4.452585016e-10
4.446595736e-10
4.438557716e-10
3.943827729e-10
3.942318096e-10
3.93900496e-10
3.933966333e-10
3.927196345e-10
3.507329661e-10
3.506017771e-10
3.503137507e-10
3.498754606e-10
3.492861049e-10
3.132797338e-10
3.131619169e-10
3.129031446e-10
3.125092292e-10
3.119793488e-10
2.811769223e-10
2.810686528e-10
2.808308336e-10
2.804688076e-10
2.799818384e-10
2.55361991e-10
2.552605448e-10
2.550376057e-10
2.546981879e-10
2.542416727e-10
1.098950853e-09
1.274099813e-09
1.262961721e-09
1.612804928e-09
1.680441686e-09
1.626358005e-09
1.672562953e-09
1.893628665e-09
1.994022916e-09
1.9804572e-09
1.964507568e-09
2.031186221e-09
2.091214436e-09
2.095754645e-09
2.065660453e-09
2.045054375e-09
2.066591549e-09
2.104392771e-09
2.101636932e-09
2.042858947e-09
1.94619539e-09
1.846060495e-09
1.779338785e-09
1.766923566e-09
1.815885734e-09
1.93244413e-09
2.130819822e-09
2.424540742e-09
2.863431381e-09
3.530519109e-09
4.538619517e-09
6.104941612e-09
8.599097488e-09
1.251407008e-08
1.820520289e-08
2.500963827e-08
3.109678189e-08
3.526439793e-08
3.743106616e-08
3.676273767e-08
3.008889004e-08
2.208239524e-08
1.635834722e-08
1.284479541e-08
1.063059469e-08
9.063501334e-09
7.814977905e-09
6.741959799e-09
5.790590165e-09
4.944180486e-09
4.195813751e-09
3.54243056e-09
2.978235648e-09
2.498506623e-09
2.094324296e-09
1.756703388e-09
1.476614971e-09
1.245342829e-09
1.054933774e-09
8.983898888e-10
7.697049992e-10
6.637771764e-10
5.763267566e-10
5.037748048e-10
4.431893131e-10
3.921575052e-10
3.487962707e-10
3.115387802e-10
2.795769673e-10
2.538622316e-10
1.825202221e-09
5.239237605e-09
7.449137657e-10
1.097070064e-10
3.235107568e-11
1.750109629e-09
2.065922275e-09
2.675629656e-09
6.286033682e-10
1.136879462e-10
1.937182451e-09
3.376981672e-09
1.810186999e-08
3.670353378e-09
8.067923843e-10
2.937299768e-09
8.321747206e-09
4.893991246e-08
1.000367046e-08
3.953374664e-09
2.74680106e-09
5.470512158e-09
1.789020424e-08
8.055529085e-09
4.469992702e-09
2.387886428e-09
3.688688458e-09
8.327585872e-09
9.295979797e-09
5.122091679e-09
2.382742673e-09
3.626265874e-09
7.814094826e-09
2.05581209e-08
7.969456295e-09
2.781916586e-09
5.140278426e-09
1.310051934e-08
5.611181831e-08
1.491064285e-08
2.801099694e-09
4.660426565e-09
1.002063505e-08
2.934734801e-08
1.260163948e-08
2.617276486e-09
3.832142767e-09
7.080476725e-09
1.541987851e-08
1.248545566e-08
2.495054383e-09
3.458783106e-09
6.038345846e-09
1.203250649e-08
1.998639065e-08
2.571101788e-09
3.77113985e-09
6.99759421e-09
1.552829476e-08
4.598689549e-08
2.609729254e-09
3.792392386e-09
6.749593945e-09
1.39784196e-08
3.693553325e-08
2.540513833e-09
3.500168679e-09
5.746132931e-09
1.060463925e-08
2.243145673e-08
2.43090902e-09
3.195828747e-09
4.950423322e-09
8.516556189e-09
1.593321156e-08
2.36115974e-09
3.068568646e-09
4.683279146e-09
7.930361817e-09
1.476275428e-08
2.37844575e-09
3.18317642e-09
5.003143831e-09
8.787811524e-09
1.786139368e-08
2.426798993e-09
3.347344988e-09
5.357245549e-09
9.513627172e-09
1.946429223e-08
2.414905879e-09
3.361297054e-09
5.314979007e-09
9.172273396e-09
1.767235273e-08
2.338858253e-09
3.245882584e-09
5.035945713e-09
8.422543503e-09
1.533860785e-08
2.232593558e-09
3.100269523e-09
4.750105694e-09
7.767031287e-09
1.357832961e-08
2.13783866e-09
3.001048585e-09
4.578651835e-09
7.387005282e-09
1.260545936e-08
2.095111778e-09
2.989616434e-09
4.572617103e-09
7.348049698e-09
1.243862913e-08
2.121235184e-09
3.082303884e-09
4.747094499e-09
7.659049077e-09
1.301346709e-08
2.21620514e-09
3.266792969e-09
5.063998555e-09
8.21753227e-09
1.401609381e-08
2.383541273e-09
3.545597136e-09
5.501972296e-09
8.947335038e-09
1.519389119e-08
2.638547565e-09
3.926108958e-09
6.09572741e-09
9.896217606e-09
1.658529424e-08
3.001451958e-09
4.458349912e-09
6.921435308e-09
1.116590297e-08
1.831204864e-08
3.537374547e-09
5.238124155e-09
8.091802315e-09
1.28713551e-08
2.045504446e-08
4.351608022e-09
6.384585973e-09
9.747089415e-09
1.513626458e-08
2.30759419e-08
5.551023546e-09
8.067745938e-09
1.207477683e-08
1.812189851e-08
2.627680384e-08
7.407199141e-09
1.056067797e-08
1.533391856e-08
2.202111611e-08
3.01497088e-08
1.029136742e-08
1.421289166e-08
1.975535715e-08
2.684416964e-08
3.447945009e-08
1.464882337e-08
1.926040049e-08
2.520707541e-08
3.2003672e-08
3.824941818e-08
2.06062954e-08
2.535449028e-08
3.084968499e-08
3.629335734e-08
3.989374208e-08
2.726223204e-08
3.13906003e-08
3.571246895e-08
3.923522407e-08
3.967335815e-08
3.287699112e-08
3.592074979e-08
3.862892305e-08
3.955315567e-08
3.571682143e-08
3.650665661e-08
3.830217095e-08
3.891769847e-08
3.619855537e-08
3.012968262e-08
3.800513346e-08
3.786814331e-08
3.510868545e-08
2.996365901e-08
2.450010967e-08
3.586622521e-08
3.25955257e-08
2.823914257e-08
2.37101497e-08
1.968123011e-08
2.827647889e-08
2.50071651e-08
2.164116242e-08
1.85479585e-08
1.591480418e-08
2.081676045e-08
1.870803874e-08
1.665140006e-08
1.47746793e-08
1.312719205e-08
1.565365826e-08
1.447243397e-08
1.328795132e-08
1.215480999e-08
1.110032804e-08
1.245264554e-08
1.176719833e-08
1.104356634e-08
1.031115165e-08
9.590051044e-09
1.038507505e-08
9.93908688e-09
9.448043261e-09
8.929711791e-09
8.399328764e-09
8.890070096e-09
8.567274522e-09
8.203116738e-09
7.809751075e-09
7.398491229e-09
7.683004461e-09
7.43451396e-09
7.151015655e-09
6.841281092e-09
6.51383625e-09
6.638687392e-09
6.443286325e-09
6.219181588e-09
5.972881744e-09
5.71095242e-09
5.709818872e-09
5.556518699e-09
5.380063389e-09
5.185195771e-09
4.976583373e-09
4.881691569e-09
4.76267262e-09
4.625106571e-09
4.472408332e-09
4.308210518e-09
4.14825406e-09
4.057023253e-09
3.951113518e-09
3.832908651e-09
3.704879891e-09
3.506252788e-09
3.43641387e-09
3.354584448e-09
3.263112125e-09
3.163563693e-09
2.950901619e-09
2.89816029e-09
2.836313821e-09
2.766565663e-09
2.690109142e-09
2.478049243e-09
2.438461362e-09
2.391850799e-09
2.338997957e-09
2.280702447e-09
2.079099086e-09
2.049533766e-09
2.014574996e-09
1.974732361e-09
1.930530762e-09
1.745414472e-09
1.723411498e-09
1.69727729e-09
1.667333889e-09
1.63391308e-09
1.46824854e-09
1.451879033e-09
1.432345828e-09
1.409844899e-09
1.384578599e-09
1.239127759e-09
1.226921116e-09
1.212288772e-09
1.195344886e-09
1.176207798e-09
1.050296963e-09
1.041156814e-09
1.030152651e-09
1.017346836e-09
1.002804136e-09
8.949106366e-10
8.880284698e-10
8.797084947e-10
8.699805925e-10
8.588753923e-10
7.670747317e-10
7.618543082e-10
7.555175791e-10
7.480737737e-10
7.395313657e-10
6.617673333e-10
6.577645065e-10
6.528854346e-10
6.471261568e-10
6.404807301e-10
5.747667845e-10
5.716488397e-10
5.678318619e-10
5.633035338e-10
5.580486932e-10
5.025367842e-10
5.000533772e-10
4.969999464e-10
4.933592291e-10
4.891106495e-10
4.421785994e-10
4.40144547e-10
4.37633723e-10
4.346263799e-10
4.31099327e-10
3.913045368e-10
3.895834407e-10
3.874523596e-10
3.8489092e-10
3.818754345e-10
3.480526884e-10
3.465500035e-10
3.446858626e-10
3.424405058e-10
3.397911364e-10
3.108699195e-10
3.095174669e-10
3.078387453e-10
3.058155255e-10
3.034269512e-10
2.789622528e-10
2.777200471e-10
2.761790088e-10
2.743228104e-10
2.721329204e-10
2.532861935e-10
2.521231347e-10
2.506817579e-10
2.48947724e-10
2.469048894e-10
3.069323631e-12
1.94565398e-13
2.70574295e-14
7.270994908e-15
4.431644701e-15
3.914708206e-15
3.593030579e-15
3.178450911e-15
2.706539486e-15
2.25495594e-15
1.863138858e-15
1.542487919e-15
1.28694923e-15
1.083936657e-15
9.203889735e-16
7.853072017e-16
6.708443758e-16
5.718210584e-16
4.852269635e-16
4.093969306e-16
3.434695726e-16
2.868801304e-16
2.390310945e-16
1.99112226e-16
1.660881036e-16
1.387725692e-16
1.159757926e-16
9.666476192e-17
8.006512518e-17
6.567995495e-17
5.323768073e-17
4.25999814e-17
3.367004968e-17
2.632937041e-17
2.041098495e-17
1.570630776e-17
1.199287516e-17
9.065758555e-18
6.758329648e-18
4.946731923e-18
3.541314177e-18
2.473278593e-18
1.683707423e-18
1.118116379e-18
7.258589894e-19
4.619693034e-19
2.891232519e-19
1.783895395e-19
1.086915803e-19
6.543558648e-20
3.89046503e-20
2.281031745e-20
1.315723523e-20
7.43700809e-21
4.088723757e-21
2.150188408e-21
1.035543143e-21
4.108063928e-22
9.566813836e-23
7.828933319e-24
1.242599686e-11
7.034077998e-13
9.893937293e-14
5.516610527e-14
5.637405929e-14
5.602163085e-14
5.023885874e-14
4.249474435e-14
3.418637411e-14
2.686432819e-14
2.078830759e-14
1.60737153e-14
1.250429279e-14
9.838807633e-15
7.83617759e-15
6.307466661e-15
5.116963467e-15
4.171500802e-15
3.409824495e-15
2.790430463e-15
2.285286403e-15
1.874293089e-15
1.541715461e-15
1.273720088e-15
1.057724608e-15
8.822293807e-16
7.372819293e-16
6.150268008e-16
5.099844632e-16
4.188302725e-16
3.398695903e-16
2.723053329e-16
2.155722822e-16
1.689355686e-16
1.313304529e-16
1.014130992e-16
7.774876683e-17
5.902438024e-17
4.418698008e-17
3.24695846e-17
2.332782494e-17
1.634623698e-17
1.116367627e-17
7.438308885e-18
4.846390841e-18
3.097102233e-18
1.947223702e-18
1.207513629e-18
7.396959924e-19
4.47778832e-19
2.676890543e-19
1.577946191e-19
9.149075105e-20
5.196456262e-20
2.868587146e-20
1.512763468e-20
7.299662452e-21
2.912258342e-21
7.256206895e-22
7.368097338e-23
7.654344673e-11
3.819005465e-12
4.463474681e-13
3.085054748e-13
3.156281173e-13
3.037028215e-13
2.685257505e-13
2.270426616e-13
1.83766314e-13
1.455479897e-13
1.130135051e-13
8.72127783e-14
6.714640392e-14
5.190578036e-14
4.032810346e-14
3.150321497e-14
2.471783249e-14
1.946382298e-14
1.538145565e-14
1.220357265e-14
9.731100391e-15
7.809655417e-15
6.319116239e-15
5.161136751e-15
4.254586037e-15
3.533162038e-15
2.945122145e-15
2.452933057e-15
2.0321172e-15
1.668464387e-15
1.354697259e-15
1.087194612e-15
8.632473591e-16
6.794829874e-16
5.313195161e-16
4.131881122e-16
3.192777043e-16
2.443785041e-16
1.84424408e-16
1.365526154e-16
9.880099985e-17
6.968827373e-17
4.789315955e-17
3.210997861e-17
2.10559595e-17
1.354865318e-17
8.582278099e-18
5.365216312e-18
3.314848154e-18
2.024469904e-18
1.221090622e-18
7.261307456e-19
4.245670879e-19
2.430075824e-19
1.349948196e-19
7.145020548e-20
3.449667215e-20
1.369090276e-20
3.433811702e-21
3.626298496e-22
6.124512226e-10
5.670338269e-11
4.627992902e-12
1.347891169e-12
1.123321885e-12
1.022819972e-12
8.976939402e-13
7.608613514e-13
6.251775201e-13
5.029395402e-13
3.976758874e-13
3.115606864e-13
2.427411606e-13
1.890428511e-13
1.473170901e-13
1.150019174e-13
8.98274496e-14
7.018488761e-14
5.484213588e-14
4.291178028e-14
3.369497701e-14
2.663014771e-14
2.12475679e-14
1.714938066e-14
1.40022983e-14
1.153740813e-14
9.553290187e-15
7.910042867e-15
6.519411404e-15
5.330842494e-15
4.317252649e-15
3.462908683e-15
2.754952718e-15
2.178676832e-15
1.716259262e-15
1.34764563e-15
1.053038263e-15
8.155275686e-16
6.226288123e-16
4.661391862e-16
3.408158887e-16
2.427948481e-16
1.684800332e-16
1.140475923e-16
7.552216535e-17
4.909187186e-17
3.142827594e-17
1.986449248e-17
1.24117723e-17
7.667075962e-18
4.678080215e-18
2.814084218e-18
1.663945432e-18
9.623316269e-19
5.391747432e-19
2.868036781e-19
1.385646094e-19
5.46235785e-20
1.358563173e-20
1.444283829e-21
1.3394525e-09
1.687369187e-10
1.874490973e-11
4.254188101e-12
2.911817567e-12
2.499337742e-12
2.163758456e-12
1.842047572e-12
1.539587671e-12
1.266281744e-12
1.027135726e-12
8.248472168e-13
6.574803632e-13
5.220439174e-13
4.134194401e-13
3.27134898e-13
2.585235756e-13
2.041322656e-13
1.609423405e-13
1.268438094e-13
1.000389146e-13
7.918627627e-14
6.308624638e-14
5.071507629e-14
4.115809958e-14
3.365895982e-14
2.763427333e-14
2.267691954e-14
1.852726309e-14
1.50305745e-14
1.209547494e-14
9.66063069e-15
7.673371051e-15
6.078053545e-15
4.812785311e-15
3.811870915e-15
3.012736705e-15
2.363945715e-15
1.829636393e-15
1.388367038e-15
1.028303051e-15
7.416811933e-16
5.208900961e-16
3.568660771e-16
2.392655643e-16
1.575638497e-16
1.022409537e-16
6.551141597e-17
4.149110344e-17
2.597108535e-17
1.605125153e-17
9.777698299e-18
5.852811706e-18
3.424278168e-18
1.937553784e-18
1.037399436e-18
5.021928659e-19
1.972212521e-19
4.869014773e-20
5.269164988e-21
2.442767819e-09
4.681530176e-10
6.746133259e-11
1.255172328e-11
6.447527918e-12
5.022547585e-12
4.219518986e-12
3.580241213e-12
3.028007004e-12
2.542608347e-12
2.117271813e-12
1.74909366e-12
1.434783973e-12
1.170516953e-12
9.506103825e-13
7.695076566e-13
6.211004794e-13
5.002460966e-13
4.019970439e-13
3.226879789e-13
2.589083611e-13
2.0813156e-13
1.679059291e-13
1.362251894e-13
1.111446162e-13
9.106357968e-14
7.465564851e-14
6.100246852e-14
4.951367967e-14
3.985013559e-14
3.18022139e-14
2.520704948e-14
1.990199259e-14
1.571019036e-14
1.244115681e-14
9.896678676e-15
7.888490373e-15
6.262940255e-15
4.915284679e-15
3.785687993e-15
2.845583007e-15
2.081323791e-15
1.480854517e-15
1.027098196e-15
6.972112391e-16
4.652623438e-16
3.062825982e-16
1.9926803e-16
1.281748246e-16
8.145583561e-17
5.107571096e-17
3.153916701e-17
1.912204675e-17
1.132152701e-17
6.474706137e-18
3.496969209e-18
1.702657319e-18
6.712049673e-19
1.660962359e-19
1.85106359e-20
4.237778319e-09
1.331130614e-09
2.284372172e-10
4.039131065e-11
1.325932346e-11
8.759822658e-12
7.022440575e-12
5.890739315e-12
5.000427475e-12
4.251403286e-12
3.605845244e-12
3.046472652e-12
2.563061099e-12
2.14788361e-12
1.793729618e-12
1.493483062e-12
1.239997763e-12
1.026875761e-12
8.48170385e-13
6.991608032e-13
5.754850984e-13
4.736944627e-13
3.90378494e-13
3.226226469e-13
2.673984618e-13
2.220768491e-13
1.84203961e-13
1.519991619e-13
1.242636269e-13
1.003944677e-13
8.011272686e-14
6.326064075e-14
4.962271241e-14
3.886260093e-14
3.054715159e-14
2.419220613e-14
1.929474368e-14
1.541001382e-14
1.222345947e-14
9.54758273e-15
7.290535217e-15
5.4183477e-15
3.912896307e-15
2.749287996e-15
1.887645429e-15
1.273796832e-15
8.487532203e-16
5.597266008e-16
3.65391823e-16
2.358288004e-16
1.501847477e-16
9.414015309e-17
5.788883042e-17
3.4725882e-17
2.010356224e-17
1.098788259e-17
5.414989291e-18
2.167411062e-18
5.476793222e-19
6.383023453e-20
6.71904042e-09
2.978951284e-09
7.286204456e-10
1.388229002e-10
3.261319201e-11
1.502160279e-11
1.065305784e-11
8.644296727e-12
7.287754509e-12
6.219659715e-12
5.325309812e-12
4.557903491e-12
3.89432702e-12
3.320537213e-12
2.826000001e-12
2.401556581e-12
2.038630913e-12
1.7293375e-12
1.46616007e-12
1.242389107e-12
1.052228675e-12
8.908892774e-13
7.542431623e-13
6.388761774e-13
5.415364733e-13
4.591196813e-13
3.885042216e-13
3.270969321e-13
2.729179955e-13
2.248967989e-13
1.825977393e-13
1.460496621e-13
1.153381302e-13
9.033922594e-14
7.058325056e-14
5.535413224e-14
4.376050925e-14
3.480993029e-14
2.767220936e-14
2.180289583e-14
1.68876817e-14
1.277041036e-14
9.388292441e-15
6.703409322e-15
4.663484059e-15
3.181158656e-15
2.140768507e-15
1.42635423e-15
9.418971905e-16
6.158648831e-16
3.978505014e-16
2.531788057e-16
1.580900709e-16
9.627420396e-17
5.656117412e-17
3.138417883e-17
1.573383784e-17
6.441408438e-18
1.681422157e-18
2.085089534e-19
6.848417426e-09
4.054209861e-09
1.555315559e-09
3.704158914e-10
8.144541545e-11
2.692927085e-11
1.567719087e-11
1.190842012e-11
9.861454898e-12
8.399230927e-12
7.22514844e-12
6.234494231e-12
5.381317922e-12
4.641458725e-12
3.999565795e-12
3.44398199e-12
2.964674809e-12
2.552531418e-12
2.199115737e-12
1.896597262e-12
1.637843092e-12
1.416545098e-12
1.227201323e-12
1.064762016e-12
9.24742629e-13
8.032375307e-13
6.965361185e-13
6.014919923e-13
5.155818047e-13
4.37186029e-13
3.655401939e-13
3.007648441e-13
2.434515941e-13
1.942427249e-13
1.533276699e-13
1.203155127e-13
9.438921907e-14
7.43369537e-14
5.867346403e-14
4.615400458e-14
3.595924398e-14
2.757980928e-14
2.068502199e-14
1.508687818e-14
1.068477449e-14
7.388716767e-15
5.026036292e-15
3.379018449e-15
2.250359408e-15
1.485169379e-15
9.70154135e-16
6.2559342e-16
3.965558073e-16
2.454677335e-16
1.46731327e-16
8.295181257e-17
4.251218623e-17
1.793107664e-17
4.898782002e-18
6.601208669e-19
7.105640357e-09
4.705040447e-09
2.411246492e-09
7.708862614e-10
1.896236546e-10
5.057085417e-11
2.309153499e-11
1.590845375e-11
1.278531452e-11
1.081429808e-11
9.315651255e-12
8.079697965e-12
7.023280985e-12
6.106735994e-12
5.307724301e-12
4.611309336e-12
4.005840795e-12
3.481220909e-12
3.028198949e-12
2.638160698e-12
2.302849757e-12
2.015238464e-12
1.768385721e-12
1.556116613e-12
1.372818518e-12
1.213424502e-12
1.073341886e-12
9.483155024e-13
8.345966849e-13
7.292824066e-13
6.304574272e-13
5.374639971e-13
4.508467411e-13
3.719386048e-13
3.021131175e-13
2.42170666e-13
1.921103317e-13
1.513957278e-13
1.188761586e-13
9.300291872e-14
7.22602358e-14
5.55629533e-14
4.215131431e-14
3.13975942e-14
2.280093554e-14
1.609755523e-14
1.111069966e-14
7.548759837e-15
5.068815469e-15
3.369376497e-15
2.217916372e-15
1.444098311e-15
9.269596761e-16
5.827597084e-16
3.54789151e-16
2.049487736e-16
1.078545023e-16
4.720390269e-17
1.368733345e-17
2.040863977e-18
9.059051514e-09
5.63641048e-09
3.327645626e-09
1.386308343e-09
4.052378507e-10
1.069783348e-10
3.737360307e-11
2.155289356e-11
1.630964995e-11
1.35585545e-11
1.164002075e-11
1.01156916e-11
8.832059875e-12
7.722304734e-12
6.752452489e-12
5.902454456e-12
5.158426831e-12
4.508793712e-12
3.944765516e-12
3.456699534e-12
3.03536566e-12
2.672331081e-12
2.359830908e-12
2.090767007e-12
1.858641132e-12
1.657494606e-12
1.481858453e-12
1.326714671e-12
1.187429256e-12
1.059940529e-12
9.409814136e-13
8.282120782e-13
7.204369192e-13
6.17801716e-13
5.215716408e-13
4.334630277e-13
3.548105128e-13
2.86243513e-13
2.278537754e-13
1.792576288e-13
1.395730339e-13
1.074761199e-13
8.174707386e-14
6.137291615e-14
4.539142896e-14
3.289098909e-14
2.325015059e-14
1.605628974e-14
1.089108386e-14
7.290873294e-15
4.829193507e-15
3.166134589e-15
2.050948652e-15
1.305791918e-15
8.086212124e-16
4.776345944e-16
2.589671804e-16
1.183356429e-16
3.689281823e-17
6.178659321e-18
1.483272029e-08
7.522473612e-09
4.569938464e-09
2.254868403e-09
8.222600238e-10
2.490369873e-10
7.456313749e-11
3.212697762e-11
2.104542302e-11
1.669988933e-11
1.414907487e-11
1.226660251e-11
1.072882534e-11
9.413153951e-12
8.2630719e-12
7.253600414e-12
6.367329897e-12
5.589745046e-12
4.909675651e-12
4.317296753e-12
3.802861186e-12
3.357387111e-12
2.972607422e-12
2.640830538e-12
2.354882881e-12
2.108079731e-12
1.894197472e-12
1.707435144e-12
1.542394943e-12
1.394130809e-12
1.258281173e-12
1.131257572e-12
1.010381675e-12
8.941091574e-13
7.821112189e-13
6.751038596e-13
5.742923357e-13
4.808807752e-13
3.95902266e-13
3.20139458e-13
2.542685875e-13
1.985605762e-13
1.52573727e-13
1.154302032e-13
8.606503765e-14
6.325918224e-14
4.572430925e-14
3.237286548e-14
2.239494745e-14
1.517033593e-14
1.011467586e-14
6.66670817e-15
4.346950286e-15
2.793983047e-15
1.754628057e-15
1.058133275e-15
5.917868954e-16
2.837703915e-16
9.621522825e-17
1.830958998e-17
1.486801149e-08
7.987993647e-09
5.298224228e-09
3.022044822e-09
1.297093914e-09
4.764588331e-10
1.589792828e-10
5.610332682e-11
2.876614951e-11
2.039539016e-11
1.661855564e-11
1.422200996e-11
1.238468493e-11
1.087056389e-11
9.547841042e-12
8.416700682e-12
7.419704363e-12
6.539805568e-12
5.764613815e-12
5.08414215e-12
4.489273918e-12
3.971446323e-12
3.5224491e-12
3.134418916e-12
2.799895517e-12
2.511834231e-12
2.263598979e-12
2.048918999e-12
1.861868356e-12
1.696884538e-12
1.548833383e-12
1.41312869e-12
1.285896887e-12
1.164200054e-12
1.046212027e-12
9.311923323e-13
8.192951667e-13
7.111986653e-13
6.078280007e-13
5.104077222e-13
4.202338527e-13
3.387508896e-13
2.672390452e-13
2.063357462e-13
1.562123304e-13
1.162105819e-13
8.50467319e-14
6.126242954e-14
4.335266437e-14
3.003042327e-14
2.034694941e-14
1.352854905e-14
8.867456107e-15
5.73547789e-15
3.64006543e-15
2.234393173e-15
1.287868053e-15
6.508101118e-16
2.423679066e-16
5.279625367e-17
1.37393582e-08
8.036036463e-09
5.6532329e-09
3.717193972e-09
1.911952695e-09
7.730603205e-10
2.967711801e-10
1.105492576e-10
4.547700499e-11
2.575272304e-11
1.876896389e-11
1.534166188e-11
1.313550527e-11
1.147313045e-11
1.006408771e-11
8.892218472e-12
7.863186871e-12
6.956435961e-12
6.156473507e-12
5.451875681e-12
4.833426649e-12
4.293000159e-12
3.823008121e-12
3.416093761e-12
3.065083357e-12
2.76300834e-12
2.503238201e-12
2.279595331e-12
2.086336326e-12
1.918021536e-12
1.769383197e-12
1.63545153e-12
1.511772006e-12
1.394541845e-12
1.280809544e-12
1.168626052e-12
1.057008044e-12
9.457890383e-13
8.354032074e-13
7.267456455e-13
6.211381119e-13
5.201715332e-13
4.258457758e-13
3.402324048e-13
2.651780244e-13
2.018710091e-13
1.503756401e-13
1.098293866e-13
7.882322653e-14
5.559821571e-14
3.847429562e-14
2.606728213e-14
1.730672915e-14
1.12875188e-14
7.225676653e-15
4.49984519e-15
2.664538758e-15
1.419094881e-15
5.839138142e-16
1.464378692e-16
1.564858459e-08
8.789430474e-09
6.109975548e-09
4.302632319e-09
2.508692013e-09
1.141776248e-09
4.767449283e-10
2.000457038e-10
8.414118695e-11
3.804265355e-11
2.166767536e-11
1.539875398e-11
1.238605984e-11
1.057121686e-11
9.228869069e-12
8.144328554e-12
7.224875667e-12
6.427403975e-12
5.728373935e-12
5.113367774e-12
4.572467764e-12
4.098017923e-12
3.683520544e-12
3.323089256e-12
3.011143123e-12
2.742335341e-12
2.511482749e-12
2.313498779e-12
2.14341018e-12
1.99650873e-12
1.868329069e-12
1.754311946e-12
1.649922387e-12
1.551117488e-12
1.454458467e-12
1.357192803e-12