/*--------------------------------*- C++ -*----------------------------------*\
  =========                 |
  \\      /  F ield         | OpenFOAM: The Open Source CFD Toolbox
   \\    /   O peration     | Website:  https://openfoam.org
    \\  /    A nd           | Version:  10
     \\/     M anipulation  |
\*---------------------------------------------------------------------------*/
FoamFile
{
    format      ascii;
    class       volScalarField;
    location    "3000";
    object      HO2;
}
// * * * * * * * * * * * * * * * * * * * * * * * * * * * * * * * * * * * * * //

dimensions      [0 0 0 0 0 0 0];

internalField   nonuniform List<scalar> 
5170
(
6.261112977e-39
6.295669549e-39
6.498824242e-39
7.632361075e-39
1.36199784e-38
1.252088836e-38
1.263759744e-38
1.329427724e-38
1.665981535e-38
2.585061773e-38
1.882407037e-38
1.91408404e-38
2.063846586e-38
2.680674902e-38
3.718155277e-38
2.530675014e-38
2.596608949e-38
2.869396984e-38
3.80644882e-38
4.836559534e-38
3.202370055e-38
3.316947998e-38
3.745507664e-38
5.035944265e-38
5.957220662e-38
3.910451371e-38
4.085641376e-38
4.698212083e-38
6.355355061e-38
7.10812955e-38
4.647033808e-38
4.889811087e-38
5.732711726e-38
7.744028627e-38
8.303902051e-38
5.416750376e-38
5.740950324e-38
6.825057809e-38
9.173443545e-38
9.545784532e-38
6.343537727e-38
6.75096167e-38
8.111986783e-38
1.120490893e-37
1.47134307e-37
5.82177449e-37
5.924289789e-37
8.415594395e-37
3.587839046e-36
2.270765187e-35
2.075404853e-34
2.304370293e-34
3.979351494e-34
2.054337095e-33
1.288947435e-32
8.56235589e-32
1.063290968e-31
2.181689563e-31
1.227309022e-30
7.296862688e-30
3.585173318e-29
5.053068455e-29
1.241449847e-28
7.445724314e-28
4.106826274e-27
1.511550925e-26
2.451414105e-26
7.263456071e-26
4.591259626e-25
2.302100918e-24
6.388826703e-24
1.203702998e-23
4.306641908e-23
2.862494679e-22
1.285969601e-21
2.663635589e-21
5.885520768e-21
2.533097983e-20
1.742982296e-19
7.15196957e-19
1.089241395e-18
2.854091896e-18
1.437872763e-17
1.023776104e-16
3.955110392e-16
4.266012217e-16
1.344067207e-15
7.846691993e-15
5.661552199e-14
2.161307473e-13
1.530238137e-13
6.000317403e-13
3.985216557e-12
2.877252069e-11
1.161358861e-10
4.6747195e-11
2.565919286e-10
1.93611439e-09
1.302900164e-08
6.045785427e-08
1.682862913e-06
1.081813441e-06
9.175781394e-07
1.202994416e-06
1.72158886e-06
1.800006335e-06
1.451973151e-06
1.325528688e-06
1.551358723e-06
1.801581641e-06
1.659848714e-06
1.531062686e-06
1.462807336e-06
1.572102287e-06
1.633266925e-06
1.515997379e-06
1.493647264e-06
1.465419505e-06
1.508990836e-06
1.477200494e-06
1.400347403e-06
1.428705266e-06
1.421261376e-06
1.427826428e-06
1.35467406e-06
1.311484712e-06
1.360538009e-06
1.363860765e-06
1.348160513e-06
1.261555166e-06
1.242887195e-06
1.2975173e-06
1.305144154e-06
1.275826924e-06
1.19073542e-06
1.188863349e-06
1.241684419e-06
1.249781865e-06
1.211978739e-06
1.136259193e-06
1.145605468e-06
1.193136097e-06
1.199499055e-06
1.158109387e-06
1.094594229e-06
1.110396479e-06
1.151467104e-06
1.155309859e-06
1.114679158e-06
1.062810267e-06
1.081373852e-06
1.1160585e-06
1.117547363e-06
1.080303747e-06
1.038161329e-06
1.057095517e-06
1.086132466e-06
1.085845168e-06
1.052984891e-06
1.018388979e-06
1.036447495e-06
1.060829686e-06
1.059350099e-06
1.030809557e-06
1.001826709e-06
1.018508785e-06
1.039220516e-06
1.037031934e-06
1.012228388e-06
9.873052423e-07
1.002572147e-06
1.020503277e-06
1.017908876e-06
9.960857896e-07
9.740214936e-07
9.880334014e-07
1.003924153e-06
1.001144658e-06
9.815449512e-07
9.613705342e-07
9.744823818e-07
9.888544647e-07
9.859104667e-07
9.678987531e-07
9.488813644e-07
9.618302723e-07
9.747543729e-07
9.71442501e-07
9.545110311e-07
9.362086934e-07
9.577595551e-07
9.62818839e-07
9.572795853e-07
9.407555402e-07
9.227437491e-07
1.829436005e-06
1.085998522e-06
9.707812595e-07
9.322569809e-07
9.087012919e-07
1.659236569e-09
1.235736229e-08
1.777030112e-07
2.349956686e-06
2.367206842e-05
7.937770119e-09
4.983244297e-08
5.376251143e-07
4.619828101e-06
2.549043869e-05
2.297752337e-08
1.243601064e-07
1.053811807e-06
6.489824065e-06
2.359895854e-05
5.283414687e-08
2.5134198e-07
1.718441917e-06
7.982382027e-06
2.115398907e-05
1.045379575e-07
4.409612983e-07
2.459635009e-06
8.942480287e-06
1.877928419e-05
1.869556535e-07
6.997236575e-07
3.224579945e-06
9.502984383e-06
1.693814792e-05
3.167876163e-07
1.060661261e-06
4.059661499e-06
9.911062642e-06
1.594717238e-05
5.166026983e-07
1.557221175e-06
4.929510586e-06
1.025436965e-05
1.54499198e-05
8.124600192e-07
2.189074307e-06
5.750066396e-06
1.049157734e-05
1.495317874e-05
1.227988438e-06
2.924813507e-06
6.479219044e-06
1.06728792e-05
1.453747494e-05
1.805130268e-06
3.720610783e-06
7.115748043e-06
1.089333964e-05
1.43744226e-05
2.521048394e-06
4.512191478e-06
7.699362401e-06
1.117549146e-05
1.43656374e-05
3.352476119e-06
5.297025553e-06
8.254493208e-06
1.143792578e-05
1.427486619e-05
4.302150501e-06
6.099535215e-06
8.797738252e-06
1.166095378e-05
1.410621305e-05
5.395894065e-06
6.964478068e-06
9.372834081e-06
1.191263799e-05
1.398618761e-05
6.647111334e-06
7.950036988e-06
1.004251919e-05
1.226174745e-05
1.398652567e-05
8.053099456e-06
9.08926905e-06
1.083345195e-05
1.269028805e-05
1.40184683e-05
9.528997996e-06
1.031314752e-05
1.167327701e-05
1.304922816e-05
1.388983593e-05
1.092067003e-05
1.145462304e-05
1.235556138e-05
1.315752149e-05
1.353272827e-05
1.192414698e-05
1.220236822e-05
1.262968923e-05
1.293075918e-05
1.300199092e-05
1.222935571e-05
1.230907443e-05
1.240517131e-05
1.243206649e-05
1.241467282e-05
1.185974459e-05
1.18554394e-05
1.183193954e-05
1.181407054e-05
1.18621303e-05
1.1148621e-05
1.114804896e-05
1.116518113e-05
1.124469716e-05
1.146273245e-05
1.047277209e-05
1.051814691e-05
1.063641422e-05
1.086045302e-05
1.123658906e-05
1.006241262e-05
1.015448638e-05
1.036434095e-05
1.070893591e-05
1.118838715e-05
9.988929087e-06
1.011170406e-05
1.03822525e-05
1.079965201e-05
1.132725611e-05
1.019538219e-05
1.032111071e-05
1.059331489e-05
1.102873787e-05
1.158794132e-05
1.064465888e-05
1.076930472e-05
1.104573332e-05
1.148800165e-05
1.200705002e-05
1.124912965e-05
1.133042688e-05
1.148218588e-05
1.177750876e-05
1.222484286e-05
1.207019307e-05
1.213034635e-05
1.233106373e-05
1.262163154e-05
1.295584679e-05
1.306410834e-05
1.312324654e-05
1.324160334e-05
1.339287864e-05
1.352881938e-05
1.382907265e-05
1.38410213e-05
1.38552602e-05
1.383198472e-05
1.372270264e-05
1.401912467e-05
1.396381605e-05
1.382939718e-05
1.358773594e-05
1.319384562e-05
1.310378297e-05
1.297408888e-05
1.267980009e-05
1.221574296e-05
1.156758617e-05
1.059206731e-05
1.042661043e-05
1.006536853e-05
9.527553596e-06
8.831112145e-06
7.214342003e-06
7.079343533e-06
6.790444013e-06
6.372137533e-06
5.850163063e-06
4.330128389e-06
4.247144527e-06
4.070782898e-06
3.818673543e-06
3.509445023e-06
2.416581073e-06
2.373822513e-06
2.283515096e-06
2.156015992e-06
2.002823682e-06
1.315756101e-06
1.298158202e-06
1.261752335e-06
1.21253315e-06
1.157917325e-06
7.586733213e-07
7.568597745e-07
7.546219886e-07
7.560310102e-07
7.672013076e-07
5.676996818e-07
5.787698888e-07
6.048611108e-07
6.492604522e-07
7.175396244e-07
7.049286968e-07
7.26898464e-07
7.762099078e-07
8.537539703e-07
9.62209382e-07
1.084906262e-06
1.112151535e-06
1.172460271e-06
1.265119212e-06
1.390943857e-06
1.589886232e-06
1.618469395e-06
1.681355007e-06
1.776960511e-06
1.904997872e-06
2.132265828e-06
2.159595919e-06
2.21952506e-06
2.310380877e-06
2.431252737e-06
2.651540435e-06
2.67628918e-06
2.730476553e-06
2.812167484e-06
2.920331986e-06
3.104934559e-06
3.126385039e-06
3.173321802e-06
3.244000645e-06
3.337469144e-06
3.46702555e-06
3.485163462e-06
3.524859082e-06
3.584651728e-06
3.663763743e-06
3.728030153e-06
3.743200571e-06
3.776425094e-06
3.826529791e-06
3.8929389e-06
3.890362481e-06
3.903068649e-06
3.930924485e-06
3.973003461e-06
4.028906331e-06
3.964041599e-06
3.974795833e-06
3.998382867e-06
4.034090046e-06
4.081586619e-06
3.963637102e-06
3.972951627e-06
3.993423556e-06
4.024482428e-06
4.065989645e-06
3.908361498e-06
3.916470962e-06
3.934301299e-06
3.961364316e-06
3.997545754e-06
3.815988086e-06
3.823240961e-06
3.839200919e-06
3.86345738e-06
3.895946804e-06
3.701046208e-06
3.707663579e-06
3.722232708e-06
3.744392837e-06
3.774104885e-06
3.575312086e-06
3.581440215e-06
3.594936115e-06
3.615472468e-06
3.643022084e-06
3.447909904e-06
3.453646998e-06
3.466283495e-06
3.485515532e-06
3.511320844e-06
3.325516396e-06
3.330929495e-06
3.342852684e-06
3.360999432e-06
3.385348684e-06
3.212770727e-06
3.217906791e-06
3.229219334e-06
3.24643534e-06
3.269533026e-06
3.112670848e-06
3.117563565e-06
3.128339117e-06
3.144735457e-06
3.166728919e-06
3.02690034e-06
3.031572487e-06
3.041860904e-06
3.057512696e-06
3.078501354e-06
2.956022631e-06
2.960486654e-06
2.970315013e-06
2.985262669e-06
3.005299265e-06
2.899588664e-06
2.903846665e-06
2.913219409e-06
2.927469078e-06
2.946560635e-06
2.85635393e-06
2.86039979e-06
2.86930331e-06
2.882833844e-06
2.90095111e-06
2.824367522e-06
2.828188657e-06
2.836595277e-06
2.84936449e-06
2.86645067e-06
2.80147238e-06
2.805053946e-06
2.812931099e-06
2.824889622e-06
2.84087876e-06
2.78513698e-06
2.788462685e-06
2.795774697e-06
2.806868712e-06
2.821689484e-06
2.773014356e-06
2.776070584e-06
2.782787674e-06
2.792972283e-06
2.806565176e-06
2.762511437e-06
2.765286578e-06
2.771383549e-06
2.780621433e-06
2.792938382e-06
2.748251492e-06
2.750770047e-06
2.756301219e-06
2.764676074e-06
2.775831345e-06
2.631765638e-05
3.086493327e-05
2.750929417e-05
2.372187547e-05
2.044180393e-05
1.843096477e-05
1.779533265e-05
1.731562389e-05
1.64869321e-05
1.581221737e-05
1.554777665e-05
1.541925619e-05
1.511298644e-05
1.474677637e-05
1.449395574e-05
1.438667994e-05
1.428643481e-05
1.400147506e-05
1.353351924e-05
1.298261067e-05
1.245130575e-05
1.201259522e-05
1.172443626e-05
1.157963133e-05
1.157896063e-05
1.172876777e-05
1.19799881e-05
1.235729098e-05
1.262452425e-05
1.315984037e-05
1.356509271e-05
1.355373358e-05
1.280543838e-05
1.10147953e-05
8.285728188e-06
5.458314266e-06
3.282358003e-06
1.893945547e-06
1.124600885e-06
7.86574058e-07
7.827612711e-07
1.05615685e-06
1.496394393e-06
2.010583989e-06
2.53007548e-06
3.008356936e-06
3.413432943e-06
3.728111773e-06
3.947075856e-06
4.074616035e-06
4.120768615e-06
4.099873124e-06
4.027359198e-06
3.922782752e-06
3.798676786e-06
3.665819945e-06
3.532680296e-06
3.405502774e-06
3.288648207e-06
3.184925461e-06
3.095860104e-06
3.021862293e-06
2.962332409e-06
2.915906472e-06
2.880542402e-06
2.854052545e-06
2.83388726e-06
2.817738451e-06
2.803049563e-06
2.784977116e-06
1.240463684e-05
3.814676667e-06
2.978771075e-06
1.824289338e-06
2.167624634e-06
1.955872158e-05
1.966693838e-05
6.390187739e-06
6.310401169e-06
8.054280842e-06
2.130230369e-05
1.734506254e-05
4.408608975e-06
1.093860422e-05
2.066115026e-05
2.018166405e-05
1.496146219e-05
6.931296604e-06
1.164936778e-05
2.487058961e-05
1.809937222e-05
1.484551408e-05
1.653394596e-05
1.044136776e-05
2.218217759e-05
1.742962533e-05
1.591314406e-05
2.032689394e-05
8.404483752e-06
1.795052477e-05
1.815275552e-05
1.693835128e-05
1.956891996e-05
6.398221877e-06
1.39692907e-05
1.809515648e-05
1.658208831e-05
1.690180604e-05
6.454799464e-06
1.118500695e-05
1.713026563e-05
1.581673195e-05
1.641930872e-05
1.288957042e-05
9.830964833e-06
1.641043956e-05
1.558767952e-05
1.674749516e-05
1.627341239e-05
8.57385016e-06
1.621871476e-05
1.573822491e-05
1.686164694e-05
1.688591978e-05
7.327946631e-06
1.605480015e-05
1.564505477e-05
1.634582229e-05
1.617213806e-05
6.850680352e-06
1.557683527e-05
1.518679652e-05
1.579971688e-05
1.615650776e-05
1.051602021e-05
1.507190543e-05
1.480496367e-05
1.555581839e-05
1.650217183e-05
1.325694128e-05
1.475137814e-05
1.465757696e-05
1.549304861e-05
1.665094629e-05
1.427730346e-05
1.45792453e-05
1.46296262e-05
1.542476276e-05
1.646763684e-05
1.434590269e-05
1.43766327e-05
1.449809318e-05
1.519433212e-05
1.598215512e-05
1.402546373e-05
1.39706662e-05
1.415914385e-05
1.482167875e-05
1.545971298e-05
1.388769369e-05
1.344877583e-05
1.375352281e-05
1.448042999e-05
1.512888821e-05
1.398254913e-05
1.295157049e-05
1.342881855e-05
1.426282508e-05
1.496405491e-05
1.407834446e-05
1.256775948e-05
1.323388007e-05
1.416062913e-05
1.487221654e-05
1.4070446e-05
1.229357791e-05
1.313560478e-05
1.411611287e-05
1.477403401e-05
1.393798956e-05
1.215420822e-05
1.310133382e-05
1.407950789e-05
1.462323632e-05
1.368817883e-05
1.211638433e-05
1.31033986e-05
1.402485997e-05
1.440621848e-05
1.334341316e-05
1.216875812e-05
1.313926729e-05
1.395689528e-05
1.41427865e-05
1.293229705e-05
1.232181424e-05
1.322463594e-05
1.389159263e-05
1.38402331e-05
1.243789664e-05
1.254961763e-05
1.336464114e-05
1.381502095e-05
1.346705711e-05
1.181428577e-05
1.285935091e-05
1.349930865e-05
1.366874213e-05
1.296014263e-05
1.101614054e-05
1.313592669e-05
1.35589679e-05
1.337229561e-05
1.224630144e-05
1.002030377e-05
1.339773285e-05
1.34796318e-05
1.283757018e-05
1.126584279e-05
8.845343136e-06
1.356908881e-05
1.311579103e-05
1.194833903e-05
9.986822737e-06
7.54574543e-06
1.324722693e-05
1.224955029e-05
1.060495585e-05
8.441510915e-06
6.201435353e-06
1.217714284e-05
1.071142411e-05
8.807776963e-06
6.742181087e-06
4.899783163e-06
1.016455767e-05
8.527098564e-06
6.740702447e-06
5.062010855e-06
3.729662696e-06
7.473082023e-06
6.091036912e-06
4.742762913e-06
3.593205328e-06
2.778742866e-06
4.883833658e-06
3.966871121e-06
3.13116461e-06
2.481200572e-06
2.113257025e-06
2.952793474e-06
2.450343616e-06
2.029476082e-06
1.766675249e-06
1.74956846e-06
1.738612417e-06
1.525853736e-06
1.396456206e-06
1.418601288e-06
1.671334001e-06
1.081161574e-06
1.062692304e-06
1.143876315e-06
1.38489262e-06
1.815538313e-06
8.224948747e-07
9.543586958e-07
1.201941546e-06
1.587392917e-06
2.113895785e-06
8.869330009e-07
1.134833544e-06
1.484544173e-06
1.942676368e-06
2.505276262e-06
1.201202842e-06
1.50794313e-06
1.901399377e-06
2.380558807e-06
2.937972521e-06
1.657193069e-06
1.981364093e-06
2.378929163e-06
2.844891784e-06
3.370721876e-06
2.170572772e-06
2.485216974e-06
2.861758159e-06
3.293714942e-06
3.772977057e-06
2.679287109e-06
2.968516353e-06
3.309936815e-06
3.697181263e-06
4.123359878e-06
3.141015632e-06
3.396706886e-06
3.69686154e-06
4.035910426e-06
4.40846685e-06
3.527837473e-06
3.748184903e-06
4.006752856e-06
4.299205327e-06
4.621508951e-06
3.825040359e-06
4.012196717e-06
4.232568776e-06
4.483031789e-06
4.760811463e-06
4.028684571e-06
4.187018201e-06
4.374541142e-06
4.589176027e-06
4.829136302e-06
4.143594446e-06
4.278226418e-06
4.438797545e-06
4.624095856e-06
4.833159387e-06
4.179902914e-06
4.295791234e-06
4.434999504e-06
4.596802099e-06
4.780736807e-06
4.1510255e-06
4.251554155e-06
4.372468332e-06
4.514490058e-06
4.677226039e-06
4.072476769e-06
4.161857784e-06
4.270289834e-06
4.397807964e-06
4.544453677e-06
3.963427814e-06
4.044250048e-06
4.142653804e-06
4.258750893e-06
4.392691248e-06
3.835908539e-06
3.91009435e-06
4.000606437e-06
4.107616526e-06
4.231321681e-06
3.70037072e-06
3.769285283e-06
3.853451931e-06
3.953060493e-06
4.068315444e-06
3.565053056e-06
3.629646309e-06
3.708558205e-06
3.801971011e-06
3.910074927e-06
3.436047713e-06
3.496990606e-06
3.571431308e-06
3.659531434e-06
3.761455305e-06
3.317616148e-06
3.375395287e-06
3.445941067e-06
3.529386932e-06
3.625862946e-06
3.212497769e-06
3.267466483e-06
3.334536518e-06
3.413806243e-06
3.505362436e-06
3.122158572e-06
3.174551311e-06
3.238418881e-06
3.313815363e-06
3.400772227e-06
3.046949702e-06
3.096882514e-06
3.157674967e-06
3.229328219e-06
3.311808075e-06
2.9862149e-06
3.033691411e-06
3.091401025e-06
3.159284904e-06
3.237235409e-06
2.938545218e-06
2.983482737e-06
3.038000435e-06
3.101975651e-06
3.175224077e-06
2.901866084e-06
2.944119868e-06
2.995267607e-06
3.055123155e-06
3.123427524e-06
2.873978624e-06
2.913386745e-06
2.960969923e-06
3.016481642e-06
3.079593516e-06
2.852329187e-06
2.888722038e-06
2.932542947e-06
2.983491705e-06
3.041179787e-06
2.834622092e-06
2.867860109e-06
2.907756635e-06
2.953964271e-06
3.006043671e-06
2.818321262e-06
2.848303797e-06
2.884172825e-06
2.925546122e-06
2.971949119e-06
2.798783717e-06
2.825819306e-06
2.858057003e-06
2.895092367e-06
2.936430205e-06
5.734797241e-07
3.476725915e-08
4.465347294e-09
8.952295384e-10
2.434288598e-10
8.134282642e-11
3.48515496e-11
1.977172865e-11
1.327381065e-11
9.456412536e-12
6.802689892e-12
4.867854443e-12
3.453335408e-12
2.429202717e-12
1.696978178e-12
1.179639928e-12
8.181207425e-13
5.676805206e-13
3.953298399e-13
2.771835681e-13
1.963173534e-13
1.409084637e-13
1.027924868e-13
7.637510434e-14
5.784703216e-14
4.462021994e-14
3.494473383e-14
2.765460733e-14
2.199234794e-14
1.748203479e-14
1.383384758e-14
1.087118159e-14
8.478241377e-15
6.566671953e-15
5.057881775e-15
3.877387777e-15
2.956591448e-15
2.23702025e-15
1.673111865e-15
1.231855134e-15
8.898325697e-16
6.294736391e-16
4.361048982e-16
2.964515844e-16
1.983639454e-16
1.311605848e-16
8.602662045e-17
5.614522987e-17
3.654329736e-17
2.375422579e-17
1.543677184e-17
1.003841258e-17
6.535623497e-18
4.253087934e-18
2.745206479e-18
1.720682954e-18
9.945803987e-19
4.732238247e-19
1.314445295e-19
1.259822545e-20
1.539284407e-06
8.787998971e-08
1.099426955e-08
2.462023581e-09
9.401286474e-10
5.220409138e-10
3.463718917e-10
2.452745443e-10
1.725032854e-10
1.194177117e-10
8.077570354e-11
5.373958322e-11
3.529636794e-11
2.301950924e-11
1.497673134e-11
9.761470682e-12
6.397408966e-12
4.228880903e-12
2.827938256e-12
1.918142281e-12
1.323130823e-12
9.306167253e-13
6.689694174e-13
4.921879358e-13
3.706560197e-13
2.851663186e-13
2.232336199e-13
1.768038242e-13
1.407933483e-13
1.120853258e-13
8.882830457e-14
6.991627971e-14
5.462663798e-14
4.240483316e-14
3.275251201e-14
2.519251459e-14
1.928306049e-14
1.464836294e-14
1.099848005e-14
8.126792929e-15
5.889189755e-15
4.178110635e-15
2.902584418e-15
1.978570521e-15
1.327817205e-15
8.807863411e-16
5.796925347e-16
3.797072071e-16
2.480441296e-16
1.61802274e-16
1.054899669e-16
6.880261949e-17
4.491276841e-17
2.929119263e-17
1.893599693e-17
1.188285871e-17
6.893125184e-18
3.334806111e-18
1.025902396e-18
1.331371454e-19
4.388471562e-06
2.087875012e-07
2.023710728e-08
6.060284373e-09
3.557563232e-09
2.610848611e-09
1.961683719e-09
1.462122948e-09
1.052783253e-09
7.387046659e-10
5.019129009e-10
3.329210642e-10
2.157261279e-10
1.374327789e-10
8.646786411e-11
5.408061844e-11
3.384358343e-11
2.132944361e-11
1.36221903e-11
8.860942926e-12
5.895206883e-12
4.02429849e-12
2.825734611e-12
2.043181456e-12
1.520218369e-12
1.160441851e-12
9.040361115e-13
7.139761102e-13
5.677131606e-13
4.517814046e-13
3.582768096e-13
2.825016047e-13
2.213909106e-13
1.72602012e-13
1.340594562e-13
1.038039103e-13
8.004182472e-14
6.126754995e-14
4.634321308e-14
3.448012805e-14
2.514422485e-14
1.794103216e-14
1.252995991e-14
8.584360959e-15
5.789843597e-15
3.860281548e-15
2.554161305e-15
1.682131879e-15
1.104839821e-15
7.245136158e-16
4.747200576e-16
3.110282781e-16
2.038282609e-16
1.333414886e-16
8.636801415e-17
5.424154686e-17
3.153850299e-17
1.537713813e-17
4.938595226e-18
7.205421767e-19
1.572172163e-05
1.488884239e-06
1.0941207e-07
2.194066934e-08
1.278183147e-08
9.681117483e-09
7.466874556e-09
5.651441033e-09
4.159305803e-09
2.982251132e-09
2.078919465e-09
1.413226292e-09
9.367683515e-10
6.076381034e-10
3.864189963e-10
2.420879182e-10
1.500851612e-10
9.271505294e-11
5.747916701e-11
3.605965277e-11
2.307139797e-11
1.51586314e-11
1.02804728e-11
7.217385964e-12
5.244504164e-12
3.930623941e-12
3.019632822e-12
2.359608661e-12
1.861276885e-12
1.472752823e-12
1.16393465e-12
9.168071649e-13
7.195846258e-13
5.633693282e-13
4.405410051e-13
3.441677716e-13
2.681275593e-13
2.074648131e-13
1.585990035e-13
1.191858205e-13
8.772646863e-14
6.313791523e-14
4.445536169e-14
3.069484245e-14
2.086068407e-14
1.401347585e-14
9.341047814e-15
6.19639548e-15
4.097924789e-15
2.70477405e-15
1.783129847e-15
1.17493292e-15
7.738218522e-16
5.082126769e-16
3.299807144e-16
2.074270293e-16
1.208411366e-16
5.92964967e-17
1.961596663e-17
3.153835134e-18
3.047044249e-05
4.959891129e-06
4.339832919e-07
6.984060741e-08
3.609404892e-08
2.674868909e-08
2.064408674e-08
1.579767194e-08
1.189868221e-08
8.798897369e-09
6.373142538e-09
4.519273269e-09
3.133550363e-09
2.126159373e-09
1.411282823e-09
9.183836562e-10
5.867053084e-10
3.695197952e-10
2.304055222e-10
1.432888563e-10
8.957554046e-11
5.686293514e-11
3.699625306e-11
2.486936367e-11
1.734235674e-11
1.253739627e-11
9.347296383e-12
7.130382283e-12
5.519085565e-12
4.304161862e-12
3.365666703e-12
2.632365424e-12
2.058646021e-12
1.61167578e-12
1.264888134e-12
9.952539452e-13
7.830848041e-13
6.1297392e-13
4.743246533e-13
3.607184225e-13
2.685029519e-13
1.952808414e-13
1.388552713e-13
9.678512651e-14
6.639527534e-14
4.502294943e-14
3.029091502e-14
2.027156598e-14
1.351523402e-14
8.984838095e-15
5.960555026e-15
3.948954776e-15
2.612857849e-15
1.722188753e-15
1.120798362e-15
7.053764805e-16
4.117546816e-16
2.035027649e-16
6.91481765e-17
1.239201785e-17
3.149353607e-05
1.389862406e-05
1.914521841e-06
2.45766938e-07
9.157846553e-08
6.044093132e-08
4.517802278e-08
3.459304859e-08
2.654760659e-08
2.02435708e-08
1.526123641e-08
1.133870369e-08
8.283656312e-09
5.943297492e-09
4.181876532e-09
2.884767814e-09
1.95018365e-09
1.293249643e-09
8.420685348e-10
5.403043838e-10
3.431033436e-10
2.173186895e-10
1.38465248e-10
8.971716108e-11
5.967128028e-11
4.102218253e-11
2.917500905e-11
2.137443558e-11
1.600875608e-11
1.216287345e-11
9.318373122e-12
7.174768946e-12
5.546968485e-12
4.310440645e-12
3.372565722e-12
2.657917923e-12
2.103924078e-12
1.662580371e-12
1.301720116e-12
1.002614614e-12
7.557134326e-13
5.560244266e-13
3.994570736e-13
2.810065546e-13
1.944775865e-13
1.330819675e-13
9.040042878e-14
6.109422857e-14
4.111717936e-14
2.756769862e-14
1.842092e-14
1.227514595e-14
8.158104775e-15
5.394549884e-15
3.519288326e-15
2.220510976e-15
1.302119687e-15
6.514162617e-16
2.286705069e-16
4.618967757e-17
2.699815894e-05
2.818378879e-05
6.303512152e-06
8.579258314e-07
1.997180755e-07
1.104913224e-07
7.918731565e-08
6.053073799e-08
4.712142635e-08
3.680237817e-08
2.863757586e-08
2.211567379e-08
1.690559597e-08
1.27675483e-08
9.511945427e-09
6.98078249e-09
5.039055209e-09
3.573244625e-09
2.486345188e-09
1.697920602e-09
1.138921437e-09
7.525677023e-10
4.918523642e-10
3.201547976e-10
2.093072433e-10
1.388686354e-10
9.42669927e-11
6.577765691e-11
4.713771227e-11
3.452750079e-11
2.568660895e-11
1.931026628e-11
1.46326711e-11
1.117753166e-11
8.623272743e-12
6.731906948e-12
5.310318444e-12
4.206884689e-12
3.31891998e-12
2.585174257e-12
1.974005604e-12
1.471584116e-12
1.06977117e-12
7.597836548e-13
5.298333384e-13
3.650601185e-13
2.497757209e-13
1.701637433e-13
1.155165744e-13
7.812840759e-14
5.26327399e-14
3.531890435e-14
2.36029194e-14
1.567206971e-14
1.02609671e-14
6.506626255e-15
3.85088052e-15
1.965614049e-15
7.221817045e-16
1.657684136e-16
2.255466008e-05
3.248883677e-05
1.613749703e-05
3.058483725e-06
5.360236866e-07
1.993952245e-07
1.240176575e-07
9.156268218e-08
7.113583114e-08
5.619833007e-08
4.457488488e-08
3.528289264e-08
2.77779295e-08
2.170737381e-08
1.681416051e-08
1.289509236e-08
9.781582531e-09
7.332073111e-09
5.42449221e-09
3.955565941e-09
2.839157131e-09
2.003914644e-09
1.390441392e-09
9.499077078e-10
6.413067347e-10
4.304832301e-10
2.894689611e-10
1.965936874e-10
1.357607396e-10
9.569075501e-11
6.880136976e-11
5.029681602e-11
3.724402634e-11
2.787166695e-11
2.107449635e-11
1.613205874e-11
1.252350979e-11
9.827487341e-12
7.735754734e-12
6.05508407e-12
4.673903916e-12
3.533532316e-12
2.606161247e-12
1.874262993e-12
1.31916338e-12
9.148543739e-13
6.291782382e-13
4.307845381e-13
2.940965864e-13
2.002116663e-13
1.358421685e-13
9.181312445e-14
6.176479244e-14
4.124898889e-14
2.715384e-14
1.733705128e-14
1.037943002e-14
5.41622339e-15
2.085342837e-15
5.386909093e-16
1.883467449e-05
3.08074724e-05
2.765139762e-05
8.655119478e-06
1.603795088e-06
3.988998726e-07
1.913452031e-07
1.29031093e-07
9.79421004e-08
7.739418858e-08
6.204994993e-08
4.994740643e-08
4.015928804e-08
3.216046523e-08
2.560770082e-08
2.02501038e-08
1.588934745e-08
1.236153161e-08
9.527846758e-09
7.269386319e-09
5.48467231e-09
4.087973777e-09
3.007453476e-09
2.18172173e-09
1.559820879e-09
1.099838075e-09
7.662251951e-10
5.296113049e-10
3.65447874e-10
2.53543484e-10
1.778950819e-10
1.266683349e-10
9.159573577e-11
6.718900077e-11
4.989887489e-11
3.746902478e-11
2.846814659e-11
2.190096772e-11
1.699271588e-11
1.32045685e-11
1.020514126e-11
7.793729484e-12
5.842284022e-12
4.275690787e-12
3.051419675e-12
2.136192135e-12
1.478242941e-12
1.016212473e-12
6.959089576e-13
4.753483026e-13
3.239751296e-13
2.202381058e-13
1.491527875e-13
1.003223105e-13
6.655251113e-14
4.289542527e-14
2.604618039e-14
1.393121523e-14
5.635201531e-15
1.621456076e-15
1.536574178e-05
2.683628971e-05
3.234200029e-05
1.69898581e-05
4.412016296e-06
8.850885163e-07
3.050038558e-07
1.771307202e-07
1.281648924e-07
1.002248695e-07
8.069712352e-08
6.571403229e-08
5.368836368e-08
4.382268634e-08
3.565063855e-08
2.886278994e-08
2.323159132e-08
1.857662025e-08
1.474765891e-08
1.161652089e-08
9.070966553e-09
7.018411902e-09
5.375303722e-09
4.07126357e-09
3.046685095e-09
2.251371941e-09
1.642953534e-09
1.184826181e-09
8.456821592e-10
5.991733533e-10
4.231757072e-10
2.995333088e-10
2.136652543e-10
1.542375406e-10
1.12858243e-10
8.363644387e-11
6.262970343e-11
4.733219809e-11
3.605906222e-11
2.760749074e-11
2.112854173e-11
1.608790715e-11
1.21421633e-11
9.037352468e-12
6.586197602e-12
4.687410523e-12
3.276693668e-12
2.265725531e-12
1.556579874e-12
1.065121155e-12
7.27169653e-13
4.957823543e-13
3.373988246e-13
2.284951578e-13
1.529247414e-13
9.972700362e-14
6.157811815e-14
3.385790519e-14
1.44333757e-14
4.57040105e-15
1.239206323e-05
2.255516049e-05
3.134111038e-05
2.576632488e-05
9.678388588e-06
2.273550705e-06
5.689682256e-07
2.531088151e-07
1.655764061e-07
1.25635731e-07
1.006644315e-07
8.246776266e-08
6.817250359e-08
5.64969508e-08
4.677085176e-08
3.859655377e-08
3.170925324e-08
2.590949732e-08
2.105016056e-08
1.699471737e-08
1.362424838e-08
1.083719151e-08
8.545850213e-09
6.674728298e-09
5.158896854e-09
3.942541665e-09
2.977596706e-09
2.222278666e-09
1.639723332e-09
1.19759889e-09
8.677644283e-10
6.257030057e-10
4.506450154e-10
3.256362709e-10
2.371562939e-10
1.746267975e-10
1.300354032e-10
9.767731734e-11
7.377898865e-11
5.589550094e-11
4.238217498e-11
3.205015726e-11
2.409850789e-11
1.798452332e-11
1.32875053e-11
9.662973201e-12
6.887154501e-12
4.818715275e-12
3.328591871e-12
2.282413226e-12
1.55944645e-12
1.064120319e-12
7.257734005e-13
4.93831792e-13
3.331648353e-13
2.199491797e-13
1.383783289e-13
7.84190459e-14
3.533084006e-14
1.216766967e-14
1.023503269e-05
1.909735333e-05
2.884017921e-05
3.072695994e-05
1.694925191e-05
5.584733379e-06
1.341585122e-06
4.185811208e-07
2.202015069e-07
1.547485821e-07
1.213571988e-07
9.927313744e-08
8.267078623e-08
6.932622112e-08
5.820513476e-08
4.880503252e-08
4.080555782e-08
3.397446683e-08
2.814565851e-08
2.318680635e-08
1.898097893e-08
1.542818367e-08
1.244212053e-08
9.947233111e-09
7.877058058e-09
6.173201541e-09
4.784342574e-09
3.665101122e-09
2.774962497e-09
2.077481681e-09
1.539793525e-09
1.13233092e-09
8.286840684e-10
6.058762744e-10
4.444720872e-10
3.285059337e-10
2.452104034e-10
1.848146906e-10
1.402720372e-10
1.067534685e-10
8.115696302e-11
6.146701865e-11
4.62686795e-11
3.455601913e-11
2.559399474e-11
1.878805852e-11
1.362984182e-11
9.732270138e-12
6.82480165e-12
4.71326129e-12
3.225469864e-12
2.200464002e-12
1.501204528e-12
1.02377019e-12
6.94631162e-13
4.636652441e-13
2.973913638e-13
1.741128208e-13
8.313658584e-14
3.083379427e-14
9.153163549e-06
1.630532848e-05
2.554272338e-05
3.093299606e-05
2.324430404e-05
1.050154059e-05
3.331286094e-06
8.75746578e-07
3.262795091e-07
1.909946786e-07
1.406897298e-07
1.131551148e-07
9.415865996e-08
7.959065005e-08
6.74684525e-08
5.743730803e-08
4.880167856e-08
4.131545041e-08
3.481453701e-08
2.917838176e-08
2.430737668e-08
2.011530483e-08
1.65249539e-08
1.34665259e-08
1.08771513e-08
8.700483837e-09
6.886198301e-09
5.38912984e-09
4.168431667e-09
3.186780507e-09
2.409637606e-09
1.804745383e-09
1.342079216e-09
9.942510992e-10
7.368745901e-10
5.487738236e-10
4.122055152e-10
3.128601485e-10
2.397379872e-10
1.848967954e-10
1.428142111e-10
1.099108831e-10
8.393457856e-11
6.340189928e-11
4.735049661e-11
3.498123467e-11
2.556833975e-11
1.849075334e-11
1.320430927e-11
9.281349658e-12
6.423031206e-12
4.39748848e-12
2.99873021e-12
2.044667069e-12
1.391529037e-12
9.370480862e-13
6.123096564e-13
3.712821243e-13
1.884920397e-13
7.479573092e-14
8.334594378e-06
1.390617029e-05
2.229394415e-05
2.969821861e-05
2.848593047e-05
1.614379395e-05
6.693417794e-06
2.150405145e-06
6.255579825e-07
2.576530048e-07
1.585046784e-07
1.19581336e-07
9.78897382e-08
8.286576936e-08
7.072587244e-08
6.089208427e-08
5.238099296e-08
4.494129671e-08
3.840636762e-08
3.266311959e-08
2.762668654e-08
2.322673889e-08
1.940082998e-08
1.609084289e-08
1.324211914e-08
1.080354587e-08
8.728674992e-09
6.97672436e-09
5.512262037e-09
4.30355733e-09
3.320537278e-09
2.534407771e-09
1.917439616e-09
1.442407748e-09
1.083192097e-09
8.156982687e-10
6.186048896e-10
4.739387799e-10
3.672139768e-10
2.873049292e-10
2.261027581e-10
1.779637506e-10
1.392644112e-10
1.077849172e-10
8.222628119e-11
6.177005485e-11
4.57107906e-11
3.336086771e-11
2.405646926e-11
1.714406468e-11
1.206163615e-11
8.372318166e-12
5.751414005e-12
3.931120596e-12
2.680936556e-12
1.817315135e-12
1.207129398e-12
7.579065921e-13
4.100779361e-13
1.740739073e-13
7.511574634e-06
1.182772971e-05
1.923632004e-05
2.703809675e-05
2.968679479e-05
2.1501641e-05
1.091251161e-05
4.49936174e-06
1.524384733e-06
4.729695192e-07
1.985244726e-07
1.216739246e-07
9.190034581e-08
7.590155809e-08
6.469582719e-08
5.585764374e-08
4.843013906e-08
4.199485436e-08
3.633656765e-08
3.13305842e-08
2.689546423e-08
2.297116923e-08
1.95087101e-08
1.646527921e-08
1.380158574e-08
1.14813547e-08
9.470938207e-09
7.739034682e-09
6.257199346e-09
5.001452965e-09
3.951589337e-09
3.087181749e-09
2.387362279e-09
1.832225493e-09