/*--------------------------------*- C++ -*----------------------------------*\
  =========                 |
  \\      /  F ield         | OpenFOAM: The Open Source CFD Toolbox
   \\    /   O peration     | Website:  https://openfoam.org
    \\  /    A nd           | Version:  10
     \\/     M anipulation  |
\*---------------------------------------------------------------------------*/
FoamFile
{
    format      ascii;
    class       volScalarField;
    location    "3000";
    object      HOCN;
}
// * * * * * * * * * * * * * * * * * * * * * * * * * * * * * * * * * * * * * //

dimensions      [0 0 0 0 0 0 0];

internalField   nonuniform List<scalar> 
5170
(
1.034365535e-65
8.341653778e-66
5.16913294e-66
2.551723131e-66
2.03287419e-66
3.536449205e-63
2.82068411e-63
1.71809021e-63
9.932123856e-64
1.764281553e-63
1.223375635e-60
9.681651033e-61
5.868307171e-61
4.617566323e-61
1.400052334e-60
4.316931765e-58
3.411852095e-58
2.133081288e-58
2.393726805e-58
1.018517684e-57
1.551699682e-55
1.236856528e-55
8.288490328e-56
1.314084888e-55
6.902354813e-55
5.699513366e-53
4.640576227e-53
3.412922848e-53
7.419073015e-53
4.40902279e-52
2.134958725e-50
1.79135306e-50
1.506113519e-50
4.252414772e-50
2.711485157e-49
8.137343012e-48
7.115742054e-48
7.13759788e-48
2.461196999e-47
1.624051089e-46
3.162601972e-45
2.940119667e-45
3.544382488e-45
1.43364152e-44
9.522116357e-44
1.255108779e-42
1.262111225e-42
1.822170731e-42
8.414770324e-42
5.486392121e-41
5.075833991e-40
5.608708125e-40
9.63767436e-40
4.967493687e-39
3.117402191e-38
2.084008493e-37
2.573509043e-37
5.251477669e-37
2.947856872e-36
1.753545168e-35
8.662749268e-35
1.213209431e-34
2.962647657e-34
1.77382497e-33
9.80665735e-33
3.623495992e-32
5.837635313e-32
1.719218041e-31
1.087325457e-30
5.481905531e-30
1.52180534e-29
2.850785392e-29
1.015663361e-28
6.789402707e-28
3.079176704e-27
6.331913988e-27
1.395003016e-26
6.007822281e-26
4.193969777e-25
1.744997221e-24
2.603050599e-24
6.84023161e-24
3.475568101e-23
2.538912863e-22
1.00029252e-21
1.035424042e-21
3.300808432e-21
1.964861193e-20
1.474048921e-19
5.773740928e-19
3.816743923e-19
1.53185479e-18
1.050803609e-17
7.989502511e-17
3.340802315e-16
1.212308929e-16
6.899154409e-16
5.466589811e-15
3.939909337e-14
1.940428251e-13
2.785377548e-15
2.431062694e-15
2.268129047e-15
2.536355321e-15
2.797137109e-15
3.82136771e-15
3.563091741e-15
3.459466818e-15
3.597566296e-15
3.851410216e-15
4.197798161e-15
3.938747836e-15
3.832835831e-15
3.994392026e-15
4.192153225e-15
4.2798714e-15
4.119444335e-15
4.048115793e-15
4.176272768e-15
4.235297926e-15
4.219759049e-15
4.171219401e-15
4.134367852e-15
4.212472525e-15
4.142832452e-15
4.091934522e-15
4.137364096e-15
4.13056696e-15
4.147852854e-15
3.978426206e-15
3.936111012e-15
4.049852439e-15
4.063381479e-15
4.015515582e-15
3.780894568e-15
3.769265622e-15
3.927236193e-15
3.951035168e-15
3.846386e-15
3.575435635e-15
3.600889583e-15
3.782591122e-15
3.808094744e-15
3.66391346e-15
3.378944146e-15
3.436631616e-15
3.62674596e-15
3.648358313e-15
3.480609435e-15
3.198516722e-15
3.279909248e-15
3.467975486e-15
3.483096014e-15
3.303962998e-15
3.035799523e-15
3.132302966e-15
3.311999474e-15
3.319981716e-15
3.138428167e-15
2.889674085e-15
2.994189465e-15
3.162307521e-15
3.163443346e-15
2.985788412e-15
2.758080807e-15
2.865108869e-15
3.020467336e-15
3.01568399e-15
2.845936653e-15
2.638478759e-15
2.744497356e-15
2.88719156e-15
2.877506353e-15
2.717680307e-15
2.528346543e-15
2.660877665e-15
2.770449632e-15
2.75104471e-15
2.60002705e-15
2.425285701e-15
6.289510785e-15
3.688028246e-15
2.895649162e-15
2.574148637e-15
2.359630368e-15
4.025653021e-13
1.124150407e-13
3.099324492e-14
1.070019558e-14
5.132564283e-15
2.439805472e-11
7.84690319e-12
2.416071992e-12
6.455837602e-13
2.036107113e-13
7.45075057e-10
3.671047563e-10
1.251586538e-10
3.247035154e-11
9.381043223e-12
4.646321505e-15
3.656318663e-14
5.681082759e-13
8.54229611e-12
1.130055997e-10
2.45649412e-14
1.676707062e-13
2.063956468e-12
2.193446327e-11
1.649363265e-10
8.036287968e-14
4.866308872e-13
4.96830242e-12
4.106637904e-11
2.204471268e-10
2.496819641e-13
1.459872446e-12
1.397735781e-11
1.080688651e-10
5.731195891e-10
7.419546143e-13
4.199627935e-12
3.64555095e-11
2.41150458e-10
1.04855638e-09
2.041442392e-12
1.075084272e-11
8.015475137e-11
4.274302518e-10
1.451687227e-09
5.303320444e-12
2.55547648e-11
1.575165171e-10
6.489341982e-10
1.730737752e-09
1.284645318e-11
5.613646652e-11
2.77541948e-10
9.008253324e-10
2.04340661e-09
2.884403737e-11
1.118637808e-10
4.403435187e-10
1.173306641e-09
2.376327302e-09
5.996401444e-11
2.014706647e-10
6.38995682e-10
1.448775283e-09
2.656746335e-09
1.184236433e-10
3.297272416e-10
8.567201622e-10
1.706045136e-09
2.863647537e-09
2.12964275e-10
4.907978404e-10
1.084791796e-09
1.958364988e-09
3.08594904e-09
3.531068565e-10
6.859502763e-10
1.329359884e-09
2.224140563e-09
3.348781714e-09
5.526964145e-10
9.218497879e-10
1.596537348e-09
2.500538272e-09
3.607713914e-09
8.289010107e-10
1.206764555e-09
1.885789472e-09
2.769896269e-09
3.816252262e-09
1.189711466e-09
1.547663981e-09
2.197042981e-09
3.0282088e-09
3.983210003e-09
1.632343202e-09
1.951180732e-09
2.545951813e-09
3.311244201e-09
4.190691521e-09
2.142713621e-09
2.420065144e-09
2.958033596e-09
3.671363348e-09
4.517593346e-09
2.71641909e-09
2.95989658e-09
3.450874084e-09
4.127553387e-09
4.960637626e-09
3.34361801e-09
3.561393772e-09
4.012627381e-09
4.651497986e-09
5.45254626e-09
4.0030539e-09
4.197203688e-09
4.605172832e-09
5.188810096e-09
5.920289265e-09
4.659173642e-09
4.828419794e-09
5.185699581e-09
5.697043482e-09
6.333552896e-09
5.284607629e-09
5.428399591e-09
5.732993199e-09
6.170184637e-09
6.715270532e-09
5.874187254e-09
5.996626908e-09
6.25811757e-09
6.638236284e-09
7.121560994e-09
6.448488294e-09
6.557488521e-09
6.793059242e-09
7.142626376e-09
7.601069865e-09
7.04069549e-09
7.143670049e-09
7.368777391e-09
7.710155529e-09
8.169973628e-09
7.676636143e-09
7.778359695e-09
8.002769898e-09
8.347714512e-09
8.820829484e-09
8.363965116e-09
8.466816214e-09
8.694969076e-09
9.049365165e-09
9.540940611e-09
9.084113639e-09
9.188179299e-09
9.419919518e-09
9.783967101e-09
1.029727639e-08
9.801223278e-09
9.908434246e-09
1.015020739e-08
1.053333176e-08
1.108119314e-08
1.049820609e-08
1.061563714e-08
1.08813358e-08
1.131009422e-08
1.193890639e-08
1.124402036e-08
1.138846481e-08
1.17199145e-08
1.225916465e-08
1.304933554e-08
1.232405079e-08
1.252390389e-08
1.297978421e-08
1.373959899e-08
1.482596323e-08
1.452687693e-08
1.481620605e-08
1.547907449e-08
1.652195843e-08
1.799768026e-08
1.873839991e-08
1.912394505e-08
1.998206338e-08
2.131616643e-08
2.316062816e-08
2.529902179e-08
2.575312611e-08
2.67562816e-08
2.829314264e-08
3.036935958e-08
3.395927312e-08
3.444450471e-08
3.550658655e-08
3.710544018e-08
3.920876993e-08
4.411983519e-08
4.457160327e-08
4.554561794e-08
4.696860478e-08
4.875078832e-08
5.441155394e-08
5.471129057e-08
5.532817013e-08
5.614304636e-08
5.697842375e-08
6.145907664e-08
6.138164638e-08
6.113489925e-08
6.054266302e-08
5.931687552e-08
5.647146797e-08
5.571669959e-08
5.40004645e-08
5.126504342e-08
4.745137003e-08
3.456717924e-08
3.379958528e-08
3.21630628e-08
2.981649168e-08
2.693582262e-08
1.659408624e-08
1.622840345e-08
1.545640553e-08
1.436567038e-08
1.304699077e-08
7.38942595e-09
7.246235334e-09
6.94305021e-09
6.512231346e-09
5.986664124e-09
3.247300015e-09
3.193621598e-09
3.079435995e-09
2.914866891e-09
2.711156765e-09
1.437020075e-09
1.416627227e-09
1.373036394e-09
1.310013487e-09
1.231268869e-09
6.466634314e-10
6.388827825e-10
6.222087715e-10
5.979934894e-10
5.675537171e-10
3.005308054e-10
2.976010241e-10
2.9131689e-10
2.821748837e-10
2.70657184e-10
1.484256125e-10
1.473713667e-10
1.451192593e-10
1.418898439e-10
1.379217879e-10
8.228505223e-11
8.203688306e-11
8.152028292e-11
8.080394233e-11
7.997772757e-11
5.469828445e-11
5.469248768e-11
5.478122458e-11
5.483822466e-11
5.485103974e-11
4.18020405e-11
4.203923168e-11
4.257220789e-11
4.340700421e-11
4.457494326e-11
3.907859898e-11
3.932756377e-11
3.987666346e-11
4.071466964e-11
4.18427711e-11
4.037682135e-11
4.064179549e-11
4.122730583e-11
4.212445717e-11
4.334036459e-11
4.412246337e-11
4.442483918e-11
4.50930666e-11
4.611725867e-11
4.750562965e-11
5.097227057e-11
5.132997186e-11
5.211902306e-11
5.332453082e-11
5.495116882e-11
6.194803491e-11
6.235874931e-11
6.326228207e-11
6.463602477e-11
6.6477044e-11
7.729639133e-11
7.773399722e-11
7.869404652e-11
8.014655912e-11
8.207973723e-11
9.614010606e-11
9.656454726e-11
9.749346413e-11
9.889281335e-11
1.00743961e-10
1.167502967e-10
1.171227755e-10
1.179362875e-10
1.191572959e-10
1.207642042e-10
1.371311706e-10
1.374256362e-10
1.380675419e-10
1.390277791e-10
1.402855808e-10
1.555746948e-10
1.557815114e-10
1.562313889e-10
1.569018904e-10
1.577756e-10
1.709610636e-10
1.710843842e-10
1.713517187e-10
1.717478344e-10
1.722597107e-10
1.828032966e-10
1.828557477e-10
1.829683451e-10
1.831323925e-10
1.833391911e-10
1.91121655e-10
1.911193025e-10
1.911123393e-10
1.910973334e-10
1.910692209e-10
1.96263237e-10
1.962219266e-10
1.961300325e-10
1.959879784e-10
1.95793442e-10
1.987525202e-10
1.986860015e-10
1.985391921e-10
1.983150898e-10
1.980132561e-10
1.991440014e-10
1.99063024e-10
1.988847564e-10
1.986137464e-10
1.982507392e-10
1.980506684e-10
1.9796321e-10
1.977708867e-10
1.974790246e-10
1.970890148e-10
1.962983951e-10
1.96209187e-10
1.960131082e-10
1.957157798e-10
1.953188889e-10
4.014874683e-10
3.885159174e-10
4.893765416e-10
1.573637608e-09
2.414447213e-09
2.756625371e-09
2.828839114e-09
3.162757097e-09
3.511067481e-09
3.703003024e-09
3.781371231e-09
3.966918115e-09
4.231627744e-09
4.457351457e-09
4.584927987e-09
4.660727156e-09
4.822920285e-09
5.156632101e-09
5.611795944e-09
6.080792965e-09
6.485314278e-09
6.817674562e-09
7.130991469e-09
7.501584021e-09
7.976574409e-09
8.558649638e-09
9.22873067e-09
9.970382009e-09
1.075408849e-08
1.157831867e-08
1.252168829e-08
1.378538913e-08
1.581664486e-08
1.930354581e-08
2.473893231e-08
3.209224527e-08
4.088817139e-08
5.006524613e-08
5.735889539e-08
5.782853831e-08
4.427949098e-08
2.482351289e-08
1.209113488e-08
5.600800166e-09
2.559245919e-09
1.17175544e-09
5.443700086e-10
2.618635976e-10
1.349569554e-10
7.942031574e-11
5.536045784e-11
4.543483524e-11
4.277876705e-11
4.43602032e-11
4.866983222e-11
5.630685076e-11
6.799800577e-11
8.366284651e-11
1.022482251e-10
1.220614159e-10
1.412948575e-10
1.584719291e-10
1.726631711e-10
1.83496687e-10
1.910378049e-10
1.956284522e-10
1.977623328e-10
1.979509968e-10
1.967679202e-10
1.949925632e-10
9.68978069e-10
3.175975881e-09
5.266571782e-10
3.335137695e-10
7.843158116e-11
7.674755152e-10
1.211861093e-09
7.221151011e-10
2.665916683e-10
1.014628367e-10
1.054189177e-09
3.311871281e-09
1.750039217e-08
1.751345244e-09
4.344131937e-10
3.994368722e-09
1.547682678e-08
5.687012258e-08
6.513873869e-09
2.980545221e-09
5.24486496e-09
1.301370672e-08
2.120435914e-08
3.450568083e-09
1.633446282e-09
5.140077736e-09
9.078347533e-09
9.789527194e-09
3.965115072e-09
9.66979332e-10
4.680758283e-09
7.110923889e-09
8.639041595e-09
1.754490415e-08
2.695197561e-09
5.124422865e-09
9.499418213e-09
1.9501377e-08
6.192142745e-08
9.748678436e-09
5.459376608e-09
9.48640662e-09
1.540222694e-08
2.723361344e-08
6.432646524e-09
5.414941913e-09
8.260102753e-09
1.084418553e-08
1.371810155e-08
6.455992062e-09
5.224736599e-09
7.289334559e-09
8.968602467e-09
1.159215016e-08
1.676094896e-08
5.365072776e-09
7.765182247e-09
1.129703475e-08
1.974434265e-08
5.011762174e-08
5.638550627e-09
8.175022624e-09
1.16567054e-08
1.764856326e-08
3.220637007e-08
5.789848963e-09
8.007645843e-09
1.045283377e-08
1.337782338e-08
1.850935408e-08
5.763323792e-09
7.515682315e-09
9.105385852e-09
1.064329537e-08
1.343715048e-08
5.685762687e-09
7.142329069e-09
8.51221789e-09
1.025829427e-08
1.448532799e-08
5.790522382e-09
7.339286088e-09
9.298112121e-09
1.271354677e-08
2.113488235e-08
6.153895844e-09
7.962157112e-09
1.049710426e-08
1.473267504e-08
2.349766272e-08
6.63280589e-09
8.532174222e-09
1.105916346e-08
1.473901539e-08
2.111018267e-08
7.056550344e-09
8.808563668e-09
1.093275021e-08
1.367340691e-08
1.795886003e-08
7.350035658e-09
8.826093379e-09
1.04824249e-08
1.249937299e-08
1.563956524e-08
7.550125958e-09
8.765487032e-09
1.01096262e-08
1.181988843e-08
1.469867125e-08
7.759632891e-09
8.835126307e-09
1.012038554e-08
1.196320269e-08
1.531567988e-08
8.082774593e-09
9.164820679e-09
1.061281298e-08
1.288764958e-08
1.711032307e-08
8.559521363e-09
9.737864188e-09
1.14298481e-08
1.416247922e-08
1.913111564e-08
9.167834634e-09
1.045979068e-08
1.23785205e-08
1.547260386e-08
2.093856795e-08
9.871410915e-09
1.127617138e-08
1.338997193e-08
1.680010501e-08
2.268122174e-08
1.064933841e-08
1.217108705e-08
1.449154357e-08
1.826851599e-08
2.462021821e-08
1.147866193e-08
1.314916832e-08
1.575626393e-08
2.002050163e-08
2.689405594e-08
1.2372069e-08
1.427912979e-08
1.730855621e-08
2.218202418e-08
2.950396847e-08
1.3458273e-08
1.573589763e-08
1.935270161e-08
2.488210055e-08
3.243920383e-08
1.496898866e-08
1.783080243e-08
2.218419948e-08
2.831375296e-08
3.58511821e-08
1.73942677e-08
2.103210034e-08
2.61707004e-08
3.27876138e-08
4.007647478e-08
2.135348335e-08
2.578545306e-08
3.158821087e-08
3.844656752e-08
4.503397204e-08
2.718062339e-08
3.215065823e-08
3.817773369e-08
4.451710421e-08
4.903478714e-08
3.471982401e-08
3.973990387e-08
4.521274896e-08
4.97521195e-08
5.011356543e-08
4.340118331e-08
4.775241441e-08
5.155260826e-08
5.257638318e-08
4.669076095e-08
5.195236682e-08
5.440311607e-08
5.464842817e-08
4.966034532e-08
3.774174354e-08
5.772249094e-08
5.620582325e-08
5.036604026e-08
3.932623417e-08
2.744198121e-08
5.527137704e-08
4.781266083e-08
3.736967086e-08
2.689298847e-08
1.840838383e-08
3.951541759e-08
3.114122828e-08
2.317487244e-08
1.653834424e-08
1.148240058e-08
2.177454881e-08
1.704993921e-08
1.283689572e-08
9.379674896e-09
6.705022246e-09
1.071406621e-08
8.584283809e-09
6.654213055e-09
5.022999395e-09
3.714770366e-09
5.041941012e-09
4.153641091e-09
3.32131388e-09
2.59150968e-09
1.983700024e-09
2.337965223e-09
1.97643633e-09
1.626843133e-09
1.310247633e-09
1.038378833e-09
1.084633148e-09
9.38963048e-10
7.94697865e-10
6.609438371e-10
5.436873607e-10
5.103485467e-10
4.525659849e-10
3.945150035e-10
3.401309907e-10
2.921919354e-10
2.489523102e-10
2.269396039e-10
2.04814394e-10
1.84457022e-10
1.673336638e-10
1.30641095e-10
1.235863482e-10
1.169909279e-10
1.115547053e-10
1.077898383e-10
7.864775093e-11
7.772102867e-11
7.734333143e-11
7.766042112e-11
7.939326433e-11
5.602116628e-11
5.75884088e-11
5.951583273e-11
6.233958929e-11
6.604151065e-11
4.670940689e-11
4.903681188e-11
5.190006954e-11
5.580070056e-11
6.072990539e-11
4.420092429e-11
4.708060724e-11
5.070963917e-11
5.519791986e-11
6.063756117e-11
4.591461901e-11
4.909860407e-11
5.311826116e-11
5.805579423e-11
6.399215413e-11
5.044353914e-11
5.406859264e-11
5.861785539e-11
6.414963314e-11
7.070574152e-11
5.836684947e-11
6.252653438e-11
6.766373079e-11
7.378723546e-11
8.08750285e-11
7.030081513e-11
7.48745417e-11
8.040887413e-11
8.68505309e-11
9.41100499e-11
8.605119052e-11
9.07172154e-11
9.625156111e-11
1.025474649e-10
1.094655153e-10
1.045105381e-10
1.08866444e-10
1.1394277e-10
1.196020893e-10
1.256826562e-10
1.240071372e-10
1.277066954e-10
1.319524125e-10
1.366017068e-10
1.414965028e-10
1.428049866e-10
1.456428678e-10
1.488522488e-10
1.523050068e-10
1.558645218e-10
1.595108979e-10
1.614370988e-10
1.635772685e-10
1.658284328e-10
1.680837626e-10
1.73262373e-10
1.743479828e-10
1.755162896e-10
1.766922537e-10
1.777997027e-10
1.837271246e-10
1.841130506e-10
1.844794098e-10
1.847766996e-10
1.849557374e-10
1.909853066e-10
1.908369697e-10
1.905945023e-10
1.902290609e-10
1.897128266e-10
1.953760577e-10
1.94851681e-10
1.941826646e-10
1.933553895e-10
1.923575621e-10
1.973814385e-10
1.966163695e-10
1.956757622e-10
1.945562929e-10
1.932560497e-10
1.974972289e-10
1.965965757e-10
1.955044016e-10
1.942237738e-10
1.927591491e-10
1.962823544e-10
1.953238086e-10
1.941685868e-10
1.92823199e-10
1.912954646e-10
1.944993364e-10
1.9352809e-10
1.923609085e-10
1.910058819e-10
1.894723329e-10
9.863962451e-12
1.294481722e-12
2.079481929e-13
4.6729626e-14
1.439759182e-14
5.272535948e-15
2.184520732e-15
1.032474424e-15
5.449143143e-16
3.100728708e-16
1.845276398e-16
1.125724908e-16
6.951250499e-17
4.3082598e-17
2.665186393e-17
1.639269496e-17
1.000092067e-17
6.043456293e-18
3.615770367e-18
2.142735942e-18
1.25964916e-18
7.367564886e-19
4.30852953e-19
2.538294468e-19
1.522521957e-19
9.417436792e-20
6.078536145e-20
4.120599361e-20
2.927380239e-20
2.158241474e-20
1.629951125e-20
1.246255971e-20
9.56861768e-21
7.344320684e-21
5.624069932e-21
4.29182348e-21
3.257911682e-21
2.452194011e-21
1.822133184e-21
1.33033293e-21
9.504441699e-22
6.626969248e-22
4.505157028e-22
2.98833633e-22
1.938102169e-22
1.23251491e-22
7.708705141e-23
4.753836994e-23
2.895323184e-23
1.742547305e-23
1.035809179e-23
6.072286667e-24
3.502360753e-24
1.979695501e-24
1.088456944e-24
5.72432687e-25
2.75684102e-25
1.093484665e-25
2.545626989e-26
2.082441712e-27
2.409538367e-11
3.878728994e-12
7.448655791e-13
2.092608167e-13
8.388048396e-14
4.053128414e-14
2.112441401e-14
1.159793812e-14
6.510598241e-15
3.718961922e-15
2.136510469e-15
1.232999832e-15
7.128107385e-16
4.125934542e-16
2.389204414e-16
1.383009476e-16
7.997152815e-17
4.615582547e-17
2.657727571e-17
1.526523143e-17
8.751537028e-18
5.01819156e-18
2.889964598e-18
1.682857029e-18
1.000688561e-18
6.150306992e-19
3.951162736e-19
2.66889298e-19
1.890620153e-19
1.390638566e-19
1.048428447e-19
8.008624841e-20
6.148688171e-20
4.723929112e-20
3.624709961e-20
2.774310481e-20
2.113790671e-20
1.597540749e-20
1.191951331e-20
8.736090898e-21
6.263572806e-21
4.381673268e-21
2.988339763e-21
1.988833208e-21
1.294580021e-21
8.266588058e-22
5.194120577e-22
3.219366979e-22
1.971346201e-22
1.193016612e-22
7.130566035e-23
4.202717271e-23
2.436640967e-23
1.383966127e-23
7.640246484e-24
4.029287341e-24
1.944199202e-24
7.754781547e-25
1.931286978e-25
1.959951596e-26
1.024059184e-10
1.443536818e-11
2.310760262e-12
7.344868914e-13
3.589508565e-13
2.053870199e-13
1.206917611e-13
7.200459556e-14
4.264511287e-14
2.519388486e-14
1.46921929e-14
8.486786176e-15
4.839676335e-15
2.73036826e-15
1.524568387e-15
8.445873271e-16
4.654175204e-16
2.558147601e-16
1.406335851e-16
7.747580182e-17
4.284215484e-17
2.382493775e-17
1.33714011e-17
7.617415558e-18
4.443199202e-18
2.682987534e-18
1.694891803e-18
1.126668596e-18
7.866539522e-19
5.717441293e-19
4.272848596e-19
3.24647582e-19
2.487436167e-19
1.912902156e-19
1.473003493e-19
1.133742671e-19
8.698623346e-20
6.624618796e-20
4.981034192e-20
3.677846565e-20
2.655292517e-20
1.869630899e-20
1.283082598e-20
8.592432863e-21
5.629077342e-21
3.619279714e-21
2.291181324e-21
1.431634256e-21
8.841878251e-22
5.398448709e-22
3.255502716e-22
1.935665925e-22
1.131717121e-22
6.47758467e-23
3.598537672e-23
1.904664542e-23
9.194974541e-24
3.648096246e-24
9.144168879e-25
9.649200259e-26
7.726549558e-10
1.212326759e-10
1.305379517e-11
2.807655783e-12
1.347952749e-12
8.152817729e-13
5.10209376e-13
3.189416458e-13
1.973575078e-13
1.208425503e-13
7.29031092e-14
4.335358248e-14
2.534579861e-14
1.457834635e-14
8.238853996e-15
4.581488976e-15
2.508622515e-15
1.356661799e-15
7.268710305e-16
3.875263499e-16
2.064921083e-16
1.104736682e-16
5.963978889e-17
3.269807529e-17
1.836007646e-17
1.066578875e-17
6.476337365e-18
4.139309372e-18
2.786433598e-18
1.963082635e-18
1.432194023e-18
1.070284468e-18
8.123250914e-19
6.227447506e-19
4.805971391e-19
3.722581421e-19
2.882178931e-19
2.218049427e-19
1.685846307e-19
1.257994243e-19
9.174901077e-20
6.523459974e-20
4.519783849e-20
3.055758303e-20
2.021516583e-20
1.313015678e-20
8.400605979e-21
5.307089041e-21
3.314740174e-21
2.04701898e-21
1.248736102e-21
7.510740206e-22
4.440753399e-22
2.568253566e-22
1.438958317e-22
7.654069007e-23
3.697353132e-23
1.456919617e-23
3.620794148e-24
3.845363426e-25
6.832072903e-10
1.998286502e-10
3.609611054e-11
7.937457205e-12
3.790808376e-12
2.384023347e-12
1.569207896e-12
1.029420841e-12
6.692488321e-13
4.306067341e-13
2.735781477e-13
1.714246468e-13
1.056867927e-13
6.406280787e-14
3.809392337e-14
2.221905977e-14
1.26933944e-14
7.108728377e-15
3.9025273e-15
2.105633366e-15
1.119390843e-15
5.893345186e-16
3.089712346e-16
1.625637902e-16
8.663504875e-17
4.729317685e-17
2.676093885e-17
1.586454569e-17
9.916392466e-18
6.535190962e-18
4.51331984e-18
3.236268424e-18
2.387673558e-18
1.799911003e-18
1.379250021e-18
1.069114073e-18
8.330850033e-19
6.475317401e-19
4.97945192e-19
3.761303996e-19
2.776578903e-19
1.997680261e-19
1.400339923e-19
9.579917238e-20
6.41579251e-20
4.221356442e-20
2.737360811e-20
1.753080573e-20
1.109859604e-20
6.944983233e-21
4.291331314e-21
2.613683451e-21
1.56438123e-21
9.15230937e-22
5.178518256e-22
2.772461913e-22
1.341813214e-22
5.266859797e-23
1.299130718e-23
1.404202805e-24
4.75115787e-10
2.372643317e-10
7.614054147e-11
1.955970487e-11
8.654915877e-12
5.402256427e-12
3.661137662e-12
2.502035629e-12
1.705597457e-12
1.156230168e-12
7.774644958e-13
5.173344649e-13
3.399011981e-13
2.201376445e-13
1.402213068e-13
8.770893481e-14
5.376742498e-14
3.226372392e-14
1.891438595e-14
1.083216981e-14
6.057099644e-15
3.313499958e-15
1.776200187e-15
9.371925056e-16
4.895381903e-16
2.555790215e-16
1.349403595e-16
7.308021924e-17
4.116952943e-17
2.439149779e-17
1.527317167e-17
1.009085024e-17
6.991726736e-18
5.042527092e-18
3.758297765e-18
2.872895473e-18
2.231427573e-18
1.74191321e-18
1.351803983e-18
1.033186176e-18
7.724634636e-19
5.628507086e-19
3.993733457e-19
2.764523419e-19
1.873910556e-19
1.249185701e-19
8.217050271e-20
5.342932357e-20
3.435199233e-20
2.182336054e-20
1.368040756e-20
8.44600602e-21
5.12012266e-21
3.031215115e-21
1.733412466e-21
9.360914825e-22
4.556468472e-22
1.795150593e-22
4.437925924e-23
4.939178249e-24
9.885001531e-10
4.765279034e-10
1.92805113e-10
5.710171085e-11
1.873930868e-11
1.008988404e-11
6.687581646e-12
4.662735796e-12
3.291609712e-12
2.327502521e-12
1.640985474e-12
1.15056377e-12
8.005979728e-13
5.518671498e-13
3.761917654e-13
2.530950942e-13
1.676563395e-13
1.090827002e-13
6.952039024e-14
4.331565063e-14
2.632991166e-14
1.559709864e-14
8.991875875e-15
5.045875956e-15
2.758616123e-15
1.474997154e-15
7.754191264e-16
4.043749527e-16
2.117605521e-16
1.131501486e-16
6.274522055e-17
3.663078445e-17
2.269848375e-17
1.494249468e-17
1.04019406e-17
7.594031067e-18
5.743423079e-18
4.431598888e-18
3.436644807e-18
2.644232259e-18
1.998763579e-18
1.475323491e-18
1.060474917e-18
7.427733281e-19
5.088981801e-19
3.429102611e-19
2.282579731e-19
1.504213131e-19
9.814329009e-20
6.331693643e-20
4.030969328e-20
2.526110822e-20
1.553084179e-20
9.315301649e-21
5.392170891e-21
2.946629222e-21
1.451642948e-21
5.80664667e-22
1.465765199e-22
1.705872848e-23
2.814023244e-09
1.03327037e-09
4.604739449e-10
1.570655585e-10
4.507255823e-11
1.817800619e-11
1.070070004e-11
7.319502748e-12
5.235127494e-12
3.796985946e-12
2.762817655e-12
2.007289444e-12
1.452555247e-12
1.045286304e-12
7.47101748e-13
5.297180891e-13
3.720796975e-13
2.585239269e-13
1.773069502e-13
1.197138873e-13
7.932431257e-14
5.140979392e-14
3.24737362e-14
1.993827345e-14
1.187799108e-14
6.862028998e-15
3.845107689e-15
2.094014226e-15
1.113223671e-15
5.82642539e-16
3.03951733e-16
1.607833141e-16
8.802176439e-17
5.085800863e-17
3.14073235e-17
2.079219011e-17
1.464990372e-17
1.080145048e-17
8.169742926e-18
6.229949132e-18
4.723007963e-18
3.521847366e-18
2.565834664e-18
1.8215228e-18
1.262594806e-18
8.592835584e-19
5.774023048e-19
3.843337769e-19
2.536198569e-19
1.657449684e-19
1.070289151e-19
6.808850743e-20
4.250575225e-20
2.588041132e-20
1.520203144e-20
8.433168462e-21
4.22614082e-21
1.729001059e-21
4.508548581e-22
5.58311e-23
1.831164177e-09
9.373695044e-10
5.352770196e-10
2.571081799e-10
8.984976795e-11
3.178007308e-11
1.616683805e-11
1.047974186e-11
7.466076488e-12
5.492047647e-12
4.084638296e-12
3.046403692e-12
2.26981663e-12
1.686116974e-12
1.24716733e-12
9.176296693e-13
6.709551002e-13
4.870131395e-13
3.504794752e-13
2.496720607e-13
1.757128458e-13
1.218828642e-13
8.311056589e-14
5.55199138e-14
3.619408215e-14
2.294215714e-14
1.408536375e-14
8.355140481e-15
4.785664508e-15
2.651399007e-15
1.426402022e-15
7.50895381e-16
3.919927384e-16
2.070093141e-16
1.132647674e-16
6.564224341e-17
4.08689746e-17
2.732177108e-17
1.92972662e-17
1.410553925e-17
1.048033445e-17
7.799744179e-18
5.741073681e-18
4.139477733e-18
2.911423614e-18
2.005048597e-18
1.360567947e-18
9.133392052e-19
6.076671032e-19
4.007640599e-19
2.616550594e-19
1.68658508e-19
1.068774224e-19
6.614029882e-20
3.952669159e-20
2.233916494e-20
1.144367736e-20
4.823418084e-21
1.316416555e-21
1.771655366e-22
1.499288201e-09
8.185913954e-10
4.94530837e-10
3.01271868e-10
1.431576861e-10
5.424355273e-11
2.427798984e-11
1.456945857e-11
1.014816543e-11
7.484760541e-12
5.640517383e-12
4.285831859e-12
3.264296182e-12
2.484766933e-12
1.88697267e-12
1.427961135e-12
1.075794972e-12
8.06167114e-13
6.003395642e-13
4.437914018e-13
3.251730289e-13
2.358636763e-13
1.690034773e-13
1.193348691e-13
8.280515309e-14
5.628991459e-14
3.736999651e-14
2.414243001e-14
1.511900262e-14
9.145999349e-15
5.330809459e-15
2.993523574e-15
1.626260359e-15
8.627528182e-16
4.53895215e-16
2.418165769e-16
1.335611014e-16
7.820087956e-17
4.906112749e-17
3.27933383e-17
2.295677686e-17
1.652879463e-17
1.20492334e-17
8.766320535e-18
6.279323089e-18
4.398521624e-18
3.022484899e-18
2.048317256e-18
1.373295013e-18
9.119562167e-19
5.998812736e-19
3.903831134e-19
2.504845198e-19
1.574226846e-19
9.581127102e-20
5.532775322e-20
2.910271169e-20
1.272833418e-20
3.68729791e-21
5.492502651e-22
3.217181317e-09
1.176358816e-09
6.09226318e-10
3.824274219e-10
2.151484639e-10
9.550430156e-11
3.950883643e-11
2.083287083e-11
1.371850904e-11
9.98011906e-12
7.545445951e-12
5.796863014e-12
4.483872703e-12
3.475904051e-12
2.693407435e-12
2.082817444e-12
1.605582997e-12
1.23251706e-12
9.418797741e-13
7.158598383e-13
5.404382275e-13
4.047073978e-13
3.001242316e-13
2.199921442e-13
1.590484475e-13
1.131446866e-13
7.899753592e-14
5.398827266e-14
3.600870178e-14
2.336623536e-14
1.470806212e-14
8.953864548e-15
5.258728301e-15
2.978912017e-15
1.634277866e-15
8.768536278e-16
4.670762104e-16
2.518604403e-16
1.407889981e-16
8.339632904e-17
5.282877521e-17
3.546369627e-17
2.478122316e-17
1.77072844e-17
1.273732552e-17
9.088650601e-18
6.370562539e-18
4.379106528e-18
2.962660289e-18
1.980229529e-18
1.310307099e-18
8.584626686e-19
5.557997712e-19
3.537165929e-19
2.189600407e-19
1.292843349e-19
7.006224487e-20
3.199397941e-20
9.966969124e-21
1.668243822e-21
9.492711855e-09
2.579279447e-09
1.209157065e-09
6.371776602e-10
3.62619025e-10
1.837676793e-10
7.611987185e-11
3.328926336e-11
1.911292422e-11
1.320336818e-11
9.861124704e-12
7.595195836e-12
5.92920703e-12
4.655035644e-12
3.65969986e-12
2.87701033e-12
2.258864102e-12
1.768819613e-12
1.380007535e-12
1.071769953e-12
8.276132287e-13
6.346001477e-13
4.825290662e-13
3.632730897e-13
2.703197334e-13
1.984331469e-13
1.433901681e-13
1.017654032e-13
7.076210421e-14
4.808577058e-14
3.185130225e-14
2.051343999e-14
1.281427149e-14
7.749221654e-15
4.533485345e-15
2.569777874e-15
1.417753084e-15
7.677765746e-16
4.141301615e-16
2.2729877e-16
1.303630259e-16
7.968136699e-17
5.192396525e-17
3.551913628e-17
2.50101903e-17
1.78219141e-17
1.267168076e-17
8.89368802e-18
6.123736696e-18
4.137412833e-18
2.754301428e-18
1.813569535e-18
1.181680356e-18
7.591098985e-19
4.765059087e-19
2.872318517e-19
1.605625685e-19
7.694649662e-20
2.60759991e-20
4.961900967e-21
8.138059592e-09
2.279931646e-09
1.279880414e-09
7.207238957e-10
4.540051905e-10
2.681231562e-10
1.363564317e-10
5.92313587e-11
2.868742711e-11
1.760042745e-11
1.252301263e-11
9.499648816e-12
7.396009508e-12
5.841054474e-12
4.624049476e-12
3.687952614e-12
2.941383634e-12
2.341698982e-12
1.858301321e-12
1.468373647e-12
1.154111769e-12
9.013633628e-13
6.987086377e-13
5.368699265e-13
4.082932099e-13
3.068134429e-13
2.273883982e-13
1.658729698e-13
1.188405e-13
8.344108899e-14
5.728908082e-14
3.837966854e-14
2.503488652e-14
1.587044175e-14
9.764718123e-15
5.828233808e-15
3.377257482e-15
1.905053714e-15
1.052256055e-15
5.760421426e-16
3.185911455e-16
1.825371086e-16
1.106908388e-16
7.139376699e-17
4.843964596e-17
3.389661128e-17
2.401673255e-17
1.701465589e-17
1.193787082e-17
8.232075902e-18
5.563629009e-18
3.693666225e-18
2.418672371e-18
1.56329023e-18
9.915990852e-19
6.0837707e-19
3.504893762e-19
1.770291918e-19
6.59132695e-20
1.436600913e-20
7.120482475e-09
1.954320962e-09
1.051916426e-09
6.672413752e-10
4.624861346e-10
3.107043321e-10
1.902390122e-10
1.010219596e-10
4.776360997e-11
2.488438439e-11
1.557577398e-11
1.107040955e-11
8.407445403e-12
6.603587279e-12
5.233736621e-12
4.207493501e-12
3.388993876e-12
2.729381837e-12
2.193854607e-12
1.757484019e-12
1.401630963e-12
1.111774623e-12
8.762644587e-13
6.855431125e-13
5.31698986e-13
4.081652158e-13
3.095332841e-13
2.313932705e-13
1.701453209e-13
1.227986562e-13
8.680249666e-14
5.997241657e-14
4.043358246e-14
2.65651178e-14
1.698969352e-14
1.056955931e-14
6.394910791e-15
3.765933941e-15
2.16427102e-15
1.220973678e-15
6.83833545e-16
3.870212442e-16
2.264876814e-16
1.397072193e-16
9.126857821e-17
6.241454344e-17
4.381019984e-17
3.102152829e-17
2.19183597e-17
1.533866325e-17
1.057090964e-17
7.145723796e-18
4.73764931e-18
3.087038858e-18
1.97480774e-18
1.229153993e-18
7.274919659e-19
3.873084748e-19
1.593824001e-19
4.001976148e-20
1.01920642e-08
2.565215149e-09
1.039155235e-09
6.666015314e-10
4.560634356e-10
3.32321749e-10
2.283604933e-10
1.44352463e-10
8.108000324e-11
4.040409101e-11
2.074183408e-11
1.240578135e-11
8.548539119e-12
6.448419651e-12
5.060057141e-12
4.051786246e-12
3.276296651e-12
2.660356717e-12
2.16190197e-12
1.754294575e-12
1.41924311e-12
1.14331587e-12
9.161501263e-13
7.294678356e-13
5.764837787e-13
4.515834851e-13
3.500857221e-13
2.68066763e-13
2.022580249e-13
1.500031884e-13
1.091239186e-13
7.769649936e-14
5.401710341e-14
3.66205517e-14
2.419582122e-14
1.557235357e-14
9.764908263e-15