/*--------------------------------*- C++ -*----------------------------------*\
  =========                 |
  \\      /  F ield         | OpenFOAM: The Open Source CFD Toolbox
   \\    /   O peration     | Website:  https://openfoam.org
    \\  /    A nd           | Version:  10
     \\/     M anipulation  |
\*---------------------------------------------------------------------------*/
FoamFile
{
    format      ascii;
    class       volScalarField;
    location    "3000";
    object      HRR;
}
// * * * * * * * * * * * * * * * * * * * * * * * * * * * * * * * * * * * * * //

dimensions      [1 -1 -3 0 0 0 0];

internalField   nonuniform List<scalar> 
5170
(
-3.155803821e-28
-3.158827675e-28
-3.188075013e-28
-3.551671473e-28
-7.143518198e-28
-3.114286145e-28
-3.116963806e-28
-3.173916924e-28
-4.225147984e-28
-6.330201386e-28
-3.077559105e-28
-3.098376411e-28
-3.292097992e-28
-4.830188586e-28
-5.740039195e-28
-3.08810491e-28
-3.139289021e-28
-3.511350983e-28
-5.45519979e-28
-5.475614009e-28
-3.09118327e-28
-3.186272883e-28
-3.735225228e-28
-6.066220666e-28
-5.269550007e-28
-3.157645206e-28
-3.293435555e-28
-3.98830851e-28
-6.593210289e-28
-5.19711998e-28
-3.196049021e-28
-3.349095808e-28
-4.417628408e-28
-7.01806889e-28
-5.211718836e-28
-3.270900085e-28
-3.501093862e-28
-4.745177019e-28
-7.333535379e-28
-5.258716665e-28
-3.341106165e-28
-3.638047241e-28
-5.013464217e-28
-7.530822629e-28
-5.270594136e-28
-2.871606394e-28
-3.26154291e-28
-4.429180055e-28
-1.208108716e-28
3.399470772e-27
2.872848281e-26
3.118990777e-26
6.232765624e-26
4.884903963e-25
2.906625904e-24
1.490024351e-23
1.88014211e-23
4.703165237e-23
3.793934562e-22
2.148705945e-21
7.758171057e-21
1.146498228e-20
3.68271629e-20
3.015523743e-19
1.595122057e-18
4.143343971e-18
7.374191767e-18
2.988928929e-17
2.46719626e-16
1.194743609e-15
2.230861792e-15
4.786126109e-15
2.465489215e-14
2.063963598e-13
9.097826842e-13
1.196129925e-12
3.178222326e-12
2.022512764e-11
1.659372826e-10
7.146772367e-10
6.433213445e-10
2.117222246e-09
1.619969368e-08
1.401762323e-07
5.958630567e-07
3.335799806e-07
1.398434233e-06
1.282100031e-05
9.471166798e-05
0.0004456623302
0.000147826281
0.0008087230451
0.008592304907
0.07797222151
0.4630928577
0.06023038418
0.5043194242
6.779353326
67.89408547
859.7869719
14688118.52
12380685
11471962.99
12781657.58
14667551.33
7531068.619
7817651.48
7611871.78
7814928.012
7139250.178
4347430.949
5119027.048
5101746.34
4884077.847
3876813.406
2792540.732
3461380.513
3560511.321
3361713.346
2396205.142
1916406.068
2487334.908
2582058.498
2427723.651
1609845.613
1372628.74
1842084.348
1937793.753
1799306.208
1130505.968
1022259.194
1407063.357
1489791.541
1355247.648
823180.5886
777956.841
1091844.205
1163166.432
1019328.551
606970.7069
600767.9971
849409.6133
908296.9104
765301.4913
452591.3168
470330.5175
665692.2822
708535.6146
579300.9534
343631.642
372262.3377
524128.3159
554065.5929
444104.7824
266797.5797
298238.4741
415554.4067
435480.649
345341.3011
211876.3962
242030.8271
331999.6105
345246.4141
273190.3665
172573.6623
199853.1998
268679.3682
277079.2039
220535.868
144506.8222
168119.087
220448.4549
225841.6972
182257.4652
124652.5264
144784.4877
184336.9777
187653.7844
154406.1982
110625.4485
127945.9556
157404.2593
159592.8975
134607.3536
101281.7022
117502.714
137959.3589
139417.1017
120935.67
95656.06254
161573.7746
136438.8014
127859.0742
112216.7926
92945.86359
20281127.5
1569263.639
311687.3774
153717.9926
129190.3193
3.535568928
45.3716451
1573.615613
80889.97429
7413590.375
15.96449585
173.8541149
4588.39106
138065.3565
3203247.977
45.69831842
446.904551
9761.034202
173722.3258
1695581.812
107.0359823
982.3687209
17297.01637
193538.9538
1096586.474
222.6050959
1913.517578
26288.37353
204232.0773
866583.1595
436.8368441
3463.841152
38394.80815
223206.5227
791209.3581
868.0840513
6265.662338
54707.06972
244963.8777
804711.872
1784.070849
11390.75495
73257.64599
271626.5722
815505.8239
3683.471122
19541.24137
93007.73941
294381.732
804261.4699
7312.786884
30822.07059
112680.899
315046.6904
800496.7236
13086.35992
42971.4616
132015.5
338083.3238
818649.8792
21156.76192
57019.18171
152800.5972
363147.091
836336.7298
32619.84565
73159.22716
173871.0863
385919.3576
838524.8372
48015.15127
91821.07012
196283.8488
409312.503
842194.2221
67964.45423
113916.6489
222211.3376
438243.5225
862741.0842
93992.24352
141415.0061
254637.4526
477917.4285
905352.0978
127080.4261
175825.3318
294697.5725
527088.9703
958245.8982
168599.5893
218974.8118
342725.9968
577433.4748
997439.4721
216334.7154
267671.1111
392487.404
620986.2184
1025338.66
267405.5101
317781.5345
439521.9654
662108.5647
1058967.572
313671.7636
363000.5935
483265.3342
708477.3162
1115397.605
356539.5299
404010.6053
532882.2093
770525.8109
1174509.533
403787.6063
458460.2012
594941.094
845161.6103
1237090.748
465190.5244
526251.5014
676676.1487
924142.8586
1364213.154
551007.8878
620707.8493
763393.3087
1052770.485
1475367.658
671952.3176
752361.6065
951432.5386
1219288.329
1678791.824
849244.2368
945475.3387
1173886.483
1531855.64
2102769.521
1116670.306
1234448.808
1520781.736
1907813.151
2601336.114
1472964.116
1600117.843
2026566.288
2651661.96
3578963.089
2099800.91
2344978.401
2747214.039
3453262.935
4589541.505
3176807.511
3391573.211
3956759.535
4887305.287
6123222.463
5116799.854
5454756.417
6169672.301
7321517.19
9151623.126
8653262.775
9099626.947
10186064.94
11710192.6
14125800.57
14930831.04
15507965.4
16788319.1
18796609.45
21562058.14
23551644.83
24090316.27
25194073.57
26791158.7
28773488.76
28257953.14
28447153.68
28842631.05
29347379.89
29972717.29
25139646.63
25148178.41
25181534.98
25257598.71
25453866.59
19045111.69
19097897.29
19246440.39
19552479.68
20131890.16
14477561.78
14669312.32
15127258.14
15923782.59
17190605.27
12997951.92
13351391.13
14157089
15452236.12
17270034.84
13793175.3
14084809.16
14654551.46
15315992.4
15817213.31
11183764.36
11270020.59
11472811.91
11821465.49
12358996.49
10590361.68
10755624.41
11120408.93
11677195.59
12422651.19
11660093.42
11815776.23
12154036.87
12656818.86
13307666.61
12553456.94
12672030.96
13017846.51
13386973.48
13847809.18
12768109.69
12844804.74
13009646.58
13243759.61
13542545.88
12144851.67
12188983.94
12282354.26
12414864.28
12575419.16
10930429.53
10949907.38
10990269.99
11045313.47
11107666.64
9371204.649
9375097.439
9382148.021
9389019.898
9391300.772
7699462.679
7695125.193
7684494.402
7666868.557
7638792.94
6098573.318
6091433.98
6074908.95
6047340.4
6026601.421
4707175.871
4699444.593
4682282.82
4655808.504
4609571.148
3544377.867
3537605.388
3522659.646
3499805.881
3468934.473
2629057.135
2623728.485
2612010.798
2594195.454
2570312.718
1933240.638
1929300.222
1920653.303
1907548.09
1890051.354
1417096.448
1414292.185
1408145.386
1398845.3
1386456.071
1040263.988
1038313.217
1034040.131
1027580.568
1018984.434
767528.8689
766187.5635
763250.1914
758811.0365
752905.2426
570703.1944
569783.4881
567769.533
564725.6287
560675.1559
428419.2703
427786.1444
426399.4965
424302.9428
421511.5235
325043.7294
324603.7064
323639.7853
322181.6797
320238.9176
249346.7466
249036.762
248357.4776
247329.3509
245958.3546
193409.3169
193187.1783
192700.2444
191962.81
190978.6409
151587.3509
151425.2215
151069.6977
150530.9636
149811.4103
120023.1637
119902.3233
119637.2652
119235.4285
118698.3754
95812.11388
95720.35251
95519.01199
95213.62671
94805.2245
77181.07985
77109.83896
76953.4926
76716.27119
76398.87386
62448.44113
62392.2259
62268.81362
62081.48967
61830.73262
51030.34854
50985.17234
50885.98912
50735.4056
50533.75848
42472.82787
42435.23064
42352.67135
42227.30137
42059.38773
16626572.97
13323708.14
5396122.009
3013103.742
2189273.838
1969352.017
2009511.684
1897266.169
1709233.94
1612703.568
1599456.014
1568435.311
1489648.04
1434446.548
1430765.202
1471544.465
1515973.881
1526624.518
1526806.918
1549616.593
1563482.175
1619519.336
1739784.876
1804538.896
1967949.608
2220747.541
2758501.898
3384792.806
4199893.965
5568880.095
7463908.351
10875330.2
16295418.25
23859679.28
30241631.58
30464123.47
25750546.19
20811366.04
18463574.9
18818986.4
16020733.03
12866443.35
13041106.26
13829774.9
14213351.76
13774373.42
12696415.8
11151757.44
9388974.933
7613816.578
5977962.189
4579028.697
3443542.25
2550781.31
1875781.292
1376364.352
1011985.164
748095.6133
557374.5906
419235.0504
318653.086
244838.1206
190173.745
149222.3861
118258.4175
94470.39323
76138.48676
61624.86641
50368.11282
41921.39864
67842416.38
479968094.6
32786302.34
3408167.156
1265499.857
21771128.35
135705616.4
271787246
30855784.37
2980030.855
11579089.05
71986742.99
527838897.8
116474609.7
11581415.79
6647569.437
33941585.65
532931216.7
245522000.4
47543397.76
4709857.091
23805990.36
284585332.1
404539769.3
105192565.6
4403632.868
21533708.44
170133472.5
528190356.7
172206575.4
4565739.625
20497035.05
125978964.7
587034775.4
222300269.3
4022962.451
15187596.71
71805032.11
565880254.6
262053716.6
3376324.871
11416189.46
47937347.33
341775575.4
348703104.1
3096369.133
10013265.56
40512938.73
223680364.2
424440265.7
3024625.318
9392999.723
36126656.79
163383662.6
467954300.2
2873693.708
8300166.033
28516439.31
106952582
481422764.5
2617281.316
6941373.645
21398593.75
70349317.63
351741983
2452110.877
6156261.936
18111656.58
56961678.36
245125976
2407002.382
5854456.721
16693501.92
50728700.34
187580452.8
2427474.087
5752306.822
15742622.47
45397121.86
147140959.6
2448006.865
5531190.527
14319189.5
38374479.79
110223330.6
2402767.134
5143444.498
12555232.89
31320551.72
82203459.59
2238840.322
4821151.194
11326902.44
27174972.84
68468536.99
2246812.73
4691341.011
10762316.32
25224715.36
61782367.49
2301306.316
4730324.847
10626478.44
24308330.67
57524181.53
2336416.241
4865929.129
10658842.96
23675004.87
53984220.44
2453406.678
5042889.38
10722802.49
23024539.94
50421939.38
2619489.988
5251587.738
10798051.15
22328543.42
46853248.68
2841750.915
5526739.3
10978972.47
21891789.83
44260798.81
3161333.58
6379729.299
11457906.23
22121323.77
43368821.14
3856991.739
6972315.86
12421803.88
23298889.36
44356861.61
4681376.709
7762056.058
14023944.77
25578693.73
46999211.9
5748925.947
9404015.083
16467717.97
29106281.83
50860148.8
7912074.933
11843848.49
20028549.81
33881500.19
55129638.55
9723098.772
15483221.69
24982634.69
39456776.22
58758558.76
13774282.47
20756639.7
31133085.3
44584911.5
60731766.08
19865884.2
27526324.26
37053847.37
47613436.12
60569017.14
27351216.95
33660290.09
40243503.57
47601787.23
58723315.5
32264726.56
35588636.05
39367547.57
45291278.5
56557401.79
31103803.15
32716218.88
35905570.05
42670352.96
54251193.3
26243498.81
28280364.51
32820328
41210640.84
47265952.36
21959812.3
25565921.22
31872313.35
37986308.83
35299484.82
20486782.33
25383776.58
29666695.25
28439464.39
27878071.96
20673230.85
22386527.93
21848932.16
22485073.8
24396636.52
16048874.68
16665576.84
18175336.07
20370222.42
22841451.97
13642744.3
15362706.78
17470564.46
19745142.86
21900677
13932077.71
15640383.86
17493601.96
19300660.43
20853795.55
14561308.37
15892660.59
17245610.12
18468827.17
19415519.99
14663413.3
15558769.74
16412348.39
17113822.19
17564611.74
14051997.33
14590668.64
15014228.78
15332660.69
15441662.71
12845693.49
13076204.79
13228916.55
13260157.52
13131096.77
11194896.6
11239189.34
11213226.33
11089367.06
10849110.79
9370151.388
9310366.142
9190370.328
8998228.076
8720348.4
7566747.237
7462724.395
7312092.559
7109297.081
6848201.055
5927204.933
5813852.543
5670494.898
5486471.407
5268914.494
4529127.629
4430045.375
4316500.205
4166258.289
3991343.632
3403454.329
3324296.137
3226956.452
3111987.337
2980521.698
2520329.016
2460739.627
2388489.396
2304225.138
2208940.449
1853696.195
1810673.385
1758916.692
1698989.746
1631645.204
1360814.866
1330584.237
1294361.632
1252569.688
1205733.016
1001227.733
980322.4401
955309.7242
926477.7864
894172.2308
740712.7189
726356.1645
709173.8376
689351.6673
667108.3373
552310.103
542448.7169
530629.2019
516966.6556
501595.1798
415741.4188
408926.8858
400741.5025
391255.3168
380549.7746
316218.1914
311459.7249
305730.2309
299069.9866
291526.4692
243116.9764
239746.7419
235678.2205
230934.1451
225541.6753
188936.2195
186508.4745
183570.4537
180134.4965
176215.6346
148316.1855
146535.2522
144374.92
141841.4998
138942.8798
117581.1861
116248.2887
114628.2182
112723.7668
110538.6105
93954.80675
92938.47307
91700.78923
90242.59941
88565.2376
75737.46429
74946.07312
73980.9738
72841.91401
71528.88621
61307.8673
60681.37503
59916.29271
59011.9159
57967.6983
50113.10479
49608.76737
48992.41877
48263.14488
47420.1572
41709.17581
41289.08435
40775.60236
40167.98573
39465.61219
85429.57039
1022.75855
28.86722551
1.337655904
0.06358249066
0.004924219503
0.0005015647901
6.718458249e-05
1.110685128e-05
2.267938325e-06
6.143542772e-07
2.251694998e-07
1.031904914e-07
5.541215114e-08
3.482598009e-08
2.622962765e-08
2.335983141e-08
2.319537563e-08
2.411879069e-08
2.521365758e-08
2.599537744e-08
2.628688477e-08
2.611717166e-08
2.561908204e-08
2.493429318e-08
2.417029223e-08
2.336356374e-08
2.247818034e-08
2.145377142e-08
2.02428504e-08
1.883195551e-08
1.724322246e-08
1.552333427e-08
1.372920444e-08
1.191551658e-08
1.012954903e-08
8.412825081e-09
6.804719991e-09
5.343658056e-09
4.063676841e-09
2.988033631e-09
2.123864331e-09
1.460961195e-09
9.750103202e-10
6.335788537e-10
4.025742377e-10
2.512100881e-10
1.545505897e-10
9.401100546e-11
5.662237993e-11
3.376523255e-11
1.990694472e-11
1.157169732e-11
6.601594418e-12
3.665182007e-12
1.945893064e-12
9.516136275e-13
4.059047937e-13
1.629683719e-13
6.700425413e-14
99214.50976
1962.672666
78.522693
4.814953524
0.4651400081
0.06194879567
0.01070153232
0.002463302441
0.0006803054931
0.0002272812102
8.439193379e-05
3.298264955e-05
1.321604924e-05
5.458786925e-06
2.358080222e-06
1.096564722e-06
5.727094358e-07
3.504768397e-07
2.53723153e-07
2.095716726e-07
1.872300583e-07
1.737057197e-07
1.638862245e-07
1.559500202e-07
1.493907163e-07
1.43888548e-07
1.389849103e-07
1.340781646e-07
1.285654086e-07
1.220163309e-07
1.14256675e-07
1.053520485e-07
9.552817824e-08
8.508796801e-08
7.434613471e-08
6.359492808e-08
5.311030205e-08
4.316750642e-08
3.404207853e-08
2.598264969e-08
1.916689301e-08
1.366446253e-08
9.427581681e-09
6.311710239e-09
4.116000026e-09
2.626297147e-09
1.64711915e-09
1.019278191e-09
6.239920176e-10
3.783305364e-10
2.27113216e-10
1.347779034e-10
7.884069561e-11
4.524316034e-11
2.525226394e-11
1.349973903e-11
6.78963776e-12
3.199455877e-12
1.708897256e-12
5.05122341e-13
252186.7113
3320.835767
96.60115538
8.812178715
1.502692527
0.361592211
0.1078950049
0.04069634085
0.01776081909
0.00833118132
0.003910577035
0.001813256622
0.0007881260996
0.000296368613
0.0001112855918
4.256985323e-05
1.696301806e-05
7.271913916e-06
3.480826608e-06
1.92559225e-06
1.240787745e-06
9.096242205e-07
7.332256624e-07
6.319903481e-07
5.697137297e-07
5.291924684e-07
5.007783824e-07
4.782304311e-07
4.572603436e-07
4.356126668e-07
4.114521157e-07
3.839754151e-07
3.531799012e-07
3.194275961e-07
2.833271523e-07
2.457129395e-07
2.076828905e-07
1.705423707e-07
1.356793015e-07
1.043549605e-07
7.750510265e-08
5.559534349e-08
3.857650437e-08
2.597290786e-08
1.704358015e-08
1.095158468e-08
6.923559736e-09
4.322742934e-09
2.672426246e-09
1.637770054e-09
9.943773917e-10
5.968079263e-10
3.528545734e-10
2.044644312e-10
1.151401508e-10
6.225199575e-11
3.224330671e-11
1.636304036e-11
9.586411954e-12
2.09676741e-12
1841264.454
31093.63292
414.8856698
25.04997305
5.651971461
2.021060671
0.8686765468
0.418070484
0.2119782976
0.1089142565
0.05501336406
0.02710825602
0.01294072463
0.006007301423
0.002718208318
0.001188296801
0.0004490842279
0.000171475405
6.773380897e-05
2.858390126e-05
1.331166878e-05
7.031783383e-06
4.254078349e-06
2.922537418e-06
2.232053798e-06
1.847844828e-06
1.617020486e-06
1.464753296e-06
1.351939548e-06
1.256980403e-06
1.169750722e-06
1.085150551e-06
1.000352116e-06
9.130496819e-07
8.214929767e-07
7.248449688e-07
6.237821397e-07
5.210444593e-07
4.209633416e-07
3.28323532e-07
2.470782022e-07
1.795342945e-07
1.26213471e-07
8.610154913e-08
5.721619684e-08
3.721678529e-08
2.381013168e-08
1.504638256e-08
9.418583417e-09
5.847239085e-09
3.59843293e-09
2.190727051e-09
1.314200986e-09
7.72276241e-10
4.408506927e-10
2.425662505e-10
1.290735174e-10
6.939008518e-11
4.148696047e-11
6.944594147e-12
7262492.132
177186.2245
2997.79539
102.3516914
22.25045435
9.779247791
4.716364269
2.541512729
1.422677096
0.7970265935
0.4318390914
0.2294584908
0.1186918482
0.05968941132
0.0291262178
0.01384314213
0.006426571371
0.002939538087
0.001236274403
0.0005032232062
0.0002080675421
9.051957497e-05
4.262373342e-05
2.224312365e-05
1.30278484e-05
8.556407531e-06
6.211874174e-06
4.877869177e-06
4.051447286e-06
3.494484447e-06
3.08960322e-06
2.774015811e-06
2.51042214e-06
2.27379976e-06
2.046993999e-06
1.818641307e-06
1.582591228e-06
1.339688374e-06
1.097435079e-06
8.67248997e-07
6.608196747e-07
4.862650679e-07
3.465351024e-07
2.401230054e-07
1.625366599e-07
1.079539701e-07
7.060468559e-08
4.558688703e-08
2.910569697e-08
1.838966492e-08
1.149678188e-08
7.103896689e-09
4.326743767e-09
2.583672214e-09
1.502026681e-09
8.453832804e-10
4.640420264e-10
2.61810556e-10
1.544450759e-10
2.079614786e-11
25271297.19
1099028.396
28907.7299
755.4794386
74.43927049
18.37662324
8.824104751
4.90166431
2.873712226
1.73749613
1.071292849
0.6601569523
0.4030722966
0.2428310288
0.1424479328
0.08068922991
0.04421872545
0.02343247891
0.01191870567
0.005809393642
0.002719764346
0.001244563696
0.0005686473809
0.0002657980646
0.0001302187234
6.848402021e-05
3.923454299e-05
2.453759172e-05
1.662839653e-05
1.208988993e-05
9.33337522e-06
7.566602644e-06
6.366784724e-06
5.492099612e-06
4.802335553e-06
4.212621531e-06
3.661807575e-06
3.121176752e-06
2.587353978e-06
2.074166472e-06
1.602932957e-06
1.194152326e-06
8.59950646e-07
6.017823088e-07
4.12309963e-07
2.783766149e-07
1.860119778e-07
1.232090886e-07
8.083621756e-08
5.24424082e-08
3.35670522e-08
2.115838014e-08
1.310861407e-08
7.956907928e-09
4.717112945e-09
2.729551887e-09
1.557576384e-09
9.181870555e-10
5.299985455e-10
5.971814222e-11
56641985.16
5273145.945
210782.1764
7011.703914
420.0737347
48.52386125
18.46111561
9.517186548
5.430826937
3.249082526
1.992884112
1.243128324
0.782333488
0.4939006552
0.3124179603
0.1976165017
0.1245347974
0.07788525398
0.04757007246
0.02827975427
0.0161662532
0.008959993362
0.004843971342
0.00255556899
0.00132423406
0.0006841958323
0.0003600533208
0.0001957543407
0.0001109945662
6.627197381e-05
4.202562116e-05
2.840241362e-05
2.042031749e-05
1.552052233e-05
1.231095114e-05
1.006587485e-05
8.3798712e-06
6.990182468e-06
5.761317891e-06
4.640619402e-06
3.625780251e-06
2.736298612e-06
1.993594639e-06
1.407318639e-06
9.695762797e-07
6.588111129e-07
4.450149401e-07
2.999292123e-07
2.015084207e-07
1.344338931e-07
8.862035828e-08
5.746398155e-08
3.651976634e-08
2.268800819e-08
1.378029403e-08
8.227705768e-09
4.907063374e-09
2.997573098e-09
1.697907913e-09
1.66149347e-10
91987860.22
14627431.33
1233930.927
56042.02064
2554.520083
193.5564895
42.05662718
18.17062124
9.808239893
5.790475577
3.573977453
2.260074447
1.448221702
0.9339502781
0.6034707019
0.3895693686
0.2507702087
0.1609999522
0.1034714292
0.06647988067
0.04281499412
0.02756521861
0.01759824526
0.01098040134
0.006674593422
0.003957156458
0.002323866187
0.001348681147
0.0007744572351
0.0004431555392
0.0002566660053
0.0001519129515
9.301698206e-05
5.978618112e-05
4.056230299e-05
2.876036479e-05
2.124288329e-05
1.627885046e-05
1.271664797e-05
9.985169876e-06
7.767897785e-06
5.891695077e-06
4.332514333e-06
3.086329558e-06
2.138037469e-06
1.453652313e-06
9.806121746e-07
6.619988105e-07
4.485692437e-07
3.043708486e-07
2.056133975e-07
1.373276823e-07
9.010713932e-08
5.784697862e-08
3.63380695e-08
2.249659305e-08
1.396025851e-08
8.812566795e-09
4.723083978e-09
4.278950057e-10
131064082
30571522.76
3569034.852
306874.4626
16501.37563
885.993355
114.6669726
35.08657443
16.73698108
9.477795003
5.802304056
3.701116295
2.415677874
1.596732186
1.061970898
0.7077162408
0.4712678398
0.3130440483
0.2072568305
0.1367041352
0.08982314613
0.05880953296
0.03850877528
0.02533039645
0.0167558419
0.01117709861
0.007489437533
0.004930748655
0.003193877343
0.002020017199
0.001267817921
0.0007812783901
0.0004728801719
0.0002850602478
0.0001740680503
0.0001083471483
6.892644248e-05
4.563509355e-05
3.174231676e-05
2.284588677e-05
1.67827696e-05
1.248854767e-05
9.245365705e-06
6.653177094e-06
4.633408598e-06
3.145535901e-06
2.109706438e-06
1.412259367e-06
9.489443886e-07
6.419305376e-07
4.367729824e-07
2.970850239e-07
2.004666678e-07
1.333096557e-07
8.719007998e-08
5.635702836e-08
3.649004349e-08
2.3856818e-08
1.215508706e-08
1.085241942e-09
166895499.1
52722439.7
8787415.838
972097.8223
82894.87171
4940.163835
380.3681241
74.69338105
28.73104778
14.97844894
8.905554024
5.657970579
3.73013256
2.511865084
1.711472681
1.172850935
0.8052354575
0.5524699966
0.3781757381
0.257994255
0.1752535005
0.1185567928
0.07985193928
0.05356513591
0.03580292404
0.02387307451
0.01592974769
0.01074504681
0.00732409121
0.005071468926
0.003542095448
0.002428490234
0.001630011394
0.001064738573
0.0006794469378
0.0004228419101
0.0002581379585
0.0001562200915
9.670661006e-05
6.229684557e-05
4.190725456e-05
2.872274124e-05
2.007016982e-05
1.431396776e-05
1.024648848e-05
7.029195798e-06
4.653537385e-06
3.054880327e-06
2.014343578e-06
1.340138446e-06
8.998551926e-07
6.096544655e-07
4.155514469e-07
2.831878721e-07
1.920007136e-07
1.296500631e-07
8.775007911e-08
5.940799868e-08
2.986287152e-08
2.728363846e-09
190875028.6
76679678.17
18057414.56
2558278.468
291190.6502
23388.47188
1596.853487
188.9791943
51.8993229
23.57540534
13.28905123
8.294075595
5.471755012
3.727459435
2.58721246
1.814337609
1.278440672
0.9017203039
0.6355545963
0.4469141743
0.3131280833
0.2184120478
0.1515802778
0.1046157376
0.07177686359
0.04895779697
0.0332190499
0.02246277105
0.01517035419
0.01026148719
0.006979106243
0.004822808621
0.00337316672
0.002379564219
0.001667620011
0.001145911182
0.0007649950688
0.0004986172148
0.0003121096244
0.00019254888
0.0001205939558
7.755131813e-05
5.066467614e-05
3.356524235e-05
2.290258684e-05
1.609183337e-05
1.098523108e-05
7.101668811e-06
4.518739902e-06
2.903893887e-06
1.895903837e-06
1.258113469e-06
8.468248263e-07
5.774725278e-07
3.98286647e-07
2.77251396e-07
1.949451255e-07
1.366274993e-07
7.056276326e-08
6.917027973e-09
208537159
99060760.28
30927493.31
5698086.026
796445.4744
98368.41701
8483.545856
716.2473956
114.8947568
38.4478482
19.28402519
11.52664088
7.524017059
5.161694924
3.639470599
2.606693541
1.88247966
1.363611863
0.9876092438
0.7137981301
0.5139654336
0.3682510549
0.2623370711
0.1857767642
0.1306820289
0.09127631683
0.06329030531
0.04358179342
0.02983157749
0.02033072823
0.01382853488
0.009419922945
0.006448071462
0.004448513878
0.003099028107
0.002181873481
0.001547682301
0.001092208015
0.0007638227084
0.0005241527137
0.0003440132402
0.0002198256771
0.0001394557196
8.882916954e-05
5.682454205e-05
3.68117209e-05
2.472502438e-05
1.682437073e-05
1.103894856e-05
6.916519346e-06
4.280517283e-06
2.716108607e-06
1.770506186e-06
1.183120788e-06
8.076865064e-07
5.649551637e-07
4.061086349e-07
2.951299043e-07
1.633901137e-07
1.813639812e-08
252412994.8
122246560
46145799.06
10829764.21
1771636.672
257440.4771
35172.86081
3419.998369
367.9094473
74.25456877
28.36135511
15.27312426
9.603959267
6.547692534
4.627249816
3.37086256
2.485791426
1.843057052
1.368150417
1.014256108
0.7496064612
0.5516775277
0.4038798092
0.2937462158
0.2120447723
0.1517913908
0.1077067204
0.07573129471
0.0527721618
0.03647758128
0.02507464518
0.0171912451
0.01179007767
0.008114484225
0.00562784784
0.003948026388
0.002808999507
0.002027786602
0.001473756916
0.001068560217
0.0007642088813
0.0005271910498
0.0003564210797
0.0002314399349
0.0001465066669
9.197623177e-05
5.795365458e-05
3.693183627e-05
2.431215826e-05
1.604840834e-05
1.0296239e-05
6.376690456e-06
3.93619759e-06
2.495646256e-06
1.653174619e-06
1.139778904e-06
8.204162255e-07
6.162040471e-07
3.813167184e-07
5.033189009e-08
298919784.3
143417874.3
62991135.8
18620111.6
3683326.017
614021.3826
94746.45166
14495.2981
1631.274233
218.3790659
51.19867681
20.82562552
11.77218988
7.68696147
5.345221174
3.885846538
2.875977421
2.149364657
1.613338942
1.212011916
0.9094371451
0.6808831469
0.5085355465
0.3788684927
0.2813148136
0.2079711945
0.1526388273
0.11098343
0.07985403246
0.05694346319
0.04018393217
0.02805978815
0.01947361683
0.0135020577
0.009397370206
0.006609083293
0.004710796413
0.003409596506
0.002505245886
0.001861107272
0.001389327753
0.001029582713
0.0007397189282
0.00051292896
0.0003378981162
0.00021739661
0.0001362672786
8.424781402e-05
5.213663391e-05
3.295707534e-05
2.125906104e-05
1.370993853e-05
8.74450894e-06
5.561481486e-06
3.584193451e-06
2.391156676e-06
1.676854165e-06
1.265088222e-06
9.18836418e-07
1.480237697e-07
331758828.2
158809823.8
79377759.89
28833957.58
7025755.64
1324449.577
233927.9893
40508.3118
7192.742212
982.6429401
148.072127
35.38468887
13.81970653
7.736880458
5.03341903
3.528643721
2.574983348
1.922314789
1.453801048
1.107361881
0.84643666
0.6477542005
0.4952573166
0.3779778218
0.2877778756
0.2184425495
0.1654311542
0.1249329904
0.09384669406
0.06976759875
0.05144458382
0.03767353447
0.02728084808
0.01952153179
0.01394441588
0.009964758249
0.007168563802
0.005223383079
0.003871047702
0.002910822215
0.002210740263
0.001684557429
0.001275643915
0.0009501291086
0.000686423366
0.0004695237686
0.0003036142393
0.0001878210671
0.0001146996706
6.978530717e-05
4.294386536e-05
2.724135185e-05
1.762199101e-05
1.145675598e-05
7.503038271e-06
5.004766001e-06
3.449920867e-06
2.503673891e-06
2.037496248e-06
4.498076132e-07
349860599.8
168339894.9
92899311.58
40204804.83
12055734.55
2663588.331
524351.5352
100540.842
20132.58503
4282.281984
733.9562983
108.8512669
22.51061519
7.823395144
4.064722993
2.562862037
1.776537163
1.297405165
0.9773032543
0.750451811
0.5832849738
0.4568694673
0.35957513
0.2837822342
0.224242298
0.1771744043
0.1397942626
0.1100125396
0.08622831384
0.06712124735
0.05168323886
0.03943340222
0.0299264205
0.02264014281
0.01701158186
0.01277223567
0.009556088418
0.007191187461
0.00543560038
0.004147842255
0.00320271258
0.002494474904
0.001943245016
0.00150153225
0.001140887453
0.0008433849415
0.0005995086177
0.0004049261645
0.0002569652829
0.000155949364
9.334426962e-05
5.661904903e-05
3.528318162e-05
2.259770168e-05
1.479866083e-05
9.910553376e-06
6.837848431e-06
4.947014995e-06
4.022948588e-06
1.348346818e-06
348974212.7
174796496
103216748.5
51117546.8
18549242.54
4869766.428
1063723.872
225577.7629
49040.49349
11373.55076
2789.068663
547.4031591
71.50395356
11.85057344
3.655291264
1.776829086
1.086210681
0.7459373454
0.5468106588
0.416979617
0.3261206039
0.2594258324
0.2088151893
0.1694843956
0.1383749149
0.1134279393
0.09319620977
0.0766276488
0.06293059419
0.05151410802
0.04198472887
0.03399242061
0.02731265824
0.02178359447
0.01722554476
0.01353600941
0.0107032086
0.008485768981
0.00675761209
0.005377651482
0.004278821995
0.003395154418
0.002706399168
0.002154323709
0.00169508505
0.00130834657
0.0009828763739
0.0007119415856
0.0004916797203
0.0003210533448
0.0001988243935
0.0001192651195
7.170668787e-05
4.432535224e-05
2.839108794e-05
1.884429392e-05
1.299610125e-05
9.436631322e-06
7.696774868e-06
3.873923726e-06
297678125.5
187925807.8
112353297.2
61357519.87
25938688.15
8097715.575
2013789.187
465499.7388
107374.0562
26364.47788
6855.228189
1783.767856
323.6111062
34.09601777
5.060033004
1.528304351
0.7320774601
0.4431435354
0.3034603593
0.2231024283
0.1716120767
0.1361194698
0.1103524898
0.09093137231
0.07587537626
0.06392833937
0.0542392922
0.04626328965
0.03958947445
0.03392272416
0.029054402
0.02482908148
0.02113744103
0.01790833851
0.01509130511
0.012651726
0.01057339799
0.008822120777
0.007344046543
0.006160180789
0.005145290859
0.004285300939
0.003511014871
0.002852573751
0.002309413362
0.001843990244
0.00144086062
0.001094534056
0.000801616545
0.0005606024509
0.000371368526
0.0002332902685
0.0001417388365
8.609845529e-05
5.377822146e-05
3.503679797e-05
2.399941547e-05
1.754374474e-05
1.467842156e-05
1.035808371e-05
241641951.1
204959917.8
120610467.9
70703968.57
33750766.21
12338438.39
3522451.771
883632.1924
218381.0443
55482.37512
14964.53231
4134.785768
1038.059937
136.9880353
11.94270329
1.948719503
0.6452120868
0.3182510898
0.193248924
0.1319068532
0.09674762773
0.074507822
0.05945946839
0.04877064542
0.04089953906
0.03491292955
0.03024855713
0.02652625839
0.02348852884
0.02094610041
0.0187639563
0.01684239228
0.01511135723
0.01352827015
0.01207129871
0.01073114454
0.009505003168
0.00839090277
0.007378253371
0.006467497261
0.005629514438
0.00487149522
0.00418720197
0.003541065696
0.002932690325
0.002403917038
0.001938616643
0.001526673154
0.001167388753
0.0008604071272
0.0006061336976
0.0004055547856
0.0002585693845
0.0001602624214
9.967961757e-05
6.407057589e-05
4.351181856e-05
3.212861232e-05
2.795450465e-05
2.530789095e-05
202545256.5
218285415.4
126735672.1
78624632.59
41555497.11
17466146.49
5741184
1590337.691
418411.2881
109709.8766
30206.00244
8657.468158
2330.716566
490.1963813
45.49701837
4.05786257
0.8085495694
0.3012695906
0.155633809
0.09522234789
0.06455236333
0.04693115573
0.03592258694
0.0286335125
0.0236035321
0.02004014821
0.0174510352
0.01552507242
0.01408345628
0.01298387622
0.01211197918
0.0113852363
0.01073460789
0.01011394948
0.009498476416
0.008879196132
0.008255840517
0.007632869895
0.007014793413
0.006405426675
0.005803742782
0.005202616953
0.004614364211
0.004046509567
0.003487779784
0.002931120502
0.002422225315
0.001964129394
0.00155298827
0.001191147748
0.0008805891095
0.0006233349974
0.0004212452679
0.0002737788646
0.0001748526724
0.0001132026192
7.686537249e-05
5.744844248e-05
5.195901157e-05
5.645238867e-05
173172338.5
226729225.2
130489286.4
84796676.1
48901551.28
23131964.6
8712014.519
2694301.347
753066.6625
207399.5528
57957.64898