/*--------------------------------*- C++ -*----------------------------------*\
  =========                 |
  \\      /  F ield         | OpenFOAM: The Open Source CFD Toolbox
   \\    /   O peration     | Website:  https://openfoam.org
    \\  /    A nd           | Version:  10
     \\/     M anipulation  |
\*---------------------------------------------------------------------------*/
FoamFile
{
    format      ascii;
    class       volScalarField;
    location    "3000";
    object      k;
}
// * * * * * * * * * * * * * * * * * * * * * * * * * * * * * * * * * * * * * //

dimensions      [0 2 -2 0 0 0 0];

internalField   nonuniform List<scalar> 
5170
(
7.397511371
7.396518822
7.39952002
7.487029543
9.549614609
6.788301052
6.790078056
6.794524204
6.938676182
12.709762
6.303497373
6.304407195
6.321896231
6.790316821
16.37162029
5.847094901
5.841416419
5.863934699
6.649996715
18.82432017
5.499736441
5.491646337
5.509691341
6.582090461
21.47967981
5.13199416
5.122259308
5.212181347
6.538224391
23.09755691
4.838475176
4.810763552
4.792741273
6.504150967
23.86107596
4.557178498
4.524649442
4.511821585
6.512320988
24.31901538
4.32471576
4.287732946
4.316657644
6.579886792
24.5473057
4.070874647
4.032537913
4.140126125
6.709815619
24.60867731
3.86496047
3.829488211
3.957565446
6.987220642
24.5549576
3.654481946
3.605969632
3.808407157
7.305522478
24.4289779
3.476849265
3.45687424
3.714228478
7.677202069
24.2652877
3.304866836
3.278796377
3.664444705
8.10839031
24.08819857
3.138038618
3.159991167
3.674977229
8.586303286
23.90931895
3.024262508
3.029191549
3.736627701
9.376503305
23.7375006
2.858496498
2.929280406
3.84910096
9.833548096
23.58441912
2.776764124
2.875739096
4.018866531
10.87199247
23.45971729
2.637551772
2.839554207
4.232243928
11.39985583
23.37352804
2.599323475
2.870166486
4.635664112
13.13043463
22.07402802
0.4397034743
0.6956734391
0.7219178093
0.6702832726
0.4082930875
0.2039189366
0.612871041
0.6556439253
0.5662042749
0.1600003947
0.1083093019
0.5100674487
0.5543021892
0.4157424116
0.0718902932
0.07597802054
0.4076359666
0.4703014135
0.4090810877
0.05105181451
0.06138076138
0.3682832004
0.4235003086
0.4624088841
0.05082770723
0.05280922762
0.3372258305
0.3909959082
0.5762871899
0.060058133
0.05065497686
0.3488363701
0.3990869538
0.8298566171
0.08481568289
0.05094513556
0.3627377819
0.4331966147
1.165042683
0.1207479067
0.05219803856
0.3747895314
0.4831886104
1.462418022
0.1580841101
0.05463127119
0.3938449498
0.5430099994
1.716351953
0.1938456972
0.05713816209
0.411829335
0.610494012
1.96827828
0.2300595657
0.0597249681
0.4311798978
0.6757529405
2.177111895
0.261650156
0.06182029432
0.4435021657
0.739337702
2.356227691
0.2903251234
0.0644506953
0.4618762694
0.8039596628
2.518634791
0.3175640649
0.06665862924
0.4750458167
0.8707098804
2.724941066
0.3445250955
0.06943071511
0.4935891087
0.9289515332
2.798285876
0.3583421642
0.07230588472
0.5036322061
0.9848080355
2.845080526
0.3749529833
0.07916395444
0.5262431691
1.066980994
3.054322637
0.4041354653
0.09473303153
0.5395660404
1.178729947
3.122555249
0.4162120739
0.8544295874
0.8031440818
1.515225599
3.287747608
0.4475259267
2.511671786
2.850023428
5.002922096
13.1118633
19.88195386
2.47182168
2.87203103
5.418132733
13.42935281
22.10386114
2.412429007
2.923612062
5.809191049
14.14748896
25.83821428
2.395199634
3.02769738
6.433160414
15.82119024
30.3051527
2.402135504
3.198371578
7.325959789
17.54445734
32.48582007
2.43373997
3.421697672
7.999619355
18.92007872
34.15450496
2.518203832
3.818759486
9.217106565
21.87419592
37.10556806
2.678138321
4.528310706
11.57323274
25.608336
40.40669471
2.948114637
5.636068182
14.5684225
28.6972851
42.7912039
3.394290426
7.199937663
17.78476235
31.38314127
44.9142112
4.323394593
9.578331974
20.92059596
33.84508359
46.80697882
5.909147476
12.10036356
23.3712078
35.8057339
48.21891232
7.808450367
14.44554016
25.53582156
37.58936063
49.48965085
9.994037494
16.85902963
27.73736383
39.42152391
50.84858414
13.1644144
19.70836868
30.16430441
41.37214304
52.25864641
17.10130779
23.00083081
32.70458171
43.24495957
53.49546091
21.89467924
26.73617403
35.25889653
44.86166925
54.34032583
26.36418898
30.32172931
37.54573648
46.07163239
54.70740447
30.63844887
33.71254594
39.67389694
47.05617223
54.80009754
34.07838013
36.59848519
41.52572146
47.86251131
54.74412601
37.12102154
39.1220623
43.2002745
48.61804534
54.69305852
39.62016885
41.31692914
44.75347355
49.4128072
54.75882641
41.92291982
43.31287522
46.20931972
50.2072648
54.88457062
43.81704854
45.00110646
47.43803117
50.83745042
54.87538166
45.28968156
46.25783219
48.30174256
51.18586196
54.67122658
46.15623819
46.97980016
48.68931129
51.12247569
54.1033151
46.55923833
47.228034
48.66131193
50.73295565
53.24804916
46.55832142
47.14540758
48.36006171
50.08308154
52.23445295
46.36830914
46.83602225
47.83787976
49.30530397
51.15358715
45.93600238
46.34725098
47.21308156
48.47918141
50.08176661
45.46601154
45.81101026
46.55475449
47.6480303
49.0413452
44.88164505
45.18885389
45.8352941
46.78809358
48.00911161
44.21639022
44.47697011
45.04148187
45.87901854
46.96020904
43.4073611
43.64922043
44.15830837
44.91508423
45.89610242
42.63676397
42.85278323
43.32207485
44.02182013
44.93044566
42.04190401
42.24978929
42.6882864
43.33919757
44.1807281
41.72803505
41.91098966
42.3068827
42.89374571
43.65011632
41.53180288
41.69668521
42.04412644
42.5570694
43.21567463
41.33113369
41.46755712
41.76195249
42.19661443
42.75386935
41.00005027
41.11698322
41.36270823
41.72377336
42.18433119
40.5220139
40.61308867
40.80876147
41.09579719
41.46046926
39.80403733
39.87619994
40.02711602
40.2476222
40.52685726
38.84862014
38.90203751
39.01650356
39.18401145
39.39612123
37.71234773
37.75479356
37.84299697
37.97154866
38.13373904
36.4860507
36.51753228
36.58473157
36.68265439
36.80581206
35.20820582
35.23298877
35.28393519
35.35761958
35.44953733
33.90784405
33.92521417
33.96198806
34.01498906
34.08050264
32.57804535
32.59060992
32.61584764
32.65166265
32.69504884
31.21908472
31.22641762
31.2415782
31.26270998
31.28740058
29.82569716
29.82969721
29.83697057
29.84640036
29.85610101
28.4115159
28.41220459
28.41309583
28.41326519
28.4112482
26.99068706
26.9894475
26.98578619
26.97923486
26.96867348
25.58469646
25.58168892
25.5746778
25.56330983
25.54672498
24.20757727
24.20368717
24.19455324
24.1800782
24.15960991
22.87228165
22.8676185
22.85710631
22.84070032
22.81790173
21.5848562
21.57994306
21.56876828
21.55142449
21.52753587
20.35118986
20.34606955
20.33463862
20.31700451
20.29288164
19.17323623
19.16821024
19.15691239
19.13952055
19.11582072
18.05435332
18.04941906
18.03845163
18.02162332
17.99877039
16.994181
16.98950693
16.97906001
16.96304687
16.94134261
15.99497397
15.9905314
15.98068007
15.96561197
15.94522788
15.05326867
15.04914791
15.03996588
15.02592936
15.00695943
14.17214751
14.16830195
14.15978555
14.14678695
14.12924034
13.34209757
13.33857849
13.33075059
13.31880488
13.30268717
12.57409932
12.57085249
12.56366764
12.55271835
12.53795814
11.83885927
11.83592894
11.82941663
11.8194916
11.80612549
11.18865349
11.18595495
11.17998648
11.1709031
11.1586694
10.49849498
10.49613982
10.4909066
10.4829325
10.47219986
10.04381065
10.04152005
10.03645413
10.02874789
10.01838276
9.149679892
9.147821909
9.143740146
9.137559017
9.129315772
26.55028195
36.74825729
39.46840165
41.51535777
42.52305216
43.77424477
46.57604598
49.47253729
51.36512912
53.15396955
54.69363754
55.73770228
56.67533743
57.75131036
58.81151292
59.6604768
60.08973723
60.05097262
59.71339977
59.21988716
58.75045431
58.42517274
58.14809289
57.75821533
57.17536144
56.26983483
55.11822257
53.85456154
52.56059617
51.31183017
50.11974683
48.96157221
47.81061197
46.67171073
45.64929819
44.84332085
44.24306875
43.72991371
43.1877006
42.54065787
41.74101453
40.74099097
39.55856547
38.25740623
36.89916788
35.51846561
34.12887897
32.72614416
31.30400179
29.86107591
28.40721939
26.95809105
25.53158991
24.14157207
22.79818983
21.50710409
20.27240664
19.09580447
17.97954703
16.92313758
15.92817328
14.99111695
14.11462828
13.28926541
12.52569761
11.79501478
11.14852657
10.46328086
10.00978578
9.122555084
39.81505167
9.673993081
3.46865374
2.711149281
0.5691670346
54.07418866
36.83013137
11.11338848
3.592352753
0.8386305174
55.62517729
50.98556217
29.92156707
10.85658754
2.516395698
55.7365193
58.0635646
47.45844652
27.31584927
9.235101361
55.83192631
63.24511033
58.34925684
39.63452236
18.96670871
56.72692123
67.76842439
65.81495645
50.35087355
29.77776757
59.31118035
70.85986622
70.56696431
58.71910308
39.60486272
61.64327064
73.05919083
74.16539365
65.46630046
48.09371475
62.86734599
74.06934423
77.09880351
70.96727917
55.5455873
64.23609241
75.63813843
79.57598029
75.1683902
62.13193757
65.29560014
76.44596126
80.72611198
77.7300422
67.31550761
65.83923231
76.68293645
81.48485073
79.96704339
71.85458639
66.35015228
77.08167911
82.53736907
82.2927837
75.95607731
67.07232836
77.72015691
83.57591615
84.15144809
79.14900017
67.66144183
77.89295098
83.81402775
84.99962511
81.17409107
67.97303005
77.72956862
83.59084673
85.20363102
82.46588739
67.87370655
77.21161978
83.04955915
85.1047226
83.32370319
67.36098187
76.21887906
82.09017689
84.74215988
83.89499613
66.44474448
74.9619342
80.92365957
84.0386775
83.97499865
65.42063504
73.57927154
79.56817836
83.01407129
83.60001412
64.42198298
72.16469254
78.10800555
81.83273272
83.00509861
63.58724144
70.838627
76.58452454
80.38784197
81.91959142
62.77005845
69.4451419
74.90647616
78.72664271
80.59121104
61.86601768
67.97061413
73.14793965
76.96233666
79.1199962
60.76849265
66.27336874
71.11187987
74.87272263
77.22881694
59.39674529
64.31926643
68.78797389
72.4174924
74.87745058
57.83230526
62.21674847
66.320819
69.78986261
72.32101164
56.21736758
60.12358368
63.88178707
67.16839369
69.69029145
54.62145171
58.09856053
61.52765441
64.62083588
67.10600396
53.11994855
56.22611266
59.35853517
62.26171507
64.6777862
51.71036319
54.48877788
57.34771543
60.05916613
62.37930481
50.37089132
52.87169325
55.49162983
58.02342919
60.23436892
49.07276525
51.34367491
53.75492422
56.11230959
58.19435176
47.82495686
49.9153649
52.14674602
54.33508849
56.27429783
46.7180995
48.65217346
50.70896454
52.71669227
54.4887597
45.82670129
47.59155382
49.45182879
51.25140933
52.82443075
45.12156002
46.68558731
48.31939898
49.88308323
51.22958572
44.49062107
45.83556777
47.22750001
48.54121736
49.64855375
43.82854195
44.95262758
46.10096088
47.16424251
48.03833916
43.06566311
43.97461712
44.88771436
45.71660733
46.3806617
42.15341339
42.85941521
43.5595554
44.18472759
44.67062218
41.05540072
41.59040967
42.11602467
42.5768273
42.92009008
39.79689543
40.19993194
40.59087924
40.92455705
41.15729199
38.4385184
38.74136759
39.02923256
39.26493106
39.4121507
37.03552775
37.25975609
37.46636141
37.62451183
37.70393583
35.61868872
35.77909963
35.91951236
36.01433098
36.03836852
34.19871856
34.30559635
34.39048372
34.43224127
34.41015936
32.77041653
32.83219695
32.87037499
32.86767073
32.80724658
31.32687263
31.35113854
31.3507366
31.31179125
31.22029346
29.86679253
29.86113853
29.8302946
29.76299699
29.6482067
28.39969264
28.37121602
28.31750785
28.22967647
28.0989125
26.9409484
26.89613934
26.82654301
26.7251215
26.58488244
25.50780411
25.45205011
25.37232018
25.26304182
25.11865768
24.11357857
24.05121133
23.96592312
23.85329677
23.70890544
22.76781149
22.70210462
22.61471379
22.50212361
22.36079193
21.47574735
21.40917529
21.32225262
21.21217399
21.0760931
20.24107416
20.17541253
20.09079277
19.98496564
19.85563063
19.06523375
19.00174952
18.92070799
18.82029789
18.69864957
17.95023147
17.88977123
17.81314493
17.71888102
17.60544936
16.8954051
16.83849697
16.76676981
16.67901358
16.57396824
15.90221644
15.84916133
15.78258918
15.70149093
15.60482004
14.96702089
14.91791207
14.85650996
14.78196404
14.6934012
14.09241407
14.04725084
13.99094578
13.92278213
13.84202798
13.26888559
13.22755431
13.17615765
13.11405821
13.04064649
12.50707428
12.46941781
12.4226691
12.36630904
12.29981486
11.77815293
11.74401146
11.7017445
11.6508493
11.59088948
11.13313066
11.1021047
11.06370119
11.0175349
10.96322726
10.44974531
10.42237857
10.38854461
10.34787152
10.30003049
9.996740504
9.970430534
9.937970741
9.899113541
9.853624113
9.112341702
9.092072323
9.067452167
9.038331124
9.00428241
0.01960796021
0.002358804376
0.002541211968
0.0027221147
0.002798715602
0.002793802428
0.002785044453
0.002775986361
0.00276657915
0.002757795375
0.0027505258
0.002743656956
0.002738427782
0.002734759673
0.00273318311
0.00273290902
0.002733869522
0.002735484547
0.002737183568
0.002738712446
0.002739750278
0.002740078135
0.002739710136
0.002738702003
0.00273717037
0.002735283559
0.002733205671
0.002731104365
0.002729112026
0.002727283077
0.00272560472
0.002724032127
0.002722543243
0.002721108453
0.002719718023
0.002718357358
0.002717032857
0.002715752431
0.002714520794
0.00271334087
0.002712228284
0.002711150155
0.00271004652
0.002708878938
0.00270760703
0.002706369294
0.002705326554
0.002704377377
0.002703439089
0.002702540891
0.002701685902
0.002700884118
0.002700144777
0.0026995204
0.002699112989
0.00269892696
0.00269873756
0.002697698231
0.002692194693
0.002644234753
0.05420443522
0.003235009634
0.002633487076
0.00301206462
0.003159839014
0.00314917539
0.0031198628
0.003074232408
0.003028593896
0.002983285321
0.00294245005
0.002905404525
0.002874405673
0.002847790903
0.002826232622
0.002809601038
0.002798309459
0.002791121152
0.002787401154
0.002785755942
0.002785524005
0.002786155373
0.002787012105
0.00278741363
0.002786991463
0.00278558077
0.002783319584
0.002780498294
0.002777322595
0.002773906424
0.002770379953
0.002766771475
0.002763110497
0.00275948315
0.002755989701
0.002752652318
0.002749450436
0.002746343016
0.002743289985
0.002740293869
0.002737390754
0.002734597994
0.002731915453
0.002729390799
0.002727084843
0.0027248977
0.002722745668
0.002720638494
0.00271862757
0.002716793875
0.002715153184
0.002713727272
0.002712526117
0.002711580251
0.002710868449
0.002710278007
0.002709042002
0.002704474666
0.002684566774
0.002529929259
0.2145914013
0.009091630036
0.003945818372
0.004207002528
0.004409936023
0.00440013367
0.004280279606
0.004108718562
0.003927226278
0.003749512137
0.003582497028
0.003432695349
0.003302650626
0.003191335314
0.003099930701
0.003025952898
0.002969563243
0.002928196097
0.002902674498
0.002887101334
0.002879578335
0.002879915727
0.002884898173
0.002891588667
0.002898360213
0.002903907738
0.002907088753
0.002907081029
0.002903984933
0.002898090158
0.002889991483
0.002880208182
0.00286938129
0.002858343973
0.002847799331
0.002838035979
0.002828954035
0.002820256519
0.002811628634
0.002802929206
0.002794240351
0.002785878075
0.002778273875
0.002771680683
0.002765971687
0.002761084587
0.002756978666
0.002753655027
0.002750726282
0.002747867583
0.002744932729
0.002742105838
0.002739663071
0.002737786956
0.002736484884
0.002735093496
0.002731411288
0.002719504056
0.002678086414
0.002448806502
1.663556458
0.1273839906
0.01196928597
0.008196554946
0.00861817268
0.00859155039
0.008155183465
0.00757385463
0.006943264498
0.006324581019
0.005732361281
0.00519568619
0.004720980054
0.004315417303
0.003978674052
0.003706781157
0.003494374275
0.003330969665
0.003208913014
0.003120197323
0.003058833593
0.003017834747
0.002993662304
0.002981026963
0.002976356409
0.002977169196
0.00298123969
0.002985963672
0.002989913721
0.002992110813
0.002991980341
0.002989038633
0.00298308323
0.002974430464
0.002963761913
0.002951985987
0.002940027006
0.002928530075
0.002917734234
0.002907365379
0.002896992462
0.002886166794
0.002874514865
0.002861987391
0.002849321017
0.002837461878
0.002827144136
0.002818738854
0.002812447845
0.002807972904
0.002804675851
0.002801849197
0.002799049297
0.002796401733
0.00279377315
0.002789527276
0.00277915309
0.00275168509
0.00267160929
0.002344411953
4.713842669
0.6279479053
0.05774202533
0.02170546693
0.02191962694
0.02187689169
0.02056691062
0.01877821644
0.01678369289
0.0147637534
0.01279230891
0.0109796734
0.009368109855
0.007988960391
0.006843515055
0.005928340672
0.005202535421
0.004630177651
0.004182905799
0.003843615691
0.003593568172
0.00341231166
0.003283389595
0.0031936635
0.003132422905
0.003090737981
0.003063166651
0.003045239091
0.003033297351
0.003024790312
0.003018120051
0.00301267952
0.003007334508
0.003001967778
0.002996000314
0.002988825295
0.002980797749
0.002972859208
0.002965959518
0.002960673846
0.002956720357
0.002953183936
0.002948718661
0.002941982077
0.002932472178
0.002920597213
0.002907437154
0.00289447905
0.002883116808
0.00287439855
0.00286862601
0.002865613964
0.002864366768
0.002863731595
0.002861890823
0.002854805433
0.002835239427
0.002787333433
0.002661205964
0.002224013181
10.86519634
2.360705671
0.3282649752
0.07115372331
0.06350536241
0.06328120514
0.05977574591
0.05449853233
0.04827316599
0.04169573815
0.03520295785
0.02933727489
0.02416313166
0.01972476286
0.0161492954
0.01327459594
0.01090224664
0.008957459317
0.00741485431
0.0062328288
0.005356982167
0.004719661156
0.004245973234
0.003895743331
0.003640977064
0.003459305276
0.00333032091
0.003238379137
0.00317289266
0.003126571432
0.003093893763
0.003070652635
0.003054589137
0.003045138513
0.003039424074
0.00303525905
0.003031008798
0.00302613945
0.003021067845
0.003016634025
0.003014051209
0.00301388642
0.003015874073
0.003018526
0.003019810801
0.003017874429
0.003011953469
0.003002115466
0.002989713434
0.002976583935
0.002964772873
0.002955891124
0.00295040078
0.002947122135
0.002942590124
0.002929709711
0.002897442303
0.002824346335
0.002647661157
0.002161493278
19.94204243
5.933881623
1.273676006
0.2317844709
0.1084851515
0.1117376102
0.1113782149
0.1071663495
0.1006612105
0.09275061327
0.0839432218
0.07445637419
0.06474032866
0.055163901
0.04586575636
0.03722487665
0.02950431719
0.02296835092
0.01788850894
0.01400342522
0.01121732323
0.009119510983
0.007486544508
0.006254383297
0.00534818657
0.004703654927
0.004237731944
0.00389423352
0.003643703464
0.003465000091
0.00333999715
0.003252223763
0.003191493629
0.003153016228
0.003136663444
0.003132716172
0.003133282419
0.003133050285
0.003130194168
0.003123771079
0.003114567623
0.003106127202
0.003102298022
0.003104717516
0.00311295872
0.003124139019
0.003134479869
0.003140706319
0.003140937467
0.003135445091
0.003125579728
0.003113759491
0.003101842831
0.003089851708
0.003074257522
0.003046152484
0.002991077828
0.002881176827
0.00264194136
0.002093560039
28.11549762
12.53964174
3.508399716
0.7772419375
0.2201813471
0.1497793954
0.1467271391
0.1437890705
0.1383631718
0.1310150938
0.122370317
0.1129169518
0.1030283306
0.09299513823
0.08303380432
0.07331226589
0.06395849726
0.054924113
0.04608977443
0.03779190362
0.03010432546
0.02339292045
0.01790641478
0.01384536849
0.01089723824
0.008836099643
0.007266823359
0.006075667423
0.00520296995
0.004586272413
0.004150534579
0.003837240007
0.003616701225
0.003468639165
0.003380881025
0.003348819902
0.003344369329
0.003347619177
0.003354460502
0.00334564934
0.003316820569
0.003284436638
0.003253735444
0.003231102016
0.003222398907
0.003228568271
0.003246102776
0.003269093651
0.003291060874
0.003307346468
0.003315567034
0.003315349749
0.003307455699
0.003291398879
0.003263417934
0.003214303971
0.003127201214
0.002966718025
0.002641781336
0.001964184572
35.65443362
18.38090748
7.54235577
2.042379227
0.4887603044
0.2088182578
0.1715036831
0.166169131
0.1614714052
0.1551080093
0.1473027537
0.1385031851
0.1291118419
0.1194477178
0.1097499058
0.1001905203
0.09088768078
0.08190796629
0.07326274207
0.06496848853
0.05703952597
0.04949590248
0.04221543345
0.035071286
0.02834669881
0.02221150661
0.01699080069
0.01306304637
0.01021503327
0.008267837271
0.006817258972
0.00573615146
0.004969459033
0.004451629879
0.004113162465
0.003906848907
0.00381767695
0.003785419485
0.003768930875
0.003770038338
0.003751412038
0.003680960585
0.003577112741
0.00348824922
0.003425261259
0.003388365209
0.003377664174
0.00339023561
0.003419223341
0.003454843743
0.003488058278
0.003512465709
0.003522944441
0.003516156079
0.003485725401
0.003420887473
0.003302247163
0.003086071747
0.00265190942
0.001913121968
43.16926218
24.74129165
12.00267222
4.456178159
1.192029676
0.3408365405
0.2015913416
0.1791282822
0.1726743855
0.1668298759
0.1600034941
0.1522432132
0.143829522
0.1350489702
0.1261434804
0.117298973
0.1086473906
0.1002735136
0.0922212468
0.08450427041
0.07711663007
0.07003895414
0.06323485536
0.0566418673
0.05023146761
0.04399448828
0.03791566996
0.03173658014
0.02574828128
0.02014496959
0.01533997626
0.01176481429
0.009251591832
0.007590022001
0.006412523453
0.005592015722
0.005069173865
0.004786893138
0.004611265232
0.004482057006
0.004389595938
0.004327092865
0.004237782103
0.004080168413
0.003888334956
0.003730090822
0.003637918531
0.003592015134
0.003582794139
0.003602737866
0.003640410912
0.003681408323
0.003712275673
0.003721397955
0.003698292192
0.003627690493
0.003486908062
0.003223197701
0.002689792845
0.001876247437
50.11987445
31.3795326
17.09123398
7.888496263
2.577181136
0.7063727326
0.2634130223
0.191978256
0.1762816764
0.169307502
0.1630054613
0.1562352962
0.1489383642
0.1412819416
0.1334408973
0.1255875505
0.1178610971
0.1103585476
0.103139883
0.09623378263
0.08964344484
0.08335299103
0.07733186351
0.07153676656
0.06591818135
0.06042732498
0.05501758852
0.04962602222
0.0442149593
0.03879282032
0.03339744601
0.02784072256
0.02247793232
0.01760907833
0.01362246255
0.01076250855
0.008813164668
0.007497117027
0.006614598452
0.006004954358
0.005579666601
0.005274908356
0.005067773369
0.004920778331
0.004756053214
0.004526345345
0.004260331994
0.00403562683
0.003911935885
0.003857878284
0.003848195116
0.00386473824
0.003888815173
0.003898608257
0.003876181845
0.003801562363
0.003644118728
0.003342257027
0.002736012058
0.001852707324
56.47472946
37.92398966
22.51170673
11.80281371
5.25114761
1.621360002
0.4835801185
0.2234658317
0.1786035355
0.1675608574
0.1612623338
0.1550610754
0.1483968664
0.1413477944
0.1341565228
0.126988324
0.1199623216
0.1131699124
0.1066714796
0.100500483
0.09466917883
0.08917163954
0.08398063999
0.07904814366
0.07433120473
0.06978009498
0.0653404887
0.06095511191
0.05656614165
0.05212365526
0.04759159628
0.04293385435
0.03815162462
0.03331683411
0.02854868446
0.02380589428
0.01935439047
0.01542571347
0.01218943027
0.00984086663
0.00828685603
0.007242618631
0.006532097196
0.006044572126
0.005721629952
0.005490492582
0.005258972828
0.004982140556
0.004676919722
0.004427814467
0.004272936838
0.004201898905
0.004168977032
0.004141213366
0.004093856776
0.003994410403
0.00380271222
0.003451713795
0.002785887147
0.001849374776
62.08207633
43.86140214
27.67437579
15.74377995
7.974417867
3.410527665
1.063659407
0.3536521917
0.1894196662
0.1589062555
0.1520513061
0.1470504039
0.1416426094
0.1357252575
0.1296480609
0.1233550714
0.1170673769
0.1109192975
0.1049979578
0.09935663981
0.09402125503
0.08899653493
0.08428659607
0.07990841431
0.07582738899
0.07200321757
0.0683929703
0.064949337
0.06162155921
0.05835234629
0.05504865136
0.05164648227
0.04809010324
0.04434225323
0.04039156946
0.03624540091
0.03193961336
0.02755992971
0.02323554605
0.0190264827
0.0152128144
0.01210499073
0.009824291768
0.008344948099
0.007376208767
0.006731743619
0.006298320851
0.006021124702
0.005752636726
0.005461405403
0.005177627008
0.004939604028
0.004768150724
0.004638446569
0.004505320516
0.004326635756
0.004056621242
0.00361902095
0.002872002718
0.00187985345
66.96466282
49.60019819
33.05046817
20.05932746
11.10485726
5.492062752
2.285191386
0.7335891363
0.2657836475
0.1500831249
0.1265403015
0.122576952
0.1196694103
0.1161889963
0.1120333175
0.1076476134
0.1031634157
0.0986850692
0.0942996479
0.09013127256
0.08618720396
0.08247229822
0.07896156151
0.07563287872
0.07246959563
0.06944381418
0.0665855833
0.06383688818
0.06116706327
0.05855375971
0.05605645003
0.05363182342
0.05122054039
0.04876345138
0.04617667778
0.04333690532
0.04019328553
0.03672325251
0.03295152206
0.02894537408
0.02482395944
0.02078106908
0.01701878876
0.01371607812
0.01114875268
0.009343317817
0.008180368996
0.007448487456
0.006987642287
0.00664286347
0.006329776503
0.006026305152
0.005741193837
0.005475268063
0.005207476652
0.004901609485
0.004507240481
0.003938010185
0.00304240728
0.00196508692
70.91095293
54.94422842
38.55213633
24.79172726
14.71610981
8.035072701
3.951069561
1.649547539
0.5502855692
0.2053448427
0.1140527273
0.0931863805
0.09028777926
0.08870111431
0.08667305367
0.08428953222
0.08166655404
0.07892381402
0.07615308095
0.073420557
0.07077114138
0.06825335605
0.06592068321
0.06378483045
0.06185698791
0.06014226946
0.05857347607
0.05714170613
0.05583786389
0.05461085902
0.05327994299
0.05178714839
0.05016175696
0.0484566184
0.04665048972
0.04482044236
0.04287247131
0.04071878736
0.03821277828
0.03531602153
0.03203540814
0.02844780862
0.02468841913
0.0209336454
0.01740956845
0.01434343028
0.01189935681
0.01011495708
0.008928752235
0.008178379128
0.007677858367
0.007286491807
0.006929783366
0.006573888673
0.006194873869
0.005763367567
0.005233487021
0.00451867232
0.003407646896
0.002131415207
74.06189423
59.72705822
43.90939308
29.73694868
18.71991966
11.00905434
6.032738387
3.034823493
1.327535471
0.4673302385
0.1711948001
0.08872220796
0.06915572694
0.06601045576
0.06513418313
0.06428414878
0.06325206559
0.06205859966
0.06075234358
0.05937471197
0.05795447599
0.05651300545
0.05506922621
0.05364101129
0.0522419274
0.05089117105
0.04962340497
0.048468575
0.04745688838
0.04661825817
0.04603790482
0.04571386167
0.04549003957
0.04518778672
0.04467648352
0.04370523108
0.04248634212
0.04099513809
0.03939281659
0.03758982756
0.03546033178
0.03291045453
0.02996177823
0.02670983883
0.02329700651
0.01991189522
0.01676660787
0.01405630854
0.01192735759
0.01041379294
0.009414998334
0.008754561869
0.008262478671
0.00782284944
0.007367111678
0.006848457711
0.006217274082
0.005388671595
0.004152118602
0.002392253045
76.69098438
63.92811713
48.8956832
34.64928524
22.95622603
14.33939504
8.485487365
4.752137187
2.485350284
1.154151098
0.4261246092
0.1497558955
0.07148663344
0.05413689318
0.05084754608
0.05003006639
0.04957284826
0.0491226347
0.04862236671
0.04807359765
0.0474858783
0.04686792137
0.04622547318
0.04556122929
0.04487685489
0.04416904087
0.04343375814
0.0426756873
0.04191077071
0.04116683279
0.04049286953
0.03995029346
0.03959498477
0.03943916211
0.03951244681
0.03978612503
0.03987565831
0.03961932271
0.03880019725
0.03757792658
0.03614279907
0.03449650751
0.03248268579
0.03006208016
0.0272962501
0.02428940119
0.02119270362
0.01819333103
0.0154933447
0.01326704073
0.0116026888
0.01045785544
0.009680356567
0.009093059422
0.008559064907
0.007987371979
0.007306049082
0.006421603806
0.005112803344
0.002758321872
78.85161752
67.61429007
53.52811334
39.46750323
27.33870575
17.9434548
11.24267791
6.748456769
3.866527668
2.07443118
0.9877699627
0.3604972007
0.1222615805
0.05866818077
0.0456412634
0.04257550943
0.04143576355
0.04077660224
0.04023285206
0.03972476125
0.03923871204
0.03877947295
0.03835504486
0.0379725478
0.03763728127
0.03735235773
0.03711615652
0.03691983816
0.03675011938
0.03659271252
0.03643384459
0.03626717394
0.03609524072
0.03594221601
0.03585935854
0.03589853976
0.03605767702
0.03626775603
0.03646716271
0.03631184906
0.03568790841
0.03453910567
0.03318493634
0.03151996048
0.02946551552
0.02706076381
0.02438780627
0.02157284067
0.01878094252
0.01620188805
0.0140144805
0.01232800075
0.01112765747
0.01028113583
0.009616204565
0.00898798685
0.008285389128
0.00739212329
0.006062126984
0.003234349015
80.21825208
70.58121112
57.62208937
43.99418947
31.66627448
21.66635096
14.20804856
8.970542815
5.446005913
3.144204176
1.676934375
0.7655057918
0.2555298718
0.08810627474
0.04917783903
0.04080938671
0.03819512107
0.03683449915
0.03577667249
0.03482712581
0.03394427251
0.03312910037
0.03239573547
0.03176488745
0.03125500285
0.03088279973
0.03066368968
0.03060749318
0.03071321142
0.03097416174
0.0313736185
0.03187477006
0.03242415513
0.03296064399
0.03343315822
0.03380785909
0.03408161413
0.03426773577
0.03438865942
0.03439444513
0.03427016951
0.03389724579
0.03307776577
0.03190651034
0.03041108226
0.02857514501
0.02641632699
0.02399327617
0.02141095609
0.01881696192
0.01638979267
0.01430217548
0.01266127407
0.01145516449
0.01056167504
0.009818028347
0.009074306308
0.008182799322
0.006867410816
0.003813710139
80.8595484
72.83587896
61.15988939
48.21012165
35.92951036
25.5055424
17.3718591
11.41049497
7.22733704
4.383795106
2.49885057
1.279668497
0.5250517536
0.1663439616
0.06368725584
0.04309750121
0.0379777771
0.03582483206
0.03426514472
0.03285830783
0.03151466414
0.03023202689
0.02903375507
0.02795084029
0.02701484005
0.02625656465
0.02570780309
0.02540840144
0.0253756844
0.02562835782
0.0261753524
0.02699695219
0.02803671094
0.02920268477
0.03038603686
0.0314783371
0.0323883035
0.03306388675
0.0334835846
0.03364355536
0.03356689699
0.03329745278
0.03276075172
0.03194469862
0.03081038331
0.0293867854
0.02766667866
0.02566278998
0.02341604203
0.02101847862
0.01860800844
0.01635026805
0.01440087399
0.01284239212
0.01164629603
0.01069613834
0.009840705198
0.008911643724
0.007616612056
0.004559830641
81.07985694
74.57767713
64.22060872
52.09964155
40.0605
29.3858047
20.69320709
14.05889158
9.224083589
5.816109742
3.480515906
1.925066859
0.9219564508
0.3251271597
0.1046621113
0.05079234493
0.03942277109
0.03610247012
0.03424719718
0.03263156004
0.03105412101
0.02949181012
0.02796991006
0.02652948912
0.02521439622
0.02406613167
0.0231252659
0.02246225326
0.02209842062
0.02206173348
0.02239310807
0.02311343885
0.02419668985
0.02556557606
0.02710033204
0.02866138317
0.03011384614
0.03135035443
0.03230089996
0.03292165764
0.03318686147
0.03311437794
0.03275258101
0.03210428092
0.03120755354
0.03004117458
0.02861768486
0.0269328822
0.02502024726
0.02290784607
0.0206810468
0.01846591677
0.01640679559
0.01462087964
0.01314803688
0.01194142725
0.01089517492
0.009856704534