/*--------------------------------*- C++ -*----------------------------------*\
  =========                 |
  \\      /  F ield         | OpenFOAM: The Open Source CFD Toolbox
   \\    /   O peration     | Website:  https://openfoam.org
    \\  /    A nd           | Version:  10
     \\/     M anipulation  |
\*---------------------------------------------------------------------------*/
FoamFile
{
    format      ascii;
    class       volScalarField;
    location    "3000";
    object      N;
}
// * * * * * * * * * * * * * * * * * * * * * * * * * * * * * * * * * * * * * //

dimensions      [0 0 0 0 0 0 0];

internalField   nonuniform List<scalar> 
5170
(
1.749714774e-66
1.404537425e-66
8.614541856e-67
4.20924851e-67
3.353422172e-67
6.05885938e-64
4.810814327e-64
2.899369547e-64
1.660351727e-64
2.968207367e-64
2.116154284e-61
1.667753496e-61
1.000425931e-61
7.813852071e-62
2.389708817e-61
7.510202969e-59
5.914597001e-59
3.663390127e-59
4.089368978e-59
1.755197665e-58
2.704154162e-56
2.149625882e-56
1.429706206e-56
2.258651999e-56
1.195799501e-55
9.911648965e-54
8.056003511e-54
5.893540033e-54
1.278282613e-53
7.649140362e-53
3.69311747e-51
3.09641918e-51
2.595449047e-51
7.320163203e-51
4.696917679e-50
1.396916596e-48
1.221723325e-48
1.224453529e-48
4.222341296e-48
2.803901935e-47
5.382721841e-46
5.009121951e-46
6.044545172e-46
2.448699066e-45
1.638384064e-44
2.119280806e-43
2.135220005e-43
3.090365962e-43
1.432577944e-42
9.429099969e-42
8.525549761e-41
9.450757018e-41
1.630363832e-40
8.462688089e-40
5.378906474e-39
3.498392283e-38
4.342761349e-38
8.916559901e-38
5.062176229e-37
3.062040876e-36
1.463225112e-35
2.06658455e-35
5.095945102e-35
3.102657081e-34
1.750568101e-33
6.207904455e-33
1.012937328e-32
3.028491631e-32
1.959433583e-31
1.010401881e-30
2.666410826e-30
5.084467941e-30
1.849948127e-29
1.271362519e-28
5.899111826e-28
1.141988917e-27
2.572839171e-27
1.136723684e-26
8.173443752e-26
3.474536575e-25
4.848108781e-25
1.305681664e-24
6.810906948e-24
5.109629883e-23
2.052094873e-22
1.987992559e-22
6.483063049e-22
3.945193835e-21
3.017837253e-20
1.20052549e-19
7.498195229e-20
3.058263424e-19
2.1239965e-18
1.629084627e-17
6.894849579e-17
2.408206325e-17
1.378882307e-16
1.090753055e-15
7.818244301e-15
3.893518976e-14
1.448000673e-10
9.549085651e-11
8.13566177e-11
1.057217752e-10
1.479269901e-10
1.568931193e-10
1.279764669e-10
1.16923457e-10
1.364963349e-10
1.567703741e-10
1.429743668e-10
1.328882697e-10
1.267557134e-10
1.361221184e-10
1.396013391e-10
1.268028545e-10
1.26763059e-10
1.243828896e-10
1.275086301e-10
1.216461698e-10
1.126031709e-10
1.177733863e-10
1.174416769e-10
1.167959931e-10
1.062890739e-10
1.009261876e-10
1.083702841e-10
1.091542373e-10
1.060583902e-10
9.379175175e-11
9.141334215e-11
9.951307961e-11
1.007339892e-10
9.600186378e-11
8.371343153e-11
8.356373115e-11
9.146973077e-11
9.269403637e-11
8.682489645e-11
7.553141195e-11
7.70095693e-11
8.427569113e-11
8.523027511e-11
7.87860086e-11
6.895924293e-11
7.147039016e-11
7.790968525e-11
7.848576379e-11
7.203064082e-11
6.372381749e-11
6.67495237e-11
7.232897349e-11
7.254042724e-11
6.64621847e-11
5.951541194e-11
6.268484422e-11
6.746753629e-11
6.739011257e-11
6.187809499e-11
5.605004386e-11
5.914493763e-11
6.324183419e-11
6.295773481e-11
5.805265698e-11
5.310069442e-11
5.601318531e-11
5.954574074e-11
5.912933969e-11
5.478574481e-11
5.049943075e-11
5.319915402e-11
5.628520957e-11
5.578667258e-11
5.191948406e-11
4.812755094e-11
5.062045264e-11
5.336247558e-11
5.282298667e-11
4.933594833e-11
4.58938477e-11
4.822373657e-11
5.069363117e-11
5.011971693e-11
4.692686569e-11
4.372525531e-11
4.600436145e-11
4.82032952e-11
4.756297779e-11
4.459511203e-11
4.157351029e-11
4.515422997e-11
4.620245594e-11
4.510330147e-11
4.223833063e-11
3.932756475e-11
1.747100753e-10
9.548163444e-11
4.935120365e-11
3.974929284e-11
3.495825717e-11
8.589105871e-16
6.683927069e-15
1.017743011e-13
1.506686726e-12
2.185358317e-11
3.2835245e-15
2.075630917e-14
2.233212284e-13
1.890209001e-12
1.044483718e-11
7.524325466e-15
3.974023735e-14
3.200540174e-13
1.790509874e-12
6.136140261e-12
1.502685205e-14
7.206421928e-14
5.136601491e-13
2.84712783e-12
1.457682531e-11
2.770499997e-14
1.224630951e-13
7.548946682e-13
3.410387026e-12
1.248332517e-11
4.67334303e-14
1.847131488e-13
9.242121532e-13
3.053632737e-12
7.612282655e-12
7.324159631e-14
2.55813568e-13
1.024184121e-12
2.666675878e-12
6.666264811e-12
1.127870282e-13
3.731089797e-13
1.465524083e-12
5.262681237e-12
2.425222435e-11
1.723533835e-13
5.476499001e-13
2.007818182e-12
6.779077313e-12
2.66332548e-11
2.502056644e-13
7.207334423e-13
2.203650786e-12
6.077466069e-12
1.934849037e-11
3.42363634e-13
8.347211123e-13
2.068753436e-12
4.910715167e-12
1.420019268e-11
4.55210709e-13
9.940603253e-13
2.460229458e-12
7.050603284e-12
2.576723483e-11
6.18098497e-13
1.269650486e-12
3.209119068e-12
9.549032306e-12
3.320738284e-11
8.225675953e-13
1.536934026e-12
3.611949557e-12
9.842896236e-12
2.990957063e-11
1.001053216e-12
1.650441709e-12
3.479171103e-12
8.540880299e-12
2.289030838e-11
1.111447373e-12
1.67888861e-12
3.36162554e-12
8.043520249e-12
2.102654671e-11
1.395853512e-12
2.189062907e-12
4.867782616e-12
1.29931871e-11
3.733428363e-11
2.432074138e-12
4.019109438e-12
9.383832221e-12
2.489929396e-11
6.904654957e-11
4.597905579e-12
7.272952957e-12
1.565077146e-11
3.781104737e-11
9.326642596e-11
7.449468233e-12
1.09870243e-11
2.127151326e-11
4.542804028e-11
9.924225101e-11
1.031996315e-11
1.41497794e-11
2.460479433e-11
4.709704715e-11
9.293605011e-11
1.279395303e-11
1.663026445e-11
2.67243828e-11
4.740504064e-11
8.769916502e-11
1.623914948e-11
2.054054238e-11
3.178348545e-11
5.469529562e-11
9.944262491e-11
2.445937223e-11
3.073116931e-11
4.723086057e-11
8.112498813e-11
1.480654694e-10
4.311798993e-11
5.376533526e-11
8.156104019e-11
1.379040697e-10
2.472686411e-10
7.78241755e-11
9.529947373e-11
1.400670457e-10
2.282790631e-10
3.936413564e-10
1.329736714e-10
1.592243387e-10
2.25243302e-10
3.513818606e-10
5.793019938e-10
2.122342082e-10
2.488001438e-10
3.392126167e-10
5.07464749e-10
8.020220275e-10
3.186604677e-10
3.667317061e-10
4.840525341e-10
6.977663447e-10
1.062034838e-09
4.545218193e-10
5.150948403e-10
6.612413674e-10
9.223899305e-10
1.357130768e-09
6.261087353e-10
7.005617546e-10
8.785487829e-10
1.191734934e-09
1.703230655e-09
8.632907146e-10
9.571085176e-10
1.180119079e-09
1.568659428e-09
2.195469602e-09
1.262751167e-09
1.392735689e-09
1.701031895e-09
2.236203727e-09
3.095032651e-09
2.054845819e-09
2.25769687e-09
2.73760735e-09
3.565979117e-09
4.885696649e-09
3.741324187e-09
4.073630766e-09
4.851315306e-09
6.171053389e-09
8.221691346e-09
7.592055391e-09
8.130744776e-09
9.373026333e-09
1.14246479e-08
1.449860139e-08
1.497515799e-08
1.575704725e-08
1.75354548e-08
2.040290265e-08
2.456301859e-08
2.603781056e-08
2.706884799e-08
2.939257735e-08
3.307824057e-08
3.830068772e-08
4.103670035e-08
4.233289065e-08
4.522156318e-08
4.970285046e-08
5.582076376e-08
6.208782973e-08
6.350142593e-08
6.652488273e-08
7.080809327e-08
7.567969763e-08
7.917953225e-08
7.884681965e-08
7.77923058e-08
7.545865054e-08
7.145741999e-08
5.346995428e-08
5.259936867e-08
5.069845602e-08
4.786065789e-08
4.420754584e-08
2.887394526e-08
2.837245621e-08
2.730415592e-08
2.577163532e-08
2.388308736e-08
1.512590124e-08
1.490903044e-08
1.44469258e-08
1.378281663e-08
1.295963604e-08
8.52385417e-09
8.429434458e-09
8.226789189e-09
7.930778271e-09
7.556068597e-09
5.276965836e-09
5.228872441e-09
5.124803231e-09
4.971039491e-09
4.772858785e-09
3.487106823e-09
3.457738013e-09
3.393922192e-09
3.298975821e-09
3.175529992e-09
2.352275377e-09
2.332326734e-09
2.288955148e-09
2.224377533e-09
2.140354462e-09
1.562459447e-09
1.548729749e-09
1.518910985e-09
1.474607488e-09
1.417142436e-09
1.001702505e-09
9.926460688e-10
9.730016902e-10
9.43875008e-10
9.062004264e-10
6.155437912e-10
6.099164098e-10
5.977220966e-10
5.796839462e-10
5.563975374e-10
3.633639502e-10
3.600595611e-10
3.528993936e-10
3.423002398e-10
3.286163716e-10
2.070450723e-10
2.052146056e-10
2.012501865e-10
1.953864026e-10
1.8782569e-10
1.144601134e-10
1.134839864e-10
1.113692457e-10
1.082389872e-10
1.041977658e-10
6.174475835e-11
6.123867029e-11
6.014161389e-11
5.85157505e-11
5.641281934e-11
3.265506459e-11
3.239919326e-11
3.184449842e-11
3.102224735e-11
2.9958438e-11
1.703919704e-11
1.691262703e-11
1.66381207e-11
1.623081607e-11
1.570307657e-11
8.822265679e-12
8.760379707e-12
8.626082494e-12
8.426575791e-12
8.167613183e-12
4.554370344e-12
4.524236424e-12
4.458799965e-12
4.361458589e-12
4.234927092e-12
2.354202012e-12
2.339573764e-12
2.307801098e-12
2.260514125e-12
2.198971922e-12
1.224419935e-12
1.217315208e-12
1.201876253e-12
1.178875684e-12
1.148896618e-12
6.436921409e-13
6.402180301e-13
6.326645578e-13
6.213997149e-13
6.066945279e-13
3.435051234e-13
3.417859674e-13
3.380461015e-13
3.324627122e-13
3.251628682e-13
1.868289611e-13
1.859637789e-13
1.84080541e-13
1.812659147e-13
1.775802815e-13
1.038416771e-13
1.03398136e-13
1.024320944e-13
1.009866211e-13
9.909071612e-14
5.914142468e-14
5.890785837e-14
5.839883711e-14
5.763638182e-14
5.663483025e-14
3.455081598e-14
3.442414949e-14
3.414795119e-14
3.373383101e-14
3.318908956e-14
2.074530282e-14
2.067432107e-14
2.051945645e-14
2.028704699e-14
1.998094785e-14
1.277882462e-14
1.273784201e-14
1.264839458e-14
1.25140558e-14
1.233692522e-14
8.34823741e-15
8.322963498e-15
8.267767525e-15
8.184804681e-15
8.075305017e-15
1.670554568e-10
3.793905061e-11
2.506714093e-11
8.099483702e-11
4.77515359e-11
2.171075155e-11
2.230653684e-11
1.036849168e-10
8.980629459e-11
5.279714806e-11
3.614943468e-11
7.73959481e-11
8.919258042e-11
7.042543243e-11
4.857205473e-11
4.436461528e-11
8.446808324e-11
1.480956721e-10
1.811865257e-10
1.755046958e-10
1.527506948e-10
1.385483957e-10
1.566664437e-10
2.347317646e-10
3.859758713e-10
5.95538262e-10
8.468784411e-10
1.136074933e-09
1.463161647e-09
1.823712946e-09
2.240477522e-09
2.845145755e-09
3.980125201e-09
6.232025695e-09
1.024486268e-08
1.739890254e-08
2.834031042e-08
4.289490699e-08
6.08760633e-08
7.833733012e-08
6.785938428e-08
4.140542288e-08
2.248470634e-08
1.234269526e-08
7.267946775e-09
4.616974451e-09
3.077402735e-09
2.073528974e-09
1.371608222e-09
8.764562882e-10
5.380427362e-10
3.179047178e-10
1.818792759e-10
1.010132053e-10
5.475320027e-11
2.911784869e-11
1.528522202e-11
7.962082065e-12
4.134342482e-12
2.149961317e-12
1.124974998e-12
5.949371865e-13
3.193146769e-13
1.746216453e-13
9.756553287e-14
5.582757238e-14
3.274923467e-14
1.973339464e-14
1.21934627e-14
7.986510217e-15
5.707715073e-10
7.850836276e-09
6.691305925e-10
5.561940687e-11
9.099190601e-12
9.993901534e-11
6.861809971e-10
2.081270033e-09
1.627450847e-10
1.00582663e-11
1.214125026e-10
2.168455882e-09
4.461497786e-08
3.172429924e-09
1.422540663e-10
4.123691712e-10
6.736269255e-09
1.023089023e-07
1.037360972e-08
7.770506903e-10
1.773285151e-10
1.656986952e-09
1.066316951e-08
4.950124795e-09
5.027556627e-10
6.46907368e-11
4.273670537e-10
2.127891591e-09
9.94644755e-09
1.163591646e-09
7.665499796e-11
7.278389533e-10
6.404651806e-09
5.696847112e-08
7.34363122e-09
3.79489438e-10
3.714182872e-09
3.179708156e-08
2.619757182e-07
3.705235716e-08
2.711101456e-10
1.804643364e-09
9.679916176e-09
4.143233392e-08
1.495656502e-08
1.371117007e-10
6.75452105e-10
2.670214029e-09
8.716549537e-09
1.649416768e-08
9.086742666e-11
4.591558443e-10
2.212408042e-09
1.101211988e-08
5.586525405e-08
2.17793424e-10
1.369996349e-09
7.921451716e-09
4.381234743e-08
2.360907399e-07
2.27360906e-10
1.148105311e-09
5.10893019e-09
2.061635429e-08
7.582464608e-08
1.61177179e-10
6.490057098e-10
2.270531487e-09
7.037916803e-09
1.927658608e-08
1.026582616e-10
3.578758054e-10
1.134377935e-09
3.436310923e-09
1.050790975e-08
9.480377374e-11
3.585754535e-10
1.328345257e-09
4.949708799e-09
1.869556736e-08
1.904081732e-10
8.024667032e-10
3.235470215e-09
1.268593311e-08
4.882898858e-08
3.184543681e-10
1.210960412e-09
4.344525361e-09
1.489295811e-08
4.916445498e-08
3.597479899e-10
1.169704674e-09
3.573925116e-09
1.032579839e-08
2.827545381e-08
3.226408563e-10
9.099405472e-10
2.433335879e-09
6.205271894e-09
1.519321933e-08
2.641621872e-10
6.740916786e-10
1.66824697e-09
4.039969519e-09
9.689416164e-09
2.321397226e-10
5.731890511e-10
1.414011205e-09
3.508273019e-09
8.806396935e-09
2.625912679e-10
6.631558929e-10
1.694210118e-09
4.367781745e-09
1.132947852e-08
3.95486483e-10
1.013006669e-09
2.613604304e-09
6.756563799e-09
1.742570646e-08
6.404437356e-10
1.59122553e-09
3.969357166e-09
9.89115963e-09
2.453257032e-08
9.594945738e-10
2.253251261e-09
5.314153227e-09
1.251996709e-08
2.935778678e-08
1.320902071e-09
2.922658235e-09
6.513151862e-09
1.453499646e-08
3.235423042e-08
1.719016107e-09
3.604442339e-09
7.643271435e-09
1.629109772e-08
3.474944776e-08
2.154193461e-09
4.30693576e-09
8.741330898e-09
1.789029389e-08
3.672032685e-08
2.618340132e-09
5.010205242e-09
9.757127167e-09
1.919232461e-08
3.783091783e-08
3.146801417e-09
5.796063549e-09
1.088651231e-08
2.065911185e-08
3.9096765e-08
3.93471407e-09
7.063701105e-09
1.29536422e-08
2.396015741e-08
4.373997312e-08
5.460368071e-09
9.67327026e-09
1.747944871e-08
3.162906817e-08
5.565064793e-08
8.471905714e-09
1.470435435e-08
2.581734581e-08
4.48352028e-08
7.469496441e-08
1.355941964e-08
2.220718986e-08
3.633725847e-08
5.79643526e-08
8.663872331e-08
2.20599993e-08
3.33580201e-08
5.027229024e-08
7.339298729e-08
9.701894314e-08
3.431002528e-08
4.787830053e-08
6.639885077e-08
8.722319214e-08
9.20508559e-08
5.004486795e-08
6.514060902e-08
8.240102817e-08
9.022812025e-08
7.309536759e-08
6.84733293e-08
8.103984568e-08
8.455917384e-08
7.071444891e-08
5.263121982e-08
8.128423118e-08
7.632174594e-08
6.368420007e-08
4.884686801e-08
3.546012061e-08
6.239583981e-08
5.204536971e-08
4.098880209e-08
3.096747234e-08
2.284893597e-08
3.730125759e-08
3.05780097e-08
2.42607644e-08
1.881674687e-08
1.437729799e-08
2.045484385e-08
1.720090131e-08
1.412567283e-08
1.138835978e-08
9.042435316e-09
1.144173056e-08
9.947690559e-09
8.466433272e-09
7.069639476e-09
5.796067411e-09
6.843006027e-09
6.104166977e-09
5.33075928e-09
4.558833981e-09
3.81643789e-09
4.385130251e-09
3.965775464e-09
3.508957286e-09
3.036033203e-09
2.566813287e-09
2.93094689e-09
2.661243173e-09
2.362880942e-09
2.050172514e-09
1.737336708e-09
1.973808954e-09
1.790116659e-09
1.58725137e-09
1.375368603e-09
1.164448114e-09
1.303773148e-09
1.179606087e-09
1.04354483e-09
9.025872882e-10
7.633714309e-10
8.322154925e-10
7.517401539e-10
6.641863713e-10
5.741594862e-10
4.858049891e-10
5.107734896e-10
4.613767331e-10
4.078513713e-10
3.530058687e-10
2.993351803e-10
3.020159931e-10
2.733489853e-10
2.424235875e-10
2.106188683e-10
1.793945753e-10
1.73049249e-10
1.570579523e-10
1.397154985e-10
1.218726195e-10
1.043056514e-10
9.628106483e-11
8.767764561e-11
7.830338092e-11
6.863213644e-11
5.908302968e-11
5.228604836e-11
4.779078625e-11
4.288356922e-11
3.780100935e-11
3.275498672e-11
2.786755234e-11
2.558172843e-11
2.3075271e-11
2.04640889e-11
1.785267392e-11
1.466319547e-11
1.352094278e-11
1.226132824e-11
1.094054137e-11
9.611720459e-12
7.655834169e-12
7.090652149e-12
6.464457856e-12
5.8045343e-12
5.136194635e-12
3.984382657e-12
3.706832028e-12
3.397946108e-12
3.070540017e-12
2.736645788e-12
2.076838599e-12
1.940977716e-12
1.789034926e-12
1.627029508e-12
1.460688781e-12
1.089256377e-12
1.022626482e-12
9.477437557e-13
8.674428558e-13
7.844594733e-13
5.77367799e-13
5.444633929e-13
5.073041372e-13
4.672305489e-13
4.255533542e-13
3.10568513e-13
2.941241242e-13
2.754638947e-13
2.552264184e-13
2.340436629e-13
1.701933804e-13
1.618348302e-13
1.523045459e-13
1.419104454e-13
1.309607965e-13
9.52807674e-14
9.095046695e-14
8.598787401e-14
8.05424206e-14
7.476616672e-14
5.461736829e-14
5.231525798e-14
4.966529482e-14
4.674256546e-14
4.362411702e-14
3.208932762e-14
3.082988996e-14
2.937420949e-14
2.776093398e-14
2.603011562e-14
1.936177462e-14
1.865038496e-14
1.782513723e-14
1.690660107e-14
1.591630072e-14
1.197795206e-14
1.156436433e-14
1.108298789e-14
1.054505371e-14
9.962401122e-15
7.853054794e-15
7.596374246e-15
7.296804265e-15
6.960980755e-15
6.595968808e-15
2.290928239e-13
1.032499697e-14
1.113108821e-15
1.886792964e-16
4.051538814e-17
9.227519617e-18
2.188257029e-18
6.798547847e-19
3.589087988e-19
2.735010126e-19
2.302102768e-19
1.935229784e-19
1.587622526e-19
1.265355236e-19
9.794000584e-20
7.361399805e-20
5.374643872e-20
3.81344556e-20
2.631068536e-20
1.76598327e-20
1.153514209e-20
7.333611693e-21
4.538295085e-21
2.733611399e-21
1.602821877e-21
9.150801311e-22
5.089321622e-22
2.759169724e-22
1.459444802e-22
7.539226489e-23
3.808196667e-23
1.883770544e-23
9.144204651e-24
4.368621052e-24
2.062711586e-24
9.679421522e-25
4.542715756e-25
2.143179087e-25
1.01765497e-25
4.841407889e-26
2.285465036e-26
1.057711495e-26
4.744270447e-27
2.044062872e-27
8.410442582e-28
3.29526996e-28
1.228861073e-28
4.367403525e-29
1.483120189e-29
4.828922617e-30
1.513302465e-30
4.583053233e-31
1.346617942e-31
3.851770416e-32
1.074109942e-32
2.905582656e-33
7.397349635e-34
1.60719464e-34
2.114878937e-35
8.412038701e-37
3.265733726e-13
1.475803243e-14
1.514037094e-15
2.329728059e-16
4.695250379e-17
1.186122912e-17
4.740599224e-18
3.272285049e-18
2.799648149e-18
2.451064607e-18
2.080829697e-18
1.703350108e-18
1.344730858e-18
1.026879269e-18
7.61102162e-19
5.487451183e-19
3.857085598e-19
2.647579204e-19
1.777062568e-19
1.166627291e-19
7.489468565e-20
4.69978704e-20
2.881516135e-20
1.725251587e-20
1.008415911e-20
5.754080433e-21
3.20606667e-21
1.745091008e-21
9.284554071e-22
4.831653241e-22
2.461712526e-22
1.229742225e-22
6.035931234e-23
2.92022211e-23
1.399164497e-23
6.680044009e-24
3.19858466e-24
1.542559459e-24
7.485873515e-25
3.629651736e-25
1.738073179e-25
8.1155689e-26
3.654517371e-26
1.574588167e-26
6.461630263e-27
2.521362042e-27
9.360676643e-28
3.313950101e-28
1.122586704e-28
3.653059375e-29
1.146799937e-29
3.4877819e-30
1.031674934e-30
2.976928784e-31
8.382202673e-32
2.28432927e-32
5.798068504e-33
1.223811235e-33
1.538844921e-34
6.016456467e-36
2.899609254e-12
7.574019818e-14
3.206225146e-15
2.715430679e-16
4.886694838e-17
2.027134575e-17
1.597193461e-17
1.519711787e-17
1.425183657e-17
1.275268845e-17
1.080556141e-17
8.752023853e-18
6.790446639e-18
5.111715304e-18
3.735670078e-18
2.646447368e-18
1.821312558e-18
1.22161363e-18
8.011479657e-19
5.145382728e-19
3.240179973e-19
2.001024198e-19
1.211733013e-19
7.19171225e-20
4.182006686e-20
2.38262681e-20
1.330213073e-20
7.279158644e-21
3.905664925e-21
2.055674145e-21
1.062055135e-21
5.393056385e-22
2.697477987e-22
1.333620789e-22
6.551528446e-23
3.21946091e-23
1.592190811e-23
7.94186518e-24
3.978056374e-24
1.979893576e-24
9.658775826e-25
4.559132545e-25
2.061490281e-25
8.872763058e-26
3.624556424e-26
1.405339139e-26
5.183484016e-27
1.825606279e-27
6.167607152e-28
2.00819526e-28
6.33073823e-29
1.94041705e-29
5.803409672e-30
1.697159472e-30
4.843390986e-31
1.330313438e-31
3.348545694e-32
6.747354103e-33
7.680861419e-34
2.715120514e-35
3.07211731e-11
7.570516192e-13
1.847088389e-14
7.859667765e-16
1.133384333e-16
7.044295237e-17
7.000897932e-17
7.056081091e-17
6.729921333e-17
6.053733768e-17
5.151881126e-17
4.173918905e-17
3.232396976e-17
2.401869679e-17
1.710358521e-17
1.177694453e-17
7.938405301e-18
5.245506759e-18
3.387782751e-18
2.138459247e-18
1.321632401e-18
8.005038762e-19
4.755974479e-19
2.774391428e-19
1.590929216e-19
8.97540022e-20
4.984633541e-20
2.726098597e-20
1.468570447e-20
7.795802799e-21
4.08075201e-21
2.109015136e-21
1.078565297e-21
5.478006895e-22
2.7781397e-22
1.415649422e-22
7.279499718e-23
3.772467332e-23
1.953735468e-23
9.976268412e-24
4.950388474e-24
2.358090707e-24
1.069210054e-24
4.592808578e-25
1.866560766e-25
7.189240982e-26
2.63466824e-26
9.236393894e-27
3.115670519e-27
1.017054799e-27
3.229140004e-28
1.001229004e-28
3.039595085e-29
9.037827579e-30
2.617399392e-30
7.230080578e-31
1.795881318e-31
3.438105717e-32
3.503551464e-33
1.100326695e-34
2.184195706e-11
5.391711072e-13
1.724187397e-14
9.646016013e-16
2.944152689e-16
2.95548894e-16
3.211503295e-16
3.295864947e-16
3.178936456e-16
2.886061021e-16
2.478078886e-16
2.023916641e-16
1.578316731e-16
1.180233937e-16
8.483321919e-17
5.881984713e-17
3.943884597e-17
2.559583899e-17
1.616961474e-17
1.008149512e-17
6.15643704e-18
3.673571004e-18
2.1416674e-18
1.222591738e-18
6.855306927e-19
3.78705175e-19
2.065830481e-19
1.11453943e-19
5.953114212e-20
3.150089061e-20
1.652495962e-20
8.604778538e-21
4.458153054e-21
2.307384188e-21
1.199667989e-21
6.30026784e-22
3.347597317e-22
1.789662459e-22
9.508616469e-23
4.943830276e-23
2.47946198e-23
1.186558655e-23
5.381491934e-24
2.305765554e-24
9.333572074e-25
3.579930936e-25
1.307724962e-25
4.578503124e-26
1.546716937e-26
5.07350336e-27
1.624557668e-27
5.097796991e-28
1.570397432e-28
4.741049136e-29
1.389423918e-29
3.844559604e-30
9.388555113e-31
1.714454872e-31
1.587262175e-32
4.625192054e-34
6.347203338e-11
2.056890789e-12
5.590504236e-14
2.927174959e-15
9.099951708e-16
9.155121692e-16
1.000211728e-15
1.062693145e-15
1.07665798e-15
1.035830289e-15
9.466295178e-16
8.230634153e-16
6.819367172e-16
5.392569323e-16
4.073012822e-16
2.94579368e-16
2.044114019e-16
1.364658491e-16
8.789553367e-17
5.491606379e-17
3.340106137e-17
1.973376245e-17
1.138449895e-17
6.427339426e-18
3.55379098e-18
1.928743292e-18
1.030002889e-18
5.430091098e-19
2.835182792e-19
1.470229074e-19
7.5901861e-20
3.910415072e-20
2.01667943e-20
1.045769483e-20
5.484469886e-21
2.922401505e-21
1.580493481e-21
8.593216722e-22
4.625248705e-22
2.423340737e-22
1.218155352e-22
5.817049572e-23
2.624717505e-23
1.117184214e-23
4.493941303e-24
1.716572253e-24
6.266342589e-25
2.200923502e-25
7.485043827e-26
2.478611952e-26
8.028318251e-27
2.551665957e-27
7.965493293e-28
2.434279784e-28
7.191759586e-29
1.987624217e-29
4.770267242e-30
8.372716754e-31
7.149110313e-32
1.986031294e-33
5.902423252e-10
2.703544157e-11
8.079353724e-13
3.235649678e-14
3.050199996e-15
1.853536711e-15
1.886491045e-15
2.038798406e-15
2.148779559e-15
2.171067288e-15
2.099627831e-15
1.94687114e-15
1.734152348e-15
1.485963741e-15
1.225700347e-15
9.729935647e-16
7.425644875e-16
5.440368219e-16
3.821275366e-16
2.57332448e-16
1.662519836e-16
1.032503505e-16
6.174253419e-17
3.570025865e-17
2.001051977e-17
1.08992506e-17
5.812029092e-18
3.041068631e-18
1.565499718e-18
7.955113078e-19
4.007131019e-19
2.011384317e-19
1.012245454e-19
5.141090862e-20
2.653787317e-20
1.400303063e-20
7.540993948e-21
4.093477485e-21
2.200263872e-21
1.149978812e-21
5.755356192e-22
2.731102337e-22
1.222279223e-22
5.151521155e-23
2.051382044e-23
7.776713495e-24
2.832158751e-24
9.987372483e-25
3.43019423e-25
1.151897018e-25
3.791332472e-26
1.224541234e-26
3.878573999e-27
1.198884908e-27
3.564292361e-28
9.836943197e-29
2.329546408e-29
3.97666405e-30
3.193309884e-31
8.602264696e-33
3.604237475e-09
2.731143924e-10
1.234213442e-11
3.508104648e-13
1.737125059e-14
3.531407836e-15
2.696762181e-15
2.891151189e-15
3.142969544e-15
3.29591328e-15
3.315910919e-15
3.207195322e-15
2.991097297e-15
2.696568157e-15
2.354302806e-15
1.992817284e-15
1.636043687e-15
1.302407754e-15
1.004133579e-15
7.48250073e-16
5.373942358e-16
3.707605896e-16
2.449221024e-16
1.547296291e-16
9.353561399e-17
5.425500435e-17
3.02810598e-17
1.63438491e-17
8.546499867e-18
4.367919518e-18
2.195398667e-18
1.090244458e-18
5.383936276e-19
2.666490995e-19
1.335895552e-19
6.824476552e-20
3.566529482e-20
1.888395038e-20
9.949961079e-21
5.124112316e-21
2.538850625e-21
1.195732716e-21
5.315060639e-22
2.22304668e-22
8.772085754e-23
3.297119776e-23
1.19524481e-23
4.222122028e-24
1.462561383e-24
4.981745231e-25
1.668926613e-25
5.492181922e-26
1.770084407e-26
5.547813853e-27
1.663290769e-27
4.598906884e-28
1.083236962e-28
1.823493256e-29
1.415464015e-30
3.755518735e-32
2.282099099e-09
2.385683877e-10
1.965386668e-11
9.32608094e-13
3.571834773e-14
4.269619659e-15
2.788847805e-15
3.273950729e-15
3.789877865e-15
4.15549811e-15
4.342156585e-15
4.353413793e-15
4.209459899e-15
3.940320588e-15
3.580498105e-15
3.164571333e-15
2.723976356e-15
2.285097558e-15
1.868349128e-15
1.488067742e-15
1.153118591e-15
8.678014596e-16
6.327574791e-16
4.454785178e-16
3.016285456e-16
1.956223969e-16
1.210482309e-16
7.138968792e-17
4.02051332e-17
2.172595841e-17
1.132662856e-17
5.732601814e-18
2.839356301e-18
1.396586295e-18
6.873805513e-19
3.403955117e-19
1.703607427e-19
8.612006507e-20
4.347469717e-20
2.160209308e-20
1.044114724e-20
4.858432203e-21
2.15173015e-21
8.988887389e-22
3.532287318e-22
1.319407313e-22
4.759429851e-23
1.678438822e-23
5.831124939e-24
2.002611761e-24
6.79867452e-25
2.275333136e-25
7.466926475e-26
2.379421118e-26
7.225920948e-27
2.013319318e-27
4.75793432e-28
8.005399448e-29
6.155210903e-30
1.645681783e-31
3.033588939e-09
3.88701489e-10
4.082390447e-11
3.416921437e-12
1.685268797e-13
1.041637377e-14
2.857358096e-15
3.176825658e-15
3.951212866e-15
4.573435663e-15
4.985978568e-15
5.186427451e-15
5.190128793e-15
5.023970519e-15
4.722001477e-15
4.321160438e-15
3.857592267e-15
3.363944681e-15
2.867713094e-15
2.390535885e-15
1.947870716e-15
1.550624073e-15
1.204330781e-15
9.108630627e-16
6.691837955e-16
4.761347478e-16
3.270279753e-16
2.159392528e-16
1.364804491e-16
8.222185759e-17
4.709340456e-17
2.569376047e-17
1.344459493e-17
6.820282325e-18
3.39017796e-18
1.661449139e-18
8.093330418e-19
3.919981174e-19
1.881098736e-19
8.900126579e-20
4.115564684e-20
1.85087728e-20
8.068817984e-21
3.382409623e-21
1.34346105e-21
5.040435282e-22
1.815523801e-22
6.385543835e-23
2.214716561e-23
7.609271903e-24
2.593949904e-24
8.760064088e-25
2.913810126e-25
9.433114848e-26
2.910023251e-26
8.225317033e-27
1.969535334e-27
3.363986783e-28
2.627339318e-29
7.248317885e-31
1.006516281e-08
1.426705111e-09
1.758523029e-10
1.917921211e-11
1.454193776e-12
7.651207484e-14
7.187949634e-15
3.192067853e-15
3.697657487e-15
4.485760329e-15
5.12774562e-15
5.558229584e-15
5.770389525e-15
5.779360111e-15
5.612495265e-15
5.303927273e-15
4.890373195e-15
4.407288517e-15
3.888140601e-15
3.360657429e-15
2.846641635e-15
2.362509094e-15
1.919726163e-15
1.525527292e-15
1.183607417e-15
8.947728648e-16
6.575001387e-16
4.683560382e-16
3.223910809e-16
2.137057346e-16
1.359483813e-16
8.268763079e-17
4.794678928e-17
2.649837136e-17
1.402054641e-17
7.154401622e-18
3.541897761e-18
1.70302176e-18
7.94324965e-19
3.61684307e-19
1.608497436e-19
6.964750401e-20
2.932564805e-20
1.202672779e-20
4.795653566e-21
1.838158476e-21
6.725124846e-22
2.369297155e-22
8.169926725e-23
2.788325285e-23
9.46377471e-24
3.194212672e-24
1.067162952e-24
3.488429915e-25
1.091445802e-25
3.140191124e-26
7.688758709e-27
1.352622562e-27
1.097143912e-28
3.182916132e-30
4.167206283e-08
6.240061888e-09
8.4258335e-10
1.036153001e-10
1.134723048e-11
8.207939272e-13
5.033292001e-14
6.265152767e-15
3.382940113e-15
3.932971799e-15
4.724696491e-15
5.379375208e-15
5.827505532e-15
6.060467795e-15
6.091897351e-15
5.946768796e-15
5.658230252e-15
5.26125397e-15
4.789804906e-15
4.274898719e-15
3.742754039e-15
3.214924826e-15
2.708489361e-15
2.236339406e-15
1.807606764e-15
1.428117837e-15
1.100812115e-15
8.26075951e-16
6.020548473e-16
4.250237863e-16
2.898234769e-16
1.903451263e-16
1.200480185e-16
7.251639809e-17
4.188040934e-17
2.311449008e-17
1.219290782e-17
6.148205262e-18
2.964105647e-18
1.365588737e-18
6.032353078e-19
2.566846899e-19
1.059155094e-19
4.245482959e-20
1.659676955e-20
6.348572577e-21
2.364350297e-21
8.507004832e-22
2.954758505e-22
1.001358131e-22
3.358034999e-23
1.122576038e-23
3.732506816e-24
1.221025472e-24
3.848103455e-25
1.124354189e-25
2.827136448e-26
5.185100544e-27
4.457770989e-28
1.388108334e-29
2.315293649e-08
4.719256707e-09
8.027309185e-10
1.188296279e-10
1.590505805e-11
1.84368948e-12
1.421212737e-13
1.124757105e-14
2.534369535e-15
2.763648772e-15
3.741837214e-15
4.619614321e-15
5.304626578e-15
5.772329321e-15
6.0341484e-15
6.096936739e-15
5.991875323e-15
5.747751519e-15
5.39466331e-15
4.962092692e-15
4.477399157e-15
3.965036419e-15
3.446055351e-15
2.938017889e-15
2.455126327e-15
2.008420459e-15
1.605963567e-15
1.252963888e-15
9.519060523e-16
7.027099943e-16
5.029454832e-16
3.481964673e-16
2.326170995e-16
1.496093973e-16
9.243619537e-17
5.475077841e-17
3.10223331e-17
1.677009742e-17
8.621983891e-18
4.208531881e-18
1.948072518e-18
8.571492461e-19
3.599885236e-19
1.445068971e-19
5.605134366e-20
2.118666166e-20
7.829528281e-21
2.839088364e-21
1.006256445e-21
3.464660195e-22
1.161701367e-22
3.832397776e-23
1.2538521e-23
4.055309801e-24
1.273644442e-24
3.749042847e-25
9.668966483e-26
1.872165022e-26
1.752762386e-27
6.03566659e-29
1.657284748e-08
4.186781036e-09
8.409677188e-10
1.430506516e-10
2.19242024e-11
3.031087556e-12
3.598196074e-13
3.054337415e-14
2.897093303e-15
1.383162685e-15
2.33193748e-15
3.444623035e-15
4.347410891e-15
5.01984281e-15
5.491315075e-15
5.750657349e-15
5.833361078e-15
5.760628448e-15
5.557348312e-15
5.249401652e-15
4.862289444e-15
4.420178972e-15
3.945190599e-15
3.456850583e-15
2.971876226e-15
2.504120043e-15
2.064904716e-15
1.663332168e-15
1.306352271e-15
9.983827025e-16
7.409686258e-16
5.330005518e-16
3.709980185e-16
2.494905238e-16
1.61847197e-16
1.011045984e-16
6.069116664e-17
3.491760354e-17
1.91908065e-17
1.003689919e-17
4.975599811e-18
2.329492386e-18
1.029968178e-18
4.313172146e-19
1.722342655e-19
6.602688736e-20
2.442124303e-20
8.804334672e-21
3.114744611e-21
1.083250229e-21
3.690953903e-22
1.22706732e-22
3.984767713e-23
1.267289798e-23
3.922719621e-24
1.152719266e-24
3.038636984e-25
6.283832865e-26
6.692725684e-27
2.63250302e-28
2.867753997e-08
7.16213272e-09
1.524511374e-09
2.806546507e-10
4.669395531e-11
7.210261243e-12
1.014037217e-12
1.25928238e-13
1.17492774e-14
1.261347756e-15
1.026823731e-15
2.107595847e-15
3.260467807e-15
4.112071236e-15
4.711757285e-15
5.096547287e-15
5.297956396e-15
5.342529294e-15
5.25486166e-15
5.058293686e-15
4.775052744e-15
4.426101504e-15
4.030911932e-15
3.607237265e-15
3.170901851e-15
2.735816381e-15
2.313915697e-15
1.915190831e-15
1.547827076e-15
1.218723421e-15
9.330344525e-16
6.930262714e-16
4.983629367e-16
3.466016576e-16
2.329846817e-16