/*--------------------------------*- C++ -*----------------------------------*\
  =========                 |
  \\      /  F ield         | OpenFOAM: The Open Source CFD Toolbox
   \\    /   O peration     | Website:  https://openfoam.org
    \\  /    A nd           | Version:  10
     \\/     M anipulation  |
\*---------------------------------------------------------------------------*/
FoamFile
{
    format      ascii;
    class       volScalarField;
    location    "3000";
    object      N2;
}
// * * * * * * * * * * * * * * * * * * * * * * * * * * * * * * * * * * * * * //

dimensions      [0 0 0 0 0 0 0];

internalField   nonuniform List<scalar> 
5170
(
0.6473
0.6473
0.6473
0.6473
0.6473
0.6473
0.6473
0.6473
0.6473
0.6473
0.6473
0.6473
0.6473
0.6473
0.6473
0.6473
0.6473
0.6473
0.6473
0.6473
0.6473
0.6473
0.6473
0.6473
0.6473
0.6473
0.6473
0.6473
0.6473
0.6473
0.6473
0.6473
0.6473
0.6473
0.6473
0.6473
0.6473
0.6473
0.6473
0.6473
0.6473
0.6473
0.6473
0.6473
0.6473
0.6473
0.6473
0.6473
0.6473
0.6473
0.6473
0.6473
0.6473
0.6473
0.6473
0.6473
0.6473
0.6473
0.6473
0.6473
0.6473
0.6473
0.6473
0.6473
0.6473
0.6473
0.6473
0.6473
0.6473
0.6473
0.6473
0.6473
0.6473
0.6473
0.6473
0.6473
0.6473
0.6473
0.6473
0.6473
0.6473
0.6473
0.6473
0.6473
0.6473
0.6473
0.6473
0.6473
0.6473
0.6473
0.6473
0.6473000001
0.6473000005
0.6473000035
0.6473000144
0.6473000054
0.6473000302
0.6473002358
0.6473016809
0.6473082629
0.7342284784
0.7342285663
0.7342285983
0.734228544
0.7342284718
0.7342280501
0.7342281603
0.7342281933
0.7342281298
0.7342280275
0.7342277832
0.7342278879
0.7342279145
0.7342278567
0.7342277492
0.734227598
0.7342276965
0.7342277167
0.7342276572
0.7342275503
0.7342274584
0.7342275519
0.734227568
0.7342275031
0.7342273933
0.7342273465
0.7342274355
0.7342274486
0.7342273786
0.7342272664
0.7342272517
0.7342273368
0.7342273474
0.7342272744
0.7342271619
0.7342271684
0.7342272505
0.7342272592
0.7342271853
0.7342270739
0.7342270939
0.7342271734
0.7342271805
0.7342271071
0.7342269976
0.7342270259
0.7342271033
0.7342271089
0.7342270363
0.7342269291
0.7342269631
0.7342270383
0.7342270427
0.7342269707
0.7342268662
0.7342269043
0.7342269773
0.7342269804
0.7342269088
0.7342268073
0.7342268486
0.7342269194
0.734226921
0.7342268501
0.7342267518
0.7342267955
0.7342268639
0.7342268641
0.7342267941
0.7342266991
0.7342267448
0.7342268106
0.7342268093
0.7342267405
0.734226649
0.7342266962
0.7342267591
0.7342267564
0.7342266892
0.7342266014
0.734226649
0.7342267092
0.7342267053
0.7342266403
0.7342265564
0.7342265094
0.7342266374
0.7342266543
0.7342266066
0.7342265457
0.7342181094
0.7342246903
0.7342265706
0.734227604
0.7342289256
0.7332897851
0.7340726134
0.7342305429
0.7343011497
0.734406238
0.6473002029
0.6473015699
0.6473241433
0.6476632495
0.6521768991
0.6473011035
0.6473074101
0.6473899825
0.6482509254
0.6545166143
0.647303628
0.6473215695
0.6475149474
0.6490201281
0.6560340328
0.6473095773
0.6473514619
0.647730544
0.6499747197
0.6571791126
0.6473218188
0.6474067134
0.6480515375
0.6510015172
0.6581402508
0.647345271
0.6475012392
0.6484998749
0.6521093723
0.6591234275
0.6473905565
0.6476693059
0.6491565754
0.6533482984
0.660151444
0.6474758252
0.64795904
0.6500309954
0.6546131106
0.661158878
0.647628682
0.648411492
0.6510536849
0.6558052913
0.6620854201
0.6478862199
0.6490462525
0.6521512263
0.6569267868
0.6629506949
0.6483142858
0.6498565946
0.6532504671
0.6579825068
0.6637607934
0.6489378486
0.6507808758
0.6543242785
0.6589832289
0.6645241718
0.6497799587
0.6518114839
0.6554019809
0.6599562257
0.6652637475
0.6508876368
0.6529799892
0.6565317778
0.660945793
0.6660191127
0.6523305617
0.6543439182
0.6577680472
0.6619975279
0.6668222878
0.6541466982
0.6559729847
0.6591775237
0.6631723926
0.6677307868
0.656340281
0.6579276607
0.6608420095
0.6645552377
0.6688287952
0.6588416981
0.6601964138
0.6627969403
0.6662022443
0.6701710627
0.6615814198
0.6627328083
0.6650230114
0.668103973
0.6717531685
0.6644577544
0.6654412387
0.6674467979
0.6702075958
0.6735320193
0.6673797215
0.6682234304
0.669975027
0.672431725
0.6754352691
0.6702629034
0.6709910101
0.6725209381
0.6746972992
0.6773931764
0.6730610798
0.673690618
0.6750255091
0.6769467487
0.6793536414
0.6757532696
0.6762991729
0.6774652928
0.6791589081
0.6813022448
0.6783470908
0.6788241341
0.6798479293
0.6813449859
0.6832545047
0.6808775969
0.6812971389
0.6822002429
0.6835283357
0.6852338535
0.6833818947
0.6837527961
0.6845538843
0.6857370592
0.6872653754
0.6858842443
0.6862141847
0.6869283415
0.6879876351
0.6893633044
0.6883848369
0.688679491
0.6893189004
0.6902706961
0.6915117584
0.6908652418
0.6911294611
0.6917037679
0.6925606567
0.6936814965
0.6933009085
0.6935382417
0.6940547061
0.6948269969
0.6958401821
0.6956674569
0.695881017
0.6963463624
0.6970435503
0.6979604314
0.697955103
0.6981479767
0.6985687696
0.6992004402
0.7000332859
0.7001738185
0.7003492755
0.7007324974
0.7013087746
0.7020702923
0.7023533663
0.7025145455
0.7028668529
0.7033972688
0.7040992038
0.7045319232
0.70468117
0.7050075214
0.7054991015
0.7061499844
0.7067355807
0.7068741247
0.7071771205
0.7076335843
0.7082380245
0.7089671958
0.7090955694
0.7093763705
0.7097994481
0.7103597196
0.7112126987
0.7113312473
0.711590603
0.7119814457
0.7124991297
0.7134512147
0.7135603245
0.7137990829
0.7141589654
0.7146357387
0.7156613751
0.7157614629
0.7159805035
0.7163106835
0.7167480901
0.7178214364
0.7179127875
0.7181127388
0.7184141855
0.718813604
0.7199115924
0.7199947644
0.7201768671
0.7204515244
0.7208156539
0.7219238591
0.7219996053
0.7221655035
0.7224158379
0.7227479165
0.7238532921
0.7239221324
0.7240729203
0.7243016054
0.7246055599
0.7257110927
0.7257742455
0.7259126368
0.7261216477
0.7263991088
0.7275007671
0.7275583697
0.7276846116
0.7278752872
0.7281285402
0.7292241287
0.7292767225
0.7293920091
0.7295661897
0.7297976299
0.730882032
0.730930097
0.7310354709
0.7311947122
0.7314063707
0.7324751748
0.7325191255
0.7326154905
0.7327611473
0.732954802
0.7340035039
0.7340437114
0.7341318762
0.7342651605
0.7344424102
0.735466753
0.7355035481
0.7355842368
0.7357062381
0.7358685216
0.73686451
0.7368981913
0.7369720566
0.7370837585
0.7372323761
0.7381965044
0.7382273437
0.7382949816
0.7383972825
0.7385334242
0.7394628868
0.7394911342
0.739553093
0.73964682
0.7397715818
0.7406644724
0.7406903601
0.7407471487
0.7408330697
0.7409474694
0.7418028273
0.7418265706
0.7418786606
0.741957487
0.742062467
0.7428802146
0.7429020119
0.7429498382
0.7430222258
0.743118655
0.7438994152
0.7439194479
0.7439634073
0.7440299543
0.7441186247
0.7448635564
0.7448819888
0.7449224412
0.7449836898
0.7450653196
0.7457758711
0.7457928508
0.745830119
0.7458865559
0.7459617896
0.7466396797
0.7466553396
0.7466897142
0.7467417773
0.7468111949
0.7474580712
0.7474725293
0.7475042688
0.7475523475
0.7476164651
0.7482342365
0.7482475994
0.7482769371
0.7483213837
0.7483806681
0.7489706924
0.7489830545
0.7490101967
0.7490513219
0.7491061848
0.7496705905
0.7496820386
0.7497071757
0.7497452666
0.7497960891
0.7503352111
0.7503458187
0.7503691111
0.7504044098
0.7504515126
0.750967215
0.750977055
0.7509986631
0.7510314117
0.7510751163
0.7515585865
0.751567716
0.751587764
0.7516181501
0.7516587061
0.7520573502
0.7520658931
0.7520846554
0.7521130962
0.7521510612
0.6650119416
0.6648463075
0.6645491533
0.6644887958
0.6646978651
0.6651693335
0.665771223
0.6663876455
0.6669767455
0.6675524277
0.6681040301
0.6686319559
0.6691551139
0.6697092945
0.6703147817
0.6710273739
0.6719281342
0.6730667492
0.6744389573
0.6760043952
0.6776933472
0.6794410788
0.6811999285
0.6829622076
0.6847454698
0.6865753473
0.6884758801
0.690458894
0.6925047623
0.6945816061
0.6966564452
0.6987014014
0.7007084076
0.7026891946
0.7046705804
0.7066800695
0.7087302992
0.7108160365
0.7129208326
0.7150241723
0.7171043987
0.7191390712
0.7211125751
0.7230188936
0.724853815
0.7266257433
0.7283355127
0.7299868731
0.7315795091
0.7331132685
0.7345874991
0.7360013999
0.7373541028
0.7386449666
0.7398738326
0.7410412576
0.7421485604
0.7431977609
0.744191388
0.7451323252
0.746023562
0.7468682068
0.7476691368
0.7484293802
0.7491512732
0.7498378645
0.7504902371
0.7511110516
0.7516920577
0.7521822871
0.6907171023
0.72251646
0.7342728677
0.7385931371
0.7463527271
0.6831147569
0.708103978
0.7281717232
0.7402798446
0.7517878796
0.6793521967
0.6997941249
0.7202381782
0.7380339339
0.7530137592
0.6771687692
0.6954347123
0.7148460369
0.7340479635
0.7495750606
0.6759976669
0.6928769204
0.7111506698
0.7301183444
0.7454935846
0.6754537938
0.6911127692
0.7079054873
0.7254249291
0.7407821211
0.6751340151
0.6895177914
0.7048506568
0.7209006229
0.7358257514
0.6749366218
0.6881566914
0.7022312621
0.7171012483
0.7315348047
0.6748553996
0.6871234899
0.7001956369
0.7139823369
0.7277398348
0.6748766801
0.6863196043
0.6984812516
0.7112368083
0.7241369559
0.6749435805
0.6856277185
0.6969562663
0.7088101509
0.7208857279
0.6750458361
0.6850549229
0.6956347864
0.7066896986
0.7180636252
0.6751919766
0.6846066101
0.6945387383
0.7049035645
0.7156097585
0.6754037948
0.6842844586
0.6936404163
0.7033880739
0.7134450602
0.6756840106
0.684061737
0.6928836243
0.7020648024
0.7115283512
0.6760867038
0.6839887146
0.6923046081
0.7009526077
0.7098652294
0.6766768383
0.6841173194
0.6919487083
0.7000910929
0.7084906706
0.6774926175
0.6844754226
0.6918445833
0.6995128609
0.7074302715
0.6785337685
0.6850639769
0.6919770077
0.6991849004
0.7066358753
0.6797636626
0.6858405558
0.6922999492
0.6990517387
0.7060411296
0.681118696
0.6867421191
0.6927509339
0.6990516197
0.7055841663
0.6825421775
0.6877129539
0.6932742047
0.6991318434
0.7052289229
0.6839939427
0.6887263663
0.6938572315
0.6992952145
0.704985127
0.6854744866
0.6897961691
0.6945255731
0.699574202
0.7048845717
0.6870039838
0.6909485434
0.6953079376
0.6999970875
0.7049577553
0.6886090607
0.692209194
0.6962319355
0.7005900636
0.7052264356
0.6903123808
0.6936072068
0.697320114
0.7013710352
0.7057035252
0.6921216553
0.6951399316
0.6985637374
0.7023243118
0.7063663866
0.6940118142
0.6967745809
0.6999297648
0.7034159448
0.7071805919
0.6959476403
0.6984738798
0.7013774358
0.7046036298
0.7081029437
0.6978953234
0.7002027964
0.7028721539
0.7058546797
0.7091037717
0.6998264201
0.701936797
0.7043924156
0.7071501455
0.7101661051
0.7017339994
0.7036699368
0.7059339861
0.7084873833
0.7112887749
0.703629753
0.7054140953
0.7075085981
0.7098777525
0.7124827051
0.7055387018
0.7071915971
0.7091357292
0.7113382395
0.7137627787
0.7074846527
0.709020703
0.7108287228
0.7128781434
0.7151348852
0.7094765308
0.7109045155
0.7125856836
0.7144914117
0.7165894785
0.7115069791
0.7128320298
0.7143922814
0.7161607219
0.7181065744
0.7135588104
0.7147846557
0.7162282653
0.717863899
0.719662762
0.7156113692
0.7167412978
0.7180716105
0.7195785784
0.7212370326
0.7176426046
0.7186794212
0.719900516
0.721285186
0.7228114567
0.719630497
0.7205789884
0.7216975751
0.7229681758
0.7243715053
0.7215608585
0.7224278048
0.7234518737
0.7246172666
0.725907031
0.7234279993
0.7242205826
0.72515822
0.7262270926
0.7274122901
0.725228616
0.725954494
0.7268136838
0.7277942647
0.7288832049
0.7269678733
0.7276319227
0.7284191796
0.7293186414
0.7303192706
0.7286479458
0.7292557319
0.7299772841
0.7308031996
0.7317233758
0.7302725419
0.7308290209
0.7314904088
0.7322484529
0.7330941495
0.7318408594
0.7323505442
0.7329569017
0.7336526482
0.7344298218
0.7333524657
0.7338194222
0.7343754474
0.73501411
0.7357283731
0.7348065012
0.7352344348
0.7357444326
0.7363308122
0.7369873459
0.7362019725
0.7365942387
0.7370621161
0.737600585
0.7382041322
0.7375378483
0.7378974985
0.7383268182
0.7388213732
0.739376288
0.7388133476
0.739143178
0.7395372117
0.7399915364
0.7405018439
0.740028198
0.7403307954
0.7406925754
0.7411100894
0.7415795337
0.7411828592
0.7414606295
0.741792979
0.7421768697
0.7426089454
0.7422785566
0.7425337304
0.7428392685
0.7431924951
0.7435904489
0.7433172183
0.7435518522
0.7438329953
0.7441582899
0.7445251217
0.7443012788
0.7445172493
0.7447762039
0.7450760633
0.7454145171
0.7452335302
0.7454325405
0.7456713113
0.745948006
0.7462605801
0.7461168723
0.7463004521
0.7465208415
0.7467764155
0.7470653623
0.7469543338
0.7471238627
0.7473274979
0.7475637992
0.7478311576
0.7477487146
0.7479054208
0.7480937522
0.7483124299
0.7485600229
0.7485029816
0.7486479797
0.7488223254
0.7490248803
0.7492543689
0.7492194053
0.7493536771
0.7495151987
0.7497029551
0.7499158078
0.7499009938
0.7500254518
0.75017523
0.7503494208
0.7505470048
0.7505487615
0.7506641721
0.7508031159
0.750964781
0.751148255
0.7511653613
0.7512724953
0.7514015171
0.7515516965
0.7517222127
0.7517424701
0.7518419296
0.7519617503
0.7521012798
0.7522597843
0.7522294905
0.7523226411
0.7524349009
0.7525656791
0.7527143104
0.7672958944
0.769673419
0.7699508374
0.7699900092
0.7699973978
0.7699992554
0.769999774
0.7699999206
0.7699999654
0.7699999819
0.7699999893
0.7699999934
0.7699999958
0.7699999973
0.7699999983
0.7699999989
0.7699999993
0.7699999996
0.7699999997
0.7699999998
0.7699999999
0.7699999999
0.77
0.77
0.77
0.77
0.77
0.77
0.77
0.77
0.77
0.77
0.77
0.77
0.77
0.77
0.77
0.77
0.77
0.77
0.77
0.77
0.77
0.77
0.77
0.77
0.77
0.77
0.77
0.77
0.77
0.77
0.77
0.77
0.77
0.77
0.77
0.77
0.77
0.77
0.7655043573
0.7692855835
0.7698757672
0.7699729022
0.7699921699
0.7699972063
0.7699988062
0.7699993989
0.7699996669
0.769999806
0.7699998851
0.7699999315
0.7699999591
0.7699999756
0.7699999855
0.7699999914
0.7699999949
0.769999997
0.7699999982
0.769999999
0.7699999994
0.7699999997
0.7699999998
0.7699999999
0.7699999999
0.77
0.77
0.77
0.77
0.77
0.77
0.77
0.77
0.77
0.77
0.77
0.77
0.77
0.77
0.77
0.77
0.77
0.77
0.77
0.77
0.77
0.77
0.77
0.77
0.77
0.77
0.77
0.77
0.77
0.77
0.77
0.77
0.77
0.77
0.77
0.7648813324
0.7691054114
0.769833197
0.769953244
0.7699814239
0.7699907333
0.7699948417
0.7699969281
0.7699981357
0.7699988595
0.7699993089
0.769999585
0.7699997542
0.7699998562
0.7699999169
0.7699999524
0.769999973
0.7699999847
0.7699999914
0.7699999952
0.7699999973
0.7699999985
0.7699999991
0.7699999995
0.7699999997
0.7699999998
0.7699999999
0.7699999999
0.77
0.77
0.77
0.77
0.77
0.77
0.77
0.77
0.77
0.77
0.77
0.77
0.77
0.77
0.77
0.77
0.77
0.77
0.77
0.77
0.77
0.77
0.77
0.77
0.77
0.77
0.77
0.77
0.77
0.77
0.77
0.77
0.7618967816
0.7681181979
0.7696666331
0.7699019617
0.7699518432
0.7699713315
0.7699820158
0.769988531
0.7699926859
0.7699953604
0.7699970938
0.7699982042
0.7699989091
0.7699993484
0.7699996179
0.7699997797
0.7699998752
0.7699999303
0.7699999615
0.7699999789
0.7699999885
0.7699999937
0.7699999966
0.7699999981
0.769999999
0.7699999994
0.7699999997
0.7699999998
0.7699999999
0.7699999999
0.7699999999
0.77
0.77
0.77
0.77
0.77
0.77
0.77
0.77
0.77
0.77
0.77
0.77
0.77
0.77
0.77
0.77
0.77
0.77
0.77
0.77
0.77
0.77
0.77
0.77
0.77
0.77
0.77
0.77
0.77
0.7581655817
0.7662575641
0.7692057792
0.7697887843
0.7698912245
0.7699297014
0.7699526593
0.7699681166
0.7699786482
0.7699858162
0.7699906844
0.7699939619
0.7699961484
0.7699975845
0.7699985142
0.7699991038
0.7699994708
0.7699996938
0.7699998265
0.7699999035
0.7699999472
0.7699999714
0.7699999847
0.7699999918
0.7699999956
0.7699999976
0.7699999987
0.7699999992
0.7699999995
0.7699999997
0.7699999998
0.7699999999
0.7699999999
0.7699999999
0.7699999999
0.77
0.77
0.77
0.77
0.77
0.77
0.77
0.77
0.77
0.77
0.77
0.77
0.77
0.77
0.77
0.77
0.77
0.77
0.77
0.77
0.77
0.77
0.77
0.77
0.77
0.7536334705
0.7630165781
0.7679516424
0.7695034566
0.7697789124
0.7698588608
0.7699019288
0.7699311455
0.7699517224
0.7699663167
0.7699766827
0.7699840249
0.7699891932
0.7699927945
0.7699952754
0.7699969583
0.769998081
0.7699988149
0.7699992849
0.7699995785
0.7699997574
0.7699998634
0.7699999247
0.7699999591
0.7699999781
0.7699999884
0.7699999938
0.7699999966
0.7699999981
0.7699999989
0.7699999993
0.7699999996
0.7699999997
0.7699999998
0.7699999999
0.7699999999
0.7699999999
0.7699999999
0.7699999999
0.77
0.77
0.77
0.77
0.77
0.77
0.77
0.77
0.77
0.77
0.77
0.77
0.77
0.77
0.77
0.77
0.77
0.77
0.77
0.77
0.77
0.7488684111
0.7590034752
0.7656277405
0.7687285058
0.7695700352
0.7697591869
0.7698352837
0.7698818735
0.7699143432
0.769937833
0.7699550361
0.7699676716
0.7699769402
0.7699837099
0.7699886226
0.7699921586
0.7699946791
0.7699964535
0.769997684
0.7699985208
0.7699990778
0.7699994393
0.7699996679
0.7699998084
0.7699998922
0.7699999407
0.769999968
0.7699999829
0.7699999909
0.7699999951
0.7699999973
0.7699999984
0.7699999991
0.7699999994
0.7699999996
0.7699999997
0.7699999998
0.7699999998
0.7699999999
0.7699999999
0.7699999999
0.7699999999
0.77
0.77
0.77
0.77
0.77
0.77
0.77
0.77
0.77
0.77
0.77
0.77
0.77
0.77
0.77
0.77
0.77
0.77
0.7447827315
0.7550352254
0.7624006768
0.7671421362
0.7690846354
0.7695969081
0.7697509085
0.7698243034
0.7698711844
0.7699044385
0.7699289454
0.7699472719
0.769961039
0.7699713779
0.7699791197
0.7699848913
0.7699891706
0.7699923221
0.769994626
0.7699962959
0.7699974931
0.7699983391
0.7699989263
0.7699993244
0.7699995869
0.7699997547
0.7699998585
0.7699999206
0.7699999565
0.7699999766
0.7699999875
0.7699999933
0.7699999963
0.7699999979
0.7699999987
0.7699999992
0.7699999994
0.7699999996
0.7699999997
0.7699999998
0.7699999998
0.7699999999
0.7699999999
0.7699999999
0.7699999999
0.77
0.77
0.77
0.77
0.77
0.77
0.77
0.77
0.77
0.77
0.77
0.77
0.77
0.77
0.77
0.7410214816
0.7516657233
0.759309467
0.7648067389
0.768115391
0.7693018622
0.7696320736
0.7697558381
0.7698228361
0.7698674808
0.7698998166
0.7699240489
0.7699424696
0.7699565472
0.7699673156
0.7699755414
0.7699818081
0.7699865651
0.7699901603
0.7699928637
0.7699948843
0.7699963832
0.7699974842
0.7699982836
0.7699988557
0.7699992569
0.7699995317
0.7699997143
0.7699998313
0.7699999035
0.7699999464
0.7699999709
0.7699999844
0.7699999916
0.7699999954
0.7699999973
0.7699999984
0.7699999989
0.7699999992
0.7699999994
0.7699999996
0.7699999997
0.7699999998
0.7699999998
0.7699999999
0.7699999999
0.7699999999
0.77
0.77
0.77
0.77
0.77
0.77
0.77
0.77
0.77
0.77
0.77
0.77
0.77
0.7371692673
0.7482308977
0.7563497303
0.7622918033
0.7664946393
0.7687213503
0.7694390315
0.7696640453
0.7697647799
0.7698251058
0.7698669115
0.7698977714
0.7699212196
0.7699392826
0.7699532844
0.7699641633
0.7699726162
0.7699791753
0.7699842534
0.7699881733
0.7699911898
0.7699934981
0.7699952558
0.7699965853
0.7699975818
0.76999832
0.7699988584
0.7699992437
0.7699995133
0.7699996968
0.7699998176
0.7699998941
0.7699999405
0.7699999674
0.7699999823
0.7699999904
0.7699999946
0.7699999968
0.769999998
0.7699999987
0.7699999991
0.7699999994
0.7699999995
0.7699999996
0.7699999997
0.7699999998
0.7699999999
0.7699999999
0.7699999999
0.77
0.77
0.77
0.77
0.77
0.77
0.77
0.77
0.77
0.77
0.77
0.7334811414
0.7447825396
0.7533366876
0.7596644387
0.7644212566
0.7676365078
0.7690676147
0.7695215083
0.7696876967
0.7697730014
0.7698278841
0.769867087
0.7698964888
0.7699190999
0.7699367236
0.769950556
0.7699614479
0.7699700378
0.7699767978
0.7699821145
0.7699862925
0.7699895695
0.769992132
0.7699941271
0.7699956711
0.7699968562
0.7699977559
0.7699984296
0.7699989256
0.7699992836
0.7699995356
0.7699997083
0.7699998229
0.7699998961
0.7699999409
0.7699999672
0.769999982
0.7699999901
0.7699999944
0.7699999967
0.7699999979
0.7699999986
0.769999999
0.7699999993
0.7699999995
0.7699999996
0.7699999997
0.7699999998
0.7699999999
0.7699999999
0.7699999999
0.7699999999
0.77
0.77
0.77
0.77
0.77
0.77
0.77
0.77
0.7302476884
0.7415410187
0.7504465649
0.7571753242
0.7621696748
0.7658949692
0.768264276
0.7692424186
0.7695700747
0.7697055045
0.7697810246
0.769831559
0.7698683378
0.7698962728
0.7699180112
0.7699350885
0.7699485961
0.7699593441
0.7699679206
0.7699747711
0.7699802481
0.7699846254
0.7699881181
0.7699908966
0.7699930972
0.7699948294
0.7699961819
0.7699972267
0.7699980232
0.7699986206
0.76999906
0.7699993761
0.7699995975
0.7699997482
0.7699998473
0.7699999102
0.7699999486
0.7699999712
0.769999984
0.769999991
0.7699999948
0.7699999968
0.769999998
0.7699999986
0.769999999
0.7699999993
0.7699999995
0.7699999996
0.7699999997
0.7699999998
0.7699999999
0.7699999999
0.7699999999
0.7699999999
0.77
0.77
0.77
0.77
0.77
0.77
0.7273263151
0.7385530742
0.7477067951
0.7547598929
0.7600829912
0.7640260925
0.7668987895
0.7686354645
0.76934739
0.7696082159
0.769725806
0.7697942017
0.7698407331
0.7698744976
0.7699005587
0.769920419
0.7699361722
0.769948799
0.7699589857
0.7699672314
0.7699739166
0.7699793378
0.7699837303
0.7699872826
0.7699901466
0.7699924453
0.7699942786
0.7699957285
0.7699968628
0.7699977382
0.7699984027
0.7699988973
0.7699992575
0.7699995132
0.7699996897
0.7699998078
0.7699998843
0.7699999322
0.7699999611
0.769999978
0.7699999875
0.7699999928
0.7699999956
0.7699999972
0.7699999981
0.7699999987
0.769999999
0.7699999993
0.7699999995
0.7699999996
0.7699999997
0.7699999998
0.7699999999
0.7699999999
0.7699999999
0.7699999999
0.77
0.77
0.77
0.77
0.7246054746
0.7356411712
0.7449360813
0.7522902312
0.7579248395
0.7621640506
0.765285649
0.7675188866
0.7688531685
0.7694281107
0.7696563275
0.7697623431
0.7698225178
0.769861928
0.76989107
0.769912477
0.7699293194
0.7699427748
0.7699536502
0.7699625051
0.7699697446
0.7699756743
0.7699805324
0.76998451
0.7699877617
0.7699904145
0.7699925713
0.7699943154
0.7699957141
0.7699968228
0.7699976892
0.7699983544
0.7699988544
0.7699992214
0.7699994841
0.7699996669
0.7699997906
0.7699998717
0.7699999233
0.7699999551
0.769999974
0.7699999849
0.7699999911
0.7699999945
0.7699999964
0.7699999975
0.7699999983
0.7699999987
0.7699999991
0.7699999993
0.7699999995
0.7699999997
0.7699999997
0.7699999998
0.7699999999
0.7699999999
0.7699999999
0.77
0.77
0.77
0.7221271549
0.7328771614
0.742145109
0.7497459811
0.7556880848
0.7602218991
0.7636177807
0.7661046252
0.7678869312
0.7690020585
0.7695202133
0.7697286065
0.7698197685
0.7698669338
0.7698968418
0.769917869
0.7699336552
0.7699459813
0.7699558465
0.7699638658
0.7699704477
0.7699758811
0.7699803809
0.7699841127
0.7699872084
0.7699897739
0.769991896
0.769993646
0.7699950826
0.7699962527
0.7699971939
0.7699979397
0.7699985202
0.7699989617
0.7699992889
0.7699995248
0.7699996902
0.7699998028
0.7699998773
0.7699999252
0.7699999551
0.7699999732
0.7699999839
0.7699999901
0.7699999937
0.7699999957
0.769999997
0.7699999979
0.7699999985
0.7699999989
0.7699999992
0.7699999994
0.7699999996
0.7699999997
0.7699999998
0.7699999998
0.7699999999
0.7699999999
0.7699999999
0.77
0.7199245663
0.7303370911
0.7395089816
0.7472040907
0.7534202204
0.7582416136
0.7619086332
0.7646477698
0.7666600272
0.7681401908
0.7691347199
0.7696282523
0.769812535
0.7698823898
0.7699153057
0.7699346326
0.7699477741
0.7699574876
0.769965035
0.769971085
0.7699760319
0.7699801291
0.7699835507
0.7699864234
0.7699888434
0.7699908857
0.7699926101
0.7699940647
0.7699952882
0.7699963117
0.7699971595
0.7699978522
0.7699984086
0.7699988467
0.7699991837
0.769999436
0.7699996196
0.7699997493
0.7699998383
0.7699998977
0.7699999362
0.7699999605
0.7699999755
0.7699999846
0.76999999
0.7699999933
0.7699999953
0.7699999966
0.7699999975
0.7699999982
0.7699999987
0.769999999
0.7699999993
0.7699999995
0.7699999996
0.7699999997
0.7699999998
0.7699999999
0.7699999999
0.7699999999
0.7180335279
0.7280770005
0.7370929245
0.744811205
0.7511777218
0.7562570889
0.7601806398
0.7631689373
0.7654184786
0.7671040932
0.7683870821
0.7692934652
0.7697406201
0.769884578
0.769931346
0.7699515758
0.7699629116
0.769970362
0.769975758
0.7699799096
0.7699832285
0.7699859477
0.7699882124
0.7699901195
0.7699917383
0.76999312
0.7699943038
0.7699953204
0.7699961932
0.7699969406
0.7699975766
0.7699981128
0.7699985583
0.7699989218
0.7699992116
0.7699994366
0.7699996064
0.769999731
0.7699998201
0.7699998819
0.7699999235
0.7699999509
0.7699999684
0.7699999794
0.7699999862
0.7699999905
0.7699999932
0.769999995
0.7699999963
0.7699999972
0.7699999979
0.7699999985
0.7699999989
0.7699999992
0.7699999994
0.7699999996
0.7699999997
0.7699999998
0.7699999998
0.7699999999
0.7164638544
0.7260987986
0.7349035958
0.7425756302
0.7490272503
0.754291438
0.7584503029
0.7616787925
0.7641646064
0.7660735277
0.7675439032
0.7686965077
0.7694995001
0.7698396043
0.7699324662
0.7699608297
0.7699728324
0.7699794273
0.7699836899
0.7699867338
0.76998904
0.769990858
0.7699923316
0.7699935496
0.7699945701
0.769995435
0.7699961744
0.7699968104
0.7699973597
0.7699978345
0.7699982444
0.7699985964
0.7699988959
0.7699991473
0.7699993546
0.7699995218
0.7699996531
0.7699997536
0.7699998284
0.7699998825
0.7699999207
0.7699999469
0.7699999644
0.7699999758
0.7699999832
0.7699999879
0.7699999911
0.7699999933
0.7699999948
0.7699999961
0.769999997
0.7699999978
0.7699999983
0.7699999988
0.7699999991
0.7699999993
0.7699999995
0.7699999996
0.7699999997
0.7699999998
0.7151564851
0.7243399609
0.7328874791
0.7404642347
0.7469537372
0.752351565
0.7567226722
0.7601791166
0.7628955082
0.7650260469
0.7667007695
0.7680234296
0.769064766
0.7697030211
0.769909055
0.7699601787
0.7699766299
0.7699839847
0.7699881168
0.769990783
0.7699926542
0.7699940401
0.7699951054
0.7699959469
0.7699966259
0.7699971842
0.7699976481
0.7699980384
0.7699983693
0.7699986515
0.7699988926
0.7699990987
0.7699992745
0.7699994237
0.7699995492
0.7699996532
0.769999738
0.7699998056
0.7699998582
0.7699998982
0.7699999279
0.7699999492
0.7699999641
0.7699999744
0.7699999814
0.7699999861
0.7699999894
0.7699999917
0.7699999934
0.7699999948
0.769999996
0.7699999969
0.7699999977
0.7699999983
0.7699999987
0.769999999
0.7699999993
0.7699999994
0.7699999996
0.7699999997
0.7140502055
0.7227606049
0.7310104924
0.7384488725
0.7449322643
0.7504268827
0.7549777735
0.7586531735
0.7615931471
0.7639398462
0.7658143085
0.7673165249
0.7685220711
0.7694148584
0.7698385251
0.769947231
0.769974903
0.7699848835
0.7699897505
0.7699925994
0.7699944483
0.7699957269
0.7699966494
0.7699973356
0.7699978585
0.7699982652
0.7699985867
0.7699988445
0.7699990533
0.7699992237
0.769999364
0.7699994798
0.7699995759
0.7699996561
0.7699997233
0.7699997795
0.7699998265
0.7699998652
0.7699998967
0.7699999218
0.7699999414
0.7699999562
0.7699999673
0.7699999753
0.769999981
0.7699999851
0.7699999881
0.7699999904
0.7699999922
0.7699999936
0.7699999949
0.769999996
0.7699999969
0.7699999976
0.7699999982
0.7699999986
0.769999999
0.7699999992
0.7699999994
0.7699999995
0.713089545
0.7213326688
0.729265723
0.7365324886
0.7429737938
0.7485313501
0.7532213436
0.757101201
0.7602543732
0.7628096305
0.7648770256
0.7665474366
0.7678941775
0.7689727161
0.7696696256
0.7699097196
0.769966422
0.7699827587
0.7699894087
0.7699928973
0.7699950056
0.7699963832
0.7699973261
0.7699979915
0.7699984717
0.7699988246
0.7699990881
0.7699992873
0.7699994388
0.7699995548
0.769999644
0.7699997128
0.7699997664
0.7699998088
0.7699998429
0.7699998709
0.7699998944
0.7699999142
0.7699999308
0.7699999446
0.7699999559
0.7699999649
0.769999972
0.7699999775
0.7699999817
0.7699999849
0.7699999875
0.7699999895
0.7699999912
0.7699999926
0.7699999939
0.7699999951
0.7699999961
0.769999997
0.7699999977
0.7699999982
0.7699999986
0.7699999989
0.7699999991
0.7699999993
0.712262323
0.7200545521
0.7276616674
0.7347328077
0.7410998252
0.7466853577
0.7514807004
0.7555313153
0.7588850846
0.7616389307
0.7638935458
0.7657333317
0.7672265094
0.7684272742
0.7693386074
0.7698151592
0.7699454078
0.7699769336
0.7699873788
0.7699921243
0.7699947589
0.7699963887
0.7699974588
0.7699981867
0.7699986929
0.76999905
0.7699993047
0.7699994876
0.7699996198
0.7699997151
0.7699997836
0.7699998327
0.7699998678
0.769999893
0.7699999116
0.7699999258
0.7699999371
0.7699999466
0.7699999547
0.7699999616
0.7699999675
0.7699999725
0.7699999767
0.7699999801
0.7699999829
0.7699999853
0.7699999872
0.769999989
0.7699999905
0.7699999919
0.7699999931
0.7699999943
0.7699999954
0.7699999963
0.7699999971
0.7699999977
0.7699999982
0.7699999985
0.7699999988
0.7699999991
0.7115776683
0.7189407816
0.7262213333
0.7330788551
0.7393430589
0.7449218883
0.7497858549
0.7539576346
0.757489718
0.7604251683
0.762854284
0.7648540032
0.7664882658
0.7678115505
0.7688715925
0.7696017368
0.7698929669
0.7699638748
0.7699830168
0.7699902604
0.7699938514
0.7699959299
0.7699972365
0.7699980961
0.7699986772
0.7699990765
0.7699993537
0.769999547
0.769999682
0.7699997757
0.7699998401
0.7699998839
0.7699999132
0.7699999327
0.7699999456
0.7699999544
0.7699999606
0.7699999653
0.7699999691
0.7699999724
0.7699999753
0.7699999779
0.7699999802
0.7699999823
0.7699999841
0.7699999858
0.7699999873
0.7699999887
0.76999999
0.7699999913
0.7699999925
0.7699999937
0.7699999948
0.7699999957
0.7699999965
0.7699999972
0.7699999977
0.7699999982
0.7699999985
0.7699999988
0.7110566708
0.7180022632
0.7249634341
0.7315996755
0.7377355323
0.743273972
0.7481708466
0.7524293984
0.7560888276
0.759189296
0.7617800172
0.7639321777
0.7657058534
0.7671512447
0.7683107858
0.7692161957
0.7697586342
0.7699322873
0.7699742075
0.7699869242
0.7699922604
0.7699950706
0.7699967437
0.7699978075
0.7699985093
0.7699989821
0.7699993043
0.7699995253
0.7699996769
0.7699997809
0.7699998512
0.7699998979
0.7699999283
0.7699999476
0.7699999597
0.7699999672
0.7699999719
0.7699999749
0.769999977
0.7699999787
0.7699999801
0.7699999815
0.7699999827
0.7699999839
0.7699999851
0.7699999863
0.7699999875
0.7699999886
0.7699999898
0.769999991
0.7699999921
0.7699999932
0.7699999943
0.7699999952
0.769999996
0.7699999967
0.7699999973
0.7699999978
0.7699999981
0.7699999984
0.7107496763
0.7173046006
0.7239338064
0.7303249753
0.7363021232
0.7417639981
0.7466551315
0.7509635712
0.7547111182
0.7579400689
0.7606760087
0.7629694441
0.764876552
0.7664455778
0.7677182002
0.7687297422
0.7694766255
0.769852582
0.7699552233
0.7699809648
0.7699897322
0.7699937592
0.7699959865
0.7699973458
0.76999822
0.7699987989
0.7699991884
0.7699994527
0.7699996325
0.7699997545
0.7699998368
0.7699998914
0.7699999269
0.7699999494
0.7699999632
0.7699999715
0.7699999764
0.7699999793
0.769999981
0.7699999821
0.7699999829
0.7699999836
0.7699999844
0.7699999851
0.7699999859
0.7699999868
0.7699999877
0.7699999887
0.7699999897
0.7699999908
0.7699999918
0.7699999929
0.7699999938
0.7699999948
0.7699999956
0.7699999963
0.7699999969
0.7699999974
0.7699999977
0.7699999981
0.7106641639
0.7168483828
0.7231431775