/*--------------------------------*- C++ -*----------------------------------*\
  =========                 |
  \\      /  F ield         | OpenFOAM: The Open Source CFD Toolbox
   \\    /   O peration     | Website:  https://openfoam.org
    \\  /    A nd           | Version:  10
     \\/     M anipulation  |
\*---------------------------------------------------------------------------*/
FoamFile
{
    format      ascii;
    class       volScalarField;
    location    "3000";
    object      N2O;
}
// * * * * * * * * * * * * * * * * * * * * * * * * * * * * * * * * * * * * * //

dimensions      [0 0 0 0 0 0 0];

internalField   nonuniform List<scalar> 
5170
(
1.695231277e-63
1.369940684e-63
8.531641807e-64
4.252000823e-64
3.441781052e-64
5.736244474e-61
4.583110609e-61
2.800697686e-61
1.618525932e-61
2.857974966e-61
1.967807878e-58
1.560644672e-58
9.499305446e-59
7.467751451e-59
2.249777513e-58
6.882311076e-56
5.452783339e-56
3.425697243e-56
3.839179307e-56
1.623486249e-55
2.452911231e-53
1.960246766e-53
1.320235025e-53
2.090148651e-53
1.092094873e-52
8.945889908e-51
7.301704986e-51
5.394923255e-51
1.171402359e-50
6.936002151e-50
3.334962611e-48
2.804257982e-48
2.366359722e-48
6.678461214e-48
4.252314232e-47
1.269011674e-45
1.111652953e-45
1.117748262e-45
3.856849546e-45
2.547853396e-44
4.942406901e-43
4.601326267e-43
5.554023931e-43
2.250951243e-42
1.500630415e-41
1.973510632e-40
1.987246385e-40
2.870646349e-40
1.330038602e-39
8.723831967e-39
8.061954733e-38
8.923437501e-38
1.534121146e-37
7.942861067e-37
5.021162233e-36
3.354616764e-35
4.152378548e-35
8.482948844e-35
4.787148703e-34
2.868172613e-33
1.416182375e-32
1.989408936e-32
4.86774998e-32
2.930204265e-31
1.62876344e-30
6.017799684e-30
9.725978559e-30
2.871134538e-29
1.822986162e-28
9.211625644e-28
2.562363999e-27
4.811003268e-27
1.715873988e-26
1.147473202e-25
5.195471959e-25
1.07595342e-24
2.369824927e-24
1.018087132e-23
7.071716817e-23
2.92561029e-22
4.433283445e-22
1.15948866e-21
5.845712487e-21
4.223733486e-20
1.648754371e-19
1.752706232e-19
5.529811521e-19
3.247931131e-18
2.39960914e-17
9.293937601e-17
6.369719434e-17
2.516771155e-16
1.697199982e-15
1.270262292e-14
5.260690441e-14
1.983440468e-14
1.108270296e-13
8.636612457e-13
6.157154363e-12
3.027242428e-11
3.768878418e-07
2.933434614e-07
2.641503199e-07
3.131000375e-07
3.824388287e-07
4.890071028e-07
4.258723387e-07
4.004254399e-07
4.456926292e-07
4.922611937e-07
5.025972869e-07
4.758581481e-07
4.61701011e-07
4.840922122e-07
4.969844741e-07
4.833363089e-07
4.804950066e-07
4.749212786e-07
4.834627153e-07
4.706557321e-07
4.542196105e-07
4.66855667e-07
4.664274284e-07
4.66043291e-07
4.369509708e-07
4.240159683e-07
4.455542016e-07
4.485116298e-07
4.413617691e-07
4.035645107e-07
3.96182912e-07
4.21968026e-07
4.266205586e-07
4.139686582e-07
3.733298072e-07
3.714281192e-07
3.983655707e-07
4.034336344e-07
3.862776394e-07
3.467486217e-07
3.498159168e-07
3.757761082e-07
3.802818176e-07
3.603660177e-07
3.243763713e-07
3.311617669e-07
3.549016261e-07
3.582690235e-07
3.375934725e-07
3.062822017e-07
3.152048147e-07
3.361162025e-07
3.382394773e-07
3.183869146e-07
2.919794746e-07
3.016729403e-07
3.196087994e-07
3.206523021e-07
3.026008755e-07
2.807505027e-07
2.902859346e-07
3.053882971e-07
3.056151522e-07
2.898175664e-07
2.719313308e-07
2.80766022e-07
2.93321793e-07
2.929996233e-07
2.795385734e-07
2.649627452e-07
2.728410102e-07
2.832034965e-07
2.825532086e-07
2.712868326e-07
2.594030502e-07
2.662644878e-07
2.747841187e-07
2.739862374e-07
2.646418261e-07
2.548879729e-07
2.608323741e-07
2.678039082e-07
2.669536872e-07
2.592490277e-07
2.511706309e-07
2.564862757e-07
2.620252959e-07
2.611225816e-07
2.547889477e-07
2.48055286e-07
2.559102733e-07
2.579624663e-07
2.563804938e-07
2.510392877e-07
2.453685799e-07
3.983747806e-07
2.940057012e-07
2.628913475e-07
2.522558478e-07
2.463741011e-07
7.431648725e-13
5.749880502e-12
8.842852147e-11
1.330857808e-09
1.787837345e-08
4.01764239e-12
2.693662119e-11
3.264238472e-10
3.439096269e-09
2.594414762e-08
1.309519354e-11
7.758486433e-11
7.692044667e-10
6.104048708e-09
3.048678409e-08
3.411149498e-11
1.820909298e-10
1.508283992e-09
9.216015678e-09
3.299305496e-08
7.635741912e-11
3.695775432e-10
2.562207073e-09
1.229992941e-08
3.444158294e-08
1.549440532e-10
6.786970088e-10
3.959862379e-09
1.533987481e-08
3.576782089e-08
3.015077904e-10
1.205749728e-09
5.896061828e-09
1.844610497e-08
3.707966828e-08
5.676673062e-10
2.076764663e-09
8.330229849e-09
2.133431078e-08
3.823985869e-08
1.027935521e-09
3.380557595e-09
1.101169189e-08
2.381892584e-08
3.921815522e-08
1.775857922e-09
5.131750046e-09
1.371730071e-08
2.598903346e-08
4.014250857e-08
2.973305231e-09
7.267483726e-09
1.626207851e-08
2.791251265e-08
4.101666882e-08
4.650193186e-09
9.589121055e-09
1.860360925e-08
2.963956876e-08
4.181302241e-08
6.819173059e-09
1.2052488e-08
2.082933456e-08
3.123870882e-08
4.256467345e-08
9.544863458e-09
1.471639312e-08
2.306515287e-08
3.282428678e-08
4.337558673e-08
1.293516014e-08
1.770062561e-08
2.544676572e-08
3.451365745e-08
4.432284287e-08
1.701193442e-08
2.114562089e-08
2.812717972e-08
3.644091697e-08
4.550350318e-08
2.172680804e-08
2.516047275e-08
3.127541295e-08
3.877348503e-08
4.70634706e-08
2.689059763e-08
2.969307158e-08
3.494716772e-08
4.161018556e-08
4.910297625e-08
3.233892297e-08
3.462021584e-08
3.907573769e-08
4.491089465e-08
5.16056791e-08
3.786205903e-08
3.973222794e-08
4.349140017e-08
4.855067156e-08
5.447378407e-08
4.328401863e-08
4.482671378e-08
4.799206351e-08
5.23467907e-08
5.753881767e-08
4.844597618e-08
4.972685583e-08
5.239128124e-08
5.611660042e-08
6.062428674e-08
5.325778481e-08
5.432144761e-08
5.655589975e-08
5.971922464e-08
6.359110863e-08
5.767322761e-08
5.855515414e-08
6.042178708e-08
6.308796952e-08
6.638206226e-08
6.169845508e-08
6.243053179e-08
6.398687249e-08
6.622381116e-08
6.900550808e-08
6.539098874e-08
6.599803937e-08
6.729193694e-08
6.915996769e-08
7.1495309e-08
6.881504468e-08
6.931650162e-08
7.038808741e-08
7.193932664e-08
7.388413857e-08
7.200647151e-08
7.241687258e-08
7.329409343e-08
7.456446127e-08
7.615624998e-08
7.495683856e-08
7.5285697e-08
7.598811048e-08
7.700095261e-08
7.825859268e-08
7.761107477e-08
7.786254073e-08
7.839541706e-08
7.915464107e-08
8.007769699e-08
7.985916762e-08
8.003024685e-08
8.038755752e-08
8.087901042e-08
8.143936306e-08
8.151729494e-08
8.159767018e-08
8.175338918e-08
8.193626033e-08
8.208437032e-08
8.22303202e-08
8.219915857e-08
8.210959916e-08
8.190928366e-08
8.155414795e-08
8.106016886e-08
8.0887786e-08
8.048807952e-08
7.984527566e-08
7.892104732e-08
7.642246369e-08
7.611550095e-08
7.544498873e-08
7.443763689e-08
7.311775712e-08
6.77870755e-08
6.747958517e-08
6.68261729e-08
6.589608326e-08
6.477510499e-08
5.811369044e-08
5.794803131e-08
5.761232905e-08
5.717918741e-08
5.67441946e-08
5.077685851e-08
5.07912602e-08
5.084699255e-08
5.099651256e-08
5.131801837e-08
4.691137235e-08
4.707479353e-08
4.745113778e-08
4.806880723e-08
4.898155331e-08
4.590828428e-08
4.615447273e-08
4.67044091e-08
4.756504567e-08
4.877303395e-08
4.51200746e-08
4.541275654e-08
4.610481502e-08
4.731061329e-08
4.926765006e-08
4.767999758e-08
4.843388842e-08
5.014963874e-08
5.291189985e-08
5.689614376e-08
6.145486609e-08
6.260563077e-08
6.517435776e-08
6.918018739e-08
7.473366736e-08
8.578784177e-08
8.722396683e-08
9.040718356e-08
9.531220611e-08
1.020079387e-07
1.19551073e-07
1.211998996e-07
1.248423779e-07
1.304343489e-07
1.380142825e-07
1.625145288e-07
1.643353813e-07
1.683501549e-07
1.744796458e-07
1.82741736e-07
2.14718308e-07
2.166647357e-07
2.209499692e-07
2.27474688e-07
2.362378125e-07
2.760647238e-07
2.780939777e-07
2.825560449e-07
2.893347416e-07
2.98409912e-07
3.46029057e-07
3.480911894e-07
3.526195085e-07
3.594822769e-07
3.686381115e-07
4.234010327e-07
4.254289712e-07
4.298747187e-07
4.365920691e-07
4.455141948e-07
5.05811985e-07
5.077099544e-07
5.118634327e-07
5.181080577e-07
5.263595542e-07
5.890679466e-07
5.907096357e-07
5.942893188e-07
5.996456537e-07
6.066618309e-07
6.672254637e-07
6.685081616e-07
6.712954408e-07
6.754407257e-07
6.808233785e-07
7.342476777e-07
7.351034915e-07
7.369535176e-07
7.396792628e-07
7.431705612e-07
7.858208552e-07
7.862529445e-07
7.871767156e-07
7.885103927e-07
7.901668285e-07
8.203042997e-07
8.203718225e-07
8.205010238e-07
8.206467092e-07
8.207484402e-07
8.385419864e-07
8.383313178e-07
8.378554863e-07
8.37099913e-07
8.360282515e-07
8.42963719e-07
8.425629815e-07
8.416745395e-07
8.403063057e-07
8.384405716e-07
8.366145255e-07
8.360988639e-07
8.349615044e-07
8.332251239e-07
8.308849163e-07
8.224663133e-07
8.218928487e-07
8.20630847e-07
8.187115613e-07
8.161383097e-07
8.030632255e-07
8.024718713e-07
8.011720016e-07
7.991989975e-07
7.965607965e-07
7.804050785e-07
7.79821736e-07
7.785402711e-07
7.765972454e-07
7.740028606e-07
7.559797434e-07
7.554200096e-07
7.541908175e-07
7.523280897e-07
7.498428105e-07
7.308311562e-07
7.30303449e-07
7.29144774e-07
7.273893827e-07
7.250481755e-07
7.056869455e-07
7.051950421e-07
7.041150575e-07
7.024790558e-07
7.002973838e-07
6.809916576e-07
6.805363213e-07
6.795366245e-07
6.780222532e-07
6.760027865e-07
6.570818401e-07
6.56662267e-07
6.557410792e-07
6.54345574e-07
6.524844803e-07
6.341030915e-07
6.337172571e-07
6.328701004e-07
6.315866441e-07
6.298747967e-07
6.125137017e-07
6.121594064e-07
6.113814812e-07
6.102028074e-07
6.086304873e-07
5.942988998e-07
5.939706244e-07
5.932497294e-07
5.921572947e-07
5.906997417e-07
6.49544244e-08
6.214434008e-08
5.833884424e-08
5.465318311e-08
5.223623451e-08
5.121782685e-08
5.071650788e-08
5.026248007e-08
4.998343558e-08
4.998370128e-08
5.009406896e-08
5.019620862e-08
5.033361163e-08
5.061968517e-08
5.108313853e-08
5.177899577e-08
5.283600659e-08
5.436245947e-08
5.635841094e-08
5.873602257e-08
6.132514394e-08
6.394867972e-08
6.647247768e-08
6.88520707e-08
7.110425607e-08
7.326607843e-08
7.536169563e-08
7.736049897e-08
7.919500364e-08
8.074085135e-08
8.180013075e-08
8.210234535e-08
8.116490487e-08
7.810436924e-08
7.207860994e-08
6.399022339e-08
5.653869701e-08
5.171021939e-08
4.98245762e-08
4.985170345e-08
5.127910533e-08
6.047489007e-08
7.951121158e-08
1.076675341e-07
1.443638002e-07
1.896198391e-07
2.434994718e-07
3.058990958e-07
3.761593011e-07
4.528004805e-07
5.330300962e-07
6.123110126e-07
6.85090425e-07
7.458875096e-07
7.914003355e-07
8.207362093e-07
8.350819277e-07
8.368657671e-07
8.289373702e-07
8.140105244e-07
7.94386527e-07
7.718685143e-07
7.4780015e-07
7.231248046e-07
6.985053733e-07
6.743440092e-07
6.509556265e-07
6.284683512e-07
6.073384101e-07
5.895017127e-07
1.592790868e-07
1.960625136e-07
4.603608953e-07
3.910249692e-07
2.528904504e-07
1.245157643e-07
1.883952576e-07
3.112033186e-07
6.172947341e-07
2.995601758e-07
1.046729638e-07
1.464226123e-07
1.393875576e-07
5.648985209e-07
3.195850179e-07
8.985728987e-08
1.171597051e-07
1.001267049e-07
3.947051482e-07
3.98375896e-07
8.104838299e-08
1.095403936e-07
1.332339955e-07
2.899415401e-07
5.20187299e-07
7.627197463e-08
1.066407992e-07
1.391881855e-07
2.01626702e-07
5.132901996e-07
7.24984247e-08
9.975362737e-08
1.226766974e-07
1.35559026e-07
3.997762255e-07
6.9102561e-08
9.235840184e-08
1.088324809e-07
1.083903376e-07
3.045365029e-07
6.667340762e-08
8.825117478e-08
1.069599353e-07
1.2333377e-07
2.368467276e-07
6.51710971e-08
8.596807511e-08
1.061531445e-07
1.268030468e-07
1.824951662e-07
6.401710585e-08
8.347173167e-08
1.019993418e-07
1.18088973e-07
1.406131879e-07
6.296773755e-08
8.081943066e-08
9.717484179e-08
1.095520312e-07
1.168987866e-07
6.212121879e-08
7.878954069e-08
9.452314335e-08
1.084212504e-07
1.209425173e-07
6.159267759e-08
7.744042855e-08
9.305375414e-08
1.083152061e-07
1.238296118e-07
6.131566613e-08
7.630470285e-08
9.122399796e-08
1.056879265e-07
1.190078323e-07
6.127282397e-08
7.520097742e-08
8.883253098e-08
1.013653817e-07
1.112619953e-07
6.155429435e-08
7.431509962e-08
8.656937319e-08
9.738340192e-08
1.05099169e-07
6.228754589e-08
7.394601226e-08
8.514333558e-08
9.513125508e-08
1.028077989e-07
6.350705596e-08
7.417452405e-08
8.45384838e-08
9.405045919e-08
1.02011932e-07
6.513614546e-08
7.486479408e-08
8.442667428e-08
9.334113655e-08
1.010015924e-07
6.700133848e-08
7.578532248e-08
8.446474281e-08
9.253248104e-08
9.933315381e-08
6.892354888e-08
7.673070751e-08
8.443094521e-08
9.147153662e-08
9.714266959e-08
7.077835868e-08
7.760594982e-08
8.430566767e-08
9.030270969e-08
9.487609895e-08
7.254022326e-08
7.843912926e-08
8.420392796e-08
8.927138113e-08
9.296099305e-08
7.42374915e-08
7.929136689e-08
8.421964548e-08
8.849151264e-08
9.149883954e-08
7.590858864e-08
8.019741025e-08
8.434625623e-08
8.786060403e-08
9.019749007e-08
7.756265943e-08
8.112515884e-08
8.450486168e-08
8.721963522e-08
8.879984037e-08
7.914648948e-08
8.198669763e-08
8.455941676e-08
8.63825608e-08
8.709722696e-08
8.057186964e-08
8.266182538e-08
8.434860422e-08
8.517495702e-08
8.497887887e-08
8.169731285e-08
8.296984548e-08
8.367047304e-08
8.34198799e-08
8.239610956e-08
8.228997761e-08
8.266232078e-08
8.228767086e-08
8.098393912e-08
7.944682237e-08
8.206556113e-08
8.142218799e-08
7.994648179e-08
7.783195267e-08
7.637661337e-08
8.051297159e-08
7.879455725e-08
7.640960826e-08
7.407227055e-08
7.349305602e-08
7.683259272e-08
7.42888707e-08
7.163924415e-08
6.997929627e-08
7.100554435e-08
7.053373798e-08
6.804887352e-08
6.620287414e-08
6.6086004e-08
6.907903544e-08
6.288410361e-08
6.161474649e-08
6.152032135e-08
6.352475114e-08
6.878367444e-08
5.632051899e-08
5.677516525e-08
5.864298472e-08
6.268723136e-08
7.009601835e-08
5.238469768e-08
5.442580716e-08
5.796980202e-08
6.38263727e-08
7.494598041e-08
5.116156812e-08
5.432620025e-08
5.924603466e-08
6.83760847e-08
8.460261205e-08
5.156233165e-08
5.60229367e-08
6.445417405e-08
7.861348338e-08
9.966561016e-08
5.457976804e-08
6.319433023e-08
7.641360978e-08
9.522847802e-08
1.203887255e-07
6.607803419e-08
7.864931132e-08
9.587155988e-08
1.184350917e-07
1.469080403e-07
8.687456568e-08
1.024543385e-07
1.22732283e-07
1.482186961e-07
1.793380866e-07
1.163312331e-07
1.341871775e-07
1.568338131e-07
1.846283593e-07
2.178440524e-07
1.540471531e-07
1.736966292e-07
1.982102585e-07
2.278015036e-07
2.625856442e-07
2.00081719e-07
2.211031569e-07
2.470188587e-07
2.77888804e-07
3.136659999e-07
2.545216003e-07
2.764986544e-07
3.033185646e-07
3.348911797e-07
3.709699005e-07
3.172448353e-07
3.396950563e-07
3.668115197e-07
3.98323366e-07
4.337537181e-07
3.875294569e-07
4.098292201e-07
4.364341832e-07
4.668635921e-07
5.00393126e-07
4.637865032e-07
4.85084291e-07
5.100917626e-07
5.381054031e-07
5.681858856e-07
5.430582604e-07
5.62222555e-07
5.842583859e-07
6.083234602e-07
6.333484953e-07
6.207710966e-07
6.366289438e-07
6.544415816e-07
6.732408463e-07
6.919982408e-07
6.914428538e-07
7.030477298e-07
7.156339832e-07
7.283584428e-07
7.40317136e-07
7.499006667e-07
7.569492455e-07
7.641702042e-07
7.708756073e-07
7.763613648e-07
7.931869376e-07
7.959994857e-07
7.983647099e-07
7.99776347e-07
7.997368708e-07
8.206598104e-07
8.199848325e-07
8.184276047e-07
8.15651997e-07
8.113398611e-07
8.33612319e-07
8.303606542e-07
8.259477658e-07
8.201752531e-07
8.128638219e-07
8.34461032e-07
8.294991615e-07
8.23217994e-07
8.155195622e-07
8.063230496e-07
8.259797783e-07
8.20022111e-07
8.126756413e-07
8.039096953e-07
7.937081754e-07
8.107874065e-07
8.043675386e-07
7.965511477e-07
7.873491812e-07
7.767848677e-07
7.91097344e-07
7.845843938e-07
7.767081655e-07
7.675030441e-07
7.570138605e-07
7.686420462e-07
7.622735927e-07
7.546004853e-07
7.456685261e-07
7.355325246e-07
7.447134483e-07
7.386311584e-07
7.313171509e-07
7.228211473e-07
7.132007232e-07
7.202189197e-07
7.144974931e-07
7.076238251e-07
6.996471931e-07
6.906237788e-07
6.957981137e-07
6.904693626e-07
6.840694677e-07
6.766448848e-07
6.682481639e-07
6.718380694e-07
6.669053557e-07
6.609808158e-07
6.541070262e-07
6.463319562e-07
6.486458008e-07
6.440983881e-07
6.386351507e-07
6.322943645e-07
6.251190701e-07
6.263434293e-07
6.221586131e-07
6.171291895e-07
6.112893012e-07
6.046773034e-07
6.053859512e-07
6.015399035e-07
5.969154612e-07
5.915426965e-07
5.854553873e-07
5.876911703e-07
5.841234221e-07
5.798315005e-07
5.748421826e-07
5.691855859e-07
2.970550663e-08
3.649280843e-09
5.532327976e-10
1.127004398e-10
2.946513377e-11
8.502024153e-12
2.618360413e-12
9.347878112e-13
4.092513719e-13
2.132414869e-13
1.231981411e-13
7.478186877e-14
4.631990884e-14
2.88469954e-14
1.792224359e-14
1.105548003e-14
6.751315897e-15
4.073267315e-15
2.424666341e-15
1.422587179e-15
8.220999423e-16
4.677244735e-16
2.619204587e-16
1.443726004e-16
7.838178273e-17
4.198117015e-17
2.224868262e-17
1.172617198e-17
6.194240537e-18
3.315328598e-18
1.822357987e-18
1.043230392e-18
6.286700742e-19
4.003496525e-19
2.683085741e-19
1.872971678e-19
1.343733067e-19
9.771703254e-20
7.112896829e-20
5.12951162e-20
3.637396591e-20
2.524350303e-20
1.71096861e-20
1.132680819e-20
7.336503086e-21
4.661551938e-21
2.913901497e-21
1.796303406e-21
1.093785014e-21
6.581977115e-22
3.912121689e-22
2.293301218e-22
1.32268444e-22
7.476315581e-23
4.110550553e-23
2.161809138e-23
1.041149213e-23
4.129774893e-24
9.614468506e-25
7.865414527e-26
6.554071033e-08
9.547704842e-09
1.563275287e-09
3.309058859e-10
9.536668254e-11
3.438694364e-11
1.479539338e-11
7.406769916e-12
4.039738495e-12
2.305848392e-12
1.336239268e-12
7.792285881e-13
4.547359332e-13
2.652215234e-13
1.544455177e-13
8.971984285e-14
5.194656561e-14
2.993873269e-14
1.715450205e-14
9.757471902e-15
5.501460752e-15
3.070918514e-15
1.695608058e-15
9.255312401e-16
4.994664005e-16
2.667866577e-16
1.414145149e-16
7.472627546e-17
3.964435814e-17
2.132738686e-17
1.178015787e-17
6.768782178e-18
4.087811642e-18
2.605595132e-18
1.74718129e-18
1.2208726e-18
8.774950833e-19
6.397270672e-19
4.669924382e-19
3.377465037e-19
2.40165548e-19
1.671257095e-19
1.135899636e-19
7.542536316e-20
4.902168262e-20
3.12715797e-20
1.963595858e-20
1.216548969e-20
7.447464337e-21
4.506316316e-21
2.693122429e-21
1.587217342e-21
9.202019229e-22
5.226491204e-22
2.885301318e-22
1.521653932e-22
7.342376692e-23
2.928725714e-23
7.294178323e-24
7.402936748e-25
8.717958639e-08
1.363424943e-08
2.300021042e-09
6.200064852e-10
2.454603152e-10
1.223432442e-10
6.739896794e-11
3.940341963e-11
2.338014715e-11
1.396265442e-11
8.255861787e-12
4.836955707e-12
2.795399547e-12
1.595972952e-12
9.001748375e-13
5.026156922e-13
2.784173923e-13
1.533456728e-13
8.414874096e-14
4.604627135e-14
2.512284624e-14
1.3654207e-14
7.385211613e-15
3.971395352e-15
2.122370638e-15
1.127871251e-15
5.971453266e-16
3.161025705e-16
1.682808378e-16
9.085108513e-17
5.027555562e-17
2.885755159e-17
1.735787024e-17
1.10024716e-17
7.341129913e-18
5.116196186e-18
3.677944522e-18
2.688093024e-18
1.97002045e-18
1.431403056e-18
1.022838552e-18
7.153427649e-19
4.887100113e-19
3.262830209e-19
2.133218527e-19
1.369752953e-19
8.663800304e-20
5.410636789e-20
3.340549579e-20
2.039181387e-20
1.229569514e-20
7.310293503e-21
4.273906563e-21
2.446199284e-21
1.35894782e-21
7.192805058e-22
3.472466611e-22
1.377740458e-22
3.453572502e-23
3.64462953e-24
1.535810543e-07
3.420373592e-08
5.483783758e-09
1.467917852e-09
6.968420982e-10
4.06737534e-10
2.497519432e-10
1.554175086e-10
9.656245533e-11
5.964123955e-11
3.637381369e-11
2.18863678e-11
1.294841626e-11
7.533812547e-12
4.303680306e-12
2.416229832e-12
1.333610404e-12
7.253958233e-13
3.897569671e-13
2.075545528e-13
1.098548812e-13
5.791974519e-14
3.045938466e-14
1.599026166e-14
8.384518187e-15
4.393911345e-15
2.304166283e-15
1.2119785e-15
6.420329285e-16
3.446811642e-16
1.891421427e-16
1.071808461e-16
6.337283062e-17
3.940718219e-17
2.583908685e-17
1.778321921e-17
1.270028447e-17
9.268848481e-18
6.807031881e-18
4.966983825e-18
3.569085126e-18
2.512301899e-18
1.728800828e-18
1.163425844e-18
7.67291852e-19
4.973769042e-19
3.178187204e-19
2.006274581e-19
1.252515906e-19
7.732817889e-20
4.716478293e-20
2.836548285e-20
1.677033694e-20
9.698658749e-21
5.433980171e-21
2.890439009e-21
1.396268493e-21
5.502075543e-22
1.367474806e-22
1.45244195e-23
2.464881829e-07
7.571148433e-08
1.507276264e-08
3.577851718e-09
1.727487546e-09
1.078234344e-09
7.051859856e-10
4.614126077e-10
3.00222171e-10
1.938169563e-10
1.237574353e-10
7.801753374e-11
4.84201814e-11
2.955360786e-11
1.769601221e-11
1.039132635e-11
5.974113158e-12
3.364624275e-12
1.855588257e-12
1.00408874e-12
5.338894403e-13
2.799082794e-13
1.451187736e-13
7.467453421e-14
3.826127743e-14
1.958154187e-14
1.003635506e-14
5.165042617e-15
2.677126948e-15
1.403466692e-15
7.48704357e-16
4.097981462e-16
2.324905006e-16
1.381878376e-16
8.675273585e-17
5.759101982e-17
4.009500908e-17
2.882059361e-17
2.101506354e-17
1.531025545e-17
1.102512946e-17
7.797914799e-18
5.402517289e-18
3.666781161e-18
2.442894214e-18
1.601974808e-18
1.036667415e-18
6.630912403e-19
4.194954756e-19
2.62392717e-19
1.620956131e-19
9.871314232e-20
5.907894406e-20
3.456240847e-20
1.955561262e-20
1.046961172e-20
5.067123206e-21
1.988988039e-21
4.906331513e-22
5.303771235e-23
3.315624773e-07
1.418271007e-07
4.099626201e-08
9.309516089e-09
3.845747216e-09
2.340823169e-09
1.568044689e-09
1.064806577e-09
7.233904804e-10
4.896509291e-10
3.291715982e-10
2.191743723e-10
1.441799587e-10
9.353091558e-11
5.969075645e-11
3.7416047e-11
2.29893988e-11
1.38284662e-11
8.127107362e-12
4.665540496e-12
2.614041826e-12
1.431290081e-12
7.662300647e-13
4.020325694e-13
2.072181981e-13
1.053619732e-13
5.306900132e-14
2.660990837e-14
1.334832324e-14
6.73424697e-15
3.436729948e-15
1.786544523e-15
9.545905532e-16
5.304114313e-16
3.103908795e-16
1.929375946e-16
1.27188932e-16
8.780505612e-17
6.233415602e-17
4.47079062e-17
3.19554344e-17
2.25627619e-17
1.566722413e-17
1.068916854e-17
7.177690359e-18
4.756617308e-18
3.117711299e-18
2.022982019e-18
1.299113523e-18
8.247593645e-19
5.168255531e-19
3.19012287e-19
1.933692482e-19
1.144715121e-19
6.545901014e-20
3.53493086e-20
1.720648418e-20
6.77910632e-21
1.675992725e-21
1.865516284e-22
4.337246885e-07
2.278919878e-07
9.044853727e-08
2.566350666e-08
8.100858498e-09
4.266751326e-09
2.79248309e-09
1.929495621e-09
1.352548272e-09
9.509838645e-10
6.673813396e-10
4.661330929e-10
3.233026805e-10
2.222464591e-10
1.511429711e-10
1.014831507e-10
6.711366542e-11
4.360998709e-11
2.776911329e-11
1.729488832e-11
1.051384394e-11
6.231338401e-12
3.594917526e-12
2.017775151e-12
1.101487956e-12
5.857490112e-13
3.039207528e-13
1.543388519e-13
7.701976661e-14
3.799313252e-14
1.866030783e-14
9.204141571e-15
4.606019057e-15
2.367558189e-15
1.268861367e-15
7.198094203e-16
4.353282251e-16
2.790586315e-16
1.869148097e-16
1.286038339e-16
8.948763612e-17
6.224973099e-17
4.294937908e-17
2.92727833e-17
1.970828724e-17
1.313804627e-17
8.689899441e-18
5.705797954e-18
3.715205934e-18
2.39416869e-18
1.523273172e-18
9.542786058e-19
5.865949966e-19
3.518010827e-19
2.036296866e-19
1.112735323e-19
5.481793239e-20
2.192762424e-20
5.535363433e-21
6.442851097e-22
5.128214513e-07
3.170984893e-07
1.606047586e-07
5.978901311e-08
1.840085595e-08
7.591279387e-09
4.442503003e-09
3.003695546e-09
2.122919477e-09
1.522941609e-09
1.097349298e-09
7.903780733e-10
5.675638663e-10
4.056415024e-10
2.881604684e-10
2.03206527e-10
1.420493998e-10
9.828374655e-11
6.716738084e-11
4.521898931e-11
2.989815459e-11
1.935038846e-11
1.221617847e-11
7.501906429e-12
4.472074068e-12
2.584800269e-12
1.447061757e-12
7.845103123e-13
4.121572139e-13
2.103902653e-13
1.04753995e-13
5.119404557e-14
2.478532165e-14
1.20411128e-14
5.963652619e-15
3.068864673e-15
1.669324353e-15
9.642428163e-16
5.875533656e-16
3.737016934e-16
2.45172535e-16
1.63946577e-16
1.105386161e-16
7.448897746e-17
4.994322893e-17
3.331045502e-17
2.212232689e-17
1.462851793e-17
9.618375905e-18
6.273406922e-18
4.046703058e-18
2.572904161e-18
1.605690133e-18
9.774880409e-19
5.741190067e-19
3.184708878e-19
1.595924687e-19
6.5292163e-20
1.702595226e-20
2.108594126e-21
4.98432044e-07
3.813518353e-07
2.242624529e-07
1.089070386e-07
3.895231171e-08
1.37830933e-08
6.859472573e-09
4.340290109e-09
3.027196767e-09
2.185843583e-09
1.59938144e-09
1.175805314e-09
8.649853531e-10
6.353383342e-10
4.652663439e-10
3.393231439e-10
2.46196957e-10
1.775103645e-10
1.270210661e-10
9.006228553e-11
6.314890392e-11
4.368456692e-11
2.97374593e-11
1.985178399e-11
1.294540512e-11
8.215017284e-12
5.052072669e-12
3.001424889e-12
1.719447598e-12
9.493758795e-13
5.05308496e-13
2.597045403e-13
1.294493341e-13
6.309074571e-14
3.042386353e-14
1.473861163e-14
7.314190211e-15
3.785562479e-15
2.054675588e-15
1.168534538e-15
6.955438445e-16
4.318420357e-16
2.771265283e-16
1.814952439e-16
1.198867307e-16
7.94683216e-17
5.275239181e-17
3.498384346e-17
2.312266562e-17
1.519588631e-17
9.902517994e-18
6.376538233e-18
4.0385547e-18
2.498492016e-18
1.492905642e-18
8.436656695e-19
4.321633183e-19
1.821489348e-19
4.971251001e-20
6.690859911e-21
4.229036292e-07
4.44889746e-07
2.85528954e-07
1.615524672e-07
7.319856005e-08
2.609585771e-08
1.089359995e-08
6.198250812e-09
4.157080169e-09
2.977447367e-09
2.189790009e-09
1.62941331e-09
1.218610203e-09
9.128841574e-10
6.836023233e-10
5.110124186e-10
3.809173335e-10
2.828632942e-10
2.090394588e-10
1.535649969e-10
1.119668562e-10
8.092103588e-11
5.78451385e-11
4.079785185e-11
2.830959626e-11
1.926595986e-11
1.281714987e-11
8.304067099e-12
5.217222107e-12
3.16525536e-12
1.847222691e-12
1.034503813e-12
5.560436077e-13
2.876943719e-13
1.441189064e-13
7.048539119e-14
3.40063017e-14
1.643075499e-14
8.080102911e-15
4.096739796e-15
2.160601761e-15
1.19794431e-15
7.033105394e-16
4.349818948e-16
2.785901273e-16
1.817922279e-16
1.198550036e-16
7.938974768e-17
5.25790618e-17
3.469051474e-17
2.274157159e-17
1.477282749e-17
9.469723674e-18
5.948401193e-18
3.619329657e-18
2.089717673e-18
1.099107922e-18
4.806810834e-19
1.392465762e-19
2.074256012e-20
3.418346804e-07
4.948048002e-07
3.511315471e-07
2.180264768e-07
1.174508064e-07
4.930328245e-08
1.881779082e-08
9.178331391e-09
5.715975501e-09
3.991426631e-09
2.919711848e-09
2.181283963e-09
1.646993747e-09
1.250233315e-09
9.512509144e-10
7.240629576e-10
5.506327764e-10
4.178547641e-10
3.162857918e-10
2.385365464e-10
1.790005113e-10
1.334517762e-10
9.8676471e-11
7.222184221e-11
5.220679536e-11
3.71811262e-11
2.602007148e-11
1.784279879e-11
1.195144553e-11
7.792907473e-12
4.929339803e-12
3.01308473e-12
1.772689947e-12
1.000895766e-12
5.421199392e-13
2.823635272e-13
1.41988186e-13
6.924678e-14
3.302315918e-14
1.562560527e-14
7.482057369e-15
3.696845687e-15
1.924474669e-15
1.073796243e-15
6.429574582e-16
4.057032624e-16
2.636522735e-16
1.735888471e-16
1.147485346e-16
7.577354724e-17
4.982527924e-17
3.253751718e-17
2.10301586e-17
1.337177186e-17
8.273491855e-18
4.883773352e-18
2.646242854e-18
1.208306191e-18
3.764012594e-19
6.300104485e-20
2.768302452e-07
4.921871442e-07
4.109403997e-07
2.72006674e-07
1.659523807e-07
8.674905579e-08
3.615623119e-08
1.516888067e-08
8.187696914e-09
5.365107449e-09
3.838664102e-09
2.851580049e-09
2.158108407e-09
1.649607027e-09
1.267290133e-09
9.767879252e-10
7.542163236e-10
5.823958282e-10
4.491763077e-10
3.456333337e-10
2.649798773e-10
2.021050619e-10
1.531269162e-10
1.150589554e-10
8.558304189e-11
6.288841048e-11
4.555196334e-11
3.244603554e-11
2.266859534e-11
1.549225875e-11
1.032746323e-11
6.695419408e-12
4.208222091e-12
2.55620949e-12
1.496523007e-12
8.428100912e-13
4.559866067e-13
2.367542514e-13
1.179891452e-13
5.659914826e-14
2.642185892e-14
1.225549358e-14
5.802244984e-15
2.889123571e-15
1.552271179e-15
9.06621192e-16
5.661122497e-16
3.676621645e-16
2.424197004e-16
1.600716238e-16
1.053141457e-16
6.893085744e-17
4.477672043e-17
2.871900355e-17
1.801238814e-17
1.085280477e-17
6.065236892e-18
2.906246639e-18
9.84803482e-19
1.873880453e-19
2.266264155e-07
4.482067142e-07
4.608783662e-07
3.251396741e-07
2.116612903e-07
1.273597961e-07
6.584585007e-08
2.841924914e-08
1.302689302e-08
7.445846292e-09
4.98906232e-09
3.603984415e-09
2.693609365e-09
2.056126065e-09
1.581154417e-09
1.231321657e-09
9.626623319e-10
7.538056254e-10
5.901155641e-10
4.612075309e-10
3.594016149e-10
2.78897713e-10
2.152371318e-10
1.649547383e-10
1.253392228e-10
9.425543999e-11
7.001215239e-11
5.125874325e-11
3.690724578e-11
2.607302669e-11
1.802920469e-11
1.217330788e-11
8.005354407e-12
5.114233329e-12
3.166294742e-12
1.895242086e-12
1.094216803e-12
6.077648782e-13
3.238187421e-13
1.652383365e-13
8.080029192e-14
3.811735671e-14
1.763277407e-14
8.2139673e-15
4.003775814e-15
2.110848006e-15
1.216491178e-15
7.555958286e-16
4.91239991e-16
3.249410354e-16
2.14881236e-16
1.410892423e-16
9.187578487e-17
5.921698064e-17
3.750760351e-17
2.299488704e-17
1.324222876e-17
6.687091915e-18
2.489499235e-18
5.42558067e-19
1.862576682e-07
3.890225505e-07
4.939235293e-07
3.79471245e-07
2.597536294e-07
1.68482712e-07
1.0129573e-07
5.303507452e-08
2.399759854e-08
1.14718883e-08
6.558944962e-09
4.332810041e-09
3.109712992e-09
2.336468437e-09
1.784968568e-09
1.393770936e-09
1.095971515e-09
8.653934582e-10
6.844753505e-10
5.412640996e-10
4.272926074e-10
3.363275062e-10
2.636409582e-10
2.0555968e-10
1.591906086e-10
1.222365855e-10
9.287623407e-11
6.967202593e-11
5.148449712e-11
3.739284294e-11
2.663125646e-11
1.855715903e-11
1.262701901e-11
8.374471063e-12
5.40359068e-12
3.38573524e-12
2.055574425e-12
1.206344134e-12
6.824324957e-13
3.71032448e-13
1.934198995e-13
9.660850724e-14
4.645510723e-14
2.180646886e-14
1.026585054e-14
5.035489571e-15
2.664384372e-15
1.540418923e-15
9.595506088e-16
6.255303506e-16
4.151462434e-16
2.752333679e-16
1.807000968e-16
1.171685004e-16
7.477089804e-17
4.648148128e-17
2.749342608e-17
1.463237854e-17
6.020333024e-18
1.511510365e-18
1.535979106e-07
3.311590521e-07
4.952263812e-07
4.320879319e-07
3.101683205e-07
2.120388331e-07
1.384668964e-07
8.451515131e-08
4.562784133e-08
2.115389144e-08
9.777850568e-09
5.248831859e-09
3.313336383e-09
2.344347897e-09
1.751756029e-09
1.349961009e-09
1.058734217e-09
8.388214869e-10
6.683022989e-10
5.33794485e-10
4.265192218e-10
3.403671899e-10
2.708904657e-10
2.147386555e-10
1.693188896e-10
1.325957497e-10
1.029515074e-10
7.908741854e-11
5.996124356e-11
4.475232338e-11
3.280785593e-11
2.356783838e-11
1.654709221e-11
1.133518639e-11
7.567189944e-12