/*--------------------------------*- C++ -*----------------------------------*\
  =========                 |
  \\      /  F ield         | OpenFOAM: The Open Source CFD Toolbox
   \\    /   O peration     | Website:  https://openfoam.org
    \\  /    A nd           | Version:  10
     \\/     M anipulation  |
\*---------------------------------------------------------------------------*/
FoamFile
{
    format      ascii;
    class       volScalarField;
    location    "3000";
    object      NCO;
}
// * * * * * * * * * * * * * * * * * * * * * * * * * * * * * * * * * * * * * //

dimensions      [0 0 0 0 0 0 0];

internalField   nonuniform List<scalar> 
5170
(
2.681406484e-65
2.159871869e-65
1.335431075e-65
6.588406051e-66
5.269540616e-66
9.216926379e-63
7.342711949e-63
4.46186492e-63
2.578658929e-63
4.597548677e-63
3.202242081e-60
2.531529901e-60
1.531048785e-60
1.20464937e-60
3.661825072e-60
1.132971021e-57
8.947336681e-58
5.584590844e-58
6.266022494e-58
2.669000112e-57
4.07458951e-55
3.246647017e-55
2.173990816e-55
3.444960896e-55
1.808434339e-54
1.493924356e-52
1.216506179e-52
8.949688195e-53
1.943433105e-52
1.152343174e-51
5.572567413e-50
4.678540467e-50
3.939050306e-50
1.11028592e-49
7.05332551e-49
2.110399796e-47
1.8472943e-47
1.857017953e-47
6.389128184e-47
4.195936619e-46
8.135200622e-45
7.572066358e-45
9.151993251e-45
3.692373191e-44
2.439672238e-43
3.198570239e-42
3.220346186e-42
4.661511818e-42
2.147254686e-41
1.39318457e-40
1.281298552e-39
1.417420926e-39
2.441259901e-39
1.255754161e-38
7.853114673e-38
5.216271206e-37
6.449223084e-37
1.318760466e-36
7.396639788e-36
4.394861905e-35
2.155304366e-34
3.023816539e-34
7.402074009e-34
4.437494057e-33
2.457547768e-32
8.996652694e-32
1.453941314e-31
4.298472135e-31
2.730407745e-30
1.382722741e-29
3.790068655e-29
7.137976388e-29
2.559446633e-28
1.724282683e-27
7.869525441e-27
1.590637159e-26
3.53327885e-26
1.535809044e-25
1.083204176e-24
4.537870681e-24
6.628514423e-24
1.760594394e-23
9.044376565e-23
6.675590295e-22
2.645008929e-21
2.680245291e-21
8.64391945e-21
5.197813713e-20
3.927331812e-19
1.541954082e-18
1.003827172e-18
4.068569588e-18
2.80782924e-17
2.13657009e-16
8.901313401e-16
3.226347803e-16
1.845249574e-15
1.46044782e-14
1.043925945e-13
5.069099339e-13
1.664505622e-13
1.217123838e-13
1.066590881e-13
1.319976806e-13
1.691553805e-13
1.955272457e-13
1.672943765e-13
1.554356196e-13
1.757315645e-13
1.956778578e-13
1.861980458e-13
1.763697204e-13
1.697329736e-13
1.793317378e-13
1.819600277e-13
1.683214639e-13
1.697462421e-13
1.67280548e-13
1.699434805e-13
1.61157253e-13
1.501082101e-13
1.580852815e-13
1.580116601e-13
1.560359335e-13
1.409523847e-13
1.339307588e-13
1.450586428e-13
1.463560882e-13
1.410145654e-13
1.232984154e-13
1.201672073e-13
1.323081883e-13
1.341294857e-13
1.264227347e-13
1.085389191e-13
1.085408125e-13
1.204536971e-13
1.222395733e-13
1.13050216e-13
9.645871027e-14
9.874580922e-14
1.097306783e-13
1.111326014e-13
1.013930772e-13
8.680607218e-14
9.048219049e-14
1.002212298e-13
1.0111015e-13
9.160416948e-14
7.918853245e-14
8.350615691e-14
9.192289375e-14
9.232508979e-14
8.35439562e-14
7.315290082e-14
7.759391913e-14
8.476293023e-14
8.478136203e-14
7.694943199e-14
6.828776645e-14
7.255275049e-14
7.862559066e-14
7.837042683e-14
7.152499554e-14
6.426928429e-14
6.820994532e-14
7.335926464e-14
7.293082781e-14
6.700092661e-14
6.085414932e-14
6.442579785e-14
6.882381924e-14
6.829275091e-14
6.315525886e-14
5.786485939e-14
6.108493043e-14
6.48788227e-14
6.430122399e-14
5.981218535e-14
5.516088623e-14
5.911822139e-14
6.168059946e-14
6.086167084e-14
5.684530707e-14
5.265068909e-14
1.763403086e-13
9.01691969e-14
6.530102051e-14
5.629256569e-14
5.107218889e-14
1.227021816e-11
3.092602959e-12
7.377718101e-13
2.174897427e-13
1.01175567e-13
1.43381921e-09
2.791989206e-10
4.624492372e-11
9.055563377e-12
2.463902407e-12
1.235864698e-14
9.697517732e-14
1.489499999e-12
2.189834705e-11
2.778484918e-10
6.049524468e-14
4.091110152e-13
4.918367559e-12
4.987814823e-11
3.430612952e-10
1.783860708e-13
1.060415794e-12
1.041833233e-11
8.005629725e-11
3.773313272e-10
4.537972776e-13
2.490295336e-12
2.155112184e-11
1.42242516e-10
6.024072444e-10
1.059048986e-12
5.429471264e-12
4.121297826e-11
2.275734505e-10
7.878936915e-10
2.296393731e-12
1.080420938e-11
6.998444949e-11
3.12248711e-10
8.508227389e-10
4.773273106e-12
2.049637857e-11
1.104736949e-10
3.885445668e-10
8.621307025e-10
9.525012526e-12
3.729381987e-11
1.641955929e-10
4.729007398e-10
9.626706451e-10
1.811383212e-11
6.348776206e-11
2.262486949e-10
5.485676296e-10
1.023237848e-09
3.250771512e-11
9.937000894e-11
2.874157665e-10
5.962281919e-10
1.000772717e-09
5.596702609e-11
1.430091973e-10
3.400439157e-10
6.206738105e-10
9.547964332e-10
8.922213377e-11
1.906464622e-10
3.892167651e-10
6.557758302e-10
9.814745595e-10
1.330224368e-10
2.427523376e-10
4.407201462e-10
7.011000836e-10
1.023249975e-09
1.889565245e-10
2.999991924e-10
4.91825747e-10
7.359766336e-10
1.023576518e-09
2.579283716e-10
3.611225569e-10
5.364006968e-10
7.494501947e-10
9.837351591e-10
3.366152946e-10
4.242588243e-10
5.743787022e-10
7.529312692e-10
9.468536999e-10
4.202210267e-10
4.904672162e-10
6.165063435e-10
7.740562085e-10
9.632126424e-10
5.032667168e-10
5.594683314e-10
6.676037501e-10
8.148999434e-10
1.010540311e-09
5.780761754e-10
6.229517657e-10
7.143044577e-10
8.465734749e-10
1.031428757e-09
6.274022574e-10
6.612888079e-10
7.327347825e-10
8.406505581e-10
9.980937872e-10
6.344453862e-10
6.580869356e-10
7.100712874e-10
7.939470767e-10
9.263362259e-10
5.978747353e-10
6.150658839e-10
6.555649788e-10
7.278080395e-10
8.535193123e-10
5.36861722e-10
5.531599348e-10
5.938462387e-10
6.715967776e-10
8.135431782e-10
4.77625424e-10
4.978616814e-10
5.488676175e-10
6.468315123e-10
8.230592327e-10
4.395413054e-10
4.669265554e-10
5.352354034e-10
6.615939704e-10
8.842083988e-10
4.305493961e-10
4.66437604e-10
5.550964655e-10
7.210829409e-10
1.002902888e-09
4.624446091e-10
5.096489426e-10
6.260678478e-10
8.423520177e-10
1.206141295e-09
5.604498023e-10
6.248971416e-10
7.832916342e-10
1.076298773e-09
1.55122989e-09
7.791289549e-10
8.612115781e-10
1.055985223e-09
1.428517386e-09
2.065452579e-09
1.211810707e-09
1.332946408e-09
1.633330505e-09
2.158397427e-09
3.002736055e-09
1.996885711e-09
2.177802835e-09
2.603559015e-09
3.335028809e-09
4.488925429e-09
3.386812095e-09
3.651697007e-09
4.269237171e-09
5.303828243e-09
6.883523599e-09
5.927869165e-09
6.309891118e-09
7.18702218e-09
8.624704863e-09
1.075117168e-08
1.055209098e-08
1.107484084e-08
1.225202417e-08
1.413529518e-08
1.682237543e-08
1.804685436e-08
1.867189926e-08
2.006138679e-08
2.221480354e-08
2.516286541e-08
2.713417873e-08
2.773027809e-08
2.903890865e-08
3.102045091e-08
3.366334687e-08
3.425992636e-08
3.474298363e-08
3.580237782e-08
3.740602129e-08
3.95459551e-08
3.806768009e-08
3.847769052e-08
3.938318105e-08
4.077059366e-08
4.265096529e-08
4.018251763e-08
4.060131217e-08
4.15295626e-08
4.295782117e-08
4.489419888e-08
4.327108278e-08
4.374931417e-08
4.47917964e-08
4.63379943e-08
4.829091182e-08
4.877088843e-08
4.904707274e-08
4.9550587e-08
5.000771531e-08
4.998586652e-08
4.290139651e-08
4.240712421e-08
4.128056008e-08
3.948714309e-08
3.700103814e-08
2.511963423e-08
2.46701335e-08
2.370554155e-08
2.230525059e-08
2.055464504e-08
1.232234479e-08
1.210381475e-08
1.163880022e-08
1.097253772e-08
1.015135135e-08
5.732755109e-09
5.643599955e-09
5.453835111e-09
5.177620704e-09
4.834074347e-09
2.656009564e-09
2.620543747e-09
2.544704486e-09
2.434965155e-09
2.298033225e-09
1.257639904e-09
1.244034998e-09
1.214919514e-09
1.172745741e-09
1.119949045e-09
6.283959194e-10
6.234572935e-10
6.128962005e-10
5.976156126e-10
5.785186227e-10
3.452681611e-10
3.436577184e-10
3.402220268e-10
3.353037011e-10
3.293818232e-10
2.163151355e-10
2.160187331e-10
2.154108453e-10
2.145915406e-10
2.136847245e-10
1.531153034e-10
1.531714774e-10
1.533955769e-10
1.53535817e-10
1.536500877e-10
1.145806823e-10
1.148540627e-10
1.154699456e-10
1.164374118e-10
1.178028259e-10
9.109321248e-11
9.131613275e-11
9.180772791e-11
9.255608135e-11
9.355813321e-11
7.630479704e-11
7.654154326e-11
7.706519662e-11
7.786827407e-11
7.895750664e-11
6.79268368e-11
6.819233116e-11
6.877847028e-11
6.967479223e-11
7.088554556e-11
6.442026354e-11
6.47041153e-11
6.532909202e-11
6.628043466e-11
6.75573507e-11
6.431572102e-11
6.45993273e-11
6.522237231e-11
6.616697772e-11
6.742774305e-11
6.622141733e-11
6.648624547e-11
6.706700983e-11
6.794468009e-11
6.911078589e-11
6.894492232e-11
6.917738594e-11
6.968645741e-11
7.045377861e-11
7.146949012e-11
7.1598471e-11
7.179126428e-11
7.221295196e-11
7.284713093e-11
7.368389571e-11
7.360982324e-11
7.376116336e-11
7.409179301e-11
7.458793909e-11
7.524050572e-11
7.467525762e-11
7.478714982e-11
7.503126178e-11
7.539664157e-11
7.58754297e-11
7.468540978e-11
7.47621213e-11
7.492915509e-11
7.517826362e-11
7.550296692e-11
7.366499533e-11
7.371179551e-11
7.381334368e-11
7.396380374e-11
7.415803273e-11
7.171599105e-11
7.17383245e-11
7.178634028e-11
7.185625069e-11
7.194411839e-11
6.897451632e-11
6.897748094e-11
6.898314353e-11
6.898939669e-11
6.899334411e-11
6.559474014e-11
6.558295576e-11
6.55563933e-11
6.551427976e-11
6.545459175e-11
6.171429945e-11
6.169171585e-11
6.164158034e-11
6.156415087e-11
6.145812305e-11
5.754968887e-11
5.751984622e-11
5.745389812e-11
5.735285614e-11
5.721598557e-11
5.360752356e-11
5.357346835e-11
5.349835412e-11
5.338367889e-11
5.3229116e-11
9.436926235e-10
6.87168243e-10
6.986711292e-10
1.320374895e-09
1.451409304e-09
1.299528014e-09
1.206443455e-09
1.416437199e-09
1.438710235e-09
1.304207273e-09
1.189380023e-09
1.248848165e-09
1.291690774e-09
1.245622659e-09
1.152991065e-09
1.093925628e-09
1.130796803e-09
1.198245331e-09
1.213414811e-09
1.159447447e-09
1.072279566e-09
1.00119879e-09
9.829261296e-10
1.030503787e-09
1.140904108e-09
1.320188253e-09
1.603965458e-09
2.057500823e-09
2.740905245e-09
3.868965426e-09
5.641751363e-09
8.409513099e-09
1.27239396e-08
1.919964934e-08
2.764662855e-08
3.582873136e-08
4.130691994e-08
4.422502813e-08
4.649677923e-08
4.969688284e-08
4.928681743e-08
3.493964772e-08
1.923923741e-08
9.541738037e-09
4.577358241e-09
2.194713537e-09
1.079967348e-09
5.640976941e-10
3.250456089e-10
2.131147312e-10
1.54436596e-10
1.18713494e-10
9.438149381e-11
7.987163137e-11
7.189593882e-11
6.861435644e-11
6.846396121e-11
7.006365356e-11
7.229551255e-11
7.436155032e-11
7.576679687e-11
7.625966953e-11
7.576170226e-11
7.43107633e-11
7.201061968e-11
6.899195331e-11
6.540185347e-11
6.136812744e-11
5.710133759e-11
5.310045768e-11
2.252293556e-09
1.6465156e-08
1.955539592e-09
3.084569846e-10
4.522618691e-11
1.090221479e-09
2.000903079e-09
3.653559044e-09
9.1024278e-10
1.433399334e-10
1.287247988e-09
4.692838457e-09
8.232887106e-08
8.551627399e-09
1.149048898e-09
2.831582954e-09
1.014610782e-08
1.210840583e-07
2.405617745e-08
1.137265845e-08
2.591728595e-09
5.633923941e-09
3.694331208e-08
1.450187476e-08
8.331501201e-09
1.959987747e-09
3.137234059e-09
1.298396057e-08
2.162174425e-08
6.202652245e-09
1.736093396e-09
3.186600051e-09
1.482478299e-08
9.177479405e-08
1.5739432e-08
2.235616463e-09
5.371414819e-09
2.71300225e-08
1.829975188e-07
3.773147173e-08
2.136081456e-09
4.196294455e-09
1.501948567e-08
6.790250354e-08
2.580935227e-08
1.777652034e-09
2.951956121e-09
8.197279264e-09
2.977792662e-08
3.214328287e-08
1.555658915e-09
2.555807063e-09
6.930602336e-09
2.723862502e-08
8.547933623e-08
1.702434058e-09
3.23327713e-09
9.68569719e-09
4.208548987e-08
1.762959808e-07
1.739740517e-09
3.117966392e-09
8.065316246e-09
2.838196796e-08
9.248939269e-08
1.603033878e-09
2.594645185e-09
5.804601508e-09
1.707618228e-08
4.696783662e-08
1.421501546e-09
2.16097911e-09
4.488805878e-09
1.223517781e-08
3.325121328e-08
1.335859973e-09
2.087411641e-09
4.482059795e-09
1.276006446e-08
3.853704911e-08
1.420363525e-09
2.406981023e-09
5.499227185e-09
1.62553441e-08
5.082943185e-08
1.525402274e-09
2.637474594e-09
5.921348826e-09
1.634763403e-08
4.626799105e-08
1.530518429e-09
2.601541387e-09
5.598671183e-09
1.42027832e-08
3.629887589e-08
1.443258346e-09
2.425877347e-09
5.063961241e-09
1.205868599e-08
2.873694625e-08
1.332961525e-09
2.26402056e-09
4.692023306e-09
1.07777847e-08
2.471186296e-08
1.26765157e-09
2.234495475e-09
4.666934341e-09
1.057092795e-08
2.391977878e-08
1.287881309e-09
2.382002771e-09
5.052940307e-09
1.139462637e-08
2.5635617e-08
1.401603973e-09
2.699198926e-09
5.76004858e-09
1.279966689e-08
2.819380325e-08
1.595815098e-09
3.133744318e-09
6.601632859e-09
1.421582536e-08
3.009710935e-08
1.876102498e-09
3.685905554e-09
7.569793423e-09
1.567335606e-08
3.168850745e-08
2.292510231e-09
4.441626326e-09
8.831767859e-09
1.754784223e-08
3.38464238e-08
2.923272468e-09
5.521789446e-09
1.058874593e-08
2.015500949e-08
3.70289002e-08
3.870038448e-09
7.084345255e-09
1.305186666e-08
2.371466279e-08
4.134165782e-08
5.311196488e-09
9.340484687e-09
1.642845513e-08
2.831343341e-08
4.656180704e-08
7.543964651e-09
1.256766586e-08
2.091095149e-08
3.389876965e-08
5.220715584e-08
1.089181485e-08
1.708083068e-08
2.662050332e-08
4.021918212e-08
5.756139434e-08
1.587779113e-08
2.319130903e-08
3.350560136e-08
4.681089227e-08
6.201815892e-08
2.292487227e-08
3.087201152e-08
4.107116291e-08
5.30377774e-08
6.550383163e-08
3.146430797e-08
3.902583591e-08
4.807959044e-08
5.816498432e-08
6.817943994e-08
3.912061487e-08
4.543790159e-08
5.284313073e-08
6.090671891e-08
6.80559752e-08
4.398718358e-08
4.92187277e-08
5.540914137e-08
6.18152981e-08
6.532502108e-08
4.663117452e-08
5.139560022e-08
5.677468323e-08
6.078805429e-08
5.684542798e-08
4.891989679e-08
5.331146945e-08
5.665764733e-08
5.404814808e-08
4.336151659e-08
5.164883886e-08
5.308970645e-08
4.935017526e-08
4.029632929e-08
2.992209014e-08
4.783215352e-08
4.23144408e-08
3.44781723e-08
2.626823685e-08
1.91318321e-08
3.184073736e-08
2.622894516e-08
2.05974539e-08
1.558220682e-08
1.148600798e-08
1.732178291e-08
1.419855697e-08
1.124767534e-08
8.676710251e-09
6.571688203e-09
8.655717639e-09
7.22253028e-09
5.860692177e-09
4.656461966e-09
3.649394859e-09
4.203235294e-09
3.591173614e-09
2.999109894e-09
2.464723586e-09
2.009955324e-09
2.043552087e-09
1.792540543e-09
1.54616997e-09
1.321120821e-09
1.128219402e-09
1.021440999e-09
9.233256956e-10
8.265734627e-10
7.383785497e-10
6.635322927e-10
5.43022576e-10
5.079477266e-10
4.738752979e-10
4.437197778e-10
4.199705771e-10
3.18782637e-10
3.089279863e-10
3.001691628e-10
2.934721966e-10
2.89371977e-10
2.123510428e-10
2.116453688e-10
2.117124447e-10
2.123674487e-10
2.148960863e-10
1.554702846e-10
1.57548616e-10
1.599043986e-10
1.631208338e-10
1.670577309e-10
1.200233257e-10
1.219591858e-10
1.24049364e-10
1.273616815e-10
1.317675495e-10
9.562920195e-11
9.813105571e-11
1.013027571e-10
1.053015092e-10
1.102197279e-10
8.12651908e-11
8.411992543e-11
8.772082125e-11
9.21287806e-11
9.738549012e-11
7.343214822e-11
7.654084628e-11
8.039119478e-11
8.499677224e-11
9.034926433e-11
7.021607966e-11
7.340923322e-11
7.729245184e-11
8.184111389e-11
8.700690568e-11
7.002963467e-11
7.31097485e-11
7.679601208e-11
8.103600062e-11
8.575594863e-11
7.149999457e-11
7.429476282e-11
7.759523567e-11
8.133382038e-11
8.542524062e-11
7.353822904e-11
7.59340883e-11
7.873163341e-11
8.185880462e-11
8.522960448e-11
7.537930574e-11
7.73254086e-11
7.957446074e-11
8.205743916e-11
8.469461933e-11
7.655586617e-11
7.805216192e-11
7.976278067e-11
8.162576095e-11
8.357096729e-11
7.683457454e-11
7.791381511e-11
7.913106868e-11
8.043341945e-11
8.17618506e-11
7.614766504e-11
7.686145713e-11
7.764992028e-11
7.846953383e-11
7.927229593e-11
7.453730279e-11
7.494427651e-11
7.537493472e-11
7.579459838e-11
7.616538451e-11
7.210759342e-11
7.226626176e-11
7.240890269e-11
7.250870877e-11
7.253667963e-11
6.898700267e-11
6.895116565e-11
6.886942677e-11
6.872175043e-11
6.848670936e-11
6.531989823e-11
6.513789582e-11
6.488871864e-11
6.455800721e-11
6.413062923e-11
6.12303887e-11
6.094324582e-11
6.057478955e-11
6.011534179e-11
5.955492445e-11
5.692676069e-11
5.657110098e-11
5.612622761e-11
5.558615919e-11
5.494494208e-11
5.290503252e-11
5.251135055e-11
5.202525713e-11
5.144343834e-11
5.076281799e-11
2.003196443e-12
1.259231699e-13
1.738766548e-14
3.551218898e-15
1.037178169e-15
4.18718862e-16
2.299687139e-16
1.541096636e-16
1.103889934e-16
7.9598541e-17
5.671982853e-17
3.980056457e-17
2.74902119e-17
1.86870544e-17
1.250091507e-17
8.228109809e-18
5.32937767e-18
3.397691395e-18
2.133465016e-18
1.320609645e-18
8.069894793e-19
4.878027412e-19
2.924642076e-19
1.745097056e-19
1.040557339e-19
6.229400906e-20
3.762786124e-20
2.30448792e-20
1.43735501e-20
9.163017397e-21
5.984975008e-21
4.00952805e-21
2.753549584e-21
1.934083068e-21
1.383780274e-21
1.002533939e-21
7.299652578e-22
5.296515003e-22
3.797431923e-22
2.67047025e-22
1.831671423e-22
1.22111581e-22
7.901840954e-23
4.966077017e-23
3.037760381e-23
1.814586802e-23
1.06263446e-23
6.124633484e-24
3.486119193e-24
1.964205117e-24
1.096476852e-24
6.060153301e-25
3.308776293e-25
1.777627549e-25
9.333587295e-26
4.7216527e-26
2.214328561e-26
8.715650197e-27
2.06231098e-27
1.735965848e-28
9.461390296e-12
4.89334481e-13
5.316859386e-14
1.175680577e-14
5.534009779e-15
3.819041739e-15
2.83484797e-15
2.091572327e-15
1.482281375e-15
1.018888857e-15
6.789868652e-16
4.424490144e-16
2.829428977e-16
1.783747656e-16
1.111712177e-16
6.863305346e-17
4.202617772e-17
2.55388818e-17
1.540926054e-17
9.233714795e-18
5.498476128e-18
3.257652919e-18
1.924090639e-18
1.13589282e-18
6.725235313e-19
4.009383041e-19
2.417371716e-19
1.480420425e-19
9.245035523e-20
5.905696125e-20
3.867003288e-20
2.597496804e-20
1.788408871e-20
1.259098508e-20
9.027300005e-21
6.552716887e-21
4.77967017e-21
3.473610662e-21
2.493763537e-21
1.75539467e-21
1.204775634e-21
8.034861827e-22
5.200872934e-22
3.26991679e-22
2.001652378e-22
1.19714426e-22
7.02353838e-23
4.058295521e-23
2.317156776e-23
1.310165899e-23
7.341038978e-24
4.072819942e-24
2.232145071e-24
1.203564186e-24
6.339783323e-25
3.215474151e-25
1.512362622e-25
6.00617346e-26
1.53326315e-26
1.631843315e-27
6.509243438e-11
2.673103982e-12
1.892022748e-13
4.269374234e-14
2.582058234e-14
2.057751056e-14
1.627616675e-14
1.244539687e-14
9.042771714e-15
6.334975644e-15
4.264181134e-15
2.783697851e-15
1.763471332e-15
1.089987587e-15
6.591696749e-16
3.917436065e-16
2.297319164e-16
1.334735824e-16
7.711819696e-17
4.443001125e-17
2.557570169e-17
1.473212488e-17
8.50682311e-18
4.934236799e-18
2.88232139e-18
1.70110759e-18
1.018027038e-18
6.200633744e-19
3.857521513e-19
2.458344223e-19
1.607858335e-19
1.07987552e-19
7.440317019e-20
5.245367239e-20
3.767976039e-20
2.74168178e-20
2.005344923e-20
1.461553277e-20
1.052128525e-20
7.423718261e-21
5.105084086e-21
3.409970045e-21
2.210063374e-21
1.391215648e-21
8.528465057e-22
5.110724336e-22
3.006751048e-22
1.743812088e-22
1.000271041e-22
5.685993109e-23
3.204442583e-23
1.788452275e-23
9.859597756e-24
5.345826299e-24
2.829268622e-24
1.439333662e-24
6.779090309e-25
2.687539653e-25
6.967443183e-26
7.858823298e-27
8.38514898e-10
3.838427061e-11
1.857241898e-12
1.968936622e-13
9.154157033e-14
7.169528536e-14
5.831654047e-14
4.592866305e-14
3.465703773e-14
2.51712645e-14
1.760175808e-14
1.190527786e-14
7.792957246e-15
4.9533772e-15
3.059728625e-15
1.842369734e-15
1.083586565e-15
6.25012027e-16
3.54937956e-16
1.9946694e-16
1.114713087e-16
6.223506085e-17
3.485006007e-17
1.964381917e-17
1.11827082e-17
6.449661772e-18
3.781189872e-18
2.261071448e-18
1.383812665e-18
8.69418798e-19
5.619184904e-19
3.738563412e-19
2.558117006e-19
1.795563419e-19
1.287389501e-19
9.370743567e-20
6.868433348e-20
5.021631152e-20
3.627635663e-20
2.568481088e-20
1.771932838e-20
1.186995852e-20
7.713730061e-21
4.86844257e-21
2.992868264e-21
1.799420818e-21
1.062923252e-21
6.19492039e-22
3.573950149e-22
2.044836882e-22
1.160673817e-22
6.527359829e-23
3.626383186e-23
1.980825503e-23
1.05494911e-23
5.386791534e-24
2.538603196e-24
1.001646661e-24
2.592899391e-25
3.000520816e-26
1.186611655e-09
7.546447336e-11
4.389312618e-12
4.768103205e-13
2.22003273e-13
1.758758998e-13
1.45558883e-13
1.17916625e-13
9.271550688e-14
7.067134074e-14
5.219288659e-14
3.738992821e-14
2.597873402e-14
1.752918995e-14
1.148125983e-14
7.309349759e-15
4.522107037e-15
2.723983646e-15
1.599088033e-15
9.179490618e-16
5.168507625e-16
2.869666265e-16
1.579262488e-16
8.668092997e-17
4.773044142e-17
2.652245276e-17
1.495126861e-17
8.592826843e-18
5.057844983e-18
3.061304604e-18
1.911134541e-18
1.232633514e-18
8.213467169e-19
5.644173687e-19
3.985263669e-19
2.873662502e-19
2.097355639e-19
1.53268335e-19
1.109220416e-19
7.876273979e-20
5.45095757e-20
3.663100797e-20
2.387806183e-20
1.511849652e-20
9.327901901e-21
5.632864553e-21
3.344727382e-21
1.960926409e-21
1.138590229e-21
6.558774265e-22
3.749206519e-22
2.124051754e-22
1.189099138e-22
6.544534921e-23
3.50860207e-23
1.798784895e-23
8.477541495e-24
3.328717386e-24
8.573188623e-25
1.023999301e-25
1.838881387e-09
1.949689214e-10
1.390589623e-11
1.244210236e-12
4.592084776e-13
3.399392768e-13
2.789747609e-13
2.305138459e-13
1.879628212e-13
1.502250402e-13
1.173262449e-13
8.941997685e-14
6.644564315e-14
4.812337304e-14
3.393921517e-14
2.330023873e-14
1.555713075e-14
1.010020123e-14
6.369987757e-15
3.905483808e-15
2.328292344e-15
1.353060809e-15
7.680395367e-16
4.276505352e-16
2.346301104e-16
1.277072668e-16
6.945477842e-17
3.805639294e-17
2.118112644e-17
1.206921657e-17
7.087562028e-18
4.310107577e-18
2.721486912e-18
1.785143153e-18
1.214230742e-18
8.520301839e-19
6.110379764e-19
4.422559114e-19
3.188344993e-19
2.263314688e-19
1.568578419e-19
1.056019945e-19
6.894706363e-20
4.371406511e-20
2.701972958e-20
1.636675329e-20
9.764751891e-21
5.760703163e-21
3.368954966e-21
1.955292508e-21
1.126054793e-21
6.425840358e-22
3.622967687e-22
2.007786908e-22
1.083178882e-22
5.579024496e-23
2.633306511e-23
1.032792455e-23
2.65706154e-24
3.292623064e-25
4.970228546e-09
7.534407914e-10
7.192765894e-11
5.739072393e-12
9.386463127e-13
5.457447607e-13
4.283800252e-13
3.566555209e-13
2.98881124e-13
2.481370143e-13
2.028634156e-13
1.629025041e-13
1.28325537e-13
9.909055825e-14
7.495242957e-14
5.548639279e-14
4.014568489e-14
2.834563059e-14
1.94943792e-14
1.304307109e-14
8.478203869e-15
5.351939794e-15
3.278842164e-15
1.950783154e-15
1.128250543e-15
6.364142341e-16
3.514610056e-16
1.911837932e-16
1.032306639e-16
5.588973846e-17
3.068260021e-17
1.72720199e-17
1.006517438e-17
6.112167654e-18
3.880522154e-18
2.573850296e-18
1.770570619e-18
1.246088113e-18
8.833594977e-19
6.217558712e-19
4.295009464e-19
2.890210155e-19
1.887447374e-19
1.19609316e-19
7.384149895e-20
4.469946099e-20
2.670039883e-20
1.580768446e-20
9.296522947e-21
5.433365252e-21
3.152996642e-21
1.813114451e-21
1.029860546e-21
5.747367359e-22
3.120984451e-22
1.617385039e-22
7.675061233e-23
3.030103966e-23
7.884342891e-24
1.020951812e-24
1.407035542e-08
3.325154153e-09
4.474949682e-10
3.902383472e-11
3.730705593e-12
1.002524775e-12
6.087705527e-13
4.789412083e-13
4.018673941e-13
3.411166897e-13
2.878626115e-13
2.399358357e-13
1.970214605e-13
1.592192439e-13
1.265752631e-13
9.895445105e-14
7.604144267e-14
5.740094545e-14
4.251297322e-14
3.083838359e-14
2.186029292e-14
1.510458986e-14
1.014467301e-14
6.608727712e-15
4.170224659e-15
2.548207613e-15
1.508153565e-15
8.658784548e-16
4.837233506e-16
2.644813062e-16
1.426713111e-16
7.677600704e-17
4.177816596e-17
2.332424863e-17
1.352602777e-17
8.219190944e-18
5.244812631e-18
3.482812227e-18
2.368855894e-18
1.623881981e-18
1.105954878e-18
7.397218555e-19
4.822409647e-19
3.053651337e-19
1.881593891e-19
1.13571137e-19
6.766868226e-20
4.002496691e-20
2.356968321e-20
1.382493485e-20
8.066695764e-21
4.670346318e-21
2.672849702e-21
1.503258185e-21
8.225640911e-22
4.295621485e-22
2.055686485e-22
8.20839967e-23
2.174972523e-23
2.964325335e-24
1.047102492e-08
4.46862663e-09
9.753785186e-10
1.349670996e-10
1.265822266e-11
1.988236721e-12
8.309210562e-13
5.873025512e-13
4.852651868e-13
4.173143893e-13
3.60843476e-13
3.099106741e-13
2.631060183e-13
2.20382224e-13
1.820028675e-13
1.481656457e-13
1.188884336e-13
9.400965786e-14
7.322674132e-14
5.614360004e-14
4.232024248e-14
3.131285123e-14
2.269880627e-14
1.607786657e-14
1.109259695e-14
7.431848162e-15
4.81920455e-15
3.017790383e-15
1.823633101e-15
1.064682088e-15
6.021137091e-16
3.315406917e-16
1.792971353e-16
9.646764992e-17
5.244036571e-17
2.92483595e-17
1.696745397e-17
1.030453141e-17
6.505851112e-18
4.213099137e-18
2.761533944e-18
1.809708666e-18
1.171112056e-18
7.408138013e-19
4.559976668e-19
2.744724778e-19
1.629289555e-19
9.598827181e-20
5.634110437e-20
3.299992458e-20
1.927803004e-20
1.120535687e-20
6.453303803e-21
3.658384706e-21
2.019952808e-21
1.065294177e-21
5.157869349e-22
2.093676862e-22
5.700234635e-23
8.269042901e-24
9.153009232e-09
4.675176789e-09
1.441935579e-09
3.114640589e-10
4.166868708e-11
4.777873935e-12
1.194480251e-12
6.86260416e-13
5.437964325e-13
4.702430303e-13
4.150921023e-13
3.661983793e-13
3.203219651e-13
2.769268964e-13
2.363324877e-13
1.990260657e-13
1.653943738e-13
1.3563765e-13
1.097668584e-13
8.763822104e-14
6.89846157e-14
5.350509903e-14
4.083554736e-14
3.061549277e-14
2.249947592e-14
1.6168078e-14
1.133086727e-14
7.72070728e-15
5.097531375e-15
3.250786708e-15
1.997281934e-15
1.181539253e-15
6.747527083e-16
3.743501543e-16
2.037975999e-16
1.102671889e-16
6.010952773e-17
3.350228649e-17
1.928880805e-17
1.148715416e-17
7.025443921e-18
4.374623045e-18
2.748994101e-18
1.723207255e-18
1.06244236e-18
6.399842623e-19
3.788126009e-19
2.221031814e-19
1.296351953e-19
7.551112422e-20
4.393530449e-20
2.551028716e-20
1.473017587e-20
8.401444048e-21
4.680421761e-21
2.497182107e-21
1.227167877e-21
5.091765885e-22
1.439858369e-22
2.244415351e-23
1.812715339e-08
6.891100025e-09
2.570573577e-09
6.741364101e-10
1.280761659e-10
1.629115133e-11
2.450628391e-12
8.730977742e-13
5.935960027e-13
5.002780902e-13
4.467026409e-13
4.036335406e-13
3.633136713e-13
3.237786612e-13
2.850045748e-13
2.476024261e-13
2.122891584e-13
1.796390603e-13
1.501079306e-13
1.23873174e-13
1.009288039e-13
8.115158891e-14
6.433688678e-14
5.023409284e-14
3.857119058e-14
2.907174718e-14
2.14653754e-14
1.549162029e-14
1.090048689e-14
7.457598192e-15
4.947565728e-15
3.174027911e-15
1.964093744e-15
1.171273322e-15
6.746788647e-16
3.776482336e-16
2.071519212e-16
1.124181965e-16
6.107745358e-17
3.367087222e-17
1.902993375e-17
1.104108733e-17
6.550296968e-18
3.950251018e-18
2.399855144e-18
1.44905411e-18
8.611762269e-19
5.038447474e-19
2.920695787e-19
1.687134937e-19
9.739960549e-20
5.622002906e-20
3.23779084e-20
1.849919754e-20
1.037252756e-20
5.596907961e-21
2.798348074e-21
1.192863839e-21
3.541460564e-22
5.982000229e-23
3.940059379e-08
1.3518802e-08
5.753356603e-09
1.612242228e-09
3.964480635e-10
7.073396966e-11
9.248079898e-12
1.671835502e-12
7.015287617e-13
5.139411698e-13
4.512751951e-13
4.152840948e-13
3.846013835e-13
3.535554806e-13
3.209980337e-13
2.874622843e-13
2.539208854e-13
2.212939854e-13
1.903650587e-13
1.617053151e-13
1.356422374e-13
1.12331231e-13
9.179783345e-14
7.397056933e-14
5.871091489e-14
4.583796669e-14
3.514646874e-14
2.641778235e-14
1.94264614e-14
1.394535825e-14
9.750424832e-15
6.625145156e-15
4.364812556e-15
2.782891107e-15
1.715231542e-15
1.022411981e-15
5.90516176e-16
3.315811943e-16
1.820178289e-16
9.848800997e-17
5.32146624e-17
2.912534272e-17
1.628606085e-17
9.316392577e-18
5.434618011e-18
3.211987422e-18
1.903562644e-18
1.119521318e-18
6.497182353e-19
3.729168426e-19
2.130421741e-19
1.217354862e-19
6.959651564e-20
3.963356444e-20
2.226529733e-20
1.211770942e-20
6.166497658e-21
2.712633053e-21
8.546305886e-22
1.577879839e-22
3.206500561e-08
1.198272253e-08
6.693450865e-09
2.495252397e-09
7.232956068e-10
1.808121531e-10
3.239744505e-11
4.595071531e-12
1.004211448e-12
5.123955814e-13
4.197602349e-13
3.91722776e-13
3.743919117e-13
3.560190807e-13
3.336068379e-13
3.081702472e-13
2.802906992e-13
2.511868544e-13
2.21961385e-13
1.935180006e-13
1.665313088e-13
1.41468704e-13
1.186176556e-13
9.812125651e-14
8.001473203e-14
6.425567213e-14
5.074777429e-14
3.935651008e-14
2.992005506e-14
2.225673562e-14
1.616983644e-14
1.145199551e-14
7.891729982e-15
5.28241297e-15
3.429952423e-15
2.158644598e-15
1.316540798e-15
7.784589131e-16
4.468197648e-16
2.498547139e-16
1.369484912e-16
7.431225531e-17
4.041148424e-17
2.223669259e-17
1.246619992e-17
7.120348548e-18
4.120969102e-18
2.401785456e-18
1.39822511e-18
8.065576103e-19
4.600661555e-19
2.605341364e-19
1.472540375e-19
8.311844049e-20
4.653370417e-20
2.543125069e-20
1.315159216e-20
5.998013106e-21
2.028311141e-21
4.129558768e-22
3.122698121e-08
1.052360564e-08
6.136051045e-09
3.02918274e-09
1.052150567e-09
3.170502069e-10
8.040280459e-11
1.460141567e-11
2.199091853e-12
5.5863164e-13
3.531501566e-13
3.305736036e-13
3.291270009e-13
3.252922922e-13
3.151299105e-13
2.996019482e-13
2.796460344e-13
2.567068504e-13
2.320801549e-13
2.06859798e-13
1.819228185e-13
1.579382082e-13
1.353865979e-13
1.145822655e-13
9.570222324e-14
7.881618763e-14
6.392064794e-14
5.096932283e-14
3.989026207e-14
3.058800579e-14
2.293831005e-14
1.679301387e-14
1.198472357e-14
8.327901009e-15
5.62884289e-15
3.697875933e-15
2.359861335e-15
1.462575316e-15
8.805351331e-16
5.155073404e-16
2.942591993e-16
1.645156802e-16
9.078808786e-17
4.993094737e-17
2.762227511e-17
1.54636009e-17
8.764123464e-18
5.0132982e-18
2.884467706e-18
1.661051733e-18
9.519273708e-19
5.405681984e-19
3.042921688e-19
1.702705427e-19
9.461080301e-20
5.167938647e-20
2.706800063e-20
1.281941373e-20
4.698182136e-21
1.06579513e-21
5.027826175e-08
1.40584026e-08
6.384705395e-09
3.510320534e-09
1.433304255e-09
4.986649827e-10
1.531803741e-10
3.984884097e-11
7.45702959e-12
1.150365506e-12
3.324982534e-13
2.555852665e-13
2.626281741e-13
2.689280224e-13
2.676300919e-13
2.597472734e-13
2.469107111e-13
2.30616829e-13
2.121076109e-13
1.923888649e-13
1.722631428e-13
1.523573386e-13
1.331461955e-13
1.149743568e-13
9.807518093e-14
8.259352347e-14
6.860417998e-14
5.612695029e-14
4.514446391e-14
3.562665085e-14
2.753599493e-14
2.080356448e-14
1.533152027e-14
1.100789395e-14
7.695944795e-15