/*--------------------------------*- C++ -*----------------------------------*\
  =========                 |
  \\      /  F ield         | OpenFOAM: The Open Source CFD Toolbox
   \\    /   O peration     | Website:  https://openfoam.org
    \\  /    A nd           | Version:  10
     \\/     M anipulation  |
\*---------------------------------------------------------------------------*/
FoamFile
{
    format      ascii;
    class       volScalarField;
    location    "3000";
    object      NH;
}
// * * * * * * * * * * * * * * * * * * * * * * * * * * * * * * * * * * * * * //

dimensions      [0 0 0 0 0 0 0];

internalField   nonuniform List<scalar> 
5170
(
3.473831953e-72
1.937405008e-72
4.879449187e-73
5.447216186e-74
6.555661088e-75
1.973044165e-69
1.051262372e-69
2.273635299e-70
2.063189787e-71
1.252490143e-71
1.131412572e-66
5.753041633e-67
1.048346931e-67
1.015784594e-68
2.512680227e-68
6.585448762e-64
3.211550305e-64
5.059197882e-65
7.255749555e-66
4.542988748e-65
3.898768877e-61
1.846510446e-61
2.644847174e-62
7.164661843e-63
7.538342856e-62
2.358203241e-58
1.104759321e-58
1.516216578e-59
8.451556081e-60
1.162378731e-58
1.465153546e-55
6.903180679e-56
9.982341749e-57
1.089320495e-56
1.719165168e-55
9.305247681e-53
4.485483541e-53
7.878969693e-54
1.481313976e-53
2.485920358e-52
6.076299458e-50
3.119525537e-50
7.327834415e-51
2.095163976e-50
3.541614296e-49
4.09303104e-47
2.325076699e-47
7.771027852e-48
3.082525948e-47
4.997619856e-46
2.84894357e-44
1.859402748e-44
9.192350045e-45
4.717771781e-44
7.010720148e-43
2.037431423e-41
1.581896558e-41
1.185657386e-41
7.453707393e-41
9.800747827e-40
1.494994411e-38
1.424916542e-38
1.635476605e-38
1.220818648e-37
1.367226826e-36
1.115366395e-35
1.336712368e-35
2.352475972e-35
2.052888846e-34
1.904772175e-33
8.438361192e-33
1.301169962e-32
3.440060463e-32
3.48435139e-31
2.650678549e-30
6.3450044e-30
1.280403249e-29
4.950000038e-29
5.680583935e-28
3.684328873e-27
4.698790396e-27
1.267177398e-26
6.762551904e-26
8.524671579e-25
5.116920704e-24
3.33013226e-24
1.218201825e-23
8.766912763e-23
1.190434521e-21
7.09437394e-21
2.141126647e-21
1.09580842e-20
1.02914796e-19
1.451864279e-18
9.828006592e-18
1.142034506e-18
9.10901228e-18
1.140072202e-16
1.589025848e-15
1.376838785e-14
5.432978035e-11
3.096229854e-11
2.46487101e-11
3.559592675e-11
5.577685709e-11
4.906592344e-11
3.751800484e-11
3.292807662e-11
4.101872145e-11
4.864076664e-11
3.783702285e-11
3.462642094e-11
3.217408143e-11
3.581617318e-11
3.620042203e-11
2.888516763e-11
2.958960961e-11
2.870660045e-11
2.966044695e-11
2.678337272e-11
2.242353869e-11
2.479745587e-11
2.469718328e-11
2.409311025e-11
2.003732076e-11
1.782684294e-11
2.066584911e-11
2.091779358e-11
1.941248605e-11
1.528171136e-11
1.448747928e-11
1.722810547e-11
1.756526667e-11
1.559648693e-11
1.192729952e-11
1.200594337e-11
1.441419445e-11
1.469876741e-11
1.258500669e-11
9.5796028e-12
1.013542533e-11
1.214051224e-11
1.231510206e-11
1.030998317e-11
7.961502601e-12
8.707736414e-12
1.032157088e-11
1.038912493e-11
8.641023822e-12
6.845651132e-12
7.61085456e-12
8.883405878e-12
8.871409275e-12
7.425738023e-12
6.060121632e-12
6.760287901e-12
7.7546658e-12
7.695246436e-12
6.534549104e-12
5.487827925e-12
6.093663012e-12
6.871162387e-12
6.788497253e-12
5.868180374e-12
5.053199765e-12
5.563094345e-12
6.175356615e-12
6.086027829e-12
5.356329447e-12
4.708489551e-12
5.133879405e-12
5.622668392e-12
5.535186383e-12
4.951001918e-12
4.423353791e-12
4.778920344e-12
5.176278889e-12
5.095583738e-12
4.61934033e-12
4.176943058e-12
4.47953389e-12
4.808069386e-12
4.733762942e-12
4.337268951e-12
3.955435306e-12
4.23034277e-12
4.49751739e-12
4.424006221e-12
4.086418991e-12
3.749529025e-12
4.67280192e-12
4.439688123e-12
4.183296938e-12
3.856502613e-12
3.547639028e-12
1.002854301e-10
3.8057587e-11
8.273500854e-12
4.090907721e-12
3.314109905e-12
8.794565212e-17
1.015582954e-15
2.62291035e-14
7.791826201e-13
1.985853629e-11
2.546665325e-16
2.417392168e-15
4.75791795e-14
9.531709791e-13
1.278078715e-11
4.527400149e-16
3.806655122e-15
6.362187886e-14
1.022061569e-12
1.059233762e-11
9.250808011e-16
8.351365128e-15
1.492121726e-13
2.427352556e-12
2.632523639e-11
1.946034307e-15
1.784349001e-14
2.930045407e-13
3.831752752e-12
3.139995657e-11
3.745663451e-15
3.21882959e-14
4.512767375e-13
4.661121036e-12
2.955175015e-11
7.532609452e-15
6.158837591e-14
7.396788481e-13
6.082543379e-12
3.178317485e-11
1.757845346e-14
1.437141044e-13
1.508609313e-12
1.056490189e-11
5.261997239e-11
4.239871974e-14
3.264771035e-13
2.761356728e-12
1.551549098e-11
6.584949453e-11
9.467410063e-14
6.381685903e-13
4.202154144e-12
1.892687935e-11
6.784028668e-11
2.086917474e-13
1.107397879e-12
5.640624199e-12
2.142845345e-11
6.80412915e-11
4.188804848e-13
1.762815995e-12
7.544043421e-12
2.635585916e-11
8.073804754e-11
7.924512338e-13
2.732116086e-12
1.022144969e-11
3.309699815e-11
9.562420994e-11
1.442717226e-12
4.100569692e-12
1.339700641e-11
3.932000135e-11
1.03786091e-10
2.546059749e-12
5.951295982e-12
1.685424118e-11
4.445265443e-11
1.068014614e-10
4.390051007e-12
8.583370939e-12
2.112055677e-11
5.054421609e-11
1.127960607e-10
7.650924871e-12
1.29600104e-11
2.817114104e-11
6.239829977e-11
1.33252196e-10
1.348360179e-11
2.051771887e-11
4.006985908e-11
8.259925019e-11
1.684667821e-10
2.341453712e-11
3.265109861e-11
5.732655941e-11
1.082133528e-10
2.058405853e-10
3.814466694e-11
4.94369804e-11
7.83413087e-11
1.345447235e-10
2.363263304e-10
5.711786089e-11
6.976602403e-11
1.010598499e-10
1.591262754e-10
2.595858377e-10
7.849475677e-11
9.184166475e-11
1.242899942e-10
1.828456736e-10
2.816020382e-10
1.014348531e-10
1.155195086e-10
1.495020072e-10
2.104800596e-10
3.132162987e-10
1.273906503e-10
1.43081178e-10
1.810601812e-10
2.49470807e-10
3.662937023e-10
1.603837408e-10
1.79114765e-10
2.244326942e-10
3.071945098e-10
4.483606403e-10
2.080279657e-10
2.316959628e-10
2.887419335e-10
3.907344056e-10
5.646482978e-10
2.781732544e-10
3.082795468e-10
3.803563752e-10
5.084887193e-10
7.239660462e-10
3.824404836e-10
4.210811607e-10
5.129024009e-10
6.730749792e-10
9.404099108e-10
5.328676975e-10
5.845705704e-10
7.079711681e-10
9.170228158e-10
1.25015837e-09
7.541480489e-10
8.210036106e-10
9.782973063e-10
1.250354844e-09
1.686316104e-09
1.103830269e-09
1.194603286e-09
1.408400876e-09
1.775253361e-09
2.355241915e-09
1.69447008e-09
1.823441386e-09
2.125369509e-09
2.640896049e-09
3.449028477e-09
2.804270763e-09
3.001085e-09
3.459346469e-09
4.215870623e-09
5.395642667e-09
5.032018592e-09
5.341616976e-09
6.048921413e-09
7.227982213e-09
9.003304924e-09
9.6965047e-09
1.017035811e-08
1.12462722e-08
1.297282221e-08
1.54490462e-08
1.805448665e-08
1.865310163e-08
1.998440431e-08
2.204514982e-08
2.487296465e-08
2.823653842e-08
2.882458602e-08
3.011863081e-08
3.208617274e-08
3.472027073e-08
3.688244758e-08
3.73979375e-08
3.852885148e-08
4.023828505e-08
4.250281298e-08
4.316102529e-08
4.362308946e-08
4.462899694e-08
4.612232375e-08
4.802731436e-08
4.838043462e-08
4.873614037e-08
4.945947439e-08
5.037140094e-08
5.115386663e-08
4.878654742e-08
4.844990653e-08
4.760202492e-08
4.606688885e-08
4.369045907e-08
3.298187355e-08
3.242358822e-08
3.120942718e-08
2.940964735e-08
2.710836119e-08
1.756269606e-08
1.723977848e-08
1.655277104e-08
1.556940472e-08
1.436087437e-08
8.779646198e-09
8.640941976e-09
8.346074095e-09
7.924107962e-09
7.404356458e-09
4.561474859e-09
4.504879885e-09
4.383985428e-09
4.208476896e-09
3.988815076e-09
2.563294195e-09
2.538537742e-09
2.485288253e-09
2.407428056e-09
2.308567919e-09
1.561351482e-09
1.549244605e-09
1.523066343e-09
1.484435386e-09
1.434748437e-09
1.010784323e-09
1.004083329e-09
9.895382392e-10
9.679295143e-10
9.398788264e-10
6.773002998e-10
6.732115575e-10
6.643160395e-10
6.510536162e-10
6.337731164e-10
4.59666698e-10
4.570453807e-10
4.513369468e-10
4.428065434e-10
4.316466447e-10
3.11302437e-10
3.095802779e-10
3.058253508e-10
3.002059936e-10
2.928195816e-10
2.087130737e-10
2.075894053e-10
2.051409145e-10
2.014786035e-10
1.966804422e-10
1.382153048e-10
1.37477377e-10
1.358688703e-10
1.334611999e-10
1.303031933e-10
9.018967417e-11
8.971486548e-11
8.868020584e-11
8.713224369e-11
8.510332651e-11
5.804885594e-11
5.775038358e-11
5.71001788e-11
5.612783873e-11
5.485413063e-11
3.697486789e-11
3.679195397e-11
3.639356562e-11
3.579795809e-11
3.50179907e-11
2.343721995e-11
2.332760352e-11
2.308887577e-11
2.273197339e-11
2.226457731e-11
1.488279619e-11
1.481824393e-11
1.467764943e-11
1.446740795e-11
1.419196614e-11
9.537732354e-12
9.500154053e-12
9.418293263e-12
9.295822245e-12
9.135250627e-12
6.215828114e-12
6.19405686e-12
6.146615e-12
6.075587551e-12
5.982363842e-12
4.149281276e-12
4.136629891e-12
4.109048952e-12
4.067717464e-12
4.013393939e-12
2.853690107e-12
2.846246457e-12
2.830009056e-12
2.805647616e-12
2.773572844e-12
2.029242313e-12
2.024758223e-12
2.014969548e-12
2.000262482e-12
1.980859043e-12
1.492901888e-12
1.490101855e-12
1.483983975e-12
1.474777248e-12
1.462602619e-12
1.133789118e-12
1.131955826e-12
1.127946443e-12
1.121902686e-12
1.113891866e-12
8.850584208e-13
8.83790236e-13
8.810141351e-13
8.768229418e-13
8.712557833e-13
7.063110692e-13
7.053844514e-13
7.033545471e-13
7.002861481e-13
6.962035373e-13
5.731806899e-13
5.724698386e-13
5.709116738e-13
5.685543499e-13
5.654143673e-13
4.714315375e-13
4.708660206e-13
4.696261028e-13
4.677494332e-13
4.652482083e-13
3.974341665e-13
3.969661558e-13
3.959396158e-13
3.943853877e-13
3.92313236e-13
1.503618447e-10
6.14687021e-11
5.266523851e-11
1.437497508e-10
1.290150365e-10
9.709891927e-11
9.523881218e-11
1.63242473e-10
1.774824539e-10
1.590235852e-10
1.468532025e-10
1.750274246e-10
1.979277071e-10
1.989201821e-10
1.905056938e-10
1.924183894e-10
2.247743073e-10
2.787211193e-10
3.256721766e-10
3.548175801e-10
3.717616297e-10
3.901190354e-10
4.264765839e-10
4.958739821e-10
6.049788726e-10
7.558326961e-10
9.569368942e-10
1.225098442e-09
1.6011394e-09
2.13634733e-09
2.944236672e-09
4.257790432e-09
6.554539019e-09
1.067950738e-08
1.765329735e-08
2.72620773e-08
3.688394446e-08
4.432976591e-08
4.944589871e-08
5.121658644e-08
4.156171063e-08
2.534723283e-08
1.346875146e-08
7.01816852e-09
3.82258746e-09
2.232231357e-09
1.395747929e-09
9.176085687e-10
6.199729444e-10
4.226988943e-10
2.869664345e-10
1.928052856e-10
1.277634374e-10
8.34733206e-11
5.383156377e-11
3.439202062e-11
2.188941846e-11
1.397075169e-11
9.00615984e-12
5.907309506e-12
3.969576985e-12
2.747642482e-12
1.965130523e-12
1.452704505e-12
1.107359374e-12
8.667037576e-13
6.928582832e-13
5.628380071e-13
4.631943991e-13
3.906111915e-13
4.764829847e-10
5.546114032e-09
4.842754488e-10
3.803463763e-11
3.600243395e-12
1.599202391e-10
7.137703258e-10
1.458826476e-09
1.67246044e-10
1.078697248e-11
1.932715097e-10
1.850438433e-09
3.06564326e-08
2.577271678e-09
1.352738991e-10
5.743689124e-10
6.085798442e-09
7.934955887e-08
9.194296882e-09
1.14898548e-09
4.139133402e-10
2.606027887e-09
1.669367864e-08
5.263218272e-09
1.072739122e-09
2.6912781e-10
1.165938797e-09
4.668701059e-09
7.790412804e-09
1.524427318e-09
2.555775864e-10
1.153688905e-09
5.821921649e-09
3.634637675e-08
5.661011714e-09
4.588194761e-10
2.64607352e-09
1.678095767e-08
1.21939151e-07
1.964252272e-08
4.43039657e-10
1.939626606e-09
8.46786492e-09
3.789398353e-08
1.184413206e-08
3.567216733e-10
1.224178735e-09
4.013424615e-09
1.306570521e-08
1.258560733e-08
3.114582635e-10
9.807245543e-10
3.110849508e-09
1.085359621e-08
3.500864799e-08
3.7819948e-10
1.360061905e-09
5.278886397e-09
2.293338665e-08
1.073709685e-07
4.10929098e-10
1.353626273e-09
4.541753286e-09
1.594187917e-08
5.779658302e-08
3.869275332e-10
1.100393822e-09
3.072764139e-09
8.647047948e-09
2.432176921e-08
3.494181748e-10
8.849974011e-10
2.198173467e-09
5.546964575e-09
1.441561267e-08
3.417871205e-10
8.411310994e-10
2.107876097e-09
5.616404121e-09
1.629313444e-08
3.990022844e-10
1.038692512e-09
2.85651652e-09
8.462556689e-09
2.711296238e-08
4.87949561e-10
1.268191095e-09
3.434439459e-09
9.699058761e-09
2.855575211e-08
5.477294617e-10
1.334797862e-09
3.324595476e-09
8.445761657e-09
2.19097192e-08
5.686525134e-10
1.279602965e-09
2.928096395e-09
6.80122922e-09
1.609611374e-08
5.705769333e-10
1.201465147e-09
2.583559448e-09
5.663909485e-09
1.270990151e-08
5.803552616e-10
1.173282275e-09
2.440113813e-09
5.215905826e-09
1.149459256e-08
6.242603353e-10
1.243127358e-09
2.56769591e-09
5.491124477e-09
1.215415664e-08
7.22392517e-10
1.438308582e-09
2.98282797e-09
6.415600464e-09
1.424036024e-08
8.778881282e-10
1.738133426e-09
3.579556843e-09
7.619421819e-09
1.662347624e-08
1.086806982e-09
2.113804876e-09
4.257400674e-09
8.83511202e-09
1.866393727e-08
1.356794937e-09
2.569190699e-09
5.036434541e-09
1.014013113e-08
2.064897681e-08
1.70995261e-09
3.149298559e-09
6.007360453e-09
1.172684152e-08
2.298911696e-08
2.196111451e-09
3.933364054e-09
7.292545068e-09
1.377484633e-08
2.588594096e-08
2.892822226e-09
5.033575752e-09
9.051623301e-09
1.646704235e-08
2.942688503e-08
3.925680445e-09
6.653080924e-09
1.156979564e-08
2.014072819e-08
3.388961832e-08
5.59483741e-09
9.193722097e-09
1.536450971e-08
2.535891601e-08
3.977983299e-08
8.451234531e-09
1.332646862e-08
2.112176828e-08
3.260496503e-08
4.730432715e-08
1.337591214e-08
1.980545003e-08
2.91235398e-08
4.137002454e-08
5.513934964e-08
2.111408039e-08
2.857688579e-08
3.821043445e-08
4.934300119e-08
5.955801268e-08
3.093355553e-08
3.823224933e-08
4.684864162e-08
5.562979612e-08
6.077013612e-08
4.016785275e-08
4.638837897e-08
5.310899582e-08
5.817191297e-08
5.495730367e-08
4.70716213e-08
5.190400151e-08
5.581933628e-08
5.436124281e-08
4.387500864e-08
5.146896309e-08
5.367924012e-08
5.146127956e-08
4.278599262e-08
3.174091961e-08
5.089641745e-08
4.657062516e-08
3.876280286e-08
2.961546104e-08
2.136599063e-08
3.828580699e-08
3.18247796e-08
2.49278066e-08
1.868058869e-08
1.364020871e-08
2.276747872e-08
1.852756657e-08
1.454899686e-08
1.114398054e-08
8.407844958e-09
1.217539604e-08
1.011592555e-08
8.193391117e-09
6.515930716e-09
5.118874117e-09
6.456259737e-09
5.541804557e-09
4.658903052e-09
3.854686603e-09
3.150862152e-09
3.578994025e-09
3.168520335e-09
2.754881107e-09
2.359330842e-09
1.995070329e-09
2.119497815e-09
1.922309864e-09
1.715103431e-09
1.507886918e-09
1.308070488e-09
1.337804989e-09
1.233207291e-09
1.119493933e-09
1.001656126e-09
8.83897139e-10
8.843830185e-10
8.231361984e-10
7.550228406e-10
6.827567786e-10
6.089184804e-10
5.993395562e-10
5.608570666e-10
5.175146218e-10
4.708921907e-10
4.225147394e-10
4.093033268e-10
3.841474744e-10
3.556063886e-10
3.246745817e-10
2.924051851e-10
2.78175795e-10
2.615438077e-10
2.42601048e-10
2.219954064e-10
2.003863429e-10
1.869936582e-10
1.759818797e-10
1.634093852e-10
1.497478928e-10
1.354282692e-10
1.239585269e-10
1.16773627e-10
1.085858242e-10
9.967968928e-11
9.0347211e-11
8.103244722e-11
7.642934423e-11
7.119011669e-11
6.549649229e-11
5.953509239e-11
5.230080947e-11
4.941680653e-11
4.613778132e-11
4.257787181e-11
3.885353292e-11
3.345511553e-11
3.169045114e-11
2.96844997e-11
2.750653321e-11
2.522670239e-11
2.132789255e-11
2.026966054e-11
1.906570746e-11
1.77567806e-11
1.638397141e-11
1.363957155e-11
1.301454943e-11
1.230210203e-11
1.152557124e-11
1.070846633e-11
8.812820159e-12
8.447119033e-12
8.029051493e-12
7.571699341e-12
7.08825536e-12
5.794835997e-12
5.581447923e-12
5.336559573e-12
5.067375282e-12
4.781182519e-12
3.903865471e-12
3.778720759e-12
3.634407567e-12
3.474835902e-12
3.303979586e-12
2.708719406e-12
2.634251346e-12
2.547879683e-12
2.45170493e-12
2.347875081e-12
1.941495314e-12
1.896037556e-12
1.842964762e-12
1.783398577e-12
1.718495095e-12
1.437812882e-12
1.409007524e-12
1.375138044e-12
1.336804313e-12
1.294631097e-12
1.097519267e-12
1.07837802e-12
1.055715407e-12
1.029856652e-12
1.001145336e-12
8.598395676e-13
8.464206193e-13
8.304372459e-13
8.12072323e-13
7.915226984e-13
6.878093858e-13
6.779026167e-13
6.660492528e-13
6.523589202e-13
6.369522327e-13
5.589476461e-13
5.512956299e-13
5.421142099e-13
5.314758612e-13
5.194619964e-13
4.600918734e-13
4.539832818e-13
4.466435113e-13
4.381251697e-13
4.28488199e-13
3.880396829e-13
3.829744639e-13
3.768850523e-13
3.698136367e-13
3.618086473e-13
9.157290498e-14
4.247963453e-15
4.660912793e-16
8.029687366e-17
1.726653313e-17
3.84052859e-18
8.108210037e-19
1.639551463e-19
3.283458843e-20
7.085303633e-21
2.112994984e-21
1.16978522e-21
9.97000936e-22
9.549723619e-22
9.141869454e-22
8.492602838e-22
7.601146459e-22
6.543472973e-22
5.41788086e-22
4.316178122e-22
3.310094951e-22
2.445059264e-22
1.740578357e-22
1.194858968e-22
7.915772202e-23
5.06571351e-23
3.134967042e-23
1.878436283e-23
1.091192803e-23
6.154004719e-24
3.374770327e-24
1.802891316e-24
9.405110017e-25
4.806282727e-25
2.416365102e-25
1.201580861e-25
5.943796627e-26
2.937558987e-26
1.451655296e-26
7.143487544e-27
3.471255544e-27
1.648428265e-27
7.574084504e-28
3.340743529e-28
1.407222028e-28
5.646564896e-29
2.157735639e-29
7.865287381e-30
2.743920938e-30
9.20791848e-31
2.993923435e-31
9.53377621e-32
3.021563571e-32
9.752176088e-33
3.290241769e-33
1.175126357e-33
4.278901194e-34
1.390202515e-34
2.684493116e-35
1.35622548e-36
3.39008743e-13
1.336614457e-14
1.03262253e-15
1.27153655e-16
2.158601416e-17
4.099524596e-18
7.881183445e-19
1.550853844e-19
3.535579287e-20
1.233999512e-20
7.779527456e-21
6.928239795e-21
6.810329294e-21
6.685108621e-21
6.357750728e-21
5.808022082e-21
5.093492821e-21
4.295254067e-21
3.489985088e-21
2.735426917e-21
2.069709231e-21
1.512492113e-21
1.068057674e-21
7.291446296e-22
4.815364189e-22
3.07894759e-22
1.907909004e-22
1.146954446e-22
6.696342978e-23
3.801204215e-23
2.100821605e-23
1.13248653e-23
5.969225675e-24
3.087011521e-24
1.573784647e-24
7.955507e-25
4.01060487e-25
2.023467932e-25
1.0206617e-25
5.114848481e-26
2.52106661e-26
1.208742457e-26
5.583082124e-27
2.466838709e-27
1.03833846e-27
4.157476231e-28
1.584599976e-28
5.763579523e-29
2.008569114e-29
6.74344027e-30
2.197343791e-30
7.022855849e-31
2.2356844e-31
7.242288868e-32
2.444688873e-32
8.686145551e-33
3.124144736e-33
9.968966874e-34
1.937921736e-34
1.038201377e-35
2.943543015e-12
7.094528271e-14
2.519081416e-15
1.602666549e-16
1.849068579e-17
3.053614198e-18
6.605473671e-19
1.976719053e-19
8.405476308e-20
4.751394438e-20
3.180901887e-20
2.556980187e-20
2.389732442e-20
2.35446074e-20
2.306585727e-20
2.172559968e-20
1.948983083e-20
1.665487158e-20
1.360315964e-20
1.065398438e-20
8.028148048e-21
5.834956107e-21
4.098937476e-21
2.787268317e-21
1.837128703e-21
1.175223215e-21
7.305668298e-22
4.418110803e-22
2.602055682e-22
1.494021869e-22
8.373062372e-23
4.588498825e-23
2.465101687e-23
1.303180036e-23
6.814521561e-24
3.546459952e-24
1.846539227e-24
9.634011e-25
5.016057472e-25
2.582094904e-25
1.298602902e-25
6.308550316e-26
2.934042799e-26
1.298953887e-26
5.459637177e-27
2.178750981e-27
8.273713059e-28
3.001341377e-28
1.045295646e-28
3.516274322e-29
1.150919004e-29
3.701453552e-30
1.185782392e-30
3.854118149e-31
1.296040323e-31
4.535610395e-32
1.586843745e-32
4.846876591e-33
8.807239183e-34
4.491931457e-35
4.01924391e-11
7.747546847e-13
1.522838202e-14
4.862216819e-16
3.332100075e-17
5.604878381e-18
1.863214606e-18
8.893258801e-19
4.903363836e-19
2.88766899e-19
1.789018343e-19
1.189671231e-19
8.713397815e-20
7.034103387e-20
6.537427114e-20
6.149082994e-20
5.644504106e-20
4.979541545e-20
4.190222229e-20
3.35928703e-20
2.571425217e-20
1.884800927e-20
1.32785496e-20
9.02692793e-21
5.94384947e-21
3.802502817e-21
2.369235065e-21
1.440399335e-21
8.557062125e-22
4.974230206e-22
2.833742889e-22
1.585297835e-22
8.73419178e-23
4.758188758e-23
2.576720783e-23
1.394800437e-23
7.572270554e-24
4.115607116e-24
2.221912288e-24
1.177333772e-24
6.045245788e-25
2.975534249e-25
1.393398826e-25
6.181389772e-26
2.594835962e-26
1.032445773e-26
3.908782957e-27
1.415669709e-27
4.935188906e-28
1.667123913e-28
5.497179071e-29
1.784562158e-29
5.765620545e-30
1.879672734e-30
6.267397222e-31
2.137844848e-31
7.164972216e-32
2.057043718e-32
3.385947334e-33
1.60404248e-34
5.756441895e-11
1.260128897e-12
2.472890882e-14
7.270801321e-16
6.834606885e-17
2.10190318e-17
9.800287446e-18
5.173854734e-18
2.912895062e-18
1.707343498e-18
1.032636587e-18
6.468485159e-19
4.242100551e-19
2.954817675e-19
2.204136601e-19
1.848988435e-19
1.646242612e-19
1.444982605e-19
1.228665304e-19
1.010573559e-19
7.954319209e-20
5.973652781e-20
4.285247609e-20
2.947033176e-20
1.952419232e-20
1.252570542e-20
7.818489537e-21
4.766434525e-21
2.846195891e-21
1.668489845e-21
9.623041767e-22
5.4742477e-22
3.08190958e-22
1.724899642e-22
9.649999404e-23
5.421610588e-23
3.06080661e-23
1.726271211e-23
9.615372556e-24
5.216842846e-24
2.722216111e-24
1.353206256e-24
6.369809374e-25
2.831541033e-25
1.188949078e-25
4.729611629e-26
1.791380264e-26
6.500887199e-27
2.275960144e-27
7.740804378e-28
2.575538768e-28
8.444017707e-29
2.749597732e-29
8.970811115e-30
2.951349362e-30
9.728856959e-31
3.082568405e-31
8.201887433e-32
1.205488645e-32
5.404564507e-34
1.462138736e-10
5.343712913e-12
1.188934199e-13
3.099981897e-15
3.168844271e-16
1.029988345e-16
4.614333285e-17
2.369354255e-17
1.332373881e-17
7.948799786e-18
4.933095122e-18
3.158477006e-18
2.086020206e-18
1.426573418e-18
1.01656301e-18
7.635590574e-19
5.950010839e-19
4.999425948e-19
4.197525895e-19
3.435540475e-19
2.714924194e-19
2.063786563e-19
1.505678016e-19
1.054664626e-19
7.102549273e-20
4.613806375e-20
2.901993386e-20
1.775272888e-20
1.060874753e-20
6.220182751e-21
3.593695268e-21
2.054476553e-21
1.167414434e-21
6.628193315e-22
3.781927496e-22
2.176858589e-22
1.261499867e-22
7.290778481e-23
4.143173636e-23
2.280542247e-23
1.200458826e-23
5.990840553e-24
2.821207665e-24
1.252145394e-24
5.24865374e-25
2.087920222e-25
7.932560905e-26
2.897620207e-26
1.02422247e-26
3.524430954e-27
1.187377619e-27
3.938092987e-28
1.292696121e-28
4.218545708e-29
1.368860856e-29
4.358859818e-30
1.302065305e-30
3.198196752e-31
4.180053358e-32
1.786542629e-33
7.254319134e-10
4.133909603e-11
1.223478129e-12
3.194574755e-14
1.364684086e-15
3.228645144e-16
1.319617611e-16
6.588216034e-17
3.709915441e-17
2.257391102e-17
1.446003464e-17
9.625465682e-18
6.615117858e-18
4.695306027e-18
3.448417917e-18
2.622935945e-18
2.066244431e-18
1.658964134e-18
1.397450909e-18
1.173346603e-18
9.571812331e-19
7.505435247e-19
5.632208834e-19
4.047160885e-19
2.791010279e-19
1.853933546e-19
1.189078538e-19
7.384582046e-20
4.454099839e-20
2.619833553e-20
1.510416668e-20
8.588716241e-21
4.850595828e-21
2.740631858e-21
1.560259691e-21
8.995271252e-22
5.240051701e-22
3.048413663e-22
1.742981606e-22
9.639282288e-23
5.086932959e-23
2.539363333e-23
1.193425744e-23
5.27455856e-24
2.199893552e-24
8.72486102e-25
3.320229164e-25
1.221947345e-25
4.374909778e-26
1.53022889e-26
5.245809295e-27
1.767467553e-27
5.866878131e-28
1.9198909e-28
6.164257728e-29
1.905970375e-29
5.399560291e-30
1.231174095e-30
1.443333085e-31
5.931478838e-33
2.915362023e-09
3.058061599e-10
1.571517832e-11
4.481020616e-13
1.391216986e-14
1.331834184e-15
3.594697595e-16
1.517450219e-16
7.930796518e-17
4.697824406e-17
3.009800161e-17
2.035765893e-17
1.435357307e-17
1.048185387e-17
7.917074642e-18
6.185567915e-18
4.986084357e-18
4.132684931e-18
3.476540791e-18
3.015599599e-18
2.6009907e-18
2.182336535e-18
1.759570346e-18
1.355408945e-18
9.951557688e-19
6.970557978e-19
4.664272809e-19
2.993756736e-19
1.853169556e-19
1.112226661e-19
6.500346508e-20
3.719160336e-20
2.097494365e-20
1.175717567e-20
6.601994902e-21
3.737779989e-21
2.138266962e-21
1.225335637e-21
6.926942633e-22
3.804419065e-22
2.002365519e-22
9.99102383e-23
4.69517992e-23
2.072400752e-23
8.615624847e-24
3.405975911e-24
1.296239885e-24
4.797863105e-25
1.738307311e-25
6.183505545e-26
2.161472136e-26
7.42382731e-27
2.503003824e-27
8.257581626e-28
2.640650516e-28
7.995416278e-29
2.170376174e-29
4.626063013e-30
4.945956045e-31
1.94199908e-32
2.623543992e-09
4.635626619e-10
4.765515992e-11
2.506191267e-12
7.931837008e-14
4.538182708e-15
7.941937698e-16
2.803269328e-16
1.376821984e-16
7.984263879e-17
5.103251993e-17
3.484092161e-17
2.49980813e-17
1.868752172e-17
1.447628628e-17
1.158993665e-17
9.569801308e-18
8.114318502e-18
7.030863292e-18
6.157700584e-18
5.499641997e-18
4.871372076e-18
4.207939691e-18
3.509387473e-18
2.807622144e-18
2.144581726e-18
1.558656135e-18
1.077229453e-18
7.090309339e-19
4.462354767e-19
2.696217051e-19
1.576014518e-19
8.997048425e-20
5.062534709e-20
2.827276066e-20
1.572824474e-20
8.736597064e-21
4.840194392e-21
2.649923091e-21
1.417297967e-21
7.335608136e-22
3.642107016e-22
1.716814683e-22
7.61791627e-23
3.173886674e-23
1.254378414e-23
4.775989769e-24
1.773133051e-24
6.468500793e-25
2.327441398e-25
8.264048753e-26
2.890334083e-26
9.919399879e-27
3.316911671e-27
1.065937138e-27
3.200253083e-28
8.460320094e-29
1.715057868e-29
1.711469157e-30
6.457817432e-32
3.092347679e-09
6.780617986e-10
9.951507791e-11
9.839240291e-12
4.924539384e-13
2.044896768e-14
2.038014166e-15
5.198692071e-16
2.214499182e-16
1.214128673e-16
7.620364959e-17
5.20798485e-17
3.782577853e-17
2.882963677e-17
2.287806916e-17
1.878202174e-17
1.589479413e-17
1.38053269e-17
1.22440233e-17
1.102553971e-17
1.000826948e-17
9.168261226e-18
8.285252396e-18
7.298596281e-18
6.224817493e-18
5.116335612e-18
4.03786085e-18
3.048595956e-18
2.195102248e-18
1.503321423e-18
9.783807199e-19
6.06945385e-19
3.61244298e-19
2.081575859e-19
1.172181701e-19
6.496843279e-20
3.545936402e-20
1.903972018e-20
1.002549879e-20
5.16024399e-21
2.579147462e-21
1.247576132e-21
5.827018926e-22
2.609269492e-22
1.104841213e-22
4.410931377e-23
1.686337902e-23
6.276014979e-24
2.296017463e-24
8.296537766e-25
2.967072088e-25
1.049344212e-25
3.653141325e-26
1.239613175e-26
4.028661775e-27
1.214191267e-27
3.182996797e-28
6.288998963e-29
6.035766008e-30
2.224567991e-31
7.238185876e-09
1.503179096e-09
2.6695599e-10
3.446958619e-11
2.741706814e-12
1.304744174e-13
7.628169733e-15
1.172069473e-15
3.798186965e-16
1.822855573e-16
1.075366841e-16
7.189344586e-17
5.22512298e-17
4.03767857e-17
3.273698963e-17
2.758827481e-17
2.397538152e-17
2.139777784e-17
1.948790749e-17
1.801185649e-17
1.672473055e-17
1.573129613e-17
1.469436201e-17
1.344850464e-17
1.197427771e-17
1.032778767e-17
8.601977907e-18
6.900402667e-18
5.317621371e-18
3.926753552e-18
2.772261568e-18
1.867022484e-18
1.198523186e-18
7.346614566e-19
4.323954216e-19
2.458868674e-19
1.354627318e-19
7.221321261e-20
3.724300104e-20
1.861033254e-20
9.021043474e-21
4.234274497e-21
1.924045508e-21
8.481930391e-22
3.622935456e-22
1.483541256e-22
5.786066426e-23
2.167463177e-23
7.921214807e-24
2.855439395e-24
1.020412966e-24
3.616937515e-25
1.266998267e-25
4.342491484e-26
1.42842754e-26
4.354613199e-27
1.150455561e-27
2.271504153e-28
2.165374289e-29
7.957727027e-31
2.09395212e-08
4.142085108e-09
8.139028081e-10
1.227376667e-10
1.477440363e-11
1.080560926e-12
5.592856089e-14
4.370188207e-15
8.289994302e-16
2.947672008e-16
1.499312887e-16
9.397730445e-17
6.71439078e-17
5.23202579e-17
4.335439011e-17
3.762094629e-17
3.37706094e-17
3.113973034e-17
2.927263957e-17
2.787713518e-17
2.666407559e-17
2.569547787e-17
2.465860759e-17
2.322391151e-17
2.131953936e-17
1.900404253e-17
1.640665915e-17
1.368918732e-17
1.101679906e-17
8.535027908e-18
6.35317272e-18
4.53543357e-18
3.10009334e-18
2.026676277e-18
1.266961993e-18
7.582397835e-19
4.349278763e-19
2.391575335e-19
1.259852286e-19
6.340699802e-20
3.056474417e-20
1.417456482e-20
6.3448086e-21
2.748156543e-21
1.156814055e-21
4.747255677e-22
1.890532345e-22
7.254210939e-23
2.680299204e-23
9.63418356e-24
3.415132132e-24
1.202940649e-24
4.204251311e-25
1.444117741e-25
4.783821062e-26
1.476315997e-26
3.969290497e-27
8.002897345e-28
7.82649099e-29
2.949274154e-30
1.65827422e-08
4.164893711e-09
1.062361236e-09
2.11019818e-10
3.246203661e-11
3.985211912e-12
3.060156161e-13
1.849700239e-14
1.935828268e-15
4.574830365e-16
1.913238822e-16
1.109333604e-16
7.792900708e-17
6.19109746e-17
5.312564868e-17
4.820164299e-17
4.526128308e-17
4.356813037e-17
4.259249762e-17
4.201471141e-17
4.140644957e-17
4.106099618e-17
4.027520552e-17
3.869335836e-17
3.62335993e-17
3.298000556e-17
2.912037898e-17
2.490103369e-17
2.058844308e-17
1.643411407e-17
1.264521107e-17
9.365039547e-18
6.665988513e-18
4.554733483e-18
2.984681647e-18
1.874185577e-18
1.126747678e-18
6.475672747e-19
3.55061371e-19
1.856021467e-19
9.239961909e-20
4.388127256e-20
1.99114614e-20
8.648412696e-21
3.62396375e-21
1.474696303e-21
5.847650942e-22
2.267316727e-22
8.565238551e-23
3.134987996e-23
1.114544546e-23
3.887633473e-24
1.341215491e-24
4.565714065e-25
1.509055625e-25
4.687658593e-26
1.286366886e-26
2.701940594e-27
2.814918242e-28
1.129125206e-29
1.359644764e-08
4.049686441e-09
1.21324368e-09
3.067949545e-10
5.847801766e-11
9.347434737e-12
1.165577708e-12
9.520448472e-14
6.750113371e-15
8.392009995e-16
2.332097132e-16
1.165298833e-16
8.124007234e-17
6.769836302e-17
6.204493946e-17
6.012554068e-17
6.0059477e-17
6.093533405e-17
6.224424691e-17
6.339023121e-17
6.472498875e-17
6.533198229e-17
6.469895964e-17
6.261794749e-17
5.909514699e-17
5.428894056e-17
4.847079174e-17
4.199146712e-17
3.52451674e-17
2.861962113e-17
2.244910749e-17
1.698822807e-17
1.239180502e-17
8.7063448e-18
5.888039493e-18
3.829791579e-18
2.393074499e-18
1.434326336e-18
8.227563886e-19
4.504548107e-19
2.347322459e-19
1.161247112e-19
5.457951253e-20
2.443136298e-20
1.046481276e-20
4.309136195e-21
1.713642958e-21
6.620697046e-22
2.502206428e-22
9.267145977e-23
3.353162086e-23
1.181015999e-23
4.054875042e-24
1.361193223e-24
4.443930727e-25
1.378995593e-25
3.858663899e-26
8.58317441e-27
1.0022125e-27
4.43773887e-29
2.014159187e-08
5.728882049e-09
1.709044534e-09
4.741832882e-10
1.059472036e-10
1.964760387e-11
3.133395433e-12
4.094435219e-13
3.662987613e-14
2.89117844e-15
3.978599957e-16
1.291647126e-16
8.24400826e-17
7.335749946e-17
7.399663363e-17
7.798432038e-17
8.309033703e-17
8.8075028e-17
9.314132333e-17
9.703350033e-17
9.930226965e-17
9.964590105e-17
9.793921483e-17
9.421255478e-17
8.862320097e-17
8.143312495e-17
7.298601208e-17
6.368742825e-17
5.39840391e-17
4.435786897e-17
3.527020798e-17
2.708652103e-17
2.006312683e-17
1.433214999e-17
9.876448922e-18
6.56417942e-18