/*--------------------------------*- C++ -*----------------------------------*\
  =========                 |
  \\      /  F ield         | OpenFOAM: The Open Source CFD Toolbox
   \\    /   O peration     | Website:  https://openfoam.org
    \\  /    A nd           | Version:  10
     \\/     M anipulation  |
\*---------------------------------------------------------------------------*/
FoamFile
{
    format      ascii;
    class       volScalarField;
    location    "3000";
    object      NH2;
}
// * * * * * * * * * * * * * * * * * * * * * * * * * * * * * * * * * * * * * //

dimensions      [0 0 0 0 0 0 0];

internalField   nonuniform List<scalar> 
5170
(
8.079650995e-66
6.508673411e-66
4.024924079e-66
1.98604003e-66
1.58833829e-66
2.777138829e-63
2.212466324e-63
1.344502099e-63
7.771571755e-64
1.385821241e-63
9.651897829e-61
7.629862544e-61
4.614037249e-61
3.631110473e-61
1.104231366e-60
3.417363684e-58
2.698380836e-58
1.683762304e-58
1.889724916e-58
8.054599207e-58
1.230317805e-55
9.800964012e-56
6.559861311e-56
1.039853533e-55
5.463371453e-55
4.516850499e-53
3.676986244e-53
2.703511179e-53
5.873120786e-53
3.485741129e-52
1.687336797e-50
1.416146677e-50
1.191525571e-50
3.359961696e-50
2.136485231e-49
6.399625173e-48
5.599781901e-48
5.625682693e-48
1.93628548e-47
1.272630533e-46
2.470210076e-45
2.29842679e-45
2.776459339e-45
1.120472567e-44
7.407274584e-44
9.721927521e-43
9.784908656e-43
1.41574565e-42
6.521992386e-42
4.23222416e-41
3.896266624e-40
4.308700935e-40
7.418177933e-40
3.815117597e-39
2.38508189e-38
1.585815121e-37
1.959767926e-37
4.005745989e-37
2.245521601e-36
1.333179098e-35
6.545301012e-35
9.176804217e-35
2.245069172e-34
1.34461074e-33
7.438622038e-33
2.726805251e-32
4.402644154e-32
1.300413086e-31
8.249426768e-31
4.173088977e-30
1.145661459e-29
2.155057634e-29
7.718169904e-29
5.192474277e-28
2.367976444e-27
4.793586697e-27
1.063379475e-26
4.616944828e-26
3.25319365e-25
1.362621306e-24
1.991862927e-24
5.284824056e-24
2.713248186e-23
2.002619335e-22
7.940138145e-22
8.037633868e-22
2.591216776e-21
1.558818875e-20
1.179317356e-19
4.638170612e-19
3.008280779e-19
1.220191666e-18
8.43539287e-18
6.435672396e-17
2.68906918e-16
9.678156751e-17
5.546666547e-16
4.403572089e-15
3.160577184e-14
1.543459928e-13
3.918133487e-12
2.65904557e-12
2.269244361e-12
2.926828323e-12
3.990625119e-12
4.189971347e-12
3.52975175e-12
3.226901487e-12
3.755063287e-12
4.177122461e-12
3.749633067e-12
3.494268529e-12
3.303176496e-12
3.586872479e-12
3.632342312e-12
3.25193183e-12
3.249278701e-12
3.165184689e-12
3.28186062e-12
3.084390808e-12
2.821195068e-12
2.964831836e-12
2.945665917e-12
2.952526683e-12
2.629682188e-12
2.470828e-12
2.683814531e-12
2.703016579e-12
2.631121762e-12
2.262417803e-12
2.188847389e-12
2.424098146e-12
2.459437929e-12
2.330292052e-12
1.966575728e-12
1.959279555e-12
2.18969557e-12
2.226202445e-12
2.057438417e-12
1.728883651e-12
1.770731315e-12
1.981120172e-12
2.009563283e-12
1.823036009e-12
1.542845833e-12
1.614652962e-12
1.798409063e-12
1.815345093e-12
1.631217944e-12
1.399984579e-12
1.484990214e-12
1.640883804e-12
1.647025618e-12
1.477996805e-12
1.289988197e-12
1.376736327e-12
1.506840717e-12
1.504818451e-12
1.356323759e-12
1.20356618e-12
1.285773159e-12
1.393734569e-12
1.386262796e-12
1.25880659e-12
1.133548776e-12
1.208471162e-12
1.298239429e-12
1.287625753e-12
1.179129401e-12
1.074780675e-12
1.1419372e-12
1.217284228e-12
1.20503471e-12
1.112397338e-12
1.023670401e-12
1.08361051e-12
1.147777943e-12
1.135010045e-12
1.054949246e-12
9.775316636e-13
1.031879857e-12
1.08711768e-12
1.074033752e-12
1.003733886e-12
9.343772585e-13
1.008129565e-12
1.038867848e-12
1.020333914e-12
9.565628697e-13
8.930030075e-13
3.001579792e-12
1.54475477e-12
1.092345445e-12
9.396427593e-13
8.606468243e-13
2.149760582e-10
5.489493912e-11
9.528921119e-12
2.427968137e-12
1.210658455e-12
3.721177823e-15
2.929407843e-14
4.520329815e-13
6.702197482e-12
8.752717062e-11
1.953711613e-14
1.339672695e-13
1.644875353e-12
1.729511389e-11
1.285617794e-10
6.28269179e-14
3.833811528e-13
3.918379267e-12
3.212608703e-11
1.695243806e-10
2.089448568e-13
1.26400825e-12
1.262580881e-11
1.034401404e-10
5.95161592e-10
6.76507947e-13
3.946972811e-12
3.524295398e-11
2.392145912e-10
1.059384273e-09
1.970112807e-12
1.049775092e-11
7.836876801e-11
4.129891046e-10
1.357904928e-09
5.237897216e-12
2.510436269e-11
1.516003529e-10
6.008376503e-10
1.505861594e-09
1.266401572e-11
5.4501118e-11
2.615478491e-10
8.121637658e-10
1.747484087e-09
2.798066639e-11
1.064729806e-10
4.064396825e-10
1.040635066e-09
2.024948372e-09
5.674761327e-11
1.868305254e-10
5.748341108e-10
1.255079468e-09
2.213105288e-09
1.08569131e-10
2.960016888e-10
7.451329336e-10
1.425479951e-09
2.28701473e-09
1.884692353e-10
4.248139702e-10
9.074868648e-10
1.569808565e-09
2.360424668e-09
3.00963615e-10
5.714249208e-10
1.069298861e-09
1.716550084e-09
2.481931469e-09
4.531347174e-10
7.389962622e-10
1.23664606e-09
1.863598111e-09
2.59673846e-09
6.528631344e-10
9.306135973e-10
1.406624789e-09
1.991127006e-09
2.654797321e-09
8.977126679e-10
1.145000746e-09
1.572946596e-09
2.089191627e-09
2.659172403e-09
1.172788095e-09
1.375681399e-09
1.736770138e-09
2.175725542e-09
2.668166946e-09
1.451388723e-09
1.609720343e-09
1.904747062e-09
2.282283805e-09
2.742405975e-09
1.709169898e-09
1.830784972e-09
2.070869647e-09
2.40367909e-09
2.852773589e-09
1.914720948e-09
2.008193693e-09
2.2035268e-09
2.497093195e-09
2.928593989e-09
2.032263093e-09
2.10374145e-09
2.261499035e-09
2.517577168e-09
2.922675489e-09
2.035441191e-09
2.091603287e-09
2.222680843e-09
2.451623605e-09
2.837240725e-09
1.934338678e-09
1.984313473e-09
2.106337188e-09
2.331572864e-09
2.726551337e-09
1.778117079e-09
1.832684016e-09
1.968318272e-09
2.222480633e-09
2.67185822e-09
1.635856393e-09
1.70540805e-09
1.87690192e-09
2.195216907e-09
2.748648448e-09
1.577882897e-09
1.67187839e-09
1.900867642e-09
2.317883811e-09
3.030913915e-09
1.665097466e-09
1.793159711e-09
2.103175904e-09
2.663461015e-09
3.607917927e-09
1.970830064e-09
2.148327154e-09
2.576148805e-09
3.342203232e-09
4.614408262e-09
2.615827822e-09
2.863728832e-09
3.456411072e-09
4.515572341e-09
6.270899475e-09
3.869472541e-09
4.23483124e-09
5.116051631e-09
6.659317665e-09
9.158089341e-09
6.296039797e-09
6.863735569e-09
8.204563896e-09
1.052150486e-08
1.420863523e-08
1.106262913e-08
1.196984929e-08
1.409872218e-08
1.770887667e-08
2.330703599e-08
2.092103646e-08
2.241182611e-08
2.586242656e-08
3.158950989e-08
4.023389833e-08
4.220175018e-08
4.462215755e-08
5.011849425e-08
5.903025835e-08
7.196479833e-08
8.641052864e-08
8.993680599e-08
9.780511781e-08
1.100550765e-07
1.268754351e-07
1.597866959e-07
1.637103732e-07
1.722658788e-07
1.850295182e-07
2.016085997e-07
2.414689052e-07
2.445229702e-07
2.510453773e-07
2.604082711e-07
2.718612683e-07
3.01127025e-07
3.026671155e-07
3.058240599e-07
3.099738415e-07
3.142486281e-07
3.25060179e-07
3.24970322e-07
3.245052249e-07
3.230345985e-07
3.195171038e-07
3.092950534e-07
3.071989637e-07
3.022002043e-07
2.935035555e-07
2.797172188e-07
2.303788219e-07
2.256320736e-07
2.152020757e-07
1.996223795e-07
1.798774353e-07
1.172921035e-07
1.145336867e-07
1.087057447e-07
1.004657691e-07
9.051713808e-08
5.296411119e-08
5.182795009e-08
4.942952833e-08
4.60403049e-08
4.193968893e-08
2.313850429e-08
2.270970971e-08
2.18003249e-08
2.050424814e-08
1.891638063e-08
1.011863373e-08
9.957911706e-09
9.615346533e-09
9.121381506e-09
8.50767964e-09
4.478646786e-09
4.416848225e-09
4.284537889e-09
4.092688255e-09
3.851962626e-09
2.015835583e-09
1.99148614e-09
1.939194868e-09
1.862953142e-09
1.766553926e-09
9.276464e-10
9.178071189e-10
8.96625973e-10
8.656057223e-10
8.261365477e-10
4.394396672e-10
4.353368323e-10
4.264847334e-10
4.134776453e-10
3.968786035e-10
2.159482603e-10
2.141813951e-10
2.103618423e-10
2.047208206e-10
1.974626915e-10
1.087833613e-10
1.079994525e-10
1.062322249e-10
1.037324684e-10
1.002983203e-10
5.680258086e-11
5.65242437e-11
5.592694306e-11
5.506168096e-11
5.39751834e-11
3.200178009e-11
3.185707326e-11
3.154188244e-11
3.107009377e-11
3.044953035e-11
1.947497509e-11
1.940808566e-11
1.926301246e-11
1.904760969e-11
1.876827237e-11
1.29466865e-11
1.291879911e-11
1.285865148e-11
1.277020278e-11
1.26570588e-11
9.442526576e-12
9.436890461e-12
9.425024287e-12
9.408285816e-12
9.388161733e-12
7.687592487e-12
7.692759242e-12
7.704257884e-12
7.722019493e-12
7.746275873e-12
6.888750626e-12
6.897891805e-12
6.917930226e-12
6.948154542e-12
6.988171385e-12
6.583229673e-12
6.592680539e-12
6.613316804e-12
6.644240871e-12
6.684822182e-12
6.51147905e-12
6.519500612e-12
6.536974512e-12
6.56305346e-12
6.597082203e-12
6.531497837e-12
6.537446076e-12
6.5503723e-12
6.569582771e-12
6.594498073e-12
6.567598816e-12
6.571405585e-12
6.579646386e-12
6.591810433e-12
6.6074306e-12
6.581355997e-12
6.583235935e-12
6.587265908e-12
6.593110251e-12
6.60041767e-12
6.555705724e-12
6.555985074e-12
6.556519483e-12
6.557123696e-12
6.557549599e-12
6.485460348e-12
6.484485161e-12
6.482281106e-12
6.478783736e-12
6.473830032e-12
6.371404717e-12
6.369492836e-12
6.365245124e-12
6.358689633e-12
6.349730262e-12
6.217914153e-12
6.215342678e-12
6.209657094e-12
6.200953122e-12
6.189185479e-12
6.029429479e-12
6.026424478e-12
6.019795118e-12
6.009684653e-12
5.996085746e-12
5.816344973e-12
5.813098851e-12
5.805946747e-12
5.795062455e-12
5.780465591e-12
5.606331907e-12
5.602982002e-12
5.595606226e-12
5.584395575e-12
5.569387457e-12
3.342146001e-10
3.119087038e-10
3.663395216e-10
1.776595016e-09
2.434566533e-09
2.447049587e-09
2.293632908e-09
2.618462055e-09
2.940586405e-09
3.018500753e-09
2.931925215e-09
2.953397618e-09
3.087362429e-09
3.176040456e-09
3.159902082e-09
3.082087116e-09
3.052933927e-09
3.149944697e-09
3.291468075e-09
3.377309083e-09
3.363923117e-09
3.273202252e-09
3.181819736e-09
3.186521133e-09
3.375714858e-09
3.825879865e-09
4.640035429e-09
5.981691074e-09
8.145446343e-09
1.175079489e-08
1.794437124e-08
2.881694693e-08
4.84371307e-08
8.36141908e-08
1.409962911e-07
2.145696908e-07
2.800649678e-07
3.163210093e-07
3.148069633e-07
2.66147138e-07
1.652393047e-07
8.334386942e-08
3.896199301e-08
1.774418464e-08
8.047317489e-09
3.668980426e-09
1.692552857e-09
7.955939611e-10
3.839517236e-10
1.917596853e-10
9.815743309e-11
5.294344853e-11
2.994597534e-11
1.854703795e-11
1.256901138e-11
9.373823659e-12
7.766727818e-12
7.02069727e-12
6.717443537e-12
6.624236648e-12
6.614221534e-12
6.619629686e-12
6.605911732e-12
6.557504546e-12
6.46946181e-12
6.34214869e-12
6.179357362e-12
5.984800411e-12
5.768396164e-12
5.557005685e-12
8.294167046e-10
4.936057575e-09
4.466650082e-10
4.711844172e-11
5.697417176e-12
6.164403265e-10
1.346451166e-09
9.272934156e-10
1.330818686e-10
1.506708213e-11
7.588411546e-10
2.562025331e-09
3.292254562e-08
2.534050189e-09
1.557687596e-10
4.787522898e-09
2.512040554e-08
3.020891999e-07
2.454552137e-08
2.150698084e-09
5.230625052e-09
1.553709591e-08
9.900216441e-08
1.129218006e-08
1.434349292e-09
4.316635114e-09
8.284883132e-09
2.934620854e-08
8.153074697e-09
1.233145191e-09
3.534051336e-09
5.627434466e-09
1.557127806e-08
3.530529011e-08
4.683084934e-09
4.184210594e-09
9.805473823e-09
4.360590238e-08
2.881634576e-07
3.858856889e-08
4.555917507e-09
9.802677376e-09
3.423575965e-08
1.64687772e-07
2.960125735e-08
4.352873557e-09
7.842236543e-09
2.072890092e-08
7.206942763e-08
2.08272672e-08
3.946781353e-09
6.226292331e-09
1.372825987e-08
4.021992042e-08
3.837980014e-08
3.911958275e-09
6.510031869e-09
1.601151524e-08
5.726386069e-08
2.01151001e-07
4.094533384e-09
7.09636125e-09
1.752794462e-08
5.977735809e-08
2.08808827e-07
4.128820636e-09
6.798528381e-09
1.488838114e-08
4.236314781e-08
1.198987681e-07
3.97257026e-09
6.074755564e-09
1.182816944e-08
2.906284791e-08
7.163575146e-08
3.756679567e-09
5.473081906e-09
9.984497643e-09
2.278715018e-08
5.417993653e-08
3.684855213e-09
5.493747415e-09
1.052257629e-08
2.580938083e-08
7.076525928e-08
3.850749433e-09
6.138238587e-09
1.266644431e-08
3.266352552e-08
9.251135775e-08
4.061253977e-09
6.694296341e-09
1.38562761e-08
3.420805268e-08
8.961803183e-08
4.169788626e-09
6.892416108e-09
1.390400467e-08
3.23440728e-08
7.822519423e-08
4.14695877e-09
6.83158791e-09
1.342625998e-08
2.967717438e-08
6.725812155e-08
4.047826403e-09
6.699543621e-09
1.293517442e-08
2.751633453e-08
5.947049195e-08
3.987701394e-09
6.708695768e-09
1.289091619e-08
2.6820853e-08
5.632780284e-08
4.095542856e-09
7.106461421e-09
1.379557706e-08
2.854463804e-08
5.931811424e-08
4.4754303e-09
8.046916721e-09
1.583395374e-08
3.266923123e-08
6.725690066e-08
5.209724517e-09
9.611422856e-09
1.895502716e-08
3.856125321e-08
7.754352633e-08
6.421781098e-09
1.195079479e-08
2.331448731e-08
4.622269757e-08
8.962354398e-08
8.322720849e-09
1.539619764e-08
2.938948307e-08
5.629146584e-08
1.042576317e-07
1.131382691e-08
2.055126249e-08
3.803521276e-08
6.984117992e-08
1.223885133e-07
1.609224489e-08
2.843763465e-08
5.062791282e-08
8.839420788e-08
1.450354684e-07
2.414482348e-08
4.091182915e-08
6.943216381e-08
1.14176596e-07
1.735954625e-07
3.784812436e-08
6.104723042e-08
9.770949378e-08
1.495945549e-07
2.088214967e-07
6.166549461e-08
9.330916652e-08
1.385897818e-07
1.946765787e-07
2.474089975e-07
1.019760474e-07
1.416518769e-07
1.912690731e-07
2.42713136e-07
2.778171923e-07
1.62610829e-07
2.036055249e-07
2.467188751e-07
2.804106106e-07
2.847049511e-07
2.338075419e-07
2.654098113e-07
2.91448567e-07
2.994791615e-07
2.693614081e-07
2.917303209e-07
3.062531716e-07
3.088082756e-07
2.856549537e-07
2.193327947e-07
3.185063436e-07
3.13138041e-07
2.890219836e-07
2.330230691e-07
1.601928768e-07
3.064217347e-07
2.778489474e-07
2.251775695e-07
1.612632794e-07
1.085735715e-07
2.44333848e-07
1.952777478e-07
1.443510827e-07
1.01378156e-07
6.889021513e-08
1.441147328e-07
1.113976797e-07
8.230108488e-08
5.877788539e-08
4.098945562e-08
7.303611422e-08
5.735818319e-08
4.345556614e-08
3.200067493e-08
2.304863504e-08
3.466701688e-08
2.798988256e-08
2.188144483e-08
1.665247217e-08
1.2394896e-08
1.604267216e-08
1.331031724e-08
1.071727958e-08
8.409424719e-09
6.454724342e-09
7.375160899e-09
6.263918889e-09
5.174674078e-09
4.17167881e-09
3.29266082e-09
3.400517601e-09
2.945702541e-09
2.487859679e-09
2.054242889e-09
1.663045168e-09
1.583599999e-09
1.395327422e-09
1.201643033e-09
1.013831823e-09
8.400776569e-10
7.504938777e-10
6.712987327e-10
5.883058222e-10
5.061569554e-10
4.285820395e-10
3.648156142e-10
3.307095974e-10
2.943334937e-10
2.575924795e-10
2.219621511e-10
1.832894523e-10
1.679421562e-10
1.512985574e-10
1.34480035e-10
1.181100736e-10
9.480284284e-11
8.803628935e-11
8.072588761e-11
7.30661041e-11
6.545924496e-11
5.134797846e-11
4.815786149e-11
4.444942563e-11
4.078574431e-11
3.722904429e-11
2.91911579e-11
2.777556743e-11
2.621088735e-11
2.460439344e-11
2.30319364e-11
1.821782945e-11
1.761586513e-11
1.695932447e-11
1.628157725e-11
1.560725581e-11
1.243889524e-11
1.220858933e-11
1.196743222e-11
1.173154285e-11
1.151461093e-11
9.353443799e-12
9.324495795e-12
9.304331678e-12
9.297870253e-12
9.308039614e-12
7.797914404e-12
7.861572695e-12
7.940253656e-12
8.032820314e-12
8.136719705e-12
7.069607898e-12
7.163555584e-12
7.272372467e-12
7.392268493e-12
7.518527706e-12
6.766282758e-12
6.858202506e-12
6.962133743e-12
7.073553903e-12
7.187362781e-12
6.664769913e-12
6.73997374e-12
6.823469138e-12
6.910974803e-12
6.997848032e-12
6.643564243e-12
6.697114018e-12
6.755234579e-12
6.814281946e-12
6.87039926e-12
6.637673549e-12
6.669649411e-12
6.702875197e-12
6.734469109e-12
6.761430422e-12
6.613901526e-12
6.626808656e-12
6.638203932e-12
6.645934251e-12
6.647788449e-12
6.557195465e-12
6.554426864e-12
6.547964583e-12
6.536285305e-12
6.517849004e-12
6.462679901e-12
6.447725242e-12
6.427438939e-12
6.400810884e-12
6.366843453e-12
6.33055933e-12
6.306586838e-12
6.276120746e-12
6.238554239e-12
6.193314376e-12
6.16441039e-12
6.134178727e-12
6.09670422e-12
6.051687901e-12
5.998880091e-12
5.967681295e-12
5.933442994e-12
5.891552093e-12
5.841941894e-12
5.784606188e-12
5.750112706e-12
5.713792953e-12
5.669701849e-12
5.617939164e-12
5.558671825e-12
5.538265621e-12
5.501194478e-12
5.456413894e-12
5.404136485e-12
5.344646095e-12
2.929822085e-13
1.730413882e-14
2.387081416e-15
6.004552719e-16
3.195683375e-16
2.569159573e-16
2.207087285e-16
1.826421999e-16
1.435474083e-16
1.082638989e-16
7.904001968e-17
5.621412699e-17
3.907687969e-17
2.658884169e-17
1.771990485e-17
1.15677374e-17
7.398213994e-18
4.635630935e-18
2.845999117e-18
1.712019232e-18
1.009099209e-18
5.827625714e-19
3.297081226e-19
1.827102146e-19
9.915914763e-20
5.270345427e-20
2.743681272e-20
1.399382209e-20
6.995786564e-21
3.429903265e-21
1.650435809e-21
7.802681624e-22
3.629886342e-22
1.665708634e-22
7.568677416e-23
3.424804217e-23
1.554957999e-23
7.141145293e-24
3.337308295e-24
1.589596103e-24
7.693320787e-25
3.764110438e-25
1.855167354e-25
9.213584841e-26
4.631099815e-26
2.370451393e-26
1.241482856e-26
6.657982993e-27
3.642685566e-27
2.019585636e-27
1.126023313e-27
6.269025949e-28
3.463542727e-28
1.887089062e-28
1.004948632e-28
5.138017193e-29
2.410799451e-29
9.317004383e-30
2.110666562e-30
1.68405751e-31
1.199962272e-12
6.5237722e-14
9.011652535e-15
4.411573241e-15
4.247512518e-15
4.084005253e-15
3.492882429e-15
2.764104388e-15
2.038395582e-15
1.43672515e-15
9.7287287e-16
6.400373128e-16
4.110817553e-16
2.591121678e-16
1.607882766e-16
9.842970507e-17
5.951564413e-17
3.555471801e-17
2.098429921e-17
1.222746408e-17
7.028255703e-18
3.981464149e-18
2.221100198e-18
1.219092114e-18
6.57865325e-19
3.488664794e-19
1.817563269e-19
9.301968375e-20
4.676429424e-20
2.309656017e-20
1.121057124e-20
5.35190853e-21
2.516553347e-21
1.16839207e-21
5.378138345e-22
2.469371382e-22
1.139621326e-22
5.324360903e-23
2.527900297e-23
1.217955979e-23
5.922183673e-24
2.888368922e-24
1.408795528e-24
6.887001531e-25
3.398549719e-25
1.708922335e-25
8.822790713e-26
4.687625784e-26
2.553558552e-26
1.415104059e-26
7.906274887e-27
4.417190937e-27
2.450645298e-27
1.340894291e-27
7.166597235e-28
3.671835663e-28
1.723716621e-28
6.678115244e-29
1.607942075e-29
1.572938218e-30
8.652058406e-12
4.069728575e-13
4.500478428e-14
2.713121455e-14
2.698093382e-14
2.542969174e-14
2.163248267e-14
1.725868795e-14
1.291519893e-14
9.251282189e-15
6.33137341e-15
4.181177771e-15
2.666299253e-15
1.650915468e-15
9.954169938e-16
5.871116007e-16
3.401791623e-16
1.943990811e-16
1.099451409e-16
6.165700803e-17
3.430785344e-17
1.893183315e-17
1.035175876e-17
5.601958095e-18
2.996825459e-18
1.58338113e-18
8.256408047e-19
4.246073247e-19
2.152568968e-19
1.075295291e-19
5.291993895e-20
2.56683954e-20
1.228455697e-20
5.814771454e-21
2.733913099e-21
1.285005187e-21
6.082420601e-22
2.914925784e-22
1.41482331e-22
6.917372215e-23
3.377864895e-23
1.635437025e-23
7.831587055e-24
3.724773049e-24
1.778174256e-24
8.643260094e-25
4.333129912e-25
2.254166186e-25
1.213440539e-25
6.696873445e-26
3.746273997e-26
2.102260911e-26
1.173249019e-26
6.459353428e-27
3.470028726e-27
1.78187828e-27
8.350389634e-28
3.20472153e-28
7.711975803e-29
7.766687051e-30
1.72426212e-10
1.111449472e-11
6.906841348e-13
1.408954776e-13
1.071719937e-13
9.567328284e-14
8.171424067e-14
6.629779642e-14
5.121851562e-14
3.796817845e-14
2.70279634e-14
1.855517148e-14
1.228516997e-14
7.866704365e-15
4.873564915e-15
2.929151191e-15
1.711043375e-15
9.751900025e-16
5.442716886e-16
2.988391258e-16
1.62052778e-16
8.705931874e-17
4.642006203e-17
2.458814539e-17
1.294025437e-17
6.762980905e-18
3.507210052e-18
1.803000299e-18
9.1796411e-19
4.625116077e-19
2.305111777e-19
1.13641822e-19
5.546345434e-20
2.685451429e-20
1.295344697e-20
6.26276103e-21
3.053606595e-21
1.505300038e-21
7.474976811e-22
3.705227345e-22
1.813587357e-22
8.693913295e-23
4.071946425e-23
1.872408445e-23
8.560971979e-24
3.966150701e-24
1.89910177e-24
9.521275144e-25
5.002404143e-25
2.727521597e-25
1.52146712e-25
8.56461858e-26
4.810108355e-26
2.667754191e-26
1.442168744e-26
7.42559579e-27
3.471623272e-27
1.317177812e-27
3.12051323e-28
3.131218096e-29
2.098821223e-10
2.19396818e-11
2.060365324e-12
4.177381297e-13
2.849986961e-13
2.469002362e-13
2.123660193e-13
1.766740219e-13
1.419602198e-13
1.103263184e-13
8.295413527e-14
6.041433352e-14
4.259399829e-14
2.909232305e-14
1.922901701e-14
1.230872164e-14
7.62454888e-15
4.576998094e-15
2.663724035e-15
1.507202158e-15
8.309964389e-16
4.483585562e-16
2.375932057e-16
1.241869167e-16
6.424585516e-17
3.298978922e-17
1.684138495e-17
8.552787738e-18
4.320119917e-18
2.169199909e-18
1.08212e-18
5.361972244e-19
2.640717672e-19
1.29544547e-19
6.357690964e-20
3.139603406e-20
1.56685165e-20
7.894657503e-21
3.985599803e-21
1.992003908e-21
9.736743903e-22
4.614519766e-22
2.114411539e-22
9.405691102e-23
4.111920594e-23
1.803227372e-23
8.135815797e-24
3.860091976e-24
1.9435758e-24
1.031756838e-24
5.681976738e-25
3.189052907e-25
1.79650345e-25
1.002221759e-25
5.449860145e-26
2.814723436e-26
1.313611831e-26
4.941709098e-27
1.154688764e-27
1.169339295e-28
2.098078398e-10
3.253045e-11
4.598852838e-12
9.433634882e-13
5.830752413e-13
4.906268933e-13
4.240950482e-13
3.612731735e-13
3.011292878e-13
2.451249263e-13
1.946757917e-13
1.507399028e-13
1.136949399e-13
8.347749002e-14
5.957880017e-14
4.12966293e-14
2.775725659e-14
1.807807299e-14
1.139113818e-14
6.945304865e-15
4.095744795e-15
2.340167667e-15
1.296728991e-15
6.988904878e-16
3.673602993e-16
1.891599171e-16
9.580502624e-17
4.793374788e-17
2.377371165e-17
1.172049885e-17
5.753939166e-18
2.816108131e-18
1.375789628e-18
6.726896403e-19
3.307663925e-19
1.644796354e-19
8.293069399e-20
4.221441068e-20
2.145975685e-20
1.073960938e-20
5.219948347e-21
2.441836677e-21
1.095802812e-21
4.73219643e-22
1.988012339e-22
8.285091796e-23
3.518108373e-23
1.565355098e-23
7.439155867e-24
3.78318169e-24
2.030057817e-24
1.125734454e-24
6.323854161e-25
3.536095926e-25
1.931189989e-25
1.001272231e-25
4.679249604e-26
1.758861794e-26
4.096941946e-27
4.24297409e-28
5.835719432e-10
7.664938873e-11
1.249238936e-11
2.384081003e-12
1.044789365e-12
8.198122436e-13
7.024482702e-13
6.062617014e-13
5.180095081e-13
4.358929099e-13
3.604504462e-13
2.925898701e-13
2.32944911e-13
1.817467902e-13
1.388226926e-13
1.036706135e-13
7.555048724e-14
5.361841353e-14
3.696714025e-14
2.471492531e-14
1.59915931e-14
1.000415895e-14
6.042967878e-15
3.523959184e-15
1.983774038e-15
1.080047857e-15
5.696885921e-16
2.920168315e-16
1.459908985e-16
7.153839355e-17
3.454560749e-17
1.653065901e-17
7.880979812e-18
3.764328211e-18
1.813872564e-18
8.886858927e-19
4.441239949e-19
2.249057817e-19
1.138459578e-19
5.665907399e-20
2.730041067e-20
1.260900401e-20
5.557219731e-21
2.340232192e-21
9.503182508e-22
3.790168644e-22
1.523550487e-22
6.357410947e-23
2.826407418e-23
1.355965281e-23
6.977742802e-24
3.776089323e-24
2.098301365e-24
1.170561971e-24
6.408215367e-25
3.33952161e-25
1.571258528e-25
5.969085758e-26
1.413099e-26
1.522145987e-27
4.160389153e-09
5.274408505e-10
8.109084395e-11
1.28809703e-11
2.766850443e-12
1.370344766e-12
1.052095348e-12
8.938775278e-13
7.714606981e-13
6.62458186e-13
5.623072185e-13
4.706254309e-13
3.87961648e-13
3.148110266e-13
2.513259965e-13
1.972814311e-13
1.521318483e-13
1.151265532e-13
8.535665007e-14
6.186460723e-14
4.371334795e-14
3.002157524e-14
1.997364284e-14
1.28383056e-14
7.956385388e-15
4.749070972e-15
2.727773492e-15
1.507564687e-15
8.022361662e-16
4.120226629e-16
2.048968668e-16
9.915395949e-17
4.701961544e-17
2.204981882e-17
1.03318535e-17
4.895828971e-18
2.370007356e-18
1.169265522e-18
5.798909632e-19
2.841820099e-19
1.35353188e-19
6.184587527e-20
2.691461421e-20
1.113752998e-20
4.409198535e-21
1.697712775e-21
6.51466587e-22
2.562179585e-22
1.062188772e-22
4.742203019e-23
2.294635597e-23
1.189460176e-23
6.451177966e-24
3.562758983e-24
1.948444171e-24
1.020428676e-24
4.850173566e-25
1.874853017e-25
4.564704745e-26
5.210498496e-27
4.137779537e-09
7.103678255e-10
1.547833658e-10
3.216189742e-11
6.519963422e-12
2.248493507e-12
1.47652362e-12
1.214971018e-12
1.05253673e-12
9.173668015e-13
7.942167747e-13
6.800593977e-13
5.749827122e-13
4.797077745e-13
3.947972573e-13
3.204286565e-13
2.563828904e-13
2.021220605e-13
1.568798414e-13
1.197448959e-13
8.974505285e-14
6.591481505e-14
4.733698201e-14
3.313845122e-14
2.253299444e-14
1.482889487e-14
9.407125751e-15
5.734470971e-15
3.352673555e-15
1.878832302e-15
1.009198567e-15
5.202414872e-16
2.582780249e-16
1.243020571e-16
5.852208142e-17
2.724625367e-17
1.271234986e-17
6.004941493e-18
2.858582168e-18
1.353549426e-18
6.29265375e-19
2.839092408e-19
1.228168032e-19
5.05001902e-20
1.9712743e-20
7.41101518e-21
2.747179537e-21
1.02956648e-21
4.005337664e-22
1.659198244e-22
7.448809343e-23
3.629709084e-23
1.888647945e-23
1.020462055e-23
5.542039775e-24
2.912521578e-24
1.401581972e-24
5.54701772e-25
1.407464964e-25
1.741404028e-26
3.551759376e-09
7.23893893e-10
1.888895245e-10
5.175940307e-11
1.244347585e-11
3.47947276e-12
1.947449688e-12
1.558317553e-12
1.357399351e-12
1.199960703e-12
1.056799757e-12
9.220263489e-13
7.953975624e-13
6.779953342e-13
5.709241841e-13
4.749013782e-13
3.901728294e-13
3.165563814e-13
2.535283844e-13
2.003249704e-13
1.560034563e-13
1.196301218e-13
9.018559303e-14
6.670455324e-14
4.828720391e-14
3.411524651e-14
2.345309463e-14
1.563265156e-14
1.006132004e-14
6.226534626e-15
3.690431859e-15
2.089268053e-15
1.12947589e-15
5.84417391e-16
2.90776824e-16
1.399984361e-16
6.56686239e-17
3.02930427e-17
1.384779586e-17
6.277510636e-18
2.801525241e-18
1.223450259e-18
5.207783527e-19
2.143438986e-19
8.413490143e-20
3.143723394e-20
1.141034311e-20
4.127324571e-21
1.524270949e-21
5.892072761e-22
2.442349436e-22
1.102145418e-22
5.39809673e-23
2.807023651e-23
1.497854705e-23
7.863741648e-24
3.832642134e-24
1.561284659e-24
4.186628875e-25
5.725259716e-26
6.75206249e-09
1.250650336e-09
2.868218535e-10
7.934835608e-11
2.213344084e-11
6.102558832e-12
2.644796751e-12
1.956771252e-12
1.695476026e-12
1.513773007e-12
1.351783111e-12
1.197682749e-12
1.050272018e-12
9.108492479e-13
7.810659745e-13
6.622554351e-13
5.552389543e-13
4.602489732e-13
3.772854783e-13
3.057644595e-13
2.448327753e-13
1.935281649e-13
1.508371271e-13
1.157516644e-13
8.73029028e-14
6.45813575e-14
4.674637603e-14
3.302433989e-14
2.270285223e-14
1.513762196e-14
9.75601927e-15
6.053887097e-15
3.602012381e-15
2.048339094e-15
1.112177857e-15
5.774396059e-16
2.87347251e-16
1.372625719e-16
6.312780961e-17
2.811509462e-17
1.220263562e-17
5.164307836e-18
2.129694511e-18
8.572743868e-19
3.365884351e-19
1.276795626e-19
4.654724552e-20
1.652198843e-20
5.86052692e-21
2.13540339e-21
8.209635125e-22
3.408589689e-22
1.545821026e-22
7.587777591e-23
3.916010862e-23
2.034382942e-23
1.001421176e-23
4.212156854e-24
1.208561763e-24
1.856437964e-25
3.430888657e-08
5.488565463e-09
9.782714972e-10
2.106698689e-10
5.665049157e-11
1.57200714e-11
4.839530997e-12
2.596258577e-12
2.086708509e-12
1.848240873e-12
1.662554719e-12
1.490116836e-12
1.324039496e-12
1.164493473e-12
1.013113329e-12
8.722723325e-13
7.434597291e-13
6.272685759e-13
5.238832194e-13
4.33073851e-13
3.541880116e-13
2.863885803e-13
2.287425888e-13
1.802697672e-13
1.399850244e-13
1.069309513e-13
8.019752982e-14
5.892875868e-14
4.232310409e-14
2.963414216e-14
2.017308577e-14
1.331216998e-14
8.488702651e-15
5.213636804e-15
3.075075899e-15
1.73766412e-15
9.387381995e-16
4.836333773e-16
2.370356472e-16
1.102933372e-16
4.883881489e-17
2.071933092e-17
8.471844903e-18
3.353608212e-18
1.292342434e-18
4.8738465e-19
1.795780814e-19
6.437733001e-20
2.255005593e-20
7.881251281e-21
2.837731107e-21
1.086480567e-21
4.523247489e-22
2.059344141e-22
1.008215273e-22
5.106801904e-23
2.520110797e-23
1.094954292e-23
3.395157819e-24
5.92897608e-25
4.178665259e-08
7.475276199e-09
1.480437647e-09
3.580424621e-10
1.03601005e-10
3.346985256e-11
1.068461645e-11
4.022592054e-12
2.575156412e-12
2.16769958e-12
1.937151165e-12
1.744392011e-12
1.561929696e-12
1.38757028e-12
1.218671885e-12
1.063364633e-12
9.192163046e-13
7.871954937e-13
6.677923201e-13
5.610959665e-13
4.668137401e-13
3.843819579e-13
3.130428261e-13
2.519223875e-13
2.000980644e-13
1.566436685e-13
1.206581674e-13
9.127680966e-14
6.767535005e-14
4.90702979e-14
3.471686666e-14
2.390930616e-14
1.598829578e-14
1.035432012e-14
6.477744031e-15
3.904718238e-15
2.261683829e-15
1.254602087e-15
6.637077544e-16
3.334974649e-16
1.585363791e-16
7.118530686e-17
3.024503576e-17
1.220292094e-17
4.721157783e-18
1.768739882e-18
6.46208381e-19
2.319258756e-19
8.192434636e-20
2.850821059e-20
9.914632847e-21
3.551117657e-21
1.356511791e-21
5.659633104e-22
2.580611598e-22
1.252009802e-22
6.123409196e-23
2.743818662e-23
9.262376266e-24
1.851315117e-24
3.19201197e-08
6.689555183e-09
1.540598469e-09
4.355550732e-10
1.430728346e-10
5.136734409e-11
1.915184262e-11
7.205305154e-12
3.38869557e-12
2.426214769e-12
2.078770597e-12
1.85043654e-12
1.656464347e-12
1.479380407e-12
1.308273259e-12
1.152567924e-12
1.006892262e-12
8.724064576e-13
7.495521425e-13
6.384654504e-13
5.390289635e-13
4.508980823e-13
3.735392988e-13
3.062641186e-13
2.482818411e-13
1.98750394e-13
1.568357963e-13
1.217583434e-13
9.280314572e-14
6.929846244e-14
5.058493962e-14
3.601699727e-14
2.496583115e-14
1.68165152e-14
1.098666555e-14
6.948222627e-15
4.243635839e-15
2.495961016e-15
1.40879648e-15
7.597957444e-16
3.89646639e-16
1.889850781e-16
8.635844468e-17
3.712879405e-17
1.506056844e-17
5.805024054e-18
2.145382354e-18
7.68311649e-19
2.698657553e-19
9.376981926e-20
3.243787559e-20
1.129886727e-20
4.063198022e-21
1.560681381e-21
6.559007065e-22
3.001621634e-22
1.435642836e-22
6.592635716e-23
2.429040046e-23
5.578847746e-24
3.066575502e-08
6.986508944e-09
1.729668367e-09
5.077774291e-10
1.744223499e-10
6.671497421e-11
2.727694824e-11
1.166191696e-11
5.187427001e-12
2.793200415e-12
2.036677728e-12
1.713306556e-12
1.501957925e-12
1.335047848e-12
1.187021361e-12
1.05203876e-12
9.275227975e-13
8.126776486e-13
7.071988881e-13
6.109281077e-13
5.237030389e-13
4.452880564e-13
3.753543519e-13
3.134851448e-13
2.591859706e-13
2.119169131e-13
1.711145785e-13
1.362080156e-13
1.06645072e-13
8.193509927e-14
6.164025019e-14
4.530189643e-14
3.244346896e-14
2.260150011e-14
1.529771482e-14
1.004506284e-14