/*--------------------------------*- C++ -*----------------------------------*\
  =========                 |
  \\      /  F ield         | OpenFOAM: The Open Source CFD Toolbox
   \\    /   O peration     | Website:  https://openfoam.org
    \\  /    A nd           | Version:  10
     \\/     M anipulation  |
\*---------------------------------------------------------------------------*/
FoamFile
{
    format      ascii;
    class       volScalarField;
    location    "3000";
    object      NH3;
}
// * * * * * * * * * * * * * * * * * * * * * * * * * * * * * * * * * * * * * //

dimensions      [0 0 0 0 0 0 0];

internalField   nonuniform List<scalar> 
5170
(
2.875266731e-65
2.318464553e-65
1.436374312e-65
7.090609167e-66
5.651007486e-66
9.837375528e-63
7.844601562e-63
4.776233836e-63
2.761227245e-63
4.90834188e-63
3.406889879e-60
2.695287235e-60
1.632655685e-60
1.284870876e-60
3.899569782e-60
1.203993514e-57
9.511444872e-58
5.941399301e-58
6.669189959e-58
2.841070477e-57
4.335424845e-55
3.453871559e-55
2.312076899e-55
3.667011487e-55
1.928627191e-54
1.595521459e-52
1.298277181e-52
9.536958105e-53
2.074055735e-52
1.234134045e-51
5.988054341e-50
5.021003224e-50
4.216504541e-50
1.190981499e-49
7.60218845e-49
2.286172729e-47
1.99781837e-47
2.001793598e-47
6.904475455e-47
4.559192823e-46
8.896107606e-45
8.264830586e-45
9.954244262e-45
4.026464318e-44
2.674841624e-43
3.532367068e-42
3.549678504e-42
5.120823046e-42
2.3640874e-41
1.54067651e-40
1.427984442e-39
1.576682277e-39
2.707265838e-39
1.394362208e-38
8.740537221e-38
5.854282252e-37
7.222118753e-37
1.472420931e-36
8.254755389e-36
4.901977646e-35
2.427036765e-34
3.394367238e-34
8.278585181e-34
4.947370101e-33
2.729670606e-32
1.011375311e-31
1.62640863e-31
4.781271163e-31
3.01689222e-30
1.518101553e-29
4.228104791e-29
7.902844348e-29
2.809409815e-28
1.873586109e-27
8.485447521e-27
1.750703755e-26
3.847869534e-26
1.653716813e-25
1.15255005e-24
4.793105139e-24
7.166007057e-24
1.879429084e-23
9.538150745e-23
6.966886677e-22
2.746868341e-21
2.842336607e-21
9.054327404e-21
5.392195138e-20
4.052827414e-19
1.590870045e-18
1.047173969e-18
4.207327179e-18
2.893300089e-17
2.207995239e-16
9.263968319e-16
3.333410574e-16
1.902634433e-15
1.514112e-14
1.096535779e-13
5.420784082e-13
6.329584506e-12
4.844182656e-12
4.338223132e-12
5.174219445e-12
6.390896257e-12
7.789560627e-12
6.921202413e-12
6.499628325e-12
7.24149008e-12
7.814736837e-12
7.860703086e-12
7.344645605e-12
7.041412542e-12
7.519366643e-12
7.742809143e-12
7.536920043e-12
7.339501092e-12
7.174340898e-12
7.459865578e-12
7.33356504e-12
7.118115329e-12
7.167439494e-12
7.103406859e-12
7.246294402e-12
6.880385637e-12
6.699549963e-12
6.912700227e-12
6.922542345e-12
6.936046448e-12
6.42830249e-12
6.314303684e-12
6.622387698e-12
6.673294872e-12
6.563540056e-12
5.994516932e-12
5.964623289e-12
6.315662473e-12
6.379773851e-12
6.159161993e-12
5.591920627e-12
5.64938215e-12
6.005011108e-12
6.061430405e-12
5.765156844e-12
5.241022529e-12
5.366643814e-12
5.702977018e-12
5.740386488e-12
5.411219885e-12
4.948650409e-12
5.114655429e-12
5.419057752e-12
5.435322849e-12
5.106297618e-12
4.70796782e-12
4.890863248e-12
5.159261233e-12
5.157484175e-12
4.847965196e-12
4.507623929e-12
4.692113617e-12
4.925873213e-12
4.9105342e-12
4.628690563e-12
4.336744216e-12
4.514426663e-12
4.717516295e-12
4.693043314e-12
4.439976292e-12
4.1865305e-12
4.354121257e-12
4.531658403e-12
4.501218659e-12
4.274232428e-12
4.050370758e-12
4.207234491e-12
4.364309036e-12
4.330566607e-12
4.125288479e-12
3.922932022e-12
4.071729633e-12
4.21167107e-12
4.175068586e-12
3.987097698e-12
3.799697162e-12
4.026702206e-12
4.09076724e-12
4.033587363e-12
3.855531298e-12
3.678172557e-12
9.95052447e-12
5.651031855e-12
4.317542858e-12
3.834777984e-12
3.590884061e-12
4.192295826e-10
1.193357754e-10
2.767606188e-11
9.058970618e-12
5.005079302e-12
1.294552556e-14
1.020861201e-13
1.591124964e-12
2.399033459e-11
3.173785718e-10
9.956984288e-14
7.138412582e-13
9.366591247e-12
1.092525036e-10
9.677475449e-10
4.643737151e-13
3.061732356e-12
3.478232306e-11
3.318521856e-10
2.187533856e-09
2.812840688e-12
1.897976591e-11
2.139850119e-10
2.00163747e-09
1.316002713e-08
1.472512261e-11
9.427051176e-11
9.269271855e-10
7.02176825e-09
3.563382101e-08
6.055748953e-11
3.493752732e-10
2.841263295e-09
1.66808694e-08
6.37607938e-08
2.088152622e-10
1.080521153e-09
7.101857267e-09
3.14045732e-08
9.155538027e-08
6.10330861e-10
2.829860771e-09
1.471406157e-08
5.029832623e-08
1.205095222e-07
1.553383791e-09
6.348999995e-09
2.614509316e-08
7.282831341e-08
1.541148359e-07
3.527056252e-09
1.24589734e-08
4.140831427e-08
9.844112417e-08
1.898916983e-07
7.463000088e-09
2.179751611e-08
5.954869567e-08
1.249597987e-07
2.219900571e-07
1.416073474e-08
3.414161934e-08
7.936713996e-08
1.506537776e-07
2.491868772e-07
2.454860998e-08
4.96617019e-08
1.008506897e-07
1.76286865e-07
2.758246669e-07
4.002299999e-08
6.912113763e-08
1.248999089e-07
2.036316505e-07
3.048539297e-07
6.26052204e-08
9.386844234e-08
1.526627273e-07
2.335854493e-07
3.355486663e-07
9.410633045e-08
1.255344502e-07
1.85163932e-07
2.662259972e-07
3.663299757e-07
1.35628582e-07
1.65537422e-07
2.235622527e-07
3.022772569e-07
3.980204072e-07
1.865009073e-07
2.140471041e-07
2.689045412e-07
3.440095646e-07
4.35258146e-07
2.460877879e-07
2.712295648e-07
3.226112955e-07
3.944158204e-07
4.832434403e-07
3.137232174e-07
3.370239942e-07
3.857366763e-07
4.555281628e-07
5.440526434e-07
3.892976232e-07
4.113334303e-07
4.582225998e-07
5.267723137e-07
6.153238749e-07
4.720608239e-07
4.931499479e-07
5.384655081e-07
6.054035452e-07
6.924932808e-07
5.608684544e-07
5.809202142e-07
6.242058256e-07
6.88395372e-07
7.719307159e-07
6.544934169e-07
6.733585894e-07
7.14194398e-07
7.748314305e-07
8.537542867e-07
7.531316033e-07
7.709297017e-07
8.095278702e-07
8.669955662e-07
9.420412189e-07
8.596819724e-07
8.767940925e-07
9.140092281e-07
9.697473657e-07
1.043163291e-06
9.794485223e-07
9.964756985e-07
1.033688735e-06
1.089838451e-06
1.164581086e-06
1.119595447e-06
1.137266748e-06
1.17603639e-06
1.234954806e-06
1.314124346e-06
1.289010992e-06
1.308101936e-06
1.350147152e-06
1.414352094e-06
1.501059381e-06
1.499484074e-06
1.52086732e-06
1.568010473e-06
1.640190469e-06
1.737947207e-06
1.769318866e-06
1.794064339e-06
1.84869025e-06
1.932385576e-06
2.045737709e-06
2.131355503e-06
2.161037781e-06
2.226530071e-06
2.326756394e-06
2.46217728e-06
2.648204414e-06
2.684934949e-06
2.765750284e-06
2.88876343e-06
3.053092753e-06
3.438925413e-06
3.484148167e-06
3.582926985e-06
3.730302966e-06
3.921379948e-06
4.680288479e-06
4.728686613e-06
4.831659224e-06
4.978625531e-06
5.155809301e-06
6.34482422e-06
6.374206186e-06
6.432631685e-06
6.504438007e-06
6.568406541e-06
7.825380144e-06
7.811128164e-06
7.773302183e-06
7.698332348e-06
7.565738709e-06
8.394818242e-06
8.331058663e-06
8.186138695e-06
7.953271954e-06
7.618695656e-06
7.72355596e-06
7.619349497e-06
7.388127667e-06
7.031565863e-06
6.546189371e-06
5.811607795e-06
5.686928933e-06
5.415192564e-06
5.010108804e-06
4.486873668e-06
3.128995976e-06
3.036166701e-06
2.841900884e-06
2.573198341e-06
2.260644487e-06
1.338084507e-06
1.303810048e-06
1.232242804e-06
1.132982966e-06
1.015793708e-06
5.630223192e-07
5.510952318e-07
5.259520922e-07
4.904899658e-07
4.476426939e-07
2.391324314e-07
2.348662807e-07
2.25805505e-07
2.128560826e-07
1.969273155e-07
1.028228332e-07
1.012430633e-07
9.787016796e-08
9.300111586e-08
8.69328336e-08
4.469749996e-08
4.409400959e-08
4.28006619e-08
4.092177807e-08
3.855843696e-08
1.961433094e-08
1.93784321e-08
1.887152193e-08
1.813147345e-08
1.719399731e-08
8.685671314e-09
8.591733995e-09
8.389459863e-09
8.093012241e-09
7.715414031e-09
3.884943304e-09
3.846944346e-09
3.764984782e-09
3.644483224e-09
3.490280895e-09
1.759080871e-09
1.743441537e-09
1.709655585e-09
1.659843037e-09
1.595834958e-09
8.049622903e-10
7.98432914e-10
7.841951732e-10
7.634852314e-10
7.364538447e-10
3.712501717e-10
3.688024578e-10
3.635365466e-10
3.558404972e-10
3.460765857e-10
1.798237563e-10
1.78746452e-10
1.764079375e-10
1.729268792e-10
1.683856838e-10
9.281969207e-11
9.236206515e-11
9.136937019e-11
8.98943017e-11
8.797832731e-11
5.228510325e-11
5.208677535e-11
5.165715368e-11
5.102035987e-11
5.01962323e-11
3.254991852e-11
3.248050828e-11
3.233081907e-11
3.21105984e-11
3.182860548e-11
2.348521039e-11
2.347779093e-11
2.346261443e-11
2.344228979e-11
2.341991577e-11
1.987652768e-11
1.989664501e-11
1.994112829e-11
2.000921346e-11
2.010119669e-11
1.905485538e-11
1.90849338e-11
1.915090464e-11
1.925059906e-11
1.938304383e-11
1.965126515e-11
1.968249542e-11
1.975083151e-11
1.985371898e-11
1.998973272e-11
2.095144205e-11
2.097961246e-11
2.104117952e-11
2.113371192e-11
2.125575445e-11
2.257157752e-11
2.259491865e-11
2.264588796e-11
2.272240875e-11
2.282319809e-11
2.429882464e-11
2.431689435e-11
2.435631951e-11
2.441545709e-11
2.44932763e-11
2.601487887e-11
2.602793813e-11
2.605639973e-11
2.609904954e-11
2.615511907e-11
2.765489072e-11
2.766354141e-11
2.768235791e-11
2.771050768e-11
2.774745903e-11
2.918725096e-11
2.919222014e-11
2.920298169e-11
2.921902037e-11
2.924000025e-11
3.059869797e-11
3.060071735e-11
3.060502126e-11
3.061134414e-11
3.061950093e-11
3.18887363e-11
3.188847181e-11
3.188777369e-11
3.188656418e-11
3.188476724e-11
3.305153748e-11
3.304957348e-11
3.304514763e-11
3.303831476e-11
3.30290705e-11
3.402232054e-11
3.401914186e-11
3.401205294e-11
3.400119894e-11
3.398661893e-11
1.125458583e-09
3.132002712e-09
6.112544805e-09
4.335127453e-08
9.498108912e-08
1.363744095e-07
1.63055297e-07
1.932084603e-07
2.346996756e-07
2.761692175e-07
3.071916373e-07
3.30646402e-07
3.56340788e-07
3.862054086e-07
4.162703608e-07
4.436211681e-07
4.703172294e-07
5.041835868e-07
5.518859706e-07
6.142291823e-07
6.864730962e-07
7.62527572e-07
8.387962699e-07
9.167995875e-07
1.002271157e-06
1.102764484e-06
1.226064927e-06
1.379894505e-06
1.573448241e-06
1.819746936e-06
2.140486868e-06
2.574714754e-06
3.187182819e-06
4.070206641e-06
5.278597673e-06
6.586324198e-06
7.4232857e-06
7.320399888e-06
6.14058048e-06
4.082495655e-06
2.046098104e-06
9.330475071e-07
4.16524755e-07
1.851070996e-07
8.235811779e-08
3.675587426e-08
1.64726115e-08
7.422823401e-09
3.370094807e-09
1.545684775e-09
7.159196029e-10
3.376500698e-10
1.647449225e-10
8.645652856e-11
4.95447384e-11
3.16088001e-11
2.340628337e-11
2.017789374e-11
1.949126384e-11
2.010019694e-11
2.135459369e-11
2.290469715e-11
2.455613794e-11
2.620037045e-11
2.777724013e-11
2.925685373e-11
3.062596494e-11
3.188315328e-11
3.302139692e-11
3.397459127e-11
2.695836146e-09
5.976845238e-09
5.874508734e-10
8.912343811e-11
1.523634808e-11
8.201734812e-09
2.946249337e-08
3.337970386e-09
3.341240044e-10
5.343907457e-11
1.484416437e-08
4.402153227e-08
5.426653989e-08
4.337596356e-09
4.553094753e-10
1.229840895e-07
5.823153346e-07
2.13652096e-06
1.558644602e-07
1.213756748e-08
2.313066981e-07
7.748376972e-07
1.839891113e-06
1.571960498e-07
1.228166347e-08
2.823174189e-07
6.651140399e-07
1.026359457e-06
1.182852727e-07
1.104721518e-08
2.919916513e-07
5.274728035e-07
6.346417098e-07
1.328736599e-07
1.60935433e-08
3.201795156e-07
5.649532256e-07
8.682034656e-07
1.13894941e-06
1.473726532e-07
3.751173471e-07
6.774139274e-07
1.134367767e-06
1.739103665e-06
2.683961939e-07
4.228327129e-07
7.16607693e-07
1.075781827e-06
1.348252553e-06
2.580790261e-07
4.468829704e-07
6.912914495e-07
9.239713824e-07
1.00037749e-06
2.527065549e-07
4.610652004e-07
6.757831973e-07
8.830410075e-07
1.017585843e-06
7.298247068e-07
4.849778825e-07
7.095106138e-07
9.795390918e-07
1.31237423e-06
1.600944788e-06
5.15992418e-07
7.48411487e-07
1.029899984e-06
1.347494132e-06
1.553937916e-06
5.439121727e-07
7.653442561e-07
1.011206425e-06
1.240230402e-06
1.307574411e-06
5.643149379e-07
7.619162408e-07
9.60247281e-07
1.113991418e-06
1.110394124e-06
5.820225951e-07
7.583738724e-07
9.309191853e-07
1.072388855e-06
1.119693362e-06
6.106112577e-07
7.84768285e-07
9.757031958e-07
1.185703926e-06
1.403959843e-06
6.585545153e-07
8.452827787e-07
1.069940703e-06
1.343411225e-06
1.655541095e-06
7.236766883e-07
9.236605543e-07
1.169224699e-06
1.463513717e-06
1.77914268e-06
7.971680747e-07
1.001388045e-06
1.246796462e-06
1.526266404e-06
1.801247944e-06
8.707917534e-07
1.068519078e-06
1.298106281e-06
1.546369473e-06
1.772950661e-06
9.414850984e-07
1.126562082e-06
1.335616784e-06
1.554016747e-06
1.744206459e-06
1.013239346e-06
1.186600743e-06
1.381292307e-06
1.58463852e-06
1.763959668e-06
1.094424561e-06
1.262609396e-06
1.455299122e-06
1.663417276e-06
1.859025221e-06
1.194228667e-06
1.365605433e-06
1.567757095e-06
1.794121236e-06
2.016984261e-06
1.320723632e-06
1.502538916e-06
1.721824016e-06
1.971427058e-06
2.217391708e-06
1.481336075e-06
1.679452309e-06
1.920741216e-06
2.194094734e-06
2.45256114e-06
1.685134592e-06
1.905062742e-06
2.172220101e-06
2.467928715e-06
2.723649082e-06
1.945815629e-06
2.193975621e-06
2.491532375e-06
2.806631857e-06
3.037615124e-06
2.286178469e-06
2.57135969e-06
2.903827718e-06
3.228916701e-06
3.397981023e-06
2.747025875e-06
3.077000791e-06
3.440228521e-06
3.743177684e-06
3.782830298e-06
3.390519564e-06
3.758622175e-06
4.114778777e-06
4.311453889e-06
4.111726165e-06
4.290789503e-06
4.638225978e-06
4.87474587e-06
4.812831789e-06
4.24062413e-06
5.450308721e-06
5.623058451e-06
5.554959312e-06
5.075724018e-06
4.062166419e-06
6.59190583e-06
6.400570375e-06
5.880799846e-06
4.929806433e-06
3.557880427e-06
7.186571466e-06
6.549901202e-06
5.565846225e-06
4.227916434e-06
2.747833092e-06
6.853998743e-06
5.839155212e-06
4.536953252e-06
3.105395074e-06
1.965923373e-06
5.523018236e-06
4.331206768e-06
3.062204625e-06
2.02783629e-06
1.311949347e-06
3.489403945e-06
2.555920475e-06
1.78853065e-06
1.218369692e-06
8.150065142e-07
1.74338308e-06
1.314316395e-06
9.573382734e-07
6.792195504e-07
4.721885177e-07
8.147942841e-07
6.389920504e-07
4.847857861e-07
3.578986182e-07
2.583530597e-07
3.716048072e-07
3.015468568e-07
2.369959324e-07
1.812194993e-07
1.353579487e-07
1.67913075e-07
1.400473185e-07
1.133241206e-07
8.928099028e-08
6.870965199e-08
7.566595523e-08
6.450005153e-08
5.345189224e-08
4.318302735e-08
3.410318711e-08
3.4107882e-08
2.959010369e-08
2.500923513e-08
2.063882495e-08
1.666823962e-08
1.540952235e-08
1.356382388e-08
1.165556476e-08
9.795764358e-09
8.067487409e-09
6.990560389e-09
6.229523672e-09
5.430106021e-09
4.63705353e-09
3.885748506e-09
3.192163173e-09
2.87520738e-09
2.537706905e-09
2.197667244e-09
1.86989008e-09
1.471296208e-09
1.337346516e-09
1.192997821e-09
1.046281471e-09
9.030711329e-10
6.851859613e-10
6.284531413e-10
5.671470768e-10
5.037444718e-10
4.412301942e-10
3.248861844e-10
3.00745562e-10
2.736415135e-10
2.460289372e-10
2.187809625e-10
1.593059721e-10
1.492103102e-10
1.380524458e-10
1.264454601e-10
1.148832856e-10
8.41885226e-11
8.000153723e-11
7.536085774e-11
7.045894907e-11
6.544327192e-11
4.857557445e-11
4.680123723e-11
4.485607852e-11
4.283629615e-11
4.083366824e-11
3.128374464e-11
3.070576331e-11
3.009732163e-11
2.949985638e-11
2.895144344e-11
2.338849228e-11
2.337794498e-11
2.339848155e-11
2.346303868e-11
2.358207592e-11
2.029442063e-11
2.052920653e-11
2.081781611e-11
2.115955908e-11
2.155213625e-11
1.965439527e-11
1.997192424e-11
2.034754853e-11
2.07748307e-11
2.124639261e-11
2.026631204e-11
2.058620679e-11
2.095999516e-11
2.13795622e-11
2.183629343e-11
2.150306123e-11
2.178759562e-11
2.211823293e-11
2.248716858e-11
2.288640959e-11
2.30270413e-11
2.326096098e-11
2.353208821e-11
2.383385471e-11
2.41596973e-11
2.46504665e-11
2.483063699e-11
2.503927817e-11
2.527136096e-11
2.552197691e-11
2.626824849e-11
2.63978699e-11
2.654799868e-11
2.671511736e-11
2.689589461e-11
2.782188815e-11
2.790716175e-11
2.800601191e-11
2.811624295e-11
2.823587834e-11
2.928208617e-11
2.933028277e-11
2.9386228e-11
2.944879368e-11
2.951708301e-11
3.063558819e-11
3.065392105e-11
3.067522241e-11
3.06991688e-11
3.072566725e-11
3.188063086e-11
3.187566568e-11
3.186984041e-11
3.186339825e-11
3.185680365e-11
3.300975377e-11
3.298720819e-11
3.296078335e-11
3.293108244e-11
3.289891654e-11
3.395638613e-11
3.392113357e-11
3.387972866e-11
3.383298434e-11
3.378191107e-11
1.653752807e-12
2.263412143e-13
4.216460824e-14
1.359312345e-14
6.870913621e-15
4.072806331e-15
2.513549028e-15
1.57836803e-15
1.00009931e-15
6.384641924e-16
4.096786022e-16
2.635997981e-16
1.696081393e-16
1.088194806e-16
6.945915905e-17
4.403061134e-17
2.769946306e-17
1.729549768e-17
1.073211384e-17
6.634172415e-18
4.101879673e-18
2.551759884e-18
1.609985684e-18
1.040195872e-18
6.949991464e-19
4.836354594e-19
3.509823032e-19
2.641703128e-19
2.040749027e-19
1.599219852e-19
1.258659944e-19
9.88229398e-20
7.713549313e-20
5.980081014e-20
4.606942184e-20
3.528155336e-20
2.683807906e-20
2.022541477e-20
1.503958672e-20
1.098513898e-20
7.850386619e-21
5.474672911e-21
3.72226963e-21
2.46926075e-21
1.601562251e-21
1.018549916e-21
6.370742099e-22
3.928876691e-22
2.392957274e-22
1.440241669e-22
8.561366707e-23
5.01912553e-23
2.895003054e-23
1.636434582e-23
8.997525477e-24
4.732024837e-24
2.278998886e-24
9.039702964e-25
2.104484652e-25
1.721612588e-26
9.84506248e-12
1.808194256e-12
4.780558996e-13
2.014374507e-13
1.115075015e-13
6.747561508e-14
4.071011089e-14
2.460941815e-14
1.472820089e-14
8.805431266e-15
5.238464813e-15
3.112517057e-15
1.846865624e-15
1.095682987e-15
6.501044666e-16
3.858028673e-16
2.290423343e-16
1.360598034e-16
8.094910213e-17
4.831212915e-17
2.901120319e-17
1.761574489e-17
1.089507701e-17
6.926405808e-18
4.569528767e-18
3.149979297e-18
2.271050348e-18
1.702019727e-18
1.31132646e-18
1.02597583e-18
8.068448763e-19
6.334496615e-19
4.947806828e-19
3.841747955e-19
2.966744888e-19
2.279421979e-19
1.740669604e-19
1.317310416e-19
9.836532539e-20
7.212959411e-20
5.17313865e-20
3.619614815e-20
2.468965799e-20
1.643343938e-20
1.069774289e-20
6.83147712e-21
4.292595414e-21
2.66069138e-21
1.629299473e-21
9.860465637e-22
5.893691387e-22
3.473808197e-22
2.014092131e-22
1.143997524e-22
6.315653044e-23
3.330807829e-23
1.607206463e-23
6.41076212e-24
1.596604468e-24
1.620354117e-25
1.005113776e-10
1.543463961e-11
3.180134874e-12
1.33868189e-12
7.752196765e-13
4.896424252e-13
3.058290146e-13
1.898931053e-13
1.154671953e-13
6.947291142e-14
4.10643568e-14
2.398984172e-14
1.382870639e-14
7.891873799e-15
4.464394014e-15
2.510961083e-15
1.408538854e-15
7.906846694e-16
4.457885229e-16
2.532582192e-16
1.455081114e-16
8.493826748e-17
5.07158714e-17
3.124360882e-17
2.004574865e-17
1.348988901e-17
9.533643985e-18
7.033082381e-18
5.35524326e-18
4.155983633e-18
3.252254738e-18
2.547967467e-18
1.991089176e-18
1.550247545e-18
1.202878139e-18
9.301263643e-19
7.156244448e-19
5.459080476e-19
4.108827055e-19
3.035754103e-19
2.192619883e-19
1.544281541e-19
1.060005057e-19
7.09950001e-20
4.651472566e-20
2.990925445e-20
1.893500398e-20
1.183193031e-20
7.307733758e-21
4.461904555e-21
2.690801986e-21
1.599948962e-21
9.354603943e-22
5.354415036e-22
2.974649331e-22
1.57448366e-22
7.601150381e-23
3.015810938e-23
7.559497702e-24
7.977290488e-25
2.221132983e-09
3.436493119e-10
3.476528329e-11
7.387718607e-12
3.724687932e-12
2.347074522e-12
1.512992551e-12
9.660543004e-13
6.067789485e-13
3.753457666e-13
2.280230056e-13
1.362689998e-13
7.998641086e-14
4.619319015e-14
2.623405267e-14
1.468288323e-14
8.109416629e-15
4.436105729e-15
2.412873477e-15
1.312163966e-15
7.177757867e-16
3.977221089e-16
2.250742042e-16
1.313830567e-16
7.996242487e-17
5.119179975e-17
3.459336636e-17
2.457439768e-17
1.816186026e-17
1.378675223e-17
1.062701942e-17
8.25080118e-18
6.423628483e-18
5.006295123e-18
3.904059113e-18
3.043627375e-18
2.365872012e-18
1.82513756e-18
1.389301294e-18
1.037705996e-18
7.573066435e-19
5.386838737e-19
3.733368446e-19
2.524583467e-19
1.670352791e-19
1.085031099e-19
6.942433936e-20
4.386099462e-20
2.739604618e-20
1.691897413e-20
1.032132154e-20
6.208107349e-21
3.670663111e-21
2.122934775e-21
1.189479967e-21
6.327185459e-22
3.0564521e-22
1.204399907e-22
2.993293738e-23
3.179047926e-24
2.695532833e-09
7.07497844e-10
1.1943746e-10
2.470124462e-11
1.171425764e-11
7.470393099e-12
5.002502529e-12
3.336156422e-12
2.199870923e-12
1.431672968e-12
9.175810443e-13
5.78696052e-13
3.584675162e-13
2.180621775e-13
1.300523779e-13
7.608155583e-14
4.361793367e-14
2.454180694e-14
1.355986948e-14
7.382847567e-15
3.975802556e-15
2.132506313e-15
1.148739806e-15
6.286684273e-16
3.542454251e-16
2.084171691e-16
1.293870794e-16
8.505239506e-17
5.890785371e-17
4.252415045e-17
3.160311831e-17
2.393493906e-17
1.835237492e-17
1.419922916e-17
1.106718604e-17
8.671897383e-18
6.803242141e-18
5.310306974e-18
4.094481204e-18
3.098180192e-18
2.28968983e-18
1.648649467e-18
1.156278754e-18
7.913029802e-19
5.300682747e-19
3.488181143e-19
2.262151327e-19
1.44883801e-19
9.172886029e-20
5.740167616e-20
3.546977705e-20
2.16038522e-20
1.293099136e-20
7.5653708e-21
4.280697118e-21
2.291833518e-21
1.109218669e-21
4.353959474e-22
1.073976536e-22
1.160872031e-23
1.724536585e-09
6.957787203e-10
2.179557096e-10
5.702412806e-11
2.62817368e-11
1.693388652e-11
1.178119022e-11
8.239326789e-12
5.729201757e-12
3.948701216e-12
2.69119625e-12
1.810065248e-12
1.199215142e-12
7.816245976e-13
5.00259682e-13
3.140552123e-13
1.930843368e-13
1.161662126e-13
6.829051907e-14
3.924453078e-14
2.204992864e-14
1.214840532e-14
6.584006669e-15
3.53447762e-15
1.897067715e-15
1.032581263e-15
5.792091892e-16
3.400863986e-16
2.110478125e-16
1.385406541e-16
9.552584764e-17
6.846590888e-17
5.052468554e-17
3.813792016e-17
2.932637771e-17
2.288240432e-17
1.800836982e-17
1.417587025e-17
1.106034629e-17
8.48314729e-18
6.357208073e-18
4.639318455e-18
3.295221627e-18
2.282523354e-18
1.547847607e-18
1.032098437e-18
6.790165304e-19
4.415575195e-19
2.839142043e-19
1.803747955e-19
1.13075316e-19
6.981236783e-20
4.232258601e-20
2.50563848e-20
1.432888387e-20
7.73813741e-21
3.766632225e-21
1.483993854e-21
3.668757487e-22
4.083230092e-23
1.843841658e-09
7.351548085e-10
3.439076378e-10
1.262697157e-10
5.126941422e-11
3.052898146e-11
2.127433695e-11
1.533999918e-11
1.111284587e-11
8.023560862e-12
5.754115501e-12
4.090762656e-12
2.878431738e-12
2.001806619e-12
1.374025293e-12
9.293186814e-13
6.180640909e-13
4.033429773e-13
2.576565929e-13
1.608529224e-13
9.796923288e-14
5.817558304e-14
3.365806933e-14
1.899564804e-14
1.048458942e-14
5.696409495e-15
3.074489452e-15
1.671189446e-15
9.302673313e-16
5.394687858e-16
3.298228848e-16
2.133008745e-16
1.452829028e-16
1.03406662e-16
7.633474684e-17
5.805959433e-17
4.512440788e-17
3.544239711e-17
2.78055576e-17
2.155769118e-17
1.637735317e-17
1.212823539e-17
8.736397367e-18
6.127321559e-18
4.201494337e-18
2.832485687e-18
1.88598506e-18
1.243065229e-18
8.111246815e-19
5.233271104e-19
3.331813781e-19
2.088031887e-19
1.283780648e-19
7.700205104e-20
4.457355189e-20
2.435824662e-20
1.200013362e-20
4.800170897e-21
1.2117174e-21
1.410231308e-22
1.457836156e-08
3.337845651e-09
1.308178121e-09
4.355461664e-10
1.283520002e-10
5.48243006e-11
3.392370465e-11
2.406061242e-11
1.770398491e-11
1.314108072e-11
9.746650652e-12
7.194268428e-12
5.274067845e-12
3.835361697e-12
2.764211441e-12
1.972657609e-12
1.392451108e-12
9.710118256e-13
6.677095783e-13
4.516608881e-13
2.996782665e-13
1.944303194e-13
1.229545044e-13
7.561469016e-14
4.517146804e-14
2.622536305e-14
1.482483434e-14
8.197213475e-15
4.470081362e-15
2.436205807e-15
1.349719022e-15
7.746176993e-16
4.678536567e-16
2.997781572e-16
2.035339431e-16
1.454544099e-16
1.083684587e-16
8.302812478e-17
6.44373924e-17
4.998468578e-17
3.832204005e-17
2.878425698e-17
2.106721615e-17
1.499824841e-17
1.04136639e-17
7.094148661e-18
4.769582526e-18
3.175716451e-18
2.095989146e-18
1.36989567e-18
8.846538205e-19
5.628112148e-19
3.51357226e-19
2.139350831e-19
1.25666718e-19
6.971330184e-20
3.493603366e-20
1.429316682e-20
3.727118444e-21
4.615459396e-22
3.030112931e-08
4.892243406e-09
1.981976763e-09
8.52631982e-10
2.832137646e-10
9.824527858e-11
5.121156172e-11
3.431017357e-11
2.517016064e-11
1.898386106e-11
1.442035529e-11
1.094669376e-11
8.276161567e-12
6.221450801e-12
4.645805145e-12
3.443803208e-12
2.532387779e-12
1.845849805e-12
1.332308007e-12
9.509821394e-13
6.700999413e-13
4.651360245e-13
3.172903867e-13
2.120206784e-13
1.382896174e-13
8.775734905e-14
5.400932419e-14
3.218903808e-14
1.859805088e-14
1.046157733e-14
5.7731742e-15
3.165078701e-15
1.755605295e-15
1.007007148e-15
6.087943149e-16
3.916891649e-16
2.679915529e-16
1.930756421e-16
1.440013002e-16
1.092894362e-16
8.324976688e-17
6.295494659e-17
4.680288463e-17
3.395051673e-17
2.39630505e-17
1.65358751e-17
1.123294601e-17
7.544954097e-18
5.02138202e-18
3.312208856e-18
2.162707693e-18
1.394121105e-18
8.834732567e-19
5.467442178e-19
3.267505094e-19
1.846708465e-19
9.460209833e-20
3.987421195e-20
1.088256235e-20
1.464584216e-21
3.521495845e-08
4.958330771e-09
1.838093677e-09
9.754071694e-10
4.428679347e-10
1.636201631e-10
7.471099194e-11
4.666207737e-11
3.369737924e-11
2.560844732e-11
1.978215456e-11
1.534083703e-11
1.188091589e-11
9.166612799e-12
7.036627268e-12
5.370020061e-12
4.0718088e-12
3.065887257e-12
2.290867546e-12
1.697322662e-12
1.245358682e-12
9.03937901e-13
6.478274073e-13
4.573902546e-13
3.173119327e-13
2.15685028e-13
1.432355626e-13
9.264209827e-14
5.816938666e-14
3.537080741e-14
2.081052838e-14
1.18779512e-14
6.630018524e-15
3.67174058e-15
2.05886448e-15
1.195542632e-15
7.31951418e-16
4.766247184e-16
3.286412141e-16
2.364894958e-16
1.744403064e-16
1.299828099e-16
9.679104179e-17
7.131644641e-17
5.146031925e-17
3.619519481e-17
2.492668249e-17
1.691199192e-17
1.134532536e-17
7.53631171e-18
4.958145543e-18
3.226877994e-18
2.07058941e-18
1.301348555e-18
7.920478338e-19
4.573863659e-19
2.405893818e-19
1.052240769e-19
3.048244129e-20
4.540502817e-21
4.042787386e-08
5.888424291e-09
1.661887421e-09
9.464417073e-10
5.412485913e-10
2.509718007e-10
1.114555309e-10
6.340756588e-11
4.415114257e-11
3.343256468e-11
2.606393129e-11
2.051558113e-11
1.617924505e-11
1.273759052e-11
9.991731182e-12
7.800987648e-12
6.057930697e-12
4.676010257e-12
3.587603689e-12
2.734174998e-12
2.067792586e-12
1.550002447e-12
1.149931598e-12
8.42906657e-13
6.092450456e-13
4.332552767e-13
3.024154672e-13
2.066814529e-13
1.379392111e-13
8.966374724e-14
5.66392727e-14
3.470558833e-14
2.061602503e-14
1.190440813e-14
6.738449739e-15
3.796114796e-15
2.171155167e-15
1.286623896e-15
8.028392524e-16
5.304906238e-16
3.68447599e-16
2.645370903e-16
1.931508984e-16
1.417065114e-16
1.034768003e-16
7.445112535e-17
5.241925017e-17
3.611666922e-17
2.446322874e-17
1.636071469e-17
1.082899008e-17
7.095808825e-18
4.594449947e-18
2.924082584e-18
1.810130162e-18
1.068800582e-18
5.792114873e-19
2.644969218e-19
8.239692965e-20
1.379098061e-20
1.236858408e-07
1.87058546e-08
3.666690772e-09
1.529736938e-09
8.264103408e-10
4.340165815e-10
1.935674949e-10
9.39173973e-11
5.872537087e-11
4.287716431e-11
3.327232521e-11
2.637498767e-11
2.10571422e-11
1.68277268e-11
1.341636429e-11
1.066314048e-11
8.443041193e-12
6.653949138e-12
5.216232602e-12
4.065267534e-12
3.146854111e-12
2.416888487e-12
1.839551177e-12
1.385622296e-12
1.031245871e-12
7.569643396e-13
5.469108502e-13
3.881106323e-13
2.699085827e-13
1.835299846e-13
1.21750798e-13
7.864540179e-14
4.939251995e-14
3.014731171e-14
1.79127121e-14
1.041439651e-14
5.981280932e-15
3.442513374e-15
2.023113797e-15
1.237113435e-15
7.972730167e-16
5.411898402e-16
3.817184362e-16
2.750077407e-16
1.996511239e-16
1.446821079e-16
1.037935242e-16
7.318628836e-17
5.051106218e-17
3.416694258e-17
2.275814546e-17
1.498929984e-17
9.768051067e-18
6.275430623e-18
3.939336197e-18
2.374625109e-18
1.327423073e-18
6.36139465e-19
2.155748995e-19
4.10194584e-20
2.922866661e-07
4.672206705e-08
7.954213344e-09
2.58596997e-09
1.302777691e-09
7.170190054e-10
3.591702723e-10
1.605053247e-10
8.343628481e-11
5.473048309e-11
4.084823392e-11
3.208391824e-11
2.565389141e-11
2.068106318e-11
1.6641006e-11
1.343866285e-11
1.082305969e-11
8.682139616e-12
6.930673978e-12
5.501429155e-12
4.339093731e-12
3.39772827e-12
2.638900349e-12
2.030471276e-12
1.545669446e-12
1.162247963e-12
8.617499913e-13
6.288303259e-13
4.50691396e-13
3.166185595e-13
2.175990842e-13
1.460345037e-13
9.555343058e-14
6.089588157e-14
3.780100491e-14
2.289335998e-14
1.358271852e-14
7.953613678e-15
4.651196443e-15
2.763040806e-15
1.698492612e-15
1.095167024e-15
7.415751469e-16
5.210655079e-16
3.740085509e-16
2.704339959e-16
1.950190659e-16
1.394183195e-16
9.826523101e-17
6.79148265e-17
4.595098289e-17
3.052299127e-17
1.999210832e-17
1.292336068e-17
8.197816676e-18
5.029756107e-18
2.89769707e-18
1.46359728e-18
5.449319642e-19
1.187650853e-19
3.345348269e-07
6.14387472e-08
1.105822132e-08
3.044490314e-09
1.536435699e-09
9.082792516e-10
5.26339817e-10
2.721868108e-10
1.302635051e-10
7.189439487e-11
4.795762405e-11
3.578344338e-11
2.814389555e-11
2.268114531e-11
1.833961823e-11
1.496689876e-11
1.219932078e-11
9.918087134e-12
8.032517593e-12
6.474005317e-12
5.188492091e-12
4.131778802e-12
3.26687651e-12
2.562337936e-12
1.991364205e-12
1.531188488e-12
1.162717082e-12
8.701592036e-13
6.404735968e-13
4.627157366e-13
3.274703722e-13
2.266193253e-13
1.531582343e-13
1.010086623e-13
6.499332155e-14
4.083016749e-14
2.509398431e-14
1.515132224e-14
9.053713789e-15
5.416767564e-15
3.296636183e-15
2.075006394e-15
1.366211201e-15
9.403545479e-16
6.685978269e-16
4.832844078e-16
3.502598224e-16
2.522590849e-16
1.797624683e-16
1.263269814e-16
8.723755057e-17
5.902876056e-17
3.91547772e-17
2.551884215e-17
1.632634677e-17
1.016226752e-17
6.014780012e-18
3.202197626e-18
1.317723856e-18
3.308579707e-19
3.264505481e-07
6.74877568e-08
1.338952568e-08
3.214389043e-09
1.490893682e-09
9.366092327e-10
6.07841005e-10
3.728622058e-10
2.053966744e-10
1.041488824e-10
5.721364069e-11
3.694748748e-11
2.697944203e-11
2.115813511e-11
1.70690018e-11
1.395223636e-11
1.146203767e-11
9.424311179e-12
7.736012693e-12
6.329276443e-12
5.155317597e-12
4.176534486e-12
3.362531486e-12
2.687986473e-12
2.13137011e-12
1.674322025e-12
1.30114543e-12
9.984061001e-13
7.547229563e-13
5.607279282e-13
4.086521401e-13
2.915509307e-13
2.032110055e-13
1.382484057e-13
9.181394356e-14