/*--------------------------------*- C++ -*----------------------------------*\
  =========                 |
  \\      /  F ield         | OpenFOAM: The Open Source CFD Toolbox
   \\    /   O peration     | Website:  https://openfoam.org
    \\  /    A nd           | Version:  10
     \\/     M anipulation  |
\*---------------------------------------------------------------------------*/
FoamFile
{
    format      ascii;
    class       volScalarField;
    location    "3000";
    object      NNH;
}
// * * * * * * * * * * * * * * * * * * * * * * * * * * * * * * * * * * * * * //

dimensions      [0 0 0 0 0 0 0];

internalField   nonuniform List<scalar> 
5170
(
2.208067277e-70
2.653157235e-70
2.053869173e-70
2.113033445e-70
3.208458872e-73
3.923297372e-70
4.46746502e-70
1.38148089e-69
2.445063135e-70
7.563306108e-73
5.635387097e-69
1.251551948e-69
2.280354504e-69
2.712746668e-70
7.207828309e-69
1.21052892e-66
4.456574609e-67
4.434103443e-68
1.123444121e-69
1.408310378e-69
8.870066102e-64
3.053965352e-64
2.492628117e-65
4.551140953e-67
1.161126322e-67
6.505117293e-61
2.141428702e-61
1.462250409e-62
2.188942919e-64
0
4.819469759e-58
1.537316316e-58
8.9513036e-60
1.129674411e-61
0
3.594190416e-55
1.121214464e-55
5.924816703e-57
6.738547392e-59
0
2.724991718e-52
8.668036327e-53
4.335029281e-54
4.820403006e-56
0
2.115089866e-49
7.148018233e-50
3.549038832e-51
5.273700719e-53
0
1.690130614e-46
6.352316418e-47
3.496612114e-48
1.395750074e-49
0
1.386857033e-43
6.064611132e-44
4.428221305e-45
6.542597621e-46
2.627246104e-46
1.171623674e-40
6.250410462e-41
7.474409739e-42
3.469449894e-42
3.407972362e-42
1.013661899e-37
6.886862385e-38
1.58956576e-38
1.823918832e-38
2.168060454e-38
8.998371271e-35
8.169533595e-35
3.922939151e-35
9.218481935e-35
1.319585671e-34
8.062768564e-32
1.025086184e-31
1.037027601e-31
4.281021154e-31
8.010063874e-31
7.256382443e-29
1.360163848e-28
2.773437715e-28
1.785359172e-27
4.866945948e-27
6.373860062e-26
1.829316382e-25
7.213216897e-25
6.861678226e-24
2.960327257e-23
5.196824045e-23
2.377796084e-22
1.724027286e-21
2.293080745e-20
1.80238398e-19
3.546602427e-20
2.813951747e-19
3.71044708e-18
6.95362167e-17
1.112406809e-15
1.826162596e-10
9.994115381e-11
7.89802047e-11
1.157372162e-10
1.879166122e-10
1.630842996e-10
1.210201012e-10
1.05817848e-10
1.328339652e-10
1.619264533e-10
1.263518889e-10
1.14346874e-10
1.06611305e-10
1.184002067e-10
1.215580075e-10
9.797288732e-11
9.944135714e-11
9.670353667e-11
9.975269482e-11
9.166195289e-11
7.770950756e-11
8.481099315e-11
8.450474729e-11
8.266668565e-11
7.036318151e-11
6.33069598e-11
7.20573879e-11
7.284608075e-11
6.827699017e-11
5.537741567e-11
5.279781568e-11
6.137415318e-11
6.245450713e-11
5.651815471e-11
4.478646668e-11
4.49308452e-11
5.25750312e-11
5.352795379e-11
4.71154025e-11
3.728990789e-11
3.894376666e-11
4.540469239e-11
4.603993272e-11
3.98494873e-11
3.201901927e-11
3.432294691e-11
3.960676656e-11
3.991102468e-11
3.439802102e-11
2.830496005e-11
3.072797122e-11
3.496228969e-11
3.500575815e-11
3.035009137e-11
2.564110113e-11
2.790403434e-11
3.126492888e-11
3.11408044e-11
2.733124843e-11
2.367142915e-11
2.566260948e-11
2.832878539e-11
2.811297559e-11
2.504309846e-11
2.21599565e-11
2.385814403e-11
2.598536851e-11
2.573323706e-11
2.326739967e-11
2.095311376e-11
2.238320328e-11
2.410107591e-11
2.384397502e-11
2.185083803e-11
1.995059239e-11
2.115305352e-11
2.256350837e-11
2.232112407e-11
2.068528183e-11
1.908132287e-11
2.010826705e-11
2.128452959e-11
2.105880698e-11
1.969126284e-11
1.829863846e-11
1.922546483e-11
2.019613166e-11
1.997259243e-11
1.880573869e-11
1.756930081e-11
1.951879405e-11
1.953612221e-11
1.904764702e-11
1.797854164e-11
1.684589086e-11
1.595407625e-10
5.873707207e-11
2.40084286e-11
1.783080338e-11
1.581136153e-11
6.559003932e-18
8.349864956e-17
2.556491697e-15
1.179812974e-13
6.87088684e-12
1.304183735e-17
1.236577573e-16
2.585925248e-15
7.673294025e-14
2.371733271e-12
1.583257105e-17
1.204348395e-16
1.949162346e-15
4.481974661e-14
9.551714328e-13
1.639433457e-17
1.10757772e-16
1.646388596e-15
3.339905653e-14
5.606162837e-13
1.615968783e-17
1.057156999e-16
1.535424168e-15
2.715252939e-14
3.687636667e-13
1.713578806e-17
1.189518997e-16
1.784821288e-15
2.960062571e-14
3.635234559e-13
2.869735474e-17
2.502920054e-16
4.076601988e-15
6.051268275e-14
6.281342749e-13
7.07457979e-17
6.804668458e-16
9.812023338e-15
1.110978344e-13
9.00174668e-13
1.687932773e-16
1.527299295e-15
1.736560185e-14
1.474757523e-13
9.477436366e-13
3.742539485e-16
3.018696166e-15
2.714970041e-14
1.837184831e-13
1.005069395e-12
9.142244217e-16
5.971678362e-15
4.263925487e-14
2.466906685e-13
1.216710591e-12
2.069100389e-15
1.083414451e-14
6.449507456e-14
3.298560575e-13
1.47602382e-12
4.204477757e-15
1.782313716e-14
8.937149004e-14
4.00543724e-13
1.596463396e-12
8.040387859e-15
2.771235621e-14
1.185466856e-13
4.702395181e-13
1.694142312e-12
1.552603253e-14
4.406552447e-14
1.635521829e-13
5.861074475e-13
1.955897567e-12
3.169664332e-14
7.530051768e-14
2.434578642e-13
7.931859203e-13
2.468205542e-12
6.700299472e-14
1.359738072e-13
3.805223878e-13
1.112842339e-12
3.186433695e-12
1.329952136e-13
2.361524074e-13
5.739729234e-13
1.497626505e-12
3.895467973e-12
2.405611297e-13
3.838416741e-13
8.211164147e-13
1.918535678e-12
4.548982735e-12
3.9796338e-13
5.864876269e-13
1.132663003e-12
2.415817712e-12
5.310180677e-12
6.266423743e-13
8.725604127e-13
1.560163978e-12
3.102377759e-12
6.43218354e-12
9.783584143e-13
1.310430699e-12
2.189424176e-12
4.112131703e-12
8.121414004e-12
1.492075775e-12
1.929823777e-12
3.094283185e-12
5.536560525e-12
1.036030392e-11
2.253033729e-12
2.833780525e-12
4.351775644e-12
7.376901351e-12
1.316042472e-11
3.315773605e-12
4.06914853e-12
5.999230205e-12
9.71063201e-12
1.657142055e-11
4.760848566e-12
5.71373852e-12
8.109552097e-12
1.269351573e-11
2.08464107e-11
6.888185527e-12
8.123873384e-12
1.119714937e-11
1.684048232e-11
2.669280725e-11
1.000456232e-11
1.16092249e-11
1.555151282e-11
2.28190147e-11
3.512624946e-11
1.50034025e-11
1.706979512e-11
2.207170945e-11
3.142037986e-11
4.741857897e-11
2.316095594e-11
2.606652684e-11
3.308431839e-11
4.561629562e-11
6.639345411e-11
3.638479085e-11
4.048925785e-11
5.028732323e-11
6.749703224e-11
9.550377709e-11
5.888848326e-11
6.478284888e-11
7.874286004e-11
1.02893592e-10
1.413875595e-10
9.984349734e-11
1.084939596e-10
1.287463952e-10
1.631678521e-10
2.167957335e-10
1.790342749e-10
1.918235904e-10
2.213644663e-10
2.705296356e-10
3.448241082e-10
3.306465085e-10
3.48579601e-10
3.895401552e-10
4.559916161e-10
5.531725106e-10
5.707740434e-10
5.931202486e-10
6.436213384e-10
7.242714285e-10
8.402753921e-10
8.613995402e-10
8.874035032e-10
9.462022487e-10
1.040260657e-09
1.175949403e-09
1.17701626e-09
1.209127225e-09
1.282048751e-09
1.399539333e-09
1.570505664e-09
1.575996429e-09
1.620759873e-09
1.722559709e-09
1.886831416e-09
2.125839141e-09
2.255093504e-09
2.32422646e-09
2.480462386e-09
2.7292394e-09
3.082728244e-09
3.664071315e-09
3.762192097e-09
3.977003352e-09
4.298457105e-09
4.712592568e-09
5.612411899e-09
5.680791769e-09
5.824324162e-09
6.024091986e-09
6.25787259e-09
6.707586102e-09
6.72940927e-09
6.772712777e-09
6.826230014e-09
6.876102478e-09
6.755383319e-09
6.747001579e-09
6.726249209e-09
6.688689711e-09
6.627894767e-09
6.087914923e-09
6.065662374e-09
6.015908463e-09
5.938009424e-09
5.830049039e-09
5.067881392e-09
5.042327653e-09
4.986074977e-09
4.900485761e-09
4.785858842e-09
3.966939486e-09
3.943855559e-09
3.893345666e-09
3.817288992e-09
3.716789622e-09
2.952783998e-09
2.934387018e-09
2.894247975e-09
2.834107917e-09
2.755166373e-09
2.107364166e-09
2.093873576e-09
2.064484285e-09
2.02056457e-09
1.963112625e-09
1.451853813e-09
1.442547585e-09
1.422289254e-09
1.392051768e-09
1.352563415e-09
9.714555934e-10
9.653298737e-10
9.51996045e-10
9.321162612e-10
9.061587707e-10
6.35195952e-10
6.313096852e-10
6.228536378e-10
6.102396775e-10
5.937758286e-10
4.082324333e-10
4.058310499e-10
4.006055097e-10
3.928080593e-10
3.826258206e-10
2.591854042e-10
2.577300363e-10
2.545624509e-10
2.498335199e-10
2.436535479e-10
1.63336857e-10
1.624661361e-10
1.605705161e-10
1.577387479e-10
1.540345421e-10
1.026172364e-10
1.021000013e-10
1.009735661e-10
9.928963974e-11
9.708455958e-11
6.45209748e-11
6.421433032e-11
6.354627373e-11
6.254681671e-11
6.123655192e-11
4.073591764e-11
4.055366928e-11
4.015646236e-11
3.956174028e-11
3.878116532e-11
2.589788711e-11
2.578888529e-11
2.555121997e-11
2.519508714e-11
2.472711775e-11
1.661642072e-11
1.655060733e-11
1.640704786e-11
1.619175825e-11
1.590853963e-11
1.077805331e-11
1.073783636e-11
1.065007395e-11
1.051835947e-11
1.034489679e-11
7.075949874e-12
7.051028893e-12
6.996623071e-12
6.914910589e-12
6.807187792e-12
4.705002796e-12
4.689321919e-12
4.655075259e-12
4.603604975e-12
4.535686218e-12
3.169186731e-12
3.159159946e-12
3.137253389e-12
3.104308632e-12
3.060797786e-12
2.161864242e-12
2.155347462e-12
2.141104992e-12
2.119674159e-12
2.091348092e-12
1.492615433e-12
1.488311322e-12
1.478901814e-12
1.464736318e-12
1.446000685e-12
1.041977766e-12
1.03909216e-12
1.032782385e-12
1.023279614e-12
1.010703961e-12
7.349574167e-13
7.329951904e-13
7.28703559e-13
7.222380576e-13
7.136780016e-13
5.240302088e-13
5.226775412e-13
5.19718872e-13
5.152605302e-13
5.09355789e-13
3.874695107e-13
3.865010178e-13
3.84381994e-13
3.81187869e-13
3.769558947e-13
1.177568905e-10
2.541312184e-11
8.044477167e-12
4.108270844e-12
2.350131319e-12
2.197528685e-12
3.428133261e-12
4.047504689e-12
3.576178702e-12
3.421169049e-12
3.898173172e-12
4.402148292e-12
4.333098135e-12
4.268849458e-12
4.691335196e-12
5.652995364e-12
6.88043367e-12
7.84199217e-12
8.58214703e-12
9.524874501e-12
1.110373804e-11
1.347906212e-11
1.659723555e-11
2.038167985e-11
2.483929562e-11
3.034897929e-11
3.787614914e-11
4.874432416e-11
6.463457423e-11
8.853309249e-11
1.247344327e-10
1.806039723e-10
2.698599493e-10
4.156644165e-10
6.424939322e-10
9.452233953e-10
1.299397631e-09
1.727431494e-09
2.344257093e-09
3.392884755e-09
5.028560835e-09
6.41670357e-09
6.896160204e-09
6.567803157e-09
5.7377425e-09
4.691447838e-09
3.635312179e-09
2.691669413e-09
1.91708953e-09
1.320991971e-09
8.854465592e-10
5.806192161e-10
3.744837947e-10
2.387067015e-10
1.510656828e-10
9.531472553e-11
6.018334103e-11
3.815277293e-11
2.434981571e-11
1.567985846e-11
1.020464002e-11
6.719971579e-12
4.480629726e-12
3.025487883e-12
2.068338263e-12
1.430768528e-12
1.000472454e-12
7.067096663e-13
5.045466606e-13
3.735076531e-13
4.232957733e-10
5.849343608e-09
6.618746819e-10
6.563981524e-11
9.028900289e-12
7.935545113e-11
6.318605565e-10
3.600421766e-09
3.834992313e-10
2.398359528e-11
3.424733837e-11
4.611986731e-10
8.383415772e-09
1.498700531e-09
8.047909609e-11
1.872127048e-11
2.413060716e-10
3.048820112e-09
3.227344488e-09
2.609291884e-10
1.001427468e-11
1.109189081e-10
1.067053991e-09
5.573143945e-09
7.048853951e-10
9.323261397e-12
1.039245417e-10
9.830309037e-10
8.364696719e-09
1.825551333e-09
1.363903566e-11
1.367834325e-10
1.184010588e-09
9.66745247e-09
3.801366162e-09
1.412810839e-11
1.17274372e-10
8.354683765e-10
5.587685679e-09
5.647878626e-09
1.111339428e-11
7.627154865e-11
4.490918236e-10
2.425066107e-09
7.397958636e-09
1.003484785e-11
6.404993096e-11
3.623763589e-10
1.948113104e-09
8.8611187e-09
1.103794931e-11
6.733132909e-11
3.690629982e-10
1.933932091e-09
9.259440896e-09
1.18619563e-11
6.620067154e-11
3.309880045e-10
1.567002919e-09
6.929352548e-09
1.091295739e-11
5.337925274e-11
2.319282312e-10
9.391208986e-10
3.506471965e-09
1.022965837e-11
4.598552762e-11
1.868908868e-10
7.215676915e-10
2.660829195e-09
1.089615463e-11
4.620604467e-11
1.822651176e-10
6.913167058e-10
2.538455191e-09
1.27263526e-11
5.123509832e-11
1.936285564e-10
7.041280886e-10
2.479594322e-09
1.483959109e-11
5.538537552e-11
1.947211996e-10
6.574417792e-10
2.143584749e-09
1.603366003e-11
5.437466975e-11
1.748039037e-10
5.392732961e-10
1.600301011e-09
1.669099413e-11
5.211259214e-11
1.562503426e-10
4.541669423e-10
1.282911194e-09
1.780355035e-11
5.240585085e-11
1.502737347e-10
4.224004078e-10
1.164099351e-09
2.005707117e-11
5.640571642e-11
1.561011147e-10
4.258423482e-10
1.141527573e-09
2.359083981e-11
6.337619746e-11
1.685674413e-10
4.432862639e-10
1.147611432e-09
2.817153524e-11
7.201897861e-11
1.831684515e-10
4.61914363e-10
1.148808621e-09
3.355952565e-11
8.142813093e-11
1.973626974e-10
4.753490882e-10
1.129688642e-09
3.968931789e-11
9.138670424e-11
2.110221682e-10
4.853266589e-10
1.102502481e-09
4.717537493e-11
1.035186847e-10
2.287180046e-10
5.047602856e-10
1.101905723e-09
5.744410378e-11
1.20832236e-10
2.568268325e-10
5.464879304e-10
1.15076664e-09
7.231423115e-11
1.464194935e-10
3.002790296e-10
6.170018196e-10
1.25326116e-09
9.408308302e-11
1.838414947e-10
3.640439186e-10
7.216765274e-10
1.410591222e-09
1.260933203e-10
2.377262225e-10
4.538099994e-10
8.65174336e-10
1.620745625e-09
1.738895123e-10
3.149917986e-10
5.772890036e-10
1.052954436e-09
1.881686212e-09
2.458532722e-10
4.258893158e-10
7.441817574e-10
1.289445313e-09
2.188753689e-09
3.570307295e-10
5.85692148e-10
9.662402854e-10
1.579997984e-09
2.544663375e-09
5.302549699e-10
8.133664689e-10
1.256753698e-09
1.938586313e-09
2.978996363e-09
7.849510147e-10
1.120524821e-09
1.627580069e-09
2.39355423e-09
3.551753349e-09
1.111578696e-09
1.498982592e-09
2.082930636e-09
2.965774965e-09
4.278848068e-09
1.495323747e-09
1.957982239e-09
2.661536263e-09
3.715966652e-09
5.181142673e-09
1.976885115e-09
2.570936329e-09
3.4637937e-09
4.720845287e-09
6.11850023e-09
2.68991735e-09
3.492329351e-09
4.603364217e-09
5.851458303e-09
6.815232136e-09
3.87282435e-09
4.84956665e-09
5.882324893e-09
6.702251619e-09
7.134094166e-09
5.488613615e-09
6.200168309e-09
6.763523585e-09
7.062740224e-09
7.041007814e-09
6.637442191e-09
6.901495172e-09
7.007233375e-09
6.904169395e-09
6.580365697e-09
6.914527825e-09
6.851512569e-09
6.66024871e-09
6.324315364e-09
5.850398554e-09
6.471153933e-09
6.236027029e-09
5.904665555e-09
5.478173534e-09
4.970434187e-09
5.59612775e-09
5.304482681e-09
4.942992577e-09
4.520403061e-09
4.051940312e-09
4.54857956e-09
4.269690493e-09
3.940969613e-09
3.573348015e-09
3.180359701e-09
3.512774885e-09
3.279243617e-09
3.010734587e-09
2.717155024e-09
2.409537723e-09
2.596478841e-09
2.417321741e-09
2.214035168e-09
1.994511241e-09
1.767010423e-09
1.848215076e-09
1.719406629e-09
1.574243792e-09
1.418473029e-09
1.257900981e-09
1.273787232e-09
1.1857474e-09
1.086826102e-09
9.809824741e-10
8.72087412e-10
8.54481859e-10
7.967323134e-10
7.318858236e-10
6.624810024e-10
5.910272642e-10
5.609560079e-10
5.242725289e-10
4.830321179e-10
4.388193221e-10
3.931949415e-10
3.623129078e-10
3.395646136e-10
3.1393143e-10
2.863732803e-10
2.578357683e-10
2.313094146e-10
2.174496257e-10
2.017860464e-10
1.848856718e-10
1.673098912e-10
1.466241432e-10
1.382790444e-10
1.288158739e-10
1.18563895e-10
1.078513649e-10
9.266558038e-11
8.76732111e-11
8.199130545e-11
7.580900395e-11
6.931637566e-11
5.860596374e-11
5.562416741e-11
5.22177585e-11
4.849480429e-11
4.456484333e-11
3.721108749e-11
3.542547277e-11
3.337791052e-11
3.113011955e-11
2.874522032e-11
2.378407207e-11
2.270808446e-11
2.14697214e-11
2.010436833e-11
1.864854016e-11
1.533676667e-11
1.468235927e-11
1.392654923e-11
1.308977977e-11
1.219333252e-11
9.994095223e-12
9.591417372e-12
9.124803144e-12
8.606189988e-12
8.04811017e-12
6.588980064e-12
6.337821141e-12
6.045889105e-12
5.72024868e-12
5.368375811e-12
4.397899085e-12
4.23891063e-12
4.053592512e-12
3.846190469e-12
3.621230748e-12
2.972406421e-12
2.870184269e-12
2.750731235e-12
2.61664347e-12
2.470707458e-12
2.033733565e-12
1.966972729e-12
1.888783545e-12
1.800782258e-12
1.704714427e-12
1.407853372e-12
1.363573765e-12
1.311613575e-12
1.252998648e-12
1.188842929e-12
9.850752777e-13
9.552846825e-13
9.202692544e-13
8.806919694e-13
8.372761056e-13
6.962212587e-13
6.75905097e-13
6.519937588e-13
6.249240901e-13
5.951744146e-13
4.973060827e-13
4.832708906e-13
4.667338578e-13
4.47987194e-13
4.273517952e-13
3.683150196e-13
3.582416656e-13
3.463605069e-13
3.328756302e-13
3.180118192e-13
2.307118332e-13
1.065780029e-14
1.137249656e-15
1.933530051e-16
4.131007774e-17
9.130269409e-18
1.910485362e-18
3.806660767e-19
7.361353482e-20
1.404984665e-20
2.690523868e-21
5.332779966e-22
1.205800321e-22
3.947878896e-23
2.198002287e-23
1.682077471e-23
1.406521821e-23
1.178667877e-23
9.658311428e-24
7.679436101e-24
5.907102215e-24
4.389693222e-24
3.149473024e-24
2.181323461e-24
1.458843651e-24
9.427506903e-25
5.892385836e-25
3.566069275e-25
2.09249211e-25
1.192193355e-25
6.606329099e-26
3.567582259e-26
1.882327829e-26
9.736324346e-27
4.959256799e-27
2.501167029e-27
1.256122662e-27
6.307262652e-28
3.167284335e-28
1.583268926e-28
7.810102056e-29
3.762204005e-29
1.752429237e-29
7.832864653e-30
3.342858286e-30
1.358835988e-30
5.259259341e-31
1.940654313e-31
6.844002674e-32
2.314397759e-32
7.53309714e-33
2.369739723e-33
7.236414987e-34
2.155100345e-34
6.287577556e-35
1.799088504e-35
4.94958262e-36
1.202571125e-36
1.830739531e-37
8.082480766e-39
7.478018738e-13
2.91757968e-14
2.258560425e-15
2.818625462e-16
4.851931588e-17
9.250000116e-18
1.749710878e-18
3.219749691e-19
5.866014305e-20
1.091324738e-20
2.209495468e-21
5.759431053e-22
2.451453991e-22
1.631387923e-22
1.315166708e-22
1.109577223e-22
9.329488171e-23
7.695839753e-23
6.191237558e-23
4.841638565e-23
3.672896101e-23
2.699354267e-23
1.920670888e-23
1.322691705e-23
8.817572188e-24
5.693243607e-24
3.563238003e-24
2.163831268e-24
1.276327578e-24
7.320992302e-25
4.089576858e-25
2.229127174e-25
1.188708171e-25
6.224036037e-26
3.215467867e-26
1.648699719e-26
8.437292031e-27
4.323039697e-27
2.214310748e-27
1.126265389e-27
5.630653823e-28
2.736660082e-28
1.28087459e-28
5.733849447e-29
2.445200675e-29
9.919648158e-30
3.830473902e-30
1.410939223e-30
4.973268619e-31
1.683809855e-31
5.498402981e-32
1.7391124e-32
5.351155318e-33
1.608483051e-33
4.737843365e-34
1.364282148e-34
3.735653379e-35
8.835472298e-36
1.311726985e-36
5.935560454e-38
2.026737763e-12
4.962964523e-14
2.077499267e-15
1.80802846e-16
2.751662436e-17
5.030280718e-18
9.321335462e-19
1.703034973e-19
3.208010211e-20
6.955343835e-21
2.138345645e-21
1.057716371e-21
7.29361593e-22
5.860802778e-22
4.978074891e-22
4.268206902e-22
3.613604671e-22
2.987815296e-22
2.400276259e-22
1.868458168e-22
1.408512162e-22
1.028232067e-22
7.27262163e-23
4.986648033e-23
3.317203229e-23
2.142870607e-23
1.345648335e-23
8.222677437e-24
4.894338596e-24
2.84081055e-24
1.609964531e-24
8.925563401e-25
4.853763682e-25
2.599154122e-25
1.377797915e-25
7.2740659e-26
3.843831095e-26
2.035373073e-26
1.075139251e-26
5.611627648e-27
2.860072861e-27
1.407572486e-27
6.631423947e-28
2.974250364e-28
1.266741868e-28
5.123631314e-29
1.972275023e-29
7.250609361e-30
2.556529189e-30
8.684370903e-31
2.854591421e-31
9.118129804e-32
2.841411799e-32
8.665365645e-33
2.587377388e-33
7.498803238e-34
2.02946235e-34
4.56916131e-35
6.171259694e-36
2.585099985e-37
8.183363325e-12
1.63090662e-13
3.830508979e-15
1.661897159e-16
1.727665491e-17
2.862209931e-18
5.731240259e-19
1.346344947e-19
3.960202076e-20
1.508242294e-20
7.25290727e-21
4.191088436e-21
2.789872687e-21
2.060828191e-21
1.62810272e-21
1.330628197e-21
1.105834931e-21
9.157450194e-22
7.426684596e-22
5.841919565e-22
4.439029204e-22
3.253629827e-22
2.302493461e-22
1.576588989e-22
1.047353441e-22
6.766757332e-23
4.260720739e-23
2.618858928e-23
1.573468366e-23
9.253484848e-24
5.33512606e-24
3.02199587e-24
1.686719934e-24
9.314786894e-25
5.116542876e-25
2.810503608e-25
1.548417607e-25
8.53769623e-26
4.673379221e-26
2.509344389e-26
1.305202727e-26
6.507167591e-27
3.08691011e-27
1.387673819e-27
5.905220935e-28
2.382828713e-28
9.151416076e-29
3.362119549e-29
1.18810448e-29
4.060237246e-30
1.348414427e-30
4.36938036e-31
1.385488188e-31
4.304054647e-32
1.305297145e-32
3.800952701e-33
1.010973737e-33
2.145745223e-34
2.568133455e-35
9.651613592e-37
2.798933349e-11
6.132618443e-13
1.262224739e-14
3.67387297e-16
3.026436519e-17
6.82643921e-18
2.180766433e-18
7.687455726e-19
2.921996257e-19
1.200887019e-19
5.39883798e-20
2.685165128e-20
1.491091736e-20
9.262083846e-21
6.359896506e-21
4.708217618e-21
3.642972453e-21
2.869100226e-21
2.265967237e-21
1.77912229e-21
1.363513615e-21
1.010879996e-21
7.2260228e-22
4.982660668e-22
3.323077053e-22
2.151568511e-22
1.357503322e-22
8.373415818e-23
5.062321735e-23
3.006093945e-23
1.757048928e-23
1.013436289e-23
5.787892663e-24
3.287940667e-24
1.867789295e-24
1.065672924e-24
6.108125145e-25
3.495462056e-25
1.974243208e-25
1.085586394e-25
5.739851799e-26
2.891184232e-26
1.379341068e-26
6.216763537e-27
2.647916212e-27
1.069002978e-27
4.110837139e-28
1.514861186e-28
5.383491792e-29
1.85605353e-29
6.239844113e-30
2.053430307e-30
6.627702197e-31
2.095923481e-31
6.44270879e-32
1.878890052e-32
4.894703949e-33
9.804565964e-34
1.041902515e-34
3.585399988e-36
1.07979143e-10
3.424565548e-12
7.632955755e-14
1.959230381e-15
1.792290115e-16
4.506041947e-17
1.450036157e-17
5.144748768e-18
1.992384883e-18
8.334507968e-19
3.728925423e-19
1.782299754e-19
9.168778168e-20
5.128069156e-20
3.134391989e-20
2.08511183e-20
1.483603058e-20
1.101647738e-20
8.338691693e-21
6.326536747e-21
4.748003792e-21
3.492951243e-21
2.501361384e-21
1.737821085e-21
1.16965772e-21
7.635355302e-22
4.844543598e-22
2.997327209e-22
1.814637494e-22
1.079135387e-22
6.328518289e-23
3.674663701e-23
2.121924612e-23
1.224838674e-23
7.106757142e-24
4.159108317e-24
2.449257246e-24
1.437385562e-24
8.288630682e-25
4.62741326e-25
2.470153501e-25
1.250172475e-25
5.972041664e-26
2.689681385e-26
1.144578116e-26
4.62460743e-27
1.785381223e-27
6.628760406e-28
2.381268693e-28
8.32067894e-29
2.840311907e-29
9.501143981e-30
3.117860683e-30
1.000962951e-30
3.108542209e-31
9.061640635e-32
2.314938324e-32
4.41704426e-33
4.228638317e-34
1.354884257e-35
4.10284774e-10
1.879365406e-11
5.433043546e-13
1.365605679e-14
5.728995874e-16
1.145419477e-16
3.691817547e-17
1.397017718e-17
5.833177682e-18
2.624536936e-18
1.250767435e-18
6.267729911e-19
3.31186321e-19
1.863107832e-19
1.128167773e-19
7.387128523e-20
5.19526707e-20
3.85415479e-20
2.946094982e-20
2.270365574e-20
1.733258373e-20
1.295679554e-20
9.412652191e-21
6.627858445e-21
4.522057901e-21
2.994355532e-21
1.925909099e-21
1.204964406e-21
7.347892347e-22
4.380922184e-22
2.565022444e-22
1.483180204e-22
8.525476314e-23
4.905291706e-23
2.844197422e-23
1.66945347e-23
9.89378384e-24
5.85041035e-24
3.397654487e-24
1.907752581e-24
1.02205168e-24
5.179887487e-25
2.472086461e-25
1.109840693e-25
4.703806208e-26
1.896544799e-26
7.340029523e-27
2.748004199e-27
1.00082965e-27
3.559159686e-28
1.238760888e-28
4.224656263e-29
1.411018671e-29
4.595122032e-30
1.439586409e-30
4.197098299e-31
1.057423909e-31
1.950700668e-32
1.724444828e-33
5.252871717e-35
9.930597632e-10
8.424330571e-11
3.999055513e-12
1.16736388e-13
3.709279031e-15
3.624602505e-16
8.884833918e-17
3.120260209e-17
1.280675176e-17
5.785968802e-18
2.795117545e-18
1.421835772e-18
7.598139222e-19
4.298985698e-19
2.607647088e-19
1.712189123e-19
1.216459688e-19
9.231875526e-20
7.323458993e-20
5.932293297e-20
4.807668751e-20
3.835951524e-20
2.977900774e-20
2.233081577e-20
1.610944967e-20
1.117256588e-20
7.4496571e-21
4.790120918e-21
2.98372546e-21
1.80868925e-21
1.070931623e-21
6.222907043e-22
3.571025497e-22
2.039387031e-22
1.167471711e-22
6.73766005e-23
3.926027472e-23
2.289405302e-23
1.315991082e-23
7.346170751e-24
3.929479272e-24
1.992843412e-24
9.521080755e-25
4.273691808e-25
1.807418171e-25
7.271192071e-26
2.816823912e-26
1.06142842e-26
3.91478487e-27
1.417058867e-27
5.035836182e-28
1.755021437e-28
5.981525498e-29
1.980608136e-29
6.27334306e-30
1.835927355e-30
4.602083523e-31
8.338560599e-32
7.031233811e-33
2.068335792e-34
1.952586972e-09
2.262136288e-10
1.901761417e-11
9.333887882e-13
2.978760452e-14
1.68185612e-15
2.558647829e-16
7.117216374e-17
2.614659968e-17
1.112912997e-17
5.203544328e-18
2.59887289e-18
1.372466413e-18
7.698494039e-19
4.64631004e-19
3.054793352e-19
2.193569394e-19
1.700921468e-19
1.393962132e-19
1.17880381e-19
1.007327238e-19
8.558899034e-20
7.144432601e-20
5.804715395e-20
4.557701009e-20
3.43860285e-20
2.482015769e-20
1.711802591e-20
1.129099762e-20
7.147810137e-21
4.358576366e-21
2.578777778e-21
1.493978892e-21
8.549479622e-22
4.863469671e-22
2.758131872e-22
1.561799766e-22
8.814907775e-23
4.913107192e-23
2.673979581e-23
1.408089878e-23
7.113173336e-24
3.4123273e-24
1.54141809e-24
6.540178818e-25
2.633126029e-25
1.021453385e-25
3.863684769e-26
1.435772645e-26
5.260301123e-27
1.900506782e-27
6.754883528e-28
2.350278884e-28
7.932037314e-29
2.550881547e-29
7.538208848e-30
1.897726659e-30
3.429926904e-31
2.841753502e-32
8.292272677e-34
3.411767172e-09
5.392981573e-10
5.748279056e-11
4.717682048e-12
2.289248053e-13
9.464718976e-15
8.390442084e-16
1.657075792e-16
5.03928697e-17
1.92477077e-17
8.43979041e-18
4.05722194e-18
2.092755567e-18
1.15706016e-18
6.942128708e-19
4.585061169e-19
3.346721103e-19
2.666161516e-19
2.262576458e-19
1.991991657e-19
1.779491291e-19
1.587206866e-19
1.39750619e-19
1.204898879e-19
1.011053158e-19
8.216294415e-20
6.439108344e-20
4.845971792e-20
3.489800785e-20
2.397641942e-20
1.569849456e-20
9.823904802e-21
5.913209521e-21
3.454015175e-21
1.975760348e-21
1.114173015e-21
6.193647593e-22
3.388625795e-22
1.818012526e-22
9.532391452e-23
4.852905812e-23
2.391011798e-23
1.137541828e-23
5.18938927e-24
2.239407466e-24
9.115374399e-25
3.553534422e-25
1.348397778e-25
5.028059608e-26
1.851076012e-26
6.740419972e-27
2.424920637e-27
8.574019832e-28
2.946557094e-28
9.646309112e-29
2.897261814e-29
7.399346349e-30
1.356668279e-30
1.136613908e-31
3.387587353e-33
5.131762087e-09
1.09819654e-09
1.467309496e-10
1.570046163e-11
1.160542608e-12
5.513921273e-14
3.162997337e-15
4.022233691e-16
9.592405268e-17
3.184791876e-17
1.27519044e-17
5.774597413e-18
2.866636694e-18
1.549466397e-18
9.222851932e-19
6.14251833e-19
4.594152093e-19
3.793542272e-19
3.35603036e-19
3.084084772e-19
2.874748784e-19
2.67446908e-19
2.457343314e-19
2.214286769e-19
1.947003486e-19
1.664076592e-19
1.37793135e-19
1.102151098e-19
8.491034359e-20
6.283251233e-20
4.454976475e-20
3.019422245e-20
1.954629376e-20
1.210662852e-20
7.214251597e-21
4.161170274e-21
2.328929551e-21
1.262895403e-21
6.631737003e-22
3.376264541e-22
1.667929079e-22
7.980360663e-23
3.696978585e-23
1.661683988e-23
7.23701333e-24
3.022173856e-24
1.202361284e-24
4.594756534e-25
1.712591906e-25
6.293405279e-26
2.291269815e-26
8.267696465e-27
2.944859398e-27
1.024379794e-27
3.408272923e-28
1.043788825e-28
2.729270954e-29
5.155013872e-30
4.476206923e-31
1.394850327e-32
6.519272735e-09
1.891616571e-09
3.193956424e-10
4.138494064e-11
4.602016252e-12
3.393286116e-13
1.772245029e-14
1.337536501e-15
2.097504038e-16
5.491622892e-17
1.910394988e-17
7.897853038e-18
3.695326103e-18
1.92847467e-18
1.134725266e-18
7.678935357e-19
5.969765745e-19
5.178130377e-19
4.811889291e-19
4.624622684e-19
4.486843444e-19
4.329268512e-19
4.116804404e-19
3.836155058e-19
3.489213895e-19
3.088648825e-19
2.654225872e-19
2.209276288e-19
1.777299135e-19
1.378953916e-19
1.02974232e-19
7.386984543e-20
5.081956599e-20
3.349180248e-20
2.11399914e-20
1.279442444e-20
7.43324525e-21
4.146143959e-21
2.218690043e-21
1.135799911e-21
5.575084798e-22
2.63481964e-22
1.202530845e-22
5.312498128e-23
2.281232226e-23
9.549734002e-24
3.879383246e-24
1.518524429e-24
5.723648898e-25
2.098279885e-25
7.582057561e-26
2.720416423e-26
9.675814884e-27
3.37783993e-27
1.134730864e-27
3.53594926e-28
9.508172918e-29
1.873812317e-29
1.72441474e-30
5.751258725e-32
7.520295137e-09
2.876533698e-09
6.045644619e-10
9.214785421e-11
1.208013425e-11
1.375364516e-12
1.049794218e-13
6.282750488e-15
5.639627456e-16
9.659687296e-17
2.641999486e-17
9.588564704e-18
4.176458502e-18
2.137781879e-18
1.281703493e-18
9.228632372e-19
7.729771594e-19
7.178295925e-19
7.041790072e-19
7.052360341e-19
7.065219863e-19
6.999479387e-19
6.812389178e-19
6.487542131e-19
6.0285186e-19
5.454492359e-19
4.796155563e-19
4.091262426e-19
3.379920061e-19
2.69976102e-19
2.081706302e-19
1.547080866e-19
1.106527543e-19
7.607392877e-20
5.022600348e-20
3.181898085e-20
1.932555667e-20
1.123609825e-20
6.241095173e-21
3.309570087e-21
1.673736048e-21
8.085164273e-22
3.735936844e-22
1.653933073e-22
7.068097444e-23
2.934084394e-23
1.186922629e-23
4.694285217e-24
1.808610062e-24
6.750682935e-25
2.447001069e-25
8.69869429e-26
3.056220073e-26
1.058473245e-26
3.55398815e-27
1.118429607e-27
3.090276354e-28
6.437225028e-29
6.460391768e-30
2.377060985e-31
8.466616272e-09
4.105471459e-09
1.066987804e-09
1.924434907e-10
2.911843222e-11
3.911791112e-12
4.569454532e-13
3.61789235e-14
2.335007728e-15
2.147345305e-16
3.638710423e-17
1.034762553e-17
4.198997581e-18
2.219786483e-18
1.461379428e-18
1.184102762e-18
1.095332753e-18
1.087552314e-18
1.110049999e-18
1.136758491e-18
1.153348494e-18
1.151797627e-18
1.128080985e-18
1.081070947e-18
1.011933204e-18
9.236536167e-19
8.207000628e-19
7.086381432e-19
5.936438692e-19
4.817498717e-19
3.781220432e-19
2.866713503e-19
2.097472594e-19
1.47994882e-19
1.006368606e-19
6.589728919e-20
4.150426463e-20
2.510578517e-20
1.45525702e-20
8.061681856e-21
4.256266086e-21
2.136238214e-21
1.020018329e-21
4.644408541e-22
2.025765604e-22
8.501045713e-23
3.44700801e-23
1.35814912e-23
5.234290497e-24
1.976444716e-24
7.289635247e-25
2.616513466e-25
9.152118058e-26
3.128237928e-26
1.038853171e-26
3.272967702e-27
9.26054104e-28
2.062091388e-28
2.358345668e-29
9.85754989e-31
8.980578703e-09
5.417836887e-09
1.737257834e-09
3.743816911e-10
6.474224663e-11
1.003446862e-11
1.404556853e-12
1.718676168e-13
1.441495626e-14
9.340958768e-16
8.285688985e-17
1.447924818e-17
4.907027088e-18
2.693450311e-18
2.009187402e-18
1.804300858e-18
1.773476562e-18
1.802869685e-18
1.842896324e-18
1.869997705e-18
1.872599945e-18
1.845340826e-18
1.786609125e-18
1.697360493e-18
1.580457882e-18
1.440299356e-18
1.282466067e-18
1.11344071e-18
9.403153593e-19
7.707597396e-19
6.120908458e-19
4.700263915e-19
3.485173276e-19
2.495114596e-19
1.725185209e-19
1.151811619e-19
7.427191429e-20
4.622954281e-20
2.772593597e-20
1.597913677e-20
8.821151131e-21