/*--------------------------------*- C++ -*----------------------------------*\
  =========                 |
  \\      /  F ield         | OpenFOAM: The Open Source CFD Toolbox
   \\    /   O peration     | Website:  https://openfoam.org
    \\  /    A nd           | Version:  10
     \\/     M anipulation  |
\*---------------------------------------------------------------------------*/
FoamFile
{
    format      ascii;
    class       volScalarField;
    location    "3000";
    object      NO;
}
// * * * * * * * * * * * * * * * * * * * * * * * * * * * * * * * * * * * * * //

dimensions      [0 0 0 0 0 0 0];

internalField   nonuniform List<scalar> 
5170
(
1.07339063e-61
8.666934351e-62
5.382521746e-62
2.657820311e-62
2.109496684e-62
3.647931147e-59
2.914343708e-59
1.780609692e-59
1.02935854e-59
1.819556975e-59
1.253133234e-56
9.936941458e-57
6.04650004e-57
4.755721389e-57
1.434457616e-56
4.389803147e-54
3.477282423e-54
2.183635787e-54
2.448619278e-54
1.036768886e-53
1.567242694e-51
1.252182126e-51
8.429329392e-52
1.335326407e-51
6.985637592e-51
5.725283195e-49
4.672088143e-49
3.450429974e-49
7.496431784e-49
4.443467989e-48
2.137375388e-46
1.797013906e-46
1.515932981e-46
4.280493666e-46
2.727580458e-45
8.141216048e-44
7.131529646e-44
7.170089335e-44
2.474906082e-43
1.635554012e-42
3.172097551e-41
2.953468037e-41
3.565592057e-41
1.445257965e-40
9.634499114e-40
1.266302555e-38
1.275357322e-38
1.842997202e-38
8.538283368e-38
5.597732252e-37
5.167958056e-36
5.721499527e-36
9.841294768e-36
5.093862404e-35
3.217763624e-34
2.146935774e-33
2.658051841e-33
5.432877776e-33
3.064685981e-32
1.834770914e-31
9.044496728e-31
1.270761728e-30
3.110744231e-30
1.871830912e-29
1.039958768e-28
3.834454645e-28
6.198527892e-28
1.830666097e-27
1.162227971e-26
5.873317091e-26
1.629224627e-25
3.060169863e-25
1.092215951e-24
7.307864275e-24
3.311750578e-23
6.83067939e-23
1.505714727e-22
6.477332417e-22
4.50596157e-21
1.867545042e-20
2.812918051e-20
7.368258843e-20
3.72328485e-19
2.697392886e-18
1.055940264e-17
1.112914393e-17
3.519870861e-17
2.074225641e-16
1.538111433e-15
5.980027885e-15
4.052918843e-15
1.60671436e-14
1.087829309e-13
8.17530565e-13
3.400885144e-12
1.265926184e-12
7.101028626e-12
5.555185161e-11
3.973993e-10
1.962633772e-09
1.037624628e-06
9.627270002e-07
9.339773349e-07
9.837626237e-07
1.044245468e-06
1.804201597e-06
1.654090402e-06
1.617848963e-06
1.692489694e-06
1.848267152e-06
2.358432379e-06
2.170329484e-06
2.132458856e-06
2.225838948e-06
2.438887272e-06
2.782313745e-06
2.57451782e-06
2.538722012e-06
2.654971632e-06
2.902123741e-06
3.122225969e-06
2.903733049e-06
2.869946922e-06
3.009983544e-06
3.285601517e-06
3.404072587e-06
3.183118212e-06
3.150947911e-06
3.311154048e-06
3.604116532e-06
3.646088902e-06
3.427835199e-06
3.398527356e-06
3.572677305e-06
3.870053831e-06
3.8588128e-06
3.645685838e-06
3.619959896e-06
3.801994126e-06
4.095370168e-06
4.048455025e-06
3.842076299e-06
3.820654901e-06
4.005424109e-06
4.289986177e-06
4.219839679e-06
4.021290699e-06
4.004450216e-06
4.188653585e-06
4.461751877e-06
4.376537193e-06
4.186425741e-06
4.174150773e-06
4.35593437e-06
4.616348777e-06
4.521351019e-06
4.339942951e-06
4.332001241e-06
4.510217667e-06
4.757965174e-06
4.656395315e-06
4.483719661e-06
4.47990527e-06
4.65367789e-06
4.889118245e-06
4.783166484e-06
4.619270654e-06
4.619319306e-06
4.787917253e-06
5.011522943e-06
4.902798143e-06
4.74758167e-06
4.751262197e-06
4.91410449e-06
5.126293392e-06
5.015843747e-06
4.869399496e-06
4.876202152e-06
5.033045198e-06
5.234567784e-06
5.122054162e-06
4.98526266e-06
4.995333766e-06
5.145653164e-06
5.336824499e-06
5.218850415e-06
5.095570793e-06
5.110456284e-06
5.253717607e-06
5.433579216e-06
5.312182074e-06
5.204620953e-06
5.225373107e-06
5.360576635e-06
5.52732378e-06
6.202565011e-06
5.641559696e-06
5.423756788e-06
5.476021098e-06
5.595834725e-06
4.7318238e-11
3.673354521e-10
5.663647071e-09
8.539955576e-08
1.158496491e-06
2.55861701e-10
1.72287473e-09
2.098420961e-08
2.231066384e-07
1.744424961e-06
8.503463075e-10
5.090466223e-09
5.132620122e-08
4.222750527e-07
2.327452808e-06
2.318831357e-09
1.266663297e-08
1.090067344e-07
7.185038783e-07
3.018933519e-06
5.537425455e-09
2.782421528e-08
2.048101111e-07
1.097110568e-06
3.730331288e-06
1.219180119e-08
5.624124416e-08
3.554110713e-07
1.57773415e-06
4.517874201e-06
2.623133904e-08
1.123396058e-07
6.07771595e-07
2.223480476e-06
5.491646985e-06
5.517571209e-08
2.197614e-07
9.928398922e-07
3.004645627e-06
6.572343417e-06
1.117983466e-07
4.052912516e-07
1.503700579e-06
3.840635195e-06
7.600678301e-06
2.15546347e-07
6.920444344e-07
2.117923898e-06
4.699209182e-06
8.561547241e-06
4.031196304e-07
1.094741181e-06
2.800771852e-06
5.571727884e-06
9.504168082e-06
7.000167895e-07
1.598095162e-06
3.532296257e-06
6.460722391e-06
1.045000156e-05
1.136643654e-06
2.210556438e-06
4.325502089e-06
7.372264991e-06
1.137728538e-05
1.761382398e-06
2.95983261e-06
5.202834004e-06
8.31642781e-06
1.228218871e-05
2.642273496e-06
3.889002179e-06
6.192138687e-06
9.313710204e-06
1.319487101e-05
3.834267089e-06
5.053433639e-06
7.339432409e-06
1.041739905e-05
1.420044949e-05
5.371560782e-06
6.511692953e-06
8.716062759e-06
1.171219208e-05
1.539768656e-05
7.232059522e-06
8.276869676e-06
1.036454074e-05
1.325043936e-05
1.68151915e-05
9.384792282e-06
1.03349961e-05
1.22833246e-05
1.501987013e-05
1.84159733e-05
1.175958786e-05
1.262185233e-05
1.44189362e-05
1.697218425e-05
2.015321383e-05
1.428380796e-05
1.506180713e-05
1.670100843e-05
1.905083727e-05
2.199335783e-05
1.688269525e-05
1.758291432e-05
1.90688628e-05
2.121624187e-05
2.39256555e-05
1.95148522e-05
2.014373457e-05
2.148773627e-05
2.34474219e-05
2.594367505e-05
2.216238275e-05
2.272921196e-05
2.394859888e-05
2.574129452e-05
2.80464829e-05
2.483007481e-05
2.534578223e-05
2.645986626e-05
2.81067329e-05
3.023918204e-05
2.754495198e-05
2.801696473e-05
2.903890083e-05
3.055704257e-05
3.253152807e-05
3.03379544e-05
3.07716603e-05
3.171292597e-05
3.311480988e-05
3.494383095e-05
3.32256331e-05
3.362519047e-05
3.449308346e-05
3.578802987e-05
3.748022937e-05
3.619797528e-05
3.656493425e-05
3.736262548e-05
3.855438345e-05
4.011336743e-05
3.921030608e-05
3.954532724e-05
4.02739614e-05
4.136078871e-05
4.278050364e-05
4.217312618e-05
4.24725019e-05
4.312281107e-05
4.409125891e-05
4.535388901e-05
4.491171453e-05
4.516819742e-05
4.572451716e-05
4.655308355e-05
4.763749853e-05
4.711667595e-05
4.732379216e-05
4.777509812e-05
4.844768207e-05
4.934591521e-05
4.830098389e-05
4.846590304e-05
4.882989518e-05
4.939800488e-05
5.019555845e-05
4.822621648e-05
4.840141597e-05
4.880266898e-05
4.945860868e-05
5.043207529e-05
4.805856437e-05
4.833784424e-05
4.897478763e-05
5.000676908e-05
5.15110428e-05
5.014951617e-05
5.058749034e-05
5.157204064e-05
5.312814082e-05
5.532543067e-05
5.614274845e-05
5.674535595e-05
5.808761919e-05
6.017569152e-05
6.306349974e-05
6.688385854e-05
6.764073897e-05
6.931700065e-05
7.189755998e-05
7.541409449e-05
8.322353566e-05
8.411107982e-05
8.606280004e-05
8.902523304e-05
9.296863344e-05
0.0001056958046
0.000106539233
0.0001083449688
0.0001109453355
0.000114130033
0.0001263550659
0.0001267302937
0.0001275022702
0.0001285375992
0.0001296836661
0.0001361760549
0.000136204718
0.0001362467866
0.0001362572563
0.0001361798282
0.0001385110622
0.0001383991363
0.00013814623
0.0001377444503
0.0001371759574
0.0001373132481
0.000137150822
0.0001367914674
0.0001362355526
0.0001354792459
0.0001343839093
0.000134201066
0.0001337984269
0.0001331852046
0.0001323619772
0.0001304584096
0.0001302708007
0.0001298586264
0.0001292334965
0.0001283986333
0.0001258930877
0.0001257093305
0.0001253061472
0.0001246960746
0.0001238838918
0.0001209408106
0.0001207667843
0.0001203852469
0.0001198087049
0.0001190425589
0.0001158198019
0.0001156589663
0.0001153064739
0.0001147741469
0.0001140673236
0.0001107078241
0.0001105614781
0.000110240774
0.000109756497
0.0001091135535
0.0001057299563
0.0001055978849
0.0001053084378
0.0001048712901
0.0001042907503
0.0001009609347
0.0001008421011
0.0001005816286
0.0001001881205
9.966529635e-05
9.64374685e-05
9.633051929e-05
9.609605432e-05
9.57417124e-05
9.527068444e-05
9.217147232e-05
9.207502444e-05
9.18635425e-05
9.15438205e-05
9.111859502e-05
8.81601127e-05
8.807288008e-05
8.788156744e-05
8.759223687e-05
8.72072414e-05
8.439220658e-05
8.431303962e-05
8.413938278e-05
8.38766651e-05
8.352691623e-05
8.085199983e-05
8.077988756e-05
8.062167456e-05
8.038224248e-05
8.006334804e-05
7.752147359e-05
7.745553135e-05
7.731082761e-05
7.70917699e-05
7.679988347e-05
7.43816227e-05
7.432107623e-05
7.418818758e-05
7.398695358e-05
7.371870302e-05
7.141348164e-05
7.135765407e-05
7.123510043e-05
7.104946186e-05
7.080190044e-05
6.859822515e-05
6.854652359e-05
6.84330079e-05
6.826101204e-05
6.803155777e-05
6.591822862e-05
6.587014047e-05
6.576454265e-05
6.560450427e-05
6.539093017e-05
6.335599121e-05
6.331107448e-05
6.321242771e-05
6.306289231e-05
6.286327757e-05
6.089689983e-05
6.085478802e-05
6.076229281e-05
6.062205996e-05
6.043482217e-05
5.852491761e-05
5.848530451e-05
5.83982914e-05
5.826635567e-05
5.809017056e-05
5.623168119e-05
5.619434394e-05
5.611232866e-05
5.598796539e-05
5.582188093e-05
5.400532433e-05
5.397007431e-05
5.389264331e-05
5.377523182e-05
5.361843291e-05
5.187589495e-05
5.184263614e-05
5.176958352e-05
5.165881684e-05
5.151089935e-05
5.004334863e-05
5.001178882e-05
4.994246436e-05
4.983735035e-05
4.969698536e-05
4.516067827e-06
4.773844735e-06
5.464706725e-06
6.288863562e-06
6.999898867e-06
7.799251404e-06
8.94017592e-06
1.013568493e-05
1.112647402e-05
1.199364007e-05
1.288318151e-05
1.379556941e-05
1.464516752e-05
1.543125458e-05
1.621753294e-05
1.71248123e-05
1.824626141e-05
1.956754711e-05
2.10294575e-05
2.259549902e-05
2.42569802e-05
2.602395543e-05
2.789553021e-05
2.986717458e-05
3.193530265e-05
3.410907366e-05
3.640888938e-05
3.883681925e-05
4.136278862e-05
4.391745868e-05
4.636520839e-05
4.851198118e-05
5.009185163e-05
5.09062184e-05
5.134657987e-05
5.288520658e-05
5.725897237e-05
6.554263668e-05
7.837466863e-05
9.616376135e-05
0.0001164212882
0.000130402952
0.0001360311053
0.0001366776891
0.000134844681
0.0001316804722
0.0001277118842
0.0001232183683
0.000118416138
0.0001134899493
0.0001085883975
0.0001038163925
9.923783889e-05
9.488531851e-05
9.07704715e-05
8.689185335e-05
8.324022887e-05
7.980180073e-05
7.656035413e-05
7.349845223e-05
7.059853326e-05
6.784297619e-05
6.521532575e-05
6.26990923e-05
6.028077481e-05
5.794519087e-05
5.568520039e-05
5.348939648e-05
5.138917753e-05
4.958148521e-05
1.135945379e-05
3.5785378e-05
1.085147419e-05
5.842058723e-06
3.919683945e-06
1.059094966e-05
2.318536353e-05
2.757824458e-05
1.083426921e-05
4.592870431e-06
1.176377526e-05
2.887867557e-05
7.192898028e-05
3.255248285e-05
1.199076068e-05
1.271006151e-05
2.765343982e-05
4.577715653e-05
5.257888147e-05
2.571473135e-05
1.315119935e-05
2.531936151e-05
3.693471061e-05
5.666200758e-05
3.412985603e-05
1.380494361e-05
2.551825258e-05
4.020937321e-05
6.707174177e-05
4.466741392e-05
1.516587018e-05
2.836890775e-05
4.861277469e-05
8.533514978e-05
6.217464178e-05
1.63974949e-05
2.91951888e-05
4.615601799e-05
6.601296088e-05
7.19772847e-05
1.712236886e-05
2.836387215e-05
4.095698208e-05
5.169796833e-05
7.145301321e-05
1.769259882e-05
2.792138827e-05
3.940554692e-05
5.162168382e-05
7.55003842e-05
1.842209401e-05
2.84487918e-05
4.062436288e-05
5.59565925e-05
8.296155512e-05
1.922309785e-05
2.901785263e-05
4.081559798e-05
5.477693462e-05
7.357764126e-05
1.987735346e-05
2.899135709e-05
3.919411203e-05
4.952081889e-05
5.907943961e-05
2.041108945e-05
2.881554174e-05
3.792896554e-05
4.715927774e-05
5.666885177e-05
2.096176773e-05
2.890242722e-05
3.767821984e-05
4.727074101e-05
5.857307044e-05
2.170630916e-05
2.945868104e-05
3.832673265e-05
4.860092347e-05
6.127231248e-05
2.270309888e-05
3.032168321e-05
3.91148128e-05
4.920675729e-05
6.087208419e-05
2.385274558e-05
3.114360488e-05
3.935975141e-05
4.82547475e-05
5.739496888e-05
2.506999964e-05
3.186791256e-05
3.931585642e-05
4.706814071e-05
5.473548372e-05
2.634493555e-05
3.262209637e-05
3.94162858e-05
4.646991283e-05
5.365022747e-05
2.77151292e-05
3.355025093e-05
3.991171131e-05
4.666567101e-05
5.3873504e-05
2.922250258e-05
3.471751247e-05
4.081684035e-05
4.747228227e-05
5.484055447e-05
3.087083069e-05
3.609113253e-05
4.198542602e-05
4.853046649e-05
5.588343921e-05
3.264386038e-05
3.75994013e-05
4.324500165e-05
4.953041077e-05
5.655088345e-05
3.452264612e-05
3.919106097e-05
4.451611808e-05
5.040864629e-05
5.691447611e-05
3.65142541e-05
4.08813297e-05
4.584967174e-05
5.132092706e-05
5.7351879e-05
3.863986335e-05
4.270399493e-05
4.732549989e-05
5.242135591e-05
5.812206508e-05
4.089944683e-05
4.466731588e-05
4.89635242e-05
5.374610419e-05
5.927446381e-05
4.325931748e-05
4.673459929e-05
5.072092838e-05
5.525656926e-05
6.078662965e-05
4.564135587e-05
4.881221012e-05
5.250246786e-05
5.687667393e-05
6.26189732e-05
4.78978487e-05
5.07565409e-05
5.418907383e-05
5.854677159e-05
6.476897772e-05
4.984155362e-05
5.240266318e-05
5.569183399e-05
6.028881455e-05
6.729779751e-05
5.12415044e-05
5.364237408e-05
5.708351834e-05
6.233195775e-05
7.044911369e-05
5.203275626e-05
5.468860005e-05
5.884235414e-05
6.527993199e-05
7.484772137e-05
5.28168104e-05
5.640853224e-05
6.192450546e-05
7.003149005e-05
8.132659125e-05
5.506465749e-05
6.009404792e-05
6.730433831e-05
7.719052819e-05
8.999110984e-05
6.027881128e-05
6.686417776e-05
7.575887731e-05
8.720726308e-05
0.000100617548
6.937355027e-05
7.740073887e-05
8.770419512e-05
9.987997043e-05
0.0001113032702
8.290721271e-05
9.20065554e-05
0.0001026933345
0.0001128920139
0.0001198517353
0.0001009567421
0.0001094736156
0.0001173489417
0.0001228858793
0.0001255350488
0.0001196867896
0.000124246025
0.0001274274618
0.0001288393435
0.0001285060881
0.0001313689728
0.0001322683157
0.0001322697755
0.0001312513068
0.0001292194995
0.000135759259
0.00013484385
0.0001333184685
0.0001311240066
0.000128252541
0.0001359058863
0.0001342435631
0.0001320718362
0.0001293682503
0.0001261372735
0.0001338769059
0.000131918952
0.0001294936303
0.0001266027371
0.0001232658483
0.0001306464001
0.0001285933712
0.0001261018038
0.0001231909526
0.0001198904793
0.0001266726692
0.0001246295345
0.0001221785713
0.0001193474908
0.0001161720738
0.0001222129787
0.0001202486066
0.0001179086888
0.0001152244459
0.0001122325249
0.0001174707924
0.0001156298826
0.0001134452554
0.0001109478983
0.0001081723613
0.0001126190683
0.0001109250884
0.0001089174276
0.00010662461
0.0001040776768
0.0001077964103
0.0001062554238
0.0001044285149
0.0001023408162
0.0001000194035
0.0001031009774
0.0001017074374
0.0001000533677
9.816035848e-05
9.605164851e-05
9.859305853e-05
9.733532275e-05
9.584010502e-05
9.412573615e-05
9.221197858e-05
9.430391543e-05
9.316813768e-05
9.1815682e-05
9.026202454e-05
8.852390693e-05
9.02451459e-05
8.921747387e-05
8.799179419e-05
8.658115623e-05
8.499972426e-05
8.641582565e-05
8.548337778e-05
8.43695987e-05
8.308549565e-05
8.164305042e-05
8.280742963e-05
8.195863429e-05
8.09433472e-05
7.97708596e-05
7.845130763e-05
7.940687301e-05
7.8631477e-05
7.770275382e-05
7.662855004e-05
7.54174401e-05
7.619859915e-05
7.548757985e-05
7.463488731e-05
7.364714976e-05
7.253162119e-05
7.316574734e-05
7.251116611e-05
7.172521323e-05
7.081349185e-05
6.978214501e-05
7.02912729e-05
6.968618146e-05
6.895882765e-05
6.811395799e-05
6.715679018e-05
6.755800421e-05
6.699631458e-05
6.632042948e-05
6.553439074e-05
6.464265929e-05
6.494992011e-05
6.442639529e-05
6.379585674e-05
6.306177862e-05
6.222801714e-05
6.245091298e-05
6.19610471e-05
6.137060031e-05
6.068260493e-05
5.990045125e-05
6.004789328e-05
5.958800421e-05
5.9033374e-05
5.838670137e-05
5.765102845e-05
5.772600599e-05
5.729301686e-05
5.677064092e-05
5.616134055e-05
5.546791359e-05
5.547854978e-05
5.507027842e-05
5.457764501e-05
5.400294495e-05
5.334880298e-05
5.329431312e-05
5.290888295e-05
5.244383661e-05
5.19013676e-05
5.128399388e-05
5.120514087e-05
5.084162837e-05
5.040309309e-05
4.989163943e-05
4.930968721e-05
4.940685601e-05
4.906198325e-05
4.864600327e-05
4.816095884e-05
4.760920251e-05
3.932601572e-07
4.683369144e-08
7.065871802e-09
1.448083449e-09
3.842672305e-10
1.1431825e-10
3.7381585e-11
1.465071948e-11
7.100292117e-12
4.016100716e-12
2.459447853e-12
1.556821481e-12
9.959800282e-13
6.372199143e-13
4.056702453e-13
2.563529334e-13
1.607034464e-13
1.000049952e-13
6.190622137e-14
3.825980564e-14
2.374177978e-14
1.491186417e-14
9.576797199e-15
6.358335757e-15
4.403627025e-15
3.192929924e-15
2.415041954e-15
1.887824887e-15
1.50760416e-15
1.217175817e-15
9.858272611e-16
7.971213125e-16
6.417831948e-16
5.138653153e-16
4.088631067e-16
3.229477833e-16
2.527866749e-16
1.955911021e-16
1.49157651e-16
1.118011814e-16
8.219467505e-17
5.919960988e-17
4.175545643e-17
2.884717036e-17
1.952656736e-17
1.295131258e-17
8.414256927e-18
5.35048688e-18
3.326662134e-18
2.020398729e-18
1.197772587e-18
6.930152433e-19
3.914639908e-19
2.15945561e-19
1.161104082e-19
6.022946317e-20
2.903790059e-20
1.175699965e-20
2.853481969e-21
2.453964989e-22
8.194162137e-07
1.204759962e-07
2.000975214e-08
4.355965701e-09
1.314340373e-09
5.078255601e-10
2.372731486e-10
1.284732012e-10
7.472865439e-11
4.491136596e-11
2.713267412e-11
1.637641674e-11
9.838868438e-12
5.886931843e-12
3.510536011e-12
2.088548003e-12
1.241173623e-12
7.37757022e-13
4.395595512e-13
2.633353061e-13
1.594246421e-13
9.825919311e-14
6.225417052e-14
4.096643034e-14
2.822927919e-14
2.042142492e-14
1.543663422e-14
1.206868271e-14
9.642337196e-15
7.789132929e-15
6.312855132e-15
5.108883758e-15
4.11793973e-15
3.301941722e-15
2.632077929e-15
2.083775854e-15
1.635526655e-15
1.269319577e-15
9.710494634e-16
7.301315362e-16
5.383965696e-16
3.888862202e-16
2.750597703e-16
1.905571492e-16
1.293558265e-16
8.605490661e-17
5.60864728e-17
3.578569037e-17
2.233006598e-17
1.361288928e-17
8.101621988e-18
4.706302722e-18
2.669368195e-18
1.478453609e-18
7.977760371e-19
4.149334441e-19
2.005883122e-19
8.196599768e-20
2.154260244e-20
2.381408039e-21
1.935719915e-06
2.402552728e-07
3.488247506e-08
9.056758622e-09
3.695641236e-09
1.940203275e-09
1.129497279e-09
6.960823666e-10
4.334354697e-10
2.70403083e-10
1.662516679e-10
1.008444596e-10
6.010170474e-11
3.527564841e-11
2.04134289e-11
1.168886231e-11
6.650321007e-12
3.777450997e-12
2.153734277e-12
1.239386793e-12
7.244395523e-13
4.334483795e-13
2.680382401e-13
1.730240983e-13
1.174685774e-13
8.401829138e-14
6.295828773e-14
4.889335989e-14
3.887121052e-14
3.129969673e-14
2.532858637e-14
2.049904106e-14
1.654779514e-14
1.330579627e-14
1.064815593e-14
8.471395258e-15
6.68684626e-15
5.221589065e-15
4.019966193e-15
3.041605303e-15
2.256433203e-15
1.639161067e-15
1.165646901e-15
8.117059114e-16
5.537850699e-16
3.702791624e-16
2.426051524e-16
1.556598121e-16
9.771092383e-17
5.994520433e-17
3.59148285e-17
2.100734805e-17
1.199767525e-17
6.688748813e-18
3.629117369e-18
1.893678588e-18
9.164398376e-19
3.738850562e-19
1.001774743e-19
1.192687311e-20
6.443881246e-06
9.831802278e-07
1.230436538e-07
2.656514373e-08
1.194062539e-08
7.017672546e-09
4.40618819e-09
2.820743887e-09
1.808481337e-09
1.154000154e-09
7.269858734e-10
4.513562855e-10
2.750954384e-10
1.646179149e-10
9.658467569e-11
5.566060695e-11
3.155472588e-11
1.767531505e-11
9.834310309e-12
5.476554302e-12
3.080128501e-12
1.768406448e-12
1.048920467e-12
6.505888071e-13
4.258785978e-13
2.950494021e-13
2.152727035e-13
1.636431466e-13
1.279811832e-13
1.018326026e-13
8.175901212e-14
6.588295273e-14
5.312072413e-14
4.278443142e-14
3.438408466e-14
2.753109584e-14
2.190678414e-14
1.726086822e-14
1.34133909e-14
1.024360042e-14
7.668104957e-15
5.618724284e-15
4.028790874e-15
2.827923548e-15
1.944443221e-15
1.310235997e-15
8.652029505e-16
5.595852208e-16
3.541713632e-16
2.191641803e-16
1.325113256e-16
7.825548786e-17
4.512976259e-17
2.539342201e-17
1.38826422e-17
7.2744243e-18
3.521816381e-18
1.430390936e-18
3.844074648e-19
4.793087333e-20
1.361608971e-05
2.770402062e-06
4.568359319e-07
8.601192663e-08
3.647438768e-08
2.175422445e-08
1.395814088e-08
9.081591325e-09
5.934187454e-09
3.875222413e-09
2.515595932e-09
1.617482913e-09
1.025884339e-09
6.405728273e-10
3.926064472e-10
2.360746702e-10
1.390688746e-10
8.036928224e-11
4.561658771e-11
2.554810987e-11
1.420264793e-11
7.917965794e-12
4.482989236e-12
2.618428106e-12
1.601671914e-12
1.036848237e-12
7.116002589e-13
5.142517478e-13
3.867415685e-13
2.989648336e-13
2.351670051e-13
1.868926779e-13
1.494039041e-13
1.198516333e-13
9.634083198e-14
7.746020163e-14
6.209688249e-14
4.940756366e-14
3.881877004e-14
2.998233633e-14
2.269338477e-14
1.680519161e-14
1.217229673e-14
8.628998005e-15
5.992713425e-15
4.079890506e-15
2.722867146e-15
1.780160346e-15
1.138988782e-15
7.125250076e-16
4.35554787e-16
2.600949891e-16
1.516777771e-16
8.625379195e-17
4.757037515e-17
2.505353929e-17
1.213266432e-17
4.906586971e-18
1.31789816e-18
1.734007271e-19
2.356012217e-05
7.019379601e-06
1.54249753e-06
2.895932801e-07
1.02123315e-07
5.698747903e-08
3.615937229e-08
2.367109694e-08
1.571480373e-08
1.050904528e-08
7.040163786e-09
4.702509581e-09
3.119164242e-09
2.048115382e-09
1.326868269e-09
8.461568583e-10
5.298424828e-10
3.253253042e-10
1.955392525e-10
1.151296281e-10
6.647364624e-11
3.781657523e-11
2.133101899e-11
1.206510852e-11
6.941180296e-12
4.133055934e-12
2.584176393e-12
1.709126211e-12
1.192775137e-12
8.701749746e-13
6.559065083e-13
5.05572095e-13
3.955639182e-13
3.127789641e-13
2.493805998e-13
2.000801453e-13
1.609375772e-13
1.290514563e-13
1.024973169e-13
8.015104396e-14
6.143374364e-14
4.603836343e-14
3.371061161e-14
2.413846382e-14
1.693122615e-14
1.165032332e-14
7.86709494e-15
5.209174958e-15
3.377509327e-15
2.141403581e-15
1.326350289e-15
8.021753503e-16
4.735017113e-16
2.722847613e-16
1.515996023e-16
8.037384033e-17
3.902647692e-17
1.578856939e-17
4.258261101e-18
5.952713966e-19
3.642318388e-05
1.578170216e-05
4.361356262e-06
9.978766516e-07
2.58284169e-07
1.204412582e-07
7.314630617e-08
4.79474761e-08
3.234277713e-08
2.212869154e-08
1.525190406e-08
1.054276558e-08
7.282781712e-09
5.012176494e-09
3.427148165e-09
2.321679312e-09
1.55354157e-09
1.023869697e-09
6.62667897e-10
4.203911535e-10
2.609801071e-10
1.585366571e-10
9.429866535e-11
5.511284285e-11
3.184384162e-11
1.839371793e-11
1.077240419e-11
6.503430941e-12
4.104311505e-12
2.72740335e-12
1.904274771e-12
1.38472029e-12
1.037701165e-12
7.946886491e-13
6.189000132e-13
4.88992427e-13
3.906044473e-13
3.134182138e-13
2.506313531e-13
1.981776457e-13
1.539230884e-13
1.169341148e-13
8.670612885e-14
6.275172298e-14
4.441914656e-14
3.083797744e-14
2.103106513e-14
1.408707514e-14
9.254477062e-15
5.95205914e-15
3.741675434e-15
2.296378093e-15
1.374451642e-15
8.004054644e-16
4.505745778e-16
2.411402406e-16
1.180083946e-16
4.818651303e-17
1.322310814e-17
1.978920641e-18
4.709694135e-05
2.600716217e-05
9.809084956e-06
2.719772931e-06
6.84197919e-07
2.436373359e-07
1.294396058e-07
8.19899582e-08
5.52023536e-08
3.816359098e-08
2.674850174e-08
1.888902823e-08
1.338923573e-08
9.501089118e-09
6.734416074e-09
4.758189362e-09
3.344142406e-09
2.332989421e-09
1.61144387e-09
1.098782653e-09
7.372918591e-10
4.85348966e-10
3.125569642e-10
1.966309223e-10
1.208945344e-10
7.285874449e-11
4.328197169e-11
2.558658859e-11
1.525515847e-11
9.324244908e-12
5.926505336e-12
3.947848687e-12
2.753031564e-12
1.99491408e-12
1.48900882e-12
1.13830196e-12
8.882755967e-13
7.033860608e-13
5.603168147e-13
4.450202107e-13
3.494429016e-13
2.693348462e-13
2.027660116e-13
1.487575001e-13
1.064544113e-13
7.456143443e-14
5.126765869e-14
3.464582054e-14
2.300043589e-14
1.497831777e-14
9.550623517e-15
5.952029015e-15
3.618434045e-15
2.13893457e-15
1.220652699e-15
6.614766864e-16
3.277015762e-16
1.358022282e-16
3.814469553e-17
6.114675511e-18
5.288653905e-05
3.293271003e-05
1.661860171e-05
5.966338067e-06
1.65802813e-06
4.969835211e-07
2.197180654e-07
1.28317774e-07
8.448292651e-08
5.835726004e-08
4.125236282e-08
2.95397083e-08
2.131699522e-08
1.54540052e-08
1.122960249e-08
8.163438089e-09
5.926511872e-09
4.289225746e-09
3.088954212e-09
2.20905706e-09
1.565193638e-09
1.096004573e-09
7.565572104e-10
5.132562505e-10
3.411708569e-10
2.217197674e-10
1.406755221e-10
8.725134051e-11
5.316686009e-11
3.212881565e-11
1.950804862e-11
1.208938818e-11
7.75841939e-12
5.199907309e-12
3.638539887e-12
2.641753963e-12
1.977793365e-12
1.518467592e-12
1.185643621e-12
9.325787431e-13
7.326318425e-13
5.70422726e-13
4.366417799e-13
3.262775309e-13
2.37129909e-13
1.680552681e-13
1.166383555e-13
7.945789596e-14
5.317160724e-14
3.494703158e-14
2.253941826e-14
1.424204918e-14
8.794819612e-15
5.285508079e-15
3.066797349e-15
1.689189773e-15
8.512806532e-16
3.603185593e-16
1.045087528e-16
1.800195402e-17
5.954920335e-05
3.962716839e-05
2.343485953e-05
1.049874578e-05
3.654017699e-06
1.064958086e-06
3.838221552e-07
1.973143793e-07
1.233365833e-07
8.381729825e-08
5.918485079e-08
4.267402845e-08
3.116589101e-08
2.295008696e-08
1.698952413e-08
1.261540798e-08
9.378680013e-09
6.969148442e-09
5.167887453e-09
3.817907487e-09
2.804532502e-09
2.045159264e-09
1.477132457e-09
1.05410282e-09
7.413031876e-10
5.124516769e-10
3.474593505e-10
2.306189571e-10
1.496489826e-10
9.49902571e-11
5.918524898e-11
3.649150961e-11
2.25631763e-11
1.422089445e-11
9.269664178e-12
6.296436718e-12
4.453082591e-12
3.262606378e-12
2.458068024e-12
1.887124716e-12
1.461712696e-12
1.133076279e-12
8.732281133e-13
6.639686287e-13
4.933637584e-13
3.562581109e-13
2.505921416e-13
1.724235028e-13
1.16329779e-13
7.7036522e-14
5.010140191e-14
3.199327884e-14
2.002400106e-14
1.22289068e-14
7.22429757e-15
4.058142954e-15
2.090663447e-15
9.10279245e-16
2.756970504e-16
5.114341336e-17
6.929297595e-05
4.778768268e-05
3.052524463e-05
1.636477244e-05
6.8638757e-06
2.278039823e-06
7.287941511e-07
3.128991667e-07
1.786072946e-07
1.172311095e-07
8.184055551e-08
5.899433853e-08
4.335744143e-08
3.226891269e-08
2.421774729e-08
1.827438554e-08
1.38343361e-08
1.048632449e-08
7.949948718e-09
6.018152549e-09
4.540707093e-09
3.408328411e-09
2.540190016e-09
1.875858985e-09
1.369622015e-09
9.865081736e-10
6.994558056e-10
4.872137277e-10
3.32819643e-10
2.226902986e-10
1.459416968e-10
9.381644043e-11
5.939201733e-11
3.733152813e-11
2.360328324e-11
1.524440434e-11
1.018193334e-11
7.066919757e-12
5.085940194e-12
3.76993288e-12
2.852673729e-12
2.181197384e-12
1.670779698e-12
1.273959309e-12
9.607825926e-13
7.103239679e-13
5.110873566e-13
3.57403711e-13
2.437214153e-13
1.626941374e-13
1.065902932e-13
6.862063636e-14
4.339128757e-14
2.685873343e-14
1.614033399e-14
9.25849575e-15
4.895993387e-15
2.207938707e-15
7.066417053e-16
1.416296443e-16
7.664633664e-05
5.621532896e-05
3.766302705e-05
2.275596407e-05
1.134973287e-05
4.708248503e-06
1.588753514e-06
5.627186864e-07
2.696456404e-07
1.633831596e-07
1.107054731e-07
7.902615964e-08
5.807766461e-08
4.346128295e-08
3.290063937e-08
2.51204955e-08
1.929537499e-08
1.487095462e-08
1.147662362e-08
8.854107837e-09
6.815971922e-09
5.226142519e-09
3.984221211e-09
3.014653642e-09
2.259698448e-09
1.674690461e-09
1.224691541e-09
8.820206792e-10
6.244480108e-10
4.339151623e-10
2.956401631e-10
1.97481718e-10
1.294865284e-10
8.362357287e-11
5.353990831e-11
3.433283202e-11
2.233147081e-11
1.491217041e-11
1.030377484e-11
7.372473186e-12
5.43397101e-12
4.088680202e-12
3.107627855e-12
2.364073501e-12
1.788078464e-12
1.337366162e-12
9.826857271e-13
7.045024917e-13
4.904757872e-13
3.318448844e-13
2.192308091e-13
1.421266379e-13
9.059828372e-14
5.667640396e-14
3.455398448e-14
2.022049838e-14
1.099849631e-14
5.169615871e-15
1.769900906e-15
3.855690306e-16
7.686594765e-05
6.134067263e-05
4.346344514e-05
2.852742173e-05
1.603945361e-05
7.89129818e-06
3.308197251e-06
1.173117085e-06
4.588545199e-07
2.359461752e-07
1.478482897e-07
1.021113977e-07
7.395676875e-08
5.524376454e-08
4.18584622e-08
3.22981038e-08
2.511894394e-08
1.962487647e-08
1.536315522e-08
1.202735156e-08
9.400231018e-09
7.323360753e-09
5.678294421e-09
4.374910677e-09
3.343769421e-09
2.530753765e-09
1.893263089e-09
1.397355552e-09
1.015656786e-09
7.258098018e-10
5.093127362e-10
3.506895482e-10
2.369665084e-10
1.573708319e-10
1.030837894e-10
6.701822017e-11
4.364340937e-11
2.879269054e-11
1.946151731e-11
1.358973365e-11
9.818218507e-12
7.298703093e-12
5.526215215e-12
4.211893736e-12
3.202474546e-12
2.413075264e-12
1.792497807e-12
1.307619104e-12
9.323919406e-13
6.464275437e-13
4.350495243e-13
2.851763934e-13
1.830889433e-13
1.154200974e-13
7.116353057e-14
4.237374599e-14
2.37068712e-14
1.168312198e-14
4.332915832e-15
1.035057208e-15
7.837722849e-05
6.571211973e-05
4.866303411e-05
3.379516588e-05
2.114157635e-05
1.148730831e-05
5.723144885e-06
2.465709155e-06
9.305623007e-07
3.881876627e-07
2.035346274e-07
1.274164993e-07
8.833646063e-08
6.486630319e-08
4.878130336e-08
3.770874615e-08
2.946299603e-08
2.317946934e-08
1.830388997e-08
1.447290709e-08
1.143773914e-08
9.020651488e-09
7.090217551e-09
5.546403171e-09
4.311652859e-09
3.325087987e-09
2.538822729e-09
1.915267572e-09
1.424722702e-09
1.043201387e-09
7.506993885e-10
5.303469352e-10
3.677821175e-10
2.505877554e-10
1.681445797e-10
1.115849024e-10
7.371792584e-11
4.892588955e-11
3.297860437e-11
2.281530845e-11
1.631165422e-11
1.205046667e-11
9.13504643e-12
7.023963337e-12
5.411684977e-12
4.137762359e-12
3.118059823e-12
2.305715216e-12
1.66971558e-12
1.181407974e-12
8.143250531e-13
5.455331232e-13
3.556663028e-13
2.26484347e-13
1.409747614e-13
8.516385332e-14
4.889629909e-14
2.531624567e-14
1.027161867e-14
2.725165027e-15
8.231295634e-05
7.120313333e-05
5.438436186e-05
3.921577952e-05
2.646841186e-05
1.577426823e-05
8.640346118e-06
4.442531337e-06
2.015037899e-06
8.024952514e-07
3.351572062e-07
1.684185689e-07
1.015996236e-07
6.970543111e-08
5.095429576e-08
3.86454636e-08
2.995715717e-08
2.353408181e-08
1.863622177e-08
1.482259985e-08
1.181119062e-08
9.410717499e-09
7.485359197e-09
5.935149328e-09
4.684307324e-09
3.674381039e-09
2.859587929e-09
2.203605416e-09
1.677550487e-09
1.25883778e-09
9.295916225e-10
6.745131789e-10
4.80346768e-10
3.358630293e-10
2.310516157e-10
1.569142818e-10