/*--------------------------------*- C++ -*----------------------------------*\
  =========                 |
  \\      /  F ield         | OpenFOAM: The Open Source CFD Toolbox
   \\    /   O peration     | Website:  https://openfoam.org
    \\  /    A nd           | Version:  10
     \\/     M anipulation  |
\*---------------------------------------------------------------------------*/
FoamFile
{
    format      ascii;
    class       volScalarField;
    location    "3000";
    object      NO2;
}
// * * * * * * * * * * * * * * * * * * * * * * * * * * * * * * * * * * * * * //

dimensions      [0 0 0 0 0 0 0];

internalField   nonuniform List<scalar> 
5170
(
2.138950229e-62
1.724785972e-62
1.068564168e-62
5.264745487e-63
4.174624619e-63
7.273348333e-60
5.801842552e-60
3.534842743e-60
2.038549824e-60
3.601241439e-60
2.499945692e-57
1.978874351e-57
1.200184332e-57
9.416782032e-58
2.839437022e-57
8.76255917e-55
6.926797157e-55
4.33350583e-55
4.848240659e-55
2.052482563e-54
3.130319437e-52
2.495064134e-52
1.672492777e-52
2.643995617e-52
1.383102891e-51
1.144316435e-49
9.312298169e-50
6.845047795e-50
1.484434094e-49
8.798877623e-49
4.275319315e-47
3.583055485e-47
3.00717269e-47
8.477298687e-47
5.402016293e-46
1.629969142e-44
1.422612921e-44
1.422463722e-44
4.902476182e-44
3.240010972e-43
6.357912172e-42
5.895443354e-42
7.075955266e-42
2.863856384e-41
1.909241659e-40
2.541478283e-39
2.54807193e-39
3.659691296e-39
1.692828808e-38
1.109843245e-37
1.038898023e-36
1.144556938e-36
1.956221667e-36
1.010794047e-35
6.384320656e-35
4.324561688e-34
5.326423487e-34
1.08162644e-33
6.089423534e-33
3.643988514e-32
1.826308439e-31
2.552247096e-31
6.206991462e-31
3.726581915e-30
2.068237884e-29
7.766403023e-29
1.248652054e-28
3.663945056e-28
2.320288316e-27
1.17012364e-26
3.312266742e-26
6.188213998e-26
2.194718892e-25
1.464328283e-24
6.611967218e-24
1.395075137e-23
3.059796779e-23
1.308109556e-22
9.069627691e-22
3.737186442e-21
5.776288683e-21
1.506406585e-20
7.565823259e-20
5.457714115e-19
2.117323832e-18
2.299492844e-18
7.246930883e-18
4.245043992e-17
3.129405613e-16
1.200199783e-15
8.430409827e-16
3.333386398e-15
2.244417494e-14
1.673264834e-13
6.816927202e-13
2.651014778e-13
1.48331513e-12
1.155506285e-11
8.192177786e-11
3.915794743e-10
1.21028445e-09
1.191173805e-09
1.178992493e-09
1.201224778e-09
1.213726125e-09
2.283466307e-09
2.116882987e-09
2.088364762e-09
2.15379273e-09
2.350046943e-09
3.128675925e-09
2.871032926e-09
2.831605716e-09
2.946156803e-09
3.259591682e-09
3.789720207e-09
3.48546701e-09
3.439630079e-09
3.598957603e-09
3.978534601e-09
4.313862365e-09
3.989257861e-09
3.941740264e-09
4.13994881e-09
4.559740118e-09
4.737899744e-09
4.412570087e-09
4.365476127e-09
4.594887397e-09
5.030174374e-09
5.093203022e-09
4.776916729e-09
4.734055256e-09
4.986087024e-09
5.417298444e-09
5.400184908e-09
5.096104494e-09
5.059806193e-09
5.326321264e-09
5.743338938e-09
5.671549914e-09
5.38050342e-09
5.352414555e-09
5.624844927e-09
6.024259453e-09
5.916686239e-09
5.63845937e-09
5.618736674e-09
5.891146639e-09
6.272962259e-09
6.142049394e-09
5.875857748e-09
5.863993071e-09
6.133627732e-09
6.499256837e-09
6.352612598e-09
6.097410487e-09
6.092568446e-09
6.358536611e-09
6.710235812e-09
6.552060811e-09
6.306750145e-09
6.308412287e-09
6.570656651e-09
6.910381226e-09
6.743178588e-09
6.507008026e-09
6.514746827e-09
6.773460923e-09
7.102704979e-09
6.927965027e-09
6.700226608e-09
6.713918399e-09
6.969349154e-09
7.289146382e-09
7.107732275e-09
6.888167026e-09
6.907285723e-09
7.159822182e-09
7.471642345e-09
7.282391256e-09
7.072142628e-09
7.097465796e-09
7.347037869e-09
7.651773781e-09
7.448396527e-09
7.253441156e-09
7.288220085e-09
7.534588827e-09
7.830947266e-09
7.626866214e-09
7.443429903e-09
7.487597015e-09
7.729962787e-09
8.017032383e-09
1.036967861e-08
8.14326196e-09
7.860384732e-09
8.05827214e-09
8.494017036e-09
1.051862791e-11
8.161954059e-11
1.254803251e-09
1.865920499e-08
2.282208932e-07
6.599308029e-11
4.559522928e-10
5.742970012e-09
6.285146549e-08
4.524644533e-07
2.459359094e-10
1.52873604e-09
1.610799501e-08
1.346855238e-07
6.351059291e-07
7.29399959e-10
4.137233163e-09
3.682104812e-08
2.357041638e-07
7.842592588e-07
1.843341858e-09
9.563407388e-09
7.152793098e-08
3.558366418e-07
9.167065955e-07
4.193777162e-09
1.97705804e-08
1.241134612e-07
4.8864242e-07
1.032980485e-06
9.111456564e-09
3.914625358e-08
2.030418761e-07
6.28309718e-07
1.139261154e-06
1.90350415e-08
7.427230505e-08
3.09313067e-07
7.694259014e-07
1.248343853e-06
3.799880821e-08
1.316860227e-07
4.363531853e-07
9.084435981e-07
1.358825501e-06
7.19219455e-08
2.156472825e-07
5.764505675e-07
1.044788074e-06
1.464909939e-06
1.309816081e-07
3.264620409e-07
7.221115727e-07
1.17974723e-06
1.570380439e-06
2.209841778e-07
4.584357406e-07
8.717811601e-07
1.315488789e-06
1.677287689e-06
3.472705937e-07
6.106353651e-07
1.02606956e-06
1.448918803e-06
1.778184323e-06
5.16733401e-07
7.851492802e-07
1.186119068e-06
1.577946503e-06
1.868843549e-06
7.362418493e-07
9.859475888e-07
1.354637042e-06
1.70468752e-06
1.952303945e-06
1.005850907e-06
1.218342449e-06
1.538124093e-06
1.836924865e-06
2.037616136e-06
1.319373157e-06
1.485859336e-06
1.744690707e-06
1.983978698e-06
2.13374377e-06
1.661834905e-06
1.782834452e-06
1.975700838e-06
2.14905111e-06
2.24335041e-06
2.012933067e-06
2.092261547e-06
2.218331094e-06
2.322723912e-06
2.359173965e-06
2.343757587e-06
2.386902375e-06
2.45124985e-06
2.490664712e-06
2.472101473e-06
2.624197526e-06
2.638563611e-06
2.652313394e-06
2.637316645e-06
2.571142246e-06
2.836805105e-06
2.830554836e-06
2.8076167e-06
2.751401396e-06
2.646985387e-06
2.980996945e-06
2.961636023e-06
2.91375433e-06
2.828401576e-06
2.695473246e-06
3.065188755e-06
3.037548625e-06
2.973460936e-06
2.867794662e-06
2.714919467e-06
3.099901019e-06
3.066404016e-06
2.990342379e-06
2.870367143e-06
2.701339327e-06
3.091585159e-06
3.05351974e-06
2.968126056e-06
2.833626367e-06
2.648588575e-06
3.033203799e-06
2.99032595e-06
2.894720697e-06
2.74588375e-06
2.543560315e-06
2.907857224e-06
2.859759232e-06
2.753400963e-06
2.590237493e-06
2.373098026e-06
2.690473148e-06
2.638207706e-06
2.524011417e-06
2.350749268e-06
2.123146922e-06
2.360507416e-06
2.305366699e-06
2.185341827e-06
2.008294873e-06
1.782895662e-06
1.913630587e-06
1.860291697e-06
1.746096439e-06
1.581950135e-06
1.381146568e-06
1.38658421e-06
1.342180089e-06
1.249438721e-06
1.119436227e-06
9.629507202e-07
8.606649783e-07
8.30401238e-07
7.674328496e-07
6.88217723e-07
5.907876769e-07
4.680265075e-07
4.521462162e-07
4.212381166e-07
3.776731692e-07
3.260238702e-07
2.338024385e-07
2.266401346e-07
2.118536082e-07
1.913044462e-07
1.671614961e-07
1.113030707e-07
1.082503638e-07
1.01872256e-07
9.299901476e-08
8.250404345e-08
5.227435067e-08
5.101713724e-08
4.837840395e-08
4.468669399e-08
4.028607292e-08
2.474790142e-08
2.424783009e-08
2.319795749e-08
2.173023809e-08
1.998759556e-08
1.220431683e-08
1.203194204e-08
1.16757006e-08
1.119436434e-08
1.065853468e-08
6.885295683e-09
6.874140331e-09
6.864147125e-09
6.888412028e-09
6.995366707e-09
5.526250018e-09
5.62393811e-09
5.850116002e-09
6.223952804e-09
6.778625334e-09
6.990697595e-09
7.158365317e-09
7.532892997e-09
8.11767174e-09
8.929794689e-09
1.021270658e-08
1.041974977e-08
1.087926044e-08
1.158917876e-08
1.256234564e-08
1.471106229e-08
1.495052672e-08
1.54808755e-08
1.62972097e-08
1.741076866e-08
2.048042065e-08
2.075080266e-08
2.13488684e-08
2.226883745e-08
2.352078111e-08
2.76748501e-08
2.797683519e-08
2.86444193e-08
2.966867657e-08
3.105976655e-08
3.6483365e-08
3.681778113e-08
3.755695541e-08
3.869077268e-08
4.023038497e-08
4.713907579e-08
4.751012111e-08
4.833046662e-08
4.958934495e-08
5.129986906e-08
5.995401614e-08
6.036955091e-08
6.128863423e-08
6.26999033e-08
6.461868581e-08
7.534906599e-08
7.581911164e-08
7.685905902e-08
7.84569142e-08
8.063171513e-08
9.386483489e-08
9.440316789e-08
9.559166016e-08
9.742687188e-08
9.992284907e-08
1.162115312e-07
1.168345703e-07
1.182132627e-07
1.203324948e-07
1.232180291e-07
1.432689991e-07
1.439954292e-07
1.456028448e-07
1.480732898e-07
1.514367784e-07
1.761135853e-07
1.769697364e-07
1.788642754e-07
1.817761939e-07
1.857410823e-07
2.159728896e-07
2.169897158e-07
2.192398119e-07
2.226981966e-07
2.274070125e-07
2.643276767e-07
2.655424805e-07
2.682306371e-07
2.723620599e-07
2.77986608e-07
3.230516823e-07
3.245100824e-07
3.277370966e-07
3.326959955e-07
3.394455191e-07
3.945591309e-07
3.96316748e-07
4.002054153e-07
4.061795686e-07
4.143077528e-07
4.819209998e-07
4.840442522e-07
4.887409441e-07
4.959535545e-07
5.057607492e-07
5.889471785e-07
5.915124161e-07
5.971850997e-07
6.058914062e-07
6.177193292e-07
7.202093043e-07
7.232992752e-07
7.301294953e-07
7.40604113e-07
7.548180504e-07
8.810377101e-07
8.847353709e-07
8.929046049e-07
9.054205089e-07
9.223806087e-07
1.077329673e-06
1.081708416e-06
1.09137643e-06
1.106171952e-06
1.12618893e-06
1.315432624e-06
1.320546553e-06
1.331830304e-06
1.349077491e-06
1.372370921e-06
1.601424031e-06
1.607295215e-06
1.620240722e-06
1.640002966e-06
1.666645541e-06
1.941329789e-06
1.94794371e-06
1.962516736e-06
1.984735668e-06
2.014637265e-06
2.338861557e-06
2.34615383e-06
2.362210343e-06
2.386661418e-06
2.419511127e-06
2.797038106e-06
2.804907357e-06
2.822223157e-06
2.848561782e-06
2.883890598e-06
3.304666345e-06
3.312951531e-06
3.331171128e-06
3.358855593e-06
3.39593623e-06
3.793953875e-06
3.802482275e-06
3.821229242e-06
3.849692773e-06
3.88777408e-06
3.303704152e-07
5.809008856e-07
8.091956398e-07
9.899942048e-07
1.126131382e-06
1.231503327e-06
1.329680098e-06
1.430380345e-06
1.527296672e-06
1.615833603e-06
1.704676912e-06
1.795646245e-06
1.87907033e-06
1.95024583e-06
2.013454098e-06
2.077759852e-06
2.151279298e-06
2.235888008e-06
2.324206377e-06
2.410081674e-06
2.484256399e-06
2.539467615e-06
2.572144846e-06
2.578933429e-06
2.554795934e-06
2.49115627e-06
2.375102117e-06
2.196688341e-06
1.943882085e-06
1.611195123e-06
1.234331237e-06
8.524719113e-07
5.227600244e-07
2.902812541e-07
1.503767335e-07
7.511326009e-08
3.715838326e-08
1.876270537e-08
1.032614738e-08
7.162230837e-09
7.288977238e-09
9.630211923e-09
1.339000266e-08
1.835237296e-08
2.457592447e-08
3.223011662e-08
4.152552344e-08
5.274000105e-08
6.623587727e-08
8.246656244e-08
1.020310266e-07
1.256469048e-07
1.542750435e-07
1.890871478e-07
2.31380621e-07
2.827321024e-07
3.451382515e-07
4.211595107e-07
5.140209791e-07
6.27669945e-07
7.667578679e-07
9.366010674e-07
1.142937489e-06
1.391817314e-06
1.68883694e-06
2.039486655e-06
2.4467514e-06
2.913126489e-06
3.426566101e-06
3.919184846e-06
3.136505767e-07
3.80076494e-08
1.413588798e-08
1.843718378e-08
5.023214688e-08
6.009801857e-07
2.943886184e-07
3.617885661e-08
4.191571061e-08
2.434654697e-07
9.113162148e-07
6.846755147e-07
7.384971821e-08
7.788150406e-08
6.286111712e-07
1.161098849e-06
8.63118248e-07
9.047069656e-08
6.784429442e-08
4.48164842e-07
1.316114636e-06
9.626111345e-07
1.410544402e-07
5.403185855e-08
2.907137656e-07
1.417831611e-06
1.068027533e-06
2.716846969e-07
5.481483448e-08
1.48738613e-07
1.516654098e-06
1.206728848e-06
4.288270396e-07
7.402992333e-08
9.781561957e-08
1.614163382e-06
1.324416729e-06
5.516201556e-07
9.547701051e-08
7.132752747e-08
1.696710713e-06
1.412892765e-06
6.746544534e-07
1.364755367e-07
5.960767767e-08
1.763599843e-06
1.483456906e-06
7.920023881e-07
2.002030503e-07
6.212753811e-08
1.831827614e-06
1.559303739e-06
9.073975611e-07
2.752388058e-07
7.410425147e-08
1.903064612e-06
1.636082379e-06
1.016116153e-06
3.538821596e-07
9.170544698e-08
1.965009497e-06
1.701282685e-06
1.113847297e-06
4.41597957e-07
1.207673135e-07
2.012147629e-06
1.748210437e-06
1.190065182e-06
5.300145536e-07
1.613710477e-07
2.050692578e-06
1.78532973e-06
1.251894702e-06
6.096386114e-07
2.056582147e-07
2.089349275e-06
1.81953555e-06
1.305034896e-06
6.804155778e-07
2.511746529e-07
2.134951034e-06
1.855485775e-06
1.352692839e-06
7.41869571e-07
2.94452252e-07
2.188244893e-06
1.892463497e-06
1.39333486e-06
7.926531912e-07
3.33455227e-07
2.240909539e-06
1.922997878e-06
1.420622208e-06
8.286088319e-07
3.660185382e-07
2.291696212e-06
1.944801144e-06
1.43368275e-06
8.500426489e-07
3.91754303e-07
2.333855575e-06
1.95683468e-06
1.435435963e-06
8.610605765e-07
4.120784019e-07
2.362153188e-06
1.958241827e-06
1.428849342e-06
8.653098816e-07
4.274239031e-07
2.373696176e-06
1.947402527e-06
1.412987835e-06
8.617031854e-07
4.370773639e-07
2.363491101e-06
1.918792963e-06
1.382384146e-06
8.461224767e-07
4.389010772e-07
2.324910859e-06
1.865025542e-06
1.330182428e-06
8.133584168e-07
4.291919111e-07
2.246319626e-06
1.770184282e-06
1.245956506e-06
7.575396365e-07
4.049632722e-07
2.116069533e-06
1.634963545e-06
1.127400087e-06
6.783236194e-07
3.664924035e-07
1.928734794e-06
1.455698523e-06
9.772753161e-07
5.811061015e-07
3.173171304e-07
1.675213527e-06
1.226831965e-06
8.021661221e-07
4.738102333e-07
2.622780058e-07
1.356787217e-06
9.649456611e-07
6.187658998e-07
3.664098881e-07
2.067240068e-07
1.020871768e-06
7.053051614e-07
4.4863282e-07
2.687608795e-07
1.555092505e-07
6.944030493e-07
4.752144786e-07
3.047370987e-07
1.865841415e-07
1.115624457e-07
4.259945126e-07
2.949446811e-07
1.935138993e-07
1.224003749e-07
7.633191132e-08
2.394582024e-07
1.701703792e-07
1.155389384e-07
7.622368228e-08
5.018582905e-08
1.264275138e-07
9.299445587e-08
6.58342933e-08
4.576609744e-08
3.244620134e-08
6.45211517e-08
4.931909063e-08
3.669123261e-08
2.736400622e-08
2.16303939e-08
3.266875685e-08
2.615611444e-08
2.08413596e-08
1.730101522e-08
1.600693028e-08
1.701913229e-08
1.463194593e-08
1.303766826e-08
1.271490936e-08
1.406575233e-08
9.886198037e-09
9.610877174e-09
1.010785284e-08
1.171701119e-08
1.459084197e-08
7.464101218e-09
8.492015528e-09
1.029912371e-08
1.302640542e-08
1.680932461e-08
8.093904761e-09
9.933695602e-09
1.248831815e-08
1.589181459e-08
2.030569935e-08
1.071143461e-08
1.301392522e-08
1.6051567e-08
1.995834728e-08
2.490179039e-08
1.466093082e-08
1.731695491e-08
2.076068659e-08
2.512490513e-08
3.058215667e-08
1.979470421e-08
2.278277894e-08
2.66219198e-08
3.144812874e-08
3.744462592e-08
2.618969341e-08
2.951459544e-08
3.376403297e-08
3.908374464e-08
4.567489751e-08
3.401858368e-08
3.769740561e-08
4.239151905e-08
4.826171063e-08
5.55351972e-08
4.350419097e-08
4.757798704e-08
5.278034701e-08
5.929570833e-08
6.738172862e-08
5.494050004e-08
5.948047629e-08
6.529053928e-08
7.258330284e-08
8.164982635e-08
6.870754463e-08
7.381930024e-08
8.037597886e-08
8.862433766e-08
9.88998109e-08
8.527147316e-08
9.108401956e-08
9.855394741e-08
1.079744386e-07
1.196934711e-07
1.052530411e-07
1.119190913e-07
1.205008735e-07
1.312915996e-07
1.447270817e-07
1.293567831e-07
1.370627616e-07
1.469467259e-07
1.59377999e-07
1.748278011e-07
1.586123809e-07
1.676064137e-07
1.791504707e-07
1.936587285e-07
2.116749255e-07
1.942001104e-07
2.048031028e-07
2.184099412e-07
2.355030175e-07
2.567129853e-07
2.374518958e-07
2.500407971e-07
2.661894865e-07
2.864614709e-07
3.115887004e-07
2.899817714e-07
3.050084575e-07
3.242701822e-07
3.484235486e-07
3.783146129e-07
3.538333772e-07
3.71843215e-07
3.949022419e-07
4.23770424e-07
4.594174848e-07
4.316221133e-07
4.532677673e-07
4.809347539e-07
5.154924848e-07
5.580373907e-07
5.266295232e-07
5.526702094e-07
5.858755391e-07
6.272226093e-07
6.779267419e-07
6.428509326e-07
6.74131129e-07
7.138919559e-07
7.632047645e-07
8.233811656e-07
7.84961837e-07
8.223584474e-07
8.697076382e-07
9.281470238e-07
9.99044961e-07
9.582653527e-07
1.002611375e-06
1.058501503e-06
1.127096963e-06
1.209767725e-06
1.168431117e-06
1.220405436e-06
1.285576211e-06
1.365073593e-06
1.460202905e-06
1.421389806e-06
1.481421846e-06
1.556292072e-06
1.647038404e-06
1.754831174e-06
1.722552256e-06
1.790694138e-06
1.875217224e-06
1.977006872e-06
2.097032541e-06
2.077204565e-06
2.15310978e-06
2.246761491e-06
2.358839321e-06
2.490056855e-06
2.488062918e-06
2.570855541e-06
2.672489075e-06
2.793400115e-06
2.934011609e-06
2.957425598e-06
3.045868588e-06
3.153923779e-06
3.281762235e-06
3.429498656e-06
3.472947084e-06
3.56521532e-06
3.677468847e-06
3.809622404e-06
3.961500641e-06
3.966721225e-06
4.061023939e-06
4.175365332e-06
4.309444575e-06
4.462845889e-06
9.621724802e-08
1.343833463e-08
2.107013997e-09
4.539150943e-10
1.363235893e-10
5.226249227e-11
2.523348906e-11
1.487120877e-11
9.775803396e-12
6.724501301e-12
4.703255632e-12
3.314078988e-12
2.34780966e-12
1.673323365e-12
1.202106212e-12
8.723403401e-13
6.40811557e-13
4.771595832e-13
3.603475226e-13
2.759095231e-13
2.140466373e-13
1.681441024e-13
1.337027317e-13
1.075867659e-13
8.754097557e-14
7.189054768e-14
5.938307658e-14
4.911324681e-14
4.047077356e-14
3.308317076e-14
2.674779035e-14
2.136023855e-14
1.685362583e-14
1.315871768e-14
1.018625756e-14
7.828255798e-15
5.970882076e-15
4.509737474e-15
3.360046737e-15
2.458806569e-15
1.760454524e-15
1.230152686e-15
8.382515203e-16
5.575036515e-16
3.626964343e-16
2.315091758e-16
1.454457933e-16
9.018245815e-17
5.528832064e-17
3.354068886e-17
2.01284396e-17
1.193515897e-17
6.977677014e-18
4.007647699e-18
2.245143775e-18
1.206662823e-18
5.956828857e-19
2.429710388e-19
5.836800459e-20
4.926180659e-21
3.531239094e-07
5.025036764e-08
8.263795638e-09
2.077828718e-09
8.617383539e-10
4.796026445e-10
2.983839516e-10
1.951756172e-10
1.28360103e-10
8.458983883e-11
5.542595031e-11
3.628532068e-11
2.380292165e-11
1.573401062e-11
1.053082173e-11
7.167158262e-12
4.976014681e-12
3.530066833e-12
2.560073078e-12
1.896465857e-12
1.43323193e-12
1.103697967e-12
8.652851074e-13
6.899075974e-13
5.584920718e-13
4.576525805e-13
3.779169965e-13
3.127605769e-13
2.57978296e-13
2.11102014e-13
1.70852153e-13
1.366021059e-13
1.079487183e-13
8.445878232e-14
6.556139057e-14
5.055973261e-14
3.871886653e-14
2.936918062e-14
2.197435235e-14
1.614366471e-14
1.159997176e-14
8.132557237e-15
5.559508913e-15
3.709799114e-15
2.422216733e-15
1.55236382e-15
9.796787912e-16
6.104415917e-16
3.761988343e-16
2.294287283e-16
1.383987532e-16
8.247279519e-17
4.844294551e-17
2.794117617e-17
1.570615201e-17
8.459206888e-18
4.182928167e-18
1.718143928e-18
4.443981452e-19
4.750154117e-20
1.250125396e-06
1.579855691e-07
2.301890108e-08
7.742371222e-09
4.28239734e-09
2.785614713e-09
1.850430571e-09
1.241824545e-09
8.233620244e-10
5.431071978e-10
3.533780637e-10
2.282445049e-10
1.463254219e-10
9.369262057e-11
6.020945909e-11
3.909842271e-11
2.581426583e-11
1.741675196e-11
1.205056098e-11
8.561878407e-12
6.246931258e-12
4.676797895e-12
3.589218205e-12
2.819131081e-12
2.259848298e-12
1.840629248e-12
1.514350595e-12
1.250356598e-12
1.029855916e-12
8.42189036e-13
6.818189514e-13
5.459303416e-13
4.32632869e-13
3.399452333e-13
2.65403028e-13
2.0611024e-13
1.590830856e-13
1.216588795e-13
9.176135069e-14
6.792749737e-14
4.91544821e-14
3.468831183e-14
2.386195259e-14
1.602140236e-14
1.052746137e-14
6.792694e-15
4.318275444e-15
2.711950448e-15
1.685137262e-15
1.036388478e-15
6.304388154e-16
3.787323861e-16
2.241483891e-16
1.301536498e-16
7.353905878e-17
3.970676486e-17
1.963232915e-17
8.030941513e-18
2.103797633e-18
2.386734477e-19
3.3437398e-06
1.01749562e-06
1.362290617e-07
3.456047764e-08
1.854819691e-08
1.213969134e-08
8.156581053e-09
5.477087547e-09
3.650448832e-09
2.41674852e-09
1.583868633e-09
1.029363821e-09
6.628736558e-10
4.243876466e-10
2.707180974e-10
1.730132337e-10
1.113417217e-10
7.264899291e-11
4.834171144e-11
3.297752551e-11
2.314173292e-11
1.673716632e-11
1.248118252e-11
9.584651172e-12
7.553581251e-12
6.074045893e-12
4.947904911e-12
4.052703687e-12
3.316235976e-12
2.698316975e-12
2.177529135e-12
1.741844593e-12
1.382612109e-12
1.091255926e-12
8.581568641e-13
6.72844742e-13
5.251211765e-13
4.063172238e-13
3.100340015e-13
2.320569129e-13
1.696863573e-13
1.209412327e-13
8.3998157e-14
5.69378074e-14
3.777687986e-14
2.461984174e-14
1.581448168e-14
1.003822333e-14
6.305225503e-15
3.920029534e-15
2.410445685e-15
1.463520741e-15
8.749755994e-16
5.126969599e-16
2.917317401e-16
1.580687642e-16
7.812296469e-17
3.175894904e-17
8.295684722e-18
9.714769197e-19
2.789836456e-06
2.67400227e-06
5.681045043e-07
1.279642557e-07
6.204825168e-08
3.977344933e-08
2.682646952e-08
1.816121536e-08
1.227206196e-08
8.26464115e-09
5.534261392e-09
3.681752472e-09
2.429499613e-09
1.591168334e-09
1.034151675e-09
6.687976183e-10
4.313574971e-10
2.789454789e-10
1.817814855e-10
1.202761133e-10
8.132420116e-11
5.65709158e-11
4.064923448e-11
3.021563398e-11
2.317312231e-11
1.822524418e-11
1.457839811e-11
1.176102038e-11
9.502448956e-12
7.652062142e-12
6.126221389e-12
4.874552429e-12
3.860382135e-12
3.050343417e-12
2.410393869e-12
1.905852382e-12
1.504273043e-12
1.179165967e-12
9.120714307e-13
6.919018602e-13
5.124897034e-13
3.6979271e-13
2.599154929e-13
1.782904304e-13
1.197464729e-13
7.904208696e-14
5.144524004e-14
3.309008371e-14
2.105649328e-14
1.325608025e-14
8.249633215e-15
5.066922833e-15
3.062849739e-15
1.812882825e-15
1.040029511e-15
5.662204345e-16
2.799752144e-16
1.133323227e-16
2.948897522e-17
3.605741069e-18
1.065119728e-06
4.600153091e-06
1.926521088e-06
4.45617914e-07
1.756462689e-07
1.043659544e-07
6.940375357e-08
4.727858443e-08
3.249485654e-08
2.241757555e-08
1.546579412e-08
1.063994936e-08
7.283223235e-09
4.954240248e-09
3.344304913e-09
2.240044951e-09
1.488916371e-09
9.838271703e-10
6.476781737e-10
4.270116835e-10
2.836165121e-10
1.914394434e-10
1.323532708e-10
9.440435504e-11
6.963395503e-11
5.298712396e-11
4.127544478e-11
3.260547821e-11
2.589293102e-11
2.054799477e-11
1.624698116e-11
1.279613162e-11
1.005672097e-11
7.910753514e-12
6.247374004e-12
4.958862288e-12
3.946085325e-12
3.129197283e-12
2.45395382e-12
1.889244389e-12
1.420010929e-12
1.03893298e-12
7.396853228e-13
5.13582814e-13
3.491635618e-13
2.334852579e-13
1.54114352e-13
1.006037786e-13
6.49788559e-14
4.150193162e-14
2.618046875e-14
1.628308052e-14
9.957072355e-15
5.95536319e-15
3.447412801e-15
1.889869993e-15
9.382340534e-16
3.807338742e-16
9.945729946e-17
1.282995106e-17
5.287192293e-07
3.990646635e-06
4.14745098e-06
1.38609881e-06
4.363048456e-07
2.207262367e-07
1.410348222e-07
9.621679877e-08
6.717735935e-08
4.740245057e-08
3.361738592e-08
2.388387203e-08
1.695893999e-08
1.201306642e-08
8.476447257e-09
5.949336566e-09
4.147647226e-09
2.869513188e-09
1.969136492e-09
1.341930766e-09
9.103298294e-10
6.17752728e-10
4.220189982e-10
2.927317342e-10
2.077902636e-10
1.517944059e-10
1.140523702e-10
8.764117338e-11
6.825434597e-11
5.341594587e-11
4.175876274e-11
3.253835662e-11
2.529797596e-11
1.969063736e-11
1.540888649e-11
1.216375613e-11
9.678609157e-12
7.717263043e-12
6.114816435e-12
4.773202699e-12
3.64395425e-12
2.708537141e-12
1.956941894e-12
1.37619095e-12
9.461121999e-13
6.395762543e-13
4.271422179e-13
2.82501737e-13
1.850743013e-13
1.199652155e-13
7.679531484e-14
4.843659275e-14
3.000521813e-14
1.815822005e-14
1.062408504e-14
5.883643251e-15
2.950882653e-15
1.213450455e-15
3.235526636e-16
4.448535096e-17
2.858862759e-07
1.751767871e-06
5.560183982e-06
3.266825231e-06
1.099709902e-06
4.420335355e-07
2.50487304e-07
1.658736425e-07
1.158155554e-07
8.266415868e-08
5.964185101e-08
4.327248323e-08
3.148252588e-08
2.292704562e-08
1.66908782e-08
1.213331866e-08
8.797872501e-09
6.357034021e-09
4.571995434e-09
3.269162382e-09
2.322355025e-09
1.63930866e-09
1.15160398e-09
8.083126162e-10
5.703802563e-10
4.076496042e-10
2.96878083e-10
2.20940113e-10
1.676852059e-10
1.290616295e-10
9.999607402e-11
7.753787221e-11
6.000561299e-11
4.638127586e-11
3.592091694e-11
2.800406971e-11
2.205031282e-11
1.749324904e-11
1.388186379e-11
1.09256514e-11
8.457816755e-12
6.394938167e-12
4.702531236e-12
3.359861227e-12
2.339866313e-12
1.598483625e-12
1.077796824e-12
7.198787902e-13
4.76811235e-13
3.129105296e-13
2.030349914e-13
1.298890775e-13
8.161865808e-14
5.008106832e-14
2.96932243e-14
1.666625315e-14
8.486153884e-15
3.56008064e-15
9.778493285e-16
1.438183137e-16
1.712829069e-07
9.081669456e-07
4.205417234e-06
5.020347366e-06
2.359013804e-06
8.66030663e-07
4.220085059e-07
2.612823644e-07
1.795576111e-07
1.285225123e-07
9.372467897e-08
6.90216937e-08
5.111420034e-08
3.797663442e-08
2.826650273e-08
2.105387225e-08
1.567765271e-08
1.16607976e-08
8.655402627e-09
6.405577706e-09
4.722340797e-09
3.46578568e-09
2.531922246e-09
1.841712441e-09
1.335602328e-09
9.684908912e-10
7.050129265e-10
5.177714437e-10
3.852661092e-10
2.909313691e-10
2.225033053e-10
1.715867062e-10
1.327873604e-10
1.028079242e-10
7.956889658e-11
6.164422138e-11
4.796423601e-11
3.757657304e-11
2.956004777e-11
2.320447232e-11
1.805719524e-11
1.384160447e-11
1.038067334e-11
7.574106405e-12
5.36828546e-12
3.716670023e-12
2.532255351e-12
1.705935534e-12
1.139009163e-12
7.540427426e-13
4.944056002e-13
3.202443405e-13
2.040907932e-13
1.271486458e-13
7.660390357e-14
4.373867795e-14
2.272156659e-14
9.792366211e-15
2.80203745e-15
4.439928399e-16
1.096202435e-07
4.941717786e-07
2.361663505e-06
5.359840071e-06
3.970780462e-06
1.657328918e-06
7.088468799e-07
3.995444912e-07
2.649653984e-07
1.882268961e-07
1.377962222e-07
1.024410926e-07
7.683393171e-08
5.794327295e-08
4.384852626e-08
3.325249316e-08
2.524433588e-08
1.916872561e-08
1.454634325e-08
1.102292575e-08
8.332875552e-09
6.281406971e-09
4.717851741e-09
3.529194893e-09
2.62951452e-09
1.953012683e-09
1.448686175e-09
1.07595297e-09
8.025263968e-10
6.029607769e-10
4.572679937e-10
3.501846781e-10
2.704384154e-10
2.100564227e-10
1.636269888e-10
1.275420516e-10
9.935340565e-11
7.739855313e-11
6.03390336e-11
4.700022586e-11
3.642321708e-11
2.796738342e-11
2.120403932e-11
1.579435576e-11
1.14752086e-11
8.108697394e-12
5.603858927e-12
3.813724352e-12
2.566230174e-12
1.710271623e-12
1.129350963e-12
7.381225442e-13
4.759595125e-13
3.008708906e-13
1.844056725e-13
1.074354423e-13
5.720177921e-14
2.550561708e-14
7.70097341e-15
1.32445399e-15
7.8584569e-08
2.895373513e-07
1.284707137e-06
4.454103674e-06
5.236272899e-06
2.992234823e-06
1.25947871e-06
6.245554705e-07
3.87832576e-07
2.694485426e-07
1.963172845e-07
1.463804375e-07
1.105838587e-07
8.421969482e-08
6.447792952e-08
4.953453194e-08
3.813876223e-08
2.939640976e-08
2.267414591e-08
1.748543799e-08
1.346697571e-08
1.034868351e-08
7.927338305e-09
6.048914705e-09
4.595597367e-09
3.47637559e-09
2.620163317e-09
1.970585296e-09
1.482112813e-09
1.117883585e-09
8.481125145e-10
6.487190627e-10
5.007530198e-10
3.899175837e-10
3.057889526e-10
2.409321097e-10
1.900954652e-10
1.496723307e-10
1.173058476e-10
9.141042624e-11
7.077302084e-11
5.432425997e-11
4.125170297e-11
3.095055999e-11
2.289188332e-11
1.659647971e-11
1.174287941e-11
8.120262709e-12
5.517495897e-12
3.701545528e-12
2.458235792e-12
1.616847322e-12
1.051410102e-12
6.725403713e-13
4.188654634e-13
2.492204563e-13
1.364763346e-13
6.335767309e-14
2.043834875e-14
3.850223497e-15
6.45533889e-08
1.902468446e-07
7.654325501e-07
2.945308321e-06
5.413811941e-06
4.542685843e-06
2.341949348e-06
1.06159882e-06
5.840531374e-07
3.835129124e-07
2.739230568e-07
2.030638211e-07
1.535171953e-07
1.174225122e-07
9.046264678e-08
7.009117778e-08
5.45405007e-08
4.255133358e-08
3.324409695e-08
2.598270778e-08
2.02910443e-08
1.581571423e-08
1.229165274e-08
9.516946758e-09
7.33591824e-09
5.627357743e-09
4.295959964e-09
3.26584793e-09
2.47575948e-09
1.875626442e-09
1.424216597e-09
1.087508448e-09
8.375494116e-10
6.518872968e-10
5.130004615e-10
4.076559746e-10
3.261135507e-10
2.614561745e-10
2.09032855e-10
1.658664275e-10
1.302200859e-10
1.010074492e-10
7.732939185e-11
5.839850753e-11
4.351357851e-11
3.198558022e-11
2.313285787e-11
1.639418779e-11
1.135661251e-11
7.706465436e-12
5.149480062e-12
3.403225265e-12
2.226302645e-12
1.436644943e-12
9.066369027e-13
5.501555382e-13
3.103013807e-13
1.507828596e-13
5.257355021e-14
1.096406129e-14
5.821901789e-08
1.316002442e-07
4.754046886e-07
1.803831482e-06
4.776310324e-06
5.406013098e-06
3.847570316e-06
1.953155175e-06
9.571051281e-07
5.573953629e-07
3.745106261e-07
2.701029769e-07
2.014089394e-07
1.535226669e-07
1.180765683e-07
9.214679889e-08
7.234423214e-08
5.70073515e-08
4.50076281e-08
3.555401668e-08
2.806981026e-08
2.212559114e-08
1.739553941e-08
1.362928498e-08
1.063272804e-08
8.254072961e-09
6.373612046e-09
4.895862926e-09
3.743724086e-09
2.854104406e-09
2.174644495e-09
1.66139829e-09
1.277410134e-09
9.919743462e-10
7.800530964e-10
6.216861796e-10
5.014740741e-10
4.079360956e-10
3.328849518e-10
2.708972733e-10
2.185625453e-10
1.740081461e-10
1.362934599e-10
1.048295545e-10
7.922150017e-11
5.890035677e-11
4.311161326e-11
3.107481088e-11
2.201285174e-11
1.526963356e-11
1.036444401e-11
6.906745864e-12
4.539665306e-12
2.946242636e-12
1.877716003e-12
1.158766952e-12
6.727224442e-13
3.437363607e-13
1.309109688e-13
3.053617502e-14
5.98525168e-08
9.623169354e-08
3.089270384e-07
1.120845775e-06
3.537940819e-06
5.590289062e-06
5.067666472e-06
3.374963943e-06
1.744885618e-06
8.811639969e-07
5.107186893e-07
3.373817454e-07
2.414157116e-07
1.808829016e-07
1.3797759e-07
1.077606359e-07
8.490684502e-08
6.730328007e-08
5.353946889e-08
4.266317054e-08
3.400727159e-08
2.708677478e-08
2.153848296e-08
1.708351038e-08
1.350438502e-08
1.062977196e-08
8.324617355e-09
6.482810751e-09
5.020491458e-09
3.869882169e-09
2.974312254e-09
2.285820569e-09
1.763439763e-09
1.371625205e-09
1.079918466e-09
8.629160178e-10
7.000997412e-10
5.755523138e-10
4.774115858e-10
3.972583451e-10
3.294950874e-10
2.706610284e-10
2.189895817e-10
1.737924991e-10
1.349808718e-10
1.025971135e-10
7.63948636e-11
5.581223296e-11
4.00854412e-11
2.830565424e-11
1.961635146e-11
1.331534153e-11
8.861082763e-12
5.796093695e-12
3.723875487e-12
2.329834684e-12
1.388156125e-12
7.461766666e-13
3.125369185e-13
8.240906368e-14
6.680802723e-08
7.526682285e-08
2.072243623e-07
6.97217365e-07
2.289013561e-06
5.012051822e-06
5.734982078e-06
4.701750688e-06
3.071950931e-06
1.589149016e-06
7.652628851e-07
4.142323766e-07
2.612668332e-07
1.845370162e-07
1.377811946e-07
1.06241913e-07
8.349810626e-08
6.639613878e-08
5.3174881e-08
4.276258593e-08
3.446031033e-08
2.778545832e-08
2.238980469e-08
1.801342702e-08
1.445685711e-08
1.15646377e-08
9.21391239e-09
7.306403394e-09
5.763373719e-09
4.522906318e-09
3.535747354e-09
2.759305199e-09
2.156244945e-09
1.694715679e-09
1.346136887e-09