/*--------------------------------*- C++ -*----------------------------------*\
  =========                 |
  \\      /  F ield         | OpenFOAM: The Open Source CFD Toolbox
   \\    /   O peration     | Website:  https://openfoam.org
    \\  /    A nd           | Version:  10
     \\/     M anipulation  |
\*---------------------------------------------------------------------------*/
FoamFile
{
    format      ascii;
    class       volScalarField;
    location    "3000";
    object      nut;
}
// * * * * * * * * * * * * * * * * * * * * * * * * * * * * * * * * * * * * * //

dimensions      [0 2 -1 0 0 0 0];

internalField   nonuniform List<scalar> 
5170
(
0.0007670622371
0.0007657248231
0.0007547634926
0.0006383798174
0.0002405651458
0.000758252599
0.0007571240813
0.0007361428946
0.0004772651879
0.0002775529834
0.0007552872119
0.0007474768222
0.0006807263073
0.0003870848345
0.0003149820498
0.0007423275559
0.0007237689374
0.0006102325216
0.0003255768028
0.0003378201866
0.0007388557568
0.0007048684224
0.0005532166006
0.0002834109073
0.0003608249161
0.0007161937129
0.0006718314369
0.0005060639736
0.0002564730293
0.0003742405043
0.0007058762911
0.0006578385221
0.0004390482003
0.0002397249204
0.0003804091571
0.0006859189884
0.000618625917
0.0003971886719
0.0002301124956
0.0003840792218
0.0006697060602
0.0005891995278
0.0003719121013
0.0002259102699
0.0003859161852
0.0006407706802
0.0005516693455
0.0003476041612
0.0002259209093
0.0003864371792
0.0006202700141
0.0005255771315
0.0003238196958
0.0002315162415
0.000386054433
0.0005922992302
0.0004911623828
0.0003034086028
0.0002386527711
0.0003851002447
0.0005725462731
0.0004728139188
0.0002873751808
0.0002482265608
0.0003838391457
0.0005466532606
0.0004426704347
0.000274527118
0.0002595901465
0.0003824643804
0.0005247742427
0.0004239431391
0.0002660607474
0.0002740890974
0.0003810706859
0.0005068566997
0.0003987000424
0.0002617463444
0.0003053190982
0.0003797271143
0.0004817735467
0.0003812077385
0.0002603084743
0.0003152009918
0.0003785233687
0.0004666274634
0.0003673747631
0.0002638163647
0.0003579735024
0.0003775368632
0.0004455834497
0.0003550990739
0.0002685481116
0.0003641317064
0.0003768548757
0.0004334660191
0.0003361292694
0.0002663243239
0.0004022037791
0.0003661710684
1.546293045e-05
0.0001592210132
0.0002647475804
0.0001164496316
1.27365842e-05
7.102603254e-06
0.0001260258586
0.0001997874336
8.696845067e-05
4.942266397e-06
3.753236081e-06
0.0001000132518
0.0001499912393
6.434968389e-05
2.209480207e-06
2.624667226e-06
8.26845903e-05
0.0001205085709
6.268073256e-05
1.563768283e-06
2.116547661e-06
7.541083731e-05
0.0001041992041
6.70648455e-05
1.554055669e-06
1.819416298e-06
6.711101715e-05
8.677319663e-05
7.572970795e-05
1.834934233e-06
1.74468181e-06
6.82177628e-05
7.965925765e-05
9.636783692e-05
2.589271211e-06
1.755099304e-06
6.616679915e-05
7.531334686e-05
0.000118184861
3.689891026e-06
1.798440303e-06
6.48549816e-05
7.498235832e-05
0.0001378794868
4.833919103e-06
1.882429488e-06
6.490807356e-05
7.789752936e-05
0.0001552242742
5.930289427e-06
1.970432567e-06
6.533021898e-05
8.320078705e-05
0.000173745777
7.045233694e-06
2.062068292e-06
6.664755006e-05
8.906929536e-05
0.0001897580345
8.024438444e-06
2.136887782e-06
6.729543367e-05
9.552275314e-05
0.0002041856969
8.915138049e-06
2.230578183e-06
6.938753461e-05
0.0001026594613
0.0002169749035
9.763540239e-06
2.310700947e-06
7.10290308e-05
0.000111069608
0.0002368096372
1.062278234e-05
2.411056758e-06
7.412525791e-05
0.0001189452188
0.0002443401239
1.107488769e-05
2.515416063e-06
7.552470669e-05
0.0001256877939
0.0002460279134
1.158765941e-05
2.758940296e-06
7.998107822e-05
0.0001340892912
0.0002657881433
1.252246286e-05
3.307854874e-06
8.169083157e-05
0.0001434436508
0.0002718471393
1.29460953e-05
2.977676373e-05
9.007719383e-05
0.0001589886682
0.000274218935
1.404221727e-05
0.0004117801371
0.0003223416361
0.0002818268357
0.0004332441873
0.0004763281048
0.0004010166504
0.0003170902208
0.0003074950717
0.0004816420681
0.000674570399
0.0003819996501
0.0003148721375
0.0003322150265
0.0005564682739
0.0009298744194
0.0003732185333
0.0003185056441
0.0003786788175
0.0006905691291
0.00126536006
0.0003680533037
0.0003295212654
0.0004477902923
0.0008396466417
0.001476834086
0.0003661156616
0.0003471734601
0.0005047162522
0.0009665448391
0.001688657471
0.0003707266831
0.000383441776
0.0006143886262
0.001241363902
0.002018661109
0.0003791588947
0.0004442968415
0.0008240168169
0.001579375643
0.002403646613
0.0003978189568
0.0005463293606
0.001092880302
0.001897111529
0.002721535518
0.0004376853171
0.0006965464506
0.001403863549
0.002218616037
0.003046318251
0.0005614813718
0.0009591134045
0.001734823857
0.002545981631
0.003368550529
0.0007723763968
0.001240992223
0.002018270991
0.002838610532
0.003659095779
0.001011346474
0.001521299558
0.002300571295
0.003131205067
0.003957453246
0.001308301766
0.00182843016
0.002612234571
0.003453397553
0.004289225658
0.001726964584
0.002209179642
0.002980320659
0.003823932936
0.004656890607
0.002273535678
0.002689835036
0.003411309547
0.004230003621
0.005045414464
0.002974949263
0.003309123973
0.003945181983
0.004690761293
0.005466738128
0.003710868031
0.003975181071
0.004505339049
0.005185018483
0.005908080615
0.004490534182
0.004695523076
0.005129117042
0.005718634089
0.006371159579
0.005234133385
0.005402692788
0.005762649764
0.006265010381
0.006845238324
0.005965679495
0.006100889974
0.006397197795
0.006823548494
0.007334332635
0.006649966308
0.006765684909
0.007017864911
0.007384624534
0.00783281743
0.007338388481
0.007437403095
0.007644121547
0.007957193578
0.008350008598
0.008007149807
0.008081372
0.00825933219
0.008525250203
0.008863440047
0.008617798963
0.008684580416
0.008843532522
0.009078193266
0.009381858608
0.009182605706
0.009253523623
0.009392572382
0.009597897901
0.009866873507
0.009739981028
0.009794391572
0.009916362579
0.01010412468
0.01033069621
0.01027409512
0.01032677726
0.0104359002
0.01058603943
0.01078418595
0.01080086599
0.01083959326
0.01092420422
0.01105600509
0.01123022503
0.01128633825
0.01132145044
0.01139930111
0.01151710836
0.01167181895
0.0117661299
0.01179757391
0.01186668942
0.01197094223
0.01210798246
0.01222749105
0.01225594044
0.01231768202
0.01241072959
0.01253319221
0.01266705497
0.01269240563
0.01274806845
0.01283212334
0.0129429916
0.0130800656
0.01310415916
0.01315625721
0.01323466747
0.01333781687
0.01349670321
0.0135192404
0.01356851349
0.01364247105
0.01373932713
0.01394926951
0.01397040408
0.0140158581
0.01408371019
0.01417201993
0.01445071477
0.01446850431
0.01450724635
0.0145650661
0.01464022171
0.01496956238
0.01498395909
0.01501481429
0.01506081586
0.01512056651
0.01547353706
0.0154840228
0.01550685022
0.01554092925
0.01558518633
0.01593583541
0.01594319095
0.01595879942
0.01598199196
0.01601193712
0.01634338962
0.01634748131
0.01635633676
0.01636946751
0.01638629372
0.01667757757
0.01667937885
0.01668297963
0.01668821293
0.01669471656
0.01693969337
0.01693974007
0.01693975576
0.01693962825
0.01693909207
0.01714498803
0.01714408201
0.0171418075
0.01713815724
0.01713288631
0.01731140162
0.01730958199
0.01730548179
0.01729907608
0.01729013048
0.01744688324
0.01744444458
0.01743884243
0.0174301298
0.01741809138
0.01755426367
0.01755110402
0.01754406209
0.01753319831
0.01751832727
0.01762900935
0.01762532403
0.01761703559
0.0176042806
0.0175869106
0.01766700026
0.01766276196
0.01765336795
0.01763897442
0.01761947083
0.01766547041
0.01766088923
0.01765068531
0.01763507132
0.01761397087
0.01762734679
0.0176224718
0.01761169724
0.01759524615
0.01757307087
0.01755766598
0.01755267369
0.01754160565
0.01752471393
0.01750196843
0.01746304549
0.01745797973
0.01744679808
0.01742975171
0.01740682419
0.01734827432
0.01734324623
0.01733212414
0.01731517131
0.01729238191
0.01721725795
0.01721228934
0.01720132951
0.01718463515
0.01716220862
0.01707240317
0.01706756148
0.01705686531
0.01704057409
0.01701869685
0.01691629888
0.01691159468
0.01690122228
0.01688543157
0.01686423642
0.01675116263
0.01674663827
0.01673665037
0.01672144551
0.01670104105
0.01657978995
0.01657544792
0.01656587604
0.016551309
0.01653176591
0.0164045364
0.01640040069
0.01639127416
0.01637738439
0.01635875105
0.01622773449
0.01622380237
0.01621513443
0.01620194487
0.01618425245
0.0160519002
0.01604818155
0.01603997626
0.01602748955
0.01601073887
0.01587714612
0.01587363449
0.01586589303
0.01585411418
0.01583831406
0.015708814
0.01570550863
0.01569821518
0.0156871168
0.01567222846
0.0155391064
0.01553601187
0.01552918823
0.01551880387
0.01550486967
0.01538659216
0.01538369269
0.01537729345
0.01536755416
0.01535448749
0.01521978054
0.01521708383
0.01521113514
0.01520208012
0.01518992449
0.0150886371
0.01508614147
0.01508063198
0.01507224441
0.01506098856
0.01494336131
0.01494097147
0.01493569965
0.01492767724
0.01491691263
0.01471606281
0.01471409023
0.01470973887
0.01470311586
0.01469423626
0.002864019344
0.001586326492
0.001609614958
0.00180893603
0.001979037948
0.002191491589
0.002537718586
0.002923132438
0.00323581303
0.003559415427
0.003877845005
0.004167233089
0.004469650766
0.004808692897
0.005173719368
0.005551040672
0.005953802594
0.006373711631
0.006804027794
0.007239306196
0.007690447872
0.008156518675
0.008638567989
0.009121837958
0.009608198169
0.01006644153
0.01050653363
0.01093942853
0.01136747076
0.01179384765
0.01221647031
0.01263047268
0.01303130688
0.01341980889
0.01381586968
0.01424129442
0.01469898106
0.0151671612
0.0156195615
0.01603492903
0.01639894263
0.0166992409
0.01693802008
0.01712796831
0.01728223171
0.01740767942
0.01750564236
0.01757222272
0.01760309201
0.01759632816
0.01755459013
0.01748304821
0.01738777928
0.01727346975
0.01714361269
0.01700056609
0.01684668024
0.01668414549
0.01651558885
0.01634332957
0.01616961165
0.01599687785
0.01582524358
0.01565991063
0.01549334038
0.01534367424
0.01517986378
0.01505167085
0.01490800355
0.01468689641
0.002286611738
0.0005694167745
0.0003002763527
0.0002417945668
4.646697905e-05
0.002373322574
0.001931075228
0.0007037012116
0.0002903995191
8.916735854e-05
0.002437816331
0.002441506104
0.0017836524
0.0008212744635
0.00024289623
0.002542785069
0.002868432809
0.00261714397
0.001855127356
0.0008613393954
0.00266873457
0.003227071619
0.003207561224
0.002582326476
0.001590778264
0.002885187946
0.003650592277
0.00377632478
0.003296879196
0.002403522292
0.003251660898
0.004045883856
0.004261178625
0.003921878921
0.003138443109
0.003634455462
0.00442508914
0.004703075018
0.004479315709
0.003799095828
0.003935635287
0.004715762018
0.005115858156
0.005001815443
0.00442683185
0.004260316776
0.005082523942
0.005543651976
0.005524090744
0.005058834634
0.004573945505
0.005400064926
0.00586086018
0.005933718132
0.005622037771
0.004862931902
0.00570774833
0.006229277322
0.00636772727
0.006163835473
0.00517270158
0.00604975248
0.006632172707
0.006847385768
0.006697628285
0.005523252584
0.006432011768
0.007058791223
0.007338704696
0.007248320271
0.005884025951
0.006782039574
0.007414457821
0.007721219371
0.007700454339
0.00624611942
0.007142652884
0.007782921668
0.008124044739
0.008153502942
0.006626927714
0.007517862235
0.008166229026
0.008536593945
0.008608354999
0.007026340982
0.007876959425
0.008527101559
0.008940156091
0.009059518786
0.007408528828
0.008232797231
0.008880225394
0.009310826605
0.009471916603
0.007799959929
0.008589456954
0.009228274506
0.009671411343
0.009879327379
0.008203653853
0.008953004072
0.009582333877
0.01004360677
0.01030224944
0.008627731135
0.009332620408
0.009939965993
0.01039784078
0.01066658048
0.009062261357
0.009714220658
0.01029145574
0.01074202166
0.01102833253
0.009504140558
0.0101081223
0.01066083236
0.01111274662
0.01142775109
0.009946421831
0.01049790267
0.01101947219
0.01146206199
0.011785516
0.01036632438
0.01086643146
0.0113515046
0.01177484662
0.01209629022
0.01077200293
0.01122411451
0.01167324584
0.0120761919
0.01239468032
0.01117476271
0.01158253712
0.01199575384
0.01237478135
0.01268280891
0.01157616066
0.01194293793
0.01232139078
0.01267604158
0.01297241898
0.01197975706
0.01231007637
0.0126560798
0.012986039
0.01326743087
0.0123821066
0.01267949875
0.01299532226
0.01330117241
0.01356661199
0.01277924838
0.01304872147
0.01333798365
0.01362121906
0.01386974978
0.01316652653
0.01341272897
0.01367846812
0.0139398944
0.01417021855
0.01354531606
0.01377321082
0.01401856003
0.01425919879
0.01447048735
0.01393292812
0.01414337369
0.0143678078
0.01458581193
0.01477510612
0.01434719532
0.01453536458
0.01473383325
0.01492415224
0.01508641233
0.01478895296
0.01494767262
0.01511360118
0.01527034285
0.0154002331
0.01523869159
0.01536404366
0.01549362644
0.01561316944
0.01570738063
0.01567250006
0.01576412494
0.01585678817
0.01593853018
0.01599679085
0.01607046492
0.01613025252
0.0161880312
0.01623438604
0.01625936612
0.01641866915
0.01644996634
0.01647704172
0.01649266533
0.01648881739
0.01670652908
0.01671550399
0.01671847275
0.01670973062
0.01668272502
0.01693668865
0.01692982782
0.01691522964
0.01688827876
0.01684359383
0.0171206736
0.01710254195
0.017075131
0.01703462268
0.01697656025
0.01727032722
0.01724345563
0.01720606946
0.01715495718
0.01708639248
0.01739190283
0.01735770443
0.01731199168
0.01725205507
0.0171747724
0.01748638928
0.01744570282
0.01739269978
0.01732511848
0.01724048713
0.01754991733
0.01750356674
0.0174442598
0.01737015251
0.01727933819
0.01757822363
0.01752717809
0.01746272584
0.01738350333
0.01728753222
0.01756954823
0.0175150494
0.01744691219
0.01736386611
0.0172644035
0.01752654694
0.01746980693
0.01739930108
0.01731400969
0.01721293047
0.01745434769
0.01739649995
0.01732492652
0.01723892899
0.01713761675
0.01735889959
0.0173008541
0.01722933511
0.01714372742
0.01704330849
0.01724479526
0.01718729143
0.01711660954
0.01703225384
0.01693363063
0.01711542383
0.01705898775
0.01698975373
0.0169073149
0.01681117935
0.01697308722
0.01691813906
0.01685083024
0.01677082483
0.01667771176
0.01682007714
0.01676693296
0.01670191107
0.01662473122
0.01653504582
0.01665854714
0.01660744652
0.01654498132
0.01647091492
0.01638494964
0.01649108251
0.01644219036
0.01638246852
0.01631171325
0.01622966528
0.01631997011
0.0162733844
0.01621651255
0.01614917601
0.01607114531
0.01614743642
0.01610322426
0.01604927193
0.01598542113
0.01591146746
0.01597588486
0.01593403789
0.01588299087
0.01582260108
0.01575268421
0.01580544857
0.01576599413
0.01571787427
0.01566095925
0.01559508316
0.01564125964
0.01560410346
0.01555880999
0.01550524954
0.01544326905
0.01547587983
0.01544109421
0.01539867756
0.01534851699
0.015290473
0.01532730161
0.01529468203
0.0152549469
0.01520797754
0.01515363907
0.01516462686
0.01513427613
0.01509727003
0.01505351011
0.01500287675
0.01503756244
0.01500946218
0.01497524412
0.01493480501
0.0148880232
0.01489451276
0.0148676381
0.01483489939
0.01479622046
0.01475150333
0.01467577958
0.01465371403
0.01462688791
0.01459519913
0.01455844473
2.70761972e-06
1.257636731e-06
1.505080199e-05
9.642361034e-05
0.0001858807294
0.0002247710547
0.0002495429764
0.0002745675682
0.00030332656
0.0003344446325
0.0003673213214
0.0003997034965
0.0004304539217
0.0004583199449
0.000482823363
0.0005035110734
0.0005205448235
0.0005341610685
0.000544720975
0.0005527336151
0.0005586157479
0.0005626216749
0.0005650064648
0.0005660822481
0.0005663407129
0.0005660434478
0.0005653123847
0.0005644379229
0.0005636264386
0.0005629753667
0.0005625067186
0.0005622122044
0.0005620751106
0.0005620475875
0.0005620717614
0.0005620960913
0.0005620900261
0.0005620495813
0.0005619854971
0.0005619078922
0.0005618222642
0.0005617248769
0.0005616052945
0.0005614501474
0.000561255615
0.0005610732116
0.00056094978
0.0005608484484
0.0005607469829
0.0005606467196
0.0005605521443
0.0005604672872
0.0005603915997
0.0005603161192
0.0005602151518
0.0005596839189
0.0005542600339
0.0005169714004
0.0003114493326
2.917507128e-05
9.541687804e-06
1.17911479e-06
6.914313674e-06
3.425205058e-05
6.684857032e-05
8.459260688e-05
9.658781343e-05
0.0001095010696
0.0001265734347
0.0001475843725
0.0001740111155
0.0002052339183
0.0002415248726
0.0002813602785
0.0003233080363
0.0003652436728
0.000405232743
0.000441375762
0.0004726544543
0.0004986018593
0.0005194691756
0.0005358603401
0.0005482451567
0.0005572666032
0.0005634081056
0.0005672705467
0.0005694639294
0.0005704950118
0.0005707607814
0.000570515111
0.0005699549292
0.0005692344809
0.0005684830118
0.0005677978106
0.0005672229144
0.0005667575933
0.0005663710605
0.0005660298338
0.0005657076769
0.0005653969912
0.0005650983142
0.0005648140759
0.0005645456687
0.0005643149554
0.0005641478331
0.0005639933209
0.0005637872746
0.0005635210514
0.0005632385862
0.0005629857448
0.0005627713437
0.0005625936946
0.0005624491924
0.0005623218024
0.0005620030814
0.0005596955112
0.0005417243918
0.000464467717
0.0002289424269
2.790835153e-05
3.512719664e-05
2.780452194e-06
7.110471421e-06
1.923934574e-05
3.77644386e-05
4.884296067e-05
5.416680262e-05
5.911483041e-05
6.573201914e-05
7.412485386e-05
8.537037048e-05
9.979092315e-05
0.0001185552777
0.0001420617693
0.0001712175343
0.0002058882474
0.0002457648861
0.0002893518898
0.0003353628437
0.0003809027006
0.0004238451654
0.0004633247345
0.0004979654747
0.0005261617853
0.0005486269646
0.0005660165634
0.0005788764953
0.0005876448556
0.000592887701
0.0005945843748
0.0005937166483
0.000591213947
0.000587802
0.0005841786696
0.0005808962271
0.0005782565221
0.0005762637213
0.000574741882
0.0005734610613
0.0005722869203
0.0005712056207
0.0005702768435
0.0005696184571
0.0005692446661
0.0005689795647
0.0005688270373
0.0005687217217
0.000568689369
0.0005686006198
0.0005682967231
0.0005677438811
0.0005671439891
0.0005666807321
0.0005663105782
0.0005653973549
0.0005598063771
0.0005281471807
0.0004208410964
0.0001881888781
2.701231386e-05
0.0002424971819
3.181444478e-05
7.61493876e-06
1.927043175e-05
4.217024372e-05
5.714604225e-05
6.063144325e-05
6.201097315e-05
6.357619745e-05
6.567452147e-05
6.877441648e-05
7.314390493e-05
7.942336743e-05
8.80615354e-05
9.996917042e-05
0.0001157231449
0.0001364068983
0.0001625253052
0.0001947816829
0.0002329120762
0.0002760710319
0.000322089219
0.0003689392203
0.0004143521216
0.0004563964393
0.0004934406142
0.0005249938451
0.0005508955344
0.0005714008169
0.0005871969805
0.0005984356915
0.0006053034888
0.0006081828579
0.0006078766366
0.0006053961631
0.0006017999435
0.0005980566563
0.0005947350698
0.0005919785906
0.000589582233
0.0005872580454
0.0005848292395
0.0005822493351
0.0005797105926
0.0005776451817
0.0005762559666
0.0005756224007
0.0005755687338
0.0005758577197
0.0005761789161
0.0005762796221
0.0005759778403
0.0005753600065
0.0005744555579
0.0005719729867
0.0005605338586
0.0005159980243
0.0003857925304
0.0001623287829
2.586380284e-05
0.0005351074056
0.0001227530568
2.208867544e-05
3.045820409e-05
7.767411201e-05
0.00011646779
0.0001223995189
0.0001204284026
0.0001167449703
0.0001124037925
0.0001077309344
0.0001032528579
9.959753962e-05
9.719471323e-05
9.654184686e-05
9.825400482e-05
0.0001029100604
0.0001108894065
0.0001230188486
0.0001401003513
0.0001630441135
0.0001915785239
0.0002257713909
0.0002653094321
0.0003091419601
0.0003551423473
0.0004007705251
0.0004436771875
0.000482207733
0.0005153908032
0.0005426123672
0.0005638150028
0.0005792784351
0.0005898210564
0.0005962323751
0.0005992991434
0.0006001770279
0.0006000285355
0.0005997311003
0.0005997460538
0.0005998702261
0.0005995864422
0.000598464482
0.0005962480364
0.0005930171517
0.0005892438143
0.0005856876518
0.0005830381896
0.0005816378741
0.0005814527338
0.0005820982471
0.0005829854438
0.0005833886797
0.0005825689453
0.0005776702589
0.0005589501934
0.000500575202
0.0003541125082
0.0001433572374
2.453316922e-05
0.001217248243
0.0003798696248
9.229229188e-05
5.491331726e-05
0.0001761945255
0.0003088695806
0.0003323444142
0.0003236376229
0.0003066887165
0.0002850963583
0.000259510559
0.000234650656
0.0002110409447
0.000188729719
0.0001699107764
0.0001550171947
0.0001427729587
0.0001330907656
0.0001268001045
0.0001245259899
0.0001268419982
0.0001337635022
0.0001454869427
0.0001628206628
0.0001865390949
0.0002167809491
0.0002528768186
0.0002939450074
0.0003387169816
0.0003849057786
0.0004296716729
0.000470585738
0.0005061574433
0.000535990125
0.000559441123
0.0005759784712
0.0005867995845
0.0005933576526
0.0005972081502
0.000599728501
0.0006020710114
0.0006046857888
0.0006074839676
0.0006098475907
0.0006105972941
0.0006092208834
0.0006059139794
0.0006014401158
0.0005970094511
0.0005935793292
0.0005917988233
0.0005915866456
0.0005919922517
0.0005910270566
0.0005832678654
0.0005556586704
0.0004820652759
0.00032534075
0.0001279548896
2.383570639e-05
0.002089413557
0.0008382077726
0.0002806174947
9.933601524e-05
0.0001383950426
0.0003791664445
0.0005108489758
0.0005593860091
0.0005756331458
0.0005757463487
0.0005654512937
0.0005437790946
0.0005126539789
0.0004740265686
0.0004279755146
0.0003769957674
0.0003247904613
0.000275045435
0.000234067417
0.0002013571188
0.0001782088101
0.000161456378
0.0001498228569
0.0001440150467
0.0001442784406
0.000150781166
0.0001630874434
0.0001819154062
0.0002081976503
0.0002419990426
0.0002821717226
0.0003272025487
0.0003752231898
0.0004236888503
0.0004709237034
0.0005129397518
0.0005456413246
0.0005685608079
0.0005832821489
0.0005920740071
0.0005971979447
0.0006011061798
0.0006056598025
0.0006115771237
0.0006186140758
0.0006247461431
0.0006282344316
0.0006282071788
0.0006251329001
0.0006204584626
0.0006157018605
0.0006118994749
0.0006088844142
0.0006043210938
0.0005909800117
0.0005529603557
0.000463929277
0.0003027442401
0.0001163681226
2.309596711e-05
0.002822703734
0.001746749282
0.0006461536611
0.0002372370531
0.0001541355338
0.0002715737417
0.0005200845043
0.000664070641
0.00073613645
0.0007727686596
0.0007889387607
0.0007910673966
0.0007821179309
0.0007635703313
0.0007362045168
0.0007004854115
0.0006569546323
0.0006051182554
0.0005429001929
0.0004747001513
0.0004027131022
0.0003335604799
0.0002741079604
0.0002293595086
0.0001977145788
0.0001768731918
0.0001627924601
0.0001561933267
0.0001573139389
0.0001663398167
0.0001826226505
0.0002072004338
0.0002410140894
0.0002836402575
0.0003342639267
0.0003938006665
0.0004551360245
0.0005072033946
0.000547047352
0.0005716192991
0.0005828297767
0.0005888853696
0.0005930345169
0.0005981169955
0.0006066327541
0.0006187368762
0.0006322038616
0.000643527748
0.0006502097071
0.0006516576624
0.0006488971071
0.0006434668882
0.0006361297027
0.0006248574851
0.0006022191437
0.0005522018604
0.0004509426497
0.000286097754
0.0001072453335
2.166290851e-05
0.003495352198
0.00238726704
0.001380918629
0.0004992712687
0.0002111432887
0.0002229969948
0.000410065908
0.0006428510309
0.0007866804473
0.0008690688399
0.0009173432331
0.0009448404368
0.0009582102535
0.0009608010401
0.0009542372857
0.0009392027572
0.0009158849398
0.0008841522419
0.000843570977
0.0007941699341
0.0007364743089
0.0006715115707
0.0005981663917
0.0005172724045
0.0004345467683
0.0003553496
0.0002868407575
0.0002378914759
0.0002040864075
0.0001840926169
0.0001721203578
0.0001696403046
0.0001772022929
0.0001950190392
0.0002239823401
0.0002672759066
0.0003286927151
0.0004002214932
0.0004667580658
0.0005230357272
0.0005625367466
0.0005780010594
0.0005765000144
0.0005752069203
0.0005796199104
0.0005913186567
0.0006087993169
0.0006294056868
0.0006498327347
0.0006658667723
0.0006743326005
0.0006748166488
0.0006673997586
0.0006506493267
0.0006178333241
0.0005549241557
0.0004425064986
0.0002741840711
0.0001000435468
2.109484441e-05
0.004182863714
0.003062551644
0.001992651455
0.00103882907
0.0003857177879
0.0002156705963
0.000308961373
0.0005361614945
0.0007392436244
0.0008669599894
0.0009475648401
0.001000690234
0.001036463822
0.001060140974
0.001074377925
0.001080386302
0.001078559671
0.001068828715
0.001050862815
0.001024267333
0.0009887732086
0.0009443479936
0.0008910946691
0.0008291980572
0.0007598544866
0.0006847316542
0.0006049990017
0.0005178496315
0.0004319758355
0.000351304148
0.0002840938646
0.0002391857398
0.0002115434069
0.0001990880484
0.0001992758175
0.0002135975081
0.0002445649659
0.0002959495821
0.000360458554
0.0004262768026
0.0004820109724
0.000531320897
0.0005633217797
0.0005669261486
0.0005510279053
0.0005488450654
0.0005657077101
0.0005910089209
0.0006194038423
0.000647514747
0.0006718082866
0.0006870963941
0.0006886294829
0.0006727507162
0.0006337259832
0.0005601770151
0.000438642762
0.0002682383148
9.687263738e-05
2.068550044e-05
0.004847229113
0.003748536832
0.002643474861
0.001646092124
0.0007237491917
0.0003092826905
0.0002466555652
0.0003996457528
0.0006296811026
0.0007955416573
0.0009022752653
0.0009764712273
0.001031434606
0.001073646788
0.001106019678
0.001130260405
0.001147335368
0.001157566557
0.001160806938
0.001156598579
0.001144336071
0.001123433813
0.00109346088
0.001054232137
0.001005949749
0.0009492468663
0.0008850623055
0.0008140945382
0.0007378874829
0.0006584511429
0.0005777667948
0.0004933569182
0.0004151737005
0.0003487159978
0.0003009204135
0.0002734898846
0.0002650011333
0.0002716368106
0.0002994136585
0.0003424292204
0.0003906189331
0.0004355561422
0.0004787989275
0.0005177034156
0.00053546023
0.0005243352453
0.0005168372892
0.000533871668
0.0005668135028
0.000603663051
0.0006388098252
0.000667333477
0.0006833216129
0.0006777889987
0.0006413746851
0.0005646101399
0.0004383084538
0.0002671103003
9.6853072e-05
2.042277438e-05
0.005496824893
0.004441765921
0.003317005411
0.002275818626
0.001396972649
0.0005695408032
0.0002820073677
0.0002818090394
0.0004630271225
0.0006789890529
0.0008246771124
0.000922809218
0.0009936335689
0.001045811804
0.001086440552
0.001119464429
0.001146763814
0.001169177932
0.001186826361
0.001199342333
0.001206057939
0.001206153088
0.001198641916
0.00118238995
0.001156914937
0.001122194953
0.001078703943
0.00102709409
0.0009682706787
0.0009034218194
0.000833913601
0.0007608765605
0.0006863332811
0.0006129733068
0.0005440520187
0.0004815964977
0.0004284382086
0.0003889200211
0.0003600405798
0.0003443178632
0.0003510401208
0.0003725244481
0.0004011264579
0.0004321599987
0.0004663316222
0.0004976856294
0.0005070283203
0.0005022143679
0.0005088962505
0.0005394963576
0.0005849334211
0.0006271314644
0.0006570696325
0.0006651655931
0.000641401093
0.0005710074016
0.0004441312329
0.0002703145162
9.887923175e-05
2.03817061e-05
0.006106802791
0.005089200894
0.003951833685
0.002870225696
0.001925312219
0.001150991722
0.000479042883
0.0002723322491
0.0003037462155
0.0004875097833
0.0006870355026
0.0008226133247
0.000912855825
0.000977868601
0.001031041767
0.001074011945
0.001110236107
0.001141257278
0.001167609608
0.001189152815
0.001205282232
0.001215136167
0.001218219063
0.001214994235
0.001205105208
0.001188319515
0.001164363434
0.001133567332
0.001096468594
0.001053524821
0.001003972321
0.0009481517887
0.0008877115154
0.0008245836888
0.000759879698
0.0006948161411
0.0006303227856
0.0005673087591
0.000510524972
0.0004614074879
0.0004223008037
0.0004011581509
0.0003878270073
0.0003938187506
0.0004132412791
0.0004401307076
0.0004698196636
0.0004993365959
0.0005106371986
0.0005165060808
0.0005349621564
0.0005740615157
0.0006204344886
0.0006512388469
0.0006418835236
0.0005801940431
0.0004564585786
0.0002781365879
0.000103425622
2.071115753e-05
0.006727215523
0.005757082168
0.004618281182
0.003497555531
0.002494326158
0.00164510935
0.0009639988608
0.0004142424979
0.0002555362981
0.0002824788636
0.0004320343053
0.0006064719473
0.0007258656643
0.0008158182963
0.0008862145359
0.0009472289113
0.001001705638
0.001051156941
0.001096254391
0.001137353613
0.001173763769
0.001204058221
0.001225756642
0.001236688226
0.001235758648
0.001222825866
0.001201278441
0.00117377974
0.00114153532
0.001102579687
0.001062296206
0.001023727996
0.0009843787029
0.0009425012457
0.000897734816
0.0008472950882
0.0007927367625
0.0007346240519
0.0006735837943
0.0006116188947
0.0005506592733
0.0004958991938
0.0004577811236
0.0004332903364
0.0004299854666
0.0004345666107
0.0004531791073
0.0004830655364
0.0005192455825
0.0005476932475
0.0005649350924
0.000580797829
0.0006015467779
0.0006207200143
0.0006210784126
0.0005766346807
0.0004682349882
0.0002932189764
0.0001116001208
2.164074934e-05
0.007293134281
0.006412070029
0.005305777838
0.004163536801
0.003110184276
0.002199773143
0.001447359182
0.0008502301002
0.0003753229266
0.0002264338256
0.0002406270853
0.0003602622994
0.0005379605699
0.0006748344756
0.000783033254
0.0008727418312
0.0009494329206
0.00101633572
0.001075327664
0.001127375069
0.0011727602
0.001211554709
0.001243921622
0.001268416978
0.001283414801
0.001287194384
0.001276000276
0.001248542969
0.001208886841
0.001166395187
0.001117265517
0.001062594741
0.001013479477
0.0009749705714
0.0009375268421
0.000904671142
0.0008723445995
0.0008361932736
0.0007917109554
0.0007405399359
0.0006842933343
0.0006254176025
0.0005679691694
0.0005158744325
0.0004750609798
0.0004572629111
0.0004620403814
0.0004860831719
0.000517409843
0.0005567666165
0.0005964377517
0.0006200103669
0.0006305085533
0.0006342333018
0.0006232499587
0.0005800790215
0.000484876148
0.0003271814728
0.0001279649518
2.346051636e-05
0.007845092169
0.007057016121
0.006000503261
0.004856869542
0.003764848892
0.002802014209
0.001993902228
0.001339159972
0.0008172223867
0.0003774010521
0.000207477183
0.0002088452922
0.0003203809228
0.0005159214078
0.0006943256227
0.0008395067012
0.0009582715994
0.001056613232
0.001138736161
0.001207303827
0.001263781942
0.001308749375
0.001342203574
0.001363751818
0.001372746012
0.001368723644
0.001351488276
0.001321302494
0.001279287372
0.001230496995
0.001183230668
0.001134998187
0.00108185369
0.001025132948
0.0009758218132
0.0009296177912
0.0008960699766
0.0008647500061
0.0008394071452
0.0008114904566
0.0007747183138
0.0007280209125
0.0006756638827
0.0006213172055
0.0005686932825
0.0005228179101
0.0004891188859
0.0004736297738
0.0004847974347
0.0005184662088
0.000564136699
0.0006089229499
0.0006415708125
0.0006559820169
0.0006480265391
0.0006075798279
0.0005189329378
0.0003684605757
0.0001639606106
2.632014485e-05
0.008399656016