/*--------------------------------*- C++ -*----------------------------------*\
  =========                 |
  \\      /  F ield         | OpenFOAM: The Open Source CFD Toolbox
   \\    /   O peration     | Website:  https://openfoam.org
    \\  /    A nd           | Version:  10
     \\/     M anipulation  |
\*---------------------------------------------------------------------------*/
FoamFile
{
    format      ascii;
    class       volScalarField;
    location    "3000";
    object      O;
}
// * * * * * * * * * * * * * * * * * * * * * * * * * * * * * * * * * * * * * //

dimensions      [0 0 0 0 0 0 0];

internalField   nonuniform List<scalar> 
5170
(
1.365342858e-57
1.229259111e-57
8.008493208e-58
1.350332772e-57
1.772544099e-57
3.30010287e-57
2.314130258e-57
1.939498223e-57
2.252812184e-57
7.241409357e-57
2.379657829e-56
1.864396623e-56
1.366939166e-56
1.474446741e-56
3.517285885e-56
6.800945245e-54
5.403930629e-54
3.414230441e-54
3.842881373e-54
1.623965933e-53
2.420824812e-51
1.941073088e-51
1.31466625e-51
2.087465462e-51
1.091906572e-50
8.821773904e-49
7.229437463e-49
5.376448681e-49
1.170577435e-48
6.937612773e-48
3.284631415e-46
2.775185479e-46
2.359186825e-46
6.675273594e-46
4.253796393e-45
1.247795263e-43
1.099220283e-43
1.114352558e-43
3.854706352e-43
2.548514865e-42
4.850231093e-41
4.544702004e-41
5.534866446e-41
2.249047893e-40
1.500768124e-39
1.932432615e-38
1.96005243e-38
2.858645794e-38
1.328402351e-37
8.723932958e-37
7.875786044e-36
8.787605023e-36
1.526229063e-35
7.930198545e-35
5.022170291e-34
3.269270668e-33
4.082387215e-33
8.430031926e-33
4.778261099e-32
2.870522473e-31
1.376796155e-30
1.952525868e-30
4.831765728e-30
2.924330199e-29
1.631960253e-28
5.835333912e-28
9.527488813e-28
2.846211709e-27
1.819024044e-26
9.245070351e-26
2.477612466e-25
4.702028747e-25
1.698128229e-24
1.144452422e-23
5.225268535e-23
1.036803333e-22
2.308814149e-22
1.005045072e-21
7.045451019e-21
2.949519709e-20
4.253991194e-20
1.124551766e-19
5.747475253e-19
4.19847399e-18
1.666814663e-17
1.673150466e-17
5.330498598e-17
3.174211986e-16
2.376469559e-15
9.427173365e-15
6.042496643e-15
2.407136129e-14
1.643939266e-13
1.250062384e-12
5.359533131e-12
1.868234171e-12
1.051706643e-11
8.272024839e-11
5.990050809e-10
3.101672403e-09
0.0004630803452
0.0004981028958
0.0005109435725
0.0004891345072
0.0004604605419
0.0003124094024
0.0003536534428
0.0003662666896
0.0003425998199
0.0003050332358
0.0002282432786
0.0002653599982
0.0002757399907
0.0002547567044
0.0002189217258
0.0001760773965
0.0002078659403
0.000215492525
0.0001958960949
0.0001649243115
0.000141569069
0.0001681062357
0.0001736847692
0.0001548833395
0.0001283221009
0.0001178507738
0.0001394090778
0.0001433484109
0.0001256428093
0.0001034496165
0.0001007539676
0.0001179281871
0.0001204832445
0.0001044698606
8.64853962e-05
8.808223425e-05
0.0001016176857
0.0001030767614
8.929175427e-05
7.499619394e-05
7.855310062e-05
8.916922016e-05
8.981733101e-05
7.84444879e-05
6.718032567e-05
7.128958201e-05
7.959262784e-05
7.972470872e-05
7.057069263e-05
6.172566642e-05
6.570088414e-05
7.220067415e-05
7.203086492e-05
6.473521584e-05
5.777566768e-05
6.13399356e-05
6.645619471e-05
6.613236959e-05
6.032002543e-05
5.479532331e-05
5.788156874e-05
6.194935653e-05
6.155722205e-05
5.690090736e-05
5.245314989e-05
5.508358175e-05
5.835909436e-05
5.795130791e-05
5.418452269e-05
5.053799757e-05
5.277331296e-05
5.545467508e-05
5.505592691e-05
5.196631888e-05
4.891098761e-05
5.081919707e-05
5.305646138e-05
5.268311518e-05
5.009953335e-05
4.747052874e-05
4.913148652e-05
5.102981211e-05
5.067786195e-05
4.847340782e-05
4.614837742e-05
4.76768964e-05
4.927262895e-05
4.891610071e-05
4.69952244e-05
4.489391722e-05
4.751649846e-05
4.795893738e-05
4.735056635e-05
4.558570031e-05
4.363303563e-05
0.0001608573761
6.688834832e-05
5.010411299e-05
4.501101765e-05
4.206834115e-05
6.26456426e-11
4.858721624e-10
7.509120315e-09
1.157521891e-07
1.857883323e-06
2.345569651e-10
1.445012076e-09
1.52989518e-08
1.311662319e-07
8.454175619e-07
5.301586151e-10
2.652467884e-09
2.003728724e-08
1.057945706e-07
3.587835362e-07
9.41134261e-10
3.890936985e-09
2.151772985e-08
7.479415287e-08
1.616576966e-07
1.42676339e-09
4.920982901e-09
2.024807509e-08
4.941048035e-08
8.659563712e-08
1.930657312e-09
5.578307923e-09
1.751664056e-08
3.425695716e-08
7.443439383e-08
2.415951334e-09
5.93157852e-09
1.505067068e-08
2.957733007e-08
8.945077446e-08
2.846328064e-09
6.07536495e-09
1.34318276e-08
2.863971996e-08
9.415062996e-08
3.193732874e-09
6.088291916e-09
1.251119226e-08
2.842528804e-08
9.49228833e-08
3.455258979e-09
6.118087932e-09
1.251185289e-08
3.083775755e-08
1.075267426e-07
3.731589059e-09
6.382518882e-09
1.348733999e-08
3.564889557e-08
1.26242229e-07
4.039383016e-09
6.800381969e-09
1.470985897e-08
3.968688413e-08
1.363042623e-07
4.407736873e-09
7.336783225e-09
1.593368827e-08
4.281519833e-08
1.408083899e-07
4.949122366e-09
8.166962895e-09
1.795641778e-08
4.899222904e-08
1.576152719e-07
5.899972051e-09
9.668837336e-09
2.177072491e-08
6.045345235e-08
1.882542841e-07
7.559987746e-09
1.229902283e-08
2.812338009e-08
7.76625307e-08
2.280633322e-07
1.020366975e-08
1.637597189e-08
3.691669056e-08
9.702089616e-08
2.679064523e-07
1.431233867e-08
2.256771969e-08
4.911157643e-08
1.207790914e-07
3.068054269e-07
2.128629125e-08
3.216902048e-08
6.590454897e-08
1.510383635e-07
3.5546556e-07
3.252004882e-08
4.735696336e-08
9.061979472e-08
1.929281739e-07
4.253453303e-07
5.072219932e-08
7.054020618e-08
1.261427019e-07
2.514062083e-07
5.230983096e-07
7.884988754e-08
1.055639674e-07
1.756331931e-07
3.292073743e-07
6.488388678e-07
1.165815707e-07
1.502583731e-07
2.394559928e-07
4.25507865e-07
7.890356752e-07
1.668686635e-07
2.086529407e-07
3.172424283e-07
5.345293567e-07
9.429287036e-07
2.331241943e-07
2.845979897e-07
4.159523373e-07
6.66113237e-07
1.122153427e-06
3.178873398e-07
3.797103437e-07
5.345451947e-07
8.289504507e-07
1.345812165e-06
4.378965154e-07
5.144286936e-07
7.041974164e-07
1.05004037e-06
1.649023055e-06
6.04451433e-07
6.990283129e-07
9.307831946e-07
1.356172167e-06
2.071030738e-06
8.621664686e-07
9.763202954e-07
1.251593462e-06
1.767054856e-06
2.645104582e-06
1.257025889e-06
1.40748759e-06
1.770101699e-06
2.414603723e-06
3.475854618e-06
1.843698514e-06
2.040234743e-06
2.507568987e-06
3.32360467e-06
4.641980362e-06
2.73400085e-06
2.989555703e-06
3.592730305e-06
4.630809967e-06
6.274938224e-06
4.11506491e-06
4.445423953e-06
5.216716078e-06
6.523279314e-06
8.555454341e-06
6.196465931e-06
6.610540306e-06
7.56836675e-06
9.170775809e-06
1.161869666e-05
8.950362007e-06
9.443374543e-06
1.058405257e-05
1.248156639e-05
1.536712573e-05
1.187179183e-05
1.246954842e-05
1.385603088e-05
1.61753159e-05
1.972884201e-05
1.508929622e-05
1.588344901e-05
1.772813432e-05
2.081902615e-05
2.555740168e-05
1.998516692e-05
2.112591376e-05
2.376988872e-05
2.818115516e-05
3.490121259e-05
2.89379694e-05
3.066638663e-05
3.465907484e-05
4.128101583e-05
5.128676125e-05
4.666433928e-05
4.943938365e-05
5.582582532e-05
6.634474144e-05
8.207873851e-05
8.657197381e-05
9.133168887e-05
0.0001021722592
0.0001196560147
0.0001449005485
0.0001767607561
0.000183532663
0.0001985662184
0.0002217549312
0.0002533280337
0.0003060333764
0.0003131897105
0.0003288737164
0.0003525363511
0.0003838283634
0.0004412331307
0.0004475683755
0.0004613444475
0.0004818420877
0.0005084382488
0.0005559594843
0.0005608157906
0.00057130755
0.000586785385
0.0006065590809
0.0006342272894
0.0006374355062
0.0006443188386
0.000654311513
0.0006668183733
0.0006689018676
0.0006705839213
0.0006741484319
0.0006792003543
0.0006852910771
0.0006611237246
0.000661609454
0.0006625858492
0.0006638211552
0.0006650180508
0.0006185274924
0.0006182089346
0.0006174538409
0.0006161584159
0.0006141522828
0.000552261911
0.0005514969578
0.0005497870063
0.0005471121869
0.0005433898802
0.0004735410671
0.000472603118
0.0004705213932
0.0004673556747
0.0004630055645
0.0003924146947
0.000391533492
0.0003895991967
0.0003866684633
0.000382758469
0.0003172418963
0.0003164339449
0.000314660096
0.0003119700521
0.0003083753641
0.0002519042647
0.0002512321236
0.0002497592708
0.0002475333979
0.0002445740681
0.0001974630993
0.0001969312076
0.0001957667273
0.00019400952
0.0001916779517
0.0001534513141
0.0001530424248
0.0001521475868
0.000150798134
0.0001490091021
0.0001186524414
0.0001183437059
0.0001176681619
0.0001166496522
0.0001152997613
9.157073824e-05
9.134008378e-05
9.083539566e-05
9.007448279e-05
8.90659794e-05
7.071711004e-05
7.054565875e-05
7.017048647e-05
6.96047635e-05
6.885480501e-05
5.475834508e-05
5.46310024e-05
5.435231216e-05
5.393197857e-05
5.337457863e-05
4.257656303e-05
4.248174331e-05
4.227419707e-05
4.196108066e-05
4.154570271e-05
3.32729846e-05
3.320202809e-05
3.304668658e-05
3.281226075e-05
3.250114891e-05
2.614695662e-05
2.609350003e-05
2.597645023e-05
2.579976012e-05
2.556517894e-05
2.066212546e-05
2.062153877e-05
2.053265325e-05
2.039844127e-05
2.022019047e-05
1.641484195e-05
1.638377413e-05
1.631572575e-05
1.621295281e-05
1.607641345e-05
1.310215516e-05
1.307818028e-05
1.302566087e-05
1.29463259e-05
1.28408978e-05
1.05003934e-05
1.048176062e-05
1.044094128e-05
1.037927229e-05
1.029730459e-05
8.442271403e-06
8.427697443e-06
8.39576756e-06
8.347524264e-06
8.28339388e-06
6.817175925e-06
6.805714131e-06
6.780604013e-06
6.742664352e-06
6.692227614e-06
5.622421721e-06
5.613200708e-06
5.592996054e-06
5.562464572e-06
5.521871905e-06
1.668853356e-05
3.880983874e-06
1.101244256e-06
4.130498826e-07
2.559936084e-07
2.940463175e-07
3.649048944e-07
3.388573321e-07
3.164567595e-07
3.448004323e-07
3.805937756e-07
3.788005105e-07
3.712889049e-07
3.978461318e-07
4.516622437e-07
5.159961104e-07
5.674094297e-07
6.093514209e-07
6.694062826e-07
7.666002867e-07
9.05901487e-07
1.073878747e-06
1.253740524e-06
1.445196917e-06
1.664752281e-06
1.942117884e-06
2.322994281e-06
2.854775451e-06
3.582034121e-06
4.597673383e-06
6.007355762e-06
7.94050183e-06
1.05692219e-05
1.400069382e-05
1.81692699e-05
2.320537826e-05
3.018598407e-05
4.141140749e-05
6.088228093e-05
9.695446143e-05
0.0001674794153
0.0002797556687
0.0004091389144
0.0005294521771
0.000621856219
0.0006762354382
0.0006896272475
0.0006655404659
0.0006122202391
0.0005401754365
0.0004595188953
0.0003793912477
0.0003054136705
0.0002421528261
0.0001897748624
0.0001475503003
0.0001141994086
8.824386602e-05
6.82432819e-05
5.29198816e-05
4.120669564e-05
3.224710935e-05
2.537353578e-05
2.007449983e-05
1.59647697e-05
1.275466464e-05
1.0230243e-05
8.230918209e-06
6.650951994e-06
5.488649077e-06
5.840966532e-05
0.0006743532378
0.0003012063131
8.641655627e-05
2.859321616e-05
1.128192879e-05
9.488436427e-05
0.0009268161957
0.0002972035047
3.394928592e-05
3.652887974e-06
4.124919379e-05
0.0006814250355
0.0007549700442
7.326842254e-05
1.400172313e-06
1.514790273e-05
0.0001707758443
0.001285068993
0.0002557994472
9.873840955e-07
1.208804238e-05
0.0001368510585
0.001494198874
0.0005719910023
1.199225544e-06
1.408492462e-05
0.0001395278302
0.00133014723
0.001006619421
1.365476299e-06
1.331506263e-05
0.0001100877646
0.0008733128087
0.001377267715
1.118924924e-06
8.708155134e-06
5.761086447e-05
0.000359706816
0.001516055436
9.727865157e-07
6.866617684e-06
4.283780629e-05
0.0002576917775
0.001461450588
1.017085212e-06
6.747815299e-06
3.983468765e-05
0.000224561806
0.00121806653
1.063407142e-06
6.413627586e-06
3.456376543e-05
0.0001777787185
0.0008794409714
9.930380122e-07
5.323728341e-06
2.545164426e-05
0.0001151239317
0.0004997187962
9.279905638e-07
4.547268256e-06
2.004998151e-05
8.411801633e-05
0.0003427574472
9.616879148e-07
4.446490407e-06
1.872773252e-05
7.550456816e-05
0.000297021164
1.052041225e-06
4.535902797e-06
1.801776632e-05
6.860862363e-05
0.0002546291862
1.152335369e-06
4.566009497e-06
1.687926103e-05
5.989613907e-05
0.0002068103595
1.206068037e-06
4.362081421e-06
1.483570994e-05
4.847534385e-05
0.0001538218666
1.233916809e-06
4.109423115e-06
1.304781192e-05
4.010499735e-05
0.0001204320741
1.301754792e-06
4.07732571e-06
1.236044754e-05
3.665953431e-05
0.0001071049452
1.439658864e-06
4.285247634e-06
1.246648436e-05
3.567041922e-05
0.0001007138369
1.640530761e-06
4.632820523e-06
1.2870519e-05
3.525422158e-05
9.525045774e-05
1.873997653e-06
4.997782002e-06
1.318555602e-05
3.440078866e-05
8.870306231e-05
2.111985569e-06
5.314322406e-06
1.330467425e-05
3.306510368e-05
8.142600508e-05
2.356594143e-06
5.609950286e-06
1.335640866e-05
3.167096274e-05
7.452731101e-05
2.634709952e-06
5.961773325e-06
1.356003897e-05
3.082460106e-05
6.970584205e-05
2.994239923e-06
6.478620986e-06
1.415445095e-05
3.101522539e-05
6.778592041e-05
3.498963028e-06
7.274747993e-06
1.53242186e-05
3.24574549e-05
6.868793412e-05
4.207305661e-06
8.422831844e-06
1.712176084e-05
3.504581735e-05
7.175335468e-05
5.17874463e-06
9.99598913e-06
1.960825211e-05
3.87608735e-05
7.67404358e-05
6.49378798e-06
1.208418169e-05
2.285680884e-05
4.360134429e-05
8.350385535e-05
8.297100825e-06
1.482345108e-05
2.699470725e-05
4.968997983e-05
9.225069307e-05
1.070764668e-05
1.834732319e-05
3.212857936e-05
5.713397865e-05
0.0001031591116
1.388435797e-05
2.275861104e-05
3.834250425e-05
6.612991358e-05
0.0001166167834
1.789539793e-05
2.812711523e-05
4.589516249e-05
7.734743028e-05
0.0001338442584
2.274732848e-05
3.481821494e-05
5.581872567e-05
9.281107588e-05
0.0001583878764
2.889125168e-05
4.398960619e-05
7.018225603e-05
0.0001158124174
0.0001952694467
3.773641708e-05
5.766336381e-05
9.174902851e-05
0.0001499956749
0.0002485763655
5.198199236e-05
7.95070739e-05
0.0001257021267
0.0002025930046
0.0003242978839
7.638315867e-05
0.0001160669096
0.0001808228608
0.0002814100892
0.0004169520038
0.0001208031421
0.0001795918515
0.0002668360812
0.0003819891701
0.0005170096229
0.0002027059859
0.0002790913667
0.000376822673
0.0004911561383
0.0006129285715
0.0003199820076
0.0003995597216
0.0004929238929
0.0005938678875
0.0006937980172
0.0004471547012
0.0005183438779
0.0005971039962
0.0006771888975
0.0007512926061
0.0005607156563
0.0006168682965
0.0006759452273
0.0007324519367
0.0007806402556
0.0006444114429
0.0006832128842
0.0007217265456
0.0007555966212
0.0007806310595
0.0006899572745
0.0007121864571
0.0007321732366
0.0007467643374
0.00075312273
0.0006957817857
0.0007042893009
0.0007095418297
0.0007094545294
0.0007022862483
0.0006660534812
0.0006646286543
0.0006596145526
0.0006497856053
0.0006342080893
0.0006091291478
0.0006015712818
0.0005905180239
0.0005753424867
0.0005556221102
0.0005352228436
0.0005246791516
0.0005109799372
0.0004939831723
0.0004736030781
0.0004541566789
0.0004430982517
0.0004293909984
0.0004130013858
0.0003940261957
0.0003742441599
0.0003637996287
0.0003509326067
0.0003362111048
0.0003197035046
0.0003009348196
0.0002921098271
0.0002815461828
0.0002694146439
0.0002558957956
0.0002385003285
0.0002313701426
0.0002229041729
0.0002132359821
0.0002025209924
0.0001869067391
0.0001813279232
0.0001747283617
0.000167217562
0.0001589202393
0.0001453527014
0.0001410844906
0.0001360435408
0.0001303154718
0.000123996256
0.000112542063
0.0001093244271
0.000105525871
0.0001012108996
9.645123658e-05
8.700561007e-05
8.460104123e-05
8.176147222e-05
7.853434878e-05
7.497225461e-05
6.732212862e-05
6.553224503e-05
6.341697357e-05
6.101071747e-05
5.835158798e-05
5.223485723e-05
5.090269221e-05
4.932676831e-05
4.753185693e-05
4.554542954e-05
4.069587031e-05
3.970155279e-05
3.852397083e-05
3.718093065e-05
3.569221751e-05
3.186424214e-05
3.11182857e-05
3.023381921e-05
2.922367778e-05
2.810215485e-05
2.508465049e-05
2.452129205e-05
2.385258084e-05
2.308782373e-05
2.223740864e-05
1.985484576e-05
1.942612874e-05
1.891670929e-05
1.833339759e-05
1.768381138e-05
1.579641866e-05
1.546759666e-05
1.507651959e-05
1.462822292e-05
1.412835105e-05
1.262461629e-05
1.237044515e-05
1.206792282e-05
1.17208214e-05
1.133337647e-05
1.012909378e-05
9.931319875e-06
9.695783554e-06
9.425342857e-06
9.123210927e-06
8.151767842e-06
7.996949718e-06
7.812497242e-06
7.600606739e-06
7.363748616e-06
6.588686221e-06
6.466887515e-06
6.321734243e-06
6.154924324e-06
5.968367387e-06
5.438528449e-06
5.340470994e-06
5.223580504e-06
5.089208111e-06
4.938873492e-06
9.094834548e-07
1.51198173e-07
2.33789276e-08
4.702544818e-09
1.19534448e-09
3.223405373e-10
8.541657067e-11
2.331508228e-11
7.286209293e-12
2.944004168e-12
1.590788361e-12
1.062864952e-12
8.014814499e-13
6.460953236e-13
5.414464932e-13
4.640501129e-13
4.024027652e-13
3.504668943e-13
3.051874766e-13
2.650868813e-13
2.295079005e-13
1.981063611e-13
1.705915595e-13
1.46627239e-13
1.258434336e-13
1.078616226e-13
9.232328064e-14
7.891276891e-14
6.736212278e-14
5.744308222e-14
4.89549004e-14
4.17121567e-14
3.553821255e-14
3.026549793e-14
2.573868131e-14
2.182009228e-14
1.839690942e-14
1.538709147e-14
1.273987067e-14
1.04289178e-14
8.440299557e-15
6.760553846e-15
5.369181965e-15
4.236935987e-15
3.328421882e-15
2.606472257e-15
2.036171926e-15
1.587113373e-15
1.234114003e-15
9.568157219e-16
7.389172494e-16
5.674209916e-16
4.319141426e-16
3.239884491e-16
2.368093969e-16
1.648653177e-16
1.039768755e-16
5.325840272e-17
1.578062488e-17
1.584329854e-18
1.449292191e-06
2.526579589e-07
4.818085335e-08
1.044663808e-08
2.691736774e-09
7.566311142e-10
2.326136638e-10
8.607685154e-11
4.04245539e-11
2.321789641e-11
1.50471551e-11
1.050246609e-11
7.712111618e-12
5.897980168e-12
4.658429987e-12
3.769589565e-12
3.102226316e-12
2.580806782e-12
2.161703344e-12
1.818473033e-12
1.534577816e-12
1.298606513e-12
1.101901739e-12
9.372945704e-13
7.989247745e-13
6.819971055e-13
5.826652067e-13
4.979118354e-13
4.254183932e-13
3.633700356e-13
3.103146598e-13
2.650123506e-13
2.263305537e-13
1.932263281e-13
1.64746632e-13
1.400428325e-13
1.18409301e-13
9.932725509e-14
8.247811921e-14
6.770648735e-14
5.494251249e-14
4.412105323e-14
3.512893233e-14
2.779124187e-14
2.188846336e-14
1.718648209e-14
1.346299894e-14
1.052374809e-14
8.207000499e-15
6.381521477e-15
4.942417801e-15
3.806055632e-15
2.905107277e-15
2.184900728e-15
1.600919835e-15
1.117744719e-15
7.098225988e-16
3.721742518e-16
1.238134755e-16
1.74184324e-17
2.679209207e-06
2.64409303e-07
4.831404496e-08
1.19571421e-08
3.622189926e-09
1.300631807e-09
5.565186236e-10
2.913574156e-10
1.765256066e-10
1.170566062e-10
8.110331443e-11
5.806269323e-11
4.262144054e-11
3.20773824e-11
2.466323411e-11
1.930057697e-11
1.530332642e-11
1.225161638e-11
9.886762671e-12
8.037358061e-12
6.583585513e-12
5.434393054e-12
4.520198417e-12
3.786327163e-12
3.190814958e-12
2.701907795e-12
2.296064756e-12
1.956008256e-12
1.669201776e-12
1.426322237e-12
1.220183049e-12
1.044986879e-12
8.957575314e-13
7.681113978e-13
6.581675598e-13
5.625174591e-13
4.783402284e-13
4.035812694e-13
3.370340248e-13
2.781901688e-13
2.269171134e-13
1.831092944e-13
1.464551937e-13
1.16364067e-13
9.203077486e-14
7.255911701e-14
5.707693441e-14
4.480792653e-14
3.509909775e-14
2.741742679e-14
2.133461345e-14
1.650701314e-14
1.265759836e-14
9.561050519e-15
7.033721671e-15
4.931601775e-15
3.157071611e-15
1.684753681e-15
5.952559918e-16
9.798238954e-17
1.124789031e-05
5.162029782e-07
5.765140033e-08
1.341490697e-08
5.006826077e-09
2.414459727e-09
1.358009309e-09
8.545175963e-10
5.768986161e-10
4.06173827e-10
2.925619909e-10
2.146181549e-10
1.59879943e-10
1.210966644e-10
9.307734875e-11
7.247452558e-11
5.694569115e-11
4.503352352e-11
3.577770805e-11
2.856303884e-11
2.294219783e-11
1.856807325e-11
1.515844742e-11
1.248558576e-11
1.037057894e-11
8.676430782e-12
7.302458306e-12
6.17544074e-12
5.242659919e-12
4.465629499e-12
3.815381371e-12
3.269189616e-12
2.808524626e-12
2.417693821e-12
2.08308315e-12
1.79265971e-12
1.536378828e-12
1.30698568e-12
1.100469093e-12
9.155461076e-13
7.524176538e-13
6.114463568e-13
4.923061681e-13
3.936384632e-13
3.13234929e-13
2.484428813e-13
1.965838553e-13
1.552258073e-13
1.222981399e-13
9.609637554e-14
7.523299428e-14
5.857540627e-14
4.519939765e-14
3.435187231e-14
2.542005222e-14
1.793355518e-14
1.159518369e-14
6.306388936e-15
2.345120547e-15
4.493887324e-16
3.371183018e-05
1.508450778e-06
1.28695223e-07
1.998940987e-08
7.914508786e-09
4.630324173e-09
3.009604611e-09
2.054954271e-09
1.455884259e-09
1.059340693e-09
7.848426434e-10
5.897545743e-10
4.483514725e-10
3.44914899e-10
2.681593222e-10
2.105995794e-10
1.66610632e-10
1.325582288e-10
1.058087905e-10
8.471842932e-11
6.803807654e-11
5.489206805e-11
4.453298873e-11
3.636456737e-11
2.989172871e-11
2.472885854e-11
2.057908598e-11
1.721917296e-11
1.448139097e-11
1.223823976e-11
1.039150985e-11
8.864349386e-12
7.596060236e-12
6.53729542e-12
5.645745226e-12
4.883129189e-12
4.215788056e-12
3.618130624e-12
3.075329418e-12
2.582481498e-12
2.140937218e-12
1.753787933e-12
1.422498976e-12
1.145427785e-12
9.178910997e-13
7.332838027e-13
5.844883773e-13
4.649064473e-13
3.68929554e-13
2.919374503e-13
2.301540307e-13
1.804589048e-13
1.402527374e-13
1.073760731e-13
8.006089172e-14
5.696719318e-14
3.728696703e-14
2.073092568e-14
8.11886718e-15
1.846751311e-15
0.0001203718273
6.499196852e-06
4.055340426e-07
4.662819972e-08
1.494452281e-08
8.620061387e-09
5.782299696e-09
4.07762198e-09
2.968243032e-09
2.213030973e-09
1.679831928e-09
1.292769325e-09
1.005950712e-09
7.904971135e-10
6.26523992e-10
5.004842375e-10
4.023178727e-10
3.250598433e-10
2.634651873e-10
2.141170464e-10
1.743405682e-10
1.423427472e-10
1.165360023e-10
9.573802841e-11
7.889131882e-11
6.520611582e-11
5.403435089e-11
4.48987004e-11
3.742260592e-11
3.130980458e-11
2.631390735e-11
2.222936946e-11
1.888678762e-11
1.614801528e-11
1.389623149e-11
1.202232685e-11
1.042258134e-11
9.01105429e-12
7.731844002e-12
6.55953735e-12
5.491852272e-12
4.538124437e-12
3.708031299e-12
3.004702392e-12
2.422441427e-12
1.947889563e-12
1.563994523e-12
1.253988186e-12
1.003493447e-12
8.008446027e-13
6.366641482e-13
5.032980068e-13
3.943582424e-13
3.044561633e-13
2.291278972e-13
1.649350646e-13
1.097489581e-13
6.278440601e-14
2.612166939e-14
7.14699374e-15
0.00037572521
2.653768065e-05
1.704336789e-06
1.717408187e-07
3.027251961e-08
1.398779562e-08
9.01680195e-09
6.426172319e-09
4.783341616e-09
3.655110783e-09
2.84563074e-09
2.247513093e-09
1.795729508e-09
1.448723104e-09
1.178565014e-09
9.657131303e-10
7.959709779e-10
6.59115433e-10
5.475168667e-10
4.558515223e-10
3.800345998e-10
3.172269452e-10
2.650346035e-10
2.216813769e-10
1.85530169e-10
1.553472562e-10
1.300185846e-10
1.087387047e-10
9.085489826e-11
7.58820476e-11
6.340667187e-11
5.307615556e-11
4.457886019e-11
3.763971788e-11
3.201407398e-11
2.746585724e-11
2.37350009e-11
2.056552138e-11
1.776515739e-11
1.521859106e-11
1.28794333e-11
1.07526592e-11
8.861308104e-12
7.226002013e-12
5.852917919e-12
4.726399376e-12
3.813649495e-12
3.076661006e-12
2.480571645e-12
1.996629816e-12
1.601979751e-12
1.278486622e-12
1.011460655e-12
7.887642441e-13
6.004605776e-13
4.387816261e-13
2.984485679e-13
1.771672862e-13
7.939869085e-14
2.615568055e-14
0.0007160987323
0.0001015050091
8.080766049e-06
6.333943598e-07
8.177437116e-08
2.397577238e-08
1.295574044e-08
8.838096033e-09
6.553590044e-09
5.057983906e-09
4.000035132e-09
3.218180881e-09
2.623554851e-09
2.161894469e-09
1.797752898e-09
1.506787631e-09
1.271574066e-09
1.079392513e-09
9.205821102e-10
7.878762384e-10
6.758193439e-10
5.804005809e-10
4.985639154e-10
4.280969519e-10
3.672202211e-10
3.14534014e-10
2.68782573e-10
2.290137054e-10
1.944243619e-10
1.644400345e-10
1.385492907e-10
1.163499045e-10
9.749419006e-11
8.16857169e-11
6.863544743e-11
5.805438714e-11
4.95708613e-11
4.266586118e-11
3.683570253e-11
3.172201251e-11
2.710937273e-11
2.289785528e-11
1.907941326e-11
1.569255383e-11
1.278199723e-11
1.035764613e-11
8.380007192e-12
6.781812285e-12
5.492300026e-12
4.44821374e-12
3.597204021e-12
2.897597362e-12
2.3164037e-12
1.827407775e-12
1.409933806e-12
1.048070042e-12
7.303395025e-13
4.505691986e-13
2.173975062e-13
8.398076174e-14
0.001059770725
0.0002390207169
2.870370752e-05
2.726441844e-06
2.607849166e-07
4.922587078e-08
1.921965566e-08
1.154086458e-08
8.227344367e-09
6.297639174e-09
5.004611338e-09
4.072627941e-09
3.37033823e-09
2.824836639e-09
2.391697043e-09
2.042022594e-09
1.755998757e-09
1.519457967e-09
1.321902891e-09
1.155322943e-09
1.013507502e-09
8.91637075e-10
7.859611422e-10
6.934179095e-10
6.115868592e-10
5.386526199e-10
4.731227725e-10
4.139510536e-10
3.60397155e-10
3.119951972e-10
2.683709594e-10
2.29289784e-10
1.945816553e-10
1.641694976e-10
1.379753717e-10
1.158867149e-10
9.772016544e-11
8.303068917e-11
7.103058505e-11
6.095013247e-11
5.223678573e-11
4.453034095e-11
3.759440541e-11
3.132760826e-11
2.575798562e-11
2.098807965e-11
1.703296872e-11
1.381007119e-11
1.120512934e-11
9.103002954e-12
7.399453912e-12
6.005523234e-12
4.848841143e-12
3.872493659e-12
3.033214031e-12
2.298308883e-12
1.64400932e-12
1.055600146e-12
5.478621548e-13
2.420376129e-13
0.001347374196
0.0004602966363
7.329543862e-05
9.259608902e-06
1.013035419e-06
1.381766767e-07
3.386618589e-08
1.566151826e-08
1.005745527e-08
7.407367647e-09
5.821847799e-09
4.749380819e-09
3.9687642e-09
3.371929271e-09
2.899492412e-09
2.51615237e-09
2.199533383e-09
1.934588476e-09
1.710625246e-09
1.519683382e-09
1.355490188e-09
1.213334648e-09
1.089172698e-09
9.79748695e-10
8.823691176e-10
7.948346038e-10
7.153600986e-10
6.424464376e-10
5.748781218e-10
5.117921903e-10
4.526069709e-10
3.970706264e-10
3.452350275e-10
2.974110753e-10
2.540232423e-10
2.15472711e-10
1.820037034e-10
1.537084282e-10
1.302406308e-10
1.108120113e-10
9.448327786e-11
8.053329184e-11
6.844569223e-11
5.77907513e-11
4.824246309e-11
3.975275156e-11
3.246129482e-11
2.639878557e-11
2.145292872e-11
1.745220189e-11
1.422131993e-11
1.159753351e-11
9.437971065e-12
7.624078488e-12
6.064077708e-12
4.689134446e-12
3.447730785e-12
2.3061448e-12
1.284852451e-12
6.340557177e-13
0.00149551664
0.0007376467374
0.0001659823155
2.513967065e-05
3.306449549e-06
3.988935538e-07
6.959454405e-08
2.261396532e-08
1.222184383e-08
8.396029485e-09
6.427438461e-09
5.213625669e-09
4.379611303e-09
3.762377416e-09
3.280570502e-09
2.890043931e-09
2.565245936e-09
2.290213619e-09
2.05496612e-09
1.851924654e-09
1.675308328e-09
1.520614201e-09
1.384179206e-09
1.262963912e-09
1.154401135e-09
1.056306916e-09
9.668247963e-10
8.843818286e-10
8.075958182e-10
7.352985798e-10
6.665524299e-10
6.006215005e-10
5.370411967e-10
4.757873891e-10
4.173219739e-10
3.624538324e-10
3.120131839e-10
2.666518284e-10
2.268033632e-10
1.92549687e-10
1.635206574e-10
1.389033673e-10
1.17904443e-10
9.988746739e-11
8.427117766e-11
7.050348891e-11
5.833773575e-11
4.781478839e-11
3.899046961e-11
3.176607275e-11
2.592227841e-11
2.11983911e-11
1.734445099e-11
1.414033764e-11
1.140494418e-11
8.995282059e-12
6.800142667e-12
4.738396654e-12
2.82473324e-12
1.525372024e-12
0.001492507793
0.001014606358
0.0003146011598
5.772302568e-05
9.627261781e-06
1.419301988e-06
2.053372622e-07
4.260979172e-08
1.611287191e-08
9.454240077e-09
6.824791652e-09
5.436079246e-09
4.567648734e-09
3.959441226e-09
3.497168319e-09
3.126365027e-09
2.817560051e-09
2.553607964e-09
2.324417292e-09
2.123470318e-09
1.94596251e-09
1.788247627e-09
1.647402837e-09
1.52095907e-09
1.406763517e-09
1.302909896e-09
1.207702708e-09
1.119629383e-09
1.037331952e-09
9.595911052e-10
8.853311286e-10
8.136451461e-10
7.437962108e-10
6.753309732e-10
6.081979802e-10
5.428097208e-10
4.7988543e-10
4.202563225e-10
3.647503399e-10
3.140653962e-10
2.687752024e-10
2.291066434e-10
1.947472955e-10
1.65120999e-10
1.396334962e-10
1.176719252e-10
9.860047683e-11
8.195829225e-11
6.753429773e-11
5.53143702e-11
4.523203189e-11
3.705380713e-11
3.042458426e-11
2.497423079e-11
2.037562742e-11
1.635959764e-11
1.270267132e-11
9.215146371e-12
5.856015746e-12
3.401317943e-12
0.001398283559
0.001244436963
0.0005024481822
0.0001156684987
2.123920349e-05
3.964170936e-06
6.568625226e-07
1.110977423e-07
2.626725415e-08
1.113280788e-08
7.041945396e-09
5.375464107e-09
4.482290855e-09
3.917523745e-09
3.504311803e-09
3.185333213e-09
2.918265873e-09
2.686700174e-09
2.481823322e-09
2.298566288e-09
2.133627972e-09
1.984615418e-09
1.849584426e-09
1.726824388e-09
1.614767561e-09
1.511948971e-09
1.416997377e-09
1.328627709e-09
1.24563923e-09
1.166913121e-09
1.091414842e-09
1.018204562e-09
9.464541379e-10
8.755188159e-10
8.050439009e-10
7.350156212e-10
6.657657333e-10
5.978570674e-10
5.319730786e-10
4.689593201e-10
4.096266001e-10
3.547790409e-10
3.050317448e-10
2.605747694e-10
2.214494001e-10
1.873846515e-10
1.578925817e-10
1.32474848e-10
1.105653286e-10
9.168554115e-11
7.560870109e-11
6.2203068e-11
5.122333055e-11
4.224654082e-11
3.477692642e-11
2.835150586e-11
2.256436798e-11
1.702611762e-11
1.149489425e-11
7.086436522e-12
0.001221261973
0.001404284226
0.0007226757682
0.0002120781283
4.396263516e-05
8.798490045e-06
1.822935233e-06
3.292108445e-07
6.007414332e-08
1.573311414e-08
7.414200561e-09
5.110953616e-09
4.174885488e-09
3.669780124e-09
3.324593399e-09
3.068735482e-09
2.85436137e-09
2.66658534e-09
2.497928655e-09
2.344530695e-09
2.204215739e-09
2.075567075e-09
1.957481223e-09
1.848938484e-09
1.74890968e-09
1.656318163e-09
1.570063749e-09
1.489073759e-09
1.412340724e-09
1.338920418e-09
1.267881941e-09
1.198338906e-09
1.129531292e-09
1.060826917e-09
9.917521358e-10
9.220744281e-10
8.518273628e-10
7.81288746e-10
7.109287361e-10
6.413707342e-10
5.733796465e-10
5.077239333e-10
4.452683472e-10
3.868068664e-10
3.330371713e-10
2.84520561e-10
2.414652242e-10
2.038065585e-10
1.713301319e-10
1.43521774e-10
1.197794488e-10
9.959474118e-11
8.26482043e-11
6.85917272e-11
5.691371077e-11
4.699823825e-11
3.821424385e-11
2.989711552e-11
2.137327996e-11
1.388208835e-11
0.0009926103979
0.001472294374
0.000949993001
0.0003517942323
8.652320778e-05
1.863787415e-05
4.168699606e-06
9.555539476e-07
1.880384456e-07
3.654715886e-08
1.047733041e-08
5.409465255e-09
3.996860299e-09
3.423028192e-09
3.09466058e-09
2.865334818e-09
2.683795187e-09
2.529595388e-09
2.393458579e-09
2.270754908e-09
2.158936669e-09
2.056425524e-09
1.962099986e-09
1.875046879e-09
1.794426172e-09
1.719419402e-09
1.64919043e-09
1.58285591e-09
1.519489153e-09
1.458206144e-09
1.398207082e-09
1.338650338e-09
1.278673683e-09
1.217596093e-09
1.154938876e-09
1.090352217e-09