/*--------------------------------*- C++ -*----------------------------------*\
  =========                 |
  \\      /  F ield         | OpenFOAM: The Open Source CFD Toolbox
   \\    /   O peration     | Website:  https://openfoam.org
    \\  /    A nd           | Version:  10
     \\/     M anipulation  |
\*---------------------------------------------------------------------------*/
FoamFile
{
    format      ascii;
    class       volScalarField;
    location    "3000";
    object      O2;
}
// * * * * * * * * * * * * * * * * * * * * * * * * * * * * * * * * * * * * * //

dimensions      [0 0 0 0 0 0 0];

internalField   nonuniform List<scalar> 
5170
(
0.1966
0.1966
0.1966
0.1966
0.1966
0.1966
0.1966
0.1966
0.1966
0.1966
0.1966
0.1966
0.1966
0.1966
0.1966
0.1966
0.1966
0.1966
0.1966
0.1966
0.1966
0.1966
0.1966
0.1966
0.1966
0.1966
0.1966
0.1966
0.1966
0.1966
0.1966
0.1966
0.1966
0.1966
0.1966
0.1966
0.1966
0.1966
0.1966
0.1966
0.1966
0.1966
0.1966
0.1966
0.1966
0.1966
0.1966
0.1966
0.1966
0.1966
0.1966
0.1966
0.1966
0.1966
0.1966
0.1966
0.1966
0.1966
0.1966
0.1966
0.1966
0.1966
0.1966
0.1966
0.1966
0.1966
0.1966
0.1966
0.1966
0.1966
0.1966
0.1966
0.1966
0.1966
0.1966
0.1966
0.1966
0.1966
0.1966
0.1966
0.1966
0.1966
0.1966
0.1966
0.1966
0.1966
0.1966
0.1966
0.1966
0.1966
0.1966
0.1965999999
0.1965999991
0.1965999932
0.1965999717
0.1965999893
0.1965999404
0.1965995355
0.1965966889
0.1965837305
0.05330034749
0.05338173738
0.05341276548
0.05336031167
0.05329379779
0.05291853715
0.05302077386
0.05305227367
0.05299234125
0.05290003464
0.05271073428
0.05280039921
0.05282559829
0.05277453423
0.05268897054
0.052587516
0.05266185109
0.05267988135
0.05263364937
0.05256308184
0.05250990455
0.05256958654
0.0525823226
0.05253902483
0.05248184025
0.05245917321
0.05250554705
0.05251401261
0.05247408762
0.05242931999
0.05242430257
0.05245941008
0.05246433818
0.05242902941
0.05239544091
0.05239971055
0.05242577606
0.05242799477
0.05239869594
0.05237430532
0.05238223537
0.05240132115
0.05240168729
0.05237894069
0.05236152722
0.05236978667
0.05238357239
0.0523829488
0.05236613955
0.0523538497
0.05236099052
0.05237083711
0.0523698122
0.05235779391
0.05234920438
0.05235482527
0.05236179696
0.05236073054
0.05235233623
0.05234638861
0.05235056259
0.05235545799
0.05235452041
0.05234877977
0.05234472383
0.05234767903
0.05235106846
0.05235033092
0.05234651093
0.05234382567
0.05234581238
0.05234810364
0.05234757416
0.05234514449
0.05234346894
0.05234470455
0.05234618313
0.0523458479
0.05234442876
0.05234351351
0.05234417036
0.05234503899
0.05234487447
0.05234421079
0.05234389157
0.0523436754
0.05234438238
0.05234447415
0.05234446279
0.05234471449
0.05231358905
0.05233675204
0.05234455984
0.05235015506
0.05235762566
0.05020074449
0.05186035232
0.05238364242
0.05271506443
0.05323773425
0.1965996003
0.1965969067
0.1965524365
0.1958849036
0.1870158097
0.1965978149
0.1965853079
0.1964213184
0.1947077687
0.1821826754
0.1965927694
0.1965568979
0.1961688737
0.1931298934
0.1787892147
0.1965807386
0.1964960246
0.1957242811
0.1911021566
0.1759158872
0.1965556248
0.196381491
0.1950460187
0.1888298757
0.17328486
0.1965066811
0.1961814699
0.1940729273
0.1862802424
0.1705477056
0.1964103404
0.1958179416
0.1926092672
0.1833300811
0.1676703206
0.1962254635
0.195178062
0.1906105499
0.1802227264
0.1648142882
0.19588807
0.1941590307
0.1882156407
0.1772131053
0.1621591155
0.1953098756
0.1927020495
0.185585596
0.1743235445
0.1596777407
0.19433275
0.1908070245
0.1828934829
0.1715591762
0.1573475872
0.1928856648
0.1886052023
0.1802118677
0.1689006259
0.1551314128
0.1908978065
0.1861057966
0.1774756727
0.1662847072
0.1529743289
0.1882384346
0.1832265446
0.1745725921
0.1636099322
0.1507894056
0.1847182165
0.1798220838
0.1713736148
0.1607699325
0.1484989388
0.1802211101
0.1757142546
0.1677143559
0.1576112687
0.1459448242
0.1747158532
0.1707430099
0.1633849886
0.1539113938
0.1428959218
0.1683610643
0.1649249846
0.1582857937
0.1495174171
0.139205167
0.1613226406
0.1583652922
0.152453864
0.144445489
0.1348847359
0.1538556901
0.1512997093
0.1460676499
0.1388237923
0.1300415492
0.14619295
0.1439757948
0.1393588616
0.1328521952
0.1248502762
0.1385512618
0.1366169296
0.132541999
0.126721122
0.119472513
0.1310440042
0.1293520711
0.1257561926
0.1205607405
0.1140186026
0.1237139031
0.1222273125
0.1190447459
0.1144048389
0.1085018872
0.1165246862
0.1152054322
0.1123679901
0.108202515
0.1028609237
0.1093599405
0.1081780579
0.1056283452
0.1018641139
0.09700303716
0.1020895678
0.1010211062
0.09870819659
0.09527833502
0.09082308953
0.0946155574
0.09364007561
0.09152401372
0.08837325718
0.08425931614
0.08689293304
0.08599429554
0.08403975669
0.08112010652
0.07729526328
0.07890900548
0.07807300789
0.07625275282
0.07352756598
0.0699476512
0.07063747718
0.06985352047
0.06814444057
0.06558232109
0.06221251741
0.06197646685
0.06123507451
0.0596185665
0.05719507421
0.05400843752
0.05269079739
0.05198726989
0.05045528432
0.04816656065
0.04517286451
0.04247952556
0.04182768259
0.04041438542
0.03832060964
0.03562080633
0.03146163722
0.03091274708
0.02973222019
0.02800797012
0.02582989013
0.02106538843
0.0206745212
0.01983980259
0.01863626117
0.01714038114
0.01299083531
0.01275292133
0.01224692787
0.01152283222
0.01063327035
0.00760208293
0.007474275813
0.007203964555
0.006821520099
0.006360871531
0.004348542713
0.004291785841
0.004174209643
0.004014962483
0.00383812755
0.002573813088
0.0025654092
0.002553008869
0.002550969537
0.002580940787
0.001868218982
0.001902232003
0.001983441668
0.002124557363
0.002347451963
0.002170325889
0.002245743934
0.002417029364
0.002692093118
0.003088242417
0.003402100447
0.003511701234
0.003757168305
0.004142284904
0.004680810108
0.005472572751
0.005611520396
0.005920643819
0.006400055076
0.007060229716
0.008365434181
0.008529062629
0.008891532892
0.00945063193
0.010213295
0.01209554898
0.01227926725
0.01268505601
0.01330644459
0.01414738997
0.0166444856
0.0168417656
0.01727655426
0.01793974762
0.01883260111
0.02194324681
0.02214775997
0.02259779077
0.02328233594
0.02420043632
0.02787075038
0.02807654467
0.02852888938
0.02921560036
0.03013411393
0.03427029159
0.03447234078
0.03491611479
0.03558890974
0.03648714801
0.04097317435
0.04116767467
0.04159469174
0.04224134545
0.04310388678
0.04781458051
0.04799876018
0.04840292057
0.04901471076
0.04982978533
0.05464780712
0.05482059852
0.05519971488
0.05577348027
0.05653770058
0.06136219421
0.06152292355
0.06187553861
0.06240911002
0.0631196408
0.06787936912
0.06802807739
0.06835431223
0.06884795491
0.06950530285
0.07414828642
0.07428543132
0.07458630909
0.0750416116
0.07564796122
0.08013999937
0.08026626683
0.08054329919
0.08096256541
0.08152101237
0.08584240886
0.08595859008
0.08621351608
0.08659938125
0.08711343927
0.09125521835
0.09136212989
0.09159673905
0.09195190737
0.09242517027
0.09638592645
0.09648436253
0.09670039543
0.09702749414
0.09746344778
0.1012463669
0.1013370715
0.1015361561
0.1018376405
0.1022395401
0.1058511519
0.1059348112
0.1061184503
0.1063965864
0.1067674355
0.1102150382
0.1102922725
0.1104618226
0.1107186553
0.1110611644
0.1143541301
0.114425504
0.1145822021
0.1148195978
0.1151362417
0.1182813874
0.1183474034
0.118492348
0.1187119624
0.1190049357
0.1220134128
0.1220745349
0.1222087434
0.122412112
0.1226834515
0.1255569541
0.1256135762
0.1257379083
0.1259263269
0.1261777513
0.1289262106
0.1289787235
0.1290940387
0.1292688059
0.1295020381
0.1320784883
0.1321271988
0.1322341646
0.1323962875
0.1326126685
0.1347368573
0.1347824293
0.1348825156
0.1350342303
0.1352367482
0.1619453427
0.16122213
0.1607545445
0.1596646286
0.1581390031
0.1562509559
0.1541442553
0.1520192952
0.1500390543
0.1481800476
0.1464177417
0.144715078
0.1430423942
0.1413277137
0.1395106397
0.1374213106
0.1348306502
0.1316129106
0.1277901668
0.1234628852
0.1187956763
0.113932773
0.1089688456
0.1039005984
0.09866134008
0.09315181924
0.0872701335
0.08096228446
0.07421896759
0.06706043232
0.05949215906
0.05144161928
0.04278316169
0.03350805401
0.02416952946
0.01602243216
0.009978865698
0.006032949936
0.003730728008
0.002641820072
0.002567464845
0.003444387164
0.005149238788
0.007624173865
0.01085700495
0.01485081703
0.01957464486
0.02495989044
0.03089137137
0.03722599526
0.04381158728
0.05049918244
0.0571645045
0.06370225163
0.07004430028
0.07614520425
0.0819790655
0.08753518696
0.09281355125
0.09782130691
0.102569532
0.1070720087
0.1113425288
0.1153964155
0.1192457091
0.1229064855
0.1263844506
0.1296938061
0.1327906089
0.1354033147
0.1118516678
0.03159094452
0.05483223734
0.07406961824
0.1125960351
0.1235839938
0.06371086338
0.03720802456
0.08260477561
0.1395152268
0.1286816506
0.07720591121
0.01886523283
0.07187659781
0.1453077451
0.1307070296
0.08194615023
0.02062419691
0.05473114126
0.1272718215
0.1314287172
0.08686834644
0.03700174461
0.04080829891
0.1057706793
0.1315210654
0.09137450437
0.04908858068
0.02837033109
0.08232583437
0.13130681
0.09440984608
0.05431998852
0.02027040362
0.06027979602
0.1308464083
0.09646976871
0.05837927213
0.02016722212
0.04446168812
0.1303200278
0.0984177304
0.06376167957
0.02977449778
0.03423173275
0.1297359757
0.1001278847
0.0684428572
0.03718605491
0.02686683676
0.1290916158
0.1013893304
0.07164073842
0.04121015687
0.02182656027
0.1283518305
0.1022281315
0.07410930574
0.04480074031
0.02073624922
0.1275537561
0.1029387954
0.07668297821
0.04968661275
0.02612366535
0.1266667256
0.1034925653
0.07898453226
0.05396880254
0.03127593269
0.1256467967
0.1037878759
0.08068930954
0.05694259933
0.03442518045
0.1243009026
0.1035888815
0.08161769185
0.05877456077
0.0363575949
0.1224356288
0.1027743696
0.0818266434
0.05990660689
0.03802238345
0.1199735534
0.101374424
0.08150218185
0.06073091015
0.03999269631
0.1169439295
0.09943920025
0.08071721723
0.06117971957
0.04166942613
0.113435692
0.09705447967
0.07948981951
0.06113290391
0.04271364194
0.1095907392
0.09432990947
0.07788047082
0.06060871359
0.04315600236
0.1055255326
0.09136118965
0.07597602366
0.05970683631
0.04311650221
0.1013093873
0.08818746278
0.07379924062
0.05846097847
0.04269764061
0.09691879671
0.0847617414
0.07129905605
0.05684592608
0.04193048554
0.09228290671
0.08100536539
0.0684003989
0.05479227647
0.04072826472
0.08729750169
0.07680527112
0.06498671589
0.05217000963
0.03893530301
0.08186668668
0.07207049968
0.06095923566
0.04887860732
0.03646361977
0.0759477267
0.06676762888
0.05629805241
0.04492139886
0.03335506595
0.06954096085
0.06090851399
0.05104031284
0.04037455813
0.02974214189
0.06267243458
0.05453964245
0.04526409266
0.03537329573
0.0258210897
0.05536256465
0.04770297956
0.0390619269
0.03008455129
0.02180192378
0.04755431049
0.04041136945
0.03254417165
0.02470787676
0.01788644016
0.03918217246
0.03272622734
0.02590651495
0.01948657896
0.01425481572
0.03035316508
0.02493137286
0.01950964902
0.01470838181
0.01107395962
0.02171710461
0.01769099157
0.01386756357
0.01068073991
0.008516967771
0.01438563134
0.01178932588
0.009439139297
0.00764723306
0.006741895692
0.00902862308
0.007579009481
0.006377393568
0.005681451219
0.005819194032
0.005565205308
0.004929962553
0.004572336572
0.004741709908
0.005761259744
0.003591489636
0.003544550929
0.003852094178
0.004757074615
0.006480757965
0.00275764012
0.003209014593
0.004104110373
0.005610602172
0.007880767298
0.002923732801
0.003825732296
0.005202276064
0.007182803087
0.009889186118
0.004002722519
0.005267112828
0.007030653261
0.009396102539
0.01245703589
0.005874471256
0.007440037232
0.009524844806
0.01220697508
0.01555389952
0.008491005092
0.01030943105
0.01265914719
0.01559541496
0.01916228886
0.01184153102
0.01386447897
0.01642114927
0.01954643846
0.02326431266
0.01592269554
0.01809385303
0.02079344644
0.0240380519
0.02783574488
0.02070223466
0.02296246628
0.02573840578
0.02903295933
0.03284089937
0.0261115675
0.02840207321
0.03118958116
0.03446651763
0.03821847976
0.03203798803
0.03430585171
0.03704778839
0.04024916259
0.0438898895
0.03834354197
0.04054573067
0.04319628788
0.04627587024
0.04976137297
0.04488145823
0.04698543471
0.04951030036
0.0524354715
0.05573649788
0.05151064877
0.05349726555
0.05587819877
0.05863034404
0.06172998316
0.05811116882
0.05996859869
0.06219195317
0.06476071119
0.06765190411
0.06458202104
0.06630782582
0.06837300835
0.07075853315
0.07344314896
0.07085816432
0.07245492615
0.07436589893
0.07657369864
0.07905898878
0.07689602603
0.07836960973
0.08013378153
0.08217287323
0.08446948427
0.08267074474
0.08402886293
0.08565559168
0.08753692903
0.08965732699
0.08817208885
0.08942327446
0.0909227558
0.09265808188
0.0946154169
0.0934001144
0.09455299928
0.09593547782
0.09753650557
0.09934379503
0.09836182193
0.09942473758
0.1007000718
0.1021780348
0.1038477195
0.1030680026
0.1040487125
0.1052260785
0.1065914208
0.1081350544
0.1075321232
0.1084377895
0.1095256519
0.1107880061
0.1122162429
0.1117676207
0.1126047069
0.1136107073
0.1147787747
0.1161012473
0.1157895223
0.116563944
0.1174950828
0.1185768415
0.1198023879
0.1196095343
0.1203265273
0.1211890025
0.122191523
0.123327989
0.1232435238
0.1239079689
0.1247075632
0.1256374444
0.1266921514
0.1266968341
0.1273128392
0.1280544258
0.1289172448
0.1298964075
0.1299836271
0.1305553252
0.1312437973
0.1320451331
0.1329549352
0.133059572
0.1335901978
0.13422943
0.1349737742
0.1358193001
0.1356551072
0.1361519782
0.1367507574
0.1374482819
0.1382409883
0.2165846195
0.2283798439
0.2297561097
0.2299504428
0.2299870975
0.2299963116
0.2299988829
0.2299996089
0.2299998306
0.2299999113
0.229999948
0.2299999679
0.2299999797
0.2299999871
0.2299999918
0.2299999948
0.2299999968
0.229999998
0.2299999988
0.2299999993
0.2299999996
0.2299999998
0.2299999999
0.2299999999
0.23
0.23
0.23
0.23
0.23
0.23
0.23
0.23
0.23
0.23
0.23
0.23
0.23
0.23
0.23
0.23
0.23
0.23
0.23
0.23
0.23
0.23
0.23
0.23
0.23
0.23
0.23
0.23
0.23
0.23
0.23
0.23
0.23
0.23
0.23
0.23
0.2076848013
0.2264548081
0.2293837405
0.2298657061
0.22996127
0.2299862261
0.2299941371
0.2299970583
0.229998374
0.2299990543
0.2299994405
0.2299996667
0.2299998013
0.2299998816
0.2299999296
0.2299999582
0.2299999753
0.2299999855
0.2299999915
0.2299999951
0.2299999972
0.2299999984
0.2299999991
0.2299999995
0.2299999997
0.2299999999
0.2299999999
0.23
0.23
0.23
0.23
0.23
0.23
0.23
0.23
0.23
0.23
0.23
0.23
0.23
0.23
0.23
0.23
0.23
0.23
0.23
0.23
0.23
0.23
0.23
0.23
0.23
0.23
0.23
0.23
0.23
0.23
0.23
0.23
0.23
0.2045345435
0.2255553435
0.2291726979
0.2297687086
0.2299084161
0.2299544711
0.2299747315
0.2299849871
0.2299909049
0.2299944433
0.2299966365
0.2299979822
0.229998806
0.229999302
0.229999597
0.2299997697
0.2299998695
0.2299999265
0.2299999588
0.229999977
0.2299999872
0.2299999929
0.2299999961
0.2299999979
0.2299999988
0.2299999994
0.2299999997
0.2299999998
0.2299999999
0.23
0.23
0.23
0.23
0.23
0.23
0.23
0.23
0.23
0.23
0.23
0.23
0.23
0.23
0.23
0.23
0.23
0.23
0.23
0.23
0.23
0.23
0.23
0.23
0.23
0.23
0.23
0.23
0.23
0.23
0.23
0.1893892771
0.220591738
0.2283406091
0.229514712
0.2297625514
0.2298590514
0.2299117962
0.2299438698
0.2299642697
0.2299773703
0.2299858441
0.2299912631
0.2299946983
0.2299968363
0.2299981467
0.2299989332
0.2299993965
0.2299996636
0.229999815
0.2299998992
0.2299999455
0.2299999707
0.2299999843
0.2299999916
0.2299999956
0.2299999977
0.2299999988
0.2299999994
0.2299999997
0.2299999998
0.2299999999
0.23
0.23
0.23
0.23
0.23
0.23
0.23
0.23
0.23
0.23
0.23
0.23
0.23
0.23
0.23
0.23
0.23
0.23
0.23
0.23
0.23
0.23
0.23
0.23
0.23
0.23
0.23
0.23
0.23
0.1701990059
0.2111400265
0.2260148516
0.2289487863
0.2294614729
0.2296530649
0.2297669719
0.2298434286
0.2298953717
0.2299306308
0.2299545187
0.2299705665
0.2299812513
0.2299882575
0.2299927863
0.2299956549
0.2299974381
0.2299985207
0.2299991638
0.2299995365
0.2299997477
0.2299998648
0.2299999284
0.2299999625
0.2299999805
0.2299999899
0.2299999948
0.2299999973
0.2299999987
0.2299999993
0.2299999997
0.2299999998
0.2299999999
0.23
0.23
0.23
0.23
0.23
0.23
0.23
0.23
0.23
0.23
0.23
0.23
0.23
0.23
0.23
0.23
0.23
0.23
0.23
0.23
0.23
0.23
0.23
0.23
0.23
0.23
0.23
0.1466649801
0.1945369405
0.2196278643
0.2275043955
0.2288973568
0.2292993264
0.2295147754
0.2296603217
0.2297624519
0.2298346504
0.2298857792
0.2299218965
0.2299472591
0.2299648926
0.2299770166
0.2299852257
0.2299906932
0.229994262
0.2299965444
0.2299979678
0.229998834
0.2299993465
0.2299996422
0.2299998082
0.2299998991
0.2299999478
0.2299999734
0.2299999866
0.2299999933
0.2299999967
0.2299999984
0.2299999992
0.2299999996
0.2299999998
0.2299999999
0.23
0.23
0.23
0.23
0.23
0.23
0.23
0.23
0.23
0.23
0.23
0.23
0.23
0.23
0.23
0.23
0.23
0.23
0.23
0.23
0.23
0.23
0.23
0.23
0.23
0.1218141691
0.1738537782
0.2077230292
0.2235494927
0.2278375219
0.2287970149
0.2291808349
0.2294146187
0.2295768215
0.2296937051
0.2297790077
0.2298414657
0.2298871506
0.2299204329
0.2299445282
0.2299618338
0.2299741452
0.2299827958
0.2299887846
0.2299928507
0.2299955528
0.2299973036
0.2299984091
0.229999087
0.2299994907
0.2299997235
0.2299998537
0.2299999245
0.2299999618
0.2299999811
0.2299999908
0.2299999955
0.2299999979
0.229999999
0.2299999995
0.2299999998
0.2299999999
0.23
0.23
0.23
0.23
0.23
0.23
0.23
0.23
0.23
0.23
0.23
0.23
0.23
0.23
0.23
0.23
0.23
0.23
0.23
0.23
0.23
0.23
0.23
0.1009277737
0.1533236195
0.1911325255
0.2154175241
0.2253565679
0.2279719267
0.2287545032
0.2291254203
0.2293611279
0.2295275569
0.2296497086
0.2297407221
0.2298088682
0.2298598923
0.229897996
0.2299263316
0.2299472929
0.2299626965
0.2299739357
0.2299820669
0.2299878858
0.2299919911
0.2299948358
0.2299967611
0.2299980282
0.2299988363
0.229999335
0.2299996322
0.2299998032
0.2299998979
0.2299999486
0.2299999747
0.2299999879
0.2299999943
0.2299999973
0.2299999987
0.2299999994
0.2299999997
0.2299999999
0.23
0.23
0.23
0.23
0.23
0.23
0.23
0.23
0.23
0.23
0.23
0.23
0.23
0.23
0.23
0.23
0.23
0.23
0.23
0.23
0.23
0.08266781167
0.1357651864
0.1751594399
0.2034035204
0.2203809548
0.2264620406
0.2281496064
0.2287790593
0.2291179835
0.2293426867
0.2295046896
0.2296255897
0.2297171497
0.2297868843
0.2298400611
0.2298805664
0.2299113443
0.2299346512
0.2299522263
0.2299654144
0.2299752524
0.2299825366
0.2299878774
0.2299917491
0.2299945146
0.2299964509
0.2299977744
0.2299986516
0.2299992123
0.2299995567
0.2299997598
0.2299998746
0.2299999368
0.2299999691
0.2299999852
0.2299999931
0.2299999968
0.2299999985
0.2299999993
0.2299999997
0.2299999999
0.23
0.23
0.23
0.23
0.23
0.23
0.23
0.23
0.23
0.23
0.23
0.23
0.23
0.23
0.23
0.23
0.23
0.23
0.23
0.06540986028
0.1179131725
0.1597886467
0.1904145864
0.2120352357
0.2234786091
0.2271612352
0.2283117718
0.2288242936
0.2291296137
0.2293401415
0.2294948295
0.2296118694
0.2297016819
0.2297710572
0.2298247852
0.229866408
0.2298986173
0.2299234911
0.2299426462
0.2299573542
0.229968586
0.2299771223
0.2299835665
0.2299883885
0.2299919541
0.2299945497
0.229996404
0.2299976988
0.2299985777
0.2299991543
0.2299995177
0.2299997363
0.2299998615
0.22999993
0.2299999657
0.2299999837
0.2299999924
0.2299999965
0.2299999985
0.2299999994
0.2299999997
0.2299999999
0.23
0.23
0.23
0.23
0.23
0.23
0.23
0.23
0.23
0.23
0.23
0.23
0.23
0.23
0.23
0.23
0.23
0.05055572628
0.1003340219
0.1440626037
0.1767911268
0.2013260297
0.2178869084
0.2252512206
0.227582101
0.2284321098
0.2288662233
0.2291440679
0.2293415402
0.2294889503
0.2296018244
0.2296894515
0.2297579771
0.2298117533
0.2298540319
0.2298872078
0.2299132309
0.2299336302
0.2299495928
0.2299620483
0.2299717263
0.2299792012
0.2299849279
0.2299892677
0.2299925113
0.2299948951
0.2299966118
0.229997818
0.2299986419
0.2299991865
0.2299995326
0.2299997427
0.2299998642
0.2299999312
0.2299999666
0.2299999844
0.229999993
0.229999997
0.2299999988
0.2299999995
0.2299999998
0.23
0.23
0.23
0.23
0.23
0.23
0.23
0.23
0.23
0.23
0.23
0.23
0.23
0.23
0.23
0.23
0.03957456754
0.08451334345
0.1289652768
0.1638356344
0.1896611449
0.2088895506
0.2211071726
0.226146299
0.2278300322
0.228522942
0.2289073431
0.2291632144
0.2293484912
0.2294885413
0.2295970367
0.2296819143
0.2297487914
0.2298018178
0.2298439925
0.2298775787
0.2299043556
0.2299257011
0.2299426913
0.2299561764
0.2299668339
0.2299752063
0.2299817306
0.2299867612
0.2299905891
0.2299934549
0.229995559
0.2299970688
0.2299981242
0.2299988398
0.2299993087
0.2299996041
0.2299997827
0.229999886
0.2299999431
0.2299999731
0.2299999879
0.2299999949
0.229999998
0.2299999993
0.2299999998
0.2299999999
0.23
0.23
0.23
0.23
0.23
0.23
0.23
0.23
0.23
0.23
0.23
0.23
0.23
0.23
0.0321303802
0.07088729852
0.1147635739
0.151217424
0.1788127893
0.1992070794
0.2140466815
0.2230121373
0.2266833537
0.2280244164
0.2286262295
0.2289744083
0.2292099884
0.2293800192
0.2295105931
0.2296096319
0.2296878502
0.2297502974
0.2298004927
0.2298409866
0.2298737144
0.229900177
0.2299215597
0.2299388082
0.2299526813
0.2299637908
0.2299726324
0.2299796109
0.22998506
0.2299892574
0.2299924377
0.2299948009
0.229996518
0.2299977343
0.2299985714
0.2299991294
0.2299994888
0.2299997117
0.2299998447
0.2299999204
0.2299999615
0.2299999825
0.2299999926
0.2299999971
0.229999999
0.2299999997
0.2299999999
0.23
0.23
0.23
0.23
0.23
0.23
0.23
0.23
0.23
0.23
0.23
0.23
0.23
0.02676374155
0.05868493341
0.1006915062
0.1382817386
0.1675556916
0.1895296539
0.2056840769
0.2172312706
0.2241266596
0.2270939398
0.2282680401
0.2288107866
0.2291170849
0.2293165168
0.2294631461
0.2295702824
0.2296541636
0.2297208747
0.2297745712
0.2298181248
0.2298536062
0.2298825723
0.2299062316
0.2299255467
0.2299412954
0.2299541107
0.229964506
0.2299728938
0.2299796064
0.2299849172
0.2299890594
0.2299922339
0.2299946159
0.2299963614
0.2299976077
0.2299984729
0.2299990559
0.2299994364
0.2299996764
0.2299998222
0.229999907
0.2299999541
0.2299999788
0.2299999909
0.2299999964
0.2299999987
0.2299999996
0.2299999999
0.23
0.23
0.23
0.23
0.2299999999
0.2299999999
0.2299999999
0.2299999999
0.23
0.23
0.23
0.23
0.02278833761
0.04814132766
0.08696911283
0.124970722
0.1558481223
0.1794050652
0.197012593
0.2098911987
0.2191150872
0.2248824899
0.2275587168
0.2286318958
0.229099057
0.2293392666
0.2294906096
0.2295963554
0.2296752847
0.2297365844
0.2297854048
0.2298249117
0.2298572024
0.2298837568
0.2299056705
0.229923785
0.2299387658
0.2299511465
0.2299613607
0.2299697639
0.2299766471
0.2299822419
0.2299867339
0.229990287
0.2299930481
0.2299951447
0.2299966953
0.2299978114
0.2299985918
0.2299991212
0.2299994695
0.2299996915
0.229999828
0.2299999087
0.2299999542
0.2299999785
0.2299999907
0.2299999963
0.2299999988
0.2299999997
0.2299999999
0.23
0.23
0.23
0.2299999999
0.2299999999
0.2299999999
0.2299999999
0.2299999999
0.2299999999
0.2299999999
0.23
0.02018861664
0.03948817994
0.07459633899
0.1117950273
0.1439420032
0.1690484838
0.1881008627
0.2023096287
0.2127377145
0.2204035467
0.2255508894
0.2281027031
0.2290534542
0.229412241
0.2295802137
0.2296781349
0.2297442453
0.2297927838
0.229830265
0.2298601398
0.2298844418
0.2299044748
0.2299211332
0.2299350648
0.229946759
0.2299565966
0.229964879
0.2299718468
0.229977694
0.2299825746
0.22998661
0.2299899016
0.2299925411
0.2299946166
0.2299962109
0.2299974025
0.2299982681
0.229998878
0.2299992949
0.2299995712
0.2299997484
0.2299998583
0.229999924
0.2299999614
0.2299999818
0.2299999921
0.229999997
0.229999999
0.2299999998
0.23
0.23
0.23
0.2299999999
0.2299999999
0.2299999999
0.2299999999
0.2299999999
0.2299999999
0.2299999999
0.2299999999
0.01954275473
0.03287632288
0.06392668742
0.09962199495
0.1321619913
0.1586404638
0.1790678155
0.1945951252
0.206269677
0.2150108926
0.2216607032
0.2263564807
0.2286717276
0.2294159184
0.2296567679
0.2297603093
0.229817889
0.22985543
0.2298824042
0.2299030034
0.2299193576
0.2299326732
0.2299437001
0.2299529397
0.229960747
0.2299673844
0.229973052
0.2299779042
0.2299820598
0.2299856101
0.2299886261
0.2299911644
0.229993271
0.2299949875
0.2299963552
0.2299974157
0.2299982146
0.2299988
0.2299992169
0.2299995047
0.2299996971
0.2299998215
0.229999899
0.2299999456
0.2299999724
0.229999987
0.2299999945
0.229999998
0.2299999995
0.23
0.2300000001
0.23
0.23
0.2299999999
0.2299999999
0.2299999999
0.2299999998
0.2299999999
0.2299999999
0.2299999999
0.02126571163
0.02826232631
0.05498822132
0.08857156692
0.1209146031
0.148308246
0.1700009817
0.186805269
0.1997251435
0.2096378344
0.2172689578
0.2232487707
0.2274137359
0.2291769528
0.2296576972
0.2298040412
0.2298656204
0.2298992049
0.2299207282
0.2299359621
0.2299474012
0.2299563429
0.2299635344
0.2299694356
0.2299743495
0.2299784913
0.2299820159
0.2299850365
0.2299876371
0.2299898803
0.2299918133
0.2299934712
0.2299948809
0.2299960637
0.2299970385
0.2299978242
0.229998441
0.2299989123
0.2299992622
0.2299995144
0.2299996907
0.22999981
0.2299998879
0.2299999367
0.2299999661
0.2299999831
0.2299999923
0.229999997
0.2299999991
0.2299999999
0.2300000001
0.2300000001
0.23
0.2299999999
0.2299999999
0.2299999998
0.2299999998
0.2299999998
0.2299999998
0.2299999998
0.02332453173
0.02487885223
0.0473827952
0.0784930102
0.1101733272
0.1380972749
0.1609282468
0.1789508026
0.1930901516
0.2041687212
0.2128716248
0.2197422525
0.2251502152
0.2284641269
0.2295332542
0.2297981034
0.229883037
0.2299208006
0.2299418648
0.22995534
0.2299647082
0.2299715781
0.2299768064
0.2299808966
0.2299841681
0.2299868364
0.2299890388
0.2299908809
0.2299924366
0.2299937592
0.2299948871
0.2299958507
0.2299966732
0.2299973715
0.2299979591
0.2299984466
0.2299988438
0.2299991605
0.2299994067
0.2299995929
0.2299997296
0.2299998267
0.2299998933
0.2299999372
0.229999965
0.2299999817
0.2299999912
0.2299999964
0.2299999989
0.2299999999
0.2300000002
0.2300000002
0.2300000001
0.23
0.2299999999
0.2299999998
0.2299999998
0.2299999997
0.2299999997
0.2299999997
0.02481328101
0.02225841425
0.04084620246
0.06926602611
0.09986486726
0.1279786869
0.1517460884
0.1709437967
0.1862709
0.1984900583
0.2082431053
0.2160555725
0.2223231425
0.2269636657
0.2291651102
0.2297294709
0.2298728288
0.2299243356
0.2299493131
0.2299638283
0.2299731679
0.2299795632
0.2299841279
0.2299874859
0.229990016
0.229991962
0.2299934859
0.2299946968
0.2299956706
0.2299964619
0.2299971116
0.2299976472
0.2299980926
0.2299984654
0.2299987786
0.2299990415
0.2299992612
0.2299994427
0.2299995899
0.2299997066
0.2299997967
0.2299998641
0.2299999127
0.2299999465
0.2299999689
0.2299999832
0.2299999917
0.2299999965
0.2299999989
0.23
0.2300000003
0.2300000003
0.2300000002
0.23
0.2299999999
0.2299999998
0.2299999997
0.2299999997
0.2299999996
0.2299999997
0.02572167931
0.02016640436
0.03524807758
0.06090486527
0.0900938123
0.1180653582
0.1424910674
0.162786591
0.1792511013
0.1925739295
0.2033437852
0.2120406042
0.2190493754
0.2246606749
0.2282855396
0.2295337334
0.2298281347
0.2299127265
0.2299470125
0.2299648927
0.2299756188
0.2299825657
0.2299872717
0.2299905552
0.229992896
0.2299945941
0.2299958463
0.2299967813
0.229997485
0.2299980189
0.2299984271
0.2299987416
0.2299989869
0.2299991814
0.2299993394
0.2299994701
0.22999958
0.2299996728
0.2299997507
0.2299998149
0.2299998667
0.2299999074
0.2299999382
0.2299999607
0.2299999764
0.2299999869
0.2299999934
0.2299999973
0.2299999993
0.2300000002
0.2300000005
0.2300000004
0.2300000003
0.23
0.2299999999
0.2299999997
0.2299999996
0.2299999996
0.2299999995
0.2299999995
0.02617277496
0.01853129821
0.03052666259
0.05346159529
0.08099735789
0.1085032878
0.1333198974
0.1545207334
0.1720598246
0.1864378792
0.1981970129
0.2077859399
0.2155643856
0.2218171171
0.2265612841
0.2290412604
0.2297185555
0.2298821912
0.2299362288
0.2299606602
0.2299741389
0.2299824121
0.2299877942
0.2299914162
0.2299939046
0.2299956373
0.2299968555
0.2299977184
0.2299983329
0.2299987704
0.2299990817
0.2299993031
0.2299994612
0.2299995755
0.2299996605
0.2299997263
0.2299997796
0.2299998242
0.2299998623
0.2299998947
0.2299999218
0.229999944
0.2299999615
0.2299999749
0.2299999846
0.2299999914
0.2299999958
0.2299999984
0.2299999999
0.2300000005
0.2300000006
0.2300000005
0.2300000003
0.2300000001
0.2299999998
0.2299999997
0.2299999995
0.2299999994
0.2299999994
0.2299999994
0.02635439842
0.01740422481
0.02670181336
0.04702732905
0.07275180081
0.09949800853
0.1244131794
0.1462234815
0.1647208993
0.1800683183
0.1927523311
0.2031857392
0.2117072511
0.2186039496
0.2241266203
0.2279293808
0.2294454607
0.2298141741
0.229913474
0.2299509053
0.2299693632
0.2299799743
0.2299865895
0.2299908996
0.2299937802
0.2299957346
0.2299970723
0.2299979914
0.2299986229
0.2299990547
0.2299993471
0.2299995434
0.2299996741
0.2299997609
0.2299998189
0.2299998589
0.229999888
0.2299999105
0.229999929
0.2299999447
0.229999958
0.2299999693
0.2299999785
0.2299999858
0.2299999914
0.2299999953
0.2299999979
0.2299999996
0.2300000004
0.2300000007
0.2300000007
0.2300000006
0.2300000003
0.23
0.2299999998
0.2299999996
0.2299999994
0.2299999993
0.2299999992
0.2299999992
0.02636377811
0.0167846108
0.02370114011
0.04161124866
0.0654682086
0.09122354577
0.1159669371
0.1381577371
0.1573397735
0.1735724575
0.1871170072
0.1983576513
0.2076148598
0.2151544252
0.221200204
0.2259192954
0.2287455488
0.2296497257
0.2298676574
0.2299335736
0.229961111
0.2299755268
0.2299840463
0.2299894154
0.2299929204
0.2299952534
0.2299968224
0.2299978821
0.229998598
0.2299990803
0.2299994014
0.2299996111
0.2299997458
0.2299998311
0.2299998845
0.2299999179
0.2299999393
0.2299999537
0.2299999642
0.2299999724
0.229999979
0.2299999846
0.2299999892
0.229999993
0.2299999959
0.229999998
0.2299999995
0.2300000003
0.2300000007
0.2300000008
0.2300000007
0.2300000005
0.2300000002
0.2299999999
0.2299999996
0.2299999994
0.2299999992
0.2299999991
0.229999999
0.229999999
0.02604038031
0.01649024761
0.02148598531
0.03721781204
0.05921175026
0.08379063305
0.108099903
0.1304240935
0.1500683984
0.1669966603
0.1813183422
0.1933094704
0.2032724699
0.2114639768
0.2181045834
0.2233806805
0.2272750089
0.2292344297
0.229768875
0.2299026314
0.2299480254
0.2299687697
0.2299801675
0.2299870674
0.2299914626
0.2299943404
0.2299962525
0.2299975313
0.2299983875
0.2299989587
0.2299993371
0.2299995841
0.229999742
0.2299998406
0.229999901
0.2299999374
0.2299999591
0.2299999722
0.2299999804
0.2299999859
0.2299999898
0.2299999928
0.2299999952
0.2299999971
0.2299999985
0.2299999996
0.2300000003
0.2300000007
0.2300000008
0.2300000008