/*--------------------------------*- C++ -*----------------------------------*\
  =========                 |
  \\      /  F ield         | OpenFOAM: The Open Source CFD Toolbox
   \\    /   O peration     | Website:  https://openfoam.org
    \\  /    A nd           | Version:  10
     \\/     M anipulation  |
\*---------------------------------------------------------------------------*/
FoamFile
{
    format      ascii;
    class       volScalarField;
    location    "3000";
    object      OH;
}
// * * * * * * * * * * * * * * * * * * * * * * * * * * * * * * * * * * * * * //

dimensions      [0 0 0 0 0 0 0];

internalField   nonuniform List<scalar> 
5170
(
5.470220211e-52
5.511757801e-52
5.747202919e-52
7.007250531e-52
1.383225982e-51
1.235194677e-51
1.250292691e-51
1.332909263e-51
1.747144339e-51
2.922173218e-51
2.005284391e-51
2.047164908e-51
2.242843897e-51
3.047103308e-51
4.443594708e-51
2.841803117e-51
2.930385777e-51
3.295377343e-51
4.555857275e-51
5.984898205e-51
3.737102616e-51
3.892546592e-51
4.47427566e-51
6.240299528e-51
7.558349671e-51
5.183207557e-51
5.323939664e-51
6.056450147e-51
8.675019395e-51
1.279713248e-50
1.950322203e-49
1.581480375e-49
1.304026295e-49
3.570007302e-49
2.236543445e-48
7.712956528e-47
6.244978836e-47
5.849289295e-47
2.011010308e-46
1.344263026e-45
3.345519651e-44
2.741172364e-44
2.934699138e-44
1.182433257e-43
8.067594009e-43
1.573634513e-41
1.307250458e-41
1.55079949e-41
7.122578117e-41
4.918538876e-40
8.149005442e-39
6.926157892e-39
8.749394122e-39
4.486561027e-38
3.188293657e-37
4.669641181e-36
4.182076118e-36
5.518467185e-36
3.12603943e-35
2.385161979e-34
2.953070179e-33
2.933706722e-33
4.227196651e-33
2.711327368e-32
2.247576987e-31
2.02291175e-30
2.371507427e-30
4.20275556e-30
3.228831199e-29
2.688109227e-28
1.475200233e-27
2.16571908e-27
5.299562584e-27
5.016978949e-26
3.767669065e-25
1.107097777e-24
2.12722609e-24
7.594272229e-24
8.57894865e-23
5.704222477e-22
8.379828096e-22
2.18548294e-21
1.10802359e-20
1.422404513e-19
8.922032627e-19
6.165762098e-19
2.230161426e-18
1.577741163e-17
2.234299146e-16
1.413367905e-15
4.161129599e-16
2.154978225e-15
2.056926618e-14
3.081177636e-13
2.2528137e-12
2.341708348e-13
1.928102786e-12
2.533803557e-11
3.827864272e-10
3.646352203e-09
0.002162408036
0.002217938813
0.0022390096
0.002202902971
0.002157754609
0.001770053843
0.001855457674
0.001877812319
0.001833978472
0.001748578329
0.001514966732
0.001611123665
0.001632712849
0.001583706319
0.001480677709
0.001336616834
0.001433276323
0.001452479633
0.001398410785
0.001291639352
0.001206390788
0.001298412029
0.001315266571
0.001257341954
0.001151637237
0.001108918753
0.001192525431
0.001207084113
0.001147711208
0.001048097539
0.00103359482
0.001107277359
0.001119074683
0.00106093298
0.000971024774
0.0009739972911
0.00103781239
0.001046719782
0.0009915647761
0.0009129376382
0.0009261414654
0.0009807008275
0.0009867259203
0.0009357689304
0.0008686948077
0.0008871615293
0.000933340331
0.0009368029543
0.0008908419291
0.0008345723079
0.0008550525283
0.0008938760864
0.0008952541839
0.0008545923034
0.0008077553004
0.000828249903
0.0008608261697
0.0008606587011
0.0008251628651
0.0007861145653
0.0008055579175
0.0008329814075
0.0008317320602
0.0008009614926
0.0007681073719
0.0007860186474
0.0008092786851
0.0008073382907
0.0007806743526
0.0007526108748
0.0007688966719
0.000788874179
0.000786509935
0.0007632601165
0.0007388115618
0.0007535785518
0.00077101709
0.000768450017
0.0007479017053
0.0007260579896
0.0007396382029
0.0007550790149
0.000752357443
0.0007339011456
0.0007138656665
0.0007270088828
0.0007405278584
0.0007374822732
0.0007206039897
0.0007018578469
0.0007225271571
0.0007285843865
0.0007234791349
0.0007073430982
0.0006893256316
0.001266855687
0.0008332727199
0.0007350054483
0.0006964234553
0.0006678426685
2.0450028e-11
2.467487828e-10
6.756082988e-09
2.157599105e-07
6.069808908e-06
5.660001791e-11
5.547141718e-10
1.129614828e-08
2.14257789e-07
2.331310673e-06
1.056326198e-10
9.280272153e-10
1.563663907e-08
1.86769752e-07
9.840508759e-07
1.881571842e-10
1.57172218e-09
2.232674663e-08
1.652467095e-07
5.274562298e-07
3.421518215e-10
2.70006957e-09
3.057993113e-08
1.438219505e-07
3.40670569e-07
6.406454911e-10
4.573446618e-09
3.94673859e-08
1.288399627e-07
3.020271063e-07
1.272180924e-09
7.942669342e-09
4.99432829e-08
1.293984769e-07
3.691454386e-07
2.577230462e-09
1.360971983e-08
6.028798921e-08
1.370607531e-07
4.171160688e-07
5.064676589e-09
2.155377883e-08
6.798328915e-08
1.416174212e-07
4.126832199e-07
9.286922879e-09
3.068497601e-08
7.359944808e-08
1.493857781e-07
4.28436131e-07
1.588921276e-08
3.964932654e-08
7.941758686e-08
1.667397703e-07
4.857295122e-07
2.406909973e-08
4.722220121e-08
8.618968249e-08
1.880595251e-07
5.40480114e-07
3.26116427e-08
5.355426253e-08
9.37468188e-08
2.064552533e-07
5.646980238e-07
4.071199676e-08
5.961785599e-08
1.034038093e-07
2.280320862e-07
6.001765618e-07
4.867698643e-08
6.720990369e-08
1.182806458e-07
2.622523501e-07
6.85805963e-07
5.825692145e-08
7.926385946e-08
1.428660772e-07
3.174242697e-07
8.194413815e-07
7.30870337e-08
9.98705676e-08
1.820096591e-07
4.000012555e-07
1.004206066e-06
9.572744858e-08
1.299205785e-07
2.314743756e-07
4.940095507e-07
1.181612295e-06
1.273423707e-07
1.69145828e-07
2.919813625e-07
5.940873274e-07
1.357862971e-06
1.690054801e-07
2.217946533e-07
3.731635265e-07
7.353655324e-07
1.58828814e-06
2.264254918e-07
2.938425808e-07
4.845526703e-07
9.365779146e-07
1.928387329e-06
3.174916297e-07
4.109670087e-07
6.622116066e-07
1.227895856e-06
2.414286854e-06
4.488844334e-07
5.752542619e-07
9.125254531e-07
1.621989894e-06
3.020018553e-06
6.511162855e-07
8.153762676e-07
1.244269622e-06
2.103744344e-06
3.737577609e-06
9.321544566e-07
1.140723861e-06
1.674307495e-06
2.699907665e-06
4.589635799e-06
1.306651055e-06
1.564653546e-06
2.212255943e-06
3.4479786e-06
5.644625188e-06
1.843037923e-06
2.169179872e-06
2.978955107e-06
4.467537766e-06
7.069599992e-06
2.610488235e-06
3.024487481e-06
4.040327582e-06
5.908967446e-06
9.087579106e-06
3.788765757e-06
4.313656651e-06
5.585200676e-06
7.936501797e-06
1.194315661e-05
5.604775272e-06
6.311784472e-06
8.022591778e-06
1.10764657e-05
1.614351044e-05
8.432945368e-06
9.392716395e-06
1.168488227e-05
1.57136341e-05
2.229928178e-05
1.29134412e-05
1.422938704e-05
1.735083044e-05
2.276268427e-05
3.142663348e-05
2.03301891e-05
2.215325427e-05
2.64365619e-05
3.376419814e-05
4.52745479e-05
3.319468228e-05
3.573682509e-05
4.164964417e-05
5.160395627e-05
6.691530053e-05
5.547018174e-05
5.89513651e-05
6.699166154e-05
8.031087563e-05
0.0001003907219
9.006246313e-05
9.466455147e-05
0.000105224608
0.0001225490916
0.0001483849591
0.0001370332824
0.0001430735687
0.0001569146063
0.0001795699132
0.0002132503604
0.0001999163562
0.0002082138401
0.0002272260342
0.000258330647
0.0003045110002
0.0002950050909
0.0003072712595
0.0003353393349
0.0003811283303
0.0004487703476
0.0004681971953
0.0004877590653
0.0005322900861
0.0006041798218
0.0007085439102
0.0008394053706
0.0008701427913
0.0009386571487
0.001044842654
0.001189497058
0.001479252821
0.001511599791
0.001581927391
0.001686519796
0.001822033826
0.002135193298
0.002161124411
0.002217079737
0.002299208627
0.002403744804
0.002667765144
0.002685862796
0.002724677455
0.002781008172
0.002851527685
0.003033058449
0.003043746446
0.003066448079
0.003098883487
0.00313837956
0.003223545485
0.003227996167
0.003237190816
0.003249574216
0.003263238972
0.003248782591
0.003248421993
0.003247232486
0.003244363985
0.003238584202
0.003131946919
0.003128300534
0.003120048143
0.003106884729
0.003088122111
0.002906351018
0.002900811417
0.002888516813
0.002869534632
0.002843568788
0.00260966767
0.002603351358
0.002589427049
0.002568176545
0.002539554896
0.002277035645
0.00227074036
0.002256883031
0.002235955778
0.002207835625
0.001939378333
0.001933740379
0.001921388221
0.001902742153
0.00187799653
0.001622144703
0.0016171918
0.00160634075
0.001589956304
0.001568201381
0.001338362364
0.001334220479
0.001325154199
0.00131148577
0.001293377985
0.001092977757
0.001089611775
0.001082246845
0.001071150524
0.001056462653
0.0008860455166
0.0008833585892
0.0008774802944
0.0008686256945
0.0008569082581
0.0007147974854
0.0007126772497
0.0007080388036
0.0007010517854
0.0006918055116
0.0005750295035
0.0005733681751
0.0005697334207
0.0005642575574
0.0005570096468
0.0004620585597
0.0004607614712
0.0004579232944
0.0004536466014
0.0004479842429
0.0003713174521
0.0003703057227
0.0003680916085
0.0003647544376
0.0003603344649
0.0002986836679
0.0002978937597
0.0002961648154
0.0002935582109
0.0002901045823
0.0002406098608
0.0002399917427
0.0002386385904
0.0002365980065
0.0002338933659
0.0001941529871
0.0001936678624
0.0001926057004
0.0001910035561
0.0001888793441
0.0001569185369
0.0001565365786
0.0001557001805
0.0001544383076
0.0001527647727
0.0001270027276
0.0001267010994
0.0001260405416
0.0001250437936
0.0001237215738
0.0001028887529
0.0001026499658
0.0001021269843
0.0001013377323
0.0001002905859
8.340283987e-05
8.321350318e-05
8.279881545e-05
8.217294889e-05
8.134248214e-05
6.761517273e-05
6.746491305e-05
6.713580065e-05
6.663906904e-05
6.597991879e-05
5.491200035e-05
5.479263131e-05
5.453119351e-05
5.413660904e-05
5.361299623e-05
4.549461566e-05
4.539790842e-05
4.518607659e-05
4.486633474e-05
4.444200652e-05
8.226441742e-05
1.739687437e-05
4.560631579e-06
1.809368098e-06
1.020423363e-06
1.000662029e-06
1.30903922e-06
1.34234845e-06
1.189081358e-06
1.181908156e-06
1.319114681e-06
1.40117092e-06
1.368254297e-06
1.392916489e-06
1.556172395e-06
1.825754778e-06
2.120262236e-06
2.340346918e-06
2.543094853e-06
2.843167685e-06
3.327162813e-06
4.001382415e-06
4.823507938e-06
5.769955074e-06
6.860525997e-06
8.201870547e-06
1.002267769e-05
1.260789234e-05
1.627751552e-05
2.155467964e-05
2.919701241e-05
4.031255811e-05
5.681247736e-05
8.188418855e-05
0.0001195927725
0.0001728117322
0.0002449855768
0.0003479122153
0.0005118194913
0.0008031254275
0.001309406742
0.001928773539
0.002484321014
0.002904670246
0.003166924375
0.003271555856
0.003231856991
0.003071495242
0.002821591184
0.002515769654
0.002185104195
0.001857401112
0.001550428082
0.001278629891
0.001044511855
0.0008473772294
0.0006842841335
0.0005511122912
0.0004433752237
0.0003567351139
0.0002872908547
0.0002316888632
0.0001871472287
0.0001513996641
0.0001226427229
9.943599834e-05
8.066462534e-05
6.544186367e-05
5.318555463e-05
4.409559111e-05
0.0002934739146
0.002943153813
0.001600060014
0.0007204043596
0.0002738399349
5.202125537e-05
0.0003774336446
0.003258237728
0.001172096322
0.000147686262
1.648097288e-05
0.0001839300814
0.00313475961
0.002091321201
0.0001802111247
6.542242389e-06
7.228136056e-05
0.0008401983745
0.003067972371
0.0004996153535
3.589629217e-06
4.004230531e-05
0.000416330903
0.003744365189
0.001115765546
3.755757592e-06
4.278413248e-05
0.0004183136667
0.003904772349
0.00207173953
4.804894201e-06
4.748536488e-05
0.0004036623852
0.003290651691
0.003058128108
4.361394044e-06
3.49215254e-05
0.0002401751532
0.001564187847
0.003561591543
3.488182564e-06
2.394664065e-05
0.0001439038256
0.0008193051488
0.003735101223
3.345433666e-06
2.164356238e-05
0.0001253382193
0.0006962722002
0.003593207683
3.614513685e-06
2.190901997e-05
0.0001196678673
0.0006269544069
0.003114181394
3.644669204e-06
1.994513173e-05
9.805156422e-05
0.0004579402603
0.002039916784
3.35060194e-06
1.631556598e-05
7.127605265e-05
0.0002937593561
0.001152697534
3.27786977e-06
1.487238633e-05
6.156895903e-05
0.0002440271101
0.0009401255846
3.564052611e-06
1.516519661e-05
6.022173903e-05
0.0002303105147
0.0008590352503
4.068061369e-06
1.620369395e-05
6.083826486e-05
0.0002200949859
0.0007751755862
4.523179044e-06
1.661616952e-05
5.773195474e-05
0.0001930632874
0.0006266927145
4.745181081e-06
1.592502037e-05
5.093971317e-05
0.0001571714887
0.0004706193999
4.929580127e-06
1.536910462e-05
4.630789826e-05
0.0001360773155
0.0003921582838
5.313570322e-06
1.570338785e-05
4.540321392e-05
0.0001291606203
0.0003624086402
6.01220127e-06
1.69604706e-05
4.71822898e-05
0.0001296312726
0.0003514610156
6.99593175e-06
1.878442589e-05
4.999992663e-05
0.0001317842469
0.0003432933554
8.167549246e-06
2.080883747e-05
5.281003579e-05
0.0001331213365
0.0003323143492
9.474014862e-06
2.28880195e-05
5.53142424e-05
0.0001331165054
0.0003175325188
1.093544023e-05
2.509206179e-05
5.783735549e-05
0.000133120287
0.0003042185611
1.272820353e-05
2.787892091e-05
6.160082249e-05
0.0001363531815
0.0003003613084
1.519006122e-05
3.194707901e-05
6.802032719e-05
0.0001454647644
0.0003100385991
1.870271684e-05
3.79070818e-05
7.797307995e-05
0.000161334147
0.000332838404
2.369768316e-05
4.639978889e-05
9.229664913e-05
0.0001847547345
0.0003686095954
3.073927144e-05
5.819911305e-05
0.0001119118451
0.0002164552596
0.0004169939465
4.081446341e-05
7.446345586e-05
0.0001381523396
0.0002576603832
0.0004785492086
5.514491668e-05
9.678149859e-05
0.0001727052914
0.0003096975064
0.0005536720303
7.588329697e-05
0.0001275177067
0.0002179355552
0.0003748355998
0.0006448920349
0.0001063698839
0.0001702067718
0.0002778444653
0.000458670626
0.000761624279
0.0001507263145
0.0002296214504
0.0003593430492
0.0005729649494
0.0009241751811
0.0002122094345
0.0003108034479
0.0004708917285
0.0007309501925
0.001148734334
0.0002960337912
0.0004232843917
0.0006279158468
0.0009540072356
0.00145240097
0.0004175459185
0.0005899912307
0.0008621747068
0.001276522013
0.00183079792
0.0006124577581
0.0008561088594
0.001219962759
0.001703072046
0.002230101852
0.0009518130609
0.001283030499
0.001702571801
0.002161975817
0.002607626525
0.001490749023
0.001833903963
0.002211595167
0.002588839676
0.002928392891
0.00208741466
0.002369458641
0.0026622016
0.002937354195
0.003166957011
0.002603033261
0.00280593931
0.003005959551
0.003180646396
0.003309171208
0.002982190895
0.003108168858
0.003222637178
0.003308666911
0.00335145174
0.003207763643
0.003267021297
0.003309478834
0.00332322362
0.00329847487
0.003282395355
0.003288398119
0.00327494826
0.00323438732
0.003160858377
0.003220502763
0.003187932522
0.003135194643
0.003057916495
0.002953225853
0.003045632452
0.002988615699
0.002912101901
0.002814142552
0.002693907546
0.002787981407
0.002718691022
0.002631439796
0.002525849276
0.002402311773
0.002479654929
0.002407359128
0.002319120484
0.002215783691
0.002098360122
0.002150590863
0.002082190489
0.002000208304
0.00190558265
0.001799736137
0.001826207658
0.001764826098
0.001691451878
0.001608408304
0.001516883987
0.001523634301
0.001471560484
0.001410104152
0.001340477517
0.001263987251
0.001256421967
0.00121343488
0.001162886952
0.00110576557
0.001043166448
0.00102652385
0.0009917538321
0.0009509273839
0.0009048508398
0.0008544109341
0.0008330336446
0.0008053171513
0.0007727840953
0.0007360756341
0.0006958926624
0.0006729650444
0.0006510873816
0.0006253998707
0.0005964020312
0.0005646386523
0.0005422365196
0.0005250712627
0.0005049025845
0.0004821145067
0.0004571258651
0.0004364375181
0.0004230099945
0.0004072183699
0.0003893556107
0.0003697417257
0.000351316328
0.0003408195313
0.0003284618522
0.0003144660854
0.0002990761805
0.0002830540733
0.0002748397936
0.0002651591224
0.0002541815446
0.0002420931858
0.0002283688674
0.0002219266853
0.0002143268891
0.0002056988162
0.0001961849458
0.0001845382326
0.0001794719309
0.0001734898873
0.0001666912829
0.0001591857077
0.0001493432045
0.0001453472429
0.0001406253719
0.0001352541237
0.0001293182926
0.000121017298
0.0001178573023
0.000114120928
0.0001098675899
0.0001051632696
9.814836914e-05
9.564404365e-05
9.268153459e-05
8.930727026e-05
8.557289733e-05
7.964319038e-05
7.765613824e-05
7.530475741e-05
7.262548619e-05
6.965889974e-05
6.463110514e-05
6.305356866e-05
6.118644499e-05
5.905847741e-05
5.67016778e-05
5.254140066e-05
5.128810953e-05
4.980457065e-05
4.811346152e-05
4.624003119e-05
4.357351996e-05
4.255766383e-05
4.135497008e-05
3.998371606e-05
3.84642519e-05
9.024066175e-06
6.047013705e-07
7.953499146e-08
1.514292215e-08
3.672664094e-09
9.494721538e-10
2.412521963e-10
6.258257515e-11
1.831353403e-11
6.901405372e-12
3.515884623e-12
2.21284134e-12
1.540061462e-12
1.114442857e-12
8.175453738e-13
6.02351271e-13
4.445325352e-13
3.285726613e-13
2.435268723e-13
1.812857766e-13
1.357950965e-13
1.025338419e-13
7.815132057e-14
6.018671099e-14
4.685234108e-14
3.685456214e-14
2.925992473e-14
2.34009355e-14
1.880682854e-14
1.515097269e-14
1.220956404e-14
9.828245704e-15
7.896614383e-15
6.330667301e-15
5.061974219e-15
4.0325722e-15
3.193930709e-15
2.507590111e-15
1.945208918e-15
1.486935649e-15
1.118459733e-15
8.280141467e-16
6.043868223e-16
4.36261069e-16
3.125301415e-16
2.229938619e-16
1.589547035e-16
1.134589182e-16
8.122352835e-17
5.836950166e-17
4.210683339e-17
3.045340505e-17
2.200913294e-17
1.578903113e-17
1.110310182e-17
7.471829575e-18
4.571390658e-18
2.277517635e-18
6.575390432e-19
6.458525087e-20
7.571648541e-06
6.803515841e-07
1.135346307e-07
2.486409751e-08
6.499942707e-09
1.805747694e-09
5.320046334e-10
1.863775016e-10
8.491304513e-11
4.853544206e-11
3.119645754e-11
2.105286319e-11
1.444743152e-11
9.983397131e-12
6.9289512e-12
4.832678324e-12
3.392382986e-12
2.400534839e-12
1.715328971e-12
1.239474316e-12
9.068534572e-13
6.725329673e-13
5.059490901e-13
3.861958294e-13
2.990039774e-13
2.345643486e-13
1.860997996e-13
1.489310232e-13
1.198601241e-13
9.6726106e-14
7.808773439e-14
6.297244895e-14
5.0690773e-14
4.071985401e-14
3.263231257e-14
2.606233056e-14
2.070030006e-14
1.629990995e-14
1.268097746e-14
9.719804448e-15
7.329331925e-15
5.438483622e-15
3.978428813e-15
2.878103243e-15
2.066602215e-15
1.478190467e-15
1.056452333e-15
7.561642471e-16
5.42876451e-16
3.912426831e-16
2.830265643e-16
2.052538808e-16
1.487278258e-16
1.069539819e-16
7.537483627e-17
5.084328342e-17
3.129031393e-17
1.592038684e-17
5.131219692e-18
6.946795435e-19
7.066847375e-06
5.06760609e-07
8.670153102e-08
2.280234069e-08
7.125532664e-09
2.504296555e-09
1.031747407e-09
5.338319207e-10
3.299755763e-10
2.244289513e-10
1.569216749e-10
1.102274394e-10
7.675417823e-11
5.294552423e-11
3.619818085e-11
2.46260985e-11
1.674787169e-11
1.144430383e-11
7.897135395e-12
5.524818948e-12
3.930029383e-12
2.847174182e-12
2.102550046e-12
1.582564091e-12
1.213043937e-12
9.452158577e-13
7.467643948e-13
5.962073486e-13
4.793582544e-13
3.868859328e-13
3.126670447e-13
2.526306343e-13
2.03926412e-13
1.644098883e-13
1.32342477e-13
1.062427928e-13
8.486111925e-14
6.721156838e-14
5.258898425e-14
4.052709733e-14
3.071227311e-14
2.289222204e-14
1.681557441e-14
1.221152156e-14
8.800687712e-15
6.317985168e-15
4.532423923e-15
3.256814715e-15
2.347670768e-15
1.699009604e-15
1.234315112e-15
8.989351059e-16
6.540319995e-16
4.721052519e-16
3.338162561e-16
2.258956127e-16
1.399007974e-16
7.220034673e-17
2.453423275e-17
3.809521443e-18
2.220107173e-05
9.872062413e-07
9.142111218e-08
2.107968658e-08
7.984530623e-09
3.824335111e-09
2.159254743e-09
1.395778444e-09
9.795704656e-10
7.140249118e-10
5.241186488e-10
3.826471798e-10
2.755973899e-10
1.956224514e-10
1.367400603e-10
9.439792271e-11
6.455221415e-11
4.395692699e-11
2.996914193e-11
2.058615437e-11
1.43257374e-11
1.014390025e-11
7.329380093e-12
5.411004756e-12
4.08077215e-12
3.138208875e-12
2.453616483e-12
1.943087125e-12
1.552618057e-12
1.247541084e-12
1.005477769e-12
8.116416205e-13
6.557833639e-13
5.302572382e-13
4.289314854e-13
3.466267294e-13
2.790365481e-13
2.228522742e-13
1.758211971e-13
1.365697907e-13
1.042593355e-13
7.823907439e-14
5.782881771e-14
4.223815382e-14
3.060672558e-14
2.20878356e-14
1.592638004e-14
1.150126153e-14
8.331565243e-15
6.059540774e-15
4.424792737e-15
3.239562069e-15
2.369456734e-15
1.719057895e-15
1.221198774e-15
8.302137982e-16
5.180370657e-16
2.712859525e-16
9.611795962e-17
1.689632012e-17
6.32825183e-05
2.857682177e-06
2.062281211e-07
2.9086765e-08
1.140608557e-08
6.774921727e-09
4.500423339e-09
3.165316293e-09
2.319274232e-09
1.740391636e-09
1.316966903e-09
9.949495555e-10
7.448391838e-10
5.507165017e-10
4.01062933e-10
2.8782546e-10
2.036307959e-10
1.424833269e-10
9.891619709e-11
6.851750567e-11
4.760125979e-11
3.337834635e-11
2.3739535e-11
1.719455851e-11
1.270691996e-11
9.580860059e-12
7.355641767e-12
5.731808375e-12
4.516804663e-12
3.587434809e-12
2.864519058e-12
2.296077799e-12
1.846639838e-12
1.490392826e-12
1.207055989e-12
9.796826072e-13
7.94184001e-13
6.39838082e-13
5.096017214e-13
3.995453571e-13
3.076772295e-13
2.327062326e-13
1.73210198e-13
1.273283563e-13
9.283427017e-14
6.740347938e-14
4.889294358e-14
3.551201546e-14
2.58657046e-14
1.890946772e-14
1.387737739e-14
1.021169471e-14
7.508279712e-15
5.477027122e-15
3.912791433e-15
2.67681065e-15
1.685566415e-15
8.976799657e-16
3.313185394e-16
6.702223812e-17
0.0002110538801
1.15051282e-05
7.174632025e-07
7.534081852e-08
2.291978731e-08
1.304532616e-08
8.767591725e-09
6.25370559e-09
4.631379651e-09
3.518114866e-09
2.711847097e-09
2.102425075e-09
1.627843916e-09
1.252611034e-09
9.541587948e-10
7.180324828e-10
5.330328187e-10
3.904789746e-10
2.8245311e-10
2.023539981e-10
1.44037554e-10
1.024219135e-10
7.309931227e-11
5.265624667e-11
3.842449357e-11
2.848213321e-11
2.144773444e-11
1.638405109e-11
1.266345641e-11
9.877286176e-12
7.758393954e-12
6.129812324e-12
4.870622988e-12
3.894600653e-12
3.136351509e-12
2.54219153e-12
2.067106645e-12
1.676410825e-12
1.347213077e-12
1.066819061e-12
8.294753923e-13
6.32673394e-13
4.74162248e-13
3.50480653e-13
2.567760659e-13
1.873670461e-13
1.366567879e-13
9.983965927e-14
7.315265014e-14
5.378772669e-14
3.968929901e-14
2.93578918e-14
2.169890582e-14
1.591739198e-14
1.144630316e-14
7.898362682e-15
5.037084687e-15
2.744151692e-15
1.062890454e-15
2.509722548e-16
0.0006766909579
4.626659582e-05
3.000502747e-06
2.853293107e-07
4.915641792e-08
2.229545715e-08
1.420527816e-08
1.008341241e-08
7.521516066e-09
5.780764499e-09
4.52921725e-09
3.589905962e-09
2.860686621e-09
2.280509619e-09
1.811556952e-09
1.429453525e-09
1.117526243e-09
8.64050813e-10
6.598821177e-10
4.978589531e-10
3.713750602e-10
2.745786281e-10
2.01801816e-10
1.480677178e-10
1.08900797e-10
8.064229393e-11
6.026964636e-11
4.550976278e-11
3.46874371e-11
2.664401874e-11
2.05878395e-11
1.598812904e-11
1.248125473e-11
9.808029945e-12
7.775044891e-12
6.22836741e-12
5.034432595e-12
4.083099822e-12
3.298194664e-12
2.634317449e-12
2.068902848e-12
1.593479795e-12
1.203784601e-12
8.945440123e-13
6.574302559e-13
4.807970759e-13
3.515684791e-13
2.577473077e-13
1.896949941e-13
1.402031949e-13
1.040317706e-13
7.739362653e-14
5.75415875e-14
4.248311739e-14
3.079505102e-14
2.14944922e-14
1.395300492e-14
7.839856263e-15
3.230625117e-15
8.965657676e-16
0.001341720784
0.000171193358
1.365942324e-05
1.08610103e-06
1.384807745e-07
4.029583515e-08
2.137429462e-08
1.436406634e-08
1.054967798e-08
8.100477548e-09
6.38966014e-09
5.128258828e-09
4.160317105e-09
3.394411834e-09
2.774368754e-09
2.264452925e-09
1.841067082e-09
1.488167e-09
1.193956754e-09
9.494819298e-10
7.476608745e-10
5.827025226e-10
4.495421728e-10
3.437696565e-10
2.611973662e-10
1.978337462e-10
1.498298326e-10
1.13773226e-10
8.674261966e-11
6.642942596e-11
5.105359571e-11
3.933551949e-11
3.037042831e-11
2.351963561e-11
1.831016219e-11
1.438148415e-11
1.142876791e-11
9.168413795e-12
7.37659981e-12
5.908135549e-12
4.677893527e-12
3.641496046e-12
2.779618497e-12
2.081710441e-12
1.536336846e-12
1.125048317e-12
8.226254056e-13
6.030581611e-13
4.442211438e-13
3.29062129e-13
2.450610456e-13
1.832080652e-13
1.370368225e-13
1.019152733e-13
7.456624702e-14
5.272857781e-14
3.491173799e-14
2.02670882e-14
8.895029224e-15
2.853733846e-15
0.002093990358
0.0004054891123
4.808756171e-05
4.629470659e-06
4.56374033e-07
8.659670331e-08
3.338778925e-08
1.961631941e-08
1.372174845e-08
1.035085021e-08
8.134749192e-09
6.559511988e-09
5.378864243e-09
4.457734707e-09
3.716435952e-09
3.105860375e-09
2.594702177e-09
2.162361389e-09
1.794723801e-09
1.481597693e-09
1.215250947e-09
9.895953531e-10
7.996563082e-10
6.409567183e-10
5.09559757e-10
4.020316576e-10
3.150621265e-10
2.456374876e-10
1.908912907e-10
1.481274288e-10
1.148617668e-10
8.900809217e-11
6.890553627e-11
5.329833918e-11
4.12279472e-11
3.195905167e-11
2.492298936e-11
1.961549956e-11
1.555013015e-11
1.2350105e-11
9.771379973e-12
7.661143278e-12
5.919551221e-12
4.48905728e-12
3.340747309e-12
2.455283603e-12
1.795915519e-12
1.314427816e-12
9.660570927e-13
7.145568744e-13
5.323189309e-13
3.989989483e-13
2.999390421e-13
2.247392343e-13
1.661602463e-13
1.192338566e-13
8.06656487e-14
4.847037409e-14
2.268490955e-14
8.267666976e-15
0.002863300304
0.0008220988681
0.0001237147748
1.569738983e-05
1.739225781e-06
2.371468254e-07
5.964622168e-08
2.757678999e-08
1.743572652e-08
1.260837259e-08
9.740484215e-09
7.824541698e-09
6.445753409e-09
5.397761362e-09
4.566620425e-09
3.885572308e-09
3.313942007e-09
2.826124521e-09
2.405435129e-09
2.040565983e-09
1.723245058e-09
1.447779117e-09
1.20920452e-09
1.003484638e-09
8.271253156e-10
6.770525644e-10
5.504861133e-10
4.44702762e-10
3.570558486e-10
2.850688904e-10
2.264000311e-10
1.789307651e-10
1.407828733e-10
1.103207629e-10
8.614176897e-11
6.706701983e-11
5.212180229e-11
4.054292688e-11
3.164036238e-11
2.476907784e-11
1.938799176e-11
1.512610085e-11
1.17305074e-11
9.005255595e-12
6.803291285e-12
5.050853635e-12
3.708212063e-12
2.712751677e-12
1.988154005e-12
1.465038292e-12
1.088005159e-12
8.147482349e-13
6.138676966e-13
4.62741204e-13
3.456501039e-13
2.519077157e-13
1.743565297e-13
1.085961579e-13
5.422281494e-14
2.203904802e-14
0.003452868636
0.001395957471
0.0002802144129
4.194376233e-05
5.578130198e-06
6.925577007e-07
1.243079984e-07
4.14100193e-08
2.227233699e-08
1.501921258e-08
1.124339307e-08
8.919302747e-09
7.337676972e-09
6.180710659e-09
5.285242561e-09
4.560848523e-09
3.954951513e-09
3.435504132e-09
2.983663073e-09
2.586456931e-09
2.235064223e-09
1.92341384e-09
1.647060212e-09
1.402585598e-09
1.187209005e-09
9.985520903e-10
8.344888671e-10
6.930044436e-10
5.72032764e-10
4.694745436e-10
3.832308255e-10
3.111719845e-10
2.512573742e-10
2.016970575e-10
1.609726972e-10
1.277593947e-10
1.008417977e-10
7.914550885e-11
6.179978691e-11
4.807918155e-11
3.73195441e-11
2.888200222e-11
2.226086164e-11
1.707696635e-11
1.301542973e-11
9.809546782e-12
7.290316128e-12
5.358470051e-12
3.922186651e-12
2.877998525e-12
2.126871528e-12
1.586553018e-12
1.193968964e-12
9.026893824e-13
6.798185813e-13
5.027072176e-13
3.560472088e-13
2.300005851e-13
1.224322237e-13
5.454105973e-14
0.003688749021
0.002016698303
0.0005474582393
9.700722379e-05
1.62229777e-05
2.417538327e-06
3.598592732e-07
7.894507123e-08
3.091055787e-08
1.80520203e-08
1.272828176e-08
9.843573623e-09
8.029160124e-09
6.769499681e-09
5.826948638e-09
5.082154416e-09
4.467197377e-09
3.941561715e-09
3.481499438e-09
3.072569143e-09
2.705322245e-09
2.37367042e-09
2.07360149e-09
1.802328743e-09
1.557794387e-09
1.338377355e-09
1.142709677e-09
9.695283291e-10
8.175474989e-10
6.85372213e-10
5.714609633e-10
4.741228106e-10
3.915246838e-10
3.218193744e-10
2.632601499e-10
2.142666816e-10
1.733961043e-10
1.393590976e-10
1.110833791e-10
8.771125746e-11
6.861039141e-11
5.323370985e-11
4.10057618e-11
3.138010058e-11
2.387935349e-11
1.807539397e-11
1.358431453e-11
1.011151098e-11
7.453804068e-12
5.467415625e-12
4.020052947e-12
2.981073375e-12
2.234156924e-12
1.688286481e-12
1.277547914e-12
9.560511408e-13
6.920486366e-13
4.636395528e-13
2.627538152e-13
1.263761935e-13
0.003687525594
0.002596678245
0.0009134016156
0.0001948169934
3.543016976e-05
6.666567135e-06
1.12874172e-06
1.998909908e-07
5.164633582e-08
2.285292391e-08
1.428469163e-08
1.052134132e-08
8.413742103e-09
7.066537182e-09
6.094949268e-09
5.365207095e-09
4.770186588e-09
4.263608621e-09
3.818858533e-09
3.420249673e-09
3.058169278e-09
2.726656848e-09
2.421932866e-09
2.141548169e-09
1.883893229e-09
1.647889798e-09
1.43279591e-09
1.238046064e-09
1.063123852e-09
9.074517216e-10
7.702835464e-10
6.50615066e-10
5.471523781e-10
4.583823574e-10
3.826733805e-10
3.183492057e-10
2.637801025e-10
2.174389859e-10
1.779800526e-10
1.443593935e-10
1.157778873e-10
9.169264045e-11
7.169536101e-11
5.536583551e-11
4.231543531e-11
3.208077707e-11
2.416058696e-11
1.809823284e-11
1.34801258e-11
9.97589658e-12
7.354049081e-12
5.433116686e-12
4.047640043e-12
3.046777428e-12
2.308070774e-12
1.741983975e-12
1.285628028e-12
8.929404829e-13
5.380659813e-13
2.762119273e-13
0.00355674101
0.003109031222
0.00137879502
0.0003655622928
7.420186163e-05
1.485578232e-05
3.101091691e-06
5.844089587e-07
1.171256112e-07
3.456824849e-08
1.673731123e-08
1.10355109e-08
8.471367117e-09
7.022176077e-09
6.036388183e-09
5.332521329e-09
4.770013039e-09
4.297728731e-09
3.886134466e-09
3.517955518e-09
3.182829724e-09
2.874419195e-09
2.588794812e-09
2.323444796e-09
2.076700128e-09
1.847378186e-09
1.634655686e-09
1.43806579e-09
1.257474377e-09
1.092933567e-09
9.444296787e-10
8.117979172e-10
6.946646631e-10
5.922851998e-10
5.035411163e-10
4.270402021e-10
3.612302076e-10
3.045465336e-10
2.555273226e-10
2.129176638e-10
1.757455288e-10
1.432992531e-10
1.151620506e-10
9.108659399e-11
7.090302422e-11
5.44091556e-11
4.125852598e-11
3.1004168e-11
2.316732128e-11
1.725053721e-11
1.281424349e-11
9.511262486e-12
7.083069403e-12
5.315822486e-12
4.022885784e-12
3.051947694e-12
2.287852496e-12
1.642748591e-12
1.050600965e-12
5.725412571e-13
0.003271629609
0.0034849112
0.001907536086
0.0006330534124
0.0001475862929
3.144485612e-05
7.053246331e-06
1.643322882e-06
3.494065021e-07
7.893857139e-08
2.567347945e-08
1.292006172e-08
8.685034486e-09
6.80710441e-09
5.718075728e-09
4.983467532e-09
4.433628756e-09
3.992188631e-09
3.619923856e-09
3.294884781e-09
3.003996017e-09
2.739109842e-09
2.49499379e-09
2.268222524e-09
2.05650157e-09
1.858299853e-09
1.672587518e-09
1.498644898e-09
1.335995407e-09
1.184554382e-09
1.04463621e-09
9.164923627e-10
8.002004268e-10
6.958611443e-10
6.032866225e-10
5.217719771e-10
4.503314948e-10
3.877887325e-10
3.328413707e-10
2.842628546e-10
2.410212506e-10
2.023389405e-10
1.677019836e-10
1.368554505e-10
1.097126839e-10
8.630824529e-11
6.667651232e-11
5.071335312e-11
3.813035418e-11
2.847673949e-11
2.121881791e-11