/*--------------------------------*- C++ -*----------------------------------*\
  =========                 |
  \\      /  F ield         | OpenFOAM: The Open Source CFD Toolbox
   \\    /   O peration     | Website:  https://openfoam.org
    \\  /    A nd           | Version:  10
     \\/     M anipulation  |
\*---------------------------------------------------------------------------*/
FoamFile
{
    format      ascii;
    class       volScalarField;
    location    "3000";
    object      p;
}
// * * * * * * * * * * * * * * * * * * * * * * * * * * * * * * * * * * * * * //

dimensions      [1 -1 -2 0 0 0 0];

internalField   nonuniform List<scalar> 
5170
(
100703.5072
100703.944
100704.9653
100706.2173
100709.0136
100670.4564
100670.6388
100670.9103
100671.1894
100671.7183
100631.3994
100631.4669
100631.5231
100631.5611
100631.6727
100602.1643
100602.1916
100602.2299
100602.2745
100602.334
100578.0061
100578.0193
100578.0685
100578.1609
100578.0627
100551.6282
100551.6582
100551.6776
100551.7249
100551.5503
100522.3465
100522.3679
100522.3885
100522.4189
100522.2297
100491.6935
100491.7305
100491.7561
100491.7901
100491.6201
100461.0432
100461.0527
100461.0738
100461.1258
100460.9769
100430.9991
100431.0141
100431.0161
100431.0976
100430.9408
100401.6528
100401.6703
100401.6815
100401.7311
100401.5261
100372.6097
100372.6411
100372.6525
100372.6471
100372.4517
100343.1952
100343.2135
100343.2215
100343.2183
100343.0543
100313.3416
100313.3637
100313.3657
100313.3756
100313.2325
100283.5918
100283.6078
100283.6029
100283.6074
100283.4724
100254.3118
100254.3194
100254.3063
100254.3241
100254.1843
100225.7572
100225.784
100225.7551
100225.702
100225.5868
100197.8788
100197.8153
100197.6101
100197.6586
100197.5224
100168.0473
100168.8392
100169.3307
100169.5336
100169.5172
100127.4069
100127.4405
100129.2711
100133.0053
100139.1033
99981.61648
99980.6274
99981.14943
99981.24162
99982.16445
99975.74015
99975.65349
99975.75509
99975.63633
99975.66772
99971.70886
99971.70034
99971.68869
99971.67844
99971.68477
99969.43092
99969.42608
99969.41653
99969.41062
99969.41401
99967.5223
99967.52345
99967.50433
99967.47134
99967.45338
99965.57347
99965.57226
99965.5698
99965.54476
99965.5269
99963.73011
99963.72921
99963.73522
99963.72769
99963.7122
99962.08067
99962.0789
99962.08977
99962.08341
99962.07125
99960.58524
99960.58193
99960.59106
99960.58603
99960.57788
99959.18242
99959.18113
99959.18504
99959.18312
99959.17622
99957.85113
99957.85023
99957.85254
99957.85144
99957.84518
99956.58598
99956.58551
99956.58702
99956.58636
99956.58115
99955.38766
99955.38744
99955.38889
99955.3884
99955.38434
99954.25965
99954.25963
99954.26124
99954.26013
99954.25594
99953.20001
99953.20056
99953.20229
99953.20166
99953.1987
99952.20519
99952.2083
99952.21176
99952.21304
99952.21357
99951.27394
99951.28865
99951.29955
99951.30619
99951.30779
99950.38415
99950.4357
99950.4732
99950.50241
99950.51521
99949.52881
99949.69187
99949.80756
99949.8756
99949.90563
99947.47846
99948.25682
99949.26539
99949.57747
99949.66064
99996.06774
99994.9631
99991.46331
99983.05664
99978.32755
99960.28759
99960.36271
99961.17486
99959.68191
99961.77475
99960.86245
99960.85086
99961.26563
99960.59365
99960.06124
99962.35424
99962.28493
99962.44181
99962.16101
99961.45028
99963.61513
99963.54874
99963.63471
99963.47864
99962.8967
99964.92947
99964.88035
99964.92061
99964.58412
99964.02216
99965.98324
99965.879
99965.75787
99965.11259
99964.4877
99966.19383
99966.13281
99965.94988
99965.22516
99964.58519
99966.31573
99966.27374
99966.02265
99965.30412
99964.68158
99966.79441
99966.66303
99966.21384
99965.51806
99964.89638
99967.01087
99966.7989
99966.23157
99965.56143
99964.95675
99967.16831
99966.78871
99966.1875
99965.55797
99964.98995
99967.40983
99966.94217
99966.31042
99965.69823
99965.16028
99968.36395
99967.15637
99966.51864
99965.93837
99965.40858
99968.24653
99967.36622
99966.74946
99966.17893
99965.67438
99969.36686
99967.90124
99967.30395
99966.80447
99966.34143
99969.598
99968.74269
99968.23266
99967.76187
99967.33111
99970.98335
99969.63369
99969.15373
99968.76966
99968.391
99971.04948
99970.41708
99970.07714
99969.73584
99969.39697
99972.05066
99971.01852
99970.71477
99970.46172
99970.18606
99971.79237
99971.37394
99971.18418
99970.97036
99970.73629
99972.34571
99971.57375
99971.39823
99971.24623
99971.06224
99972.05221
99971.75803
99971.65134
99971.52042
99971.36514
99972.66344
99972.04268
99971.93797
99971.84914
99971.72772
99972.67996
99972.44683
99972.38728
99972.30873
99972.20576
99973.50029
99972.98451
99972.945
99972.90047
99972.82138
99973.82926
99973.63929
99973.60708
99973.55978
99973.49143
99974.70853
99974.26315
99974.24256
99974.21923
99974.16604
99975.05795
99974.89972
99974.88143
99974.85155
99974.80397
99975.84544
99975.46918
99975.45928
99975.44787
99975.41151
99976.11418
99975.98184
99975.97052
99975.94901
99975.91232
99976.80688
99976.47881
99976.47248
99976.4644
99976.43358
99977.07682
99976.95901
99976.95021
99976.93193
99976.89902
99977.67048
99977.36692
99977.3581
99977.34859
99977.31783
99977.84662
99977.73908
99977.73101
99977.71444
99977.68498
99978.36367
99978.10877
99978.10693
99978.10446
99978.08563
99978.68399
99978.60206
99978.60062
99978.59502
99978.5821
99979.34213
99979.15347
99979.15576
99979.15881
99979.15066
99979.81207
99979.75093
99979.75057
99979.74689
99979.73729
99980.46986
99980.32534
99980.32587
99980.32618
99980.31714
99980.95142
99980.90547
99980.90453
99980.90109
99980.89356
99981.5903
99981.48608
99981.48779
99981.4901
99981.48661
99982.10794
99982.07428
99982.07483
99982.07375
99982.06973
99982.71995
99982.63767
99982.63917
99982.64091
99982.6378
99983.22805
99983.20113
99983.20156
99983.20067
99983.19751
99983.8284
99983.76364
99983.76507
99983.76684
99983.76503
99984.36321
99984.34268
99984.34342
99984.34333
99984.34175
99984.97825
99984.92997
99984.93148
99984.93341
99984.93288
99985.54999
99985.53528
99985.53624
99985.53671
99985.53632
99986.18398
99986.14986
99986.15133
99986.15317
99986.15346
99986.78836
99986.77831
99986.77932
99986.78004
99986.78032
99987.43687
99987.41342
99987.41471
99987.41624
99987.41686
99988.06476
99988.05796
99988.05888
99988.05954
99988.06004
99988.72368
99988.70732
99988.70839
99988.70962
99988.71029
99989.36763
99989.36287
99989.36366
99989.36429
99989.36481
99990.03366
99990.02175
99990.02264
99990.02374
99990.02433
99990.68935
99990.68586
99990.68652
99990.68723
99990.68768
99991.36223
99991.35315
99991.35388
99991.35494
99991.35541
99992.0298
99992.02708
99992.02761
99992.02824
99992.0286
99992.71159
99992.70431
99992.70489
99992.70553
99992.70592
99993.3924
99993.39009
99993.39048
99993.39043
99993.39075
99994.08347
99994.0773
99994.07771
99994.07736
99994.07773
99994.77842
99994.77632
99994.77653
99994.77495
99994.77464
99995.47761
99995.47218
99995.47256
99995.47104
99995.47039
99996.18773
99996.18562
99996.18567
99996.18289
99996.18257
99996.88745
99996.8826
99996.88254
99996.87924
99996.87861
99997.6181
99997.61573
99997.61574
99997.61247
99997.6123
99998.30162
99998.29786
99998.2979
99998.29486
99998.2943
99999.06277
99999.06082
99999.0624
99999.06199
99999.06378
99999.64373
99999.63702
99999.64023
99999.64244
99999.64605
99955.70721
99961.40145
99959.50316
99960.78748
99962.26078
99963.38608
99963.82506
99963.9707
99964.14596
99964.40645
99964.51151
99964.58813
99964.80047
99965.0614
99965.35972
99966.02358
99967.01724
99968.09868
99969.14388
99969.96458
99970.54901
99970.90452
99971.23269
99971.6156
99972.11157
99972.74241
99973.42568
99974.11018
99974.75717
99975.37281
99975.87788
99976.40018
99976.86666
99977.28517
99977.65708
99978.06565
99978.56953
99979.14067
99979.72769
99980.30703
99980.88661
99981.48218
99982.06556
99982.63368
99983.19407
99983.76209
99984.33956
99984.93112
99985.53502
99986.15237
99986.77943
99987.41601
99988.05928
99988.70958
99989.36436
99990.02425
99990.68806
99991.35603
99992.02901
99992.70542
99993.38865
99994.07346
99994.76786
99995.45959
99996.16981
99996.86351
99997.59642
99998.28037
99999.05568
99999.64781
99949.4933
99954.11391
99955.07827
99955.5591
99956.02893
99960.05606
99957.06309
99956.64584
99956.52397
99956.64852
99958.90966
99957.67192
99957.95275
99957.83843
99957.96097
99960.10597
99959.60111
99959.12431
99959.45642
99959.49225
99961.56116
99961.03127
99960.22967
99960.74366
99960.68678
99962.64974
99962.0281
99961.39646
99961.55957
99961.41604
99963.05587
99962.43556
99961.99772
99961.85589
99961.96455
99963.25807
99962.67977
99962.28862
99962.00733
99962.18832
99963.52404
99962.99429
99962.57957
99962.17348
99962.33819
99963.8262
99963.30492
99962.91582
99962.5785
99962.56666
99963.97802
99963.49748
99963.15641
99962.88593
99962.78185
99964.10197
99963.66164
99963.33965
99963.07889
99962.90674
99964.34801
99963.92412
99963.60535
99963.33432
99963.12044
99964.62295
99964.22053
99963.9285
99963.69059
99963.49527
99964.96203
99964.59869
99964.34914
99964.16736
99964.01957
99965.62497
99965.28911
99965.03955
99964.85858
99964.71704
99966.57157
99966.2
99965.93364
99965.73371
99965.57001
99967.67781
99967.30259
99967.01731
99966.7769
99966.56958
99968.78033
99968.41628
99968.12
99967.86631
99967.63643
99969.64058
99969.32437
99969.05066
99968.79675
99968.55852
99970.27028
99969.98197
99969.72085
99969.48017
99969.25456
99970.66646
99970.41456
99970.18596
99969.97465
99969.77462
99971.03052
99970.81408
99970.61637
99970.43028
99970.24567
99971.44278
99971.25425
99971.07937
99970.9141
99970.74766
99971.96583
99971.80186
99971.64464
99971.49054
99971.34199
99972.61973
99972.47768
99972.33735
99972.19504
99972.04536
99973.32324
99973.19833
99973.07209
99972.94028
99972.79711
99974.02333
99973.91117
99973.79391
99973.66788
99973.52955
99974.68463
99974.58532
99974.47674
99974.3538
99974.21095
99975.31144
99975.21225
99975.10273
99974.97631
99974.8275
99975.82443
99975.73974
99975.63795
99975.51372
99975.36615
99976.34762
99976.26081
99976.15511
99976.02802
99975.88359
99976.81507
99976.72481
99976.61669
99976.49319
99976.36064
99977.23338
99977.14528
99977.04603
99976.93965
99976.8296
99977.61351
99977.54265
99977.46728
99977.38838
99977.30502
99978.0351
99977.98798
99977.93808
99977.88284
99977.82112
99978.54997
99978.51802
99978.4812
99978.43696
99978.38969
99979.12482
99979.09609
99979.06097
99979.02158
99978.98786
99979.71187
99979.6818
99979.64914
99979.62006
99979.59935
99980.29119
99980.26679
99980.24511
99980.22823
99980.21421
99980.8761
99980.86153
99980.84858
99980.83587
99980.82211
99981.47514
99981.46377
99981.45136
99981.43756
99981.4223
99982.05874
99982.04691
99982.03387
99982.01969
99982.00452
99982.62706
99982.61621
99982.60447
99982.59198
99982.57887
99983.18851
99983.1795
99983.16988
99983.15982
99983.14937
99983.75742
99983.75076
99983.74356
99983.73615
99983.72853
99984.33599
99984.33105
99984.326
99984.32097
99984.31581
99984.92826
99984.92498
99984.92177
99984.9187
99984.91556
99985.53287
99985.53091
99985.52908
99985.52749
99985.52579
99986.15058
99986.14963
99986.14888
99986.14834
99986.14768
99986.77793
99986.77758
99986.77745
99986.77761
99986.77762
99987.41459
99987.41468
99987.41497
99987.41556
99987.41595
99988.05797
99988.05828
99988.05878
99988.05956
99988.06011
99988.70836
99988.7088
99988.70942
99988.71029
99988.71091
99989.36352
99989.36401
99989.3647
99989.36558
99989.36618
99990.02392
99990.02446
99990.02523
99990.02609
99990.02668
99990.68838
99990.68894
99990.68978
99990.69058
99990.69113
99991.35669
99991.35727
99991.35812
99991.35888
99991.35939
99992.02938
99992.0299
99992.03064
99992.03133
99992.03179
99992.70457
99992.70499
99992.70547
99992.7061
99992.70653
99993.38557
99993.38577
99993.38581
99993.38637
99993.38674
99994.06741
99994.06741
99994.0669
99994.06741
99994.06777
99994.75834
99994.75797
99994.75687
99994.7573
99994.75755
99995.44551
99995.44529
99995.44389
99995.44445
99995.44468
99996.15132
99996.15001
99996.14806
99996.14843
99996.14848
99996.84334
99996.84259
99996.83955
99996.84005
99996.84021
99997.57318
99997.5712
99997.56854
99997.56864
99997.56826
99998.26194
99998.26133
99998.25858
99998.25912
99998.25928
99999.04347
99999.04454
99999.0442
99999.04477
99999.0433
99999.65198
99999.66166
99999.66867
99999.67603
99999.68064
99956.50173
99956.85804
99957.15365
99957.7656
99958.07753
99958.44418
99958.73827
99959.01559
99959.26202
99959.48845
99959.69716
99959.89108
99960.07288
99960.24465
99960.40813
99960.56475
99960.71567
99960.86186
99961.00412
99961.14308
99961.27925
99961.41305
99961.54479
99961.67471
99961.80301
99961.9298
99962.05517
99962.17915
99962.30175
99962.42295
99962.5427
99962.66094
99962.77757
99962.89249
99963.00558
99963.11671
99963.22574
99963.33253
99963.4369
99963.53869
99963.63774
99963.73387
99963.82688
99963.9166
99964.00281
99964.08532
99964.16389
99964.2383
99964.3083
99964.37373
99964.43447
99964.4903
99964.54093
99964.58601
99964.62529
99964.65856
99964.68564
99964.70642
99964.72086
99964.72431
99956.8953
99957.22244
99957.57013
99958.0116
99958.33115
99958.65123
99958.91129
99959.16313
99959.38295
99959.58981
99959.78085
99959.96014
99960.12982
99960.29166
99960.44701
99960.59704
99960.74265
99960.88459
99961.02347
99961.15975
99961.29384
99961.42603
99961.55655
99961.68558
99961.81324
99961.93961
99962.06472
99962.18858
99962.31117
99962.43244
99962.55234
99962.67077
99962.78763
99962.9028
99963.01617
99963.12759
99963.23692
99963.34401
99963.4487
99963.55081
99963.65018
99963.74662
99963.83995
99963.92998
99964.01652
99964.09934
99964.17826
99964.25306
99964.32354
99964.3894
99964.45035
99964.50618
99964.55677
99964.60195
99964.64141
99964.67486
99964.70205
99964.72285
99964.73739
99964.74058
99958.02793
99958.29383
99958.49338
99958.72218
99958.93018
99959.13581
99959.31609
99959.49412
99959.66005
99959.82008
99959.97427
99960.12368
99960.26909
99960.41112
99960.55039
99960.68731
99960.82229
99960.9556
99961.08748
99961.21809
99961.34759
99961.47607
99961.6036
99961.73021
99961.85594
99961.98076
99962.10465
99962.22756
99962.34942
99962.47014
99962.58961
99962.70773
99962.82437
99962.9394
99963.05268
99963.16407
99963.2734
99963.38052
99963.48525
99963.58742
99963.68687
99963.78339
99963.87681
99963.96693
99964.05357
99964.13652
99964.21557
99964.29053
99964.36118
99964.42733
99964.48871
99964.54503
99964.59603
99964.64146
99964.68111
99964.71472
99964.74209
99964.76308
99964.77779
99964.7812
99959.51083
99959.55233
99959.54806
99959.61757
99959.67194
99959.75502
99959.84205
99959.93702
99960.03783
99960.14326
99960.25247
99960.36459
99960.47911
99960.59555
99960.71359
99960.8329
99960.9533
99961.07456
99961.19653
99961.31905
99961.44196
99961.56512
99961.68836
99961.81155
99961.93453
99962.05715
99962.17926
99962.30074
99962.42142
99962.54116
99962.65981
99962.77724
99962.89328
99963.00779
99963.12063
99963.23162
99963.34061
99963.44742
99963.55188
99963.65382
99963.75304
99963.84937
99963.94261
99964.03258
99964.11908
99964.20192
99964.28089
99964.35578
99964.42636
99964.49243
99964.55372
99964.61
99964.66102
99964.70651
99964.74624
99964.77999
99964.80751
99964.82863
99964.84356
99964.84757
99960.5836
99960.56605
99960.42699
99960.40003
99960.3433
99960.34335
99960.35553
99960.38698
99960.43388
99960.49332
99960.56338
99960.64219
99960.72841
99960.82082
99960.91849
99961.02055
99961.12636
99961.23529
99961.34685
99961.46058
99961.57609
99961.69302
99961.81105
99961.92989
99962.04927
99962.16894
99962.28864
99962.40814
99962.52719
99962.64557
99962.76307
99962.8795
99962.99468
99963.10841
99963.22052
99963.33083
99963.43918
99963.54539
99963.64928
99963.75068
99963.84939
99963.94524
99964.03802
99964.12754
99964.21361
99964.29602
99964.37459
99964.44909
99964.51932
99964.58505
99964.64605
99964.70208
99964.75289
99964.79825
99964.83787
99964.87161
99964.89918
99964.92051
99964.93519
99964.93762
99961.40408
99961.18904
99961.15956
99960.98669
99960.92919
99960.85976
99960.82834
99960.81724
99960.82568
99960.8509
99960.89069
99960.94295
99961.006
99961.07828
99961.15849
99961.24551
99961.33833
99961.4361
99961.53806
99961.64355
99961.75198
99961.86282
99961.97561
99962.08992
99962.20543
99962.32184
99962.43878
99962.5559
99962.67286
99962.78936
99962.90512
99963.01994
99963.13362
99963.24599
99963.35687
99963.46606
99963.57337
99963.67859
99963.78153
99963.882
99963.97982
99964.07479
99964.16673
99964.25545
99964.34074
99964.42241
99964.50027
99964.57409
99964.64368
99964.70881
99964.76926
99964.82479
99964.87516
99964.92012
99964.95942
99964.99285
99965.02015
99965.04108
99965.05521
99965.05725
99961.79967
99961.75182
99961.5895
99961.50463
99961.37092
99961.3022
99961.24403
99961.21052
99961.19775
99961.20304
99961.22425
99961.25941
99961.30682
99961.36493
99961.43237
99961.50794
99961.59056
99961.67926
99961.7732
99961.87159
99961.9737
99962.07886
99962.18642
99962.29608
99962.40784
99962.52115
99962.63527
99962.74972
99962.86405
99962.97794
99963.09115
99963.20356
99963.31504
99963.4254
99963.53439
99963.64179
99963.7474
99963.85102
99963.95244
99964.05146
99964.14788
99964.2415
99964.33214
99964.41961
99964.50371
99964.58424
99964.66101
99964.73382
99964.80244
99964.86668
99964.9263
99964.98107
99965.03076
99965.0751
99965.11377
99965.14668
99965.17351
99965.19395
99965.20757
99965.20968
99962.13761
99962.13405
99961.9582
99961.88162
99961.75997
99961.6888
99961.61683
99961.57751
99961.556
99961.55184
99961.56349
99961.58925
99961.62754
99961.67693
99961.73612
99961.80391
99961.87927
99961.96122
99962.04892
99962.14159
99962.23856
99962.33922
99962.44304
99962.54929
99962.65696
99962.76555
99962.87497
99962.98497
99963.0954
99963.20601
99963.31654
99963.4266
99963.53582
99963.64389
99963.75057
99963.85564
99963.95891
99964.06026
99964.15949
99964.25642
99964.35085
99964.44258
99964.53141
99964.61714
99964.69957
99964.77851
99964.85377
99964.92514
99964.99242
99965.0554
99965.11387
99965.16761
99965.21639
99965.26002
99965.29754
99965.32996
99965.35634
99965.37641
99965.38981
99965.39203
99962.35255
99962.35663
99962.26404
99962.16364
99962.0889
99962.00925
99961.95359
99961.91439
99961.89372
99961.88918
99961.89925
99961.92254
99961.95773
99962.00356
99962.05886
99962.12253
99962.1936
99962.27116
99962.35442
99962.44263
99962.53513
99962.63127
99962.73048
99962.83217
99962.93566
99963.04083
99963.14717
99963.25428
99963.3618
99963.46938
99963.5767
99963.68347
99963.78943
99963.89434
99963.99799
99964.10016
99964.20067
99964.29931
99964.3959
99964.49027
99964.58222
99964.67159
99964.7582
99964.84182
99964.92224
99964.99927
99965.0727
99965.14234
99965.20799
99965.26945
99965.3265
99965.37893
99965.4265
99965.46897
99965.50604
99965.53764
99965.56346
99965.58315
99965.59643
99965.5987
99962.65083
99962.56071
99962.53328
99962.44756
99962.37552
99962.32286
99962.2722
99962.24172
99962.22726
99962.22768
99962.24121
99962.26661
99962.3028
99962.34881
99962.40349
99962.46577
99962.53476
99962.60967
99962.68984
99962.77467
99962.86356
99962.95589
99963.05117
99963.14891
99963.24866
99963.35004
99963.45263
99963.55609
99963.66003
99963.76408
99963.86792
99963.97124
99964.07374
99964.17519
99964.27537
99964.37411
99964.47123
99964.56661
99964.6601
99964.7515
99964.84061
99964.92724
99965.0112
99965.09233
99965.17042
99965.24523
99965.31656
99965.38421
99965.448
99965.50771
99965.56313
99965.61406
99965.66027
99965.70154
99965.73765
99965.76839
99965.79353
99965.81265
99965.82569
99965.82772
99962.84623
99962.78731
99962.77315
99962.72176
99962.64667
99962.60041
99962.57426
99962.55809
99962.55896
99962.57095
99962.59378
99962.62649
99962.66786
99962.71699
99962.77321
99962.83584
99962.90419
99962.97784
99963.05598
99963.13816
99963.2239
99963.31271
99963.40417
99963.49788
99963.59345
99963.69055
99963.78883
99963.88798
99963.98769
99964.08765
99964.18755
99964.28709
99964.38598
99964.48391
99964.58063
99964.67591
99964.76956
99964.86144
99964.9514
99965.03933
99965.12513
99965.20861
99965.28958
99965.36784
99965.44321
99965.5155
99965.58447
99965.6499
99965.71158
99965.76933
99965.82296
99965.87223
99965.91694
99965.95687
99965.99182
99966.02156
99966.04588
99966.06421
99966.07683
99966.07822
99962.97031
99963.0221
99963.00534
99962.99505
99962.95189
99962.90752
99962.88825
99962.8938
99962.91079
99962.93892
99962.97331
99963.01377
99963.06078
99963.11386
99963.1729
99963.23675
99963.30527
99963.378
99963.45439
99963.53404
99963.61659
99963.70169
99963.789
99963.87821
99963.96905
99964.06127
99964.1546
99964.24879
99964.34359
99964.43873
99964.53395
99964.62901
99964.72363
99964.81754
99964.91045
99965.00211
99965.09226
99965.18071
99965.26728
99965.35181
99965.43418
99965.51428
99965.59199
99965.66714
99965.73955
99965.80903
99965.87539
99965.93841
99965.99784
99966.05347
99966.1051
99966.15257
99966.19566
99966.23416
99966.26785
99966.29653
99966.31999
99966.33751
99966.34984
99966.35023
99963.1701
99963.26551
99963.25759
99963.27682
99963.26689
99963.24996
99963.23354
99963.24808
99963.27908
99963.32848
99963.37801
99963.43176
99963.48812
99963.54661
99963.60886
99963.67428
99963.74265
99963.81376
99963.88736
99963.96334
99964.04156
99964.1218
99964.20389
99964.28765
99964.3729
99964.45944
99964.54706
99964.63555
99964.72474
99964.8144
99964.90432
99964.99428
99965.08405
99965.17339
99965.26202
99965.34968
99965.43609
99965.52102
99965.60426
99965.6856
99965.76484
99965.84179
99965.91635
99965.98838
99966.05776
99966.12433
99966.18791
99966.24833
99966.30539
99966.35885
99966.40846
99966.45403
99966.49538
99966.53233
99966.56467
99966.5922
99966.61469
99966.63161
99966.64393
99966.64331
99963.49112
99963.59034
99963.57981
99963.61434
99963.63201
99963.64198
99963.65092
99963.66574
99963.70665
99963.76791
99963.83288
99963.89944
99963.96085
99964.02302
99964.08602
99964.15025
99964.21592
99964.28308
99964.35187
99964.42247
99964.49483
99964.5688
99964.64438
99964.72154
99964.8002
99964.88029
99964.96164
99965.04401
99965.1271
99965.21073
99965.29479
99965.37914
99965.46353
99965.54785
99965.63187
99965.71528
99965.79778
99965.87914
99965.95911
99966.03744
99966.11388
99966.18817
99966.26005
99966.32935
99966.39593
99966.4597
99966.52056
99966.57835
99966.63291
99966.68408
99966.73163
99966.77532
99966.81495
99966.85032
99966.88127
99966.9076
99966.92908
99966.94526
99966.95736
99966.95812
99963.95808
99964.02148
99964.09589
99964.06023
99964.11189
99964.1434
99964.16969
99964.19329
99964.21985
99964.26187
99964.33118
99964.39309
99964.48192
99964.53921
99964.59894
99964.65842
99964.71828
99964.77901
99964.84096
99964.90432
99964.96918
99965.03564
99965.10375
99965.17351
99965.245
99965.31815
99965.39268
99965.4684
99965.54527
99965.62315
99965.70185
99965.78122
99965.86088
99965.94037
99966.01952
99966.09826
99966.17639
99966.2537
99966.33004
99966.40515
99966.47872
99966.55046
99966.62005
99966.68719
99966.75163
99966.81315
99966.87162
99966.92699
99966.97918
99967.02804
99967.07344
99967.1152
99967.15311
99967.18696
99967.21659
99967.24182
99967.26247
99967.27823
99967.28946
99967.29098
99964.61238
99964.63663
99964.71212
99964.77627
99964.75278
99964.80211
99964.82337
99964.84187
99964.86368
99964.88489
99964.91699
99964.97276
99965.02692
99965.08877
99965.14107
99965.19336
99965.24519
99965.29732
99965.3504
99965.40489
99965.46107
99965.51911
99965.57914
99965.64122
99965.70517
99965.77026
99965.83621
99965.90344
99965.97237
99966.04356
99966.11679
99966.19118
99966.26641
99966.34185
99966.41734
99966.49278
99966.56789
99966.64228
99966.71555
99966.78756
99966.8583
99966.92744
99966.99467
99967.05967
99967.12217
99967.18191
99967.23866
99967.29223
99967.34247
99967.3893
99967.43267
99967.47251
99967.50869
99967.54103
99967.56938
99967.59359
99967.61348
99967.6288
99967.63954
99967.64126
99965.41939
99965.43029
99965.5024
99965.55569
99965.58141
99965.58141
99965.59552
99965.59101
99965.58966
99965.59647
99965.60151
99965.61653
99965.64548
99965.68262
99965.72237
99965.76276
99965.80244
99965.84307
99965.88518
99965.92913
99965.9751
99966.02316
99966.07323
99966.12515
99966.17881
99966.23476
99966.29355
99966.35515
99966.41956
99966.48594
99966.55336
99966.62173
99966.69093
99966.76134
99966.83271
99966.90388
99966.97483
99967.04552
99967.11548
99967.18435
99967.25213
99967.31872
99967.38361
99967.44645
99967.50692
99967.56479
99967.61983
99967.67184
99967.72061
99967.76596
99967.80774
99967.84591
99967.88044
99967.91128
99967.93834
99967.9615
99967.98065
99967.99556
99968.00605
99968.00797
99966.36129
99966.35425
99966.40636
99966.43881
99966.45363
99966.43417
99966.4158
99966.39578
99966.37304
99966.35462
99966.34468
99966.33232
99966.33167
99966.33356
99966.34943
99966.37009
99966.39467
99966.42205
99966.45201
99966.48475
99966.52042
99966.55896
99966.60026
99966.64419
99966.69064
99966.73952
99966.79057
99966.84345
99966.8978
99966.95376
99967.01192
99967.07256
99967.13579
99967.20139
99967.26789
99967.33467
99967.4016
99967.4684
99967.53483
99967.59987
99967.66342
99967.72609
99967.78778
99967.84802
99967.90617
99967.96196
99968.01512
99968.06539
99968.11258
99968.1565
99968.19696
99968.23381
99968.26698
99968.29644
99968.32221
99968.34428
99968.36258
99968.37697
99968.38726
99968.39004
99967.3918
99967.32159
99967.31908
99967.31744
99967.30896
99967.2927
99967.22552
99967.19535
99967.1549
99967.11778
99967.08933
99967.06456
99967.04041
99967.02574
99967.01229
99967.00967
99967.01591
99967.028
99967.04492
99967.06619
99967.0915
99967.12046
99967.15273
99967.18801
99967.22601
99967.26648
99967.30923
99967.35406
99967.40087
99967.44963
99967.50032
99967.55287
99967.60706
99967.66257
99967.72017
99967.78054
99967.84296
99967.90615
99967.96873
99968.03071
99968.09192
99968.15164
99968.20938
99968.26559
99968.32069
99968.37395
99968.4248
99968.47301
99968.51835
99968.56062
99968.5996
99968.63513
99968.66708
99968.69535
99968.71996
99968.74093
99968.75831
99968.77207
99968.78206
99968.78576
99968.29858
99968.16122
99968.10503
99968.07636
99968.05226
99968.02577
99967.97574
99967.92102
99967.87148
99967.8255
99967.78546
99967.75277
99967.71884
99967.6903
99967.66752
99967.65209
99967.64458
99967.64464
99967.65097
99967.66259
99967.67898
99967.69963
99967.72398
99967.75161
99967.78212
99967.81516
99967.85047
99967.88783
99967.92708
99967.96814
99968.01097
99968.0557
99968.10232
99968.15086
99968.20142
99968.25369
99968.30709
99968.36164
99968.41797
99968.47591
99968.5344
99968.59161
99968.64678
99968.69994
99968.75129
99968.80113
99968.8492
99968.89502
99968.93815
99968.97839
99969.0156
99969.04959
99969.08018
99969.10727
99969.1308
99969.15077
99969.16724
99969.1803
99969.1899
99969.19421
99969.00418
99968.82733
99968.73749
99968.69602
99968.66943
99968.64384
99968.6125
99968.54205
99968.50434
99968.46289
99968.42482
99968.39217
99968.36048
99968.32636
99968.29866
99968.27902
99968.26577
99968.25928
99968.25915
99968.26453
99968.27465
99968.28899
99968.30704
99968.32835
99968.35257
99968.37931
99968.40824
99968.43917
99968.47191
99968.50632
99968.54237
99968.58011
99968.61963
99968.66102
99968.70423
99968.74933
99968.7961
99968.84439
99968.89395
99968.94424
99968.99456
99969.04528
99969.09671
99969.14772
99969.19731
99969.24457
99969.2894
99969.33179
99969.37205
99969.41009
99969.44525
99969.47735
99969.50627
99969.53193
99969.55428
99969.57326
99969.5889
99969.60127
99969.61041
99969.61508
99969.54413
99969.34692
99969.23929
99969.19526
99969.1744
99969.15791
99969.14083
99969.09819
99969.06659
99969.03697
99969.00823
99968.98285
99968.96035
99968.93505
99968.90872
99968.89103
99968.87771
99968.86977
99968.86673
99968.8684
99968.87446
99968.8844
99968.89779
99968.91422
99968.93331
99968.95483
99968.97848
99969.00397
99969.03117
99969.05997
99969.09026
99969.12206
99969.15541
99969.1904
99969.22706
99969.2654
99969.30537
99969.34685
99969.38964
99969.43348
99969.47805
99969.52313
99969.56833
99969.61315
99969.65717
99969.70033
99969.74227
99969.78238
99969.82022
99969.85551
99969.88829
99969.91823
99969.94524
99969.96922
99969.99012
99970.00795
99970.0227
99970.03441
99970.04305
99970.04778
99970.02486
99969.81526
99969.7006
99969.66058
99969.64904
99969.64373
99969.63901
99969.63293
99969.59473
99969.58707
99969.57084
99969.55507
99969.54055
99969.52597
99969.50987
99969.49353
99969.48521
99969.47852
99969.47514
99969.47521
99969.47883
99969.48577
99969.49562
99969.50806
99969.52289
99969.53996
99969.55901
99969.57981
99969.6022
99969.62609
99969.65139
99969.67804
99969.70603
99969.73543
99969.76626
99969.79853
99969.83223
99969.86728
99969.90359
99969.94098
99969.97927
99970.01821
99970.05746
99970.09666
99970.13548
99970.17368
99970.21098
99970.24704
99970.28131
99970.31354
99970.34358
99970.37111
99970.39601
99970.4182
99970.43758
99970.45415
99970.46791
99970.47894
99970.48737
99970.49225
99970.54132
99970.3287
99970.21021
99970.17147
99970.16519
99970.16827
99970.17276
99970.17565
99970.16596
99970.15501
99970.1524
99970.14591
99970.13866
99970.13042
99970.12002
99970.10756
99970.09931
99970.09444
99970.09104
99970.08964
99970.09084
99970.09479
99970.10127
99970.11007
99970.12103
99970.13399
99970.14877
99970.16521
99970.18319
99970.20257
99970.22327
99970.24523
99970.26841
99970.29279
99970.31839
99970.3452
99970.37322
99970.4024
99970.43269
99970.46397
99970.49612
99970.52895
99970.56226
99970.59577
99970.62916
99970.66217
99970.6945
99970.7259
99970.75606
99970.78465
99970.81136
99970.83597
99970.85828
99970.87822
99970.89572
99970.91079
99970.92341
99970.93343
99970.94093
99970.94549
99971.15557
99970.94384
99970.81737
99970.77332
99970.76644
99970.77102
99970.77818
99970.78541
99970.79186
99970.77305
99970.77371
99970.7727
99970.7679
99970.76144
99970.75379
99970.74433
99970.73299
99970.72696
99970.72102
99970.71657
99970.71398
99970.71382
99970.71616
99970.72081
99970.72756
99970.73623
99970.74668
99970.7588
99970.77244
99970.78749
99970.80384
99970.82137
99970.84003
99970.85976
99970.88056
99970.90239
99970.92523
99970.94906
99970.97383
99970.99946
99971.02587
99971.05292
99971.08047
99971.10833
99971.13626
99971.164
99971.19128
99971.21785
99971.24351
99971.26802
99971.29111
99971.31247
99971.33186