/*--------------------------------*- C++ -*----------------------------------*\
  =========                 |
  \\      /  F ield         | OpenFOAM: The Open Source CFD Toolbox
   \\    /   O peration     | Website:  https://openfoam.org
    \\  /    A nd           | Version:  10
     \\/     M anipulation  |
\*---------------------------------------------------------------------------*/
FoamFile
{
    format      ascii;
    class       surfaceScalarField;
    location    "3000";
    object      phi;
}
// * * * * * * * * * * * * * * * * * * * * * * * * * * * * * * * * * * * * * //

dimensions      [1 0 -1 0 0 0 0];

internalField   nonuniform List<scalar> 
10159
(
-7.134522592e-09
1.194658704e-06
-3.464801246e-08
3.590112762e-06
-8.36329476e-08
5.986732675e-06
-1.458161652e-07
8.375158811e-06
1.05424338e-05
-9.382457481e-09
1.205044687e-06
-3.589062809e-08
3.619642213e-06
-7.870766387e-08
6.034601078e-06
-1.238999579e-07
8.427428949e-06
1.042742204e-05
-1.17714149e-08
1.217756354e-06
-4.031734191e-08
3.651015758e-06
-8.010605867e-08
6.079112407e-06
-1.235027518e-07
8.47742131e-06
1.031220293e-05
-1.018257616e-08
1.228819943e-06
-3.991491935e-08
3.683395504e-06
-8.597417411e-08
6.129590862e-06
-1.297532213e-07
8.527362483e-06
1.019017216e-05
-1.027532164e-08
1.239916384e-06
-4.328811694e-08
3.718876722e-06
-9.738031593e-08
6.187803373e-06
-1.225230423e-07
8.558228664e-06
1.007479342e-05
-1.081292885e-08
1.25149637e-06
-4.372293291e-08
3.754092986e-06
-9.457969903e-08
6.242506351e-06
-1.149266362e-07
8.583880843e-06
9.966470739e-06
-1.11671813e-08
1.263387152e-06
-4.335244118e-08
3.788453017e-06
-8.966284398e-08
6.292439177e-06
-1.069912953e-07
8.606173078e-06
9.865716981e-06
-1.102553063e-08
1.275103362e-06
-4.27267273e-08
3.822228304e-06
-8.70840095e-08
6.340244079e-06
-1.01512604e-07
8.625304574e-06
9.770246009e-06
-1.072987767e-08
1.286504513e-06
-4.131170586e-08
3.854825368e-06
-8.47396503e-08
6.387021528e-06
-9.607240513e-08
8.641146365e-06
9.680191306e-06
-1.01982241e-08
1.297365091e-06
-3.927220364e-08
3.885886536e-06
-8.576342726e-08
6.436809817e-06
-9.061985091e-08
8.650600878e-06
9.595727622e-06
-9.795340164e-09
1.30782249e-06
-3.836251313e-08
3.91644023e-06
-8.217766127e-08
6.48392845e-06
-8.387542243e-08
8.657023749e-06
9.518290617e-06
-9.801678824e-09
1.318296721e-06
-3.923561753e-08
3.947892497e-06
-7.132479413e-08
6.519374192e-06
-7.300499198e-08
8.663657659e-06
9.452139893e-06
-9.820020202e-09
1.328808123e-06
-3.72657835e-08
3.977415135e-06
-6.488844562e-08
6.550545776e-06
-6.339430597e-08
8.667415706e-06
9.396065275e-06
-9.597415194e-09
1.33911747e-06
-3.63208928e-08
4.006303111e-06
-6.208382189e-08
6.580046275e-06
-5.62345991e-08
8.667112545e-06
9.347532847e-06
-9.436243441e-09
1.349283835e-06
-3.407246093e-08
4.03319789e-06
-5.896862249e-08
6.608844124e-06
-4.934892287e-08
8.66326014e-06
9.306086467e-06
-8.658096168e-09
1.358694891e-06
-3.257702616e-08
4.059439074e-06
-5.559492123e-08
6.635863056e-06
-4.379532872e-08
8.657306978e-06
9.270134997e-06
-8.280623756e-09
1.367733384e-06
-2.908307095e-08
4.082575627e-06
-5.230202125e-08
6.663076209e-06
-3.619080968e-08
8.64693153e-06
9.241437166e-06
-7.324507712e-09
1.375797928e-06
-2.275144905e-08
4.100272489e-06
-4.267152701e-08
6.686844553e-06
-2.733737901e-08
8.637006336e-06
9.220957545e-06
-3.581551477e-09
1.380075077e-06
-1.164637739e-08
4.110467053e-06
-4.714709938e-08
6.725899792e-06
-3.509777559e-08
8.629831119e-06
9.191868558e-06
-6.330395294e-08
1.444013581e-06
-2.791708693e-07
4.328249576e-06
-5.218594037e-07
6.971754203e-06
-7.429899258e-07
8.855194984e-06
8.454034624e-06
8.614487535e-08
7.262756681e-07
-1.575669296e-08
1.109335076e-06
-1.44677269e-07
1.331365698e-06
-2.691180818e-07
1.521826913e-06
1.323197525e-06
4.106391651e-08
6.864804082e-07
-2.1725883e-08
1.173750595e-06
-1.020873962e-07
1.413688889e-06
-1.477779032e-07
1.569747958e-06
1.177868817e-06
2.983344771e-08
6.579017281e-07
-8.102732754e-09
1.213281538e-06
-8.207509143e-08
1.489580081e-06
-1.117526118e-07
1.601612197e-06
1.068549804e-06
2.493413662e-08
6.342796397e-07
-1.559658492e-08
1.255458973e-06
-8.205439589e-08
1.558020095e-06
-9.788627798e-08
1.619704509e-06
9.732119538e-07
1.659300122e-08
6.190566072e-07
-3.774309371e-09
1.277547798e-06
-5.140274338e-08
1.607724099e-06
-5.640908014e-08
1.627070662e-06
9.194532727e-07
1.394920567e-08
6.065158477e-07
3.219335252e-09
1.29006239e-06
-2.474564284e-08
1.637841608e-06
-2.611115568e-08
1.630875979e-06
8.960586842e-07
1.175014607e-08
5.962021433e-07
4.802564984e-09
1.298838801e-06
-1.737528594e-08
1.662226296e-06
-1.468861675e-08
1.630686928e-06
8.841439984e-07
7.435097648e-09
5.90231477e-07
1.646611654e-09
1.306491818e-06
-1.000079692e-08
1.676123182e-06
-6.393324112e-09
1.629628467e-06
8.805859136e-07
4.487459572e-09
5.872387526e-07
-2.40941668e-10
1.313118621e-06
-5.310239369e-09
1.683482771e-06
-1.504508006e-09
1.628423216e-06
8.819803961e-07
2.387141928e-09
5.863782533e-07
-7.613235449e-10
1.318202235e-06
-3.477486235e-09
1.688533357e-06
8.562725453e-10
1.626744189e-06
8.857993636e-07
1.153115124e-09
5.86783826e-07
-8.365029429e-10
1.32216644e-06
-1.869546828e-09
1.691947918e-06
2.58760788e-09
1.624997337e-06
8.914120171e-07
4.71914446e-10
5.879014226e-07
-9.172376265e-10
1.325569597e-06
-6.283720931e-10
1.694087854e-06
3.260923374e-09
1.623872613e-06
8.977573665e-07
-1.924688307e-10
5.897126503e-07
-1.198930553e-09
1.32862784e-06
1.768028077e-10
1.695186535e-06
3.632101388e-09
1.623233386e-06
9.045290203e-07
-6.518745985e-10
5.920110513e-07
-1.434385462e-09
1.3314977e-06
7.012980231e-10
1.695568439e-06
3.864218043e-09
1.622934922e-06
9.115843847e-07
-1.039540251e-09
5.947231459e-07
-1.628104017e-09
1.334206845e-06
8.924898244e-10
1.69560456e-06
3.325999335e-09
1.623409708e-06
9.181519985e-07
-2.594141287e-09
5.990140753e-07
-3.214942333e-09
1.336979611e-06
-5.153855855e-11
1.69503434e-06
2.381913772e-09
1.62392553e-06
9.23820318e-07
-8.92890265e-09
6.096624774e-07
-1.094284764e-08
1.341175653e-06
-5.75053882e-09
1.692474187e-06
-6.457475507e-10
1.621812958e-06
9.264992089e-07
-3.419735727e-08
6.456001692e-07
-3.955591378e-08
1.348745463e-06
-2.789892282e-08
1.683487568e-06
-1.242931538e-08
1.609379219e-06
9.174434814e-07
-1.084380721e-07
7.557964283e-07
-1.201942919e-07
1.362742195e-06
-9.438858441e-08
1.660390274e-06
-5.692200784e-08
1.574992245e-06
8.639550094e-07
-6.94140791e-07
1.451547801e-06
-6.511261334e-07
1.321944794e-06
-3.529372833e-07
1.364946154e-06
-1.083584871e-07
1.333659231e-06
7.595134266e-07
3.356069975e-09
1.441213327e-06
5.051231884e-08
4.282772575e-06
1.610924934e-07
6.863873086e-06
6.354739584e-07
8.383797906e-06
6.517173307e-06
2.577718276e-06
3.597942691e-09
1.438128738e-06
2.131639612e-08
4.266580684e-06
1.069716677e-07
6.780419054e-06
5.549608736e-07
7.937121179e-06
5.939298367e-06
1.14016108e-06
6.002622049e-09
1.432601121e-06
3.432867516e-08
4.239627854e-06
1.735111803e-07
6.642864022e-06
7.082195746e-07
7.403899573e-06
5.588622939e-06
1.066934394e-06
8.075057854e-09
1.424934538e-06
4.774425462e-08
4.201005076e-06
2.488863687e-07
6.441983234e-06
7.919325802e-07
6.860856098e-06
5.335351937e-06
1.042684989e-06
1.042855714e-08
1.414884708e-06
6.547054807e-08
4.146922288e-06
3.210184008e-07
6.187428078e-06
8.269065814e-07
6.350524677e-06
5.113107318e-06
1.030135401e-06
1.239239084e-08
1.40280545e-06
8.541911603e-08
4.073933623e-06
3.881784762e-07
5.87665852e-06
8.390899455e-07
5.871410878e-06
4.901510324e-06
1.015470344e-06
1.48190392e-08
1.388110355e-06
1.165217903e-07
3.969309644e-06
4.665762233e-07
5.502121154e-06
8.59641827e-07
5.431301099e-06
4.705323278e-06
1.013891669e-06
1.985415105e-08
1.36807385e-06
1.594363571e-07
3.823245761e-06
5.304787364e-07
5.101003552e-06
8.602013655e-07
5.061027453e-06
4.536686454e-06
9.961847055e-07
2.825414552e-08
1.33940198e-06
2.07176521e-07
3.63620309e-06
5.674657866e-07
4.716540566e-06
8.448383012e-07
4.759221164e-06
4.395204516e-06
9.683451763e-07
4.295803708e-08
1.296242421e-06
2.567688215e-07
3.417070318e-06
5.860108238e-07
4.376150232e-06
8.285812763e-07
4.508576182e-06
4.2722693e-06
9.473769727e-07
6.192993595e-08
1.235957106e-06
2.956473925e-07
3.187815322e-06
5.901755847e-07
4.087409988e-06
8.090739882e-07
4.296297352e-06
4.162694736e-06
9.259041056e-07
8.107879615e-08
1.161501719e-06
3.201752903e-07
2.965268459e-06
5.878315961e-07
3.838461639e-06
7.913984975e-07
4.110433427e-06
4.061306347e-06
9.089352702e-07
9.700517056e-08
1.075121978e-06
3.364990506e-07
2.748871348e-06
5.887671293e-07
3.611004392e-06
7.846667577e-07
3.938026446e-06
3.961451541e-06
9.060564528e-07
1.072187078e-07
9.79050035e-07
3.459613688e-07
2.533068021e-06
5.901897802e-07
3.391728541e-06
7.832404664e-07
3.769516006e-06
3.858355453e-06
9.095873978e-07
1.119682634e-07
8.749943542e-07
3.511262586e-07
2.311045277e-06
5.942949844e-07
3.168517681e-06
7.902524839e-07
3.594158844e-06
3.744385804e-06
9.242775671e-07
1.089184896e-07
7.690882144e-07
3.471566215e-07
2.080364491e-06
5.949653603e-07
2.931051482e-06
8.002801044e-07
3.400471051e-06
3.608370515e-06
9.478087528e-07
9.96523736e-08
6.684365204e-07
3.283691183e-07
1.84975078e-06
5.779788583e-07
2.680055091e-06
7.937411317e-07
3.183883358e-06
3.444675016e-06
9.566340334e-07
8.574094983e-08
5.794748909e-07
2.94093756e-07
1.633377094e-06
5.363469694e-07
2.427815956e-06
7.569696039e-07
2.952642119e-06
3.258529519e-06
9.322653092e-07
7.145761325e-08
5.043913296e-07
2.531614865e-07
1.441973273e-06
4.775045985e-07
2.190330438e-06
6.934453832e-07
2.721986684e-06
3.062063891e-06
8.745244749e-07
5.817834826e-08
4.432941411e-07
2.117755251e-07
1.280281201e-06
4.118779242e-07
1.978702656e-06
6.14832538e-07
2.505650794e-06
2.868845037e-06
7.938677963e-07
4.730952149e-08
3.941968888e-07
1.754173509e-07
1.147128273e-06
3.497101752e-07
1.797078126e-06
5.352198768e-07
2.311565872e-06
2.688017934e-06
7.070377008e-07
3.877454858e-08
3.547445186e-07
1.460973721e-07
1.037900781e-06
2.974728779e-07
1.642995295e-06
4.654724675e-07
2.140581829e-06
2.522479926e-06
6.282636928e-07
3.266116276e-08
3.222220115e-07
1.243052167e-07
9.467315948e-07
2.572939183e-07
1.51097424e-06
4.103853454e-07
1.989132434e-06
2.370468629e-06
5.648834363e-07
2.816028106e-08
2.946472027e-07
1.082536892e-07
8.684239307e-07
2.273644727e-07
1.394867654e-06
3.688762459e-07
1.851836871e-06
2.227819573e-06
5.169319864e-07
2.496828208e-08
2.703844266e-07
9.653743792e-08
7.989771995e-07
2.04997739e-07
1.289884247e-06
3.372760228e-07
1.72427257e-06
2.090958337e-06
4.799624944e-07
2.239669863e-08
2.485398778e-07
8.713411477e-08
7.358916807e-07
1.86707278e-07
1.192982083e-06
3.106434767e-07
1.603900072e-06
1.95819495e-06
4.477006851e-07
2.019843939e-08
2.286112366e-07
7.881105637e-08
6.780770417e-07
1.70003874e-07
1.103046412e-06
2.85402016e-07
1.490098258e-06
1.829766755e-06
4.156006137e-07
1.809820674e-08
2.105070353e-07
7.093667462e-08
6.252039349e-07
1.539214997e-07
1.019939645e-06
2.603163272e-07
1.38340119e-06
1.707145668e-06
3.823551247e-07
1.619007433e-08
1.941251746e-07
6.356571748e-08
5.772329653e-07
1.385517852e-07
9.439138703e-07
2.358034167e-07
1.284618138e-06
1.59193894e-06
3.48943352e-07
1.446365018e-08
1.793975667e-07
5.699057262e-08
5.338978023e-07
1.247653374e-07
8.747695421e-07
2.135088747e-07
1.193936308e-06
1.484900934e-06
3.180562479e-07
1.308002125e-08
1.660756853e-07
5.159546267e-08
4.946463893e-07
1.133431663e-07
8.117885176e-07
1.949099241e-07
1.1106406e-06
1.385552641e-06
2.920149228e-07
1.198171276e-08
1.539226194e-07
4.739811221e-08
4.587116701e-07
1.044757894e-07
7.538564727e-07
1.804353542e-07
1.033517932e-06
1.292787101e-06
2.717689862e-07
1.120506566e-08
1.426196154e-07
4.433729954e-08
4.252856527e-07
9.792179864e-08
6.997943763e-07
1.696084007e-07
9.612010047e-07
1.205342424e-06
2.563079818e-07
1.05530061e-08
1.320186361e-07
4.181753506e-08
3.938847082e-07
9.241358629e-08
6.489668928e-07
1.601494701e-07
8.931667936e-07
1.123038724e-06
2.421227841e-07
9.751939763e-09
1.222321848e-07
3.858485222e-08
3.649509919e-07
8.520154084e-08
6.021935391e-07
1.475188945e-07
8.306565695e-07
1.047563106e-06
2.227928238e-07
8.567244122e-09
1.136306557e-07
3.392565099e-08
3.394910428e-07
7.492428809e-08
5.610365824e-07
1.297370081e-07
7.756455543e-07
9.810651168e-07
1.96020265e-07
7.262628641e-09
1.063329196e-07
2.875260758e-08
3.178967277e-07
6.358220374e-08
5.26041165e-07
1.103453742e-07
7.286695092e-07
9.23945404e-07
1.672260355e-07
6.11462838e-09
1.001861959e-07
2.426048784e-08
2.996553452e-07
5.377283376e-08
4.963766074e-07
9.35921776e-08
6.886544169e-07
8.74978205e-07
1.423399453e-07
5.23271585e-09
9.492940846e-08
2.075953966e-08
2.840574837e-07
4.606922494e-08
4.709561375e-07
8.032565013e-08
6.54261502e-07
8.32765037e-07
1.223984919e-07
4.489470351e-09
9.042948531e-08
1.782746279e-08
2.706905964e-07
3.955978526e-08
4.49186286e-07
6.894295744e-08
6.248501865e-07
7.967304276e-07
1.049862662e-07
3.782285703e-09
8.665877563e-08
1.501021454e-08
2.595015002e-07
3.332079113e-08
4.309535563e-07
5.812950315e-08
6.001762728e-07
7.663960444e-07
8.867727673e-08
3.189734146e-09
8.349713233e-08
1.269175482e-08
2.500870464e-07
2.825837974e-08
4.155407725e-07
4.949490847e-08
5.791692215e-07
7.403101331e-07
7.58975416e-08
2.807134376e-09
8.07231138e-08
1.117339573e-08
2.41823197e-07
2.492558106e-08
4.019657532e-07
4.37740654e-08
5.60579785e-07
7.171092419e-07
6.732474417e-08
2.511477457e-09
7.824609816e-08
1.000859024e-08
2.344324258e-07
2.234229797e-08
3.898152044e-07
3.926244607e-08
5.439258141e-07
6.962982112e-07
6.043022133e-08
2.247087923e-09
7.603356184e-08
8.947575374e-09
2.278385426e-07
1.997358495e-08
3.789729254e-07
3.510951277e-08
5.290565201e-07
6.777051585e-07
5.405861216e-08
1.988530689e-09
7.408041855e-08
7.924430345e-09
2.220115852e-07
1.769403618e-08
3.693900102e-07
3.110994423e-08
5.159098148e-07
6.612528882e-07
4.791899154e-08
1.743088331e-09
7.237410402e-08
6.941797217e-09
2.169259641e-07
1.550327084e-08
3.610220028e-07
2.727231906e-08
5.044192808e-07
6.468580523e-07
4.20360435e-08
1.507920987e-09
7.090550946e-08
6.01176559e-09
2.125429991e-07
1.343426211e-08
3.538061224e-07
2.364701427e-08
4.945036545e-07
6.344215171e-07
3.647664206e-08
1.292565424e-09
6.965625501e-08
5.151437904e-09
2.088172297e-07
1.151722715e-08
3.476677836e-07
2.028913308e-08
4.860587521e-07
6.23815156e-07
3.132802586e-08
1.095903977e-09
6.860890549e-08
4.373715965e-09
2.056886277e-07
9.78715199e-09
3.425093023e-07
1.725704861e-08
4.789554016e-07
6.148816767e-07
2.667531605e-08
9.262759241e-10
6.773703011e-08
3.696418417e-09
2.030856895e-07
8.277161629e-09
3.382141633e-07
1.461026461e-08
4.730338308e-07
6.074246628e-07
2.261345574e-08
7.817521006e-10
6.701580092e-08
3.124385131e-09
2.009290139e-07
7.003390456e-09
3.346527796e-07
1.237388455e-08
4.681197089e-07
6.012287415e-07
1.917302384e-08
6.645488421e-10
6.641676902e-08
2.656010135e-09
1.991388126e-07
5.958043752e-09
3.316943466e-07
1.053812712e-08
4.640329484e-07
5.960697035e-07
1.634856668e-08
5.691337934e-10
6.591643095e-08
2.278038887e-09
1.976411887e-07
5.115098161e-09
3.292178042e-07
9.055800871e-09
4.606094424e-07
5.917434644e-07
1.40642619e-08
4.944364417e-10
6.549199812e-08
1.978978332e-09
1.963715815e-07
4.446405594e-09
3.271169303e-07
7.878960838e-09
4.577023412e-07
5.880659655e-07
1.224891539e-08
4.338422366e-10
6.512733294e-08
1.738730758e-09
1.952790376e-07
3.909620622e-09
3.253080015e-07
6.932812458e-09
4.551976731e-07
5.848945618e-07
1.078698576e-08
3.863710347e-10
6.480762849e-08
1.548129193e-09
1.943218695e-07
3.482394025e-09
3.237223306e-07
6.179043368e-09
4.530001214e-07
5.821092175e-07
9.621156672e-09
3.4660099e-10
6.452400441e-08
1.390267051e-09
1.934714259e-07
3.128889873e-09
3.223128045e-07
5.554290489e-09
4.5104568e-07
5.796299532e-07
8.652967002e-09
3.162369416e-10
6.42663896e-08
1.267635e-09
1.926998485e-07
2.852834873e-09
3.210337608e-07
5.065318572e-09
4.492711378e-07
5.773771568e-07
7.893831888e-09
2.889089273e-10
6.403152071e-08
1.159033667e-09
1.91995447e-07
2.608990858e-09
3.198658438e-07
4.632819304e-09
4.476505735e-07
5.753193488e-07
7.220500032e-09
2.715801269e-10
6.380949373e-08
1.088389241e-09
1.913305601e-07
2.449236377e-09
3.187634307e-07
4.348781419e-09
4.461203545e-07
5.73375093e-07
6.778048155e-09
2.523483361e-10
6.360250508e-08
1.012468854e-09
1.907094639e-07
2.279187243e-09
3.1773309e-07
4.047066704e-09
4.446901017e-07
5.715583514e-07
6.306929568e-09
2.482280902e-10
6.339582968e-08
9.939196349e-10
1.900910909e-07
2.235419291e-09
3.167079664e-07
3.967733561e-09
4.432666889e-07
5.697485117e-07
6.182751054e-09
2.290186432e-10
6.32049848e-08
9.19183432e-10
1.895178474e-07
2.069711529e-09
3.157560091e-07
3.676242775e-09
4.419434552e-07
5.680646385e-07
5.731446318e-09
2.415683022e-10
6.299860524e-08
9.673534709e-10
1.888998182e-07
2.177042963e-09
3.147292217e-07
3.867510699e-09
4.405137729e-07
5.662399196e-07
6.033776546e-09
2.096553264e-10
6.282149881e-08
8.438791646e-10
1.883652326e-07
1.904265667e-09
3.138378912e-07
3.388435068e-09
4.392705599e-07
5.646556657e-07
5.288141676e-09
2.678007153e-10
6.25838301e-08
1.071086621e-09
1.87654161e-07
2.410274727e-09
3.126550831e-07
4.283093175e-09
4.376205374e-07
5.625419198e-07
6.688440575e-09
1.790946377e-10
6.243269498e-08
7.301842847e-10
1.871886387e-07
1.665893797e-09
3.118644764e-07
2.996942293e-09
4.364962318e-07
5.610857662e-07
4.723748039e-09
3.738312381e-10
6.20838852e-08
1.488741595e-09
1.861502591e-07
3.340503312e-09
3.101424407e-07
5.922443779e-09
4.34098957e-07
5.58015673e-07
9.234092046e-09
4.377587811e-10
1.757664949e-09
3.948610715e-09
6.987948403e-09
1.083316857e-08
1.422542624e-06
1.158265602e-06
1.465997413e-06
1.102636105e-06
1.491243714e-06
1.045353279e-06
1.498431455e-06
1.032759798e-06
1.491021119e-06
1.029650924e-06
1.473977219e-06
1.02121522e-06
1.453920738e-06
1.021864399e-06
1.434936923e-06
1.006361988e-06
1.417586299e-06
9.811557065e-07
1.400752444e-06
9.636661148e-07
1.384265444e-06
9.451048963e-07
1.367477165e-06
9.311381969e-07
1.34905627e-06
9.316023139e-07
1.327962327e-06
9.38405402e-07
1.302122484e-06
9.56813532e-07
1.268122335e-06
9.856208392e-07
1.224135902e-06
1.000223329e-06
1.171223623e-06
9.813319421e-07
1.112964363e-06
9.273420699e-07
1.053846026e-06
8.479814602e-07
9.969823928e-07
7.607699884e-07
9.436082607e-07
6.808138436e-07
8.933836734e-07
6.162044174e-07
8.450826569e-07
5.673954404e-07
7.976438412e-07
5.296752457e-07
7.506485944e-07
4.963293382e-07
7.04399054e-07
4.624792287e-07
6.596283831e-07
4.268415014e-07
6.170887957e-07
3.906280053e-07
5.771886981e-07
3.569759451e-07
5.398670539e-07
3.28471683e-07
5.0479452e-07
3.062894356e-07
4.716230496e-07
2.892012157e-07
4.40401161e-07
2.732293788e-07
4.118019658e-07
2.513257672e-07
3.86557565e-07
2.211913373e-07
3.647638971e-07
1.889351935e-07
3.459901114e-07
1.610367926e-07
3.297797129e-07
1.385651115e-07
3.159552914e-07
1.188298855e-07
3.042693232e-07
1.004605663e-07
2.94138756e-07
8.616217105e-08
2.850997943e-07
7.650961335e-08
2.769843132e-07
6.869369191e-08
2.697299481e-07
6.14601384e-08
2.633055854e-07
5.44897741e-08
2.576799156e-07
4.781331201e-08
2.528145018e-07
4.15034897e-08
2.486607517e-07
3.565938605e-08
2.451582585e-07
3.03768779e-08
2.422317663e-07
2.576380814e-08
2.397977294e-07
2.185460142e-08
2.377693308e-07
1.864408862e-08
2.360668469e-07
1.604628511e-08
2.34618609e-07
1.398067641e-08
2.333687802e-07
1.231620515e-08
2.322704794e-07
1.098809668e-08
2.312925302e-07
9.884197421e-09
2.304034722e-07
9.018247051e-09
2.295913722e-07
8.249159289e-09
2.288231662e-07
7.744412102e-09
2.281058841e-07
7.205194396e-09
2.273899114e-07
7.064198863e-09
2.267244035e-07
6.548548913e-09
2.25999344e-07
6.898219147e-09
2.253729806e-07
6.043246648e-09
2.245277635e-07
7.652607579e-09
2.23948118e-07
5.413783838e-09
2.227184023e-07
1.056241868e-08
1.233937785e-08
-6.02188038e-07
3.223291406e-06
-8.717985733e-07
1.593596268e-06
-7.476795038e-07
1.249149288e-06
-4.494576584e-07
1.066715397e-06
6.49995412e-07
-2.669211438e-07
3.919211833e-07
3.953220205e-06
-1.849635143e-07
2.189007577e-06
-2.852541114e-07
1.357843315e-06
-2.140453035e-07
1.027592743e-06
7.028084862e-07
-1.458134714e-07
6.625321671e-07
4.343310928e-06
1.648914804e-07
2.689229888e-06
-3.2057093e-08
1.566025594e-06
-1.681586746e-07
1.207994942e-06
9.678134093e-07
-3.081555898e-07
7.423919096e-07
4.613719712e-06
3.667104385e-07
3.036270138e-06
5.166975357e-08
1.847430542e-06
-1.270416609e-07
1.419027908e-06
1.227453348e-06
-3.08284881e-07
8.074550124e-07
4.798886422e-06
4.69363586e-07
3.334564383e-06
6.521840925e-08
2.211263213e-06
-1.248546945e-07
1.631648732e-06
1.461224252e-06
-3.160249403e-07
8.438589227e-07
4.937727659e-06
5.407153275e-07
3.608824288e-06
1.804355209e-07
2.555761476e-06
-1.43176849e-08
1.84038028e-06
1.647970823e-06
-1.824065114e-07
8.773907255e-07
5.051422153e-06
6.131442969e-07
3.857308796e-06
3.12847046e-07
2.850280758e-06
1.106351075e-07
2.048223588e-06
1.816538843e-06
-4.707593727e-08
8.959339797e-07
5.142806159e-06
6.713198625e-07
4.075070741e-06
3.993081524e-07
3.121945046e-06
1.552662097e-07
2.294198552e-06
1.983413753e-06
-6.222524776e-09
9.035000686e-07
5.213697801e-06
7.150519993e-07
4.265451146e-06
4.639594435e-07
3.380398952e-06
1.773933968e-07
2.590502544e-06
2.159051579e-06
4.138832853e-09
9.156713874e-07
5.266417825e-06
7.585400749e-07
4.431821654e-06
5.35873026e-07
3.614891114e-06
2.774254549e-07
2.860735006e-06
2.335624306e-06
1.01412129e-07
9.218291587e-07
5.303398054e-06
7.936468293e-07
4.574894196e-06
6.012422272e-07
3.822471678e-06
3.779690751e-07
3.097041954e-06
2.510659968e-06
2.037216948e-07
9.299932252e-07
5.326142918e-06
8.285609538e-07
4.697060841e-06
6.595172084e-07
4.011415274e-06
4.500779158e-07
3.324527995e-06
2.711944747e-06
2.564451635e-07
9.503945441e-07
5.334154611e-06
8.70844775e-07
4.800961739e-06
7.197882706e-07
4.184943703e-06
5.177976248e-07
3.547571372e-06
2.951495591e-06
2.964599902e-07
9.754074025e-07
5.325517174e-06
9.161949216e-07
4.88506423e-06
7.85130126e-07
4.33740702e-06
6.019552525e-07
3.748726605e-06
3.17813288e-06
3.89415964e-07
1.014219197e-06
5.292016165e-06
9.770157616e-07
4.94226229e-06
8.675824166e-07
4.462533316e-06
7.069348199e-07
3.921422557e-06
3.375834781e-06
5.182297136e-07
1.065949693e-06
5.223782101e-06
1.051331181e-06
4.965589666e-06
9.627067135e-07
4.556473045e-06
8.204037194e-07
4.066554637e-06
3.550982941e-06
6.474935622e-07
1.104019119e-06
5.116897099e-06
1.113650319e-06
4.951255623e-06
1.046656315e-06
4.616892425e-06
9.210854461e-07
4.184726187e-06
3.708590426e-06
7.57508966e-07
1.11211806e-06
4.970723501e-06
1.148413608e-06
4.899423908e-06
1.105811907e-06
4.643915528e-06
9.997426129e-07
4.275675969e-06
3.848388489e-06
8.468592186e-07
1.081939469e-06
4.795094518e-06
1.144341884e-06
4.816927822e-06
1.128040379e-06
4.641600566e-06
1.046378787e-06
4.340478851e-06
3.966658106e-06
9.141756931e-07
1.017540611e-06
4.606538985e-06
1.103956071e-06
4.713143242e-06
1.115117368e-06
4.615466621e-06
1.062540236e-06
4.380922133e-06
4.06140513e-06
9.589145624e-07
9.394896361e-07
4.416429496e-06
1.046676453e-06
4.59667713e-06
1.084645194e-06
4.571072453e-06
1.062052775e-06
4.400237509e-06
4.133735893e-06
9.890691727e-07
8.652955087e-07
4.229965927e-06
9.892807983e-07
4.473039029e-06
1.05162412e-06
4.511961536e-06
1.05754834e-06
4.400439057e-06
4.184372563e-06
1.014740967e-06
8.049964509e-07
4.046944322e-06
9.443291051e-07
4.341814714e-06
1.029710394e-06
4.437247563e-06
1.063625142e-06
4.379475162e-06
4.212181884e-06
1.049412479e-06
7.610243026e-07
3.863322014e-06
9.154058738e-07
4.199411095e-06
1.022522724e-06
4.34390833e-06
1.081046915e-06
4.336064172e-06
4.215645214e-06
1.092467665e-06
7.273872841e-07
3.675738127e-06
8.948835244e-07
4.043271974e-06
1.020911257e-06
4.230071414e-06
1.100812343e-06
4.268690489e-06
4.193109141e-06
1.135067145e-06
6.955081038e-07
3.48355752e-06
8.725915986e-07
3.873518148e-06
1.014353048e-06
4.095512908e-06
1.114113883e-06
4.175647849e-06
4.144253228e-06
1.168723833e-06
6.592015012e-07
3.289215268e-06
8.411222035e-07
3.69349765e-06
9.94122423e-07
3.943603422e-06
1.109778633e-06
4.060154037e-06
4.070411147e-06
1.183099682e-06
6.17414907e-07
3.096971212e-06
7.996632827e-07
3.508566503e-06
9.592146119e-07
3.780285412e-06
1.086369534e-06
3.928305509e-06
3.976866633e-06
1.17509918e-06
5.723827113e-07
2.911074888e-06
7.514721309e-07
3.3243011e-06
9.137268175e-07
3.611908809e-06
1.048615967e-06
3.786709995e-06
3.870575322e-06
1.148686549e-06
5.295842161e-07
2.734149281e-06
7.03994674e-07
3.144448465e-06
8.668359807e-07
3.443026245e-06
1.00692624e-06
3.640474491e-06
3.756704794e-06
1.115562083e-06
4.922423028e-07
2.566546791e-06
6.617886923e-07
2.970637397e-06
8.237793579e-07
3.276629498e-06
9.663152308e-07
3.493837957e-06
3.640063608e-06
1.079875723e-06
4.628464268e-07
2.407572031e-06
6.274014842e-07
2.803569327e-06
7.867584899e-07
3.114941363e-06
9.287914675e-07
3.349989331e-06
3.523684345e-06
1.044214289e-06
4.391491025e-07
2.256470967e-06
5.977061936e-07
2.643981955e-06
7.519211362e-07
2.960027108e-06
8.903704433e-07
3.211360006e-06
3.409649194e-06
1.004834317e-06
4.149374718e-07
2.114346541e-06
5.646052825e-07
2.494097755e-06
7.103804536e-07
2.814370456e-06
8.424085473e-07
3.079884575e-06
3.29945423e-06
9.535876244e-07
3.810967845e-07
1.984370416e-06
5.182929456e-07
2.356883614e-06
6.528978549e-07
2.680033462e-06
7.766119337e-07
2.95680625e-06
3.194272148e-06
8.828153427e-07
3.360395574e-07
1.86927212e-06
4.58673184e-07
2.234148729e-06
5.808310419e-07
2.558020962e-06
6.951585239e-07
2.842979277e-06
3.095327195e-06
7.950461929e-07
2.887398939e-07
1.769156404e-06
3.968846216e-07
2.125822006e-06
5.062980192e-07
2.448674233e-06
6.10041013e-07
2.73971419e-06
3.004213407e-06
7.021981151e-07
2.476174794e-07
1.682298997e-06
3.424221782e-07
2.030891613e-06
4.390510699e-07
2.352228586e-06
5.314137766e-07
2.648056415e-06
2.920895364e-06
6.160109563e-07
2.136020664e-07
1.607152168e-06
2.958733759e-07
1.948738725e-06
3.801025076e-07
2.26853086e-06
4.623788062e-07
2.566841812e-06
2.843986981e-06
5.408260133e-07
1.830569432e-07
1.54313139e-06
2.539117967e-07
1.878400747e-06
3.278933953e-07
2.195453774e-06
4.025869074e-07
2.493490393e-06
2.772457419e-06
4.758646323e-07
1.555522362e-07
1.488575967e-06
2.176044012e-07
1.817149817e-06
2.841773095e-07
2.130008325e-06
3.529018706e-07
2.426280051e-06
2.705829145e-06
4.214022324e-07
1.347164529e-07
1.44069857e-06
1.903968859e-07
1.762393038e-06
2.509662887e-07
2.07066415e-06
3.141411036e-07
2.364687415e-06
2.644255047e-06
3.776182676e-07
1.20158257e-07
1.397772349e-06
1.705275259e-07
1.712982994e-06
2.256145071e-07
2.016820046e-06
2.833485239e-07
2.308525994e-06
2.587833632e-06
3.416278535e-07
1.080146135e-07
1.359178286e-06
1.534949318e-07
1.66845472e-06
2.033662602e-07
1.96816472e-06
2.557950856e-07
2.257613291e-06
2.53648357e-06
3.089099415e-07
9.671046167e-08
1.324646834e-06
1.375594718e-07
1.628537524e-06
1.824640682e-07
1.924436224e-06
2.298254923e-07
2.211699355e-06
2.489971181e-06
2.779979733e-07
8.580839921e-08
1.294034788e-06
1.222092088e-07
1.59306866e-06
1.623404277e-07
1.885459224e-06
2.048306829e-07
2.170612776e-06
2.448145613e-06
2.482524836e-07
7.539062425e-08
1.267191808e-06
1.075212751e-07
1.561877713e-06
1.430921424e-07
1.851056955e-06
1.80936611e-07
2.134184875e-06
2.410859506e-06
2.198243255e-07
6.553506e-08
1.243941477e-06
9.363389016e-08
1.534775965e-06
1.24883164e-07
1.82104613e-06
1.583144552e-07
2.102253163e-06
2.377989849e-06
1.928783321e-07
5.64037097e-08
1.224056589e-06
8.075743709e-08
1.511519649e-06
1.079785192e-07
1.795189258e-06
1.372781023e-07
2.074610008e-06
2.349378724e-06
1.677666903e-07
4.813616132e-08
1.207260542e-06
6.907486853e-08
1.491811714e-06
9.260556781e-08
1.773192457e-06
1.180884214e-07
2.050988488e-06
2.324807679e-06
1.44768135e-07
4.090469979e-08
1.193201038e-06
5.883215596e-08
1.47526223e-06
7.908828034e-08
1.754652566e-06
1.011645523e-07
2.030996352e-06
2.303916695e-06
1.244202215e-07
3.476342423e-08
1.181488799e-06
5.011543445e-08
1.461435806e-06
6.755146369e-08
1.739111462e-06
8.667076697e-08
2.014174233e-06
2.286265121e-06
1.069235728e-07
2.971148556e-08
1.171711392e-06
4.292818647e-08
1.449860619e-06
5.801479507e-08
1.726058905e-06
7.46547248e-08
1.999993796e-06
2.271324377e-06
9.237314646e-08
2.561273618e-08
1.163493316e-06
3.707969939e-08
1.440105639e-06
5.023021841e-08
1.715024368e-06
6.481221613e-08
1.987963377e-06
2.258599543e-06
8.041070701e-08
2.234892225e-08
1.156491231e-06
3.241352863e-08
1.431772109e-06
4.400377103e-08
1.705568926e-06
5.691698249e-08
1.977618321e-06
2.247613869e-06
7.07880002e-08
1.97120193e-08
1.15044049e-06
2.863178133e-08
1.424553973e-06
3.893935797e-08
1.697356181e-06
5.046954454e-08
1.968603616e-06
2.238005523e-06
6.289883898e-08
1.760447591e-08
1.145116515e-06
2.560248857e-08
1.418189107e-06
3.487159576e-08
1.690095212e-06
4.52752779e-08
1.960608372e-06
2.229452338e-06
5.652606016e-08
1.58489158e-08
1.140369653e-06
2.307210371e-08
1.412503692e-06
3.146194698e-08
1.683594805e-06
4.09041369e-08
1.953430574e-06
2.221748061e-06
5.114276681e-08
1.44667472e-08
1.136052309e-06
2.107304609e-08
1.407325015e-06
2.876034048e-08
1.677660799e-06
3.743188305e-08
1.94685936e-06
2.214670216e-06
4.685940511e-08
1.32395531e-08
1.132102296e-06
1.929829914e-08
1.402578825e-06
2.635884139e-08
1.67221167e-06
3.433811085e-08
1.94080987e-06
2.208133555e-06
4.303287087e-08
1.242969892e-08
1.128368661e-06
1.812260389e-08
1.398086042e-06
2.476605204e-08
1.667041053e-06
3.228657434e-08
1.935052575e-06
2.2018904e-06
4.050073568e-08
1.156997168e-08
1.124872832e-06
1.687975403e-08
1.393871497e-06
2.30814098e-08
1.662182838e-06
3.010818821e-08
1.929633349e-06
2.195999181e-06
3.779532293e-08
1.133489901e-08
1.121396193e-06
1.653110752e-08
1.389675639e-06
2.260835611e-08
1.65733186e-06
2.950672283e-08
1.924201363e-06
2.190067156e-06
3.707566587e-08
1.053682586e-08
1.118135502e-06
1.539741289e-08
1.385730962e-06
2.108403048e-08
1.652767246e-06
2.754335769e-08
1.91908278e-06
2.184463031e-06
3.464285977e-08
1.108576353e-08