/*--------------------------------*- C++ -*----------------------------------*\
  =========                 |
  \\      /  F ield         | OpenFOAM: The Open Source CFD Toolbox
   \\    /   O peration     | Website:  https://openfoam.org
    \\  /    A nd           | Version:  10
     \\/     M anipulation  |
\*---------------------------------------------------------------------------*/
FoamFile
{
    format      ascii;
    class       volScalarField;
    location    "3000";
    object      qr;
}
// * * * * * * * * * * * * * * * * * * * * * * * * * * * * * * * * * * * * * //

dimensions      [1 0 -3 0 0 0 0];

internalField   uniform 0;

boundaryField
{
    inletCH4
    {
        type            calculated;
        value           nonuniform List<scalar> 5(4170.931141 4169.762649 4167.192418 4163.288507 4158.063902);
    }
    wallOutside
    {
        type            calculated;
        value           nonuniform List<scalar> 
70
(
12318.70061
12324.64258
12327.90767
12328.33186
12325.84026
12320.43361
12312.15306
12301.07263
12287.29053
12270.92128
12252.09392
12230.95058
12207.64414
12182.33541
12155.1906
12126.37854
12096.06779
12064.42318
12031.6029
11997.75698
11963.02644
11927.5429
11891.42838
11854.79487
11817.74381
11780.37049
11742.75624
11704.97481
11667.09398
11629.17659
11591.28006
11553.45605
11515.75037
11478.20388
11440.85281
11403.7293
11366.86218
11330.27769
11293.99996
11258.05083
11222.45107
11187.22024
11152.37733
11117.94097
11083.9292
11050.35874
11017.24581
10984.60472
10952.44303
10920.7608
10889.55681
10858.82643
10828.55403
10798.7187
10769.30825
10740.33967
10711.88426
10684.08076
10657.12176
10631.22804
10606.58465
10583.21246
10560.84804
10539.21833
10518.32808
10498.21316
10478.89515
10460.39928
10442.77466
10426.09902
)
;
    }
    wallTube
    {
        type            calculated;
        value           nonuniform List<scalar> 
61
(
4177.965459
4351.55546
4657.717324
5105.726873
5709.251502
6486.711289
7461.73483
8663.915099
10129.83294
11904.01376
14040.41591
16603.97068
19672.51696
23339.13908
27715.03487
32932.87899
39150.84006
46557.44331
55378.42192
65921.76726
60645.79023
-284656.9603
-328861.8401
-359014.7829
-383399.8452
-406106.5156
-429477.5421
-455033.0854
-483663.8713
-516013.1025
-552645.4218
-594091.5406
-640893.0736
-693612.4569
-752857.8666
-819286.2116
-893640.6792
-976786.2377
-1069884.338
-1174677.997
-1294273.255
-285118.5926
-330612.8405
-361116.5194
-385512.7262
-408100.8572
-431027.0934
-455790.1965
-483355.3649
-514499.5347
-549901.5547
-590164.9566
-635846.6553
-687512.7451
-745753.9489
-811210.4855
-884569.6603
-966609.3658
-1058177.603
-1159820.072
-1254069.18
)
;
    }
    inletPilot
    {
        type            calculated;
        value           nonuniform List<scalar> 5(-213000.3242 -213137.3153 -213132.0866 -213008.1323 -212779.5705);
    }
    inletAir
    {
        type            calculated;
        value           nonuniform List<scalar> 
60
(
33847.60401
27355.45799
24588.39546
22876.08776
21568.96803
20509.10267
19629.46889
18888.14126
18255.56262
17709.93991
17234.8141
16817.54866
16448.30844
16119.34326
15824.47497
15558.72495
15318.04036
15099.09066
14899.11476
14715.80492
14547.21772
14391.70508
14247.8603
14114.47553
13990.50792
13875.05247
13767.32016
13666.62006
13572.34478
13483.95834
13400.98621
13323.00692
13249.64512
13180.56567
13115.46867
13054.08526
12996.17402
12941.51787
12889.92146
12841.20883
12795.22146
12751.81658
12710.86572
12672.2535
12635.8766
12601.64277
12569.4701
12539.28624
12511.02793
12484.6405
12460.07755
12437.30072
12416.27952
12396.99124
12379.421
12363.56184
12349.415
12336.99022
12326.30626
12317.3915
)
;
    }
    outlet
    {
        type            calculated;
        value           nonuniform List<scalar> 
71
(
-216408.7474
-216129.2407
-215515.9577
-214588.1679
-213353.3628
-212341.0047
-210816.3234
-207826.7774
-204258.4711
-200149.2175
-195541.1751
-189888.3906
-183016.2864
-175482.1389
-167359.7001
-158733.2373
-149695.5605
-140345.6815
-130786.325
-121121.5865
-111454.4198
-101883.8217
-92501.61174
-83392.03661
-74627.36293
-66270.08966
-58371.21351
-50969.45254
-44090.92313
-37749.98912
-31950.09668
-26684.92524
-21939.7304
-17692.79797
-13916.91663
-10580.48373
-7648.235372
-5083.706858
-2850.636123
-913.3034964
762.6960366
2209.92383
3456.927709
4531.086422
5456.797225
6255.482419
6945.702767
7543.324868
8061.721805
8511.995317
8903.21084
9242.622712
9535.864131
9787.065435
9998.819763
10172.0008
10305.68115
10398.34179
10449.78157
10468.22717
10470.96643
10468.52292
10464.36713
10459.62599
10454.62202
10449.44204
10444.11353
10438.64617
10433.04423
10427.30781
10421.4336
)
;
    }
    axis
    {
        type            empty;
    }
    frontAndBack_pos
    {
        type            wedge;
    }
    frontAndBack_neg
    {
        type            wedge;
    }
}


// ************************************************************************* //
