/*--------------------------------*- C++ -*----------------------------------*\
  =========                 |
  \\      /  F ield         | OpenFOAM: The Open Source CFD Toolbox
   \\    /   O peration     | Website:  https://openfoam.org
    \\  /    A nd           | Version:  10
     \\/     M anipulation  |
\*---------------------------------------------------------------------------*/
FoamFile
{
    format      ascii;
    class       volScalarField;
    location    "3000";
    object      RR.CO;
}
// * * * * * * * * * * * * * * * * * * * * * * * * * * * * * * * * * * * * * //

dimensions      [1 -3 -1 0 0 0 0];

internalField   nonuniform List<scalar> 
5170
(
1.128078285e-52
3.901485404e-51
-1.687098624e-51
2.401206056e-52
-3.079456936e-51
1.23316256e-51
3.975287309e-51
1.146407772e-51
-1.830336832e-51
-2.311464539e-51
1.577132436e-51
-4.60665334e-51
-2.411152827e-51
1.813252801e-51
-3.710374503e-51
6.659398393e-52
-1.872019255e-51
1.588573715e-51
1.925433203e-51
2.429365477e-51
8.682581451e-52
5.617269698e-54
8.576399204e-52
-2.220028309e-51
2.021465713e-51
7.64284196e-52
2.655626569e-52
2.066969403e-51
-5.049966003e-53
-3.831366807e-51
1.452363033e-50
4.512424307e-51
-2.629207588e-51
3.959435201e-51
3.642078348e-52
9.595512346e-48
3.09775942e-48
1.930505683e-49
4.909890814e-51
0
7.03807468e-45
2.334870563e-45
1.412295975e-46
3.415174322e-48
0
5.294401462e-42
1.883675153e-42
1.154815914e-43
4.454067734e-45
1.99583775e-44
4.110500229e-39
1.641350024e-39
1.149175785e-40
1.359930191e-41
9.684379054e-41
3.28457488e-36
1.539026556e-36
1.490643505e-37
6.349935181e-38
4.364531007e-37
2.70431383e-33
1.562758526e-33
2.590437549e-34
3.243220444e-34
1.997361541e-33
2.291388818e-30
1.70272248e-30
5.639897082e-31
1.64137252e-30
9.228958862e-30
1.987501323e-27
2.003952326e-27
1.417322449e-27
8.000297175e-27
4.324024235e-26
1.755652991e-24
2.496252399e-24
3.797355306e-24
3.608972475e-23
2.060288421e-22
1.54588806e-21
3.290677393e-21
1.028171145e-20
1.46070113e-19
1.000896174e-18
1.347442223e-18
4.430623759e-18
2.706185785e-17
5.485000346e-16
4.971024764e-15
1.078418658e-15
5.792265971e-15
6.664932322e-14
1.856079625e-12
2.638860572e-11
8.643347225e-13
1.112086643e-11
4.151764392e-10
2.102767873e-08
5.907167515e-07
-0.6058591721
-0.5170022533
-0.4804433838
-0.532938661
-0.6052882107
-0.3196681612
-0.329135693
-0.320194068
-0.3298741865
-0.3035130406
-0.1849135724
-0.2174992808
-0.2169219428
-0.2075173487
-0.164890347
-0.1179549456
-0.1464232717
-0.1505914636
-0.1421000229
-0.1009811389
-0.08019822357
-0.1045418364
-0.1085253986
-0.1020011441
-0.06712297717
-0.05687415124
-0.07686506947
-0.08089455416
-0.07511053186
-0.04660293135
-0.04194082781
-0.05827553429
-0.06175088713
-0.05613960081
-0.03350127254
-0.03158900238
-0.04485673555
-0.04784449661
-0.04176204115
-0.02431294845
-0.02412055323
-0.03456589219
-0.03701807481
-0.03089429025
-0.0178010229
-0.01864978611
-0.02679433304
-0.02855183634
-0.02299380062
-0.01325617692
-0.01455671602
-0.02083026
-0.02202951382
-0.01730897055
-0.0100852671
-0.01148115114
-0.01627876939
-0.01704941789
-0.01319808032
-0.007837355207
-0.009154887059
-0.01279584356
-0.01328356042
-0.01021968901
-0.006234465788
-0.007410703102
-0.01016735214
-0.01045422478
-0.008056633419
-0.005086893788
-0.006096433348
-0.008171779456
-0.008334922488
-0.006483851297
-0.004266043034
-0.005121383116
-0.006675848795
-0.006755949562
-0.005335871113
-0.003676983329
-0.004405929882
-0.005555484219
-0.005588596888
-0.004508492707
-0.003268207848
-0.003914647232
-0.004730587728
-0.004732055928
-0.003917557047
-0.002996460751
-0.003637486213
-0.004129446534
-0.004104289366
-0.003509771478
-0.002835577807
0.5797078118
-0.002882328558
-0.005362316261
-0.004491355046
-0.004152441085
2.879119376e-10
1.178276998e-08
2.714135016e-06
0.000727964325
0.08627384133
3.490815814e-09
1.191204091e-07
1.545821724e-05
0.001574912781
0.0368936047
1.828531708e-08
4.952199272e-07
4.130671821e-05
0.002051447351
0.01843618537
6.789440162e-08
1.493957076e-06
9.087075377e-05
0.002387284781
0.01157477205
2.006976287e-07
3.800995498e-06
0.0001749759974
0.002507583678
0.008598528703
5.289923023e-07
9.101165586e-06
0.0003075500714
0.002590636429
0.007820077368
1.425707805e-06
2.342044478e-05
0.0005312055214
0.002902325954
0.008699841917
4.109942715e-06
6.199720638e-05
0.0008391316135
0.003275380656
0.009474361503
1.232931844e-05
0.0001484990323
0.001160641472
0.003555297588
0.009854324011
3.561333459e-05
0.0002995441582
0.001457131674
0.003865668319
0.01056221741
9.573493332e-05
0.0005085876422
0.001728689838
0.00426701337
0.01157647609
0.0002112729057
0.0007341436712
0.001970165785
0.004652924517
0.01240069325
0.0003858441173
0.0009557757862
0.002204236018
0.0050176428
0.01317734249
0.0006078001571
0.001178495803
0.002475127068
0.005500616492
0.01431879818
0.0008688568358
0.00143100227
0.002845907815
0.00628187716
0.01605482154
0.001171529567
0.001760312798
0.003376912927
0.007406793745
0.0184623741
0.001558972485
0.002222920785
0.004113746287
0.009041522714
0.02128076527
0.002085820527
0.002875983258
0.005208250158
0.01110748568
0.0240009693
0.002944292271
0.003977132651
0.006970188223
0.01354599042
0.02704834995
0.004490760199
0.005797865255
0.009271713729
0.01643806267
0.03054689235
0.006657773022
0.008150144156
0.01203057948
0.01989097805
0.0352507337
0.009172707253
0.01067803002
0.01530437476
0.02420617825
0.04024176234
0.01207599088
0.01410698569
0.01936257575
0.02947811722
0.0460725812
0.0159807123
0.0185197679
0.02502767501
0.03600288658
0.05763540191
0.0220265702
0.02537427923
0.03219431153
0.0472677385
0.071537926
0.03177836201
0.03628186922
0.04772569602
0.06370191073
0.09480205267
0.04813738352
0.05439275234
0.06939177325
0.09490612113
0.1388265911
0.07619196435
0.08520432449
0.1076297936
0.1405662859
0.2033046503
0.1226629207
0.1346350309
0.1729427487
0.2340910201
0.3315262191
0.2147230293
0.2392840759
0.2867650319
0.3735803407
0.522686391
0.4001486535
0.431910228
0.5132757283
0.6564888539
0.8742082317
0.7972531246
0.8566253378
0.9938055761
1.225086841
1.612446339
1.667566414
1.772183248
2.018941321
2.417510433
3.051901439
3.511424579
3.677320071
4.053344845
4.658584827
5.52114831
6.434341786
6.617125584
6.992337817
7.541247534
8.232830195
8.386629096
8.460971661
8.616817961
8.822920738
9.076248838
7.853661623
7.868881504
7.905142896
7.967562264
8.072295448
6.362065736
6.38773034
6.450417869
6.568373054
6.772702489
5.235213575
5.299270377
5.451094692
5.714892061
6.135397959
4.976055725
5.096247277
5.371352708
5.815173029
6.433692565
5.291807622
5.35788825
5.452952449
5.448468067
5.147444146
2.496403094
2.374773953
2.106463712
1.703926377
1.18367129
-0.1099227606
-0.1881466205
-0.357514435
-0.6082038627
-0.931602896
-1.389990496
-1.445448331
-1.565480706
-1.743160902
-1.972331563
-2.064583449
-2.105666389
-2.141395852
-2.275971397
-2.453131303
-2.366148637
-2.396155945
-2.460007973
-2.555637065
-2.671993385
-2.44707425
-2.465825503
-2.505817391
-2.563544824
-2.635246822
-2.321319438
-2.331878853
-2.354184346
-2.385889314
-2.424387446
-2.054049744
-2.058946104
-2.069128999
-2.083187541
-2.099450279
-1.716923765
-1.718412796
-1.721149127
-1.72488723
-1.727960728
-1.366302179
-1.366580579
-1.364738559
-1.36354521
-1.361028744
-1.050090514
-1.049152555
-1.046994404
-1.043492718
-1.038450549
-0.7838611887
-0.7828167281
-0.780476498
-0.7768156543
-0.7717252406
-0.5742682242
-0.5733780742
-0.571401839
-0.5683554239
-0.5641974034
-0.4168947279
-0.4162254835
-0.4147475639
-0.412485854
-0.4094272402
-0.3025532987
-0.3020870902
-0.3010597715
-0.2994932816
-0.2973845231
-0.2211837889
-0.2208735412
-0.2201908679
-0.2191514374
-0.217754547
-0.1638558228
-0.1636545142
-0.1632114757
-0.1625367195
-0.1616293773
-0.1234986851
-0.1233682652
-0.1230810901
-0.1226430298
-0.1220525697
-0.09488028513
-0.09479384815
-0.09460321879
-0.09431167908
-0.0939172922
-0.07430470286
-0.07424440544
-0.07411124111
-0.07390703036
-0.07362973887
-0.05922741221
-0.05918223591
-0.05908232927
-0.05892881327
-0.05871982302
-0.04793391806
-0.0478973382
-0.04781642137
-0.04769203207
-0.0475226112
-0.03926888443
-0.03923730307
-0.03916746311
-0.03906020117
-0.03891432069
-0.03246745433
-0.03243899222
-0.03237611578
-0.03227973206
-0.03214900307
-0.02700448643
-0.02697830644
-0.0269205349
-0.02683217037
-0.02671269621
-0.02254605957
-0.02252184733
-0.02246848638
-0.02238705086
-0.02227728846
-0.01883291097
-0.01881067147
-0.01876170803
-0.01868713084
-0.01858689595
-0.01577186223
-0.01575163559
-0.01570715296
-0.01563952341
-0.01554885237
-0.01336374018
-0.01334555091
-0.01330557585
-0.01324487473
-0.01316364101
0.31381495
0.1680840319
0.05707823224
0.0299313862
0.02270493918
0.0222146996
0.02571873391
0.02642162386
0.02583685169
0.0267065559
0.02850373567
0.02919999934
0.02915441552
0.03002414116
0.03218754194
0.03554448769
0.0391704877
0.04202379725
0.04496873934
0.04911485064
0.05256949242
0.05867202681
0.07032155462
0.08163860069
0.1020111588
0.1330881899
0.1919018019
0.2770378337
0.4143984068
0.6689817719
1.112638724
1.999031763
3.64796189
6.256065291
8.749381274
9.271166727
8.192054509
6.999189097
6.558226693
6.94093731
4.699582868
0.7740593338
-1.191063561
-2.157106117
-2.592455292
-2.763689423
-2.691450326
-2.454058822
-2.111616473
-1.729939867
-1.357674443
-1.03398919
-0.7674939282
-0.560773359
-0.406918731
-0.2956573939
-0.2166098445
-0.1608841944
-0.1215658351
-0.09359062721
-0.0733989339
-0.05854523452
-0.04738086405
-0.03879233893
-0.03203992483
-0.02661327998
-0.02218622215
-0.01850395994
-0.01547401555
-0.01309672195
0.7215015966
23.45027716
-0.4207417537
-0.09992607197
-0.02791429943
0.2800132917
5.496538775
5.697076268
-0.8054640967
-0.04287997291
0.1652366148
1.974611182
26.67815742
-4.367976267
-0.1970884255
0.09929047489
0.8881425501
38.77621804
-8.331872971
-1.382311169
0.07341992113
0.6225932819
22.55989193
-1.918014368
-3.591555302
0.07368078996
0.5941298497
13.05987329
12.20873319
-6.978510804
0.08452823603
0.5907816761
8.636240603
32.88970864
-10.54065438
0.07885590835
0.4423457265
4.370385697
55.50964098
-11.72999784
0.06997653155
0.3345579351
2.757100788
39.38788259
-0.8076009671
0.06856449968
0.3027094953
2.255396139
26.61782281
16.40170452
0.07036849666
0.2924120196
1.947277435
18.67748823
36.29223955
0.06860603572
0.2632468865
1.496403803
11.36170436
59.07118221
0.06484600011
0.2249101497
1.116195978
7.024382871
51.34653575
0.06417538011
0.2059998787
0.9479509393
5.384674393
37.66733611
0.06643529727
0.2027613733
0.8778223589
4.58200109
29.05678996
0.06970376447
0.2071845937
0.8384938247
3.993571236
22.59780367
0.07313887448
0.20761464
0.7790279531
3.346076604
16.71593342
0.07517540607
0.2021960297
0.7060836657
2.764599616
12.4017246
0.07148465647
0.2007633707
0.6665615187
2.456638772
10.30850658
0.07734660834
0.2095178003
0.6699261075
2.359612838
9.361449679
0.08623032457
0.2288605656
0.7057278519
2.375968265
8.868346719
0.09573893051
0.2570317649
0.7596347098
2.432588705
8.514062488
0.1120418192
0.2922781165
0.8241468106
2.504277459
8.208203773
0.134455886
0.3363457609
0.9031305548
2.602400812
7.978899574
0.1652562262
0.3947907563
1.010874375
2.771633088
7.975524123
0.2105363129
0.5109309886
1.179090451
3.090438112
8.360945736
0.2948334215
0.641412469
1.454561144
3.651820367
9.233117379
0.4188592009
0.8375802964
1.903624086
4.554055624
10.58740241
0.6168608593
1.20679861
2.632162257
5.907455162
12.32897535
1.01537551
1.835720167
3.790224375
7.766960334
14.19854799
1.569755989
2.905692295
5.532858659
9.99698065
15.82595297
2.721823879
4.648618093
7.84982607
12.1401549
16.87446728
4.704059419
7.109669137
10.23799396
13.56163694
17.22973795
7.420594625
9.555367732
11.7272129
13.93007585
17.09811757
9.471993164
10.62063936
11.81694705
13.56116738
16.95251127
9.525513552
10.08522072
11.0827484
13.17776683
16.77945649
8.383141112
9.057471941
10.51426161
13.24344475
13.921529
7.385059141
8.572094077
10.67475907
12.06484033
7.128865899
7.247154478
8.893830244
9.699829557
6.198184537
1.844988984
7.446057741
6.993310641
4.209347243
1.202905015
-1.308501117
3.774961774
1.972676167
0.1399456127
-1.558189035
-3.055766271
0.1870117595
-0.8522879259
-1.928664952
-2.974159713
-3.926045455
-1.555330884
-2.227027967
-2.936969202
-3.63114283
-4.253621391
-2.411336645
-2.882678528
-3.373263002
-3.838618674
-4.235792136
-2.804323268
-3.132145184
-3.461000295
-3.75704927
-3.988316822
-2.897795154
-3.099859726
-3.311984593
-3.473060745
-3.576810327
-2.762526632
-2.884743606
-2.993039131
-3.067860114
-3.09769589
-2.489083174
-2.546018692
-2.586948738
-2.601587396
-2.581999976
-2.123303946
-2.139262576
-2.140372926
-2.121697582
-2.076232466
-1.728751388
-1.722542068
-1.704508672
-1.671887881
-1.621955968
-1.35273943
-1.335726956
-1.31326747
-1.278479248
-1.234500662
-1.025163221
-1.008679163
-0.9864649702
-0.9568298767
-0.9202290059
-0.7603342958
-0.7458953267
-0.7271975783
-0.7040426803
-0.6764422145
-0.5551917266
-0.5441035012
-0.530158938
-0.5133170128
-0.4936489564
-0.4029133749
-0.3950100173
-0.3852239864
-0.3735624928
-0.3600880285
-0.2929327202
-0.2875669168
-0.2809697143
-0.2731506672
-0.2641451828
-0.2148158987
-0.2112773222
-0.206930328
-0.2017746201
-0.1958207479
-0.1597196513
-0.1574117383
-0.1545646863
-0.1511683763
-0.1472167792
-0.1208053389
-0.1192871119
-0.1173991569
-0.1151254845
-0.1124514158
-0.09307963118
-0.09205038717
-0.09075773547
-0.0891834796
-0.08730971631
-0.07303749957
-0.07230322647
-0.07137253636
-0.07022818282
-0.06885290106
-0.05827196449
-0.05771353815
-0.05700196797
-0.05612229079
-0.05505960079
-0.04715956442
-0.04670655478
-0.04612927848
-0.04541568039
-0.04455390972
-0.03860269704
-0.03821530305
-0.03772388205
-0.03711935126
-0.03639298601
-0.03187115749
-0.03152801385
-0.03109595436
-0.03056862098
-0.02994012233
-0.02646019614
-0.02615068405
-0.02576428107
-0.02529694181
-0.0247451697
-0.02204658518
-0.02176594626
-0.02141855198
-0.02100223581
-0.02051539675
-0.01837725622
-0.01812396195
-0.01781284736
-0.01744316926
-0.01701474595
-0.0153600152
-0.01513326779
-0.01485667952
-0.01453051943
-0.01415557421
-0.01299500444
-0.01279343828
-0.01254882817
-0.01226201264
-0.0119342729
-0.0002408639621
-3.412668485e-06
-8.6557945e-08
-4.031443618e-09
-3.176237386e-10
-3.09377839e-11
-3.321126012e-12
-4.010540694e-13
-5.619925729e-14
-9.431228632e-15
-1.578394466e-15
1.123549564e-16
4.849599771e-16
4.923626091e-16
3.986385658e-16
2.925650799e-16
2.030483988e-16
1.359697897e-16
8.894090107e-17
5.732786274e-17
3.667171989e-17
2.342341771e-17
1.501675673e-17
9.701856532e-18
6.333218251e-18
4.180396544e-18
2.786369041e-18
1.869409978e-18
1.25723614e-18
8.442032295e-19
5.64404089e-19
3.753307491e-19
2.484488214e-19
1.639994451e-19
1.081310942e-19
7.122341979e-20
4.676427357e-20
3.047972195e-20
1.962515736e-20
1.243534799e-20
7.741520344e-21
4.738782651e-21
2.86017335e-21
1.708891469e-21
1.01498135e-21
6.015520394e-22
3.568453164e-22
2.123150151e-22
1.268527706e-22
7.615268146e-23
4.594142434e-23
2.784921189e-23
1.694877945e-23
1.032186199e-23
6.231504323e-24
3.645233585e-24
1.962450873e-24
8.820083073e-25
2.718475024e-25
5.026248021e-26
-0.0008728507054
-1.822287003e-05
-5.873092664e-07
-3.572588005e-08
-3.807191708e-09
-5.217472297e-10
-7.991818814e-11
-1.462023924e-11
-3.304559792e-12
-8.427365211e-13
-1.808797862e-13
2.296422933e-15
4.152796826e-14
3.939206516e-14
2.867456596e-14
1.886633716e-14
1.182857913e-14
7.239166875e-15
4.384628546e-15
2.650888787e-15
1.60996357e-15
9.87210731e-16
6.137373752e-16
3.878995421e-16
2.49532217e-16
1.632244371e-16
1.08211882e-16
7.233933083e-17
4.847805682e-17
3.239208927e-17
2.149815479e-17
1.414761671e-17
9.232585468e-18
5.982178266e-18
3.85296489e-18
2.465722546e-18
1.563135375e-18
9.763562851e-19
5.970714788e-19
3.555974038e-19
2.057255613e-19
1.157222974e-19
6.35631293e-20
3.432314531e-20
1.836533453e-20
9.812641338e-21
5.268999991e-21
2.856386171e-21
1.567525437e-21
8.716962017e-22
4.91141881e-22
2.800960406e-22
1.613145286e-22
9.334583718e-23
5.365989765e-23
2.992850864e-23
1.549800862e-23
6.932435657e-24
2.348374742e-24
3.932179307e-25
-0.003063852777
-4.914319845e-05
-1.389355123e-06
-1.229685786e-07
-1.94629915e-08
-3.983106625e-09
-9.560004393e-10
-2.827931024e-10
-9.461710735e-11
-3.216183784e-11
-9.502788909e-12
-1.720401609e-12
5.32689803e-13
8.827950545e-13
7.047439674e-13
4.632133319e-13
2.790748788e-13
1.612169609e-13
9.16302039e-14
5.208069537e-14
2.993193323e-14
1.752026965e-14
1.049644263e-14
6.452131231e-15
4.069451441e-15
2.626702959e-15
1.726483605e-15
1.147965584e-15
7.669294462e-16
5.117829553e-16
3.397416098e-16
2.239466613e-16
1.465830205e-16
9.537578641e-17
6.174354048e-17
3.973210465e-17
2.531825504e-17
1.587326632e-17
9.718288775e-18
5.773249489e-18
3.315779701e-18
1.841106803e-18
9.91832214e-19
5.216690199e-19
2.699889912e-19
1.385977329e-19
7.106691071e-20
3.659348374e-20
1.898960041e-20
9.950562709e-21
5.268051595e-21
2.815496063e-21
1.514612841e-21
8.146701491e-22
4.320293534e-22
2.199456146e-22
1.028247924e-22
4.120979974e-23
1.233022997e-23
1.696183962e-24
-0.02562675903
-0.0004494823147
-7.306099728e-06
-4.460287121e-07
-8.656437447e-08
-2.554772412e-08
-9.003501041e-09
-3.548610327e-09
-1.460563674e-09
-5.919303611e-10
-2.214914662e-10
-7.023713908e-11
-1.383053058e-11
3.560808812e-12
6.619647641e-12
5.416708439e-12
3.581788135e-12
2.147276471e-12
1.224028899e-12
6.829951788e-13
3.805537066e-13
2.148410704e-13
1.24128427e-13
7.382801928e-14
4.527644752e-14
2.855657081e-14
1.842031534e-14
1.206369367e-14
7.963242256e-15
5.266665079e-15
3.476542419e-15
2.286928719e-15
1.499734837e-15
9.817393546e-16
6.419998777e-16
4.187262776e-16
2.710095231e-16
1.726782032e-16
1.073644463e-16
6.466708449e-17
3.757610401e-17
2.105674493e-17
1.141787971e-17
6.027888929e-18
3.122258676e-18
1.599135669e-18
8.153380595e-19
4.159204631e-19
2.129751904e-19
1.096684945e-19
5.681518595e-20
2.957170273e-20
1.539805428e-20
7.947811053e-21
3.992979938e-21
1.888509684e-21
7.943742428e-22
2.69781744e-22
6.107954926e-23
6.203032977e-24
-0.1034331948
-0.002810090878
-5.84331972e-05
-2.0032817e-06
-3.790049534e-07
-1.413776859e-07
-6.14350333e-08
-2.786172063e-08
-1.284564332e-08
-5.872571865e-09
-2.585533749e-09
-1.060892611e-09
-3.826177783e-10
-1.038834949e-10
-3.785522159e-12
2.275596021e-11
2.318416342e-11
1.694975598e-11
1.081626906e-11
6.440017996e-12
3.700783973e-12
2.103409979e-12
1.202555228e-12
7.002424162e-13
4.17980227e-13
2.56094163e-13
1.605366631e-13
1.023692346e-13
6.598206925e-14
4.275757954e-14
2.77619148e-14
1.803977441e-14
1.174235647e-14
7.672029259e-15
5.03866807e-15
3.321137913e-15
2.183548347e-15
1.417901267e-15
8.9949645e-16
5.524724624e-16
3.26835972e-16
1.860943562e-16
1.023234205e-16
5.468801009e-17
2.864391166e-17
1.482048271e-17
7.623856848e-18
3.916393596e-18
2.014661611e-18
1.039375038e-18
5.37973872e-19
2.789785789e-19
1.442786598e-19
7.364760899e-20
3.63485763e-20
1.670135774e-20
6.684475107e-21
2.046264765e-21
3.604427775e-22
2.637057158e-23
-0.5243199483
-0.0178190927
-0.0005356079013
-1.560434199e-05
-1.95015919e-06
-6.670275199e-07
-2.980398355e-07
-1.424852219e-07
-7.010484205e-08
-3.480846499e-08
-1.711480488e-08
-8.169793527e-09
-3.696328496e-09
-1.529702701e-09
-5.358646051e-10
-1.197260166e-10
2.822316399e-11
6.276683866e-11
5.663949228e-11
4.087246266e-11
2.653816103e-11
1.630271437e-11
9.74209284e-12
5.780563429e-12
3.448339201e-12
2.084420054e-12
1.278486135e-12
7.941758134e-13
4.976590669e-13
3.135208335e-13
1.981930117e-13
1.257297215e-13
8.020177685e-14
5.161732228e-14
3.36263224e-14
2.217166899e-14
1.470584192e-14
9.699872357e-15
6.278566683e-15
3.941755673e-15
2.381872732e-15
1.381903569e-15
7.7180011e-16
4.178220449e-16
2.213540173e-16
1.158448457e-16
6.030829298e-17
3.13559725e-17
1.631268664e-17
8.497481911e-18
4.431463408e-18
2.310200921e-18
1.198632189e-18
6.127143526e-19
3.023657488e-19
1.386896967e-19
5.52032049e-20
1.655725156e-20
2.696052908e-21
1.850721934e-22
-2.341790456
-0.09065256911
-0.00403863195
-0.0001589349815
-9.403242299e-06
-2.231449649e-06
-9.247141768e-07
-4.493049857e-07
-2.313391848e-07
-1.221055995e-07
-6.487182296e-08
-3.419005056e-08
-1.761598493e-08
-8.721510001e-09
-4.047584867e-09
-1.681814925e-09
-5.541547685e-10
-6.804181944e-11
1.042902672e-10
1.369988648e-10
1.176021362e-10
8.616581332e-11
5.807453756e-11
3.73488336e-11
2.341635944e-11
1.453377203e-11
9.001326781e-12
5.58372683e-12
3.46721201e-12
2.151818988e-12
1.333073604e-12
8.251328213e-13
5.120156752e-13
3.202433681e-13
2.031924653e-13
1.314248184e-13
8.645952661e-14
5.721695538e-14
3.752572671e-14
2.403298661e-14
1.485643448e-14
8.812963802e-15
5.015269094e-15
2.752237257e-15
1.471544835e-15
7.757887392e-16
4.070036224e-16
2.135641333e-16
1.122800554e-16
5.914227272e-17
3.117765252e-17
1.641260324e-17
8.587910686e-18
4.423711001e-18
2.20171634e-18
1.022582072e-18
4.152354549e-19
1.287271268e-19
2.228871233e-20
1.920725507e-21
-5.434267314
-0.4279429226
-0.02430045587
-0.001171593571
-5.939560357e-05
-7.459335183e-06
-2.314429704e-06
-1.046132253e-06
-5.374411661e-07
-2.910778273e-07
-1.613368271e-07
-8.999465021e-08
-4.988056454e-08
-2.71409815e-08
-1.429715612e-08
-7.150034117e-09
-3.280108976e-09
-1.27470446e-09
-3.04982616e-10
1.10205774e-10
2.449271876e-10
2.508418409e-10
2.078380527e-10
1.548597515e-10
1.082084401e-10
7.259673622e-11
4.745085696e-11
3.051023931e-11
1.93950786e-11
1.221844337e-11
7.62801085e-12
4.720830979e-12
2.902041929e-12
1.780642043e-12
1.098336214e-12
6.873004874e-13
4.39291621e-13
2.85636348e-13
1.865310676e-13
1.205243751e-13
7.596951578e-14
4.618762667e-14
2.692794534e-14
1.506356166e-14
8.151973768e-15
4.324923413e-15
2.276815511e-15
1.198391979e-15
6.328875254e-16
3.355791304e-16
1.784262021e-16
9.486238417e-17
5.016910594e-17
2.614006881e-17
1.318646835e-17
6.240246031e-18
2.609890973e-18
8.511125441e-19
1.638494337e-19
1.867567413e-20
-8.103778211
-1.22617527
-0.09317674443
-0.007068114756
-0.0003682363741
-2.902222995e-05
-5.726862522e-06
-2.131949369e-06
-1.034296118e-06
-5.566611468e-07
-3.140124743e-07
-1.81017541e-07
-1.050288339e-07
-6.061964089e-08
-3.442044635e-08
-1.898524675e-08
-9.994465786e-09
-4.871832405e-09
-2.054661415e-09
-5.887091939e-10
1.065774078e-10
3.802997746e-10
4.381333981e-10
3.974278949e-10
3.217046133e-10
2.428528556e-10
1.746093341e-10
1.210947046e-10
8.169930528e-11
5.394541349e-11
3.49743494e-11
2.230506637e-11
1.401297645e-11
8.696463128e-12
5.35519336e-12
3.293618021e-12
2.042129527e-12
1.285758496e-12
8.192539104e-13
5.227686721e-13
3.303282462e-13
2.044971783e-13
1.22640498e-13
7.063340905e-14
3.903433098e-14
2.094984003e-14
1.108327389e-14
5.837806995e-15
3.080163584e-15
1.633238999e-15
8.708842651e-16
4.659981854e-16
2.488881692e-16
1.313860874e-16
6.741754371e-17
3.265631e-17
1.414318913e-17
4.88890206e-18
1.05847039e-18
1.550200224e-19
-10.0352371
-2.906403444
-0.2777925897
-0.0276751356
-0.002162535332
-0.0001415421478
-1.623062708e-05
-4.349933565e-06
-1.847162854e-06
-9.502142992e-07
-5.321956162e-07
-3.110307828e-07
-1.855826461e-07
-1.114377545e-07
-6.657489979e-08
-3.914386585e-08
-2.237401834e-08
-1.222140805e-08
-6.193834461e-09
-2.72574479e-09
-8.237920839e-10
1.388825687e-10
5.588175752e-10
6.803552321e-10
6.508222884e-10
5.560439888e-10
4.434690508e-10
3.370027408e-10
2.467133479e-10
1.751366916e-10
1.210228228e-10
8.161561464e-11
5.382953683e-11
3.480614492e-11
2.212832863e-11
1.388111179e-11
8.627407251e-12
5.348301096e-12
3.325394751e-12
2.073859915e-12
1.289332345e-12
7.940723345e-13
4.818172137e-13
2.856107682e-13
1.634192445e-13
8.993591355e-14
4.816719455e-14
2.546463135e-14
1.341804394e-14
7.088523008e-15
3.767916136e-15
2.016630723e-15
1.082897613e-15
5.781059668e-16
3.019189865e-16
1.500822542e-16
6.753341248e-17
2.483814375e-17
6.052231176e-18
1.089651157e-18
-10.79110657
-5.480796081
-0.7664291507
-0.081276078
-0.008812390602
-0.0006670331356
-5.605972309e-05
-9.640839092e-06
-3.272164919e-06
-1.540798332e-06
-8.360712551e-07
-4.867661995e-07
-2.943180132e-07
-1.812787756e-07
-1.121920667e-07
-6.899469516e-08
-4.171607453e-08
-2.448980137e-08
-1.373278612e-08
-7.133323869e-09
-3.197068705e-09
-9.508420262e-10
2.419467822e-10
7.962792808e-10
9.798879085e-10
9.624810229e-10
8.48722683e-10
7.005090421e-10
5.519128653e-10
4.195783237e-10
3.097615425e-10
2.228893661e-10
1.565846759e-10
1.07514863e-10
7.225329673e-11
4.761698231e-11
3.08243251e-11
1.962268907e-11
1.231107161e-11
7.638409726e-12
4.700822648e-12
2.866020543e-12
1.727233784e-12
1.027569836e-12
6.012800228e-13
3.427477196e-13
1.891155934e-13
1.014780628e-13
5.361152393e-14
2.821649683e-14
1.491284358e-14
7.944787406e-15
4.263787155e-15
2.289983955e-15
1.213416031e-15
6.184028315e-16
2.894357473e-16
1.134198941e-16
3.098965901e-17
6.574344905e-18
-10.14870826
-8.367632949
-1.787232203
-0.2105931827
-0.02904763449
-0.003288889634
-0.0002764750051
-2.925116798e-05
-6.445634472e-06
-2.492012313e-06
-1.253560412e-06
-7.107169601e-07
-4.28789145e-07
-2.673507673e-07
-1.690910149e-07
-1.07257502e-07
-6.754363596e-08
-4.176619076e-08
-2.504062307e-08
-1.42895131e-08
-7.496535507e-09
-3.323788123e-09
-8.713922863e-10
4.703186567e-10
1.113806555e-09
1.335714996e-09
1.318637852e-09
1.180141784e-09
9.93069855e-10
7.999085777e-10
6.2310784e-10
4.724158982e-10
3.499790904e-10
2.539418257e-10
1.807111244e-10
1.262261663e-10
8.654592318e-11
5.818785927e-11
3.830053608e-11
2.464138764e-11
1.550373377e-11
9.562968789e-12
5.793006682e-12
3.450534099e-12
2.024292909e-12
1.170148137e-12
6.637518907e-13
3.673693007e-13
1.980514611e-13
1.047795025e-13
5.51088039e-14
2.913848993e-14
1.555533036e-14
8.35651834e-15
4.466672293e-15
2.323934839e-15
1.129558076e-15
4.717450676e-16
1.438644559e-16
3.467440625e-17
-1.832739248
-10.11797226
-3.270502749
-0.4763933201
-0.06682337773
-0.01068733615
-0.001288438407
-0.0001256993447
-1.648331316e-05
-4.311453029e-06
-1.816620974e-06
-9.582711266e-07
-5.613106354e-07
-3.489297231e-07
-2.217844419e-07
-1.440333476e-07
-9.349239445e-08
-5.999931754e-08
-3.764412934e-08
-2.276594783e-08
-1.297518458e-08
-6.660978509e-09
-2.71400625e-09
-3.623672044e-10
9.329690756e-10
1.547490421e-09
1.740709382e-09
1.689351281e-09
1.510926293e-09
1.280695529e-09
1.04418329e-09
8.263783245e-10
6.386342809e-10
4.839034873e-10
3.60473609e-10
2.643909611e-10
1.90989549e-10
1.357268496e-10
9.463482732e-11
6.452965034e-11
4.287619884e-11
2.769458872e-11
1.738266993e-11
1.060665338e-11
6.315476468e-12
3.684427861e-12
2.111047017e-12
1.190068722e-12
6.58937114e-13
3.571922972e-13
1.901091194e-13
1.003625283e-13
5.317464746e-14
2.841396852e-14
1.522506189e-14
8.039810578e-15
4.043178814e-15
1.800336374e-15
6.111145115e-16
1.627493395e-16
11.15442703
-10.69337323
-5.196892728
-1.015803561
-0.1487658922
-0.02593720142
-0.004399422964
-0.0005672554824
-6.279491473e-05
-9.64650005e-06
-2.737741327e-06
-1.187806261e-06
-6.415586993e-07
-3.86984178e-07
-2.43132145e-07
-1.587135241e-07
-1.042039404e-07
-6.803855873e-08
-4.367678983e-08
-2.720018603e-08
-1.611632782e-08
-8.76485575e-09
-4.003783833e-09
-1.03111164e-09
7.210868764e-10
1.655562056e-09
2.056482428e-09
2.123041882e-09
1.993816094e-09
1.763776443e-09
1.495643294e-09
1.22846814e-09
9.844143459e-10
7.736896572e-10
5.986649506e-10
4.571994111e-10
3.449768402e-10
2.570660672e-10
1.888006425e-10
1.362029568e-10
9.609898597e-11
6.598010383e-11
4.389510654e-11
2.821381454e-11
1.751290929e-11
1.052644151e-11
6.151365157e-12
3.511175283e-12
1.968636714e-12
1.08716609e-12
5.915528219e-13
3.174447605e-13
1.690964271e-13
9.019217333e-14
4.830360932e-14
2.574578366e-14
1.331227497e-14
6.296183854e-15
2.374841272e-15
6.897170294e-16
25.58413326
-10.24388223
-7.359652353
-1.992045677
-0.328691888
-0.05731634852
-0.01132135314
-0.002079367981
-0.000298691487
-3.715822285e-05
-5.993832514e-06
-1.632305876e-06
-6.761090229e-07
-3.603320373e-07
-2.147016882e-07
-1.352221234e-07
-8.72309103e-08
-5.651977745e-08
-3.620846646e-08
-2.255753902e-08
-1.33503409e-08
-7.183456674e-09
-3.124796239e-09
-5.34280482e-10
1.037590509e-09
1.910217387e-09
2.311744084e-09
2.405160683e-09
2.306145966e-09
2.09641283e-09
1.833676893e-09
1.557093451e-09
1.291384771e-09
1.051136172e-09
8.431435808e-10
6.683410517e-10
5.244289064e-10
4.075329321e-10
3.13250565e-10
2.375197157e-10
1.769596957e-10
1.28917269e-10
9.134022926e-11
6.261259076e-11
4.13323189e-11
2.620727197e-11
1.597150764e-11
9.391683757e-12
5.363943204e-12
2.998776584e-12
1.652469171e-12
9.011142277e-13
4.873989339e-13
2.628388401e-13
1.419184813e-13
7.649760911e-14
4.048524383e-14
2.015379465e-14
8.397878941e-15
2.664507281e-15
40.91967628
-9.017562711
-9.363866826
-3.435595987
-0.6900960955
-0.122171406
-0.0257102781
-0.005605010405
-0.001159391962
-0.0001967993789
-2.726974808e-05
-3.992575765e-06
-9.034261737e-07
-3.292521555e-07
-1.609443079e-07
-9.081550875e-08
-5.464771333e-08
-3.366136819e-08
-2.063091742e-08
-1.22239725e-08
-6.698128591e-09
-3.053872006e-09
-6.765783856e-10
8.317803778e-10
1.739140353e-09
2.230767785e-09
2.437138778e-09
2.451327074e-09
2.34034207e-09
2.152767266e-09
1.924281613e-09
1.680999732e-09
1.441268729e-09
1.216797388e-09
1.014274679e-09
8.366655636e-10
6.838716573e-10
5.540828275e-10
4.446212942e-10
3.526999296e-10
2.757937482e-10
2.117229377e-10
1.587781894e-10
1.157002011e-10
8.148060229e-11
5.517188579e-11
3.577762311e-11
2.217976927e-11
1.317182791e-11
7.547337832e-12
4.216972344e-12
2.323346096e-12
1.272187692e-12
6.957402849e-13
3.811306988e-13
2.089044583e-13
1.133462841e-13
5.897303171e-14
2.686870695e-14
9.403900796e-15
55.01381151
-6.946002098
-10.91909226
-5.148661022
-1.323907312
-0.2525852095
-0.05331733961
-0.01279542409
-0.003123746881
-0.0007340577727
-0.0001474638238
-2.082659539e-05
-2.453500916e-06
-4.367583451e-07
-1.361718131e-07
-5.91866569e-08
-2.994957105e-08
-1.605457881e-08
-8.535984329e-09
-4.147811523e-09
-1.479703745e-09
1.675138814e-10
1.176507467e-09
1.77244239e-09
2.095095191e-09
2.234768999e-09
2.25153082e-09
2.186283354e-09
2.067484567e-09
1.915428641e-09
1.744900963e-09