/*--------------------------------*- C++ -*----------------------------------*\
  =========                 |
  \\      /  F ield         | OpenFOAM: The Open Source CFD Toolbox
   \\    /   O peration     | Website:  https://openfoam.org
    \\  /    A nd           | Version:  10
     \\/     M anipulation  |
\*---------------------------------------------------------------------------*/
FoamFile
{
    format      ascii;
    class       volScalarField;
    location    "3000";
    object      RR.CH2OH;
}
// * * * * * * * * * * * * * * * * * * * * * * * * * * * * * * * * * * * * * //

dimensions      [1 -3 -1 0 0 0 0];

internalField   nonuniform List<scalar> 
5170
(
-5.67962975e-70
-2.54764619e-70
-4.610970604e-71
-3.332823771e-72
-7.947102482e-74
-4.02162418e-67
-1.691887288e-67
-2.575610597e-68
-1.417762149e-69
-2.906861254e-71
-2.803430717e-64
-1.103467967e-64
-1.398828124e-65
-6.185135537e-67
-8.758926307e-69
-1.936070521e-61
-7.151556921e-62
-7.662974987e-63
-2.761210262e-64
-8.635138681e-67
-1.335988505e-58
-4.693035009e-59
-4.336036187e-60
-1.31597428e-61
2.163034311e-85
-9.269492953e-56
-3.136067321e-56
-2.504163e-57
-6.593252932e-59
4.580801016e-85
-6.514493912e-53
-2.134648617e-53
-1.51596025e-54
-3.513697457e-56
9.658801023e-83
-4.636454618e-50
-1.507680164e-50
-9.9376863e-52
-2.158949878e-53
1.339610208e-79
-3.374842596e-47
-1.131064047e-47
-7.165923293e-49
-1.589312659e-50
2.336367278e-74
-2.52294031e-44
-9.076502778e-45
-5.817579166e-46
-1.799836693e-47
7.91289675e-69
-1.948710451e-41
-7.866512731e-42
-5.687429897e-43
-4.847490174e-44
2.637529275e-63
-1.550604002e-38
-7.33659018e-39
-7.182716095e-40
-2.298099996e-40
-4.429753841e-40
-1.271417906e-35
-7.413931689e-36
-1.218617719e-36
-1.246542656e-36
-2.969905238e-36
-1.074431222e-32
-8.045343611e-33
-2.623772498e-33
-6.761367138e-33
-1.800636913e-32
-9.287324968e-30
-9.445370974e-30
-6.615765415e-30
-3.524011583e-29
-1.082892489e-28
-8.201652149e-27
-1.176004133e-26
-1.799036595e-26
-1.695812071e-25
-6.518847974e-25
-7.204761364e-24
-1.552603102e-23
-4.992934393e-23
-7.317258251e-22
-3.932134605e-21
-6.298748378e-21
-2.105964051e-20
-1.355463468e-19
-2.928285333e-18
-2.376929209e-17
-5.043145042e-18
-2.776783168e-17
-3.414621399e-16
-1.024938416e-14
-1.440138671e-13
-3.488760716e-15
-3.4592313e-14
-8.201268725e-13
-3.4599005e-11
-8.49034073e-10
4.112217564e-16
8.100897716e-17
4.19789039e-17
1.038905644e-16
4.060990436e-16
-1.735134897e-16
-1.004059473e-17
-8.783673161e-18
-1.850415314e-17
-1.69490015e-16
-4.713039568e-17
-5.69810285e-17
-4.562199129e-17
-6.420974637e-17
-5.266138733e-17
-2.46903176e-17
-3.161374232e-17
-2.897438684e-17
-2.682933123e-17
-2.218348233e-17
-1.411700375e-17
-1.580327948e-17
-1.810220979e-17
-1.576260146e-17
-1.215078114e-17
-8.583108421e-18
-9.334354283e-18
-9.093157863e-18
-1.12002855e-17
-7.3860505e-18
-5.561493041e-18
-6.871279938e-18
-6.95056731e-18
-8.162690527e-18
-4.669031551e-18
-3.742631623e-18
-5.149707218e-18
-5.386613871e-18
-5.773084643e-18
-2.892632612e-18
-2.569645186e-18
-3.810718792e-18
-4.089858808e-18
-3.839630583e-18
-1.750272698e-18
-1.78847076e-18
-2.782668083e-18
-3.001256738e-18
-2.466980958e-18
-1.069216968e-18
-1.252844637e-18
-1.997305187e-18
-2.13877755e-18
-1.58048582e-18
-6.782514597e-19
-8.843597465e-19
-1.4189217e-18
-1.493819942e-18
-1.026455305e-18
-4.512093771e-19
-6.302025943e-19
-1.001791968e-18
-1.035925108e-18
-6.853507485e-19
-3.164370009e-19
-7.639615415e-19
-8.092757463e-19
-7.385351546e-19
-4.686734869e-19
-2.321598793e-19
-8.151214328e-19
-1.465397176e-18
-1.924750025e-18
-8.218226348e-19
-1.689123248e-19
-1.787082948e-18
-1.336060253e-18
-1.139453889e-18
-1.328299182e-18
-6.630988055e-19
-2.345605484e-16
-9.394372104e-17
-3.064348569e-17
-1.648223653e-17
-4.261500104e-18
-4.255126298e-14
-1.738005793e-14
-5.87161441e-15
-4.372576644e-15
-9.802115176e-16
-7.897828673e-12
-2.882726583e-12
-1.143589834e-12
-1.293395976e-12
-2.281559755e-13
-4.779281178e-09
-7.774426626e-10
-1.452391601e-10
3.800970675e-10
-4.971710798e-11
-6.840664894e-13
-1.12384475e-11
-6.46623467e-10
-4.253211271e-08
-4.921126357e-07
-2.637011298e-12
-3.876625732e-11
-1.921831021e-09
-8.660344679e-08
-1.957338281e-06
-5.482552515e-12
-7.373298157e-11
-3.14307783e-09
-9.190994764e-08
-1.482427377e-06
-1.575396732e-11
-2.449854006e-10
-1.116464943e-08
-4.118613683e-07
-6.711208219e-06
-4.034808086e-11
-6.337679301e-10
-2.517880156e-08
-6.983892141e-07
-8.566267309e-06
-8.526288576e-11
-1.236225942e-09
-3.911627257e-08
-7.902783771e-07
-7.488590139e-06
-1.85658049e-10
-2.579123387e-09
-6.156353701e-08
-9.099565545e-07
-6.466283895e-06
-4.651927238e-10
-6.474501544e-09
-1.276915309e-07
-1.351062029e-06
-8.093764562e-06
-1.345300237e-09
-1.818126547e-08
-2.743642997e-07
-2.232700863e-06
-1.183057962e-05
-3.699867735e-09
-4.38688727e-08
-4.831634897e-07
-3.022167654e-06
-1.365837619e-05
-9.653107619e-09
-8.651787538e-08
-6.745660114e-07
-3.374828901e-06
-1.31588364e-05
-2.090384291e-08
-1.367668693e-07
-8.171078247e-07
-3.505701964e-06
-1.232816219e-05
-4.288643554e-08
-2.154294648e-07
-1.085806938e-06
-4.307203247e-06
-1.461644834e-05
-8.793490518e-08
-3.512627442e-07
-1.527342138e-06
-5.548001921e-06
-1.760503004e-05
-1.79797871e-07
-5.593742743e-07
-2.065812117e-06
-6.712500826e-06
-1.944469876e-05
-3.405994661e-07
-8.389598028e-07
-2.609653383e-06
-7.54703176e-06
-1.995662164e-05
-5.958636246e-07
-1.200250091e-06
-3.16797364e-06
-8.228919827e-06
-2.01168826e-05
-9.755101092e-07
-1.716540612e-06
-4.003255588e-06
-9.623696264e-06
-2.246151885e-05
-1.60155465e-06
-2.560803125e-06
-5.419645252e-06
-1.22135862e-05
-2.73592899e-05
-2.535939145e-06
-3.783652525e-06
-7.355955092e-06
-1.549307943e-05
-3.29251842e-05
-3.788514781e-06
-5.32441345e-06
-9.576118182e-06
-1.883447233e-05
-3.781649233e-05
-5.338833429e-06
-6.788729789e-06
-1.195044128e-05
-2.205456827e-05
-4.048503244e-05
-7.051539737e-06
-9.091170651e-06
-1.443596686e-05
-2.422717713e-05
-4.341540067e-05
-9.094802087e-06
-1.139742084e-05
-1.649913394e-05
-2.716949433e-05
-4.673845197e-05
-1.173974932e-05
-1.436630912e-05
-1.957448479e-05
-3.122280612e-05
-5.173604245e-05
-1.521241138e-05
-1.82405381e-05
-2.58036239e-05
-3.688308659e-05
-5.939010964e-05
-2.056532783e-05
-2.429534084e-05
-3.096838753e-05
-4.591898289e-05
-7.077661413e-05
-2.607088019e-05
-3.134165636e-05
-4.436114053e-05
-5.775764e-05
-8.685123747e-05
-3.546601363e-05
-4.044220934e-05
-5.501270184e-05
-7.85435118e-05
-0.0001103997025
-5.029034702e-05
-5.703414264e-05
-7.217897722e-05
-9.836700354e-05
-0.0001397963285
-7.186914875e-05
-7.96703585e-05
-9.827424101e-05
-0.0001296428155
-0.000174325279
-0.0001006400812
-0.0001103732468
-0.0001321271934
-0.000165875157
-0.0002129114559
-0.0001311152822
-0.0001401416226
-0.0001618090585
-0.0001910043168
-0.0002225446288
-0.0001343820346
-0.0001386886291
-0.000144253121
-0.0001457960299
-0.0001316095961
-1.869123613e-05
-1.359921983e-05
3.59490294e-06
3.795650562e-05
9.536605717e-05
0.0001440261126
0.0001518038887
0.0001699968691
0.0001956070396
0.0002318059051
0.0001234785671
0.0001257204896
0.0001308931182
0.0001387520848
0.0001498620218
4.046738524e-06
5.905544341e-06
1.023589599e-05
1.78685579e-05
2.993481944e-05
-6.197531016e-05
-5.832663097e-05
-4.996222192e-05
-3.629609456e-05
-1.71265414e-05
-5.61714473e-05
-5.171667106e-05
-4.293909597e-05
-3.353672616e-05
-3.36728204e-05
-8.674747375e-05
-9.517582425e-05
-0.0001155777901
-0.0001476276328
-0.0001818830162
-0.0001273231264
-0.0001255173983
-0.000121049332
-0.0001138477654
-0.0001044696105
-5.353091965e-05
-5.262030902e-05
-5.068338374e-05
-4.79093534e-05
-4.448962491e-05
-2.226618823e-05
-2.19447676e-05
-2.12556314e-05
-2.025867236e-05
-1.901199863e-05
-9.376216267e-06
-9.258383924e-06
-9.005269131e-06
-8.636585695e-06
-8.170993228e-06
-3.991863002e-06
-3.947747655e-06
-3.852531637e-06
-3.713058918e-06
-3.535591533e-06
-1.717378301e-06
-1.700418665e-06
-1.66380645e-06
-1.609968334e-06
-1.541074955e-06
-7.460290631e-07
-7.394132711e-07
-7.250825596e-07
-7.03938078e-07
-6.76754804e-07
-3.271124034e-07
-3.244776455e-07
-3.187724152e-07
-3.103339523e-07
-2.994453356e-07
-1.447230576e-07
-1.436617674e-07
-1.413578567e-07
-1.379421353e-07
-1.335207302e-07
-6.461926316e-08
-6.418446101e-08
-6.324095058e-08
-6.18397243e-08
-6.002114454e-08
-2.912572896e-08
-2.894588687e-08
-2.855486193e-08
-2.797312257e-08
-2.721608701e-08
-1.326002352e-08
-1.318462368e-08
-1.302073502e-08
-1.277660129e-08
-1.245840596e-08
-6.10228683e-09
-6.070526254e-09
-6.001396891e-09
-5.898314847e-09
-5.763789301e-09
-2.844115993e-09
-2.83077815e-09
-2.801774006e-09
-2.758536521e-09
-2.702135811e-09
-1.349683121e-09
-1.344345947e-09
-1.33275486e-09
-1.315540099e-09
-1.29321482e-09
-6.629047847e-10
-6.612025106e-10
-6.57552513e-10
-6.522525701e-10
-6.456158398e-10
-3.527337392e-10
-3.529097035e-10
-3.53374833e-10
-3.542972243e-10
-3.559466536e-10
-2.251719572e-10
-2.26621474e-10
-2.299004257e-10
-2.351337122e-10
-2.426302717e-10
-1.971884813e-10
-1.999451047e-10
-2.061305846e-10
-2.158731259e-10
-2.295932046e-10
-2.327427853e-10
-2.359985866e-10
-2.431412825e-10
-2.539554726e-10
-2.683295489e-10
-2.568492862e-10
-2.590199938e-10
-2.636053647e-10
-2.743278364e-10
-2.886981254e-10
-3.288298293e-10
-3.31746894e-10
-3.380820694e-10
-3.474956779e-10
-3.596886574e-10
-3.943919132e-10
-3.96546876e-10
-4.011673943e-10
-4.07866866e-10
-4.16221978e-10
-4.501433838e-10
-4.511421718e-10
-4.531965718e-10
-4.559332768e-10
-4.588686485e-10
-4.871381161e-10
-4.867521416e-10
-4.857624047e-10
-4.838712286e-10
-4.806109182e-10
-4.97824265e-10
-4.960180437e-10
-4.919262594e-10
-4.853784476e-10
-4.759954998e-10
-4.85229223e-10
-4.822640578e-10
-4.75663228e-10
-4.654038022e-10
-4.512415279e-10
-4.495394569e-10
-4.457245256e-10
-4.372999165e-10
-4.243899871e-10
-4.06905696e-10
-4.492032337e-10
-4.45359938e-10
-4.369026951e-10
-4.240254218e-10
-4.067366261e-10
-1.91875416e-06
-1.872641046e-05
-1.133201569e-05
-4.797006231e-05
-4.894108486e-05
-3.434775319e-05
-2.45861355e-05
-2.887982343e-05
-3.957805582e-05
-4.042180446e-05
-3.483758464e-05
-3.039908376e-05
-3.568544089e-05
-4.066225828e-05
-4.175318544e-05
-4.004480752e-05
-3.825916677e-05
-4.170163002e-05
-4.950987465e-05
-5.733817664e-05
-6.122910222e-05
-6.457242148e-05
-6.691766972e-05
-6.987298253e-05
-7.534655509e-05
-8.460924474e-05
-9.870735781e-05
-0.0001186180181
-0.0001446181776
-0.0001790024834
-0.0002189264499
-0.0002540897262
-0.0002427768692
-0.0001061934
0.0001485039588
0.0002624014805
0.000162066988
4.362997103e-05
9.692870533e-08
-4.978521997e-05
-0.0001962161021
-9.75370881e-05
-4.195390612e-05
-1.807121073e-05
-7.81525923e-06
-3.398714788e-06
-1.487549092e-06
-6.555085709e-07
-2.908931072e-07
-1.300334132e-07
-5.85815946e-08
-2.661514002e-08
-1.22050898e-08
-5.65651292e-09
-2.657188727e-09
-1.275569122e-09
-6.406344981e-10
-3.577569586e-10
-2.493486298e-10
-2.416515342e-10
-2.802150092e-10
-3.0041167e-10
-3.693655497e-10
-4.224806881e-10
-4.604817832e-10
-4.770508943e-10
-4.674342077e-10
-4.38885185e-10
-3.920005235e-10
-3.921557481e-10
1.948003856e-06
-6.6992738e-07
-4.699889861e-08
-3.080630101e-10
2.750485182e-10
-5.640388646e-05
0.0001134550488
-1.339886844e-05
-6.053660629e-07
2.83240115e-08
-2.762022703e-05
-3.090715923e-05
-3.577820915e-05
-3.401887493e-06
2.609652611e-08
-0.0001731173796
-0.001453231453
0.003310081996
-0.0006745537355
-3.604004033e-05
-0.000155064444
-0.001079546119
0.0003374037516
-0.0004421016462
-3.134750002e-05
-9.644794627e-05
-0.0005361911907
-5.5885393e-05
-0.0002125252754
-1.973404766e-05
-6.05389044e-05
-0.0002824568625
0.0001073808432
-0.0001496051602
-2.085366721e-05
-7.46191048e-05
-0.0003844229031
-0.00128170343
0.00348452727
-0.0008264559967
-9.965304702e-05
-0.0005066105874
-0.002051379448
0.004290491809
-0.001230139991
-9.451919055e-05
-0.000413440632
-0.001426611738
0.001660002268
-0.0008338945654
-7.64126981e-05
-0.000292786554
-0.0008845891611
0.001070185177
-0.0005419175236
-6.434206504e-05
-0.0002300810183
-0.0006716880099
2.637341369e-05
0.0009764035076
-7.610643113e-05
-0.0002854109318
-0.0009492364307
-0.002167486693
0.007427045772
-8.372712146e-05
-0.0002913227165
-0.0008942794753
-0.002046156487
0.004164334142
-7.980807945e-05
-0.0002555603663
-0.0007137609805
-0.001497592342
0.002769353227
-7.294865223e-05
-0.0002145862299
-0.0005547373818
-0.001069557752
0.002071082353
-6.723787017e-05
-0.0001863136256
-0.0004590446963
-0.0008627185952
0.001210356108
-7.287618092e-05
-0.0002024917731
-0.0005179792625
-0.001134642326
-0.0006981521203
-8.545614648e-05
-0.000233867095
-0.0005926075258
-0.001328752989
-0.001627838344
-9.67046074e-05
-0.0002519741633
-0.0006093741472
-0.001309807596
-0.001687888945
-0.0001030090806
-0.0002537440371
-0.0005821950151
-0.001184876276
-0.001439487827
-0.0001055268083
-0.0002461054655
-0.000537125178
-0.001034966032
-0.001143551409
-0.0001062618349
-0.0002359830067
-0.0004924001495
-0.0009006142055
-0.0008874356995
-0.0001082320561
-0.0002304665524
-0.0004624065462
-0.0008056906926
-0.0007086133142
-0.0001141810212
-0.0002345924576
-0.000455208822
-0.0007606877328
-0.0006138303674
-0.0001257322968
-0.00024940524
-0.0004680625623
-0.0007443954804
-0.0005253575942
-0.0001435191433
-0.0002742221617
-0.0004922711698
-0.0007233477485
-0.0003605743819
-0.0001689528773
-0.0003076294708
-0.0005176018049
-0.0006656933545
-8.119152166e-05
-0.0002009299653
-0.0003456193602
-0.0005295796105
-0.0005368202821
0.0003103905214
-0.0002520084393
-0.00038057509
-0.0005019001508
-0.0003008542321
0.0007592825824
-0.0002787779076
-0.0003917238019
-0.0003896800224
5.504609563e-05
0.001155607593
-0.000297332942
-0.0003304630571
-0.0001422339506
0.0004708276967
0.001366721423
-0.0002379950666
-0.0001295341741
0.0002231297476
0.0007930693394
0.001321348916
-2.981358248e-05
0.000194192195
0.0005320847544
0.0008725044395
0.001069058004
0.0002371574797
0.0004101856932
0.0005821041575
0.0007138705265
0.0006798259691
0.0002959457522
0.0003599532149
0.0004215543376
0.0004568960866
0.0001068359515
0.0001706610925
0.0002044754461
0.0002451854835
0.0001612587134
-0.0004538392938
5.848375567e-05
9.819185286e-05
7.647066023e-05
-0.0002889230088
-0.0004053290205
1.54217543e-05
-1.240449186e-05
-0.0002511526957
-0.0003338909817
-0.0002330394835
-0.0001104688058
-0.0002528070283
-0.0002459015541
-0.0001791688467
-0.0001273486396
-0.00019147478
-0.0001567137725
-0.0001206343635
-9.052746944e-05
-6.653972105e-05
-8.736209992e-05
-7.159022602e-05
-5.695463641e-05
-4.416605586e-05
-3.350458942e-05
-3.822408699e-05
-3.218245086e-05
-2.633652747e-05
-2.101687903e-05
-1.640565089e-05
-1.667951335e-05
-1.435179901e-05
-1.202479426e-05
-9.835883051e-06
-7.874484451e-06
-7.286834057e-06
-6.381605731e-06
-5.453137207e-06
-4.555742354e-06
-3.728786153e-06
-3.194746408e-06
-2.83880572e-06
-2.466153847e-06
-2.097838858e-06
-1.750334348e-06
-1.407595991e-06
-1.26598155e-06
-1.115229259e-06
-9.634502967e-07
-8.173669815e-07
-6.237145193e-07
-5.667071542e-07
-5.051801275e-07
-4.422680528e-07
-3.806859049e-07
-2.780777235e-07
-2.5486416e-07
-2.295208125e-07
-2.032664509e-07
-1.771952503e-07
-1.248023125e-07
-1.152445864e-07
-1.047083509e-07
-9.367149568e-08
-8.257558562e-08
-5.642028014e-08
-5.244294667e-08
-4.802190132e-08
-4.334707988e-08
-3.859731478e-08
-2.571243028e-08
-2.404060764e-08
-2.216979213e-08
-2.017569232e-08
-1.81321676e-08
-1.182441207e-08
-1.111596904e-08
-1.031896947e-08
-9.464650929e-09
-8.584007369e-09
-5.495289081e-09
-5.194430039e-09
-4.855201223e-09
-4.491001424e-09
-4.11560032e-09
-2.589698099e-09
-2.46406127e-09
-2.323150939e-09
-2.173311177e-09
-2.021447857e-09
-1.249183217e-09
-1.201031193e-09
-1.148758059e-09
-1.096068848e-09
-1.047362824e-09
-6.333640496e-10
-6.217924323e-10
-6.122157091e-10
-6.076015758e-10
-6.11786337e-10
-3.607961319e-10
-3.695664843e-10
-3.84712885e-10
-4.094221857e-10
-4.48018381e-10
-2.599052952e-10
-2.84189827e-10
-3.192574825e-10
-3.691499704e-10
-4.394411047e-10
-2.604549642e-10
-3.024413362e-10
-3.546025592e-10
-4.117942947e-10
-4.608868021e-10
-2.974232496e-10
-3.310551393e-10
-3.644610216e-10
-3.884864453e-10
-4.255366746e-10
-3.178699989e-10
-3.521684092e-10
-3.923560038e-10
-4.345760101e-10
-4.692625923e-10
-3.834163268e-10
-4.087353137e-10
-4.344753059e-10
-4.568442794e-10
-4.708688608e-10
-4.314014348e-10
-4.452781603e-10
-4.55745984e-10
-4.586670806e-10
-4.491152614e-10
-4.625609381e-10
-4.621105378e-10
-4.547748655e-10
-4.366734013e-10
-4.035948717e-10
-4.716060158e-10
-4.561240455e-10
-4.311547152e-10
-3.935928949e-10
-3.404200188e-10
-4.548011416e-10
-4.255533098e-10
-3.853403856e-10
-3.321711854e-10
-2.64466618e-10
-4.208715923e-10
-3.81918152e-10
-3.31867475e-10
-2.699248401e-10
-1.95871695e-10
-3.704602368e-10
-3.256661486e-10
-2.705627496e-10
-2.054323865e-10
-1.311673465e-10
-3.711760142e-10
-3.283734004e-10
-2.768846182e-10
-2.175161414e-10
-1.516280925e-10
-3.148693145e-10
-5.299433639e-12
-2.069750907e-13
-1.600685356e-14
-2.67501202e-15
-5.663946265e-16
-1.192418835e-16
-2.440050824e-17
-5.040084355e-18
-1.14751749e-18
-3.327773994e-19
-1.384504946e-19
-7.885332409e-20
-5.400739693e-20
-4.072391189e-20
-3.227085683e-20
-2.611664819e-20
-2.115402537e-20
-1.690695631e-20
-1.320767264e-20
-1.002781853e-20
-7.377874251e-21
-5.254281138e-21
-3.622299246e-21
-2.420024718e-21
-1.570849074e-21
-9.94656165e-22
-6.177501266e-22
-3.790926471e-22
-2.319846375e-22
-1.43058986e-22
-8.985104056e-23
-5.798993237e-23
-3.866165325e-23
-2.662973365e-23
-1.885055432e-23
-1.358249987e-23
-9.84406961e-24
-7.092190083e-24
-5.02925398e-24
-3.485949648e-24
-2.352801968e-24
-1.545078215e-24
-9.890369187e-25
-6.195405429e-25
-3.818021931e-25
-2.32884925e-25
-1.414483248e-25
-8.603235661e-26
-5.267242546e-26
-3.261254995e-26
-2.049845773e-26
-1.309971902e-26
-8.480313861e-27
-5.487203196e-27
-3.444820913e-27
-1.978457749e-27
-9.374265671e-28
-2.979939762e-28
-5.489472358e-29
-4.545954972e-09
-7.778782332e-11
-2.013628059e-12
-1.033116448e-13
-1.107656398e-14
-1.717535188e-15
-3.116308444e-16
-6.438927397e-17
-1.661390519e-17
-5.824012187e-18
-2.638448575e-18
-1.407870899e-18
-8.33398308e-19
-5.359533818e-19
-3.699937567e-19
-2.696393644e-19
-2.030996841e-19
-1.550915712e-19
-1.182235791e-19
-8.895397116e-20
-6.558630121e-20
-4.717761125e-20
-3.303804392e-20
-2.250494629e-20
-1.49223021e-20
-9.650040149e-21
-6.107449069e-21
-3.802479867e-21
-2.345080643e-21
-1.44505048e-21
-8.985451164e-22
-5.694593681e-22
-3.708873279e-22
-2.494214665e-22
-1.731701598e-22
-1.234543081e-22
-8.949780066e-23
-6.519163119e-23
-4.715254434e-23
-3.353517148e-23
-2.329425564e-23
-1.574833101e-23
-1.035760718e-23
-6.641350792e-24
-4.169110792e-24
-2.576444133e-24
-1.576992488e-24
-9.617438448e-25
-5.875776321e-25
-3.613660254e-25
-2.246985137e-25
-1.417715117e-25
-9.08858903e-26
-5.896867183e-26
-3.819854891e-26
-2.400613611e-26
-1.393790464e-26
-6.916314326e-27
-2.529811921e-27
-4.331956363e-28
-2.005394049e-08
-2.202485952e-10
-3.103278592e-12
-1.719848557e-13
-1.576623291e-14
-2.770765135e-15
-6.851712467e-16
-2.29140822e-16
-9.720255892e-17
-4.729686899e-17
-2.432865154e-17
-1.458708609e-17
-7.725806351e-18
-4.231931796e-18
-2.515491113e-18
-1.619909518e-18
-1.108797652e-18
-7.882332033e-19
-5.67250658e-19
-4.063131973e-19
-2.871668269e-19
-1.993384338e-19
-1.356439289e-19
-9.047498102e-20
-5.912269201e-20
-3.789692648e-20
-2.389449371e-20
-1.488585793e-20
-9.220793197e-21
-5.726718551e-21
-3.597123463e-21
-2.305451738e-21
-1.51903236e-21
-1.033288614e-21
-7.252856188e-22
-5.223285068e-22
-3.82085268e-22
-2.804374826e-22
-2.04076763e-22
-1.458237324e-22
-1.016540983e-22
-6.891815605e-23
-4.544020302e-23
-2.921282336e-23
-1.839740886e-23
-1.141563291e-23
-7.022889335e-24
-4.308620526e-24
-2.649650969e-24
-1.640590364e-24
-1.026759859e-24
-6.515103405e-25
-4.195118998e-25
-2.729597252e-25
-1.77019537e-25
-1.113461042e-25
-6.520354362e-26
-3.32128285e-26
-1.231178149e-26
-1.856562905e-27
-1.111832672e-06
-1.298360029e-08
-8.752371365e-11
-1.315864999e-12
-6.212056207e-14
-9.591460224e-15
-3.204736848e-15
-1.462945405e-15
-7.415599858e-16
-3.907946899e-16
-2.082263761e-16
-1.113552268e-16
-5.95521129e-17
-3.211850082e-17
-1.853331779e-17
-1.094229383e-17
-6.258268819e-18
-3.945572463e-18
-2.6214344e-18
-1.77398162e-18
-1.195042946e-18
-7.93431047e-19
-5.178340321e-19
-3.323128046e-19
-2.101166784e-19
-1.312766265e-19
-8.127774258e-20
-5.004843569e-20
-3.080749235e-20
-1.907877387e-20
-1.198475365e-20
-7.701310436e-21
-5.099228765e-21
-3.49309206e-21
-2.473975689e-21
-1.800336322e-21
-1.331336602e-21
-9.872576268e-22
-7.250095554e-22
-5.221680992e-22
-3.6656902e-22
-2.501260337e-22
-1.659279895e-22
-1.073025713e-22
-6.796496507e-23
-4.242531359e-23
-2.626744118e-23
-1.622714243e-23
-1.005272225e-23
-6.27146006e-24
-3.954097735e-24
-2.526201101e-24
-1.635732427e-24
-1.068236435e-24
-6.939241401e-25
-4.371663427e-25
-2.5722437e-25
-1.328114994e-25
-4.744059219e-26
-6.305851568e-27
-1.410174227e-06
-3.253310942e-08
-2.952924382e-10
-3.362812646e-12
-2.142915456e-13
-5.53103646e-14
-2.402355199e-14
-1.167841935e-14
-5.964547317e-15
-3.141675601e-15
-1.684480183e-15
-9.117017104e-16
-4.943088314e-16
-2.680741934e-16
-1.455939738e-16
-7.945486183e-17
-4.365764906e-17
-2.744962659e-17
-1.524119731e-17
-9.220747973e-18
-5.799171862e-18
-3.66915104e-18
-2.295334925e-18
-1.411259658e-18
-8.533401937e-19
-5.096401397e-19
-3.023754139e-19
-1.792339388e-19
-1.067192192e-19
-6.421844253e-20
-3.934305177e-20
-2.47384121e-20
-1.608296757e-20
-1.086492331e-20
-7.629653623e-21
-5.535839569e-21
-4.100255481e-21
-3.053883265e-21
-2.255189536e-21
-1.633731955e-21
-1.153736196e-21
-7.923133714e-22
-5.294008259e-22
-3.452209503e-22
-2.208089305e-22
-1.393534348e-22
-8.727388614e-23
-5.451063622e-23
-3.410105353e-23
-2.144924525e-23
-1.361379845e-23
-8.744696644e-24
-5.68734146e-24
-3.726514924e-24
-2.426814862e-24
-1.532846007e-24
-9.060414943e-25
-4.706292496e-25
-1.580005172e-25
-1.9098525e-26
-6.825028202e-07
-1.149425818e-07
-2.189486751e-09
-2.538983292e-11
-1.55496207e-12
-4.004536667e-13
-1.673098123e-13
-8.09606481e-14
-4.204517578e-14
-2.27338617e-14
-1.25801099e-14
-7.040424164e-15
-3.949090558e-15
-2.211054875e-15
-1.237041852e-15
-6.895859252e-16
-3.819704631e-16
-2.099325001e-16
-1.145890653e-16
-7.06393184e-17
-3.885946922e-17
-2.245831714e-17
-1.325097804e-17
-7.799439347e-18
-4.530899502e-18
-2.594284748e-18
-1.467873095e-18
-8.244511385e-19
-4.62588404e-19
-2.616092037e-19
-1.506396211e-19
-8.921515207e-20
-5.486659485e-20
-3.530829937e-20
-2.385035692e-20
-1.684175603e-20
-1.226711439e-20
-9.055183781e-21
-6.661988949e-21
-4.823084815e-21
-3.408939678e-21
-2.344616754e-21
-1.570027819e-21
-1.02728515e-21
-6.609306282e-22
-4.209132496e-22
-2.668190208e-22
-1.689774561e-22
-1.071674361e-22
-6.82105022e-23
-4.36778649e-23
-2.821275569e-23
-1.840175007e-23
-1.20732031e-23
-7.87530632e-24
-4.995834185e-24
-2.97607041e-24
-1.551979662e-24
-4.85758789e-25
-5.51147807e-26
-7.172896568e-07
-3.441735624e-07
-1.380334191e-08
-2.683119901e-10
-7.353436976e-12
-1.347188233e-12
-5.357735329e-13
-2.679908135e-13
-1.471594292e-13
-8.497960489e-14
-5.055584385e-14
-3.062439535e-14
-1.872324806e-14
-1.146663191e-14
-6.98150164e-15
-4.208410784e-15
-2.500198115e-15
-1.463183129e-15
-8.469261813e-16
-4.836543553e-16
-2.75371234e-16
-1.742287222e-16
-9.606401762e-17
-5.376719807e-17
-3.015808465e-17
-1.683392716e-17
-9.286682942e-18
-5.03825839e-18
-2.692946036e-18
-1.429318185e-18
-7.62157801e-19
-4.133773182e-19
-2.313142037e-19
-1.355367613e-19
-8.405354914e-20
-5.526805839e-20
-3.817443239e-20
-2.71549211e-20
-1.949690877e-20
-1.389999983e-20
-9.731737318e-21
-6.65474046e-21
-4.439665904e-21
-2.897188559e-21
-1.861087623e-21
-1.18715365e-21
-7.571357345e-22
-4.845696879e-22
-3.115010813e-22
-2.011281728e-22
-1.304708506e-22
-8.511642036e-23
-5.586101428e-23
-3.676521615e-23
-2.404016249e-23
-1.533258112e-23
-9.231798485e-24
-4.826349875e-24
-1.415184821e-24
-1.542086264e-25
-7.680671633e-05
-6.275395574e-06
-3.677131649e-07
-9.782602655e-09
-1.899514887e-10
-1.123018536e-11
-2.201822153e-12
-7.854683066e-13
-3.632394435e-13
-1.95021505e-13
-1.145442564e-13
-7.092110913e-14
-4.533397932e-14
-2.956803872e-14
-1.953088789e-14
-1.299383861e-14
-8.666673704e-15
-5.76085438e-15
-3.786900926e-15
-2.448213373e-15
-1.542009874e-15
-9.379122083e-16
-5.634516831e-16
-3.613543724e-16
-2.017450654e-16
-1.136855001e-16
-6.308053185e-17
-3.407718387e-17
-1.797244214e-17
-9.317253837e-18
-4.78007519e-18
-2.4374831e-18
-1.251593896e-18
-6.599422934e-19
-3.64228326e-19
-2.128817552e-19
-1.321318578e-19
-8.632147505e-20
-5.822388918e-20
-3.973898556e-20
-2.702235504e-20
-1.812453338e-20
-1.193376345e-20
-7.710746968e-21
-4.911521811e-21
-3.110999702e-21
-1.976090425e-21
-1.26539222e-21
-8.180798515e-22
-5.335473935e-22
-3.505071501e-22
-2.316365596e-22
-1.537441359e-22
-1.020886338e-22
-6.723089977e-23
-4.319705714e-23
-2.622650324e-23
-1.37162379e-23
-3.834103168e-24
-3.982867316e-25
-0.0001327663609
-1.195129209e-05
-1.364913865e-06
-6.973543807e-08
-1.682834547e-09
-5.360875897e-11
-6.218038975e-12
-1.661473275e-12
-6.818039817e-13
-3.453983177e-13
-1.974572325e-13
-1.21684524e-13
-7.879650156e-14
-5.282598022e-14
-3.632074419e-14
-2.543846145e-14
-1.805209667e-14
-1.291861458e-14
-9.27914335e-15
-6.656219952e-15
-4.741422691e-15
-3.33159823e-15
-2.290259851e-15
-1.518550137e-15
-1.032254396e-15
-6.732547651e-16
-3.884045886e-16
-2.179913628e-16
-1.189351143e-16
-6.344736056e-17
-3.28231539e-17
-1.644712337e-17
-8.113238894e-18
-4.016790505e-18
-2.026016536e-18
-1.051577721e-18
-5.697768456e-19
-3.251598063e-19
-1.951492183e-19
-1.217979982e-19
-7.765022225e-20
-4.988490168e-20
-3.195203198e-20
-2.026045822e-20
-1.269642966e-20
-7.915910943e-21
-4.960369039e-21
-3.142815346e-21
-2.017873791e-21
-1.313659546e-21
-8.665982849e-22
-5.779414873e-22
-3.882310671e-22
-2.611851303e-22
-1.743001447e-22
-1.134699417e-22
-6.970879553e-23
-3.65956444e-23
-9.930805934e-24
-1.015278374e-24
-0.0001091378878
-1.148824182e-05
-1.669821529e-06
-1.881426896e-07
-9.156374355e-09
-2.755868417e-10
-1.769158375e-11
-3.16706621e-12
-1.083165559e-12
-5.11441104e-13
-2.84506209e-13
-1.740449853e-13
-1.133377425e-13
-7.723863487e-14
-5.450993048e-14
-3.953385501e-14
-2.928352581e-14
-2.203487761e-14
-1.67598266e-14
-1.282236916e-14
-9.816096505e-15
-7.479503019e-15
-5.638141888e-15
-4.175120622e-15
-3.012882618e-15
-2.104698421e-15
-1.63747931e-15
-1.058153285e-15
-6.522691659e-16
-3.806929943e-16
-2.085994571e-16
-1.083830648e-16
-5.439139606e-17
-2.689140237e-17
-1.308113264e-17
-6.32197265e-18
-3.085022738e-18
-1.54519543e-18
-8.027297672e-19
-4.369497527e-19
-2.495967653e-19
-1.473668827e-19
-8.912504173e-20
-5.471264185e-20
-3.372407789e-20
-2.056334553e-20
-1.255268045e-20
-7.761077476e-21
-4.883345604e-21
-3.130549515e-21
-2.043786287e-21
-1.357702768e-21
-9.151421181e-22
-6.215423522e-22
-4.206111084e-22
-2.784828389e-22
-1.739903806e-22
-9.23117188e-23
-2.482186213e-23
-2.577016342e-24
-8.41106479e-05
-1.188782934e-05
-1.099626746e-06
-3.822947575e-07
-3.34092534e-08
-1.498233163e-09
-6.306460617e-11
-6.735229896e-12
-1.707945662e-12
-7.115455873e-13
-3.757943629e-13
-2.250569818e-13
-1.458416193e-13
-1.000723519e-13
-7.182842007e-14
-5.346008424e-14
-4.095926409e-14
-3.209311971e-14
-2.556824109e-14
-2.058683065e-14
-1.665367382e-14
-1.345824481e-14
-1.080391137e-14
-8.567475355e-15
-6.672003838e-15
-5.072395579e-15
-3.742063157e-15
-3.025653223e-15
-2.140557557e-15
-1.424478853e-15
-9.11106258e-16
-5.511934877e-16
-3.121758702e-16
-1.648166788e-16
-8.178254836e-17
-3.923262944e-17
-1.846823372e-17
-8.634323745e-18
-4.017324032e-18
-1.912271452e-18
-9.566505558e-19
-5.030905011e-19
-2.757597428e-19
-1.574043825e-19
-9.335587588e-20
-5.666946248e-20
-3.40512333e-20
-2.020517885e-20
-1.219809434e-20
-7.557289211e-21
-4.804368046e-21
-3.130192201e-21
-2.083687805e-21
-1.409060591e-21
-9.580383088e-22
-6.422688819e-22
-4.084466979e-22
-2.206201031e-22
-6.032342657e-23
-6.637193142e-24
-0.000410868837
-6.272999201e-05
-8.129830093e-06
-1.581948768e-06
-2.1472574e-07
-1.510278204e-08
-5.770995897e-10
-3.081369096e-11
-4.163970284e-12
-1.173445877e-12
-5.11924448e-13
-2.807455563e-13
-1.754269684e-13
-1.193402703e-13
-8.637997549e-14
-6.568997072e-14
-5.194261555e-14
-4.229697172e-14
-3.51685269e-14
-2.96287686e-14
-2.511459187e-14
-2.128515234e-14
-1.793689517e-14
-1.4953147e-14
-1.227318334e-14
-9.870720014e-15
-7.739849461e-15
-5.998873924e-15
-5.095525212e-15
-3.627903461e-15
-2.514920544e-15
-1.680320099e-15
-1.072535739e-15
-6.498815255e-16
-3.721252663e-16
-1.995616636e-16
-1.002355598e-16
-4.719584819e-17
-2.11962957e-17
-9.411546611e-18
-4.266194587e-18
-1.982381622e-18
-9.225180713e-19
-4.628287499e-19
-2.557178705e-19
-1.545680066e-19
-9.271860966e-20
-5.594920125e-20
-3.329705069e-20
-1.967490718e-20
-1.184031279e-20
-7.398846533e-21
-4.777326407e-21
-3.163831604e-21
-2.12512244e-21
-1.422567085e-21
-9.144818086e-22
-5.057526555e-22
-1.447218599e-22
-1.806482629e-23
-0.001453613693
-0.0002194617331
-3.211988137e-05
-4.826732646e-06
-7.651147155e-07
-8.919008518e-08
-5.695417802e-09
-2.240291681e-10
-1.454940034e-11
-2.246729338e-12
-6.987784176e-13
-3.267708411e-13
-1.912873872e-13
-1.288580329e-13
-9.478958491e-14
-7.474600246e-14
-6.172869901e-14
-5.263438886e-14
-4.581110466e-14
-4.03257163e-14
-3.563071896e-14
-3.140625552e-14
-2.747481972e-14
-2.375009007e-14
-2.020612506e-14
-1.685526054e-14
-1.373524588e-14
-1.08922975e-14
-9.522197069e-15
-7.358556229e-15
-5.358598028e-15
-3.791157711e-15
-2.586540305e-15
-1.691701254e-15
-1.056053889e-15
-6.266267835e-16
-3.520715047e-16
-1.867049395e-16
-9.301295881e-17
-4.350436001e-17
-1.950885821e-17
-7.767741664e-18
-3.205090188e-18
-1.45223081e-18
-6.992264712e-19
-3.632307691e-19
-2.029345945e-19
-1.205177803e-19
-8.373759112e-20
-5.267212726e-20
-3.158671631e-20
-1.891067795e-20
-1.15579605e-20
-7.300769628e-21
-4.754127929e-21
-3.127105906e-21