/*--------------------------------*- C++ -*----------------------------------*\
  =========                 |
  \\      /  F ield         | OpenFOAM: The Open Source CFD Toolbox
   \\    /   O peration     | Website:  https://openfoam.org
    \\  /    A nd           | Version:  10
     \\/     M anipulation  |
\*---------------------------------------------------------------------------*/
FoamFile
{
    format      ascii;
    class       volScalarField;
    location    "3000";
    object      RR.C2H6;
}
// * * * * * * * * * * * * * * * * * * * * * * * * * * * * * * * * * * * * * //

dimensions      [1 -3 -1 0 0 0 0];

internalField   nonuniform List<scalar> 
5170
(
6.590196265e-68
6.622832335e-68
6.880167363e-68
8.263849836e-68
1.795614468e-67
3.140140699e-67
2.881396942e-67
2.525350343e-67
3.118471658e-67
6.070850549e-67
4.984657801e-65
3.758450927e-65
1.316422108e-65
9.373543151e-66
5.008702367e-65
2.089048732e-62
1.50968229e-62
6.60132828e-63
5.12270076e-63
2.845459991e-62
8.64036291e-60
5.889506235e-60
2.500805649e-60
4.172210244e-60
3.215403584e-59
3.841087347e-57
2.518286423e-57
1.265464612e-57
2.97266659e-57
1.736951132e-56
1.697399646e-54
1.223731991e-54
7.459651879e-55
2.347491226e-54
1.821039174e-53
7.884494126e-52
5.640178215e-52
3.778954077e-52
1.636630271e-51
1.417380436e-50
3.466469352e-49
2.802086087e-49
2.457591604e-49
1.067241976e-48
9.735347399e-48
1.70679619e-46
1.447035016e-46
1.663201029e-46
8.908135469e-46
7.484391561e-45
8.428479886e-44
8.003878479e-44
1.123613576e-43
7.034121675e-43
6.371302009e-42
4.173607232e-41
4.654528676e-41
8.216257815e-41
5.559281773e-40
4.546386466e-39
2.127648215e-38
2.793034255e-38
6.412336923e-38
4.884368139e-37
3.637578965e-36
1.104646939e-35
1.734921284e-35
5.016960923e-35
4.130278108e-34
2.693013966e-33
5.78016455e-33
1.076380999e-32
4.046864364e-32
3.540050896e-31
2.055958904e-30
2.976269989e-30
6.807462905e-30
3.262813269e-29
3.172775459e-28
1.744386926e-27
1.972378037e-27
7.494104694e-27
1.084259102e-25
4.652976952e-24
6.961480553e-23
7.217997783e-23
7.253366942e-22
2.546303325e-20
1.401824079e-18
2.147377956e-17
9.335930153e-18
1.474885957e-16
6.788335301e-15
3.781182954e-13
6.536709851e-12
8.927746615e-13
2.799623958e-11
1.678516033e-09
8.050681262e-08
1.832110445e-06
-6.518797129e-31
-6.742640372e-31
-1.398483099e-30
-1.396040803e-30
-2.412413581e-29
-6.500426874e-31
-7.12633224e-31
-1.314044789e-30
-5.618396821e-30
-1.084407892e-29
-3.787067533e-31
-4.934678762e-31
-9.784125741e-31
-2.728486932e-30
-3.639616999e-30
-2.023629068e-31
-3.197051815e-31
-6.808348414e-31
-1.586754953e-30
-1.588005078e-30
-1.163967236e-31
-2.254862477e-31
-4.641727911e-31
-9.611086943e-31
-7.550237029e-31
-7.603122683e-32
-1.647637438e-31
-3.195630337e-31
-5.772047312e-31
-3.578554897e-31
-7.355294002e-32
-1.300096473e-31
-2.234223701e-31
-3.408151318e-31
-1.702892805e-31
-3.338926524e-30
-1.133626182e-30
-3.959901985e-31
-2.547293355e-31
-9.557924491e-32
-5.430958915e-28
-1.69873045e-28
-4.010019397e-29
-1.15679623e-29
-2.264115056e-30
-9.046502439e-26
-2.816760482e-26
-6.665748383e-27
-1.83324442e-27
-3.274626851e-28
-1.517442305e-23
-4.711816946e-24
-1.122213688e-24
-2.974221775e-25
-4.922913459e-26
-2.566014823e-21
-7.944087754e-22
-1.893134167e-22
-4.841719613e-23
-7.456059396e-24
-4.361844236e-19
-1.338599714e-19
-3.191488208e-20
-7.871821795e-21
-1.127898143e-21
-7.508292578e-17
-2.274484476e-17
-5.363849005e-18
-1.273336535e-18
-1.689861742e-19
-1.301287046e-14
-3.845539405e-15
-8.903981887e-16
-2.028546562e-16
-2.47598633e-17
-2.283510567e-12
-6.471544606e-13
-1.437358352e-13
-3.06592154e-14
-3.426928184e-15
-4.053438889e-10
-1.069029698e-10
-2.23622713e-11
-4.414106466e-12
-4.470497946e-13
-7.497400278e-08
-1.724051454e-08
-3.32425571e-09
-5.983400989e-10
-5.453117817e-11
-1.518584312e-05
-2.649696326e-06
-4.558391199e-07
-7.056630249e-08
-5.700961031e-09
-0.009250879919
-0.0005106738621
-6.002204895e-05
-7.108273613e-06
-4.810659379e-07
1.047521112e-09
6.117842554e-08
1.322573458e-05
0.00220393466
0.1642690637
1.988828504e-08
8.009453382e-07
9.407400459e-05
0.006224108296
0.1302423283
1.408824126e-07
4.111741111e-06
0.0002869525182
0.00937595568
0.09564587969
6.47063552e-07
1.442461961e-05
0.0006443934925
0.01217293321
0.08003786394
2.26868795e-06
3.975799115e-05
0.001185663696
0.01452353574
0.07340804641
6.796993431e-06
9.555052268e-05
0.001999178536
0.01773952874
0.07662473071
1.944904348e-05
0.0002295311286
0.00352543073
0.02384343424
0.08915270076
5.433412428e-05
0.0005507831576
0.006113629687
0.03132063153
0.1003378584
0.0001451750521
0.00122846731
0.009620033584
0.0380430767
0.106711428
0.0003607950709
0.002444180819
0.01375429091
0.04439405795
0.1134127388
0.0008557033071
0.004337792786
0.01815949899
0.05070905209
0.12121213
0.001787311269
0.006746704879
0.02246419627
0.05645677515
0.1273294181
0.003328571042
0.009636717451
0.02684221879
0.06189626112
0.1321857458
0.005710311659
0.0131360076
0.03163691191
0.06779492467
0.1383829167
0.009308411114
0.01751186225
0.03720995936
0.07483768072
0.1472042878
0.01437457278
0.02305526959
0.04383090991
0.08322101571
0.158684301
0.02099956283
0.02995510121
0.05167672815
0.09304061868
0.1722164478
0.02869068204
0.03784341451
0.0603650041
0.103604836
0.1849540538
0.03719089104
0.04657161031
0.06984377272
0.1146620428
0.1975716593
0.0463212433
0.05607225922
0.08055260529
0.1272428296
0.2114706919
0.05662173492
0.06703082904
0.09294084985
0.1419865591
0.2283436984
0.06869884816
0.07929483352
0.1076224685
0.1591452529
0.2436452932
0.08262883814
0.09467440423
0.12422794
0.1773163295
0.2553798936
0.09824440521
0.1111457786
0.142531656
0.1925271396
0.2757742727
0.1154787032
0.1294543029
0.1578847067
0.2130101332
0.2884813831
0.1351175913
0.1504048242
0.1874082257
0.2344590308
0.3109829253
0.1594362565
0.1763699749
0.216472614
0.2754260179
0.3625428395
0.1909215802
0.2099728153
0.2554105069
0.3119489613
0.4073260667
0.2224513482
0.2399793899
0.3012454919
0.3850654033
0.5006167322
0.2683250617
0.3007283541
0.3455677112
0.4196860313
0.5275212681
0.3225858837
0.3391589485
0.3871791305
0.4548788755
0.4962610108
0.3628047719
0.3819808105
0.4058410058
0.4182785827
0.4363602305
0.3208548896
0.3208613066
0.3397544759
0.257768406
0.1903759571
0.04125335375
0.01784227419
-0.03114528292
-0.114432842
-0.234108985
-0.3459121716
-0.3719818316
-0.4171864481
-0.4725993076
-0.5293913788
-0.4858911771
-0.4875366708
-0.4890431532
-0.4863104484
-0.4759765044
-0.3392702131
-0.335228866
-0.326145891
-0.3119759513
-0.2927407953
-0.1821588773
-0.1793253014
-0.1731521482
-0.164095498
-0.1524277709
-0.08792526054
-0.08651974592
-0.08348860287
-0.0790481795
-0.07344003309
-0.04023980868
-0.03961491727
-0.03825712566
-0.03625634215
-0.03368282829
-0.01761928522
-0.01733120044
-0.0167103418
-0.0158076057
-0.01468055219
-0.007444659473
-0.007334163423
-0.007096986833
-0.006753586735
-0.006323722014
-0.003153404079
-0.00311130837
-0.003020946211
-0.002889457061
-0.002723676285
-0.001339539729
-0.001323433206
-0.001288704523
-0.001237959177
-0.001173612042
-0.0005713800161
-0.000565131473
-0.0005516685731
-0.0005319398247
-0.0005068070064
-0.0002450239893
-0.0002425923766
-0.0002373344442
-0.0002296041835
-0.0002197138839
-0.0001057724206
-0.0001048117659
-0.0001027363366
-9.967786159e-05
-9.575079504e-05
-4.599105563e-05
-4.560932195e-05
-4.478214309e-05
-4.356021163e-05
-4.198606937e-05
-2.015723287e-05
-2.000324182e-05
-1.966981306e-05
-1.917635007e-05
-1.853885903e-05
-8.909423697e-06
-8.846862214e-06
-8.711068245e-06
-8.509697193e-06
-8.248855324e-06
-3.974345259e-06
-3.948559209e-06
-3.892616064e-06
-3.809528266e-06
-3.701649808e-06
-1.790374033e-06
-1.779662048e-06
-1.756375588e-06
-1.721731018e-06
-1.676650235e-06
-8.151049616e-07
-8.10598773e-07
-8.008058322e-07
-7.862180352e-07
-7.672016672e-07
-3.753297167e-07
-3.734272324e-07
-3.692868486e-07
-3.63113184e-07
-3.550558451e-07
-1.751290428e-07
-1.743296533e-07
-1.725916567e-07
-1.700012313e-07
-1.666227689e-07
-8.323222822e-08
-8.291288374e-08
-8.221954122e-08
-8.119023163e-08
-7.98560706e-08
-4.088742471e-08
-4.078450259e-08
-4.05637766e-08
-4.024308669e-08
-3.984107618e-08
-2.154101066e-08
-2.154478347e-08
-2.155740974e-08
-2.158849534e-08
-2.165289562e-08
-1.311067408e-08
-1.317706893e-08
-1.332754919e-08
-1.356842891e-08
-1.391471354e-08
-1.009495645e-08
-1.021000039e-08
-1.046812202e-08
-1.087457543e-08
-1.144666773e-08
-1.005106272e-08
-1.021580584e-08
-1.05844447e-08
-1.116216687e-08
-1.197018406e-08
-1.201488026e-08
-1.224033981e-08
-1.274416661e-08
-1.353203815e-08
-1.46307469e-08
-1.581771341e-08
-1.612403725e-08
-1.680808146e-08
-1.787633403e-08
-1.936328345e-08
-2.183190787e-08
-2.225093929e-08
-2.318605063e-08
-2.464484585e-08
-2.667245737e-08
-3.101042708e-08
-3.159174628e-08
-3.28884049e-08
-3.49093706e-08
-3.771475815e-08
-4.526501906e-08
-4.609208064e-08
-4.79362306e-08
-5.0809047e-08
-5.479425203e-08
-6.269582722e-08
-6.373448103e-08
-6.604342788e-08
-6.962078174e-08
-7.454465094e-08
-9.027454918e-08
-9.164690516e-08
-9.469251559e-08
-9.939769403e-08
-1.058482784e-07
-1.265044943e-07
-1.282385669e-07
-1.320784885e-07
-1.379879976e-07
-1.460459955e-07
-1.602718011e-07
-1.62288813e-07
-1.667489611e-07
-1.735956163e-07
-1.828986671e-07
1.203933766
0.8672005805
0.3923111106
0.2519723554
0.2088759821
0.2071535461
0.2271377941
0.230874578
0.225499038
0.2278801291
0.2354919599
0.2380767844
0.2367197455
0.2394311397
0.2482291226
0.2621268081
0.277258242
0.2885936949
0.2986820889
0.3110871841
0.3192865232
0.3300940331
0.3497418849
0.3545060278
0.3722724666
0.3973135746
0.4598607498
0.5125917154
0.5498297885
0.5961897033
0.5500213313
0.4313802087
0.1108251264
-0.3327089412
-0.5629033302
-0.4640223053
-0.2776038431
-0.1436076673
-0.06919887261
-0.03170195907
-0.01383910429
-0.005999170706
-0.002597346739
-0.001124212925
-0.0004873927633
-0.0002120318224
-9.268601115e-05
-4.075227488e-05
-1.803729397e-05
-8.042904891e-06
-3.616201236e-06
-1.640836748e-06
-7.520579635e-07
-3.486296573e-07
-1.639309327e-07
-7.880231366e-08
-3.953879223e-08
-2.173066594e-08
-1.422622699e-08
-1.19490236e-08
-1.267441771e-08
-1.5584995e-08
-2.065187986e-08
-2.842649292e-08
-4.013793329e-08
-5.801027435e-08
-7.875588544e-08
-1.113243171e-07
-1.528665104e-07
-1.907413454e-07
4.374577208
-0.2611669908
-0.009096096931
-0.0005535268932
-2.844067228e-05
1.706923578
1.874973135
-0.3481934521
-0.01469918983
-0.0006401121148
1.013431946
2.610300109
-0.8155766339
-0.04323437919
-0.002026627355
0.6248652058
1.879334338
-0.9689458318
-0.06734389837
-0.003995209991
0.494452838
1.787000453
-0.296031935
-0.2213703889
-0.01475661864
0.4936971185
1.865858319
1.302625233
-0.6683446218
-0.05497944205
0.5330504716
1.917446728
2.375856565
-1.170173525
-0.1213776279
0.5005629006
1.57507311
2.506634376
-1.502380239
-0.1813692355
0.4562459161
1.32262603
2.657315144
-1.539649644
-0.3143157545
0.4470896064
1.262192229
2.882755441
-0.7829759936
-0.643475402
0.4530604868
1.240189123
2.925226578
0.1277403616
-1.048094585
0.444274183
1.14835395
2.599631102
1.004437127
-1.446671215
0.4252951993
1.024295546
2.210509294
1.791851313
-1.788432813
0.4188262852
0.9607416864
2.063424979
2.415169329
-1.715705642
0.4264745824
0.9458102944
2.022564051
2.784909497
-1.340896342
0.4407586991
0.9511448402
1.993317312
2.913396126
-0.8722504974
0.4546697105
0.9347990265
1.884846465
2.762065124
-0.370831265
0.4584393106
0.8883938372
1.709870825
2.470205504
0.1072288853
0.4371533928
0.8456336254
1.578457484
2.281157791
0.4828939474
0.4433065737
0.8252888515
1.510593577
2.184191481
0.7251872713
0.453228072
0.8240021298
1.481747435
2.116747997
0.8417876615
0.4552994774
0.8333030978
1.461270078
2.031087891
0.8501408161
0.4682412207
0.8426282435
1.43080183
1.908527555
0.7719622525
0.4851395642
0.849302388
1.386371475
1.746385709
0.6210579791
0.5048363099
0.8538737254
1.329173918
1.549140421
0.4050900342
0.5294533385
0.9330587209
1.26392951
1.317948307
0.126987407
0.6005158163
0.9251313505
1.184691888
1.034211751
-0.2025933044
0.6580645527
0.8785313394
1.061885519
0.6675351675
-0.5412813988
0.6887926101
0.8495655383
0.845834476
0.2098641775
-0.8141740618
0.7850378336
0.736020662
0.4914828882
-0.2773831175
-0.9494295066
0.5780828189
0.4798362841
0.01450727065
-0.6586416883
-0.9279987356
0.356100878
0.05544103149
-0.4528595816
-0.8170056269
-0.790493946
-0.0550190902
-0.4083198916
-0.7053140189
-0.7546753028
-0.6005577335
-0.4708162707
-0.6424457993
-0.6743954704
-0.5717134327
-0.4129416255
-0.5843479083
-0.5687215726
-0.4882987958
-0.3739845086
-0.2600243242
-0.4343966342
-0.3728511086
-0.297077794
-0.2200852061
-0.1514332177
-0.2517775309
-0.2081346015
-0.1627199144
-0.1198293758
-0.08264098225
-0.1295688778
-0.1065558563
-0.08320953312
-0.06114971177
-0.04329100068
-0.06254641044
-0.05144183249
-0.04005404143
-0.03004272418
-0.02197766219
-0.02861110229
-0.0235235357
-0.01869315262
-0.01443396518
-0.01086595979
-0.01259533643
-0.0105712943
-0.008602698079
-0.006808154138
-0.005256100984
-0.005517963471
-0.004714798595
-0.003913760306
-0.003164322232
-0.002498627905
-0.002409618452
-0.002090317092
-0.001765411363
-0.001454714061
-0.001172234
-0.001050657193
-0.0009235833286
-0.0007920391852
-0.0006638162087
-0.0005447982814
-0.0004584311463
-0.0004077191901
-0.0003544259477
-0.0003015894267
-0.0002516293379
-0.0002005527343
-0.0001802166378
-0.0001585596627
-0.000136762656
-0.0001158088985
-8.809996134e-05
-7.989116452e-05
-7.10467858e-05
-6.202597034e-05
-5.322532896e-05
-3.890389855e-05
-3.556497399e-05
-3.19302597e-05
-2.817899978e-05
-2.447087186e-05
-1.728518829e-05
-1.591554893e-05
-1.441096645e-05
-1.28417897e-05
-1.127234049e-05
-7.733840218e-06
-7.166946401e-06
-6.539173203e-06
-5.878313567e-06
-5.210397375e-06
-3.48788948e-06
-3.251040515e-06
-2.986895931e-06
-2.706544979e-06
-2.420565943e-06
-1.587029369e-06
-1.487159762e-06
-1.375106577e-06
-1.255349025e-06
-1.132253486e-06
-7.292973889e-07
-6.868716422e-07
-6.390548548e-07
-5.876990189e-07
-5.346541417e-07
-3.389712999e-07
-3.209303643e-07
-3.005681341e-07
-2.786876987e-07
-2.561207823e-07
-1.598893649e-07
-1.523657655e-07
-1.439305154e-07
-1.349700497e-07
-1.259088151e-07
-7.722711404e-08
-7.435614963e-08
-7.124654448e-08
-6.812502424e-08
-6.526182468e-08
-3.909720674e-08
-3.838998226e-08
-3.779553109e-08
-3.74882314e-08
-3.769227893e-08
-2.186457616e-08
-2.227935576e-08
-2.302610526e-08
-2.427475585e-08
-2.625349476e-08
-1.471636412e-08
-1.584938484e-08
-1.749183045e-08
-1.983428241e-08
-2.313688291e-08
-1.273204026e-08
-1.447636239e-08
-1.691273318e-08
-2.026935014e-08
-2.485859105e-08
-1.376862192e-08
-1.617640278e-08
-1.949487569e-08
-2.400592074e-08
-3.009456282e-08
-1.706524639e-08
-2.030307242e-08
-2.473497805e-08
-3.071601656e-08
-3.872938669e-08
-2.264856045e-08
-2.699886101e-08
-3.29257227e-08
-4.08834924e-08
-5.14880048e-08
-3.114191717e-08
-3.703970262e-08
-4.504415639e-08
-5.574569406e-08
-6.994135362e-08
-4.388618545e-08
-5.200441417e-08
-6.298495697e-08
-7.76108986e-08
-9.693791582e-08
-6.265892538e-08
-7.242137509e-08
-8.496803389e-08
-1.016963182e-07
-1.248687392e-07
-8.521823197e-08
-9.893537453e-08
-1.169645037e-07
-1.401379446e-07
-1.694615509e-07
-1.196379365e-07
-1.371053648e-07
-1.597352995e-07
-1.8832912e-07
-2.238005038e-07
-1.632387963e-07
-1.848153257e-07
-2.124007162e-07
-2.467240196e-07
-2.885711668e-07
-2.026328182e-07
-2.271783261e-07
-2.58239692e-07
-2.964304612e-07
-3.423688422e-07
-2.587049344e-07
-1.912684646e-09
-5.230122393e-11
-4.39848338e-12
-7.856412096e-13
-1.610141609e-13
-3.137736861e-14
-6.016602022e-15
-1.257666745e-15
-3.288715933e-16
-1.13844572e-16
-4.815212582e-17
-2.233498941e-17
-1.066881985e-17
-5.10932005e-18
-2.427757303e-18
-1.1410931e-18
-5.304689767e-19
-2.442773867e-19
-1.116608947e-19
-5.079430419e-20
-2.306254213e-20
-1.049235278e-20
-4.811882594e-21
-2.246570243e-21
-1.083786529e-21
-5.502418437e-22
-2.986751309e-22
-1.740946078e-22
-1.077939615e-22
-6.946589939e-23
-4.565258648e-23
-3.015324934e-23
-1.985332104e-23
-1.297919669e-23
-8.402870941e-24
-5.368048559e-24
-3.365820341e-24
-2.057938538e-24
-1.219481275e-24
-6.973622764e-25
-3.842799847e-25
-2.043859768e-25
-1.053850627e-25
-5.301653244e-26
-2.621601373e-26
-1.283886226e-26
-6.270894962e-27
-3.073008171e-27
-1.517651212e-27
-7.570172459e-28
-3.80999666e-28
-1.923691669e-28
-9.618161168e-29
-4.644371099e-29
-2.063933613e-29
-7.615072855e-30
-1.869775239e-30
-1.544587974e-31
-1.494490105e-33
-5.377168876e-06
-3.843022869e-08
-1.103339072e-09
-1.190290896e-10
-2.294078203e-11
-4.873016455e-12
-1.040659932e-12
-2.549682582e-13
-7.780388001e-14
-2.904923992e-14
-1.191727817e-14
-5.053838661e-15
-2.150885681e-15
-9.129816334e-16
-3.863712171e-16
-1.633584897e-16
-6.917911204e-17
-2.939928866e-17
-1.256093843e-17
-5.400914894e-18
-2.339017511e-18
-1.02143693e-18
-4.508072297e-19
-2.019596052e-19
-9.262191898e-20
-4.40863336e-20
-2.216577105e-20
-1.19543385e-20
-6.944762699e-21
-4.297544152e-21
-2.774333577e-21
-1.829884716e-21
-1.214787427e-21
-8.048838341e-22
-5.30084713e-22
-3.460245826e-22
-2.230053868e-22
-1.410724437e-22
-8.698864138e-23
-5.194835735e-23
-2.991369471e-23
-1.658721866e-23
-8.873581863e-24
-4.601231296e-24
-2.32795311e-24
-1.157950226e-24
-5.705710104e-25
-2.804449224e-25
-1.383018955e-25
-6.87175945e-26
-3.447033312e-26
-1.743813773e-26
-8.84550908e-27
-4.440600156e-27
-2.151659195e-27
-9.597917011e-28
-3.579306675e-28
-9.153071177e-29
-9.412822703e-30
-1.715176547e-31
-1.334253744e-05
-8.959167352e-08
-3.399218761e-09
-5.755360268e-10
-1.383813845e-10
-3.773136586e-11
-1.149225461e-11
-4.264562859e-12
-1.816233565e-12
-8.290001764e-13
-3.766433003e-13
-1.676580497e-13
-7.21013546e-14
-3.007586142e-14
-1.220476858e-14
-4.857831054e-15
-1.91302475e-15
-7.520597522e-16
-2.976184843e-16
-1.192371802e-16
-4.852742495e-17
-2.009316607e-17
-8.478950095e-18
-3.657686245e-18
-1.62374018e-18
-7.505354693e-19
-3.670956633e-19
-1.92961181e-19
-1.096966508e-19
-6.686882964e-20
-4.285507188e-20
-2.826583737e-20
-1.887653487e-20
-1.263894186e-20
-8.439191593e-21
-5.597124489e-21
-3.668795766e-21
-2.36052905e-21
-1.479330073e-21
-8.967728548e-22
-5.234610423e-22
-2.938328231e-22
-1.589390048e-22
-8.325759106e-23
-4.253019327e-23
-2.135366794e-23
-1.062032195e-23
-5.268913903e-24
-2.62240184e-24
-1.31467699e-24
-6.650972023e-25
-3.391133258e-25
-1.732267391e-25
-8.749022903e-26
-4.260263313e-26
-1.909153436e-26
-7.19599759e-27
-1.889205418e-27
-2.155395866e-28
-5.164498324e-30
-7.117856426e-05
-5.308326754e-07
-1.227413996e-08
-1.748411352e-09
-5.167723185e-10
-1.959776004e-10
-8.50672237e-11
-4.093532835e-11
-2.069030115e-11
-1.055459261e-11
-5.259870148e-12
-2.536265369e-12
-1.172734307e-12
-5.207239962e-13
-2.219052431e-13
-9.126960943e-14
-3.640451265e-14
-1.421013777e-14
-5.476325824e-15
-2.105276436e-15
-8.144208772e-16
-3.192904199e-16
-1.275338287e-16
-5.21633378e-17
-2.198831515e-17
-9.642462958e-18
-4.459542695e-18
-2.209747488e-18
-1.186413259e-18
-6.895513552e-19
-4.276960406e-19
-2.773564403e-19
-1.846215649e-19
-1.24540588e-19
-8.444545044e-20
-5.717510717e-20
-3.836663117e-20
-2.528903094e-20
-1.622349965e-20
-1.005210929e-20
-5.986834347e-21
-3.422978665e-21
-1.883100494e-21
-1.001998001e-21
-5.194149332e-22
-2.644360284e-22
-1.332612849e-22
-6.693873853e-23
-3.370450765e-23
-1.708105875e-23
-8.730358254e-24
-4.494665162e-24
-2.316600247e-24
-1.179415369e-24
-5.782575253e-25
-2.608333449e-25
-9.95147511e-26
-2.682087483e-26
-3.318420952e-27
-1.021000239e-28
-0.0004633792489
-4.52811372e-06
-7.347294391e-08
-5.445455202e-09
-1.663668102e-09
-8.076695302e-10
-4.323432051e-10
-2.379071172e-10
-1.325294969e-10
-7.363496238e-11
-4.018434641e-11
-2.13442295e-11
-1.094354737e-11
-5.401869261e-12
-2.557431205e-12
-1.162891678e-12
-5.077462893e-13
-2.138895917e-13
-8.723100806e-14
-3.472215464e-14
-1.358076466e-14
-5.270481498e-15
-2.045738001e-15
-8.012040105e-16
-3.191768149e-16
-1.305391614e-16
-5.543629137e-17
-2.481264359e-17
-1.190604618e-17
-6.205400451e-18
-3.518399293e-18
-2.144547964e-18
-1.379049163e-18
-9.189809771e-19
-6.258330785e-19
-4.305288888e-19
-2.956887102e-19
-2.00217906e-19
-1.32069877e-19
-8.406143415e-20
-5.133159796e-20
-3.002586678e-20
-1.686454541e-20
-9.147428555e-21
-4.828920893e-21
-2.501815996e-21
-1.281909438e-21
-6.538311042e-22
-3.337168169e-22
-1.711289058e-22
-8.836251646e-23
-4.590690335e-23
-2.386154572e-23
-1.22466516e-23
-6.052341632e-24
-2.754461926e-24
-1.066101136e-24
-2.959984564e-25
-3.961108033e-26
-1.616133604e-27
-0.002844510569
-4.41394005e-05
-6.583661716e-07
-2.733286122e-08
-5.981191071e-09
-2.81346595e-09
-1.582384107e-09
-9.248973079e-10
-5.484591875e-10
-3.263982783e-10
-1.929811691e-10
-1.123635545e-10
-6.394207077e-11
-3.537737217e-11
-1.893369544e-11
-9.774629239e-12
-4.854039144e-12
-2.318121874e-12
-1.063713191e-12
-4.704368258e-13
-2.010017917e-13
-8.35140731e-14
-3.390671356e-14
-1.355593111e-14
-5.369894087e-15
-2.125314349e-15
-8.472631435e-16
-3.441305556e-16
-1.446841245e-16
-6.434057943e-17
-3.096159511e-17
-1.636076747e-17
-9.481093496e-18
-5.933123755e-18
-3.926019948e-18
-2.690249053e-18
-1.871242308e-18
-1.296375485e-18
-8.797433075e-19
-5.771537991e-19
-3.629279752e-19
-2.18010431e-19
-1.253037523e-19
-6.932464142e-20
-3.725675706e-20
-1.964029758e-20
-1.023984477e-20
-5.312359204e-21
-2.754673169e-21
-1.43238903e-21
-7.483014139e-22
-3.925336274e-22
-2.0573922e-22
-1.064424323e-22
-5.309078733e-23
-2.447317904e-23
-9.669579464e-24
-2.795574599e-24
-4.10241714e-25
-2.280206164e-26
-0.009541979645
-0.0003226602349
-6.248534584e-06
-2.041691247e-07
-2.071418171e-08
-7.447033023e-09
-4.019547221e-09
-2.411143991e-09
-1.496895662e-09
-9.415596868e-10
-5.93796416e-10
-3.727126216e-10
-2.314047266e-10
-1.413690111e-10
-8.459213039e-11
-4.937574477e-11
-2.799532148e-11
-1.536400197e-11
-8.133008847e-12
-4.145898135e-12
-2.032632001e-12
-9.594861743e-13
-4.365074904e-13
-1.920529649e-13
-8.198000508e-14
-3.414130367e-14
-1.392627171e-14
-5.592972099e-15
-2.226357506e-15
-8.896401976e-16
-3.645460119e-16
-1.580204542e-16
-7.496682702e-17
-3.97684438e-17
-2.351879168e-17
-1.514661465e-17
-1.028734977e-17
-7.139641593e-18
-4.934101065e-18
-3.32842438e-18
-2.160694099e-18
-1.339575555e-18
-7.91724153e-19
-4.478585566e-19
-2.448117873e-19
-1.30887907e-19
-6.916475614e-20
-3.63845298e-20
-1.913892025e-20
-1.00930291e-20
-5.341970978e-21
-2.83473624e-21
-1.501000104e-21
-7.842611904e-22
-3.958352996e-22
-1.857823789e-22
-7.563962203e-23
-2.312762999e-23
-3.82026477e-24
-2.925431266e-25
-0.0173657304
-0.001389119007
-4.150536768e-05
-1.339844079e-06
-9.099476919e-08
-1.931025902e-08
-8.493462934e-09
-4.885712005e-09
-3.060209e-09
-1.98076677e-09
-1.299906192e-09
-8.56621168e-10
-5.632471576e-10
-3.677286772e-10
-2.374305756e-10
-1.510893517e-10
-9.445894531e-11
-5.785299594e-11
-3.460077895e-11
-2.013729488e-11
-1.136201328e-11
-6.19327102e-12
-3.250438113e-12
-1.639828921e-12
-7.950489086e-13
-3.709948408e-13
-1.668407015e-13
-7.244667606e-14
-3.043081371e-14
-1.241275078e-14
-4.948442819e-15
-1.955279026e-15
-7.864766043e-16
-3.356441335e-16
-1.589162335e-16
-8.556278829e-17
-5.177685173e-17
-3.385754328e-17
-2.294017064e-17
-1.55897237e-17
-1.037765085e-17
-6.654000035e-18
-4.070977435e-18
-2.372229173e-18
-1.325486548e-18
-7.193718863e-19
-3.842141729e-19
-2.039208424e-19
-1.082312343e-19
-5.764240621e-20
-3.083844265e-20
-1.65499413e-20
-8.865030953e-21
-4.689263423e-21
-2.402082453e-21
-1.151426583e-21
-4.84860651e-22
-1.572286715e-22
-2.925613765e-23
-2.976438738e-24
-0.03422048808
-0.003523536358
-0.0002089865232
-9.272327656e-06
-4.599231742e-07
-5.772907977e-08
-1.775796849e-08
-8.895222384e-09
-5.382917579e-09
-3.496357444e-09
-2.343115715e-09
-1.593830743e-09
-1.090633736e-09
-7.46280929e-10
-5.083479782e-10
-3.434811498e-10
-2.295252082e-10
-1.512918051e-10
-9.813225068e-11
-6.248084281e-11
-3.894572676e-11
-2.369826827e-11
-1.40372088e-11
-8.064404617e-12
-4.47633776e-12
-2.39278417e-12
-1.227400103e-12
-6.029243153e-13
-2.834187345e-13
-1.275607321e-13
-5.499973229e-14
-2.277369572e-14
-9.126295856e-15
-3.604410707e-15
-1.449326079e-15
-6.215563166e-16
-2.982778123e-16
-1.63108136e-16
-9.900917274e-17
-6.385677366e-17
-4.207936105e-17
-2.751433125e-17
-1.745945061e-17
-1.059219888e-17
-6.115961309e-18
-3.395300481e-18
-1.839773602e-18
-9.84714002e-19
-5.252777927e-19
-2.80991813e-19
-1.512179416e-19
-8.183198715e-20
-4.431753884e-20
-2.376946775e-20
-1.239674656e-20
-6.091436554e-21
-2.662505952e-21
-9.18556036e-22
-1.927552742e-22
-2.508677253e-23
-0.07934470308
-0.009236958689
-0.0008813955004
-4.841442267e-05
-2.761795351e-06
-2.241467687e-07
-4.186815034e-08
-1.625334362e-08
-8.943850803e-09
-5.654292545e-09
-3.796243041e-09
-2.627407067e-09
-1.84773217e-09
-1.308852017e-09
-9.282231179e-10
-6.561213952e-10
-4.606790822e-10
-3.204123073e-10
-2.202484319e-10
-1.493155756e-10
-9.960403635e-11
-6.526478937e-11
-4.189934496e-11
-2.628499538e-11
-1.606544494e-11
-9.537184825e-12
-5.48265049e-12
-3.04150072e-12
-1.621656572e-12
-8.276312533e-13
-4.02692771e-13
-1.862955027e-13
-8.196057041e-14
-3.444496885e-14
-1.39725733e-14
-5.579303232e-15
-2.266028839e-15
-9.832725966e-16
-4.768297812e-16
-2.613923296e-16
-1.573523669e-16
-9.953814685e-17
-6.369595036e-17
-4.006873861e-17
-2.423887061e-17
-1.398101164e-17
-7.764568302e-18
-4.214997079e-18
-2.264122013e-18
-1.214256008e-18
-6.543309223e-19
-3.552434602e-19
-1.938014235e-19
-1.052543376e-19
-5.593579569e-20
-2.824701524e-20
-1.285385061e-20
-4.731273411e-21
-1.119710501e-21
-1.79247006e-22
-0.1459921942
-0.01905923015
-0.002432963933
-0.0001777811211
-1.265653451e-05
-9.267474218e-07
-1.166198379e-07
-3.155805489e-08
-1.472656927e-08
-8.77352606e-09
-5.794913116e-09
-4.028574338e-09
-2.881124339e-09
-2.092458501e-09
-1.530215202e-09
-1.12015263e-09
-8.172971545e-10
-5.923662561e-10
-4.256705145e-10
-3.026201657e-10
-2.123945274e-10
-1.468665757e-10
-9.984276088e-11
-6.658150437e-11
-4.345101265e-11
-2.768017618e-11
-1.716960299e-11
-1.03436035e-11
-6.034974748e-12
-3.399541954e-12
-1.842815741e-12
-9.574246968e-13
-4.7454005e-13
-2.235635162e-13
-1.000572006e-13
-4.271543155e-14
-1.755266459e-14
-7.065245053e-15
-2.885545423e-15
-1.264284535e-15
-6.249736502e-16
-3.494283241e-16
-2.119416997e-16
-1.327348208e-16
-8.276979237e-17
-5.011069722e-17
-2.909172644e-17
-1.624990065e-17
-8.853076914e-18
-4.772903896e-18
-2.57429358e-18
-1.397695775e-18
-7.645082707e-19
-4.186450842e-19
-2.261309593e-19
-1.172883968e-19
-5.564092374e-20
-2.188863729e-20
-5.832351449e-21
-1.107162493e-21
-0.2225469824
-0.0324592237
-0.004728545173
-0.0005233894708
-4.692185062e-05
-4.473652231e-06
-4.605010211e-07
-7.856866927e-08
-2.619379539e-08
-1.351760904e-08
-8.493396568e-09
-5.831064884e-09
-4.193601877e-09
-3.094133545e-09
-2.312609919e-09
-1.738594837e-09
-1.307827625e-09
-9.802153949e-10
-7.298301689e-10
-5.386206729e-10
-3.931448603e-10
-2.832393713e-10
-2.01024702e-10
-1.402780371e-10
-9.604640373e-11
-6.438481841e-11
-4.216270252e-11
-2.691140386e-11
-1.670382886e-11
-1.005896497e-11
-5.862694731e-12
-3.29856632e-12
-1.786110398e-12
-9.276341186e-13
-4.605854559e-13
-2.180768124e-13
-9.829853768e-14
-4.218407612e-14
-1.734855933e-14
-6.989233007e-15
-2.901540738e-15
-1.33101825e-15
-7.00485241e-16
-4.110518819e-16
-2.536090597e-16
-1.571827022e-16
-9.533740902e-17
-5.585183474e-17
-3.152136864e-17
-1.729736941e-17
-9.374326341e-18
-5.08726168e-18
-2.781767988e-18
-1.529123651e-18
-8.354758904e-19
-4.43506639e-19
-2.191181026e-19
-9.222645331e-20
-2.761027262e-20
-6.024213434e-21
-0.3228379123
-0.05107210186
-0.008057435544
-0.001191160522
-0.0001158458028
-1.493967993e-05
-1.889889357e-06
-2.623274657e-07
-5.593871403e-08
-2.150753337e-08
-1.194470517e-08
-7.848470715e-09
-5.574928092e-09
-4.137083536e-09
-3.126286173e-09
-2.402393891e-09
-1.852378432e-09
-1.426037367e-09
-1.09227304e-09
-8.302920899e-10
-6.250678126e-10
-4.651874852e-10
-3.416392866e-10
-2.471461395e-10
-1.757709157e-10
-1.226474943e-10
-8.378565894e-11
-5.591728627e-11
-3.638049605e-11
-2.302850829e-11
-1.41554819e-11
-8.434262871e-12
-4.861363937e-12
-2.70451505e-12
-1.448758453e-12
-7.451882547e-13
-3.668588313e-13
-1.722126406e-13
-7.682458729e-14
-3.26278971e-14
-1.337992742e-14
-5.517096227e-15
-2.456358829e-15
-1.251888165e-15
-7.233981382e-16
-4.450054221e-16
-2.758616538e-16
-1.678273357e-16
-9.914070202e-17
-5.665965638e-17
-3.148792836e-17
-1.72362717e-17
-9.424847244e-18
-5.181518029e-18
-2.849857103e-18
-1.540915955e-18
-7.905359684e-19
-3.564326363e-19
-1.198111969e-19
-2.935879427e-20
-0.5004335129
-0.08552976844
-0.01455703117
-0.002466187107
-0.0002934091649
-3.814080149e-05
-6.24388101e-06
-9.60135868e-07
-1.594023776e-07
-3.95084736e-08
-1.654246452e-08
-9.595405738e-09
-6.525160566e-09
-4.794861247e-09
-3.629936962e-09
-2.821290088e-09
-2.207642338e-09
-1.729812092e-09
-1.35178515e-09
-1.050540534e-09
-8.101638393e-10
-6.189125802e-10
-4.676414623e-10
-3.489395217e-10
-2.566795734e-10
-1.857575883e-10
-1.319411066e-10
-9.174576781e-11
-6.230391999e-11
-4.123337129e-11
-2.654081212e-11
-1.658614491e-11
-1.005104273e-11
-5.899788647e-12
-3.34999797e-12
-1.836743741e-12
-9.697790171e-13
-4.912770501e-13
-2.377295019e-13
-1.094443609e-13
-4.793617543e-14
-2.01995638e-14
-8.496018719e-15
-3.822283025e-15
-1.964075939e-15
-1.148480361e-15
-7.151382813e-16
-4.471553091e-16
-2.735831783e-16
-1.626737331e-16
-9.403209667e-17
-5.303891092e-17
-2.94661139e-17
-1.629952635e-17
-9.015127971e-18
-4.944369538e-18
-2.619935558e-18
-1.261361329e-18
-4.75719424e-19
-1.297160375e-19
-0.7303623413
-0.1354266884
-0.02516346424
-0.0045924361
-0.0007274137759
-9.047800583e-05
-1.592225831e-05
-3.117090574e-06
-5.558615673e-07
-1.030252492e-07
-2.734370143e-08
-1.160671653e-08
-6.747881321e-09
-4.653422658e-09
-3.452985122e-09
-2.657871452e-09
-2.082905053e-09
-1.645554761e-09
-1.302836777e-09
-1.02973501e-09
-8.102771227e-10
-6.334323283e-10
-4.910809637e-10
-3.769463149e-10
-2.859890595e-10
-2.140800763e-10