/*--------------------------------*- C++ -*----------------------------------*\
  =========                 |
  \\      /  F ield         | OpenFOAM: The Open Source CFD Toolbox
   \\    /   O peration     | Website:  https://openfoam.org
    \\  /    A nd           | Version:  10
     \\/     M anipulation  |
\*---------------------------------------------------------------------------*/
FoamFile
{
    format      ascii;
    class       volScalarField;
    location    "3000";
    object      RR.CH3OH;
}
// * * * * * * * * * * * * * * * * * * * * * * * * * * * * * * * * * * * * * //

dimensions      [1 -3 -1 0 0 0 0];

internalField   nonuniform List<scalar> 
5170
(
4.790285475e-59
4.834151189e-59
5.06911409e-59
6.193861521e-59
1.202880618e-58
1.132495431e-58
1.149809866e-58
1.240484351e-58
1.643114113e-58
2.833835423e-58
2.934192388e-58
2.687407367e-58
2.534307459e-58
3.299153626e-58
5.377642663e-58
4.02666609e-56
2.772858278e-56
1.241835306e-56
1.162601324e-56
6.20305263e-56
1.665394309e-53
1.141841024e-53
5.296707616e-54
7.478343524e-54
5.336235155e-53
7.101762499e-51
4.938906931e-51
2.506241038e-51
5.22715644e-51
4.343393621e-50
3.10144921e-48
2.211786257e-48
1.300393317e-48
3.746872218e-48
3.401204261e-47
1.384563744e-45
1.027626303e-45
7.431402741e-46
2.744569944e-45
2.604035138e-44
6.349602069e-43
5.036516575e-43
4.553159467e-43
2.051271762e-42
1.963476582e-41
2.998203625e-40
2.605288979e-40
2.955540193e-40
1.569739742e-39
1.465770203e-38
1.456738512e-37
1.419295375e-37
2.017948153e-37
1.23002908e-36
1.087544785e-35
7.247753815e-35
8.097902894e-35
1.447949637e-34
9.833069048e-34
8.042319298e-33
3.682401628e-32
4.813541777e-32
1.092537343e-31
8.0783361e-31
5.938167434e-30
1.895937724e-29
2.945327504e-29
8.55556286e-29
6.810789061e-28
4.384050744e-27
9.83825368e-27
1.841329495e-26
6.831604854e-26
5.842305557e-25
3.238118665e-24
5.063842418e-24
1.150519365e-23
5.418828147e-23
4.900233992e-22
2.392365987e-21
2.562521963e-21
7.180553373e-21
4.13777092e-20
3.917049088e-19
1.769002215e-18
1.249369584e-18
4.377142033e-18
3.045438988e-17
2.961216762e-16
1.307247481e-15
5.564235261e-16
2.53177796e-15
2.097988173e-14
2.256985058e-13
1.701972607e-12
2.24907982e-13
2.131996949e-12
1.122575689e-10
1.295237317e-08
6.301624906e-07
1.398530942e-17
3.623631853e-18
2.047172471e-18
4.694381746e-18
1.419493085e-17
-4.809543151e-18
-4.272676929e-19
-2.297345322e-19
-8.23696393e-19
-4.98563441e-18
-1.983449037e-18
-2.280975187e-18
-1.845528559e-18
-2.517408896e-18
-1.980855521e-18
-9.633854449e-19
-1.274049876e-18
-1.170145398e-18
-1.042378529e-18
-8.966581269e-19
-5.33612481e-19
-5.555139138e-19
-5.94698871e-19
-5.583006819e-19
-4.878358309e-19
-3.300188262e-19
-3.503036719e-19
-3.555410757e-19
-3.784025382e-19
-3.0326444e-19
-2.213782035e-19
-2.533300269e-19
-2.569068994e-19
-2.827742435e-19
-2.015331905e-19
-1.570893411e-19
-1.964448348e-19
-2.045093309e-19
-2.228890384e-19
-1.355379808e-19
-1.136215666e-19
-1.543625969e-19
-1.645207022e-19
-1.681208357e-19
-9.015679276e-20
-8.387949459e-20
-1.203855087e-19
-1.303521771e-19
-1.194348941e-19
-5.943790503e-20
-6.221676596e-20
-9.230464622e-20
-1.002287476e-19
-8.652547959e-20
-4.097621172e-20
-4.618968022e-20
-7.041052954e-20
-7.494012512e-20
-5.935809223e-20
-2.795719941e-20
-7.407502817e-20
-6.495765185e-20
-5.78290898e-20
-4.170430468e-20
-2.044784891e-20
-2.464883304e-18
-8.441592371e-19
-3.243479206e-19
-1.193162419e-19
-1.876029797e-20
-4.159320407e-16
-1.229781207e-16
-2.854633893e-17
-6.586937827e-18
-8.543389117e-19
-7.299281243e-14
-2.068084284e-14
-4.593518366e-15
-9.82520802e-16
-1.12969421e-16
-1.299302575e-11
-3.423049142e-12
-7.156086569e-13
-1.420705627e-13
-1.525996316e-14
-2.419172255e-09
-5.551907697e-10
-1.069053759e-10
-1.950139752e-11
-2.033283283e-12
-4.93115575e-07
-8.595918611e-08
-1.477883606e-08
-2.371854501e-09
-2.649167569e-10
-0.0002993840865
-1.659683842e-05
-1.956267884e-06
-2.25943738e-07
-3.754584001e-08
5.107168417e-11
4.4957162e-09
2.397308256e-06
0.001155712004
0.1237685175
5.465526003e-10
3.772384221e-08
1.149691287e-05
0.001926863101
0.03118097909
2.710422098e-09
1.560631588e-07
3.081026208e-05
0.002061597381
0.01286881367
1.104986109e-08
5.628951214e-07
7.153850971e-05
0.002015311737
0.008808339094
4.208342932e-08
1.817646244e-06
0.0001379282777
0.001828389569
0.007821529342
1.552963737e-07
5.290512078e-06
0.0002320964273
0.001728641429
0.008248021865
5.886525388e-07
1.536321468e-05
0.0003791633971
0.001899794501
0.009694504311
2.205330598e-06
4.260942831e-05
0.0005679831451
0.002247166936
0.01132665472
7.652142463e-06
0.0001016836158
0.0007492621918
0.002706768574
0.01258197301
2.322757019e-05
0.0001992299362
0.0009182319909
0.003345508502
0.0137354159
6.221371118e-05
0.0003257551744
0.001110996037
0.004192908562
0.01498274666
0.000133554336
0.0004544281373
0.001367554772
0.005218431455
0.01610528571
0.0002356111463
0.0005871886492
0.001745258503
0.006386243026
0.01684246062
0.000363329883
0.0007624576752
0.002321567961
0.007709352813
0.01732915226
0.0005440313728
0.001074482441
0.003212825646
0.009247412306
0.01777457985
0.0009075442722
0.001718182099
0.004591381739
0.01103176736
0.01824616959
0.001795045738
0.003024988803
0.006625458209
0.01290097321
0.01838748876
0.003646544226
0.005255292293
0.009115871375
0.01418252237
0.01759709295
0.006423456153
0.008020587308
0.01114442728
0.01420203465
0.01599008561
0.008813931411
0.009870750575
0.01157875176
0.01301846814
0.0141140025
0.009328290713
0.009806827967
0.01057922961
0.01139710658
0.01250786116
0.008351592984
0.00856588458
0.009149155057
0.009963511909
0.01110196521
0.007113676641
0.007366687134
0.007939333753
0.008880961678
0.009870740776
0.006174506193
0.006465650974
0.007145506146
0.007972811816
0.009430194358
0.005662411198
0.006006128626
0.006516350809
0.007667462615
0.00888811254
0.005549096608
0.005938552612
0.006860563303
0.007580741281
0.008877304241
0.005796568954
0.006221409103
0.007189295297
0.008327803827
0.009839082553
0.006359803167
0.006817469302
0.00788219493
0.008768239595
0.01044661688
0.006814921745
0.007151925124
0.008704106442
0.01041989238
0.01242446866
0.007702088803
0.008504701183
0.009266029148
0.01050515248
0.01222718787
0.008680686169
0.008926521895
0.009686500335
0.01066296687
0.01103307309
0.009077215132
0.009305988392
0.00946399817
0.009465142836
0.009288007933
0.007010820211
0.006791249996
0.006159680976
0.0054998179
0.003946462022
0.000792528557
0.0004266922003
-0.0006277586612
-0.002161072334
-0.004115448827
-0.007945572071
-0.007977205947
-0.008433542334
-0.009193361307
-0.009995280011
-0.01070076385
-0.01071254423
-0.01071140577
-0.01064590544
-0.01047977054
-0.008922040652
-0.008839568654
-0.008661466058
-0.008386859846
-0.008029891189
-0.006028389434
-0.005959954327
-0.005814869369
-0.005607865972
-0.005354503661
-0.003737690158
-0.003701730745
-0.003628165573
-0.003532043355
-0.003441216089
-0.002337204278
-0.002339181045
-0.002352079725
-0.002396473381
-0.002499733246
-0.001813013297
-0.001832903723
-0.001864681767
-0.001878145181
-0.001832417163
-0.001008909039
-0.0009912372151
-0.0009527771146
-0.0008968997282
-0.0008278559388
-0.0004198819695
-0.0004132676705
-0.0003991583889
-0.0003788565683
-0.0003536477961
-0.0001758823317
-0.0001734886641
-0.0001683471662
-0.000160884635
-0.0001515095825
-7.437662335e-05
-7.348314104e-05
-7.156195501e-05
-6.875797233e-05
-6.520668686e-05
-3.173858312e-05
-3.139997666e-05
-3.066872629e-05
-2.959632603e-05
-2.82293779e-05
-1.367004537e-05
-1.353884212e-05
-1.325555398e-05
-1.283873743e-05
-1.230486468e-05
-5.942430159e-06
-5.891081969e-06
-5.779863905e-06
-5.61575912e-06
-5.404756247e-06
-2.609221111e-06
-2.588852198e-06
-2.544771092e-06
-2.479623904e-06
-2.39565632e-06
-1.159682997e-06
-1.151660707e-06
-1.134272915e-06
-1.108568441e-06
-1.075436752e-06
-5.253193946e-07
-5.22285234e-07
-5.157347603e-07
-5.060971937e-07
-4.93764999e-07
-2.471168872e-07
-2.461943382e-07
-2.442276031e-07
-2.414120323e-07
-2.379636468e-07
-1.266861841e-07
-1.26736242e-07
-1.268952317e-07
-1.272694097e-07
-1.280249517e-07
-7.792253631e-08
-7.85270915e-08
-7.990479468e-08
-8.213313292e-08
-8.538069613e-08
-6.375303283e-08
-6.479755733e-08
-6.715238837e-08
-7.089107168e-08
-7.62129619e-08
-6.898109797e-08
-7.050640076e-08
-7.393373648e-08
-7.934591793e-08
-8.699561412e-08
-8.874036053e-08
-9.089093168e-08
-9.571685794e-08
-1.033185896e-07
-1.14026866e-07
-1.238864007e-07
-1.269154982e-07
-1.337057904e-07
-1.443838955e-07
-1.593914933e-07
-1.799010592e-07
-1.842111817e-07
-1.93866558e-07
-2.09029793e-07
-2.303014275e-07
-2.68651179e-07
-2.749043534e-07
-2.889018919e-07
-3.108576174e-07
-3.416065262e-07
-4.153861116e-07
-4.2479428e-07
-4.457049507e-07
-4.757525474e-07
-5.170381872e-07
-5.875826909e-07
-5.984279296e-07
-6.224508705e-07
-6.622851001e-07
-7.173689026e-07
-8.710233574e-07
-8.862429238e-07
-9.200329802e-07
-9.722703146e-07
-1.043941061e-06
-1.256125523e-06
-1.275413428e-06
-1.318120223e-06
-1.383836165e-06
-1.473412791e-06
-1.760313719e-06
-1.783587633e-06
-1.834977571e-06
-1.913670706e-06
-2.020206095e-06
-2.385476328e-06
-2.411980368e-06
-2.470330159e-06
-2.559231187e-06
-2.678738862e-06
-3.111538068e-06
-3.139746748e-06
-3.201660569e-06
-3.295494613e-06
-3.420700207e-06
-3.876325867e-06
-3.904024244e-06
-3.964612402e-06
-4.055911035e-06
-4.176753724e-06
-4.588955345e-06
-4.613693695e-06
-4.667595611e-06
-4.748278209e-06
-4.854064415e-06
-4.985300224e-06
-5.005525383e-06
-5.049408836e-06
-5.114623896e-06
-5.199254155e-06
0.2098687054
0.1118456044
0.04613428901
0.03120076455
0.02579978862
0.0244750092
0.02577082563
0.0260404583
0.02487323871
0.02418513873
0.02428161576
0.02411772519
0.02319644071
0.02227470096
0.02176377754
0.02154210811
0.02098777345
0.0194878982
0.01747263833
0.01556214297
0.01365257475
0.01224963252
0.0116413554
0.01062857284
0.01036856105
0.0104314565
0.01164870555
0.01238337864
0.01258018391
0.01305532695
0.01159207811
0.008834719267
0.002559120155
-0.005564197597
-0.01043118204
-0.01028839586
-0.007747635988
-0.005171916352
-0.003404158016
-0.002616288133
-0.001756765203
-0.0007770747959
-0.0003347839768
-0.0001443939949
-6.248344634e-05
-2.717270557e-05
-1.18895751e-05
-5.239810194e-06
-2.329810864e-06
-1.049462102e-06
-4.84199564e-07
-2.354665428e-07
-1.289245593e-07
-8.834799483e-08
-8.094897168e-08
-9.374750062e-08
-1.234408599e-07
-1.725495234e-07
-2.489101704e-07
-3.684527191e-07
-5.52362743e-07
-7.646674595e-07
-1.105073244e-06
-1.549251801e-06
-2.10970391e-06
-2.77832266e-06
-3.524150653e-06
-4.275676138e-06
-4.939733607e-06
-5.266982411e-06
0.1161726364
-0.008406007509
-0.0002945997789
-1.905976768e-05
-2.698170037e-06
0.0551968683
0.05668600616
-0.01095664573
-0.0005025775831
3.873791579e-05
0.04248367347
0.05001999743
-0.02221079206
-0.001312165673
0.000140774744
0.0306634339
0.03365552946
-0.01266498223
-0.003979078597
-0.0003146294407
0.02507750026
0.03121817466
0.02348430558
-0.01319244372
-0.001159028252
0.02588490992
0.03640061226
0.05730052465
-0.02678525636
-0.002488816548
0.03018011224
0.04203733346
0.07029710695
-0.03870785209
-0.004158241722
0.02945820928
0.03585472766
0.05772205214
-0.03951137214
-0.006787176988
0.02629187784
0.03002434794
0.05241137135
-0.003868671108
-0.01842982096
0.02515554466
0.02924383509
0.05496426868
0.02582119918
-0.032437526
0.02549865122
0.03031282353
0.05600116282
0.04408568335
-0.04402936391
0.02504578562
0.02913908876
0.04949027422
0.05267638129
-0.05112439615
0.02338729053
0.02613860857
0.04193189461
0.05314872128
-0.02749301095
0.02219782813
0.02464211845
0.03967960293
0.05673807052
-0.003298196998
0.02187168915
0.02466769177
0.03981582892
0.05938636589
0.01392903657
0.02183994285
0.02519040286
0.03996101032
0.05893427075
0.02631263636
0.021400035
0.02466515367
0.03783731783
0.05356362646
0.03442766265
0.01995627214
0.02282549988
0.03391802958
0.04656522586
0.0374125578
0.01690596354
0.02091536414
0.03088326948
0.04243433192
0.03836075697
0.01555030105
0.01968099634
0.02926455841
0.04047160225
0.03851132503
0.01451325274
0.01917741516
0.02852017565
0.0392246426
0.03755732129
0.01335590987
0.01890592794
0.02795633934
0.03764975008
0.03523616313
0.01286165188
0.01866967863
0.02715515494
0.03538856883
0.03184544932
0.01262985295
0.01836068954
0.02603111496
0.0324903385
0.02770108447
0.01254636867
0.01798227884
0.0246641362
0.02919520378
0.02305477523
0.01263786809
0.01992724226
0.02321734297
0.02564931554
0.01791019955
0.01398450808
0.01884173607
0.02166191373
0.02166987849
0.01212134119
0.01480770469
0.01708524188
0.01959240324
0.01676448988
0.005629825724
0.01481128604
0.01622471783
0.01629843878
0.01054841409
-0.001075921379
0.01552913821
0.01406912676
0.01111150725
0.003283673435
-0.006941667159
0.01161119298
0.009701001446
0.004085046033
-0.003859531149
-0.01092788718
0.007259909877
0.002785960804
-0.003437804026
-0.009219513952
-0.0126975332
-0.0001049918004
-0.004901756942
-0.009137939245
-0.01166542925
-0.01264747662
-0.007530616147
-0.01005742139
-0.0113592248
-0.01150188741
-0.01147603773
-0.01089668644
-0.01103422304
-0.01054985809
-0.009881092545
-0.01002188821
-0.009949320342
-0.009188550151
-0.008367177589
-0.00795717109
-0.008705801969
-0.007332474745
-0.006663518528
-0.006231701433
-0.006551649148
-0.006622662957
-0.004928557337
-0.004684270921
-0.004905528206
-0.005230374478
-0.003953031953
-0.003400354952
-0.003671629976
-0.003876602028
-0.003074582422
-0.00216340656
-0.002747975505
-0.00267320947
-0.002121478414
-0.001570848686
-0.001138787379
-0.001590297292
-0.00129123654
-0.00101247319
-0.000773675006
-0.0005783086338
-0.0007025218155
-0.0005840111499
-0.0004713953687
-0.0003707756408
-0.000285141547
-0.0003069413298
-0.0002610856076
-0.0002159645006
-0.0001742292096
-0.0001374833904
-0.000133844902
-0.0001160081231
-9.796916345e-05
-8.080133812e-05
-6.524129045e-05
-5.843253164e-05
-5.144268706e-05
-4.421635296e-05
-3.717476284e-05
-3.063371123e-05
-2.559672118e-05
-2.283337593e-05
-1.992509293e-05
-1.703537146e-05
-1.429534029e-05
-1.126895767e-05
-1.016660527e-05
-8.989716133e-06
-7.801859489e-06
-6.656918011e-06
-4.992967451e-06
-4.550088512e-06
-4.072140002e-06
-3.584256601e-06
-3.10889721e-06
-2.231213587e-06
-2.053212111e-06
-1.860064463e-06
-1.662149847e-06
-1.46935738e-06
-1.010602913e-06
-9.405712316e-07
-8.650894109e-07
-7.889162857e-07
-7.170323609e-07
-4.699675446e-07
-4.450053068e-07
-4.193953515e-07
-3.958330678e-07
-3.774979297e-07
-2.318725369e-07
-2.267284711e-07
-2.235757442e-07
-2.244630644e-07
-2.320851868e-07
-1.304712556e-07
-1.352222526e-07
-1.437774946e-07
-1.581624831e-07
-1.81190408e-07
-9.305408544e-08
-1.042054474e-07
-1.208332517e-07
-1.452583014e-07
-1.807643779e-07
-8.838403481e-08
-1.053361898e-07
-1.296881154e-07
-1.642856853e-07
-2.131633244e-07
-1.043094448e-07
-1.280795698e-07
-1.617547518e-07
-2.089528824e-07
-2.747859211e-07
-1.38138254e-07
-1.709954007e-07
-2.171885329e-07
-2.814147702e-07
-3.702770368e-07
-1.930625292e-07
-2.387054802e-07
-3.025113538e-07
-3.906817883e-07
-5.118859872e-07
-2.778851672e-07
-3.421031385e-07
-4.314434218e-07
-5.542429665e-07
-7.220932669e-07
-4.102080271e-07
-5.024269538e-07
-6.30181247e-07
-8.049919408e-07
-1.029057397e-06
-6.057588183e-07
-7.181358484e-07
-8.673666211e-07
-1.062074015e-06
-1.321925732e-06
-8.372628847e-07
-9.925349704e-07
-1.198032931e-06
-1.463058046e-06
-1.796509378e-06
-1.198286339e-06
-1.394739563e-06
-1.649423265e-06
-1.970641906e-06
-2.366826803e-06
-1.664204631e-06
-1.903021022e-06
-2.206617628e-06
-2.580773788e-06
-3.030136117e-06
-2.24453291e-06
-2.52044696e-06
-2.864070056e-06
-3.277362549e-06
-3.759913848e-06
-2.92740023e-06
-3.227704405e-06
-3.593717984e-06
-4.022681109e-06
-4.5084937e-06
-3.677974224e-06
-3.982706043e-06
-4.345570577e-06
-4.758919638e-06
-5.21124636e-06
-4.421645937e-06
-4.705521238e-06
-5.034703741e-06
-5.397325519e-06
-5.777694245e-06
-5.06495239e-06
-5.30308348e-06
-5.570141578e-06
-5.851510207e-06
-6.129259794e-06
-5.364894518e-06
-5.546357825e-06
-5.741643972e-06
-5.935403139e-06
-6.109636384e-06
1.518353542e-06
7.835168527e-09
7.045317985e-11
2.67282089e-13
-2.479994279e-13
-1.428586469e-13
-1.817684555e-14
2.176920253e-15
2.047911586e-15
1.027002558e-15
5.498276439e-16
3.238331065e-16
1.965210422e-16
1.181526234e-16
6.948960428e-17
3.991983107e-17
2.246554812e-17
1.243850567e-17
6.81193465e-18
3.711956809e-18
2.025713462e-18
1.114183063e-18
6.209955413e-19
3.52012306e-19
2.032587763e-19
1.194807835e-19
7.131357438e-20
4.304645099e-20
2.6157672e-20
1.593139352e-20
9.691523195e-21
5.875478772e-21
3.545791042e-21
2.128741082e-21
1.269805521e-21
7.502612484e-22
4.365485619e-22
2.480710208e-22
1.363419343e-22
7.179724673e-23
3.594484111e-23
1.701261908e-23
7.581103206e-24
3.16586143e-24
1.226325549e-24
4.280835122e-25
1.223787803e-25
1.601970128e-26
-1.491119113e-26
-1.96459596e-26
-1.65757782e-26
-1.207880991e-26
-8.106243791e-27
-5.076036054e-27
-2.929023632e-27
-1.495651591e-27
-6.136454656e-28
-1.632496994e-28
-1.434106453e-29
-1.447994858e-31
1.828979728e-05
2.496454124e-07
-2.996166768e-10
-3.739639548e-10
-6.887432342e-11
-1.158447391e-11
-1.561908326e-12
-9.830684202e-14
7.400985717e-14
7.26001005e-14
5.045663336e-14
3.10561886e-14
1.770634757e-14
9.603118205e-15
5.039927725e-15
2.592576737e-15
1.319816249e-15
6.697330221e-16
3.409676759e-16
1.751526918e-16
9.128791667e-17
4.851589054e-17
2.639560394e-17
1.472868648e-17
8.427791786e-18
4.934231905e-18
2.944038564e-18
1.780766989e-18
1.085837278e-18
6.639583183e-19
4.05504656e-19
2.467574291e-19
1.494343073e-19
9.00145451e-20
5.388147897e-20
3.195936303e-20
1.867682335e-20
1.066258056e-20
5.887554678e-21
3.114067166e-21
1.565426191e-21
7.438056553e-22
3.327848171e-22
1.396080423e-22
5.439240698e-23
1.914510217e-23
5.555509446e-24
7.799700602e-25
-6.348368571e-25
-8.686009952e-25
-7.427060302e-25
-5.459988299e-25
-3.689641287e-25
-2.323674864e-25
-1.34739555e-25
-6.917196712e-26
-2.875831827e-26
-8.00799879e-27
-8.84275604e-28
-1.721413552e-29
3.431198032e-05
1.93012428e-07
-1.088728683e-08
-2.31206201e-09
-4.999814822e-10
-1.159791358e-10
-2.719156121e-11
-6.171842428e-12
-5.709323442e-13
8.477390153e-13
9.646523617e-13
7.215041841e-13
4.51194065e-13
2.539398048e-13
1.328941736e-13
6.625085168e-14
3.204861787e-14
1.528996513e-14
7.300810875e-15
3.531443905e-15
1.747128284e-15
8.89830735e-16
4.684022037e-16
2.550815889e-16
1.434892014e-16
8.307051799e-17
4.923207318e-17
2.967926612e-17
1.808273414e-17
1.107047518e-17
6.779820817e-18
4.14218165e-18
2.521312602e-18
1.528164674e-18
9.214327321e-19
5.511657122e-19
3.251371071e-19
1.874793741e-19
1.045692952e-19
5.585513059e-20
2.834324564e-20
1.358953876e-20
6.135408736e-21
2.599267905e-21
1.024876982e-21
3.670016241e-22
1.100846103e-22
1.806343888e-23
-1.021199663e-23
-1.561361994e-23
-1.377276385e-23
-1.031001028e-23
-7.059468169e-24
-4.492466605e-24
-2.627297759e-24
-1.359933605e-24
-5.741190424e-25
-1.653142115e-25
-2.049077077e-26
-5.361260596e-28
0.0001312768297
2.110569386e-06
-2.72198392e-08
-7.253692168e-09
-2.089301528e-09
-7.224312976e-10
-2.685672828e-10
-1.002535332e-10
-3.246096455e-11
-5.483760234e-12
3.685149937e-12
5.321513121e-12
4.321013876e-12
2.851938074e-12
1.665044569e-12
8.94742642e-13
4.527204684e-13
2.201106674e-13
1.046736378e-13
4.957954055e-14
2.376433553e-14
1.167476849e-14
5.92780509e-15
3.123310747e-15
1.707823373e-15
9.658557894e-16
5.618169051e-16
3.338045743e-16
2.011636372e-16
1.222038201e-16
7.44881572e-17
4.542868148e-17
2.768803569e-17
1.685844094e-17
1.024642694e-17
6.197784126e-18
3.706330802e-18
2.16960723e-18
1.229093295e-18
6.667166076e-19
3.43471282e-19
1.671561691e-19
7.66273471e-20
3.300574499e-20
1.327521662e-20
4.887869075e-21
1.543563472e-21
3.101968009e-22
-8.926527681e-23
-1.802876875e-22
-1.684134378e-22
-1.298473534e-22
-9.073164101e-23
-5.865978709e-23
-3.476013702e-23
-1.822127518e-23
-7.841413197e-24
-2.339862342e-24
-3.189355949e-25
-1.09823408e-26
0.0003088792025
1.921748137e-05
3.512918976e-08
-2.072396804e-08
-6.910992861e-09
-3.177208337e-09
-1.542440927e-09
-7.310299329e-10
-3.247102386e-10
-1.252728127e-10
-3.318348324e-11
3.842771822e-12
1.447622196e-11
1.41123238e-11
1.03984247e-11
6.636504402e-12
3.84620791e-12
2.081698079e-12
1.071724027e-12
5.349061853e-13
2.630734035e-13
1.296984303e-13
6.494301818e-14
3.336704356e-14
1.768214717e-14
9.67504134e-15
5.450762863e-15
3.145477396e-15
1.847709303e-15
1.098295127e-15
6.575461894e-16
3.953844823e-16
2.385573182e-16
1.444757452e-16
8.7837625e-17
5.347597759e-17
3.236996083e-17
1.926039856e-17
1.11165513e-17
6.148553494e-18
3.229576072e-18
1.602380079e-18
7.492707349e-19
3.298838935e-19
1.363098111e-19
5.214438165e-20
1.763136854e-20
4.394888874e-21
-1.867814607e-22
-1.437817006e-21
-1.505341703e-21
-1.217758764e-21
-8.763256586e-22
-5.791050384e-22
-3.496152856e-22
-1.867031665e-22
-8.233047831e-23
-2.560740474e-23
-3.834331139e-24
-1.79316767e-25
6.462460296e-05
7.684222984e-05
1.473643725e-06
-6.768521805e-08
-2.258175605e-08
-1.07412682e-08
-5.753928846e-09
-3.080081828e-09
-1.601059219e-09
-7.872261921e-10
-3.497293224e-10
-1.259780006e-10
-2.15639251e-11
1.922265026e-11
2.893579492e-11
2.569506169e-11
1.875257031e-11
1.220075191e-11
7.320298053e-12
4.142112627e-12
2.245800795e-12
1.186607341e-12
6.193002573e-13
3.237195547e-13
1.71058522e-13
9.203137096e-14
5.051323219e-14
2.826135555e-14
1.606304514e-14
9.240210328e-15
5.362567088e-15
3.13416182e-15
1.844528853e-15
1.094812069e-15
6.567316189e-16
3.978997097e-16
2.41901531e-16
1.457132197e-16
8.563888654e-17
4.839030252e-17
2.599016722e-17
1.317932061e-17
6.294597971e-18
2.83335238e-18
1.20279063e-18
4.78526374e-19
1.733530824e-19
5.156126402e-20
6.496404294e-21
-7.814016017e-21
-1.047707224e-20
-9.180683861e-21
-6.895986428e-21
-4.693778809e-21
-2.905699062e-21
-1.593112845e-21
-7.266097933e-22
-2.386566125e-22
-3.986119933e-23
-2.593260871e-24
-0.000541879098
0.0001586951671
1.066538324e-05
-8.297997721e-08
-6.615233268e-08
-2.689758394e-08
-1.442287719e-08
-8.242948548e-09
-4.718448751e-09
-2.640066348e-09
-1.414327547e-09
-7.04732685e-10
-3.086499594e-10
-1.006436874e-10
-2.072995458e-12
3.615719163e-11
4.385408433e-11
3.829341282e-11
2.873866743e-11
1.959606594e-11
1.246049537e-11
7.521071068e-12
4.366782348e-12
2.470633648e-12
1.376623805e-12
7.633849657e-13
4.240007559e-13
2.368287764e-13
1.330453336e-13
7.507867658e-14
4.24791302e-14
2.408614881e-14
1.370705508e-14
7.857028977e-15
4.560584991e-15
2.693507483e-15
1.61528148e-15
9.720713375e-16
5.772515868e-16
3.323432927e-16
1.827105254e-16
9.498298761e-17
4.646702445e-17
2.138872928e-17
9.295736534e-18
3.818934169e-18
1.462532117e-18
4.931339261e-19
1.151709624e-19
-1.861903022e-20
-5.525738419e-20
-5.568434937e-20
-4.459424663e-20
-3.161911286e-20
-2.024092085e-20
-1.149844354e-20
-5.490919134e-21
-1.93792332e-21
-3.709300549e-22
-3.378622141e-23
-0.0009150058876
0.0001465400047
5.854416218e-05
2.17826236e-06
-1.54700203e-07
-6.114340328e-08
-2.920458866e-08
-1.66561062e-08
-9.966307582e-09
-5.984727981e-09
-3.532902534e-09
-2.016245168e-09
-1.089564262e-09
-5.383024995e-10
-2.242970963e-10
-5.713378127e-11
2.234144225e-11
5.222528773e-11
5.635344308e-11
4.893287532e-11
3.786186486e-11
2.710865018e-11
1.829617622e-11
1.178196343e-11
7.310248155e-12
4.41076443e-12
2.608901871e-12
1.52305834e-12
8.810423189e-13
5.06113522e-13
2.886400466e-13
1.633776089e-13
9.184723372e-14
5.145398331e-14
2.889596078e-14
1.641719078e-14
9.510295489e-15
5.595435607e-15
3.296299219e-15
1.910799608e-15
1.071108028e-15
5.719295745e-16
2.880568064e-16
1.362899323e-16
6.074039543e-17
2.565045576e-17
1.023887757e-17
3.752915367e-18
1.133368649e-18
1.39170639e-19
-1.890458007e-19
-2.546300334e-19
-2.251113909e-19
-1.688759744e-19
-1.12889311e-19
-6.693325858e-20
-3.367827888e-20
-1.282694493e-20
-2.816156377e-21
-3.446388871e-22
-0.002166920425
-0.0001946299639
0.0002170181686
2.318964716e-05
3.001664289e-07
-1.272781936e-07
-5.545045247e-08
-2.942399137e-08
-1.760850893e-08
-1.094479315e-08
-6.836994522e-09
-4.219399093e-09
-2.537263717e-09
-1.463225424e-09
-7.901512895e-10
-3.813906935e-10
-1.446799233e-10
-1.727488819e-11
4.322484909e-11
6.493117537e-11
6.590213576e-11
5.725085998e-11
4.542169531e-11
3.381429476e-11
2.395083153e-11
1.62836646e-11
1.069022992e-11
6.812080676e-12
4.233118204e-12
2.575548514e-12
1.538117387e-12
9.027415354e-13
5.208943863e-13
2.959616735e-13
1.66155469e-13
9.273624027e-14
5.196929656e-14
2.949147072e-14
1.688443484e-14
9.633906624e-15
5.405378694e-15
2.942796086e-15
1.531449545e-15
7.518459883e-16
3.46172905e-16
1.505315119e-16
6.21889269e-17
2.411540462e-17
8.32385638e-18
2.067797227e-18
-2.11353197e-19
-8.766529069e-19
-9.17756487e-19
-7.449778323e-19
-5.263506704e-19
-3.284777519e-19
-1.752561621e-19
-7.237292126e-20
-1.824879756e-20
-2.881883515e-21
-0.004106324632
-0.0007501158469
0.0002625370449
8.47358724e-05
5.571249114e-06
-1.517288487e-07
-1.068128321e-07
-5.040209676e-08
-2.872244513e-08
-1.78856294e-08
-1.149939044e-08
-7.446182221e-09
-4.785375141e-09
-3.015732863e-09
-1.839802102e-09
-1.06789954e-09
-5.727497732e-10
-2.660815835e-10
-8.566446143e-11
1.241412692e-11
5.881357696e-11
7.441029866e-11
7.309783315e-11
6.367924848e-11
5.144544761e-11
3.934009236e-11
2.879659488e-11
2.0316275e-11
1.387460138e-11
9.200039169e-12
5.93423802e-12
3.727578316e-12
2.282270044e-12
1.363763065e-12
7.972108773e-13
4.572172068e-13
2.581821848e-13
1.445317815e-13
8.070529171e-14
4.49379448e-14
2.475988394e-14
1.339587933e-14
7.067765182e-15
3.596166936e-15
1.734400847e-15
7.857017791e-16
3.362876262e-16
1.361490436e-16
5.089915002e-17
1.604378647e-17
2.605256605e-18
-1.982197164e-18
-3.038303359e-18
-2.775436583e-18
-2.103590905e-18
-1.393877078e-18
-7.934606142e-19
-3.568424533e-19
-1.033517982e-19
-2.025013376e-20
-0.006226998096
-0.001091950488
-3.678263956e-08
0.000150034423
2.300591138e-05
7.370127936e-07
-1.916279505e-07
-8.682702085e-08
-4.520378557e-08
-2.740212109e-08
-1.775011784e-08
-1.181781923e-08
-7.932131126e-09
-5.29835839e-09
-3.484282054e-09
-2.231673139e-09
-1.374080528e-09
-7.971739503e-10
-4.202967787e-10
-1.833051253e-10
-4.217795468e-11
3.498419505e-11
7.102190056e-11
8.195559963e-11
7.871869769e-11
6.850786861e-11
5.583123478e-11
4.330995994e-11
3.227749159e-11
2.324364275e-11
1.623405838e-11
1.102080686e-11
7.277728815e-12
4.676533694e-12
2.926321977e-12
1.784995104e-12
1.062309048e-12
6.169786563e-13
3.502892386e-13
1.949743319e-13
1.066656802e-13
5.723664682e-14
3.003244886e-14
1.537952067e-14
7.647629774e-15
3.641869075e-15
1.639570577e-15
6.941900473e-16
2.742937912e-16
9.735670671e-17
2.654027522e-17
3.154872423e-19
-7.773851295e-18
-8.805673698e-18
-7.333375348e-18
-5.208431365e-18
-3.181452147e-18
-1.564037066e-18
-5.196874285e-19
-1.220220132e-19
-0.008589538215
-0.001429274991
-0.0003422217871
0.00017423203
6.480180491e-05
7.003164143e-06
-1.059669362e-07
-1.623322018e-07
-7.291159853e-08
-4.040091185e-08
-2.555999822e-08
-1.715057332e-08
-1.181059488e-08
-8.19727695e-09
-5.661923659e-09
-3.858959678e-09
-2.573065589e-09
-1.660623094e-09
-1.022507907e-09
-5.862423119e-10
-2.9688405e-10
-1.129404329e-10
-3.05503444e-12
5.632038188e-11
8.260422602e-11
8.839829468e-11
8.255888266e-11
7.107387613e-11
5.777532257e-11
4.492088802e-11
3.366755183e-11
2.444817605e-11
1.725686309e-11
1.186301705e-11
7.951041967e-12
5.199866347e-12
3.317566236e-12
2.061812111e-12
1.244766294e-12
7.275140957e-13
4.113047274e-13
2.253106808e-13
1.197227909e-13
6.175244321e-14
3.096523539e-14
1.509118349e-14
7.094361793e-15
3.174959858e-15
1.331026075e-15
5.112127007e-16
1.689786462e-16
3.565179886e-17
-1.10204472e-17
-2.322060608e-17
-2.242516226e-17
-1.732971527e-17
-1.143057752e-17
-6.167435426e-18
-2.347990885e-18
-6.423011673e-19
-0.01651686213
-0.002665450933
-0.0006639854345
0.0001277003997
0.0001249355153
2.787759915e-05
2.177084832e-06
-2.221018876e-07
-1.244979243e-07
-5.864617857e-08
-3.416165838e-08
-2.238785211e-08
-1.545915998e-08
-1.09550453e-08
-7.775091167e-09
-5.534684892e-09
-3.888885918e-09
-2.675421321e-09
-1.786031223e-09
-1.143137034e-09
-6.878519206e-10
-3.742936327e-10
-1.662709134e-10
-3.526797504e-11
4.097469743e-11
7.959518293e-11
9.354620495e-11
9.238250348e-11
8.292419084e-11
6.982192885e-11
5.604455011e-11
4.330117923e-11
3.240724365e-11
2.359665807e-11
1.676601849e-11
1.164567829e-11
7.912078205e-12
5.251857049e-12
3.395605047e-12
2.130083825e-12
1.290060324e-12
7.513444177e-13
4.197420955e-13
2.246854267e-13
1.156334514e-13
5.744142897e-14
2.757636882e-14
1.277841538e-14
5.657722453e-15
2.340543174e-15
8.69892694e-16
2.605857802e-16
2.969399896e-17
-4.518708213e-17
-5.931738383e-17
-5.145070168e-17
-3.698152488e-17
-2.200788193e-17
-9.5994669e-18
-2.999811923e-18
-0.02631765475
-0.004530546693
-0.0009971012563
-9.526468511e-05
0.000170639034
6.146426646e-05
1.077408839e-05
4.701213589e-07
-1.980773387e-07
-8.871361709e-08
-4.284254204e-08
-2.548929013e-08
-1.705381838e-08
-1.207663632e-08
-8.666288232e-09
-6.311440788e-09
-4.564611529e-09
-3.255333532e-09
-2.272229302e-09
-1.538811241e-09
-9.989356525e-10
-6.092751228e-10
-3.353817903e-10
-1.494942787e-10
-2.927125304e-11
4.309288722e-11
8.157267685e-11
9.696690386e-11
9.75075657e-11
8.933926471e-11
7.687792542e-11
6.312039128e-11
4.993526395e-11
3.832460307e-11
2.867606353e-11
2.098969306e-11
1.505676156e-11
1.058633749e-11
7.282546393e-12
4.884070897e-12
3.177339729e-12
1.992517215e-12
1.197622115e-12
6.86677882e-13
3.747635739e-13
1.948493676e-13
9.678423944e-14
4.605909828e-14
2.103473819e-14
9.148360111e-15
3.699071177e-15
1.310076188e-15
3.324416147e-16
-2.600134084e-17
-1.297469455e-16
-1.357834861e-16
-1.078901683e-16
-7.095962228e-17
-3.544367742e-17
-1.256883561e-17
-0.03512454635
-0.006580892055
-0.001372102144
-0.000395490787
0.0001420015454
9.652985908e-05
2.604960834e-05
4.13668267e-06
2.130964937e-08
-1.392577461e-07
-5.722132233e-08
-2.688671607e-08
-1.566109893e-08
-1.045769019e-08
-7.387155124e-09
-5.346319354e-09
-3.892200734e-09
-2.818422737e-09
-2.012066622e-09