/*--------------------------------*- C++ -*----------------------------------*\
  =========                 |
  \\      /  F ield         | OpenFOAM: The Open Source CFD Toolbox
   \\    /   O peration     | Website:  https://openfoam.org
    \\  /    A nd           | Version:  10
     \\/     M anipulation  |
\*---------------------------------------------------------------------------*/
FoamFile
{
    format      ascii;
    class       volScalarField;
    location    "3000";
    object      RR.CH3O;
}
// * * * * * * * * * * * * * * * * * * * * * * * * * * * * * * * * * * * * * //

dimensions      [1 -3 -1 0 0 0 0];

internalField   nonuniform List<scalar> 
5170
(
3.562702699e-53
3.570741664e-53
3.621685555e-53
3.880671361e-53
5.300946353e-53
5.529370344e-53
5.554708399e-53
5.701490802e-53
6.395541873e-53
8.377406571e-53
5.404013879e-53
6.000490731e-53
6.960546586e-53
8.293635048e-53
9.400215793e-53
-7.149180495e-51
-4.876199253e-51
-2.091726944e-51
-1.901707168e-51
-1.08866226e-50
-3.015387401e-48
-2.067093359e-48
-9.581087609e-49
-1.349101806e-48
-9.559989895e-48
-1.285569825e-45
-8.938562202e-46
-4.531542945e-46
-9.418370136e-46
-7.762582924e-45
-5.610044094e-43
-3.999597525e-43
-2.348610249e-43
-6.737915994e-43
-6.06112285e-42
-2.501736837e-40
-1.856081672e-40
-1.340165089e-40
-4.923869793e-40
-4.625831477e-39
-1.145870038e-37
-9.084708624e-38
-8.197447851e-38
-3.670506862e-37
-3.476961559e-36
-5.404149161e-35
-4.693257467e-35
-5.31224587e-35
-2.801683717e-34
-2.588305797e-33
-2.623243403e-32
-2.55411793e-32
-3.621660171e-32
-2.190494552e-31
-1.916360039e-30
-1.304504047e-29
-1.456392925e-29
-2.596061884e-29
-1.74834151e-28
-1.415593581e-27
-6.628407035e-27
-8.656686596e-27
-1.958098238e-26
-1.435238887e-25
-1.045277735e-24
-3.41510847e-24
-5.3000922e-24
-1.533851126e-23
-1.210127382e-22
-7.72507755e-22
-1.774476461e-21
-3.317422934e-21
-1.225946721e-20
-1.038867966e-19
-5.715399832e-19
-9.14980748e-19
-2.076416388e-18
-9.737513484e-18
-8.72419043e-17
-4.230904965e-16
-4.6403081e-16
-1.298541169e-15
-7.447599693e-15
-6.983321412e-14
-3.133818839e-13
-2.267577663e-13
-7.932892866e-13
-5.490078026e-12
-5.284749235e-11
-2.317096258e-10
-1.012414853e-10
-4.597867583e-10
-3.760518122e-09
-3.639149826e-08
-1.712035898e-07
-3.86081645e-08
-2.558034092e-07
-2.496758715e-06
-2.268794727e-05
-0.0001243191064
6.825947559e-18
1.281522768e-18
6.550709964e-19
1.643912909e-18
6.779824274e-18
-2.866228828e-18
-1.912164938e-19
-1.614713447e-19
-3.372361634e-19
-2.817680633e-18
-8.784666594e-19
-9.116532391e-19
-7.310593995e-19
-1.036495715e-18
-9.273043594e-19
-4.0226662e-19
-5.016990941e-19
-4.593361592e-19
-5.059399315e-19
-3.778475023e-19
-2.147539619e-19
-2.938130931e-19
-3.030299873e-19
-2.424215561e-19
-1.849974613e-19
-1.296696636e-19
-1.432960219e-19
-1.443185493e-19
-1.710305466e-19
-1.11759695e-19
-8.358676653e-20
-1.042893581e-19
-1.077838462e-19
-1.243596685e-19
-7.040398124e-20
-5.603062869e-20
-7.771789729e-20
-8.254731545e-20
-8.782623189e-20
-4.341046825e-20
-3.831183702e-20
-5.728735407e-20
-6.218741284e-20
-5.811390644e-20
-2.604878111e-20
-2.654079002e-20
-4.165999012e-20
-4.532004337e-20
-3.700783195e-20
-1.571520444e-20
-1.848322968e-20
-2.974567928e-20
-3.205054927e-20
-2.350357254e-20
-9.835651274e-21
-1.295746193e-20
-2.100348823e-20
-2.218640336e-20
-1.505364408e-20
-6.439211899e-21
-1.084930759e-20
-1.521149646e-20
-1.533776293e-20
-9.930899818e-21
-4.451243294e-21
-2.529922235e-19
-9.783704394e-20
-3.245667238e-20
-1.068298348e-20
-3.612804594e-21
-4.130114668e-17
-1.21953253e-17
-2.836187281e-18
-6.639746514e-19
-8.811207384e-20
-7.257189541e-15
-2.049454519e-15
-4.534546483e-16
-9.643056978e-17
-1.07414205e-17
-1.298228896e-12
-3.401948453e-13
-7.067630171e-14
-1.388318935e-14
-1.394770947e-15
-2.433966964e-10
-5.545315238e-11
-1.058273651e-11
-1.890514422e-12
-1.701382161e-13
-4.961876479e-08
-8.589222516e-09
-1.460464008e-09
-2.239021349e-10
-1.79030878e-11
-2.960708859e-05
-1.628370989e-06
-1.892991558e-07
-2.200374757e-08
-1.534237823e-09
-1.924720664e-06
-1.793868319e-05
-0.0003278711961
-0.002089631213
0.2409971183
-9.42322762e-06
-7.612696958e-05
-0.001021390246
-0.002276800007
0.1013439317
-2.656036738e-05
-0.0001876639089
-0.001853896643
-0.001907794275
0.0335494091
-5.888888965e-05
-0.0003661337992
-0.002629118965
-0.0008313639446
0.01299045313
-0.0001109825722
-0.0006024477345
-0.003054419502
0.0002084025727
0.006793525351
-0.0001884592324
-0.0008761850801
-0.00298597077
0.001651829321
0.007091129154
-0.0003080337842
-0.00119958272
-0.00228014019
0.00458438886
0.01108857902
-0.0004867570277
-0.00150441175
-0.0008468839832
0.007403294569
0.01251473377
-0.0007249208624
-0.001601998427
0.0009269840378
0.008825186701
0.01049882655
-0.0009801012213
-0.001301273717
0.002656662431
0.009545225317
0.008519725545
-0.001165561157
-0.0005421943446
0.004138168456
0.01005823371
0.007182500764
-0.001087926867
0.0004549118587
0.005188180989
0.01006831619
0.005357233736
-0.0006576092225
0.001474632555
0.005859704278
0.009400144379
0.002843864296
6.878713569e-05
0.002374198243
0.006197266554
0.008203660069
0.0005071512214
0.0009500159201
0.00305693626
0.006232756394
0.006771954466
-0.001232174988
0.001656111952
0.003385955365
0.005803755073
0.004808033479
-0.002555659239
0.001855217614
0.003146906889
0.004452628442
0.001961497829
-0.00374089388
0.001157420222
0.001868085459
0.001736319642
-0.001467167285
-0.004560990326
-0.0005522789
-0.0005492554269
-0.00167303684
-0.003810892438
-0.004392116333
-0.002763488667
-0.003034393241
-0.003708671271
-0.004048298003
-0.003516570524
-0.003691938274
-0.003676821924
-0.003548754686
-0.003123867715
-0.002483243348
-0.002938968929
-0.002936407356
-0.002501482449
-0.00208810729
-0.001734184826
-0.001916219006
-0.001804517562
-0.001589001683
-0.001390084221
-0.001075586081
-0.001168786333
-0.001103818468
-0.0009858339089
-0.0008416649947
-0.0006699106135
-0.0007019314663
-0.0006660895338
-0.0006072835627
-0.0005193799672
-0.0004402303307
-0.0004319364532
-0.0004153398526
-0.0003862651899
-0.0003343892364
-0.0003013212367
-0.0002804338946
-0.0002746578489
-0.0002750936667
-0.0002519602349
-0.0002164938327
-0.0002006504821
-0.0002019745931
-0.0002103517402
-0.0001827934817
-0.0001710880777
-0.0001374489447
-0.0001330002607
-0.0001719933853
-0.000199297112
-0.0002184314647
-0.0001015205143
-0.0001294658459
-0.0001220286329
-0.0001163834176
-0.0001121645836
-8.049976593e-05
-7.531823059e-05
-7.38653639e-05
-6.281601826e-05
-2.667697429e-05
-4.061968199e-05
-3.834239552e-05
-2.001493896e-05
8.338073544e-06
4.694909848e-05
3.540286394e-05
4.440842478e-05
6.125689383e-05
9.932382289e-05
0.0001409884092
0.0001177513956
0.000123941422
0.0001366297842
0.0001509187337
0.0001598722494
8.476092318e-05
8.100471191e-05
7.130341355e-05
5.535654825e-05
3.078766511e-05
-5.583598836e-05
-5.956900354e-05
-6.714591734e-05
-7.759836506e-05
-8.924064569e-05
-0.000102932545
-0.0001029844799
-0.0001029245083
-0.0001022568076
-0.0001005530548
-7.813028618e-05
-7.729550652e-05
-7.544919061e-05
-7.259556456e-05
-6.870012699e-05
-4.598105631e-05
-4.530097776e-05
-4.3811128e-05
-4.156644888e-05
-3.863149757e-05
-2.376571711e-05
-2.332526988e-05
-2.239412366e-05
-2.112573919e-05
-1.986022577e-05
-1.276821201e-05
-1.287389416e-05
-1.317591609e-05
-1.370263621e-05
-1.419746867e-05
-8.373256162e-06
-8.253810884e-06
-7.976790019e-06
-7.549685327e-06
-7.000988226e-06
-3.537565882e-06
-3.483989917e-06
-3.369556946e-06
-3.2044605e-06
-2.998807155e-06
-1.48745994e-06
-1.467833575e-06
-1.425639871e-06
-1.36430907e-06
-1.287104029e-06
-6.306571721e-07
-6.23265636e-07
-6.073643414e-07
-5.841342765e-07
-5.546728731e-07
-2.696026588e-07
-2.667829629e-07
-2.606913815e-07
-2.517520463e-07
-2.403465775e-07
-1.162614832e-07
-1.151631717e-07
-1.127912177e-07
-1.092996125e-07
-1.048243191e-07
-5.057773637e-08
-5.014594054e-08
-4.92104881e-08
-4.782964715e-08
-4.605309174e-08
-2.221177651e-08
-2.203951835e-08
-2.166662857e-08
-2.111524234e-08
-2.040394708e-08
-9.860685995e-09
-9.79203617e-09
-9.643143618e-09
-9.422749615e-09
-9.138119197e-09
-4.443848649e-09
-4.416918818e-09
-4.358651106e-09
-4.27256186e-09
-4.161690145e-09
-2.054938809e-09
-2.045367364e-09
-2.024743743e-09
-1.994588492e-09
-1.956360976e-09
-1.002232294e-09
-1.000190853e-09
-9.959823309e-10
-9.903380728e-10
-9.841984502e-10
-5.477252202e-10
-5.493523147e-10
-5.531594233e-10
-5.595833123e-10
-5.694224095e-10
-3.684959427e-10
-3.723418048e-10
-3.810416436e-10
-3.949307928e-10
-4.148396502e-10
-3.240590233e-10
-3.297450526e-10
-3.425269007e-10
-3.627248863e-10
-3.912959295e-10
-3.55942915e-10
-3.636156983e-10
-3.808284622e-10
-4.079261981e-10
-4.460655268e-10
-4.445972157e-10
-4.547709091e-10
-4.775654071e-10
-5.133777619e-10
-5.636448914e-10
-5.924594849e-10
-6.060225928e-10
-6.363892733e-10
-6.840306817e-10
-7.507706534e-10
-8.224261735e-10
-8.408940245e-10
-8.822151958e-10
-9.469776826e-10
-1.037578394e-09
-1.140616914e-09
-1.16364667e-09
-1.214902934e-09
-1.2944865e-09
-1.404320138e-09
-1.525806991e-09
-1.552118527e-09
-1.610324385e-09
-1.707851975e-09
-1.842496078e-09
-2.098580722e-09
-2.13307967e-09
-2.209599741e-09
-2.327693942e-09
-2.489343759e-09
-2.801625735e-09
-2.842087239e-09
-2.931619781e-09
-3.069233058e-09
-3.256527197e-09
-3.648816143e-09
-3.69436145e-09
-3.794919887e-09
-3.948877882e-09
-4.157282266e-09
-4.621873232e-09
-4.670986309e-09
-4.77919556e-09
-4.944278511e-09
-5.166645257e-09
-5.683163922e-09
-5.733867268e-09
-5.84538005e-09
-6.014977516e-09
-6.242453871e-09
-6.765305998e-09
-6.815572745e-09
-6.925959734e-09
-7.093428813e-09
-7.317295523e-09
-7.803910517e-09
-7.852054619e-09
-7.957664423e-09
-8.117602576e-09
-8.330900241e-09
-8.569323611e-09
-8.615036375e-09
-8.715269661e-09
-8.866963664e-09
-9.069100025e-09
0.4234924208
0.2366361047
0.04482362672
0.005383769023
-0.003031901953
-0.000607447121
0.005702014857
0.004340945188
-0.0005447302688
-0.002641681903
-0.002873808935
-0.003713403798
-0.005254727329
-0.006029811213
-0.005871530106
-0.005292088773
-0.004897624366
-0.004552105978
-0.003858205609
-0.002930927248
-0.002215588548
-0.001414930898
-0.0008819498212
-0.0005810390993
-0.0003914287032
-0.0002775265831
-0.0002094604662
-0.0001778551376
-0.0001138810214
-7.707722723e-05
-3.402755656e-06
8.518310604e-05
0.00017437492
0.0001598381059
1.012956895e-05
-9.6415837e-05
-9.851327078e-05
-6.547839881e-05
-3.630637071e-05
-1.936676302e-05
-1.42158138e-05
-6.590803423e-06
-2.844356378e-06
-1.228360177e-06
-5.320419222e-07
-2.315192147e-07
-1.013399049e-07
-4.466317129e-08
-1.984551188e-08
-8.91435139e-09
-4.07488471e-09
-1.927167851e-09
-9.806633681e-10
-5.788850855e-10
-4.326946511e-10
-4.165335329e-10
-4.795575399e-10
-6.076443856e-10
-8.09053142e-10
-1.116573026e-09
-1.498693704e-09
-1.957816526e-09
-2.626809697e-09
-3.414739118e-09
-4.332201865e-09
-5.352182274e-09
-6.431276999e-09
-7.502343359e-09
-8.506682084e-09
-9.235479496e-09
-0.03586407827
-0.0007870944462
-2.652889767e-05
-1.576184866e-06
-8.377258804e-08
-0.04504673309
-0.001087222302
-0.0001675373803
-7.574401211e-06
-1.57319951e-07
-0.03425682508
-0.002206973412
-0.0002423985296
-1.42268194e-05
9.637459032e-07
-0.02499205553
-0.002709229057
5.499993601e-05
-7.10709881e-05
-4.572900955e-06
-0.01997516011
-0.002958354821
0.0008724563848
-0.000263202806
-2.096761284e-05
-0.01515641511
-0.003088734755
0.0009467406555
-0.0004064502641
-3.71725587e-05
-0.01197134686
-0.003264242259
0.0006750447786
-0.0004692518408
-5.124257394e-05
-0.01085544361
-0.003430503589
0.0001275647152
-0.0002781883143
-9.697055576e-05
-0.01023616024
-0.003389055478
-0.0003833640557
0.000821082634
-0.0003532573592
-0.008963208961
-0.00325224758
-0.0006866437142
0.001392066791
-0.0005753842755
-0.00769733855
-0.003119788526
-0.000833031881
0.001421910933
-0.0006702707497
-0.006988381875
-0.003040626597
-0.0009388039204
0.001192684437
-0.0006189154097
-0.006657783462
-0.002995010956
-0.001027728427
0.0007257544049
0.0002387069723
-0.006113166762
-0.002855251485
-0.00105893558
0.000383548036
0.0009799682015
-0.005539973341
-0.002624232991
-0.0010511813
0.0001788248338
0.001286496685
-0.005123672241
-0.002336247479
-0.001016309059
5.459510729e-05
0.001376153402
-0.004426395971
-0.0020783621
-0.0009676302187
-4.808195377e-05
0.001342906395
-0.003727723949
-0.001800327001
-0.0008896952411
-0.0001257177372
0.001204578598
-0.002939509566
-0.001473500415
-0.0007722651089
-0.0001412870652
0.001070730562
-0.002144804585
-0.00113927912
-0.0006399925507
-0.0001150064757
0.0009747911079
-0.001482154249
-0.0008503922081
-0.0005169618757
-7.065517536e-05
0.0009053898026
-0.001010795354
-0.0006287908386
-0.0004126398182
-2.312684583e-05
0.0008460483932
-0.0006823118874
-0.0004725359484
-0.0003271963306
2.402858933e-05
0.0007935200695
-0.0004726325853
-0.0003645616481
-0.0002556257372
7.21731836e-05
0.0007476035819
-0.0003413318103
-0.0002876678086
-0.0001916104392
0.0001261755907
0.0007113093388
-0.0002587217037
-0.0002273596983
-0.0001260406489
0.0001941750172
0.0006832334165
-0.0002031420895
-0.0001670146068
-5.097921043e-05
0.0002787673736
0.0006478488572
-0.0001754883498
-0.0001135915042
4.172309019e-05
0.0003688209983
0.0005754216559
-0.000112633208
-3.560813893e-05
0.0001542454911
0.0004348135244
0.0004445848015
-0.0001420804838
6.543627302e-05
0.0002683598307
0.0004307460004
0.0002655655169
4.360004963e-05
0.0001779765957
0.000333090751
0.0003235905716
8.257359246e-05
0.0001451106189
0.0002562968562
0.0002866388815
0.0001432331577
-5.321391689e-05
0.000208128225
0.0002203220012
0.00012688959
-2.318565617e-05
-0.0001188729085
0.000135956695
6.113533844e-05
-3.892076837e-05
-0.0001088027152
-0.0001255907804
-2.587127187e-05
-7.829546827e-05
-0.0001117186561
-0.0001166225749
-0.0001025543337
-0.000105380158
-0.000110697286
-0.0001041866602
-8.846271163e-05
-7.819564531e-05
-9.448294578e-05
-8.438822903e-05
-7.069689189e-05
-5.876573186e-05
-6.114620584e-05
-6.039910055e-05
-5.097503621e-05
-4.253566904e-05
-4.374903307e-05
-3.776492981e-05
-3.298403496e-05
-2.888478253e-05
-3.072997524e-05
-2.795669018e-05
-2.0080928e-05
-1.968109667e-05
-2.15130981e-05
-1.86481692e-05
-1.404938045e-05
-1.03259191e-05
-1.339067765e-05
-1.112205821e-05
-8.825449197e-06
-6.821865084e-06
-5.156015333e-06
-5.985689255e-06
-5.014778801e-06
-4.081912287e-06
-3.238543439e-06
-2.512202433e-06
-2.616077445e-06
-2.23758853e-06
-1.862249389e-06
-1.512132465e-06
-1.201173385e-06
-1.141185966e-06
-9.930678808e-07
-8.424253512e-07
-6.98175661e-07
-5.665909435e-07
-4.983545964e-07
-4.40021063e-07
-3.79465669e-07
-3.201909341e-07
-2.648631114e-07
-2.183471362e-07
-1.951906532e-07
-1.707445527e-07
-1.463704849e-07
-1.231709001e-07
-9.613080453e-08
-8.685928801e-08
-7.693617523e-08
-6.689114351e-08
-5.717522234e-08
-4.258243687e-08
-3.884194653e-08
-3.479496913e-08
-3.065007412e-08
-2.659321416e-08
-1.900888943e-08
-1.749423687e-08
-1.584394131e-08
-1.414257451e-08
-1.246958809e-08
-8.579177041e-09
-7.971082866e-09
-7.308737984e-09
-6.628881864e-09
-5.968543936e-09
-3.945176501e-09
-3.712423072e-09
-3.464063136e-09
-3.218624644e-09
-2.996697603e-09
-1.884059333e-09
-1.811383848e-09
-1.742390702e-09
-1.688924569e-09
-1.665828927e-09
-9.762336545e-10
-9.764588182e-10
-9.911994156e-10
-1.030469152e-09
-1.107737692e-09
-5.941607256e-10
-6.327815819e-10
-6.935854318e-10
-7.867516539e-10
-9.264419321e-10
-4.608042153e-10
-5.25603146e-10
-6.196158775e-10
-7.54248852e-10
-9.455176667e-10
-4.560221808e-10
-5.449594343e-10
-6.709725265e-10
-8.474671475e-10
-1.093255508e-09
-5.318214578e-10
-6.484057591e-10
-8.118503031e-10
-1.038337452e-09
-1.350486839e-09
-6.761923305e-10
-8.282589286e-10
-1.040074646e-09
-1.331585636e-09
-1.730539929e-09
-8.997380462e-10
-1.100088192e-09
-1.377782163e-09
-1.757922315e-09
-2.244610085e-09
-1.226465763e-09
-1.478962806e-09
-1.827799935e-09
-2.284075182e-09
-2.858919289e-09
-1.643074182e-09
-1.951577293e-09
-2.349536551e-09
-2.842756616e-09
-3.503690373e-09
-2.134800233e-09
-2.511834499e-09
-3.008935684e-09
-3.645186584e-09
-4.433025138e-09
-2.836251133e-09
-3.275413175e-09
-3.841708539e-09
-4.552287916e-09
-5.425163182e-09
-3.654706004e-09
-4.151618693e-09
-4.782084373e-09
-5.558694176e-09
-6.493505553e-09
-4.596461323e-09
-5.137199167e-09
-5.812989566e-09
-6.63133046e-09
-7.598243079e-09
-5.631557738e-09
-6.197078782e-09
-6.894429847e-09
-7.726264118e-09
-8.693376286e-09
-6.71488508e-09
-7.283644924e-09
-7.977163465e-09
-8.794267736e-09
-9.732043343e-09
-7.779821024e-09
-8.332261317e-09
-9.00027039e-09
-9.780294852e-09
-1.066748584e-08
-8.770117682e-09
-9.291932126e-09
-9.91966687e-09
-1.064887848e-08
-1.14743612e-08
-9.484952647e-09
-9.978260059e-09
-1.057109648e-08
-1.12593341e-08
-1.203843329e-08
1.579098314e-09
-4.092105537e-10
-1.713139408e-11
-1.376828562e-12
-2.444875709e-13
-5.719708464e-14
-1.507825609e-14
-5.222327639e-15
-2.79843974e-15
-2.209589144e-15
-2.241659036e-15
-2.640110706e-15
-3.351966378e-15
-4.363833275e-15
-5.656517197e-15
-7.180713851e-15
-8.844013846e-15
-1.05091601e-14
-1.201533462e-14
-1.321455002e-14
-1.401449899e-14
-1.440411062e-14
-1.444679651e-14
-1.424656506e-14
-1.390597954e-14
-1.349821382e-14
-1.305135019e-14
-1.255344382e-14
-1.197604323e-14
-1.12953134e-14
-1.050471012e-14
-9.616719185e-15
-8.657125876e-15
-7.656975846e-15
-6.646081461e-15
-5.650382857e-15
-4.692938e-15
-3.795838837e-15
-2.980687421e-15
-2.266567573e-15
-1.666484489e-15
-1.184409432e-15
-8.146315476e-16
-5.435766968e-16
-3.531515922e-16
-2.243474361e-16
-1.399768963e-16
-8.610816606e-17
-5.237287236e-17
-3.15406141e-17
-1.880653508e-17
-1.108678021e-17
-6.444127827e-18
-3.676062605e-18
-2.040704846e-18
-1.082758495e-18
-5.260810415e-19
-2.141441665e-19
-6.023933588e-20
-1.039924898e-20
5.518115161e-08
-7.221960854e-09
-1.923006241e-10
-1.082401244e-11
-1.444482045e-12
-3.481420784e-13
-1.305378573e-13
-6.702037146e-14
-4.071412266e-14
-2.855215622e-14
-2.382263516e-14
-2.403379036e-14
-2.772743101e-14
-3.395209404e-14
-4.190619842e-14
-5.085522667e-14
-6.004624791e-14
-6.867643592e-14
-7.597312009e-14
-8.131770551e-14
-8.444045805e-14
-8.548309364e-14
-8.494378274e-14
-8.343974347e-14
-8.152107921e-14
-7.948356553e-14
-7.734990826e-14
-7.494898453e-14
-7.204418838e-14
-6.845497252e-14
-6.412491596e-14
-5.912004168e-14
-5.358773364e-14
-4.771081219e-14
-4.167113883e-14
-3.563314051e-14
-2.974986107e-14
-2.417391379e-14
-1.905856191e-14
-1.454254789e-14
-1.072488062e-14
-7.643986571e-15
-5.272525627e-15
-3.529170767e-15
-2.301113149e-15
-1.468071046e-15
-9.205366352e-16
-5.694941428e-16
-3.485340921e-16
-2.11261865e-16
-1.267927648e-16
-7.522985768e-17
-4.400043431e-17
-2.524645922e-17
-1.40861077e-17
-7.509895277e-18
-3.695513321e-18
-1.56914341e-18
-5.000193191e-19
-7.842511406e-20
3.343793385e-07
-3.414743227e-08
-5.081906555e-10
-2.629324341e-11
-4.631568769e-12
-1.97694444e-12
-1.132808952e-12
-7.080530994e-13
-4.448048565e-13
-2.838499427e-13
-2.056911145e-13
-1.496498418e-13
-1.330998855e-13
-1.44323746e-13
-1.698411631e-13
-2.016984155e-13
-2.343575981e-13
-2.635128081e-13
-2.857977877e-13
-2.992897566e-13
-3.042491165e-13
-3.025157825e-13
-2.968623546e-13
-2.900703857e-13
-2.835992363e-13
-2.778954391e-13
-2.724737345e-13
-2.663244506e-13
-2.584108001e-13
-2.481221661e-13
-2.351053093e-13
-2.194309151e-13
-2.0147828e-13
-1.817501414e-13
-1.607827111e-13
-1.391278847e-13
-1.173963671e-13
-9.627880771e-14
-7.651361037e-14
-5.878840949e-14
-4.362029547e-14
-3.126333664e-14
-2.168083463e-14
-1.459358024e-14
-9.574900503e-15
-6.152185938e-15
-3.889332492e-15
-2.428432601e-15
-1.501272931e-15
-9.197741591e-16
-5.581157484e-16
-3.347522205e-16
-1.978185764e-16
-1.145820305e-16
-6.445728063e-17
-3.462010653e-17
-1.724686915e-17
-7.495485207e-18
-2.393643148e-18
-3.256315196e-19
2.636833161e-06
-3.27919967e-07
-6.252058428e-09
-1.672903648e-10
-2.80167652e-11
-1.371513732e-11
-8.549321491e-12
-5.44980099e-12
-3.45319665e-12
-2.223182941e-12
-1.415290664e-12
-9.302397329e-13
-6.73253969e-13
-5.961543848e-13
-5.662000795e-13
-6.108930443e-13
-6.821697223e-13
-7.551852867e-13
-8.123760191e-13
-8.441385186e-13
-8.496248889e-13
-8.352507096e-13
-8.1107792e-13
-7.858411032e-13
-7.648299388e-13
-7.492757783e-13
-7.368784896e-13
-7.239412131e-13
-7.071328423e-13
-6.841066356e-13
-6.542171578e-13
-6.177242419e-13
-5.752823643e-13
-5.275056911e-13
-4.749919559e-13
-4.185152017e-13
-3.593432078e-13
-2.994721623e-13
-2.41469686e-13
-1.879898189e-13
-1.412034414e-13
-1.023838139e-13
-7.180365292e-14
-4.88640502e-14
-3.240681694e-14
-2.105250373e-14
-1.346255275e-14
-8.508795781e-15
-5.328984046e-15
-3.310032493e-15
-2.037489309e-15
-1.240117453e-15
-7.434714529e-16
-4.364682243e-16
-2.484555527e-16
-1.348910719e-16
-6.791460925e-17
-2.989350248e-17
-9.131938652e-18
-1.078891547e-18
3.827404727e-06
-1.272053302e-07
-8.285874538e-08
-1.680912847e-09
-2.069821936e-10
-9.954103612e-11
-6.202299654e-11
-3.914478332e-11
-2.473671306e-11
-1.565167035e-11
-9.900328428e-12
-6.332189612e-12
-4.168422942e-12
-2.904606901e-12
-2.269909551e-12
-2.059283261e-12
-1.954243568e-12
-1.961204013e-12
-1.987541654e-12
-2.007092711e-12
-1.991863513e-12
-1.944380948e-12
-1.878449898e-12
-1.810868818e-12
-1.753376921e-12
-1.708844916e-12
-1.673493162e-12
-1.639913177e-12
-1.601070523e-12
-1.552662015e-12
-1.493418902e-12
-1.423504503e-12
-1.34283446e-12
-1.250896383e-12
-1.146822851e-12
-1.030211293e-12
-9.022369202e-13
-7.666575583e-13
-6.296961572e-13
-4.987835201e-13
-3.808154275e-13
-2.805542053e-13
-1.999320393e-13
-1.383382731e-13
-9.338281502e-14
-6.180590234e-14
-4.028521501e-14
-2.594572678e-14
-1.654589473e-14
-1.045528676e-14
-6.542850049e-15
-4.047691353e-15
-2.466789301e-15
-1.47181199e-15
-8.509572262e-16
-4.68642418e-16
-2.389562274e-16
-1.060595463e-16
-3.04200703e-17
-3.232138499e-18
-5.926679189e-07
2.463027822e-06
-4.322419588e-07
-2.155579978e-08
-1.931053951e-09
-6.826236168e-10
-3.754977607e-10
-2.302317982e-10
-1.467960644e-10
-9.541812179e-11
-6.271847314e-11
-4.149513611e-11
-2.750196891e-11
-1.921953775e-11
-1.361320355e-11
-1.037519395e-11
-8.814315765e-12
-7.194168769e-12
-6.245773774e-12
-5.565731634e-12
-5.022434749e-12
-4.578105663e-12
-4.207779984e-12
-3.912412447e-12
-3.69380552e-12
-3.5431114e-12
-3.43781391e-12
-3.348979279e-12
-3.255247927e-12
-3.148994346e-12
-3.030601315e-12
-2.901222061e-12
-2.759968308e-12
-2.602975385e-12
-2.424430059e-12
-2.219812167e-12
-1.985334649e-12
-1.724407556e-12
-1.447897121e-12
-1.171637843e-12
-9.125294757e-13
-6.846138338e-13
-4.961705754e-13
-3.490323347e-13
-2.398435445e-13
-1.619712803e-13
-1.079935834e-13
-7.126583598e-14
-4.657406543e-14
-3.012409327e-14
-1.925587713e-14
-1.214092166e-14
-7.528268726e-15
-4.566172432e-15
-2.684207829e-15
-1.504547697e-15
-7.807411264e-16
-3.496245846e-16
-9.385370883e-17
-9.282228375e-18
-6.56570973e-06
3.066499997e-06
-6.535164687e-08
-1.676752771e-07
-9.668449287e-09
-2.370649079e-09
-1.174206505e-09
-7.17553602e-10
-4.739315979e-10
-3.25504707e-10
-2.288549439e-10
-1.634990886e-10
-1.181074912e-10
-8.582993515e-11
-6.467608998e-11
-5.058287424e-11
-4.02103546e-11
-3.359863405e-11
-2.688440875e-11
-2.151750452e-11
-1.766028702e-11
-1.456848062e-11
-1.200875767e-11
-9.998779741e-12
-8.529130563e-12
-7.544480917e-12
-6.914323886e-12
-6.493777487e-12
-6.183092762e-12
-5.925983977e-12
-5.695834797e-12
-5.470498571e-12
-5.234545966e-12
-4.977041963e-12
-4.683777994e-12
-4.340631247e-12
-3.943601858e-12
-3.491083579e-12
-2.995556518e-12
-2.480546369e-12
-1.976806671e-12
-1.5154373e-12
-1.1198873e-12
-8.015313839e-13
-5.596521688e-13
-3.845113019e-13
-2.616279583e-13
-1.768355814e-13
-1.187014684e-13
-7.894976866e-14
-5.186157481e-14
-3.353349425e-14
-2.126370589e-14
-1.315607467e-14
-7.880285953e-15
-4.506141028e-15
-2.39037902e-15
-1.081197283e-15
-2.738649776e-16
-2.581633136e-17
-1.260241966e-05
5.827934271e-07
2.569056058e-06
-4.162914274e-07
-6.516568641e-08
-8.82321421e-09
-2.908562499e-09
-1.54333529e-09
-9.765297903e-10
-6.695398764e-10
-4.811906586e-10
-3.575487948e-10
-2.727204666e-10
-2.123895415e-10
-1.679279806e-10
-1.360691966e-10
-1.194291503e-10
-1.032653579e-10
-9.365671934e-11
-8.093323144e-11
-6.5659626e-11
-5.294555805e-11
-4.187669762e-11
-3.280557757e-11
-2.565018381e-11
-2.043499508e-11
-1.661654404e-11
-1.38902996e-11
-1.2049924e-11
-1.086811561e-11
-1.012973324e-11
-9.621544532e-12
-9.219414435e-12
-8.841131897e-12
-8.411403687e-12
-7.859271153e-12
-7.172590869e-12
-6.396960847e-12
-5.562899042e-12
-4.693336331e-12
-3.824046598e-12
-3.00031988e-12
-2.266528298e-12
-1.653862002e-12
-1.173827372e-12
-8.181911654e-13
-5.65050388e-13
-3.887667461e-13
-2.66751999e-13
-1.820936116e-13
-1.231133877e-13
-8.201077931e-14
-5.353238088e-14
-3.403253346e-14
-2.090368468e-14
-1.224263456e-14
-6.641205092e-15
-3.039370854e-15
-7.411718134e-16
-6.636753357e-17
-4.011982783e-05
-4.00473856e-06
3.966587931e-06
7.076628833e-07
-3.215640003e-07
-4.004847479e-08
-7.864417569e-09
-3.056247316e-09
-1.702503509e-09
-1.110666236e-09
-7.878555475e-10
-5.904253484e-10
-4.611148309e-10
-3.720011802e-10
-3.07621429e-10
-2.587205564e-10
-2.231428695e-10
-2.088357838e-10
-1.92010575e-10
-1.833042248e-10
-1.694456255e-10
-1.458466309e-10
-1.251561891e-10
-1.050276008e-10
-8.560672383e-11
-6.747800971e-11
-5.169979165e-11
-3.925496425e-11
-3.023097931e-11
-2.420705574e-11
-2.022526423e-11
-1.762187702e-11
-1.604971793e-11
-1.514586975e-11
-1.44891188e-11
-1.368587369e-11
-1.257767212e-11
-1.120062299e-11
-9.722020201e-12
-8.253406748e-12
-6.818656492e-12
-5.459898492e-12
-4.224061868e-12
-3.154256968e-12
-2.281087785e-12
-1.612205401e-12
-1.126758849e-12
-7.845943346e-13
-5.458468619e-13
-3.792672949e-13
-2.624032812e-13
-1.797494209e-13
-1.210504728e-13
-7.951202263e-14
-5.045997565e-14
-3.049380198e-14
-1.701251485e-14
-7.927817669e-15
-1.897884926e-15
-1.671271516e-16
-7.252425271e-05
-1.134050293e-05
2.058891442e-06
2.550603792e-06
-2.87592766e-07
-1.571636459e-07
-2.208307427e-08
-5.941183102e-09
-2.734038443e-09
-1.639868787e-09
-1.122740334e-09
-8.338225826e-10
-6.5654099e-10
-5.405659267e-10
-4.60302068e-10
-4.012967031e-10
-3.548269659e-10
-3.254408746e-10
-3.171231462e-10
-3.033484243e-10
-2.999169464e-10
-2.870339442e-10
-2.558654101e-10
-2.276116617e-10
-1.995979655e-10
-1.713745665e-10
-1.43568328e-10
-1.166958403e-10
-9.199032658e-11
-7.055556838e-11
-5.333432623e-11
-4.095008936e-11
-3.299778387e-11
-2.845767495e-11
-2.568608082e-11
-2.360851673e-11
-2.158332282e-11
-1.927886337e-11
-1.665819774e-11
-1.400678152e-11
-1.157802452e-11
-9.358126234e-12
-7.378412745e-12
-5.663378162e-12
-4.225857344e-12
-3.041907975e-12
-2.145040821e-12
-1.502866487e-12
-1.052901271e-12
-7.385380339e-13
-5.175395545e-13
-3.610155786e-13
-2.492492141e-13
-1.688282488e-13
-1.109303394e-13
-6.953766191e-14
-4.017526981e-14
-1.923391153e-14
-4.61685084e-15
-4.120605657e-16
-9.545573231e-05
-1.597680939e-05
-1.522012576e-06
3.991003722e-06
1.137216224e-06
-4.441414262e-07
-7.050206963e-08
-1.272579977e-08
-4.388759295e-09
-2.302158026e-09
-1.482142682e-09
-1.072346438e-09
-8.404307253e-10
-6.989775681e-10
-6.075296814e-10
-5.446009795e-10
-4.976439235e-10
-4.588645068e-10
-4.474368198e-10
-4.478611345e-10
-4.402416699e-10
-4.487095738e-10
-4.3559676e-10
-3.983467788e-10
-3.627081131e-10
-3.257669652e-10
-2.871280369e-10
-2.476172016e-10
-2.085986216e-10
-1.717019834e-10
-1.384575137e-10
-1.095120499e-10
-8.56533325e-11
-6.714481615e-11
-5.369903181e-11
-4.472373049e-11
-3.841003585e-11
-3.333773134e-11
-2.833936329e-11
-2.351469906e-11
-1.919379543e-11
-1.546839382e-11
-1.228073914e-11
-9.600697842e-12
-7.401141135e-12
-5.60292957e-12
-4.073109253e-12
-2.853844659e-12
-1.990076431e-12
-1.393860774e-12
-9.795747752e-13
-6.885469364e-13
-4.814987427e-13
-3.325921474e-13
-2.246075914e-13
-1.456371155e-13
-8.734679825e-14
-4.333764693e-14
-1.069512831e-14
-9.990273977e-16
-0.000122015874
-2.038896512e-05
-4.481376143e-06
1.497352392e-06
2.771886698e-06
-1.559187274e-07
-2.375232724e-07
-3.502305585e-08
-7.954908151e-09
-3.257505421e-09
-1.879911197e-09
-1.295544399e-09
-9.986081455e-10
-8.337317964e-10
-7.372873411e-10
-6.782320812e-10
-6.389563523e-10
-6.087479679e-10
-5.81046424e-10
-6.05201704e-10
-6.157191366e-10
-6.276574016e-10
-6.450325515e-10
-6.219289101e-10
-5.792282949e-10
-5.348304764e-10
-4.865347113e-10
-4.345510545e-10
-3.803265481e-10
-3.25917257e-10
-2.735700795e-10
-2.253423787e-10
-1.82837424e-10
-1.471592659e-10
-1.185566263e-10
-9.570645999e-11
-7.752736978e-11
-6.247539294e-11
-4.998559706e-11
-4.003215869e-11
-3.188311533e-11
-2.520953971e-11
-1.983087936e-11
-1.552309023e-11
-1.206416775e-11
-9.299267808e-12
-7.132404759e-12
-5.353467792e-12
-3.851636641e-12
-2.682931655e-12
-1.854256533e-12
-1.293648725e-12
-9.050674007e-13
-6.297439449e-13
-4.310815294e-13
-2.856911187e-13
-1.768705919e-13
-9.1514169e-14
-2.38346029e-14
-2.40263079e-15
-0.0002823758209
-4.49964727e-05
-9.587555226e-06
-4.929086355e-07
3.220954563e-06
1.696019771e-06
-4.7473029e-07
-1.242914364e-07
-1.874488322e-08
-4.947246273e-09
-2.285619854e-09
-1.447252141e-09
-1.094240436e-09
-9.283599452e-10
-8.475800491e-10
-8.093144295e-10
-7.908849418e-10
-7.794510244e-10
-7.672338206e-10
-8.089646092e-10
-8.44785958e-10
-8.712508492e-10
-9.160486941e-10
-9.189554931e-10
-8.682256156e-10
-8.145319897e-10
-7.54187703e-10
-6.869313618e-10
-6.143766911e-10
-5.391253907e-10
-4.641569653e-10
-3.923776833e-10
-3.261218924e-10
-2.67202555e-10
-2.168317079e-10
-1.751609219e-10
-1.414208157e-10
-1.142343906e-10
-9.177315351e-11
-7.251905733e-11
-5.610217321e-11
-4.24885553e-11
-3.23178749e-11
-2.475049022e-11
-1.904633905e-11
-1.469239399e-11
-1.13297424e-11
-8.732058869e-12
-6.687847499e-12
-4.993627136e-12
-3.596164349e-12
-2.506892926e-12
-1.725363374e-12
-1.184848261e-12
-8.10120309e-13
-5.412904946e-13
-3.419049017e-13
-1.847482342e-13
-5.200211632e-14
-5.801751477e-15
-0.000460728964
-7.886594302e-05
-1.605869514e-05
-2.022582472e-06
1.854146433e-06
1.786577254e-06
3.779889824e-07