/*--------------------------------*- C++ -*----------------------------------*\
  =========                 |
  \\      /  F ield         | OpenFOAM: The Open Source CFD Toolbox
   \\    /   O peration     | Website:  https://openfoam.org
    \\  /    A nd           | Version:  10
     \\/     M anipulation  |
\*---------------------------------------------------------------------------*/
FoamFile
{
    format      ascii;
    class       volScalarField;
    location    "3000";
    object      RR.CH3CHO;
}
// * * * * * * * * * * * * * * * * * * * * * * * * * * * * * * * * * * * * * //

dimensions      [1 -3 -1 0 0 0 0];

internalField   nonuniform List<scalar> 
5170
(
0
0
0
0
0
0
0
0
0
0
0
0
0
0
0
0
0
0
0
0
0
0
0
0
0
0
0
0
0
0
0
0
0
0
0
0
0
0
0
0
0
0
0
0
0
0
0
0
0
0
0
0
0
0
0
0
0
0
0
0
0
0
0
0
0
0
0
0
0
0
0
0
0
0
0
0
0
0
0
0
2.556029002e-31
1.850645466e-30
5.668573665e-29
3.948649075e-27
7.149733737e-26
4.887407399e-26
5.514763472e-25
2.313247191e-23
1.68132085e-21
2.950651991e-20
7.88614073e-21
1.440092593e-19
8.10739972e-18
5.882108498e-16
1.169182463e-14
9.25731615e-16
3.460245496e-14
2.610162783e-12
1.605819042e-10
4.239736562e-09
-1.163596393e-19
-4.218616348e-20
-1.125449108e-20
-2.778200169e-20
5.678642933e-19
-7.436467404e-20
-5.154980878e-20
-2.126633681e-20
4.131765035e-19
9.232575398e-20
-4.639967403e-20
-3.815777452e-20
-3.890115493e-20
-2.809391016e-20
-3.961139939e-20
-2.831538236e-20
-2.822094369e-20
-3.445977097e-20
1.177068785e-20
-1.954475906e-20
-2.019808697e-20
-2.426119738e-20
-2.710672483e-20
-2.779972729e-20
-1.492370917e-20
-1.518761437e-20
-2.426213175e-20
-2.716454392e-20
6.625984789e-20
1.015945757e-20
-1.10190417e-20
-6.311866523e-22
-2.250749586e-20
-2.208288979e-20
-8.479838018e-21
-8.549268696e-21
-1.466266373e-20
-2.231537574e-20
-1.637157482e-20
-8.55306035e-21
-5.394332452e-21
-1.160193056e-20
3.014026152e-20
2.536684593e-19
-9.156413656e-21
-4.751014581e-21
-9.322072902e-21
-1.729366937e-20
-1.609487192e-20
-5.593981054e-21
3.249060524e-21
-6.513441546e-21
-1.537468883e-20
-6.720163961e-20
-6.205103582e-21
-2.58657555e-21
-8.346177557e-21
5.129908266e-20
-2.941151241e-20
2.037763907e-20
-3.527927091e-21
-4.396324389e-21
7.407068943e-20
-1.746977747e-20
7.333138715e-20
-2.878041752e-19
-8.947866024e-20
1.645091303e-20
-3.066238481e-20
-9.934608115e-21
-4.971306046e-17
-1.474228341e-17
-3.431393607e-18
-7.93445741e-19
-9.837752159e-20
-8.729940324e-15
-2.486992671e-15
-5.557521731e-16
-1.192983014e-16
-1.350256484e-17
-1.549051488e-12
-4.118666779e-13
-8.693739233e-14
-1.731868216e-14
-1.789363045e-15
-2.860293135e-10
-6.660955359e-11
-1.301849796e-11
-2.375772419e-12
-2.241610959e-13
-5.787122906e-08
-1.029685823e-08
-1.808640839e-09
-2.861491626e-10
-2.47446766e-11
-3.537363476e-05
-2.019988523e-06
-2.459694022e-07
-3.020270875e-08
-2.402398037e-09
1.391580935e-12
9.820413168e-11
2.673247809e-08
5.723378104e-06
0.0008625233309
2.166265501e-11
1.018996921e-09
1.348448226e-07
7.920931018e-06
0.0002412219367
1.164372627e-10
3.664248331e-09
1.981479482e-07
-3.890345972e-07
1.465049819e-05
3.701346087e-10
7.009744193e-09
-8.71385542e-08
-1.088865678e-05
-3.215591537e-05
7.455892055e-10
2.47431253e-09
-1.059999401e-06
-1.756893056e-05
-3.605552165e-05
5.578179479e-10
-3.729083937e-08
-2.91748966e-06
-2.084262973e-05
-3.41523192e-05
-3.845176154e-09
-2.022511823e-07
-5.966278662e-06
-2.33083526e-05
-3.551783764e-05
-2.936250369e-08
-7.414352845e-07
-9.831576687e-06
-2.501511388e-05
-3.815206265e-05
-1.382686513e-07
-2.044173423e-06
-1.333140669e-05
-2.541664837e-05
-3.872843199e-05
-4.997743378e-07
-4.296127748e-06
-1.581119941e-05
-2.531067524e-05
-3.91965884e-05
-1.481620641e-06
-7.168536199e-06
-1.739343178e-05
-2.55293822e-05
-4.14329696e-05
-3.345504191e-06
-9.906330094e-06
-1.839554707e-05
-2.60879957e-05
-4.480074087e-05
-5.977177139e-06
-1.215128504e-05
-1.90547849e-05
-2.661917557e-05
-4.73720116e-05
-8.882972875e-06
-1.383712494e-05
-1.952115316e-05
-2.722103984e-05
-4.962629048e-05
-1.148516242e-05
-1.507020126e-05
-2.002612433e-05
-2.860084046e-05
-5.319212086e-05
-1.340677396e-05
-1.606136858e-05
-2.085761117e-05
-3.110501941e-05
-5.948221216e-05
-1.481675749e-05
-1.711126685e-05
-2.240224863e-05
-3.557184378e-05
-6.912864332e-05
-1.612859261e-05
-1.854382562e-05
-2.526961834e-05
-4.203762558e-05
-7.918722396e-05
-1.825680487e-05
-2.140358628e-05
-3.035943822e-05
-5.005601014e-05
-8.785182111e-05
-2.271216478e-05
-2.685991274e-05
-3.776949856e-05
-5.943468088e-05
-9.949030839e-05
-2.964847035e-05
-3.447063458e-05
-4.669122512e-05
-7.077432546e-05
-0.0001190012555
-3.79559185e-05
-4.353438483e-05
-5.826741028e-05
-8.829524338e-05
-0.0001444948576
-4.990119508e-05
-5.734905048e-05
-7.687699472e-05
-0.0001158967995
-0.0001764589438
-7.023487058e-05
-8.051477932e-05
-0.0001069009516
-0.0001497359032
-0.0002243564443
-0.0001025502454
-0.0001162867103
-0.000143597564
-0.0001981220948
-0.000267189199
-0.0001508882874
-0.0001690395792
-0.00021355624
-0.0002619153494
-0.0003279653251
-0.0002224343896
-0.0002463281106
-0.0003018049725
-0.0003777341883
-0.0004876434058
-0.0003308548809
-0.0003626995027
-0.0004383698048
-0.0005132248459
-0.0006577783201
-0.0004638092016
-0.0004969612277
-0.0006330902108
-0.0008010804124
-0.001020236016
-0.0006722276429
-0.0007515179486
-0.0008524450407
-0.001020487473
-0.001271786798
-0.0009508259381
-0.0009868828831
-0.00112666675
-0.001320311475
-0.0008646860548
-0.001213415613
-0.001275669032
-0.001333950126
-0.0007669586704
-0.0004782712547
-0.001065178231
-0.001050221803
-0.001176818004
7.892458532e-05
0.0007733482393
0.0007677821832
0.0009885847496
0.001305314178
0.001787693563
0.00226460362
0.0009506903175
0.001051856111
0.001036686463
0.000754457023
0.0001538333951
-0.0018281772
-0.001933537542
-0.002174323573
-0.002447634912
-0.002794227552
-0.002854562858
-0.002850548413
-0.002839724992
-0.002800711158
-0.002728070359
-0.00188979663
-0.001865100582
-0.001811718593
-0.001731416258
-0.001625106675
-0.000966100508
-0.0009510224083
-0.0009185199595
-0.000870812843
-0.0008109326689
-0.000446163363
-0.0004392764918
-0.0004244330527
-0.0004029045024
-0.0003759114701
-0.0001979019091
-0.0001949493163
-0.0001885185256
-0.0001790019101
-0.000166781544
-8.443001089e-05
-8.320242958e-05
-8.056525221e-05
-7.674116917e-05
-7.19449712e-05
-3.582587277e-05
-3.535490108e-05
-3.434342711e-05
-3.287032309e-05
-3.101081479e-05
-1.523896361e-05
-1.50579148e-05
-1.46674005e-05
-1.409645625e-05
-1.337190076e-05
-6.50754822e-06
-6.437066615e-06
-6.2851733e-06
-6.062498685e-06
-5.778674058e-06
-2.793585861e-06
-2.7660881e-06
-2.706616815e-06
-2.619155934e-06
-2.50721177e-06
-1.207254262e-06
-1.196369207e-06
-1.172848995e-06
-1.138180426e-06
-1.093653114e-06
-5.255596061e-07
-5.212281989e-07
-5.118410386e-07
-4.979717271e-07
-4.801011239e-07
-2.306740646e-07
-2.289256843e-07
-2.251396193e-07
-2.19535914e-07
-2.122961792e-07
-1.021473549e-07
-1.014378538e-07
-9.989779658e-08
-9.761426022e-08
-9.465699517e-08
-4.569569433e-08
-4.54048895e-08
-4.477413982e-08
-4.383788476e-08
-4.262343078e-08
-2.06931087e-08
-2.057447675e-08
-2.031681551e-08
-1.993418732e-08
-1.943771558e-08
-9.529343525e-09
-9.48209941e-09
-9.379727654e-09
-9.228071346e-09
-9.032020675e-09
-4.510740282e-09
-4.49402863e-09
-4.458002732e-09
-4.40525912e-09
-4.338322999e-09
-2.252655007e-09
-2.249574777e-09
-2.243300764e-09
-2.235104428e-09
-2.226661436e-09
-1.253595564e-09
-1.257303062e-09
-1.265874226e-09
-1.280060196e-09
-1.301304382e-09
-8.434815141e-10
-8.513036937e-10
-8.689427966e-10
-8.969510177e-10
-9.368097378e-10
-7.231701525e-10
-7.34302675e-10
-7.592728864e-10
-7.98576707e-10
-8.538759364e-10
-7.625039454e-10
-7.770435141e-10
-8.095958549e-10
-8.606620824e-10
-9.321870942e-10
-9.115309491e-10
-9.301574503e-10
-9.718121062e-10
-1.037036653e-09
-1.128163025e-09
-1.164541175e-09
-1.188512942e-09
-1.242087028e-09
-1.325871209e-09
-1.442726322e-09
-1.550455408e-09
-1.581863372e-09
-1.652016875e-09
-1.761635114e-09
-1.914343141e-09
-2.026292746e-09
-2.061230948e-09
-2.143155791e-09
-2.270144512e-09
-2.445049842e-09
-2.679015138e-09
-2.723246829e-09
-2.82131204e-09
-2.972697765e-09
-3.179997503e-09
-3.511276658e-09
-3.563560937e-09
-3.679356796e-09
-3.857601595e-09
-4.100709287e-09
-4.584120924e-09
-4.645829673e-09
-4.782348783e-09
-4.992104222e-09
-5.277468227e-09
-5.913175598e-09
-5.979513015e-09
-6.125506437e-09
-6.347755491e-09
-6.646125824e-09
-7.260933548e-09
-7.328090491e-09
-7.475388114e-09
-7.698297617e-09
-7.99505356e-09
-8.664579176e-09
-8.728707549e-09
-8.868971591e-09
-9.080219609e-09
-9.359581802e-09
-9.727405911e-09
-9.786317516e-09
-9.914890267e-09
-1.010779341e-08
-1.036154039e-08
0.004854570927
0.001125409451
0.0001122345473
-3.735812269e-05
-4.61116694e-05
-4.554062629e-05
-5.560397738e-05
-6.769236095e-05
-6.867828811e-05
-6.863560361e-05
-7.496350513e-05
-8.320291977e-05
-8.595488829e-05
-8.707896743e-05
-9.158313371e-05
-0.0001000457735
-0.0001109115493
-0.0001214809985
-0.0001317439928
-0.000150417887
-0.0001702007455
-0.0002031767732
-0.0002471939809
-0.0002815276631
-0.0003297023917
-0.0004018591857
-0.0006178678386
-0.0008359228315
-0.0010825566
-0.001436568741
-0.0007582505371
-8.687133112e-05
0.001600349678
0.002466009328
-0.0003212194735
-0.002998385703
-0.00265462085
-0.001541792523
-0.000765694204
-0.0003556181502
-0.0001574999103
-6.831547034e-05
-2.959173851e-05
-1.281511927e-05
-5.559282023e-06
-2.420220071e-06
-1.058890955e-06
-4.660913575e-07
-2.065999871e-07
-9.232296633e-08
-4.166283047e-08
-1.904490691e-08
-8.877731612e-09
-4.287048457e-09
-2.22242753e-09
-1.32127264e-09
-9.722580146e-10
-9.024105061e-10
-9.946289159e-10
-1.207479979e-09
-1.544229472e-09
-2.046811356e-09
-2.594864626e-09
-3.356343065e-09
-4.306499107e-09
-5.518206679e-09
-6.894153762e-09
-8.239877939e-09
-9.587445202e-09
-1.056707471e-08
0.01681000022
-0.001083611688
-4.068116666e-05
-2.649862763e-06
-2.092080584e-07
0.001967413964
0.02349324405
-0.00336048865
-0.0001446358871
-2.547123796e-06
-4.371776931e-05
0.01223195491
-0.005338204029
-0.0003127264927
3.87819323e-05
-0.000204767169
0.002650123402
-0.001165989855
-0.0008190830454
-4.914965344e-05
-0.0001498677141
0.0007188063346
0.02133955091
-0.005355374082
-0.0003798929659
-0.0001393880634
0.0008344027625
0.03517890191
-0.01076049171
-0.0009626739659
-0.0001779106771
0.001053261167
0.03813175656
-0.01445515953
-0.00154087346
-0.000204318947
0.0003573461682
0.01939516908
-0.01289494798
-0.001821830672
-0.000180170623
5.841656179e-06
0.008902998084
0.01124531257
-0.007193872727
-0.0001634673419
-0.0001589613891
0.006591730742
0.03389443727
-0.01433568648
-0.0001694169859
-0.0001881344722
0.005599549056
0.04117511767
-0.01889013348
-0.0001811126447
-0.0002858353881
0.003489471177
0.03534526399
-0.01959732688
-0.000176041783
-0.0003369023187
0.001735695563
0.02315681837
-0.007255469344
-0.00016756425
-0.000305181523
0.001285198142
0.01769386646
0.01648662797
-0.0001669308839
-0.0003002891098
0.001210472243
0.01523163733
0.03010201966
-0.0001741083401
-0.0003226169875
0.001146249462
0.01318782038
0.03577802684
-0.0001914620329
-0.0003179469651
0.0008341860384
0.009907463842
0.03467855579
-0.0002109254007
-0.0003397106557
0.00041331459
0.006656242156
0.02967875422
-0.0002189619655
-0.0003587480428
0.0001771005396
0.005050356176
0.02611563348
-0.000244021846
-0.000374169238
0.0001010660522
0.004500117614
0.02391150353
-0.0002751608267
-0.0003556202827
9.613957893e-05
0.004350983895
0.02220216318
-0.0002977296513
-0.0003868485042
9.352056992e-05
0.004217081143
0.02037623957
-0.0003279240174
-0.0004303136867
6.332996141e-05
0.003995307241
0.0183932047
-0.0003769033469
-0.0004856503588
1.183903836e-05
0.003730049003
0.01639772306
-0.0004386990646
-0.0005517434158
-3.680565821e-05
0.003571200458
0.01478817452
-0.000509659669
-0.001272367263
-9.347328972e-06
0.003735048867
0.01377137443
-0.0008433595068
-0.001471613319
0.0001696588787
0.004397307954
0.01308055325
-0.001141060586
-0.0006602666025
0.0005982743873
0.005562457817
0.0118450305
-0.001431232741
-0.0005025680729
0.001499428385
0.007006517866
0.009134106599
-0.00183516222
4.821154304e-05
0.003061061888
0.007784302871
0.004700843033
-0.000408747041
0.001298371225
0.004869991146
0.006287783755
-0.000250379003
0.0007629417351
0.003185616565
0.005157249861
0.002145061914
-0.003746394543
0.002621090223
0.00380748823
0.002080601237
-0.002220321305
-0.004861278045
0.002405469827
0.0007138574366
-0.002156709161
-0.00412471335
-0.004214672343
-0.001303724231
-0.002853328217
-0.003744259197
-0.003668882933
-0.002940634182
-0.003222235628
-0.00329029189
-0.002986041966
-0.002426715277
-0.001785490414
-0.002505955573
-0.002186853724
-0.001792624053
-0.001379876216
-0.0009808825159
-0.001408513356
-0.001181342583
-0.0009459872912
-0.0007149126211
-0.0005096552225
-0.0006960432235
-0.0005817712704
-0.0004626246775
-0.0003494497752
-0.0002567660039
-0.0003242697357
-0.0002696640051
-0.0002153533277
-0.000166978855
-0.0001261820231
-0.0001436748939
-0.0001209978078
-9.880172052e-05
-7.8451563e-05
-6.075907555e-05
-6.292935482e-05
-5.390176754e-05
-4.485931365e-05
-3.636389247e-05
-2.878782927e-05
-2.748176426e-05
-2.388296259e-05
-2.021005856e-05
-1.66871586e-05
-1.347472918e-05
-1.198574929e-05
-1.05502108e-05
-9.061056188e-06
-7.60633301e-06
-6.253092739e-06
-5.231911749e-06
-4.657920614e-06
-4.053815557e-06
-3.45394731e-06
-2.885837406e-06
-2.290205784e-06
-2.059659509e-06
-1.813882236e-06
-1.566245087e-06
-1.327933111e-06
-1.006866718e-06
-9.136875146e-07
-8.132264313e-07
-7.106946179e-07
-6.10612595e-07
-4.451012138e-07
-4.071726377e-07
-3.658738448e-07
-3.232472975e-07
-2.811219009e-07
-1.980584262e-07
-1.825061877e-07
-1.65429248e-07
-1.476356081e-07
-1.298702457e-07
-8.882096207e-08
-8.240477158e-08
-7.531303057e-08
-6.787077301e-08
-6.038747307e-08
-4.022125437e-08
-3.756940274e-08
-3.462790349e-08
-3.153224259e-08
-2.841632414e-08
-1.845578587e-08
-1.737265694e-08
-1.617510723e-08
-1.492399065e-08
-1.368319514e-08
-8.647036227e-09
-8.22858143e-09
-7.776681037e-09
-7.323188168e-09
-6.904542366e-09
-4.211359746e-09
-4.083173663e-09
-3.960962475e-09
-3.865871735e-09
-3.824407428e-09
-2.217698007e-09
-2.22448574e-09
-2.258742556e-09
-2.338387949e-09
-2.487318773e-09
-1.353223927e-09
-1.431679882e-09
-1.551964089e-09
-1.732046604e-09
-1.996567875e-09
-1.02783726e-09
-1.154218992e-09
-1.334742599e-09
-1.589085183e-09
-1.944441774e-09
-9.780985069e-10
-1.146667608e-09
-1.38231159e-09
-1.707518954e-09
-2.153354521e-09
-1.091770484e-09
-1.306211879e-09
-1.603041274e-09
-2.008586858e-09
-2.55909214e-09
-1.330691273e-09
-1.601282509e-09
-1.973576472e-09
-2.478947642e-09
-3.160398832e-09
-1.701732526e-09
-2.046376316e-09
-2.518472629e-09
-3.156250333e-09
-4.011986887e-09
-2.2522036e-09
-2.674094379e-09
-3.186697523e-09
-3.859250682e-09
-4.762677384e-09
-2.82433283e-09
-3.312273879e-09
-3.953446396e-09
-4.760879833e-09
-5.770328206e-09
-3.625231715e-09
-4.18961833e-09
-4.918825413e-09
-5.836467803e-09
-6.968394796e-09
-4.619599001e-09
-5.270955238e-09
-6.103629934e-09
-7.148051927e-09
-8.428129046e-09
-5.880328833e-09
-6.62811143e-09
-7.576332658e-09
-8.702767492e-09
-9.93899725e-09
-7.265631342e-09
-8.010017918e-09
-8.910779396e-09
-9.954723125e-09
-1.11167859e-08
-8.606887382e-09
-9.329651836e-09
-1.018525954e-08
-1.115149101e-08
-1.219575471e-08
-9.925697878e-09
-1.057951681e-08
-1.133522303e-08
-1.216407211e-08
-1.302896453e-08
-1.087146107e-08
-1.145220149e-08
-1.211280168e-08
-1.282352712e-08
-1.354859356e-08
-6.478980857e-09
-2.742357199e-10
-3.961529793e-11
-1.613837375e-11
-6.161514539e-12
-1.850743448e-12
-4.63472115e-13
-1.089762655e-13
-2.772887964e-14
-8.954113607e-15
-3.905440727e-15
-2.119028811e-15
-1.283787592e-15
-8.155845266e-16
-5.278345808e-16
-3.432353778e-16
-2.228105474e-16
-1.439665323e-16
-9.256107672e-17
-5.928644389e-17
-3.792304994e-17
-2.430140937e-17
-1.565190229e-17
-1.016054394e-17
-6.659453654e-18
-4.406990475e-18
-2.938423809e-18
-1.966287785e-18
-1.3140421e-18
-8.728474746e-19
-5.742424302e-19
-3.735218686e-19
-2.4021476e-19
-1.529126298e-19
-9.645376433e-20
-6.026125318e-20
-3.717886754e-20
-2.252582927e-20
-1.331020091e-20
-7.620680351e-21
-4.209173087e-21
-2.239729801e-21
-1.150173122e-21
-5.725375467e-22
-2.779059223e-22
-1.323582151e-22
-6.219433953e-23
-2.895115627e-23
-1.338353721e-23
-6.149870929e-24
-2.807431464e-24
-1.270624068e-24
-5.677933315e-25
-2.484685165e-25
-1.046628932e-25
-4.083281208e-26
-1.342821043e-26
-2.996694281e-27
-2.296640818e-28
-2.086308187e-30
-6.893290444e-07
-2.061825246e-08
-1.454988445e-09
-4.947899515e-10
-1.740622349e-10
-5.162025871e-11
-1.398881077e-11
-4.228943014e-12
-1.590412138e-12
-7.385663958e-13
-3.824218745e-13
-2.087147266e-13
-1.167047911e-13
-6.634085668e-14
-3.818028762e-14
-2.220004784e-14
-1.302681601e-14
-7.709319551e-15
-4.603542766e-15
-2.775834234e-15
-1.692579154e-15
-1.045651335e-15
-6.558522401e-16
-4.181983407e-16
-2.711518923e-16
-1.784851184e-16
-1.18835873e-16
-7.959933575e-17
-5.331798563e-17
-3.551759297e-17
-2.343874982e-17
-1.529637245e-17
-9.873248406e-18
-6.311490006e-18
-4.000983117e-18
-2.514260631e-18
-1.561309107e-18
-9.524176531e-19
-5.665375023e-19
-3.263934828e-19
-1.813055748e-19
-9.698114302e-20
-5.005521019e-20
-2.504478884e-20
-1.222261365e-20
-5.855480493e-21
-2.768848636e-21
-1.297526099e-21
-6.039704703e-22
-2.794349774e-22
-1.284066361e-22
-5.8482045e-23
-2.628751689e-23
-1.156430187e-23
-4.892496659e-24
-1.916169121e-24
-6.358042027e-25
-1.469638619e-25
-1.384533469e-26
-2.342047587e-28
-4.274646141e-06
-1.043715965e-07
-7.310986543e-09
-2.755667888e-09
-1.015040013e-09
-3.612029024e-10
-1.359144314e-10
-6.127289148e-11
-3.172039007e-11
-1.779589198e-11
-1.012821168e-11
-5.781592795e-12
-3.268553048e-12
-1.834093342e-12
-1.020251522e-12
-5.642451256e-13
-3.113214285e-13
-1.722460868e-13
-9.6155967e-14
-5.445737698e-14
-3.143564342e-14
-1.855640632e-14
-1.122894302e-14
-6.971509238e-15
-4.436305579e-15
-2.884102219e-15
-1.905305393e-15
-1.270405271e-15
-8.491108232e-16
-5.655666135e-16
-3.739069145e-16
-2.449427484e-16
-1.590338283e-16
-1.024787561e-16
-6.561741847e-17
-4.172116039e-17
-2.624364081e-17
-1.62228058e-17
-9.776271897e-18
-5.701798894e-18
-3.20331166e-18
-1.731366327e-18
-9.022805435e-19
-4.556171876e-19
-2.243783235e-19
-1.084896822e-19
-5.179732136e-20
-2.451833102e-20
-1.153165412e-20
-5.391583593e-21
-2.503520376e-21
-1.151728171e-21
-5.225528291e-22
-2.317678349e-22
-9.868575176e-23
-3.882871935e-23
-1.298483328e-23
-3.058735627e-24
-3.157685168e-25
-6.981767676e-27
-2.667893114e-06
-3.697146589e-07
-2.662504412e-08
-8.084511615e-09
-3.426890395e-09
-1.635296201e-09
-8.581629341e-10
-4.933410809e-10
-2.982183668e-10
-1.838895631e-10
-1.127237571e-10
-6.834239486e-11
-4.0708351e-11
-2.385106157e-11
-1.371174645e-11
-7.750312626e-12
-4.311471664e-12
-2.372901522e-12
-1.300025314e-12
-7.151460058e-13
-3.983860066e-13
-2.264974386e-13
-1.322009785e-13
-7.948228912e-14
-4.922821614e-14
-3.13012926e-14
-2.030906287e-14
-1.334609749e-14
-8.818352232e-15
-5.824265564e-15
-3.831046975e-15
-2.506360714e-15
-1.63197015e-15
-1.059350415e-15
-6.863094133e-16
-4.431748388e-16
-2.838233907e-16
-1.78814915e-16
-1.098043019e-16
-6.519816797e-17
-3.724806615e-17
-2.044923427e-17
-1.081459622e-17
-5.538166006e-18
-2.764945756e-18
-1.355106403e-18
-6.55766383e-19
-3.145970484e-19
-1.499372763e-19
-7.103031951e-20
-3.341860848e-20
-1.557564728e-20
-7.155373196e-21
-3.209296263e-21
-1.378809231e-21
-5.459814915e-22
-1.841205464e-22
-4.413754467e-23
-4.879600426e-24
-1.389975419e-25
1.351277728e-05
-2.905762786e-06
-1.514697932e-07
-2.280307516e-08
-9.816985111e-09
-5.858642792e-09
-3.717979202e-09
-2.402829935e-09
-1.571724753e-09
-1.032334747e-09
-6.742734634e-10
-4.35880505e-10
-2.77408147e-10
-1.735992823e-10
-1.064445993e-10
-6.396703045e-11
-3.761458198e-11
-2.17080067e-11
-1.23270019e-11
-6.937893888e-12
-3.896998397e-12
-2.205985374e-12
-1.268593296e-12
-7.462508566e-13
-4.503863577e-13
-2.786792964e-13
-1.760252489e-13
-1.127985491e-13
-7.286396275e-14
-4.719982191e-14
-3.056456669e-14
-1.976904639e-14
-1.278808348e-14
-8.293604077e-15
-5.402397661e-15
-3.529978893e-15
-2.299713594e-15
-1.478830769e-15
-9.280909418e-16
-5.630180841e-16
-3.282176511e-16
-1.835934234e-16
-9.879240759e-17
-5.143563377e-17
-2.610413804e-17
-1.300830392e-17
-6.401334252e-18
-3.121806022e-18
-1.511448953e-18
-7.267548536e-19
-3.467820973e-19
-1.6383367e-19
-7.625426049e-20
-3.46198508e-20
-1.503106145e-20
-6.003520416e-21
-2.04461518e-21
-5.001400588e-22
-5.909645793e-23
-2.260069214e-24
6.761199908e-05
-1.641255452e-05
-9.229369206e-07
-8.80720774e-08
-3.002041595e-08
-1.761255896e-08
-1.167228554e-08
-7.923987134e-09
-5.433891437e-09
-3.745592172e-09
-2.581652457e-09
-1.77085926e-09
-1.203498232e-09
-8.079136041e-10
-5.337969157e-10
-3.463805787e-10
-2.201799015e-10
-1.370882049e-10
-8.35780293e-11
-5.008232191e-11
-2.960742645e-11
-1.740380389e-11
-1.023876575e-11
-6.077220703e-12
-3.655296762e-12
-2.233665257e-12
-1.384139502e-12
-8.666318555e-13
-5.457346112e-13
-3.444567476e-13
-2.175683062e-13
-1.375950205e-13
-8.734638141e-14
-5.587364182e-14
-3.614785995e-14
-2.365711006e-14
-1.556745781e-14
-1.018108697e-14
-6.527779634e-15
-4.053441717e-15
-2.417517158e-15
-1.380529142e-15
-7.562966335e-16
-3.999527324e-16
-2.060038859e-16
-1.0426162e-16
-5.217975718e-17
-2.590614251e-17
-1.277093891e-17
-6.248392182e-18
-3.030186978e-18
-1.453012312e-18
-6.856029851e-19
-3.152413023e-19
-1.38535001e-19
-5.602890484e-20
-1.938642003e-20
-4.889969958e-21
-6.26359627e-22
-3.314451664e-23
-0.0001456132338
4.050356353e-06
-3.042277439e-06
-3.416977766e-07
-7.875345365e-08
-3.958295924e-08
-2.56889408e-08
-1.78682438e-08
-1.271214249e-08
-9.133708565e-09
-6.591113314e-09
-4.758909923e-09
-3.42621568e-09
-2.45218346e-09
-1.739607902e-09
-1.219885912e-09
-8.430850565e-10
-5.729373681e-10
-3.820396921e-10
-2.499189273e-10
-1.604870952e-10
-1.014982707e-10
-6.345318943e-11
-3.94420986e-11
-2.448645901e-11
-1.525131131e-11
-9.535889822e-12
-5.978747865e-12
-3.746133247e-12
-2.339092176e-12
-1.453242041e-12
-8.994760656e-13
-5.568314733e-13
-3.468662749e-13
-2.189431829e-13
-1.407685155e-13
-9.199711186e-14
-6.043795243e-14
-3.931026217e-14
-2.493232341e-14
-1.523385653e-14
-8.909831161e-15
-4.98354229e-15
-2.677927024e-15
-1.395991585e-15
-7.141123507e-16
-3.615994173e-16
-1.8203463e-16
-9.118127694e-17
-4.539008099e-17
-2.240341977e-17
-1.092765909e-17
-5.239494508e-18
-2.445644819e-18
-1.091217654e-18
-4.494268555e-19
-1.59554025e-19
-4.217066537e-20
-6.009857318e-21
-4.427466774e-22
-0.0002353413313
8.64369218e-05
-1.252970828e-05
-1.241700481e-06
-2.197354871e-07
-8.201832439e-08
-4.653549294e-08
-3.14826816e-08
-2.257196817e-08
-1.656577082e-08
-1.229800547e-08
-9.183410302e-09
-6.873165529e-09
-5.141247439e-09
-3.834256984e-09
-2.844717588e-09
-2.095174548e-09
-1.528970401e-09
-1.103299634e-09
-7.85759082e-10
-5.514183593e-10
-3.809840479e-10
-2.591086094e-10
-1.737080797e-10
-1.150528118e-10
-7.550972364e-11
-4.919157869e-11
-3.18377608e-11
-2.045018044e-11
-1.301642179e-11
-8.192001496e-12
-5.095378255e-12
-3.138614848e-12
-1.924852638e-12
-1.184430618e-12
-7.383357456e-13
-4.695785758e-13
-3.035112846e-13
-1.968011716e-13
-1.260843388e-13
-7.866151055e-14
-4.722859808e-14
-2.711609177e-14
-1.488774938e-14
-7.876479279e-15
-4.067362593e-15
-2.074134557e-15
-1.051790426e-15
-5.318000172e-16
-2.679758802e-16
-1.342391308e-16
-6.657938936e-17
-3.249250821e-17
-1.544451353e-17
-7.024010797e-18
-2.958669207e-18
-1.083429055e-18
-3.01340631e-19
-4.776978761e-20
-4.657526337e-21
-0.0008144907795
-5.728635837e-07
-1.098931617e-05
-4.248980669e-06
-5.898758367e-07
-1.737445123e-07
-7.987923573e-08
-4.911785873e-08
-3.432315651e-08
-2.522114933e-08
-1.898007429e-08
-1.447435711e-08
-1.112359012e-08
-8.582662837e-09
-6.629956227e-09
-5.115990805e-09
-3.935982063e-09
-3.014189654e-09
-2.294300693e-09
-1.733383965e-09
-1.298160149e-09
-9.625987409e-10
-7.06088225e-10
-5.118211654e-10
-3.663007296e-10
-2.587255145e-10
-1.802270456e-10
-1.237772423e-10
-8.377698836e-11
-5.585357155e-11
-3.663019384e-11
-2.360657171e-11
-1.494891753e-11
-9.323774851e-12
-5.754181283e-12
-3.53829437e-12
-2.188930469e-12
-1.372707637e-12
-8.69801064e-13
-5.510544758e-13
-3.45099896e-13
-2.113084488e-13
-1.250352011e-13
-7.084035477e-14
-3.837416912e-14
-2.010724608e-14
-1.033983616e-14
-5.26773015e-15
-2.672903979e-15
-1.353812893e-15
-6.840913808e-16
-3.436980007e-16
-1.705707227e-16
-8.27092821e-17
-3.849422159e-17
-1.666798436e-17
-6.33041595e-18
-1.862430347e-18
-3.286296167e-19
-4.029099494e-20
-0.001780788335
-0.0002527345686
5.816819968e-05
-1.350585118e-05
-2.074864502e-06
-4.150292998e-07
-1.435912029e-07
-7.420660679e-08
-4.826010275e-08
-3.465276254e-08
-2.603306252e-08
-2.004811389e-08
-1.567257862e-08
-1.236429942e-08
-9.804012877e-09
-7.790539438e-09
-6.190223503e-09
-4.91003952e-09
-3.882493271e-09
-3.056921433e-09
-2.393764907e-09
-1.862891151e-09
-1.439258751e-09
-1.102828707e-09
-8.372125585e-10
-6.290201694e-10
-4.672472103e-10
-3.426732229e-10
-2.476671762e-10
-1.760507224e-10
-1.227976264e-10
-8.387993206e-11
-5.604853919e-11
-3.665033855e-11
-2.349763156e-11
-1.481852067e-11
-9.231386155e-12
-5.72022179e-12
-3.546259179e-12
-2.200182427e-12
-1.35788804e-12
-8.283878847e-13
-4.967646258e-13
-2.903027689e-13
-1.632547367e-13
-8.798057215e-14
-4.595443631e-14
-2.358678705e-14
-1.200305526e-14
-6.085900923e-15
-3.082110781e-15
-1.558265823e-15
-7.82721919e-16
-3.86507776e-16
-1.84309063e-16
-8.235073104e-17
-3.260353822e-17
-1.020153079e-17
-2.005337566e-18
-2.940375891e-19
-0.002659242836
-0.0004186017077
9.259356281e-05
-2.063746543e-05
-5.817894949e-06
-9.743220834e-07
-2.67683977e-07
-1.121209876e-07
-6.499125281e-08
-4.457507034e-08
-3.298363877e-08
-2.540493659e-08
-2.004682093e-08
-1.605994846e-08
-1.298490627e-08
-1.055271052e-08
-8.59597374e-09
-7.003348075e-09
-5.700470913e-09
-4.630103497e-09
-3.748569805e-09
-3.022082393e-09
-2.423789324e-09
-1.932035733e-09
-1.529112202e-09
-1.200400431e-09
-9.337443238e-10
-7.189265397e-10
-5.471767014e-10
-4.110324994e-10
-3.041901276e-10
-2.212778196e-10
-1.577992442e-10
-1.100813003e-10
-7.505895061e-11
-5.005292913e-11
-3.26759397e-11
-2.090445452e-11
-1.313494253e-11
-8.135562662e-12
-4.983502225e-12
-3.016067779e-12
-1.799682365e-12
-1.057431446e-12
-6.09532541e-13
-3.41257232e-13
-1.842637952e-13
-9.634376885e-14
-4.935228391e-14
-2.504130691e-14
-1.26731211e-14
-6.414095322e-15
-3.240307344e-15
-1.620727339e-15
-7.896396692e-16
-3.64118982e-16
-1.50767139e-16
-5.040421281e-17
-1.104572065e-17
-1.853901937e-18
-0.003108580216
-0.0005008915686
-6.049257297e-05
2.588862387e-05
-1.16821951e-05
-2.55193905e-06
-5.787627493e-07
-1.919095263e-07
-8.970792985e-08
-5.537988905e-08
-3.938160569e-08
-2.996626362e-08
-2.367878681e-08
-1.914029642e-08
-1.568353868e-08
-1.296131066e-08
-1.076489352e-08
-8.960781881e-09
-7.462609113e-09
-6.21033302e-09
-5.158545608e-09
-4.272715028e-09
-3.525815643e-09
-2.896094382e-09
-2.365739221e-09
-1.920020545e-09
-1.546678247e-09
-1.235405743e-09
-9.774083515e-10
-7.650778728e-10
-5.917752255e-10
-4.516723886e-10
-3.395969476e-10
-2.510470673e-10
-1.821447619e-10
-1.295190094e-10
-9.013765889e-11
-6.128539269e-11
-4.063129636e-11
-2.622605953e-11
-1.649179404e-11
-1.013119511e-11
-6.092860989e-12
-3.592384339e-12
-2.080441726e-12
-1.183943631e-12
-6.59194025e-13
-3.568214162e-13
-1.872795835e-13
-9.593409148e-14
-4.85440142e-14
-2.451410886e-14
-1.239234294e-14
-6.240703641e-15
-3.088768845e-15
-1.464695783e-15
-6.344244874e-16
-2.275160786e-16
-5.57028783e-17
-1.034565914e-17
-0.005512579127
-0.0008861508543
-0.0001951424807
8.181741902e-05
-1.608678774e-05
-5.651220628e-06
-1.313596123e-06
-3.686255101e-07
-1.346973465e-07
-6.841047153e-08
-4.449634609e-08
-3.274755042e-08
-2.560568471e-08
-2.075107173e-08
-1.71119937e-08
-1.433762769e-08
-1.209479265e-08
-1.023990441e-08
-8.683410457e-09
-7.36563171e-09
-6.243483313e-09
-5.284333874e-09
-4.462394034e-09
-3.756752397e-09
-3.150271178e-09
-2.628850501e-09
-2.180895322e-09
-1.796826271e-09
-1.46868854e-09
-1.189790061e-09
-9.543588913e-10
-7.572466885e-10
-5.937258017e-10
-4.594549442e-10
-3.504769275e-10
-2.631546726e-10
-1.941530406e-10
-1.404149991e-10
-9.921387839e-11
-6.825181457e-11
-4.555036238e-11
-2.942892072e-11
-1.840500542e-11
-1.115109114e-11
-6.571718357e-12
-3.783455773e-12
-2.132956225e-12
-1.179379597e-12
-6.381235826e-13
-3.364194935e-13
-1.73109489e-13
-8.773205172e-14
-4.42605903e-14
-2.230651751e-14
-1.114267345e-14
-5.402948959e-15
-2.441848588e-15
-9.429743106e-16
-2.592962831e-16
-5.223439412e-17
-0.01043028505
-0.001770205276
-0.0003508733961
3.72789106e-05
-9.636314362e-07
-9.452470982e-06
-2.773222895e-06
-7.298683974e-07
-2.284167272e-07
-9.018098293e-08
-4.873702753e-08
-3.288510541e-08
-2.49127373e-08
-2.002213802e-08
-1.650556359e-08
-1.391828707e-08
-1.18455007e-08
-1.014044154e-08
-8.711431796e-09
-7.499288766e-09
-6.462778674e-09
-5.57152907e-09
-4.801934063e-09
-4.134839913e-09
-3.554355472e-09
-3.047177258e-09
-2.602340172e-09
-2.211110827e-09
-1.866838487e-09
-1.564481747e-09
-1.29995547e-09
-1.069921953e-09
-8.716034549e-10
-7.023224785e-10
-5.593350946e-10
-4.398478322e-10
-3.410469786e-10
-2.602071511e-10
-1.947900792e-10
-1.425380816e-10
-1.015191877e-10
-7.003760377e-11
-4.661823927e-11
-2.986074279e-11
-1.840420672e-11
-1.094766903e-11
-6.311282092e-12
-3.542474082e-12
-1.946343145e-12
-1.04904871e-12
-5.54334841e-13
-2.870690226e-13
-1.464260785e-13
-7.40949437e-14
-3.72278909e-14
-1.835120027e-14
-8.602899381e-15
-3.572115169e-15
-1.109359289e-15
-2.423186124e-16
-0.01471417993
-0.002732562216
-0.0005356904146
-0.0001087752532
5.348097092e-05
-1.277345495e-05
-5.059797251e-06
-1.515901242e-06
-4.393668071e-07
-1.45524378e-07
-6.030428415e-08
-3.298362687e-08
-2.225285751e-08
-1.699587815e-08
-1.374344964e-08
-1.1467838e-08
-9.745549369e-09
-8.378600733e-09