/*--------------------------------*- C++ -*----------------------------------*\
  =========                 |
  \\      /  F ield         | OpenFOAM: The Open Source CFD Toolbox
   \\    /   O peration     | Website:  https://openfoam.org
    \\  /    A nd           | Version:  10
     \\/     M anipulation  |
\*---------------------------------------------------------------------------*/
FoamFile
{
    format      ascii;
    class       volScalarField;
    location    "3000";
    object      RR.C2H4;
}
// * * * * * * * * * * * * * * * * * * * * * * * * * * * * * * * * * * * * * //

dimensions      [1 -3 -1 0 0 0 0];

internalField   nonuniform List<scalar> 
5170
(
8.314056561e-61
5.97018888e-61
2.815514677e-61
9.886765119e-62
6.714830734e-62
3.336783484e-58
2.345248844e-58
1.049907839e-58
4.30680514e-59
8.06076339e-59
1.353285203e-55
9.334330456e-56
4.01182222e-56
2.352260078e-56
8.628814423e-56
5.585728967e-53
3.806050936e-53
1.638806007e-53
1.482632179e-53
8.258617255e-53
2.347845868e-50
1.598490263e-50
7.247599026e-51
1.009598436e-50
7.287294714e-50
1.009417645e-47
6.970638522e-48
3.457099679e-48
7.146685667e-48
6.011276217e-47
4.44223799e-45
3.146121491e-45
1.809777309e-45
5.188006174e-45
4.768035458e-44
1.997425881e-42
1.472906037e-42
1.044687644e-42
3.848980589e-42
3.696603682e-41
9.223096107e-40
7.274392357e-40
6.470725531e-40
2.913965594e-39
2.822271315e-38
4.383796912e-37
3.792310849e-37
4.248649375e-37
2.259381257e-36
2.133579076e-35
2.143876899e-34
2.082642578e-34
2.935474898e-34
1.794516807e-33
1.60367725e-32
1.073574228e-31
1.198066962e-31
2.132131887e-31
1.454485127e-30
1.202091887e-29
5.490281953e-29
7.182059335e-29
1.62875201e-28
1.211853069e-27
9.003542248e-27
2.845335115e-26
4.432319399e-26
1.291260574e-25
1.036318181e-24
6.747970961e-24
1.486201731e-23
2.795077412e-23
1.043697261e-22
9.016762861e-22
5.063774092e-21
7.699386933e-21
1.761197974e-20
8.375989222e-20
7.669704689e-19
3.804660185e-18
3.92037634e-18
1.108024568e-17
6.465155012e-17
6.211290052e-16
2.864222794e-15
1.92296404e-15
6.805727477e-15
4.805583096e-14
4.754969176e-13
2.156896418e-12
8.612108074e-13
3.962663363e-12
3.313087154e-11
3.306242333e-10
1.627578979e-09
3.292528258e-10
2.215751322e-09
2.214119027e-08
2.088759115e-07
1.245208312e-06
1.460703591e-24
-7.466953411e-27
-2.158422815e-26
6.742915983e-26
-4.68968367e-25
-1.235383975e-25
-3.29347355e-26
-2.302427019e-26
-1.06325083e-25
-1.631271967e-25
-5.515832595e-26
-2.337826273e-26
-1.769456207e-26
-4.471692088e-26
-5.385598013e-26
-2.557006792e-26
-1.468677308e-26
-1.244839126e-26
-2.464352894e-26
-2.290770009e-26
-1.252284996e-26
-9.536814822e-27
-8.427666879e-27
-1.461024027e-26
-1.078083327e-26
-6.33513516e-27
-6.111379227e-27
-5.624063394e-27
-8.661782929e-27
-5.084229896e-27
-3.330360705e-27
-3.946583502e-27
-3.752034044e-27
-5.038340344e-27
-2.394042561e-27
-1.780065295e-27
-2.509333487e-27
-2.460196755e-27
-2.653073054e-27
-1.068314065e-27
-1.015241821e-27
-1.548170424e-27
-1.542711944e-27
-1.743010968e-28
-4.607036082e-28
-8.448893368e-27
-3.395630987e-27
-1.507559799e-27
-7.458735858e-28
-2.119933772e-28
-1.325998732e-24
-4.146190756e-25
-1.000736677e-25
-2.69289254e-26
-4.615794789e-27
-2.238777702e-22
-6.991940453e-23
-1.688226211e-23
-4.380846014e-24
-6.987774975e-25
-3.800529792e-20
-1.181719197e-20
-2.869771977e-21
-7.220182735e-22
-1.079277593e-22
-6.537259624e-18
-2.019760444e-18
-4.887845064e-19
-1.192102966e-19
-1.664678042e-20
-1.132897711e-15
-3.449319486e-16
-8.28219146e-17
-1.957062392e-17
-2.541484121e-18
-1.986105726e-13
-5.891752977e-14
-1.377647414e-14
-3.088217892e-15
-3.730121505e-16
-3.507927731e-11
-9.932135048e-12
-2.236474352e-12
-4.728597198e-13
-5.290917554e-14
-6.416683822e-09
-1.649760178e-09
-3.540180084e-10
-7.016563668e-11
-7.27773773e-12
-1.283340164e-06
-2.674691136e-07
-5.392225939e-08
-9.570226965e-09
-9.143847568e-10
-0.0007799407334
-5.829568349e-05
-8.746819047e-06
-1.250729104e-06
-1.052101986e-07
1.534523216e-08
1.457019951e-07
2.929307536e-06
6.264612593e-05
0.002646775672
6.447681624e-08
5.218336487e-07
8.188764292e-06
0.0001299402635
0.002987244603
1.584974549e-07
1.119050585e-06
1.421644612e-05
0.000186312907
0.002598004747
3.100575966e-07
1.955236385e-06
2.106646563e-05
0.0002494779456
0.002306558214
5.243074331e-07
2.994000645e-06
2.873326511e-05
0.0003140667446
0.002086502971
8.209048585e-07
4.328012946e-06
3.992573671e-05
0.0003973385259
0.002072049589
1.309347269e-06
6.788132531e-06
6.485336055e-05
0.000542907636
0.002356906361
2.209759417e-06
1.197735823e-05
0.0001128441138
0.0007267243787
0.002685979663
3.937758391e-06
2.235529656e-05
0.0001832572456
0.0008883967185
0.002834086649
7.341172324e-06
4.147044862e-05
0.0002704047709
0.001033751786
0.002962550309
1.480494726e-05
7.368534673e-05
0.0003675474593
0.00118769654
0.003195089988
2.927827831e-05
0.0001190925146
0.0004694514134
0.001350575193
0.003450202027
5.549799574e-05
0.0001788944276
0.0005777512042
0.001510437692
0.003620236277
0.000100712195
0.0002557882027
0.0006953918905
0.001662075319
0.003791984918
0.0001754727886
0.000355591332
0.0008313738857
0.001839805752
0.004097929897
0.000289486783
0.0004890985582
0.001005422099
0.00209251585
0.004672852044
0.0004536543649
0.0006726314196
0.001243257901
0.00242902145
0.005589480245
0.0006699644646
0.000910878406
0.001533545862
0.002909819796
0.00675619811
0.0009396035869
0.001199919176
0.001896538514
0.003671881822
0.008234863676
0.00126744245
0.00158119551
0.002518104558
0.004798745392
0.01012320794
0.001812465875
0.002258133225
0.003511965232
0.006377976216
0.0128238085
0.002735013943
0.003197370482
0.004996178073
0.008698771163
0.01556451013
0.004062697957
0.004894457158
0.007151138616
0.011617003
0.01943741443
0.006116143403
0.007271278344
0.01033569182
0.01520035479
0.02596094407
0.009383540172
0.01104032901
0.01400299206
0.02145941456
0.0339752806
0.0145888116
0.01694299269
0.02307647674
0.03080792898
0.0474857189
0.02367653577
0.02715099229
0.03555178667
0.04875326911
0.07463988438
0.03997548099
0.04525284719
0.05862811892
0.07684493865
0.1153288399
0.06684619624
0.07395950886
0.0988000942
0.1374780954
0.198259182
0.1228962585
0.1380949645
0.1676769113
0.2225786407
0.3183118176
0.2337926909
0.2529093609
0.3032613278
0.391736051
0.508981359
0.4565118422
0.4908772951
0.5667302829
0.6772245545
0.8687195402
0.8595294322
0.9066727003
1.024607648
1.130650193
1.328989622
1.281643651
1.306263486
1.354538112
1.404307292
1.412807067
1.032942663
0.9705848525
0.8572248433
0.6911520779
0.444494448
-0.2357022319
-0.283493758
-0.3803801405
-0.5210288883
-0.6776939025
-0.8318564021
-0.8413981208
-0.8590764495
-0.87853173
-0.8925758898
-0.6926974639
-0.6890086775
-0.6803368979
-0.6659581758
-0.6450032933
-0.4222461063
-0.418389939
-0.4098701053
-0.3969221555
-0.3796601754
-0.2265991977
-0.2242542132
-0.2189548363
-0.2106042638
-0.1987229404
-0.1084195976
-0.1066518557
-0.1027513511
-0.09693662543
-0.08955655795
-0.04575792944
-0.04502967655
-0.04347084378
-0.04122458121
-0.03843078063
-0.01925104138
-0.01898012574
-0.01839950812
-0.01755712853
-0.01649941234
-0.008141012014
-0.008039071154
-0.007819495889
-0.007499250361
-0.007094238127
-0.003462889859
-0.003423815235
-0.003339671518
-0.003216507792
-0.003059874032
-0.001482755862
-0.001467677392
-0.0014350833
-0.00138719685
-0.001325995999
-0.000639725703
-0.0006338044352
-0.0006210130613
-0.000602170255
-0.000577992055
-0.0002781960097
-0.0002758526098
-0.0002707746642
-0.0002632747226
-0.0002536165102
-0.0001220007672
-0.0001210580047
-0.0001190164644
-0.0001159951586
-0.0001120926588
-5.396993474e-05
-5.358754509e-05
-5.275742313e-05
-5.15263534e-05
-4.993176551e-05
-2.409845072e-05
-2.394098299e-05
-2.359929371e-05
-2.30917537e-05
-2.243274713e-05
-1.086644545e-05
-1.080105098e-05
-1.06588662e-05
-1.044729954e-05
-1.017197224e-05
-4.951467554e-06
-4.923952697e-06
-4.864145351e-06
-4.775039553e-06
-4.658864798e-06
-2.281501123e-06
-2.269873078e-06
-2.244561729e-06
-2.206811951e-06
-2.157532277e-06
-1.064865459e-06
-1.059967265e-06
-1.049314986e-06
-1.033432652e-06
-1.0127098e-06
-5.059564639e-07
-5.039890258e-07
-4.997157337e-07
-4.933678632e-07
-4.851329724e-07
-2.484193997e-07
-2.477805014e-07
-2.464094256e-07
-2.444152502e-07
-2.419113925e-07
-1.312235426e-07
-1.312556533e-07
-1.313535576e-07
-1.31577443e-07
-1.320212565e-07
-8.144730759e-08
-8.190595392e-08
-8.294481824e-08
-8.460623756e-08
-8.699211713e-08
-6.682188959e-08
-6.767489532e-08
-6.958955765e-08
-7.260680106e-08
-7.685847893e-08
-6.990698757e-08
-7.104386659e-08
-7.357852523e-08
-7.752537237e-08
-8.314069889e-08
-9.051810229e-08
-9.213723395e-08
-9.574353549e-08
-1.013503841e-07
-1.091048694e-07
-1.254945986e-07
-1.276208258e-07
-1.323428467e-07
-1.396466053e-07
-1.496750448e-07
-1.76358673e-07
-1.790705938e-07
-1.850789459e-07
-1.943342895e-07
-2.069699207e-07
-2.458778622e-07
-2.492063963e-07
-2.565641834e-07
-2.678529843e-07
-2.831789643e-07
-3.359267449e-07
-3.398394859e-07
-3.484683073e-07
-3.616539067e-07
-3.794546284e-07
-4.457256664e-07
-4.500468302e-07
-4.595481525e-07
-4.739921375e-07
-4.933500288e-07
-5.668785701e-07
-5.713522862e-07
-5.811624184e-07
-5.960070474e-07
-6.157735753e-07
-6.903115168e-07
-6.946294989e-07
-7.040728404e-07
-7.182974143e-07
-7.371180673e-07
-7.7515231e-07
-7.790584164e-07
-7.875804944e-07
-8.003642681e-07
-8.171805362e-07
0.02965895178
0.02159829018
0.01116010408
0.007418243651
0.005844790743
0.005604728248
0.006333383454
0.006693557059
0.006498730434
0.00654029659
0.006996128656
0.007446224044
0.007627768493
0.007885000542
0.008525940477
0.009713923057
0.01127726408
0.0129924218
0.01515595153
0.01792463461
0.02002904345
0.0242606437
0.03099844221
0.03803331198
0.0500660557
0.06891058783
0.1066602783
0.1617689781
0.2498624829
0.4097291676
0.64359636
1.045757621
1.475786142
1.366513893
0.226466845
-0.7849628678
-0.8971750411
-0.6280481633
-0.3661663928
-0.1886827011
-0.08404992323
-0.03633775069
-0.01569745209
-0.006784338571
-0.002939143106
-0.001278527045
-0.000559139602
-0.0002460505157
-0.0001090231028
-4.867288028e-05
-2.191075996e-05
-9.95322764e-06
-4.566335053e-06
-2.118218205e-06
-9.961896507e-07
-4.786214709e-07
-2.400242976e-07
-1.325434617e-07
-8.913614503e-08
-8.041390172e-08
-8.804380956e-08
-1.157788742e-07
-1.582360173e-07
-2.176847724e-07
-2.960904221e-07
-3.943510883e-07
-5.094157076e-07
-6.320608849e-07
-7.525021717e-07
-8.308317442e-07
0.3535050174
-0.03920227049
-0.002011440645
-0.0001570465123
-1.058448046e-05
0.1057931049
3.298516363
-0.4500516301
-0.01932612073
-0.0008379796091
0.06251208334
1.492352047
-0.6834664751
-0.03782359025
-0.001765310499
0.03675620919
0.6783950483
-0.1844412235
-0.1042078123
-0.005643187412
0.02458605409
0.3858239534
2.885548797
-0.7120036248
-0.04732738862
0.02325582017
0.310576044
4.491455281
-1.392543118
-0.1158521455
0.02584642538
0.28790508
4.48095677
-1.801522593
-0.1890798306
0.02490833155
0.2219960069
3.025206293
-1.751861895
-0.236062613
0.02200976807
0.1639245319
1.885005349
0.8859648536
-0.8598177801
0.02114616371
0.1403026813
1.40314443
3.833515676
-1.768133989
0.02184494194
0.1304186069
1.156948272
5.116993088
-2.423582493
0.02207567334
0.1176545619
0.9027987708
5.009788762
-2.688784985
0.02121608524
0.1005868832
0.6723216127
3.943170943
-1.492754113
0.02089169375
0.09053416113
0.5525666529
3.186862553
1.34733871
0.02168658105
0.08782528595
0.4951795352
2.734488223
3.368381276
0.02321951997
0.08977345053
0.4660560873
2.419871319
4.535871709
0.02552554506
0.09174177628
0.4371866388
2.092623842
4.936645773
0.02774749344
0.09228841294
0.4037178244
1.773460316
4.769890427
0.02799769797
0.09473148504
0.3865660294
1.58672116
4.52332718
0.03182905998
0.1020312871
0.3924182179
1.516884583
4.3383326
0.03727267609
0.1149535886
0.417445553
1.515601218
4.193204198
0.04336098708
0.1335168698
0.4547193113
1.542192926
4.047889142
0.05311797256
0.1572435789
0.5004863404
1.581066197
3.889299103
0.06688363915
0.1874116803
0.5567649867
1.634101262
3.719419068
0.08627327494
0.2274032578
0.6310449713
1.71801373
3.563821051
0.1150444089
0.3146047064
0.7410822158
1.863321608
3.43127446
0.1725072723
0.4020388784
0.910085971
2.087002557
3.257191436
0.2550147466
0.5145878383
1.161079429
2.359805249
2.89729345
0.3834635095
0.7340743807
1.507698069
2.57302772
2.202786963
0.6399654605
1.063935261
1.904726869
2.498372515
1.154199954
0.8890436526
1.492340745
2.154192029
1.874767207
-0.02724843361
1.333185485
1.835728612
1.866972838
0.7105393533
-0.9681163109
1.638563839
1.603307773
0.8129136907
-0.5053609841
-1.414732057
1.15461974
0.4808063166
-0.4636388745
-1.189343201
-1.389527039
-0.1282090128
-0.6973776726
-1.108653646
-1.23655984
-1.094357635
-0.9143563615
-1.047131092
-1.057609303
-0.9477260949
-0.7298619694
-0.8850467901
-0.8374545085
-0.7455592831
-0.6065771937
-0.4250936981
-0.5944885905
-0.5313832423
-0.44593821
-0.3335141252
-0.2315429439
-0.34133219
-0.2929402571
-0.2291671487
-0.168679975
-0.1211251052
-0.1709356243
-0.1391897645
-0.1087722999
-0.08261914631
-0.0612402173
-0.07591194029
-0.06292344585
-0.05054947547
-0.03949393258
-0.03011184978
-0.03324356157
-0.02815015884
-0.02314394958
-0.01852838158
-0.01448674985
-0.01450803444
-0.01250386863
-0.01048531349
-0.008575377215
-0.006857236765
-0.006323490931
-0.005532449736
-0.004719470472
-0.003933044207
-0.003208754066
-0.002759194498
-0.002445514167
-0.002117548754
-0.001794174494
-0.001490143304
-0.001207635291
-0.001082440324
-0.0009495974456
-0.0008164209677
-0.0006889241267
-0.0005309393385
-0.0004805745764
-0.0004264502788
-0.0003714010469
-0.0003178542963
-0.0002347180942
-0.0002142793619
-0.0001920707714
-0.0001691956267
-0.0001466310469
-0.0001044207533
-9.60489003e-05
-8.686414441e-05
-7.729846354e-05
-6.774527543e-05
-4.678378342e-05
-4.332149812e-05
-3.949089745e-05
-3.546233098e-05
-3.139492048e-05
-2.112692994e-05
-1.968086981e-05
-1.806917611e-05
-1.635971715e-05
-1.461711634e-05
-9.624568049e-06
-9.014777262e-06
-8.330863781e-06
-7.6001983e-06
-6.849420006e-06
-4.427256681e-06
-4.168054703e-06
-3.87595123e-06
-3.562234288e-06
-3.238157482e-06
-2.059123594e-06
-1.948721988e-06
-1.82407384e-06
-1.690049433e-06
-1.551676592e-06
-9.713802886e-07
-9.251590083e-07
-8.732705525e-07
-8.180394286e-07
-7.620077862e-07
-4.688830309e-07
-4.510944043e-07
-4.31758866e-07
-4.122354306e-07
-3.941402886e-07
-2.372646357e-07
-2.328186941e-07
-2.290320322e-07
-2.269713671e-07
-2.280120615e-07
-1.334368144e-07
-1.361568377e-07
-1.410095066e-07
-1.490863323e-07
-1.618610121e-07
-9.250841464e-08
-1.002947998e-07
-1.115766827e-07
-1.276749043e-07
-1.492177759e-07
-8.519704146e-08
-9.557401076e-08
-1.10901953e-07
-1.320006455e-07
-1.605813886e-07
-9.561206779e-08
-1.120373045e-07
-1.34206822e-07
-1.635513634e-07
-2.018532968e-07
-1.259921346e-07
-1.476931085e-07
-1.763321716e-07
-2.133446065e-07
-2.603384954e-07
-1.713030315e-07
-1.988990871e-07
-2.348028813e-07
-2.803252751e-07
-3.369039318e-07
-2.339655347e-07
-2.679209376e-07
-3.113834549e-07
-3.654626796e-07
-4.312788349e-07
-3.156248288e-07
-3.558671705e-07
-4.065602804e-07
-4.684282694e-07
-5.420997315e-07
-4.16796205e-07
-4.62473506e-07
-5.191308385e-07
-5.864906963e-07
-6.634263644e-07
-5.334521913e-07
-5.815462785e-07
-6.397625339e-07
-7.075280234e-07
-7.838203631e-07
-6.563310841e-07
-7.042052837e-07
-7.610595109e-07
-8.257377514e-07
-8.966151576e-07
-7.752835117e-07
-8.195444608e-07
-8.710331807e-07
-9.281312874e-07
-9.887792218e-07
-8.50949257e-07
-8.895019307e-07
-9.334934597e-07
-9.810846044e-07
-1.030049989e-06
1.680337349e-07
-9.650788549e-10
-3.464987286e-11
-3.732785782e-12
-6.978123328e-13
-1.394773572e-13
-2.564619215e-14
-4.422216782e-15
-7.34642563e-16
-1.046822609e-16
4.548449987e-18
2.075373284e-17
1.935062768e-17
1.52262676e-17
1.153539363e-17
8.758445179e-18
6.755245656e-18
5.302696422e-18
4.223895264e-18
3.400007174e-18
2.756560319e-18
2.248091154e-18
1.845683028e-18
1.529093705e-18
1.282642064e-18
1.093725358e-18
9.515898269e-19
8.469007301e-19
7.718048177e-19
7.195052497e-19
6.837460833e-19
6.584093688e-19
6.374529863e-19
6.152569789e-19
5.872284538e-19
5.504444786e-19
5.041069792e-19
4.495837006e-19
3.899705827e-19
3.292637716e-19
2.713902507e-19
2.194071688e-19
1.750921254e-19
1.38942534e-19
1.104598319e-19
8.856010788e-20
7.194840784e-20
5.936896791e-20
4.973559771e-20
4.216463234e-20
3.59597514e-20
3.059062402e-20
2.567363313e-20
2.096216543e-20
1.634070714e-20
1.181747278e-20
7.530248922e-21
3.858017852e-21
1.312776077e-21
2.572289322e-22
-1.023640054e-06
-1.220628118e-07
-3.450608766e-09
-2.500319571e-10
-3.753925957e-11
-7.221244039e-12
-1.536007291e-12
-3.868925722e-13
-1.177054477e-13
-4.213262363e-14
-1.659774584e-14
-7.015171162e-15
-3.13250926e-15
-1.46232634e-15
-7.006908231e-16
-3.366749593e-16
-1.576665799e-16
-6.889490109e-17
-2.542788967e-17
-4.89001803e-18
4.13155685e-18
7.514152419e-18
8.270659112e-18
7.912623071e-18
7.175558216e-18
6.395656315e-18
5.711588375e-18
5.167485314e-18
4.764013583e-18
4.482357344e-18
4.294280761e-18
4.16584761e-18
4.060168752e-18
3.941564809e-18
3.780531381e-18
3.558269804e-18
3.269837341e-18
2.924502139e-18
2.542921154e-18
2.151742568e-18
1.77722102e-18
1.439905271e-18
1.151865481e-18
9.166349583e-19
7.31126128e-19
5.883558501e-19
4.799175447e-19
3.976592227e-19
3.344973937e-19
2.846468964e-19
2.435577396e-19
2.077651421e-19
1.747543647e-19
1.429114268e-19
1.115152338e-19
8.079953796e-20
5.220318093e-20
2.821507048e-20
1.118822102e-20
2.045661469e-21
-7.050089043e-06
-2.608823397e-07
-1.132900208e-08
-1.451796489e-09
-2.985462669e-10
-7.818827142e-11
-2.392305568e-11
-8.695538361e-12
-3.482279058e-12
-1.485084943e-12
-6.466042544e-13
-2.878462342e-13
-1.30293007e-13
-6.019217569e-14
-2.815752145e-14
-1.323335141e-14
-6.196706539e-15
-2.872073426e-15
-1.309653187e-15
-5.813541234e-16
-2.454746385e-16
-9.282245206e-17
-2.511134289e-17
3.679408193e-18
1.490377148e-17
1.846357422e-17
1.89049492e-17
1.827435496e-17
1.745480725e-17
1.679290737e-17
1.636085821e-17
1.610394813e-17
1.590734539e-17
1.56351307e-17
1.516388243e-17
1.440999428e-17
1.334902083e-17
1.201935015e-17
1.051016992e-17
8.936951518e-18
7.413955846e-18
6.031925065e-18
4.845667633e-18
3.873509709e-18
3.105184036e-18
2.512743784e-18
2.06199648e-18
1.719275283e-18
1.455223949e-18
1.245815438e-18
1.071959576e-18
9.188818692e-19
7.75896753e-19
6.363184726e-19
4.975211531e-19
3.61637737e-19
2.368108304e-19
1.325623559e-19
5.384246509e-20
8.708472086e-21
-5.557962307e-05
-1.195939889e-06
-4.518381967e-08
-5.609336026e-09
-1.496193981e-09
-5.427933583e-10
-2.248047908e-10
-1.006937929e-10
-4.672783547e-11
-2.202219837e-11
-1.03772297e-11
-4.905820605e-12
-2.325384112e-12
-1.109740171e-12
-5.305513561e-13
-2.522783426e-13
-1.185120732e-13
-5.485751117e-14
-2.497659911e-14
-1.120143129e-14
-4.95143118e-15
-2.151470836e-15
-9.084313062e-16
-3.611585604e-16
-1.228726999e-16
-2.103703883e-17
2.103117495e-17
3.74401585e-17
4.332227487e-17
4.527070772e-17
4.603774799e-17
4.658194769e-17
4.702975743e-17
4.713903925e-17
4.656361809e-17
4.501309942e-17
4.235650887e-17
3.86753717e-17
3.424396073e-17
2.944944147e-17
2.469019692e-17
2.029064231e-17
1.645889765e-17
1.327981102e-17
1.073991111e-17
8.764838719e-18
7.251222934e-18
6.093458223e-18
5.196847411e-18
4.481821118e-18
3.883637618e-18
3.35119316e-18
2.846307744e-18
2.345414282e-18
1.841093004e-18
1.345973703e-18
8.915169908e-19
5.109822833e-19
2.020026133e-19
2.898191964e-20
-0.00117465187
-1.420464936e-05
-3.090236924e-07
-1.974074847e-08
-5.52745196e-09
-2.508981979e-09
-1.257720298e-09
-6.440044676e-10
-3.32643853e-10
-1.721293385e-10
-8.869416768e-11
-4.551005929e-11
-2.324150051e-11
-1.184751879e-11
-6.013324749e-12
-3.032356675e-12
-1.509292043e-12
-7.385547895e-13
-3.523836848e-13
-1.643984632e-13
-7.501143735e-14
-3.360178678e-14
-1.480211581e-14
-6.416124294e-15
-2.722486296e-15
-1.112624657e-15
-4.173069403e-16
-1.19715427e-16
6.809496676e-18
6.103635605e-17
8.554886492e-17
9.818160395e-17
1.058244619e-16
1.106286318e-16
1.128096043e-16
1.11989946e-16
1.078738704e-16
1.005930422e-16
9.077989842e-17
7.942956402e-17
6.76591505e-17
5.644707529e-17
4.646574476e-17
3.805054626e-17
3.124661758e-17
2.589717199e-17
2.17466616e-17
1.852399649e-17
1.598485276e-17
1.392255654e-17
1.216622558e-17
1.057741787e-17
9.048504909e-18
7.508516823e-18
5.938493979e-18
4.382435358e-18
2.941958093e-18
1.714948069e-18
6.428971394e-19
8.444065823e-20
-0.005774277842
-8.789750568e-05
-1.92679234e-06
-8.638164389e-08
-1.818757892e-08
-8.301612393e-09
-4.503280437e-09
-2.517747959e-09
-1.41967376e-09
-8.023293686e-10
-4.525524789e-10
-2.541672577e-10
-1.419748889e-10
-7.890375164e-11
-4.35515297e-11
-2.385814078e-11
-1.291924659e-11
-6.886601483e-12
-3.594252622e-12
-1.832026386e-12
-9.073100043e-13
-4.374550316e-13
-2.053528689e-13
-9.410974884e-14
-4.213230345e-14
-1.84698171e-14
-7.928606513e-15
-3.322623005e-15
-1.337225553e-15
-4.853010038e-16
-1.147166281e-16
5.38934113e-17
1.373521441e-16
1.82955983e-16
2.089244775e-16
2.219706306e-16
2.242984915e-16
2.172428408e-16
2.024838609e-16
1.822693558e-16
1.591761786e-16
1.357067801e-16
1.138603176e-16
9.489150881e-17
7.931463512e-17
6.697514081e-17
5.735926031e-17
4.983728984e-17
4.381593725e-17
3.879428382e-17
3.436121664e-17
3.019417979e-17
2.605408687e-17
2.179284519e-17
1.739923611e-17
1.301462508e-17
8.898677154e-18
5.265654738e-18
1.854235778e-18
2.301892228e-19
-0.01518113245
-0.0003847960203
-1.166837838e-05
-5.535073009e-07
-5.6330259e-08
-1.991806061e-08
-1.061683158e-08
-6.248701754e-09
-3.778891271e-09
-2.304028919e-09
-1.406841168e-09
-8.578796042e-10
-5.217221207e-10
-3.162387702e-10
-1.909424778e-10
-1.146988138e-10
-6.831663233e-11
-4.024006565e-11
-2.333009257e-11
-1.325480963e-11
-7.348828439e-12
-3.966248103e-12
-2.075339175e-12
-1.051166876e-12
-5.148806784e-13
-2.442631472e-13
-1.122906396e-13
-5.018575112e-14
-2.190370378e-14
-9.393708876e-15
-3.965359078e-15
-1.617826155e-15
-5.81007962e-16
-9.936632274e-17
1.39924785e-16
2.644889939e-16
3.282740857e-16
3.546545614e-16
3.55555231e-16
3.385357779e-16
3.097487919e-16
2.747811847e-16
2.384957767e-16
2.045873386e-16
1.753228299e-16
1.515770718e-16
1.329398733e-16
1.183824243e-16
1.066973668e-16
9.675347896e-17
8.757340974e-17
7.838910682e-17
6.866874092e-17
5.817365578e-17
4.704524457e-17
3.577673458e-17
2.501452861e-17
1.499672304e-17
4.974702465e-18
5.967798372e-19
-0.02326523483
-0.001737096407
-5.844824127e-05
-2.785499993e-06
-2.209373738e-07
-4.632809654e-08
-2.035376811e-08
-1.170000709e-08
-7.278609603e-09
-4.649946525e-09
-2.999230877e-09
-1.940375617e-09
-1.255727238e-09
-8.120098158e-10
-5.244160728e-10
-3.38088685e-10
-2.17365626e-10
-1.391495724e-10
-8.838643652e-11
-5.55223528e-11
-3.435366637e-11
-2.082553205e-11
-1.230194105e-11
-7.051251095e-12
-3.906375526e-12
-2.081104383e-12
-1.0654315e-12
-5.242978993e-13
-2.481747369e-13
-1.134753883e-13
-5.045703526e-14
-2.204729826e-14
-9.565548382e-15
-4.121141669e-15
-1.703599539e-15
-5.915740116e-16
-5.916148013e-17
2.079120987e-16
3.436858315e-16
4.059639779e-16
4.235152662e-16
4.133719817e-16
3.871015463e-16
3.533864368e-16
3.186933177e-16
2.872572702e-16
2.609487422e-16
2.398324836e-16
2.227546902e-16
2.080031771e-16
1.936766846e-16
1.780141397e-16
1.597082139e-16
1.382278857e-16
1.140461907e-16
8.852128208e-17
6.319964112e-17
3.83134773e-17
1.217367697e-17
1.397363165e-18
-0.09211372996
-0.009161877756
-0.000432230577
-2.139634094e-05
-1.069523418e-06
-1.276601453e-07
-3.81659028e-08
-1.920067305e-08
-1.170257532e-08
-7.619374385e-09
-5.09124932e-09
-3.440249492e-09
-2.335947468e-09
-1.589147265e-09
-1.081653413e-09
-7.360719629e-10
-5.004894091e-10
-3.397429862e-10
-2.299448429e-10
-1.548657908e-10
-1.034190777e-10
-6.82896646e-11
-4.443897161e-11
-2.836032391e-11
-1.763967466e-11
-1.064630244e-11
-6.196944237e-12
-3.454858196e-12
-1.838520641e-12
-9.34511922e-13
-4.541727492e-13
-2.119592653e-13
-9.578181801e-14
-4.24772402e-14
-1.878298384e-14
-8.3956492e-15
-3.814956739e-15
-1.736342184e-15
-7.284085331e-16
-1.96538188e-16
9.886253137e-17
2.66539532e-16
3.608018156e-16
4.100915528e-16
4.303484445e-16
4.321439027e-16
4.248830529e-16
4.142591672e-16
4.026617575e-16
3.903865602e-16
3.760585931e-16
3.569575118e-16
3.302991961e-16
2.945227987e-16
2.50151323e-16
1.997096805e-16
1.462577653e-16
8.998591477e-17
2.786425758e-17
3.14191804e-18
-0.2171203476
-0.02534333722
-0.002000175294
-0.0001101675588
-6.706751174e-06
-5.129064868e-07
-8.506212804e-08
-3.169190167e-08
-1.74288582e-08
-1.11161074e-08
-7.523803304e-09
-5.232691989e-09
-3.687692629e-09
-2.615298147e-09
-1.859766295e-09
-1.323586238e-09
-9.418180102e-10
-6.69585811e-10
-4.752757774e-10
-3.36457836e-10
-2.371354638e-10
-1.66109498e-10
-1.151806205e-10
-7.888852708e-11
-5.316046299e-11
-3.508745206e-11
-2.255960656e-11
-1.407068713e-11
-8.463992685e-12
-4.870684874e-12
-2.669131202e-12
-1.390989961e-12
-6.895636796e-13
-3.267735411e-13
-1.497557081e-13
-6.752343193e-14
-3.061041122e-14
-1.434559394e-14
-7.132726052e-15
-3.776194029e-15
-2.052853137e-15
-1.081301447e-15
-4.811161878e-16
-8.046185377e-17
2.019435268e-16
3.857142458e-16
5.020610829e-16
5.740489515e-16
6.169611277e-16
6.399781915e-16
6.467908067e-16
6.377563437e-16
6.109055459e-16
5.636055074e-16
4.955591113e-16
4.096895983e-16
3.098595839e-16
1.948610446e-16
5.990357676e-17
6.758832812e-18
-0.3390016635
-0.04450499641
-0.005351800753
-0.0003492294513
-2.770286415e-05
-1.938685822e-06
-2.199867606e-07
-5.43380772e-08
-2.48199337e-08
-1.493624278e-08
-1.005094224e-08
-7.117358325e-09
-5.168938275e-09
-3.800420477e-09
-2.809212587e-09
-2.079963879e-09
-1.539740353e-09
-1.138390117e-09
-8.405935223e-10
-6.19504908e-10
-4.55188777e-10
-3.329557916e-10
-2.41981798e-10
-1.74211712e-10
-1.23867434e-10
-8.675255804e-11
-5.962203389e-11
-4.003596443e-11
-2.614645584e-11
-1.653826705e-11
-1.008131827e-11
-5.863322659e-12
-3.25162294e-12
-1.715317411e-12
-8.618900775e-13
-4.148070682e-13
-1.934740109e-13
-8.907870123e-14
-4.183623538e-14
-2.084537679e-14
-1.130234861e-14
-6.607714639e-15
-4.014717133e-15
-2.393418173e-15
-1.267597528e-15
-4.40839199e-16
1.207822299e-16
4.76575392e-16
7.181142833e-16
8.788483502e-16
9.763691806e-16
1.022217835e-15
1.021253621e-15
9.757707957e-16
8.882842726e-16
7.615031253e-16
5.972981952e-16
3.872440493e-16
1.207925351e-16
1.378483683e-17
-0.4218163243
-0.06230084974
-0.009238457407
-0.0008618877316
-8.316064015e-05
-8.496710758e-06
-8.159438265e-07
-1.226077783e-07
-3.73067918e-08
-1.898676907e-08
-1.22183022e-08
-8.68707472e-09
-6.46690599e-09
-4.916505664e-09
-3.768492412e-09
-2.896220385e-09
-2.225622143e-09
-1.70738759e-09
-1.306796561e-09
-9.97585773e-10
-7.590291424e-10
-5.750582023e-10
-4.332562445e-10
-3.240503185e-10
-2.399846659e-10
-1.754505506e-10
-1.263588682e-10
-8.934289944e-11
-6.178431483e-11
-4.160158777e-11
-2.718444996e-11
-1.716659407e-11
-1.038498888e-11
-6.005537253e-12
-3.315039685e-12
-1.74661861e-12
-8.806356683e-13
-4.280441543e-13
-2.035460791e-13
-9.71121806e-14
-4.851829474e-14
-2.64266553e-14
-1.577403706e-14
-9.975848015e-15
-6.355902416e-15
-3.842546658e-15
-1.969921429e-15
-6.002171427e-16
3.11714382e-16
8.805297826e-16
1.231949288e-15
1.448993479e-15
1.549185444e-15
1.547997738e-15
1.458084207e-15
1.291288929e-15
1.049638935e-15
7.074675265e-16
2.285007131e-16
2.599832348e-17
-0.7218695391
-0.1138323189
-0.01811711264
-0.002349976235
-0.0002085699832
-2.714247407e-05
-3.188580663e-06
-3.91970464e-07
-6.90037166e-08
-2.387175629e-08
-1.332914546e-08
-9.242972305e-09
-7.000234201e-09
-5.506430256e-09
-4.373415341e-09
-3.499791278e-09
-2.795576363e-09
-2.224997907e-09
-1.763401094e-09
-1.391510763e-09
-1.09314256e-09
-8.546157437e-10
-6.644436672e-10
-5.131384755e-10
-3.930059669e-10
-2.975700395e-10
-2.22382175e-10
-1.635997052e-10
-1.181041778e-10
-8.334686737e-11
-5.730448536e-11
-3.826345921e-11
-2.472567597e-11
-1.531349139e-11
-9.105208144e-12
-5.186957124e-12
-2.827811728e-12
-1.476138764e-12
-7.410681159e-13
-3.628400268e-13
-1.780424937e-13
-9.145541946e-14
-5.100232179e-14
-3.116941908e-14
-2.029294893e-14
-1.3408571e-14
-8.549245773e-15
-4.92806726e-15
-2.200963285e-15
-2.431149516e-16
1.038906031e-15
1.77157874e-15
2.136576904e-15
2.26119238e-15
2.21744055e-15
2.027408835e-15
1.701305278e-15
1.198098281e-15
4.051477002e-16
4.252936741e-17
-1.343670958
-0.2270694667
-0.03845950385
-0.006199243278
-0.000601712759
-7.290456192e-05
-1.086558592e-05
-1.373056756e-06
-1.80243174e-07
-3.371260731e-08
-1.299209618e-08
-8.205612612e-09
-6.296626722e-09
-5.150423738e-09
-4.26373885e-09
-3.553546448e-09
-2.947348427e-09
-2.430222934e-09
-1.991725216e-09
-1.622870281e-09
-1.314993709e-09
-1.059723506e-09
-8.491925553e-10
-6.762346265e-10
-5.343858646e-10
-4.180458153e-10
-3.23353913e-10
-2.466212031e-10
-1.849287203e-10
-1.358217698e-10
-9.743344502e-11
-6.806006861e-11
-4.615741425e-11
-3.016554518e-11
-1.899805253e-11
-1.15181912e-11
-6.710310068e-12
-3.75204624e-12
-2.014326196e-12
-1.042723386e-12
-5.269556466e-13
-2.66904201e-13
-1.417232759e-13
-8.225414638e-14
-5.257796776e-14
-3.553310358e-14
-2.422468717e-14
-1.596679585e-14
-9.732730581e-15
-5.018001409e-15
-1.54962095e-15
8.245686414e-16
2.262817486e-15
2.969977153e-15
3.153793846e-15
2.991706839e-15
2.571354557e-15
1.876329667e-15
6.676468982e-16
4.772886997e-17
-1.947122896
-0.3605626892
-0.0670055434
-0.01230668497
-0.001638298969
-0.0001856326352
-2.929744688e-05
-4.8284258e-06
-6.467822615e-07
-8.173999666e-08
-1.508253577e-08
-6.68850472e-09
-4.875501472e-09
-4.074581782e-09
-3.494761677e-09
-3.004151596e-09
-2.570689869e-09
-2.186409809e-09
-1.848042874e-09
-1.552735983e-09
-1.297173233e-09
-1.077592118e-09
-8.899561301e-10
-7.295854962e-10
-5.93916176e-10
-4.794432924e-10
-3.831230502e-10
-3.022393877e-10
-2.346893684e-10
-1.789137815e-10
-1.335118309e-10
-9.722562366e-11
-6.864317032e-11
-4.689676941e-11
-3.099375387e-11
-1.977569819e-11
-1.216360347e-11
-7.205771776e-12
-4.109574246e-12
-2.259734066e-12
-1.205150363e-12
-6.327302843e-13