/*--------------------------------*- C++ -*----------------------------------*\
  =========                 |
  \\      /  F ield         | OpenFOAM: The Open Source CFD Toolbox
   \\    /   O peration     | Website:  https://openfoam.org
    \\  /    A nd           | Version:  10
     \\/     M anipulation  |
\*---------------------------------------------------------------------------*/
FoamFile
{
    format      ascii;
    class       volScalarField;
    location    "3000";
    object      RR.CH;
}
// * * * * * * * * * * * * * * * * * * * * * * * * * * * * * * * * * * * * * //

dimensions      [1 -3 -1 0 0 0 0];

internalField   nonuniform List<scalar> 
5170
(
-8.606814355e-74
-3.855707203e-74
-7.025334337e-75
-5.106820054e-76
-1.232918708e-77
-6.005884143e-71
-2.521182306e-71
-3.871737015e-72
-2.142038365e-73
-4.963027876e-75
-4.10627643e-68
-1.609867923e-68
-2.061360407e-69
-9.146720288e-71
-2.461074877e-72
-2.76643476e-65
-1.014705369e-65
-1.099009852e-66
-3.965242195e-68
-1.429039186e-69
-1.851704198e-62
-6.42851729e-63
-6.004557313e-64
-1.819579428e-65
-7.446655813e-67
-1.238646394e-59
-4.113648863e-60
-3.317094509e-61
-8.695208211e-63
-4.187702444e-64
-8.342826682e-57
-2.659407024e-57
-1.899806721e-58
-4.373972353e-60
-4.025753042e-61
-5.65564017e-54
-1.766436215e-54
-1.16289665e-55
-2.510820004e-57
-8.2734661e-58
-3.899317276e-51
-1.236674734e-51
-7.715215097e-53
-1.69416293e-54
-2.391798235e-54
-2.746949545e-48
-9.200697579e-49
-5.648030443e-50
-1.619706192e-51
-7.559230774e-51
-1.991246038e-45
-7.368114016e-46
-4.87294738e-47
-3.432507044e-48
-2.463364971e-47
-1.482240123e-42
-6.342715755e-43
-5.380097431e-44
-1.439609019e-44
-8.197596168e-44
-1.135172524e-39
-5.936045565e-40
-8.189796302e-41
-7.525426257e-41
-2.783554391e-40
-8.956964373e-37
-5.997492036e-37
-1.650739416e-37
-4.04190234e-37
-1.218198154e-36
-7.240978174e-34
-6.605824274e-34
-4.025565487e-34
-2.101631596e-33
-7.125265e-33
-5.999830672e-31
-7.779105394e-31
-1.074851755e-30
-1.009276881e-29
-4.282016334e-29
-4.964952016e-28
-9.80900006e-28
-2.946114696e-27
-4.34211382e-26
-2.581094158e-25
-4.112061926e-25
-1.281410215e-24
-7.910973689e-24
-1.730201264e-22
-1.559343032e-21
-3.141355983e-22
-1.638382318e-21
-1.968942849e-20
-6.008403307e-19
-9.445023853e-18
-2.088793807e-19
-1.988510844e-18
-4.658622297e-17
-1.996761136e-15
-5.568420194e-14
1.096371966e-18
2.24767913e-19
1.191144159e-19
2.83622789e-19
1.09068654e-18
-3.350799577e-19
-3.533602785e-20
-2.541275786e-20
-6.387090258e-20
-3.270243187e-19
-1.563075368e-19
-1.677770224e-19
-1.321676564e-19
-1.701066266e-19
-1.677073792e-19
-8.808199762e-20
-8.21194455e-20
-8.663281042e-20
-7.888138238e-20
-8.230741702e-20
-5.046595351e-20
-4.418854762e-20
-4.49949771e-20
-5.647846572e-20
-4.600851833e-20
-3.033872077e-20
-3.237804295e-20
-3.04939426e-20
-4.059943528e-20
-2.692179519e-20
-1.933269302e-20
-2.413289652e-20
-2.397051515e-20
-2.892121749e-20
-1.61888593e-20
-1.271741435e-20
-1.787810478e-20
-1.844794926e-20
-1.967592748e-20
-9.476620989e-21
-8.504267591e-21
-1.291137657e-20
-1.369375068e-20
-1.249411723e-20
-5.418841529e-21
-5.756625394e-21
-9.17678271e-21
-9.771735907e-21
-7.701177631e-21
-3.146710836e-21
-3.920885806e-21
-6.401707945e-21
-6.764757965e-21
-4.783708727e-21
-1.921326233e-21
-2.690964475e-21
-4.424765388e-21
-4.590684826e-21
-3.018439806e-21
-1.242453038e-21
-1.928751273e-21
-3.055672141e-21
-3.099039482e-21
-1.971374777e-21
-8.555076056e-22
-2.604152011e-21
-4.618166141e-21
-3.089926313e-21
-1.29885857e-21
-5.971811752e-22
-1.568837374e-21
-2.728703801e-21
-3.734772821e-21
-3.992658893e-21
-1.625675619e-21
-2.191438561e-20
-1.084774007e-20
-5.0300253e-21
-2.865231049e-21
-8.678635473e-22
-3.667728371e-18
-1.810905475e-18
-6.411035348e-19
-3.955443078e-19
-9.130619712e-20
-6.578705265e-16
-3.625638086e-16
-1.306565284e-16
-1.103575657e-16
-1.975638906e-17
1.074979423e-13
5.533870163e-14
-2.682674198e-14
-3.366922563e-14
-3.969722936e-15
-8.219234238e-14
3.18346103e-12
2.634749019e-12
1.370604985e-11
-6.721757216e-13
-4.059070067e-17
-6.200392014e-16
-3.416235025e-14
-3.109818669e-12
-1.493328869e-10
-2.110872848e-15
-3.449181495e-14
-1.927192149e-12
-1.405892805e-10
-4.461787911e-09
-3.103644497e-14
-4.745055501e-13
-2.284862964e-11
-1.177683816e-09
-2.442190799e-08
-4.867894227e-12
-8.914447793e-11
-4.509809413e-09
-1.885808941e-07
-3.209979639e-06
-1.482004871e-11
-2.336966134e-10
-8.993199851e-09
-2.385255231e-07
-2.751035119e-06
-2.659981809e-11
-3.569548856e-10
-1.018821796e-08
-1.84053317e-07
-1.517178192e-06
-4.140313854e-11
-4.984418783e-10
-1.070470757e-08
-1.316735433e-07
-7.697665647e-07
-1.370469308e-10
-2.025378024e-09
-4.306697937e-08
-5.003371248e-07
-3.357543116e-06
-4.597375707e-10
-6.407097953e-09
-9.872176406e-08
-8.128179198e-07
-4.299610121e-06
-1.122049138e-09
-1.295582642e-08
-1.371609791e-07
-8.100479901e-07
-3.380432655e-06
-2.29246825e-09
-1.925819006e-08
-1.378133872e-07
-6.167803388e-07
-2.094656366e-06
-4.49363801e-09
-2.841661286e-08
-1.647420003e-07
-6.963160913e-07
-2.472127312e-06
-1.012487758e-08
-5.160545923e-08
-2.672600121e-07
-1.100734513e-06
-3.9018247e-06
-2.173215121e-08
-8.716617018e-08
-3.79964355e-07
-1.376359289e-06
-4.319690437e-06
-4.023908492e-08
-1.220315168e-07
-4.335794389e-07
-1.340185403e-06
-3.646971379e-06
-6.180616086e-08
-1.448225286e-07
-4.189585395e-07
-1.111095555e-06
-2.65803938e-06
-8.882584021e-08
-1.713046569e-07
-4.272951574e-07
-1.052674937e-06
-2.469039298e-06
-1.660156995e-07
-2.985100332e-07
-7.261672586e-07
-1.85595526e-06
-4.682813351e-06
-3.587475288e-07
-5.953501307e-07
-1.330476649e-06
-3.176296723e-06
-7.524952549e-06
-6.433774988e-07
-9.780693923e-07
-1.948706955e-06
-4.189115066e-06
-9.023097094e-06
-9.255372081e-07
-1.299258056e-06
-2.324267111e-06
-4.516654151e-06
-8.892468024e-06
-1.112663734e-06
-1.469801128e-06
-2.405484174e-06
-4.291121241e-06
-7.833901031e-06
-1.201596434e-06
-1.513998318e-06
-2.311802755e-06
-3.856758596e-06
-6.647122832e-06
-1.275316937e-06
-1.563648461e-06
-2.289248122e-06
-3.678060186e-06
-6.171693841e-06
-1.499740094e-06
-1.82070028e-06
-2.632976776e-06
-4.201251462e-06
-7.057891024e-06
-2.027624778e-06
-2.447344073e-06
-3.507855211e-06
-5.5485699e-06
-9.251347402e-06
-2.926119259e-06
-3.487252442e-06
-4.889794026e-06
-7.538192392e-06
-1.223567262e-05
-4.177845613e-06
-4.896027129e-06
-6.661755944e-06
-9.920100312e-06
-1.554452797e-05
-5.75692564e-06
-6.629877264e-06
-8.752950739e-06
-1.259065465e-05
-1.904803578e-05
-7.710439582e-06
-8.75466938e-06
-1.126353677e-05
-1.572253448e-05
-2.307563422e-05
-1.032030391e-05
-1.158566112e-05
-1.46084702e-05
-1.99192261e-05
-2.854459256e-05
-1.422591624e-05
-1.584629369e-05
-1.96900407e-05
-2.637993696e-05
-3.712051747e-05
-2.069394106e-05
-2.28859021e-05
-2.807315877e-05
-3.696241462e-05
-5.087304923e-05
-3.153731417e-05
-3.45016708e-05
-4.13453415e-05
-5.244048074e-05
-6.826949903e-05
-4.304094252e-05
-4.585941998e-05
-5.154827094e-05
-5.912855512e-05
-6.673834041e-05
-2.914234152e-05
-2.94741003e-05
-2.949730963e-05
-2.872177483e-05
-2.47167011e-05
-3.649583829e-06
-3.385674957e-06
-2.442415408e-06
-4.743130867e-07
3.610722981e-06
-9.856970777e-06
-9.669965658e-06
-8.926389154e-06
-6.818754976e-06
-1.909088221e-06
-2.471907078e-05
-2.34542382e-05
-2.004986606e-05
-1.295671239e-05
8.067892854e-07
-1.376933191e-05
-9.199985799e-06
1.9076089e-06
2.147543454e-05
5.050250577e-05
2.920637327e-05
2.903759324e-05
2.386724551e-05
3.730330598e-06
-3.754489166e-05
-6.175522637e-05
-6.183085812e-05
-6.095992797e-05
-5.821551037e-05
-5.364238639e-05
-2.762873907e-05
-2.714923614e-05
-2.612902787e-05
-2.466535778e-05
-2.286060846e-05
-1.147246059e-05
-1.130365214e-05
-1.094180671e-05
-1.041863339e-05
-9.765181612e-06
-4.826800516e-06
-4.765215157e-06
-4.632959883e-06
-4.440438747e-06
-4.197554558e-06
-2.054653286e-06
-2.031683979e-06
-1.982117568e-06
-1.909543076e-06
-1.817258082e-06
-8.842293175e-07
-8.754219123e-07
-8.564097059e-07
-8.284585796e-07
-7.92704657e-07
-3.843265256e-07
-3.808960148e-07
-3.734650499e-07
-3.62501937e-07
-3.484104805e-07
-1.686231931e-07
-1.67258048e-07
-1.643018516e-07
-1.599295097e-07
-1.542881472e-07
-7.464496863e-08
-7.409521584e-08
-7.290176472e-08
-7.113221628e-08
-6.88417985e-08
-3.334166017e-08
-3.311638002e-08
-3.262752096e-08
-3.190145287e-08
-3.095907814e-08
-1.502874957e-08
-1.493549017e-08
-1.47327037e-08
-1.44309791e-08
-1.40381632e-08
-6.838767043e-09
-6.799561468e-09
-6.714330821e-09
-6.587333778e-09
-6.421744985e-09
-3.142057978e-09
-3.125405791e-09
-3.089146203e-09
-3.035036266e-09
-2.964340366e-09
-1.457647782e-09
-1.450472198e-09
-1.434848928e-09
-1.411505711e-09
-1.380952567e-09
-6.826052834e-10
-6.794804348e-10
-6.72667655e-10
-6.624755858e-10
-6.491130852e-10
-3.225481658e-10
-3.211686219e-10
-3.181612209e-10
-3.136576693e-10
-3.07744742e-10
-1.536965472e-10
-1.530813241e-10
-1.517387905e-10
-1.497264738e-10
-1.470810579e-10
-7.381425733e-11
-7.353653065e-11
-7.293062868e-11
-7.202187236e-11
-7.082602428e-11
-3.570748097e-11
-3.55810349e-11
-3.530499475e-11
-3.489075109e-11
-3.434519944e-11
-1.739883624e-11
-1.734083593e-11
-1.721428112e-11
-1.702433328e-11
-1.677407136e-11
-8.567156851e-12
-8.541367925e-12
-8.485156665e-12
-8.400993173e-12
-8.245039623e-12
-4.135777305e-12
-4.118537715e-12
-4.14208753e-12
-4.190589928e-12
-4.222098479e-12
-2.077970446e-12
-2.070119726e-12
-2.052953739e-12
-2.027098328e-12
-1.992837843e-12
-1.093895178e-12
-1.089393475e-12
-1.079525069e-12
-1.06457557e-12
-1.044625025e-12
-6.108625465e-13
-6.078476953e-13
-6.01249901e-13
-5.912826247e-13
-5.780387491e-13
-3.669652828e-13
-3.647945835e-13
-3.600618328e-13
-3.529586395e-13
-3.436086718e-13
-2.399963922e-13
-2.384547468e-13
-2.351070624e-13
-2.301177475e-13
-2.236154088e-13
-1.701498617e-13
-1.690622211e-13
-1.667092623e-13
-1.632263759e-13
-1.587315725e-13
-1.390137918e-13
-1.382751872e-13
-1.366796228e-13
-1.343248428e-13
-1.312987037e-13
-4.717854527e-10
-4.407397385e-08
-1.93928326e-07
-2.362781217e-05
-1.426298185e-05
-5.808998601e-06
-2.292696299e-06
-1.351407296e-05
-1.410485603e-05
-9.095348768e-06
-4.780916869e-06
-6.315253619e-06
-9.908158601e-06
-9.791390572e-06
-7.335134796e-06
-4.847664593e-06
-4.608855812e-06
-9.377001999e-06
-1.420401884e-05
-1.577953548e-05
-1.453833812e-05
-1.213728533e-05
-9.912422856e-06
-9.090694347e-06
-1.046165277e-05
-1.363605695e-05
-1.765642071e-05
-2.183808088e-05
-2.607414437e-05
-3.089755867e-05
-3.75783844e-05
-4.819860189e-05
-6.475186613e-05
-8.240465234e-05
-7.121344192e-05
-1.970601959e-05
8.597411981e-06
5.007865971e-06
1.737507192e-05
7.28669649e-05
-6.859240545e-05
-5.002728149e-05
-2.152507436e-05
-9.273009126e-06
-4.012230882e-06
-1.746141595e-06
-7.649400084e-07
-3.373996726e-07
-1.498577529e-07
-6.703528508e-08
-3.021308184e-08
-1.372638061e-08
-6.289847354e-09
-2.907874906e-09
-1.356489188e-09
-6.383896536e-10
-3.029901305e-10
-1.449501694e-10
-6.986139947e-11
-3.390463324e-11
-1.657183649e-11
-8.138847925e-12
-4.187117632e-12
-1.964796356e-12
-1.028067729e-12
-5.670352566e-13
-3.358884338e-13
-2.18293749e-13
-1.550876216e-13
-1.288585384e-13
-7.110442961e-10
-1.561767812e-09
-2.233950881e-10
9.844672347e-11
-9.473816551e-12
-1.596853221e-07
3.237160976e-07
-7.112076546e-08
-6.628342833e-09
-4.626515552e-10
-6.327516992e-07
-3.729399121e-06
-1.469373229e-05
-1.708048375e-06
-1.191977611e-07
-8.628529264e-05
-0.0007665794933
0.001274824091
-0.0003656519334
-2.17892324e-05
-4.07581693e-05
-0.0002345777258
-0.0005408489571
-8.558193593e-05
-7.263487374e-06
-1.373813772e-05
-5.488946469e-05
-0.0001067095866
-1.648623587e-05
-1.873931642e-06
-4.773066025e-06
-1.524222024e-05
-2.767848427e-05
-3.442633057e-05
-7.766784267e-06
-3.813915082e-05
-0.0002469842633
-0.001382995647
0.003692423528
-0.00083578763
-3.455768351e-05
-0.0001693616802
-0.0006963650629
0.0001322340536
-0.0003773905199
-1.960348333e-05
-7.382201886e-05
-0.0002272164199
-0.0001503712848
-0.0001121329131
-9.299158453e-06
-2.848568902e-05
-7.254650112e-05
-4.098457123e-05
-5.512339125e-05
-1.391109868e-05
-5.946440969e-05
-0.000236881379
-0.0008771130022
0.0021725222
-2.170141155e-05
-8.940021661e-05
-0.0003331800319
-0.001163607891
0.002836513061
-1.978062429e-05
-6.797521822e-05
-0.0002062849223
-0.0005654938556
0.0002913143881
-1.365211731e-05
-3.952694906e-05
-0.0001014197726
-0.0002357260265
9.271296167e-05
-8.453746806e-06
-2.158838473e-05
-4.998619494e-05
-0.0001075686782
4.35803359e-05
-8.391619138e-06
-2.485250712e-05
-7.247740719e-05
-0.0002118719755
-0.0005027634254
-1.81167348e-05
-5.938994084e-05
-0.0001848426165
-0.000553625339
-0.001553685173
-2.627800184e-05
-7.77203332e-05
-0.0002151664564
-0.0005647010406
-0.001382785103
-2.762316773e-05
-7.297144952e-05
-0.0001809356238
-0.0004256615664
-0.0009343085916
-2.42166782e-05
-5.825132765e-05
-0.0001329172513
-0.000290419686
-0.0005938917664
-1.94120671e-05
-4.350794674e-05
-9.380287879e-05
-0.0001960826289
-0.0003842680721
-1.540413533e-05
-3.305554245e-05
-6.928174822e-05
-0.0001424693523
-0.000273649069
-1.404606156e-05
-3.028691792e-05
-6.479198599e-05
-0.0001373618421
-0.0002736374209
-1.631925887e-05
-3.614910981e-05
-7.97915631e-05
-0.0001745483238
-0.0003611252455
-2.118513652e-05
-4.65078634e-05
-0.0001014486685
-0.0002182734857
-0.000441277472
-2.691325583e-05
-5.693560048e-05
-0.0001196761146
-0.0002474845942
-0.0004714810362
-3.247719577e-05
-6.568033376e-05
-0.0001322941277
-0.0002611453084
-0.0004528115433
-3.784189364e-05
-7.33073855e-05
-0.0001417236172
-0.0002646972639
-0.0003892398959
-4.390881209e-05
-8.193693907e-05
-0.0001520921961
-0.0002610045838
-0.0002754921771
-5.247448006e-05
-9.478528133e-05
-0.000166634961
-0.0002432377481
-0.0001082487328
-6.61584037e-05
-0.0001142607381
-0.0001798533077
-0.0001888481261
9.275664698e-05
-8.584579323e-05
-0.0001331398672
-0.0001634701851
-7.637705844e-05
0.000280536313
-9.902145949e-05
-0.0001179796647
-8.169288484e-05
7.126925384e-05
0.0004239953949
-6.833548924e-05
-4.228227811e-05
3.405316563e-05
0.0001960654913
0.0005346655991
-7.356838375e-06
2.780657227e-05
9.999345033e-05
0.0002620299474
0.0004920115116
1.763626369e-05
5.089365523e-05
0.0001353188562
0.0003143701777
1.875224536e-05
1.827841882e-05
7.232998756e-05
0.0001913934132
0.0001102030125
-0.0001949478491
4.80930373e-05
0.0001302973992
5.656185998e-05
-0.0001571303417
-0.0001149126228
7.812597775e-05
-4.565299943e-05
-0.0001199879744
-8.910026914e-05
-6.318438468e-05
-8.886986535e-05
-7.899806941e-05
-6.06649828e-05
-4.534835829e-05
-3.323230748e-05
-4.463451341e-05
-3.63845434e-05
-2.881663132e-05
-2.226294901e-05
-1.683694698e-05
-1.95630683e-05
-1.641013699e-05
-1.338281122e-05
-1.064638354e-05
-8.287644112e-06
-8.545551632e-06
-7.334454963e-06
-6.129679572e-06
-5.001675923e-06
-3.995149623e-06
-3.737090449e-06
-3.267152943e-06
-2.786705227e-06
-2.323820931e-06
-1.89855362e-06
-1.640201976e-06
-1.455690502e-06
-1.262931812e-06
-1.072831853e-06
-8.938499708e-07
-7.234752444e-07
-6.501279331e-07
-5.721596429e-07
-4.937767941e-07
-4.184448765e-07
-3.209242109e-07
-2.914091666e-07
-2.595849266e-07
-2.270765805e-07
-1.952862446e-07
-1.432192145e-07
-1.312011394e-07
-1.18088982e-07
-1.045139378e-07
-9.10423326e-08
-6.432548732e-08
-5.937616967e-08
-5.392231802e-08
-4.821115424e-08
-4.247094818e-08
-2.909280876e-08
-2.703208251e-08
-2.474139867e-08
-2.231927276e-08
-1.985761455e-08
-1.325802309e-08
-1.239035858e-08
-1.141904733e-08
-1.038281093e-08
-9.319419203e-09
-6.09158787e-09
-5.722219995e-09
-5.305956174e-09
-4.858542174e-09
-4.395393848e-09
-2.822955517e-09
-2.663937118e-09
-2.48368828e-09
-2.288621218e-09
-2.085109848e-09
-1.319680954e-09
-1.250441859e-09
-1.171551083e-09
-1.085649038e-09
-9.953956699e-10
-6.22247949e-10
-5.917609746e-10
-5.568625509e-10
-5.186527605e-10
-4.782530571e-10
-2.958304969e-10
-2.822594299e-10
-2.666602509e-10
-2.494969574e-10
-2.312475812e-10
-1.417404448e-10
-1.356371998e-10
-1.285964408e-10
-1.208166737e-10
-1.125044719e-10
-6.840807993e-11
-6.563705426e-11
-6.243035665e-11
-5.887405657e-11
-5.505851289e-11
-3.324077622e-11
-3.19720243e-11
-3.049988135e-11
-2.886217807e-11
-2.709897234e-11
-1.626711016e-11
-1.568381555e-11
-1.500599075e-11
-1.425084901e-11
-1.343679776e-11
-7.9770044e-12
-7.656304151e-12
-7.493788413e-12
-7.156164551e-12
-6.798977016e-12
-4.135540351e-12
-4.044206508e-12
-3.901525889e-12
-3.623272179e-12
-3.294133513e-12
-1.922819806e-12
-1.840392614e-12
-1.742289913e-12
-1.630071446e-12
-1.50582105e-12
-1.003707198e-12
-9.551048719e-13
-8.972338224e-13
-8.314125344e-13
-7.596206746e-13
-5.512101999e-13
-5.19746797e-13
-4.83057762e-13
-4.424431827e-13
-3.996474275e-13
-3.250216406e-13
-3.037421786e-13
-2.797035723e-13
-2.541052302e-13
-2.283831377e-13
-2.109301243e-13
-1.967849738e-13
-1.813322266e-13
-1.655477142e-13
-1.50494408e-13
-1.501173698e-13
-1.407640337e-13
-1.308868485e-13
-1.212251728e-13
-1.12520784e-13
-1.255379049e-13
-1.193556155e-13
-1.129136106e-13
-1.067099758e-13
-1.012229302e-13
-9.753742336e-13
-1.691712057e-14
-8.404794898e-16
-9.872815543e-17
-2.391338892e-17
-6.833654715e-18
-1.857338038e-18
-4.788715352e-19
-1.255443541e-19
-3.872809341e-20
-1.702497632e-20
-1.1028121e-20
-8.921719558e-21
-7.820763827e-21
-6.970016359e-21
-6.153954652e-21
-5.320106188e-21
-4.475375908e-21
-3.65049201e-21
-2.880748254e-21
-2.196305998e-21
-1.616641371e-21
-1.148562955e-21
-7.875833198e-22
-5.213098803e-22
-3.333118125e-22
-2.060597311e-22
-1.233009176e-22
-7.149946928e-23
-4.023636397e-23
-2.20104447e-23
-1.172717039e-23
-6.10109775e-24
-3.109849736e-24
-1.560063692e-24
-7.745400251e-25
-3.828345894e-25
-1.892248493e-25
-9.359883676e-26
-4.613499417e-26
-2.246553569e-26
-1.069311062e-26
-4.92470296e-27
-2.17704608e-27
-9.189131042e-28
-3.693604505e-28
-1.413231061e-28
-5.153710451e-29
-1.79603884e-29
-6.004208445e-30
-1.935189762e-30
-6.055774694e-31
-1.860346063e-31
-5.718914546e-32
-1.816548505e-32
-6.200794908e-33
-2.284681051e-33
-8.285074605e-34
-2.319823859e-34
-4.09003614e-35
-1.786089113e-11
-3.062210776e-13
-1.398374585e-14
-1.431318663e-15
-2.352605644e-16
-4.518734035e-17
-9.047703676e-18
-1.969064649e-18
-5.457238626e-19
-2.285590197e-19
-1.397837871e-19
-1.054943924e-19
-8.646032598e-20
-7.259490958e-20
-6.088598581e-20
-5.042558459e-20
-4.102701691e-20
-3.27040244e-20
-2.549369319e-20
-1.938987508e-20
-1.43584053e-20
-1.033304477e-20
-7.218333329e-21
-4.890063736e-21
-3.211750262e-21
-2.045156781e-21
-1.263113074e-21
-7.571575912e-22
-4.408852811e-22
-2.496329679e-22
-1.376243378e-22
-7.401039831e-23
-3.89198798e-23
-2.008466834e-23
-1.022092582e-23
-5.159981372e-24
-2.599598424e-24
-1.311657178e-24
-6.621053298e-25
-3.322255925e-25
-1.640204437e-25
-7.878562198e-26
-3.645998338e-26
-1.613989779e-26
-6.805636422e-27
-2.729219801e-27
-1.041474275e-27
-3.789999052e-28
-1.31964822e-28
-4.41520197e-29
-1.426870487e-29
-4.484910585e-30
-1.385177021e-30
-4.275760548e-31
-1.356241843e-31
-4.577442783e-32
-1.664112623e-32
-6.140982178e-33
-1.938614463e-33
-3.152076843e-34
-3.042918211e-09
-2.650238187e-11
-3.069460697e-13
-1.483398232e-14
-1.416249708e-15
-1.986939705e-16
-3.460501037e-17
-8.019440225e-18
-2.752371114e-18
-1.365437419e-18
-8.665269626e-19
-6.364557964e-19
-5.016678584e-19
-4.089741906e-19
-3.344188573e-19
-2.691394524e-19
-2.114301977e-19
-1.6183962e-19
-1.208088325e-19
-8.801309994e-20
-6.26441223e-20
-4.355934579e-20
-2.958638325e-20
-1.963274195e-20
-1.271072026e-20
-8.024160541e-21
-4.938679528e-21
-2.96398234e-21
-1.735445999e-21
-9.924619671e-22
-5.547098945e-22
-3.034014024e-22
-1.627675639e-22
-8.595365008e-23
-4.490699325e-23
-2.335381665e-23
-1.215297807e-23
-6.338650982e-24
-3.300196451e-24
-1.699211952e-24
-8.54931747e-25
-4.155566552e-25
-1.934043508e-25
-8.569351775e-26
-3.605341545e-26
-1.440253103e-26
-5.474500528e-27
-1.986956307e-27
-6.91646919e-28
-2.320411238e-28
-7.542775359e-29
-2.390436418e-29
-7.449023949e-30
-2.312802178e-30
-7.304060232e-31
-2.40921998e-31
-8.437453476e-32
-3.027167226e-32
-9.351292923e-33
-1.32322168e-33
-7.056460679e-07
-8.919230342e-09
-4.920852002e-11
-6.209205021e-13
-2.349773317e-14
-1.78810021e-15
-2.569047932e-16
-6.58603094e-17
-2.422906518e-17
-1.107249011e-17
-6.02350377e-18
-3.827638746e-18
-2.726341209e-18
-2.074492692e-18
-1.615001233e-18
-1.25262318e-18
-9.607904258e-19
-7.222553245e-19
-5.27434212e-19
-3.734251253e-19
-2.567325198e-19
-1.718593405e-19
-1.123433923e-19
-7.187514201e-20
-4.50995593e-20
-2.779931498e-20
-1.683936088e-20
-1.002238641e-20
-5.860324486e-21
-3.366195955e-21
-1.901216364e-21
-1.057485152e-21
-5.806742064e-22
-3.158797779e-22
-1.710416642e-22
-9.265250083e-23
-5.035369802e-23
-2.739907152e-23
-1.48094226e-23
-7.857019428e-24
-4.040058584e-24
-1.991616123e-24
-9.340649935e-25
-4.14902066e-25
-1.743134455e-25
-6.938712584e-26
-2.627177571e-26
-9.512539794e-27
-3.313406699e-27
-1.116809967e-27
-3.662933658e-28
-1.175372532e-28
-3.711680533e-29
-1.162825688e-29
-3.656095419e-30
-1.170972974e-30
-3.864197667e-31
-1.292291763e-31
-3.620543136e-32
-4.399844157e-33
-3.396587634e-07
-6.980267087e-09
-6.543959924e-11
-8.069669867e-13
-4.39132717e-14
-7.644741653e-15
-2.28802563e-15
-7.997890026e-16
-3.051534653e-16
-1.272341675e-16
-5.904688816e-17
-3.110384727e-17
-1.861285732e-17
-1.239714682e-17
-8.849929946e-18
-6.52773543e-18
-4.821378339e-18
-3.503766173e-18
-2.490944319e-18
-1.736010659e-18
-1.173878825e-18
-7.69399034e-19
-4.890270506e-19
-3.022480281e-19
-1.824283114e-19
-1.08075643e-19
-6.313990286e-20
-3.648528797e-20
-2.088048629e-20
-1.184236543e-20
-6.661699445e-21
-3.722130854e-21
-2.070022673e-21
-1.149761631e-21
-6.406007356e-22
-3.593318804e-22
-2.028615279e-22
-1.14517095e-22
-6.387965861e-23
-3.472280847e-23
-1.816191988e-23
-9.055555551e-24
-4.277800303e-24
-1.908864314e-24
-8.045819703e-25
-3.211749278e-25
-1.219805592e-25
-4.434064353e-26
-1.552947733e-26
-5.274903638e-27
-1.74820283e-27
-5.682751659e-28
-1.819468057e-28
-5.757347529e-29
-1.805423601e-29
-5.616727198e-30
-1.731975101e-30
-5.227507035e-31
-1.255017883e-31
-1.31787615e-32
-1.20873097e-07
-4.472599989e-09
-7.571146391e-11
-9.590795981e-13
-7.655105551e-14
-2.697949196e-14
-1.271669279e-14
-5.934393297e-15
-2.688605091e-15
-1.216363509e-15
-5.688962173e-16
-2.840182682e-16
-1.548884548e-16
-9.308307475e-17
-6.102895305e-17
-4.232500298e-17
-2.999922282e-17
-2.119025241e-17
-1.470430755e-17
-9.976329928e-18
-6.601680925e-18
-4.259609206e-18
-2.665846333e-18
-1.616779377e-18
-9.517802901e-19
-5.465727237e-19
-3.077481684e-19
-1.706456546e-19
-9.357234659e-20
-5.099139298e-20
-2.774221721e-20
-1.512301131e-20
-8.287617709e-21
-4.583416402e-21
-2.568869553e-21
-1.462962076e-21
-8.430574569e-22
-4.861599928e-22
-2.762598286e-22
-1.522611462e-22
-8.032206447e-23
-4.019842555e-23
-1.899669873e-23
-8.46653061e-24
-3.567068609e-24
-1.427239647e-24
-5.455213192e-25
-2.003647201e-25
-7.111243778e-26
-2.45168202e-26
-8.249717251e-27
-2.72094591e-27
-8.824305939e-28
-2.816538745e-28
-8.823707795e-29
-2.688224208e-29
-7.830462669e-30
-2.119486321e-30
-4.22892444e-31
-3.836718961e-32
-9.209636845e-07
-6.395391093e-08
-2.213797894e-09
-4.316676822e-11
-1.139136857e-12
-2.149199133e-13
-8.206013308e-14
-3.584987728e-14
-1.598559121e-14
-7.199701863e-15
-3.331374176e-15
-1.629727905e-15
-8.672203514e-16
-5.101726993e-16
-3.296162689e-16
-2.282214299e-16
-1.635976287e-16
-1.180655482e-16
-8.443823965e-17
-5.904110523e-17
-4.033490305e-17
-2.663730366e-17
-1.686385034e-17
-1.02611739e-17
-6.028679363e-18
-3.445621049e-18
-1.919584815e-18
-1.042103265e-18
-5.530974247e-19
-2.88968766e-19
-1.498510126e-19
-7.766088651e-20
-4.051424657e-20
-2.145066528e-20
-1.161179682e-20
-6.453124909e-21
-3.670480831e-21
-2.105326458e-21
-1.194897967e-21
-6.586562283e-22
-3.472575181e-22
-1.734134987e-22
-8.161129418e-23
-3.615288877e-23
-1.512843053e-23
-6.030064961e-24
-2.310395033e-24
-8.572374157e-25
-3.09467772e-25
-1.090039611e-25
-3.752503638e-26
-1.264314464e-26
-4.172363533e-27
-1.346989256e-27
-4.229733647e-28
-1.272863534e-28
-3.564051725e-29
-8.756893025e-30
-1.451524542e-30
-1.123029583e-31
-7.657926651e-05
-6.15503408e-06
-2.847974789e-07
-7.00146544e-09
-1.283600206e-10
-6.637990055e-12
-9.832106697e-13
-2.475834731e-13
-7.649123876e-14
-2.695285631e-14
-1.074098261e-14
-4.842301214e-15
-2.475137331e-15
-1.438700465e-15
-9.448435334e-16
-6.846044929e-16
-5.282727699e-16
-4.186964937e-16
-3.307988032e-16
-2.556541054e-16
-1.901449181e-16
-1.349984917e-16
-9.104082467e-17
-5.881942113e-17
-3.641536328e-17
-2.181170916e-17
-1.251446778e-17
-6.873642529e-18
-3.647252471e-18
-1.888131873e-18
-9.605110577e-19
-4.812602408e-19
-2.394907152e-19
-1.198654868e-19
-6.103448318e-20
-3.183429997e-20
-1.706646211e-20
-9.349098142e-21
-5.139438916e-21
-2.775394262e-21
-1.445293055e-21
-7.159597109e-22
-3.3473771e-22
-1.472302188e-22
-6.107890981e-23
-2.413589939e-23
-9.204432793e-24
-3.425217368e-24
-1.25144573e-24
-4.496989273e-25
-1.587601556e-25
-5.494259617e-26
-1.858632645e-26
-6.118511475e-27
-1.942349799e-27
-5.835270922e-28
-1.595739787e-28
-3.647323683e-29
-5.168605122e-30
-3.292706097e-31
-4.471736799e-05
-4.660351245e-06
-3.916154238e-07
-1.767188516e-08
-4.161701683e-10
-1.440504641e-11
-1.529573129e-12
-3.480415864e-13
-1.142173633e-13
-4.405220489e-14
-1.881832043e-14
-8.821177086e-15
-4.586524237e-15
-2.690967764e-15
-1.793551891e-15
-1.336207011e-15
-1.075733036e-15
-9.028106629e-16
-7.67783406e-16
-6.489759902e-16
-5.382104428e-16
-4.339659919e-16
-3.373564364e-16
-2.500387514e-16
-1.756452187e-16
-1.159476605e-16
-7.169886938e-17
-4.187169586e-17
-2.333537344e-17
-1.257270096e-17
-6.521308634e-18
-3.257340963e-18
-1.591236751e-18
-7.725773942e-19
-3.76185734e-19
-1.840485668e-19
-9.107462193e-20
-4.580262131e-20
-2.334154545e-20
-1.190708296e-20
-5.967845358e-21
-2.894743378e-21
-1.340081809e-21
-5.858763213e-22
-2.40956233e-22
-9.410308052e-23
-3.55062579e-23
-1.312210724e-23
-4.78951977e-24
-1.733046683e-24
-6.215045627e-25
-2.200063262e-25
-7.639280357e-26
-2.579740445e-26
-8.362420597e-27
-2.54198942e-27
-6.922179089e-28
-1.521269614e-28
-1.933665383e-29
-1.052359559e-30
-1.697486655e-05
-2.174534965e-06
-2.572015531e-07
-2.045135322e-08
-8.791482257e-10
-2.59110169e-11
-1.679614653e-12
-3.110021844e-13
-1.057127453e-13
-4.609934531e-14
-2.226945833e-14
-1.148050482e-14
-6.367594365e-15
-3.90052663e-15
-2.691247885e-15
-2.078364796e-15
-1.743143646e-15
-1.531720432e-15
-1.370328145e-15
-1.224736811e-15
-1.080663195e-15
-9.343008392e-16
-7.87120199e-16
-6.43019596e-16
-5.069535722e-16
-3.838261739e-16
-2.776222098e-16
-1.898621182e-16
-1.217655218e-16
-7.266481613e-17
-4.028208697e-17
-2.103285656e-17
-1.055563008e-17
-5.193886618e-18
-2.497607955e-18
-1.179897582e-18
-5.522331697e-19
-2.576201577e-19
-1.197993347e-19
-5.573418987e-20
-2.593919202e-20
-1.190862586e-20
-5.347122017e-21
-2.322548178e-21
-9.608345205e-22
-3.725793567e-22
-1.382163449e-22
-5.017220432e-23
-1.804751324e-23
-6.469116478e-24
-2.313282052e-24
-8.237652785e-25
-2.904281164e-25
-1.002214749e-25
-3.327240666e-26
-1.033616149e-26
-2.85169012e-27
-6.214495271e-28
-7.47161014e-29
-3.685733377e-30
-1.3635709e-05
-2.46983728e-06
-4.122478169e-07
-5.449263218e-08
-4.257155067e-09
-1.74056628e-10
-7.152836432e-12
-7.852634833e-13
-1.852380329e-13
-6.824035882e-14
-3.10908951e-14
-1.57424168e-14
-8.641001887e-15
-5.253344405e-15
-3.639356517e-15
-2.870803299e-15
-2.492599797e-15
-2.282525982e-15
-2.133070993e-15
-1.993451835e-15
-1.841783712e-15
-1.67122532e-15
-1.483042125e-15
-1.282847623e-15
-1.078399633e-15
-8.7820302e-16
-6.904326363e-16
-5.21936371e-16
-3.775656429e-16
-2.600484419e-16
-1.696492406e-16
-1.037771367e-16
-5.911023295e-17
-3.126505524e-17
-1.548626187e-17
-7.380142511e-18
-3.422918438e-18
-1.552786179e-18
-6.818695752e-19
-2.9303021e-19
-1.251597369e-19
-5.326093315e-20
-2.245256964e-20
-9.35547314e-21
-3.843058241e-21
-1.531546115e-21
-5.729895064e-22
-2.022927758e-22
-7.027073613e-23
-2.444310966e-23
-8.546804692e-24
-3.001319304e-24
-1.052844233e-24
-3.651141242e-25
-1.229777282e-25
-3.900280056e-26
-1.100492771e-26
-2.433505902e-27
-2.901640661e-28
-1.389463841e-29
-0.0005117270171
-7.418228703e-05
-1.063704733e-05
-1.410401206e-06
-1.524080286e-07
-9.371718228e-09
-3.298053572e-10
-1.561010571e-11
-1.683774518e-12
-3.119231596e-13
-8.279620322e-14
-2.880069499e-14
-1.267210568e-14
-6.903014279e-15
-4.617992385e-15
-3.692351561e-15
-3.323770516e-15
-3.172745139e-15
-3.086917328e-15
-2.996281196e-15
-2.870444436e-15
-2.699344199e-15
-2.484150743e-15
-2.232511027e-15
-1.955693555e-15
-1.666602436e-15
-1.378371127e-15
-1.103432199e-15
-8.523740564e-16
-6.331561818e-16
-4.505533541e-16
-3.058507392e-16
-1.971246111e-16
-1.201293912e-16
-6.897929508e-17
-3.699186545e-17
-1.850991785e-17
-8.623909494e-18
-3.780179738e-18
-1.592124281e-18
-6.489983866e-19
-2.589639528e-19
-1.021580892e-19
-3.99914061e-20
-1.554594418e-20
-6.00311987e-21
-2.297455705e-21
-8.497653785e-22
-2.964102934e-22
-9.909002379e-23
-3.288565022e-23
-1.110377199e-23
-3.793163632e-24
-1.295394845e-24
-4.340408709e-25
-1.385573778e-25
-3.984940769e-26
-9.068920647e-27
-1.112610345e-27
-5.500313316e-29
-0.0006465182702
-0.0001014995985
-1.579863624e-05
-2.371462522e-06
-3.164419893e-07
-3.409216462e-08
-2.171967709e-09
-8.898677978e-11
-5.075066841e-12
-6.219594997e-13
-1.338973641e-13
-4.027772886e-14
-1.559407272e-14
-7.966588165e-15
-5.381458481e-15
-4.552470658e-15
-4.343736456e-15
-4.34562486e-15
-4.384815382e-15
-4.383464983e-15
-4.307807879e-15
-4.147287026e-15
-3.904873393e-15
-3.591782719e-15
-3.224060027e-15
-2.820651538e-15
-2.401979115e-15
-1.987357861e-15
-1.594244545e-15
-1.237072938e-15
-9.261762527e-16
-6.671670888e-16
-4.607352143e-16
-3.038657593e-16
-1.907701383e-16
-1.135913195e-16
-6.389386484e-17
-3.380371222e-17
-1.668800897e-17
-7.617644781e-18
-3.215562402e-18
-1.26505316e-18
-4.807643457e-19
-1.786297075e-19
-6.553768487e-20
-2.392248527e-20
-8.709585484e-21
-3.173186939e-21
-1.147204232e-21
-4.013730934e-22