/*--------------------------------*- C++ -*----------------------------------*\
  =========                 |
  \\      /  F ield         | OpenFOAM: The Open Source CFD Toolbox
   \\    /   O peration     | Website:  https://openfoam.org
    \\  /    A nd           | Version:  10
     \\/     M anipulation  |
\*---------------------------------------------------------------------------*/
FoamFile
{
    format      ascii;
    class       volScalarField;
    location    "3000";
    object      RR.CH2CO;
}
// * * * * * * * * * * * * * * * * * * * * * * * * * * * * * * * * * * * * * //

dimensions      [1 -3 -1 0 0 0 0];

internalField   nonuniform List<scalar> 
5170
(
0
0
0
0
0
0
0
0
0
0
0
0
0
0
0
0
0
0
0
0
0
0
0
0
0
0
0
0
0
0
0
0
0
0
0
0
0
0
0
0
0
0
0
0
0
0
0
0
0
0
0
0
0
0
0
0
0
0
0
0
0
0
0
0
0
0
0
0
0
0
0
0
0
0
0
0
0
0
0
0
0
0
-1.069542201e-30
-3.968491533e-29
-6.941489065e-28
-7.564503713e-28
-7.622310906e-27
-2.691142667e-25
-1.578408213e-23
-2.616848935e-22
-1.015200298e-22
-1.624723755e-21
-7.858059399e-20
-5.406342858e-18
-1.316481067e-16
-1.019897658e-17
-3.384394055e-16
-2.481046107e-14
-2.269283868e-12
-1.510828986e-10
7.849221099e-19
5.474617377e-20
-1.527609576e-20
4.090601829e-20
-1.496954785e-19
-7.253591618e-20
-3.772245876e-20
-2.021413318e-20
-1.010733801e-19
-6.355981282e-20
-3.267831541e-20
-1.737511294e-20
-1.4477325e-20
-3.377589944e-20
-2.58828951e-20
-1.514717498e-20
-1.21809126e-20
-1.002105784e-20
-1.489026451e-20
-1.172003046e-20
-7.574366423e-21
-7.554966523e-21
-6.783464453e-21
-1.023732544e-20
-5.935531063e-21
-3.976142098e-21
-4.742000121e-21
-4.549266494e-21
-6.253040999e-21
-3.012636665e-21
-2.182395215e-21
-3.049677798e-21
-3.065425777e-21
-3.791449902e-21
-1.534917414e-21
-1.228099479e-21
-1.975001374e-21
-2.033476272e-21
-2.130637204e-21
-9.316339749e-22
-7.094795918e-22
-1.255238403e-21
3.880602323e-22
5.003561371e-21
-7.317036904e-22
-4.614670299e-22
-7.932189928e-22
-1.027628706e-21
-9.255158182e-22
-3.408253996e-22
4.685856023e-23
-5.128991801e-22
-7.964892481e-22
-1.582853558e-21
-3.442853709e-22
-2.137881699e-22
-4.890114722e-22
1.821053377e-21
1.189901975e-20
2.597523103e-21
-1.691205899e-21
-7.640083779e-22
4.576091791e-21
-9.36993139e-22
1.048138879e-21
-2.68794937e-19
-8.912573418e-20
-2.367729096e-20
-6.558958317e-21
-1.175744609e-21
-4.63261306e-17
-1.563206566e-17
-4.191195436e-18
-1.113668014e-18
-1.806203945e-19
-8.095167783e-15
-2.796187188e-15
-7.539927501e-16
-1.969000682e-16
-3.092257805e-17
-1.430792868e-12
-5.065048666e-13
-1.363774804e-13
-3.520103318e-14
-5.358912127e-15
-2.618127805e-10
-9.324107673e-11
-2.48520279e-11
-6.427044444e-12
-9.492722285e-13
-4.792971226e-08
-1.552610795e-08
-4.500787106e-09
-1.048433871e-09
-1.641261006e-10
-2.889929816e-05
-4.239005382e-06
-8.145835092e-07
-1.257758202e-07
-2.813444801e-08
-1.649832218e-14
-1.186972526e-12
-4.924489723e-10
-3.734582244e-07
-0.0001631120168
-1.334441115e-12
-7.32834978e-11
-1.823527667e-08
-5.884065019e-06
-0.0007332117461
-1.746722882e-11
-7.063565444e-10
-1.087420264e-07
-1.53113944e-05
-0.0006494460347
-1.210821083e-10
-3.879221025e-09
-4.156147279e-07
-2.857805376e-05
-0.0005667873147
-5.712520725e-10
-1.525915494e-08
-1.172400161e-06
-4.267038113e-05
-0.0005223419429
-2.199842348e-09
-5.110965841e-08
-2.860144371e-06
-6.38926754e-05
-0.0006338529732
-8.107235205e-09
-1.751897304e-07
-7.17615598e-06
-0.0001160649185
-0.001023377412
-2.998818567e-08
-6.080513759e-07
-1.692956393e-05
-0.0002011004024
-0.001455789282
-1.105019364e-07
-1.912642522e-06
-3.366315765e-05
-0.0002862182081
-0.001699919799
-3.891531455e-07
-5.132851785e-06
-5.851563101e-05
-0.0003811202562
-0.001988525137
-1.319702957e-06
-1.182701153e-05
-9.3928351e-05
-0.0005105882862
-0.002418523221
-3.797787004e-06
-2.30733125e-05
-0.0001404736507
-0.000665322636
-0.00286984061
-9.325408276e-06
-4.024526845e-05
-0.0001979067067
-0.0008175519336
-0.003201025905
-2.035022417e-05
-6.615398475e-05
-0.0002707954454
-0.000996781875
-0.003505540753
-4.194004779e-05
-0.0001082365037
-0.0003774724516
-0.001283689583
-0.003905634948
-8.461856667e-05
-0.000182212022
-0.0005453767117
-0.001718256889
-0.004434216467
-0.0001708620794
-0.0003162235965
-0.0008135151371
-0.002317669844
-0.004918149243
-0.0003363227881
-0.0005497542445
-0.001279160216
-0.002968397189
-0.00496747841
-0.0006850578085
-0.001014571522
-0.001927639427
-0.003423383542
-0.004364810337
-0.001293128872
-0.00166978448
-0.002496748338
-0.003415884044
-0.003100102257
-0.001869836533
-0.002150965924
-0.002629733265
-0.002772858533
-0.001377896599
-0.001986871913
-0.002113005178
-0.002129138794
-0.001531298955
2.442180929e-06
-0.001513047192
-0.001440756435
-0.001085787539
-0.0002059100202
0.001119153853
-0.0006411648446
-0.0004492072304
0.0001077495614
0.0007781416827
0.002493238174
0.0003134601867
0.0005848374656
0.0009050557412
0.002137708809
0.004002406856
0.001326043734
0.001686711322
0.002634982781
0.003818996197
0.00649180188
0.002848597807
0.003387770455
0.004621419536
0.006980646002
0.01129486052
0.005580283471
0.006429004703
0.008597926148
0.01193020883
0.01861652275
0.01059083296
0.01183547719
0.01581609591
0.0224212043
0.03320417744
0.02098726072
0.02360985689
0.02890366643
0.03864841853
0.05538080104
0.04193072728
0.04547168259
0.05449245043
0.07020996021
0.09284308807
0.08468519189
0.09083482234
0.1048862815
0.1268641086
0.1619045027
0.1660169545
0.1749186587
0.1947473388
0.222315268
0.261246533
0.2774864666
0.2838024108
0.29536014
0.3088523665
0.3165220966
0.2709848557
0.2629905641
0.2442912519
0.2140666124
0.1677101804
0.03354848403
0.02305933814
0.001464242068
-0.03052083858
-0.06675854598
-0.120978115
-0.1241027028
-0.1301040185
-0.1374278298
-0.1441166788
-0.1238440628
-0.1235733221
-0.1227495719
-0.1210296141
-0.1180126891
-0.08414473208
-0.08337912347
-0.08167389446
-0.07907918432
-0.07570727253
-0.04992226266
-0.04948113324
-0.04862584624
-0.04770697125
-0.04739104046
-0.03363892255
-0.03410568085
-0.03515211992
-0.03650210119
-0.03708817814
-0.02135691064
-0.02099320474
-0.02018468197
-0.0189882392
-0.01749738054
-0.008894564563
-0.008751640702
-0.008446956956
-0.008009050553
-0.0074662841
-0.003718411883
-0.003667018331
-0.003556676909
-0.003396654099
-0.00319585206
-0.001570450211
-0.001551355956
-0.001510308896
-0.001450430006
-0.001374646544
-0.0006696457403
-0.0006624316338
-0.0006468541013
-0.0006240153147
-0.0005949152111
-0.0002882811105
-0.0002854901612
-0.0002794639959
-0.000270597899
-0.0002592430794
-0.000125245834
-0.0001241525735
-0.0001217842314
-0.0001182888302
-0.0001137929507
-5.491267536e-05
-5.447608559e-05
-5.353071708e-05
-5.213223949e-05
-5.032725316e-05
-2.429400431e-05
-2.411786644e-05
-2.373550613e-05
-2.316861746e-05
-2.243471781e-05
-1.084964111e-05
-1.077743629e-05
-1.062076113e-05
-1.038809095e-05
-1.008611954e-05
-4.893544526e-06
-4.863702594e-06
-4.798825147e-06
-4.702319621e-06
-4.576798186e-06
-2.231164772e-06
-2.218699724e-06
-2.191612478e-06
-2.151279311e-06
-2.098742205e-06
-1.029960806e-06
-1.024771215e-06
-1.0134825e-06
-9.966685506e-07
-9.747629767e-07
-4.834046054e-07
-4.813034493e-07
-4.767428741e-07
-4.699675327e-07
-4.611747632e-07
-2.334450963e-07
-2.327097083e-07
-2.311237114e-07
-2.287993035e-07
-2.258456223e-07
-1.202455493e-07
-1.201736001e-07
-1.200404718e-07
-1.199056442e-07
-1.198539131e-07
-6.834807713e-08
-6.850096262e-08
-6.885732663e-08
-6.945247944e-08
-7.03563948e-08
-4.863339733e-08
-4.907527267e-08
-5.006616804e-08
-5.162675211e-08
-5.381213053e-08
-4.783293328e-08
-4.848924089e-08
-4.9951215e-08
-5.222443584e-08
-5.536742512e-08
-5.715511388e-08
-5.8009217e-08
-5.990358223e-08
-6.28267703e-08
-6.676915328e-08
-7.355677142e-08
-7.456700951e-08
-7.67966789e-08
-8.020772835e-08
-8.481797511e-08
-9.614558048e-08
-9.725981425e-08
-9.970826621e-08
-1.034252895e-07
-1.083945748e-07
-1.233596897e-07
-1.244857567e-07
-1.269484313e-07
-1.306555119e-07
-1.355518371e-07
-1.528211016e-07
-1.538298351e-07
-1.560220365e-07
-1.592850901e-07
-1.635250972e-07
-1.808577457e-07
-1.81598414e-07
-1.831901353e-07
-1.855118849e-07
-1.884381789e-07
-2.023618306e-07
-2.02678584e-07
-2.033306338e-07
-2.042054701e-07
-2.051600882e-07
-2.119007272e-07
-2.117019039e-07
-2.112199142e-07
-2.103714401e-07
-2.090198029e-07
-2.065699548e-07
-2.05842243e-07
-2.042037187e-07
-2.016158022e-07
-1.979698311e-07
-1.913722825e-07
-1.902755138e-07
-1.878341915e-07
-1.8404999e-07
-1.788466974e-07
-0.0008399922845
-0.00879649145
-0.005531088549
-0.003763019656
-0.003116880619
-0.003576884143
-0.005043933814
-0.005797715286
-0.005572403264
-0.005610345842
-0.006104679001
-0.006464063193
-0.00632711622
-0.006151296951
-0.006185286004
-0.006338714153
-0.006149309483
-0.00512672441
-0.003300655089
-0.001107971111
0.0002758302773
0.001605373486
0.003148139248
0.004418694986
0.006680472512
0.01014085123
0.01680563212
0.02669662598
0.04290862752
0.07172904281
0.1168767825
0.1938578236
0.2904277088
0.3125291846
0.1251431382
-0.0922058687
-0.1476570185
-0.1152712163
-0.07324375089
-0.04813083831
-0.03634346649
-0.01640150585
-0.007061064857
-0.003043663232
-0.001316585335
-0.0005724317606
-0.0002504114414
-0.0001102766508
-4.890901574e-05
-2.185575686e-05
-9.847089168e-06
-4.477150937e-06
-2.056952171e-06
-9.573357692e-07
-4.542178303e-07
-2.235789386e-07
-1.199508304e-07
-7.121708844e-08
-5.572062399e-08
-5.80602456e-08
-7.009789081e-08
-8.868203711e-08
-1.125046749e-07
-1.395404761e-07
-1.669069596e-07
-1.906772917e-07
-2.057323065e-07
-2.076856393e-07
-1.94765428e-07
-1.743963392e-07
0.008447027579
-0.003683556443
-0.0002426655535
-2.079631603e-05
-1.822097594e-06
0.003746279048
0.5186341745
-0.07195600669
-0.003184585042
-3.954663844e-05
-0.002548958044
0.188146428
-0.1044732595
-0.005976259238
-0.0001062793512
-0.00342002642
0.07021389947
0.07569870219
-0.03308595144
-0.001550975324
-0.00281133759
0.04992673794
0.6667940616
-0.1617191986
-0.01067662027
-0.003915775139
0.04615607086
0.8586774223
-0.2769297231
-0.02341477472
-0.006179570664
0.04201290613
0.7300791629
-0.3236900098
-0.03441308923
-0.006493539898
0.02879986426
0.4026002391
-0.22587682
-0.0558586767
-0.005205464514
0.02180403433
0.248271435
0.4010280484
-0.2072574229
-0.004652031134
0.01949659106
0.2057944691
0.8540939762
-0.3725206987
-0.004824069411
0.01765483486
0.1826533325
0.9513347216
-0.4632153629
-0.00480900836
0.01488120534
0.1433264678
0.7844993313
-0.4449272829
-0.004118076095
0.01265657104
0.1053979529
0.5547241949
0.01578446696
-0.003361234377
0.01176689298
0.0875017949
0.4499899504
0.5277874486
-0.002783953503
0.01152567754
0.07948685497
0.4020674051
0.7885363892
-0.002259333508
0.01164781297
0.07532735949
0.3673872937
0.8752627787
-0.0013334472
0.01177057756
0.07063510194
0.3219653084
0.833781304
2.582999454e-05
0.01203280104
0.06516744276
0.2724746511
0.7332450269
0.0008058201253
0.01293478307
0.06267953307
0.2429758145
0.6645754679
0.002258619978
0.0146295719
0.06402406918
0.2323717766
0.6297902745
0.003637787697
0.01711570136
0.06845236363
0.2330695934
0.6111701074
0.00492263234
0.02047484783
0.07489738659
0.2385600151
0.596217176
0.006803114102
0.02471324997
0.0828398711
0.2459996967
0.5796990651
0.0093178171
0.03017344292
0.09265245649
0.2552606477
0.5611755683
0.01286560411
0.03752190731
0.1055030031
0.2688990638
0.5463184739
0.01817617177
0.05172603375
0.1240703693
0.291859521
0.5390187613
0.0280617097
0.0674609023
0.1519698852
0.327866315
0.5326658993
0.04275243207
0.0890810395
0.1929030718
0.3754781649
0.5068436486
0.06572693495
0.1271998175
0.2501212441
0.4236588871
0.4336169203
0.1091727504
0.1843138452
0.3210974002
0.4418841849
0.2948157631
0.1595750323
0.2623267675
0.3829312402
0.3809604009
0.1093383163
0.2459000027
0.3409224626
0.3738883904
0.2145319188
-0.06448209774
0.3272792142
0.3410543955
0.2265408354
0.001547596362
-0.1716499171
0.2833328288
0.1705232156
-0.00308988557
-0.146451176
-0.2016027366
0.05606813842
-0.06065913291
-0.150095888
-0.1856845318
-0.1827222833
-0.1236268292
-0.1592633395
-0.1694912753
-0.1595569289
-0.1523991794
-0.1487258987
-0.1439096645
-0.1314838316
-0.1214504065
-0.1244161871
-0.1097112223
-0.09974725637
-0.09275680224
-0.09784748449
-0.07898209453
-0.06976877604
-0.06790398439
-0.07393247448
-0.06269564942
-0.04385507348
-0.05048475013
-0.05371570534
-0.0439681217
-0.03237319867
-0.02332179894
-0.0333178745
-0.02704086255
-0.02109840426
-0.01604057989
-0.01193004723
-0.01479351166
-0.01225301223
-0.009852435206
-0.007719085186
-0.005912836631
-0.006463482252
-0.005483254004
-0.004522642878
-0.003637669649
-0.002861533037
-0.002818161215
-0.002437883956
-0.002054381902
-0.001690443266
-0.001361509189
-0.001230246999
-0.001081529114
-0.0009280691324
-0.0007788146274
-0.0006404117497
-0.0005389050593
-0.0004801795361
-0.0004184387274
-0.0003571464078
-0.000299056857
-0.0002372137137
-0.0002137775619
-0.0001887563547
-0.0001634865464
-0.0001390875332
-0.0001050132696
-9.555918085e-05
-8.533490821e-05
-7.48580198e-05
-6.458020092e-05
-4.67834777e-05
-4.292867913e-05
-3.87144787e-05
-3.434266937e-05
-2.999530637e-05
-2.09872274e-05
-1.939915743e-05
-1.764709021e-05
-1.581041515e-05
-1.396289719e-05
-9.488251894e-06
-8.827616832e-06
-8.093204714e-06
-7.31667397e-06
-6.52813795e-06
-4.327482552e-06
-4.050409304e-06
-3.740569982e-06
-3.41081986e-06
-3.073726531e-06
-1.994173849e-06
-1.877550044e-06
-1.746715911e-06
-1.607087407e-06
-1.464142002e-06
-9.311716118e-07
-8.826030757e-07
-8.282808463e-07
-7.706758474e-07
-7.124242584e-07
-4.438044252e-07
-4.247344962e-07
-4.038861634e-07
-3.825950574e-07
-3.624070053e-07
-2.202342994e-07
-2.145620607e-07
-2.091581835e-07
-2.0497802e-07
-2.032325204e-07
-1.201868343e-07
-1.214980574e-07
-1.231361201e-07
-1.223501192e-07
-1.255940261e-07
-7.259257124e-08
-7.599455053e-08
-8.118596882e-08
-8.877073183e-08
-9.945383916e-08
-5.867007498e-08
-6.514560277e-08
-7.396082006e-08
-8.567452322e-08
-1.008330074e-07
-6.218922437e-08
-7.10425066e-08
-8.249177319e-08
-9.699740293e-08
-1.147557914e-07
-7.513792096e-08
-8.561826857e-08
-9.890492681e-08
-1.151562408e-07
-1.343801122e-07
-9.449074933e-08
-1.062602232e-07
-1.206709459e-07
-1.376193493e-07
-1.567388539e-07
-1.186306319e-07
-1.3076019e-07
-1.45151203e-07
-1.613576307e-07
-1.786550318e-07
-1.454338627e-07
-1.567488671e-07
-1.696024666e-07
-1.832505528e-07
-1.966596262e-07
-1.718439594e-07
-1.809017013e-07
-1.905022605e-07
-1.99657204e-07
-2.07123692e-07
-1.938681076e-07
-1.991630154e-07
-2.038308755e-07
-2.066291195e-07
-2.060829152e-07
-2.064014117e-07
-2.064948293e-07
-2.046463057e-07
-1.997581025e-07
-1.906350278e-07
-2.055238341e-07
-2.000127197e-07
-1.915149781e-07
-1.791241494e-07
-1.619370441e-07
-1.898338781e-07
-1.790082887e-07
-1.644572915e-07
-1.455677562e-07
-1.218106585e-07
-1.676414741e-07
-1.534399142e-07
-1.352296649e-07
-1.126709251e-07
-8.555523226e-08
-8.568399184e-08
-1.082939301e-09
-3.447369475e-11
-3.284813254e-12
-6.102041721e-13
-1.25844981e-13
-2.450646795e-14
-4.701944119e-15
-9.912385368e-16
-2.640381483e-16
-9.334363657e-17
-4.023775615e-17
-1.906116625e-17
-9.363748868e-18
-4.655987822e-18
-2.320699243e-18
-1.15534467e-18
-5.736855396e-19
-2.841145567e-19
-1.404489113e-19
-6.943474029e-20
-3.44365211e-20
-1.721161571e-20
-8.723841187e-21
-4.521527876e-21
-2.419745919e-21
-1.349296204e-21
-7.883221977e-22
-4.824004353e-22
-3.072895323e-22
-2.018630676e-22
-1.354607971e-22
-9.213679203e-23
-6.314856679e-23
-4.340125139e-23
-2.976436497e-23
-2.025202501e-23
-1.358729422e-23
-8.938029881e-24
-5.742639478e-24
-3.598946613e-24
-2.203144265e-24
-1.32213732e-24
-7.815929887e-25
-4.574317524e-25
-2.661653853e-25
-1.544476461e-25
-8.953402383e-26
-5.188646038e-26
-3.004314456e-26
-1.734476102e-26
-9.943167936e-27
-5.618165229e-27
-3.088249735e-27
-1.612854416e-27
-7.643290913e-28
-2.973561521e-28
-7.635554166e-29
-6.565016511e-30
-6.496880597e-32
-6.008273474e-06
-7.107398771e-08
-1.657137756e-09
-1.218694292e-10
-2.010385057e-11
-4.08006224e-12
-8.634916968e-13
-2.128014648e-13
-6.535005396e-14
-2.441715079e-14
-1.001610066e-14
-4.269379242e-15
-1.842450748e-15
-8.014583579e-16
-3.515324776e-16
-1.557501797e-16
-6.980857125e-17
-3.166401379e-17
-1.453810656e-17
-6.75576081e-18
-3.178836285e-18
-1.516937953e-18
-7.364384238e-19
-3.654672519e-19
-1.866919474e-19
-9.900030436e-20
-5.493041771e-20
-3.202873864e-20
-1.959787319e-20
-1.249664516e-20
-8.223207396e-21
-5.530734197e-21
-3.772436546e-21
-2.594339045e-21
-1.790342815e-21
-1.233710813e-21
-8.439700687e-22
-5.694735376e-22
-3.767594447e-22
-2.433944698e-22
-1.533229485e-22
-9.431666575e-23
-5.687003031e-23
-3.378035208e-23
-1.986770076e-23
-1.162006616e-23
-6.77908372e-24
-3.951926526e-24
-2.303416556e-24
-1.341384866e-24
-7.787721197e-25
-4.48886867e-25
-2.549731504e-25
-1.408533381e-25
-7.390000715e-26
-3.5206441e-26
-1.387618044e-26
-3.726911884e-27
-4.021903719e-28
-7.720243524e-30
-1.207436061e-05
-1.398613005e-07
-4.329235453e-09
-5.71153351e-10
-1.262649754e-10
-3.36373025e-11
-1.020624625e-11
-3.767793465e-12
-1.584196029e-12
-7.127983893e-13
-3.206947644e-13
-1.424941087e-13
-6.178515617e-14
-2.628192195e-14
-1.100740279e-14
-4.575494624e-15
-1.90195729e-15
-7.963826073e-16
-3.381147602e-16
-1.462144242e-16
-6.460788956e-17
-2.923496702e-17
-1.358531437e-17
-6.507839176e-18
-3.231614952e-18
-1.6751817e-18
-9.125391077e-19
-5.242214484e-19
-3.170668411e-19
-2.005403707e-19
-1.313582104e-19
-8.825124486e-20
-6.032520664e-20
-4.169611279e-20
-2.899044197e-20
-2.01652372e-20
-1.394207799e-20
-9.51310059e-21
-6.364241471e-21
-4.155615297e-21
-2.644157339e-21
-1.641756295e-21
-9.985271298e-22
-5.979714502e-22
-3.544720596e-22
-2.089482016e-22
-1.228764122e-22
-7.222519258e-23
-4.245766296e-23
-2.494327356e-23
-1.461191022e-23
-8.497979752e-24
-4.868903689e-24
-2.711593173e-24
-1.43321522e-24
-6.880130882e-25
-2.752003837e-25
-7.637024548e-26
-9.244324032e-27
-2.39320807e-28
-4.76681345e-05
-7.659715569e-07
-1.614663868e-08
-1.858888757e-09
-5.117219523e-10
-1.889680245e-10
-8.040967946e-11
-3.780529697e-11
-1.863798405e-11
-9.297600146e-12
-4.556970925e-12
-2.177795982e-12
-1.007308938e-12
-4.52130129e-13
-1.969968818e-13
-8.381820415e-14
-3.498067074e-14
-1.443539125e-14
-5.934873128e-15
-2.453245159e-15
-1.027948031e-15
-4.398311093e-16
-1.933671411e-16
-8.787685581e-17
-4.154737988e-17
-2.057339869e-17
-1.073849698e-17
-5.931717353e-18
-3.466008317e-18
-2.13098145e-18
-1.366717416e-18
-9.058038027e-19
-6.152353331e-19
-4.253634997e-19
-2.975709168e-19
-2.092399547e-19
-1.467045882e-19
-1.016689103e-19
-6.910071616e-20
-4.581724911e-20
-2.957852732e-20
-1.861573695e-20
-1.14668575e-20
-6.950121149e-21
-4.168012052e-21
-2.484826332e-21
-1.477569351e-21
-8.780585736e-22
-5.218129498e-22
-3.099511054e-22
-1.836430238e-22
-1.080562241e-22
-6.263883535e-23
-3.528334393e-23
-1.885102403e-23
-9.151283927e-24
-3.727186159e-24
-1.07085332e-24
-1.425737498e-25
-4.901821648e-27
-0.0002646795264
-8.291906358e-06
-1.321996236e-07
-6.615896552e-09
-1.782965917e-09
-8.226304896e-10
-4.25033507e-10
-2.26682502e-10
-1.226941965e-10
-6.645263381e-11
-3.55120993e-11
-1.857902021e-11
-9.449067729e-12
-4.664678721e-12
-2.229073359e-12
-1.03331008e-12
-4.647771036e-13
-2.038229552e-13
-8.742998342e-14
-3.696270818e-14
-1.550044938e-14
-6.509366091e-15
-2.760142107e-15
-1.192991094e-15
-5.303928085e-16
-2.449185694e-16
-1.185594611e-16
-6.063806034e-17
-3.291293422e-17
-1.894865451e-17
-1.15107268e-17
-7.318619527e-18
-4.82930189e-18
-3.282456091e-18
-2.282103946e-18
-1.609869254e-18
-1.140644751e-18
-8.025567482e-19
-5.549936309e-19
-3.74497959e-19
-2.45812571e-19
-1.570820446e-19
-9.811882213e-20
-6.026116178e-20
-3.661567221e-20
-2.212264308e-20
-1.333428963e-20
-8.030936843e-21
-4.835378194e-21
-2.908817126e-21
-1.745082652e-21
-1.039815117e-21
-6.106020717e-22
-3.485340052e-22
-1.887949249e-22
-9.308502442e-23
-3.876553105e-23
-1.159421704e-23
-1.698072812e-24
-8.045203518e-26
-0.0007161589213
-6.229322614e-05
-1.283987323e-06
-3.736932129e-08
-6.646102717e-09
-2.915984218e-09
-1.57602228e-09
-8.925822781e-10
-5.14832621e-10
-2.988543999e-10
-1.728682747e-10
-9.883280775e-11
-5.54759104e-11
-3.044086912e-11
-1.62612543e-11
-8.440453609e-12
-4.248428346e-12
-2.07459038e-12
-9.82564617e-13
-4.529285586e-13
-2.037538496e-13
-9.004346017e-14
-3.928149153e-14
-1.704863743e-14
-7.411977121e-15
-3.260268617e-15
-1.466306403e-15
-6.829158679e-16
-3.334497779e-16
-1.723967554e-16
-9.481537793e-17
-5.540046797e-17
-3.419893698e-17
-2.214266428e-17
-1.492207404e-17
-1.036854224e-17
-7.33473514e-18
-5.204541813e-18
-3.653073235e-18
-2.509406074e-18
-1.676879388e-18
-1.08894183e-18
-6.894424312e-19
-4.282889902e-19
-2.630514144e-19
-1.607813603e-19
-9.817834723e-20
-5.997924039e-20
-3.665521492e-20
-2.238320369e-20
-1.362645095e-20
-8.236313491e-21
-4.906139468e-21
-2.842460084e-21
-1.565798206e-21
-7.885405018e-22
-3.384887588e-22
-1.067151001e-22
-1.747673027e-23
-1.172958057e-24
-0.002511660841
-0.0001375094758
-7.228213697e-06
-2.731055612e-07
-2.321684896e-08
-7.669294865e-09
-3.971790702e-09
-2.312944081e-09
-1.400290946e-09
-8.610357869e-10
-5.318791917e-10
-3.277160352e-10
-2.002696063e-10
-1.208286272e-10
-7.169304958e-11
-4.16926931e-11
-2.368200015e-11
-1.31023009e-11
-7.041870474e-12
-3.673697674e-12
-1.859531216e-12
-9.148739539e-13
-4.381574741e-13
-2.050154907e-13
-9.40210471e-14
-4.251200494e-14
-1.905762335e-14
-8.544804176e-15
-3.875589585e-15
-1.805638454e-15
-8.783647794e-16
-4.524048189e-16
-2.486689046e-16
-1.460052285e-16
-9.119808593e-17
-6.012993435e-17
-4.128916765e-17
-2.898504355e-17
-2.04193647e-17
-1.421123417e-17
-9.663458639e-18
-6.388324623e-18
-4.106449956e-18
-2.578956143e-18
-1.595922179e-18
-9.818695775e-19
-6.042349731e-19
-3.728932593e-19
-2.307738431e-19
-1.429888071e-19
-8.843586546e-20
-5.433841787e-20
-3.291688921e-20
-1.941343712e-20
-1.091831236e-20
-5.653173318e-21
-2.528169465e-21
-8.54355802e-22
-1.608237745e-22
-1.538973207e-23
-0.005618823954
-0.0002578495371
-4.071478634e-05
-1.85731599e-06
-1.108220224e-07
-2.017059014e-08
-8.308059603e-09
-4.613998183e-09
-2.817006042e-09
-1.784243893e-09
-1.148209601e-09
-7.431566817e-10
-4.807510577e-10
-3.094588454e-10
-1.975247087e-10
-1.246614717e-10
-7.759149736e-11
-4.752143385e-11
-2.856523027e-11
-1.680504522e-11
-9.647690025e-12
-5.39060904e-12
-2.924254995e-12
-1.538666278e-12
-7.85434568e-13
-3.89582615e-13
-1.880746387e-13
-8.864095547e-14
-4.097610076e-14
-1.873989184e-14
-8.58304482e-15
-4.005218114e-15
-1.943238948e-15
-9.991560954e-16
-5.510423193e-16
-3.271634723e-16
-2.079092601e-16
-1.389676443e-16
-9.55262115e-17
-6.617623439e-17
-4.544828094e-17
-3.057162785e-17
-2.001686677e-17
-1.275681673e-17
-7.965527852e-18
-4.923438947e-18
-3.038695984e-18
-1.882025213e-18
-1.171810502e-18
-7.328945078e-19
-4.590671681e-19
-2.864878052e-19
-1.766890516e-19
-1.063586506e-19
-6.128864433e-20
-3.275396388e-20
-1.532905187e-20
-5.571241427e-21
-1.205825183e-21
-1.571658868e-22
-0.02240181705
-0.001593860151
-0.0002016634587
-1.45491292e-05
-6.735907352e-07
-6.44024802e-08
-1.732503158e-08
-8.213881478e-09
-4.820889341e-09
-3.061968185e-09
-2.013343692e-09
-1.346058855e-09
-9.065042361e-10
-6.113394729e-10
-4.111595058e-10
-2.749218252e-10
-1.823085768e-10
-1.196483273e-10
-7.757042312e-11
-4.958459299e-11
-3.118578684e-11
-1.92561053e-11
-1.164739939e-11
-6.881029696e-12
-3.957760905e-12
-2.21013558e-12
-1.194647808e-12
-6.240284973e-13
-3.150256254e-13
-1.540429646e-13
-7.325856434e-14
-3.415520353e-14
-1.582684795e-14
-7.440461737e-15
-3.635439891e-15
-1.886978586e-15
-1.055762442e-15
-6.371030099e-16
-4.078305336e-16
-2.708318621e-16
-1.829460561e-16
-1.236843405e-16
-8.249827813e-17
-5.372958861e-17
-3.408126431e-17
-2.124216578e-17
-1.315506084e-17
-8.153277621e-18
-5.078748256e-18
-3.184912045e-18
-2.008452935e-18
-1.268048702e-18
-7.951074182e-19
-4.890101811e-19
-2.895916602e-19
-1.60361892e-19
-7.884598765e-20
-3.092087052e-20
-7.694197669e-21
-1.305761776e-21
-0.04613144082
-0.005064736145
-0.0003419616019
-6.520126386e-05
-4.400096171e-06
-2.827867796e-07
-4.179295485e-08
-1.469451709e-08
-7.732111747e-09
-4.759370507e-09
-3.132493929e-09
-2.131711505e-09
-1.476355515e-09
-1.031122895e-09
-7.219426021e-10
-5.046338541e-10
-3.511068332e-10
-2.426153364e-10
-1.661989248e-10
-1.126900213e-10
-7.549300733e-11
-4.990778238e-11
-3.249335245e-11
-2.079027617e-11
-1.304065616e-11
-7.997786707e-12
-4.783310676e-12
-2.78101906e-12
-1.566097042e-12
-8.513464612e-13
-4.455631987e-13
-2.244481811e-13
-1.092684067e-13
-5.192007564e-14
-2.447788371e-14
-1.170708134e-14
-5.82032843e-15
-3.077839944e-15
-1.749799826e-15
-1.062545275e-15
-6.766276814e-16
-4.435145666e-16
-2.945084345e-16
-1.950659778e-16
-1.269126274e-16
-8.062219865e-17
-5.038890097e-17
-3.131546151e-17
-1.949708007e-17
-1.221205839e-17
-7.707663637e-18
-4.893203494e-18
-3.105134028e-18
-1.946988928e-18
-1.185152761e-18
-6.81455961e-19
-3.529564511e-19
-1.497056727e-19
-4.27367318e-20
-9.03822453e-21
-0.06527863094
-0.00885584225
-0.0005588453666
-0.0001632245925
-1.783328058e-05
-1.249726929e-06
-1.210366689e-07
-2.792647203e-08
-1.217835155e-08
-7.0117481e-09
-4.531333796e-09
-3.098301451e-09
-2.184649325e-09
-1.566389467e-09
-1.13206177e-09
-8.199388301e-10
-5.928396435e-10
-4.266411311e-10
-3.051685589e-10
-2.165919668e-10
-1.52283629e-10
-1.058979549e-10
-7.271567894e-11
-4.921615207e-11
-3.277120489e-11
-2.14231566e-11
-1.371961162e-11
-8.58793203e-12
-5.240699067e-12
-3.10870738e-12
-1.787180442e-12
-9.924921821e-13
-5.308221167e-13
-2.732451337e-13
-1.359524937e-13
-6.608271246e-14
-3.189926421e-14
-1.561582313e-14
-7.946097208e-15
-4.294064222e-15
-2.48361178e-15
-1.521466883e-15
-9.697760735e-16
-6.323584821e-16
-4.153488338e-16
-2.704511887e-16
-1.729259104e-16
-1.087622117e-16
-6.790298898e-17
-4.24669893e-17
-2.67547229e-17
-1.700015635e-17
-1.085662498e-17
-6.90536938e-18
-4.306512247e-18
-2.567826691e-18
-1.40180769e-18
-6.43434439e-19
-2.097712828e-19
-5.315712885e-20
-0.08269173559
-0.01257129217
-0.00146354805
-0.0002195967051
-5.102647985e-05
-5.68023602e-06
-5.048295426e-07
-6.958631272e-08
-2.071164145e-08
-1.015741009e-08
-6.214827054e-09
-4.195861239e-09
-2.980232907e-09
-2.175856911e-09
-1.610855591e-09
-1.200565022e-09
-8.962747487e-10
-6.676555618e-10
-4.950236385e-10
-3.646637612e-10
-2.664364618e-10
-1.927715903e-10
-1.379096554e-10
-9.740685833e-11
-6.781494133e-11
-4.645669856e-11
-3.125807625e-11
-2.061734989e-11
-1.330380257e-11
-8.379942418e-12
-5.140582472e-12
-3.063511875e-12
-1.768926365e-12
-9.873419799e-13
-5.321462327e-13
-2.773773126e-13
-1.405208484e-13
-6.984265057e-14
-3.460042555e-14
-1.746881024e-14
-9.2243114e-15
-5.185086961e-15
-3.09826614e-15
-1.938188315e-15
-1.246993642e-15
-8.125539127e-16
-5.290379267e-16
-3.407857271e-16
-2.163890827e-16
-1.361328412e-16
-8.566614224e-17
-5.432882616e-17
-3.476070791e-17
-2.230711877e-17
-1.417474237e-17
-8.726861051e-18
-5.010862138e-18
-2.487356262e-18
-9.209253181e-19
-2.705050962e-19
-0.1759642432
-0.02756521323
-0.004227651173
-0.0003245203343
-0.0001111444863
-1.836821337e-05
-2.203577172e-06
-2.454665228e-07
-4.333867343e-08
-1.517970595e-08
-8.096170238e-09
-5.219022905e-09
-3.668336351e-09
-2.703168298e-09
-2.030977474e-09
-1.552887288e-09
-1.192131559e-09
-9.146015767e-10
-6.990725104e-10
-5.312329769e-10
-4.006888072e-10
-2.995597214e-10
-2.216834376e-10
-1.621628109e-10
-1.170815883e-10
-8.330049492e-11
-5.830333641e-11
-4.007369067e-11
-2.699985304e-11
-1.779983759e-11
-1.146154605e-11
-7.195127628e-12
-4.394757397e-12
-2.606635723e-12
-1.499023937e-12
-8.352018062e-13
-4.511530532e-13
-2.369331187e-13
-1.217373053e-13
-6.198636006e-14
-3.189618833e-14
-1.699231506e-14
-9.551880375e-15
-5.679887543e-15
-3.53492431e-15
-2.263603638e-15
-1.468614111e-15
-9.559444217e-16
-6.196422333e-16
-3.979137583e-16
-2.534257393e-16
-1.611740584e-16
-1.031084609e-16
-6.64250428e-17
-4.27584554e-17
-2.702786761e-17
-1.625335702e-17
-8.7132161e-18
-3.645345171e-18
-1.210037667e-18
-0.3028021188
-0.05135204185
-0.008910579739
-0.0008472871688
-0.0002050976662
-4.663735366e-05
-7.663631833e-06
-9.916475641e-07
-1.287084419e-07
-2.673543533e-08
-1.034009422e-08
-5.83476962e-09
-3.935097834e-09
-2.885985473e-09
-2.184645795e-09
-1.698637822e-09
-1.330005714e-09
-1.043229744e-09
-8.16749467e-10
-6.366768149e-10
-4.933016836e-10
-3.793941805e-10
-2.893065706e-10
-2.184809878e-10
-1.631856074e-10
-1.203526861e-10
-8.747662021e-11
-6.252837909e-11
-4.386656141e-11
-3.014868931e-11
-2.026217651e-11
-1.32934979e-11
-8.502728907e-12
-5.295965965e-12
-3.20876465e-12
-1.889649771e-12
-1.08119219e-12
-6.014219585e-13
-3.260854062e-13
-1.73374197e-13
-9.14466035e-14
-4.869234169e-14
-2.674057143e-14
-1.53946426e-14
-9.314464123e-15
-5.859729968e-15
-3.771388532e-15
-2.451178362e-15
-1.598290765e-15
-1.041373414e-15
-6.761380634e-16
-4.371008916e-16
-2.82363512e-16
-1.830966925e-16
-1.19076795e-16
-7.686442018e-17
-4.807794505e-17
-2.766796852e-17
-1.300942704e-17
-4.816263945e-18
-0.4013391379
-0.07484214706
-0.01424091788
-0.002175144193
-0.0002580002415
-9.780909647e-05
-1.966174054e-05
-3.504976388e-06
-5.072946636e-07
-7.33014287e-08
-1.634631834e-08
-6.489710607e-09
-3.726807145e-09
-2.579578358e-09
-1.927852855e-09
-1.495182556e-09
-1.180349287e-09
-9.392628284e-10
-7.492082408e-10
-5.969731617e-10
-4.740618194e-10
-3.745422938e-10
-2.939994168e-10
-2.289924849e-10
-1.767489454e-10
-1.349989047e-10
-1.018635141e-10
-7.577815813e-11
-5.544256937e-11
-3.979706032e-11
-2.797284861e-11
-1.921476995e-11
-1.287053812e-11
-8.396788795e-12
-5.333607952e-12
-3.296772058e-12
-1.983195508e-12
-1.162166447e-12
-6.644803412e-13
-3.719748459e-13
-2.053039516e-13
-1.130658074e-13
-6.317666616e-14
-3.645180765e-14
-2.194174429e-14
-1.374662808e-14
-8.853614228e-15
-5.778591502e-15
-3.786493782e-15
-2.48256354e-15
-1.628637864e-15
-1.069238985e-15
-7.024511635e-16
-4.62695301e-16
-3.057555171e-16
-2.015841708e-16
-1.304164496e-16
-7.970827296e-17
-4.171885729e-17
-1.719273035e-17