/*--------------------------------*- C++ -*----------------------------------*\
  =========                 |
  \\      /  F ield         | OpenFOAM: The Open Source CFD Toolbox
   \\    /   O peration     | Website:  https://openfoam.org
    \\  /    A nd           | Version:  10
     \\/     M anipulation  |
\*---------------------------------------------------------------------------*/
FoamFile
{
    format      ascii;
    class       volScalarField;
    location    "3000";
    object      RR.CN;
}
// * * * * * * * * * * * * * * * * * * * * * * * * * * * * * * * * * * * * * //

dimensions      [1 -3 -1 0 0 0 0];

internalField   nonuniform List<scalar> 
5170
(
-6.047751321e-71
-2.712362987e-71
-4.863571883e-72
-3.48503618e-73
-8.38265822e-75
-4.351655557e-68
-1.832376745e-68
-2.763817383e-69
-1.51311664e-70
-3.236239864e-72
-3.086262424e-65
-1.217667841e-65
-1.530892878e-66
-6.750821848e-68
-1.274375505e-69
-2.170253691e-62
-8.050082499e-63
-8.565702401e-64
-3.085038685e-65
-6.553647756e-67
-1.525242488e-59
-5.391304379e-60
-4.953115133e-61
-1.505327972e-62
-6.153419291e-64
-1.07755646e-56
-3.676191865e-57
-2.923497766e-58
-7.719086492e-60
-3.841569957e-61
-7.70387927e-54
-2.550460496e-54
-1.807357931e-55
-4.211158905e-57
-3.982670739e-58
-5.570061856e-51
-1.833176021e-51
-1.207565603e-52
-2.65426343e-54
-8.311478715e-55
-4.110320525e-48
-1.395124014e-48
-8.839329346e-50
-2.008847964e-51
-2.389907988e-51
-3.107112184e-45
-1.131174103e-45
-7.23849071e-47
-2.271803603e-48
-7.522508699e-48
-2.419198992e-42
-9.857370268e-43
-7.067093581e-44
-5.722406589e-45
-2.44507841e-44
-1.933642041e-39
-9.195628858e-40
-8.80737811e-41
-2.58814885e-41
-8.115030201e-41
-1.586482893e-36
-9.246227888e-37
-1.463637592e-37
-1.387242572e-37
-3.638743439e-37
-1.336034191e-33
-9.934810276e-34
-3.085449245e-34
-7.508203538e-34
-2.10777303e-33
-1.146011592e-30
-1.149840171e-30
-7.641597869e-31
-3.909344453e-30
-1.271249868e-29
-1.000047289e-27
-1.405874916e-27
-2.046092627e-27
-1.878333017e-26
-7.710669632e-26
-8.642041268e-25
-1.817501462e-24
-5.596681756e-24
-8.077672858e-23
-4.685944126e-22
-7.398255979e-22
-2.407687388e-21
-1.496524254e-20
-3.216834099e-19
-2.852732418e-18
-5.771889813e-19
-3.091443562e-18
-3.702787915e-17
-1.115160494e-15
-1.740118313e-14
-3.864106484e-16
-3.73279145e-15
-8.688269858e-14
-3.698312368e-12
-1.032517591e-10
3.158828011e-14
1.495334728e-14
1.06124817e-14
1.69595512e-14
3.124262657e-14
-7.074133508e-16
3.070067107e-15
2.861232722e-15
2.471568657e-15
-1.940000736e-15
-4.521172851e-15
-2.143928605e-15
-1.888872835e-15
-2.844646193e-15
-4.728353596e-15
-3.959518446e-15
-3.144207407e-15
-2.742026627e-15
-3.244511832e-15
-3.674163629e-15
-3.045288168e-15
-2.96814148e-15
-2.778289832e-15
-2.975641672e-15
-2.683308211e-15
-2.293765113e-15
-2.557751985e-15
-2.502515181e-15
-2.581826471e-15
-1.975037409e-15
-1.744315444e-15
-2.132964476e-15
-2.155425304e-15
-2.181205978e-15
-1.474791444e-15
-1.337452219e-15
-1.754853576e-15
-1.817784083e-15
-1.784327428e-15
-1.087615275e-15
-1.029832331e-15
-1.418174015e-15
-1.499059626e-15
-1.389942404e-15
-7.887439231e-16
-7.965116659e-16
-1.131794855e-15
-1.205587764e-15
-1.046450554e-15
-5.723319899e-16
-6.174473213e-16
-8.915656533e-16
-9.493846027e-16
-7.784699324e-16
-4.222741179e-16
-4.810495982e-16
-6.970442137e-16
-7.367615383e-16
-5.801972214e-16
-3.188576648e-16
-3.77456673e-16
-5.427720098e-16
-5.686500038e-16
-4.381531492e-16
-2.478020402e-16
-3.00317319e-16
-4.251505564e-16
-4.404839174e-16
-3.377438096e-16
-1.986940294e-16
-2.427647041e-16
-3.358430466e-16
-3.449111865e-16
-2.67153275e-16
-1.6455024e-16
-2.068911673e-16
-2.723040217e-16
-2.755274723e-16
-2.170737312e-16
-1.402481077e-16
-1.157897287e-15
-6.971298806e-16
-3.709875156e-16
-2.314605246e-16
-1.357150303e-16
-1.493879249e-13
-9.413602413e-14
-2.654360523e-14
-7.410364551e-15
-1.488475684e-15
-2.213377376e-11
-2.020492655e-11
-4.841009842e-12
-1.010515117e-12
-1.353103065e-13
3.297158715e-09
-6.276289067e-09
-9.953928185e-10
-1.364446038e-10
-1.133500156e-11
-7.02903037e-14
-1.116276886e-12
-6.241147007e-11
-5.72254992e-09
-2.784538977e-07
-1.403608665e-13
-1.683360526e-12
-6.45487291e-11
-3.291432113e-09
-7.011758826e-08
-1.823897114e-13
-1.897508143e-12
-6.256289114e-11
-2.495252769e-09
-4.378337932e-08
-3.570725164e-13
-4.600063986e-12
-1.847145348e-10
-6.82746166e-09
-1.061972708e-07
-6.903587927e-13
-8.951181385e-12
-3.04557619e-10
-7.549505015e-09
-8.265776303e-08
-1.113857362e-12
-1.307201296e-11
-3.42877465e-10
-5.939471456e-09
-4.781894211e-08
-2.058481561e-12
-2.479264375e-11
-5.677618666e-10
-7.871472672e-09
-5.612762501e-08
-6.863449804e-12
-1.008301041e-10
-2.147634136e-09
-2.494360298e-08
-1.661969678e-07
-1.979358851e-11
-2.709825094e-10
-4.107297343e-09
-3.307506586e-08
-1.695928352e-07
-4.314689635e-11
-4.912506315e-10
-5.119468282e-09
-2.958532556e-08
-1.200447232e-07
-9.096043181e-11
-7.810191545e-10
-5.772002715e-09
-2.71394133e-08
-9.948329028e-08
-2.216004245e-10
-1.499428026e-09
-9.45852992e-09
-4.386111875e-08
-1.70705499e-07
-5.169475324e-10
-2.68106006e-09
-1.399290025e-08
-5.71587522e-08
-1.973975424e-07
-9.812195643e-10
-3.858208789e-09
-1.626741378e-08
-5.633559393e-08
-1.67201311e-07
-1.605088796e-09
-4.749882313e-09
-1.632324992e-08
-4.866867611e-08
-1.278091032e-07
-2.557079957e-09
-6.082834388e-09
-1.816299267e-08
-5.081650627e-08
-1.319208709e-07
-5.193797194e-09
-1.077687358e-08
-2.995851134e-08
-8.355087252e-08
-2.231588248e-07
-1.111595759e-08
-2.043600817e-08
-5.06948752e-08
-1.299789882e-07
-3.226384383e-07
-1.984930018e-08
-3.225162856e-08
-6.945785679e-08
-1.579151214e-07
-3.526035566e-07
-2.79109979e-08
-4.109784224e-08
-7.786586668e-08
-1.579445352e-07
-3.193507982e-07
-3.340197574e-08
-4.559302699e-08
-7.806952007e-08
-1.44667217e-07
-2.715997744e-07
-3.811482424e-08
-4.97711082e-08
-8.02510949e-08
-1.415968382e-07
-2.575886717e-07
-4.84974379e-08
-6.212905717e-08
-9.794604764e-08
-1.706748215e-07
-3.108316364e-07
-7.189546599e-08
-9.110870168e-08
-1.412118613e-07
-2.425442036e-07
-4.369586048e-07
-1.121821839e-07
-1.394396353e-07
-2.093525803e-07
-3.474905395e-07
-6.046343645e-07
-1.682290904e-07
-2.04156255e-07
-2.947023741e-07
-4.673974209e-07
-7.780758444e-07
-2.384563894e-07
-2.828211454e-07
-3.921931063e-07
-5.963970425e-07
-9.51345199e-07
-3.244276183e-07
-3.775947855e-07
-5.073335294e-07
-7.419052687e-07
-1.141751395e-06
-4.306891075e-07
-4.933194811e-07
-6.480411833e-07
-9.222142446e-07
-1.372718044e-06
-5.673970835e-07
-6.426817731e-07
-8.218474456e-07
-1.138963842e-06
-1.658784194e-06
-7.441008584e-07
-8.3272601e-07
-1.043879014e-06
-1.41481937e-06
-2.001804039e-06
-9.771289451e-07
-1.083746605e-06
-1.329470282e-06
-1.754158209e-06
-2.421798493e-06
-1.291899393e-06
-1.415608377e-06
-1.72052459e-06
-2.190038167e-06
-2.934170111e-06
-1.719969735e-06
-1.866185134e-06
-2.197905908e-06
-2.738865894e-06
-3.527839568e-06
-2.136071784e-06
-2.295346163e-06
-2.642191562e-06
-3.187134119e-06
-3.956528999e-06
-2.301523763e-06
-2.451450445e-06
-2.782344414e-06
-3.309794053e-06
-4.036377793e-06
-2.424581649e-06
-2.582174088e-06
-2.929150142e-06
-3.469734582e-06
-4.201398721e-06
-3.025845881e-06
-3.19702434e-06
-3.564942514e-06
-4.104705684e-06
-4.755532682e-06
-4.179332707e-06
-4.308757137e-06
-4.546793919e-06
-4.75619407e-06
-4.612397339e-06
-4.172194369e-06
-3.882054893e-06
-3.007095039e-06
-9.272261399e-07
3.641465322e-06
8.869883633e-06
1.062367099e-05
1.442557495e-05
1.948081228e-05
2.329661897e-05
7.541965015e-06
6.716663408e-06
4.774147426e-06
1.721935439e-06
-2.118357338e-06
-7.446198031e-06
-7.647028345e-06
-8.021073527e-06
-8.427019688e-06
-8.710537896e-06
-5.868513975e-06
-5.824405446e-06
-5.719746081e-06
-5.544733292e-06
-5.290633828e-06
-2.902506106e-06
-2.867326767e-06
-2.774736188e-06
-2.662678995e-06
-2.519918009e-06
-1.293731498e-06
-1.278299718e-06
-1.244883307e-06
-1.196661358e-06
-1.134248638e-06
-5.674964773e-07
-5.61379352e-07
-5.481750691e-07
-5.287822939e-07
-5.040251344e-07
-2.491639843e-07
-2.467749791e-07
-2.416039706e-07
-2.33986583e-07
-2.242180196e-07
-1.102577662e-07
-1.093106391e-07
-1.072602853e-07
-1.042588344e-07
-1.004104869e-07
-4.944282522e-08
-4.906757203e-08
-4.824257645e-08
-4.704605733e-08
-4.547085689e-08
-2.216894583e-08
-2.214437872e-08
-2.153655765e-08
-2.120354107e-08
-2.020637183e-08
-1.025205864e-08
-1.018955817e-08
-1.005367466e-08
-9.851082636e-09
-9.806397523e-09
-4.914873195e-09
-4.888316253e-09
-4.830593158e-09
-4.744622978e-09
-4.632644337e-09
-2.406206975e-09
-2.394523955e-09
-2.369071217e-09
-2.331035371e-09
-2.281234365e-09
-1.204988701e-09
-1.199607251e-09
-1.187868715e-09
-1.170265871e-09
-1.147103972e-09
-6.180940631e-10
-6.154429255e-10
-6.097402883e-10
-6.011638421e-10
-5.898351868e-10
-3.259530963e-10
-3.245711789e-10
-3.215507362e-10
-3.170033088e-10
-3.109880727e-10
-1.767702372e-10
-1.759858902e-10
-1.742728065e-10
-1.716970972e-10
-1.682967374e-10
-9.907895045e-11
-9.861195501e-11
-9.759453642e-11
-9.607011174e-11
-9.406734496e-11
-5.785852929e-11
-5.757500282e-11
-5.695899613e-11
-5.604023142e-11
-5.484087964e-11
-3.553991704e-11
-3.536804372e-11
-3.499578585e-11
-3.444330978e-11
-3.372707817e-11
-2.312452145e-11
-2.302216852e-11
-2.280115132e-11
-2.247476431e-11
-2.205460029e-11
-1.595235329e-11
-1.589313152e-11
-1.576564754e-11
-1.557833156e-11
-1.533889239e-11
-1.158379571e-11
-1.155088239e-11
-1.14802659e-11
-1.137705969e-11
-1.124612287e-11
-8.748294367e-12
-8.730991696e-12
-8.694021482e-12
-8.640333985e-12
-8.572826084e-12
-6.777421737e-12
-6.769083519e-12
-6.75137138e-12
-6.725880633e-12
-6.694227655e-12
-5.331443668e-12
-5.328005941e-12
-5.320790105e-12
-5.310583158e-12
-5.298207909e-12
-4.209295879e-12
-4.208358411e-12
-4.206465883e-12
-4.203945237e-12
-4.201153653e-12
-3.339089225e-12
-3.339305026e-12
-3.339857231e-12
-3.340832846e-12
-3.342336852e-12
-2.610635931e-12
-2.61121517e-12
-2.612521823e-12
-2.614542998e-12
-2.617278663e-12
-1.025355374e-06
-3.906577603e-07
-3.155101001e-07
-7.215494381e-07
-4.094525862e-07
-1.820132087e-07
-2.240064176e-07
-6.590855291e-07
-5.357273136e-07
-3.135051137e-07
-2.516880841e-07
-4.693950842e-07
-4.818757589e-07
-3.57849181e-07
-2.503165355e-07
-2.651288021e-07
-4.628111319e-07
-6.268818242e-07
-6.29129212e-07
-5.289425247e-07
-4.280824684e-07
-4.011984828e-07
-4.880304424e-07
-6.808149372e-07
-9.164467846e-07
-1.140501805e-06
-1.352080029e-06
-1.581705955e-06
-1.859759324e-06
-2.203749054e-06
-2.61367978e-06
-3.094422751e-06
-3.657935981e-06
-4.270832079e-06
-4.672956837e-06
-4.700760693e-06
-4.836547646e-06
-5.213653526e-06
-3.967573868e-06
9.300151389e-06
2.332076074e-05
-4.803145474e-06
-8.78122324e-06
-5.079610725e-06
-2.407275397e-06
-1.086102373e-06
-4.848978531e-07
-2.166158879e-07
-9.738569688e-08
-4.424114425e-08
-2.007520589e-08
-9.586462477e-09
-4.543564436e-09
-2.241300668e-09
-1.128394587e-09
-5.806227743e-10
-3.060714592e-10
-1.655126721e-10
-9.243044546e-11
-5.386478663e-11
-3.314749351e-11
-2.171688951e-11
-1.514788829e-11
-1.114262223e-11
-8.520114611e-12
-6.669988658e-12
-5.289126699e-12
-4.199487139e-12
-3.343921391e-12
-2.61972861e-12
-2.289937867e-06
3.016434942e-06
-2.226217068e-07
-1.418160349e-08
-7.668520151e-10
-6.38127298e-07
-1.467538665e-06
-5.787910888e-08
-3.617305377e-08
-1.891171127e-09
-1.05272993e-06
-8.98570317e-06
2.810352282e-05
-3.459665934e-06
-1.396892265e-07
-2.482887353e-06
-2.02689236e-05
1.289206578e-05
-9.232283272e-06
-7.751441141e-07
-1.135151811e-06
-6.221521655e-06
-1.373004918e-05
-1.534803044e-06
-4.254333595e-07
-4.367053127e-07
-1.886526597e-06
-4.620599522e-06
3.680598116e-06
-1.211083421e-06
-6.167774779e-07
-3.863912838e-06
-2.111498201e-05
4.882794134e-05
-1.214473202e-05
-1.831311321e-06
-1.146334069e-05
-6.126474291e-05
0.0001390838483
-3.460927437e-05
-1.270025089e-06
-5.746317781e-06
-2.075540675e-05
-2.471838716e-05
-7.477965775e-06
-6.605950921e-07
-2.368389032e-06
-6.86734103e-06
-1.006871641e-05
9.082407056e-06
-5.400867399e-07
-2.167764823e-06
-8.122386365e-06
-2.732371138e-05
6.616827911e-05
-1.081948384e-06
-4.9627353e-06
-2.062551216e-05
-7.885776797e-05
0.000224017292
-1.016977035e-06
-3.800875776e-06
-1.234046655e-05
-3.462256555e-05
9.133899541e-07
-6.901908417e-07
-2.128301339e-06
-5.670107777e-06
-1.287422889e-05
-7.173749984e-06
-4.581609291e-07
-1.301438849e-06
-3.38690773e-06
-8.234485269e-06
-1.29902266e-05
-5.054069907e-07
-1.62483638e-06
-5.009272162e-06
-1.498524038e-05
-4.024447198e-05
-9.083303595e-07
-3.052738593e-06
-9.622316728e-06
-2.888438693e-05
-8.043720682e-05
-1.17487733e-06
-3.544539788e-06
-9.908611676e-06
-2.593325781e-05
-6.139376726e-05
-1.109398066e-06
-2.948203863e-06
-7.253366436e-06
-1.659258841e-05
-3.355854001e-05
-8.838248853e-07
-2.119275153e-06
-4.757665694e-06
-1.001900341e-05
-1.863651256e-05
-6.916988169e-07
-1.577050245e-06
-3.448281213e-06
-7.241798951e-06
-1.380867069e-05
-6.469816844e-07
-1.500787795e-06
-3.41270916e-06
-7.586277637e-06
-1.582464318e-05
-7.965998303e-07
-1.906838097e-06
-4.484063141e-06
-1.030173082e-05
-2.249837136e-05
-1.106205537e-06
-2.620637933e-06
-6.081381446e-06
-1.374075336e-05
-2.959753523e-05
-1.455160688e-06
-3.295840781e-06
-7.314647857e-06
-1.578994058e-05
-3.243953437e-05
-1.758939677e-06
-3.774347556e-06
-7.962648904e-06
-1.63473757e-05
-3.182830689e-05
-2.028373665e-06
-4.146166891e-06
-8.370199333e-06
-1.64555669e-05
-3.053159567e-05
-2.318065182e-06
-4.551595795e-06
-8.859651361e-06
-1.677401068e-05
-2.975087883e-05
-2.671415447e-06
-5.06640135e-06
-9.532128906e-06
-1.735472268e-05
-2.930105775e-05
-3.115843506e-06
-5.682191889e-06
-1.027988694e-05
-1.782002295e-05
-2.824695781e-05
-3.602491347e-06
-6.324081926e-06
-1.086526258e-05
-1.763957322e-05
-2.55678418e-05
-4.15124102e-06
-6.900943129e-06
-1.107471095e-05
-1.651835186e-05
-2.082554485e-05
-4.740382541e-06
-7.362483933e-06
-1.091045003e-05
-1.471785108e-05
-1.450979265e-05
-5.3125106e-06
-7.704191843e-06
-1.06371087e-05
-1.289884993e-05
-7.127860279e-06
-5.622574942e-06
-7.758649869e-06
-1.007355523e-05
-1.020590017e-05
6.31825348e-06
-5.553302851e-06
-7.304666379e-06
-8.279315626e-06
-2.723116222e-06
4.001528087e-05
-5.59405519e-06
-6.607409315e-06
-4.210225758e-06
1.66091035e-05
7.381225003e-05
-5.452960091e-06
-3.545165702e-06
1.050625547e-05
5.445222341e-05
3.414712349e-05
-1.51685554e-06
1.21593656e-05
4.409808501e-05
3.206053835e-05
-6.480174733e-06
2.021676013e-05
3.660351803e-05
1.884164514e-05
-6.84262576e-06
-1.54065259e-05
1.765146218e-05
2.094515796e-06
-1.002133257e-05
-1.364093451e-05
-1.216223085e-05
-7.966396142e-06
-1.097057271e-05
-1.115395666e-05
-9.58033902e-06
-7.492130715e-06
-8.600313092e-06
-7.851894223e-06
-6.670718555e-06
-5.354994597e-06
-4.126957228e-06
-4.720785385e-06
-4.079635499e-06
-3.39574901e-06
-2.732158744e-06
-2.141116872e-06
-2.235578022e-06
-1.935587671e-06
-1.629167882e-06
-1.336446489e-06
-1.071567506e-06
-1.015906747e-06
-8.908308158e-07
-7.630474656e-07
-6.386255309e-07
-5.234832793e-07
-4.562496023e-07
-4.061286196e-07
-3.537438286e-07
-3.016481744e-07
-2.524514128e-07
-2.052370469e-07
-1.850385372e-07
-1.634814607e-07
-1.418321399e-07
-1.208740518e-07
-9.284555046e-08
-8.467749263e-08
-7.578415543e-08
-6.66916889e-08
-5.739897483e-08
-4.239591067e-08
-3.907214141e-08
-3.537499883e-08
-3.151992526e-08
-2.760892633e-08
-1.960129757e-08
-1.798397456e-08
-1.665987831e-08
-1.495563154e-08
-1.341583533e-08
-9.169234808e-09
-8.632319063e-09
-7.877811077e-09
-7.200847769e-09
-6.499966302e-09
-4.409907499e-09
-4.160335542e-09
-3.877875324e-09
-3.571747566e-09
-3.251438082e-09
-2.18129672e-09
-2.06801224e-09
-1.938297621e-09
-1.795999317e-09
-1.645044998e-09
-1.100295564e-09
-1.046594306e-09
-9.843735249e-10
-9.159382798e-10
-8.425966728e-10
-5.668423538e-10
-5.402320935e-10
-5.091860674e-10
-4.74492766e-10
-4.370958678e-10
-2.987850864e-10
-2.846241818e-10
-2.681152558e-10
-2.497235738e-10
-2.300157024e-10
-1.61441683e-10
-1.535283553e-10
-1.44391341e-10
-1.343397557e-10
-1.23740786e-10
-9.00726515e-11
-8.551570777e-11
-8.0340912e-11
-7.476281529e-11
-6.902368282e-11
-5.247902653e-11
-4.982730459e-11
-4.687873892e-11
-4.377947381e-11
-4.068630045e-11
-3.233497322e-11
-3.079950247e-11
-2.913087513e-11
-2.742731733e-11
-2.57882991e-11
-2.124841736e-11
-2.037582437e-11
-1.945050353e-11
-1.853539326e-11
-1.769111437e-11
-1.488512113e-11
-1.440366742e-11
-1.390628212e-11
-1.343153586e-11
-1.301481622e-11
-1.100108736e-11
-1.074682842e-11
-1.049178275e-11
-1.025839491e-11
-1.006618634e-11
-8.448257694e-12
-8.322547223e-12
-8.201053874e-12
-8.096000169e-12
-8.017292496e-12
-6.636877091e-12
-6.581335165e-12
-6.530616523e-12
-6.490715057e-12
-6.46593995e-12
-5.276506646e-12
-5.257261661e-12
-5.241869985e-12
-5.232741607e-12
-5.231107439e-12
-4.196827919e-12
-4.194569923e-12
-4.194772331e-12
-4.197902478e-12
-4.20364822e-12
-3.34562543e-12
-3.350427684e-12
-3.356582557e-12
-3.36363013e-12
-3.370597047e-12
-2.622638068e-12
-2.629048538e-12
-2.636169768e-12
-2.643282442e-12
-2.649296511e-12
-2.458606228e-11
-4.006666064e-13
-1.556359658e-14
-1.157543429e-15
-1.845286337e-16
-3.724554858e-17
-7.450892318e-18
-1.43236044e-18
-2.680527304e-19
-5.01215815e-20
-9.793454218e-21
-2.272952865e-21
-8.132175251e-22
-4.937890755e-22
-3.967093508e-22
-3.445518591e-22
-3.00982408e-22
-2.584442808e-22
-2.162109531e-22
-1.754276855e-22
-1.376880426e-22
-1.043892416e-22
-7.639649163e-23
-5.39530277e-23
-3.676814178e-23
-2.419317567e-23
-1.538420374e-23
-9.462916484e-24
-5.636855535e-24
-3.256020259e-24
-1.826630869e-24
-9.971207406e-25
-5.309190544e-25
-2.766288407e-25
-1.416497563e-25
-7.165868652e-26
-3.601202633e-26
-1.805267959e-26
-9.033710608e-27
-4.495176088e-27
-2.206853181e-27
-1.058481168e-27
-4.913094108e-28
-2.190255629e-28
-9.330227568e-29
-3.787941142e-29
-1.46485176e-29
-5.401497177e-30
-1.90337499e-30
-6.428980249e-31
-2.088692366e-31
-6.551158195e-32
-1.990945678e-32
-5.881811293e-33
-1.691994278e-33
-4.720646827e-34
-1.246556997e-34
-2.90616168e-35
-5.120955986e-36
-6.621624827e-37
-5.352830506e-11
-1.032077207e-12
-3.88125837e-14
-2.90771227e-15
-4.010033852e-16
-7.007946718e-17
-1.26260562e-17
-2.219080158e-18
-3.909818996e-19
-7.564231723e-20
-1.949948581e-20
-8.332542674e-21
-5.389327435e-21
-4.170211765e-21
-3.412604668e-21
-2.825819378e-21
-2.328362541e-21
-1.89357028e-21
-1.512478563e-21
-1.181575799e-21
-8.998401487e-22
-6.663239505e-22
-4.78988002e-22
-3.338504489e-22
-2.255178172e-22
-1.476295089e-22
-9.368346661e-23
-5.76646868e-23
-3.445428377e-23
-2.000174615e-23
-1.129609013e-23
-6.216890943e-24
-3.342217323e-24
-1.761083062e-24
-9.137397803e-25
-4.69472587e-25
-2.401809317e-25
-1.227597483e-25
-6.262638286e-26
-3.170282129e-26
-1.577586279e-26
-7.636720911e-27
-3.563032602e-27
-1.591334872e-27
-6.775599405e-28
-2.74585809e-28
-1.059555793e-28
-3.90040712e-29
-1.373726743e-29
-4.645387983e-30
-1.514004855e-30
-4.774304866e-31
-1.462098466e-31
-4.361360216e-32
-1.268198644e-32
-3.574934386e-33
-9.542780145e-34
-2.26348491e-34
-4.228555595e-35
-4.558378692e-36
-2.194808144e-09
-2.214273003e-11
-2.69073599e-13
-1.062652658e-14
-8.24116176e-16
-1.032817109e-16
-1.592396707e-17
-2.737154221e-18
-5.636461036e-19
-1.655702677e-19
-7.464914182e-20
-4.551235836e-20
-3.218715487e-20
-2.45763732e-20
-1.940015088e-20
-1.541493794e-20
-1.214774465e-20
-9.426683598e-21
-7.180247148e-21
-5.357445133e-21
-3.912799409e-21
-2.794121439e-21
-1.949408129e-21
-1.328554654e-21
-8.831060363e-22
-5.721195434e-22
-3.611600515e-22
-2.221707699e-22
-1.332392698e-22
-7.798352768e-23
-4.457118563e-23
-2.490612847e-23
-1.363694293e-23
-7.341210695e-24
-3.904400029e-24
-2.06329535e-24
-1.08873873e-24
-5.745175693e-25
-3.020492612e-25
-1.568480044e-25
-7.955339258e-26
-3.898832443e-26
-1.830650735e-26
-8.189622619e-27
-3.481727164e-27
-1.406493337e-27
-5.409208877e-28
-1.986965465e-28
-6.999227757e-29
-2.374492239e-29
-7.790205958e-30
-2.481113682e-30
-7.697318945e-31
-2.331469197e-31
-6.888931955e-32
-1.968190846e-32
-5.294757608e-33
-1.248026519e-33
-2.214085555e-34
-1.947650302e-35
-3.194342173e-08
-4.570121974e-10
-2.653237722e-12
-4.232521156e-14
-2.178136594e-15
-2.232607712e-16
-3.598182715e-17
-8.51184931e-18
-2.787967177e-18
-1.152803788e-18
-5.650536162e-19
-3.193075028e-19
-2.024606468e-19
-1.398352184e-19
-1.016474431e-19
-7.567169745e-20
-5.697020251e-20
-4.273291407e-20
-3.14909876e-20
-2.266284931e-20
-1.590610996e-20
-1.089544621e-20
-7.295912859e-21
-4.783128214e-21
-3.075060523e-21
-1.941314468e-21
-1.203732021e-21
-7.328805083e-22
-4.380518919e-22
-2.570086312e-22
-1.481467745e-22
-8.402764865e-23
-4.700889545e-23
-2.602736776e-23
-1.432623732e-23
-7.876385086e-24
-4.336486256e-24
-2.38605816e-24
-1.302255813e-24
-6.970805834e-25
-3.615869056e-25
-1.798746114e-25
-8.51805667e-26
-3.823154363e-26
-1.624186642e-26
-6.541672828e-27
-2.507287445e-27
-9.191944038e-28
-3.241350702e-28
-1.105348269e-28
-3.662502194e-29
-1.183574975e-29
-3.73928664e-30
-1.1556279e-30
-3.480897664e-31
-1.008547936e-31
-2.717335237e-32
-6.281920172e-33
-1.018581599e-33
-7.322135728e-35
-2.800673765e-08
-5.820080321e-10
-5.424291449e-12
-6.864453893e-14
-4.180766092e-15
-8.475020148e-16
-2.764274829e-16
-1.001900555e-16
-3.825609949e-17
-1.543350754e-17
-6.688279248e-18
-3.180413142e-18
-1.680362115e-18
-9.874491302e-19
-6.340787267e-19
-4.329244582e-19
-3.043126149e-19
-2.152509019e-19
-1.514608554e-19
-1.05727499e-19
-7.219343459e-20
-4.803927815e-20
-3.110376923e-20
-1.962115656e-20
-1.209898714e-20
-7.32480101e-21
-4.372223051e-21
-2.580144426e-21
-1.507045174e-21
-8.717401527e-22
-4.997976336e-22
-2.844211556e-22
-1.609909688e-22
-9.093848099e-23
-5.147624481e-23
-2.929732387e-23
-1.675622488e-23
-9.568539657e-24
-5.393272357e-24
-2.960498316e-24
-1.56362591e-24
-7.874464506e-25
-3.758932667e-25
-1.695917062e-25
-7.231709562e-26
-2.922008097e-26
-1.123742658e-26
-4.137083955e-27
-1.467338081e-27
-5.045215968e-28
-1.690910568e-28
-5.547308707e-29
-1.785196705e-29
-5.629344373e-30
-1.72764113e-30
-5.065454846e-31
-1.362735498e-31
-3.080553563e-32
-4.55638073e-33
-2.810984062e-34
-8.366597792e-08
-2.840751391e-09
-4.911539997e-11
-6.147607041e-13
-3.553347247e-14
-8.483927606e-15
-2.990651161e-15
-1.135470467e-15
-4.468107792e-16
-1.81715041e-16
-7.691236116e-17
-3.437924108e-17
-1.65186521e-17
-8.672608414e-18
-5.006559587e-18
-3.126811979e-18
-2.052881464e-18
-1.37850153e-18
-9.282062135e-19
-6.204185257e-19
-4.089228046e-19
-2.648709217e-19
-1.673371602e-19
-1.028467171e-19
-6.151925563e-20
-3.595776649e-20
-2.062644528e-20
-1.165665441e-20
-6.514253041e-21
-3.616827701e-21
-2.004019454e-21
-1.112046047e-21
-6.200400923e-22
-3.486811541e-22
-1.985552233e-22
-1.147601431e-22
-6.702792665e-23
-3.912609633e-23
-2.248452731e-23
-1.25260632e-23
-6.678440545e-24
-3.378610196e-24
-1.614498617e-24
-7.279046195e-25
-3.103712298e-25
-1.257310686e-25
-4.867026941e-26
-1.810699971e-26
-6.509262425e-27
-2.272481058e-27
-7.738777332e-28
-2.580178309e-28
-8.439301141e-29
-2.703726528e-29
-8.415503562e-30
-2.490536523e-30
-6.692563105e-31
-1.481516956e-31
-2.014341526e-32
-1.113443998e-33
-1.031786657e-06
-5.009079282e-08
-1.40614324e-09
-2.464273916e-11
-5.45431562e-13
-7.045510244e-14
-1.9289269e-14
-6.472944192e-15
-2.410624453e-15
-9.779022291e-16
-4.250853955e-16
-1.964351562e-16
-9.684923219e-17
-5.144742102e-17
-2.959531124e-17
-1.8348466e-17
-1.201802048e-17
-8.12178604e-18
-5.559792398e-18
-3.784941792e-18
-2.549017863e-18
-1.674333905e-18
-1.06109984e-18
-6.493598735e-19
-3.85051704e-19
-2.226939014e-19
-1.25785788e-19
-6.933029953e-20
-3.739523693e-20
-1.986663111e-20
-1.047898568e-20
-5.524283883e-21
-2.931172355e-21
-1.577942169e-21
-8.679545908e-22
-4.896543099e-22
-2.8237924e-22
-1.640285137e-22
-9.420176745e-23
-5.252025958e-23
-2.800424129e-23
-1.414543326e-23
-6.735203342e-24
-3.019560903e-24
-1.279196736e-24
-5.163369686e-25
-2.003787934e-25
-7.531129206e-26
-2.753963154e-26
-9.824395918e-27
-3.424296864e-27
-1.16743695e-27
-3.893827536e-28
-1.267397042e-28
-3.991151106e-29
-1.189684183e-29
-3.19858717e-30
-6.945612849e-31
-8.795241237e-32
-4.459738838e-33
-3.637847695e-06
-3.309419924e-07
-1.473760365e-08
-3.353408144e-10
-5.992379694e-12
-3.460687198e-13
-5.823898667e-14
-1.706924603e-14
-6.227232767e-15
-2.544875861e-15
-1.124704798e-15
-5.315161509e-16
-2.691060965e-16
-1.47386281e-16
-8.816717389e-17
-5.761720805e-17
-4.054962746e-17
-2.993717079e-17
-2.250670889e-17
-1.683935885e-17
-1.228007812e-17
-8.626394961e-18
-5.793523858e-18
-3.745370285e-18
-2.328433112e-18
-1.404247158e-18
-8.129259275e-19
-4.512747313e-19
-2.423456355e-19
-1.271189885e-19
-6.558332717e-20
-3.335098356e-20
-1.685357709e-20
-8.568215967e-21
-4.431135139e-21
-2.345966731e-21
-1.27532998e-21
-7.076955837e-22
-3.937861663e-22
-2.151649161e-22
-1.133643677e-22
-5.682558463e-23
-2.68903637e-23
-1.197409343e-23
-5.030479391e-24
-2.013481365e-24
-7.778479717e-25
-2.93227049e-25
-1.085224464e-25
-3.949784945e-26
-1.412103118e-26
-4.947545992e-27
-1.693581666e-27
-5.635346352e-28
-1.80385353e-28
-5.431419099e-29
-1.464322483e-29
-3.14187293e-30
-3.786488969e-31
-1.765858053e-32
-1.998372354e-06
-2.763056277e-07
-2.468651076e-08
-1.112880814e-09
-2.636453394e-11
-9.3408603e-13
-1.036645851e-13
-2.571342863e-14
-9.454292906e-15
-4.091668341e-15
-1.919335219e-15
-9.509399774e-16
-4.979102904e-16
-2.795611614e-16
-1.712600271e-16
-1.153379397e-16
-8.457485001e-17
-6.597400201e-17
-5.328667057e-17
-4.353404736e-17
-3.534317e-17
-2.814600757e-17
-2.174367732e-17
-1.608487562e-17
-1.131306609e-17
-7.494979284e-18
-4.660140647e-18
-2.740659749e-18
-1.540156206e-18
-8.377015425e-19
-4.390934695e-19
-2.218578435e-19
-1.097331408e-19
-5.398634899e-20
-2.665147668e-20
-1.32219978e-20
-6.6324381e-21
-3.379037618e-21
-1.743399492e-21
-9.000938899e-22
-4.565348734e-22
-2.241188184e-22
-1.050292084e-22
-4.649662808e-23
-1.936993461e-23
-7.66415876e-24
-2.930001857e-24
-1.097119538e-24
-4.056825217e-25
-1.486944065e-25
-5.400875319e-26
-1.936120894e-26
-6.806843511e-27
-2.326510248e-27
-7.626100536e-28
-2.338244768e-28
-6.372906042e-29
-1.366241141e-29
-1.597749858e-30
-7.146821737e-32
-3.279101848e-06
-4.714424425e-07
-5.910049751e-08
-4.914951841e-09
-2.194436736e-10
-6.243988925e-12
-3.623772959e-13
-5.728427675e-14
-1.658534828e-14
-6.485223271e-15
-2.941246209e-15
-1.448287267e-15
-7.597217656e-16
-4.287147599e-16
-2.656582238e-16
-1.8295491e-16
-1.388283196e-16
-1.131404627e-16
-9.613700352e-17
-8.310523891e-17
-7.182064486e-17
-6.13301088e-17
-5.132141876e-17
-4.180443291e-17
-3.295232056e-17
-2.499410644e-17
-1.813864365e-17
-1.246142235e-17
-8.036816806e-18
-4.827513522e-18
-2.696151056e-18
-1.419565798e-18
-7.190520603e-19
-3.574200442e-19
-1.737751397e-19
-8.305822461e-20
-3.934846618e-20
-1.858294724e-20
-8.747546598e-21
-4.119069975e-21
-1.940335516e-21
-9.01697334e-22
-4.098736239e-22
-1.8026334e-22
-7.553479595e-23
-2.967746729e-23
-1.115712188e-23
-4.10431088e-24
-1.49602187e-24
-5.433183628e-25
-1.968203834e-25
-7.099512404e-26
-2.53521296e-26
-8.860609603e-27
-2.97882508e-27
-9.363967624e-28
-2.606263998e-28
-5.661309408e-29
-6.574927194e-30
-2.921690413e-31
-1.54160631e-05
-2.17228837e-06
-3.018338269e-07
-3.37199113e-08
-2.370381928e-09
-9.13756043e-11
-3.260217087e-12
-2.794246125e-13
-5.098521546e-14
-1.453983632e-14
-5.312849103e-15
-2.277610577e-15
-1.099042132e-15
-5.926717427e-16
-3.620542513e-16
-2.526333732e-16
-1.981549552e-16
-1.686700584e-16
-1.502330367e-16
-1.362131119e-16
-1.235217133e-16
-1.108306598e-16
-9.772260296e-17
-8.426277143e-17
-7.076764052e-17
-5.767035453e-17
-4.542773304e-17
-3.444220527e-17
-2.500940749e-17
-1.730321649e-17
-1.13472334e-17
-6.982424725e-18
-4.003583837e-18
-2.133370139e-18
-1.065448548e-18
-5.123724533e-19
-2.399842467e-19
-1.100163918e-19
-4.884872269e-20
-2.123524319e-20
-9.177624373e-21
-3.952816948e-21
-1.686960963e-21
-7.117587443e-22
-2.961021386e-22
-1.195359113e-22
-4.531718182e-23
-1.621610119e-23
-5.709609539e-24
-2.012865441e-24
-7.132290258e-25
-2.537764882e-25
-9.019663069e-26
-3.169275827e-26
-1.081748975e-26
-3.477020332e-27
-9.935777073e-28
-2.214425783e-28
-2.619239141e-29
-1.198141715e-30
-4.359884883e-05
-6.612713481e-06
-1.005788473e-06
-1.330911004e-07
-1.43658177e-08
-9.380949645e-10
-3.618825464e-11
-1.647823714e-12
-1.711452169e-13
-3.398316347e-14
-9.780049396e-15
-3.494017069e-15
-1.48163507e-15
-7.422056389e-16
-4.438491368e-16
-3.165699164e-16
-2.598375184e-16
-2.327058254e-16
-2.173771589e-16
-2.05723684e-16
-1.940218924e-16
-1.807051645e-16
-1.653381034e-16
-1.481103616e-16
-1.295587558e-16
-1.103931123e-16
-9.138187556e-17
-7.327932082e-17
-5.674332006e-17
-4.22786007e-17
-3.019546757e-17
-2.058478103e-17
-1.333147484e-17
-8.168806413e-18
-4.719422231e-18
-2.548267279e-18
-1.284803959e-18
-6.036268354e-19
-2.670270223e-19
-1.135920906e-19
-4.6802405e-20
-1.888806162e-20
-7.539881632e-21
-2.988051167e-21
-1.17627994e-21
-4.600789902e-22
-1.783814782e-22
-6.68593382e-23
-2.363936926e-23
-8.011483045e-24
-2.69532674e-24
-9.22452294e-25
-3.193821392e-25
-1.105531519e-25
-3.755470726e-26
-1.215938776e-26
-3.548139882e-27
-8.182319494e-28
-1.009198154e-28
-4.923764361e-30
-1.468748197e-05
-4.128828735e-06
-7.998496542e-07
-1.409127172e-07
-1.950238146e-08
-2.144478118e-09
-1.392599387e-10
-5.778899053e-12
-3.341434572e-13
-4.381354427e-14
-1.052430195e-14
-3.532944992e-15
-1.471398823e-15
-7.554608841e-16
-4.794529154e-16
-3.724946976e-16
-3.308771356e-16
-3.152388878e-16
-3.083435583e-16
-3.022546144e-16
-2.933278307e-16
-2.80106973e-16
-2.623491751e-16
-2.40518897e-16
-2.15487521e-16
-1.883703815e-16
-1.604155685e-16
-1.328242446e-16
-1.066970764e-16
-8.29543011e-17
-6.226166177e-17
-4.498607519e-17
-3.117784253e-17
-2.064756596e-17
-1.302390775e-17
-7.796224408e-18
-4.411505309e-18
-2.349521851e-18
-1.168500654e-18
-5.377725201e-19
-2.290625861e-19
-9.101251304e-20
-3.496101249e-20
-1.314018002e-20
-4.879821365e-21
-1.803777366e-21
-6.652433289e-22
-2.455686235e-22
-8.996879968e-23