/*--------------------------------*- C++ -*----------------------------------*\
  =========                 |
  \\      /  F ield         | OpenFOAM: The Open Source CFD Toolbox
   \\    /   O peration     | Website:  https://openfoam.org
    \\  /    A nd           | Version:  10
     \\/     M anipulation  |
\*---------------------------------------------------------------------------*/
FoamFile
{
    format      ascii;
    class       volScalarField;
    location    "3000";
    object      RR.CH2;
}
// * * * * * * * * * * * * * * * * * * * * * * * * * * * * * * * * * * * * * //

dimensions      [1 -3 -1 0 0 0 0];

internalField   nonuniform List<scalar> 
5170
(
3.587272509e-56
-4.021652318e-58
-1.45143286e-57
-2.971500496e-57
4.683581081e-55
-2.659511068e-57
-7.500364342e-57
-3.2277879e-56
-3.105665717e-55
-1.042730367e-56
-1.175758637e-55
9.429640546e-56
-6.168250139e-56
-4.326941376e-55
1.552209717e-54
7.128749614e-55
9.147977294e-55
-6.101488173e-56
-3.314538943e-55
-2.887096215e-53
-2.32329374e-56
-2.446744128e-56
-3.619298321e-56
-1.123514009e-55
-5.996871115e-54
-1.40098017e-54
-5.191931384e-55
-5.651120886e-56
-3.116171021e-56
-1.175131235e-54
-9.691951375e-52
-3.163840175e-52
-2.246140868e-53
-4.713922822e-55
0
-6.889251492e-49
-2.229586921e-49
-1.467662886e-50
-3.212321693e-52
-7.289604832e-53
-5.00843805e-46
-1.66892958e-46
-1.054462766e-47
-2.384711174e-49
-2.063150858e-49
-3.739786335e-43
-1.336345411e-43
-8.517460013e-45
-2.684645137e-46
-6.43024141e-46
-2.88561312e-40
-1.155897367e-40
-8.268777899e-42
-6.906594971e-43
-2.082917709e-42
-2.294221917e-37
-1.076225572e-37
-1.03548116e-38
-3.180163464e-39
-6.893939659e-39
-1.880155428e-34
-1.08624162e-34
-1.744200779e-35
-1.717665737e-35
-3.69138017e-35
-1.588620826e-31
-1.177914713e-31
-3.740172178e-32
-9.321845628e-32
-2.187677857e-31
-1.373635691e-28
-1.382745573e-28
-9.421192858e-29
-4.86609791e-28
-1.312000122e-27
-1.214183127e-25
-1.722675207e-25
-2.564921116e-25
-2.346736837e-24
-7.89008938e-24
-1.068432986e-22
-2.277965413e-22
-7.141145666e-22
-1.015885595e-20
-4.755420742e-20
-9.367592038e-20
-3.09910229e-19
-1.949026179e-18
-4.085460165e-17
-2.872702343e-16
-7.536109184e-17
-4.107471259e-16
-4.953504737e-15
-1.442893935e-13
-1.739583673e-12
-5.25718503e-14
-5.160241334e-13
-1.206070403e-11
-4.959219938e-10
-1.025143646e-08
1.492074465e-18
2.891778576e-19
1.451396244e-19
3.992089987e-19
1.456465851e-18
-6.216316473e-19
-6.405529202e-20
-4.690379314e-20
-9.450209314e-20
-6.141809047e-19
-2.191351551e-19
-1.937215958e-19
-1.549910367e-19
-2.202422262e-19
-2.016482059e-19
-7.94995718e-20
-1.059896141e-19
-9.650827437e-20
-1.281441674e-19
-8.332833752e-20
-4.131047685e-20
-5.942373594e-20
-6.367349281e-20
-4.238817715e-20
-3.720610132e-20
-2.630992861e-20
-2.808076188e-20
-2.791658507e-20
-3.443057019e-20
-2.349216679e-20
-1.759322881e-20
-2.189398078e-20
-2.185725041e-20
-2.168898608e-20
-1.498229807e-20
-1.226917149e-20
-1.682142984e-20
-1.726228347e-20
-1.894016971e-20
-9.766179626e-21
-8.512509864e-21
-1.258336501e-20
-1.34378281e-20
-1.362468732e-20
-6.421967599e-21
-5.890289927e-21
-9.248949995e-21
-1.022515433e-20
-8.891645445e-21
-3.652266201e-21
-4.227406088e-21
-6.431371678e-21
-7.491004111e-21
-8.354841225e-21
-2.66634663e-21
-2.820941542e-21
-4.946996021e-21
-5.262175493e-21
-4.774116224e-21
-1.674780087e-21
-4.311272068e-21
-7.649522359e-21
-4.699868688e-21
-3.340766286e-21
-1.171918815e-21
-2.634242366e-21
-4.60910532e-21
-6.511317529e-21
-7.041738393e-21
-2.815567631e-21
-3.628618864e-20
-1.596615228e-20
-7.461147243e-21
-3.965137095e-21
-1.275934153e-21
-6.029664605e-18
-2.487112331e-18
-8.145322864e-19
-3.587935151e-19
-1.027926544e-19
-1.05028317e-15
-4.708186921e-16
-1.60110959e-16
-8.661957925e-17
-2.29512272e-17
-1.892422513e-13
-9.063239814e-14
-3.185505445e-14
-2.327715701e-14
-5.310478426e-15
-1.311733526e-11
-4.446569586e-12
-6.323880402e-12
-6.860508943e-12
-1.193687933e-12
-1.417074607e-08
-2.429882873e-09
-2.371269602e-10
2.567587819e-09
-2.543088439e-10
-1.091966528e-11
-1.797456394e-10
-1.035770054e-08
-4.411213079e-07
2.544502942e-06
-3.303452452e-11
-4.656142115e-10
-2.195451433e-08
-5.402271744e-07
-7.763512138e-06
-6.402868143e-11
-8.436020884e-10
-2.878989177e-08
-4.8609374e-07
-5.062936924e-06
-1.593576316e-10
-2.401406679e-09
-9.119638401e-08
-2.733151323e-06
-4.75120705e-05
-3.684698833e-10
-5.630864394e-09
-1.859906025e-07
-4.607106077e-06
-5.741789427e-05
-7.156716192e-10
-1.016123072e-08
-2.534515805e-07
-4.799913608e-06
-4.504066227e-05
-1.408073218e-09
-1.902721103e-08
-3.532672656e-07
-4.66598408e-06
-3.290858939e-05
-3.370153812e-09
-4.104692816e-08
-6.713287931e-07
-7.522729507e-06
-4.445381639e-05
-9.270681074e-09
-1.100030149e-07
-1.622004781e-06
-1.337494016e-05
-7.165163583e-05
-2.412323589e-08
-2.603149871e-07
-2.916970994e-06
-1.808740063e-05
-8.174926081e-05
-5.817049715e-08
-4.964173805e-07
-3.893080304e-06
-1.923216778e-05
-7.401776112e-05
-1.124217071e-07
-7.529578712e-07
-4.515288997e-06
-1.908313578e-05
-6.613853246e-05
-2.256227846e-07
-1.228962496e-06
-6.128220437e-06
-2.441247946e-05
-8.35460938e-05
-5.15398807e-07
-2.05028735e-06
-8.948911803e-06
-3.276347588e-05
-0.0001048416302
-1.060304988e-06
-3.288298826e-06
-1.215025337e-05
-3.948438893e-05
-0.0001142002926
-1.975730938e-06
-4.845182613e-06
-1.498464783e-05
-4.301707983e-05
-0.0001127064337
-3.356439115e-06
-6.715392272e-06
-1.755633679e-05
-4.511148254e-05
-0.0001089934767
-5.426663658e-06
-9.5199976e-06
-2.213057629e-05
-5.311267088e-05
-0.000124041019
-9.127948827e-06
-1.464124844e-05
-3.116395053e-05
-7.077615303e-05
-0.0001600591941
-1.500325542e-05
-2.249676761e-05
-4.407377718e-05
-9.361738151e-05
-0.000200679423
-2.294163886e-05
-3.235223055e-05
-5.84771838e-05
-0.0001155689564
-0.0002330142646
-3.206309522e-05
-4.269275545e-05
-7.243083371e-05
-0.0001339067554
-0.000253324329
-4.18874813e-05
-5.396417451e-05
-8.558865333e-05
-0.0001482624875
-0.0002676123791
-5.275874456e-05
-6.591974377e-05
-9.938983294e-05
-0.0001640898774
-0.0002838188175
-6.652844797e-05
-8.120797284e-05
-0.0001170482801
-0.0001870500094
-0.0003127795592
-8.596213258e-05
-0.000103052533
-0.000145774746
-0.00022306466
-0.0003627356751
-0.0001155680423
-0.000136486273
-0.0001855544577
-0.0002796800007
-0.0004410497428
-0.0001601779546
-0.0001865884194
-0.0002512534669
-0.0003620019684
-0.0005552354414
-0.0002218456285
-0.0002545417651
-0.000344717002
-0.0004941758924
-0.0007218190575
-0.0003219812201
-0.0003670199165
-0.0004711996491
-0.0006557221187
-0.0009569693546
-0.0004769807385
-0.0005343049071
-0.0006711571743
-0.0009163675016
-0.001270658858
-0.000720519146
-0.0007986758473
-0.0009756949665
-0.001268620465
-0.001702998352
-0.001066224441
-0.001156585007
-0.001368446384
-0.001678621773
-0.002074375874
-0.001352649091
-0.001420761328
-0.001542840084
-0.001673295629
-0.001707664985
-0.0006230747348
-0.0005979583559
-0.0004798475592
-0.0002041030185
0.0003078562227
0.00118907201
0.001277913951
0.001487651323
0.001794992488
0.002237208348
0.001571287565
0.001606427166
0.001686744141
0.00180759823
0.001974537885
0.0005608715818
0.0005830165126
0.0006341783489
0.0007227545353
0.0008583968102
-0.0002143521877
-0.0001769434557
-9.131039946e-05
4.822601706e-05
0.0002426050605
-0.0003153855651
-0.0002703971815
-0.0001825897909
-9.099051328e-05
-0.0001018887874
-0.0007812456057
-0.0008735762296
-0.001100220694
-0.001466425063
-0.001872933152
-0.00134937998
-0.001330206394
-0.00128235177
-0.001204793787
-0.001103764073
-0.0005666497715
-0.0005568630694
-0.0005360552485
-0.000506281003
-0.0004696241232
-0.0002353205108
-0.0002318821154
-0.0002245127121
-0.0002138582553
-0.0002005470585
-9.898675854e-05
-9.773078896e-05
-9.50334298e-05
-9.110613888e-05
-8.614952418e-05
-4.211368123e-05
-4.164469453e-05
-4.063261159e-05
-3.915052315e-05
-3.726543861e-05
-1.811017975e-05
-1.793023856e-05
-1.754181516e-05
-1.69707408e-05
-1.624016519e-05
-7.86490801e-06
-7.794814359e-06
-7.642990028e-06
-7.419003571e-06
-7.131097612e-06
-3.447920497e-06
-3.420034658e-06
-3.359652604e-06
-3.270348896e-06
-3.155131354e-06
-1.525234477e-06
-1.514010032e-06
-1.489644857e-06
-1.453520406e-06
-1.406765857e-06
-6.80927162e-07
-6.763302952e-07
-6.663561858e-07
-6.515431583e-07
-6.323185394e-07
-3.068418199e-07
-3.049404322e-07
-3.008062279e-07
-2.946554606e-07
-2.86640848e-07
-1.396279676e-07
-1.388296185e-07
-1.370941769e-07
-1.345085961e-07
-1.31137843e-07
-6.418050662e-08
-6.384235474e-08
-6.31061408e-08
-6.200777099e-08
-6.057325597e-08
-2.981529668e-08
-2.967067167e-08
-2.935589674e-08
-2.888589202e-08
-2.827131918e-08
-1.401608331e-08
-1.395450048e-08
-1.382037332e-08
-1.362009291e-08
-1.335824226e-08
-6.696927131e-09
-6.671643421e-09
-6.616704084e-09
-6.53491874e-09
-6.428479885e-09
-3.297873225e-09
-3.289290778e-09
-3.270796986e-09
-3.243727149e-09
-3.209401416e-09
-1.743807704e-09
-1.743857059e-09
-1.744299666e-09
-1.745868565e-09
-1.749683007e-09
-1.092416966e-09
-1.098367508e-09
-1.111833541e-09
-1.133346432e-09
-1.164197906e-09
-9.405684971e-10
-9.527014618e-10
-9.799186582e-10
-1.022757027e-09
-1.08302325e-09
-1.104713656e-09
-1.118394682e-09
-1.148359648e-09
-1.19360212e-09
-1.252528757e-09
-1.232120168e-09
-1.243665717e-09
-1.268631311e-09
-1.305456041e-09
-1.352615746e-09
-1.420928739e-09
-1.428678903e-09
-1.445139692e-09
-1.468588725e-09
-1.497011528e-09
-1.596007389e-09
-1.598337087e-09
-1.602814951e-09
-1.60788434e-09
-1.611407273e-09
-1.70928361e-09
-1.705610106e-09
-1.696947002e-09
-1.68217729e-09
-1.659399795e-09
-1.727082855e-09
-1.717753982e-09
-1.696791866e-09
-1.663700228e-09
-1.617097725e-09
-1.677110633e-09
-1.663684365e-09
-1.633908306e-09
-1.587919369e-09
-1.524972303e-09
-1.546992042e-09
-1.530881047e-09
-1.495393667e-09
-1.441242327e-09
-1.368328281e-09
-1.601836844e-09
-1.586314183e-09
-1.552226701e-09
-1.500497863e-09
-1.431366167e-09
2.130138127e-06
-7.097019937e-05
-3.820277177e-05
-0.0003430326229
-0.0003252460015
-0.0002006377414
-0.0001186250948
-0.0001603526473
-0.0002430153045
-0.0002415391232
-0.0001930771062
-0.0001609600524
-0.0002061457836
-0.0002438529156
-0.0002444410386
-0.0002240475382
-0.0002051769009
-0.0002309427617
-0.0002922624767
-0.0003518881045
-0.0003883268148
-0.0004063293789
-0.0004143293817
-0.0004268503132
-0.0004596199529
-0.0005227074139
-0.0006234581839
-0.0007693759364
-0.000972026837
-0.001257599466
-0.001642482572
-0.002109024451
-0.002381771745
-0.001612855864
0.0008096146435
0.002611867935
0.002138662325
0.001006930421
0.0004168163919
-0.00027790086
-0.002050030443
-0.001029257778
-0.0004424891366
-0.0001905132494
-8.236530574e-05
-3.581225328e-05
-1.56727472e-05
-6.906123997e-06
-3.064648892e-06
-1.369891429e-06
-6.171010852e-07
-2.802861934e-07
-1.284534784e-07
-5.942807999e-08
-2.777990415e-08
-1.31489133e-08
-6.343929756e-09
-3.183141137e-09
-1.754685235e-09
-1.191881286e-09
-1.135926653e-09
-1.298520036e-09
-1.389783298e-09
-1.517620816e-09
-1.610852021e-09
-1.637084032e-09
-1.575524283e-09
-1.470643142e-09
-1.306584742e-09
-1.373341021e-09
4.513803717e-06
-2.471491926e-06
-1.83715796e-07
8.63832031e-09
2.943812667e-09
-0.0002196141901
0.0004450015855
-5.189234305e-05
-2.381757798e-06
1.213826778e-07
-9.566489138e-05
-0.0001845487864
-0.0002373889754
-2.363359658e-05
-6.245897761e-07
-0.001256208558
-0.01112450326
0.02530104049
-0.005164493471
-0.0002784250812
-0.001021160796
-0.007176016792
3.890149225e-05
-0.002896207624
-0.0002092044
-0.0005481282008
-0.003012292209
-0.001668133077
-0.001143240472
-0.0001082214097
-0.0002910921018
-0.00132454065
-5.961636858e-05
-0.0007468730265
-0.0001133730299
-0.0004197706866
-0.002353067821
-0.009824249525
0.02592769757
-0.006054359503
-0.0006177126846
-0.003296205115
-0.01459753236
0.02965121093
-0.008567884754
-0.0005631993515
-0.002522793517
-0.009257594137
0.00879755166
-0.005223602841
-0.0004182725984
-0.001622336865
-0.005195343155
0.00501121486
-0.003051683246
-0.0003375706809
-0.001243377069
-0.00393047864
-0.001897062682
0.008355144831
-0.0004436432312
-0.001759670968
-0.006309620484
-0.01732178697
0.05591234396
-0.0005044676351
-0.001825450945
-0.005883720261
-0.01525723503
0.02820649585
-0.0004772792728
-0.001546901401
-0.004479910997
-0.0105430018
0.01706711911
-0.0004152531781
-0.001232058943
-0.003291752996
-0.007150812435
0.01191841611
-0.0003683064065
-0.001033564712
-0.002656030042
-0.005682781633
0.005720947445
-0.000416875568
-0.001200710072
-0.00326419057
-0.00803638847
-0.008540767111
-0.000523861422
-0.001485937176
-0.00397271629
-0.009748395191
-0.01536412225
-0.000614571733
-0.001648986574
-0.004168421484
-0.009677365194
-0.01539521839
-0.0006599372833
-0.001666088344
-0.003978621008
-0.008723314981
-0.01309821544
-0.0006701255931
-0.001600049288
-0.003635356815
-0.007573920483
-0.01053260083
-0.0006646997286
-0.001513790478
-0.003299729522
-0.006572241375
-0.008377454195
-0.0006695466772
-0.001468282389
-0.003095779157
-0.005926079681
-0.006948314538
-0.00070763989
-0.001506471342
-0.003093994797
-0.005731723207
-0.006319192378
-0.000791533363
-0.001638706084
-0.003275153879
-0.005829669626
-0.005856186066
-0.000926761172
-0.001857990423
-0.003579441979
-0.0059712671
-0.004845245182
-0.001122849328
-0.002161393702
-0.003951352922
-0.005921175035
-0.002843467987
-0.001388744706
-0.002548729595
-0.004318691136
-0.005387092403
0.0003564831947
-0.001787196239
-0.003003490585
-0.004508127449
-0.003951304741
0.004558683142
-0.0021908513
-0.003411873296
-0.004112221252
-0.001199623504
0.008931178296
-0.002623725091
-0.003380427507
-0.002460966538
0.002737191478
0.01208103053
-0.002570776889
-0.002097016554
0.0008003205964
0.006574418099
0.01287126747
-0.001067147869
0.0008899942811
0.004390493424
0.008454022024
0.01126699
0.00174397679
0.003696969292
0.005870451989
0.007733329269
0.007738436975
0.003093794971
0.003995879087
0.004892619001
0.005442961433
0.001919643538
0.002293175663
0.002734155906
0.003211908937
0.002332120033
-0.004219920167
0.001168515922
0.001577279163
0.001314616429
-0.002596534566
-0.004066651253
0.0005624494961
0.0002407367612
-0.002367989975
-0.00341242448
-0.002369298532
-0.0009359947362
-0.002569596139
-0.002551761815
-0.001849398141
-0.001307717514
-0.002011610419
-0.00164190328
-0.001258310157
-0.0009401696018
-0.0006881604217
-0.0009200158475
-0.0007515216601
-0.0005959114998
-0.0004605686185
-0.0003482415047
-0.0004026020945
-0.0003381999038
-0.0002760946845
-0.000219773365
-0.0001711172103
-0.0001756768204
-0.0001509157873
-0.0001262213878
-0.0001030501562
-8.233951107e-05
-7.674569564e-05
-6.713341833e-05
-5.729105137e-05
-4.779522096e-05
-3.906099336e-05
-3.364720677e-05
-2.987303218e-05
-2.592644203e-05
-2.203087594e-05
-1.836042244e-05
-1.482529367e-05
-1.332540028e-05
-1.173010484e-05
-1.012547019e-05
-8.582594547e-06
-6.569491538e-06
-5.966229051e-06
-5.31554589e-06
-4.650671591e-06
-4.000321445e-06
-2.929070749e-06
-2.683579303e-06
-2.415687692e-06
-2.138296028e-06
-1.862994472e-06
-1.314580623e-06
-1.213547184e-06
-1.102206294e-06
-9.856074538e-07
-8.684189901e-07
-5.942436085e-07
-5.522113071e-07
-5.054813183e-07
-4.560800553e-07
-4.058790691e-07
-2.707415667e-07
-2.530589576e-07
-2.332754805e-07
-2.121697014e-07
-1.905233999e-07
-1.244188894e-07
-1.169051078e-07
-1.084425225e-07
-9.93553093e-08
-8.996222218e-08
-5.770620821e-08
-5.44853364e-08
-5.0840408e-08
-4.69054628e-08
-4.281515352e-08
-2.704093865e-08
-2.565497031e-08
-2.408271984e-08
-2.238179841e-08
-2.061177768e-08
-1.283433951e-08
-1.224520249e-08
-1.157925771e-08
-1.086356754e-08
-1.012752558e-08
-6.217285039e-09
-5.983671449e-09
-5.725992517e-09
-5.459710315e-09
-5.203002598e-09
-3.144486208e-09
-3.079601176e-09
-3.019225069e-09
-2.975445893e-09
-2.963720702e-09
-1.763468254e-09
-1.792129815e-09
-1.845261984e-09
-1.935718818e-09
-2.08078942e-09
-1.235386166e-09
-1.335607962e-09
-1.480440442e-09
-1.686516955e-09
-1.976625621e-09
-1.218360274e-09
-1.402023501e-09
-1.658820178e-09
-1.848934831e-09
-2.043091543e-09
-1.364202726e-09
-1.489554626e-09
-1.625498167e-09
-1.757447849e-09
-1.864285369e-09
-1.441937509e-09
-1.533308064e-09
-1.618999841e-09
-1.681057845e-09
-1.696932949e-09
-1.545326856e-09
-1.583037951e-09
-1.599092463e-09
-1.575430941e-09
-1.49161103e-09
-1.607858722e-09
-1.582425633e-09
-1.522395115e-09
-1.412317633e-09
-1.236504643e-09
-1.602937791e-09
-1.516519449e-09
-1.387444804e-09
-1.204713585e-09
-9.587022558e-10
-1.514185016e-09
-1.376958909e-09
-1.194113638e-09
-9.598789513e-10
-6.708819034e-10
-1.391656117e-09
-1.223984993e-09
-1.012907271e-09
-7.575104807e-10
-4.595539435e-10
-1.217745802e-09
-1.035276167e-09
-8.143664313e-10
-5.580182176e-10
-2.71728284e-10
-1.290267626e-09
-1.122350969e-09
-9.230259578e-10
-6.967492583e-10
-4.501046544e-10
-1.574513114e-09
-2.492116106e-11
-9.695777996e-13
-7.491252671e-14
-1.252102487e-14
-2.647191906e-15
-5.534281658e-16
-1.10916029e-16
-2.167951379e-17
-4.321341541e-18
-9.82386611e-19
-3.288233677e-19
-1.900454167e-19
-1.517817889e-19
-1.332144321e-19
-1.178382871e-19
-1.023403134e-19
-8.646675476e-20
-7.079184161e-20
-5.604216584e-20
-4.284777825e-20
-3.162298264e-20
-2.252681505e-20
-1.549086154e-20
-1.028673279e-20
-6.602763336e-21
-4.102385868e-21
-2.47139318e-21
-1.44689628e-21
-8.258140119e-22
-4.614974156e-22
-2.540837207e-22
-1.390169014e-22
-7.646658652e-23
-4.287036091e-23
-2.481605991e-23
-1.493851466e-23
-9.328010231e-24
-5.972873421e-24
-3.861445823e-24
-2.485040511e-24
-1.57635858e-24
-9.808339466e-25
-5.983654313e-25
-3.589990421e-25
-2.129881282e-25
-1.258016282e-25
-7.447639703e-26
-4.444554667e-26
-2.684309552e-26
-1.643887179e-26
-1.020853178e-26
-6.415094556e-27
-4.056936822e-27
-2.55048688e-27
-1.553254721e-27
-8.681250082e-28
-4.029044507e-28
-1.264753691e-28
-2.317728753e-29
-1.836787451e-08
-2.963865921e-10
-7.898862347e-12
-4.287420159e-13
-4.794520459e-14
-7.416098501e-15
-1.255684415e-15
-2.170000774e-16
-4.000453548e-17
-9.308061613e-18
-3.499676602e-18
-2.133535274e-18
-1.648164287e-18
-1.371391295e-18
-1.154856747e-18
-9.62549075e-19
-7.87718697e-19
-6.309461883e-19
-4.937851148e-19
-3.768160069e-19
-2.798640649e-19
-2.019669177e-19
-1.414820607e-19
-9.613255765e-20
-6.335188971e-20
-4.050424921e-20
-2.514502603e-20
-1.517757564e-20
-8.924470742e-21
-5.125955958e-21
-2.887529086e-21
-1.604751428e-21
-8.873120405e-22
-4.93674913e-22
-2.800803378e-22
-1.640095632e-22
-9.972867181e-23
-6.274508127e-23
-4.035932461e-23
-2.61387956e-23
-1.681794618e-23
-1.065401778e-23
-6.61824449e-24
-4.03232109e-24
-2.418176406e-24
-1.435667082e-24
-8.495962872e-25
-5.044736989e-25
-3.021715246e-25
-1.832175529e-25
-1.126302929e-25
-7.018506309e-26
-4.423589362e-26
-2.804010071e-26
-1.765402662e-26
-1.076852271e-26
-6.087253632e-27
-2.959011816e-27
-1.068125365e-27
-1.817118799e-28
-8.367929865e-08
-8.820843597e-10
-1.270774933e-11
-6.782377385e-13
-6.86435427e-14
-1.014588869e-14
-1.732122895e-15
-3.484474385e-16
-9.790056738e-17
-4.046791399e-17
-2.152713704e-17
-1.355852424e-17
-9.804715717e-18
-7.741924617e-18
-6.308047278e-18
-5.105986866e-18
-4.038692081e-18
-3.109607087e-18
-2.332345367e-18
-1.705937705e-18
-1.218412853e-18
-8.499199858e-19
-5.790897534e-19
-3.85524772e-19
-2.505035072e-19
-1.588160852e-19
-9.826913369e-20
-5.939284696e-20
-3.511607687e-20
-2.036714661e-20
-1.162472135e-20
-6.562428207e-21
-3.692510175e-21
-2.092603957e-21
-1.209066026e-21
-7.198522027e-22
-4.435960198e-22
-2.815839214e-22
-1.818878907e-22
-1.178307698e-22
-7.562563162e-23
-4.772099014e-23
-2.951990339e-23
-1.792227183e-23
-1.072562182e-23
-6.366388467e-24
-3.774322478e-24
-2.249161302e-24
-1.353718302e-24
-8.252906578e-25
-5.101265969e-25
-3.194700506e-25
-2.02182869e-25
-1.285433179e-25
-8.107187317e-26
-4.953615537e-26
-2.826326347e-26
-1.410733433e-26
-5.161205022e-27
-7.730107363e-28
-8.096586736e-06
-9.173497022e-08
-6.149110558e-10
-8.76551165e-12
-3.790429307e-13
-3.430419697e-14
-5.800129627e-15
-1.407217948e-15
-5.508398954e-16
-2.635955756e-16
-1.432102333e-16
-8.570611627e-17
-5.590705789e-17
-4.251925205e-17
-3.085954936e-17
-2.361483958e-17
-1.819634501e-17
-1.377320479e-17
-1.012013112e-17
-7.202432564e-18
-4.973919646e-18
-3.342982905e-18
-2.193606329e-18
-1.408783533e-18
-8.875586554e-19
-5.495974572e-19
-3.347475846e-19
-2.006282478e-19
-1.184160527e-19
-6.891977841e-20
-3.967659695e-20
-2.270117131e-20
-1.299829901e-20
-7.515550076e-21
-4.433015209e-21
-2.689609621e-21
-1.681908657e-21
-1.07720728e-21
-6.979983268e-22
-4.515257063e-22
-2.885683077e-22
-1.810975486e-22
-1.114175194e-22
-6.733151343e-23
-4.016132265e-23
-2.38056438e-23
-1.412347862e-23
-8.439222154e-24
-5.101094043e-24
-3.126193067e-24
-1.943346478e-24
-1.223960417e-24
-7.785350291e-25
-4.968860691e-25
-3.141360323e-25
-1.924289097e-25
-1.104032479e-25
-5.588072654e-26
-1.970785913e-26
-2.601739714e-27
-9.138557535e-06
-1.868746577e-07
-1.685015193e-09
-2.007099588e-11
-1.042038904e-12
-1.780804144e-13
-5.221589936e-14
-1.581449773e-14
-6.218165463e-15
-2.698265923e-15
-1.293148256e-15
-6.840910362e-16
-3.952349254e-16
-2.455109014e-16
-1.63632191e-16
-1.262215847e-16
-9.098974751e-17
-6.625766087e-17
-4.740328609e-17
-3.324776139e-17
-2.261175308e-17
-1.489760813e-17
-9.514463449e-18
-5.907754451e-18
-3.582394215e-18
-2.132810168e-18
-1.252941316e-18
-7.287916124e-19
-4.205705739e-19
-2.411910671e-19
-1.377982439e-19
-7.872875232e-20
-4.522556693e-20
-2.631699232e-20
-1.564341836e-20
-9.557526617e-21
-6.000317355e-21
-3.840217201e-21
-2.474129375e-21
-1.584880909e-21
-1.000730267e-21
-6.203482428e-22
-3.77514931e-22
-2.262707963e-22
-1.343454983e-22
-7.956438054e-23
-4.730722472e-23
-2.838039916e-23
-1.723310972e-23
-1.060718792e-23
-6.619242946e-24
-4.183809194e-24
-2.670656978e-24
-1.710155704e-24
-1.084580825e-24
-6.666565656e-25
-3.844665707e-25
-1.95820683e-25
-6.494840642e-26
-7.798937248e-27
-4.757324457e-06
-4.623809927e-07
-7.445921919e-09
-8.69594675e-11
-4.803363751e-12
-1.073691943e-12
-3.758080142e-13
-1.363811862e-13
-5.446926012e-14
-2.437710942e-14
-1.153631341e-14
-5.841819469e-15
-3.183957834e-15
-1.866342436e-15
-1.167799359e-15
-7.633611124e-16
-5.871778943e-16
-4.028466288e-16
-2.789167331e-16
-1.901007521e-16
-1.265466039e-16
-8.213877694e-17
-5.169836611e-17
-3.152465248e-17
-1.865698937e-17
-1.077144874e-17
-6.098837873e-18
-3.402514617e-18
-1.878972188e-18
-1.032868965e-18
-5.683640389e-19
-3.147071534e-19
-1.763181489e-19
-1.006237032e-19
-5.891436641e-20
-3.556101356e-20
-2.206139462e-20
-1.392201268e-20
-8.816012397e-21
-5.533614847e-21
-3.415378823e-21
-2.067342135e-21
-1.2295328e-21
-7.223227657e-22
-4.225890029e-22
-2.48261019e-22
-1.474038953e-22
-8.874938485e-23
-5.421818172e-23
-3.357967703e-23
-2.105502789e-23
-1.334595412e-23
-8.53072341e-24
-5.467154543e-24
-3.473576929e-24
-2.145103485e-24
-1.246916448e-24
-6.374946061e-25
-1.97222745e-25
-2.223916593e-26
-6.679675826e-06
-1.564248639e-06
-5.665466254e-08
-9.939735392e-10
-2.391713289e-11
-3.993151491e-12
-1.425186276e-12
-6.134826189e-13
-2.432285371e-13
-1.155337338e-13
-5.711571447e-14
-2.975515076e-14
-1.655442457e-14
-9.901302085e-15
-6.323602346e-15
-4.24285422e-15
-2.920512992e-15
-2.347511645e-15
-1.625647419e-15
-1.129425296e-15
-7.734619806e-16
-5.134113943e-16
-3.269141979e-16
-2.000792879e-16
-1.182290428e-16
-6.79584129e-17
-3.807727036e-17
-2.079289243e-17
-1.110456184e-17
-5.841731507e-18
-3.054063298e-18
-1.599106356e-18
-8.457963111e-19
-4.56485557e-19
-2.538083069e-19
-1.4626679e-19
-8.72357098e-20
-5.315103342e-20
-3.255848669e-20
-1.977267814e-20
-1.179816071e-20
-6.900490054e-21
-3.966893995e-21
-2.256292979e-21
-1.282688522e-21
-7.375210628e-22
-4.325187158e-22
-2.594978278e-22
-1.590186058e-22
-9.914152607e-23
-6.262163874e-23
-3.993357899e-23
-2.562119939e-23
-1.645101851e-23
-1.047204122e-23
-6.499689674e-24
-3.816624613e-24
-1.954724162e-24
-5.665559942e-25
-6.139250749e-26
-0.0005625425362
-4.640786372e-05
-2.450377944e-06
-6.562526111e-08
-1.303574946e-09
-7.076760268e-11
-1.161408757e-11
-3.230779797e-12
-1.108184218e-12
-4.09221852e-13
-1.68529666e-13
-8.297126747e-14
-4.5220528e-14
-2.721949732e-14
-1.798489955e-14
-1.282824026e-14
-9.63447073e-15
-7.412053559e-15
-6.640666697e-15
-4.985496692e-15
-3.680897758e-15
-2.616665994e-15
-1.772480142e-15
-1.15148922e-15
-7.1705388e-16
-4.320199616e-16
-2.493222235e-16
-1.377416592e-16
-7.351883068e-17
-3.829098163e-17
-1.960498643e-17
-9.894174701e-18
-4.966492576e-18
-2.513647705e-18
-1.299457998e-18
-6.920284179e-19
-3.815842103e-19
-2.169934047e-19
-1.253551306e-19
-7.234863236e-20
-4.122153647e-20
-2.306415568e-20
-1.269269016e-20
-6.91556632e-21
-3.772948327e-21
-2.091389338e-21
-1.191875771e-21
-7.018968297e-22
-4.263840115e-22
-2.656706342e-22
-1.686187362e-22
-1.083220936e-22
-7.002571165e-23
-4.525857226e-23
-2.897449157e-23
-1.809718277e-23
-1.070314504e-23
-5.477146413e-24
-1.512556786e-24
-1.564316467e-25
-0.0009238485161
-8.693601213e-05
-8.525450225e-06
-4.072322003e-07
-9.783896433e-09
-3.296237654e-10
-3.330187426e-11
-7.253715178e-12
-2.311289625e-12
-8.988918933e-13
-3.34797119e-13
-1.608054747e-13
-8.592663745e-14
-5.136558163e-14
-3.431600552e-14
-2.522588213e-14
-1.9857753e-14
-1.625618761e-14
-1.350760299e-14
-1.305873669e-14
-1.061257094e-14
-8.519378115e-15
-6.635913778e-15
-4.940268789e-15
-3.489044072e-15
-2.31627924e-15
-1.440577622e-15
-8.461397132e-16
-4.742666555e-16
-2.56988512e-16
-1.340632709e-16
-6.735941566e-17
-3.311376199e-17
-1.619274475e-17
-7.95349515e-18
-3.935540091e-18
-1.977659923e-18
-1.015940892e-18
-5.333167117e-19
-2.83740785e-19
-1.510390322e-19
-7.98685601e-20
-4.180805044e-20
-2.169974438e-20
-1.12591298e-20
-5.938842728e-21
-3.239559095e-21
-1.841339231e-21
-1.089695387e-21
-6.680428696e-22
-4.212999668e-22
-2.710537447e-22
-1.764001105e-22
-1.150930526e-22
-7.447764993e-23
-4.703683575e-23
-2.809442771e-23
-1.440453668e-23
-3.85730384e-24
-3.936824342e-25
-0.0006891938501
-7.648231455e-05
-9.966901261e-06
-9.703709174e-07
-4.195807156e-08
-1.199580228e-09
-6.92069948e-11
-1.071335007e-11
-3.07109455e-12
-1.109070027e-12
-4.622705233e-13
-2.288095924e-13
-1.249908144e-13
-7.616305176e-14
-5.211495072e-14
-3.959934597e-14
-3.251606557e-14
-2.796460875e-14
-2.453833482e-14
-2.354417908e-14
-2.183026013e-14
-1.868840211e-14
-1.573691631e-14
-1.289794285e-14
-1.021654529e-14
-7.77547972e-15
-5.654051039e-15
-3.887332789e-15
-2.506236517e-15
-1.503423727e-15
-8.377462954e-16
-4.396834401e-16
-2.21814347e-16
-1.097325617e-16
-5.307415282e-17
-2.52400449e-17
-1.191137503e-17
-5.619073631e-18
-2.655154708e-18
-1.265168329e-18
-6.108356527e-19
-2.967781915e-19
-1.452418679e-19
-7.167438032e-20
-3.563562395e-20
-1.779823605e-20
-9.147490066e-21
-4.923330068e-21
-2.78520269e-21
-1.649309611e-21
-1.014751387e-21
-6.436377197e-22
-4.172272264e-22
-2.733905698e-22
-1.787134859e-22
-1.144338546e-22
-6.931451649e-23
-3.582102265e-23
-9.488491015e-24
-9.908485573e-25
-0.0004858359984
-6.96532838e-05
-7.957592742e-06
-1.769533593e-06
-1.436325363e-07
-5.659785144e-09
-2.143996885e-10
-2.009232766e-11
-4.335451368e-12
-1.331462407e-12
-5.838859585e-13
-2.912594523e-13
-1.61008524e-13
-9.954075747e-14
-6.96733479e-14
-5.476075572e-14
-4.690834933e-14
-4.225702636e-14
-3.888799514e-14
-3.664934599e-14
-3.825305158e-14
-3.425309116e-14
-3.033160767e-14
-2.62964181e-14
-2.219216518e-14
-1.815331235e-14
-1.433757836e-14
-1.088795339e-14
-7.911401145e-15
-5.472728484e-15
-3.585527064e-15
-2.20255204e-15
-1.259784754e-15
-6.691259907e-16
-3.328494055e-16
-1.593360976e-16
-7.426920445e-17
-3.389554684e-17
-1.500630531e-17
-6.528130273e-18
-2.843589793e-18
-1.250356522e-18
-5.568197356e-19
-2.536489118e-19
-1.195354249e-19
-5.816800587e-20
-2.859207169e-20
-1.429791829e-20
-7.528705473e-21
-4.202148263e-21
-2.47000977e-21
-1.515275214e-21
-9.604152482e-22
-6.220976223e-22
-4.063859444e-22
-2.623396501e-22
-1.611221632e-22
-8.447104868e-23
-2.270180697e-23
-2.570123588e-24
-0.002979220044
-0.0004519612318
-6.288890871e-05
-1.035796994e-05
-1.267944282e-06
-8.026762172e-08
-2.953194903e-09
-1.45635391e-10
-1.672351125e-11
-3.579282508e-12
-1.012285326e-12
-4.175086871e-13
-2.093506379e-13
-1.244986257e-13
-8.74087775e-14
-7.095645446e-14
-6.360999905e-14
-6.006912234e-14
-5.778118565e-14
-5.709800506e-14
-6.141553901e-14
-5.704955512e-14
-5.23756985e-14
-4.713771763e-14
-4.141114975e-14
-3.540683973e-14
-2.938248349e-14
-2.359935877e-14
-1.828789297e-14
-1.362609061e-14
-9.725035447e-15
-6.620781223e-15
-4.279361096e-15
-2.61531129e-15
-1.506056421e-15
-8.100491306e-16
-4.066026622e-16
-1.901075974e-16
-8.369351949e-17
-3.546314376e-17
-1.459428553e-17
-5.920738248e-18
-2.407405392e-18
-9.95917974e-19
-4.261403914e-19
-1.917108143e-19
-9.146679261e-20
-4.537115403e-20
-2.285248683e-20
-1.181085705e-20
-6.413014184e-21
-3.704648632e-21
-2.247547887e-21
-1.412064927e-21
-9.047009003e-22
-5.797820384e-22
-3.581524434e-22
-1.913957623e-22
-5.3696384e-23
-7.337053315e-24
-0.01069029632
-0.001609270193
-0.0002382692614
-3.536553354e-05
-5.062517201e-06
-5.544175494e-07
-3.509136404e-08
-1.439475368e-09
-8.117265135e-11
-9.732941583e-12
-2.164829626e-12
-6.089404443e-13
-2.592385175e-13
-1.45483558e-13
-1.043796853e-13
-9.016728773e-14
-8.602107092e-14
-8.544081574e-14
-8.556712052e-14
-9.781172443e-14
-9.539778059e-14
-9.114509265e-14
-8.565568012e-14
-7.881972975e-14
-7.083937161e-14
-6.206942013e-14
-5.29368036e-14
-4.386213041e-14
-3.523310566e-14
-2.737388445e-14
-2.05188836e-14
-1.479794445e-14
-1.02312195e-14
-6.755907705e-15
-4.246870515e-15
-2.532242694e-15
-1.426546826e-15
-7.56067635e-16
-3.740651244e-16
-1.712548976e-16
-7.261523949e-17
-2.879070748e-17
-1.110560906e-17
-4.252449746e-18
-1.656644264e-18
-6.750907006e-19
-2.932576119e-19
-1.367280001e-19
-6.776264426e-20
-3.4848959e-20
-1.836718753e-20
-9.939763257e-21
-5.611613233e-21
-3.320948304e-21
-2.043453847e-21
-1.277203153e-21
-7.826868957e-22
-4.268238419e-22
-1.285532262e-22
-1.794018852e-23
-0.008971055183
-0.001592117296
-0.0002776285355
-4.41089129e-05