/*--------------------------------*- C++ -*----------------------------------*\
  =========                 |
  \\      /  F ield         | OpenFOAM: The Open Source CFD Toolbox
   \\    /   O peration     | Website:  https://openfoam.org
    \\  /    A nd           | Version:  10
     \\/     M anipulation  |
\*---------------------------------------------------------------------------*/
FoamFile
{
    format      ascii;
    class       volScalarField;
    location    "3000";
    object      RR.CH3;
}
// * * * * * * * * * * * * * * * * * * * * * * * * * * * * * * * * * * * * * //

dimensions      [1 -3 -1 0 0 0 0];

internalField   nonuniform List<scalar> 
5170
(
1.153907761e-34
1.153737947e-34
1.153862163e-34
1.155278764e-34
1.166216809e-34
1.130472469e-34
1.130434828e-34
1.130941336e-34
1.13443787e-34
1.154110458e-34
1.114192232e-34
1.11433705e-34
1.115650236e-34
1.122386377e-34
1.149928644e-34
1.106142735e-34
1.106546402e-34
1.108958135e-34
1.119856213e-34
1.154049166e-34
1.10368839e-34
1.104441405e-34
1.108190738e-34
1.123352793e-34
1.16412695e-34
1.104650726e-34
1.105834528e-34
1.111128965e-34
1.1307232e-34
1.177833115e-34
1.108191383e-34
1.109837724e-34
1.116743353e-34
1.141257581e-34
1.194356055e-34
1.113574684e-34
1.115723305e-34
1.124449961e-34
1.154133439e-34
1.212770259e-34
1.119870727e-34
1.122564417e-34
1.133186693e-34
1.168665463e-34
1.231993782e-34
1.135294987e-34
1.138078093e-34
1.15424528e-34
1.24011536e-34
1.635321948e-34
5.285354955e-34
5.351289866e-34
7.810546142e-34
3.608954126e-33
2.374975892e-32
1.975335659e-31
2.158674975e-31
3.849086526e-31
2.23796176e-30
1.558352701e-29
1.018613329e-28
1.221403645e-28
2.465544188e-28
1.625184885e-27
1.214704704e-26
5.762159601e-26
7.852466204e-26
1.87237721e-25
1.508224538e-24
1.209481724e-23
3.573832199e-23
5.864911158e-23
1.809236396e-22
1.918278173e-21
1.511537242e-20
2.38694884e-20
4.988246722e-20
2.189969425e-19
2.977840342e-18
2.169557227e-17
1.658051069e-17
4.695852469e-17
2.9704871e-16
4.775008731e-15
3.321444354e-14
1.162420581e-14
4.597822291e-14
4.143518191e-13
7.44436907e-12
5.218800792e-11
7.526419071e-12
4.365682831e-11
5.419633648e-10
1.028537947e-08
8.292621048e-08
4.179460357e-09
3.953295279e-08
6.851193695e-07
1.279356286e-05
0.0001296714611
1.289434176e-17
2.702626471e-18
1.372156765e-18
3.906410311e-18
1.244070054e-17
-5.29819488e-18
-7.083636198e-19
-5.253500709e-19
-9.079926727e-19
-5.350612705e-18
-1.873963851e-18
-1.680398211e-18
-1.336747236e-18
-1.90405392e-18
-1.756034878e-18
-8.980388015e-19
-9.115389636e-19
-8.301251207e-19
-1.084790648e-18
-7.524538461e-19
-3.451605499e-19
-5.561217995e-19
-5.400543698e-19
-7.806342597e-19
-2.835087571e-19
-2.003158841e-19
-2.663715868e-19
-4.013948314e-19
-1.966511094e-19
-1.881831627e-19
-1.208485597e-19
-1.397893931e-19
-1.300461467e-19
-5.941495321e-19
-9.307152297e-20
-9.180342028e-20
-1.111612301e-19
-1.228113196e-19
-1.106052288e-19
-5.780784857e-20
-4.881351703e-20
-7.430713091e-20
-8.245291575e-20
-2.497739573e-20
-2.410153021e-20
-4.006903309e-20
-4.686534215e-20
-6.901840901e-20
1.025200087e-21
-8.062652191e-21
-2.402565266e-20
-1.020182731e-19
-4.427597287e-20
6.255933763e-21
-7.145118391e-22
-7.057541968e-20
-2.528990945e-20
-7.710149834e-21
5.516019414e-20
1.457027585e-20
-8.556139994e-20
-8.172919764e-20
-6.636313134e-20
-2.457549958e-20
2.748532624e-21
-8.046767949e-18
-2.47875097e-18
-6.288547721e-19
-2.104989328e-19
-4.99355148e-20
-1.388744483e-15
-4.125555128e-16
-9.619420959e-17
-2.209943355e-17
-2.758744274e-18
-2.429635157e-13
-6.939695459e-14
-1.55634954e-14
-3.357674489e-15
-3.871892284e-16
-4.300620762e-11
-1.147233719e-11
-2.432638304e-12
-4.888920441e-13
-5.209971422e-14
-7.959090378e-09
-1.860254731e-09
-3.655698011e-10
-6.78476166e-11
-6.773776522e-12
-1.620968811e-06
-2.89885256e-07
-5.132658061e-08
-8.444482126e-09
-8.191276743e-10
-0.0009940529519
-5.746041531e-05
-7.078158238e-06
-7.673357694e-07
-9.837393626e-08
3.573953515e-07
4.961694655e-06
0.0001596188238
0.002500106173
-0.0435403793
9.596655948e-07
1.007430417e-05
0.0001282818501
-0.005123976135
-0.09742003862
1.61639193e-06
1.200822042e-05
-0.0001346371744
-0.0111722714
-0.09118797484
2.204918178e-06
6.861789457e-06
-0.0006511968385
-0.01532316662
-0.08231554578
2.117298288e-06
-1.580282891e-05
-0.001429309096
-0.01799465692
-0.07696360669
-4.047400689e-07
-7.685258264e-05
-0.002529824836
-0.0211122709
-0.07901978164
-1.059196466e-05
-0.0002353068764
-0.004422502418
-0.02698472542
-0.08907113726
-4.474035894e-05
-0.0006300570535
-0.00741087383
-0.03413771157
-0.09867229322
-0.0001449080202
-0.001465568553
-0.01123253705
-0.04055300263
-0.104507476
-0.0003984780991
-0.002924203984
-0.01554634343
-0.04654026898
-0.1101348274
-0.0009932562144
-0.005101182586
-0.01999827977
-0.0523720265
-0.1161607943
-0.002101562896
-0.007748396293
-0.02425967302
-0.05765006849
-0.1209068564
-0.003873958222
-0.01081111743
-0.0285579782
-0.06270592525
-0.1247077819
-0.006498390483
-0.01442459157
-0.03322765427
-0.06811893638
-0.1290388684
-0.01031702284
-0.01885957429
-0.03858938328
-0.07425017136
-0.134448971
-0.01553956067
-0.02438583479
-0.04485309233
-0.08135297389
-0.1404658018
-0.02221547878
-0.03114787199
-0.05212600601
-0.08908822542
-0.145754468
-0.02981248174
-0.03876048392
-0.05993217741
-0.09658967551
-0.1499369932
-0.03805863067
-0.04691634458
-0.06775043612
-0.1030968796
-0.1529009519
-0.04624139805
-0.05490135152
-0.07521359103
-0.1080049153
-0.1559209748
-0.05418987523
-0.0626473393
-0.08198778878
-0.1130031789
-0.1602268079
-0.06203824342
-0.07002453268
-0.08842325848
-0.1190287622
-0.1654895789
-0.07005074863
-0.0778536978
-0.09600388246
-0.1270230192
-0.1714393481
-0.07899244479
-0.08684513076
-0.1053463537
-0.1344242281
-0.1785833367
-0.08904925768
-0.097003774
-0.114295659
-0.143674047
-0.18944332
-0.1003508124
-0.1085589534
-0.1277333404
-0.1540430383
-0.1994871138
-0.1131639606
-0.1217073216
-0.1434049608
-0.1707896704
-0.2085861771
-0.1285032735
-0.1376778535
-0.1591176108
-0.1844846622
-0.2231950219
-0.1412380339
-0.1489775749
-0.1767063049
-0.2128305032
-0.2649289096
-0.1548217517
-0.1721901258
-0.1891835705
-0.2156926428
-0.2501893819
-0.1674779152
-0.1719494221
-0.1877387784
-0.2039311748
-0.1987334114
-0.1560611072
-0.1607937955
-0.1576499045
-0.1444153012
-0.1151372619
-0.08168494542
-0.07319164378
-0.05746736464
-0.006778000683
0.07072236564
0.091987934
0.1094935224
0.1521705303
0.2213647275
0.3187315659
0.2974255601
0.3098618749
0.3388707158
0.3806202861
0.4254609984
0.2674464
0.2689307032
0.2707345149
0.2693362808
0.2611351879
0.07174976512
0.06979738634
0.06491682814
0.05683256661
0.04432357075
-0.05994723504
-0.06059368492
-0.06249003166
-0.06605740593
-0.07237613858
-0.1004583237
-0.1009721435
-0.1025751011
-0.106363184
-0.1146520294
-0.1075978123
-0.1100718827
-0.1164185191
-0.1285107947
-0.1488645621
-0.1307765029
-0.1337169734
-0.1387354526
-0.14230352
-0.1401108972
-0.07840047247
-0.07694142909
-0.07377535787
-0.06919887446
-0.06358193211
-0.03241625714
-0.03188180179
-0.03074346311
-0.02911012697
-0.02708979723
-0.0135197644
-0.0133290663
-0.01291986072
-0.01232697398
-0.01158398434
-0.005701235342
-0.005630786289
-0.005479386202
-0.005258659677
-0.004979553349
-0.002428661754
-0.002402154571
-0.002344928589
-0.002261060872
-0.002154264507
-0.001044892303
-0.001034669065
-0.001012597349
-0.0009801321862
-0.0009385705454
-0.0004537724029
-0.000449776673
-0.0004411212171
-0.0004283487971
-0.0004119248594
-0.0001988821311
-0.0001972890256
-0.0001938394658
-0.0001887370479
-0.0001821525463
-8.795346872e-05
-8.731142721e-05
-8.591770134e-05
-8.385146426e-05
-8.11767517e-05
-3.925940313e-05
-3.899636254e-05
-3.842559458e-05
-3.757798652e-05
-3.647795002e-05
-1.769450498e-05
-1.758579599e-05
-1.734945521e-05
-1.699788707e-05
-1.65405834e-05
-8.059782918e-06
-8.014352028e-06
-7.915623977e-06
-7.76860535e-06
-7.577079122e-06
-3.716051175e-06
-3.697118986e-06
-3.655934285e-06
-3.594584148e-06
-3.514640493e-06
-1.741858634e-06
-1.734190833e-06
-1.717546909e-06
-1.692817513e-06
-1.660719517e-06
-8.405635092e-07
-8.378938501e-07
-8.321375275e-07
-8.237047231e-07
-8.129961962e-07
-4.325780114e-07
-4.323261074e-07
-4.318635211e-07
-4.314062765e-07
-4.312626911e-07
-2.577090281e-07
-2.58905808e-07
-2.6163136e-07
-2.660327709e-07
-2.72431881e-07
-2.006899436e-07
-2.031171643e-07
-2.085739135e-07
-2.1719444e-07
-2.293819315e-07
-2.149219758e-07
-2.188277251e-07
-2.275799128e-07
-2.413330336e-07
-2.60640597e-07
-2.923474095e-07
-2.984586595e-07
-3.121382451e-07
-3.335919873e-07
-3.636312369e-07
-4.300245631e-07
-4.380052949e-07
-4.557133311e-07
-4.830647059e-07
-5.202377589e-07
-6.088286953e-07
-6.182957735e-07
-6.391846698e-07
-6.71132278e-07
-7.142954632e-07
-8.39939437e-07
-8.505100903e-07
-8.737355708e-07
-9.089923634e-07
-9.561270569e-07
-1.113306608e-06
-1.12408012e-06
-1.147643202e-06
-1.183124011e-06
-1.230014445e-06
-1.408954575e-06
-1.418780061e-06
-1.440150674e-06
-1.472011084e-06
-1.51351446e-06
-1.695749867e-06
-1.703348657e-06
-1.719732445e-06
-1.743776993e-06
-1.774375852e-06
-1.942953367e-06
-1.947281873e-06
-1.956423239e-06
-1.969322214e-06
-1.984740293e-06
-2.100617651e-06
-2.100794481e-06
-2.100797737e-06
-2.099788177e-06
-2.096546859e-06
-2.193971538e-06
-2.191089651e-06
-2.184393885e-06
-2.173275874e-06
-2.156631542e-06
-0.2400597283
-0.2725917014
-0.2623836705
-0.2144948414
-0.1920573519
-0.1885516991
-0.1984599867
-0.2010965103
-0.1985202651
-0.1985918968
-0.1992841228
-0.1979549545
-0.196335609
-0.1961006742
-0.197023179
-0.1990507062
-0.2010993209
-0.2020200942
-0.202855437
-0.2046110087
-0.2069814446
-0.2101281154
-0.2146479359
-0.2244618992
-0.2317382292
-0.2392005629
-0.2467954601
-0.2628526766
-0.2618876471
-0.2556397442
-0.195820956
-0.07334628798
0.1511320166
0.4014519627
0.4544374402
0.2527946586
0.03448698534
-0.07845708704
-0.1245931313
-0.1681720423
-0.1343689866
-0.05948129126
-0.02558500156
-0.01102179579
-0.004765959978
-0.002071815243
-0.0009062614689
-0.0003990839752
-0.0001769800733
-7.90669971e-05
-3.560723349e-05
-1.617753434e-05
-7.424705947e-06
-3.451023364e-06
-1.635317662e-06
-8.04786916e-07
-4.316514674e-07
-2.782620967e-07
-2.401411073e-07
-2.775457039e-07
-3.89852855e-07
-5.511798743e-07
-7.505211574e-07
-9.951830543e-07
-1.268312015e-06
-1.546785417e-06
-1.798132933e-06
-1.995615481e-06
-2.091856349e-06
-2.140922849e-06
0.497354544
-0.03109203504
-0.001196616025
-7.938885901e-05
-4.606960753e-06
-0.2779073653
0.8344977202
-0.1109697479
-0.004769628939
-0.0001331925482
-0.3051768106
0.2283343435
-0.141762934
-0.008252604817
-0.0001463621594
-0.2929119676
-0.1423219428
0.9717686235
-0.1831994249
-0.009191803799
-0.3085396735
-0.6952679904
1.705109538
-0.4377657791
-0.02949142366
-0.3051622866
-0.717983886
1.315793298
-0.487256779
-0.04155308765
-0.303352457
-0.6126307566
1.286508643
-0.4978132526
-0.05360222022
-0.294643437
-0.5321183157
0.8976043526
-0.01495211782
-0.165916362
-0.291406361
-0.5806407149
-0.1534280949
2.444976511
-0.7072257743
-0.2899674764
-0.5963758382
-0.5487871059
2.610983826
-0.9324991263
-0.2871296741
-0.5734428527
-0.5976693412
2.492612458
-0.9666352893
-0.2807995835
-0.5317127662
-0.5573418457
2.17923644
-0.8216436047
-0.2759980941
-0.5161925925
-0.6369275216
1.069569546
1.632434663
-0.27329738
-0.5081537186
-0.6897166966
0.3420454201
2.722706471
-0.2726099832
-0.4951537735
-0.689046105
0.03737672726
2.953577563
-0.2729992876
-0.4799033541
-0.6604697122
-0.06549226813
2.990210389
-0.2736152069
-0.4661301442
-0.6247190302
-0.1063614877
2.862667021
-0.2734761958
-0.4540776777
-0.6027363813
-0.1896758948
2.383781905
-0.2713024827
-0.4459207983
-0.5936369718
-0.2837389894
1.841720434
-0.2710962733
-0.4392209221
-0.5843330766
-0.3360108157
1.473468137
-0.2727067992
-0.4327677829
-0.5694306752
-0.3434771725
1.266108696
-0.2791374687
-0.4257748191
-0.5482652371
-0.3204154472
1.156848553
-0.2825894499
-0.4176714411
-0.5213955394
-0.2750528674
1.109112817
-0.2853194643
-0.4090663499
-0.4897073954
-0.2106276581
1.10349305
-0.2879776992
-0.4002482316
-0.4523815833
-0.1264145097
1.132614192
-0.2921240241
-0.3884617895
-0.4041367576
-0.01051492973
1.203380783
-0.2956915579
-0.3722117518
-0.3327606207
0.1547707428
1.314778911
-0.3081311982
-0.3465123725
-0.2191343479
0.3782774954
1.429459415
-0.2962345942
-0.2821023464
-0.04124828588
0.6467684764
1.484588165
-0.3232623296
-0.156733651
0.2115953949
0.9071572189
1.41551752
-0.1539138349
0.04977000439
0.5089201111
1.066025823
1.191123231
0.02824684791
0.3289941825
0.7581634354
1.034860085
0.8416375305
0.2914895775
0.5850377932
0.8218451689
0.798456521
0.4465504905
0.503959992
0.6399221974
0.6366167342
0.4489380699
0.08724800833
0.4624750671
0.4332359404
0.318621689
0.1185975476
-0.2039550675
0.2195779826
0.1521894093
0.04697884473
-0.120945504
-0.4074764492
0.01026647903
-0.03762714083
-0.1220195606
-0.2879119794
-0.4099390024
-0.09387259709
-0.1379336154
-0.2363197208
-0.3395236364
-0.261526475
-0.1463306351
-0.2127101682
-0.2689549923
-0.2152773704
-0.1486681348
-0.1918252838
-0.1973816069
-0.1550707134
-0.1128768276
-0.08053153607
-0.1209139413
-0.09693769224
-0.07500366174
-0.05656080565
-0.04173974641
-0.05347740838
-0.04405103999
-0.03521170085
-0.02742023891
-0.02087739789
-0.0233678679
-0.01974760399
-0.01621874939
-0.0129865565
-0.01016873582
-0.01018932408
-0.008790112109
-0.007384429049
-0.006055995697
-0.004860533151
-0.004448484442
-0.003902928706
-0.003341523738
-0.002797140712
-0.00229392762
-0.00194890722
-0.00173398695
-0.001508478399
-0.001285092407
-0.001073862649
-0.0008579899589
-0.0007723752899
-0.000681100056
-0.0005890610056
-0.000500338785
-0.000379865796
-0.0003453760507
-0.0003081141011
-0.0002699730208
-0.0002325986536
-0.0001692287101
-0.0001551795044
-0.0001398308268
-0.00012391932
-0.0001081075265
-7.590221242e-05
-7.011762744e-05
-6.373810775e-05
-5.705278193e-05
-5.032946112e-05
-3.430010402e-05
-3.189394516e-05
-2.921923351e-05
-2.639092358e-05
-2.351795169e-05
-1.563222632e-05
-1.462259206e-05
-1.349325655e-05
-1.229070808e-05
-1.106025998e-05
-7.195789195e-06
-6.770355417e-06
-6.292774252e-06
-5.782575658e-06
-5.25944009e-06
-3.355501388e-06
-3.178069842e-06
-2.97942758e-06
-2.768479437e-06
-2.554705292e-06
-1.597291664e-06
-1.527618509e-06
-1.451391098e-06
-1.373462757e-06
-1.299458348e-06
-7.926795339e-07
-7.722053038e-07
-7.528175318e-07
-7.380579586e-07
-7.324271897e-07
-4.325641994e-07
-4.374296421e-07
-4.483073035e-07
-4.686813104e-07
-5.032462459e-07
-2.874821454e-07
-3.092079598e-07
-3.41318324e-07
-3.879659697e-07
-4.548751567e-07
-2.569520306e-07
-2.947494528e-07
-3.481132936e-07
-4.224930045e-07
-5.254359827e-07
-3.038678998e-07
-3.622687115e-07
-4.435566376e-07
-5.552868796e-07
-7.06012184e-07
-4.306225504e-07
-5.112663096e-07
-6.166823926e-07
-7.516002064e-07
-9.1875811e-07
-5.978159384e-07
-6.950023928e-07
-8.180360064e-07
-9.681564094e-07
-1.145125403e-06
-8.046761765e-07
-9.149018064e-07
-1.050163406e-06
-1.209141769e-06
-1.388369519e-06
-1.053114278e-06
-1.16813509e-06
-1.30462789e-06
-1.458471701e-06
-1.623008815e-06
-1.324653366e-06
-1.433337597e-06
-1.557234681e-06
-1.689617402e-06
-1.821169662e-06
-1.595241843e-06
-1.685126478e-06
-1.781807903e-06
-1.876568018e-06
-1.95835494e-06
-1.832166949e-06
-1.89078648e-06
-1.946367719e-06
-1.989139582e-06
-2.007515586e-06
-2.010400938e-06
-2.029180264e-06
-2.03504956e-06
-2.018253581e-06
-1.967846644e-06
-2.083639847e-06
-2.056228012e-06
-2.006597176e-06
-1.925991399e-06
-1.805105532e-06
-2.116532838e-06
-2.057519326e-06
-1.971203973e-06
-1.850148926e-06
-1.686849107e-06
-4.8569352e-07
-1.011392791e-08
-4.05282294e-10
-2.702876001e-11
-2.960844943e-12
-2.361819675e-13
-1.046909138e-14
-5.755496076e-16
-7.004176161e-16
-5.268237248e-16
-2.9403953e-16
-1.317735927e-16
-3.883277753e-17
6.839858238e-18
2.458525667e-17
2.77623354e-17
2.452450585e-17
1.930506809e-17
1.420443269e-17
1.000833632e-17
6.855603552e-18
4.615181863e-18
3.079550721e-18
2.050399241e-18
1.368728147e-18
9.181534122e-19
6.185072205e-19
4.170368246e-19
2.800761464e-19
1.863955217e-19
1.224420683e-19
7.922848295e-20
5.05007315e-20
3.175676179e-20
1.973564528e-20
1.212501992e-20
7.346630298e-21
4.366648269e-21
2.52769242e-21
1.414695436e-21
7.61310684e-22
3.928628636e-22
1.944613044e-22
9.258284215e-23
4.256545993e-23
1.896795275e-23
8.211203082e-24
3.454417147e-24
1.410987646e-24
5.592307709e-25
2.155782066e-25
8.155429331e-26
3.082682191e-26
1.190105362e-26
4.713226036e-27
1.826009137e-27
6.022461674e-28
1.237226645e-28
2.840412652e-30
-8.111786129e-31
-1.338548815e-05
-2.631184247e-07
-6.760291064e-09
-2.795156162e-10
-1.968315889e-11
-1.057338403e-12
-2.897681327e-13
-2.762264042e-13
-1.796686092e-13
-9.696260539e-14
-4.543547716e-14
-1.813551078e-14
-5.300689623e-15
-1.07025286e-16
1.516421888e-15
1.687937217e-15
1.387709638e-15
1.013193647e-15
6.968751288e-16
4.638891588e-16
3.035065213e-16
1.971928114e-16
1.282172104e-16
8.389559216e-17
5.543189133e-17
3.70088239e-17
2.490943955e-17
1.682007673e-17
1.132554431e-17
7.559803626e-18
4.981281286e-18
3.233814925e-18
2.068898e-18
1.306736925e-18
8.164431565e-19
5.048075339e-19
3.080754149e-19
1.845039182e-19
1.076002015e-19
6.064145443e-20
3.284160803e-20
1.704717481e-20
8.486116491e-21
4.06372337e-21
1.879947345e-21
8.435174331e-22
3.679864136e-22
1.561779951e-22
6.444495314e-23
2.584936755e-23
1.010868046e-23
3.890914402e-24
1.500340253e-24
5.912314171e-25
2.385790766e-25
9.430022472e-26
3.243713939e-26
7.716012322e-27
7.000982524e-28
3.539622508e-30
-3.301040854e-05
-5.260279617e-07
-7.895042605e-09
-3.97960468e-10
-2.696890265e-11
-9.028885129e-12
-1.023165125e-11
-8.198004797e-12
-5.259035316e-12
-2.993740285e-12
-1.504552668e-12
-6.577373425e-13
-2.28876511e-13
-4.264955457e-14
2.214580376e-14
3.484159506e-14
2.975318832e-14
2.121254226e-14
1.395290774e-14
8.835268102e-15
5.512653305e-15
3.437182944e-15
2.162210226e-15
1.3804319e-15
8.967913802e-16
5.923087459e-16
3.961083957e-16
2.665257254e-16
1.791883157e-16
1.196351327e-16
7.898596778e-17
5.14795064e-17
3.313828521e-17
2.110927272e-17
1.333241844e-17
8.34963262e-18
5.168139536e-18
3.140693664e-18
1.858014389e-18
1.06137485e-18
5.820291636e-19
3.056120412e-19
1.537824413e-19
7.441128348e-20
3.478580009e-20
1.578024646e-20
6.96691308e-21
2.996521234e-21
1.255308906e-21
5.123031676e-22
2.043212061e-22
8.033937239e-23
3.162032888e-23
1.264990811e-23
5.131850656e-24
2.020681668e-24
6.936412904e-25
1.678116805e-25
1.738669281e-26
3.200244824e-28
-0.0002577883591
-4.769929501e-06
-4.70667342e-08
-1.179335336e-09
-1.891699428e-10
-1.427971716e-10
-1.198260255e-10
-8.861312281e-11
-5.890764665e-11
-3.591691004e-11
-1.988854336e-11
-9.856181458e-12
-4.176377567e-12
-1.340959367e-12
-1.311347714e-13
2.623846943e-13
3.104028501e-13
2.468512829e-13
1.690306212e-13
1.076142673e-13
6.619360138e-14
4.02955644e-14
2.467290747e-14
1.535231401e-14
9.754078694e-15
6.324061178e-15
4.165025442e-15
2.767239191e-15
1.841384288e-15
1.219917329e-15
8.016972569e-16
5.220426886e-16
3.37221604e-16
2.165985959e-16
1.385996584e-16
8.829786314e-17
5.574591536e-17
3.459113316e-17
2.088983322e-17
1.216934996e-17
6.797165423e-18
3.631071529e-18
1.857284902e-18
9.130729125e-19
4.336464172e-19
1.999283924e-19
8.977703547e-20
3.932161786e-20
1.680332619e-20
7.011495584e-21
2.866653877e-21
1.157327974e-21
4.66824455e-22
1.899764779e-22
7.743531461e-23
3.027072784e-23
1.029080636e-23
2.486333654e-24
2.696883398e-25
6.039978351e-27
-0.001056792861
-3.746638698e-05
-4.91182858e-07
-8.302254009e-09
-1.525273065e-09
-9.758444187e-10
-7.192969809e-10
-5.17121238e-10
-3.547410522e-10
-2.303221665e-10
-1.399825092e-10
-7.866013262e-11
-3.992635494e-11
-1.755740549e-11
-5.91781225e-12
-6.793777323e-13
1.17558979e-12
1.484102342e-12
1.232537508e-12
8.740185061e-13
5.714970533e-13
3.587377216e-13
2.216626844e-13
1.372139633e-13
8.594763603e-14
5.467289181e-14
3.5254536e-14
2.293025259e-14
1.495672981e-14
9.736349082e-15
6.307936694e-15
4.066134279e-15
2.613084161e-15
1.679708887e-15
1.082851005e-15
6.996124414e-16
4.503663314e-16
2.859000993e-16
1.768518594e-16
1.054850698e-16
6.024855564e-17
3.286453581e-17
1.714447608e-17
8.591589226e-18
4.160620357e-18
1.957738816e-18
8.982826242e-19
4.024941022e-19
1.761891973e-19
7.54236637e-20
3.168166821e-20
1.314515827e-20
5.433996011e-21
2.248709179e-21
9.210311356e-22
3.577035453e-22
1.202668939e-22
2.888058345e-23
3.183079576e-24
7.150841208e-26
-0.001810785748
-0.0001353918857
-4.199915367e-06
-7.68665428e-08
-8.690671183e-09
-4.192880271e-09
-2.793120631e-09
-1.96910313e-09
-1.382997184e-09
-9.458844575e-10
-6.214902156e-10
-3.878773718e-10
-2.268759656e-10
-1.220829262e-10
-5.831938216e-11
-2.270325387e-11
-4.930401549e-12
2.499992326e-12
4.595689212e-12
4.358661226e-12
3.376950649e-12
2.369446894e-12
1.574023247e-12
1.017650499e-12
6.50770099e-13
4.157353959e-13
2.660635566e-13
1.704492141e-13
1.089960193e-13
6.94176049e-14
4.400596178e-14
2.78107254e-14
1.758412341e-14
1.117827412e-14
7.177120716e-15
4.657723677e-15
3.037117137e-15
1.966149129e-15
1.24576089e-15
7.625057293e-16
4.467061133e-16
2.494343989e-16
1.328609504e-16
6.784566564e-17
3.346865185e-17
1.606624894e-17
7.539392094e-18
3.463842617e-18
1.557944019e-18
6.862125947e-19
2.966962085e-19
1.265594132e-19
5.357714287e-20
2.253842206e-20
9.295663873e-21
3.606319283e-21
1.207383939e-21
2.903001659e-22
3.22501579e-23
5.138142643e-25
-0.004053550668
-0.0002040837413
-2.011889708e-05
-6.800601625e-07
-3.219100709e-08
-1.108523475e-08
-6.884963882e-09
-4.851641266e-09
-3.502740025e-09
-2.509307713e-09
-1.75693752e-09
-1.190624718e-09
-7.7405357e-10
-4.778250212e-10
-2.759079118e-10
-1.451874344e-10
-6.57350862e-11
-2.1308348e-11
7.051269454e-13
9.486987935e-12
1.128879136e-11
9.997677609e-12
7.760144065e-12
5.595836986e-12
3.858838976e-12
2.591313843e-12
1.710062919e-12
1.113943417e-12
7.165536089e-13
4.550854927e-13
2.855071377e-13
1.774604834e-13
1.098874125e-13
6.829256706e-14
4.293860688e-14
2.747129651e-14
1.784766036e-14
1.164089341e-14
7.503201681e-15
4.703888759e-15
2.83131327e-15
1.62423728e-15
8.862918022e-16
4.615816592e-16
2.3140176e-16
1.128095147e-16
5.38708076e-17
2.527572713e-17
1.165360457e-17
5.27769672e-18
2.349733811e-18
1.031272218e-18
4.475530299e-19
1.91789729e-19
8.001946524e-20
3.128027696e-20
1.056465271e-20
2.587030886e-21
2.934128731e-22
-4.204757491e-25
-0.01615025904
-0.001097811355
-0.000116221696
-6.222468131e-06
-2.319077796e-07
-3.117815037e-08
-1.381190963e-08
-9.018197427e-09
-6.492052531e-09
-4.770879734e-09
-3.483293322e-09
-2.494394503e-09
-1.737665393e-09
-1.169198872e-09
-7.535783067e-10
-4.597400823e-10
-2.601369622e-10
-1.309839419e-10
-5.235696382e-11
-8.336185295e-12
1.323366988e-11
2.12282489e-11
2.178918808e-11
1.890596273e-11
1.493599332e-11
1.110771666e-11
7.914062606e-12
5.45996323e-12
3.668088781e-12
2.407436653e-12
1.545797504e-12
9.732341879e-13
6.034644287e-13
3.712060618e-13
2.285870217e-13
1.423718721e-13
9.033326427e-14
5.814772655e-14
3.747052848e-14
2.379570457e-14
1.466797307e-14
8.666242796e-15
4.871911095e-15
2.603035124e-15
1.330340616e-15
6.57973712e-16
3.182589904e-16
1.514487232e-16
7.106172532e-17
3.288806052e-17
1.501556016e-17
6.768687706e-18
3.013448701e-18
1.319730275e-18
5.601284963e-19
2.222665478e-19
7.643840794e-20
1.924172919e-20
2.244126295e-21
-6.036112643e-23
-0.07478897741
-0.006834739414
-0.0006708524616
-5.038428098e-05
-2.081305889e-06
-1.278803015e-07
-2.858993984e-08
-1.481451125e-08
-1.011577407e-08
-7.458680367e-09
-5.591897941e-09
-4.167124884e-09
-3.052964634e-09
-2.183607511e-09
-1.515479663e-09
-1.01342922e-09
-6.464805541e-10
-3.869142649e-10
-2.102986686e-10
-9.57160774e-11
-2.588510672e-11
1.294649699e-11
3.132926688e-11
3.706512187e-11
3.564763101e-11
3.075594333e-11
2.469563696e-11
1.87922824e-11
1.369394908e-11
9.621261392e-12
6.543141017e-12
4.320504687e-12
2.779633676e-12
1.75143935e-12
1.087985505e-12
6.716442951e-13
4.161935509e-13
2.608093029e-13
1.647197557e-13
1.037278564e-13
6.436388644e-14
3.890489244e-14
2.262372875e-14
1.252670026e-14
6.58625073e-15
3.322692832e-15
1.630175356e-15
7.845064774e-16
3.721719782e-16
1.745793982e-16
8.112209941e-17
3.736497311e-17
1.703580229e-17
7.64059557e-18
3.317847368e-18
1.347449859e-18
4.765518711e-19
1.248554404e-19
1.532339243e-20
-7.950329922e-22
-0.1161048235
-0.01321516705
-0.001242322506
-0.0001748070221
-1.280236295e-05
-6.424526847e-07
-6.788046709e-08
-2.335859438e-08
-1.422381493e-08
-1.030992467e-08
-7.853382971e-09
-6.036501463e-09
-4.605349036e-09
-3.45781377e-09
-2.540549022e-09
-1.817219945e-09
-1.257867375e-09
-8.354973268e-10
-5.25282863e-10
-3.046943968e-10
-1.537282242e-10
-5.547469213e-11
4.32627616e-12
3.706656517e-11
5.159650656e-11
5.457115709e-11
5.082529446e-11
4.372042995e-11
3.546754293e-11
2.742146085e-11
2.03205008e-11
1.448858421e-11
9.974742531e-12
6.658754585e-12
4.330205591e-12
2.757394324e-12
1.728612745e-12
1.074608602e-12
6.662587267e-13
4.12071319e-13
2.526888527e-13
1.526056717e-13
9.022422607e-14
5.173482279e-14
2.837639121e-14
1.480369299e-14
7.420946182e-15
3.621361791e-15
1.735198542e-15
8.209293325e-16
3.85239091e-16
1.798618076e-16
8.350299803e-17
3.828515869e-17
1.704979532e-17
7.131631393e-18
2.617678476e-18
7.235692219e-19
9.675681398e-20
-6.206030747e-21
-0.1377630171
-0.01837584876
-0.00187366637
-0.0003134041312
-4.292631118e-05
-3.174931877e-06
-2.178793202e-07
-4.047365962e-08
-1.932401334e-08
-1.324205269e-08
-1.010015723e-08
-7.940737256e-09
-6.263527108e-09
-4.898247691e-09
-3.772874243e-09
-2.848882856e-09
-2.099712296e-09
-1.502551631e-09
-1.037313695e-09
-6.833623496e-10
-4.212173437e-10
-2.331882896e-10
-1.03560559e-10
-1.87670201e-11
3.261442397e-11
5.996031699e-11
7.077517621e-11
7.090397042e-11
6.473825315e-11
5.543512721e-11
4.514489145e-11
3.522002426e-11
2.642485788e-11
1.911679106e-11
1.337354871e-11
9.080126433e-12
6.001815752e-12
3.870790027e-12
2.442136703e-12
1.513137795e-12
9.237962271e-13
5.551208172e-13
3.275456507e-13
1.894576934e-13
1.069617215e-13
5.82871424e-14
3.03926915e-14
1.520674894e-14
7.384180243e-15
3.520253257e-15
1.661997953e-15
7.815415618e-16
3.667350616e-16
1.708802702e-16
7.786078863e-17
3.360126671e-17
1.288359739e-17
3.803440182e-18
5.745476048e-19
-3.184311124e-20
-0.1793814937
-0.02731532336
-0.003692595317
-0.0004907169558
-0.0001135088851
-1.395372482e-05
-1.066047008e-06
-1.012057123e-07
-2.803710084e-08
-1.633894044e-08
-1.211926717e-08
-9.63442744e-09
-7.802293759e-09
-6.315477439e-09
-5.062209299e-09
-3.999410747e-09
-3.103137331e-09
-2.355474945e-09
-1.74174728e-09
-1.247640166e-09
-8.580673828e-10
-5.582109593e-10
-3.338410546e-10
-1.715987467e-10
-5.927733729e-11
1.398104293e-11
5.760329981e-11
7.958497842e-11
8.653089067e-11
8.372381926e-11
7.522570182e-11
6.401160861e-11
5.212344093e-11
4.085629449e-11
3.093999375e-11
2.269221588e-11
1.614271781e-11
1.114043837e-11
7.454891416e-12
4.83439351e-12
3.041246517e-12
1.861248965e-12
1.110431503e-12
6.466232069e-13
3.680521719e-13
2.047312459e-13
1.107056566e-13
5.774044522e-14
2.893288566e-14
1.401834891e-14
6.657305191e-15
3.139796489e-15
1.480251678e-15
6.962446678e-16
3.226738447e-16
1.432644954e-16
5.751822362e-17
1.831354529e-17
3.216215005e-18
-8.521743443e-20
-0.6000561698
-0.0917724086
-0.01394078613
-0.001775310313
-0.0003206730922
-5.369381793e-05
-5.834986203e-06
-4.588778134e-07
-5.63842069e-08
-2.049836381e-08
-1.35412488e-08
-1.063928083e-08
-8.764991306e-09
-7.306164323e-09
-6.050366247e-09
-4.976551387e-09
-4.033183222e-09
-3.210302164e-09
-2.501965308e-09
-1.902501965e-09
-1.404725e-09
-9.999480238e-10
-6.782959916e-10
-4.292381379e-10
-2.421849641e-10
-1.069069961e-10
-1.382274859e-11
4.583565693e-11
7.99084629e-11
9.523120691e-11
9.758353958e-11
9.166361249e-11
8.110103124e-11
6.853887548e-11
5.577380124e-11
4.391313303e-11
3.354063281e-11
2.486873357e-11
1.787722351e-11
1.243267109e-11
8.341725304e-12
5.390616344e-12
3.356633211e-12
2.015577103e-12
1.171613281e-12
6.618172322e-13
3.63904506e-13
1.949232561e-13
1.013763272e-13
5.092638085e-14
2.475711195e-14
1.177604868e-14
5.558360875e-15
2.621136839e-15
1.227014638e-15
5.573680986e-16
2.33956761e-16
8.093110219e-17
1.682588153e-17
2.56557225e-19
-0.9021121719
-0.1535802838
-0.02615637994
-0.003841261816
-0.0006447396058
-0.0001299594935
-2.102586822e-05
-2.355630651e-06
-2.067161799e-07
-3.244875101e-08
-1.43710275e-08
-1.040867921e-08
-8.60286679e-09
-7.344831586e-09
-6.259810161e-09
-5.315797956e-09
-4.45341598e-09
-3.671752944e-09
-2.972461905e-09
-2.357223198e-09
-1.825735941e-09
-1.375500932e-09
-1.001839146e-09
-6.983598266e-10
-4.5756829e-10
-2.715027252e-10
-1.322691577e-10
-3.238553098e-11
3.511964507e-11
7.674527003e-11
9.848749374e-11
1.057051665e-10
1.030220916e-10
9.423323092e-11
8.225389401e-11
6.916699889e-11
5.633397424e-11
4.455498665e-11
3.423067766e-11
2.550585878e-11
1.837848943e-11
1.275505881e-11
8.494827895e-12
5.415746471e-12
3.304733346e-12
1.936161035e-12
1.093090442e-12
5.969637226e-13
3.168272236e-13
1.636739251e-13
8.224208144e-14
4.020810978e-14
1.92638096e-14
9.137351575e-15
4.304089167e-15
1.98815508e-15
8.674349311e-16
3.257696975e-16
8.0583028e-17
5.030090914e-18
-1.026112269
-0.1938826193
-0.03675613327
-0.006423247246
-0.0009987811657
-0.0002272134273
-4.83751186e-05
-8.629019671e-06
-1.069518941e-06
-1.064022443e-07
-1.925077252e-08
-9.361289028e-09
-7.205173256e-09
-6.169888917e-09
-5.365054386e-09
-4.645185074e-09
-3.977437235e-09
-3.35847433e-09
-2.79140383e-09
-2.279862339e-09
-1.826040408e-09
-1.430240768e-09
-1.090956846e-09
-8.052192057e-10
-5.689841586e-10
-3.775803808e-10
-2.260473198e-10
-1.093907189e-10
-2.278335319e-11
3.824785086e-11
7.792970516e-11
1.004274879e-10
1.09686525e-10
1.093142947e-10
1.025141047e-10
9.190357441e-11
7.947723707e-11
6.664725348e-11
5.431849968e-11
4.302697331e-11
3.306504634e-11
2.457111555e-11
1.758114925e-11
1.205773326e-11
7.891800645e-12
4.915694971e-12
2.915198039e-12
1.651575107e-12
8.992863265e-13
4.738409387e-13
2.431077718e-13