/*--------------------------------*- C++ -*----------------------------------*\
  =========                 |
  \\      /  F ield         | OpenFOAM: The Open Source CFD Toolbox
   \\    /   O peration     | Website:  https://openfoam.org
    \\  /    A nd           | Version:  10
     \\/     M anipulation  |
\*---------------------------------------------------------------------------*/
FoamFile
{
    format      ascii;
    class       volScalarField;
    location    "3000";
    object      RR.C2H;
}
// * * * * * * * * * * * * * * * * * * * * * * * * * * * * * * * * * * * * * //

dimensions      [1 -3 -1 0 0 0 0];

internalField   nonuniform List<scalar> 
5170
(
-8.785490704e-73
-3.93201979e-73
-7.132220664e-74
-5.163810085e-75
-1.250066916e-76
-6.175812928e-70
-2.590967949e-70
-3.961256446e-71
-2.186151865e-72
-5.089689734e-74
-4.256031805e-67
-1.668442786e-67
-2.127779726e-68
-9.429616495e-70
-2.554681867e-71
-2.891522549e-64
-1.061199706e-64
-1.145329977e-65
-4.131119474e-67
-1.491809911e-68
-1.952350164e-61
-6.787222258e-62
-6.320478031e-63
-1.916170301e-64
-7.839480574e-66
-1.317622879e-58
-4.385757326e-59
-3.527900264e-60
-9.256483758e-62
-4.404351515e-63
-8.953196926e-56
-2.862815031e-56
-2.041645772e-57
-4.705930955e-59
-4.114239556e-60
-6.121506386e-53
-1.919543929e-53
-1.262163502e-54
-2.726190758e-56
-8.210906547e-57
-4.254175618e-50
-1.355109111e-50
-8.442922353e-52
-1.844679601e-53
-2.350134585e-53
-3.01806512e-47
-1.014879883e-47
-6.210092781e-49
-1.727157488e-50
-7.409853132e-50
-2.200266492e-44
-8.160835058e-45
-5.346399988e-46
-3.485999543e-47
-2.413339266e-46
-1.644347341e-41
-7.032118074e-42
-5.830504355e-43
-1.423743009e-43
-8.029950783e-43
-1.261600006e-38
-6.564371775e-39
-8.701958138e-40
-7.395464628e-40
-2.726503528e-39
-9.947290784e-36
-6.59137288e-36
-1.72031654e-36
-3.967153875e-36
-1.158916531e-35
-8.012994758e-33
-7.191129065e-33
-4.135366555e-33
-2.063189198e-32
-6.799419024e-32
-6.596516022e-30
-8.364575902e-30
-1.092855893e-29
-9.910356771e-29
-4.105573974e-28
-5.406958035e-27
-1.040103687e-26
-2.972252536e-26
-4.262507767e-25
-2.484608696e-24
-4.423568389e-24
-1.338885044e-23
-7.929851755e-23
-1.698038073e-21
-1.506615503e-20
-3.331586063e-21
-1.686877575e-20
-1.962349334e-19
-5.892133331e-18
-9.158346784e-17
-2.181735687e-18
-2.017710489e-17
-4.617045103e-16
-1.957330644e-14
-5.418238307e-13
3.044352703e-25
1.957400067e-26
-4.954518951e-27
9.829385441e-27
-1.243940444e-26
-2.640069254e-26
-1.409999293e-26
-5.992126876e-27
-2.920093858e-26
-2.438417668e-26
-1.132579673e-26
-7.857371302e-27
-4.475247529e-27
-9.741260601e-27
-8.119612852e-27
-5.325249389e-27
-4.290515221e-27
-3.082798588e-27
-5.030016198e-27
-3.64460043e-27
-2.662453559e-27
-2.598778632e-27
-2.096880805e-27
-3.035445538e-27
-1.84855583e-27
-1.40207644e-27
-1.619176046e-27
-1.428970604e-27
-1.996152862e-27
-9.521370456e-28
-7.881870072e-28
-1.041666418e-27
-9.650487652e-28
-1.203316034e-27
-2.837641012e-28
-4.409877258e-28
-6.7119664e-28
-6.493865114e-28
-7.714179858e-28
-2.586684935e-28
-2.575683929e-28
-4.213412816e-28
-4.392262205e-28
-5.331918447e-28
-1.329734912e-28
-1.511725872e-28
-2.731680503e-28
-3.028318515e-28
-2.532081193e-28
-1.193941237e-28
-9.718553159e-29
-1.713742523e-28
-1.901991457e-28
-9.07482428e-28
8.385695747e-29
-1.686108313e-27
-6.665497837e-28
-3.242221227e-28
-5.865267438e-28
-1.447079697e-28
-2.752689995e-25
-9.877116788e-26
-3.711397057e-26
-4.493834956e-26
-1.886618574e-26
-4.681006576e-23
-1.761752834e-23
-7.392176366e-24
-1.310282401e-23
-4.099649419e-24
-8.000433302e-21
-3.19613397e-21
-1.481997463e-21
-3.353817103e-21
-8.639835438e-22
-1.382715082e-18
-5.953760424e-19
-2.861784527e-19
-4.392896026e-19
-1.62927674e-19
-2.412520366e-16
-1.138380249e-16
-5.062148748e-17
-4.743662601e-17
-2.464700421e-17
-4.355208175e-14
-2.265729217e-14
-8.471934341e-15
7.168523335e-17
-3.03041915e-15
9.111131891e-12
4.928371862e-12
-1.35421998e-12
8.46820166e-13
-2.706407919e-13
-1.183664554e-10
2.410018649e-10
1.598289643e-10
9.620881978e-11
-1.364509117e-11
-4.284479789e-16
-6.336643235e-15
-3.403293185e-13
-3.059272084e-11
-1.457770215e-09
-2.671798372e-14
-4.340143797e-13
-2.408515184e-11
-1.752264574e-09
-5.564451486e-08
-8.536734927e-14
-1.199671997e-12
-5.338570029e-11
-2.587824722e-09
-5.100982872e-08
-3.457371819e-12
-6.505505892e-11
-3.381874599e-09
-1.438317892e-07
-2.47801788e-06
-1.167775043e-11
-1.940999372e-10
-7.87627994e-09
-2.185771764e-07
-2.64969155e-06
-2.360584831e-11
-3.38598727e-10
-1.036580837e-08
-2.001829177e-07
-1.784615275e-06
-4.22522672e-11
-5.491067583e-10
-1.273835489e-08
-1.689019306e-07
-1.083078834e-06
-1.165799273e-10
-1.661602097e-09
-3.390528962e-08
-3.765185099e-07
-2.403229272e-06
-3.813672057e-10
-5.288373442e-09
-8.155740269e-08
-6.765789649e-07
-3.638590588e-06
-1.025160005e-09
-1.211459327e-08
-1.321648245e-07
-8.127381391e-07
-3.578167095e-06
-2.394307282e-09
-2.092065658e-08
-1.575449698e-07
-7.529704733e-07
-2.774590844e-06
-4.898801514e-09
-3.151501807e-08
-1.850660066e-07
-7.836735477e-07
-2.74313286e-06
-1.063739474e-08
-5.400465927e-08
-2.772233279e-07
-1.127763743e-06
-3.945202361e-06
-2.319784317e-08
-9.36252229e-08
-4.119474139e-07
-1.511728136e-06
-4.829930603e-06
-4.683363755e-08
-1.449719439e-07
-5.303893708e-07
-1.698941705e-06
-4.824788185e-06
-8.207671357e-08
-1.984686366e-07
-6.008681692e-07
-1.681822794e-06
-4.281635666e-06
-1.319283668e-07
-2.607798029e-07
-6.712342086e-07
-1.700245907e-06
-4.063477101e-06
-2.248134033e-07
-3.978955206e-07
-9.406666043e-07
-2.313265286e-06
-5.57551904e-06
-4.242733578e-07
-6.917148259e-07
-1.508191818e-06
-3.514497711e-06
-8.150445712e-06
-7.451988632e-07
-1.127919447e-06
-2.237661613e-06
-4.805844799e-06
-1.038726902e-05
-1.145145221e-06
-1.618086905e-06
-2.929874263e-06
-5.788927895e-06
-1.16408937e-05
-1.547040511e-06
-2.071102133e-06
-3.473598276e-06
-6.380669429e-06
-1.203223196e-05
-1.929175892e-06
-2.474551121e-06
-3.895554806e-06
-6.727513805e-06
-1.204195623e-05
-2.342892001e-06
-2.917785216e-06
-4.381239691e-06
-7.232214372e-06
-1.246490338e-05
-2.951996384e-06
-3.605179302e-06
-5.241735608e-06
-8.41303972e-06
-1.415394794e-05
-3.96795065e-06
-4.776743659e-06
-6.808932486e-06
-1.061563449e-05
-1.747723048e-05
-5.619210984e-06
-6.668808815e-06
-9.213741721e-06
-1.405412281e-05
-2.249250899e-05
-8.128158247e-06
-9.505358863e-06
-1.28876595e-05
-1.888247516e-05
-2.932157837e-05
-1.165279816e-05
-1.341052259e-05
-1.804310246e-05
-2.60020964e-05
-3.863111014e-05
-1.706793167e-05
-1.946894143e-05
-2.509029264e-05
-3.50862027e-05
-5.151525875e-05
-2.54405752e-05
-2.857741008e-05
-3.6083546e-05
-4.941588965e-05
-6.985402695e-05
-3.910980717e-05
-4.354027848e-05
-5.367591169e-05
-7.103838691e-05
-9.788902074e-05
-6.116193726e-05
-6.705561039e-05
-8.0915479e-05
-0.0001031759075
-0.0001352035488
-9.215695542e-05
-9.89630998e-05
-0.0001134125663
-0.0001345365436
-0.0001591010971
-9.142149476e-05
-9.433966743e-05
-9.760962116e-05
-9.645156728e-05
-8.312104909e-05
2.36849272e-05
2.936331238e-05
4.423488507e-05
6.862523766e-05
0.0001103243506
0.0001524699542
0.0001583611668
0.0001726003586
0.0001951661843
0.0002289591019
0.0001544829614
0.0001590820183
0.0001702277767
0.0001888538895
0.0002173715638
9.887249896e-05
0.0001049912285
0.0001192202457
0.0001429873326
0.0001789033526
7.269260756e-05
8.136690712e-05
9.988170694e-05
0.0001250614278
0.0001446449267
-9.68168739e-06
-2.458340585e-05
-6.610020497e-05
-0.0001440519895
-0.0002426694673
-0.0002076922433
-0.0002050219904
-0.0001978163773
-0.0001855217277
-0.0001691890079
-8.74392779e-05
-8.585566902e-05
-8.249353809e-05
-7.769559258e-05
-7.181345312e-05
-3.613287973e-05
-3.558456725e-05
-3.441072676e-05
-3.271706679e-05
-3.060723065e-05
-1.515106498e-05
-1.495303031e-05
-1.452801678e-05
-1.391003153e-05
-1.313157003e-05
-6.43359837e-06
-6.360250609e-06
-6.20203675e-06
-5.970548018e-06
-5.676484084e-06
-2.763669067e-06
-2.735694207e-06
-2.675321154e-06
-2.586605701e-06
-2.473203765e-06
-1.19957154e-06
-1.188719963e-06
-1.165218477e-06
-1.130557967e-06
-1.08602934e-06
-5.25770073e-07
-5.214660095e-07
-5.121466695e-07
-4.983659838e-07
-4.805921315e-07
-2.325639094e-07
-2.308351164e-07
-2.270822338e-07
-2.215192264e-07
-2.1432014e-07
-1.038172439e-07
-1.031103317e-07
-1.015762808e-07
-9.929819649e-08
-9.634198776e-08
-4.677505921e-08
-4.648288237e-08
-4.584758736e-08
-4.490241694e-08
-4.367283245e-08
-2.127765993e-08
-2.115499727e-08
-2.088834139e-08
-2.049103877e-08
-1.997305889e-08
-9.773325653e-09
-9.721282481e-09
-9.607962485e-09
-9.438864301e-09
-9.217951991e-09
-4.532891747e-09
-4.510487512e-09
-4.461708217e-09
-4.388829238e-09
-4.293448159e-09
-2.122251409e-09
-2.112505955e-09
-2.091259962e-09
-2.059478073e-09
-2.017814857e-09
-1.002765945e-09
-9.984751012e-10
-9.891222662e-10
-9.751194838e-10
-9.567402203e-10
-4.784168705e-10
-4.765234295e-10
-4.723935094e-10
-4.662083158e-10
-4.580871356e-10
-2.272994049e-10
-2.262356332e-10
-2.239196645e-10
-2.206879646e-10
-2.169606201e-10
-1.103417727e-10
-1.099040823e-10
-1.089492493e-10
-1.07517469e-10
-1.056338386e-10
-5.495157727e-11
-5.477380118e-11
-5.438555382e-11
-5.380183304e-11
-5.302947011e-11
-2.759163664e-11
-2.750590663e-11
-2.731862081e-11
-2.703694835e-11
-2.666470112e-11
-1.40513869e-11
-1.400877302e-11
-1.391567436e-11
-1.37754944e-11
-1.358989532e-11
-7.297831272e-12
-7.275334752e-12
-7.226151258e-12
-7.152008882e-12
-7.05368339e-12
-3.890864857e-12
-3.877826954e-12
-3.849334928e-12
-3.806384517e-12
-3.749426908e-12
-2.139357828e-12
-2.13100497e-12
-2.112767708e-12
-2.085322e-12
-2.049019303e-12
-1.223853005e-12
-1.218096051e-12
-1.205552293e-12
-1.186738544e-12
-1.161975148e-12
-7.324672245e-13
-7.284425317e-13
-7.196937966e-13
-7.066270528e-13
-6.895327947e-13
-4.694217764e-13
-4.665677281e-13
-4.603799902e-13
-4.511806073e-13
-4.392249154e-13
-3.415338711e-13
-3.395491763e-13
-3.352533942e-13
-3.288863961e-13
-3.206482702e-13
-5.28393972e-09
-5.507545883e-07
-3.8013942e-07
-1.843951393e-05
-1.462988401e-05
-7.547307251e-06
-3.618711124e-06
-9.24002377e-06
-1.225133014e-05
-1.024561413e-05
-6.916861017e-06
-6.809467697e-06
-9.91816185e-06
-1.117689119e-05
-1.013307159e-05
-8.285711195e-06
-7.615036939e-06
-1.071060675e-05
-1.51680386e-05
-1.828808933e-05
-1.941135001e-05
-1.918364719e-05
-1.851879271e-05
-1.870653879e-05
-2.092667711e-05
-2.545731264e-05
-3.212436873e-05
-4.095467807e-05
-5.251237756e-05
-6.846631934e-05
-9.133922081e-05
-0.0001244339579
-0.0001644941386
-0.0001762062133
-6.443180979e-05
0.0001489911798
0.0002605789287
0.0002461524152
0.0002136892958
0.0001386267851
-0.0002919050212
-0.0001571656362
-6.748351571e-05
-2.902267813e-05
-1.253867362e-05
-5.45015588e-06
-2.385219879e-06
-1.051257828e-06
-4.666403319e-07
-2.086441255e-07
-9.400245548e-08
-4.269645776e-08
-1.956052738e-08
-9.041527105e-09
-4.217086472e-09
-1.984385395e-09
-9.419674714e-10
-4.515565785e-10
-2.139643506e-10
-1.04349056e-10
-5.240278028e-11
-2.636230658e-11
-1.343851573e-11
-6.973086014e-12
-3.702556742e-12
-2.019107934e-12
-1.141617347e-12
-6.755457614e-13
-4.294976758e-13
-3.139764694e-13
-1.027380463e-08
-1.96914464e-08
-1.872878641e-09
4.796880767e-10
-5.054348708e-11
-1.985045651e-06
3.82310832e-06
-4.946739242e-07
-2.580472306e-08
-1.494012745e-09
-1.137677599e-06
-4.327008669e-06
-1.175373106e-05
-1.275844285e-06
-8.205132913e-08
-6.794597691e-05
-0.0006113826327
0.001289214641
-0.000286706232
-1.613168952e-05
-4.459285348e-05
-0.000296881432
-0.0002061571091
-0.0001163750124
-8.855575072e-06
-1.962792816e-05
-9.823542505e-05
-0.0001147361774
-3.479716236e-05
-3.431154241e-06
-8.320835517e-06
-3.331751952e-05
-2.791390676e-05
-2.963825056e-05
-5.724895442e-06
-2.533637731e-05
-0.0001567385801
-0.0008253515448
0.00217978518
-0.0004985286132
-3.080865811e-05
-0.0001608749957
-0.0007084814093
0.0009608107916
-0.0004037761507
-2.327837169e-05
-9.925956773e-05
-0.000349418839
0.0001528160606
-0.0001897082929
-1.446306876e-05
-5.247494626e-05
-0.000157862526
6.920429703e-05
-9.870129247e-05
-1.458137206e-05
-5.781506757e-05
-0.000207236696
-0.0005388903644
0.0013884853
-2.160548236e-05
-8.825833251e-05
-0.0003259596879
-0.001057301238
0.00290006
-2.299111524e-05
-8.247021593e-05
-0.0002627642732
-0.0007197127756
0.001000910009
-1.954138973e-05
-6.149781012e-05
-0.0001727987293
-0.000414295022
0.0005064427555
-1.515920525e-05
-4.314150364e-05
-0.0001109430048
-0.0002421641937
0.0002949250229
-1.379019138e-05
-3.935057713e-05
-0.0001056183381
-0.0002593529833
-0.0002128216652
-2.001066465e-05
-6.139260085e-05
-0.0001791326209
-0.0004949147165
-0.001099083171
-2.776544937e-05
-8.095368443e-05
-0.000221981192
-0.0005711749512
-0.001235060145
-3.220409917e-05
-8.672475628e-05
-0.0002199264684
-0.0005225373181
-0.001040660458
-3.291991516e-05
-8.252446129e-05
-0.0001961684047
-0.0004375333219
-0.0008052479838
-3.14750642e-05
-7.438100986e-05
-0.0001680031608
-0.000356432694
-0.0006100140493
-2.956169654e-05
-6.671861322e-05
-0.0001449763324
-0.0002957574081
-0.0004738734807
-2.932300925e-05
-6.440623568e-05
-0.0001371875712
-0.0002746777766
-0.0004307425264
-3.245317203e-05
-7.03490008e-05
-0.0001488076395
-0.0002972123662
-0.0004761441892
-3.900063071e-05
-8.286007288e-05
-0.0001721361836
-0.0003371515558
-0.0005298093161
-4.833031724e-05
-9.939277812e-05
-0.0001996979883
-0.0003747691423
-0.0005418298857
-6.034810749e-05
-0.000119157338
-0.0002290587685
-0.0004028718791
-0.0004914615032
-7.568761794e-05
-0.0001430403257
-0.0002603678186
-0.0004150320461
-0.0003552273101
-9.745030046e-05
-0.0001731218061
-0.0002927729305
-0.0003951628697
-0.0001070809209
-0.0001248128028
-0.0002107422429
-0.0003172676222
-0.0003079979754
0.0002536285379
-0.0001631299951
-0.0002484662763
-0.0002998569077
-0.0001047861391
0.0006630443818
-0.0001998154703
-0.0002467146714
-0.0001681194171
0.000223483463
0.001004209127
-0.0001778569018
-0.0001164661865
0.0001185033726
0.0005773099047
0.001187661334
-6.953679068e-06
0.0001558866373
0.0004315279294
0.0008091016753
0.001192305673
0.0002179230992
0.0003690630912
0.0005765974631
0.000832781217
0.0007860002891
0.0003075710577
0.0004195153222
0.0005778736063
0.0006806453569
-0.0003015316525
0.0002866841147
0.0003911646429
0.0004759863365
-7.660900789e-05
-0.0005267291391
0.0002558995521
0.0002857497818
-0.0001482680102
-0.000466640409
-0.0003210854097
4.43943677e-05
-0.0003147686456
-0.0003678427676
-0.0002629681466
-0.0001830471688
-0.000299698805
-0.0002447839742
-0.0001850630908
-0.0001364194641
-9.857996837e-05
-0.0001395654245
-0.0001128544736
-8.856215623e-05
-6.774256492e-05
-5.07044351e-05
-6.113235806e-05
-5.098548681e-05
-4.130676962e-05
-3.262427087e-05
-2.520267044e-05
-2.66829886e-05
-2.280562141e-05
-1.896814835e-05
-1.539561716e-05
-1.222755427e-05
-1.165904075e-05
-1.01616767e-05
-8.636694673e-06
-7.173729375e-06
-5.83588275e-06
-5.113168636e-06
-4.527689293e-06
-3.917791016e-06
-3.318230975e-06
-2.755710655e-06
-2.253868015e-06
-2.02193956e-06
-1.775929566e-06
-1.529205738e-06
-1.292710175e-06
-9.99242653e-07
-9.061861453e-07
-8.060103311e-07
-7.038666199e-07
-6.041797376e-07
-4.457387077e-07
-4.079386381e-07
-3.667468326e-07
-3.241605298e-07
-2.819606035e-07
-2.001311702e-07
-1.84595021e-07
-1.674904816e-07
-1.495980794e-07
-1.31635815e-07
-9.049059343e-08
-8.403169397e-08
-7.68584718e-08
-6.927904626e-08
-6.158326878e-08
-4.122978905e-08
-3.851418942e-08
-3.547538691e-08
-3.223611214e-08
-2.891432269e-08
-1.894047361e-08
-1.778571118e-08
-1.648491425e-08
-1.508748276e-08
-1.364173446e-08
-8.776210709e-09
-8.279535914e-09
-7.716757437e-09
-7.107973675e-09
-6.473150098e-09
-4.102195853e-09
-3.886139104e-09
-3.640051794e-09
-3.372209376e-09
-3.090947802e-09
-1.934068287e-09
-1.839069046e-09
-1.730377073e-09
-1.611449472e-09
-1.485815407e-09
-9.197261752e-10
-8.776051677e-10
-8.292506316e-10
-7.761428808e-10
-7.19818007e-10
-4.417269818e-10
-4.231056612e-10
-4.017439428e-10
-3.783365636e-10
-3.475878959e-10
-2.094722949e-10
-2.009899732e-10
-1.91312875e-10
-1.806213906e-10
-1.676748837e-10
-1.024753766e-10
-9.88615912e-11
-9.462263756e-11
-8.979577549e-11
-8.446023439e-11
-5.14585505e-11
-4.964126103e-11
-4.751756148e-11
-4.513490139e-11
-4.254321239e-11
-2.590763815e-11
-2.502857051e-11
-2.399622324e-11
-2.283172513e-11
-2.155765236e-11
-1.321246098e-11
-1.27726159e-11
-1.22535846e-11
-1.166477511e-11
-1.101692206e-11
-6.853143403e-12
-6.617796454e-12
-6.340857902e-12
-6.025826384e-12
-5.678614908e-12
-3.633595469e-12
-3.497650391e-12
-3.337201528e-12
-3.155488825e-12
-2.956552724e-12
-1.975726262e-12
-1.890279002e-12
-1.790547433e-12
-1.679022593e-12
-1.558786847e-12
-1.112507732e-12
-1.055573719e-12
-9.902769645e-13
-9.189077298e-13
-8.441057059e-13
-6.558074788e-13
-6.176265386e-13
-5.747687467e-13
-5.291523464e-13
-4.828749037e-13
-4.159216859e-13
-3.900099183e-13
-3.615952795e-13
-3.322296157e-13
-3.035301675e-13
-3.047194999e-13
-2.872291977e-13
-2.683563282e-13
-2.492541311e-13
-2.310917338e-13
-3.874581881e-12
-7.135152994e-14
-3.314007097e-15
-3.331087372e-16
-7.059192459e-17
-1.813756365e-17
-4.473079736e-18
-1.03861653e-18
-2.36366692e-19
-5.799075736e-20
-1.85449299e-20
-9.365126666e-21
-6.875778165e-21
-5.934123146e-21
-5.353571038e-21
-4.82837616e-21
-4.276924013e-21
-3.689342056e-21
-3.085171197e-21
-2.494180772e-21
-1.946267155e-21
-1.464790406e-21
-1.063025808e-21
-7.439007145e-22
-5.020859951e-22
-3.270835035e-22
-2.058772809e-22
-1.253371394e-22
-7.389330841e-23
-4.224676756e-23
-2.346107092e-23
-1.267978448e-23
-6.68588041e-24
-3.450796437e-24
-1.751028705e-24
-8.78266066e-25
-4.37916948e-25
-2.180038431e-25
-1.084431026e-25
-5.36906576e-26
-2.624465149e-26
-1.253803815e-26
-5.797242666e-27
-2.574158836e-27
-1.091978093e-27
-4.413656324e-28
-1.698885945e-28
-6.234293158e-29
-2.186069565e-29
-7.347783666e-30
-2.375854739e-30
-7.41824065e-31
-2.245087076e-31
-6.607963302e-32
-1.894725247e-32
-5.271243386e-33
-1.388101229e-33
-3.22566887e-34
-5.66177497e-35
-7.298484671e-36
-6.983755719e-11
-1.263479465e-12
-4.618581351e-14
-3.654991177e-15
-5.246547219e-16
-9.309726317e-17
-1.721262273e-17
-3.288307425e-18
-7.277432133e-19
-2.304541143e-19
-1.161013866e-19
-8.084077991e-20
-6.485775016e-20
-5.469090686e-20
-4.661835853e-20
-3.94623052e-20
-3.289561885e-20
-2.688301751e-20
-2.147712498e-20
-1.67277449e-20
-1.2672326e-20
-9.320018032e-21
-6.647072957e-21
-4.593168852e-21
-3.07452761e-21
-1.993721976e-21
-1.253031629e-21
-7.637939693e-22
-4.519328655e-22
-2.598312905e-22
-1.453446282e-22
-7.924443033e-23
-4.221386028e-23
-2.20472344e-23
-1.134289035e-23
-5.782007857e-24
-2.936969765e-24
-1.491786866e-24
-7.570244363e-25
-3.815034731e-25
-1.890879957e-25
-9.118755008e-26
-4.238241669e-26
-1.88528202e-26
-7.99267326e-27
-3.224266514e-27
-1.238177202e-27
-4.535295021e-28
-1.589297021e-28
-5.347555211e-29
-1.734432169e-29
-5.444431785e-30
-1.660306952e-30
-4.933870712e-31
-1.429846783e-31
-4.018098065e-32
-1.069045439e-32
-2.525145594e-33
-4.69303042e-34
-5.038195725e-35
-1.995384537e-09
-1.990709116e-11
-2.668087522e-13
-1.480377268e-14
-1.573134606e-15
-2.365576758e-16
-4.162571068e-17
-8.916240437e-18
-2.680944177e-18
-1.189294393e-18
-7.023290525e-19
-4.940131804e-19
-3.812314696e-19
-3.097111813e-19
-2.556264169e-19
-2.093502398e-19
-1.68101271e-19
-1.3176907e-19
-1.007556347e-19
-7.514393533e-20
-5.469741591e-20
-3.885297034e-20
-2.692903539e-20
-1.821648199e-20
-1.201210401e-20
-7.717148525e-21
-4.829931618e-21
-2.945477472e-21
-1.75114924e-21
-1.016109592e-21
-5.758203876e-22
-3.19083198e-22
-1.732893959e-22
-9.255579591e-23
-4.885900669e-23
-2.564201015e-23
-1.344745854e-23
-7.058584786e-24
-3.694334299e-24
-1.91086373e-24
-9.656489897e-25
-4.71524962e-25
-2.205478073e-25
-9.825650658e-26
-4.158645146e-26
-1.671954076e-26
-6.398047613e-27
-2.338126055e-27
-8.193591751e-28
-2.765490297e-28
-9.028267829e-29
-2.86202898e-29
-8.840699492e-30
-2.667198176e-30
-7.852107935e-31
-2.235285619e-31
-5.988663664e-32
-1.404046106e-32
-2.474745174e-33
-2.165461336e-34
-4.782786863e-07
-5.800951283e-09
-3.621870551e-11
-4.891150012e-13
-1.969715736e-14
-1.616261355e-15
-2.423683886e-16
-6.145945566e-17
-2.197917315e-17
-9.729636843e-18
-5.097741455e-18
-3.112978675e-18
-2.146227377e-18
-1.602815766e-18
-1.242377005e-18
-9.70327815e-19
-7.551934837e-19
-5.786481598e-19
-4.316834474e-19
-3.124546038e-19
-2.195598965e-19
-1.501103292e-19
-1.001224095e-19
-6.529303318e-20
-4.171914806e-20
-2.616181888e-20
-1.610834102e-20
-9.737079498e-21
-5.777883669e-21
-3.365472162e-21
-1.926095082e-21
-1.084791983e-21
-6.027182137e-22
-3.314933071e-22
-1.813157168e-22
-9.910726073e-23
-5.428400773e-23
-2.973499746e-23
-1.616520915e-23
-8.621998547e-24
-4.456637046e-24
-2.208895184e-24
-1.041937899e-24
-4.656688812e-25
-1.969242467e-25
-7.892764372e-26
-3.009689038e-26
-1.097597925e-26
-3.850058665e-27
-1.306105442e-27
-4.305934413e-28
-1.384837534e-28
-4.355362457e-29
-1.340288096e-29
-4.020476461e-30
-1.15989672e-30
-3.109489256e-31
-7.142108392e-32
-1.14932285e-32
-8.209321348e-34
-3.745019027e-07
-7.223756141e-09
-6.645002376e-11
-8.265575813e-13
-4.419627385e-14
-7.589083306e-15
-2.22183435e-15
-7.571500817e-16
-2.82103887e-16
-1.148586916e-16
-5.185521435e-17
-2.643727244e-17
-1.528836635e-17
-9.894756306e-18
-6.937943502e-18
-5.085236585e-18
-3.768334495e-18
-2.766586822e-18
-1.996177783e-18
-1.415815258e-18
-9.757185414e-19
-6.521297498e-19
-4.226409423e-19
-2.662325802e-19
-1.636622952e-19
-9.866930368e-20
-5.860971662e-20
-3.440381969e-20
-1.998386497e-20
-1.149420294e-20
-6.552486944e-21
-3.707642561e-21
-2.086819951e-21
-1.172276237e-21
-6.600622168e-22
-3.738172736e-22
-2.128470474e-22
-1.210610836e-22
-6.798781915e-23
-3.719032629e-23
-1.957344773e-23
-9.820785112e-24
-4.669436458e-24
-2.097705145e-24
-8.903952806e-25
-3.580144875e-25
-1.369827396e-25
-5.016629102e-26
-1.769888346e-26
-6.053569558e-27
-2.018453833e-27
-6.588987325e-28
-2.110270811e-28
-6.623470605e-29
-2.023277408e-29
-5.902787549e-30
-1.578769623e-30
-3.542872293e-31
-5.197476815e-32
-3.183731175e-33
-1.962709301e-07
-6.948070109e-09
-1.100938769e-10
-1.324928286e-12
-9.354570267e-14
-2.831458713e-14
-1.230368639e-14
-5.499402803e-15
-2.434603375e-15
-1.085452747e-15
-5.003929645e-16
-2.450608527e-16
-1.303880881e-16
-7.632772291e-17
-4.894728856e-17
-3.346903194e-17
-2.359181727e-17
-1.669358111e-17
-1.166756112e-17
-8.003904049e-18
-5.369463591e-18
-3.51838818e-18
-2.23856072e-18
-1.38097521e-18
-8.270858626e-19
-4.831496278e-19
-2.766207837e-19
-1.558820438e-19
-8.680937294e-20
-4.800882767e-20
-2.648881364e-20
-1.46342137e-20
-8.122737971e-21
-4.54706054e-21
-2.577710437e-21
-1.483486606e-21
-8.630193765e-22
-5.019191381e-22
-2.874341275e-22
-1.59579162e-22
-8.478168241e-23
-4.273133555e-23
-2.033851949e-23
-9.130788275e-24
-3.875643721e-24
-1.562502579e-24
-6.018201633e-25
-2.22746955e-25
-7.965756932e-26
-2.766440169e-26
-9.372109887e-27
-3.108787769e-27
-1.011713302e-27
-3.22504083e-28
-9.986718604e-29
-2.93916227e-29
-7.847176607e-30
-1.72339354e-30
-2.323370476e-31
-1.27449859e-32
-6.541315788e-07
-4.10116028e-08
-1.432350253e-09
-2.849087119e-11
-7.702843494e-13
-1.55252895e-13
-6.179870833e-14
-2.780414024e-14
-1.273690643e-14
-5.88381433e-15
-2.77749435e-15
-1.372301075e-15
-7.282446049e-16
-4.22772453e-16
-2.684278113e-16
-1.83091882e-16
-1.300653027e-16
-9.360836866e-17
-6.711204762e-17
-4.722549017e-17
-3.255971396e-17
-2.174378005e-17
-1.394019365e-17
-8.598588878e-18
-5.1249785e-18
-2.972958783e-18
-1.681505699e-18
-9.26846166e-19
-4.994227072e-19
-2.64842268e-19
-1.393521457e-19
-7.324615787e-20
-3.873480272e-20
-2.077740473e-20
-1.138642083e-20
-6.400109029e-21
-3.677949311e-21
-2.129303997e-21
-1.21886918e-21
-6.773107895e-22
-3.599019366e-22
-1.811272877e-22
-8.590516369e-23
-3.835299963e-23
-1.617581801e-23
-6.498813996e-24
-2.509826758e-24
-9.386084803e-25
-3.414882404e-25
-1.211973759e-25
-4.202581633e-26
-1.425375333e-26
-4.729487506e-27
-1.531297022e-27
-4.795802441e-28
-1.421003549e-28
-3.794067481e-29
-8.169958907e-30
-1.025613355e-30
-5.158697387e-32
-4.588589834e-05
-3.711799329e-06
-1.745765657e-07
-4.419054152e-09
-8.34738623e-11
-4.423650965e-12
-6.853407295e-13
-1.798574139e-13
-5.774848208e-14
-2.116004894e-14
-8.732904922e-15
-4.029073725e-15
-2.07477727e-15
-1.198425904e-15
-7.763654933e-16
-5.548051093e-16
-4.240731238e-16
-3.347577011e-16
-2.646536901e-16
-2.05385002e-16
-1.537763147e-16
-1.101045228e-16
-7.498343898e-17
-4.897165617e-17
-3.067195159e-17
-1.859675382e-17
-1.080562191e-17
-6.012762255e-18
-3.233163069e-18
-1.696509356e-18
-8.748609073e-19
-4.443672725e-19
-2.241507448e-19
-1.136909196e-19
-5.863689935e-20
-3.095334948e-20
-1.677723817e-20
-9.282553808e-21
-5.149863481e-21
-2.80526729e-21
-1.473212642e-21
-7.358916655e-22
-3.469223901e-22
-1.538603119e-22
-6.436175573e-23
-2.564498918e-23
-9.860775383e-24
-3.699359998e-24
-1.362405201e-24
-4.933880637e-25
-1.754995533e-25
-6.117273941e-26
-2.082993405e-26
-6.893595114e-27
-2.194022636e-27
-6.564886425e-28
-1.757127057e-28
-3.737720946e-29
-4.465279596e-30
-2.065057942e-31
-4.494885399e-05
-4.50336526e-06
-3.74177163e-07
-1.692674161e-08
-4.013982446e-10
-1.37581091e-11
-1.424746412e-12
-3.159543823e-13
-1.015356352e-13
-3.860809015e-14
-1.634888175e-14
-7.608737322e-15
-3.917937453e-15
-2.26680317e-15
-1.486486336e-15
-1.091721177e-15
-8.707546517e-16
-7.279449914e-16
-6.193834217e-16
-5.254419048e-16
-4.382735058e-16
-3.55937008e-16
-2.789759995e-16
-2.086236619e-16
-1.479512572e-16
-9.864480257e-17
-6.163633269e-17
-3.638493584e-17
-2.05039245e-17
-1.117376164e-17
-5.863729338e-18
-2.964085026e-18
-1.465747392e-18
-7.204965474e-19
-3.55175175e-19
-1.758664954e-19
-8.801950031e-20
-4.473373231e-20
-2.302026063e-20
-1.185210375e-20
-5.99349816e-21
-2.932742832e-21
-1.369534612e-21
-6.039820809e-22
-2.505760616e-22
-9.871304781e-23
-3.756604772e-23
-1.400031177e-23
-5.15202055e-24
-1.879101373e-24
-6.791099672e-25
-2.422024712e-25
-8.470265675e-26
-2.879161109e-26
-9.38252032e-27
-2.858282657e-27
-7.732704733e-28
-1.643330254e-28
-1.90500656e-29
-8.448813723e-31
-2.593439767e-05
-3.158184001e-06
-3.408794628e-07
-2.701520795e-08
-1.161646974e-09
-3.395559204e-11
-2.078678502e-12
-3.492279448e-13
-1.08561931e-13
-4.435256745e-14
-2.04831971e-14
-1.022934959e-14
-5.534651341e-15
-3.317640933e-15
-2.246217463e-15
-1.71026132e-15
-1.422770469e-15
-1.246854875e-15
-1.116944903e-15
-1.00221576e-15
-8.892900986e-16
-7.739817395e-16
-6.568594597e-16
-5.408094963e-16
-4.298552825e-16
-3.28198076e-16
-2.394407276e-16
-1.652011838e-16
-1.069114379e-16
-6.439546174e-17
-3.604105436e-17
-1.900531891e-17
-9.635934976e-18
-4.791491012e-18
-2.329056286e-18
-1.112309083e-18
-5.262500812e-19
-2.480892412e-19
-1.165344946e-19
-5.474107468e-20
-2.571639669e-20
-1.191482561e-20
-5.398212707e-21
-2.365699869e-21
-9.874495942e-22
-3.863407609e-22
-1.445968185e-22
-5.29451603e-23
-1.920613326e-23
-6.94094447e-24
-2.501768569e-24
-8.97771191e-25
-3.188913765e-25
-1.108356915e-25
-3.70412142e-26
-1.156810313e-26
-3.195741313e-27
-6.881369795e-28
-7.922670543e-29
-3.490483041e-30
-1.833539342e-05
-2.913411983e-06
-4.232627652e-07
-5.285797096e-08
-3.991241663e-09
-1.632498071e-10
-6.61402351e-12
-6.92804712e-13
-1.612654228e-13
-5.926047826e-14
-2.684148238e-14
-1.348221168e-14
-7.338868417e-15
-4.421766568e-15
-3.034681502e-15
-2.375756463e-15
-2.054894598e-15
-1.881733802e-15
-1.763530371e-15
-1.655737829e-15
-1.53846819e-15
-1.404794216e-15
-1.254909398e-15
-1.092966395e-15
-9.252155553e-16
-7.588088498e-16
-6.008559382e-16
-4.575274247e-16
-3.334176668e-16
-2.313686754e-16
-1.520995021e-16
-9.377625452e-17
-5.384969563e-17
-2.872411489e-17
-1.435320373e-17
-6.902670803e-18
-3.231486203e-18
-1.479924518e-18
-6.561200497e-19
-2.846675804e-19
-1.22740438e-19
-5.272047887e-20
-2.243059968e-20
-9.431807957e-21
-3.909381666e-21
-1.571952895e-21
-5.933816073e-22
-2.113565191e-22
-7.405858962e-23
-2.597843331e-23
-9.158013147e-24
-3.241486775e-24
-1.145876378e-24
-4.003715287e-25
-1.358400637e-25
-4.337651607e-26
-1.23027985e-26
-2.718309951e-27
-3.187738992e-28
-1.445720719e-29
-0.0003391217283
-4.927549502e-05
-7.080163862e-06
-9.38884787e-07
-1.021711714e-07
-6.358043417e-09
-2.274723656e-10
-1.081083209e-11
-1.173930311e-12
-2.242910526e-13
-6.25971085e-14
-2.290739386e-14
-1.042674653e-14
-5.766547422e-15
-3.871369854e-15
-3.094914482e-15
-2.788104281e-15
-2.668590385e-15
-2.607144324e-15
-2.543147296e-15
-2.449434114e-15
-2.316238991e-15
-2.14359167e-15
-1.937331459e-15
-1.706696971e-15
-1.462624079e-15
-1.216515698e-15
-9.794069602e-16
-7.609233769e-16
-5.685333694e-16
-4.069884728e-16
-2.779768164e-16
-1.802987089e-16
-1.10601547e-16
-6.394617151e-17
-3.453997763e-17
-1.741342769e-17
-8.177035036e-18
-3.613794706e-18
-1.535076698e-18
-6.312707189e-19
-2.541571122e-19
-1.011720788e-19
-3.996590147e-20
-1.567689367e-20
-6.107949286e-21
-2.358295465e-21
-8.799562744e-22
-3.096322937e-22
-1.044042517e-22
-3.494071769e-23
-1.189381061e-23
-4.095254664e-24
-1.409428327e-24
-4.758752991e-25
-1.530619041e-25
-4.433262651e-26
-1.013624967e-26
-1.239599706e-27
-5.996120186e-29
-0.0006095482426
-9.379041114e-05
-1.43749101e-05
-2.110928876e-06
-2.792336965e-07
-2.987185511e-08
-1.898865666e-09
-7.773214671e-11
-4.383630398e-12
-5.252258782e-13
-1.114692799e-13
-3.357170435e-14
-1.314201036e-14
-6.78852018e-15
-4.616347417e-15
-3.921041382e-15
-3.755486085e-15
-3.772361986e-15
-3.82226998e-15
-3.836955812e-15
-3.786086564e-15
-3.659533858e-15
-3.459110864e-15
-3.194044162e-15
-2.878026722e-15
-2.527550455e-15
-2.160665488e-15
-1.794668474e-15
-1.445403416e-15
-1.126175607e-15
-8.467324261e-16
-6.126448668e-16
-4.250522342e-16
-2.81707867e-16
-1.777775233e-16
-1.064376653e-16
-6.021964936e-17
-3.205743106e-17
-1.593027393e-17
-7.322739551e-18
-3.114083844e-18
-1.234767927e-18
-4.731237869e-19
-1.772943187e-19
-6.561597139e-20
-2.416178846e-20
-8.873925095e-21
-3.26114519e-21
-1.189132242e-21
-4.195940491e-22
-1.41846463e-22