/*--------------------------------*- C++ -*----------------------------------*\
  =========                 |
  \\      /  F ield         | OpenFOAM: The Open Source CFD Toolbox
   \\    /   O peration     | Website:  https://openfoam.org
    \\  /    A nd           | Version:  10
     \\/     M anipulation  |
\*---------------------------------------------------------------------------*/
FoamFile
{
    format      ascii;
    class       volScalarField;
    location    "3000";
    object      RR.C2H3;
}
// * * * * * * * * * * * * * * * * * * * * * * * * * * * * * * * * * * * * * //

dimensions      [1 -3 -1 0 0 0 0];

internalField   nonuniform List<scalar> 
5170
(
-4.665622842e-70
-2.093465156e-70
-3.803302662e-71
-2.757761551e-72
-6.657404307e-74
-3.280002833e-67
-1.379863733e-67
-2.109961474e-68
-1.16435723e-69
-2.676809629e-71
-2.2661731e-64
-8.913794752e-65
-1.135329543e-65
-5.028298189e-67
-1.31762241e-68
-1.548259288e-61
-5.708801283e-62
-6.146336235e-63
-2.216242058e-64
-7.84999876e-66
-1.054974167e-58
-3.693246997e-59
-3.428145636e-60
-1.040039285e-61
-4.328070085e-63
-7.214380514e-56
-2.427069095e-56
-1.945904233e-57
-5.117680942e-59
-2.643468267e-60
-4.988900901e-53
-1.62102483e-53
-1.154189731e-54
-2.674443223e-56
-2.94718441e-57
-3.488139368e-50
-1.120541141e-50
-7.388335469e-52
-1.615643156e-53
-6.606809077e-54
-2.491165975e-47
-8.215001454e-48
-5.186076274e-49
-1.180565223e-50
-1.94931428e-50
-1.825475449e-44
-6.436537632e-45
-4.08376888e-46
-1.319805695e-47
-6.180549305e-47
-1.381376333e-41
-5.4479552e-42
-3.864335682e-43
-3.366739131e-44
-2.014143655e-43
-1.076685088e-38
-4.966782475e-39
-4.735812862e-40
-1.528439352e-40
-6.697429273e-40
-8.650847685e-36
-4.916639599e-36
-7.871578716e-37
-8.166073236e-37
-2.355299243e-36
-7.168692636e-33
-5.23901267e-33
-1.676721205e-33
-4.417290505e-33
-1.314933799e-32
-6.083702032e-30
-6.056088343e-30
-4.206494552e-30
-2.298428101e-29
-7.857558246e-29
-5.282585387e-27
-7.443039282e-27
-1.140159043e-26
-1.103871236e-25
-4.724472133e-25
-4.569767343e-24
-9.724203737e-24
-3.153342191e-23
-4.750142844e-22
-2.846873784e-21
-3.940787552e-21
-1.30743714e-20
-8.52042765e-20
-1.893110785e-18
-1.719122649e-17
-3.117183325e-18
-1.70988652e-17
-2.130601378e-16
-6.576317602e-15
-1.040556115e-13
-2.132314111e-15
-2.111896868e-14
-5.0597661e-13
-2.185400574e-11
-6.128926882e-10
-7.442411861e-28
-1.349030524e-28
-2.860090758e-29
-2.820078791e-29
1.922694552e-26
-5.80365601e-28
-1.401602418e-28
-5.145391767e-29
-7.638624553e-29
-1.141633789e-28
-2.66165572e-28
-1.340031606e-28
-1.184333859e-28
-1.313208238e-28
-1.597894834e-28
-1.722973601e-28
-1.968835481e-28
-2.562646071e-28
-2.111126506e-28
-1.648459514e-28
-1.748370475e-28
-2.953118839e-28
-4.127928191e-28
-2.981186755e-28
-1.575976445e-28
-1.759030294e-28
-3.547579175e-28
-5.134604656e-28
-3.501096676e-28
-1.351436561e-28
-1.527389882e-28
-3.518961477e-28
-5.180165069e-28
-3.391365078e-28
-1.001194722e-28
-1.127098117e-28
-2.926595282e-28
-4.412934813e-28
-2.607880663e-28
-6.066289543e-29
-7.301537099e-29
-2.051938038e-28
-3.166598918e-28
-1.599152783e-28
-3.068717526e-29
-4.37715708e-29
-1.276110985e-28
-1.952369878e-28
-8.468081383e-29
-1.376418449e-29
-7.290154314e-29
-8.878174281e-29
-1.120544266e-28
-4.992081461e-29
-7.010182152e-30
-8.095333775e-27
-3.040619219e-27
-9.484253459e-28
-3.030722947e-28
-6.630022715e-29
-1.34674004e-24
-5.380826786e-25
-1.705740435e-25
-5.351742166e-26
-1.136837871e-26
-2.252576279e-22
-1.002974487e-22
-3.375960143e-23
-1.059315675e-23
-2.074751685e-24
-3.782740586e-20
-1.949592261e-20
-6.939788186e-21
-2.160678713e-21
-3.85805361e-22
-6.447551845e-18
-3.977263498e-18
-1.455108383e-18
-4.358458502e-19
-7.109992158e-20
-1.105438205e-15
-8.3042796e-16
-3.042664354e-16
-8.641820861e-17
-1.293411956e-17
-1.89769437e-13
-1.732294199e-13
-6.203861088e-14
-1.649395746e-14
-2.286934759e-15
-3.227737248e-11
-3.534217705e-11
-1.202134886e-11
-2.845872338e-12
-3.659335994e-13
-1.417918039e-08
-1.015512569e-08
-2.482236297e-09
-4.619768744e-10
-5.302466578e-11
-4.073877752e-13
-6.505785989e-12
-3.681695958e-10
-3.390394334e-08
-1.641817904e-06
-1.361953201e-11
-2.259643216e-10
-1.267063954e-08
-9.233739669e-07
-2.929148816e-05
-3.583633919e-11
-5.074613341e-10
-2.246692394e-08
-1.079397516e-06
-2.121921708e-05
-7.904095376e-11
-1.147334251e-09
-4.940086207e-08
-1.856384261e-06
-2.867729624e-05
-2.44783256e-10
-3.991256728e-09
-1.672032049e-07
-4.898183403e-06
-6.399734803e-05
-7.035853301e-10
-1.084630347e-08
-3.668152756e-07
-7.90224215e-06
-8.026302904e-05
-1.98775334e-09
-2.896819368e-08
-7.597040017e-07
-1.142141588e-05
-8.538093622e-05
-4.948286745e-09
-6.828453333e-08
-1.324141949e-06
-1.364929512e-05
-7.79668471e-05
-1.271133319e-08
-1.670012087e-07
-2.451700446e-06
-1.938566122e-05
-9.976045315e-05
-3.51091565e-08
-4.166282819e-07
-4.616806381e-06
-2.924361814e-05
-0.0001349076156
-1.014422946e-07
-9.292593201e-07
-7.451781948e-06
-3.860335059e-05
-0.0001567176529
-2.386406415e-07
-1.596455877e-06
-9.782350685e-06
-4.304652675e-05
-0.0001548925154
-4.83146104e-07
-2.4249241e-06
-1.213324391e-05
-4.738293248e-05
-0.0001568738373
-9.371641821e-07
-3.705599036e-06
-1.588482859e-05
-5.680753033e-05
-0.0001775869259
-1.901213502e-06
-5.91662084e-06
-2.19039261e-05
-7.159907901e-05
-0.0002095581657
-3.810779878e-06
-9.500682361e-06
-3.008436217e-05
-8.890280249e-05
-0.0002410111159
-7.222559054e-06
-1.47740002e-05
-3.982853254e-05
-0.0001058185551
-0.0002646287548
-1.210561741e-05
-2.140123143e-05
-5.010525194e-05
-0.000120407768
-0.0002793307985
-1.876893922e-05
-2.975275587e-05
-6.201616277e-05
-0.0001369516246
-0.0002992751015
-2.755496926e-05
-4.06577644e-05
-7.77062383e-05
-0.0001606541211
-0.0003351851902
-3.988651142e-05
-5.577182107e-05
-9.961886904e-05
-0.0001948331003
-0.0003899192799
-5.738679971e-05
-7.444132814e-05
-0.0001295555991
-0.0002406696674
-0.0004492836858
-8.068504687e-05
-0.0001046474775
-0.0001679159857
-0.0002882122094
-0.0005235445221
-0.0001114317059
-0.000140478641
-0.0002105179859
-0.000348149846
-0.0006070721549
-0.0001525179944
-0.0001875814735
-0.0002624557781
-0.0004222803643
-0.0007055922581
-0.0002063343809
-0.0002482638351
-0.0003532449999
-0.0005139214956
-0.0008293890237
-0.0002867894409
-0.0003394566773
-0.0004345348751
-0.0006524156234
-0.001000297661
-0.0003891591414
-0.0004626706306
-0.000635564866
-0.0008310667044
-0.001241264891
-0.0005239186854
-0.0005971887143
-0.0008139786169
-0.001153730019
-0.001599729787
-0.0007690965517
-0.0008689093951
-0.001095377058
-0.001478361105
-0.002064658349
-0.001132795542
-0.001249901242
-0.00152368027
-0.001971099911
-0.00255524387
-0.001601687614
-0.001738399956
-0.002029752511
-0.002431918134
-0.00288290228
-0.001883725929
-0.001945944638
-0.002089468181
-0.002170318339
-0.001889700718
-0.0006870852078
-0.0005350493139
-7.540824164e-05
0.0008249241728
0.00239690821
0.00425580326
0.004452869531
0.005066380532
0.006046353437
0.007146383795
0.005266838158
0.005219801745
0.005103882111
0.004748375398
0.004179315286
0.0004951082265
0.0003707455968
0.0001062419122
-0.0002856814618
-0.0007776091229
-0.002066107834
-0.002099343092
-0.00216833427
-0.002261247242
-0.002368039997
-0.002073332742
-0.002069576621
-0.002060807907
-0.002046368347
-0.002029126469
-0.001398996487
-0.001392329014
-0.0013779827
-0.001357177695
-0.001328833507
-0.0008059677977
-0.0007984200623
-0.0007803210772
-0.0007499847307
-0.0007044695908
-0.0003690119121
-0.0003629405389
-0.0003498607967
-0.00033094353
-0.0003074431463
-0.0001546831762
-0.0001524160933
-0.0001475642525
-0.0001405433888
-0.0001317595327
-6.521617034e-05
-6.437438108e-05
-6.256275299e-05
-5.992463559e-05
-5.659553541e-05
-2.769645548e-05
-2.737671303e-05
-2.668845571e-05
-2.568194126e-05
-2.440361471e-05
-1.185222668e-05
-1.172957988e-05
-1.146451832e-05
-1.107529539e-05
-1.057825169e-05
-5.114041523e-06
-5.066071805e-06
-4.962448434e-06
-4.809840821e-06
-4.614110552e-06
-2.225065129e-06
-2.206127724e-06
-2.165090237e-06
-2.104484935e-06
-2.026456825e-06
-9.764778833e-07
-9.688704784e-07
-9.523949215e-07
-9.280122668e-07
-8.965207302e-07
-4.322835311e-07
-4.292000262e-07
-4.225052879e-07
-4.125763338e-07
-3.997153714e-07
-1.931379761e-07
-1.918682962e-07
-1.891128307e-07
-1.850194629e-07
-1.797040794e-07
-8.711850146e-08
-8.659083107e-08
-8.544336497e-08
-8.37356907e-08
-8.151297524e-08
-3.969035148e-08
-3.946777253e-08
-3.898385686e-08
-3.826265176e-08
-3.73219624e-08
-1.826562504e-08
-1.817082725e-08
-1.796438324e-08
-1.765625115e-08
-1.725355975e-08
-8.491423661e-09
-8.450527078e-09
-8.361479591e-09
-8.228424541e-09
-8.054264744e-09
-3.987958103e-09
-3.970218379e-09
-3.931548603e-09
-3.873719151e-09
-3.797944629e-09
-1.894271862e-09
-1.886599489e-09
-1.869888909e-09
-1.844906998e-09
-1.812189406e-09
-9.140883826e-10
-9.109164914e-10
-9.040166186e-10
-8.937351814e-10
-8.803370411e-10
-4.555871374e-10
-4.545458503e-10
-4.523086177e-10
-4.490467007e-10
-4.449361177e-10
-2.26154113e-10
-2.257463091e-10
-2.248618047e-10
-2.235489767e-10
-2.218449345e-10
-1.336340716e-10
-1.338817137e-10
-1.344552574e-10
-1.354040243e-10
-1.361938242e-10
-9.336578733e-11
-9.370245913e-11
-9.444606781e-11
-9.558430242e-11
-9.712208336e-11
-7.762089189e-11
-7.795214743e-11
-7.866873914e-11
-7.972505158e-11
-8.10755159e-11
-7.436765815e-11
-7.462376939e-11
-7.516877481e-11
-7.594701379e-11
-7.689339921e-11
-7.663413881e-11
-7.673710582e-11
-7.694218261e-11
-7.719530266e-11
-7.742351716e-11
-7.990768167e-11
-7.981295083e-11
-7.958372329e-11
-7.917722513e-11
-7.852364623e-11
-8.090171232e-11
-8.056498892e-11
-7.980428971e-11
-7.859205586e-11
-7.686372616e-11
-7.800692988e-11
-7.747004143e-11
-7.62758384e-11
-7.442169287e-11
-7.18654711e-11
-7.226377556e-11
-7.157989592e-11
-7.007080558e-11
-6.776056268e-11
-6.463575376e-11
-7.302982812e-11
-7.234101743e-11
-7.082623151e-11
-6.85215853e-11
-6.543053803e-11
-5.635942269e-06
-0.000289274294
-0.0001582925424
-0.0001913898713
-0.000390837706
-0.0003966630783
-0.000341714228
-0.0002603215491
-0.0003262593152
-0.0004100293132
-0.0004318561743
-0.0003883125927
-0.0003718726118
-0.0004057949412
-0.0004558620787
-0.0004950954474
-0.0005125370868
-0.0005131352318
-0.0005290681658
-0.0005756608705
-0.0006347204171
-0.0007209851357
-0.0008159117389
-0.0009164980953
-0.001033451087
-0.001182179475
-0.001390138171
-0.001683486834
-0.002078395986
-0.002589781404
-0.00309575083
-0.00315514225
-0.001350590372
0.003927699005
0.007760398306
0.003633976063
-0.001139096658
-0.002441024832
-0.002017693761
-0.001304547477
-0.0006657244574
-0.000289939381
-0.0001251285237
-5.40551406e-05
-2.341997716e-05
-1.01931385e-05
-4.461589567e-06
-1.965352692e-06
-8.717546794e-07
-3.895623812e-07
-1.754936124e-07
-7.974669589e-08
-3.657232252e-08
-1.693181638e-08
-7.914814468e-09
-3.737186429e-09
-1.785972888e-09
-8.69675e-10
-4.418216628e-10
-2.204963358e-10
-1.367231101e-10
-9.840708848e-11
-8.212658576e-11
-7.757098847e-11
-7.74829149e-11
-7.784586474e-11
-7.529468552e-11
-6.964220992e-11
-6.197241654e-11
-6.282336976e-11
-2.149709323e-06
-1.003569942e-05
-7.370522241e-07
-6.926168794e-08
-5.107087767e-09
-0.001018222419
0.002020019256
-0.0002381740262
-1.052863832e-05
-4.888279227e-07
-0.0004538484816
-0.0005533258383
-0.0002127860353
-1.567095002e-05
-7.201088324e-07
-0.0006505464657
-0.004489579532
0.0134926457
-0.001966503781
-9.598676277e-05
-0.001318291431
-0.01018215647
0.0167506674
-0.004378281523
-0.0002969909393
-0.001183593125
-0.007387820362
0.004326853764
-0.00309757393
-0.0002707274195
-0.0009039568297
-0.00459169509
0.002986791755
-0.00203612985
-0.0002283694076
-0.0006323966261
-0.002702074861
-0.000580502492
0.002433660492
-0.001090712746
-0.0008123254306
-0.004020415857
-0.01391107094
0.03940640571
-0.008827348749
-0.0009812997028
-0.004527345869
-0.01574782341
0.02995662514
-0.009679724549
-0.0009759031044
-0.004022944549
-0.01266052284
0.02086662683
-0.007822520508
-0.0008294529811
-0.003033725509
-0.008435502645
0.01131611237
-0.00511200711
-0.0007736058193
-0.002720742691
-0.007831215614
-0.005872802969
0.0329335848
-0.0008306294614
-0.00286121128
-0.008442126769
-0.01449948582
0.04573666072
-0.0008917678289
-0.00293245874
-0.008317833775
-0.01567571888
0.04072872422
-0.0009297966002
-0.002858003532
-0.007618714553
-0.01394935536
0.03409688296
-0.0009273528866
-0.002644854861
-0.00657268628
-0.01130323089
0.02602368299
-0.0008970459641
-0.002398529496
-0.005641432093
-0.009455400045
0.01587677585
-0.0009000110324
-0.002327609532
-0.005379108776
-0.009457695239
0.006469792518
-0.000961626974
-0.002424413809
-0.005535062449
-0.0100367307
0.0006282140269
-0.00106250794
-0.002598223216
-0.005787774879
-0.0104197351
-0.002160341732
-0.001183120983
-0.002776680824
-0.005962818841
-0.0103872952
-0.00296390821
-0.001304509536
-0.002925833878
-0.006021321335
-0.009998732221
-0.002588073398
-0.001429022205
-0.003059442658
-0.006012187144
-0.009383435526
-0.001465346498
-0.001569266787
-0.003205278939
-0.005991739304
-0.008637415249
0.0003240159585
-0.001749837595
-0.003405259065
-0.006021541356
-0.007750509669
0.003024432342
-0.002001431304
-0.003701650827
-0.006097559326
-0.006479435608
0.006984622108
-0.0023623113
-0.004101416536
-0.006067643534
-0.004290418002
0.01214776203
-0.002820791431
-0.004501871222
-0.005532712805
-0.0004336463213
0.01746409844
-0.00344847732
-0.004624720924
-0.003709418127
0.005486013675
0.02048376356
-0.003640211489
-0.003755921923
0.0004734780023
0.01213565038
0.01870310106
-0.002972908766
-0.0005380541844
0.007043844459
0.01556239847
0.0121199153
0.0003516889761
0.005633849641
0.01212360018
0.01236722992
0.003997677205
0.006403341914
0.01010303338
0.01005173253
0.004872865449
-0.001968186915
0.007942225055
0.006609893327
0.003053043073
-0.00123366019
-0.004500073336
0.002478607564
0.0003480573947
-0.001861122394
-0.003608036427
-0.004384729883
-0.00170159815
-0.002512752969
-0.003157688451
-0.003505174984
-0.002967705511
-0.002532964336
-0.002647892045
-0.002685014724
-0.002366535263
-0.001685124283
-0.001986729644
-0.001921584864
-0.001682886517
-0.001266936915
-0.0009000996824
-0.001241909692
-0.001070370509
-0.0008394573226
-0.0006306315031
-0.000462741944
-0.0006015816148
-0.0004947571456
-0.0003937115214
-0.0003048228535
-0.0002304478678
-0.0002641221479
-0.0002221231152
-0.0001813300832
-0.0001441481795
-0.0001119376532
-0.0001153098489
-9.889442028e-05
-8.249658849e-05
-6.710816651e-05
-5.337498262e-05
-5.028127449e-05
-4.383720027e-05
-3.725197975e-05
-3.091900247e-05
-2.512025005e-05
-2.195484082e-05
-1.940987677e-05
-1.675949125e-05
-1.41569997e-05
-1.172042108e-05
-9.618234563e-06
-8.605405574e-06
-7.533648288e-06
-6.462321299e-06
-5.43974114e-06
-4.233498674e-06
-3.826813969e-06
-3.390603986e-06
-2.947839455e-06
-2.518061461e-06
-1.873842746e-06
-1.708988755e-06
-1.530095716e-06
-1.346091251e-06
-1.164846624e-06
-8.346239671e-07
-7.671350687e-07
-6.931595185e-07
-6.16187982e-07
-5.393894967e-07
-3.743269259e-07
-3.464182087e-07
-3.155581051e-07
-2.831210609e-07
-2.503875753e-07
-1.691709028e-07
-1.575093446e-07
-1.445150276e-07
-1.307341077e-07
-1.166850425e-07
-7.709266656e-08
-7.216779374e-08
-6.664255901e-08
-6.073583825e-08
-5.465949621e-08
-3.544529891e-08
-3.334283262e-08
-3.096983464e-08
-2.84150183e-08
-2.576572121e-08
-1.644787377e-08
-1.554089373e-08
-1.451190842e-08
-1.339738718e-08
-1.223384338e-08
-7.704993875e-09
-7.310308722e-09
-6.860738394e-09
-6.371606015e-09
-5.858548058e-09
-3.6457628e-09
-3.47343072e-09
-3.276779208e-09
-3.062512071e-09
-2.837654121e-09
-1.746555356e-09
-1.672422452e-09
-1.588208792e-09
-1.497161863e-09
-1.402860547e-09
-8.536994247e-10
-8.24132739e-10
-7.913875076e-10
-7.573772504e-10
-7.100805336e-10
-4.372605517e-10
-4.186104697e-10
-3.861462905e-10
-3.710281217e-10
-3.547670881e-10
-2.184795942e-10
-2.147424328e-10
-2.138230512e-10
-2.156325188e-10
-2.169616997e-10
-1.375375478e-10
-1.39353565e-10
-1.41769908e-10
-1.448086478e-10
-1.48399238e-10
-1.001789061e-10
-1.031035503e-10
-1.060891339e-10
-1.08817628e-10
-1.106726753e-10
-8.363829751e-11
-8.622413939e-11
-8.859601151e-11
-9.019228261e-11
-9.029887727e-11
-7.853072506e-11
-7.982759039e-11
-8.043981053e-11
-7.976945729e-11
-7.713130331e-11
-7.754521366e-11
-7.695785094e-11
-7.525212088e-11
-7.184096188e-11
-6.614976135e-11
-7.68512006e-11
-7.41642705e-11
-7.005040551e-11
-6.371192625e-11
-5.411379923e-11
-7.298740909e-11
-6.768414612e-11
-6.044949283e-11
-5.095201216e-11
-3.893462347e-11
-6.643224209e-11
-5.950488744e-11
-5.064756537e-11
-3.974577484e-11
-2.679199542e-11
-5.814055424e-11
-5.017920057e-11
-4.042368817e-11
-2.894663828e-11
-1.59323949e-11
-5.908793938e-11
-5.146967695e-11
-4.23351455e-11
-3.1844481e-11
-2.025833428e-11
-3.027183539e-10
-5.570737177e-12
-2.619943572e-13
-2.464873849e-14
-4.73300858e-15
-1.100501162e-15
-2.463711954e-16
-5.187807265e-17
-1.053259925e-17
-2.182875849e-18
-5.308543032e-19
-1.992884683e-19
-1.263622711e-19
-1.046202343e-19
-9.280571005e-20
-8.236593079e-20
-7.162016499e-20
-6.054251053e-20
-4.957820522e-20
-3.925203996e-20
-3.001226457e-20
-2.215172678e-20
-1.578217277e-20
-1.085510562e-20
-7.209969191e-21
-4.628301176e-21
-2.874648601e-21
-1.729481504e-21
-1.009242704e-21
-5.721217415e-22
-3.156182893e-22
-1.698006193e-22
-8.932898774e-23
-4.611896962e-23
-2.347736258e-23
-1.185179881e-23
-5.96762143e-24
-3.008979797e-24
-1.519169374e-24
-7.640740495e-25
-3.793577371e-25
-1.839694823e-25
-8.631379758e-26
-3.891142251e-26
-1.679814171e-26
-6.948189748e-27
-2.768564016e-27
-1.07578874e-27
-4.170658229e-28
-1.67467761e-28
-7.313783564e-29
-3.615304737e-29
-2.027837999e-29
-1.244006361e-29
-7.918456016e-30
-4.948004983e-30
-2.831184185e-30
-1.334668593e-30
-4.219418332e-31
-7.748484334e-32
-2.208760008e-08
-3.550065439e-10
-9.323681042e-12
-4.641464659e-13
-4.564993907e-14
-6.157657694e-15
-9.253249766e-16
-1.455865601e-16
-2.505836011e-17
-5.653830246e-18
-2.192628371e-18
-1.411836497e-18
-1.127855528e-18
-9.520966511e-19
-8.061626508e-19
-6.732987379e-19
-5.514797983e-19
-4.419101941e-19
-3.459255642e-19
-2.640255882e-19
-1.96126909e-19
-1.41569148e-19
-9.920340097e-20
-6.743244425e-20
-4.445706582e-20
-2.843194842e-20
-1.764778527e-20
-1.063985965e-20
-6.236710315e-21
-3.558256294e-21
-1.978848026e-21
-1.074806358e-21
-5.716674919e-22
-2.988638225e-22
-1.543542247e-22
-7.923262873e-23
-4.065342709e-23
-2.091159456e-23
-1.076312869e-23
-5.503423819e-24
-2.766256872e-24
-1.351867843e-24
-6.364853251e-25
-2.86969803e-25
-1.235983658e-25
-5.092560428e-26
-2.019422614e-26
-7.804517636e-27
-3.007089776e-27
-1.198509624e-27
-5.188386553e-28
-2.542389395e-28
-1.416786e-28
-8.66073683e-29
-5.504384612e-29
-3.44063119e-29
-1.990508831e-29
-9.829934084e-30
-3.573813118e-30
-6.091505831e-31
-3.087422091e-08
-4.218906289e-10
-8.973689197e-12
-5.921259987e-13
-6.215972938e-14
-8.762560119e-15
-1.37246423e-15
-2.376446745e-16
-5.39262163e-17
-1.975962892e-17
-1.122182806e-17
-8.097448647e-18
-6.433475412e-18
-5.31074439e-18
-4.39428811e-18
-3.571946689e-18
-2.828697029e-18
-2.179140369e-18
-1.635098633e-18
-1.196406375e-18
-8.548610271e-19
-5.966306535e-19
-4.067721867e-19
-2.710078445e-19
-1.762319505e-19
-1.118032485e-19
-6.919587406e-20
-4.179042577e-20
-2.464352229e-20
-1.420685978e-20
-8.012994744e-21
-4.427963047e-21
-2.403241004e-21
-1.285879774e-21
-6.818277719e-22
-3.604415698e-22
-1.908962564e-22
-1.01380722e-22
-5.3727468e-23
-2.813340751e-23
-1.438180202e-23
-7.098470669e-24
-3.355033406e-24
-1.511316154e-24
-6.481542617e-25
-2.653231519e-25
-1.043890732e-25
-3.998086925e-26
-1.52355455e-26
-5.983268486e-27
-2.540277197e-27
-1.218348205e-27
-6.669428154e-28
-4.031965866e-28
-2.54832655e-28
-1.590711939e-28
-9.28118814e-29
-4.707246759e-29
-1.73427422e-29
-2.600957899e-30
-2.18035499e-06
-2.205520834e-08
-2.16349315e-10
-3.769265243e-12
-2.045897588e-13
-2.283302269e-14
-4.040771859e-15
-1.026118086e-15
-3.500905907e-16
-1.504557564e-16
-7.875325607e-17
-4.914357112e-17
-3.491485888e-17
-2.673668343e-17
-2.101988967e-17
-1.647070912e-17
-1.275184382e-17
-9.663680665e-18
-7.105783942e-18
-5.060948898e-18
-3.498013521e-18
-2.353329741e-18
-1.54595232e-18
-9.940959563e-19
-6.271317372e-19
-3.888229093e-19
-2.370373168e-19
-1.420751118e-19
-8.372279573e-20
-4.850586143e-20
-2.765801237e-20
-1.554728808e-20
-8.638217068e-21
-4.761074445e-21
-2.615633954e-21
-1.439277073e-21
-7.951138398e-22
-4.397694744e-22
-2.414460944e-22
-1.299905055e-22
-6.777138554e-23
-3.385981283e-23
-1.609743084e-23
-7.255467989e-24
-3.100048181e-24
-1.260439462e-24
-4.914887665e-25
-1.861855437e-25
-6.99352622e-26
-2.68950577e-26
-1.107944351e-26
-5.123800577e-27
-2.713044123e-27
-1.603433854e-27
-1.001263435e-27
-6.226273427e-28
-3.646097702e-28
-1.87539724e-28
-6.660613662e-29
-8.799835199e-30
-1.168525955e-05
-2.224055911e-07
-1.974428138e-09
-2.136202938e-11
-1.002372873e-12
-1.588975186e-13
-4.392427404e-14
-1.420017522e-14
-5.017030066e-15
-1.940803867e-15
-8.412433748e-16
-4.202168299e-16
-2.436430269e-16
-1.604138036e-16
-1.146551743e-16
-8.517187801e-17
-6.347205771e-17
-4.654294426e-17
-3.336979745e-17
-2.343758707e-17
-1.596226674e-17
-1.053301207e-17
-6.73865211e-18
-4.192161126e-18
-2.547248849e-18
-1.519648808e-18
-8.944089471e-19
-5.209381662e-19
-3.006754482e-19
-1.720961621e-19
-9.77729289e-20
-5.522029589e-20
-3.107277044e-20
-1.748131107e-20
-9.875668827e-21
-5.621149069e-21
-3.220972114e-21
-1.844820273e-21
-1.043268866e-21
-5.744000186e-22
-3.041125287e-22
-1.534387142e-22
-7.336253769e-23
-3.316058058e-23
-1.418310224e-23
-5.76407154e-24
-2.242501415e-24
-8.448204756e-25
-3.136335666e-25
-1.178851735e-25
-4.669647066e-26
-2.045836361e-26
-1.024546736e-26
-5.805972368e-27
-3.541162749e-27
-2.182096392e-27
-1.27892486e-27
-6.616897711e-28
-2.210595114e-28
-2.655936261e-29
-1.414658829e-05
-5.394857884e-07
-8.466347579e-09
-9.317031339e-11
-4.881637441e-12
-1.005011542e-12
-3.254621741e-13
-1.187944685e-13
-4.622289184e-14
-1.900234388e-14
-8.311007208e-15
-3.940671132e-15
-2.069972368e-15
-1.217831015e-15
-7.932132311e-16
-5.516734752e-16
-3.938647893e-16
-2.806589983e-16
-1.965165911e-16
-1.345094339e-16
-8.977057153e-17
-5.840236718e-17
-3.684678759e-17
-2.252640921e-17
-1.336838074e-17
-7.740379697e-18
-4.395337945e-18
-2.45876252e-18
-1.360700506e-18
-7.486917894e-19
-4.114992382e-19
-2.267555288e-19
-1.25704891e-19
-7.038008951e-20
-3.996212955e-20
-2.306624035e-20
-1.347184823e-20
-7.869735865e-21
-4.526730881e-21
-2.523629812e-21
-1.345922738e-21
-6.808672631e-22
-3.25298105e-22
-1.466694772e-22
-6.259598199e-23
-2.543164756e-23
-9.913225583e-24
-3.743269835e-24
-1.387169188e-24
-5.145973825e-25
-1.971598651e-25
-8.152555356e-26
-3.798928692e-26
-2.018903734e-26
-1.181674336e-26
-7.154941219e-27
-4.189771738e-27
-2.17195139e-27
-6.769919042e-28
-7.63849609e-29
-1.836184923e-05
-9.721432333e-07
-3.0050315e-08
-4.935545326e-10
-1.202914213e-11
-2.178504758e-12
-8.178205129e-13
-3.630765417e-13
-1.69391558e-13
-8.103387069e-14
-3.974224213e-14
-2.030514142e-14
-1.107668488e-14
-6.589229472e-15
-4.281808137e-15
-2.982503591e-15
-2.15450602e-15
-1.568733814e-15
-1.132451713e-15
-7.993119159e-16
-5.51172242e-16
-3.673622401e-16
-2.347062064e-16
-1.441186116e-16
-8.545077575e-17
-4.929122355e-17
-2.771849538e-17
-1.519150104e-17
-8.141517956e-18
-4.29615059e-18
-2.250880562e-18
-1.179048796e-18
-6.21982892e-19
-3.331763203e-19
-1.825526676e-19
-1.027078271e-19
-5.913298537e-20
-3.43147987e-20
-1.969103628e-20
-1.096780281e-20
-5.840785826e-21
-2.945891499e-21
-1.400488597e-21
-6.270375436e-22
-2.654589271e-22
-1.072340463e-22
-4.176400734e-23
-1.583583095e-23
-5.901328785e-24
-2.18830057e-24
-8.240104424e-25
-3.257932451e-25
-1.412680731e-25
-6.934290684e-26
-3.817211374e-26
-2.238275069e-26
-1.301898416e-26
-6.726998883e-27
-1.963916609e-27
-2.129668111e-28
-0.0001083324971
-9.567785634e-06
-5.54977984e-07
-1.713141147e-08
-3.833682841e-10
-2.339166322e-11
-4.602096745e-12
-1.489464915e-12
-5.739704963e-13
-2.460775332e-13
-1.14526281e-13
-5.727919012e-14
-3.103616888e-14
-1.855106978e-14
-1.234309851e-14
-9.020913204e-15
-7.021243326e-15
-5.61737464e-15
-4.481915799e-15
-3.498345343e-15
-2.627782328e-15
-1.884119441e-15
-1.283181872e-15
-8.37253871e-16
-5.235045265e-16
-3.166898196e-16
-1.835127429e-16
-1.018016512e-16
-5.455865201e-17
-2.852928607e-17
-1.46611563e-17
-7.422052228e-18
-3.732611164e-18
-1.88852623e-18
-9.72341262e-19
-5.128453229e-19
-2.77967792e-19
-1.53881228e-19
-8.544011291e-20
-4.658008231e-20
-2.448199899e-20
-1.223994161e-20
-5.776637406e-21
-2.565884649e-21
-1.075818047e-21
-4.302002813e-22
-1.663577167e-22
-6.298612182e-23
-2.355952519e-23
-8.772065399e-24
-3.286642656e-24
-1.26467627e-24
-5.170340752e-25
-2.335844287e-25
-1.186815731e-25
-6.59565728e-26
-3.743439303e-26
-1.909272668e-26
-5.299427372e-27
-5.4824848e-28
-0.0009208641967
-8.842256951e-05
-7.533853426e-06
-3.525258186e-07
-8.504343119e-09
-2.790028603e-10
-2.723701941e-11
-5.712539891e-12
-1.741591131e-12
-6.363727057e-13
-2.63336536e-13
-1.213364877e-13
-6.237219761e-14
-3.626900626e-14
-2.405969513e-14
-1.794824e-14
-1.454368247e-14
-1.232173773e-14
-1.059073855e-14
-9.049624712e-15
-7.586077209e-15
-6.181567842e-15
-4.855478208e-15
-3.635751402e-15
-2.580079995e-15
-1.720470244e-15
-1.074669707e-15
-6.339374595e-16
-3.568406099e-16
-1.94167414e-16
-1.016998753e-16
-5.129287016e-17
-2.530114132e-17
-1.240474341e-17
-6.099796863e-18
-3.013722822e-18
-1.505749583e-18
-7.643490642e-19
-3.930096483e-19
-2.022130079e-19
-1.022036568e-19
-4.999220355e-20
-2.334315928e-20
-1.029801382e-20
-4.276396014e-21
-1.687907496e-21
-6.44543523e-22
-2.415853253e-22
-8.976087665e-23
-3.329959635e-23
-1.24213169e-23
-4.708378518e-24
-1.851528431e-24
-7.806122163e-25
-3.643689069e-25
-1.885153074e-25
-1.025755591e-25
-5.118053536e-26
-1.368825993e-26
-1.393805422e-27
-0.001211061508
-0.0001391243402
-1.462268487e-05
-1.198289927e-06
-5.174529262e-08
-1.459514204e-09
-8.108906363e-11
-1.16832149e-11
-3.016032704e-12
-1.035913463e-12
-4.163952519e-13
-1.882449523e-13
-9.5554652e-14
-5.543212672e-14
-3.724961883e-14
-2.860172732e-14
-2.413683317e-14
-2.144832226e-14
-1.94308755e-14
-1.758374752e-14
-1.570089358e-14
-1.372866658e-14
-1.169145222e-14
-9.650675265e-15
-7.685365139e-15
-5.875965611e-15
-4.29093417e-15
-2.962136329e-15
-1.917281518e-15
-1.154550659e-15
-6.457551929e-16
-3.401445599e-16
-1.721860947e-16
-8.544637654e-17
-4.143374352e-17
-1.973533532e-17
-9.311552082e-18
-4.378171824e-18
-2.051586905e-18
-9.61642962e-19
-4.508930964e-19
-2.085565339e-19
-9.436288902e-20
-4.131562411e-20
-1.723891105e-20
-6.747243109e-21
-2.528834341e-21
-9.286292579e-22
-3.386665049e-22
-1.235960343e-22
-4.538411835e-23
-1.689027664e-23
-6.448826431e-24
-2.579241047e-24
-1.113950054e-24
-5.307652711e-25
-2.718315158e-25
-1.312303126e-25
-3.424464476e-26
-3.537811866e-27
-0.001132655566
-0.0001507537658
-1.833965681e-05
-2.178923597e-06
-1.553634215e-07
-6.112597924e-09
-2.278076822e-10
-2.01323307e-11
-4.032628007e-12
-1.288968511e-12
-5.149767568e-13
-2.355393899e-13
-1.215024335e-13
-7.204007559e-14
-5.001732176e-14
-4.011082674e-14
-3.554192387e-14
-3.317782583e-14
-3.153196676e-14
-2.99032964e-14
-2.798835052e-14
-2.569409587e-14
-2.3044967e-14
-2.013164769e-14
-1.708007675e-14
-1.403088261e-14
-1.112253816e-14
-8.474945565e-15
-6.177594867e-15
-4.286304616e-15
-2.816404473e-15
-1.734936429e-15
-9.949879379e-16
-5.298210414e-16
-2.641644219e-16
-1.267035694e-16
-5.913622861e-17
-2.69927675e-17
-1.192586481e-17
-5.156446257e-18
-2.216046358e-18
-9.489681025e-19
-4.026499941e-19
-1.689180387e-19
-6.989028968e-20
-2.806988386e-20
-1.059101969e-20
-3.774420217e-21
-1.325308369e-21
-4.671446851e-22
-1.66355091e-22
-6.01237177e-23
-2.21884668e-23
-8.463496948e-24
-3.411468231e-24
-1.491288887e-24
-7.063059879e-25
-3.25166361e-25
-8.394881744e-26
-9.19469588e-27
-0.001091318497
-0.0001731448955
-2.587422418e-05
-3.784317126e-06
-4.645315256e-07
-3.128539722e-08
-1.252355279e-09
-6.331479114e-11
-7.67653244e-12
-1.847785864e-12
-6.594259035e-13
-2.891910304e-13
-1.472874277e-13
-8.810499592e-14
-6.322026154e-14
-5.336118877e-14
-4.995571577e-14
-4.902478929e-14
-4.867019735e-14
-4.797799775e-14
-4.654073526e-14
-4.422761124e-14
-4.107145808e-14
-3.72060837e-14
-3.282568276e-14
-2.815431519e-14
-2.342292536e-14
-1.885333809e-14
-1.463806217e-14
-1.092576634e-14
-7.810554344e-15
-5.325650258e-15
-3.447350203e-15
-2.109817276e-15
-1.216583554e-15
-6.551430749e-16
-3.291750227e-16
-1.540002102e-16
-6.778765595e-17
-2.867395634e-17
-1.174097997e-17
-4.707082739e-18
-1.866182708e-18
-7.344268245e-19
-2.871177361e-19
-1.115503254e-19
-4.297523754e-20
-1.601225511e-20
-5.631874051e-21
-1.901435508e-21
-6.392187464e-22
-2.199902124e-22
-7.762355777e-23
-2.816459011e-23
-1.062219972e-23
-4.257306109e-24
-1.839743017e-24
-7.95524623e-25
-2.05855874e-25
-2.58739274e-26
-0.007212440214
-0.001086975271
-0.0001634993417
-2.340356372e-05
-3.094905705e-06
-3.246357528e-07
-2.021410724e-08
-8.3620768e-10
-4.805368143e-11
-5.721436279e-12
-1.242149889e-12
-4.042471216e-13
-1.776514475e-13
-1.039225289e-13
-7.872654089e-14
-7.188544464e-14
-7.18618189e-14
-7.395908341e-14
-7.599218618e-14
-7.691440763e-14
-7.626372705e-14
-7.391600742e-14
-6.995904523e-14
-6.461670215e-14
-5.819534542e-14
-5.105233344e-14
-4.357165888e-14
-3.611712606e-14
-2.901805748e-14
-2.2547315e-14
-1.690132178e-14
-1.218877339e-14
-8.426994653e-15
-5.564404442e-15
-3.4978422e-15
-2.085623171e-15
-1.174916652e-15
-6.226404886e-16
-3.079540036e-16
-1.408689904e-16
-5.960544902e-17
-2.351323322e-17
-8.963300763e-18
-3.341919509e-18
-1.230913406e-18
-4.51262784e-19
-1.650891387e-19
-6.047305392e-20
-2.199699508e-20
-7.751708196e-21
-2.622249072e-21
-8.627671204e-22
-2.850057524e-22
-9.656396533e-23
-3.395455994e-23
-1.250762099e-23
-4.911452179e-24
-1.977458505e-24
-5.186792707e-25
-6.704365629e-26
-0.01092278071
-0.001852515258
-0.0003123269346
-5.024415108e-05
-7.811956697e-06
-1.042388029e-06