/*--------------------------------*- C++ -*----------------------------------*\
  =========                 |
  \\      /  F ield         | OpenFOAM: The Open Source CFD Toolbox
   \\    /   O peration     | Website:  https://openfoam.org
    \\  /    A nd           | Version:  10
     \\/     M anipulation  |
\*---------------------------------------------------------------------------*/
FoamFile
{
    format      ascii;
    class       volScalarField;
    location    "3000";
    object      RR.CH2CHO;
}
// * * * * * * * * * * * * * * * * * * * * * * * * * * * * * * * * * * * * * //

dimensions      [1 -3 -1 0 0 0 0];

internalField   nonuniform List<scalar> 
5170
(
-5.327947989e-68
-2.400527681e-68
-4.360178818e-69
-3.158599593e-70
-7.542960035e-72
-3.756850943e-65
-1.588361829e-65
-2.427142446e-66
-1.338200504e-67
-2.932618817e-69
-2.606278406e-62
-1.031550612e-62
-1.312663767e-63
-5.810362929e-65
-1.216198151e-66
-1.790158893e-59
-6.653502193e-60
-7.156859926e-61
-2.580428904e-62
-5.117081499e-64
-1.227955922e-56
-4.34350608e-57
-4.029195209e-58
-1.223242674e-59
-2.432702286e-61
-8.465185222e-54
-2.886604459e-54
-2.315094276e-55
-6.100790698e-57
-1.598912921e-58
-5.909049207e-51
-1.953939966e-51
-1.395218217e-52
-3.253181374e-54
-2.810592105e-55
-4.175991009e-48
-1.372436331e-48
-9.125282597e-50
-2.040915124e-51
-1.054251602e-51
-3.018038636e-45
-1.02441633e-45
-6.599655164e-47
-1.701836605e-48
-4.602136186e-48
-2.240160538e-42
-8.184800345e-43
-5.432949989e-44
-2.74724766e-45
-2.038744489e-44
-1.718251515e-39
-7.06860829e-40
-5.479274665e-41
-9.582261694e-42
-9.025414973e-41
-1.357972607e-36
-6.574585672e-37
-7.24404994e-38
-4.49160931e-38
-3.99364432e-37
-1.106228343e-33
-6.630446369e-34
-1.280213568e-34
-2.230659287e-34
-1.768871063e-33
-9.289033507e-31
-7.182526194e-31
-2.812695859e-31
-1.093960928e-30
-7.849363341e-30
-7.978933139e-28
-8.413742373e-28
-7.076304291e-28
-5.152008874e-27
-3.491904846e-26
-6.999444445e-25
-1.043516395e-24
-1.886541595e-24
-2.240218053e-23
-1.557762273e-22
-6.102372586e-22
-1.367985828e-21
-5.057635213e-21
-8.706884121e-20
-6.970993877e-19
-5.285117243e-19
-1.833698227e-18
-1.313065533e-17
-3.12325623e-16
-3.128584528e-15
-4.177644961e-16
-2.374545041e-15
-3.13140161e-14
-9.701459004e-13
-1.408048319e-11
-2.835845044e-13
-2.891170331e-12
-7.108842167e-11
-2.825737973e-09
-6.244120889e-08
-3.929443699e-24
-1.966139478e-24
-3.010451445e-25
-9.130522269e-26
1.559599709e-22
-3.220791751e-24
-1.664438097e-24
-3.73790019e-25
-2.586121524e-25
-2.298432567e-25
-1.549924626e-24
-1.06887084e-24
-5.297170763e-25
-4.3283947e-25
-3.556718844e-25
-8.721490366e-25
-9.507310102e-25
-9.624968862e-25
-7.095126904e-25
-4.416124306e-25
-7.276618883e-25
-1.167411745e-24
-1.50191914e-24
-1.034295539e-24
-4.90823476e-25
-6.784323804e-25
-1.332310284e-24
-1.864658399e-24
-1.241305014e-24
-4.536708883e-25
-5.796019008e-25
-1.309195381e-24
-1.890041733e-24
-1.21919145e-24
-3.470957631e-25
-4.283133438e-25
-1.091688729e-24
-1.620949748e-24
-9.527615781e-25
-2.734512684e-25
-2.79193874e-25
-7.70887538e-25
-1.182098986e-24
-8.994535748e-25
-1.313715399e-25
-1.675873782e-25
-4.832054367e-25
-7.342689611e-25
-4.177615806e-25
-6.416225459e-26
-9.61902903e-26
-2.782409442e-25
-4.822779905e-25
-2.571383925e-24
-1.384290818e-25
-6.721185437e-26
-1.540042926e-25
-2.547164151e-25
-8.735446089e-25
-1.165060964e-25
-2.170797237e-24
-7.558255511e-25
-2.973026971e-25
-4.299153101e-25
1.286328959e-24
-3.676178419e-22
-1.163753327e-22
-2.908004411e-23
-7.41871588e-24
-1.164427827e-24
-6.353183509e-20
-2.005380541e-20
-5.018292499e-21
-1.235731887e-21
-1.772638949e-22
-1.112076295e-17
-3.48083846e-18
-8.605984767e-19
-2.036137187e-19
-2.816197921e-20
-1.972638735e-15
-6.034137925e-16
-1.461302882e-16
-3.310576103e-17
-4.521381783e-18
-3.647217263e-13
-1.044711721e-13
-2.456675513e-14
-5.306616645e-15
-7.554823044e-16
-7.330071681e-11
-1.77917231e-11
-4.014505447e-12
-7.929891522e-13
-1.293424024e-13
-4.360305462e-08
-4.096924591e-09
-7.020083786e-10
-1.145852304e-10
-2.419332104e-11
-4.842799694e-11
-7.943089141e-10
-4.571262479e-08
-3.343948609e-06
5.455870974e-06
-4.565173416e-10
-7.325969969e-09
-3.961492369e-07
-2.217953612e-05
-0.0002216728153
-1.488597181e-09
-2.250478495e-08
-9.615269874e-07
-3.769861185e-05
-0.0003310216707
-3.657434011e-09
-5.360972059e-08
-1.876379152e-06
-5.109219446e-05
-0.0003584024142
-7.422988944e-09
-1.053398127e-07
-3.109859479e-06
-6.104858701e-05
-0.0003604074105
-1.529772457e-08
-2.004357687e-07
-5.286846189e-06
-8.375888039e-05
-0.0004127936532
-3.990300172e-08
-5.387051163e-07
-1.240523158e-05
-0.0001479843661
-0.0005322191836
-1.135785304e-07
-1.55722869e-06
-2.807265905e-05
-0.0002291145138
-0.0005892328328
-3.049715868e-07
-3.883347503e-06
-5.102406977e-05
-0.0002909361386
-0.0005574467731
-7.80418788e-07
-8.448674358e-06
-8.107617015e-05
-0.0003449616188
-0.00048169719
-2.101922404e-06
-1.714879099e-05
-0.0001182992419
-0.0004002987236
-0.0003943032526
-4.958716383e-06
-3.02535742e-05
-0.0001572529517
-0.0004458756097
-0.0002854575693
-1.000542278e-05
-4.747306416e-05
-0.0001963770867
-0.0004744086128
-0.0001448168179
-1.863825563e-05
-7.011149807e-05
-0.0002368667298
-0.0004759937026
2.456630171e-05
-3.582616293e-05
-0.0001013789996
-0.0002807907665
-0.0004488154227
0.0002230739124
-6.572308926e-05
-0.0001447565013
-0.0003270922147
-0.0003815993207
0.0004411288442
-0.0001137471571
-0.0002002160222
-0.000360576502
-0.0002334247342
0.0006535925068
-0.0001738646172
-0.0002539041882
-0.0003154646289
-7.955270065e-06
0.0007513118452
-0.0002133952581
-0.0002419706313
-0.0001689403936
0.0001995314977
0.0006196262357
-0.000167326916
-0.0001337038584
1.714568283e-05
0.0003066590479
0.0002831686568
-5.879162753e-05
-3.583530649e-06
0.000126586626
0.0002154771209
-0.0002089696909
-4.224492438e-06
0.0001074736479
6.439270093e-05
-0.0001031588967
-0.0001099870167
-2.633684898e-05
-4.111722354e-05
-0.0001370237096
-0.0002190994927
-6.31984351e-05
-0.0001229084689
-0.0001725924009
-0.0003066341366
-4.598130434e-05
-8.94941134e-05
-0.000196832375
-0.0002548258144
-4.098320302e-05
-6.955686456e-05
-9.634715362e-05
-0.0001648310202
-0.0001996519681
-0.0002358434555
-5.097910259e-05
-8.592547398e-05
-0.0001240069383
-0.0001510205038
-0.0001104279914
-8.499210113e-05
-8.494553265e-05
-9.061548674e-05
-0.0001087006447
-0.000149782358
-8.309566431e-05
-8.399041206e-05
-3.220935643e-05
-3.539874484e-05
-0.0001162548677
-0.0001579944486
-9.860871704e-05
-4.943194368e-05
-5.587690347e-05
-6.698056194e-05
-8.247460702e-05
-0.0001016417506
-5.92929555e-05
-6.074815492e-05
-6.693402199e-05
-7.432341539e-05
-6.390068077e-05
-4.62985201e-05
-4.707739063e-05
-4.566681601e-05
-3.244091419e-05
-4.460924316e-06
2.016519991e-05
3.02473156e-05
4.55808427e-05
7.747232546e-05
0.000140018996
0.0001598824872
0.0001724812222
0.0002039582745
0.0002466090918
0.0002910153655
0.0002479993798
0.0002386612006
0.0002256891173
0.000203060638
0.0001604100014
-3.405687365e-06
-1.339902036e-05
-3.386893421e-05
-6.298667512e-05
-9.488610219e-05
-0.0001328130465
-0.0001339132567
-0.0001356690752
-0.0001367840547
-0.0001359144904
-9.873971415e-05
-9.756014014e-05
-9.491081325e-05
-9.081347639e-05
-8.525325792e-05
-5.1253627e-05
-5.042596403e-05
-4.863500409e-05
-4.599927058e-05
-4.26428871e-05
-2.354151921e-05
-2.314285726e-05
-2.228305566e-05
-2.103321521e-05
-1.947486015e-05
-1.031270406e-05
-1.016863885e-05
-9.874709225e-06
-9.479990823e-06
-8.994570218e-06
-4.695480402e-06
-4.627929836e-06
-4.480169966e-06
-4.262525156e-06
-3.98755186e-06
-1.990580155e-06
-1.963616407e-06
-1.905768363e-06
-1.821674571e-06
-1.71580215e-06
-8.444615923e-07
-8.342015406e-07
-8.120858645e-07
-7.79790064e-07
-7.388726995e-07
-3.599861882e-07
-3.560206731e-07
-3.47477715e-07
-3.349628011e-07
-3.190276678e-07
-1.543748044e-07
-1.528354149e-07
-1.495068025e-07
-1.446137926e-07
-1.383552273e-07
-6.667957558e-08
-6.607243229e-08
-6.476064452e-08
-6.282760044e-08
-6.034591585e-08
-2.902579145e-08
-2.878485178e-08
-2.826270104e-08
-2.749136461e-08
-2.649778836e-08
-1.274371225e-08
-1.264668812e-08
-1.243658676e-08
-1.212566003e-08
-1.172405859e-08
-5.647365869e-09
-5.608103982e-09
-5.522884968e-09
-5.396550522e-09
-5.233000773e-09
-2.529959775e-09
-2.513949829e-09
-2.479231029e-09
-2.427719812e-09
-2.36095276e-09
-1.149009974e-09
-1.142560886e-09
-1.128562257e-09
-1.107800422e-09
-1.080914045e-09
-5.325621868e-10
-5.300864974e-10
-5.247329432e-10
-5.168328455e-10
-5.066809747e-10
-2.559654774e-10
-2.552051182e-10
-2.535806947e-10
-2.512445006e-10
-2.483632024e-10
-1.324691984e-10
-1.324994726e-10
-1.326029049e-10
-1.328597288e-10
-1.33394427e-10
-7.938069284e-11
-7.984068209e-11
-8.088674879e-11
-8.257231948e-11
-8.501639678e-11
-6.008472607e-11
-6.08534725e-11
-6.258287765e-11
-6.531807594e-11
-6.91909134e-11
-5.882302505e-11
-5.990166536e-11
-6.232038005e-11
-6.612566004e-11
-7.147645096e-11
-6.983563177e-11
-7.130143863e-11
-7.458435935e-11
-7.973771661e-11
-8.69625219e-11
-8.769300174e-11
-8.918234881e-11
-9.247648806e-11
-9.753365571e-11
-1.049553741e-10
-1.177942683e-10
-1.202377389e-10
-1.256984988e-10
-1.342383961e-10
-1.45781265e-10
-1.630166854e-10
-1.66086326e-10
-1.729221685e-10
-1.835468239e-10
-1.982351737e-10
-2.228592831e-10
-2.266672261e-10
-2.351219705e-10
-2.481948173e-10
-2.66135793e-10
-3.01548126e-10
-3.061730358e-10
-3.164185356e-10
-3.321973751e-10
-3.53732041e-10
-4.021808805e-10
-4.076021546e-10
-4.195848977e-10
-4.379660806e-10
-4.629134234e-10
-5.251488149e-10
-5.312440944e-10
-5.446843333e-10
-5.652166725e-10
-5.929239059e-10
-6.666269177e-10
-6.730629701e-10
-6.872101666e-10
-7.087042136e-10
-7.374846279e-10
-8.126076854e-10
-8.189619912e-10
-8.328871268e-10
-8.539335112e-10
-8.819076079e-10
-9.529769568e-10
-9.588076406e-10
-9.715439309e-10
-9.906867358e-10
-1.015931802e-09
-1.051053159e-09
-1.056165256e-09
-1.067299413e-09
-1.083949852e-09
-1.105750625e-09
0.0002588975076
0.002178185169
0.0006178533284
8.779472701e-05
3.276072839e-05
0.0001162134607
0.0003500416683
0.0005640561022
0.0006815228925
0.0008667510841
0.001100714979
0.001250973359
0.001289387504
0.001348100918
0.001453266884
0.001531597734
0.001462099395
0.001074451236
0.0003287945046
-0.0004007899132
-7.069747991e-05
-7.997237263e-05
-0.0001105345093
-0.0001191670036
-0.0001160609149
-0.0001061237796
-0.000107005339
-0.000104598791
-9.667081299e-05
-9.178477565e-05
-5.70554772e-05
2.974656893e-05
0.0001972837089
0.0003140523077
0.0001178531935
-0.0001155855258
-0.0001337896442
-8.083615141e-05
-4.008722727e-05
-1.832894601e-05
-8.595503199e-06
-3.779845974e-06
-1.635268596e-06
-7.074939353e-07
-3.067262011e-07
-1.334958798e-07
-5.840959248e-08
-2.571918948e-08
-1.140819967e-08
-5.103987353e-09
-2.308199664e-09
-1.059701146e-09
-4.987599811e-10
-2.462514654e-10
-1.340421628e-10
-8.723638574e-11
-7.261546789e-11
-7.616991461e-11
-9.327798464e-11
-1.123844979e-10
-1.556497084e-10
-2.108675558e-10
-2.814400768e-10
-3.719829282e-10
-4.839190687e-10
-6.160940706e-10
-7.613377845e-10
-9.049070067e-10
-1.03647037e-09
-1.123323879e-09
1.241069297e-06
-3.005541624e-06
-1.751646624e-07
-1.574168512e-08
-3.682782163e-09
8.021548601e-05
0.0003176418376
-4.551148661e-05
-2.102215651e-06
4.43303836e-08
0.0006982821735
-0.0001231684823
-4.811150623e-05
-3.376370756e-06
7.440430243e-07
0.0003928773799
-0.0002217412505
0.0001854052139
-3.303977298e-05
-1.713415831e-06
0.0004411292821
-0.0005919362525
0.0010517176
-0.0002153760864
-1.660171812e-05
0.0007433501821
-0.000715459825
0.0008534837802
-0.0002769654703
-2.645193433e-05
0.001161359247
-0.0007080514084
0.0005775285558
-0.0002592126593
-2.878316722e-05
0.001024425962
-0.0006278360708
0.0001995648739
-0.0001421109038
-3.96609154e-05
0.0007787942206
-0.0006025073545
-0.0002709969095
0.001063096925
-0.0002914204034
0.0007843772745
-0.0006174991352
-0.0005531318278
0.001618266811
-0.0004895215178
0.0008378054685
-0.0006177580496
-0.0005980211591
0.001481639774
-0.0005270897361
0.0007341573125
-0.0005829869189
-0.0005178878953
0.00105061445
-0.0004478682285
0.0005391821395
-0.0005358834449
-0.0004637994705
0.0004593561822
0.0003713936872
0.000399904985
-0.0004915851095
-0.0004694730269
4.378596706e-05
0.001342219009
0.000282974018
-0.0004499633412
-0.0004802025925
-0.0001646502607
0.001657576433
0.000220477048
-0.0004209097062
-0.0004731265817
-0.0002383805314
0.001651927777
-2.760663442e-05
-0.0003820711511
-0.0004410399993
-0.0002497497315
0.001462795898
-0.0003025235204
-0.0003282031142
-0.0003898354959
-0.0002347761089
0.00119468036
-6.592979284e-05
-0.0003170681702
-0.0003502266074
-0.0002195852267
0.0009775169788
-0.0001556507161
-0.0002838184515
-0.0003186154472
-0.0002083877532
0.0008314846898
-0.000168714562
-0.0002526833095
-0.0002954532116
-0.0001958869306
0.0007388964822
-0.0001714469236
-0.0002304296629
-0.0002770531356
-0.0001772924553
0.000680653682
-0.0001619263893
-0.0002136997536
-0.0002589021406
-0.0001496376801
0.0006460833002
-0.0001503652926
-0.0002000713932
-0.000238700958
-0.0001115694543
0.0006310702068
-0.0001409427204
-0.0001882415921
-0.0002147627115
-5.968115117e-05
0.0006424914046
-0.0001323896812
-0.0001750580905
-0.0001839324627
1.414668433e-05
0.0006844568839
-0.0001246837822
-0.0001598835974
-0.0001401614859
0.0001202740206
0.0007401708825
-0.0001294589581
-0.0001420740988
-7.200379593e-05
0.0002643185342
0.0007606563131
-0.0001167342933
-0.0001023085108
3.809893536e-05
0.0004320250017
0.0006805262398
-0.0001307026002
-2.395599614e-05
0.0002016568082
0.0005591914016
0.0004651608066
-2.483295838e-05
0.0001130761396
0.000385326188
0.0005326793138
0.0001715226521
0.000104735848
0.0002982138693
0.0004634505985
0.0003022449195
-7.441069924e-05
0.000284487533
0.0003896379906
0.0002921895604
5.422115981e-06
-0.0001895570361
0.0003074424222
0.0001967598868
-8.964416269e-06
-0.0001619443057
-0.0001902363743
4.163231289e-05
-8.134019145e-05
-0.000160997422
-0.0001729702234
-0.0001399576665
-0.0001392436682
-0.0001568316195
-0.0001475935529
-0.0001199570059
-8.70210699e-05
-0.0001275640678
-0.000112074507
-9.114179038e-05
-6.8841365e-05
-4.973541295e-05
-7.359566981e-05
-6.103587057e-05
-4.798169427e-05
-3.650669583e-05
-2.672106243e-05
-3.615903887e-05
-2.973279786e-05
-2.397139556e-05
-1.865291793e-05
-1.362071791e-05
-1.67197647e-05
-1.438879676e-05
-1.16766916e-05
-8.9960972e-06
-6.753948088e-06
-7.897638575e-06
-6.634381345e-06
-5.385315789e-06
-4.251404094e-06
-3.274598144e-06
-3.471948549e-06
-2.960472207e-06
-2.452445295e-06
-1.978868958e-06
-1.55957714e-06
-1.515673282e-06
-1.31285924e-06
-1.107077302e-06
-9.108268674e-07
-7.328535718e-07
-6.607893751e-07
-5.802539268e-07
-4.970491324e-07
-4.161047388e-07
-3.411175641e-07
-2.883796951e-07
-2.562942537e-07
-2.226217224e-07
-1.892859662e-07
-1.57812754e-07
-1.26235749e-07
-1.133847945e-07
-9.971291229e-08
-8.596825303e-08
-7.277256281e-08
-5.551239526e-08
-5.033007148e-08
-4.475137761e-08
-3.906762689e-08
-3.353058013e-08
-2.455284675e-08
-2.244751601e-08
-2.015810832e-08
-1.779882745e-08
-1.547182764e-08
-1.093463665e-08
-1.007329043e-08
-9.128827714e-09
-8.146560695e-09
-7.168364451e-09
-4.910458005e-09
-4.556394446e-09
-4.165863093e-09
-3.757250786e-09
-3.348196481e-09
-2.22907048e-09
-2.083907032e-09
-1.923552474e-09
-1.755846011e-09
-1.588670822e-09
-1.027925752e-09
-9.69894485e-10
-9.063980999e-10
-8.411439892e-10
-7.781505315e-10
-4.869614579e-10
-4.659993228e-10
-4.441282292e-10
-4.234669512e-10
-4.065386568e-10
-2.431989553e-10
-2.386614365e-10
-2.355221295e-10
-2.35344244e-10
-2.401527904e-10
-1.351594593e-10
-1.386263663e-10
-1.448854549e-10
-1.553884146e-10
-1.721096628e-10
-9.074590724e-11
-9.897993768e-11
-1.111107033e-10
-1.286939761e-10
-1.538856961e-10
-7.797340707e-11
-9.005268141e-11
-1.07166247e-10
-1.311083988e-10
-1.643733045e-10
-8.348784998e-11
-9.977510885e-11
-1.225378376e-10
-1.539640276e-10
-1.970938566e-10
-1.031085977e-10
-1.248663831e-10
-1.550894573e-10
-1.84355001e-10
-2.244602864e-10
-1.238587127e-10
-1.487490133e-10
-1.843211716e-10
-2.332371954e-10
-2.969606967e-10
-1.708806479e-10
-2.038011111e-10
-2.480733149e-10
-3.064820623e-10
-3.825148224e-10
-2.301583726e-10
-2.709637917e-10
-3.247108951e-10
-3.93987035e-10
-4.816754968e-10
-3.048013769e-10
-3.540709636e-10
-4.18077054e-10
-4.990731337e-10
-5.99499519e-10
-3.997186359e-10
-4.57501498e-10
-5.31369368e-10
-6.231192588e-10
-7.345054261e-10
-5.157042813e-10
-5.811088763e-10
-6.63378092e-10
-7.635583719e-10
-8.824536011e-10
-6.510093477e-10
-7.219482207e-10
-8.097369511e-10
-9.137061849e-10
-1.031657878e-09
-7.970125756e-10
-8.681669156e-10
-9.538861445e-10
-1.052933256e-09
-1.163178982e-09
-9.391795502e-10
-1.006407165e-09
-1.085581869e-09
-1.174511166e-09
-1.270060394e-09
-1.066834447e-09
-1.125197987e-09
-1.191999371e-09
-1.264247626e-09
-1.33801291e-09
-1.149181211e-09
-1.197947886e-09
-1.25227483e-09
-1.308839939e-09
-1.363461888e-09
-2.314408864e-10
-6.860518422e-12
-3.557670296e-13
-3.045270623e-14
-5.601108374e-15
-1.312154994e-15
-3.17048203e-16
-8.034612023e-17
-2.330062107e-17
-8.477130782e-18
-3.936176188e-18
-2.2047377e-18
-1.394327512e-18
-9.540323341e-19
-6.898125487e-19
-5.192260011e-19
-4.022461238e-19
-3.176205455e-19
-2.535768505e-19
-2.033973498e-19
-1.63230717e-19
-1.308284481e-19
-1.047713533e-19
-8.4015256e-20
-6.766070919e-20
-5.48817003e-20
-4.489733943e-20
-3.700721936e-20
-3.064967e-20
-2.541669383e-20
-2.103749666e-20
-1.734142317e-20
-1.42174852e-20
-1.158295676e-20
-9.365482932e-21
-7.498217672e-21
-5.923224003e-21
-4.596079108e-21
-3.486929094e-21
-2.576582038e-21
-1.849792596e-21
-1.289364165e-21
-8.735596697e-22
-5.768889365e-22
-3.728473577e-22
-2.369431054e-22
-1.487502262e-22
-9.262380234e-23
-5.738665739e-23
-3.546009739e-23
-2.188985316e-23
-1.351566951e-23
-8.348859537e-24
-5.147456415e-24
-3.14051495e-24
-1.85450068e-24
-1.007193743e-24
-4.559915869e-25
-1.403638032e-25
-2.546095373e-26
-3.296472147e-08
-8.030590633e-10
-2.18142034e-11
-9.649555213e-13
-8.790808567e-14
-1.267172433e-14
-2.503467078e-15
-6.686749449e-16
-2.372707192e-16
-1.045561053e-16
-5.249709281e-17
-2.876785954e-17
-1.682623463e-17
-1.042560589e-17
-6.812281606e-18
-4.66766847e-18
-3.32950678e-18
-2.451816123e-18
-1.848955857e-18
-1.417239591e-18
-1.097940459e-18
-8.567033888e-19
-6.727157497e-19
-5.320769191e-19
-4.248322753e-19
-3.430247278e-19
-2.801508168e-19
-2.310068382e-19
-1.916608214e-19
-1.593690036e-19
-1.323655561e-19
-1.095579015e-19
-9.023959833e-20
-7.389023533e-20
-6.006194649e-20
-4.83446449e-20
-3.838747953e-20
-2.992885115e-20
-2.280279013e-20
-1.691183956e-20
-1.218060401e-20
-8.515216729e-21
-5.785810605e-21
-3.832574844e-21
-2.485522032e-21
-1.585756305e-21
-9.999442394e-22
-6.256861933e-22
-3.896452696e-22
-2.419986293e-22
-1.501162658e-22
-9.310471287e-23
-5.774007581e-23
-3.571182626e-23
-2.183236986e-23
-1.291460678e-23
-7.090277519e-24
-3.356516834e-24
-1.184301599e-24
-1.987386939e-25
-1.602345029e-07
-2.714730874e-09
-4.418303118e-11
-1.809794644e-12
-1.806823828e-13
-3.69499298e-14
-1.18060955e-14
-4.832474827e-15
-2.238963708e-15
-1.110267579e-15
-5.684279978e-16
-3.34322722e-16
-1.80405171e-16
-9.800145374e-17
-5.627001313e-17
-3.409030827e-17
-2.168575484e-17
-1.439789584e-17
-9.916886258e-18
-7.036687971e-18
-5.114358302e-18
-3.789909888e-18
-2.857465336e-18
-2.192942973e-18
-1.712933432e-18
-1.361911056e-18
-1.100818662e-18
-9.018852831e-19
-7.459053138e-19
-6.203821733e-19
-5.168941598e-19
-4.3024096e-19
-3.571244754e-19
-2.951543734e-19
-2.423769525e-19
-1.971249376e-19
-1.580831624e-19
-1.243689862e-19
-9.551940331e-20
-7.134080091e-20
-5.169860445e-20
-3.634074988e-20
-2.482030347e-20
-1.652671798e-20
-1.077810979e-20
-6.919044839e-21
-4.393207494e-21
-2.769651867e-21
-1.738484815e-21
-1.088443956e-21
-6.805012934e-22
-4.251066885e-22
-2.65251931e-22
-1.648177758e-22
-1.01045415e-22
-5.989169457e-23
-3.316319208e-23
-1.608562873e-23
-5.734082219e-24
-8.447808698e-25
8.438548382e-08
-3.102241095e-08
-2.936820932e-10
-6.921989157e-12
-6.832807879e-13
-1.890669729e-13
-8.133210981e-14
-3.944490745e-14
-1.99748159e-14
-1.034877444e-14
-5.413600429e-15
-2.855255319e-15
-1.515542531e-15
-8.138343719e-16
-4.442376223e-16
-2.58485115e-16
-1.633352994e-16
-9.458865758e-17
-5.750327559e-17
-3.649879225e-17
-2.403638165e-17
-1.634258044e-17
-1.143887419e-17
-8.233506461e-18
-6.096655387e-18
-4.644395901e-18
-3.631572355e-18
-2.901973222e-18
-2.357436294e-18
-1.936497847e-18
-1.602423896e-18
-1.332161231e-18
-1.110411734e-18
-9.259275197e-19
-7.699348964e-19
-6.354938492e-19
-5.175852615e-19
-4.133730782e-19
-3.219527938e-19
-2.435621334e-19
-1.786140922e-19
-1.269595998e-19
-8.762983328e-20
-5.893260856e-20
-3.879659794e-20
-2.513557854e-20
-1.610651551e-20
-1.024904578e-20
-6.49465083e-21
-4.105606451e-21
-2.591642675e-21
-1.634106275e-21
-1.028101789e-21
-6.429701339e-22
-3.958261692e-22
-2.353534791e-22
-1.309437752e-22
-6.425188665e-23
-2.200877359e-23
-2.848743625e-24
4.029695154e-06
-6.640997976e-07
-8.942738877e-09
-9.509485129e-11
-5.793566781e-12
-1.57618482e-12
-7.08934481e-13
-3.472046591e-13
-1.757757406e-13
-9.103148587e-14
-4.784963051e-14
-2.540407719e-14
-1.355038617e-14
-7.253033647e-15
-3.900237125e-15
-2.117597401e-15
-1.160626577e-15
-6.449245471e-16
-3.663604779e-16
-2.398879738e-16
-1.454000386e-16
-8.762718691e-17
-5.486279533e-17
-3.560697057e-17
-2.395068381e-17
-1.671527378e-17
-1.210394672e-17
-9.068630692e-18
-6.994223647e-18
-5.521647769e-18
-4.440981584e-18
-3.62567894e-18
-2.995019137e-18
-2.49489704e-18
-2.086485109e-18
-1.741047011e-18
-1.438395473e-18
-1.167141274e-18
-9.237430835e-19
-7.097285976e-19
-5.282106397e-19
-3.808809287e-19
-2.666597657e-19
-1.819532791e-19
-1.216080007e-19
-8.002216383e-20
-5.20725426e-20
-3.361795395e-20
-2.158188988e-20
-1.3799554e-20
-8.798801586e-21
-5.598430805e-21
-3.551676567e-21
-2.237169358e-21
-1.385246492e-21
-8.274383916e-22
-4.625075816e-22
-2.278598029e-22
-7.319882835e-23
-8.588879378e-24
2.850558878e-06
-1.000885537e-06
-5.991976506e-08
-9.452164735e-10
-5.690093355e-11
-1.406545798e-11
-5.67857739e-12
-2.668179727e-12
-1.350001518e-12
-7.123388283e-13
-3.847921551e-13
-2.102008768e-13
-1.151158589e-13
-6.302055833e-14
-3.452529223e-14
-1.888307403e-14
-1.029090241e-14
-5.597401174e-15
-3.050891723e-15
-1.678595249e-15
-9.371838966e-16
-5.340314619e-16
-3.140240334e-16
-2.060847539e-16
-1.278125266e-16
-7.88426219e-17
-5.067129296e-17
-3.393836361e-17
-2.36519801e-17
-1.711642816e-17
-1.282607763e-17
-9.91614882e-18
-7.878564663e-18
-6.403401827e-18
-5.292184688e-18
-4.413234926e-18
-3.673322045e-18
-3.018378515e-18
-2.425958611e-18
-1.894579536e-18
-1.432446693e-18
-1.047938701e-18
-7.43405395e-19
-5.136936396e-19
-3.479966173e-19
-2.325377671e-19
-1.53962154e-19
-1.01236504e-19
-6.615966691e-20
-4.2982652e-20
-2.776936166e-20
-1.784952857e-20
-1.141091223e-20
-7.23025172e-21
-4.501360804e-21
-2.706517122e-21
-1.524873998e-21
-7.527390183e-22
-2.250522551e-22
-2.470724692e-23
-4.512722291e-06
2.114870427e-06
-4.695713963e-07
-1.279586567e-08
-3.563331067e-10
-5.68148909e-11
-2.025163191e-11
-9.451932737e-12
-4.972433997e-12
-2.788817031e-12
-1.619291434e-12
-9.576746325e-13
-5.708948732e-13
-3.404241502e-13
-2.016456587e-13
-1.183160572e-13
-6.848938893e-14
-3.912405745e-14
-2.219211847e-14
-1.251884448e-14
-7.086835733e-15
-4.004359244e-15
-2.247959427e-15
-1.260118431e-15
-7.106207424e-16
-4.077070531e-16
-2.394967278e-16
-1.446092698e-16
-9.231245269e-17
-6.532555613e-17
-4.581268741e-17
-3.181458439e-17
-2.309838629e-17
-1.749116948e-17
-1.373744669e-17
-1.108612882e-17
-9.083690913e-18
-7.443106662e-18
-6.019298185e-18
-4.755599483e-18
-3.646161625e-18
-2.705470096e-18
-1.944022335e-18
-1.35791553e-18
-9.284629109e-19
-6.267634319e-19
-4.203464758e-19
-2.80870361e-19
-1.869599853e-19
-1.237987084e-19
-8.1420771e-20
-5.313267605e-20
-3.436126473e-20
-2.195324002e-20
-1.375874473e-20
-8.338612673e-21
-4.750083175e-21
-2.346607579e-21
-6.562661929e-22
-6.89473688e-23
-6.338660612e-06
3.359608462e-06
-7.155242059e-07
-7.304611801e-08
-2.343719145e-09
-2.007822849e-10
-5.044424351e-11
-2.138445653e-11
-1.103441196e-11
-6.234707889e-12
-3.704222331e-12
-2.27097314e-12
-1.421977913e-12
-9.032362285e-13
-5.790551842e-13
-3.731605238e-13
-2.409030145e-13
-1.550725336e-13
-9.901369873e-14
-6.239852235e-14
-3.852781015e-14
-2.323618413e-14
-1.366382697e-14
-7.91607633e-15
-4.525757702e-15
-2.582590274e-15
-1.460271942e-15
-8.20977758e-16
-4.657742191e-16
-2.710015518e-16
-1.637328618e-16
-1.032238496e-16
-6.832771059e-17
-5.002051655e-17
-4.026827939e-17
-2.988225533e-17
-2.299447418e-17
-1.81081427e-17
-1.435575187e-17
-1.128228543e-17
-8.68944506e-18
-6.509993451e-18
-4.729055609e-18
-3.334494432e-18
-2.295322748e-18
-1.55671179e-18
-1.049143888e-18
-7.063290207e-19
-4.756124945e-19
-3.198223518e-19
-2.141575654e-19
-1.423653822e-19
-9.36579029e-20
-6.071559106e-20
-3.851074765e-20
-2.358916153e-20
-1.356504005e-20
-6.697454292e-21
-1.783065006e-21
-1.780298766e-22
-3.277443974e-05
-9.247915541e-07
2.052154566e-06
-7.213786538e-07
-2.945893637e-08
-1.347385018e-09
-1.754732426e-10
-5.07204075e-11
-2.197956365e-11
-1.145591836e-11
-6.577239046e-12
-4.001734031e-12
-2.532235136e-12
-1.649021829e-12
-1.097185615e-12
-7.417726438e-13
-5.07356273e-13
-3.498242241e-13
-2.423286212e-13
-1.680673024e-13
-1.162987633e-13
-7.994115692e-14
-5.41831936e-14
-3.582389893e-14
-2.296052364e-14
-1.414425283e-14
-8.350096819e-15
-4.769875785e-15
-2.672858362e-15
-1.495806164e-15
-8.382432619e-16
-4.744829029e-16
-2.777156882e-16
-1.715331445e-16
-1.125027841e-16
-7.77224602e-17
-5.604530158e-17
-4.717953864e-17
-3.604854278e-17
-2.715325843e-17
-2.047678259e-17
-1.526554946e-17
-1.114374364e-17
-7.919226682e-18
-5.477301903e-18
-3.7157088e-18
-2.50013797e-18
-1.680525592e-18
-1.131942211e-18
-7.64521334e-19
-5.170835535e-19
-3.489273664e-19
-2.337258759e-19
-1.544284159e-19
-9.97835475e-20
-6.216628826e-20
-3.62407988e-20
-1.795826081e-20
-4.635227407e-21
-4.546398453e-22
-6.13219537e-05
-1.065999527e-05
7.017269044e-06
-1.751553541e-06
-2.157781714e-07
-9.563049937e-09
-6.957148824e-10
-1.257088265e-10
-4.204287018e-11
-1.913656568e-11
-1.021975878e-11
-5.99877796e-12
-3.751341275e-12
-2.457214188e-12
-1.66718137e-12
-1.161896136e-12
-8.264000235e-13
-5.968930954e-13
-4.360691067e-13
-3.21093385e-13
-2.374194044e-13
-1.756287848e-13
-1.294100322e-13
-9.451514231e-14
-6.794152297e-14
-4.777818129e-14
-3.266719281e-14
-2.148292646e-14
-1.348590061e-14
-8.030320792e-15
-4.545112117e-15
-2.49449539e-15
-1.366232925e-15
-7.694342095e-16
-4.484397416e-16
-2.733489634e-16
-1.754531595e-16
-1.180749237e-16
-8.216596922e-17
-5.875165214e-17
-4.424751716e-17
-3.651940171e-17
-2.647571887e-17
-1.883716198e-17
-1.316815007e-17
-8.926671051e-18
-5.946846805e-18
-3.947838781e-18
-2.629988894e-18
-1.762424373e-18
-1.187570767e-18
-8.032957945e-19
-5.432766029e-19
-3.64586598e-19
-2.402075539e-19
-1.528596004e-19
-9.086076029e-20
-4.553244608e-20
-1.16332162e-20
-1.160019018e-21
-7.518066225e-05
-1.316563186e-05
2.303878919e-06
1.346755141e-06
-8.718276093e-07
-6.101923399e-08
-3.120798896e-09
-3.362953929e-10
-7.962140793e-11
-3.034686284e-11
-1.468208779e-11
-8.149709268e-12
-4.956955665e-12
-3.223390891e-12
-2.205675257e-12
-1.569530692e-12
-1.150838796e-12
-8.632845051e-13
-6.590616417e-13
-5.0955159e-13
-3.971435434e-13
-3.106532126e-13
-2.42776552e-13
-1.886664101e-13
-1.452255445e-13
-1.100853407e-13
-8.17342121e-14
-5.91338446e-14
-4.146491851e-14
-2.804258262e-14
-1.821859166e-14
-1.128531592e-14
-6.648783503e-15
-3.742142036e-15
-2.049385345e-15
-1.135228046e-15
-6.506835398e-16
-3.907354433e-16
-2.433196509e-16
-1.575264562e-16
-1.062752905e-16
-7.410153202e-17
-5.26667805e-17
-3.779680575e-17
-2.918813113e-17
-2.234349144e-17
-1.494935002e-17
-9.679305922e-18
-6.263905851e-18
-4.095757435e-18
-2.708996678e-18
-1.810056874e-18
-1.217064318e-18
-8.183519853e-19
-5.448097459e-19
-3.526934493e-19
-2.14075278e-19
-1.093745507e-19
-2.839609438e-20
-3.02646972e-21
-7.663879143e-05
-1.321150915e-05
-3.406532822e-06
4.459311083e-06
-1.322243993e-06
-2.633562213e-07
-1.736439268e-08
-1.158920037e-09
-1.687918632e-10
-4.829436134e-11
-2.024586362e-11
-1.038161569e-11
-6.045622371e-12
-3.85886222e-12
-2.640959087e-12
-1.909758332e-12
-1.440719126e-12
-1.121492218e-12
-8.930537029e-13
-7.224110497e-13
-5.900309723e-13
-4.839804472e-13
-3.967758838e-13
-3.236399032e-13
-2.61512259e-13
-2.087092411e-13
-1.63617022e-13
-1.254615188e-13
-9.372572551e-14
-6.795196285e-14
-4.764478685e-14
-3.220623148e-14
-2.093403622e-14
-1.307835174e-14
-7.871346915e-15
-4.563060209e-15
-2.575484397e-15
-1.432463088e-15
-8.043103704e-16
-4.70020845e-16
-2.87853879e-16
-1.847735781e-16
-1.236215255e-16
-8.525790246e-17
-5.987097144e-17
-4.239073038e-17
-3.013052912e-17
-2.250157133e-17
-1.615942433e-17
-1.019734808e-17
-6.449266442e-18
-4.167935924e-18
-2.738816549e-18
-1.815858157e-18
-1.201486775e-18
-7.805277202e-19
-4.806606986e-19
-2.519875785e-19
-6.845922844e-20
-8.490833648e-21
-0.0002054758728
-3.263869807e-05
-7.844914194e-06
3.275869731e-06
4.927881587e-07
-8.23668743e-07
-9.383952098e-08
-6.073413486e-09
-4.922575646e-10
-8.474858141e-11
-2.696111121e-11
-1.213726267e-11
-6.645645333e-12
-4.1700722e-12
-2.872094601e-12
-2.139861666e-12
-1.680059188e-12
-1.368143697e-12
-1.141557789e-12
-9.669152935e-13
-8.253641495e-13
-7.058735815e-13
-6.018909268e-13
-5.095567703e-13
-4.266745653e-13
-3.525897576e-13
-2.862980001e-13
-2.276596022e-13
-1.767613374e-13
-1.336332963e-13
-9.812345309e-14
-6.982586698e-14
-4.801857096e-14
-3.185631631e-14
-2.039147928e-14
-1.260932337e-14
-7.560415252e-15
-4.426117591e-15
-2.548521658e-15
-1.45554263e-15
-8.372703275e-16
-4.919393087e-16
-3.040834855e-16
-1.970141722e-16
-1.322638966e-16
-9.094269975e-17
-6.337902208e-17
-4.453139381e-17
-3.122297973e-17
-2.138507017e-17
-1.614616783e-17
-1.033628538e-17
-6.486122178e-18
-4.133130713e-18
-2.668358027e-18