/*--------------------------------*- C++ -*----------------------------------*\
  =========                 |
  \\      /  F ield         | OpenFOAM: The Open Source CFD Toolbox
   \\    /   O peration     | Website:  https://openfoam.org
    \\  /    A nd           | Version:  10
     \\/     M anipulation  |
\*---------------------------------------------------------------------------*/
FoamFile
{
    format      ascii;
    class       volScalarField;
    location    "3000";
    object      RR.CO2;
}
// * * * * * * * * * * * * * * * * * * * * * * * * * * * * * * * * * * * * * //

dimensions      [1 -3 -1 0 0 0 0];

internalField   nonuniform List<scalar> 
5170
(
6.273007727e-52
-2.775747556e-52
1.414900824e-52
3.210550598e-52
-4.877474181e-52
-1.36891487e-52
6.744609393e-53
6.577553783e-52
-4.062392423e-52
1.631298021e-52
7.276202159e-53
-6.913669708e-52
4.628195214e-52
7.096312733e-52
-1.081675504e-52
-1.289516159e-54
-3.921227387e-52
-2.049161629e-52
7.354667177e-52
4.085553323e-52
7.049981308e-52
1.76382278e-52
-8.225396527e-54
-6.095176827e-52
-5.0770348e-52
1.629179739e-53
-1.976063381e-52
-1.697004918e-52
-6.934160995e-52
-1.102755535e-51
2.422528774e-51
1.258695762e-51
7.570480993e-52
1.402234759e-51
0
1.843145743e-48
5.942144679e-49
3.800548101e-50
0
0
1.338954374e-45
4.462645411e-46
2.796193113e-47
0
0
9.991785697e-43
3.574069303e-43
2.217601372e-44
0
0
7.707398642e-40
3.090564277e-40
2.202282609e-41
0
0
6.126266201e-37
2.875913581e-37
2.766378283e-38
7.906534077e-39
0
5.018429135e-34
2.902201994e-34
4.678441019e-35
4.793193267e-35
8.465638318e-35
4.239229412e-31
3.146346477e-31
1.003240729e-31
2.522223165e-31
5.816910167e-31
3.664522234e-28
3.692847933e-28
2.526506775e-28
1.314066893e-27
3.464976073e-27
3.238531365e-25
4.600265593e-25
6.880123432e-25
6.338782331e-24
2.085449458e-23
2.848976871e-22
6.082428995e-22
1.916164016e-21
2.743769075e-20
1.257477066e-19
2.497520563e-19
8.274725322e-19
5.231478006e-18
1.103308477e-16
7.598938751e-16
2.008711285e-16
1.096826656e-15
1.331115554e-14
3.909798094e-13
4.646228636e-12
1.410690672e-13
1.428267002e-12
3.903430429e-11
2.172534711e-09
6.642932201e-08
0.9519203702
0.8123092241
0.7548682665
0.8373483601
0.951023281
0.5022597153
0.5171350073
0.5030860072
0.5182953225
0.4768769388
0.2905345317
0.3417328959
0.3408257867
0.3260493764
0.2590742218
0.1853297433
0.2300589172
0.2366079417
0.2232662684
0.158660652
0.1260067231
0.1642551863
0.1705141226
0.1602632739
0.1054630144
0.08936015159
0.1207697009
0.1271007906
0.1180129876
0.07322210394
0.06589704889
0.09156199166
0.09702243448
0.0882060325
0.0526368961
0.04963235445
0.07047849662
0.07517283969
0.06561614093
0.03820028439
0.03789799474
0.05430961671
0.05816246382
0.04854082906
0.02796880589
0.02930237496
0.04209901335
0.0448603866
0.03612765122
0.02082798502
0.02287138029
0.03272831578
0.03461257251
0.02719569768
0.01584588024
0.0180390806
0.02557705495
0.02678789088
0.02073670417
0.01231398143
0.01438407555
0.02010471342
0.02087100973
0.01605708272
0.009795536105
0.01164362952
0.01597485152
0.01642558319
0.01265850937
0.007992481384
0.009578660798
0.01283942579
0.01309575464
0.01018736836
0.006702768121
0.008046671644
0.01048903335
0.01061488674
0.008383672311
0.005777242857
0.006922725557
0.008728770123
0.00878076137
0.007083704156
0.005134978684
0.006181873762
0.007439708201
0.007436233444
0.006155406199
0.004708031087
0.008814726865
0.007278755255
0.006618970231
0.005534825612
0.004457205491
0.944918072
0.1064187439
0.02029336615
0.008486491051
0.006684308145
3.197042367e-11
7.918432242e-10
1.984172334e-07
9.392396936e-05
0.01855402518
1.290828027e-10
4.369370181e-09
1.063453411e-06
0.0002145696192
0.007659061621
4.281823269e-10
1.799045375e-08
3.525750502e-06
0.0003252493472
0.004030425289
1.738154195e-09
7.648856332e-08
1.072049717e-05
0.0004598284702
0.002952484239
7.040579862e-09
2.951685783e-07
2.731949724e-05
0.0005826669623
0.002518727274
2.860347994e-08
1.04582414e-06
6.061412292e-05
0.0007121242007
0.002426224558
1.252382066e-07
3.769615223e-06
0.0001280581119
0.000901146353
0.002682433122
5.572929118e-07
1.294389273e-05
0.0002394658885
0.001107499195
0.002981026101
2.313854275e-06
3.775345248e-05
0.0003798967203
0.001279561708
0.003150295167
8.398563435e-06
8.916841567e-05
0.0005296287007
0.00143283733
0.003316366233
2.690067772e-05
0.0001725485086
0.0006750286311
0.001589790164
0.003541836507
6.86458688e-05
0.0002778929201
0.0008104889507
0.001742437169
0.00374348433
0.000143273469
0.0003977891608
0.0009437178484
0.001894112632
0.003935406146
0.0002559554076
0.0005306481764
0.001083674423
0.002060094791
0.004168717141
0.0004079275344
0.0006804745636
0.00124183929
0.002273273916
0.004495265568
0.0005934376812
0.0008555253385
0.001431185937
0.00253767356
0.004967634819
0.0008097451057
0.00106458342
0.001662087134
0.002874206933
0.005579448967
0.001048859357
0.001303356547
0.001937349489
0.003243636472
0.006155020942
0.001314333852
0.001581492989
0.002261452532
0.003647767275
0.006798728954
0.001614184838
0.001896366624
0.002612890646
0.004182299976
0.007620191637
0.001930761412
0.002233481695
0.003054448497
0.004896222582
0.008803237267
0.002306268126
0.00262451168
0.003713571204
0.005914233782
0.01016545501
0.002888901042
0.003376746384
0.004671190581
0.007272577115
0.01167591428
0.003830508145
0.004462972735
0.006106899979
0.008994980811
0.01472694347
0.005388777779
0.006242312049
0.008021941045
0.01202093147
0.0178512786
0.008026149503
0.00920315659
0.01222127646
0.01651976461
0.02385272786
0.01262474861
0.01428764975
0.01832232232
0.02516841923
0.03680370518
0.02063008077
0.02302343067
0.02896124224
0.03759455036
0.05376925577
0.0334472113
0.03650601458
0.04650196977
0.06192148614
0.08587768307
0.05720582963
0.06343530788
0.07478632084
0.09531673327
0.1298708348
0.100847783
0.1079700733
0.1262711893
0.1579575048
0.2045950038
0.1862849171
0.1987365441
0.2270729444
0.2748658374
0.3530476661
0.3576828955
0.3778851091
0.4258420906
0.5010979726
0.6187517207
0.6866895514
0.715735185
0.7802416057
0.8804564398
1.013842284
1.11285506
1.134528866
1.174712388
1.22162103
1.254583247
1.09230713
1.076822703
1.037249491
0.961772157
0.8362280446
0.3894887964
0.3543474414
0.274918856
0.1488399973
-0.02948695433
-0.4045190103
-0.4395145483
-0.5180656794
-0.6415457187
-0.8157230133
-0.9843677988
-1.020520412
-1.102538926
-1.234278143
-1.424797651
-1.459459563
-1.504080287
-1.603468254
-1.755177109
-1.945894764
-1.747373767
-1.745848945
-1.713650258
-1.579319963
-1.227259326
-0.06994087934
0.04996350746
0.3170756118
0.7261739531
1.269108604
1.773885895
1.870453474
2.080425939
2.393673421
2.801940063
2.853014917
2.930660028
3.098947575
3.348692663
3.671896497
3.526132881
3.587184579
3.707602847
3.903192098
4.15393259
3.874069786
3.918582622
4.013936109
4.153039634
4.328197966
3.914798232
3.943682516
4.005261315
4.094072834
4.204385751
3.677457741
3.69385773
3.728494867
3.777693018
3.837392975
3.241536607
3.249137922
3.264937287
3.286758963
3.311996757
2.70407118
2.70636382
2.710684847
2.716307077
2.721042498
2.149882795
2.150282535
2.147356227
2.145392203
2.141362207
1.651351317
1.649867403
1.646454477
1.640920125
1.632817051
1.232259702
1.230614253
1.226927758
1.2211617
1.213145297
0.9025855278
0.9011850794
0.8980760154
0.8932835451
0.8867427565
0.6551567953
0.6541045492
0.6517808629
0.6482249282
0.6434162209
0.4754318292
0.4746991067
0.4730845226
0.4706225893
0.4673084822
0.3475538965
0.3470664937
0.3459940147
0.3443610932
0.3421666555
0.2574699622
0.257153831
0.2564580991
0.2553985072
0.2539737176
0.1940578739
0.1938532014
0.1934025348
0.192715102
0.1917885533
0.1490938199
0.1489583354
0.148659543
0.1482026027
0.1475845017
0.1167701319
0.1166758387
0.1164676059
0.1161483002
0.11571477
0.0930899337
0.09301954558
0.09286389131
0.09262473866
0.09229919753
0.07535860072
0.0753018813
0.0751764197
0.0749835659
0.07472091568
0.06176160152
0.06171291025
0.06160523477
0.06143986814
0.06121496906
0.05109772067
0.05105409833
0.05095773001
0.05081000295
0.05060962697
0.0425418903
0.04250199519
0.04241395405
0.04227927964
0.04209717
0.03556888526
0.03553217678
0.03545126836
0.03532777378
0.03516128729
0.02976953368
0.02973595682
0.02966202217
0.02954938571
0.02939795036
0.02499474511
0.02496429419
0.02489731386
0.0247954494
0.02465882285
0.0212348796
0.02120753794
0.02114743494
0.02105613708
0.02093389653
0.08490589099
0.04564813901
0.01363589966
0.008035828435
0.006189755852
0.005817109308
0.006568361536
0.006919896007
0.006808852451
0.006888951662
0.007285617375
0.007504028004
0.007563914045
0.007780243444
0.008295186597
0.009080297745
0.009920811278
0.01061377693
0.01138424396
0.01250869221
0.01357372034
0.0152203654
0.01829671875
0.02035606581
0.0253930517
0.03358031543
0.05073200222
0.07254733625
0.1054718521
0.1628959765
0.2551539843
0.4296481761
0.7260934716
1.117007714
1.252822349
0.7147403552
-0.1830979241
-0.9685083941
-1.596329726
-2.075100546
-0.8058712626
1.71205171
3.135183388
3.934288418
4.354362733
4.467027915
4.290786019
3.883380697
3.330783633
2.723996853
2.135985113
1.625794742
1.206482445
0.8813567764
0.6394725348
0.4645942013
0.3403684466
0.252803617
0.1910248277
0.1470725974
0.1153539859
0.09202729171
0.07450122051
0.06102695522
0.05044246536
0.04194564893
0.03502315979
0.02927263675
0.02454603037
0.02083316459
0.2021362021
13.31053165
2.351272213
0.2574690987
0.04903628148
0.05867789611
0.7304224462
12.97512101
2.21437916
0.1056174475
0.03506636538
0.3433192056
13.00862416
9.782288012
0.4251148752
0.0222061886
0.2064669162
2.924352353
21.51657487
2.637501487
0.01599768721
0.1438060732
3.209731422
27.11156286
7.272521529
0.01599246633
0.1325641204
2.077367089
28.92496185
14.98054946
0.0189361539
0.1318443017
1.554413368
22.48858169
24.31839192
0.0184715316
0.104282359
0.9842028835
6.027683893
32.45230672
0.01668914394
0.08056992512
0.6463689261
4.246063291
35.42463258
0.01633946668
0.0726761038
0.5166253091
3.57319364
33.13687463
0.01688266517
0.06998202236
0.4451166952
2.897243249
24.51378575
0.01671346107
0.06414319315
0.3564730218
2.163984757
8.872152064
0.01609733737
0.05574362049
0.2739983775
1.481084894
3.854863454
0.01607858202
0.05117832025
0.2332598064
1.152169529
3.840022183
0.01674073768
0.05049277225
0.2145800338
0.9829886185
3.505647272
0.01774584999
0.05186850271
0.2047520035
0.8712403599
3.154880714
0.01881357249
0.05198443777
0.1919883481
0.7563963353
2.737645678
0.01956498036
0.05082079659
0.176557516
0.6459905317
2.276103381
0.01859046143
0.05067777627
0.1682002031
0.5812630756
1.971472076
0.02036137411
0.05300932901
0.1688414367
0.5554054211
1.798070657
0.02266828448
0.05774207734
0.1763472724
0.5520169411
1.693837092
0.02422746338
0.0646912732
0.1877679386
0.5579414783
1.621332224
0.02787151451
0.0733549952
0.2017624751
0.5691583158
1.567500262
0.03351794893
0.08423507089
0.2193769018
0.5876198006
1.530417351
0.04146417731
0.09863277002
0.2435195231
0.6204797696
1.524016094
0.05322383279
0.1321221973
0.2805258774
0.6812213397
1.566337213
0.07708857448
0.1618055928
0.3394744829
0.7847343617
1.660063781
0.1076160806
0.2013510293
0.4319957563
0.9421505318
1.777053672
0.1529855982
0.2808801065
0.5744646061
1.156812129
1.853763676
0.2386078709
0.4087396933
0.785200895
1.402936302
1.782870149
0.3494826907
0.6117630006
1.067352282
1.591017423
1.441665939
0.5680129504
0.910063514
1.35839715
1.54954453
0.7605918404
0.9043206382
1.246342665
1.458573452
1.101078854
-0.2095272842
1.250377861
1.354424408
1.092928913
0.233092636
-1.30778382
1.191618853
0.8882334895
0.2301123065
-0.8480311888
-2.353333509
0.4877777351
-0.03717652488
-0.8113635765
-1.897590138
-3.016583783
-0.4373771977
-0.9816941531
-1.752194544
-2.715420575
-1.958813331
-1.216587532
-1.77199671
-2.496313628
-2.381357615
1.478395168
-1.86320486
-2.363897493
-2.124955378
0.7206644247
4.343057926
-2.123984952
-1.363032997
0.9514697253
3.627004077
5.994303906
-0.01192532303
1.652713073
3.460798319
5.224017583
6.848625423
2.339630918
3.508759538
4.763984533
6.022106244
7.194950387
3.597712705
4.473783379
5.414494418
6.345242849
7.1840222
4.292419809
4.9635613
5.66468322
6.330053738
6.894927774
4.626174917
5.114162186
5.603019121
6.041189556
6.379637428
4.649431345
4.972916741
5.278342433
5.531312807
5.696057284
4.3997301
4.587081087
4.749918046
4.861997234
4.902434798
3.937358537
4.024847999
4.086789868
4.107170264
4.073547888
3.348699694
3.372658554
3.373406854
3.34282675
3.270267329
2.721897093
2.711672086
2.682903729
2.631127338
2.552163492
2.12804959
2.101167986
2.06559594
2.010728128
1.941323706
1.611970056
1.585953315
1.550993569
1.504323495
1.446708882
1.195211662
1.172485152
1.143062982
1.106635546
1.063222903
0.8725778534
0.855139315
0.8332111965
0.8067299643
0.7758087756
0.6331759307
0.620752075
0.6053697927
0.5870409158
0.5658641632
0.4603123043
0.4518801563
0.4415134891
0.4292282613
0.4150804185
0.3375503539
0.3319919324
0.3251640729
0.3170665959
0.3077164194
0.2509750154
0.2473513494
0.2428815646
0.2375500286
0.2313476372
0.1898315158
0.1874495154
0.1844878164
0.1809216241
0.1767282104
0.146271785
0.144659076
0.1426339192
0.140168564
0.1372356894
0.1147889588
0.1136414362
0.1121873936
0.1104002071
0.1082533194
0.09160161499
0.09073206149
0.08962435477
0.08825542715
0.08660235044
0.07415811042
0.07345600026
0.07256146155
0.07145594043
0.07012121811
0.06073451228
0.0601372957
0.05937972737
0.05844782675
0.05732815007
0.05018366791
0.04965757045
0.04899502519
0.04818620396
0.04722195106
0.04171215702
0.0412400896
0.04065049005
0.03993701838
0.03909411134
0.03481117841
0.03438508355
0.03385725599
0.0332241635
0.03248306339
0.0290810077
0.02869778546
0.02822660705
0.02766605271
0.02701548462
0.02437403195
0.02403173237
0.02361364925
0.02311986503
0.02255118328
0.02067988358
0.0203759148
0.02000647346
0.01957249797
0.0190755405
0.0003846553337
5.449547325e-06
1.389709795e-07
6.671971383e-09
5.774367427e-10
6.728534918e-11
9.239428456e-12
1.464878405e-12
2.767275051e-13
6.853030949e-14
2.296783372e-14
9.459490993e-15
4.273564143e-15
1.987660587e-15
9.266138137e-16
4.284046623e-16
1.957626684e-16
8.837191382e-17
3.946148811e-17
1.746895654e-17
7.690011473e-18
3.378956515e-18
1.488454238e-18
6.606027995e-19
2.970543031e-19
1.361514188e-19
6.397116681e-20
3.09581129e-20
1.547764717e-20
8.000831651e-21
4.270848076e-21
2.347936871e-21
1.325302244e-21
7.658705957e-22
4.517868599e-22
2.709437886e-22
1.64173282e-22
9.968951276e-23
6.013606269e-23
3.577947347e-23
2.091064378e-23
1.199889219e-23
6.778857072e-24
3.789289895e-24
2.108090047e-24
1.173881292e-24
6.574695079e-25
3.717235732e-25
2.126472193e-25
1.232016487e-25
7.226548573e-26
4.284271869e-26
2.558463613e-26
1.529011724e-26
9.02753253e-27
5.129221143e-27
2.65498473e-27
1.135026339e-27
3.316496697e-28
6.023842306e-29
0.001534634342
3.125139499e-05
1.004816966e-06
6.652909492e-08
8.427141928e-09
1.409977341e-09
2.632949487e-10
5.939985831e-11
1.717103347e-11
6.152709619e-12
2.436391902e-12
1.000398412e-12
4.130854989e-13
1.703194283e-13
7.004534206e-14
2.877303517e-14
1.18279536e-14
4.872271261e-15
2.013972823e-15
8.360350242e-16
3.488316086e-16
1.464626835e-16
6.198431285e-17
2.649544219e-17
1.147496949e-17
5.057866813e-18
2.282427133e-18
1.061947532e-18
5.130953236e-19
2.588188794e-19
1.365315212e-19
7.512191e-20
4.285293427e-20
2.515602118e-20
1.508069166e-20
9.158463702e-21
5.583743308e-21
3.384201127e-21
2.019980262e-21
1.179056959e-21
6.708001702e-22
3.723755217e-22
2.027023292e-22
1.090268305e-22
5.843575614e-23
3.144497353e-23
1.70779506e-23
9.386398606e-24
5.222842906e-24
2.937879248e-24
1.665921664e-24
9.482829119e-25
5.383614979e-25
3.016218063e-25
1.637124492e-25
8.324271827e-26
3.725958599e-26
1.33233965e-26
3.354231632e-27
4.833473895e-28
0.00533018299
8.381955221e-05
2.459205875e-06
2.499882401e-07
4.644212195e-08
1.102020679e-08
3.061589528e-09
1.060017552e-09
4.264439496e-10
1.851884398e-10
8.047023592e-11
3.439428841e-11
1.424492904e-11
5.734248928e-12
2.248432977e-12
8.65198326e-13
3.293589622e-13
1.250787238e-13
4.776756997e-14
1.844928384e-14
7.232971491e-15
2.883486753e-15
1.170451396e-15
4.842243276e-16
2.044814946e-16
8.837493095e-17
3.924800822e-17
1.800681516e-17
8.587708925e-18
4.280133025e-18
2.234847458e-18
1.220689502e-18
6.93876766e-19
4.074777573e-19
2.451984973e-19
1.498329191e-19
9.202727601e-20
5.61851206e-20
3.374444046e-20
1.978284702e-20
1.12799767e-20
6.262071669e-21
3.402717635e-21
1.824764027e-21
9.746963015e-22
5.228385106e-22
2.832400279e-22
1.553675396e-22
8.628913417e-23
4.842069322e-23
2.735220383e-23
1.54696671e-23
8.688401674e-24
4.782284537e-24
2.521834237e-24
1.223465143e-24
5.066494491e-25
1.556754448e-25
2.764416434e-26
2.376827086e-27
0.04432175957
0.0007533104216
1.27095396e-05
8.888999281e-07
1.976760835e-07
6.530492996e-08
2.57051379e-08
1.14097422e-08
5.379204615e-09
2.58002867e-09
1.216406031e-09
5.575233217e-10
2.459138864e-10
1.04431726e-10
4.26387604e-11
1.682116476e-11
6.439051308e-12
2.412636403e-12
8.926279862e-13
3.295816808e-13
1.225815575e-13
4.628223821e-14
1.783583366e-14
7.042442902e-15
2.856641839e-15
1.192686495e-15
5.137159353e-16
2.29000576e-16
1.061100233e-16
5.135189347e-17
2.604930468e-17
1.386200183e-17
7.718793038e-18
4.473252455e-18
2.677744528e-18
1.63951756e-18
1.014347706e-18
6.256884117e-19
3.800567481e-19
2.252805902e-19
1.297529516e-19
7.267032631e-20
3.97899893e-20
2.148064816e-20
1.154370119e-20
6.228343293e-21
3.393704003e-21
1.872446892e-21
1.046055029e-21
5.905198097e-22
3.356416334e-22
1.909859455e-22
1.078294814e-22
5.954747242e-23
3.139172188e-23
1.514144391e-23
6.187639685e-24
1.825960227e-24
2.732801961e-25
1.436769195e-26
0.1947151022
0.004805792975
0.0001000928765
3.759622424e-06
7.959580632e-07
3.251072629e-07
1.542219473e-07
7.682128009e-08
3.929571164e-08
2.025912669e-08
1.033946404e-08
5.165888771e-09
2.502098698e-09
1.170349933e-09
5.261837563e-10
2.275429394e-10
9.457167204e-11
3.794598995e-11
1.474903862e-11
5.600268778e-12
2.092980886e-12
7.782481075e-13
2.905128648e-13
1.098705114e-13
4.239107291e-14
1.677796207e-14
6.837887154e-15
2.879034846e-15
1.256960834e-15
5.716748747e-16
2.722255065e-16
1.362965741e-16
7.189527613e-17
3.991188478e-17
2.320412015e-17
1.399360572e-17
8.629219406e-18
5.349358373e-18
3.280538298e-18
1.966547805e-18
1.145262885e-18
6.478683347e-19
3.578122834e-19
1.946427422e-19
1.053618539e-19
5.726847303e-20
3.144350078e-20
1.748313164e-20
9.842759098e-21
5.599633533e-21
3.208160361e-21
1.840949817e-21
1.048762881e-21
5.845593351e-22
3.110149019e-22
1.514301279e-22
6.262336732e-23
1.876821664e-23
2.822226866e-24
1.453964186e-25
1.003737574
0.03057853336
0.0008985577222
2.739179156e-05
3.757254692e-06
1.394671369e-06
6.723365569e-07
3.478925528e-07
1.863161436e-07
1.015499848e-07
5.553946211e-08
3.01274385e-08
1.605480865e-08
8.348839719e-09
4.210575366e-09
2.052017289e-09
9.631228273e-10
4.350735086e-10
1.889635899e-10
7.916127307e-11
3.207761849e-11
1.266591297e-11
4.902366628e-12
1.876726321e-12
7.157541546e-13
2.743100199e-13
1.06336582e-13
4.197081056e-14
1.697056016e-14
7.079162814e-15
3.070465811e-15
1.396224176e-15
6.70810709e-16
3.425027481e-16
1.861540155e-16
1.070894794e-16
6.425586199e-17
3.938806056e-17
2.415468007e-17
1.457190804e-17
8.559549844e-18
4.881053931e-18
2.711876697e-18
1.480886514e-18
8.040370195e-19
4.386713254e-19
2.421416291e-19
1.355670686e-19
7.693708256e-20
4.415258029e-20
2.552669591e-20
1.478725418e-20
8.509738067e-21
4.796769345e-21
2.586560116e-21
1.281732638e-21
5.437938033e-22
1.702415628e-22
2.787630315e-23
1.884959358e-24
4.295418004
0.1557473071
0.006695113895
0.0002666247435
1.694799331e-05
4.37418696e-06
1.948806171e-06
1.016270493e-06
5.63094621e-07
3.21436672e-07
1.861043251e-07
1.08129268e-07
6.251286693e-08
3.571343916e-08
2.004506857e-08
1.0997576e-08
5.868988214e-09
3.03414302e-09
1.513806736e-09
7.276926188e-10
3.366768272e-10
1.50150477e-10
6.465774181e-11
2.700153599e-11
1.098321203e-11
4.381947114e-12
1.723810419e-12
6.726832999e-13
2.618842536e-13
1.025195559e-13
4.07577948e-14
1.666363196e-14
7.107830915e-15
3.209725766e-15
1.553859585e-15
8.112982556e-16
4.534171066e-16
2.656200668e-16
1.590542143e-16
9.516286781e-17
5.594584269e-17
3.20509074e-17
1.787750299e-17
9.767107878e-18
5.288300903e-18
2.874831117e-18
1.583608708e-18
8.873314451e-19
5.055657812e-19
2.920832662e-19
1.703624831e-19
9.971650187e-20
5.805958482e-20
3.317149333e-20
1.819510504e-20
9.23937192e-21
4.070190458e-21
1.359722409e-21
2.538120069e-22
2.417261413e-23
9.902987076
0.7565607154
0.04077018241
0.001939169382
0.0001016611401
1.380337e-05
4.628938831e-06
2.24346617e-06
1.234581898e-06
7.18017508e-07
4.29446137e-07
2.604303355e-07
1.586748179e-07
9.64781678e-08
5.822941906e-08
3.473237078e-08
2.039455929e-08
1.174933596e-08
6.616913412e-09
3.628961456e-09
1.930668272e-09
9.928882132e-10
4.920373515e-10
2.346908571e-10
1.078076607e-10
4.781216153e-11
2.052591767e-11
8.558567289e-12
3.477755602e-12
1.384062215e-12
5.42606238e-13
2.114850409e-13
8.308853813e-14
3.353394414e-14
1.420397775e-14
6.44956937e-15
3.178876174e-15
1.686886512e-15
9.423752719e-16
5.407726138e-16
3.11869055e-16
1.777721534e-16
9.925931685e-17
5.423949686e-17
2.92426248e-17
1.576854817e-17
8.605624355e-18
4.783672062e-18
2.712865214e-18
1.566729139e-18
9.175059171e-19
5.413668604e-19
3.188762787e-19
1.849590676e-19
1.034857688e-19
5.403412851e-20
2.482633168e-20
8.889869638e-21
1.901064111e-21
2.460801277e-22
16.41762124
2.273877907
0.1617049396
0.01180896383
0.0006158722391
5.118128141e-05
1.092638817e-05
4.379407024e-06
2.275526091e-06
1.311471645e-06
7.944550913e-07
4.943382803e-07
3.11990426e-07
1.980727326e-07
1.257364777e-07
7.94398089e-08
4.97654951e-08
3.081516481e-08
1.880729543e-08
1.128278016e-08
6.634202455e-09
3.81209812e-09
2.134550318e-09
1.160521156e-09
6.103754454e-10
3.096440006e-10
1.510633271e-10
7.07912148e-11
3.188471397e-11
1.383137899e-11
5.791455846e-12
2.34946351e-12
9.299324132e-13
3.636262039e-13
1.430026683e-13
5.78442271e-14
2.470006407e-14
1.134766616e-14
5.595189477e-15
2.916101541e-15
1.578476469e-15
8.718222597e-16
4.824798542e-16
2.63840007e-16
1.419924104e-16
7.600097916e-17
4.10099794e-17
2.249654803e-17
1.25979338e-17
7.20823203e-18
4.204872391e-18
2.486973328e-18
1.477680054e-18
8.699687508e-19
4.974892663e-19
2.679182495e-19
1.288166364e-19
4.960035395e-20
1.215791335e-20
2.046238368e-21
23.05769016
5.423412564
0.4938383703
0.04683305289
0.00359787873
0.0002409973435
2.959760552e-05
8.575332187e-06
3.912278004e-06
2.155826448e-06
1.294491382e-06
8.137722149e-07
5.251754705e-07
3.438679211e-07
2.266243644e-07
1.494721533e-07
9.824063726e-08
6.412900055e-08
4.146345026e-08
2.649073721e-08
1.668133956e-08
1.033459854e-08
6.282260452e-09
3.736867298e-09
2.168543906e-09
1.223985791e-09
6.7004491e-10
3.546140064e-10
1.807885404e-10
8.849154887e-11
4.146543297e-11
1.857865414e-11
7.974125784e-12
3.29652521e-12
1.325008049e-12
5.248257065e-13
2.08399505e-13
8.494173759e-14
3.633949104e-14
1.650943894e-14
7.949853635e-15
4.029093613e-15
2.124811072e-15
1.145291421e-15
6.177782583e-16
3.304595334e-16
1.767597064e-16
9.561995759e-17
5.268885954e-17
2.967613633e-17
1.709997709e-17
1.005390187e-17
5.987128786e-18
3.56452257e-18
2.081070457e-18
1.157203361e-18
5.833538885e-19
2.419561242e-19
6.780859574e-20
1.419254077e-20
28.40393214
10.13699872
1.368439036
0.1384325216
0.01466329769
0.001112033198
9.77996255e-05
1.817905765e-05
6.664613039e-06
3.370825314e-06
1.962167829e-06
1.227613571e-06
8.007292547e-07
5.352707108e-07
3.626973688e-07
2.472466756e-07
1.686656683e-07
1.146690686e-07
7.751718299e-08
5.19736715e-08
3.447817391e-08
2.257815789e-08
1.45617122e-08
9.227437482e-09
5.73078968e-09
3.479365692e-09
2.059862635e-09
1.186198846e-09
6.626702572e-10
3.581199691e-10
1.866931014e-10
9.357241298e-11
4.49276083e-11
2.06184155e-11
9.054225259e-12
3.823825933e-12
1.565078462e-12
6.270312995e-13
2.499316516e-13
1.014936421e-13
4.304770653e-14
1.933848816e-14
9.234045741e-15
4.66065979e-15
2.448761741e-15
1.309439364e-15
7.01708577e-16
3.765927344e-16
2.04166091e-16
1.1280391e-16
6.384450546e-17
3.703724545e-17
2.19257553e-17
1.310690189e-17
7.77404741e-18
4.451715573e-18
2.351717849e-18
1.050432286e-18
3.347949843e-19
8.370790534e-20
32.79768497
15.64231089
3.166596086
0.3604353287
0.04846983399
0.005438746729
0.0004653438366
5.238760536e-05
1.254253044e-05
5.243403028e-06
2.838712089e-06
1.731710644e-06
1.126878291e-06
7.613112965e-07
5.253870258e-07
3.670827801e-07
2.579737448e-07
1.813949999e-07
1.271514194e-07
8.860965374e-08
6.122999434e-08
4.185483538e-08
2.824083075e-08
1.876825419e-08
1.225815351e-08
7.850397976e-09
4.918417674e-09
3.007726523e-09
1.79125103e-09
1.036610425e-09
5.816485113e-10
3.157375021e-10
1.653955357e-10
8.339442645e-11
4.038728805e-11
1.87679452e-11
8.368487085e-12
3.584126875e-12
1.480393499e-12
5.953029698e-13
2.379416448e-13
9.737140639e-14
4.188113903e-14
1.920141693e-14
9.381723098e-15
4.824231483e-15
2.558841476e-15
1.375402189e-15
7.426856223e-16
4.043127772e-16
2.241089863e-16
1.27477434e-16
7.44514195e-17
4.432354324e-17
2.650071495e-17
1.553273117e-17
8.56925542e-18
4.114812692e-18
1.48169956e-18
4.276098616e-19
33.97154332
20.76967257
5.914370546
0.8354084032
0.1128969589
0.01774864137
0.002137476893
0.0002149414939
3.030429343e-05
8.649759221e-06
3.958035685e-06
2.259648362e-06
1.433580935e-06
9.674377125e-07
6.718079203e-07
4.792708235e-07
3.452759082e-07
2.49586193e-07
1.802157074e-07
1.295647809e-07
9.250879666e-08
6.545210168e-08
4.579456636e-08
3.161990078e-08
2.150041493e-08
1.436570551e-08
9.411122741e-09
6.031592186e-09
3.7737449e-09
2.300433636e-09
1.363894215e-09
7.85194409e-10
4.381977925e-10
2.366577607e-10
1.234882269e-10
6.21528734e-11
3.012217417e-11
1.403021844e-11
6.269553471e-12
2.691350573e-12
1.116688272e-12
4.549199346e-13
1.867349022e-13
7.945011335e-14
3.587083309e-14
1.726980125e-14
8.764476322e-15
4.617119083e-15
2.485999794e-15
1.352747825e-15
7.431041729e-16
4.151533105e-16
2.378361901e-16
1.39823241e-16
8.354433295e-17
4.972526003e-17
2.847985814e-17
1.466457496e-17
5.930012631e-18
1.923091494e-18
31.80522059
25.21570625
9.615488044
1.813052766
0.2547211966
0.04337707374
0.007290196537
0.0009457281358
0.0001088309695
1.810291097e-05
5.663529607e-06
2.70436798e-06
1.600823609e-06
1.05652279e-06
7.298647331e-07
5.25281841e-07
3.836946073e-07
2.823913421e-07
2.082740628e-07
1.533469112e-07
1.123920158e-07
8.181750459e-08
5.90445221e-08
4.216350501e-08
2.973489954e-08
2.06630613e-08
1.411302119e-08
9.449206257e-09
6.18668185e-09
3.952736111e-09
2.459667769e-09
1.488333519e-09
8.748942456e-10
4.992713119e-10
2.763877191e-10
1.482795625e-10
7.697877144e-11
3.859424312e-11
1.864329659e-11
8.660033591e-12
3.868954753e-12
1.66960271e-12
7.050635519e-13
2.980162778e-13
1.29656912e-13
5.934627414e-14
2.871978205e-14
1.456743837e-14
7.65711778e-15
4.126434059e-15
2.262643089e-15
1.25867781e-15
7.131930551e-16
4.13887447e-16
2.456850445e-16
1.473111532e-16
8.682809482e-17
4.759862325e-17
2.147848922e-17
7.713013758e-18
26.35873583
28.52043149
13.90027814
3.555159683
0.5677567018
0.09636993171
0.01878775052
0.003439442892
0.0004991308321
6.467866926e-05
1.13774394e-05
3.486912647e-06
1.631888224e-06
9.74271927e-07
6.489250172e-07
4.579819669e-07
3.335044416e-07
2.470648193e-07
1.846279313e-07
1.384161712e-07
1.037131732e-07
7.74475857e-08
5.750546147e-08
4.236972581e-08
3.091620226e-08
2.229518581e-08
1.585469011e-08
1.108935533e-08
7.606077542e-09
5.101220844e-09
3.338423741e-09
2.127602826e-09
1.317729272e-09
7.925554502e-10
4.629744283e-10
2.625692264e-10
1.445270205e-10
7.716793369e-11
3.990098849e-11
1.993752871e-11
9.612972622e-12
4.475828047e-12
2.02279482e-12
8.98269458e-13
3.995746422e-13
1.821161378e-13
8.645332614e-14
4.285494335e-14
2.202178168e-14
1.163996115e-14
6.300986611e-15
3.48466801e-15
1.967251628e-15
1.136931793e-15
6.733734952e-16
4.059964248e-16
2.444227696e-16
1.409325913e-16
7.022422372e-17
2.783400201e-17
17.5491159
30.79741238
18.10591033
6.089451367
1.194095
0.205756671
0.04268449566
0.009243261263
0.00191176635
0.0003279027296
4.713384485e-05
7.570348995e-06
1.989658742e-06
8.548715037e-07
4.888907611e-07
3.214324665e-07
2.265584623e-07
1.658961636e-07
1.241592349e-07
9.407429865e-08
7.172338824e-08
5.479034805e-08
4.180290873e-08
3.176992596e-08
2.39931788e-08
1.796330747e-08
1.329948525e-08
9.711363267e-09
6.973531629e-09
4.909668578e-09
3.380249566e-09
2.271009992e-09
1.486381258e-09
9.461188013e-10
5.850125411e-10
3.513289885e-10
2.048767975e-10
1.160037295e-10
6.374364083e-11
3.397461045e-11
1.755881876e-11
8.798716141e-12
4.284563965e-12
2.041937849e-12
9.647622832e-13
4.595432476e-13
2.240212844e-13
1.124391702e-13
5.7906122e-14
3.04257116e-14
1.628204952e-14
8.902239173e-15
4.991168101e-15
2.876927845e-15
1.705869303e-15
1.036135599e-15
6.358115603e-16
3.817378006e-16
2.070299828e-16
9.076685841e-17
6.619450664
32.20955522
21.81599701
9.104832499
2.282371912
0.425494045
0.08848396231
0.02106059529
0.005122011724
0.001204570034
0.0002441413019
3.559459041e-05
4.624898802e-06
9.91495384e-07
3.860212293e-07
2.103620773e-07
1.347279437e-07
9.388075816e-08
6.862175668e-08
5.160671949e-08
3.948587476e-08
3.05214675e-08
2.371788558e-08
1.846049265e-08
1.434736889e-08
1.110295555e-08
8.531658871e-09
6.491069279e-09
4.875344683e-09
3.604210413e-09
2.614708482e-09
1.855910828e-09
1.28559494e-09
8.672991134e-10
5.689534488e-10
3.628440808e-10
2.25003996e-10
1.355458673e-10
7.924496925e-11
4.494910097e-11
2.474371764e-11
1.324550311e-11
6.920038623e-12
3.545746796e-12
1.797810149e-12
9.136119198e-13
4.710260608e-13
2.477381923e-13
1.324279288e-13
7.136512626e-14
3.861501359e-14
2.108409006e-14
1.174292759e-14
6.734771095e-15
3.994027545e-15
2.444117441e-15
1.526908494e-15
9.49459146e-16
5.526227395e-16
2.686885019e-16
2.284613274
31.9084815
24.732213
12.31063931
3.871094613
0.8342089397
0.1745027023
0.04323733542
0.01142211683
0.003058073299
0.000781405381
0.0001637819305
2.071989695e-05
2.214167406e-06
4.35850271e-07
1.622694213e-07
8.541310071e-08