/*--------------------------------*- C++ -*----------------------------------*\
  =========                 |
  \\      /  F ield         | OpenFOAM: The Open Source CFD Toolbox
   \\    /   O peration     | Website:  https://openfoam.org
    \\  /    A nd           | Version:  10
     \\/     M anipulation  |
\*---------------------------------------------------------------------------*/
FoamFile
{
    format      ascii;
    class       volScalarField;
    location    "3000";
    object      RR.CH2(S);
}
// * * * * * * * * * * * * * * * * * * * * * * * * * * * * * * * * * * * * * //

dimensions      [1 -3 -1 0 0 0 0];

internalField   nonuniform List<scalar> 
5170
(
2.651123846e-60
-1.664417419e-61
-6.0238556e-61
-1.247721436e-60
1.71133828e-58
-1.132423979e-60
-3.208167482e-60
-1.37872653e-59
-1.318708282e-58
-4.425608954e-60
-4.885336046e-59
1.342827162e-59
-2.683946579e-59
-1.919261587e-58
1.161269368e-57
3.089402867e-58
3.960561965e-58
-2.457053377e-59
-1.721255885e-58
-1.6687743e-56
-1.767284502e-58
-6.920551268e-59
-1.977192988e-59
-5.989401498e-59
-3.464160402e-57
-1.165229857e-55
-3.94013936e-56
-3.155387064e-57
-9.917032591e-59
-6.81825747e-58
-8.179358381e-53
-2.676891425e-53
-1.901107163e-54
-4.415994183e-56
-3.425372746e-57
-5.814179296e-50
-1.88763266e-50
-1.243943666e-51
-2.723695088e-53
-5.922748028e-54
-4.226601696e-47
-1.413732726e-47
-8.950986672e-49
-2.029251228e-50
-1.619395085e-50
-3.155524175e-44
-1.1325963e-44
-7.249195418e-46
-2.3164726e-47
-5.031737199e-47
-2.434194728e-41
-9.801056033e-42
-7.06833253e-43
-6.093146486e-44
-1.627834918e-43
-1.934603979e-38
-9.128751426e-39
-8.904549991e-40
-2.837907782e-40
-6.31911472e-40
-1.584633231e-35
-9.215629746e-36
-1.508260711e-36
-1.535969845e-36
-3.64071539e-36
-1.337997764e-32
-9.993636749e-33
-3.245229826e-33
-8.330859017e-33
-2.179841957e-32
-1.155877631e-29
-1.172872247e-29
-8.182917571e-30
-4.343033593e-29
-1.309921963e-28
-1.020450941e-26
-1.460296896e-26
-2.226109213e-26
-2.090646501e-25
-7.884032356e-25
-8.964376246e-24
-1.928604026e-23
-6.182695495e-23
-9.025702465e-22
-4.754318571e-21
-7.840255005e-21
-2.617839166e-20
-1.680251426e-19
-3.614866745e-18
-2.873125227e-17
-6.282945096e-18
-3.455742489e-17
-4.239784021e-16
-1.267131079e-14
-1.740330935e-13
-4.353442068e-15
-4.312741531e-14
-1.020828276e-12
-4.290145046e-11
-1.025783506e-09
1.02375684e-19
1.765531684e-20
8.649332619e-21
2.515252765e-20
1.002926363e-19
-4.214361257e-20
-5.082136792e-21
-3.490498769e-21
-7.072824499e-21
-4.186460104e-20
-1.474941063e-20
-1.238925309e-20
-9.73321542e-21
-1.41203337e-20
-1.363911615e-20
-5.843554417e-21
-6.757410325e-21
-6.071890158e-21
-7.994688201e-21
-5.904842043e-21
-2.809350788e-21
-4.156656914e-21
-3.984590182e-21
-3.502168504e-21
-2.426038434e-21
-1.651592466e-21
-1.936535464e-21
-1.970282368e-21
-2.262890095e-21
-1.504640158e-21
-1.089829264e-21
-1.347276185e-21
-1.362845823e-21
-1.363505073e-21
-9.369420855e-22
-7.509872869e-22
-1.031247586e-21
-1.065786707e-21
-1.182517842e-21
-5.961058353e-22
-5.129938907e-22
-7.635330985e-22
-8.198331923e-22
-8.34448491e-22
-3.813239227e-22
-3.491155022e-22
-5.546475131e-22
-6.173175844e-22
-5.337477146e-22
-2.117492205e-22
-2.475552056e-22
-3.77762369e-22
-4.413256324e-22
-4.887633119e-22
-1.520681486e-22
-1.612755812e-22
-2.913040604e-22
-3.068750305e-22
-2.720807517e-22
-9.421143019e-23
-2.413756623e-22
-4.298108435e-22
-2.888029767e-22
-1.991983927e-22
-6.616543452e-23
-1.470220155e-22
-2.578012276e-22
-3.562657236e-22
-3.876191552e-22
-1.551646659e-22
-1.961470247e-21
-8.492071241e-22
-3.992317298e-22
-2.193561497e-22
-7.32196385e-23
-3.257488807e-19
-1.297711884e-19
-4.275207624e-20
-2.060531854e-20
-6.454473657e-21
-5.680528256e-17
-2.42470928e-17
-8.409832701e-18
-5.162668934e-18
-1.486781383e-18
-1.026461001e-14
-4.58724891e-15
-1.682984663e-15
-1.442513825e-15
-3.561799709e-16
-1.233037302e-12
-4.24025324e-13
-3.387156644e-13
-4.395549856e-13
-8.307802772e-14
-9.331301152e-10
-1.50882112e-10
-1.806861357e-11
1.71812373e-10
-1.844571298e-11
-8.614176445e-13
-1.417587271e-11
-8.167338465e-10
-5.03017489e-08
3.669755595e-07
-2.389823889e-12
-3.304500479e-11
-1.521565101e-09
-4.939345356e-08
-4.849246198e-07
-4.289905167e-12
-5.488338668e-11
-1.890390502e-09
-3.838244172e-08
-3.12659729e-07
-9.904033436e-12
-1.447009781e-10
-5.871236493e-09
-1.724225119e-07
-2.96486942e-06
-2.230584304e-11
-3.342730825e-10
-1.16979447e-08
-2.707023931e-07
-3.3963507e-06
-4.34341964e-11
-6.121483958e-10
-1.538451869e-08
-2.711357346e-07
-2.563628564e-06
-8.426476696e-11
-1.12873494e-09
-2.09542935e-08
-2.581160552e-07
-1.816455934e-06
-1.952286222e-10
-2.631786984e-09
-4.072648649e-08
-4.526649764e-07
-2.734460578e-06
-5.40523129e-10
-6.988862286e-09
-9.714705645e-08
-8.109816874e-07
-4.336541807e-06
-1.404992456e-09
-1.560349207e-08
-1.72645845e-07
-1.061236874e-06
-4.762303425e-06
-3.478614441e-09
-2.813173626e-08
-2.230720656e-07
-1.091542628e-06
-4.159513414e-06
-6.653694645e-09
-4.145874609e-08
-2.570958827e-07
-1.082719361e-06
-3.748013179e-06
-1.304970308e-08
-7.089129599e-08
-3.542710563e-07
-1.414846754e-06
-4.861105784e-06
-2.898744991e-08
-1.191391995e-07
-5.181995518e-07
-1.896761632e-06
-6.065760143e-06
-6.117051141e-08
-1.885626536e-07
-6.941257566e-07
-2.247589989e-06
-6.473008399e-06
-1.115981599e-07
-2.724807046e-07
-8.382633344e-07
-2.392434926e-06
-6.227822676e-06
-1.861801082e-07
-3.711721053e-07
-9.658786464e-07
-2.470308118e-06
-5.942686372e-06
-3.00895595e-07
-5.278789968e-07
-1.22821449e-06
-2.954313485e-06
-6.925903237e-06
-5.127459528e-07
-8.241507201e-07
-1.760012361e-06
-4.01259174e-06
-9.111500695e-06
-8.481115653e-07
-1.273070177e-06
-2.497610164e-06
-5.311264966e-06
-1.139271375e-05
-1.288970077e-06
-1.816798093e-06
-3.280552033e-06
-6.473429822e-06
-1.302482402e-05
-1.775344864e-06
-2.358825797e-06
-3.993009585e-06
-7.35786517e-06
-1.388480288e-05
-2.275754798e-06
-2.925722019e-06
-4.623883789e-06
-7.990615766e-06
-1.437101663e-05
-2.814322135e-06
-3.50957913e-06
-5.268683889e-06
-8.694916859e-06
-1.500116521e-05
-3.497023378e-06
-4.262624745e-06
-6.148692999e-06
-9.81416162e-06
-1.639586715e-05
-4.477494997e-06
-5.364088664e-06
-7.579786517e-06
-1.165183249e-05
-1.895679994e-05
-5.971658138e-06
-7.049721088e-06
-9.628562264e-06
-1.452261422e-05
-2.296183625e-05
-8.203277803e-06
-9.552691569e-06
-1.285560099e-05
-1.865186086e-05
-2.869881937e-05
-1.133618613e-05
-1.300925077e-05
-1.741009508e-05
-2.49471601e-05
-3.686260686e-05
-1.62002647e-05
-1.84415468e-05
-2.369159112e-05
-3.300140782e-05
-4.824406991e-05
-2.366213563e-05
-2.653287787e-05
-3.339559866e-05
-4.551983509e-05
-6.383053271e-05
-3.53685075e-05
-3.925916757e-05
-4.815093394e-05
-6.302109217e-05
-8.540655518e-05
-5.248930453e-05
-5.713442632e-05
-6.798618482e-05
-8.436621099e-05
-0.000106106556
-6.897624324e-05
-7.291191884e-05
-8.042649501e-05
-8.957383572e-05
-9.567489446e-05
-4.271205971e-05
-4.241386584e-05
-3.88321598e-05
-2.864389402e-05
-7.596838305e-06
3.729892281e-05
4.12252641e-05
5.068033982e-05
6.49961863e-05
8.632302478e-05
6.009141788e-05
6.196745665e-05
6.630298668e-05
7.303414297e-05
8.263216625e-05
1.904753436e-05
2.037116099e-05
2.344462799e-05
2.875503446e-05
3.694822746e-05
-1.314203879e-05
-1.105701299e-05
-6.247040237e-06
1.695164536e-06
1.311832578e-05
-1.399866022e-05
-1.132716649e-05
-5.900131926e-06
5.418933001e-07
2.898268891e-06
-3.219332749e-05
-3.659910912e-05
-4.780021598e-05
-6.686456377e-05
-8.97271321e-05
-6.820445467e-05
-6.734315292e-05
-6.507802547e-05
-6.126063777e-05
-5.617401571e-05
-2.884272181e-05
-2.834529134e-05
-2.728764813e-05
-2.577369125e-05
-2.390931944e-05
-1.19803362e-05
-1.180545432e-05
-1.14306195e-05
-1.088865971e-05
-1.021151435e-05
-5.040237645e-06
-4.976337566e-06
-4.83910163e-06
-4.639284338e-06
-4.387088435e-06
-2.144607157e-06
-2.120741376e-06
-2.069237988e-06
-1.993815531e-06
-1.897882854e-06
-9.223291976e-07
-9.131706936e-07
-8.934008947e-07
-8.643342585e-07
-8.271486582e-07
-4.005760788e-07
-3.97007972e-07
-3.892793328e-07
-3.778771656e-07
-3.632209427e-07
-1.756176192e-07
-1.741979269e-07
-1.711238191e-07
-1.665772582e-07
-1.607112941e-07
-7.76892336e-08
-7.711774539e-08
-7.587717706e-08
-7.403793211e-08
-7.165740078e-08
-3.468433008e-08
-3.445028632e-08
-3.394244586e-08
-3.318824219e-08
-3.220942823e-08
-1.563022009e-08
-1.553342527e-08
-1.532296581e-08
-1.500985578e-08
-1.460213572e-08
-7.113347974e-09
-7.07273163e-09
-6.984443512e-09
-6.852914383e-09
-6.681459997e-09
-3.270755415e-09
-3.253582368e-09
-3.216197068e-09
-3.16043064e-09
-3.08761552e-09
-1.520806738e-09
-1.513498378e-09
-1.497595639e-09
-1.473860995e-09
-1.442846129e-09
-7.166943252e-10
-7.136286433e-10
-7.06956128e-10
-6.97005324e-10
-6.840201121e-10
-3.448315298e-10
-3.436362101e-10
-3.410452411e-10
-3.372055679e-10
-3.322423363e-10
-1.731751901e-10
-1.728647456e-10
-1.722066703e-10
-1.712740145e-10
-1.701520947e-10
-9.638226685e-11
-9.656539778e-11
-9.699251465e-11
-9.770770228e-11
-9.879304373e-11
-6.70635894e-11
-6.763275331e-11
-6.891425197e-11
-7.094429828e-11
-7.382430196e-11
-6.599305212e-11
-6.702040227e-11
-6.932274836e-11
-7.294066199e-11
-7.801970545e-11
-8.380563875e-11
-8.494273713e-11
-8.743647827e-11
-9.12100549e-11
-9.614957653e-11
-9.785847678e-11
-9.884473739e-11
-1.009823923e-10
-1.041489144e-10
-1.082303833e-10
-1.154728088e-10
-1.161735671e-10
-1.176696106e-10
-1.198222288e-10
-1.224745117e-10
-1.314041382e-10
-1.316817433e-10
-1.322406747e-10
-1.329515428e-10
-1.336423953e-10
-1.420427e-10
-1.418374346e-10
-1.413377326e-10
-1.40446122e-10
-1.390046233e-10
-1.446998803e-10
-1.440261181e-10
-1.425059909e-10
-1.400900012e-10
-1.366582194e-10
-1.414115677e-10
-1.403841361e-10
-1.381014712e-10
-1.345650544e-10
-1.297045912e-10
-1.312217191e-10
-1.299502596e-10
-1.271464788e-10
-1.228597001e-10
-1.170719973e-10
-1.354326651e-10
-1.341889176e-10
-1.314551785e-10
-1.272999855e-10
-1.217344649e-10
2.227473178e-07
-4.088081106e-06
-2.213762244e-06
-2.121979799e-05
-1.903070204e-05
-1.126714981e-05
-6.462376725e-06
-1.002870273e-05
-1.467890942e-05
-1.396396449e-05
-1.074460233e-05
-9.13039211e-06
-1.204109951e-05
-1.409109527e-05
-1.37954945e-05
-1.230655497e-05
-1.115286324e-05
-1.295257863e-05
-1.669208035e-05
-1.997739514e-05
-2.168041703e-05
-2.221440532e-05
-2.218848406e-05
-2.251811362e-05
-2.408597323e-05
-2.734229017e-05
-3.250070166e-05
-3.982222723e-05
-4.983423651e-05
-6.381207007e-05
-8.286421433e-05
-0.0001066957158
-0.000123846517
-9.517206964e-05
1.42395578e-05
0.000105007451
9.213707865e-05
4.578289356e-05
2.36767898e-05
-3.38494809e-06
-0.0001010146911
-5.239339225e-05
-2.252903874e-05
-9.701066105e-06
-4.194538936e-06
-1.823927785e-06
-7.982669993e-07
-3.517681798e-07
-1.561046128e-07
-6.977993482e-08
-3.14346566e-08
-1.427867558e-08
-6.544937577e-09
-3.029507088e-09
-1.418068949e-09
-6.736667828e-10
-3.283374827e-10
-1.693631791e-10
-9.98272072e-11
-7.637697109e-11
-8.246718533e-11
-1.000381869e-10
-1.114716652e-10
-1.244453057e-10
-1.339390366e-10
-1.375300186e-10
-1.335675926e-10
-1.254902306e-10
-1.121565241e-10
-1.170517233e-10
2.926653103e-07
-1.389286426e-07
-1.037416325e-08
7.624996847e-10
2.471912999e-10
-1.192696391e-05
2.435986736e-05
-2.82949283e-06
-1.315285891e-07
1.376253477e-08
-5.23041006e-06
-1.045989238e-05
-1.448431943e-05
-1.474648337e-06
-2.275845123e-08
-7.76195286e-05
-0.0006878814821
0.001515063793
-0.0003203254908
-1.740448191e-05
-5.92172598e-05
-0.0004098944401
-7.282728731e-05
-0.0001642332725
-1.192908955e-05
-3.04478386e-05
-0.0001642451737
-0.0001084610231
-6.158896508e-05
-5.923493002e-06
-1.562783521e-05
-7.001329789e-05
-9.026369808e-06
-4.278867593e-05
-6.931380801e-06
-2.659015554e-05
-0.0001532467185
-0.0006902211386
0.001822688337
-0.0004223770236
-3.721162792e-05
-0.0001975075175
-0.000878472079
0.00164461923
-0.0005109582274
-3.236052701e-05
-0.0001433070999
-0.0005246796819
0.0004369928315
-0.0002928740504
-2.310520888e-05
-8.841905258e-05
-0.0002823416032
0.0002461610571
-0.0001662617977
-1.918642818e-05
-7.143367759e-05
-0.0002326336529
-0.0002144826097
0.0007006033026
-2.598521378e-05
-0.0001038483699
-0.0003767583477
-0.001090608356
0.003388941224
-2.911294516e-05
-0.0001051676797
-0.0003392054985
-0.0009014189038
0.001557997728
-2.679613646e-05
-8.639242693e-05
-0.0002493358015
-0.0005974158072
0.0009079940643
-2.2701638e-05
-6.682336724e-05
-0.0001778602799
-0.0003933528723
0.0006198939728
-1.998840064e-05
-5.610847562e-05
-0.000145357815
-0.000322710091
0.0002295711237
-2.350150899e-05
-6.855182628e-05
-0.0001897258583
-0.0004841650326
-0.0006445764851
-3.00335221e-05
-8.575776847e-05
-0.0002311610734
-0.0005776733469
-0.0009937602605
-3.493451432e-05
-9.380523811e-05
-0.0002376777114
-0.0005580812901
-0.0009439285601
-3.681315149e-05
-9.272630172e-05
-0.000221473032
-0.0004904218556
-0.0007785372567
-3.657289041e-05
-8.705006468e-05
-0.0001978226483
-0.0004167143926
-0.0006136561735
-3.553861028e-05
-8.073108688e-05
-0.0001762754909
-0.0003559617947
-0.000483405868
-3.529235614e-05
-7.738585629e-05
-0.0001639933925
-0.0003199008773
-0.000405213555
-3.711391458e-05
-7.928443035e-05
-0.0001643878419
-0.0003123576025
-0.0003793586497
-4.149285289e-05
-8.642513636e-05
-0.0001749430179
-0.000321129445
-0.0003628898797
-4.846786918e-05
-9.789660661e-05
-0.0001914824564
-0.0003314165031
-0.0003147483599
-5.828982089e-05
-0.0001132998612
-0.0002110693094
-0.0003314976902
-0.0002122993398
-7.144222567e-05
-0.0001327691045
-0.0002307237563
-0.0003076819936
-4.521128303e-05
-9.053849809e-05
-0.0001560310796
-0.0002429727132
-0.0002395296654
0.0001773740446
-0.0001115931456
-0.0001784919252
-0.0002287581911
-0.0001049995078
0.000413796492
-0.0001350094283
-0.0001824116295
-0.0001545983465
9.308142605e-05
0.0005919013939
-0.0001383330657
-0.000128300694
1.679215607e-06
0.0002940908617
0.000651209702
-7.471614354e-05
1.161132386e-05
0.0001839189356
0.0004042101748
0.0005889837252
5.75218841e-05
0.0001538839244
0.0002711729597
0.0003867729046
0.000429559957
0.0001303780269
0.0001810437025
0.0002379961624
0.0002884452546
0.0001432180368
0.0001024354052
0.0001312497938
0.0001678006448
0.000146212702
-0.0001951332779
5.640917684e-05
8.423984738e-05
8.523219097e-05
-0.000109169802
-0.0002086849711
3.436448227e-05
2.748963453e-05
-0.0001033920552
-0.0001735926249
-0.0001213875779
-3.431930332e-05
-0.0001226986976
-0.0001297472978
-9.439194857e-05
-6.684072032e-05
-0.0001014337081
-8.357553939e-05
-6.411381877e-05
-4.794468826e-05
-3.512689682e-05
-4.683816734e-05
-3.827105944e-05
-3.035960209e-05
-2.347722789e-05
-1.776279871e-05
-2.050006937e-05
-1.722435931e-05
-1.406547879e-05
-1.120037542e-05
-8.724520466e-06
-8.946286015e-06
-7.686575077e-06
-6.430176736e-06
-5.251123025e-06
-4.197064047e-06
-3.908597302e-06
-3.419473251e-06
-2.918603545e-06
-2.435314942e-06
-1.990720211e-06
-1.713743717e-06
-1.521657702e-06
-1.320782547e-06
-1.122486036e-06
-9.356268526e-07
-7.55131101e-07
-6.787821183e-07
-5.975722204e-07
-5.158808255e-07
-4.373266768e-07
-3.346310684e-07
-3.039193602e-07
-2.707919796e-07
-2.369402378e-07
-2.038260181e-07
-1.492019661e-07
-1.367030583e-07
-1.23063177e-07
-1.089392154e-07
-9.492082578e-08
-6.696377333e-08
-6.18196149e-08
-5.615051163e-08
-5.021372805e-08
-4.424697187e-08
-3.027116031e-08
-2.813104714e-08
-2.575216303e-08
-2.323724074e-08
-2.068201314e-08
-1.379282009e-08
-1.289289029e-08
-1.188595647e-08
-1.081221554e-08
-9.711390568e-09
-6.339756972e-09
-5.957751688e-09
-5.527698784e-09
-5.066212082e-09
-4.58967856e-09
-2.942149009e-09
-2.778863109e-09
-2.594288101e-09
-2.395362379e-09
-2.189102454e-09
-1.380824833e-09
-1.311110548e-09
-1.2322615e-09
-1.147335825e-09
-1.059542091e-09
-6.581258798e-10
-6.291911918e-10
-5.967738453e-10
-5.624012981e-10
-5.277803669e-10
-3.225132949e-10
-3.1200812e-10
-3.008329454e-10
-2.899666386e-10
-2.80603683e-10
-1.682492553e-10
-1.668433213e-10
-1.664176495e-10
-1.678420888e-10
-1.722592006e-10
-1.01488031e-10
-1.056368261e-10
-1.120834499e-10
-1.218318171e-10
-1.362486341e-10
-8.03701208e-11
-8.940071461e-11
-1.022166149e-10
-1.201537686e-10
-1.450503411e-10
-8.939063046e-11
-1.047556451e-10
-1.241154954e-10
-1.405000348e-10
-1.576983064e-10
-1.056334458e-10
-1.164165983e-10
-1.283439085e-10
-1.403033693e-10
-1.506526413e-10
-1.16060562e-10
-1.242673367e-10
-1.323075536e-10
-1.387680054e-10
-1.418386219e-10
-1.271454379e-10
-1.311654613e-10
-1.336976665e-10
-1.332762796e-10
-1.282078806e-10
-1.341982629e-10
-1.331574054e-10
-1.295175173e-10
-1.219826375e-10
-1.092020691e-10
-1.352417345e-10
-1.291730357e-10
-1.197670204e-10
-1.060593493e-10
-8.716843483e-11
-1.289864072e-10
-1.185906553e-10
-1.045279567e-10
-8.624526138e-11
-6.336491467e-11
-1.193438715e-10
-1.061949542e-10
-8.948302573e-11
-6.905313909e-11
-4.495840878e-11
-1.050654688e-10
-9.042293769e-11
-7.256622981e-11
-5.1672149e-11
-2.811946671e-11
-1.103321607e-10
-9.6688154e-11
-8.038835246e-11
-6.17459149e-11
-4.125005879e-11
-1.244576935e-10
-1.958223834e-12
-7.593614136e-14
-5.826670459e-15
-9.666745855e-16
-2.029901368e-16
-4.217578692e-17
-8.403756336e-18
-1.632299458e-18
-3.22574195e-19
-7.243762218e-20
-2.409832363e-20
-1.410197505e-20
-1.144644662e-20
-1.015523755e-20
-9.040882793e-21
-7.882286396e-21
-6.67579468e-21
-5.474036634e-21
-4.337876077e-21
-3.318812623e-21
-2.450518158e-21
-1.746206756e-21
-1.201063519e-21
-7.9764909e-22
-5.119496152e-22
-3.179583913e-22
-1.913673441e-22
-1.118246656e-22
-6.35991877e-23
-3.532302381e-23
-1.924785131e-23
-1.035884193e-23
-5.557532484e-24
-3.008216212e-24
-1.664553964e-24
-9.514018496e-25
-5.6334034e-25
-3.433041935e-25
-2.125171121e-25
-1.317323551e-25
-8.084023198e-26
-4.878081953e-26
-2.887783806e-26
-1.679397858e-26
-9.631425446e-27
-5.475634349e-27
-3.102218644e-27
-1.758947186e-27
-1.000593183e-27
-5.713131128e-28
-3.269942597e-28
-1.871184094e-28
-1.066018159e-28
-5.997158705e-29
-3.269756644e-29
-1.650483114e-29
-7.022410399e-30
-2.062574465e-30
-3.652981424e-31
-1.42441968e-09
-2.283926479e-11
-6.008195357e-13
-3.207462627e-14
-3.544784939e-15
-5.453987504e-16
-9.214274937e-17
-1.584478938e-17
-2.874753586e-18
-6.484544642e-19
-2.402035163e-19
-1.508538804e-19
-1.20878402e-19
-1.029878415e-19
-8.787237092e-20
-7.377477779e-20
-6.063370543e-20
-4.869591939e-20
-3.817595219e-20
-2.916666458e-20
-2.167995975e-20
-1.565494831e-20
-1.097166854e-20
-7.457549356e-21
-4.915751619e-21
-3.143107269e-21
-1.950758947e-21
-1.176534227e-21
-6.905790352e-22
-3.952978728e-22
-2.213306663e-22
-1.217564835e-22
-6.623414502e-23
-3.595654961e-23
-1.970993794e-23
-1.104677606e-23
-6.388882155e-24
-3.818303446e-24
-2.34031341e-24
-1.451773653e-24
-8.991839054e-25
-5.503877901e-25
-3.310538307e-25
-1.954091614e-25
-1.134193004e-25
-6.501191636e-26
-3.699877088e-26
-2.101443384e-26
-1.195855599e-26
-6.831634316e-27
-3.917826383e-27
-2.251922454e-27
-1.293679961e-27
-7.394861091e-28
-4.170449401e-28
-2.278840127e-28
-1.162552744e-28
-5.160008148e-29
-1.7265271e-29
-2.806390603e-30
-6.455338178e-09
-6.696773592e-11
-9.529442785e-13
-4.999098972e-14
-4.970151382e-15
-7.254145251e-16
-1.213668334e-16
-2.258101034e-17
-5.605575118e-18
-2.169093676e-18
-1.199647964e-18
-8.495443655e-19
-6.777980227e-19
-5.671043656e-19
-4.750157359e-19
-3.893903541e-19
-3.100281062e-19
-2.396439222e-19
-1.801970603e-19
-1.320260727e-19
-9.441118026e-20
-6.591968869e-20
-4.494856953e-20
-2.994354334e-20
-1.946680928e-20
-1.234613953e-20
-7.639753358e-21
-4.615181522e-21
-2.724879813e-21
-1.575713304e-21
-8.944043901e-22
-5.001662256e-22
-2.7718785e-22
-1.535285289e-22
-8.591232647e-23
-4.911064426e-23
-2.888488542e-23
-1.746928949e-23
-1.077026318e-23
-6.682356619e-24
-4.121814727e-24
-2.506260174e-24
-1.496306556e-24
-8.77206288e-25
-5.065829571e-25
-2.896181461e-25
-1.64852278e-25
-9.389018557e-26
-5.368483377e-26
-3.08553321e-26
-1.78124121e-26
-1.030474132e-26
-5.954391311e-27
-3.420001999e-27
-1.93532855e-27
-1.060241131e-27
-5.453015538e-28
-2.472999412e-28
-8.316739279e-29
-1.180208978e-29
-5.259884166e-07
-6.07162547e-09
-3.969178643e-11
-5.625436456e-13
-2.440093638e-14
-2.212218053e-15
-3.522692553e-16
-8.755138331e-17
-2.979432637e-17
-1.397560622e-17
-7.688074347e-18
-4.829207447e-18
-3.742038319e-18
-2.807772207e-18
-2.233865724e-18
-1.77451225e-18
-1.386897308e-18
-1.057376423e-18
-7.804235968e-19
-5.571163439e-19
-3.855813263e-19
-2.595840513e-19
-1.705671741e-19
-1.096707345e-19
-6.91654962e-20
-4.286562421e-20
-2.612378403e-20
-1.565879813e-20
-9.235621806e-21
-5.363986689e-21
-3.074668544e-21
-1.745581078e-21
-9.868115326e-22
-5.59570402e-22
-3.211449004e-22
-1.881146787e-22
-1.129079719e-22
-6.920453767e-23
-4.28951722e-23
-2.656553579e-23
-1.627265014e-23
-9.797633919e-24
-5.787181375e-24
-3.358790123e-24
-1.923712092e-24
-1.093877239e-24
-6.213480671e-25
-3.5431696e-25
-2.034068036e-25
-1.176133757e-25
-6.839071868e-26
-3.987566225e-26
-2.321623601e-26
-1.34211792e-26
-7.630493762e-27
-4.195287557e-27
-2.16651271e-27
-9.908919627e-28
-3.187114897e-28
-3.94935123e-29
-5.444128986e-07
-1.135500844e-08
-1.028558161e-10
-1.22829271e-12
-6.439288277e-14
-1.109987356e-14
-3.232357449e-15
-1.091219067e-15
-3.56384408e-16
-1.488321704e-16
-7.033159081e-17
-3.748377057e-17
-2.23071151e-17
-1.493995154e-17
-1.194830041e-17
-8.995943561e-18
-6.804772664e-18
-5.041709501e-18
-3.639292173e-18
-2.567138193e-18
-1.753005875e-18
-1.158516179e-18
-7.417232711e-19
-4.615149385e-19
-2.803704047e-19
-1.671926332e-19
-9.835534213e-20
-5.726812907e-20
-3.306140823e-20
-1.89480446e-20
-1.080024852e-20
-6.139997171e-21
-3.496069351e-21
-2.005840456e-21
-1.168028351e-21
-6.943696125e-22
-4.216583919e-22
-2.598603978e-22
-1.607060104e-22
-9.858202527e-23
-5.949288744e-23
-3.5194725e-23
-2.042049659e-23
-1.166560492e-23
-6.602276879e-24
-3.72785225e-24
-2.112597885e-24
-1.206351098e-24
-6.951579439e-25
-4.03984929e-25
-2.362565819e-25
-1.386109471e-25
-8.124327013e-26
-4.727590383e-26
-2.703627051e-26
-1.493246137e-26
-7.73807348e-27
-3.542087048e-27
-1.064643777e-27
-1.188978011e-28
-2.312794405e-07
-3.219982609e-08
-5.258054351e-10
-6.189028436e-12
-3.368704231e-13
-7.344325991e-14
-2.49753301e-14
-9.493359989e-15
-3.828728049e-15
-1.514286877e-15
-6.530810546e-16
-3.270985651e-16
-1.795539882e-16
-1.08144468e-16
-7.402398643e-17
-5.735813212e-17
-4.155724792e-17
-3.002193405e-17
-2.122845674e-17
-1.462722379e-17
-9.805082707e-18
-6.396739657e-18
-4.042403654e-18
-2.473323541e-18
-1.468085258e-18
-8.498235119e-19
-4.823179164e-19
-2.696448561e-19
-1.491551392e-19
-8.207303574e-20
-4.515945707e-20
-2.496003903e-20
-1.392222475e-20
-7.880560958e-21
-4.55428356e-21
-2.698378141e-21
-1.63386671e-21
-1.000781009e-21
-6.118079349e-22
-3.687211237e-22
-2.173385654e-22
-1.250275688e-22
-7.040555154e-23
-3.907850512e-23
-2.159138325e-23
-1.199110546e-23
-6.741271216e-24
-3.847108917e-24
-2.226279131e-24
-1.302071475e-24
-7.664356455e-25
-4.522092917e-25
-2.663244366e-25
-1.556509064e-25
-8.942980768e-26
-4.967868787e-26
-2.590095936e-26
-1.183964414e-26
-3.302868839e-27
-3.430683037e-28
-3.08377833e-07
-1.186346015e-07
-4.270334144e-09
-7.393988868e-11
-1.754321e-12
-2.819352805e-13
-9.738346514e-14
-4.042611535e-14
-1.779313539e-14
-8.155823771e-15
-3.555475871e-15
-1.721407503e-15
-9.530423376e-16
-5.778815156e-16
-3.807426595e-16
-2.975546252e-16
-2.258536933e-16
-1.662766004e-16
-1.213312327e-16
-8.633273763e-17
-5.986812646e-17
-4.005494735e-17
-2.565420587e-17
-1.577601164e-17
-9.360779887e-18
-5.400523328e-18
-3.036113387e-18
-1.663023062e-18
-8.905960146e-19
-4.696173159e-19
-2.459489413e-19
-1.28882209e-19
-6.811808607e-20
-3.665083173e-20
-2.024823112e-20
-1.154610121e-20
-6.78089179e-21
-4.045930488e-21
-2.411810527e-21
-1.414974192e-21
-8.089902295e-22
-4.49562865e-22
-2.436873061e-22
-1.299585714e-22
-6.908806974e-23
-3.717035526e-23
-2.045872901e-23
-1.156149657e-23
-6.687874319e-24
-3.933840189e-24
-2.335201587e-24
-1.389695294e-24
-8.243401905e-25
-4.844333631e-25
-2.796749742e-25
-1.563311614e-25
-8.220789653e-26
-3.747603401e-26
-9.75714757e-27
-9.631877902e-28
-3.910562513e-05
-3.21465314e-06
-1.697911062e-07
-4.474654167e-09
-8.772573719e-11
-4.741590283e-12
-7.697958684e-13
-2.118112315e-13
-7.102734682e-14
-2.716545528e-14
-1.178539836e-14
-5.024780031e-15
-2.657801033e-15
-1.611000832e-15
-1.091989538e-15
-8.09409905e-16
-7.433240664e-16
-5.950988219e-16
-4.784606656e-16
-3.762834601e-16
-2.842956404e-16
-2.046912379e-16
-1.398051274e-16
-9.139156734e-17
-5.720768103e-17
-3.462558245e-17
-2.006581414e-17
-1.112789366e-17
-5.96025253e-18
-3.114209424e-18
-1.598990344e-18
-8.088552748e-19
-4.066503568e-19
-2.058843809e-19
-1.062659882e-19
-5.634591503e-20
-3.082202996e-20
-1.73091303e-20
-9.817888304e-21
-5.522622549e-21
-3.038511341e-21
-1.623890055e-21
-8.438102405e-22
-4.296067089e-22
-2.174582805e-22
-1.116024453e-22
-5.905633038e-23
-3.247225864e-23
-1.851290343e-23
-1.085211519e-23
-6.471686114e-24
-3.886782857e-24
-2.330381939e-24
-1.383612613e-24
-8.059856137e-25
-4.541812699e-25
-2.404322016e-25
-1.091866482e-25
-2.700082811e-26
-2.515097831e-27
-5.556109859e-05
-5.177832518e-06
-5.371363944e-07
-2.57632444e-08
-6.18243949e-10
-2.084646906e-11
-2.112312903e-12
-4.609307454e-13
-1.460186003e-13
-5.506878369e-14
-2.348286154e-14
-1.057597876e-14
-5.123927255e-15
-3.082393365e-15
-2.110649418e-15
-1.611161092e-15
-1.422200466e-15
-1.314081638e-15
-1.132067184e-15
-9.726040673e-16
-8.193832383e-16
-6.702321456e-16
-5.278883424e-16
-3.960163945e-16
-2.813674731e-16
-1.877528401e-16
-1.173099908e-16
-6.919593177e-17
-3.893678134e-17
-2.117443811e-17
-1.108216939e-17
-5.584394024e-18
-2.752111177e-18
-1.348344021e-18
-6.629111201e-19
-3.27844249e-19
-1.642837874e-19
-8.388853366e-20
-4.357876362e-20
-2.280187866e-20
-1.183606803e-20
-6.035785145e-21
-3.005634581e-21
-1.462256526e-21
-7.019142371e-22
-3.399942616e-22
-1.703456829e-22
-8.945225727e-23
-4.927277634e-23
-2.827168427e-23
-1.671644109e-23
-1.005894629e-23
-6.085669122e-24
-3.659999758e-24
-2.162458923e-24
-1.235096667e-24
-6.606707086e-25
-3.001351261e-25
-7.176489948e-26
-6.512340278e-27
-3.902304286e-05
-4.193198634e-06
-6.111763646e-07
-6.172342951e-08
-2.669870704e-09
-7.61825398e-11
-4.394326125e-12
-6.811484042e-13
-1.934613362e-13
-7.329889722e-14
-3.242052991e-14
-1.457362341e-14
-7.519555632e-15
-4.627224939e-15
-3.255733711e-15
-2.576093791e-15
-2.228051141e-15
-2.309377393e-15
-2.085353443e-15
-1.892354039e-15
-1.695905287e-15
-1.487466845e-15
-1.269668339e-15
-1.049752115e-15
-8.368874465e-16
-6.402846317e-16
-4.677271786e-16
-3.229054896e-16
-2.089716932e-16
-1.257940889e-16
-7.032090821e-17
-3.701532981e-17
-1.872244541e-17
-9.282687392e-18
-4.497474741e-18
-2.140962652e-18
-1.010236284e-18
-4.756530311e-19
-2.236973006e-19
-1.056278592e-19
-5.020033871e-20
-2.377299651e-20
-1.118907036e-20
-5.223485127e-21
-2.413450118e-21
-1.104006095e-21
-5.167609128e-22
-2.541991751e-22
-1.325087936e-22
-7.288313787e-23
-4.185256827e-23
-2.479051802e-23
-1.495343045e-23
-9.055299552e-24
-5.422104879e-24
-3.148625245e-24
-1.710589478e-24
-7.831159802e-25
-1.847243228e-25
-1.68137872e-26
-2.719346042e-05
-3.958854488e-06
-4.359685039e-07
-1.201363176e-07
-9.854082012e-09
-3.874185478e-10
-1.460985222e-11
-1.36211729e-12
-2.872672427e-13
-9.739897281e-14
-4.194819917e-14
-1.83900655e-14
-9.853790098e-15
-6.160023268e-15
-4.451368283e-15
-3.660464518e-15
-3.287585307e-15
-3.597974061e-15
-3.39741141e-15
-3.22467046e-15
-3.025553371e-15
-2.783979134e-15
-2.501469268e-15
-2.188112392e-15
-1.858122211e-15
-1.527296773e-15
-1.21111286e-15
-9.229297541e-16
-6.727059833e-16
-4.6665513e-16
-3.065172902e-16
-1.887273766e-16
-1.081704011e-16
-5.755879455e-17
-2.867558719e-17
-1.374270509e-17
-6.409544302e-18
-2.924571236e-18
-1.292701069e-18
-5.601089309e-19
-2.419828646e-19
-1.047745299e-19
-4.54152227e-20
-1.980511397e-20
-8.75797344e-21
-3.921860658e-21
-1.7510552e-21
-7.935346783e-22
-3.810377629e-22
-1.957016248e-22
-1.066375223e-22
-6.086439964e-23
-3.586504511e-23
-2.149757256e-23
-1.289665238e-23
-7.571515084e-24
-4.180071053e-24
-1.942922804e-24
-4.634109149e-25
-4.378254127e-26
-0.0002180460015
-3.275777734e-05
-4.462093411e-06
-7.544975831e-07
-9.223129821e-08
-5.820352649e-09
-2.132049517e-10
-1.040518088e-11
-1.178166536e-12
-2.432875181e-13
-7.497044405e-14
-3.062099295e-14
-1.306974905e-14
-7.878606146e-15
-5.764366746e-15
-4.940052134e-15
-4.832074894e-15
-5.319453226e-15
-5.25442081e-15
-5.182780281e-15
-5.036574575e-15
-4.794515943e-15
-4.458472069e-15
-4.042956239e-15
-3.569506468e-15
-3.062983051e-15
-2.548953888e-15
-2.051921965e-15
-1.59312035e-15
-1.188931777e-15
-8.497265024e-16
-5.791852296e-16
-3.747442147e-16
-2.292227738e-16
-1.320928564e-16
-7.10828451e-17
-3.568840607e-17
-1.668415774e-17
-7.339978583e-18
-3.104686713e-18
-1.272787852e-18
-5.122583384e-19
-2.050043021e-19
-8.231472878e-20
-3.34782827e-20
-1.397492148e-20
-6.071025303e-21
-2.721147304e-21
-1.241171255e-21
-5.850741044e-22
-2.920889164e-22
-1.560818012e-22
-8.778683993e-23
-5.102509218e-23
-3.006763264e-23
-1.756587094e-23
-9.777098292e-24
-4.638324151e-24
-1.148607574e-24
-1.171636002e-25
-0.0006576912864
-9.949420002e-05
-1.469082156e-05
-2.223626963e-06
-3.246625779e-07
-3.576254549e-08
-2.264526393e-09
-9.291521184e-11
-5.252479502e-12
-6.306903692e-13
-1.365177349e-13
-4.357195961e-14
-1.637297966e-14
-9.480962444e-15
-7.261831542e-15
-6.713729545e-15
-7.829197073e-15
-7.996326177e-15
-8.212085737e-15
-8.323176703e-15
-8.265652043e-15
-8.021705012e-15
-7.599887908e-15
-7.024669259e-15
-6.329829794e-15
-5.55476459e-15
-4.741742115e-15
-3.930775026e-15
-3.158048445e-15
-2.45352055e-15
-1.838747189e-15
-1.325659072e-15
-9.161786233e-16
-6.046824963e-16
-3.799062693e-16
-2.263847597e-16
-1.27445499e-16
-6.749017139e-17
-3.335608827e-17
-1.524897807e-17
-6.45080449e-18
-2.546715121e-18
-9.739288349e-19
-3.663019306e-19
-1.377030139e-19
-5.271049105e-20
-2.093644123e-20
-8.811786942e-21
-3.946252804e-21
-1.843896435e-21
-8.880701403e-22