/*--------------------------------*- C++ -*----------------------------------*\
  =========                 |
  \\      /  F ield         | OpenFOAM: The Open Source CFD Toolbox
   \\    /   O peration     | Website:  https://openfoam.org
    \\  /    A nd           | Version:  10
     \\/     M anipulation  |
\*---------------------------------------------------------------------------*/
FoamFile
{
    format      ascii;
    class       volScalarField;
    location    "3000";
    object      RR.CH2O;
}
// * * * * * * * * * * * * * * * * * * * * * * * * * * * * * * * * * * * * * //

dimensions      [1 -3 -1 0 0 0 0];

internalField   nonuniform List<scalar> 
5170
(
1.001689077e-46
1.005330926e-46
1.026400699e-46
1.130491188e-46
1.685426736e-46
1.721009155e-46
1.733878427e-46
1.804209927e-46
2.125306274e-46
3.049116932e-46
2.440344376e-46
2.474523421e-46
2.629426276e-46
3.242837518e-46
4.318413518e-46
3.182161288e-46
3.252862892e-46
3.53447037e-46
4.497340113e-46
5.591949843e-46
3.98282455e-46
4.095682554e-46
4.531712236e-46
5.894106258e-46
6.976739988e-46
1.720745306e-45
1.360568986e-45
9.988643974e-46
1.649401685e-45
8.33338989e-45
5.43342217e-43
3.875556043e-43
2.279097153e-43
6.528009354e-43
5.86519027e-42
2.420474033e-40
1.795793416e-40
1.296637617e-40
4.763927503e-40
4.475561264e-39
1.108646275e-37
8.789590393e-38
7.931152323e-38
3.551269656e-37
3.364011513e-36
5.228594531e-35
4.540796183e-35
5.139676527e-35
2.710670371e-34
2.504223937e-33
2.538026958e-32
2.471146967e-32
3.504009807e-32
2.119335802e-31
1.854106508e-30
1.26212707e-29
1.40908176e-29
2.511728276e-29
1.691546195e-28
1.369607591e-27
6.413082668e-27
8.375472858e-27
1.894489011e-26
1.388614784e-25
1.011321569e-24
3.304168619e-24
5.127918129e-24
1.484023666e-23
1.170816089e-22
7.474126115e-22
1.716832779e-21
3.209656346e-21
1.186121628e-20
1.005120099e-19
5.529733524e-19
8.85257887e-19
2.008964267e-18
9.421189396e-18
8.440783872e-17
4.093463382e-16
4.489570862e-16
1.256358674e-15
7.205665584e-15
6.756470187e-14
3.032018477e-13
2.193918473e-13
7.675202779e-13
5.311738634e-12
5.113086689e-11
2.241837602e-10
9.795293526e-11
4.448523011e-10
3.638388177e-09
3.521055052e-08
1.656615329e-07
3.735617696e-08
2.475574975e-07
2.419314655e-06
2.212163117e-05
0.0001241154093
1.428672543e-10
4.874445519e-11
3.205159937e-11
5.6969799e-11
1.420694856e-10
-1.224138527e-11
5.768007409e-12
5.317934569e-12
3.877605304e-12
-1.789471396e-11
-2.194283614e-11
-6.40131699e-12
-1.514436512e-12
-1.130898047e-11
-2.176952197e-11
-1.662957887e-11
-1.23215218e-11
-1.01528611e-11
-1.426630644e-11
-1.508687529e-11
-1.179096759e-11
-1.170643539e-11
-1.09562068e-11
-1.260037983e-11
-1.03174607e-11
-8.355651368e-12
-9.74972904e-12
-9.679241086e-12
-1.01931179e-11
-7.084637622e-12
-6.058778282e-12
-7.828156285e-12
-8.017215132e-12
-7.984711475e-12
-4.939074027e-12
-4.446575846e-12
-6.167041087e-12
-6.450712152e-12
-6.068781107e-12
-3.41303232e-12
-3.286361115e-12
-4.756080041e-12
-5.051691563e-12
-4.438709138e-12
-2.342628789e-12
-2.448092625e-12
-3.632833901e-12
-3.866848842e-12
-3.17459012e-12
-1.627208484e-12
-1.833826681e-12
-2.748680236e-12
-2.913909263e-12
-2.26447838e-12
-1.160546857e-12
-1.385287827e-12
-2.072649937e-12
-2.175941447e-12
-1.63004997e-12
-8.537316114e-13
-1.057275328e-12
-1.562613633e-12
-1.624085239e-12
-1.195952228e-12
-6.504581476e-13
-8.207258337e-13
-1.189302513e-12
-1.221734824e-12
-9.000823291e-13
-5.139770041e-13
-6.558179473e-13
-9.174259757e-13
-9.324910079e-13
-6.977264606e-13
-4.212617228e-13
-3.337145194e-12
-1.563724075e-12
-8.835407171e-13
-5.459388563e-13
-3.500343002e-13
-1.108855728e-10
-3.209068488e-11
-1.061896743e-11
-5.180582641e-12
-3.389632063e-13
-2.028475387e-08
-4.681402141e-09
-9.08397795e-10
-1.69151568e-10
-1.798310653e-11
-4.120616082e-06
-7.234869017e-07
-1.254424806e-07
-2.049396247e-08
-1.889828728e-09
-0.002507064568
-0.0001404275884
-1.674886695e-05
-1.868217436e-06
-2.130338718e-07
1.864694715e-06
1.749750183e-05
0.000347093195
0.007101453301
0.1559521473
9.167564946e-06
7.565094115e-05
0.001216341771
0.01678105361
0.1763922333
2.607782529e-05
0.0001925727795
0.002540835943
0.02458142124
0.1615063056
5.881848694e-05
0.0003949954297
0.004290690177
0.03011268809
0.1367170723
0.0001141007379
0.0006989183708
0.00618914802
0.03326381508
0.1143292212
0.00020287079
0.001126789091
0.008128517695
0.03539317671
0.09990949674
0.0003560726484
0.001798507402
0.01048320563
0.03782961705
0.09421492782
0.0006262898379
0.002851664871
0.01326343359
0.04043704081
0.09249173161
0.001090365293
0.004339152507
0.01624519459
0.0426776279
0.09092731612
0.001841739971
0.006223616538
0.0192736709
0.04471995844
0.09044154743
0.003051112731
0.008448021279
0.02222597579
0.04696398822
0.09205269897
0.004707253996
0.01087771121
0.02516351293
0.04952630131
0.09455810903
0.006860083417
0.0136104021
0.02821026201
0.05223334507
0.09645201965
0.009724153751
0.01684885656
0.03152026676
0.05523010451
0.09826536562
0.01368703361
0.02087556064
0.03536042882
0.05911450526
0.1011264317
0.01909167882
0.02601083932
0.04016003317
0.06456192421
0.1056015197
0.02599277293
0.03241206727
0.04637810019
0.07176674467
0.1104991723
0.03381833776
0.0398405673
0.05404386517
0.0791921202
0.1126215434
0.04201779509
0.04798168615
0.06203237519
0.08403508578
0.111130098
0.04974383075
0.05530779258
0.06746115857
0.08488950092
0.107373424
0.05456549328
0.05910571929
0.06873746253
0.08311029151
0.1038347299
0.05539918849
0.05884522036
0.06745316914
0.08083976322
0.09962236993
0.05418087573
0.05769508262
0.06577116788
0.07911255743
0.09499540142
0.0531211574
0.05676783973
0.06535818489
0.07685329308
0.09612914067
0.0538294889
0.05792270502
0.06469482179
0.07896368661
0.09611727236
0.05718974804
0.06181615557
0.07285226716
0.08248297571
0.1002668226
0.06361947245
0.06872669308
0.08047163968
0.09433278669
0.1130662743
0.0729738721
0.07851251144
0.09138745587
0.1019721759
0.1219895263
0.07991894781
0.08393374767
0.1025067198
0.1227144125
0.1450862294
0.09040844698
0.09966920067
0.1080764912
0.1214808853
0.1393480745
0.09926738883
0.1016807887
0.1096740889
0.1190945499
0.119837489
0.09743118611
0.09938076225
0.09957896286
0.09666259202
0.09194556602
0.06703104179
0.06424656818
0.05706232066
0.0475545185
0.03030741795
-0.002258800587
-0.006307625039
-0.01769346138
-0.03407220814
-0.05521832139
-0.09591880063
-0.09804853028
-0.1049454259
-0.1150043537
-0.1257796616
-0.1354338769
-0.1356043666
-0.1355314021
-0.1342912513
-0.1311776079
-0.1091091677
-0.1077616504
-0.1047973019
-0.1001690272
-0.09396603827
-0.06871360586
-0.06759934645
-0.06520111064
-0.06169289627
-0.05721993119
-0.03942476709
-0.0387555548
-0.03733919818
-0.03534093703
-0.03308260335
-0.02238305261
-0.02218212617
-0.0218612961
-0.02175556491
-0.02246304159
-0.01793826563
-0.01838202263
-0.01932846861
-0.02053773092
-0.02136486648
-0.0126873953
-0.01248227002
-0.01201665454
-0.01131462377
-0.01042979697
-0.005304659019
-0.005219371566
-0.005037583272
-0.004776424391
-0.004452837641
-0.002218091589
-0.002187449287
-0.002121667669
-0.002026282537
-0.001906612883
-0.0009370036341
-0.0009256223536
-0.0009011576797
-0.0008654706117
-0.0008203088825
-0.000399617037
-0.0003953171092
-0.0003860324896
-0.0003724202423
-0.0003550770307
-0.0001720593087
-0.0001703957067
-0.0001668038162
-0.0001615193695
-0.0001547518295
-7.476227277e-05
-7.411074596e-05
-7.269941661e-05
-7.061660577e-05
-6.793788644e-05
-3.27863411e-05
-3.252643613e-05
-3.196376207e-05
-3.113171922e-05
-3.005784311e-05
-1.45154151e-05
-1.441097502e-05
-1.418433288e-05
-1.384846401e-05
-1.341399445e-05
-6.497692544e-06
-6.455415629e-06
-6.36370542e-06
-6.227879065e-06
-6.053941445e-06
-2.952465566e-06
-2.935699399e-06
-2.899335719e-06
-2.84548545e-06
-2.774916271e-06
-1.375332394e-06
-1.369250794e-06
-1.356142346e-06
-1.336915681e-06
-1.312439713e-06
-6.756141007e-07
-6.743103805e-07
-6.716066631e-07
-6.679511333e-07
-6.639138641e-07
-3.738527167e-07
-3.749938412e-07
-3.776539123e-07
-3.821076825e-07
-3.88869022e-07
-2.594836156e-07
-2.622737298e-07
-2.685753793e-07
-2.78613928e-07
-2.929634519e-07
-2.418618484e-07
-2.46208472e-07
-2.559750164e-07
-2.713922918e-07
-2.931707005e-07
-2.858478109e-07
-2.920823195e-07
-3.060619148e-07
-3.280555979e-07
-3.589846334e-07
-3.85383644e-07
-3.942206174e-07
-4.140168555e-07
-4.451053048e-07
-4.887159764e-07
-5.560830558e-07
-5.68781211e-07
-5.972037661e-07
-6.417807404e-07
-7.042013813e-07
-8.353627196e-07
-8.526650508e-07
-8.911862328e-07
-9.510301354e-07
-1.033679198e-06
-1.195535716e-06
-1.217645921e-06
-1.266695051e-06
-1.343127114e-06
-1.447854944e-06
-1.691733107e-06
-1.718966287e-06
-1.779213781e-06
-1.871776402e-06
-1.997658367e-06
-2.329200539e-06
-2.360806875e-06
-2.430509065e-06
-2.537009713e-06
-2.680732184e-06
-3.103915544e-06
-3.138464409e-06
-3.214415807e-06
-3.32982139e-06
-3.484347347e-06
-3.98766212e-06
-4.022974083e-06
-4.100346084e-06
-4.217231359e-06
-4.372464512e-06
-4.924857943e-06
-4.958169216e-06
-5.030888988e-06
-5.140040468e-06
-5.2836816e-06
-5.829671839e-06
-5.858169879e-06
-5.920098157e-06
-6.012313151e-06
-6.132284987e-06
-6.594835639e-06
-6.616024358e-06
-6.661753074e-06
-6.729030735e-06
-6.815029939e-06
-7.030790258e-06
-7.044925044e-06
-7.075111395e-06
-7.118694885e-06
-7.172835144e-06
0.9528653539
0.5567831002
0.3463656441
0.247550956
0.1935217269
0.1686177439
0.1648825304
0.1612105714
0.1526104675
0.147240908
0.1468500208
0.1463306925
0.142733383
0.1395034265
0.1389814733
0.1413418759
0.1436517946
0.1416280342
0.1363354894
0.1306076123
0.1225679534
0.116916696
0.1169682914
0.1132706845
0.1153614002
0.1198195034
0.134448274
0.143864274
0.1454407811
0.1468860944
0.1236116245
0.08499397595
0.01497466747
-0.07138640158
-0.1318217122
-0.1274986857
-0.08886974422
-0.05374407114
-0.03159266347
-0.02386959873
-0.02125739757
-0.009777280849
-0.004211366904
-0.001815934402
-0.0007857114629
-0.0003416777817
-0.0001494883767
-6.58430857e-05
-2.921437502e-05
-1.307160547e-05
-5.913002051e-06
-2.720219856e-06
-1.293602322e-06
-6.615094266e-07
-3.953152754e-07
-3.057934614e-07
-3.123786252e-07
-3.861196057e-07
-5.268647707e-07
-7.586895693e-07
-1.104775575e-06
-1.536964947e-06
-2.10400451e-06
-2.801022659e-06
-3.612443471e-06
-4.499835796e-06
-5.400173212e-06
-6.228141129e-06
-6.882124497e-06
-7.213407418e-06
1.123590401
-0.07261333487
-0.002611491035
-0.0001647912133
-1.083947864e-05
0.6140677301
0.8511862913
-0.1425105582
-0.006142504565
-6.571382685e-05
0.4432980813
0.6938503105
-0.2780278883
-0.01540830012
0.0002826128623
0.3178402363
0.4512133181
-0.08406261394
-0.06244772317
-0.003003905973
0.2463115197
0.4018114552
0.296438071
-0.1683045466
-0.0117628121
0.2344155389
0.4416094402
0.69470316
-0.3233824699
-0.02796455965
0.2553552505
0.4845943637
0.8331538851
-0.4551974294
-0.0484131502
0.2446175211
0.4119183871
0.6730118576
-0.3774202264
-0.09775243489
0.2178124495
0.3436405482
0.5978045448
0.08102865491
-0.2472381663
0.2055634196
0.3281321098
0.6216828736
0.372079693
-0.4015359324
0.2048594489
0.3299154571
0.6274745042
0.5603682288
-0.5239901851
0.2001869027
0.3125453441
0.5603371642
0.6385991322
-0.5652535094
0.1882098
0.2801652257
0.4826294408
0.5948454219
-0.1312173902
0.1797750592
0.2625772216
0.4559056403
0.6229165349
0.09707274792
0.177941277
0.2595316813
0.4521710489
0.6496705929
0.2632734761
0.1793287113
0.2625825882
0.4493936874
0.6457187387
0.3837066248
0.1794976874
0.258445259
0.4264520023
0.5939492205
0.4576223691
0.1735850084
0.2434786772
0.387147586
0.5222391167
0.4505271197
0.1547851367
0.228102774
0.3560942215
0.4765613097
0.4322815534
0.1487226737
0.2187658351
0.3386296225
0.4519500522
0.4209705118
0.1447561619
0.2153384342
0.3296611131
0.4346208377
0.4061113751
0.1398096536
0.2149169932
0.3223420225
0.414455817
0.3805558359
0.1397789457
0.2145541063
0.3124970976
0.387966277
0.3456949236
0.1415499029
0.2130658338
0.299150155
0.3553148101
0.3032606578
0.1441221205
0.2102881197
0.2826655393
0.3178984667
0.2537763787
0.1476295386
0.2262112351
0.2639618125
0.2765582343
0.1975151111
0.1619360294
0.2150435278
0.2421642429
0.2298535743
0.1342727765
0.1703780451
0.1957798048
0.2129133869
0.1740320353
0.06350890732
0.1681331744
0.1796528436
0.1699099955
0.1063806884
-0.01039600691
0.1734606756
0.1473728
0.1092157422
0.02863131159
-0.07608250466
0.1197629696
0.0932490908
0.03357444624
-0.05030690886
-0.1192861836
0.06604923671
0.01827421719
-0.04763253423
-0.1121531542
-0.1331366848
-0.0125931651
-0.06430728426
-0.1144978743
-0.1371644562
-0.123514376
-0.0947477692
-0.1266974768
-0.1391096282
-0.1255107245
-0.1030938949
-0.1377773688
-0.136068834
-0.120069489
-0.09686379724
-0.08563451358
-0.1206411383
-0.1045930156
-0.08532719003
-0.07046326148
-0.08037817467
-0.08131094164
-0.06791495456
-0.05645492519
-0.05707984902
-0.07430551429
-0.04905318398
-0.04239035606
-0.04249916153
-0.05538970829
-0.04809288701
-0.03030781951
-0.03258503723
-0.04152249892
-0.0375397576
-0.0264702401
-0.02685042307
-0.03096824508
-0.02620200367
-0.01937315475
-0.01400902007
-0.0197469496
-0.01611271036
-0.01258943789
-0.009589492683
-0.007149120139
-0.008819091541
-0.007307611333
-0.005880727145
-0.004612938595
-0.003539024243
-0.003855322692
-0.003271752589
-0.002700132142
-0.00217356569
-0.001711620968
-0.001681582349
-0.001455091414
-0.001226723288
-0.001010002801
-0.0008140855664
-0.0007342648983
-0.0006456598499
-0.0005542341688
-0.0004653103204
-0.000382841069
-0.0003216971011
-0.0002867008626
-0.0002499082628
-0.0002133834693
-0.0001787676077
-0.0001416227867
-0.000127656499
-0.0001127472104
-9.769259575e-05
-8.316180896e-05
-6.270756135e-05
-5.707701447e-05
-5.099030712e-05
-4.475772283e-05
-3.86505809e-05
-2.795042284e-05
-2.566001859e-05
-2.315929843e-05
-2.057041542e-05
-1.800543436e-05
-1.2558192e-05
-1.162165733e-05
-1.059219871e-05
-9.519986524e-06
-8.45121369e-06
-5.704693383e-06
-5.32406191e-06
-4.905446786e-06
-4.470422937e-06
-4.04063214e-06
-2.638370141e-06
-2.49007336e-06
-2.330373542e-06
-2.168677758e-06
-2.017691384e-06
-1.265717588e-06
-1.217885391e-06
-1.171046016e-06
-1.132169607e-06
-1.10990823e-06
-6.584280645e-07
-6.577869722e-07
-6.658044247e-07
-6.88578155e-07
-7.343034327e-07
-4.056865331e-07
-4.316413884e-07
-4.721548593e-07
-5.338149725e-07
-6.257829188e-07
-3.259604311e-07
-3.722400285e-07
-4.390629279e-07
-5.343270064e-07
-6.691093894e-07
-3.424029177e-07
-4.098569744e-07
-5.051507642e-07
-6.382213911e-07
-8.229915095e-07
-4.284323767e-07
-5.226705018e-07
-6.545206823e-07
-8.368345646e-07
-1.08754524e-06
-5.86262887e-07
-7.178850834e-07
-9.009457981e-07
-1.152462111e-06
-1.49606498e-06
-8.434317544e-07
-1.030529484e-06
-1.289622886e-06
-1.620627706e-06
-2.034204098e-06
-1.213465794e-06
-1.445968763e-06
-1.751310713e-06
-2.140948231e-06
-2.632166008e-06
-1.672348929e-06
-1.957133402e-06
-2.324227217e-06
-2.782765548e-06
-3.339139549e-06
-2.264551952e-06
-2.596284254e-06
-3.013871677e-06
-3.521658398e-06
-4.120646178e-06
-2.981613189e-06
-3.348210256e-06
-3.799130863e-06
-4.332540617e-06
-4.941795118e-06
-3.803731283e-06
-4.184962434e-06
-4.642724098e-06
-5.168602453e-06
-5.748493863e-06
-4.689028807e-06
-5.058688312e-06
-5.491041112e-06
-5.971577114e-06
-6.47988925e-06
-5.572210386e-06
-5.900650669e-06
-6.27286195e-06
-6.6697097e-06
-7.066657418e-06
-6.368657801e-06
-6.628825155e-06
-6.910900839e-06
-7.193115542e-06
-7.449250318e-06
-6.979344017e-06
-7.15007927e-06
-7.320255818e-06
-7.467781818e-06
-7.567321266e-06
-7.270861863e-06
-7.361797497e-06
-7.435176296e-06
-7.470023302e-06
-7.443084224e-06
-6.054112379e-07
-1.514842766e-08
-6.659242612e-10
-1.094141316e-10
-3.107334852e-11
-8.025195183e-12
-1.761131347e-12
-3.578928886e-13
-7.476874448e-14
-1.735205779e-14
-3.509004471e-15
1.446806453e-15
4.404641936e-15
6.984450748e-15
9.662015151e-15
1.255506378e-14
1.559596838e-14
1.858989867e-14
2.127690825e-14
2.340784258e-14
2.482594301e-14
2.551515525e-14
2.55895664e-14
2.523405572e-14
2.463022246e-14
2.390767482e-14
2.311616498e-14
2.223433974e-14
2.121167715e-14
2.000591048e-14
1.860544903e-14
1.703242847e-14
1.533255707e-14
1.356087416e-14
1.177023036e-14
1.000659376e-14
8.310805586e-15
6.721975826e-15
5.278339155e-15
4.013671656e-15
2.950987837e-15
2.097304319e-15
1.442495533e-15
9.625158768e-16
6.253195079e-16
3.972424811e-16
2.478478221e-16
1.524640907e-16
9.273083773e-17
5.584480535e-17
3.32978733e-17
1.962946418e-17
1.14093989e-17
6.508454924e-18
3.613048446e-18
1.917050643e-18
9.316544343e-19
3.798544982e-19
1.080034332e-19
1.925161463e-20
-2.011480175e-05
-5.398121368e-07
-2.315300607e-08
-4.058431791e-09
-1.082114671e-09
-2.699790046e-10
-6.2383408e-11
-1.582109838e-11
-4.886007229e-12
-1.834094486e-12
-7.488428904e-13
-3.023520608e-13
-1.023757932e-13
-6.299040628e-15
4.52961196e-14
7.767886244e-14
1.01227923e-13
1.196860687e-13
1.339631698e-13
1.439760962e-13
1.497009557e-13
1.515933467e-13
1.506284031e-13
1.479385518e-13
1.445144392e-13
1.408843464e-13
1.37088711e-13
1.328235637e-13
1.276685659e-13
1.213029965e-13
1.136262895e-13
1.047548176e-13
9.494929582e-14
8.453353829e-14
7.382990124e-14
6.312984407e-14
5.270462321e-14
4.282463582e-14
3.376134629e-14
2.576043565e-14
1.899715931e-14
1.353942225e-14
9.338635839e-15
6.250610086e-15
4.075427437e-15
2.599970175e-15
1.630232964e-15
1.008524844e-15
6.172091793e-16
3.741095419e-16
2.245243609e-16
1.332145075e-16
7.79133088e-17
4.470440583e-17
2.49425778e-17
1.329910571e-17
6.549263347e-18
2.790523678e-18
9.014930223e-19
1.451296862e-19
-6.806718935e-05
-1.998702486e-06
-9.937603462e-08
-2.458672207e-08
-7.2890197e-09
-2.199237709e-09
-7.023084105e-10
-2.665684928e-10
-1.154399787e-10
-5.363146156e-11
-2.483343749e-11
-1.124164023e-11
-4.859223946e-12
-1.942490204e-12
-6.249403475e-13
-2.505338969e-14
2.603896307e-13
4.060543564e-13
4.839125821e-13
5.23197167e-13
5.378945867e-13
5.36873162e-13
5.273857779e-13
5.153482058e-13
5.037144299e-13
4.934137028e-13
4.836309994e-13
4.725878767e-13
4.584476003e-13
4.401347345e-13
4.170111944e-13
3.891902744e-13
3.57337113e-13
3.22338116e-13
2.851413754e-13
2.467248509e-13
2.081729235e-13
1.707124455e-13
1.356544107e-13
1.04218521e-13
7.732106879e-14
5.541150704e-14
3.842345738e-14
2.586068719e-14
1.696581156e-14
1.090023772e-14
6.890530746e-15
4.302087572e-15
2.659453525e-15
1.629288439e-15
9.886192373e-16
5.929497589e-16
3.503898345e-16
2.029520735e-16
1.141710181e-16
6.133454507e-17
3.059537434e-17
1.336186577e-17
4.329609914e-18
6.024250497e-19
2.31764686e-06
-1.140500919e-05
-4.536389957e-07
-8.212871771e-08
-2.802037269e-08
-1.140239448e-08
-5.144044999e-09
-2.538619053e-09
-1.309512691e-09
-6.805914274e-10
-3.455601481e-10
-1.699560762e-10
-8.027803425e-11
-3.625722184e-11
-1.540037988e-11
-5.907232751e-12
-1.68606199e-12
1.690341009e-13
9.810792902e-13
1.324388369e-12
1.447833689e-12
1.46605947e-12
1.438982263e-12
1.399088627e-12
1.362597335e-12
1.334416015e-12
1.311482611e-12
1.287598202e-12
1.25697366e-12
1.215460927e-12
1.161926924e-12
1.09682295e-12
1.021287157e-12
9.363737249e-13
8.431078757e-13
7.428347723e-13
6.377855078e-13
5.314974899e-13
4.285303862e-13
3.335983819e-13
2.505554438e-13
1.816590899e-13
1.273902377e-13
8.668335624e-14
5.748169377e-14
3.733680255e-14
2.38725089e-14
1.508617076e-14
9.447230232e-15
5.867511417e-15
3.61152872e-15
2.198078793e-15
1.317757064e-15
7.736073937e-16
4.403947162e-16
2.391951557e-16
1.206395049e-16
5.34137976e-17
1.655609426e-17
1.99518299e-18
0.000378384386
-6.049864015e-05
-2.777028518e-06
-2.59249932e-07
-8.893029563e-08
-4.591004076e-08
-2.557749529e-08
-1.449027217e-08
-8.257021248e-09
-4.675346237e-09
-2.59530827e-09
-1.401465622e-09
-7.308431151e-10
-3.672792497e-10
-1.770820168e-10
-8.107892609e-11
-3.455178343e-11
-1.302548693e-11
-3.414497127e-12
7.276495698e-13
2.418271478e-12
3.034249341e-12
3.1961113e-12
3.183424897e-12
3.119880235e-12
3.052222682e-12
2.990522209e-12
2.928331279e-12
2.855825973e-12
2.766430768e-12
2.65832292e-12
2.531925889e-12
2.387048081e-12
2.222679992e-12
2.037159969e-12
1.829657142e-12
1.602156989e-12
1.361262391e-12
1.117982649e-12
8.854909737e-13
6.760219778e-13
4.98019434e-13
3.548970135e-13
2.455586779e-13
1.657566145e-13
1.097028018e-13
7.14997636e-14
4.604488275e-14
2.935968288e-14
1.854980916e-14
1.160696442e-14
7.179964451e-15
4.375533938e-15
2.610725017e-15
1.509695244e-15
8.319650976e-16
4.251387162e-16
1.89934091e-16
5.525132177e-17
5.974240845e-18
8.440898623e-05
-0.0001583949631
-1.526115141e-05
-1.152843475e-06
-3.042363738e-07
-1.54262766e-07
-9.080468867e-08
-5.486284422e-08
-3.336139555e-08
-2.025094626e-08
-1.217097126e-08
-7.188967767e-09
-4.145958143e-09
-2.323199658e-09
-1.259284937e-09
-6.579296348e-10
-3.288129011e-10
-1.545597169e-10
-6.718674182e-11
-2.546459285e-11
-6.497286158e-12
1.624509851e-12
4.830999262e-12
5.933327826e-12
6.212975998e-12
6.21085941e-12
6.123540414e-12
5.997366266e-12
5.834804807e-12
5.639503918e-12
5.419643061e-12
5.180424688e-12
4.921487271e-12
4.63631574e-12
4.314538582e-12
3.947982748e-12
3.529490873e-12
3.064765834e-12
2.572839723e-12
2.08165553e-12
1.621121573e-12
1.216122226e-12
8.813233871e-13
6.199448762e-13
4.2600528e-13
2.876983012e-13
1.918291179e-13
1.26592663e-13
8.273022215e-14
5.350633135e-14
3.419843546e-14
2.155951134e-14
1.336714406e-14
8.107555816e-15
4.767107122e-15
2.674465195e-15
1.391508909e-15
6.274651394e-16
1.707298929e-16
1.715254614e-17
-0.00356091733
9.375932406e-05
-5.362725387e-05
-5.83565058e-06
-9.400578613e-07
-3.881307287e-07
-2.22492455e-07
-1.387179334e-07
-8.856346433e-08
-5.689975435e-08
-3.648282475e-08
-2.320765022e-08
-1.457121068e-08
-8.989219359e-09
-5.424666992e-09
-3.188884477e-09
-1.818046289e-09
-9.994192643e-10
-5.19135903e-10
-2.535152859e-10
-1.132551863e-10
-4.321336129e-11
-1.04704502e-11
3.64658522e-12
9.133257904e-12
1.097044647e-11
1.139682654e-11
1.129432734e-11
1.099682666e-11
1.062807608e-11
1.02379708e-11
9.828341167e-12
9.389673886e-12
8.910981205e-12
8.370936013e-12
7.746034274e-12
7.029755916e-12
6.218380861e-12
5.333038942e-12
4.414605872e-12
3.517160867e-12
2.695683456e-12
1.991694743e-12
1.425283466e-12
9.950573397e-13
6.836276861e-13
4.651684163e-13
3.144409689e-13
2.11095119e-13
1.404153635e-13
9.224123273e-14
5.964119194e-14
3.781646986e-14
2.339736036e-14
1.401849131e-14
8.024640025e-15
4.269469647e-15
1.944438726e-15
4.988455617e-16
4.769009122e-17
-0.0102569202
0.000432485743
-0.0001203103783
-2.272938671e-05
-3.27326704e-06
-9.229717695e-07
-4.485410539e-07
-2.711818204e-07
-1.754578782e-07
-1.162444168e-07
-7.762710458e-08
-5.184177892e-08
-3.444309258e-08
-2.267222893e-08
-1.473454892e-08
-9.422766564e-09
-5.903558386e-09
-3.615429749e-09
-2.149942227e-09
-1.220794565e-09
-6.55587092e-10
-3.283314926e-10
-1.48220738e-10
-5.461612609e-11
-9.475817755e-12
1.052644413e-11
1.797695292e-11
1.979535293e-11
1.953540877e-11
1.874709852e-11
1.798143436e-11
1.728282856e-11
1.662216877e-11
1.593969016e-11
1.51405311e-11
1.411602333e-11
1.285503956e-11
1.144538806e-11
9.941212409e-12
8.380230063e-12
6.82371343e-12
5.350993158e-12
4.040399839e-12
2.947005878e-12
2.090861125e-12
1.456944373e-12
1.005975768e-12
6.920941429e-13
4.749203139e-13
3.242546743e-13
2.192745789e-13
1.460949043e-13
9.537750286e-14
6.064596004e-14
3.72663858e-14
2.185195669e-14
1.188979392e-14
5.477220715e-15
1.351585953e-15
1.22517757e-16
-0.02744679504
-0.001219504209
-3.816500908e-05
-6.9672091e-05
-1.109870011e-05
-2.34615404e-06
-8.707220429e-07
-4.704481004e-07
-2.966002234e-07
-1.978832611e-07
-1.351466696e-07
-9.320774649e-08
-6.443637575e-08
-4.442730809e-08
-3.043116556e-08
-2.064183925e-08
-1.382369866e-08
-9.102256156e-09
-5.882368883e-09
-3.708807081e-09
-2.249656885e-09
-1.296026331e-09
-7.007592332e-10
-3.447132541e-10
-1.432241761e-10
-3.806791618e-11
1.084604764e-11
3.002480931e-11
3.519611844e-11
3.493426729e-11
3.278577245e-11
3.03739671e-11
2.852250781e-11
2.728245254e-11
2.621957999e-11
2.477006796e-11
2.272367102e-11
2.018754925e-11
1.748476965e-11
1.481947869e-11
1.22280507e-11
9.781326595e-12
7.560563175e-12
5.641130426e-12
4.076372596e-12
2.878864421e-12
2.010680537e-12
1.399412118e-12
9.733126497e-13
6.762482655e-13
4.679494322e-13
3.206452717e-13
2.16014856e-13
1.419545005e-13
9.015213018e-14
5.455838872e-14
3.053138447e-14
1.431592109e-14
3.464461974e-15
3.084056282e-16
-0.05031495028
-0.005868239871
0.0004522508983
-0.0001277925268
-3.827285018e-05
-6.855265311e-06
-1.814304149e-06
-8.009869388e-07
-4.669666013e-07
-3.051586341e-07
-2.093713738e-07
-1.471029738e-07
-1.04563818e-07
-7.463824368e-08
-5.321962993e-08
-3.77557647e-08
-2.656652058e-08
-1.848323989e-08
-1.266983915e-08
-8.542669375e-09
-5.632448039e-09
-3.588151403e-09
-2.182252613e-09
-1.254354276e-09
-6.623133274e-10
-3.010276026e-10
-9.379878981e-11
1.376644762e-11
6.062780444e-11
7.343911236e-11
7.006797995e-11
6.19126712e-11
5.449260715e-11
4.953659017e-11
4.594647663e-11
4.273381849e-11
3.921508746e-11
3.502371981e-11
3.020766598e-11
2.534271028e-11
2.090879489e-11
1.687293244e-11
1.328536661e-11
1.018535499e-11
7.59245969e-12
5.458270936e-12
3.843644569e-12
2.68962284e-12
1.882545706e-12
1.319670619e-12
9.245121405e-13
6.449200314e-13
4.45399828e-13
3.01867474e-13
1.985360504e-13
1.246633298e-13
7.224993447e-14
3.479173112e-14
8.433585045e-15
7.599958421e-16
-0.07402266125
-0.01082105405
0.0003055683868
-9.468518437e-05
-8.167695328e-05
-1.77577458e-05
-4.025724482e-06
-1.389121757e-06
-7.12191039e-07
-4.442161163e-07
-3.015193266e-07
-2.134006022e-07
-1.545152372e-07
-1.132044569e-07
-8.330310762e-08
-6.124515967e-08
-4.481394046e-08
-3.25321091e-08
-2.336402994e-08
-1.65568588e-08
-1.15525679e-08
-7.889962846e-09
-5.207776888e-09
-3.29436354e-09
-1.977881647e-09
-1.099535787e-09
-5.361876378e-10
-1.935646251e-10
-4.923082019e-13
9.572717231e-11
1.330341139e-10
1.369009134e-10
1.248669683e-10
1.077692517e-10
9.155705484e-11
7.907774555e-11
6.924977322e-11
6.064319584e-11
5.1686088e-11
4.286436896e-11
3.492901534e-11
2.809703907e-11
2.226801702e-11
1.738226749e-11
1.338449932e-11
1.012354973e-11
7.348465199e-12
5.137282925e-12
3.575072273e-12
2.500057607e-12
1.755057158e-12
1.232857561e-12
8.619699815e-13
5.955659051e-13
4.025495769e-13
2.614626043e-13
1.573020768e-13
7.847476142e-14
1.954042341e-14
1.841026872e-15
-0.1088626459
-0.01696208925
-0.001704901304
0.0001849381526
-0.0001117985832
-4.563384866e-05
-1.059004748e-05
-2.835813723e-06
-1.13294483e-06
-6.295743314e-07
-4.109725124e-07
-2.888360214e-07
-2.110144339e-07
-1.574276243e-07
-1.186186564e-07
-8.970697684e-08
-6.777392289e-08
-5.095318325e-08
-3.801360707e-08
-2.803009017e-08
-2.040152203e-08
-1.460481159e-08
-1.023797699e-08
-6.902256781e-09
-4.47938411e-09
-2.762813208e-09
-1.5823051e-09
-8.003587809e-10
-3.073203574e-10
-1.707579128e-11
1.366356758e-10
2.03370704e-10
2.188690223e-10
2.078327312e-10
1.858905874e-10
1.604455226e-10
1.355399179e-10
1.11950368e-10
9.074511321e-11
7.31071486e-11
5.832206379e-11
4.608744526e-11
3.62001321e-11
2.828859056e-11
2.194979382e-11
1.689573611e-11
1.294627345e-11
9.707185849e-12
6.971007281e-12
4.843520441e-12
3.339216008e-12
2.325558115e-12
1.625234842e-12
1.130326802e-12
7.739549215e-13
5.135685821e-13
3.188242669e-13
1.657952217e-13
4.353386793e-14
4.421392783e-15
-0.2264179221
-0.03564908113
-0.005881266767
0.000400240952
-7.022227478e-05
-7.62293029e-05
-2.560474474e-05
-6.684878685e-06
-2.016750676e-06
-8.961187471e-07
-5.302184355e-07
-3.604930676e-07
-2.616382472e-07
-1.970256535e-07
-1.505029258e-07
-1.165766594e-07
-9.044243911e-08
-6.996371498e-08
-5.379032108e-08
-4.094512539e-08
-3.08064166e-08
-2.28539138e-08
-1.664231862e-08
-1.176445071e-08
-8.038673274e-09
-5.279874865e-09
-3.287146308e-09
-1.890796163e-09
-9.49049921e-10
-3.448355117e-10
1.699490499e-11
2.120287196e-10
2.981615031e-10
3.182068926e-10
3.02436494e-10
2.704039928e-10
2.334328747e-10
1.970776609e-10
1.629134862e-10
1.310168307e-10
1.023491739e-10
7.783240452e-11
5.925207621e-11
4.534211445e-11
3.484015724e-11
2.683145223e-11
2.065900228e-11
1.590286633e-11
1.216833628e-11
9.074771141e-12
6.523271582e-12
4.536410312e-12
3.114817671e-12
2.135292866e-12
1.458859712e-12
9.75093516e-13
6.170885692e-13
3.348783949e-13
9.492339686e-14
1.065376967e-14
-0.3387761389
-0.05810097035
-0.01080699524
-0.0002641208541
7.337735262e-05
-8.58723314e-05
-4.987029335e-05
-1.511639269e-05
-4.191902037e-06
-1.391693037e-06
-6.635450789e-07
-4.081897155e-07
-2.8633253e-07
-2.144379434e-07
-1.645226451e-07
-1.291056872e-07
-1.017894938e-07
-8.024527029e-08
-6.298023293e-08
-4.904777605e-08
-3.783860587e-08
-2.88086185e-08
-2.156325472e-08
-1.568716936e-08
-1.111201185e-08
-7.607213656e-09
-4.974878564e-09
-3.048212434e-09
-1.684275303e-09
-7.581870519e-10
-1.645631943e-10
1.847821666e-10
3.649217379e-10
4.350122047e-10
4.385292774e-10
4.062422775e-10
3.577381564e-10
3.049099898e-10
2.54087804e-10
2.079165577e-10
1.672979271e-10
1.321145651e-10
1.015310536e-10
7.624627098e-11
5.644865535e-11
4.241104511e-11
3.229939555e-11
2.48000167e-11
1.908851585e-11
1.46528699e-11
1.109972527e-11
8.183678598e-12
5.850175924e-12
4.074881371e-12
2.776216044e-12
1.846739002e-12
1.172575559e-12
6.569723749e-13
2.065012123e-13
2.593099433e-14
-0.431541709
-0.08094493043
-0.01591977159
-0.002370315032
0.0003461169154
-6.725343891e-05
-6.824900853e-05
-3.032143908e-05
-9.340650288e-06
-2.730309531e-06
-9.537023565e-07
-4.581067239e-07
-2.8062478e-07
-1.983367341e-07
-1.492872079e-07
-1.160131662e-07
-9.154168907e-08
-7.261795169e-08
-5.764604961e-08
-4.557513079e-08
-3.577420153e-08
-2.761744446e-08
-2.096801661e-08
-1.561878561e-08
-1.135379223e-08
-7.992297077e-09
-5.381835128e-09
-3.391897598e-09
-1.914138875e-09
-8.616173178e-10
-1.528392388e-10
2.878517814e-10
5.248206787e-10
6.187011645e-10
6.250272914e-10
5.814587076e-10
5.144604666e-10
4.408526927e-10
3.694005101e-10
3.040002079e-10
2.463470673e-10
1.968718456e-10
1.552262337e-10
1.208032447e-10
9.273405215e-11
6.981980702e-11
5.199667834e-11
3.87433016e-11
2.939062718e-11
2.251599646e-11
1.725579677e-11
1.317297285e-11