/*--------------------------------*- C++ -*----------------------------------*\
  =========                 |
  \\      /  F ield         | OpenFOAM: The Open Source CFD Toolbox
   \\    /   O peration     | Website:  https://openfoam.org
    \\  /    A nd           | Version:  10
     \\/     M anipulation  |
\*---------------------------------------------------------------------------*/
FoamFile
{
    format      ascii;
    class       volScalarField;
    location    "3000";
    object      RR.C2H5;
}
// * * * * * * * * * * * * * * * * * * * * * * * * * * * * * * * * * * * * * //

dimensions      [1 -3 -1 0 0 0 0];

internalField   nonuniform List<scalar> 
5170
(
-8.612784349e-61
-6.184700449e-61
-2.916677385e-61
-1.024200103e-61
-6.956097619e-62
-3.456675614e-58
-2.429514689e-58
-1.0876315e-58
-4.461550584e-59
-8.35039024e-59
-1.401909349e-55
-9.669717143e-56
-4.155968795e-56
-2.43677784e-56
-8.938851603e-56
-5.786426719e-53
-3.942804056e-53
-1.697689043e-53
-1.535903819e-53
-8.555353084e-53
-2.432205025e-50
-1.655924737e-50
-7.508008516e-51
-1.045873761e-50
-7.549130487e-50
-1.045686474e-47
-7.221096696e-48
-3.581314824e-48
-7.403469294e-48
-6.227264072e-47
-4.601849596e-45
-3.259163049e-45
-1.874803421e-45
-5.374413567e-45
-4.939353114e-44
-2.06919429e-42
-1.525828212e-42
-1.08222374e-42
-3.987276191e-42
-3.829424313e-41
-9.554486094e-40
-7.535764542e-40
-6.703221606e-40
-3.018665687e-39
-2.923676791e-38
-4.541308705e-37
-3.928570282e-37
-4.401305256e-37
-2.340561841e-36
-2.21023953e-35
-2.220907359e-34
-2.157472861e-34
-3.04094783e-34
-1.858994602e-33
-1.661298094e-32
-1.112148233e-31
-1.241114046e-31
-2.208740343e-31
-1.506745431e-30
-1.245283589e-29
-5.68755025e-29
-7.440113954e-29
-1.687273801e-28
-1.255395494e-27
-9.327043566e-27
-2.947569284e-26
-4.591574627e-26
-1.337656147e-25
-1.073553559e-24
-6.99042859e-24
-1.539601627e-23
-2.895505799e-23
-1.081197773e-22
-9.340739202e-22
-5.245717771e-21
-7.976029363e-21
-1.824478609e-20
-8.676942278e-20
-7.945280624e-19
-3.941363335e-18
-4.061237222e-18
-1.147836388e-17
-6.697450936e-17
-6.434464493e-16
-2.967135605e-15
-1.992057001e-15
-7.05026032e-15
-4.978249858e-14
-4.925817378e-13
-2.234394716e-12
-8.921545131e-13
-4.105043894e-12
-3.432129206e-11
-3.425045592e-10
-1.686073178e-09
-3.410846661e-10
-2.295421003e-09
-2.294050969e-08
-2.165588231e-07
-1.292575667e-06
-1.080257422e-29
-7.342172647e-30
-1.138629206e-30
-2.914814581e-31
3.843155221e-28
-9.413794768e-30
-6.190432186e-30
-1.340551004e-30
-7.590308792e-31
-5.943026514e-31
-4.931170826e-30
-3.776821237e-30
-1.580932678e-30
-1.180523249e-30
-9.177902567e-31
-2.768012039e-30
-2.84827195e-30
-2.494428188e-30
-1.82148505e-30
-1.125556966e-30
-2.052743396e-30
-3.06457788e-30
-3.700910757e-30
-2.562436197e-30
-1.225821418e-30
-1.737342388e-30
-3.298033985e-30
-4.504207401e-30
-3.014810138e-30
-1.110957144e-30
-1.411023889e-30
-3.152945983e-30
-4.511821738e-30
-2.922743523e-30
-8.360300276e-31
-1.017934381e-30
-2.585431684e-30
-3.831040546e-30
-2.25029815e-30
-5.502348065e-31
-1.283738688e-30
-1.997746495e-30
-2.78945356e-30
-1.400829044e-30
-2.656123473e-31
-1.059467576e-28
-3.402896234e-29
-9.494028839e-30
-2.884585566e-30
-5.067623887e-31
-1.771342931e-26
-5.512938594e-27
-1.318108025e-27
-3.508577709e-28
-5.860273372e-29
-2.999220082e-24
-9.316110056e-25
-2.230603229e-25
-5.736471156e-26
-8.932973113e-27
-5.107111183e-22
-1.574964099e-22
-3.780342015e-23
-9.393328896e-24
-1.36502875e-24
-8.79862609e-20
-2.684509321e-20
-6.391536324e-21
-1.532259375e-21
-2.071547618e-22
-1.522478135e-17
-4.547454458e-18
-1.067315187e-18
-2.464122813e-19
-3.083011589e-20
-2.660877437e-15
-7.661802194e-16
-1.734601001e-16
-3.769029067e-17
-4.352612073e-18
-4.709332019e-13
-1.270986986e-13
-2.729879926e-14
-5.530836986e-15
-5.840546797e-16
-8.746892094e-11
-2.078924884e-11
-4.15712249e-12
-7.762847513e-13
-7.451301979e-14
-1.794107076e-08
-3.295172024e-09
-5.982762072e-10
-9.771925579e-11
-8.41809652e-12
-1.10430825e-05
-6.715777614e-07
-8.663661353e-08
-1.114861589e-08
-8.176313004e-10
-1.589880876e-08
-1.510755702e-07
-3.061823296e-06
-6.366095443e-05
0.000262127923
-6.68451515e-08
-5.428468968e-07
-8.728894526e-06
-0.0001305785499
-0.001398502359
-1.646320689e-07
-1.172956512e-06
-1.548571655e-05
-0.0001717270605
-0.001517150062
-3.235432798e-07
-2.077526031e-06
-2.293729011e-05
-0.0001934752239
-0.001277171796
-5.521032977e-07
-3.236261802e-06
-2.945729153e-05
-0.0002002316525
-0.0011058676
-8.771892943e-07
-4.723241207e-06
-3.531654118e-05
-0.0002207434734
-0.001159949445
-1.422589028e-06
-7.217866911e-06
-4.653222988e-05
-0.0002981738865
-0.001454543158
-2.407632094e-06
-1.155124232e-05
-6.81057658e-05
-0.0004132150918
-0.001708347892
-4.127571079e-06
-1.812504964e-05
-0.0001004169777
-0.0005178899685
-0.001808644431
-6.903098335e-06
-2.738453137e-05
-0.0001436209592
-0.0006216821472
-0.00190790735
-1.152822717e-05
-4.122461797e-05
-0.0001970181974
-0.0007384326213
-0.002055876213
-1.816132751e-05
-6.023453652e-05
-0.0002556857809
-0.0008523923668
-0.002168227508
-2.80007672e-05
-8.626842393e-05
-0.0003190296163
-0.0009563546553
-0.002213862395
-4.44421395e-05
-0.0001219458761
-0.0003902925523
-0.001055400503
-0.002255848868
-7.409601823e-05
-0.0001716641442
-0.0004762374222
-0.00116254098
-0.002346253984
-0.0001238500811
-0.0002418457764
-0.0005861306847
-0.001294419177
-0.002512206622
-0.0001997561608
-0.0003379946615
-0.000720008087
-0.001430020463
-0.002687662454
-0.0002979325025
-0.0004533794012
-0.0008384728439
-0.001546707194
-0.002844277823
-0.0004078532093
-0.0005630467449
-0.0009371412299
-0.001686219072
-0.003080038805
-0.0005001875442
-0.0006508786928
-0.001050894324
-0.001838548268
-0.003301761649
-0.0005996013822
-0.0007726540561
-0.001216925227
-0.002066665685
-0.003634887216
-0.0007901619391
-0.0008510286688
-0.001473286686
-0.00243841861
-0.003226180185
-0.0009965888285
-0.001223503919
-0.001795738927
-0.002565943259
-0.003074435183
-0.001263523555
-0.001528519348
-0.002187829834
-0.002300510631
-0.003175105026
-0.001618066503
-0.001950851979
-0.001819000142
-0.002463065731
-0.003292347483
-0.001876283713
-0.002232091384
-0.003126294036
-0.002453379167
-0.003364580446
-0.00221381355
-0.002615525919
-0.003339675973
-0.002717102207
-0.003462590241
-0.002562381851
-0.002985540686
-0.004015509919
-0.002875149754
-0.00366917398
-0.001676735561
-0.001799899506
-0.004203708029
-0.005686872481
-0.004452385701
-0.002377339836
-0.002549631982
-0.002915735914
-0.003582638506
-0.004398986483
-0.002626746696
-0.002706865047
-0.003013683829
-0.003501852459
-0.002867453495
-0.002433769514
-0.002474632469
-0.002212187822
-0.00169925714
-0.0006557169301
-0.000237159727
8.737008966e-05
0.0006282557576
0.00189249931
0.003992234517
0.003853648109
0.004256697695
0.005243195795
0.006636279238
0.008208466456
0.00649635799
0.00639906245
0.006364052931
0.006233671532
0.005707417646
0.001419862145
0.001232687572
0.0008201563414
0.0001808230606
-0.0006557761135
-0.002760967572
-0.002832196822
-0.002981262069
-0.00318189422
-0.00340928536
-0.003153002325
-0.003150291234
-0.003142772025
-0.003128198571
-0.003097905322
-0.002204230064
-0.002190705221
-0.002161155468
-0.002116753773
-0.002060367972
-0.001296863521
-0.001287952903
-0.00126792607
-0.00123628475
-0.001188466107
-0.0006696828647
-0.0006596018063
-0.0006366372086
-0.000601102243
-0.0005549427198
-0.000283960498
-0.0002793817615
-0.0002695880003
-0.00025549049
-0.00023798076
-0.0001193369552
-0.0001176418723
-0.0001140101248
-0.0001087440926
-0.0001021371622
-5.043650519e-05
-4.980058672e-05
-4.843108948e-05
-4.643438327e-05
-4.391039112e-05
-2.144872327e-05
-2.120546523e-05
-2.068166756e-05
-1.991511342e-05
-1.894052903e-05
-9.184075771e-06
-9.090326661e-06
-8.887680095e-06
-8.589985098e-06
-8.20958074e-06
-3.963094753e-06
-3.926309622e-06
-3.84684305e-06
-3.729785716e-06
-3.579595073e-06
-1.723883772e-06
-1.709331955e-06
-1.677798134e-06
-1.631223505e-06
-1.571247407e-06
-7.562243899e-07
-7.503710814e-07
-7.376950958e-07
-7.189351097e-07
-6.947032601e-07
-3.346269106e-07
-3.322526173e-07
-3.270979993e-07
-3.194533336e-07
-3.095509038e-07
-1.494456415e-07
-1.484675907e-07
-1.463451728e-07
-1.431923505e-07
-1.390983255e-07
-6.738983468e-08
-6.698330793e-08
-6.609933644e-08
-6.478386429e-08
-6.307169398e-08
-3.069723206e-08
-3.052577485e-08
-3.01530302e-08
-2.959754562e-08
-2.887305537e-08
-1.412735889e-08
-1.405438188e-08
-1.389547048e-08
-1.365830907e-08
-1.334840745e-08
-6.56981969e-09
-6.53839906e-09
-6.469994048e-09
-6.367805206e-09
-6.234086871e-09
-3.088567279e-09
-3.075015219e-09
-3.045482663e-09
-3.001340547e-09
-2.943543897e-09
-1.470742248e-09
-1.464968344e-09
-1.452401756e-09
-1.433638987e-09
-1.409112194e-09
-7.138898617e-10
-7.116020811e-10
-7.066352949e-10
-6.992615128e-10
-6.897051239e-10
-3.59643444e-10
-3.589915457e-10
-3.57602526e-10
-3.556087087e-10
-3.531577454e-10
-1.965682069e-10
-1.967775489e-10
-1.972760524e-10
-1.981378705e-10
-1.994920538e-10
-1.268654078e-10
-1.276397842e-10
-1.293848025e-10
-1.321514177e-10
-1.360795116e-10
-1.058093905e-10
-1.070906829e-10
-1.099594203e-10
-1.144600509e-10
-1.207632157e-10
-1.143663873e-10
-1.162384413e-10
-1.204217746e-10
-1.269624303e-10
-1.360809273e-10
-1.4706694e-10
-1.49741236e-10
-1.557111067e-10
-1.650295243e-10
-1.779914221e-10
-2.081584063e-10
-2.120165572e-10
-2.206246941e-10
-2.340481216e-10
-2.526952796e-10
-2.969661628e-10
-3.019683282e-10
-3.130990153e-10
-3.303808439e-10
-3.542533562e-10
-4.427884077e-10
-4.498996084e-10
-4.656716503e-10
-4.90009093e-10
-5.23306964e-10
-6.364107876e-10
-6.452541742e-10
-6.647949536e-10
-6.947549758e-10
-7.353804032e-10
-8.455944386e-10
-8.546839576e-10
-8.746276912e-10
-9.048290921e-10
-9.450651504e-10
-1.017178069e-09
-1.026026958e-09
-1.04536716e-09
-1.074451951e-09
-1.112817979e-09
-0.003043109303
-0.003958602259
-0.00536929066
-0.003845715437
-0.003255401104
-0.003422395376
-0.003986185337
-0.0040879791
-0.003884518136
-0.003862135042
-0.003966596133
-0.003993697751
-0.003914900466
-0.003864173077
-0.003917529289
-0.004148401355
-0.004389615723
-0.004562404069
-0.004904239416
-0.005145607249
-0.004094695573
-0.003920378254
-0.003956116777
-0.004012351793
-0.004072343575
-0.004135235956
-0.004222969387
-0.004493561771
-0.004263320318
-0.004023677626
-0.00256538723
0.0006588840178
0.005958296048
0.009217712384
0.005055498558
-0.001283253549
-0.003558354562
-0.00307044319
-0.002017807248
-0.001144020407
-0.0005203377132
-0.000224883308
-9.713266743e-05
-4.198031441e-05
-1.818961864e-05
-7.914595621e-06
-3.462501229e-06
-1.524266143e-06
-6.756435283e-07
-3.017329534e-07
-1.358552699e-07
-6.171114408e-08
-2.829574326e-08
-1.310084108e-08
-6.127060481e-09
-2.897247938e-09
-1.3895092e-09
-6.82158561e-10
-3.513704019e-10
-2.008260464e-10
-1.395636174e-10
-1.262655679e-10
-1.439980162e-10
-1.892150984e-10
-2.688170156e-10
-3.747724233e-10
-5.516060358e-10
-7.689609886e-10
-9.782588409e-10
-1.144074608e-09
0.005400509818
-0.0003822575544
-1.598018244e-05
-1.117601088e-06
-6.560256457e-08
-0.00579210468
0.01669150596
-0.002143764632
-9.165909724e-05
-4.315498956e-06
-0.005794014717
0.003423066914
-0.002441181529
-0.0001382270475
-6.061455418e-06
-0.00550051528
0.001022346434
0.003707815163
-0.000830963856
-4.151238211e-05
-0.005616311657
-0.01117058327
0.03444225542
-0.006841108868
-0.0004524475047
-0.006327092418
-0.01639673241
0.03602059963
-0.01024859607
-0.0008600870564
-0.006918402548
-0.01546227393
0.03248390068
-0.01114867552
-0.001181074287
-0.006690639674
-0.01204812529
0.02052126601
-0.00919894372
-0.001336862111
-0.006291052166
-0.01060426377
0.004707060404
0.02386673481
-0.008128751743
-0.006285906394
-0.01100044269
-0.007466819521
0.0509885234
-0.0157720741
-0.006489273094
-0.01133312493
-0.01302327824
0.05644911091
-0.01929623369
-0.006512522004
-0.01082776927
-0.01424214339
0.05029252176
-0.01903173482
-0.006310427121
-0.009993762593
-0.01351374903
0.03472731952
-0.002331143622
-0.006158398686
-0.009439779056
-0.01329362868
0.0203663818
0.02992020245
-0.006172914926
-0.009181859077
-0.01353035307
0.01045925445
0.04768369748
-0.006063631398
-0.00908201032
-0.0136326699
0.004359382918
0.05579021756
-0.00614296147
-0.008987034058
-0.01338651462
0.0001525207519
0.05694059935
-0.006136450591
-0.008685857334
-0.01265087253
-0.002299255091
0.05323353648
-0.005212620874
-0.008365007963
-0.0117729927
-0.003112526532
0.04832435393
-0.0051230409
-0.008042519102
-0.01107015131
-0.003209786621
0.04381055117
-0.005021390981
-0.007827673305
-0.01056263059
-0.002941593974
0.04008784388
-0.005059770281
-0.00771913808
-0.01012320707
-0.002432128588
0.03691410667
-0.005073629161
-0.007630393841
-0.009619156207
-0.001611530328
0.03427964716
-0.005086705486
-0.007521703549
-0.008967645202
-0.0003673094528
0.03221776623
-0.005114715759
-0.007365777435
-0.008089559859
0.001483515779
0.03097372487
-0.005175115746
-0.007025622467
-0.006825501019
0.004279386389
0.03057192953
-0.005208154784
-0.006578834286
-0.004901848759
0.008286332614
0.03029315186
-0.005345623941
-0.005880830528
-0.001877106641
0.01331941023
0.02862632352
-0.004933007218
-0.004104637046
0.002719943778
0.01829920291
0.02421000196
-0.005151274866
-0.0007607114028
0.008744791427
0.02091999974
0.01691818143
-0.001204947855
0.004427112621
0.01430823683
0.01876974366
0.008212896669
0.003414873198
0.01027431362
0.01578957249
0.01187838614
0.0004616940139
0.008789043105
0.01254032512
0.01093260265
0.003402222255
-0.004512078017
0.009548811348
0.007797090482
0.002821563578
-0.002799469785
-0.006346236836
0.003467720465
0.0003138743092
-0.002938446738
-0.005177939133
-0.005902129822
-0.002260743954
-0.003618682483
-0.004546908506
-0.004862370187
-0.004308345096
-0.003732599814
-0.00389002827
-0.003851090455
-0.003510517277
-0.002566193725
-0.003001121048
-0.002855463059
-0.00259514166
-0.002024266539
-0.001403972231
-0.001932897507
-0.001749034553
-0.001401861155
-0.001029562784
-0.0007376657775
-0.001049408643
-0.0008572171521
-0.0006679425961
-0.0005060843491
-0.000374338127
-0.0004692334052
-0.0003880682115
-0.0003110775615
-0.0002425532225
-0.0001845969283
-0.0002055322642
-0.0001737667995
-0.0001426343792
-0.000114009961
-8.900845346e-05
-8.971306848e-05
-7.72338111e-05
-6.468934915e-05
-5.284288484e-05
-4.220583039e-05
-3.911079905e-05
-3.419124002e-05
-2.914193196e-05
-2.426415863e-05
-1.977777447e-05
-1.707055613e-05
-1.512141774e-05
-1.308535357e-05
-1.107967837e-05
-9.195749326e-06
-7.474093212e-06
-6.696585473e-06
-5.87208689e-06
-5.046048957e-06
-4.255751988e-06
-3.28735574e-06
-2.974663957e-06
-2.63876884e-06
-2.297279958e-06
-1.965254252e-06
-1.453898546e-06
-1.327015762e-06
-1.189182333e-06
-1.047250342e-06
-9.072817837e-07
-6.470662937e-07
-5.950904032e-07
-5.38076344e-07
-4.78705947e-07
-4.194195795e-07
-2.900010952e-07
-2.685003908e-07
-2.447134077e-07
-2.196970077e-07
-1.94437438e-07
-1.309852487e-07
-1.220001082e-07
-1.119844859e-07
-1.013587065e-07
-9.052230566e-08
-5.966678295e-08
-5.587246622e-08
-5.161474462e-08
-4.7062271e-08
-4.23785224e-08
-2.742782439e-08
-2.580863642e-08
-2.398109611e-08
-2.201371178e-08
-1.997405931e-08
-1.272849548e-08
-1.203080301e-08
-1.123953372e-08
-1.038298799e-08
-9.489598596e-09
-5.966053068e-09
-5.663413413e-09
-5.319080456e-09
-4.945088268e-09
-4.55380743e-09
-2.82761633e-09
-2.696640542e-09
-2.547654918e-09
-2.386082547e-09
-2.217697182e-09
-1.360067923e-09
-1.305003628e-09
-1.242966916e-09
-1.176716526e-09
-1.109361543e-09
-6.708892139e-10
-6.503967408e-10
-6.283264881e-10
-6.064215814e-10
-5.867988893e-10
-3.488002221e-10
-3.450702219e-10
-3.427081352e-10
-3.431626406e-10
-3.483097032e-10
-2.029913579e-10
-2.086068728e-10
-2.175815369e-10
-2.314197873e-10
-2.521379043e-10
-1.450132716e-10
-1.573390494e-10
-1.748103769e-10
-1.991999465e-10
-2.329119114e-10
-1.348177395e-10
-1.536797822e-10
-1.797260126e-10
-2.151827139e-10
-2.63074507e-10
-1.562745911e-10
-1.831073043e-10
-2.197914589e-10
-2.692211518e-10
-3.353200735e-10
-2.065970018e-10
-2.444125683e-10
-2.958321098e-10
-3.647139419e-10
-4.562702688e-10
-2.937643319e-10
-3.478943823e-10
-4.212722896e-10
-4.948280923e-10
-6.053892581e-10
-4.062286124e-10
-4.738357204e-10
-5.646734447e-10
-6.965506855e-10
-8.473851372e-10
-5.946527911e-10
-6.846475604e-10
-7.999019093e-10
-9.428362147e-10
-1.115161827e-09
-8.174313476e-10
-9.156736662e-10
-1.035630182e-09
-1.175719438e-09
-1.332368393e-09
-1.027375742e-09
-1.124021394e-09
-1.237273313e-09
-1.362772624e-09
-1.493886255e-09
-1.190016095e-09
-1.278165063e-09
-1.377918657e-09
-1.483408035e-09
-1.58668725e-09
-1.541462904e-09
-7.822628859e-11
-4.691533669e-12
-3.857211975e-13
-7.135520186e-14
-1.733860211e-14
-4.488646719e-15
-1.27459886e-15
-4.319801799e-16
-1.829885261e-16
-9.323081511e-17
-5.329628626e-17
-3.248076462e-17
-2.05565954e-17
-1.337075957e-17
-8.913606286e-18
-6.096740953e-18
-4.287254101e-18
-3.103686281e-18
-2.311313638e-18
-1.765884897e-18
-1.379712446e-18
-1.09971871e-18
-8.933502525e-19
-7.399780001e-19
-6.260800028e-19
-5.421786959e-19
-4.812331781e-19
-4.37902614e-19
-4.078918895e-19
-3.874409302e-19
-3.729826101e-19
-3.610487121e-19
-3.484361504e-19
-3.32534931e-19
-3.116856047e-19
-2.854338339e-19
-2.545525553e-19
-2.207935919e-19
-1.864185229e-19
-1.536497745e-19
-1.242175105e-19
-9.912759825e-20
-7.866119588e-20
-6.253577004e-20
-5.013744938e-20
-4.073295995e-20
-3.361132882e-20
-2.815760881e-20
-2.38714889e-20
-2.035874767e-20
-1.731913451e-20
-1.453545781e-20
-1.186808253e-20
-9.251587812e-21
-6.690543212e-21
-4.26231776e-21
-2.180181979e-21
-7.339731282e-22
-1.392830466e-22
-1.291989634e-07
-2.650369439e-09
-8.252054071e-11
-4.50877929e-12
-5.726519667e-13
-1.238987682e-13
-3.576595349e-14
-1.348045102e-14
-5.453189824e-15
-2.58577271e-15
-1.332716775e-15
-7.193504761e-16
-3.989757664e-16
-2.267522493e-16
-1.324929368e-16
-8.0001532e-17
-5.018112615e-17
-3.282763426e-17
-2.243536698e-17
-1.598342268e-17
-1.181123118e-17
-9.001885142e-18
-7.04576395e-18
-5.649674158e-18
-4.640261244e-18
-3.907546638e-18
-3.37829354e-18
-3.001430507e-18
-2.739584259e-18
-2.563576158e-18
-2.448474885e-18
-2.370843362e-18
-2.307858349e-18
-2.23845972e-18
-2.145570008e-18
-2.018382256e-18
-1.854017094e-18
-1.65767328e-18
-1.441009707e-18
-1.219081006e-18
-1.006719442e-18
-8.155281356e-19
-6.523125653e-19
-5.190492949e-19
-4.139717892e-19
-3.331131861e-19
-2.717049982e-19
-2.251264423e-19
-1.893640888e-19
-1.611406742e-19
-1.378789608e-19
-1.17616551e-19
-9.892927116e-20
-8.090301982e-20
-6.312899184e-20
-4.573656001e-20
-2.952715106e-20
-1.590382218e-20
-6.220692474e-21
-1.108102353e-21
-3.045850351e-07
-4.909884e-09
-1.002462565e-10
-6.956660973e-12
-1.303396765e-12
-4.590889162e-13
-2.060066612e-13
-1.010772769e-13
-5.267421676e-14
-2.796163479e-14
-1.475457533e-14
-8.410045135e-15
-4.306014537e-15
-2.165858126e-15
-1.119273937e-15
-5.977751964e-16
-3.323857032e-16
-1.944465908e-16
-1.205571233e-16
-7.921102954e-17
-5.484774575e-17
-3.969661038e-17
-2.983133424e-17
-2.319475629e-17
-1.861410627e-17
-1.54134237e-17
-1.317626329e-17
-1.163243746e-17
-1.059835869e-17
-9.943536355e-18
-9.55416685e-18
-9.326957398e-18
-9.163710517e-18
-8.972681143e-18
-8.677573115e-18
-8.228255065e-18
-7.609547626e-18
-6.842418239e-18
-5.976827081e-18
-5.077705753e-18
-4.209311404e-18
-3.422567068e-18
-2.748064578e-18
-2.195785699e-18
-1.759595659e-18
-1.423443656e-18
-1.167804931e-18
-9.735106779e-19
-8.238702819e-19
-7.052343595e-19
-6.06767914e-19
-5.200923346e-19
-4.39148231e-19
-3.601412429e-19
-2.815733912e-19
-2.046223013e-19
-1.338155904e-19
-7.454216991e-20
-2.983961521e-20
-4.718616124e-21
-7.728339214e-07
-3.164715832e-08
-4.584975681e-10
-1.926877644e-11
-4.500280519e-12
-2.194706967e-12
-1.223295845e-12
-6.88549621e-13
-3.886643605e-13
-2.219985864e-13
-1.254319163e-13
-6.868271558e-14
-3.691847387e-14
-1.926204323e-14
-9.795891361e-15
-5.475165174e-15
-2.649174771e-15
-1.350906689e-15
-7.309688097e-16
-4.227127467e-16
-2.615825333e-16
-1.719947532e-16
-1.191481863e-16
-8.640877419e-17
-6.542791732e-17
-5.170874866e-17
-4.264797984e-17
-3.668775314e-17
-3.286543228e-17
-3.053820344e-17
-2.925113014e-17
-2.862448583e-17
-2.831131105e-17
-2.798714551e-17
-2.737284984e-17
-2.626656457e-17
-2.45766585e-17
-2.234065953e-17
-1.970927451e-17
-1.689865868e-17
-1.413140128e-17
-1.15877366e-17
-9.381632892e-18
-7.557256375e-18
-6.10350364e-18
-4.975433805e-18
-4.112458086e-18
-3.453360442e-18
-2.943593995e-18
-2.537528387e-18
-2.198163367e-18
-1.896361113e-18
-1.610394035e-18
-1.326834417e-18
-1.041377092e-18
-7.609650933e-19
-5.031296506e-19
-2.866768988e-19
-1.116930641e-19
-1.570994092e-20
-1.568996996e-05
-5.392489121e-07
-7.345798465e-09
-1.416266804e-10
-2.360962327e-11
-1.225706598e-11
-7.501456101e-12
-4.510341861e-12
-2.671309461e-12
-1.567716843e-12
-9.100787922e-13
-5.206529984e-13
-2.96503994e-13
-1.63745495e-13
-8.743607183e-14
-4.627661424e-14
-2.368131448e-14
-1.187340825e-14
-6.448050987e-15
-3.19654085e-15
-1.693089188e-15
-9.582540736e-16
-5.788e-16
-3.70783902e-16
-2.510427746e-16
-1.795794014e-16
-1.359181401e-16
-1.08942069e-16
-9.237008776e-17
-8.25166041e-17
-7.70810643e-17
-7.445661538e-17
-7.336666496e-17
-7.274040153e-17
-7.167977102e-17
-6.950188081e-17
-6.581323177e-17
-6.057804481e-17
-5.410407033e-17
-4.693304838e-17
-3.968399358e-17
-3.289480244e-17
-2.692480577e-17
-2.193904568e-17
-1.793840155e-17
-1.481283662e-17
-1.240120293e-17
-1.053809487e-17
-9.076939275e-18
-7.89519319e-18
-6.892512592e-18
-5.988224263e-18
-5.12001184e-18
-4.246879361e-18
-3.357375133e-18
-2.47554056e-18
-1.657969035e-18
-9.600669766e-19
-3.548465159e-19
-4.579515362e-20
-4.124252554e-05
-2.117332559e-06
-5.996739656e-08
-1.128952335e-09
-1.35354735e-10
-6.089282487e-11
-3.715333691e-11
-2.362093276e-11
-1.494425562e-11
-9.353352198e-12
-5.786685179e-12
-3.530587056e-12
-2.114449853e-12
-1.237887592e-12
-7.29584463e-13
-4.129483528e-13
-2.243255692e-13
-1.196137428e-13
-6.139488351e-14
-3.079341053e-14
-1.684299845e-14
-8.175473973e-15
-4.214627243e-15
-2.293296153e-15
-1.323552614e-15
-8.124984138e-16
-5.323190495e-16
-3.734793417e-16
-2.815358851e-16
-2.283865461e-16
-1.985253753e-16
-1.826965727e-16
-1.749371306e-16
-1.710851435e-16
-1.680768624e-16
-1.637456258e-16
-1.565465284e-16
-1.458848861e-16
-1.320855541e-16
-1.161597547e-16
-9.946648543e-17
-8.336087769e-17
-6.889102685e-17
-5.665118831e-17
-4.679942807e-17
-3.912207551e-17
-3.322406434e-17
-2.867165829e-17
-2.507517761e-17
-2.211448566e-17
-1.953238329e-17
-1.712983578e-17
-1.476056249e-17
-1.233359992e-17
-9.837343312e-18
-7.347598864e-18
-5.008475168e-18
-2.942260633e-18
-1.021985034e-18
-1.248827593e-19
-9.507335089e-05
-3.032711116e-06
-3.479116418e-07
-1.005971419e-08
-4.928295059e-10
-1.614985431e-10
-9.479283236e-11
-6.358587904e-11
-4.376565707e-11
-3.009023872e-11
-2.049648007e-11
-1.379118372e-11
-9.142414595e-12
-5.950300444e-12
-3.780531931e-12
-2.335185899e-12
-1.444730874e-12
-8.564646158e-13
-4.850935179e-13
-2.68973828e-13
-1.448050971e-13
-7.553720652e-14
-4.062432172e-14
-2.051335184e-14
-1.032782376e-14
-5.456153377e-15
-3.047197977e-15
-1.804068509e-15
-1.14150989e-15
-7.818592894e-16
-5.860858311e-16
-4.802799281e-16
-4.239152031e-16
-3.937720468e-16
-3.756172841e-16
-3.60506198e-16
-3.434137601e-16
-3.213950971e-16
-2.93814616e-16
-2.616461026e-16
-2.270045158e-16
-1.925445765e-16
-1.606979361e-16
-1.331642348e-16
-1.107160933e-16
-9.326813422e-17
-8.004935244e-17
-7.005165228e-17
-6.228838013e-17
-5.591388671e-17
-5.023874899e-17
-4.473763833e-17
-3.904868994e-17
-3.299500435e-17
-2.662617586e-17
-2.019896381e-17
-1.406583255e-17
-8.36808246e-18
-2.739431347e-18
-3.239911064e-19
-0.0001349007203
-6.923400447e-06
-1.24310876e-06
-6.569269917e-08
-2.386012764e-09
-3.719620201e-10
-1.756382462e-10
-1.136726989e-10
-7.990041826e-11
-5.726475434e-11
-4.109746563e-11
-2.937433418e-11
-2.086836088e-11
-1.471425869e-11
-1.02773011e-11
-7.092454578e-12
-4.818828985e-12
-3.204377152e-12
-2.136949295e-12
-1.387204476e-12
-8.522641537e-13
-5.016387107e-13
-2.840713586e-13
-1.5381641e-13
-8.074551555e-14
-4.50299398e-14
-2.296163834e-14
-1.199724519e-14
-6.527128672e-15
-3.757413978e-15
-2.329658111e-15
-1.57827454e-15
-1.181389589e-15
-9.714795045e-16
-8.554345701e-16
-7.798033253e-16
-7.176561547e-16
-6.588753158e-16
-5.986050443e-16
-5.347000579e-16
-4.679809174e-16
-4.012417793e-16
-3.381765776e-16
-2.822376835e-16
-2.357034539e-16
-1.991521219e-16
-1.715894768e-16
-1.51221597e-16
-1.360064467e-16
-1.240047373e-16
-1.134941834e-16
-1.030570351e-16
-9.167820888e-17
-7.887218251e-17
-6.477593718e-17
-5.006308578e-17
-3.554929497e-17
-2.137070883e-17
-6.704339122e-18
-7.60285689e-19
-0.0008631163942
-8.533919053e-05
-6.498938502e-06
-5.897228968e-07
-2.31607155e-08
-1.310180425e-09
-3.376365486e-10
-1.816493124e-10
-1.217929147e-10
-8.731702852e-11
-6.391970075e-11
-4.709475843e-11
-3.475901412e-11
-2.564830213e-11
-1.889122859e-11
-1.386328407e-11
-1.011296369e-11
-7.312418831e-12
-5.221562973e-12
-3.665638059e-12
-2.606829879e-12
-1.817597592e-12
-1.214656398e-12
-7.745610012e-13
-4.827801831e-13
-2.821442864e-13
-1.557336181e-13
-8.87765353e-14
-4.567853541e-14
-2.418961025e-14
-1.320827232e-14
-7.507376646e-15
-4.578583528e-15
-3.084925252e-15
-2.308112915e-15
-1.869182434e-15
-1.585140776e-15
-1.370931904e-15
-1.195735287e-15
-1.045727262e-15
-9.089763529e-16
-7.816936918e-16
-6.641241025e-16
-5.586359539e-16
-4.683602697e-16
-3.956501809e-16
-3.404853897e-16
-3.000686675e-16
-2.706656948e-16
-2.486378357e-16
-2.305524232e-16
-2.131123193e-16
-1.936102013e-16
-1.704336511e-16
-1.433951547e-16
-1.135885198e-16
-8.252840195e-17
-5.027703972e-17
-1.538009991e-17
-1.719187003e-18
-0.001935757188
-0.000223982121
-1.868102622e-05
-2.803266174e-06
-1.828726114e-07
-7.641621899e-09
-7.883067846e-10
-2.900567181e-10
-1.725817955e-10
-1.194500558e-10
-8.717174509e-11
-6.502513018e-11
-4.905857516e-11
-3.727668793e-11
-2.845596292e-11
-2.177622989e-11
-1.666815636e-11
-1.273001554e-11
-9.674387697e-12
-7.293237461e-12
-5.433151944e-12
-3.983305624e-12
-2.99618544e-12
-2.182641048e-12
-1.533122919e-12
-1.037766513e-12
-6.933495659e-13
-4.389148531e-13
-2.634972053e-13
-1.589431155e-13
-8.470319577e-14
-4.504981606e-14
-2.454701495e-14
-1.41251919e-14
-8.680450222e-15
-5.777973677e-15
-4.171184549e-15
-3.207623765e-15
-2.559392833e-15
-2.093319085e-15
-1.749992636e-15
-1.476773777e-15
-1.25058436e-15
-1.059751461e-15
-8.990725699e-16
-7.596431597e-16
-6.488898747e-16
-5.671127055e-16
-5.087712283e-16
-4.668481936e-16
-4.343229558e-16
-4.050251563e-16
-3.735972454e-16
-3.358367478e-16
-2.898628493e-16
-2.362283186e-16
-1.764311534e-16
-1.095503677e-16
-3.330829002e-17
-3.759786627e-18
-0.002712701453
-0.0003559281123
-4.141240309e-05
-4.71934825e-06
-6.527004504e-07
-4.029655689e-08
-2.287933771e-09
-4.662513407e-10
-2.324321233e-10
-1.522596907e-10
-1.095580329e-10
-8.198446368e-11
-6.265760619e-11
-4.856685537e-11
-3.804407619e-11
-3.003780905e-11
-2.384463483e-11
-1.897991541e-11
-1.511145791e-11
-1.199735981e-11
-9.465602921e-12
-7.393743442e-12
-5.692433248e-12
-4.401768048e-12
-3.403012309e-12
-2.542075887e-12
-1.836925269e-12
-1.29556308e-12
-8.937449346e-13
-5.908884115e-13
-3.763411443e-13
-2.373351501e-13
-1.359575691e-13
-7.618837081e-14
-4.23500109e-14
-2.425336491e-14
-1.466195604e-14
-9.486547633e-15
-6.492509174e-15
-4.692302558e-15
-3.573571453e-15
-2.840335765e-15
-2.326471612e-15
-1.949168473e-15
-1.665769798e-15
-1.444332031e-15
-1.243430428e-15
-1.066520653e-15
-9.382108996e-16
-8.494716038e-16
-7.84874983e-16
-7.311842986e-16
-6.77306919e-16
-6.15357831e-16
-5.409011943e-16
-4.518520801e-16
-3.471202682e-16
-2.21073589e-16
-6.841143085e-17
-8.010029989e-18
-0.003016652447
-0.0004484186815
-6.696502641e-05
-5.191014806e-06
-1.702328154e-06
-1.880429389e-07
-1.189862886e-08
-1.005332954e-09
-3.21699318e-10
-1.870824697e-10
-1.299083306e-10
-9.660924397e-11
-7.433134069e-11
-5.846187829e-11
-4.673449821e-11
-3.786890362e-11
-3.100984078e-11
-2.557138651e-11
-2.116109857e-11
-1.751299119e-11
-1.444351109e-11
-1.182810449e-11
-9.582278577e-12
-7.64816929e-12
-6.098851444e-12
-4.896491415e-12
-3.804853456e-12
-2.866353014e-12
-2.100493486e-12
-1.520906998e-12
-1.061264588e-12
-7.146190769e-13
-4.844746276e-13
-2.978397791e-13
-1.800201389e-13
-1.062749711e-13
-6.16910927e-14
-3.557155571e-14
-2.088689205e-14
-1.291940048e-14
-8.515014608e-15
-6.002831008e-15
-4.510348441e-15
-3.576373637e-15
-2.957235229e-15
-2.528089784e-15
-2.231535137e-15
-1.997655362e-15
-1.774580292e-15
-1.573309101e-15
-1.414113415e-15
-1.296432689e-15
-1.192131652e-15
-1.082500463e-15
-9.565496961e-16
-8.095031357e-16
-6.356297248e-16
-4.172430933e-16
-1.348022764e-16
-1.67913621e-17
-0.005840337044
-0.0009180286025
-0.0001449186338
-1.717221963e-05
-3.238047142e-06
-6.214253288e-07
-6.289638438e-08
-4.112115488e-09
-5.382830004e-10
-2.266766565e-10
-1.440089071e-10
-1.046911452e-10
-8.085211218e-11
-6.48099333e-11
-5.311239636e-11
-4.446155994e-11
-3.770650458e-11
-3.223894542e-11
-2.76699881e-11
-2.374940359e-11
-2.031422752e-11
-1.725924258e-11
-1.451787818e-11
-1.204951205e-11
-9.831128593e-12
-8.188707447e-12
-6.680094217e-12
-5.291880664e-12
-4.072185161e-12
-3.084288338e-12
-2.288031779e-12
-1.644812947e-12
-1.143562323e-12
-7.999326169e-13
-5.13473555e-13
-3.233517649e-13
-1.994148358e-13
-1.206887023e-13
-7.187098836e-14
-4.233103241e-14
-2.507164539e-14
-1.526818919e-14
-9.974732132e-15
-7.052961209e-15
-5.370776339e-15
-4.355555124e-15
-3.716674895e-15
-3.311781235e-15
-3.04759876e-15
-2.829808949e-15
-2.605286542e-15
-2.360516411e-15
-2.11946941e-15
-1.887024617e-15
-1.654100688e-15
-1.400509876e-15
-1.111446894e-15
-7.52412982e-16
-2.597247046e-16
-3.511303253e-17
-0.01160462728
-0.00195306163
-0.0003285026522
-5.27639983e-05
-6.261092334e-06
-1.552740267e-06
-2.383513886e-07
-2.405760247e-08
-1.750760739e-09
-3.200283816e-10
-1.528858677e-10
-1.029973466e-10
-7.961730938e-11
-6.571729927e-11