/*--------------------------------*- C++ -*----------------------------------*\
  =========                 |
  \\      /  F ield         | OpenFOAM: The Open Source CFD Toolbox
   \\    /   O peration     | Website:  https://openfoam.org
    \\  /    A nd           | Version:  10
     \\/     M anipulation  |
\*---------------------------------------------------------------------------*/
FoamFile
{
    format      ascii;
    class       volScalarField;
    location    "3000";
    object      RR.C2H2;
}
// * * * * * * * * * * * * * * * * * * * * * * * * * * * * * * * * * * * * * //

dimensions      [1 -3 -1 0 0 0 0];

internalField   nonuniform List<scalar> 
5170
(
4.542874263e-72
2.056645763e-72
3.817564455e-73
3.000061656e-74
0
3.168761773e-69
1.33019035e-69
2.076768374e-70
1.646152691e-71
0
2.214862597e-66
8.686523953e-67
1.092733195e-67
9.153850734e-69
0
1.503835304e-63
5.572850643e-64
5.801948684e-65
0
0
1.026605619e-60
3.594669333e-61
3.33766379e-62
0
0
7.017895739e-58
2.364406756e-58
1.894901438e-59
0
0
4.855159728e-55
1.577467019e-55
1.123943084e-56
0
0
3.392731539e-52
1.090581335e-52
7.169890549e-54
0
0
2.423222975e-49
7.992428539e-50
5.013316205e-51
0
0
1.775624943e-46
6.261692323e-47
3.979338399e-48
2.174837761e-49
0
1.343482651e-43
5.299964063e-44
3.758180173e-45
3.434629724e-46
2.488789847e-45
1.047093993e-40
4.831670894e-41
4.611877051e-42
1.508051696e-42
6.342615048e-42
8.412284116e-38
4.782408751e-38
7.664746478e-39
7.981617206e-39
2.325157009e-38
6.970335192e-35
5.095614471e-35
1.632878791e-35
4.322540403e-35
1.298511373e-34
5.914625511e-32
5.88984199e-32
4.096987494e-32
2.249939199e-31
7.758367055e-31
5.135209941e-29
7.23806485e-29
1.110535964e-28
1.080876867e-27
4.663679774e-27
4.441611597e-26
9.455477644e-26
3.071666376e-25
4.652193175e-24
2.80992345e-23
3.829846422e-23
1.271201643e-22
8.300080125e-22
1.854267712e-20
1.696231218e-19
3.026938854e-20
1.659170591e-19
2.061132127e-18
6.361186118e-17
1.012599456e-15
1.871902613e-17
1.428150062e-16
1.160974112e-15
2.571826644e-14
1.486578196e-12
1.16549155e-22
8.366963234e-24
-2.342203358e-24
2.891482443e-24
-8.152014319e-24
-1.092015369e-23
-6.120315862e-24
-3.101150644e-24
-1.345979901e-23
-9.894826633e-24
-4.804909439e-24
-3.393872206e-24
-2.17123418e-24
-4.448957709e-24
-3.411933491e-24
-2.236614229e-24
-1.866482911e-24
-1.463155036e-24
-2.28839295e-24
-1.564697849e-24
-1.125166017e-24
-1.142185352e-24
-9.934091733e-25
-1.387930693e-24
-8.086029904e-25
-6.032761631e-25
-7.176720083e-25
-6.720144584e-25
-9.080952702e-25
-4.394466377e-25
-2.347365386e-25
-4.682206326e-25
-4.630783148e-25
-6.29866127e-25
-2.598043114e-25
-2.012554409e-25
-3.116653422e-25
-3.176298745e-25
-4.391915834e-25
-6.682952967e-26
-1.223663948e-25
-2.031243555e-25
-2.209526786e-25
-3.581239022e-25
-4.203542945e-26
-8.095092524e-26
-1.410541309e-25
-7.625343532e-26
-1.951665319e-25
-1.033227373e-25
-8.47213403e-26
-1.021759357e-25
-2.697539216e-26
-7.08558872e-25
6.314273132e-26
-6.469517724e-24
-2.228604069e-24
-7.048185189e-25
-6.479967085e-25
-1.567201417e-25
-1.086192285e-21
-3.769881101e-22
-1.130683563e-22
-6.494635056e-23
-2.207911339e-23
-1.838734387e-19
-6.658751129e-20
-2.121147101e-20
-1.656056038e-20
-4.616713932e-21
-3.117170763e-17
-1.196933122e-17
-4.053105231e-18
-3.886081371e-18
-9.477670304e-19
-5.368712526e-15
-2.227987717e-15
-7.764066041e-16
-5.586691033e-16
-1.76631138e-16
-9.457219278e-13
-4.291871624e-13
-1.466478478e-13
-7.380697031e-14
-2.733175456e-14
-1.737442769e-10
-8.519411627e-11
-2.747166809e-11
-5.031356284e-12
-3.577797318e-12
-1.62620297e-08
-7.602354407e-09
-5.002750173e-09
-2.449358579e-12
-3.66505261e-10
-1.31314301e-05
-3.176343894e-06
-6.002129053e-07
-3.472355175e-08
-2.810079841e-08
1.07097075e-15
-1.004248178e-13
-3.276465072e-11
-7.910551177e-09
-3.004771427e-06
-2.988223594e-13
-1.804267671e-11
-2.923929934e-09
-3.858024314e-07
-5.633261765e-05
-5.683534531e-12
-2.029490495e-10
-1.887109154e-08
-1.303451499e-06
-6.425904788e-05
-4.222485972e-11
-1.113831044e-09
-6.63784851e-08
-2.665299974e-06
-5.768434665e-05
-2.103177489e-10
-4.292162064e-09
-1.738716652e-07
-4.464836131e-06
-6.173666157e-05
-8.482868554e-10
-1.354203814e-08
-3.891467744e-07
-7.12132693e-06
-9.173163936e-05
-3.029127637e-09
-3.88536499e-08
-8.327744302e-07
-1.267845959e-05
-0.0001604227705
-9.46144138e-09
-1.004560878e-07
-1.66676031e-06
-2.162617105e-05
-0.0002205984775
-2.590586173e-08
-2.322654518e-07
-3.067631366e-06
-3.277482447e-05
-0.0002689191287
-6.375151762e-08
-4.944867829e-07
-5.43612039e-06
-4.928982374e-05
-0.0003479365069
-1.527263654e-07
-1.010022379e-06
-9.404782077e-06
-7.370023409e-05
-0.0004532615265
-3.437146301e-07
-1.921506748e-06
-1.516349866e-05
-0.000101298985
-0.0005460045545
-7.449494751e-07
-3.473645081e-06
-2.292941526e-05
-0.000129606523
-0.0006353829168
-1.617826647e-06
-6.221196274e-06
-3.439319405e-05
-0.0001682269379
-0.0007583706914
-3.685029065e-06
-1.152186289e-05
-5.334001698e-05
-0.0002304672596
-0.0009388192093
-8.686841964e-06
-2.221345357e-05
-8.503752466e-05
-0.0003236177547
-0.001176948125
-2.007086902e-05
-4.269206828e-05
-0.0001342344023
-0.0004708442539
-0.001430850118
-4.314387905e-05
-7.934077378e-05
-0.0002166811209
-0.0006612610057
-0.001653222601
-9.326162124e-05
-0.000155553372
-0.000367717378
-0.0008704696273
-0.001908869409
-0.0002090456498
-0.0003025605504
-0.0005616800331
-0.001105412677
-0.00220560951
-0.0003814583456
-0.0004918575587
-0.0007847909779
-0.001392537457
-0.002605945953
-0.0005768906296
-0.0006903221
-0.001047803542
-0.001748567426
-0.002985587483
-0.000802035697
-0.0009591394005
-0.001370133327
-0.00215808962
-0.003358995452
-0.001095114952
-0.001291535563
-0.001797066715
-0.002590237454
-0.004195146906
-0.001528152448
-0.00178530789
-0.002263447655
-0.003397715863
-0.005204512768
-0.002212531934
-0.002555387869
-0.003428434388
-0.004540885775
-0.006860554445
-0.003367987975
-0.003839412648
-0.004952049775
-0.006839841653
-0.009926640529
-0.005337012419
-0.005996996652
-0.0076214462
-0.009896773486
-0.01397547731
-0.008381489641
-0.009175872756
-0.01175454054
-0.01554780613
-0.02075501009
-0.01360731047
-0.01495773
-0.01735319918
-0.02116771333
-0.02603703458
-0.02026187445
-0.0211671589
-0.0231955352
-0.02517232431
-0.02314654187
-0.01980556426
-0.01908507509
-0.01552894051
-0.004668431205
0.02121282902
0.03639286334
0.04638969403
0.07009800044
0.1296445694
0.2349705516
0.3612722112
0.3997688685
0.4915849492
0.656417714
0.9244338503
1.338621061
1.409555359
1.562339207
1.800091366
2.112409639
2.347830661
2.378755499
2.443817366
2.504327323
2.559648919
2.067443818
2.048241349
2.005646466
1.928598862
1.812180587
1.110118371
1.082254107
1.021421762
0.9245074596
0.7857423307
0.2843668039
0.2578513053
0.1969350923
0.09638453721
-0.05595668663
-0.3378598269
-0.3733694655
-0.4564545223
-0.5960376129
-0.8062433535
-0.9063243275
-0.9407165629
-1.006881145
-1.075181823
-1.095536065
-0.6391425154
-0.6265184344
-0.5990067586
-0.5592130275
-0.510636426
-0.262278684
-0.2576902822
-0.247937771
-0.2339976863
-0.2168462891
-0.1087469892
-0.1071400574
-0.1036966822
-0.0987198908
-0.09250447605
-0.04568800002
-0.04510244972
-0.04384506283
-0.04201475684
-0.03970550774
-0.01941959179
-0.0192014128
-0.01873063628
-0.01804137116
-0.01716494447
-0.008345104878
-0.008261556026
-0.008081222595
-0.00781613312
-0.007477085916
-0.003622209981
-0.003589717739
-0.003519344759
-0.003415537056
-0.003282131047
-0.001587339925
-0.001574431228
-0.001546481145
-0.00150514717
-0.001451826497
-0.0007019884341
-0.0006967982352
-0.0006855316313
-0.000668830261
-0.0006472149596
-0.000313329287
-0.0003112056342
-0.0003065973462
-0.000299753939
-0.0002908729876
-0.000141171204
-0.0001402931406
-0.0001383839857
-0.0001355436237
-0.0001318484727
-6.422822266e-05
-6.385954347e-05
-6.305810248e-05
-6.186402427e-05
-6.030726889e-05
-2.951196795e-05
-2.935560796e-05
-2.901516327e-05
-2.850717866e-05
-2.784359515e-05
-1.36965387e-05
-1.362934442e-05
-1.348306422e-05
-1.326455476e-05
-1.297865507e-05
-6.420562609e-06
-6.391488935e-06
-6.328123564e-06
-6.233382153e-06
-6.109273762e-06
-3.04194711e-06
-3.029331085e-06
-3.001851553e-06
-2.960761703e-06
-2.906928215e-06
-1.46022424e-06
-1.454873196e-06
-1.443222496e-06
-1.425829743e-06
-1.403099891e-06
-7.172244975e-07
-7.15194448e-07
-7.10801234e-07
-7.043069694e-07
-6.95944007e-07
-3.487227638e-07
-3.476174364e-07
-3.452148512e-07
-3.416334464e-07
-3.369592434e-07
-1.885576991e-07
-1.884753432e-07
-1.883119118e-07
-1.881081906e-07
-1.879056846e-07
-1.137725257e-07
-1.140004634e-07
-1.14514554e-07
-1.153291177e-07
-1.164821422e-07
-8.095058355e-08
-8.134927831e-08
-8.22359202e-08
-8.36087449e-08
-8.549506242e-08
-6.940520701e-08
-6.989699662e-08
-7.098572325e-08
-7.265903729e-08
-7.493554614e-08
-6.862609232e-08
-6.916095345e-08
-7.034211445e-08
-7.214969524e-08
-7.459433403e-08
-7.30183539e-08
-7.355878707e-08
-7.474995958e-08
-7.656688181e-08
-7.901296702e-08
-7.941127398e-08
-7.992611565e-08
-8.105913133e-08
-8.278257685e-08
-8.509383178e-08
-8.56208137e-08
-8.608724325e-08
-8.711235076e-08
-8.866804088e-08
-9.07475502e-08
-9.05393914e-08
-9.094337397e-08
-9.18302939e-08
-9.317365618e-08
-9.496439696e-08
-9.16438071e-08
-9.1984321e-08
-9.273133297e-08
-9.386114576e-08
-9.536415146e-08
-4.68916294e-05
-0.001006694122
-0.0005656575578
-0.0003862319173
-0.0004472767771
-0.0006702246758
-0.0009835743509
-0.001090621922
-0.001148448745
-0.001345424713
-0.001600538455
-0.001730043756
-0.001775432641
-0.001904351512
-0.002149211232
-0.002493330464
-0.002839987348
-0.003083064465
-0.003320077048
-0.003673299846
-0.003912333832
-0.004328484909
-0.005212543667
-0.006027968993
-0.007493004751
-0.009654911786
-0.013590957
-0.01850774457
-0.02416907145
-0.02871367331
-0.01729359339
0.05755107465
0.3548589196
1.179267822
2.341240525
2.57093076
1.707223163
0.6641002867
-0.1996298319
-0.9959297513
-1.063130934
-0.4755135147
-0.2041541659
-0.087821416
-0.03794323578
-0.01648957666
-0.007213838726
-0.003177910822
-0.001409960867
-0.000630170069
-0.0002838439861
-0.0001289141147
-5.906742893e-05
-2.731369948e-05
-1.274984749e-05
-6.009789559e-06
-2.863766188e-06
-1.384938361e-06
-6.893996238e-07
-3.346921627e-07
-1.878241611e-07
-1.175029778e-07
-8.710667765e-08
-7.685681241e-08
-7.664252935e-08
-8.105093635e-08
-8.701062263e-08
-9.246562688e-08
-9.643899966e-08
-9.659895649e-08
0.0001819648543
-0.002951902738
-0.0002147728769
-1.937098066e-05
-1.405735913e-06
-0.003139926738
0.4486940351
-0.06478268114
-0.002958183542
-0.0001505292734
-0.002114851186
0.04213650968
-0.09300644589
-0.005963074568
-0.0003225855951
-0.001769369693
-0.01022072517
2.103001577
-0.3672588148
-0.01889740809
-0.002281328817
-0.02825506529
2.736852898
-0.7790261426
-0.05285463613
-0.003347066562
-0.03166700159
1.299626803
-0.7432081848
-0.06343331688
-0.004205236191
-0.02755729513
0.7461799934
-0.6321739109
-0.06912448084
-0.003798901791
-0.0189474075
0.2308437744
0.601661179
-0.3530660972
-0.003565338678
-0.01738279967
-0.01283939014
4.335839787
-1.30592138
-0.003947824153
-0.01858642023
-0.06354584639
3.710487572
-1.595345601
-0.004409060421
-0.01875219402
-0.06188874549
2.764316466
-1.506722685
-0.004380844934
-0.01630077678
-0.04681334717
1.524970301
-0.840384745
-0.004196490317
-0.01411199292
-0.04604509316
0.5100531036
3.949059042
-0.004342739969
-0.01376984086
-0.04935088571
0.1717583348
4.975673212
-0.004751858162
-0.01435429871
-0.05091661118
0.06970264145
4.593658062
-0.005153331187
-0.01501352129
-0.04942882693
0.0434170419
3.920370002
-0.005467511805
-0.01485470632
-0.04425387962
0.03608593826
2.969367069
-0.005591374284
-0.01414640603
-0.03910741994
0.01690539419
1.931437643
-0.005147772143
-0.01395771773
-0.03741183808
-0.004455174771
1.310588728
-0.005583819664
-0.01473194515
-0.03874342741
-0.01942926031
1.010841085
-0.006278355333
-0.01635723052
-0.04152280785
-0.02567600765
0.8831250855
-0.007048647803
-0.01851998857
-0.04415037998
-0.02263675285
0.8462770965
-0.00830107345
-0.02090958923
-0.04560371184
-0.01036982503
0.8603948763
-0.009924089967
-0.02346863371
-0.04555861745
0.01098744736
0.9092414299
-0.01204236773
-0.02632133375
-0.043837762
0.04337115731
1.00576331
-0.01494447012
-0.03134611192
-0.03921397021
0.09690877507
1.194451035
-0.01982971658
-0.03450697962
-0.02694402971
0.1954888031
1.532212606
-0.02551061466
-0.03431372223
0.005793718857
0.3837263903
2.062491041
-0.03016202692
-0.02496382259
0.09003622889
0.7374975064
2.778559386
-0.02868341585
0.01914819402
0.2942746808
1.349590541
3.537727964
0.008082105308
0.1631755862
0.7437443275
2.238570239
4.033207497
0.1550170494
0.5569281652
1.569588425
3.164715988
3.924463297
0.6196921664
1.403269673
2.631603049
3.593713881
3.089941316
1.631967975
2.525335337
3.23725268
3.122061225
1.719579265
2.645243261
2.952380538
2.781482601
1.916248353
0.1070461081
2.511731966
2.22346248
1.58804045
0.4443936888
-1.51171898
1.502982747
1.03782081
0.2793630296
-1.008908186
-2.341570238
0.4459721663
-0.07160002939
-0.9547740883
-2.042578847
-1.698678658
-0.4567645094
-1.097631981
-1.79158214
-1.516241854
-1.02195271
-1.261014666
-1.472251754
-1.161663732
-0.826670665
-0.5773097585
-0.9553164526
-0.7541563521
-0.5732023872
-0.4247000119
-0.3081216741
-0.4242737133
-0.345201065
-0.2723631216
-0.2093010672
-0.1572702634
-0.1854993623
-0.1553968801
-0.1264247402
-0.1002328912
-0.0776963138
-0.08089814479
-0.0693558804
-0.05786415747
-0.04710632378
-0.037518459
-0.03532672877
-0.03085588451
-0.02628449261
-0.02188192298
-0.01784104557
-0.01548353238
-0.01373134295
-0.01190120585
-0.0100972217
-0.008400206767
-0.006820722667
-0.006125467009
-0.005386665715
-0.004644330105
-0.003931431564
-0.003021979484
-0.002742708609
-0.002441699904
-0.002134377754
-0.001834048715
-0.00134723423
-0.001233709601
-0.001109892559
-0.0009817671994
-0.000854684916
-0.0006046043689
-0.0005579226497
-0.0005064975687
-0.0004526694193
-0.0003985954255
-0.0002732923866
-0.0002538792369
-0.0002323101781
-0.0002095098304
-0.0001863493813
-0.0001245061534
-0.0001163427661
-0.0001072055243
-9.746319376e-05
-8.747077467e-05
-5.720389312e-05
-5.373308169e-05
-4.982320503e-05
-4.562307459e-05
-4.127857898e-05
-2.651685333e-05
-2.502545503e-05
-2.333616098e-05
-2.150986316e-05
-1.960730707e-05
-1.240564724e-05
-1.175887256e-05
-1.102308126e-05
-1.022368713e-05
-9.386517021e-06
-5.860111855e-06
-5.578116979e-06
-5.256486953e-06
-4.906180914e-06
-4.538599973e-06
-2.798853015e-06
-2.676580528e-06
-2.537321458e-06
-2.386128082e-06
-2.22845438e-06
-1.357677344e-06
-1.306741575e-06
-1.249484831e-06
-1.18858504e-06
-1.127127636e-06
-6.796708904e-07
-6.620419018e-07
-6.250897313e-07
-5.859722732e-07
-5.526030367e-07
-3.317419725e-07
-3.266102492e-07
-3.214348222e-07
-3.165204028e-07
-3.123066557e-07
-1.877405136e-07
-1.88075086e-07
-1.892276122e-07
-1.916370773e-07
-1.958108701e-07
-1.19077734e-07
-1.225874084e-07
-1.274114825e-07
-1.33882542e-07
-1.423739595e-07
-8.956459308e-08
-9.475177607e-08
-1.014892378e-07
-1.100161318e-07
-1.205953617e-07
-7.977309857e-08
-8.579890585e-08
-9.343666912e-08
-1.028471035e-07
-1.141957626e-07
-7.974086569e-08
-8.605852439e-08
-9.393729535e-08
-1.034662102e-07
-1.147254186e-07
-8.412481281e-08
-9.032825277e-08
-9.796538826e-08
-1.070551344e-07
-1.175977654e-07
-8.989335333e-08
-9.565949432e-08
-1.026766032e-07
-1.109266091e-07
-1.203699465e-07
-9.504361225e-08
-1.001622147e-07
-1.063312085e-07
-1.135021096e-07
-1.2160491e-07
-9.864607855e-08
-1.029999113e-07
-1.082026633e-07
-1.141899851e-07
-1.208779834e-07
-9.844375095e-08
-1.02065794e-07
-1.063665967e-07
-1.112785854e-07
-1.167169832e-07
-3.152812507e-09
-1.069315307e-10
-4.019373516e-12
-4.166806534e-13
-7.421483164e-14
-1.455235241e-14
-2.73607734e-15
-5.176189929e-16
-1.100087072e-16
-2.98507671e-17
-1.07169015e-17
-4.7094151e-18
-2.311412176e-18
-1.199029246e-18
-6.386037426e-19
-3.431556516e-19
-1.839282333e-19
-9.756742965e-20
-5.098909453e-20
-2.619699027e-20
-1.323394694e-20
-6.586693559e-21
-3.242575788e-21
-1.589027719e-21
-7.830405358e-22
-3.937447554e-22
-2.057260958e-22
-1.136082276e-22
-6.689492358e-23
-4.183938342e-23
-2.742367273e-23
-1.853651298e-23
-1.27489567e-23
-8.839330706e-24
-6.138630943e-24
-4.247166101e-24
-2.91142482e-24
-1.966013174e-24
-1.301025605e-24
-8.407910205e-25
-5.301046822e-25
-3.266065163e-25
-1.97390963e-25
-1.176089393e-25
-6.943476746e-26
-4.079284636e-26
-2.391956355e-26
-1.402102681e-26
-8.219178047e-27
-4.814236208e-27
-2.810890037e-27
-1.628821374e-27
-9.296827795e-28
-5.158830774e-28
-2.718015445e-28
-1.298617569e-28
-5.090029171e-29
-1.315684879e-29
-1.135717317e-30
-1.060672839e-32
-4.965247782e-07
-8.403487729e-09
-2.474737405e-10
-2.009901148e-11
-3.023087698e-12
-5.640881126e-13
-1.147910249e-13
-2.788470023e-14
-8.383752177e-15
-3.034035174e-15
-1.215498538e-15
-5.173845818e-16
-2.289382651e-16
-1.045493825e-16
-4.894274591e-17
-2.332286792e-17
-1.123746256e-17
-5.44184261e-18
-2.638168343e-18
-1.277150506e-18
-6.169731637e-19
-2.977468523e-19
-1.439798134e-19
-7.011798289e-20
-3.467008242e-20
-1.760356647e-20
-9.300052922e-21
-5.170460507e-21
-3.040042534e-21
-1.8832201e-21
-1.216639247e-21
-8.098569974e-22
-5.49588548e-22
-3.772254192e-22
-2.603014009e-22
-1.7957002e-22
-1.230846913e-22
-8.327627765e-23
-5.52800859e-23
-3.585499481e-23
-2.269171773e-23
-1.403406479e-23
-8.514658288e-24
-5.093721716e-24
-3.02022267e-24
-1.782626865e-24
-1.050483078e-24
-6.190371556e-25
-3.648967705e-25
-2.149282309e-25
-1.261834322e-25
-7.351522456e-26
-4.218103961e-26
-2.352309548e-26
-1.245137327e-26
-5.981393711e-27
-2.375977547e-27
-6.42947472e-28
-6.990848426e-29
-1.349564576e-30
-2.1486595e-06
-2.486909611e-08
-9.79588278e-10
-1.19960953e-10
-2.33626981e-11
-5.7866073e-12
-1.680747366e-12
-5.905503311e-13
-2.333100645e-13
-9.894735643e-14
-4.267002827e-14
-1.861292476e-14
-8.135696164e-15
-3.576168306e-15
-1.577791572e-15
-6.986060585e-16
-3.101307784e-16
-1.38051387e-16
-6.172549073e-17
-2.777077413e-17
-1.259671813e-17
-5.770642894e-18
-2.677041281e-18
-1.262542591e-18
-6.091666653e-19
-3.0346623e-19
-1.578022825e-19
-8.647896398e-20
-5.016948105e-20
-3.071791309e-20
-1.967144529e-20
-1.302846398e-20
-8.832362131e-21
-6.078927811e-21
-4.219741292e-21
-2.935681028e-21
-2.032652993e-21
-1.390314039e-21
-9.331250771e-22
-6.117003222e-22
-3.910212573e-22
-2.440893499e-22
-1.493759362e-22
-9.00903504e-23
-5.383776401e-23
-3.202490089e-23
-1.902235148e-23
-1.130190254e-23
-6.718686268e-24
-3.99209523e-24
-2.364758826e-24
-1.390052284e-24
-8.044978213e-25
-4.523036859e-25
-2.412065907e-25
-1.167744085e-25
-4.709169583e-26
-1.31771934e-26
-1.61033467e-27
-4.226835076e-29
-0.0001799250702
-7.92963615e-07
-7.896730841e-09
-5.468125618e-10
-1.227416556e-10
-4.104469404e-11
-1.612313166e-11
-6.98195788e-12
-3.173874031e-12
-1.473636044e-12
-6.831207947e-13
-3.151707129e-13
-1.440203712e-13
-6.53578059e-14
-2.93803459e-14
-1.308786547e-14
-5.762547131e-15
-2.510350779e-15
-1.083934471e-15
-4.662664545e-16
-2.009866735e-16
-8.735035151e-17
-3.849253952e-17
-1.729889794e-17
-7.981866183e-18
-3.81211857e-18
-1.902810732e-18
-1.001805106e-18
-5.5946118e-19
-3.312324438e-19
-2.065494792e-19
-1.34319657e-19
-9.01736761e-20
-6.194770836e-20
-4.321724595e-20
-3.037921788e-20
-2.132868222e-20
-1.481844211e-20
-1.010573169e-20
-6.728170874e-21
-4.364362713e-21
-2.761906075e-21
-1.711987136e-21
-1.045107365e-21
-6.318698891e-22
-3.801445597e-22
-2.283203823e-22
-1.371434923e-22
-8.241653498e-23
-4.951009095e-23
-2.966147971e-23
-1.763990456e-23
-1.032930443e-23
-5.873895164e-24
-3.166687105e-24
-1.550664809e-24
-6.370257059e-25
-1.847254826e-25
-2.488619009e-26
-8.736430415e-28
-0.001460763224
-9.219198603e-06
-6.972243178e-08
-2.273829817e-09
-5.016711109e-10
-2.061295332e-10
-9.70157441e-11
-4.744493156e-11
-2.368098296e-11
-1.192474797e-11
-5.993308327e-12
-2.992364299e-12
-1.477537969e-12
-7.21421431e-13
-3.472321692e-13
-1.647257602e-13
-7.673033738e-14
-3.508294826e-14
-1.571391154e-14
-6.914798006e-15
-2.997522623e-15
-1.288749147e-15
-5.530522751e-16
-2.388499051e-16
-1.046957517e-16
-4.704456036e-17
-2.190880257e-17
-1.069571455e-17
-5.527490357e-18
-3.040256929e-18
-1.778410776e-18
-1.099519407e-18
-7.121041052e-19
-4.786620735e-19
-3.309407315e-19
-2.330476676e-19
-1.652442434e-19
-1.165387326e-19
-8.086630655e-20
-5.479778874e-20
-3.614572401e-20
-2.322876492e-20
-1.460273988e-20
-9.033891651e-21
-5.534287175e-21
-3.374396694e-21
-2.054327598e-21
-1.2505765e-21
-7.613980331e-22
-4.632278681e-22
-2.810077427e-22
-1.692404278e-22
-1.003960615e-22
-5.785979495e-23
-3.163053338e-23
-1.573577861e-23
-6.613528925e-24
-1.998601589e-24
-2.969407813e-25
-1.447145124e-26
-0.003446778958
-5.340089252e-05
-5.491907182e-07
-1.196028547e-08
-1.889509943e-09
-7.610569691e-10
-3.812748887e-10
-2.006368957e-10
-1.078445324e-10
-5.861229082e-11
-3.19564925e-11
-1.737533051e-11
-9.378565451e-12
-5.012592289e-12
-2.644400618e-12
-1.374280212e-12
-7.012772914e-13
-3.506828703e-13
-1.712592531e-13
-8.166857645e-14
-3.799401887e-14
-1.729759726e-14
-7.720801912e-15
-3.396156162e-15
-1.479439619e-15
-6.438716971e-16
-2.82855443e-16
-1.271565856e-16
-5.938211928e-17
-2.923233583e-17
-1.532983131e-17
-8.598339097e-18
-5.145144477e-18
-3.262205334e-18
-2.171600281e-18
-1.500180035e-18
-1.059656266e-18
-7.528295705e-19
-5.299561976e-19
-3.655201215e-19
-2.454599027e-19
-1.603118394e-19
-1.02162245e-19
-6.393412326e-20
-3.959407613e-20
-2.442354452e-20
-1.506371543e-20
-9.301569776e-21
-5.748125145e-21
-3.549934349e-21
-2.185411447e-21
-1.335288136e-21
-8.036252973e-22
-4.701738076e-22
-2.614494384e-22
-1.329006503e-22
-5.761048738e-23
-1.837401092e-23
-3.061203364e-24
-2.128303122e-25
-0.005741086531
-0.0002086429688
-4.510873422e-06
-1.052621397e-07
-6.909141712e-09
-2.034938952e-09
-9.788690637e-10
-5.344684428e-10
-3.045139413e-10
-1.767814116e-10
-1.035140965e-10
-6.078242873e-11
-3.564200345e-11
-2.080533696e-11
-1.205672689e-11
-6.917278548e-12
-3.915860818e-12
-2.180022062e-12
-1.188969245e-12
-6.336778903e-13
-3.29158051e-13
-1.665047962e-13
-8.191514366e-14
-3.922087737e-14
-1.828453882e-14
-8.329429393e-15
-3.722454345e-15
-1.644850207e-15
-7.2671229e-16
-3.262827897e-16
-1.517412736e-16
-7.449040144e-17
-3.915070211e-17
-2.21681211e-17
-1.349948796e-17
-8.76640936e-18
-5.975035651e-18
-4.185010076e-18
-2.951140504e-18
-2.060148576e-18
-1.407128767e-18
-9.354059811e-19
-6.052183892e-19
-3.829375591e-19
-2.389651343e-19
-1.483877818e-19
-9.22396856e-20
-5.753729558e-20
-3.600815379e-20
-2.256573144e-20
-1.411472538e-20
-8.768145349e-21
-5.367536905e-21
-3.197505736e-21
-1.815853945e-21
-9.493979803e-22
-4.29046323e-22
-1.468530686e-22
-2.820144664e-23
-2.811240008e-24
-0.03386088985
-0.002705810423
-7.619572643e-05
-1.418109109e-06
-4.265703268e-08
-5.676635805e-09
-2.070694825e-09
-1.0710966e-09
-6.174380147e-10
-3.712563948e-10
-2.276210356e-10
-1.408735933e-10
-8.753107825e-11
-5.441618567e-11
-3.376465336e-11
-2.086748599e-11
-1.281847101e-11
-7.809466016e-12
-4.705090425e-12
-2.793577589e-12
-1.628151857e-12
-9.277879505e-13
-5.148050522e-13
-2.773269226e-13
-1.447351035e-13
-7.311735123e-14
-3.573409935e-14
-1.691617116e-14
-7.782566941e-15
-3.506710748e-15
-1.56576757e-15
-7.05120505e-16
-3.276309254e-16
-1.609480716e-16
-8.518908437e-17
-4.90170048e-17
-3.052563397e-17
-2.018012489e-17
-1.380948898e-17
-9.564739168e-18
-6.586385314e-18
-4.45112404e-18
-2.932325062e-18
-1.882568786e-18
-1.185436381e-18
-7.395957396e-19
-4.611302909e-19
-2.887044174e-19
-1.81791022e-19
-1.150096364e-19
-7.286593912e-20
-4.59820318e-20
-2.866435725e-20
-1.743296961e-20
-1.014688665e-20
-5.478065478e-21
-2.592306111e-21
-9.552762096e-22
-2.114265432e-22
-2.879914105e-23
-0.1379958433
-0.01364390558
-0.0006547548186
-1.983071352e-05
-3.855454805e-07
-2.087820766e-08
-4.423058238e-09
-1.892878359e-09
-1.043393297e-09
-6.303464637e-10
-3.963702441e-10
-2.542899113e-10
-1.648598834e-10
-1.074338863e-10
-7.013902769e-11
-4.576841433e-11
-2.979615539e-11
-1.932038249e-11
-1.245582431e-11
-7.967713898e-12
-5.044484353e-12
-3.151902031e-12
-1.937503554e-12
-1.16689568e-12
-6.85372828e-13
-3.908397604e-13
-2.153441791e-13
-1.142390334e-13
-5.825479296e-14
-2.857801859e-14
-1.352557244e-14
-6.218484656e-15
-2.813343318e-15
-1.278834055e-15
-5.999416819e-16
-2.985870272e-16
-1.610674803e-16
-9.464093688e-17
-5.959375374e-17
-3.925372597e-17
-2.645964625e-17
-1.792422082e-17
-1.201265261e-17
-7.876419215e-18
-5.037324905e-18
-3.169216701e-18
-1.982897208e-18
-1.24248121e-18
-7.828335605e-19
-4.966654169e-19
-3.168602306e-19
-2.023341745e-19
-1.282667812e-19
-7.972420945e-20
-4.770338453e-20
-2.669588779e-20
-1.327894762e-20
-5.284690627e-21
-1.347072357e-21
-2.392451683e-22
-0.1989391292
-0.0232667044
-0.002076603718
-0.0001013410877
-3.466555515e-06
-1.144142524e-07
-1.137621231e-08
-3.377893719e-09
-1.635428395e-09
-9.531780438e-10
-6.005145512e-10
-3.931631124e-10
-2.628021481e-10
-1.776588359e-10
-1.207875724e-10
-8.230309028e-11
-5.60738315e-11
-3.813481202e-11
-2.585119865e-11
-1.74433402e-11
-1.169412743e-11
-7.777754481e-12
-5.119094716e-12
-3.324647233e-12
-2.123439999e-12
-1.328733519e-12
-8.113665425e-13
-4.812611886e-13
-2.758753758e-13
-1.520969248e-13
-8.03255556e-14
-4.057363809e-14
-1.965732058e-14
-9.214750622e-15
-4.245477988e-15
-1.9665438e-15
-9.411334294e-16
-4.788637852e-16
-2.635177391e-16
-1.564228356e-16
-9.836217032e-17
-6.419227895e-17
-4.268245236e-17
-2.841152303e-17
-1.862191722e-17
-1.193774228e-17
-7.538140743e-18
-4.736958645e-18
-2.983684994e-18
-1.891181054e-18
-1.207888549e-18
-7.757997449e-19
-4.978714332e-19
-3.155816962e-19
-1.941549998e-19
-1.128610664e-19
-5.916415273e-20
-2.548201615e-20
-7.459486351e-21
-1.651217383e-21
-0.2164852506
-0.02886393162
-0.003735870287
-0.0002778469139
-1.672971609e-05
-6.17540366e-07
-3.65294674e-08
-6.469719998e-09
-2.498819831e-09
-1.346036007e-09
-8.308885447e-10
-5.475167722e-10
-3.73685491e-10
-2.600395655e-10
-1.82830774e-10
-1.291718026e-10
-9.140268931e-11
-6.462898264e-11
-4.56261852e-11
-3.211885823e-11
-2.251293373e-11
-1.568724668e-11
-1.084683642e-11
-7.426173266e-12
-5.021612192e-12
-3.344227313e-12
-2.186534363e-12
-1.398766451e-12
-8.721315309e-13
-5.277626956e-13
-3.086502363e-13
-1.73666764e-13
-9.362467623e-14
-4.827421212e-14
-2.388041998e-14
-1.14432101e-14
-5.396319684e-15
-2.558969042e-15
-1.254817202e-15
-6.542328101e-16
-3.679905655e-16
-2.2169269e-16
-1.403959481e-16
-9.163005138e-17
-6.051296177e-17
-3.972531237e-17
-2.565365493e-17
-1.631522141e-17
-1.030734432e-17
-6.525412479e-18
-4.161725212e-18
-2.676353754e-18
-1.729137078e-18
-1.112210457e-18
-7.012873185e-19
-4.228708099e-19
-2.337243119e-19
-1.089770253e-19
-3.644344131e-20
-9.659334525e-21
-0.3343471169
-0.05072665161
-0.007719793753
-0.0008205750172
-6.611086868e-05
-4.246708361e-06
-2.029985205e-07
-1.783368638e-08
-4.208016202e-09
-1.853479739e-09
-1.071019053e-09
-6.965617126e-10
-4.805565632e-10
-3.419912766e-10
-2.472459959e-10
-1.802538873e-10
-1.319219532e-10
-9.661424081e-11
-7.067297308e-11
-5.157354631e-11
-3.749478069e-11
-2.712020759e-11
-1.948800203e-11
-1.388919024e-11
-9.798995198e-12
-6.828203502e-12
-4.687596817e-12
-3.161489284e-12
-2.088278501e-12
-1.346420621e-12
-8.443427619e-13
-5.131047639e-13
-3.010233777e-13
-1.69918672e-13
-9.209863859e-14
-4.796213396e-14
-2.409359207e-14
-1.17738578e-14
-5.683648796e-15
-2.775219062e-15
-1.413881513e-15
-7.709295113e-16
-4.518135637e-16
-2.80448195e-16
-1.805920342e-16
-1.183997595e-16
-7.778982152e-17
-5.065235154e-17
-3.254709816e-17
-2.07335676e-17
-1.321403246e-17
-8.485715812e-18
-5.495400115e-18
-3.567897536e-18
-2.293103675e-18
-1.428166314e-18
-8.304435483e-19
-4.187853819e-19
-1.589802988e-19
-4.877860992e-20
-1.209400583
-0.1838894362
-0.02816744719
-0.003719913402
-0.000280570364
-2.383511247e-05
-1.485933159e-06
-8.580186258e-08
-9.519623431e-09
-2.658628911e-09
-1.288462095e-09
-7.94855491e-10
-5.448744787e-10
-3.941650614e-10
-2.912008145e-10
-2.191514149e-10
-1.657415796e-10
-1.254637424e-10
-9.483927283e-11
-7.148718098e-11
-5.367401801e-11
-4.010169468e-11
-2.978148326e-11
-2.195546799e-11
-1.60422422e-11
-1.15958485e-11
-8.274200444e-12
-5.814205611e-12
-4.012816835e-12
-2.712574252e-12
-1.790662733e-12
-1.150865114e-12
-7.178662775e-13
-4.332695591e-13
-2.524043895e-13
-1.417026789e-13
-7.66585048e-14
-4.004011544e-14
-2.029984751e-14
-1.011177469e-14
-5.050353713e-15
-2.601505775e-15
-1.418998409e-15
-8.271557653e-16
-5.1074026e-16
-3.275261874e-16
-2.140138266e-16
-1.407226992e-16
-9.228922997e-17
-6.001559796e-17
-3.87243666e-17
-2.495136589e-17
-1.616629116e-17
-1.054270986e-17
-6.867345891e-18
-4.39286418e-18
-2.675690533e-18
-1.456997273e-18
-6.243538724e-19
-2.160706266e-19
-1.733177009
-0.2954267184
-0.05019128391
-0.008354041719
-0.0008583249877
-8.232244224e-05
-7.840477437e-06
-5.312542665e-07
-3.611355768e-08
-4.748642355e-09
-1.498718307e-09
-7.926738627e-10
-5.249985367e-10
-3.826158148e-10
-2.882176218e-10
-2.228442411e-10
-1.733721621e-10
-1.351252504e-10
-1.05213673e-10
-8.171068989e-11
-6.322535687e-11
-4.870275593e-11
-3.731839411e-11
-2.84172659e-11
-2.147725905e-11
-1.608312495e-11
-1.190752315e-11
-8.69480374e-12
-6.24547655e-12
-4.401629446e-12
-3.035300227e-12
-2.042307539e-12
-1.337546009e-12
-8.507243716e-13
-5.244178704e-13
-3.128001657e-13
-1.803386315e-13
-1.004932516e-13
-5.42261284e-14
-2.848089626e-14
-1.472075243e-14
-7.6249975e-15
-4.05917852e-15
-2.273021247e-15
-1.350911359e-15
-8.445467347e-16
-5.451133699e-16
-3.572883207e-16
-2.356191355e-16
-1.554747343e-16
-1.022918713e-16
-6.702099042e-17
-4.387209224e-17
-2.881608527e-17
-1.897479909e-17
-1.240016254e-17
-7.857400487e-18
-4.591523337e-18
-2.208008384e-18
-8.500280829e-19
-1.888365829
-0.3583053821
-0.06793778004
-0.0127320609
-0.00193076333
-0.0002079895297
-2.513400956e-05
-2.71686898e-06
-2.129721171e-07
-1.631143651e-08
-2.330465096e-09
-7.896209605e-10
-4.438955869e-10
-3.100478849e-10
-2.342370728e-10