/*--------------------------------*- C++ -*----------------------------------*\
  =========                 |
  \\      /  F ield         | OpenFOAM: The Open Source CFD Toolbox
   \\    /   O peration     | Website:  https://openfoam.org
    \\  /    A nd           | Version:  10
     \\/     M anipulation  |
\*---------------------------------------------------------------------------*/
FoamFile
{
    format      ascii;
    class       volScalarField;
    location    "3000";
    object      RR.C3H8;
}
// * * * * * * * * * * * * * * * * * * * * * * * * * * * * * * * * * * * * * //

dimensions      [1 -3 -1 0 0 0 0];

internalField   nonuniform List<scalar> 
5170
(
3.241448951e-69
2.618651279e-69
1.629118363e-69
8.054565535e-70
6.402081973e-70
1.093733902e-66
8.746513161e-67
5.355985637e-67
3.10135167e-67
5.495384508e-67
3.736546219e-64
2.966631448e-64
1.810080399e-64
1.426536098e-64
4.320005791e-64
1.303790236e-61
1.034132369e-61
6.516233033e-62
7.327863352e-62
3.121113928e-61
4.644195064e-59
3.716600516e-59
2.508620667e-59
3.991849072e-59
2.105084534e-58
1.695752766e-56
1.386181768e-56
1.026871805e-56
2.242273119e-56
1.340709155e-55
6.333422427e-54
5.33607242e-54
4.522413952e-54
1.282561612e-53
8.265810626e-53
2.416571514e-51
2.121167985e-51
2.142531999e-51
7.441553265e-51
4.975595907e-50
9.446766202e-49
8.810405291e-49
1.067943018e-48
4.365686707e-48
2.95102718e-47
3.786169674e-46
3.82107684e-46
5.544003429e-46
2.594146481e-45
1.722969307e-44
1.551289611e-43
1.722084479e-43
2.974723051e-43
1.557032142e-42
9.975069708e-42
6.465638777e-41
8.029061966e-41
1.649949599e-40
9.410242584e-40
5.703279451e-39
2.729848648e-38
3.847695627e-38
9.478235514e-38
5.764571981e-37
3.239718765e-36
1.157845904e-35
1.878281667e-35
5.580481593e-35
3.579036564e-34
1.825148137e-33
4.90868276e-33
9.250149213e-33
3.318922299e-32
2.242315892e-31
1.022625392e-30
2.047362939e-30
4.520580836e-30
1.955907657e-29
1.373066652e-28
5.723769602e-28
8.367708659e-28
2.19385608e-27
1.117885508e-26
8.429076016e-26
3.748404095e-25
3.655315794e-25
1.460727604e-24
2.387509102e-23
1.341204437e-21
2.307427338e-20
6.229554731e-21
1.12050189e-19
6.306580334e-18
4.657846974e-16
9.460990462e-15
7.223458299e-16
2.714662053e-14
2.087025969e-12
1.345812869e-10
3.75963058e-09
-1.952885236e-47
-1.560305963e-47
-1.896198685e-47
-4.228555651e-47
-7.60170415e-47
-2.711647653e-45
-1.141356896e-45
-4.102833793e-46
-1.933213546e-46
-1.266774222e-46
-4.616986426e-43
-1.859821889e-43
-5.791450809e-44
-1.686010935e-44
-8.178842939e-45
-7.753718176e-41
-2.79803682e-41
-8.052374635e-42
-2.271491913e-42
-9.687812197e-43
-1.274432372e-38
-4.304054057e-39
-1.136162649e-39
-3.217692864e-40
-1.180765112e-40
-2.040297003e-36
-6.63266116e-37
-1.65535935e-37
-4.724332053e-38
-1.444535293e-38
-3.313801013e-34
-1.054751554e-34
-2.512560387e-35
-7.401858878e-36
-1.878057284e-36
-5.424120454e-32
-1.714195778e-32
-4.002181391e-33
-1.188508954e-33
-2.575127116e-34
-8.918241901e-30
-2.78828031e-30
-6.567218228e-31
-1.884598488e-31
-3.664025384e-32
-1.484992223e-27
-4.622960323e-28
-1.093755816e-28
-3.007171329e-29
-5.36881957e-30
-2.489960296e-25
-7.729902424e-26
-1.840459446e-26
-4.876028055e-27
-8.064970354e-28
-4.209718632e-23
-1.302915688e-23
-3.103608169e-24
-7.934139027e-25
-1.220489617e-25
-7.157336343e-21
-2.195695002e-21
-5.231898243e-22
-1.289794503e-22
-1.845020805e-23
-1.232978306e-18
-3.733152975e-19
-8.796813876e-20
-2.086916735e-20
-2.763248866e-21
-2.13931493e-16
-6.317541408e-17
-1.461266077e-17
-3.326015976e-18
-4.048224502e-19
-3.756481689e-14
-1.063585995e-14
-2.359334366e-15
-5.025833948e-16
-5.600881816e-17
-6.661597164e-12
-1.75466017e-12
-3.665008414e-13
-7.221119866e-14
-7.293628766e-15
-1.229011253e-09
-2.819739659e-10
-5.424768876e-11
-9.738186733e-12
-8.854167267e-13
-2.486643657e-07
-4.3141719e-08
-7.385395373e-09
-1.137940425e-09
-9.165191514e-11
-0.0001522411161
-8.29045934e-06
-9.625810565e-07
-1.128507623e-07
-7.590032853e-09
1.150222618e-12
8.301177019e-11
2.408455913e-08
5.819729766e-06
0.0006505805525
2.112074256e-11
1.078613163e-09
1.781762977e-07
1.783833479e-05
0.0005290545154
1.385006495e-10
5.245862877e-09
5.302264672e-07
2.587415857e-05
0.0003255974073
5.821405201e-10
1.716294869e-08
1.124968929e-06
2.976941348e-05
0.0002171584934
1.849717068e-09
4.345519022e-08
1.892360104e-06
2.998676586e-05
0.0001630127679
5.032318807e-09
9.579269157e-08
2.888290555e-06
3.129039603e-05
0.000157265689
1.35547437e-08
2.206748223e-07
4.819507069e-06
3.912093544e-05
0.0001965834698
3.741363502e-08
5.338675542e-07
8.171165272e-06
5.02231739e-05
0.0002371769788
1.02419548e-07
1.221139284e-06
1.248110829e-05
5.939738319e-05
0.0002558527996
2.667432551e-07
2.482737663e-06
1.726280174e-05
6.866684415e-05
0.000280336287
6.817093617e-07
4.478187197e-06
2.233955381e-05
8.037279008e-05
0.0003205154251
1.516230407e-06
6.970358452e-06
2.740219645e-05
9.307197943e-05
0.0003603001996
2.935155081e-06
9.849816865e-06
3.271804195e-05
0.0001057927801
0.0003909405732
5.094191589e-06
1.320970398e-05
3.893289642e-05
0.0001206076855
0.0004272051503
8.24274721e-06
1.745250924e-05
4.727140607e-05
0.0001426564322
0.0004847519421
1.266431117e-05
2.340161219e-05
5.958694939e-05
0.0001762404704
0.0005740066229
1.920907735e-05
3.251721307e-05
7.831790537e-05
0.000225301929
0.0006923483833
2.922192847e-05
4.661174197e-05
0.0001067021367
0.0002891115335
0.0008148303989
4.669508499e-05
7.079906772e-05
0.000149864875
0.0003664091536
0.0009530282856
7.747781305e-05
0.0001096988449
0.0002090407607
0.0004614809219
0.001122507932
0.0001223786271
0.0001633797957
0.0002845471882
0.0005893376346
0.001367816577
0.0001823356902
0.000230049032
0.0003906725542
0.0007757123415
0.001636115005
0.0002648451633
0.0003360967545
0.0005432330341
0.001016423908
0.001898562124
0.0003905075654
0.0004876454963
0.0007619343915
0.001276607684
0.002339721516
0.0005815242882
0.0007147389479
0.0009984562529
0.00165913423
0.00262286238
0.0008483783777
0.001020431369
0.001478517897
0.002059252392
0.003036322738
0.001212065751
0.001424266966
0.00194891672
0.002763352535
0.004008571463
0.001649402973
0.00189526081
0.002506962758
0.003267778495
0.004562756854
0.001988572616
0.002198595981
0.002974998118
0.004071765671
0.005557376119
0.002240984061
0.00257155065
0.00305370021
0.003829824677
0.004911808956
0.002009337909
0.00210844894
0.002451373825
0.002880434116
0.002173317374
0.0009834701366
0.001052030538
0.001048040676
0.0003850885216
-0.0001647439797
-0.0006688657319
-0.0007125220285
-0.000719021241
-0.001876077958
-0.002698468502
-0.002736746054
-0.002945668718
-0.003339570686
-0.00392468333
-0.004635746927
-0.004216250298
-0.00437285591
-0.004588691043
-0.004776178326
-0.004864687689
-0.00372745576
-0.00369187147
-0.003602280336
-0.003444343416
-0.003209385306
-0.002025268082
-0.001985440431
-0.00189918246
-0.00177283894
-0.00161343724
-0.0009207800187
-0.0009019497854
-0.0008616189722
-0.0008038641483
-0.0007324191473
-0.0003970110722
-0.0003893874529
-0.0003731396677
-0.0003498173968
-0.0003210305003
-0.0001683527338
-0.0001654192472
-0.0001591322834
-0.0001500758317
-0.0001388312857
-7.116221168e-05
-7.004366075e-05
-6.765234815e-05
-6.419960875e-05
-5.989345112e-05
-3.022075617e-05
-2.979617459e-05
-2.888281685e-05
-2.755554695e-05
-2.588585193e-05
-1.286650802e-05
-1.27016613e-05
-1.234737618e-05
-1.183068858e-05
-1.11772229e-05
-5.48406434e-06
-5.42016474e-06
-5.282276154e-06
-5.080510757e-06
-4.824152428e-06
-2.344057106e-06
-2.319034502e-06
-2.265099811e-06
-2.185994677e-06
-2.085092039e-06
-1.006259641e-06
-9.964588287e-07
-9.752612353e-07
-9.44080082e-07
-9.041539122e-07
-4.345061204e-07
-4.306163242e-07
-4.222122097e-07
-4.098240039e-07
-3.939100834e-07
-1.888716683e-07
-1.873213504e-07
-1.839620462e-07
-1.789990724e-07
-1.72604054e-07
-8.272139826e-08
-8.209486361e-08
-8.073842085e-08
-7.873098546e-08
-7.613748828e-08
-3.652833071e-08
-3.627362484e-08
-3.572086157e-08
-3.490127117e-08
-3.383973766e-08
-1.62792915e-08
-1.617439049e-08
-1.594686384e-08
-1.56090295e-08
-1.517052913e-08
-7.32945019e-09
-7.286033142e-09
-7.1916867e-09
-7.051398887e-09
-6.868981175e-09
-3.339397233e-09
-3.321338916e-09
-3.282125077e-09
-3.223785105e-09
-3.147870106e-09
-1.544629449e-09
-1.537262756e-09
-1.521260856e-09
-1.497481318e-09
-1.466600185e-09
-7.315086762e-10
-7.28739549e-10
-7.22754989e-10
-7.139316269e-10
-7.026104789e-10
-3.626049877e-10
-3.619254534e-10
-3.60495401e-10
-3.584986405e-10
-3.561569358e-10
-1.980750946e-10
-1.984523654e-10
-1.993390587e-10
-2.008410776e-10
-2.031503893e-10
-1.301570551e-10
-1.311985739e-10
-1.335485176e-10
-1.372845447e-10
-1.426096946e-10
-1.106003739e-10
-1.121987353e-10
-1.157841563e-10
-1.214269458e-10
-1.293643059e-10
-1.185363739e-10
-1.207344209e-10
-1.256541531e-10
-1.333689473e-10
-1.441686401e-10
-1.462699936e-10
-1.492085467e-10
-1.557791062e-10
-1.660632982e-10
-1.804229434e-10
-1.931398169e-10
-1.970531892e-10
-2.057962383e-10
-2.194626537e-10
-2.385100742e-10
-2.63513448e-10
-2.687556566e-10
-2.804611463e-10
-2.987387611e-10
-3.241752547e-10
-3.668583149e-10
-3.739604259e-10
-3.898095902e-10
-4.145339439e-10
-4.488970573e-10
-5.207704455e-10
-5.305462661e-10
-5.523527464e-10
-5.86341858e-10
-6.335265659e-10
-7.380998741e-10
-7.500246908e-10
-7.764444188e-10
-8.171380455e-10
-8.726820535e-10
-1.021578819e-09
-1.03812235e-09
-1.074883375e-09
-1.131794249e-09
-1.210041912e-09
-1.434587278e-09
-1.45574789e-09
-1.502678403e-09
-1.57509453e-09
-1.674203585e-09
-1.964093396e-09
-1.990372229e-09
-2.048553474e-09
-2.138056448e-09
-2.260028305e-09
-2.448806777e-09
-2.478862073e-09
-2.545317957e-09
-2.647310872e-09
-2.785851314e-09
0.006760999452
0.005707022516
0.001989620379
0.0009829767574
0.0006906389607
0.0007014028525
0.0008983424407
0.0009720194311
0.0009250913313
0.0009425167042
0.001033256555
0.001095883406
0.001097621526
0.001122909344
0.001216636665
0.001391795291
0.001603211062
0.001785449664
0.001982413464
0.002237093634
0.002443239262
0.002752417101
0.003258788183
0.003423652063
0.003819318862
0.004258349561
0.005504240649
0.006118853803
0.005935861254
0.005327375625
0.002033951972
-0.0007787607766
-0.003481931511
-0.005147291705
-0.004848944119
-0.003015410033
-0.001494790855
-0.000679882127
-0.0002997267377
-0.0001304538441
-5.665732265e-05
-2.461773245e-05
-1.067735918e-05
-4.62685432e-06
-2.007020587e-06
-8.731095434e-07
-3.814824869e-07
-1.675899832e-07
-7.409673628e-08
-3.300166563e-08
-1.482332646e-08
-6.724197978e-09
-3.08756192e-09
-1.44213987e-09
-6.937965022e-10
-3.545824969e-10
-2.053789621e-10
-1.473543867e-10
-1.363290952e-10
-1.535912341e-10
-1.92913301e-10
-2.550418495e-10
-3.462133389e-10
-4.786216157e-10
-6.74286655e-10
-9.198123416e-10
-1.276887098e-09
-1.758435745e-09
-2.363190448e-09
-2.902583759e-09
0.07408630416
-0.004217105091
-0.0001428204918
-8.487173971e-06
-4.287039784e-07
0.02281531587
0.01446232123
-0.003451428035
-0.0001450690721
-6.138581586e-06
0.01210680801
0.04739684167
-0.01147592395
-0.0005966942779
-2.721883161e-05
0.005576035823
0.02814815064
-0.01415415995
-0.0009082624149
-5.410984444e-05
0.003429997844
0.02517153783
-0.01216215949
-0.001708027725
-0.0001160429108
0.003553421887
0.03058135161
0.0040140529
-0.006027107187
-0.0004954003393
0.004451237132
0.03623900465
0.02241624831
-0.01268927893
-0.001309331743
0.004170623846
0.02800138105
0.0246697185
-0.01719519308
-0.002060508461
0.00347018649
0.0206523887
0.03131336145
-0.02144485961
-0.003072580774
0.003327836883
0.01917696692
0.04192698684
-0.02066403878
-0.005580960081
0.003511896136
0.01926613125
0.04847366347
-0.01506846013
-0.009329644451
0.003511400728
0.0175818726
0.0438109646
-0.006516234726
-0.01346335453
0.003267805918
0.01458169641
0.03570117964
0.004905918917
-0.0182983329
0.003180292502
0.01304340378
0.03335084072
0.01801842273
-0.02212922334
0.003333126106
0.01285596906
0.03369660818
0.02849976298
-0.02337016805
0.003633574154
0.01327499952
0.03407171624
0.03401895558
-0.0225015152
0.003979870783
0.01314642369
0.03182058591
0.03271959714
-0.01972219102
0.004178946956
0.012214979
0.02737727127
0.02787905461
-0.01562275926
0.003882095283
0.01130610168
0.02394104364
0.02495032996
-0.01143868633
0.00415822914
0.01089788744
0.02212118363
0.02366084597
-0.008201046621
0.004515618813
0.01089269782
0.02126849905
0.02269820141
-0.006323825009
0.004675659705
0.01112395009
0.02058447248
0.02112222181
-0.0057139624
0.0050570636
0.01128208844
0.01954851036
0.01854735372
-0.00606822146
0.005472765012
0.01124190637
0.01796622001
0.01497486
-0.007069934193
0.00583939563
0.01095766199
0.01583040791
0.01072372546
-0.008376109095
0.006135885461
0.01328347818
0.01319895346
0.006101866055
-0.009746946249
0.007584677239
0.01172827673
0.01000082132
0.001371569115
-0.01086304886
0.008105441471
0.008224222407
0.006066806982
-0.003027891227
-0.0113232635
0.007401774655
0.005747246562
0.001457472065
-0.006509970358
-0.01090385343
0.007288985573
0.002082487657
-0.00301719527
-0.008507659589
-0.009597725699
0.001091425468
-0.001873943743
-0.006129489697
-0.008789827291
-0.00765346775
-0.002112793547
-0.004909964513
-0.007392044505
-0.00759535258
-0.005550723777
-0.004602649368
-0.006329219077
-0.006813711541
-0.005570490931
-0.003695809635
-0.005632841055
-0.005799563393
-0.004935650125
-0.003549298827
-0.002281754787
-0.004593533764
-0.003889343144
-0.00294149391
-0.002031583677
-0.001319332207
-0.00267536798
-0.002107518725
-0.001552186067
-0.001081185209
-0.0007230181712
-0.001312095177
-0.001028622389
-0.0007672299581
-0.0005485924383
-0.0003803995248
-0.000601357468
-0.000479045678
-0.0003658939057
-0.0002699062925
-0.000194074718
-0.0002680918923
-0.0002179673104
-0.0001709404999
-0.000130135323
-9.652036762e-05
-0.0001180577162
-9.810244302e-05
-7.894605667e-05
-6.170483674e-05
-4.698817864e-05
-5.186019941e-05
-4.392962246e-05
-3.609223043e-05
-2.88371351e-05
-2.247100643e-05
-2.273326619e-05
-1.95545957e-05
-1.634880607e-05
-1.331582963e-05
-1.059229544e-05
-9.93345254e-06
-8.659119803e-06
-7.352280483e-06
-6.092482563e-06
-4.937819955e-06
-4.332788069e-06
-3.822273818e-06
-3.290897193e-06
-2.769926469e-06
-2.283481717e-06
-1.890480654e-06
-1.685722839e-06
-1.469707029e-06
-1.254650239e-06
-1.050422448e-06
-8.267015117e-07
-7.442895231e-07
-6.562833879e-07
-5.674453706e-07
-4.817794878e-07
-3.628814938e-07
-3.295308147e-07
-2.935284763e-07
-2.567315885e-07
-2.207550563e-07
-1.600772708e-07
-1.464905086e-07
-1.316805657e-07
-1.163744456e-07
-1.012228838e-07
-7.103645828e-08
-6.545929055e-08
-5.932760622e-08
-5.292756568e-08
-4.652182743e-08
-3.174404258e-08
-2.943647434e-08
-2.688034355e-08
-2.418918744e-08
-2.146981117e-08
-1.430203954e-08
-1.334003192e-08
-1.226774295e-08
-1.113089517e-08
-9.973449315e-09
-6.506758178e-09
-6.103785239e-09
-5.652753205e-09
-5.172584777e-09
-4.682061228e-09
-2.997015722e-09
-2.829057775e-09
-2.641178719e-09
-2.441723002e-09
-2.239380613e-09
-1.405486931e-09
-1.338039813e-09
-1.263657441e-09
-1.186557474e-09
-1.111479182e-09
-6.806977864e-10
-6.57590366e-10
-6.338725536e-10
-6.122461146e-10
-5.960385389e-10
-3.524104349e-10
-3.501930919e-10
-3.508395085e-10
-3.566242341e-10
-3.705499233e-10
-2.089757369e-10
-2.180952541e-10
-2.324469751e-10
-2.54371977e-10
-2.870648225e-10
-1.547959742e-10
-1.717618146e-10
-1.960486547e-10
-2.303260851e-10
-2.782725521e-10
-1.471857569e-10
-1.713518796e-10
-2.051013649e-10
-2.516237016e-10
-3.153139893e-10
-1.682421361e-10
-2.00547326e-10
-2.451943696e-10
-3.060866249e-10
-3.885858365e-10
-2.123053653e-10
-2.548387776e-10
-3.13259757e-10
-3.924134386e-10
-4.98926773e-10
-2.80679611e-10
-3.366937365e-10
-4.132713313e-10
-5.164914519e-10
-6.546306648e-10
-3.803582572e-10
-4.547190654e-10
-5.559804328e-10
-6.918770997e-10
-8.728949382e-10
-5.246370794e-10
-6.24563058e-10
-7.601567405e-10
-9.414053959e-10
-1.181791594e-09
-7.373391659e-10
-8.739300484e-10
-1.058748399e-09
-1.284095266e-09
-1.549054735e-09
-9.911997864e-10
-1.154210057e-09
-1.377560557e-09
-1.667454765e-09
-2.038555555e-09
-1.379373404e-09
-1.596473661e-09
-1.881149312e-09
-2.245616944e-09
-2.700305703e-09
-1.886980331e-09
-2.156541646e-09
-2.504995341e-09
-2.944251577e-09
-3.48787628e-09
-2.520039694e-09
-2.8458603e-09
-3.261800766e-09
-3.778587796e-09
-4.4078572e-09
-3.079607607e-09
-3.444672416e-09
-3.906326389e-09
-4.473660345e-09
-5.155988395e-09
-4.310156713e-09
-3.409882627e-11
-9.624906942e-13
-8.806802122e-14
-1.673888661e-14
-3.516494866e-15
-6.898407515e-16
-1.322505496e-16
-2.765723533e-17
-7.27936461e-18
-2.548634381e-18
-1.090458575e-18
-5.113834235e-19
-2.47299146e-19
-1.20310631e-19
-5.83903432e-20
-2.824399148e-20
-1.364735347e-20
-6.616208504e-21
-3.236010957e-21
-1.607280753e-21
-8.165158178e-22
-4.273589558e-22
-2.319519253e-22
-1.311341822e-22
-7.727713115e-23
-4.726941695e-23
-2.975643826e-23
-1.906805339e-23
-1.230501833e-23
-7.928422641e-24
-5.072992054e-24
-3.215815661e-24
-2.019339317e-24
-1.256831655e-24
-7.750038216e-25
-4.721373666e-25
-2.826330985e-25
-1.651021426e-25
-9.349027271e-26
-5.107984918e-26
-2.688653182e-26
-1.365901962e-26
-6.72947013e-27
-3.237122896e-27
-1.531895497e-27
-7.183700373e-28
-3.359151243e-28
-1.574031602e-28
-7.416653396e-29
-3.520245638e-29
-1.682204869e-29
-8.059567927e-30
-3.830673213e-30
-1.766241208e-30
-7.544945412e-31
-2.69719939e-31
-6.464883928e-32
-5.250641507e-33
-4.994606689e-35
-5.604644893e-08
-4.788837937e-10
-1.760918995e-11
-2.379346634e-12
-4.928722645e-13
-1.069026118e-13
-2.297631741e-14
-5.651728729e-15
-1.734092219e-15
-6.515413537e-16
-2.689862376e-16
-1.148686045e-16
-4.931273403e-17
-2.11741503e-17
-9.102515006e-18
-3.931773555e-18
-1.713870567e-18
-7.570426826e-19
-3.404150906e-19
-1.565250819e-19
-7.3965538e-20
-3.612564731e-20
-1.834868088e-20
-9.743731294e-21
-5.428128096e-21
-3.170661919e-21
-1.931034633e-21
-1.213950535e-21
-7.782138528e-22
-5.028409975e-22
-3.245683898e-22
-2.081461041e-22
-1.32326456e-22
-8.339990131e-23
-5.215152587e-23
-3.234310273e-23
-1.983343774e-23
-1.195582901e-23
-7.032287051e-24
-4.00775861e-24
-2.202553467e-24
-1.165597804e-24
-5.95215254e-25
-2.947801896e-25
-1.425791994e-25
-6.787116232e-26
-3.202810143e-26
-1.507508885e-26
-7.110761793e-27
-3.371815865e-27
-1.609755213e-27
-7.732859279e-28
-3.721891852e-28
-1.775807787e-28
-8.212699032e-29
-3.519246392e-29
-1.270225103e-29
-3.165786722e-30
-3.191623988e-31
-5.725376256e-33
-1.845438335e-07
-1.357033183e-09
-6.221778281e-11
-1.196238597e-11
-2.991212991e-12
-8.279562774e-13
-2.54202145e-13
-9.487958064e-14
-4.060495212e-14
-1.861969673e-14
-8.503585377e-15
-3.809918688e-15
-1.6524699e-15
-6.972014408e-16
-2.873053674e-16
-1.16749386e-16
-4.7270426e-17
-1.928175397e-17
-8.011277052e-18
-3.421538025e-18
-1.513833965e-18
-6.983990929e-19
-3.381078841e-19
-1.726615388e-19
-9.3275932e-20
-5.323064573e-20
-3.187186496e-20
-1.979581867e-20
-1.258773413e-20
-8.095153822e-21
-5.216320386e-21
-3.349225638e-21
-2.137848833e-21
-1.356578509e-21
-8.562519309e-22
-5.371496605e-22
-3.336689792e-22
-2.038701934e-22
-1.21518476e-22
-7.012938587e-23
-3.899008438e-23
-2.085355557e-23
-1.075383981e-23
-5.37554252e-24
-2.623797419e-24
-1.26050519e-24
-6.00462847e-25
-2.853634989e-25
-1.35904604e-25
-6.504904767e-26
-3.132988682e-26
-1.517020282e-26
-7.351814413e-27
-3.527302613e-27
-1.638014457e-27
-7.042634158e-28
-2.564480525e-28
-6.545119419e-29
-7.298204654e-30
-1.723363689e-31
-9.730651264e-07
-8.114585267e-09
-2.248465637e-10
-3.613323251e-11
-1.108840304e-11
-4.274452524e-12
-1.873807245e-12
-9.081471788e-13
-4.617251536e-13
-2.36867872e-13
-1.187648994e-13
-5.76781411e-14
-2.69041785e-14
-1.207826558e-14
-5.219912701e-15
-2.186239007e-15
-8.928645955e-16
-3.594919529e-16
-1.443362857e-16
-5.859327367e-17
-2.437101429e-17
-1.051734704e-17
-4.761357363e-18
-2.282005396e-18
-1.164431734e-18
-6.325663734e-19
-3.635190935e-19
-2.184365993e-19
-1.353603049e-19
-8.539871891e-20
-5.432419929e-20
-3.464039153e-20
-2.209012997e-20
-1.40854891e-20
-8.982423582e-21
-5.718804355e-21
-3.616222409e-21
-2.252174371e-21
-1.368279527e-21
-8.04158532e-22
-4.547797755e-22
-2.471249773e-22
-1.293486181e-22
-6.557896693e-23
-3.244968128e-23
-1.579901828e-23
-7.625134448e-24
-3.669830366e-24
-1.768850321e-24
-8.562533112e-25
-4.168030009e-25
-2.038127891e-25
-9.963800186e-26
-4.815561394e-26
-2.248842281e-26
-9.713661269e-27
-3.570813444e-27
-9.323702042e-28
-1.123509136e-28
-3.411671549e-30
-3.84953299e-06
-4.929491029e-08
-1.18710143e-09
-1.093321581e-10
-3.518049823e-11
-1.742957154e-11
-9.44994211e-12
-5.251116805e-12
-2.949383399e-12
-1.651200887e-12
-9.079790641e-13
-4.862195094e-13
-2.51575909e-13
-1.2549715e-13
-6.016011175e-14
-2.776907056e-14
-1.234947505e-14
-5.322853844e-15
-2.235192678e-15
-9.242801501e-16
-3.803856408e-16
-1.581606166e-16
-6.741891705e-17
-2.993136279e-17
-1.40210803e-17
-6.987431606e-18
-3.706081668e-18
-2.077141387e-18
-1.215460567e-18
-7.329712568e-19
-4.50622451e-19
-2.804473481e-19
-1.761244045e-19
-1.115612473e-19
-7.127736325e-20
-4.582592956e-20
-2.944743064e-20
-1.871144853e-20
-1.161731866e-20
-6.976371604e-21
-4.026546997e-21
-2.229718067e-21
-1.187664244e-21
-6.122187346e-22
-3.079142982e-22
-1.523746614e-22
-7.472683209e-23
-3.651320859e-23
-1.784363015e-23
-8.743160807e-24
-4.300970754e-24
-2.122523217e-24
-1.046079356e-24
-5.091817277e-25
-2.392676563e-25
-1.040008103e-25
-3.864651106e-26
-1.035010801e-26
-1.343585663e-27
-5.427980685e-29
-2.563359616e-05
-4.442899263e-07
-9.073088217e-09
-5.163466316e-10
-1.239181204e-10
-6.006511035e-11
-3.436616848e-11
-2.034630494e-11
-1.219442531e-11
-7.326587689e-12
-4.371384867e-12
-2.568671696e-12
-1.475855355e-12
-8.250775273e-13
-4.466775357e-13
-2.336011441e-13
-1.177329957e-13
-5.720083512e-14
-2.679043765e-14
-1.214862589e-14
-5.357464211e-15
-2.319874558e-15
-9.957913373e-16
-4.297475867e-16
-1.891078144e-16
-8.621192126e-17
-4.119975178e-17
-2.076941167e-17
-1.102638637e-17
-6.120200285e-18
-3.518133866e-18
-2.077611087e-18
-1.254323425e-18
-7.729661408e-19
-4.861602799e-19
-3.113440541e-19
-2.014199089e-19
-1.29917406e-19
-8.231931411e-20
-5.057170757e-20
-2.985418634e-20
-1.687595182e-20
-9.151376676e-21
-4.791266559e-21
-2.445115595e-21
-1.22827825e-21
-6.120260264e-22
-3.039613771e-22
-1.508855611e-22
-7.497982143e-23
-3.732598194e-23
-1.85994292e-23
-9.239269174e-24
-4.528088913e-24
-2.142931412e-24
-9.404393411e-25
-3.552068776e-25
-9.85420398e-26
-1.396124075e-26
-7.709237707e-28
-0.0001026113606
-3.494324286e-06
-8.057099668e-08
-3.513996533e-09
-4.197268537e-10
-1.583351987e-10
-8.736288658e-11
-5.320517646e-11
-3.34396304e-11
-2.126324296e-11
-1.354657235e-11
-8.587753151e-12
-5.385647097e-12
-3.324571525e-12
-2.011286666e-12
-1.187834903e-12
-6.821206552e-13
-3.796396297e-13
-2.041409843e-13
-1.05940616e-13
-5.303641808e-14
-2.567456135e-14
-1.205581351e-14
-5.52804475e-15
-2.495117965e-15
-1.122076854e-15
-5.088219696e-16
-2.357531144e-16
-1.128275116e-16
-5.62005705e-17
-2.919582586e-17
-1.578551023e-17
-8.851850783e-18
-5.135655953e-18
-3.081373699e-18
-1.910792722e-18
-1.216548685e-18
-7.837390292e-19
-5.019639543e-19
-3.14274191e-19
-1.89813499e-19
-1.098114965e-19
-6.077312363e-20
-3.232186121e-20
-1.668808549e-20
-8.467846441e-21
-4.264587568e-21
-2.144005514e-21
-1.078703479e-21
-5.434915146e-22
-2.741135775e-22
-1.381710244e-22
-6.930959597e-23
-3.426365189e-23
-1.637201214e-23
-7.290106801e-24
-2.823780545e-24
-8.236233534e-25
-1.305925534e-25
-9.948254821e-27
-0.0001965831244
-1.565700542e-05
-5.026023682e-07
-2.078885491e-08
-1.765400755e-09
-4.087917645e-10
-1.85764347e-10
-1.088476117e-10
-6.913399986e-11
-4.528577334e-11
-3.004747605e-11
-2.001082243e-11
-1.329559918e-11
-8.77228892e-12
-5.72541266e-12
-3.684243672e-12
-2.330286654e-12
-1.444784629e-12
-8.753931932e-13
-5.166449531e-13
-2.960143441e-13
-1.641661067e-13
-8.790949333e-14
-4.54385668e-14
-2.271106377e-14
-1.102633876e-14
-5.23066787e-15
-2.444450294e-15
-1.136371665e-15
-5.318288619e-16
-2.534926135e-16
-1.243770709e-16
-6.331679031e-17
-3.359928805e-17
-1.861770086e-17
-1.078520576e-17
-6.522031438e-18
-4.070034719e-18
-2.572902368e-18
-1.616845922e-18
-9.931339206e-19
-5.883933527e-19
-3.338013282e-19
-1.812454421e-19
-9.491448888e-20
-4.858315344e-20
-2.461451229e-20
-1.244505537e-20
-6.305060384e-21
-3.204747785e-21
-1.633051309e-21
-8.32319628e-22
-4.222022346e-22
-2.110910873e-22
-1.021590413e-22
-4.630193624e-23
-1.845984191e-23
-5.674465534e-24
-1.006326641e-24
-1.015391517e-25
-0.0003353381699
-3.457622931e-05
-2.13547983e-06
-1.196763889e-07
-8.100820751e-09
-1.201673769e-09
-3.914611433e-10
-2.011655416e-10
-1.237574995e-10
-8.145286322e-11
-5.523089882e-11
-3.798547452e-11
-2.627220294e-11
-1.816809343e-11
-1.250717598e-11
-8.541409227e-12
-5.769664467e-12
-3.845222421e-12
-2.522490875e-12
-1.624984769e-12
-1.025389762e-12
-6.321484105e-13
-3.798033789e-13
-2.217048959e-13
-1.253655986e-13
-6.853530112e-14
-3.616910994e-14
-1.844314199e-14
-9.119124502e-15
-4.400138939e-15
-2.088953404e-15
-9.865188075e-16
-4.698314393e-16
-2.291197834e-16
-1.158964773e-16
-6.12991961e-17
-3.404994187e-17
-1.982687948e-17
-1.193921989e-17
-7.298765782e-18
-4.45439808e-18
-2.674812428e-18
-1.558281486e-18
-8.713435526e-19
-4.666360288e-19
-2.421296728e-19
-1.235708715e-19
-6.267157576e-20
-3.179316151e-20
-1.619219738e-20
-8.28822996e-21
-4.256376754e-21
-2.181714132e-21
-1.105047857e-21
-5.43543577e-22
-2.517671697e-22
-1.037085503e-22
-3.36991633e-23
-6.683295812e-24
-8.562789129e-25
-0.0006915200793
-8.081033965e-05
-7.852600345e-06
-5.137080844e-07
-4.126494831e-08
-4.44070445e-09
-9.271966222e-10
-3.745387766e-10
-2.104305432e-10
-1.350239703e-10
-9.179057887e-11
-6.4251288e-11
-4.567040436e-11
-3.268677097e-11
-2.341656346e-11
-1.671791117e-11
-1.185451922e-11
-8.326496049e-12
-5.780090418e-12
-3.957524173e-12
-2.66661405e-12
-1.765408782e-12
-1.145667364e-12
-7.270537267e-13
-4.500448903e-13
-2.710438904e-13
-1.584851354e-13
-8.977269077e-14
-4.915792464e-14
-2.599151973e-14
-1.327321217e-14
-6.568456639e-15
-3.174623401e-15
-1.517697373e-15
-7.295428751e-16
-3.585947416e-16
-1.826026875e-16
-9.71851298e-17
-5.407259883e-17
-3.114829301e-17
-1.827844531e-17
-1.077268817e-17
-6.305410007e-18
-3.619421823e-18
-2.007009962e-18
-1.069354864e-18
-5.535937194e-19
-2.824341769e-19
-1.433998667e-19
-7.290222646e-20
-3.7257184e-20
-1.916029002e-20
-9.881570434e-21
-5.062711133e-21
-2.533498445e-21
-1.202899172e-21
-5.13743922e-22
-1.770112743e-22
-3.922421519e-23
-6.110300032e-24
-0.001300012281
-0.0001699081265
-2.178034886e-05
-1.717062398e-06
-1.621864056e-07
-1.67369367e-08
-2.556350066e-09
-7.410998263e-10
-3.558519548e-10
-2.156794251e-10
-1.443471369e-10
-1.014954947e-10
-7.334304883e-11
-5.378812162e-11
-3.970344895e-11
-2.932635177e-11
-2.158499006e-11
-1.577830948e-11
-1.143300647e-11
-8.194873598e-12
-5.798504669e-12
-4.042346631e-12
-2.770940708e-12
-1.863793898e-12
-1.227466691e-12
-7.897926811e-13
-4.954503108e-13
-3.024424453e-13
-1.793126429e-13
-1.030713195e-13
-5.736636413e-14
-3.088174234e-14
-1.607565814e-14
-8.113420608e-15
-4.000560814e-15
-1.952163215e-15
-9.573158691e-16
-4.785684115e-16
-2.467324353e-16
-1.319603143e-16
-7.301682662e-17
-4.130385294e-17
-2.358103437e-17
-1.345701981e-17
-7.603169105e-18
-4.195271499e-18
-2.240684329e-18
-1.162485829e-18
-5.929259291e-19
-3.008588032e-19
-1.531160447e-19
-7.847575812e-20
-4.0483694e-20
-2.087678209e-20
-1.060040406e-20
-5.157589815e-21
-2.288375102e-21
-8.380101856e-22
-2.070822687e-22
-3.768001077e-23
-0.002067239078
-0.0003012825635
-4.391499444e-05
-4.971091155e-06
-5.38824721e-07
-7.111000341e-08
-9.621141174e-09
-1.862557535e-09
-6.501114422e-10
-3.427711267e-10
-2.184131492e-10
-1.516304007e-10
-1.101128223e-10
-8.196517758e-11
-6.17707138e-11
-4.680252079e-11
-3.54684733e-11
-2.677268374e-11
-2.007007368e-11
-1.490961211e-11
-1.095264216e-11
-7.94075614e-12
-5.671490525e-12
-3.983119414e-12
-2.745429791e-12
-1.853542465e-12
-1.223338651e-12
-7.878119109e-13
-4.941558898e-13
-3.014251011e-13
-1.785607936e-13
-1.02623755e-13
-5.718120195e-14
-3.089143787e-14
-1.620974617e-14
-8.299719594e-15
-4.178195694e-15
-2.089232768e-15
-1.050638959e-15
-5.377563741e-16
-2.82793128e-16
-1.531121664e-16
-8.47209088e-17
-4.737869923e-17
-2.653722031e-17
-1.477876772e-17
-8.108765804e-18
-4.344953301e-18
-2.265773996e-18
-1.157731949e-18
-5.87217689e-19
-2.990632311e-19
-1.53607141e-19
-7.928525618e-20
-4.062688237e-20
-2.018309844e-20
-9.298339843e-21
-3.626275477e-21
-9.97888184e-22
-2.050404323e-22
-0.003008953834
-0.0004754333157
-7.494337771e-05
-1.117925843e-05
-1.238593628e-06
-2.137919645e-07
-3.622651842e-08
-6.105900073e-09
-1.414869483e-09
-5.617839863e-10
-3.17102456e-10
-2.106673127e-10
-1.509784288e-10
-1.129047057e-10
-8.592405851e-11
-6.645172453e-11
-5.154476931e-11
-3.990490569e-11
-3.072837256e-11
-2.347722869e-11
-1.776105253e-11
-1.328125487e-11
-9.799909424e-12
-7.122962694e-12
-5.090498356e-12
-3.570174269e-12
-2.452479121e-12
-1.646942097e-12
-1.07928038e-12
-6.891377383e-13
-4.282256998e-13
-2.587381342e-13
-1.519211413e-13
-8.667639794e-14
-4.808736763e-14
-2.599021653e-14
-1.373188648e-14
-7.130113822e-15
-3.665780596e-15
-1.886131066e-15
-9.820140328e-16
-5.218391929e-16
-2.83559135e-16
-1.564842493e-16
-8.698571593e-17
-4.831810834e-17
-2.66397137e-17
-1.45213446e-17
-7.785730225e-18
-4.084219053e-18
-2.100277982e-18
-1.069452783e-18
-5.456824739e-19
-2.803596541e-19
-1.441063338e-19
-7.270862892e-20
-3.468600328e-20
-1.44404384e-20
-4.430451812e-21
-1.003542893e-21
-0.004441077857
-0.0007608316926
-0.0001297194301
-2.211755241e-05
-2.848387693e-06
-4.869190302e-07
-1.080594451e-07
-2.096969516e-08
-4.001747856e-09
-1.053492537e-09
-4.520714989e-10
-2.655176108e-10
-1.820598142e-10
-1.346498592e-10
-1.025190685e-10
-8.007567548e-11
-6.294378104e-11
-4.952806053e-11
-3.885725299e-11
-3.031066105e-11
-2.345850493e-11
-1.798246678e-11
-1.363315234e-11
-1.020692123e-11
-7.534047638e-12
-5.472039677e-12
-3.90190948e-12
-2.725093581e-12
-1.860015502e-12
-1.23853417e-12