/*--------------------------------*- C++ -*----------------------------------*\
  =========                 |
  \\      /  F ield         | OpenFOAM: The Open Source CFD Toolbox
   \\    /   O peration     | Website:  https://openfoam.org
    \\  /    A nd           | Version:  10
     \\/     M anipulation  |
\*---------------------------------------------------------------------------*/
FoamFile
{
    format      ascii;
    class       volScalarField;
    location    "3000";
    object      RR.CH4;
}
// * * * * * * * * * * * * * * * * * * * * * * * * * * * * * * * * * * * * * //

dimensions      [1 -3 -1 0 0 0 0];

internalField   nonuniform List<scalar> 
5170
(
0
0
0
0
0
0
0
0
0
0
0
0
0
0
0
0
0
0
0
0
0
0
0
0
0
0
0
0
0
0
0
0
0
0
0
0
0
0
0
0
0
0
0
0
0
0
0
0
0
0
0
0
0
0
0
0
0
0
0
0
0
0
0
0
0
0
0
0
0
0
0
0
0
0
0
0
0
0
0
0
0
0
0
0
0
0
0
0
-8.897511649e-12
-5.602769978e-11
-8.39843381e-12
-4.674025112e-11
-5.777230063e-10
-1.097628287e-08
-8.849598284e-08
-4.46164144e-09
-4.224863581e-08
-7.349778837e-07
-1.384321681e-05
-0.0001429553917
3.789504372e-18
7.473788906e-19
3.572084866e-19
1.249175153e-18
3.796471517e-18
-1.562476085e-18
-2.349769288e-19
-2.051594704e-19
-1.022105061e-19
-1.569350878e-18
-5.491069071e-19
-4.702258009e-19
-3.623973446e-19
-5.459789815e-19
-5.128800202e-19
-2.64654384e-19
-2.556551553e-19
-2.275249516e-19
-3.115405049e-19
-1.818620953e-19
-9.762537311e-20
-1.570855293e-19
-1.494387055e-19
-2.32964597e-19
-5.608926769e-20
-5.544050124e-20
-6.777798355e-20
-1.140546185e-19
-4.08854631e-20
-4.896943871e-20
-2.415486411e-20
-2.682310906e-20
-1.845111429e-20
-9.60444728e-20
-2.113784601e-20
-2.630503257e-20
-1.99047182e-20
-3.664573023e-20
1.117049861e-21
-1.591132069e-20
-6.080957307e-21
-1.154093261e-20
-1.627867354e-20
-2.095661291e-20
-9.36879187e-21
-1.309554508e-20
-7.510138868e-21
-1.821194178e-20
-2.269473508e-20
-1.069049189e-20
-7.322287572e-21
-2.444203085e-20
-1.411627519e-20
-4.583421749e-20
-1.598539817e-20
-2.130158806e-19
-6.225137547e-20
-1.519093746e-20
-3.291619573e-20
2.618586692e-21
-3.151961295e-17
-9.695538051e-18
-2.34953075e-18
-6.08033937e-19
-8.027678367e-20
-5.417115705e-15
-1.639401344e-15
-3.861841349e-16
-9.158429769e-17
-1.215457863e-17
-9.378585408e-13
-2.767120625e-13
-6.394936117e-14
-1.454137764e-14
-1.771008749e-15
-1.646974991e-10
-4.655263132e-11
-1.030777407e-11
-2.192860564e-12
-2.440360177e-13
-2.934988483e-08
-7.708313971e-09
-1.604771012e-09
-3.155275194e-10
-3.171227665e-11
-5.455547411e-06
-1.247695226e-06
-2.39029737e-07
-4.27767338e-08
-3.857622353e-09
-0.001103433503
-0.0001914956205
-3.269596838e-05
-5.022049181e-06
-4.015975933e-07
-0.662917541
-0.0362815171
-0.004217877927
-0.0004934738951
-3.344080354e-05
-3.83897521e-07
-5.442819757e-06
-0.0002031534644
-0.008770532955
-0.4594245578
-1.073708956e-06
-1.274843828e-05
-0.0003737060494
-0.01090937428
-0.2229103702
-2.08768794e-06
-2.341190996e-05
-0.0006008613617
-0.01255750983
-0.1276165816
-4.065300682e-06
-4.554657514e-05
-0.00101517699
-0.01485354745
-0.08985307002
-8.391060153e-06
-9.048965108e-05
-0.001643212943
-0.01677334246
-0.07065507953
-1.813202443e-05
-0.0001767423614
-0.002544966995
-0.01882897629
-0.06383875652
-4.148758776e-05
-0.0003560611839
-0.004007249541
-0.02220734501
-0.06647649714
-9.658107704e-05
-0.0007212362311
-0.006124955588
-0.02580497028
-0.06904032968
-0.0002192373262
-0.001385566103
-0.008630548657
-0.02842322483
-0.06830692095
-0.0004713854743
-0.002445389178
-0.01125574356
-0.03070067446
-0.06886349469
-0.0009762216798
-0.003942483001
-0.01383475631
-0.03325037973
-0.07196782555
-0.001832618819
-0.005740748951
-0.01628226023
-0.03579994214
-0.07484593592
-0.003144402016
-0.00778714206
-0.01867491876
-0.03804208465
-0.07642101497
-0.005036267586
-0.01012477092
-0.02118348555
-0.04038180212
-0.0789211046
-0.007682910016
-0.01290709351
-0.02409582909
-0.04375740996
-0.08429804509
-0.01119581125
-0.01637331747
-0.02774217481
-0.0483931581
-0.09353812479
-0.01565336058
-0.02073625833
-0.03233496596
-0.05471983386
-0.1065891788
-0.02082460508
-0.02579798065
-0.03773395926
-0.06199302143
-0.1186346488
-0.02641199252
-0.03140926365
-0.0438867131
-0.06992501973
-0.1307017038
-0.03231369543
-0.03747077627
-0.05082040443
-0.08042073283
-0.1442109224
-0.03840925436
-0.04406347405
-0.05931020951
-0.09325495536
-0.161666509
-0.04528344106
-0.05124073891
-0.07069679563
-0.1090441201
-0.1774956515
-0.05403996363
-0.06245182203
-0.0842968925
-0.125976722
-0.1902836206
-0.06536476676
-0.07539562597
-0.1008136313
-0.1422147676
-0.2203477375
-0.08091477339
-0.0932658152
-0.1169517917
-0.1700386618
-0.2405312355
-0.1038987676
-0.1192164359
-0.1578076642
-0.2056312477
-0.286919967
-0.1407067346
-0.1600889132
-0.2049611021
-0.2790417723
-0.4001610193
-0.200258335
-0.2253596604
-0.2870700807
-0.37037682
-0.5270728131
-0.2872111533
-0.3158247775
-0.4132781033
-0.5590629097
-0.776569783
-0.453143149
-0.5082673113
-0.6082397068
-0.7879620477
-1.088466588
-0.7574933245
-0.8156236137
-0.9687126318
-1.231487341
-1.575695199
-1.35559484
-1.455039723
-1.673877614
-2.004736204
-2.579312628
-2.525370198
-2.673119565
-3.043462919
-3.476399188
-4.271553677
-4.522843238
-4.700883936
-5.105466467
-5.737926625
-6.596134166
-7.0370046
-7.144667052
-7.399592623
-7.794339753
-8.255347507
-7.560751373
-7.572977579
-7.601300081
-7.583145426
-7.547505572
-5.803173157
-5.764943018
-5.685301629
-5.560976585
-5.401593986
-3.677737866
-3.652844551
-3.601899056
-3.531137461
-3.449045508
-2.216458682
-2.213912982
-2.209949126
-2.208808339
-2.214752727
-1.433972266
-1.444285598
-1.46551518
-1.492864367
-1.513683753
-0.9574973072
-0.9515425873
-0.9330939698
-0.8944509966
-0.8319357567
-0.4361862427
-0.4284482112
-0.4119287658
-0.3883017272
-0.3592754305
-0.1816187128
-0.1788385157
-0.1729003833
-0.1643371477
-0.1536717277
-0.07627201567
-0.07525549952
-0.07307048122
-0.06989497334
-0.0658985286
-0.03230179165
-0.03191970675
-0.03109783892
-0.02989741326
-0.02837540844
-0.01379398499
-0.01364848513
-0.01333419833
-0.01287307229
-0.01228487853
-0.005941675854
-0.005885076415
-0.005762855653
-0.005582964638
-0.005352427434
-0.002581261191
-0.002559010679
-0.002510809481
-0.002439657321
-0.00234810728
-0.001131224895
-0.001122319758
-0.001103039326
-0.001074517402
-0.001037699998
-0.0005001748222
-0.0004965796746
-0.000488776767
-0.000477209647
-0.0004622360317
-0.0002232964505
-0.0002218252377
-0.0002186339237
-0.0002138964298
-0.0002077506273
-0.0001007830592
-0.0001001799578
-9.886962312e-05
-9.692242909e-05
-9.439330133e-05
-4.613539151e-05
-4.589045596e-05
-4.535909693e-05
-4.457020689e-05
-4.354701854e-05
-2.159460989e-05
-2.150213163e-05
-2.130202094e-05
-2.100687202e-05
-2.062798258e-05
-1.056685788e-05
-1.054233589e-05
-1.049054122e-05
-1.041749085e-05
-1.033029686e-05
-5.707345981e-06
-5.717154884e-06
-5.740502e-06
-5.780904094e-06
-5.844510646e-06
-3.758689684e-06
-3.790625958e-06
-3.862831528e-06
-3.977989413e-06
-4.142819666e-06
-3.296250779e-06
-3.348243029e-06
-3.464998187e-06
-3.649150746e-06
-3.908974009e-06
-3.752391254e-06
-3.828284716e-06
-3.998362876e-06
-4.265623741e-06
-4.640836525e-06
-5.026151043e-06
-5.135870931e-06
-5.381512921e-06
-5.766918429e-06
-6.306885615e-06
-6.809421421e-06
-6.949514906e-06
-7.262035095e-06
-7.749195508e-06
-8.425386673e-06
-9.814767802e-06
-1.000163861e-05
-1.041758396e-05
-1.106353008e-05
-1.195345111e-05
-1.394047657e-05
-1.417907097e-05
-1.470870469e-05
-1.552725067e-05
-1.664987964e-05
-1.94768315e-05
-1.977270072e-05
-2.042789458e-05
-2.143632937e-05
-2.281146983e-05
-2.663031783e-05
-2.698290127e-05
-2.776191724e-05
-2.895615122e-05
-3.05756072e-05
-3.545421634e-05
-3.585679878e-05
-3.67443046e-05
-3.80996994e-05
-3.992803745e-05
-4.581865196e-05
-4.625801625e-05
-4.722463184e-05
-4.86956232e-05
-5.067014151e-05
-5.718077787e-05
-5.763807029e-05
-5.864216962e-05
-6.016521422e-05
-6.220039304e-05
-6.873279349e-05
-6.918679612e-05
-7.018191838e-05
-7.168686259e-05
-7.368961147e-05
-7.675047099e-05
-7.718078624e-05
-7.812278121e-05
-7.954425373e-05
-8.143023354e-05
-2.107875573
-1.241870777
-0.4118385647
-0.2108360819
-0.1460730552
-0.1344801886
-0.1492784724
-0.1483762525
-0.1367706295
-0.1351130048
-0.1435711964
-0.1479560943
-0.1452178877
-0.1463707642
-0.1560159551
-0.1730488448
-0.191928011
-0.2052464425
-0.2160908683
-0.2301101413
-0.2384512657
-0.2533663771
-0.2853649407
-0.2934519435
-0.3329933321
-0.3964000814
-0.5463720437
-0.7112533462
-0.9481382903
-1.368516461
-1.971016381
-3.13510208
-4.984720586
-7.291870547
-8.545433654
-7.49218347
-5.285354034
-3.400480355
-2.230817503
-1.514741304
-0.7796752194
-0.3378628483
-0.1456621416
-0.06285871754
-0.02720669669
-0.01182977626
-0.005172959886
-0.002276467837
-0.001008764666
-0.0004504242523
-0.0002028885317
-9.2389279e-05
-4.27379777e-05
-2.03328082e-05
-1.02698002e-05
-5.907315302e-06
-4.290405249e-06
-4.137801813e-06
-4.969360166e-06
-6.778549357e-06
-9.009635354e-06
-1.271278335e-05
-1.760697416e-05
-2.397610939e-05
-3.193836622e-05
-4.145713189e-05
-5.231209855e-05
-6.388388307e-05
-7.533849594e-05
-8.297760661e-05
-6.835503479
-17.87121869
-0.6006069236
-0.03561395829
-0.001828759106
-2.176560726
-11.56724936
-6.762231149
-0.2929823066
-0.01191292345
-1.174229948
-6.645194527
-17.84792681
-0.9435011209
-0.03747561852
-0.6210205352
-3.506408337
-25.77409602
-2.143651814
-0.1215410043
-0.3913220925
-2.221089405
-23.0375622
-6.048636329
-0.409830219
-0.3897428559
-2.209000398
-18.90391582
-13.35649768
-1.112415641
-0.4593423238
-2.394154842
-16.59973331
-21.86474748
-2.278209408
-0.4242175824
-1.89699914
-10.96669383
-30.81016583
-3.897415446
-0.3547785072
-1.384808148
-7.138274866
-31.97323083
-8.3947873
-0.33758957
-1.241825295
-5.997501294
-28.481668
-15.20888731
-0.3496029933
-1.227987575
-5.512865858
-24.99929502
-22.2166033
-0.3446571568
-1.133513404
-4.579430845
-19.35959428
-29.8872043
-0.3193385822
-0.9524807665
-3.480394984
-13.52570056
-33.96212936
-0.3095464328
-0.8576432382
-2.98303893
-10.99228536
-32.39554494
-0.3199282522
-0.848758245
-2.821751035
-9.885014707
-30.10583061
-0.3402674955
-0.8788552023
-2.764034022
-9.124487181
-27.4393108
-0.3603915703
-0.8775923029
-2.605492
-8.05825906
-23.57537619
-0.3657972514
-0.8297194934
-2.331465727
-6.80262799
-19.31994119
-0.334443382
-0.7854472587
-2.13362193
-6.002013717
-16.68441058
-0.3464321177
-0.7793940742
-2.06726418
-5.654365831
-15.31609928
-0.365556962
-0.8107078234
-2.09867502
-5.564830835
-14.54973433
-0.3714178787
-0.867780764
-2.174866027
-5.561208949
-13.97592903
-0.4035407828
-0.9370533406
-2.26424359
-5.575441878
-13.45180134
-0.450296302
-1.017006169
-2.365999946
-5.609471882
-12.96794871
-0.5126648478
-1.115506754
-2.501194217
-5.721565978
-12.66602834
-0.5996056781
-1.403751899
-2.725758912
-6.028789905
-12.72800812
-0.8034661529
-1.597106718
-3.111666084
-6.641786961
-13.2147184
-1.035803744
-1.834616061
-3.733332272
-7.61822143
-13.99070517
-1.366324896
-2.392975517
-4.682337644
-8.96090522
-14.79083394
-2.027375845
-3.268099117
-6.046170074
-10.53180998
-15.22345243
-2.682523147
-4.601463537
-7.813836808
-11.95300249
-14.90942677
-4.106801379
-6.461021278
-9.672345554
-12.624724
-13.67299711
-6.158844496
-8.522848321
-10.84618683
-12.04770405
-11.66888426
-8.258254186
-9.721671643
-10.49759127
-10.27776146
-9.321077953
-8.838199782
-9.011328926
-8.676322199
-7.960562187
-7.072636376
-7.308543309
-6.903860882
-6.368485031
-5.809678874
-5.066489906
-5.069163869
-4.746062508
-4.447721965
-4.109595392
-3.208071026
-3.307432825
-3.211796315
-3.089704148
-2.602485012
-1.818486482
-2.228702241
-2.197422105
-1.893411021
-1.393275591
-0.9841455514
-1.45148293
-1.22710874
-0.9446289588
-0.7035212171
-0.512869598
-0.6973555894
-0.5673719558
-0.4475659502
-0.3439174629
-0.2583590571
-0.306384247
-0.2558930633
-0.2075100643
-0.1639449692
-0.126606083
-0.1338248772
-0.1142133103
-0.09480171247
-0.07674415678
-0.06075915079
-0.05834846166
-0.05069264492
-0.0429181311
-0.03548817644
-0.02872606507
-0.02546728901
-0.02245799932
-0.01933771901
-0.01628763416
-0.01344487699
-0.01115076373
-0.009957851698
-0.008699457034
-0.00744572857
-0.006253139786
-0.004904676466
-0.004427292288
-0.003916426139
-0.003399190037
-0.002898483226
-0.002169212769
-0.001976294516
-0.001767328368
-0.001552839484
-0.001342068718
-0.0009653949738
-0.0008866739542
-0.0008005321437
-0.0007110877932
-0.0006220763037
-0.0004327053392
-0.0004002986384
-0.000364540682
-0.0003270636811
-0.0002893957034
-0.000195591259
-0.0001821683253
-0.0001672693866
-0.0001515583538
-0.0001356770976
-8.938174347e-05
-8.383560649e-05
-7.767159077e-05
-7.117502831e-05
-6.463614064e-05
-4.152577843e-05
-3.930348096e-05
-3.686157239e-05
-3.433942505e-05
-3.189056092e-05
-1.9893746e-05
-1.911777737e-05
-1.831717469e-05
-1.757834708e-05
-1.700666861e-05
-1.018483933e-05
-1.008305496e-05
-1.006560047e-05
-1.020460843e-05
-1.059543612e-05
-6.009495258e-06
-6.27568662e-06
-6.704117178e-06
-7.370595553e-06
-8.379322547e-06
-4.522405335e-06
-5.055645486e-06
-5.825987899e-06
-6.923623894e-06
-8.474004505e-06
-4.49514343e-06
-5.295784359e-06
-6.422755167e-06
-7.989788452e-06
-1.015515751e-05
-5.481052252e-06
-6.616512212e-06
-8.197881145e-06
-1.037343911e-05
-1.334934803e-05
-7.466487483e-06
-8.854362446e-06
-1.06735943e-05
-1.321220548e-05
-1.676264681e-05
-9.910464934e-06
-1.185729282e-05
-1.44703371e-05
-1.790530189e-05
-2.234500731e-05
-1.38763967e-05
-1.635805437e-05
-1.96286683e-05
-2.383669978e-05
-2.915152427e-05
-1.906634096e-05
-2.214036207e-05
-2.6125438e-05
-3.115591886e-05
-3.737517756e-05
-2.574345745e-05
-2.942010339e-05
-3.410874291e-05
-3.99164337e-05
-4.694675203e-05
-3.39970287e-05
-3.822801526e-05
-4.353859295e-05
-4.999767623e-05
-5.765928632e-05
-4.375736404e-05
-4.843066343e-05
-5.420899705e-05
-6.11164419e-05
-6.915350193e-05
-5.47724912e-05
-5.971781192e-05
-6.574738222e-05
-7.283956137e-05
-8.094376652e-05
-6.639734877e-05
-7.140004248e-05
-7.742141546e-05
-8.439874652e-05
-9.223876123e-05
-7.779211707e-05
-8.263215454e-05
-8.838992809e-05
-9.497142166e-05
-0.0001022534111
-8.527460288e-05
-8.977611794e-05
-9.508503544e-05
-0.0001010917397
-0.0001076597654
-2.010948333e-06
-6.011895792e-09
-1.316472881e-10
-9.697308352e-12
-1.548777594e-12
-2.953627554e-13
-5.461355186e-14
-1.001646802e-14
-2.008349006e-15
-5.041846924e-16
-1.678487219e-16
-6.844163853e-17
-3.06623169e-17
-1.416535603e-17
-6.569762957e-18
-3.028957483e-18
-1.385548942e-18
-6.299183317e-19
-2.858623956e-19
-1.302904392e-19
-6.012387549e-20
-2.83670166e-20
-1.383733546e-20
-7.057560033e-21
-3.797965557e-21
-2.163967972e-21
-1.299642988e-21
-8.133166821e-22
-5.224101348e-22
-3.394372443e-22
-2.20593181e-22
-1.423706231e-22
-9.095428054e-23
-5.748668335e-23
-3.596534112e-23
-2.22663199e-23
-1.360709299e-23
-8.165882733e-24
-4.779643635e-24
-2.710251742e-24
-1.481376322e-24
-7.78795907e-25
-3.941714117e-25
-1.927780381e-25
-9.161651139e-26
-4.258654103e-26
-1.948568404e-26
-8.826988052e-27
-3.978348052e-27
-1.790134016e-27
-8.063857816e-28
-3.637909285e-28
-1.639489966e-28
-7.328500066e-29
-3.184711611e-29
-1.287868817e-29
-4.389865528e-30
-1.004597683e-30
-7.785054666e-32
-6.642178246e-34
-3.066338026e-05
-9.170389829e-08
-2.077231322e-09
-2.247007444e-10
-4.188228333e-11
-8.559621927e-12
-1.758580298e-12
-4.138943882e-13
-1.212875499e-13
-4.356424177e-14
-1.723456174e-14
-7.058899966e-15
-2.904376382e-15
-1.192799476e-15
-4.889453878e-16
-2.00603993e-16
-8.268765276e-17
-3.437380051e-17
-1.44788381e-17
-6.211254699e-18
-2.731169507e-18
-1.240964422e-18
-5.883618007e-19
-2.939874591e-19
-1.560505869e-19
-8.819797065e-20
-5.277145325e-20
-3.299497638e-20
-2.120984808e-20
-1.380343269e-20
-8.989502425e-21
-5.817073673e-21
-3.728479199e-21
-2.3662814e-21
-1.488061967e-21
-9.270272849e-22
-5.705378605e-22
-3.44960218e-22
-2.034061797e-22
-1.161378375e-22
-6.388031943e-23
-3.377886678e-23
-1.719215336e-23
-8.455825088e-24
-4.042722906e-24
-1.891402529e-24
-8.715608178e-25
-3.978201166e-25
-1.806977241e-25
-8.194701974e-26
-3.718351249e-26
-1.68892098e-26
-7.658879339e-27
-3.439974807e-27
-1.500632956e-27
-6.089286161e-28
-2.090017564e-28
-4.964599218e-29
-4.746381897e-30
-8.316007498e-32
-9.550653001e-05
-2.336381554e-07
-6.709670273e-09
-1.071703012e-09
-2.470545969e-10
-6.486401635e-11
-1.900312142e-11
-6.775899691e-12
-2.777175142e-12
-1.222347701e-12
-5.362627663e-13
-2.3065457e-13
-9.588242346e-14
-3.867465869e-14
-1.518731793e-14
-5.858864832e-15
-2.242727432e-15
-8.612523591e-16
-3.355525285e-16
-1.339380946e-16
-5.526221456e-17
-2.376954722e-17
-1.075955769e-17
-5.174361877e-18
-2.663330461e-18
-1.469775015e-18
-8.639165373e-19
-5.333574062e-19
-3.399827483e-19
-2.202234789e-19
-1.432218124e-19
-9.283821941e-20
-5.978768759e-20
-3.823412849e-20
-2.429124307e-20
-1.532163322e-20
-9.561083123e-21
-5.864670713e-21
-3.507440209e-21
-2.029628964e-21
-1.130298163e-21
-6.045403778e-22
-3.109781955e-22
-1.545190096e-22
-7.462720155e-23
-3.527950587e-23
-1.643532312e-23
-7.588336339e-24
-3.487756734e-24
-1.600644274e-24
-7.347533587e-25
-3.373288901e-25
-1.544383856e-25
-6.989660348e-26
-3.064806161e-26
-1.247428623e-26
-4.309441362e-27
-1.041958203e-27
-1.090605637e-28
-2.37260121e-30
-0.0008251924353
-2.457206273e-06
-2.760324241e-08
-3.319065688e-09
-9.229074445e-10
-3.34768397e-10
-1.394211413e-10
-6.45042103e-11
-3.141564091e-11
-1.5467627e-11
-7.446482008e-12
-3.470022708e-12
-1.550750623e-12
-6.655379499e-13
-2.742007497e-13
-1.091271629e-13
-4.220025389e-14
-1.603002556e-14
-6.050688559e-15
-2.30192457e-15
-8.951375563e-16
-3.607952141e-16
-1.527742481e-16
-6.884427059e-17
-3.33559632e-17
-1.7444033e-17
-9.797354834e-18
-5.831192112e-18
-3.614198714e-18
-2.294246834e-18
-1.472727312e-18
-9.48544843e-19
-6.108240041e-19
-3.92976731e-19
-2.525812372e-19
-1.619087585e-19
-1.029894924e-19
-6.447732631e-20
-3.935305983e-20
-2.321839679e-20
-1.316808422e-20
-7.164110785e-21
-3.745215728e-21
-1.890070941e-21
-9.268758154e-22
-4.449000059e-22
-2.104559643e-22
-9.866581616e-23
-4.603839875e-23
-2.144383005e-23
-9.98636636e-24
-4.648145293e-24
-2.154465526e-24
-9.850770547e-25
-4.350652934e-25
-1.778463489e-25
-6.184578941e-26
-1.519231355e-26
-1.696620939e-27
-4.610258797e-29
-0.007057372693
-3.57681847e-05
-2.231719818e-07
-1.108070774e-08
-3.04861943e-09
-1.399113527e-09
-7.15511818e-10
-3.77711327e-10
-2.024477409e-10
-1.084593243e-10
-5.715133349e-11
-2.933436406e-11
-1.453887238e-11
-6.938011504e-12
-3.175695772e-12
-1.396502039e-12
-5.901875662e-13
-2.411038298e-13
-9.570348416e-14
-3.730919217e-14
-1.44384639e-14
-5.632902672e-15
-2.250395629e-15
-9.374639909e-16
-4.141520903e-16
-1.965804859e-16
-1.006813999e-16
-5.5299007e-17
-3.211688268e-17
-1.939852111e-17
-1.201049384e-17
-7.548096633e-18
-4.790963572e-18
-3.066532045e-18
-1.978292176e-18
-1.283041982e-18
-8.309298637e-19
-5.316936572e-19
-3.321874874e-19
-2.005807833e-19
-1.162826418e-19
-6.457632234e-20
-3.441601517e-20
-1.769436869e-20
-8.839743903e-21
-4.323942571e-21
-2.08469316e-21
-9.95725679e-22
-4.729352464e-22
-2.239536651e-22
-1.05891296e-22
-4.997659147e-23
-2.345629627e-23
-1.084011552e-23
-4.827665911e-24
-1.985890919e-24
-6.960805201e-25
-1.74163763e-25
-2.064128132e-26
-7.15994743e-28
-0.04921984541
-0.0004713991972
-3.220775032e-06
-6.576837569e-08
-1.167462497e-08
-5.057747084e-09
-2.688760818e-09
-1.497846479e-09
-8.508021964e-10
-4.86732303e-10
-2.773320232e-10
-1.558736666e-10
-8.571162139e-11
-4.584950262e-11
-2.373197239e-11
-1.185212926e-11
-5.696232164e-12
-2.635068052e-12
-1.173227003e-12
-5.049561088e-13
-2.110189252e-13
-8.644912309e-14
-3.505057516e-14
-1.426926835e-14
-5.922487005e-15
-2.553175036e-15
-1.161611398e-15
-5.637749431e-16
-2.921532664e-16
-1.603978749e-16
-9.215305081e-17
-5.476173954e-17
-3.33929474e-17
-2.08166281e-17
-1.324680724e-17
-8.57829053e-18
-5.606634235e-18
-3.65011302e-18
-2.332409987e-18
-1.443753405e-18
-8.578385798e-19
-4.873388178e-19
-2.650193108e-19
-1.387343302e-19
-7.05213945e-20
-3.51267211e-20
-1.726853809e-20
-8.417415152e-21
-4.079363082e-21
-1.968782291e-21
-9.469605722e-22
-4.536602687e-22
-2.156800369e-22
-1.007774295e-22
-4.532555058e-23
-1.88375492e-23
-6.69669919e-24
-1.724731625e-24
-2.196534054e-25
-9.975575238e-27
-0.1809854052
-0.003607835927
-4.811374914e-05
-7.196855418e-07
-4.589779388e-08
-1.414255022e-08
-7.054685509e-09
-3.990451895e-09
-2.357430486e-09
-1.419038424e-09
-8.597785906e-10
-5.199365256e-10
-3.116350149e-10
-1.84047699e-10
-1.065670762e-10
-6.02301514e-11
-3.308481807e-11
-1.76016356e-11
-9.040621404e-12
-4.478326574e-12
-2.13877183e-12
-9.872142448e-13
-4.417542676e-13
-1.928913877e-13
-8.283636627e-14
-3.542168218e-14
-1.527845185e-14
-6.750714041e-15
-3.09994622e-15
-1.496621613e-15
-7.630720178e-16
-4.09882013e-16
-2.305298542e-16
-1.349725876e-16
-8.198081535e-17
-5.151294621e-17
-3.322257543e-17
-2.166294389e-17
-1.402971293e-17
-8.873388956e-18
-5.407895089e-18
-3.152353701e-18
-1.754309986e-18
-9.356234376e-19
-4.826977394e-19
-2.437046848e-19
-1.215535093e-19
-6.023172419e-20
-2.972455707e-20
-1.461950629e-20
-7.163159867e-21
-3.490841914e-21
-1.684974677e-21
-7.979320048e-22
-3.636150212e-22
-1.535914597e-22
-5.594927412e-23
-1.507941627e-23
-2.118419805e-24
-1.275952576e-25
-0.3793538116
-0.02265036921
-0.0005240365015
-8.68591929e-06
-2.69970026e-07
-4.047708445e-08
-1.55399346e-08
-8.264233757e-09
-4.877257475e-09
-3.002418692e-09
-1.884992588e-09
-1.193263553e-09
-7.560031071e-10
-4.766900395e-10
-2.977871685e-10
-1.836026984e-10
-1.113468992e-10
-6.622525428e-11
-3.850591312e-11
-2.181363154e-11
-1.199888662e-11
-6.389403317e-12
-3.285404961e-12
-1.630660416e-12
-7.825938592e-13
-3.647556825e-13
-1.660412573e-13
-7.442467002e-14
-3.318696125e-14
-1.492434839e-14
-6.867905735e-15
-3.280768498e-15
-1.644291322e-15
-8.690078303e-16
-4.840828058e-16
-2.835841158e-16
-1.738745307e-16
-1.100741114e-16
-7.055965295e-17
-4.492424856e-17
-2.792707979e-17
-1.672157488e-17
-9.568807134e-18
-5.227325553e-18
-2.744994254e-18
-1.403299783e-18
-7.069645529e-19
-3.53822523e-19
-1.766544138e-19
-8.809782968e-20
-4.385129273e-20
-2.173221902e-20
-1.066880337e-20
-5.137074544e-21
-2.381506665e-21
-1.027008404e-21
-3.85459799e-22
-1.092459667e-22
-1.697770837e-23
-1.316158041e-24
-0.9106029378
-0.08563096001
-0.003204511284
-9.980193207e-05
-2.154576476e-06
-1.442582701e-07
-3.455936505e-08
-1.541788003e-08
-8.660543696e-09
-5.307234203e-09
-3.385155241e-09
-2.204274867e-09
-1.450039335e-09
-9.569930106e-10
-6.304053189e-10
-4.128188946e-10
-2.678483389e-10
-1.717070937e-10
-1.084832865e-10
-6.737987554e-11
-4.103536341e-11
-2.443904627e-11
-1.419700044e-11
-8.018633809e-12
-4.389523842e-12
-2.323721854e-12
-1.187422543e-12
-5.860364094e-13
-2.802684601e-13
-1.307042734e-13
-5.994539112e-14
-2.736908931e-14
-1.264403136e-14
-6.023494254e-15
-3.006961498e-15
-1.586942758e-15
-8.875245534e-16
-5.231966594e-16
-3.197604929e-16
-1.985307771e-16
-1.229970032e-16
-7.488595424e-17
-4.415549109e-17
-2.493047213e-17
-1.343955645e-17
-6.993135795e-18
-3.563864108e-18
-1.797136862e-18
-9.026495141e-19
-4.533053351e-19
-2.278657845e-19
-1.144345494e-19
-5.710154465e-20
-2.801486789e-20
-1.326971106e-20
-5.873786343e-21
-2.28464613e-21
-6.849467117e-22
-1.183326133e-22
-1.145820065e-23
-1.880685202
-0.2220743802
-0.01385806245
-0.0006349304868
-2.089448174e-05
-7.586396352e-07
-9.063196517e-08
-2.92594032e-08
-1.45747162e-08
-8.592576404e-09
-5.454451275e-09
-3.598831537e-09
-2.426753909e-09
-1.655601996e-09
-1.134865772e-09
-7.776526951e-10
-5.306385443e-10
-3.59465881e-10
-2.411351116e-10
-1.598231422e-10
-1.044112456e-10
-6.711759608e-11
-4.234627865e-11
-2.615638568e-11
-1.577353943e-11
-9.261668164e-12
-5.282290906e-12
-2.918979207e-12
-1.558939401e-12
-8.033682242e-13
-3.993984997e-13
-1.921442353e-13
-9.017491652e-14
-4.186265427e-14
-1.958967686e-14
-9.4308759e-15
-4.747887954e-15
-2.524723186e-15
-1.415922239e-15
-8.268151552e-16
-4.931874728e-16
-2.955785709e-16
-1.757172307e-16
-1.022214903e-16
-5.728478696e-17
-3.073921341e-17
-1.596234997e-17
-8.134651755e-18
-4.10882738e-18
-2.069977085e-18
-1.044321754e-18
-5.281117831e-19
-2.666884307e-19
-1.331376476e-19
-6.453532352e-20
-2.944329095e-20
-1.193218161e-20
-3.807905924e-21
-7.35407241e-22
-8.620187343e-23
-3.109727347
-0.4147089956
-0.04418969343
-0.002512815446
-0.00013415889
-4.79298627e-06
-3.082337359e-07
-6.085481005e-08
-2.458366959e-08
-1.341917855e-08
-8.30630601e-09
-5.477156988e-09
-3.744957634e-09
-2.615510731e-09
-1.847807203e-09
-1.311626123e-09
-9.309022983e-10
-6.580640509e-10
-4.623155424e-10
-3.220054346e-10
-2.218336798e-10
-1.50825799e-10
-1.009816751e-10
-6.642590006e-11
-4.282869541e-11
-2.700186445e-11
-1.660774268e-11
-9.943794643e-12
-5.783178869e-12
-3.260206676e-12
-1.77851803e-12
-9.374396104e-13
-4.770784852e-13
-2.349589147e-13
-1.128545849e-13
-5.361355414e-14
-2.564716015e-14
-1.25797067e-14
-6.42383092e-15
-3.440275922e-15
-1.923690034e-15
-1.105762522e-15
-6.427084646e-16
-3.730961375e-16
-2.139067287e-16
-1.193858936e-16
-6.425913096e-17
-3.346411133e-17
-1.706495577e-17
-8.624392359e-18
-4.355703913e-18
-2.207186192e-18
-1.121277149e-18
-5.667827206e-19
-2.804777634e-19
-1.319558901e-19
-5.591639145e-20
-1.90965572e-20
-4.143383407e-21
-5.716105817e-22
-4.659777787
-0.6874471571
-0.09877080253
-0.007665416335
-0.0005985958902
-3.602052707e-05
-1.765711086e-06
-1.763209153e-07
-4.610039323e-08
-2.1068309e-08
-1.223905136e-08
-7.918061173e-09
-5.425845773e-09
-3.843374108e-09
-2.773461562e-09
-2.022362998e-09
-1.481150821e-09
-1.084232554e-09
-7.905489808e-10
-5.726458877e-10
-4.110580122e-10
-2.917382285e-10
-2.042856458e-10
-1.408406718e-10
-9.539740626e-11
-6.334542705e-11
-4.11453399e-11
-2.608798972e-11
-1.611428285e-11
-9.679015473e-12
-5.644080408e-12
-3.190901264e-12
-1.74704886e-12
-9.259874695e-13
-4.757626761e-13
-2.379743122e-13
-1.167952111e-13
-5.690007876e-14
-2.794867094e-14
-1.407269617e-14
-7.361259264e-15
-4.010484277e-15
-2.251598955e-15
-1.282410711e-15
-7.315150887e-16
-4.139048522e-16
-2.299573293e-16
-1.243065272e-16
-6.514753809e-17
-3.33309912e-17
-1.686687903e-17
-8.539680814e-18
-4.343915448e-18
-2.210817822e-18
-1.110971646e-18
-5.372679641e-19
-2.381863558e-19
-8.744128546e-20
-2.142047808e-20
-3.402614148e-21
-7.695514822
-1.213805872
-0.1953385666
-0.02111610688
-0.001725029079
-0.0001656086522
-1.158428725e-05
-8.043574634e-07
-1.114452035e-07
-3.505662653e-08
-1.750359143e-08
-1.07203704e-08
-7.220242434e-09
-5.13528065e-09
-3.744262518e-09
-2.793289776e-09
-2.099659714e-09
-1.581075821e-09
-1.187811746e-09
-8.876365933e-10
-6.581953409e-10
-4.832682565e-10
-3.506460043e-10
-2.509148449e-10
-1.76711897e-10
-1.222264598e-10
-8.285091919e-11
-5.492248359e-11
-3.553579965e-11
-2.240214022e-11
-1.374044804e-11
-8.190507463e-12
-4.740543934e-12
-2.662798811e-12
-1.451986046e-12
-7.696273154e-13
-3.977383476e-13
-2.014642325e-13
-1.00864487e-13
-5.058247218e-14
-2.580757116e-14
-1.35767519e-14
-7.39463704e-15
-4.132442724e-15
-2.338983799e-15
-1.324163887e-15
-7.426399845e-16
-4.104415411e-16
-2.223166808e-16
-1.174012115e-16
-6.056618499e-17
-3.083099662e-17
-1.566857337e-17
-7.98454899e-18
-4.049948095e-18
-2.002774641e-18
-9.268665491e-19
-3.672416283e-19
-1.021806105e-19
-1.844111124e-20
-12.30131728
-2.100192583
-0.3635404298
-0.0538265269
-0.004810972575
-0.0005237175215
-5.59754326e-05
-4.640597258e-06
-4.183384163e-07
-7.187310005e-08
-2.51782995e-08
-1.326714411e-08
-8.485446772e-09
-5.965596797e-09
-4.358677485e-09
-3.293716428e-09
-2.516891907e-09
-1.93250025e-09
-1.483834e-09
-1.135509623e-09
-8.638192255e-10
-6.519128251e-10
-4.872109936e-10
-3.599555627e-10
-2.624049489e-10
-1.88343662e-10
-1.327775355e-10
-9.170362841e-11
-6.190411413e-11
-4.076404615e-11
-2.614057092e-11
-1.630323657e-11
-9.884329583e-12
-5.825876857e-12
-3.339701949e-12
-1.863722116e-12
-1.013964824e-12
-5.392447724e-13
-2.816521794e-13
-1.456276229e-13
-7.543517675e-14
-3.96908042e-14
-2.145496708e-14
-1.19371467e-14
-6.775280804e-15
-3.869733681e-15
-2.195932838e-15
-1.228547059e-15
-6.764101338e-16
-3.660823006e-16
-1.944608841e-16
-1.013789406e-16
-5.217633445e-17
-2.672519328e-17
-1.364458039e-17
-6.863858769e-18
-3.29777992e-18
-1.40792075e-18
-4.467788112e-19
-9.162837687e-20
-17.19369392
-3.201974363
-0.6017953336
-0.109750688
-0.01262431182
-0.001406792513
-0.0001863291859
-2.277859024e-05
-2.280472344e-06
-2.447798826e-07
-4.623777928e-08
-1.661516878e-08
-8.872739429e-09
-5.822124067e-09
-4.172863018e-09
-3.128015137e-09
-2.399373357e-09
-1.861795047e-09
-1.451401598e-09
-1.131682776e-09
-8.79786648e-10
-6.802993435e-10
-5.221818272e-10
-3.971505325e-10
-2.987544283e-10
-2.218573387e-10
-1.623005929e-10
-1.166794503e-10
-8.219910457e-11
-5.659257978e-11
-3.800463571e-11
-2.48501642e-11
-1.579430388e-11
-9.755567815e-12
-5.861402836e-12
-3.42901626e-12
-1.956726389e-12
-1.092108979e-12
-5.981877868e-13
-3.232510798e-13
-1.73792598e-13
-9.405272122e-14
-5.186310741e-14
-2.935709615e-14
-1.700563621e-14
-9.955284825e-15
-5.800661576e-15
-3.325398379e-15
-1.866902339e-15
-1.027264051e-15
-5.558827465e-16
-2.964904366e-16
-1.560686818e-16
-8.142702503e-17
-4.223703142e-17
-2.16685239e-17
-1.076433314e-17
-4.909171516e-18
-1.769702001e-18
-4.173488085e-19
-21.91819083
-4.430302736
-0.9014055144
-0.1838119358
-0.02869928577
-0.003384553639
-0.0004980682956
-7.580028595e-05
-1.083013617e-05
-1.317262188e-06
-1.58375775e-07
-2.912012585e-08
-9.908645314e-09
-5.167617195e-09
-3.352515009e-09
-2.407688924e-09
-1.81571528e-09
-1.404818288e-09
-1.101796244e-09
-8.6979758e-10
-6.87970891e-10
-5.434155085e-10
-4.275573932e-10
-3.34355637e-10
-2.593481157e-10
-1.991165744e-10
-1.509771479e-10
-1.127805014e-10
-8.277402667e-11
-5.952117644e-11
-4.183239908e-11
-2.868093904e-11
-1.915663008e-11
-1.244965774e-11
-7.868907729e-12
-4.841551752e-12
-2.903973598e-12
-1.702286987e-12
-9.786157218e-13
-5.546651678e-13
-3.123411468e-13
-1.764291797e-13
-1.010614353e-13