/*--------------------------------*- C++ -*----------------------------------*\
  =========                 |
  \\      /  F ield         | OpenFOAM: The Open Source CFD Toolbox
   \\    /   O peration     | Website:  https://openfoam.org
    \\  /    A nd           | Version:  10
     \\/     M anipulation  |
\*---------------------------------------------------------------------------*/
FoamFile
{
    format      ascii;
    class       volScalarField;
    location    "3000";
    object      RR.C3H7;
}
// * * * * * * * * * * * * * * * * * * * * * * * * * * * * * * * * * * * * * //

dimensions      [1 -3 -1 0 0 0 0];

internalField   nonuniform List<scalar> 
5170
(
-3.166788975e-69
-2.559260558e-69
-1.59216894e-69
-7.871561774e-70
-6.25655178e-70
-1.068816638e-66
-8.548047802e-67
-5.233922764e-67
-3.030657128e-67
-5.371983898e-67
-3.65077924e-64
-2.898752687e-64
-1.768496276e-64
-1.393825385e-64
-4.222164288e-64
-1.273934842e-61
-1.010658763e-61
-6.367230731e-62
-7.158727306e-62
-3.048622778e-61
-4.538363715e-59
-3.63169892e-59
-2.451922358e-59
-3.901027613e-59
-2.055712271e-58
-1.657093385e-56
-1.354679583e-56
-1.003452008e-56
-2.191275667e-56
-1.310500157e-55
-6.18995569e-54
-5.214393311e-54
-4.418673615e-54
-1.253628707e-53
-8.073470032e-53
-2.361665552e-51
-2.072476589e-51
-2.093313139e-51
-7.272554757e-51
-4.86494957e-50
-9.230049639e-49
-8.609038901e-49
-1.043458935e-48
-4.266981155e-48
-2.882493817e-47
-3.699404511e-46
-3.733572974e-46
-5.416777111e-46
-2.535187989e-45
-1.68502354e-44
-1.515854215e-43
-1.682569074e-43
-2.907236114e-43
-1.521202871e-42
-9.739723518e-42
-6.318119964e-41
-7.846570741e-41
-1.612515164e-40
-9.196815568e-40
-5.575118986e-39
-2.667358443e-38
-3.760281393e-38
-9.261747577e-38
-5.633370173e-37
-3.164070428e-36
-1.131359562e-35
-1.835371298e-35
-5.452629836e-35
-3.497316685e-34
-1.783526944e-33
-4.796549489e-33
-9.03783472e-33
-3.243448433e-32
-2.190889043e-31
-1.000354282e-30
-2.000412051e-30
-4.417301872e-30
-1.911237241e-29
-1.341035042e-28
-5.594875655e-28
-8.176363072e-28
-2.143054679e-27
-1.089704743e-26
-8.035745798e-26
-3.267177231e-25
-3.355314323e-25
-1.164385708e-24
-1.122448496e-23
-3.235702263e-22
-4.302074381e-21
-2.09819186e-21
-3.121698475e-20
-1.379400631e-18
-7.354059552e-17
-1.210254813e-15
-1.878268303e-16
-5.75776348e-15
-3.338795615e-13
-1.520147559e-11
-3.172086846e-10
-6.839182272e-48
-1.551514347e-48
-2.009082131e-48
-1.213598891e-47
-3.969641237e-47
-7.289853922e-47
-1.041539644e-47
5.998513229e-49
-7.555001208e-48
-6.413356889e-47
-9.890438347e-47
-3.63859985e-47
-1.477375519e-47
2.002400648e-47
-2.499182992e-47
-1.186028126e-44
-4.282097364e-45
-1.236720854e-45
-3.568826115e-46
-1.58791109e-46
-1.946633272e-42
-6.575332108e-43
-1.73644794e-43
-4.921729063e-44
-1.810687924e-44
-3.115005021e-40
-1.012862705e-40
-2.529113747e-41
-7.223472585e-42
-2.21487135e-42
-5.057063171e-38
-1.610149557e-38
-3.838097179e-39
-1.131703198e-39
-2.881203932e-40
-8.274598453e-36
-2.616379917e-36
-6.114114842e-37
-1.817860261e-37
-3.955166036e-38
-1.360325048e-33
-4.256445698e-34
-1.00383449e-34
-2.885570739e-35
-5.638778751e-36
-2.265696775e-31
-7.061981196e-32
-1.67397184e-32
-4.613304837e-33
-8.288177053e-34
-3.801639933e-29
-1.182307117e-29
-2.822605776e-30
-7.502233141e-31
-1.250634547e-31
-6.433316007e-27
-1.996252371e-27
-4.773085115e-28
-1.225458368e-28
-1.903873154e-29
-1.094619572e-24
-3.37044045e-25
-8.073093008e-26
-2.001617532e-26
-2.899665062e-27
-1.886236689e-22
-5.741819084e-23
-1.362830917e-23
-3.258102194e-24
-4.383949035e-25
-3.273335479e-20
-9.743245269e-21
-2.276387318e-21
-5.236205047e-22
-6.505101473e-23
-5.754799642e-18
-1.648637518e-18
-3.708564594e-19
-8.016313988e-20
-9.174001378e-21
-1.023892591e-15
-2.745269975e-16
-5.848822478e-17
-1.176454485e-17
-1.232014145e-18
-1.895759548e-13
-4.474878264e-14
-8.868569888e-15
-1.640895204e-15
-1.573240629e-16
-3.824999024e-11
-6.971344127e-12
-1.253037429e-12
-2.024569934e-13
-1.777570265e-14
-2.307032138e-08
-1.37682349e-09
-1.746488852e-10
-2.218318033e-11
-1.750868332e-12
-2.359967236e-13
-1.342138166e-11
-2.7673185e-09
-3.916826139e-07
2.403293136e-05
-5.92621413e-12
-2.450313471e-10
-2.961045593e-08
-1.877262169e-06
-7.609625677e-06
-5.343168681e-11
-1.651386189e-09
-1.222874035e-07
-3.753282592e-06
-1.153072489e-05
-3.040691955e-10
-7.287797495e-09
-3.424430435e-07
-5.473230822e-06
-5.985188232e-06
-1.279188218e-09
-2.414327145e-08
-7.311444064e-07
-6.769633989e-06
7.078474082e-07
-4.467425095e-09
-6.68887184e-08
-1.346088804e-06
-8.030602148e-06
1.0441896e-05
-1.448466857e-08
-1.765929431e-07
-2.395872982e-06
-9.40194299e-06
2.735588463e-05
-4.448316726e-08
-4.439287386e-07
-3.979049955e-06
-1.000981781e-05
4.999977183e-05
-1.272848367e-07
-1.00293815e-06
-5.915404559e-06
-8.933996221e-06
7.414507432e-05
-3.316088524e-07
-1.978005887e-06
-7.890656112e-06
-5.563234225e-06
0.0001006913193
-8.039530157e-07
-3.424670634e-06
-9.553213733e-06
4.426226888e-07
0.0001289942533
-1.69169598e-06
-5.214203238e-06
-1.059284199e-05
9.34320366e-06
0.0001547800768
-3.142100745e-06
-7.245761082e-06
-1.056513364e-05
2.196099418e-05
0.0001752921145
-5.286027346e-06
-9.327157192e-06
-8.608866885e-06
3.963412294e-05
0.0001893818546
-8.104892363e-06
-1.091135683e-05
-3.164562541e-06
6.386938428e-05
0.0001930776579
-1.07582601e-05
-1.042280624e-05
8.734761713e-06
9.560962039e-05
0.0001770381172
-1.023367369e-05
-3.810359745e-06
3.230060004e-05
0.0001311726242
0.0001275509357
4.806131044e-07
1.638580828e-05
7.069727286e-05
0.0001457558256
4.333877154e-05
3.074216911e-05
5.507280836e-05
0.0001053072968
9.394133996e-05
-3.081142921e-05
6.740919292e-05
8.043224667e-05
7.335530609e-05
-2.261767398e-06
-5.562039093e-05
3.924476214e-05
2.517121986e-05
-1.291242496e-05
-4.526564056e-05
-4.847971478e-05
-2.635607158e-05
-3.268300466e-05
-4.018523821e-05
-4.000871461e-05
-3.157023364e-05
-3.304559831e-05
-3.231572114e-05
-3.041995307e-05
-2.56242128e-05
-2.132519345e-05
-2.154604617e-05
-2.086499329e-05
-1.960710033e-05
-1.637978852e-05
-1.443955744e-05
-1.338852413e-05
-1.323949416e-05
-1.169058558e-05
-1.078039612e-05
-1.059338507e-05
-8.62526537e-06
-8.773038976e-06
-9.327590448e-06
-7.637207585e-06
-8.319174198e-06
-6.211671331e-06
-6.544706466e-06
-6.253778919e-06
-6.66471006e-06
-7.133349811e-06
-4.978750915e-06
-5.369225763e-06
-6.362040996e-06
-5.861207973e-06
-6.618704692e-06
-3.756749132e-06
-3.911124251e-06
-5.848587355e-06
-7.482931728e-06
-7.130717154e-06
-3.84313502e-06
-4.303650135e-06
-4.79481037e-06
-5.549712441e-06
-6.470542784e-06
-3.995546913e-06
-4.093442245e-06
-4.427575528e-06
-4.796766107e-06
-4.370885117e-06
-3.289406943e-06
-3.313967736e-06
-3.146592153e-06
-2.610639548e-06
-1.152418185e-06
-4.178241855e-07
7.54938643e-08
1.109625346e-06
2.28698614e-06
5.306682375e-06
5.276712988e-06
5.832390067e-06
7.311309738e-06
9.34572052e-06
1.154597713e-05
9.492932516e-06
9.031594759e-06
8.536568064e-06
7.770602217e-06
6.214605383e-06
-3.776115108e-07
-7.52199259e-07
-1.536589397e-06
-2.660601736e-06
-3.951743416e-06
-5.500614333e-06
-5.553553038e-06
-5.645777923e-06
-5.730293376e-06
-5.753819541e-06
-4.254749654e-06
-4.211530944e-06
-4.113543165e-06
-3.964627024e-06
-3.754684772e-06
-2.287960069e-06
-2.25438964e-06
-2.181616775e-06
-2.073733948e-06
-1.936186724e-06
-1.071890795e-06
-1.055042669e-06
-1.018418649e-06
-9.64360946e-07
-8.946611739e-07
-4.653364285e-07
-4.576234144e-07
-4.410928911e-07
-4.172197186e-07
-3.875580065e-07
-1.963132717e-07
-1.934134336e-07
-1.8718646e-07
-1.781646354e-07
-1.668619132e-07
-8.315472126e-08
-8.204765875e-08
-7.967080155e-08
-7.621106439e-08
-7.184727347e-08
-3.532389681e-08
-3.489989563e-08
-3.398556511e-08
-3.264932481e-08
-3.095454646e-08
-1.506953298e-08
-1.490495607e-08
-1.455033299e-08
-1.403060371e-08
-1.336841676e-08
-6.464481349e-09
-6.400414686e-09
-6.261868496e-09
-6.058155471e-09
-5.797487971e-09
-2.792255952e-09
-2.766936296e-09
-2.712228725e-09
-2.631599076e-09
-2.528057633e-09
-1.215149277e-09
-1.205083689e-09
-1.183269494e-09
-1.151040533e-09
-1.109515722e-09
-5.331857825e-10
-5.29123244e-10
-5.203254525e-10
-5.073030274e-10
-4.90477053e-10
-2.360000492e-10
-2.343489715e-10
-2.307645934e-10
-2.254485008e-10
-2.185615149e-10
-1.054632097e-10
-1.047830021e-10
-1.033071031e-10
-1.01114952e-10
-9.826877273e-11
-4.762588143e-11
-4.734427412e-11
-4.673210987e-11
-4.582157812e-11
-4.463730828e-11
-2.177120984e-11
-2.165419834e-11
-2.140003493e-11
-2.102184551e-11
-2.052970961e-11
-1.010961785e-11
-1.006213135e-11
-9.958975087e-12
-9.805720661e-12
-9.606817508e-12
-4.812020378e-12
-4.794477557e-12
-4.756589885e-12
-4.700820099e-12
-4.629454758e-12
-2.400906228e-12
-2.396931958e-12
-2.388622621e-12
-2.377184974e-12
-2.3641179e-12
-1.318249431e-12
-1.32099258e-12
-1.327401364e-12
-1.338162366e-12
-1.354544119e-12
-8.598092728e-13
-8.665208428e-13
-8.816560004e-13
-9.056965551e-13
-9.399204719e-13
-7.059932192e-13
-7.156884317e-13
-7.374281399e-13
-7.716172449e-13
-8.196586186e-13
-7.129832708e-13
-7.255203407e-13
-7.535682771e-13
-7.975133433e-13
-8.589555e-13
-8.194235411e-13
-8.351098459e-13
-8.701664025e-13
-9.249843847e-13
-1.001422527e-12
-1.004058944e-12
-1.023515989e-12
-1.066962163e-12
-1.134804605e-12
-1.229223359e-12
-1.269284068e-12
-1.293469526e-12
-1.347443532e-12
-1.43163281e-12
-1.54862235e-12
-1.637306464e-12
-1.667724138e-12
-1.735573459e-12
-1.841326686e-12
-1.982556329e-12
-2.051823695e-12
-2.086923735e-12
-2.165049457e-12
-2.286350905e-12
-2.453832241e-12
-2.62161059e-12
-2.664191255e-12
-2.758938327e-12
-2.905980894e-12
-3.108893273e-12
-3.379731405e-12
-3.432006944e-12
-3.548217102e-12
-3.728247902e-12
-3.976023363e-12
-4.303407369e-12
-4.365408488e-12
-4.503035026e-12
-4.715706201e-12
-5.007514668e-12
-5.414035295e-12
-5.486534093e-12
-5.647295798e-12
-5.895253835e-12
-6.234440836e-12
-6.352353171e-12
-6.432152124e-12
-6.608983575e-12
-6.881388606e-12
-7.253386595e-12
0.0004336521196
0.0004048688946
0.0002187410666
0.0001725719806
0.0001695501678
0.0002028407566
0.0002607873302
0.0002934093994
0.0002970986013
0.0002966115016
0.0002926528265
0.0002699358066
0.0002279503312
0.0001773828337
0.0001212412391
5.618075533e-05
-1.037238023e-05
-5.675499302e-05
-6.931792234e-05
-6.037714379e-05
-3.963598558e-05
-2.786981469e-05
-1.96639065e-05
-1.423677008e-05
-1.101660979e-05
-9.137681001e-06
-8.161576043e-06
-7.737282776e-06
-6.971317498e-06
-6.084666521e-06
-3.877805619e-06
7.045098385e-07
8.102799292e-06
1.279198294e-05
4.565652042e-06
-4.814981532e-06
-5.711922484e-06
-3.585747577e-06
-1.829984746e-06
-8.40882565e-07
-3.65425697e-07
-1.583207251e-07
-6.852043622e-08
-2.965314809e-08
-1.285681916e-08
-5.594993964e-09
-2.447240182e-09
-1.076964053e-09
-4.772366181e-10
-2.131232349e-10
-9.601459105e-11
-4.369717863e-11
-2.013879002e-11
-9.44942746e-12
-4.574119046e-12
-2.355761588e-12
-1.370198287e-12
-9.703677437e-13
-8.617572311e-13
-9.124796771e-13
-1.067796407e-12
-1.311022708e-12
-1.649790352e-12
-2.0979797e-12
-2.59758034e-12
-3.282901537e-12
-4.187849851e-12
-5.256098966e-12
-6.52239571e-12
-7.56854466e-12
-1.390338811e-05
-7.565455484e-07
-3.048027597e-08
-2.091283953e-09
-1.634163682e-10
-2.867797897e-05
2.455846018e-05
-3.495998548e-06
-1.492533826e-07
-7.63053023e-09
-9.007251972e-06
-9.652039574e-07
-4.085145165e-06
-2.301641032e-07
-1.298033386e-08
-1.848318055e-05
-6.717367266e-06
7.554226974e-07
-6.702724183e-07
-4.477362773e-08
-1.297172588e-06
-2.951825612e-05
5.805592926e-05
-1.092845659e-05
-7.237582809e-07
2.453236131e-06
-4.70937996e-05
7.366142315e-05
-1.93726604e-05
-1.618776348e-06
2.72523348e-06
-5.234934753e-05
6.610364764e-05
-2.222097497e-05
-2.346718833e-06
-7.866026221e-06
-4.586768915e-05
2.938560194e-05
-1.75694325e-05
-2.275918385e-06
-1.848748798e-05
-4.122180996e-05
3.146079076e-06
2.793527852e-05
-1.129694985e-05
-2.629420973e-05
-4.237266074e-05
-2.26579299e-05
9.314528875e-05
-2.710197833e-05
-3.412964827e-05
-4.435409978e-05
-3.779503168e-05
0.0001112754135
-3.593735176e-05
-4.339912609e-05
-4.417545201e-05
-4.139255658e-05
9.377263526e-05
-3.506830427e-05
-5.162883978e-05
-4.276488859e-05
-3.844812103e-05
6.350233913e-05
-1.765364196e-05
-5.816873342e-05
-4.177430333e-05
-3.725370353e-05
3.959685132e-05
3.809729418e-05
-6.204196895e-05
-4.149718522e-05
-3.811544579e-05
2.020996946e-05
7.794185288e-05
-5.914617838e-05
-4.186787277e-05
-3.890751322e-05
6.352547155e-06
9.699844259e-05
-5.920496636e-05
-4.092516278e-05
-3.796113149e-05
-4.086246662e-06
9.787448673e-05
-5.52377709e-05
-3.78025202e-05
-3.487992441e-05
-9.831904971e-06
8.890117522e-05
-4.677716607e-05
-3.325445554e-05
-3.106241795e-05
-1.072053077e-05
8.231503664e-05
-3.766996982e-05
-2.837544597e-05
-2.768610203e-05
-9.81515376e-06
7.723479311e-05
-2.88475029e-05
-2.415398105e-05
-2.499784925e-05
-8.26860251e-06
7.248611733e-05
-2.225849446e-05
-2.08591891e-05
-2.273096904e-05
-6.414205077e-06
6.713738411e-05
-1.727970881e-05
-1.83169913e-05
-2.052405465e-05
-4.133822694e-06
6.141902453e-05
-1.387928515e-05
-1.631794371e-05
-1.816567499e-05
-1.291466873e-06
5.57620616e-05
-1.16862087e-05
-1.466836716e-05
-1.551999653e-05
2.31815411e-06
5.122037767e-05
-1.033501481e-05
-1.286282005e-05
-1.236267106e-05
7.163770746e-06
4.824144184e-05
-9.354442429e-06
-1.12811472e-05
-8.359401938e-06
1.340598485e-05
4.563965345e-05
-8.928636383e-06
-9.646592092e-06
-3.004798556e-06
2.051247804e-05
4.087172394e-05
-7.702471767e-06
-6.401815961e-06
4.159528839e-06
2.697036898e-05
3.169911466e-05
-7.249962151e-06
-1.177840677e-06
1.269901364e-05
2.9621161e-05
1.825718249e-05
-1.884825854e-06
6.187660032e-06
2.019944498e-05
2.455923074e-05
4.203096715e-06
4.549511421e-06
1.428653949e-05
2.143272069e-05
1.193358455e-05
-5.777291715e-06
1.218192441e-05
1.70527992e-05
1.20568429e-05
-1.137402924e-06
-9.722255608e-06
1.258599886e-05
7.895268112e-06
-1.025309149e-06
-7.761954474e-06
-9.07163547e-06
1.473570409e-06
-3.641871337e-06
-7.182686018e-06
-7.928953292e-06
-6.510063437e-06
-5.859330265e-06
-6.771304744e-06
-6.59076841e-06
-5.512661001e-06
-3.952067612e-06
-5.520793924e-06
-4.979714993e-06
-4.154043485e-06
-3.159837745e-06
-2.173294453e-06
-3.300735442e-06
-2.787513055e-06
-2.20861672e-06
-1.618592471e-06
-1.142479174e-06
-1.660346848e-06
-1.36755784e-06
-1.061395388e-06
-7.950143584e-07
-5.806602375e-07
-7.57661329e-07
-6.224094573e-07
-4.945568757e-07
-3.816739519e-07
-2.870751263e-07
-3.327111291e-07
-2.793416976e-07
-2.273358096e-07
-1.798730041e-07
-1.388029769e-07
-1.456530241e-07
-1.24479912e-07
-1.033384989e-07
-8.354312188e-08
-6.595195388e-08
-6.357589909e-08
-5.515915647e-08
-4.658871501e-08
-3.838871661e-08
-3.093087146e-08
-2.771517843e-08
-2.436559186e-08
-2.089666833e-08
-1.751410678e-08
-1.437352776e-08
-1.209358561e-08
-1.07567585e-08
-9.351476258e-09
-7.957863961e-09
-6.639813024e-09
-5.292396623e-09
-4.756206706e-09
-4.185063827e-09
-3.61009856e-09
-3.057254581e-09
-2.326300443e-09
-2.109786934e-09
-1.876466161e-09
-1.638442575e-09
-1.406180249e-09
-1.028194476e-09
-9.400841767e-10
-8.441540366e-10
-7.451321593e-10
-6.472350037e-10
-4.573810407e-10
-4.212198129e-10
-3.814937295e-10
-3.400616303e-10
-2.986263853e-10
-2.049617945e-10
-1.899935322e-10
-1.734217084e-10
-1.559840267e-10
-1.383742715e-10
-9.262982042e-11
-8.638590929e-11
-7.942970183e-11
-7.205905487e-11
-6.456087552e-11
-4.228515552e-11
-3.966985221e-11
-3.674507066e-11
-3.363492558e-11
-3.046320097e-11
-1.955190039e-11
-1.846465264e-11
-1.725077412e-11
-1.596575903e-11
-1.466790167e-11
-9.213689576e-12
-8.781342004e-12
-8.307006227e-12
-7.819355478e-12
-7.350964934e-12
-4.49203403e-12
-4.348852577e-12
-4.204790449e-12
-4.078526998e-12
-3.993231188e-12
-2.344565492e-12
-2.33664565e-12
-2.349875471e-12
-2.399817741e-12
-2.507023814e-12
-1.395378154e-12
-1.458468754e-12
-1.556750421e-12
-1.70561993e-12
-1.926013622e-12
-1.018092528e-12
-1.126616257e-12
-1.281500396e-12
-1.499368024e-12
-1.803020375e-12
-9.273445559e-13
-1.072975773e-12
-1.275750293e-12
-1.554310956e-12
-1.934222151e-12
-9.956502071e-13
-1.1785114e-12
-1.430356672e-12
-1.772486627e-12
-2.234012857e-12
-1.170774576e-12
-1.395925513e-12
-1.704009683e-12
-2.119652591e-12
-2.676370083e-12
-1.437785066e-12
-1.713806888e-12
-2.089647545e-12
-2.593964554e-12
-3.265575805e-12
-1.806416455e-12
-2.146330386e-12
-2.607319678e-12
-3.223206934e-12
-3.991097729e-12
-2.274293471e-12
-2.648108853e-12
-3.172231203e-12
-3.866515783e-12
-4.770387272e-12
-2.819044761e-12
-3.29304109e-12
-3.924705565e-12
-4.752433773e-12
-5.827861113e-12
-3.551144806e-12
-4.140218753e-12
-4.907070775e-12
-5.905636477e-12
-7.190300705e-12
-4.513430791e-12
-5.204703374e-12
-6.115694124e-12
-7.290147858e-12
-8.767947787e-12
-5.636910418e-12
-6.439462124e-12
-7.486480185e-12
-8.823160463e-12
-1.050596577e-11
-6.962717986e-12
-7.885279231e-12
-9.080345787e-12
-1.059417831e-11
-1.248446879e-11
-8.050041656e-12
-9.055088326e-12
-1.035139763e-11
-1.19858363e-11
-1.401678014e-11
1.658449413e-10
-8.805785746e-12
-3.197285858e-13
-1.635295669e-14
-6.642740217e-16
-6.674822861e-17
-7.378840314e-17
-3.882429397e-17
-1.69959168e-17
-7.914423066e-18
-4.11771701e-18
-2.308910442e-18
-1.341917418e-18
-7.916801354e-19
-4.69676779e-19
-2.787138861e-19
-1.648344291e-19
-9.685481548e-20
-5.643671451e-20
-3.259251926e-20
-1.8673933e-20
-1.063751652e-20
-6.03918695e-21
-3.423127998e-21
-1.938620227e-21
-1.096480992e-21
-6.1856899e-22
-3.475542363e-22
-1.943092779e-22
-1.080891622e-22
-5.988263397e-23
-3.309747574e-23
-1.828819809e-23
-1.012340698e-23
-5.622479249e-24
-3.134020803e-24
-1.75041629e-24
-9.760053011e-25
-5.406910056e-25
-2.963710486e-25
-1.604683144e-25
-8.597069176e-26
-4.578369269e-26
-2.437661917e-26
-1.303757879e-26
-7.01940525e-27
-3.802500694e-27
-2.069297033e-27
-1.130978391e-27
-6.22676637e-28
-3.475513665e-28
-1.980081454e-28
-1.151954933e-28
-6.746413432e-29
-3.839639031e-29
-1.993763728e-29
-8.410647558e-30
-2.295081845e-30
-2.049123356e-31
-2.103253404e-33
2.421450321e-09
-1.38653877e-10
-4.128048409e-12
-1.567185048e-13
6.924342267e-16
-4.127010371e-15
-5.011721521e-15
-3.126239007e-15
-1.690413903e-15
-8.99717062e-16
-4.723972595e-16
-2.461804022e-16
-1.274913332e-16
-6.612668135e-17
-3.452402073e-17
-1.819075288e-17
-9.674498316e-18
-5.184916928e-18
-2.796106964e-18
-1.515618849e-18
-8.258349813e-19
-4.527642396e-19
-2.500311062e-19
-1.390911455e-19
-7.787061203e-20
-4.378877858e-20
-2.467044638e-20
-1.389185244e-20
-7.804865749e-21
-4.371780121e-21
-2.442204824e-21
-1.362262934e-21
-7.599544172e-22
-4.247186361e-22
-2.381167859e-22
-1.339461172e-22
-7.545856463e-23
-4.239739285e-23
-2.363254475e-23
-1.300966459e-23
-7.060954684e-24
-3.786031471e-24
-2.016023442e-24
-1.073102809e-24
-5.741213668e-25
-3.095623698e-25
-1.681750015e-25
-9.191304388e-26
-5.051613366e-26
-2.799670458e-26
-1.57422595e-26
-9.038953887e-27
-5.298866883e-27
-3.124305386e-27
-1.787977038e-27
-9.334456221e-28
-3.988573879e-28
-1.138652455e-28
-1.276737227e-29
-2.505520279e-31
7.147046663e-09
-3.643852267e-10
-7.811811861e-12
-2.776194302e-13
-4.745430972e-14
-1.129351238e-13
-1.013873193e-13
-6.924689371e-14
-4.222778446e-14
-2.46008275e-14
-1.363054936e-14
-7.297858562e-15
-3.780180784e-15
-1.917582451e-15
-9.586439134e-16
-4.759559776e-16
-2.359146116e-16
-1.172626827e-16
-5.871417313e-17
-2.972851098e-17
-1.527427137e-17
-7.980973607e-18
-4.245361747e-18
-2.296943674e-18
-1.260980859e-18
-7.00059866e-19
-3.916421359e-19
-2.200918024e-19
-1.239744213e-19
-6.991050284e-20
-3.945206657e-20
-2.22883701e-20
-1.261549791e-20
-7.160805522e-21
-4.079262206e-21
-2.331361987e-21
-1.33336331e-21
-7.593600079e-22
-4.279935493e-22
-2.375201328e-22
-1.295430431e-22
-6.959578318e-23
-3.70523091e-23
-1.970008054e-23
-1.053204148e-23
-5.683599522e-24
-3.097445805e-24
-1.702408028e-24
-9.431282173e-25
-5.279438949e-25
-3.003182039e-25
-1.74584038e-25
-1.035849556e-25
-6.17273551e-26
-3.563207766e-26
-1.87493515e-26
-8.1303675e-27
-2.398948804e-27
-3.017725104e-28
-7.913231449e-30
1.625761665e-08
-1.585061978e-09
-3.770468145e-11
-2.404027334e-12
-1.376527321e-12
-1.260651072e-12
-9.861577206e-13
-6.908456464e-13
-4.500518978e-13
-2.788980897e-13
-1.645780451e-13
-9.32480134e-14
-5.082084661e-14
-2.686720202e-14
-1.382851002e-14
-6.976084056e-15
-3.460980893e-15
-1.697937007e-15
-8.279323296e-16
-4.042992704e-16
-1.992328178e-16
-9.97479981e-17
-5.09518191e-17
-2.658915349e-17
-1.415823935e-17
-7.669639166e-18
-4.212426879e-18
-2.338482196e-18
-1.309044294e-18
-7.377572527e-19
-4.182329861e-19
-2.383935926e-19
-1.36635484e-19
-7.877013079e-20
-4.568312861e-20
-2.661999253e-20
-1.552572791e-20
-9.004201185e-21
-5.153364957e-21
-2.893144515e-21
-1.589684622e-21
-8.570311708e-22
-4.56461024e-22
-2.423856294e-22
-1.294377494e-22
-6.989787174e-23
-3.822652679e-23
-2.114944343e-23
-1.182925246e-23
-6.703227669e-24
-3.868627081e-24
-2.284646165e-24
-1.37683273e-24
-8.321187919e-25
-4.861676102e-25
-2.587839169e-25
-1.142890384e-25
-3.493125436e-26
-4.828959975e-27
-1.648460086e-28
-2.88002817e-08
1.94542669e-10
-1.931418131e-10
-1.46710856e-11
-8.409898206e-12
-6.773070205e-12
-5.226998682e-12
-3.786179626e-12
-2.603113836e-12
-1.712780585e-12
-1.081180706e-12
-6.572540222e-13
-3.852359862e-13
-2.18684564e-13
-1.204185263e-13
-6.461795579e-14
-3.383190063e-14
-1.735726436e-14
-8.747098623e-15
-4.358059991e-15
-2.158486404e-15
-1.071580709e-15
-5.364793418e-16
-2.722302626e-16
-1.40328165e-16
-7.353511148e-17
-3.91526499e-17
-2.11608261e-17
-1.159608083e-17
-6.435107336e-18
-3.611937556e-18
-2.048520699e-18
-1.173539247e-18
-6.792714464e-19
-3.973874643e-19
-2.346257519e-19
-1.390960988e-19
-8.207934714e-20
-4.772926111e-20
-2.713163674e-20
-1.502481019e-20
-8.123686465e-21
-4.320631894e-21
-2.285158785e-21
-1.215374443e-21
-6.552279984e-22
-3.591370185e-22
-1.999679444e-22
-1.12972973e-22
-6.484852797e-23
-3.798942801e-23
-2.280005725e-23
-1.39667796e-23
-8.574468824e-24
-5.085387694e-24
-2.751087058e-24
-1.2433872e-24
-3.960223723e-25
-6.009472481e-26
-2.741958459e-27
-8.78954573e-08
1.02182967e-08
-1.651704459e-09
-8.275875802e-11
-2.986405416e-11
-2.247012603e-11
-1.751515997e-11
-1.320356875e-11
-9.579072557e-12
-6.705390119e-12
-4.53771513e-12
-2.9732636e-12
-1.888106844e-12
-1.164150231e-12
-6.97499254e-13
-4.068429619e-13
-2.31178974e-13
-1.282451007e-13
-6.950811583e-14
-3.694775399e-14
-1.931370184e-14
-9.987283861e-15
-5.127986108e-15
-2.628241157e-15
-1.348455522e-15
-6.951748425e-16
-3.609511401e-16
-1.892784796e-16
-1.00445782e-16
-5.402998247e-17
-2.947907774e-17
-1.631618511e-17
-9.162786672e-18
-5.225952039e-18
-3.031737477e-18
-1.788188545e-18
-1.066451621e-18
-6.362003202e-19
-3.74801522e-19
-2.156302107e-19
-1.203827251e-19
-6.524148808e-20
-3.456613544e-20
-1.812553091e-20
-9.544602302e-21
-5.107844004e-21
-2.79401615e-21
-1.562191161e-21
-8.910525427e-22
-5.184322909e-22
-3.085530295e-22
-1.883301859e-22
-1.173486368e-22
-7.328368905e-23
-4.426858686e-23
-2.44967887e-23
-1.143470886e-23
-3.84746638e-24
-6.511703946e-25
-4.05679659e-26
-1.949392671e-07
-1.923380494e-09
1.260818804e-09
-4.874071919e-10
-6.932312745e-11
-4.793928211e-11
-3.806635128e-11
-2.999980383e-11
-2.29763469e-11
-1.70729502e-11
-1.232617055e-11
-8.662693498e-12
-5.935305497e-12
-3.96963298e-12
-2.593997755e-12
-1.657217388e-12
-1.034997662e-12
-6.319283348e-13
-3.770761535e-13
-2.200971106e-13
-1.257744735e-13
-7.052661148e-14
-3.886131614e-14
-2.110205118e-14
-1.131076124e-14
-6.004354975e-15
-3.163308798e-15
-1.659608783e-15
-8.69898522e-16
-4.573810036e-16
-2.420657199e-16
-1.293561346e-16
-7.000207826e-17
-3.848929629e-17
-2.159377723e-17
-1.241017611e-17
-7.290066299e-18
-4.329033441e-18
-2.559667958e-18
-1.484793383e-18
-8.358176907e-19
-4.550191343e-19
-2.405257843e-19
-1.248461658e-19
-6.472347659e-20
-3.409449025e-20
-1.844591386e-20
-1.02780069e-20
-5.888228342e-21
-3.463428087e-21
-2.093181126e-21
-1.300491069e-21
-8.257115828e-22
-5.259368377e-22
-3.249816363e-22
-1.853159415e-22
-9.040147838e-23
-3.271463322e-23
-6.353091765e-24
-5.452962055e-25
-2.324240453e-07
-2.511770227e-08
1.381736569e-08
-1.683090302e-09
-2.083872507e-10
-8.43694309e-11
-6.334330844e-11
-5.085353199e-11
-4.043589421e-11
-3.141158074e-11
-2.380213697e-11
-1.76134836e-11
-1.275090875e-11
-9.046354656e-12
-6.299852016e-12
-4.312018459e-12
-2.903461218e-12
-1.924463292e-12
-1.255483658e-12
-8.056647502e-13
-5.079992878e-13
-3.143894449e-13
-1.907192338e-13
-1.133688024e-13
-6.602555263e-14
-3.770423373e-14
-2.111820273e-14
-1.161843809e-14
-6.291767441e-15
-3.366173671e-15
-1.785656503e-15
-9.431078924e-16
-4.982099241e-16
-2.647010665e-16
-1.42339075e-16
-7.810759279e-17
-4.403393922e-17
-2.539177443e-17
-1.477071875e-17
-8.532422173e-18
-4.825392477e-18
-2.645558608e-18
-1.403161923e-18
-7.246301878e-19
-3.702111732e-19
-1.9109916e-19
-1.013607621e-19
-5.567529514e-20
-3.170318693e-20
-1.869548675e-20
-1.141172256e-20
-7.199571457e-21
-4.65843059e-21
-3.032754738e-21
-1.923557714e-21
-1.135036998e-21
-5.814589046e-22
-2.271473855e-22
-5.069961608e-23
-5.801438948e-24
-1.213244913e-06
-1.307938482e-07
-7.573515244e-09
3.316520487e-09
-6.644844996e-10
-1.46472003e-10
-9.115918892e-11
-7.257843464e-11
-5.914345342e-11
-4.755171165e-11
-3.744430913e-11
-2.886310174e-11
-2.180716486e-11
-1.617780612e-11
-1.1805489e-11
-8.488169911e-12
-6.021891669e-12
-4.220393838e-12
-2.924440296e-12
-2.004348803e-12
-1.358567826e-12
-9.101170137e-13
-6.019730201e-13
-3.922976742e-13
-2.512360271e-13
-1.577028929e-13
-9.673086809e-14
-5.786824004e-14
-3.37461172e-14
-1.920393805e-14
-1.068079414e-14
-5.821870407e-15
-3.122806313e-15
-1.657788514e-15
-8.765922029e-16
-4.650502073e-16
-2.50001052e-16
-1.372630583e-16
-7.665623708e-17
-4.303753974e-17
-2.400960532e-17
-1.317787495e-17
-7.051157218e-18
-3.663328915e-18
-1.860464867e-18
-9.439487617e-19
-4.89610907e-19
-2.631677671e-19
-1.474248861e-19
-8.623445797e-20
-5.269727269e-20
-3.356893675e-20
-2.208583033e-20
-1.470788091e-20
-9.605371357e-21
-5.88962145e-21
-3.181935407e-21
-1.34701464e-21
-3.462752821e-22
-5.118300421e-23
-3.312722246e-06
-3.869010436e-07
-4.569305579e-08
1.632872118e-08
-1.368272786e-09
-3.372012023e-10
-1.211890646e-10
-9.212858426e-11
-7.663060082e-11
-6.355192282e-11
-5.177276982e-11
-4.133837441e-11
-3.237827035e-11
-2.4918479e-11
-1.887769892e-11
-1.410303589e-11
-1.04073788e-11
-7.597984129e-12
-5.494807813e-12
-3.940491147e-12
-2.803311617e-12
-1.979410303e-12
-1.38640468e-12
-9.621696914e-13
-6.604406638e-13
-4.473126855e-13
-2.981299813e-13
-1.948690663e-13
-1.244459988e-13
-7.737566383e-14
-4.670573053e-14
-2.734036985e-14
-1.554150332e-14
-8.611536615e-15
-4.675490646e-15
-2.502354799e-15
-1.328208391e-15
-7.050125926e-16
-3.76722283e-16
-2.027240213e-16
-1.091499993e-16
-5.845989937e-17
-3.104336066e-17
-1.626060869e-17
-8.342564444e-18
-4.215314218e-18
-2.146611473e-18
-1.126362312e-18
-6.167461325e-19
-3.545871763e-19
-2.147733237e-19
-1.36947165e-19
-9.108455186e-20
-6.189125762e-20
-4.162969625e-20
-2.658499469e-20
-1.519169664e-20
-6.988834004e-21
-2.070040464e-21
-3.82862568e-22
-5.029424493e-06
-6.595415731e-07
-8.867114759e-08
-5.675213878e-09
6.393188336e-09
-8.234493287e-10
-1.867170285e-10
-1.080418996e-10
-9.065269809e-11
-7.767262881e-11
-6.54804425e-11
-5.40670775e-11
-4.376311331e-11
-3.478879597e-11
-2.721269885e-11
-2.098579306e-11
-1.598451892e-11
-1.204427198e-11
-8.997047292e-12
-6.672053047e-12
-4.916579075e-12
-3.602141172e-12
-2.624126011e-12
-1.899909371e-12
-1.365663002e-12
-9.729676174e-13
-6.855783257e-13
-4.765326254e-13
-3.257254574e-13
-2.181970308e-13
-1.427577691e-13
-9.089657214e-14
-5.613791013e-14
-3.356958076e-14
-1.94541732e-14
-1.096568434e-14
-6.036701712e-15
-3.256767933e-15
-1.728862001e-15
-9.082510421e-16
-4.74594039e-16
-2.466182436e-16
-1.273461572e-16
-6.54825454e-17
-3.35823671e-17
-1.712244641e-17
-8.704605591e-18
-4.484641146e-18
-2.391959027e-18
-1.341798962e-18
-7.986623049e-19
-5.052808567e-19
-3.370576781e-19
-2.323156731e-19
-1.603910209e-19
-1.065394236e-19
-6.442881833e-20
-3.224093345e-20
-1.098100731e-20
-2.467234887e-21
-5.519424581e-06
-8.182448289e-07
-1.269050612e-07
-2.274563506e-08
2.043264354e-08
-7.160675054e-11
-4.499337906e-10
-1.243747516e-10
-9.665445782e-11
-8.686644983e-11
-7.632877886e-11
-6.532793235e-11
-5.463444923e-11
-4.477838862e-11
-3.604479617e-11
-2.857739538e-11
-2.236799638e-11
-1.731457241e-11
-1.327905861e-11
-1.010804611e-11
-7.646545736e-12
-5.754326527e-12
-4.310622249e-12
-3.214972356e-12
-2.386312457e-12
-1.7609213e-12
-1.289737663e-12
-9.355354763e-13
-6.702876783e-13
-4.729296494e-13
-3.275522537e-13
-2.219876061e-13
-1.4674789e-13
-9.436757603e-14
-5.892436809e-14
-3.570751805e-14
-2.100801582e-14
-1.20041034e-14
-6.665445426e-15
-3.599573027e-15
-1.896867392e-15
-9.808081688e-16
-4.99793287e-16
-2.52001653e-16
-1.265253169e-16
-6.373140083e-17
-3.23507187e-17
-1.662416516e-17
-8.735420509e-18
-4.779717333e-18
-2.774552478e-18
-1.725730106e-18
-1.144790844e-18
-7.9448505e-19
-5.595416831e-19
-3.84881158e-19
-2.458013285e-19
-1.337373405e-19
-5.218666638e-20
-1.388031944e-20
-7.93419122e-06
-1.270217856e-06
-2.067843337e-07
-3.633624932e-08
-2.767277831e-09
1.132552923e-08
-5.314602503e-10
-2.17982237e-10
-9.24459915e-11
-8.606396175e-11
-8.01460656e-11
-7.148930081e-11
-6.178236591e-11
-5.215619041e-11
-4.302902723e-11
-3.504896632e-11
-2.814041984e-11
-2.231523836e-11
-1.751114264e-11
-1.362383028e-11
-1.052728269e-11
-8.091751653e-12
-6.194555096e-12
-4.726465096e-12
-3.594907236e-12
-2.724237371e-12
-2.054470245e-12
-1.539073482e-12
-1.142590864e-12
-8.382910337e-13
-6.060202331e-13
-4.303939924e-13
-2.994060464e-13
-2.034874674e-13
-1.348435162e-13
-8.700476204e-14
-5.461532212e-14
-3.332551741e-14
-1.973810499e-14
-1.133295169e-14
-6.299102371e-15
-3.389734086e-15
-1.770774007e-15
-9.010330847e-16
-4.503669291e-16
-2.234772614e-16
-1.113205091e-16
-5.64128533e-17
-2.939656017e-17
-1.590381356e-17
-9.063695473e-18
-5.52298208e-18
-3.613657379e-18
-2.504004075e-18
-1.786190261e-18