/*--------------------------------*- C++ -*----------------------------------*\
  =========                 |
  \\      /  F ield         | OpenFOAM: The Open Source CFD Toolbox
   \\    /   O peration     | Website:  https://openfoam.org
    \\  /    A nd           | Version:  10
     \\/     M anipulation  |
\*---------------------------------------------------------------------------*/
FoamFile
{
    format      ascii;
    class       volScalarField;
    location    "3000";
    object      RR.HCCO;
}
// * * * * * * * * * * * * * * * * * * * * * * * * * * * * * * * * * * * * * //

dimensions      [1 -3 -1 0 0 0 0];

internalField   nonuniform List<scalar> 
5170
(
-3.219671115e-70
-1.442353598e-70
-2.61415927e-71
-1.891365987e-72
-4.579264091e-74
-2.269112999e-67
-9.530990213e-68
-1.455072643e-68
-8.023135187e-70
-1.866410579e-71
-1.569856273e-64
-6.164466064e-65
-7.846278302e-66
-3.474723178e-67
-9.396051213e-69
-1.072398604e-61
-3.945809173e-62
-4.248790645e-63
-1.532132791e-64
-5.56031824e-66
-7.293295806e-59
-2.545528317e-59
-2.364531617e-60
-7.172036645e-62
-2.96179577e-63
-4.967662032e-56
-1.663576606e-56
-1.33505166e-57
-3.507996856e-59
-1.743983141e-60
-3.413806432e-53
-1.101502752e-53
-7.845461679e-55
-1.813777292e-56
-1.800736966e-57
-2.366036813e-50
-7.519864357e-51
-4.949791167e-52
-1.076050386e-53
-3.849760306e-54
-1.67070267e-47
-5.424227064e-48
-3.400970784e-49
-7.581312273e-51
-1.122273276e-50
-1.207225334e-44
-4.165712666e-45
-2.595058023e-46
-7.763121761e-48
-3.550567278e-47
-8.985227247e-42
-3.445104626e-42
-2.348763231e-43
-1.771637848e-44
-1.15689368e-43
-6.871340145e-39
-3.060759423e-39
-2.725024549e-40
-7.663338589e-41
-3.848414934e-40
-5.405347409e-36
-2.948804967e-36
-4.308499706e-37
-4.041133894e-37
-1.305925532e-36
-4.377367683e-33
-3.056429868e-33
-8.863782556e-34
-2.177910551e-33
-6.376691921e-33
-3.62568709e-30
-3.438380398e-30
-2.178483487e-30
-1.133104627e-29
-3.784592651e-29
-3.070426476e-27
-4.116667185e-27
-5.829765486e-27
-5.442699185e-26
-2.28204704e-25
-2.589154589e-24
-5.251358875e-24
-1.598091772e-23
-2.341394593e-22
-1.379313189e-21
-2.177054062e-21
-6.910256862e-21
-4.28795198e-20
-9.328708313e-19
-8.354167538e-18
-1.681124889e-18
-8.866872372e-18
-1.065799642e-16
-3.238159009e-15
-5.071888618e-14
-1.124663261e-15
-1.076505683e-14
-2.516663477e-13
-1.075649577e-11
-2.996425934e-10
6.779127891e-20
5.540691145e-21
-1.734588915e-21
4.279165066e-21
3.043120352e-21
-8.205553585e-21
-4.488261776e-21
-2.475374451e-21
-9.970160395e-21
-9.973521618e-22
-2.946731839e-21
-5.13865575e-22
-1.956587706e-21
-3.78175234e-21
-2.932296655e-21
-1.887443603e-21
-1.712898386e-21
-8.227432481e-22
-1.304253268e-21
-1.1727377e-21
-9.857388882e-22
-1.120995288e-21
-1.006546731e-21
-1.313120322e-21
-7.894520957e-22
-5.508711583e-22
-7.185422583e-22
-6.95227215e-22
-8.738273656e-22
-4.557245698e-22
-2.486043684e-22
-3.434105747e-22
-1.723013376e-22
-6.745292374e-22
7.316965427e-23
-1.863690459e-22
-2.831272143e-22
-3.701919691e-22
-5.369164974e-22
-6.053430245e-23
-1.331462665e-22
-1.575814659e-22
5.617773698e-23
4.381972383e-22
-1.12182549e-22
-1.108988552e-22
-2.79794458e-24
-8.225044192e-23
-2.846507532e-22
-1.225223456e-22
2.543067456e-23
-1.460597809e-22
-7.262052431e-23
-1.318099694e-22
2.955676421e-22
-6.251167089e-23
-1.193739722e-22
1.380794829e-22
7.216523492e-22
2.106378711e-22
-4.549871599e-23
-7.052846245e-23
4.29587737e-23
-1.623944742e-22
1.168898675e-22
-1.838178351e-21
-7.38057455e-22
-3.634410661e-22
4.023663225e-21
-2.054083553e-22
-3.098497194e-19
-1.277068333e-19
-5.747670015e-20
-1.271833207e-19
-3.05478706e-20
-5.342495278e-17
-2.406511198e-17
-1.131182253e-17
-1.965641426e-17
-5.905775702e-18
-9.302105868e-15
-4.658859901e-15
-2.078040981e-15
-2.115875455e-15
-9.43092796e-16
-1.671460715e-12
-9.332623422e-13
-3.560103354e-13
-2.618024026e-15
-1.169164312e-13
3.074912378e-10
1.467426961e-10
-5.844828443e-11
3.023927401e-11
-1.065737237e-11
-1.097755205e-08
5.144972269e-09
4.302551218e-09
3.041418066e-09
-6.064819104e-10
-2.1670629e-13
-3.336653216e-12
-1.839885419e-10
-1.674166389e-08
-5.10286703e-07
-9.653564661e-12
-1.585475071e-10
-8.832716425e-09
-6.423967971e-07
-1.837808955e-05
-2.742588803e-11
-3.913736277e-10
-1.756413808e-08
-8.006860269e-07
-1.291335686e-05
-1.210384131e-10
-2.067332348e-09
-1.017122102e-07
-4.190161317e-06
-7.026505032e-05
-4.858985035e-10
-8.349052366e-09
-3.568986436e-07
-1.047904395e-05
-0.0001360565058
-1.311001058e-09
-2.012996225e-08
-6.679473679e-07
-1.402237552e-05
-0.0001378479885
-3.173131909e-09
-4.485065929e-08
-1.135346606e-06
-1.643958248e-05
-0.0001173268723
-7.594178602e-09
-1.038574234e-07
-2.005520525e-06
-2.071478781e-05
-0.0001197088703
-2.118053304e-08
-2.83696034e-07
-4.256067045e-06
-3.453525464e-05
-0.0001831360696
-6.098993831e-08
-7.304006957e-07
-8.147448068e-06
-5.181046815e-05
-0.000239006821
-1.695914848e-07
-1.542493963e-06
-1.223182738e-05
-6.236869308e-05
-0.0002480785833
-3.79216134e-07
-2.505620682e-06
-1.511415706e-05
-6.534599003e-05
-0.0002308494622
-7.658868581e-07
-3.838862686e-06
-1.923430365e-05
-7.554800203e-05
-0.0002529390409
-1.544738351e-06
-6.15671747e-06
-2.669522016e-05
-9.675891487e-05
-0.0003068651354
-3.210794984e-06
-1.00300021e-05
-3.727046556e-05
-0.0001220746457
-0.0003571347379
-6.332646352e-06
-1.572197334e-05
-4.944059576e-05
-0.0001447391095
-0.0003877830669
-1.151919319e-05
-2.33683496e-05
-6.225550216e-05
-0.0001632100642
-0.0004023762631
-1.891615724e-05
-3.329779542e-05
-7.75712423e-05
-0.0001857825116
-0.0004306303057
-3.005123441e-05
-4.779549704e-05
-0.00010026724
-0.000223516943
-0.0004945404467
-4.639581235e-05
-6.894337198e-05
-0.0001332573722
-0.0002790842082
-0.0005902999919
-6.994432092e-05
-9.834568287e-05
-0.0001771271865
-0.0003493250153
-0.0007043862954
-0.0001017289484
-0.000133489638
-0.0002311369743
-0.000430411135
-0.0008078380717
-0.0001415891935
-0.0001835455646
-0.0002941801176
-0.0005060164784
-0.0009207306841
-0.0001913987269
-0.0002407940396
-0.0003659897652
-0.0006001296842
-0.0010426235
-0.0002576189061
-0.0003163672791
-0.0004479380612
-0.0007169865944
-0.00120078741
-0.0003470215101
-0.0004174142229
-0.000593702837
-0.0008766434787
-0.001420301738
-0.000482026338
-0.0005705033829
-0.0007561946048
-0.001120687051
-0.001739827886
-0.0006835513696
-0.0007969488859
-0.001074777779
-0.001463966961
-0.002198907586
-0.0009085913194
-0.001040163579
-0.00146542085
-0.002103145922
-0.002868972331
-0.001359917231
-0.001540822998
-0.001964207372
-0.002694000946
-0.003838854764
-0.002063161833
-0.002289392702
-0.002835289067
-0.003716756319
-0.005025815197
-0.003063154298
-0.003355872844
-0.00404336257
-0.005028251631
-0.006320573986
-0.004220572781
-0.004461974099
-0.00509643849
-0.005720508416
-0.006071644421
-0.003572864757
-0.003469705003
-0.003044631675
-0.001949322972
0.0004197404513
0.005347285819
0.006008592325
0.00753070987
0.01003155898
0.01328815923
0.01333690996
0.01350648689
0.01382861815
0.0139039986
0.01364804495
0.006071805613
0.005830653762
0.005300445731
0.004477582045
0.003392429094
-0.001903972777
-0.00201744271
-0.002252989983
-0.002561109652
-0.002892369368
-0.004286485929
-0.004266258339
-0.004207444229
-0.00407855487
-0.003829081913
-0.003380510763
-0.003274910229
-0.003035615204
-0.002662244826
-0.002207961387
-0.001863929054
-0.00193080688
-0.00217972752
-0.002771493566
-0.003646628986
-0.002770545139
-0.002738430775
-0.002651291139
-0.002500944797
-0.002298000875
-0.001177025302
-0.001157103838
-0.001114703982
-0.001053902095
-0.0009788732085
-0.0004897331552
-0.0004826825359
-0.0004675629041
-0.0004456832765
-0.0004183151967
-0.0002062574941
-0.0002036702217
-0.0001981122073
-0.0001900157142
-0.0001797898397
-8.782273496e-05
-8.685360509e-05
-8.476183901e-05
-8.169768594e-05
-7.779854326e-05
-3.778715924e-05
-3.741446366e-05
-3.660988251e-05
-3.542671267e-05
-3.391261176e-05
-1.641675905e-05
-1.627133523e-05
-1.59563224e-05
-1.549151902e-05
-1.489394561e-05
-7.199345885e-06
-7.141415554e-06
-7.015971821e-06
-6.830423028e-06
-6.590994194e-06
-3.185724262e-06
-3.162382972e-06
-3.111710524e-06
-3.036583579e-06
-2.939330968e-06
-1.422678602e-06
-1.41311174e-06
-1.392350571e-06
-1.361516332e-06
-1.321494884e-06
-6.413111822e-07
-6.373501724e-07
-6.287373026e-07
-6.159222855e-07
-5.992482294e-07
-2.919194532e-07
-2.902543145e-07
-2.866344154e-07
-2.812406478e-07
-2.742078425e-07
-1.341979104e-07
-1.334908543e-07
-1.319512669e-07
-1.296538065e-07
-1.266522416e-07
-6.230925252e-08
-6.200492895e-08
-6.134236423e-08
-6.035251181e-08
-5.905714409e-08
-2.922003119e-08
-2.908808876e-08
-2.880048485e-08
-2.837038727e-08
-2.78068229e-08
-1.38497199e-08
-1.37923667e-08
-1.366742304e-08
-1.348055455e-08
-1.323565868e-08
-6.659455054e-09
-6.63532859e-09
-6.582804467e-09
-6.504420033e-09
-6.402040225e-09
-3.308600919e-09
-3.300392579e-09
-3.282716472e-09
-3.256835852e-09
-3.224008967e-09
-1.534908974e-09
-1.528923261e-09
-1.515952452e-09
-1.496709556e-09
-1.471743907e-09
-9.059105215e-10
-9.05470197e-10
-9.045107369e-10
-9.030639797e-10
-9.005779898e-10
-5.882033567e-10
-5.883527899e-10
-5.886348374e-10
-5.889273083e-10
-5.890472718e-10
-4.334462397e-10
-4.335013223e-10
-4.335540059e-10
-4.334414913e-10
-4.329200428e-10
-3.543231555e-10
-3.538948896e-10
-3.528819246e-10
-3.511412331e-10
-3.484282669e-10
-3.065476548e-10
-3.055066335e-10
-3.031568961e-10
-2.994146918e-10
-2.940816685e-10
-2.686314739e-10
-2.670284493e-10
-2.634641511e-10
-2.57931882e-10
-2.503079703e-10
-2.303446081e-10
-2.283304318e-10
-2.238862895e-10
-2.170836511e-10
-2.078848545e-10
-1.919255328e-10
-1.897774298e-10
-1.850638371e-10
-1.779178287e-10
-1.683816681e-10
-1.561252622e-10
-1.540616633e-10
-1.495524618e-10
-1.427682726e-10
-1.338112428e-10
-1.467155628e-10
-1.449462211e-10
-1.410893431e-10
-1.353125871e-10
-1.277335359e-10
-1.843981358e-06
-0.000185874907
-9.948124661e-05
-0.000510871616
-0.0008193151582
-0.0006546676171
-0.0004445932295
-0.0004098638318
-0.0006161632754
-0.0007230089111
-0.0006685750787
-0.0005695318736
-0.0006087462345
-0.0007099158856
-0.0007746313001
-0.000787162672
-0.0007698354815
-0.0007926798953
-0.0008852261385
-0.001025232278
-0.0011577158
-0.001300730234
-0.001433033833
-0.001574029373
-0.001762683712
-0.002034844356
-0.002437049514
-0.003010663668
-0.003811532187
-0.004915347268
-0.006264738055
-0.00734765867
-0.005893528641
0.003053336766
0.01559879738
0.01315729823
0.002582199698
-0.00306332959
-0.003544147193
-0.001966434693
-0.004121530526
-0.002146255189
-0.000923207265
-0.0003976573082
-0.0001719758359
-7.4790977e-05
-3.273617779e-05
-1.442686223e-05
-6.402930646e-06
-2.862620102e-06
-1.289812536e-06
-5.860053312e-07
-2.686059806e-07
-1.242550134e-07
-5.802021301e-08
-2.735492146e-08
-1.303923678e-08
-6.32030543e-09
-3.198896761e-09
-1.465045322e-09
-8.983214565e-10
-5.888486293e-10
-4.320576908e-10
-3.457116277e-10
-2.892331679e-10
-2.436552774e-10
-2.000501098e-10
-1.60400034e-10
-1.264067074e-10
-1.215184629e-10
-3.099787555e-06
-6.378880716e-06
-5.157655122e-07
9.370169938e-09
-4.768231017e-09
-0.0006448170458
0.001256290056
-0.0001536388629
-7.161612837e-06
-1.296888487e-07
-0.0002692302786
-0.0004865060751
-0.000374729051
-3.552776532e-05
-1.535376758e-06
-0.001862716235
-0.0160607398
0.04183237047
-0.007385710065
-0.0003865563684
-0.002716917436
-0.02078709016
0.02334077819
-0.008798460354
-0.0006071202712
-0.001885045069
-0.01116945302
-0.0006662772022
-0.004488299738
-0.0004061734024
-0.001130195612
-0.00529294305
0.0003325898818
-0.002498548054
-0.0003279462685
-0.001025558592
-0.005015871187
-0.01448672689
0.03726960636
-0.009105831868
-0.001562704928
-0.008178651544
-0.0336452115
0.08004099944
-0.02052366987
-0.001719628978
-0.007902195794
-0.02860374116
0.04315396582
-0.0169751976
-0.001484373845
-0.005928852669
-0.01869995869
0.02364423516
-0.01131868313
-0.001203398888
-0.004349226324
-0.01271081912
0.001648073269
0.01524533207
-0.001283840226
-0.00474352204
-0.01530847129
-0.02942004904
0.1021656345
-0.001465435145
-0.005191056155
-0.01617976562
-0.03595535005
0.0887671573
-0.001527180989
-0.00498882535
-0.01437460048
-0.03063275242
0.06472703512
-0.00146764424
-0.004433490677
-0.01178580427
-0.02331967086
0.04656952845
-0.001379403645
-0.003880484974
-0.009699014182
-0.01843503026
0.02605253787
-0.001390596838
-0.003799500519
-0.009451577741
-0.01928610823
0.0001924585038
-0.001529980476
-0.004112578423
-0.01019005261
-0.02158100814
-0.01521137268
-0.00174160615
-0.004535479409
-0.01094322756
-0.02284659485
-0.02119513033
-0.001956983867
-0.004883703662
-0.01132406346
-0.02274327795
-0.02165471846
-0.00214471817
-0.005097671182
-0.01129475488
-0.02159959188
-0.01935565598
-0.002298582584
-0.005205229022
-0.01101898411
-0.0199932347
-0.01606716792
-0.002462104441
-0.005332887208
-0.01081726225
-0.01860832129
-0.01309412781
-0.00269268259
-0.005601326023
-0.01091674352
-0.01778985798
-0.01056822634
-0.003041029087
-0.006080084145
-0.01135613335
-0.0172424395
-0.00701339708
-0.003554045031
-0.006812192802
-0.01205302044
-0.01634159426
-0.000902294665
-0.004297128207
-0.007815006361
-0.01277758208
-0.0141234996
0.008681409436
-0.005292923374
-0.008999179707
-0.0129821105
-0.00908799492
0.02131712211
-0.006659444944
-0.01005049226
-0.01144499304
0.0004856213338
0.03366870831
-0.00780688464
-0.009959028736
-0.005886637461
0.01453953954
0.0399142623
-0.008015430079
-0.006171469047
0.005923719422
0.02757047693
0.03600499747
-0.003897639332
0.004759137134
0.02033621836
0.03029683683
0.02421649362
0.008250542922
0.01851546355
0.02470161148
0.02096089488
0.01130606824
0.01805909555
0.01915624906
0.01524428813
0.008569882176
0.002751774835
0.01155086952
0.007985811715
0.003815116637
0.0006286824426
-0.002150496452
0.001222839977
-0.0006288880657
-0.001725234129
-0.001948105427
-0.00921499346
-0.003274637501
-0.003085156702
-0.002342543607
-0.005716422398
-0.009021410519
-0.003082808309
-0.002205934612
-0.004844615149
-0.007388961856
-0.005185573711
-0.002289965406
-0.005124001188
-0.005423021165
-0.003968815332
-0.002824216799
-0.00416313241
-0.003451627691
-0.002661878096
-0.002000244454
-0.001471840463
-0.001922883228
-0.001576816252
-0.001255531638
-0.0009744827586
-0.000739865538
-0.0008413194048
-0.0007086598062
-0.0005802500797
-0.0004633243641
-0.0003618873504
-0.0003670962953
-0.0003159672361
-0.0002648364696
-0.0002167183775
-0.0001735785209
-0.0001603680123
-0.0001404785373
-0.0001200728715
-0.0001003436718
-8.215620516e-05
-7.030907769e-05
-6.248645519e-05
-5.429483947e-05
-4.619655833e-05
-3.855371415e-05
-3.097886139e-05
-2.786584851e-05
-2.455142062e-05
-2.12137748e-05
-1.800066711e-05
-1.372787722e-05
-1.247444594e-05
-1.112145328e-05
-9.737773483e-06
-8.383089925e-06
-6.121113989e-06
-5.610586829e-06
-5.053147538e-06
-4.475580621e-06
-3.901919195e-06
-2.747547927e-06
-2.53727819e-06
-2.305445051e-06
-2.062546862e-06
-1.818285988e-06
-1.242248187e-06
-1.154690143e-06
-1.057345979e-06
-9.543728343e-07
-8.496950485e-07
-5.661107412e-07
-5.292509498e-07
-4.879741478e-07
-4.43940191e-07
-3.987499903e-07
-2.601856583e-07
-2.444973505e-07
-2.268170798e-07
-2.078151716e-07
-1.881492101e-07
-1.206498782e-07
-1.138998904e-07
-1.062506363e-07
-9.797607897e-08
-8.934935442e-08
-5.646018192e-08
-5.35272813e-08
-5.018841326e-08
-4.655751756e-08
-4.275011638e-08
-2.667492088e-08
-2.539289293e-08
-2.392926537e-08
-2.233304171e-08
-2.06550726e-08
-1.274378406e-08
-1.218687724e-08
-1.155201914e-08
-1.086191445e-08
-1.014108264e-08
-6.197664117e-09
-5.969001655e-09
-5.712823649e-09
-5.441779561e-09
-5.170494605e-09
-3.161956603e-09
-3.100161276e-09
-3.043457425e-09
-2.646454836e-09
-2.314654476e-09
-1.458565327e-09
-1.446983586e-09
-1.431139281e-09
-1.406500934e-09
-1.367546993e-09
-8.946932026e-10
-8.869045642e-10
-8.759264702e-10
-8.602091963e-10
-8.374124997e-10
-5.884089442e-10
-5.856807562e-10
-5.790847197e-10
-5.66784177e-10
-5.463421898e-10
-4.306362932e-10
-4.253676748e-10
-4.154638037e-10
-3.989509797e-10
-3.737391062e-10
-3.416525948e-10
-3.310445757e-10
-3.149539352e-10
-2.91830105e-10
-2.60251942e-10
-2.821466218e-10
-2.658242538e-10
-2.436154941e-10
-2.145676608e-10
-1.780486826e-10
-2.34030806e-10
-2.132499244e-10
-1.867602255e-10
-1.540467772e-10
-1.14955589e-10
-1.887745903e-10
-1.653882203e-10
-1.368284323e-10
-1.034320516e-10
-6.592947312e-11
-1.490033776e-10
-1.260681287e-10
-9.904230635e-11
-6.869554507e-11
-3.612127462e-11
-1.158889659e-10
-9.522950601e-11
-7.161627602e-11
-4.603556456e-11
-1.970122367e-11
-1.127193776e-10
-9.570196551e-11
-7.662815329e-11
-5.645128427e-11
-3.627738286e-11
-9.463526999e-10
-1.658231219e-11
-7.149767376e-13
-6.312021972e-14
-1.177090051e-14
-2.704956774e-15
-6.034782586e-16
-1.272842559e-16
-2.598948123e-17
-5.438840692e-18
-1.335900503e-18
-4.986790214e-19
-3.092505812e-19
-2.511946727e-19
-2.201737379e-19
-1.939570226e-19
-1.678517921e-19
-1.414565189e-19
-1.156159363e-19
-9.142922941e-20
-6.986109454e-20
-5.154566696e-20
-3.671727326e-20
-2.525105068e-20
-1.676893766e-20
-1.076157018e-20
-6.681169344e-21
-4.017094364e-21
-2.342207384e-21
-1.326351304e-21
-7.308006638e-22
-3.926624231e-22
-2.063464054e-22
-1.064846009e-22
-5.42606067e-23
-2.749407932e-23
-1.396067248e-23
-7.150274553e-24
-3.705300222e-24
-1.940179824e-24
-1.022368258e-24
-5.40307912e-25
-2.865903449e-25
-1.535987395e-25
-8.417897215e-26
-4.781510087e-26
-2.842443348e-26
-1.772275102e-26
-1.153412134e-26
-7.770185947e-27
-5.371225665e-27
-3.778900921e-27
-2.682674047e-27
-1.900134486e-27
-1.319763729e-27
-8.727878635e-28
-5.200650298e-28
-2.53052073e-28
-8.204694875e-29
-1.527001404e-29
-3.144882875e-08
-5.212090105e-10
-1.42272836e-11
-7.785412463e-13
-8.462420654e-14
-1.24319844e-14
-1.99818324e-15
-3.324676042e-16
-6.061306111e-17
-1.452110517e-17
-5.72169917e-18
-3.569868439e-18
-2.764108795e-18
-2.287877543e-18
-1.914113085e-18
-1.586532007e-18
-1.293073796e-18
-1.032838643e-18
-8.068425175e-19
-6.150276062e-19
-4.565034742e-19
-3.293542986e-19
-2.307143821e-19
-1.567789738e-19
-1.033263033e-19
-6.605098853e-20
-4.097269198e-20
-2.468224178e-20
-1.445282618e-20
-8.235481119e-21
-4.573448949e-21
-2.480360337e-21
-1.317511056e-21
-6.882870564e-22
-3.556994748e-22
-1.831633041e-22
-9.467893098e-23
-4.938526995e-23
-2.601576064e-23
-1.379016503e-23
-7.313629891e-24
-3.866225175e-24
-2.040156877e-24
-1.083557577e-24
-5.874686945e-25
-3.303533627e-25
-1.949363968e-25
-1.210630408e-25
-7.871124262e-26
-5.307434906e-26
-3.675745001e-26
-2.591865603e-26
-1.844080718e-26
-1.308622127e-26
-9.100963364e-27
-6.02933679e-27
-3.636986267e-27
-1.857852214e-27
-6.956807096e-28
-1.207682873e-28
-9.234434116e-08
-1.110517134e-09
-1.941945011e-11
-1.221689811e-12
-1.312779921e-13
-1.926884958e-14
-3.213714941e-15
-6.385169794e-16
-1.762355762e-16
-6.911799098e-17
-3.498556525e-17
-2.217268847e-17
-1.628841559e-17
-1.294641534e-17
-1.051526428e-17
-8.456881842e-18
-6.652103416e-18
-5.102120634e-18
-3.817424727e-18
-2.78803976e-18
-1.989661085e-18
-1.387423789e-18
-9.452633391e-19
-6.293667419e-19
-4.089862998e-19
-2.592581261e-19
-1.603027974e-19
-9.670164314e-20
-5.694564736e-20
-3.277646428e-20
-1.845383767e-20
-1.017857173e-20
-5.514679508e-21
-2.946947364e-21
-1.562351803e-21
-8.27529218e-22
-4.406639185e-22
-2.365494761e-22
-1.276696867e-22
-6.880469465e-23
-3.674918685e-23
-1.937366432e-23
-1.010517889e-23
-5.268560671e-24
-2.793671543e-24
-1.537039848e-24
-8.912785231e-25
-5.474327683e-25
-3.541484534e-25
-2.386495209e-25
-1.655978817e-25
-1.171174307e-25
-8.358675167e-26
-5.94720374e-26
-4.143823929e-26
-2.752035381e-26
-1.678512374e-26
-8.832631575e-27
-3.365637031e-27
-5.161443616e-28
-1.078125299e-05
-1.272273839e-07
-9.447540322e-10
-1.433409614e-11
-6.744406851e-13
-6.714208778e-14
-1.136273439e-14
-3.050804725e-15
-1.164508321e-15
-5.288952616e-16
-2.679579396e-16
-1.496940219e-16
-1.023858965e-16
-6.899402848e-17
-5.14949023e-17
-3.949472386e-17
-3.022221039e-17
-2.273431636e-17
-1.663465163e-17
-1.180808571e-17
-8.142322895e-18
-5.46829777e-18
-3.587178362e-18
-2.303751808e-18
-1.451518751e-18
-8.987492448e-19
-5.47097738e-19
-3.273768795e-19
-1.925597922e-19
-1.113312136e-19
-6.33380607e-20
-3.551983474e-20
-1.968925434e-20
-1.083019113e-20
-5.94260037e-21
-3.270938882e-21
-1.81212839e-21
-1.00900098e-21
-5.608047398e-22
-3.081120561e-22
-1.658811744e-22
-8.714425391e-23
-4.4798079e-23
-2.278866108e-23
-1.170079512e-23
-6.218361989e-24
-3.496500684e-24
-2.100434578e-24
-1.341740324e-24
-8.996135774e-25
-6.241805935e-25
-4.426347776e-25
-3.170986854e-25
-2.264379868e-25
-1.582526585e-25
-1.055325577e-25
-6.490161579e-26
-3.477399069e-26
-1.282661639e-26
-1.740685819e-27
-2.51120729e-05
-5.328556678e-07
-4.7364079e-09
-5.324835259e-11
-2.590694101e-12
-4.212772884e-13
-1.079578502e-13
-3.638445617e-14
-1.406242087e-14
-5.936317064e-15
-2.725947661e-15
-1.360358895e-15
-7.333974433e-16
-4.301426312e-16
-3.061143907e-16
-2.118478499e-16
-1.533020328e-16
-1.106893382e-16
-7.861007545e-17
-5.486164187e-17
-3.719453557e-17
-2.445994539e-17
-1.56060571e-17
-9.686056225e-18
-5.87289238e-18
-3.496357434e-18
-2.053419227e-18
-1.193287288e-18
-6.870774256e-19
-3.922401765e-19
-2.22228506e-19
-1.251480384e-19
-7.021555021e-20
-3.939282339e-20
-2.220228856e-20
-1.261996851e-20
-7.233374489e-21
-4.154780137e-21
-2.365272863e-21
-1.318336341e-21
-7.126550071e-22
-3.720934311e-22
-1.881356682e-22
-9.312644376e-23
-4.606747599e-23
-2.343548336e-23
-1.262083473e-23
-7.320520606e-24
-4.568667058e-24
-3.024503675e-24
-2.087240023e-24
-1.478985291e-24
-1.061719294e-24
-7.609073548e-25
-5.342957219e-25
-3.585134192e-25
-2.225033094e-25
-1.20560706e-25
-4.199173247e-26
-5.205333573e-27
-1.991542587e-05
-1.212052125e-06
-2.016662509e-08
-2.300663934e-10
-1.226793763e-11
-2.614976817e-12
-8.671452495e-13
-3.014297907e-13
-1.262468872e-13
-5.567639792e-14
-2.586050212e-14
-1.26888784e-14
-6.597569477e-15
-3.649010252e-15
-2.147412398e-15
-1.527009264e-15
-1.000355687e-15
-6.84035188e-16
-4.687691257e-16
-3.16851708e-16
-2.097338279e-16
-1.356412123e-16
-8.518298318e-17
-5.187682478e-17
-3.068242076e-17
-1.770989165e-17
-1.002633958e-17
-5.592098792e-18
-3.085401811e-18
-1.692414661e-18
-9.272157515e-19
-5.092509275e-19
-2.813576736e-19
-1.570007639e-19
-8.886718814e-20
-5.116179466e-20
-2.98341059e-20
-1.742912313e-20
-1.005078155e-20
-5.638235509e-21
-3.043180556e-21
-1.572471019e-21
-7.793382063e-22
-3.741588164e-22
-1.775841402e-22
-8.588969988e-23
-4.383805872e-23
-2.424901125e-23
-1.462658928e-23
-9.491846443e-24
-6.486731539e-24
-4.578101622e-24
-3.28380192e-24
-2.356784018e-24
-1.661943332e-24
-1.124727491e-24
-7.071377335e-25
-3.868049714e-25
-1.261758507e-25
-1.475808871e-26
-2.459105228e-05
-2.675728993e-06
-9.735008415e-08
-1.675034723e-09
-4.141152497e-11
-7.160996701e-12
-2.451250326e-12
-1.097925919e-12
-5.189361079e-13
-2.530487908e-13
-1.270477271e-13
-6.617896894e-14
-3.611863069e-14
-2.079951422e-14
-1.262928441e-14
-8.016473631e-15
-5.888795562e-15
-4.046068598e-15
-2.775514686e-15
-1.90627953e-15
-1.294073458e-15
-8.539418997e-16
-5.416959526e-16
-3.307506177e-16
-1.951704906e-16
-1.120999459e-16
-6.278881979e-17
-3.428303991e-17
-1.830644097e-17
-9.625512383e-18
-5.025127036e-18
-2.622805338e-18
-1.378598273e-18
-7.357963927e-19
-4.017350119e-19
-2.252964042e-19
-1.293731631e-19
-7.495512087e-20
-4.300929184e-20
-2.400999014e-20
-1.286170571e-20
-6.564414527e-21
-3.190653239e-21
-1.487312269e-21
-6.768428157e-22
-3.101394246e-22
-1.487795518e-22
-7.745190322e-23
-4.451218787e-23
-2.801746162e-23
-1.886277199e-23
-1.32437779e-23
-9.495670421e-24
-6.828858199e-24
-4.838337928e-24
-3.306160056e-24
-2.112122663e-24
-1.164655653e-24
-3.573970312e-25
-4.040656674e-26
-0.0008500040305
-6.958950261e-05
-3.845972797e-06
-1.029780069e-07
-2.050095886e-09
-1.149230346e-10
-1.988318906e-11
-5.905927857e-12
-2.00789375e-12
-7.879274095e-13
-3.653654648e-13
-1.848129503e-13
-1.009354405e-13
-5.943905086e-14
-3.771112492e-14
-2.558433644e-14
-1.825135763e-14
-1.465267254e-14
-1.152388536e-14
-8.534026805e-15
-6.225918858e-15
-4.387987501e-15
-2.955494117e-15
-1.913079529e-15
-1.188617532e-15
-7.151561702e-16
-4.124040649e-16
-2.277525301e-16
-1.215449937e-16
-6.330117651e-17
-3.240398363e-17
-1.634209839e-17
-8.188024821e-18
-4.12756129e-18
-2.117527445e-18
-1.113063047e-18
-6.014682103e-19
-3.321677393e-19
-1.841589338e-19
-1.003900208e-19
-5.287233782e-20
-2.658350163e-20
-1.269748864e-20
-5.774884953e-21
-2.533163657e-21
-1.101612566e-21
-4.941810735e-22
-2.386916694e-22
-1.279848239e-22
-7.654647233e-23
-5.006368094e-23
-3.475166601e-23
-2.489776311e-23
-1.799168421e-23
-1.284975497e-23
-8.878429415e-24
-5.748285949e-24
-3.188084242e-24
-9.365726375e-25
-1.017457701e-25
-0.002182343882
-0.000205211589
-1.952048783e-05
-9.616975196e-07
-2.302960578e-08
-7.647536058e-10
-7.608092482e-11
-1.635741866e-11
-5.250902864e-12
-1.749337184e-12
-7.625881631e-13
-3.694036695e-13
-1.970004221e-13
-1.154844998e-13
-7.430505845e-14
-5.20221953e-14
-3.894087667e-14
-3.046341424e-14
-2.661114268e-14
-2.271070762e-14
-1.816219866e-14
-1.440945688e-14
-1.113676882e-14
-8.249950441e-15
-5.808230427e-15
-3.848321027e-15
-2.390485737e-15
-1.403061361e-15
-7.861184244e-16
-4.258977468e-16
-2.221661482e-16
-1.116185619e-16
-5.485489344e-17
-2.679906975e-17
-1.313304734e-17
-6.467711136e-18
-3.221886769e-18
-1.631255648e-18
-8.37038512e-19
-4.301371422e-19
-2.173947732e-19
-1.065482334e-19
-5.003122336e-20
-2.234969096e-20
-9.525477149e-21
-3.959219223e-21
-1.667430769e-21
-7.433131322e-22
-3.651610393e-22
-2.021846574e-22
-1.25410961e-22
-8.470937761e-23
-6.021307019e-23
-4.369967623e-23
-3.156984462e-23
-2.215026143e-23
-1.457282052e-23
-8.153425356e-24
-2.335555477e-24
-2.524908794e-25
-0.002169945993
-0.0002464027281
-2.780652011e-05
-2.74397317e-06
-1.184702519e-07
-3.36469663e-09
-1.903119582e-10
-2.85213048e-11
-7.787018151e-12
-2.589455177e-12
-1.132176858e-12
-5.523757322e-13
-2.968842244e-13
-1.760916062e-13
-1.155860287e-13
-8.341799358e-14
-6.501335742e-14
-5.340636961e-14
-4.516187003e-14
-4.360249587e-14
-3.788141264e-14
-3.189974728e-14
-2.658132315e-14
-2.164497348e-14
-1.707619778e-14
-1.296328002e-14
-9.411266159e-15
-6.463874707e-15
-4.164669352e-15
-2.497284308e-15
-1.391243081e-15
-7.300998051e-16
-3.682969894e-16
-1.821674257e-16
-8.806468707e-17
-4.182687265e-17
-1.968319175e-17
-9.23295797e-18
-4.317663398e-18
-2.020520229e-18
-9.464401661e-19
-4.378112559e-19
-1.985028872e-19
-8.742271171e-20
-3.697331674e-20
-1.48996373e-20
-5.92725798e-21
-2.439578223e-21
-1.087497006e-21
-5.448145065e-22
-3.107845012e-22
-1.98610879e-22
-1.374008753e-22
-9.913576595e-23
-7.220920377e-23
-5.152169442e-23
-3.457264756e-23
-1.963102771e-23
-5.598860618e-24
-6.27600086e-25
-0.001724024019
-0.0002379240595
-2.827744726e-05
-4.63694662e-06
-3.802451345e-07
-1.503174172e-08
-5.664255332e-10
-5.207226405e-11
-9.823109781e-12
-3.384741466e-12
-1.462548087e-12
-7.185531974e-13
-3.899485168e-13
-2.34066399e-13
-1.566764638e-13
-1.165652109e-13
-9.4517091e-14
-8.123694017e-14
-7.208571461e-14
-6.477702421e-14
-6.748769951e-14
-5.902964572e-14
-5.155316061e-14
-4.43321976e-14
-3.722987488e-14
-3.036141946e-14
-2.393255513e-14
-1.815073417e-14
-1.317705323e-14
-9.109751079e-15
-5.965910549e-15
-3.663782723e-15
-2.095169568e-15
-1.112677224e-15
-5.533949491e-16
-2.648227289e-16
-1.233423318e-16
-5.619325354e-17
-2.478489969e-17
-1.070044619e-17
-4.593168527e-18
-1.965587708e-18
-8.342772341e-19
-3.50810541e-19
-1.460835136e-19
-5.955602776e-20
-2.32230337e-20
-8.864554328e-21
-3.555044576e-21
-1.580907467e-21
-8.055081657e-22
-4.71334888e-22
-3.080048318e-22
-2.159292789e-22
-1.562778231e-22
-1.125422104e-22
-7.695215924e-23
-4.463312223e-23
-1.302253268e-23
-1.62901326e-24
-0.006441712095
-0.0009620142546
-0.0001353866812
-2.030147154e-05
-2.546161918e-06
-1.632013129e-07
-6.118422377e-09
-2.990318406e-10
-3.488290425e-11
-6.877749054e-12
-2.304022721e-12
-9.863835354e-13
-4.999736315e-13
-2.923202399e-13
-1.965564059e-13
-1.50592236e-13
-1.27543415e-13
-1.149528989e-13
-1.068192711e-13
-1.001512633e-13
-1.05747902e-13
-9.901766357e-14
-8.943177447e-14
-7.974579796e-14
-6.967600878e-14
-5.937207352e-14
-4.916154176e-14
-3.942613374e-14
-3.052004432e-14
-2.272246423e-14
-1.62078174e-14
-1.102946201e-14
-7.12659695e-15
-4.354300597e-15
-2.506962156e-15
-1.348119685e-15
-6.764853343e-16
-3.161116229e-16
-1.389954626e-16
-5.873696458e-17
-2.403000676e-17
-9.627460908e-18
-3.815971143e-18
-1.502790628e-18
-5.89131661e-19
-2.305649686e-19
-9.035610809e-20
-3.496494163e-20
-1.332215194e-20
-5.258432723e-21
-2.317213023e-21
-1.195628485e-21
-7.128164025e-22
-4.717530351e-22
-3.311142796e-22
-2.363573749e-22
-1.631826239e-22
-9.715213891e-23
-2.993528232e-23
-4.351379451e-24
-0.021123152
-0.003205667351
-0.0004804888814
-6.870697919e-05
-1.023057658e-05
-1.136493261e-06
-7.150194471e-08
-2.950031441e-09
-1.684169466e-10
-2.08377222e-11
-4.131425402e-12
-1.378590175e-12
-6.048042368e-13
-3.369392787e-13
-2.305572747e-13
-1.871316227e-13
-1.687691743e-13
-1.606539216e-13
-1.560086555e-13
-1.516368235e-13
-1.702225015e-13
-1.58092758e-13
-1.463155722e-13
-1.334818332e-13
-1.193494274e-13
-1.042317576e-13
-8.870024852e-14
-7.338094993e-14
-5.887751644e-14
-4.570449601e-14
-3.423604878e-14
-2.467744195e-14
-1.705461808e-14
-1.125773187e-14
-7.074843041e-15
-4.217466851e-15
-2.375381437e-15
-1.258583099e-15
-6.223763981e-16
-2.846466505e-16
-1.204216228e-16
-4.749795861e-17
-1.810617949e-17
-6.753045069e-18
-2.490367219e-18
-9.161326396e-19
-3.380684789e-19
-1.263832284e-19
-4.811377953e-20
-1.86734154e-20
-7.618516053e-21
-3.444213089e-21
-1.800043265e-21
-1.079552972e-21
-7.141893258e-22
-4.946297705e-22
-3.39603026e-22
-2.077695932e-22
-7.006064123e-23
-1.104592034e-23
-0.02347990122
-0.004066296329
-0.0006964659041
-0.0001096661637
-1.925295018e-05
-2.870369366e-06
-2.980118114e-07
-1.854998228e-08
-7.964347186e-10
-4.83644826e-11
-5.629679871e-12
-1.429452256e-12
-5.848486617e-13