/*--------------------------------*- C++ -*----------------------------------*\
  =========                 |
  \\      /  F ield         | OpenFOAM: The Open Source CFD Toolbox
   \\    /   O peration     | Website:  https://openfoam.org
    \\  /    A nd           | Version:  10
     \\/     M anipulation  |
\*---------------------------------------------------------------------------*/
FoamFile
{
    format      ascii;
    class       volScalarField;
    location    "3000";
    object      RR.H2;
}
// * * * * * * * * * * * * * * * * * * * * * * * * * * * * * * * * * * * * * //

dimensions      [1 -3 -1 0 0 0 0];

internalField   nonuniform List<scalar> 
5170
(
-6.373700659e-60
1.810500327e-59
-2.553974668e-59
3.147670393e-59
-1.026372572e-59
1.283769043e-59
1.597694658e-62
-2.253646208e-60
-1.703855371e-59
-2.193714752e-59
6.630174342e-60
-9.284803568e-60
1.868335039e-59
1.990994463e-59
-5.315973735e-60
-7.856315411e-61
-8.967512805e-60
-4.975751191e-60
3.581792371e-59
-5.698033633e-60
1.854077874e-59
-1.196305954e-59
1.20872273e-59
5.562946992e-60
2.411552688e-59
1.745948794e-58
8.993880082e-59
0
0
0
1.273049734e-55
4.370471396e-56
0
0
0
9.336900939e-53
3.25394897e-53
0
0
0
6.627073761e-50
2.155450836e-50
0
0
0
5.270988234e-47
1.875786132e-47
0
0
0
4.028317593e-44
1.600775696e-44
1.755646212e-45
0
0
3.160893712e-41
1.529345136e-41
1.786143003e-42
0
0
2.606369064e-38
1.512893555e-38
2.29012033e-39
0
0
2.190378691e-35
1.64317064e-35
5.442929303e-36
1.290711909e-35
4.207834322e-35
1.880430156e-32
1.921508268e-32
1.357180122e-32
7.488569203e-32
2.141623858e-31
1.647308927e-29
2.374102688e-29
3.703034107e-29
3.605426658e-28
1.482728887e-27
1.435115346e-26
3.109622753e-26
1.028814034e-25
1.592476282e-24
9.651446396e-24
1.311987524e-23
4.889854557e-23
5.283632814e-22
2.028387317e-20
2.742160435e-19
1.022002819e-19
1.518760822e-18
6.870481904e-17
3.913434215e-15
7.057531433e-14
8.850481223e-15
2.796082433e-13
1.716219872e-11
8.815296767e-10
2.266166391e-08
-0.02027566236
-0.01694643043
-0.01563956137
-0.01752326135
-0.02023934866
-0.01012701323
-0.01057585136
-0.01028143708
-0.01056593147
-0.009574245542
-0.005701801069
-0.006786954526
-0.006766494552
-0.006457875505
-0.005053973417
-0.00358438983
-0.004508223829
-0.004650513837
-0.004381733654
-0.003052629513
-0.00241219275
-0.003187723944
-0.003319195189
-0.003123422512
-0.002010462903
-0.001696187161
-0.002323580037
-0.002453292943
-0.002286655765
-0.001383763677
-0.001242300742
-0.001749369261
-0.00185872932
-0.001702358966
-0.0009862809656
-0.0009296738261
-0.001337809922
-0.001430297002
-0.001257789644
-0.0007081126038
-0.000705378039
-0.001023434114
-0.001098377395
-0.0009174384786
-0.0005119192897
-0.0005421246372
-0.000787672449
-0.000840270898
-0.0006716801144
-0.0003768931644
-0.0004208080154
-0.000607954974
-0.0006429432522
-0.0004982483844
-0.0002845773437
-0.0003303919213
-0.0004719705605
-0.0004936396493
-0.0003755606922
-0.0002205039667
-0.0002626235159
-0.0003688697182
-0.0003820186738
-0.0002886094959
-0.0001756983265
-0.0002123848312
-0.0002919983645
-0.0002992615233
-0.0002266822385
-0.0001441619605
-0.000174981274
-0.0002343278868
-0.000238149138
-0.0001823947538
-0.0001219552831
-0.0001476465437
-0.0001917091681
-0.0001932942611
-0.0001506366199
-0.0001063184101
-0.0001279283847
-0.0001602516311
-0.0001606720577
-0.000128139668
-9.572276261e-05
-0.0001148276882
-0.000137518205
-0.0001371477799
-0.0001122669048
-8.889074684e-05
-0.0001103210382
-0.0001215709367
-0.000120987404
-0.0001017231669
-8.520483331e-05
0.01510956914
-0.0006308317728
-0.0002641830958
-0.0001425637344
-0.0001274371507
1.021510037e-11
6.101191084e-10
1.41619106e-07
2.874363764e-05
0.00274736105
1.660300727e-10
6.521606327e-09
7.547684796e-07
5.008331156e-05
0.0008620367441
9.96730518e-10
2.700988213e-08
1.70216031e-06
4.548296873e-05
0.0001687765519
3.786680788e-09
7.402978029e-08
2.702946039e-06
3.201820578e-05
-8.232339238e-05
1.072925445e-08
1.55023456e-07
3.371413346e-06
1.623202489e-05
-0.0002028388643
2.509945821e-08
2.720032311e-07
3.580296395e-06
5.326500633e-07
-0.0002811589486
5.314318759e-08
4.46725578e-07
3.430668927e-06
-1.856360229e-05
-0.0003543213774
1.047945971e-07
6.922840624e-07
2.212556599e-06
-4.729764214e-05
-0.0004286265339
1.917800365e-07
9.356890832e-07
-1.467724685e-06
-8.584444663e-05
-0.000486896021
3.182024221e-07
9.341250108e-07
-9.021475775e-06
-0.000132163206
-0.0005174896843
4.634585478e-07
1.901973811e-07
-2.16427467e-05
-0.0001858522639
-0.0005186337557
4.411577054e-07
-2.149846594e-06
-4.07486485e-05
-0.000246868812
-0.0004851947428
-2.661705805e-07
-7.46151417e-06
-6.842858497e-05
-0.0003132102046
-0.0004188644654
-3.033812288e-06
-1.836466899e-05
-0.0001077921328
-0.0003815104465
-0.0003072357721
-1.168841919e-05
-4.022284758e-05
-0.0001638006507
-0.0004455084611
-0.0001166475167
-3.584679301e-05
-8.359178372e-05
-0.0002434236972
-0.0004877531882
0.0002183553966
-9.422302309e-05
-0.0001645388938
-0.0003485161402
-0.0004576086598
0.000765940065
-0.0002049753833
-0.0002886397333
-0.0004378802411
-0.000252632185
0.001539358931
-0.0003446479144
-0.0003999867657
-0.0003868488286
0.0002270214978
0.002469421519
-0.0003726673395
-0.0003307269301
-4.517265305e-05
0.0009642256177
0.003469970976
-0.0001023453602
5.998778711e-05
0.0005878566751
0.001853214158
0.004536393687
0.0004376520654
0.0007008855192
0.001358472574
0.002805194764
0.005543594712
0.001073295201
0.00137004757
0.002162059192
0.003743829732
0.006572926124
0.001707077171
0.00206111726
0.002988645686
0.004670327947
0.007948278659
0.002388750603
0.002835648312
0.003802564835
0.005875377674
0.009447180402
0.00328159613
0.003861568128
0.005367113478
0.007459775904
0.01172822321
0.004707150151
0.005483373854
0.007304378999
0.01048725343
0.01618256279
0.007179618312
0.008263767243
0.01101329899
0.01491930866
0.0227975328
0.01125395114
0.01262379429
0.01733056708
0.02485652929
0.0368244326
0.02001347144
0.02288479051
0.02846954986
0.03895916922
0.05762228372
0.03863222881
0.04230541249
0.05202195318
0.06951554095
0.09491529789
0.08088464544
0.08808488502
0.1046974293
0.1315038284
0.1794761049
0.1788505454
0.1918250428
0.2230726105
0.2691026159
0.3479913568
0.3881823869
0.407955551
0.4528488505
0.5254027168
0.6283843421
0.7088084567
0.7268250922
0.7653009446
0.8229084104
0.8928353969
0.8532251762
0.8576429052
0.8668532856
0.8742982525
0.8810621069
0.6931414605
0.6902759416
0.6842767307
0.6751189961
0.6636280927
0.4662926913
0.4650427589
0.4625597878
0.4600140746
0.4587479948
0.3168039498
0.3186848593
0.3231391871
0.3310161691
0.3432954946
0.2546647766
0.2586898593
0.2671315303
0.2782818249
0.2871843277
0.1994682956
0.1938493544
0.1775969458
0.1433289091
0.08383182843
-0.03459386161
-0.04480766348
-0.06615765134
-0.09594868016
-0.1314942167
-0.1434114524
-0.148532094
-0.1593390801
-0.1746801499
-0.1933318544
-0.1704348043
-0.1733658874
-0.1795241671
-0.1882215038
-0.1987082968
-0.1659173706
-0.1675734161
-0.1690677059
-0.1741149382
-0.1802901229
-0.1474057627
-0.1483278982
-0.1502257079
-0.1529311432
-0.1559497701
-0.1252951003
-0.1257156154
-0.1265784504
-0.1277429053
-0.1290425285
-0.1022193975
-0.1023759011
-0.1026841591
-0.1030706668
-0.1034444312
-0.08058435539
-0.0806049647
-0.08063052381
-0.08062457806
-0.08054239267
-0.06173642278
-0.06170044225
-0.06160697474
-0.06145424027
-0.06120407727
-0.04622923249
-0.04621576786
-0.04580969531
-0.04581233187
-0.04258867817
-0.03230677315
-0.03223513984
-0.03207490601
-0.03182418254
-0.03345482956
-0.02361512874
-0.02356558339
-0.0234565517
-0.0232910342
-0.0230702351
-0.01693106934
-0.01689505488
-0.01681577266
-0.01669530393
-0.01653397738
-0.01194091751
-0.01191498921
-0.01185801814
-0.01177159
-0.01165607514
-0.008318947086
-0.008300859474
-0.008261144975
-0.008201000239
-0.008120801083
-0.005750223004
-0.005737932948
-0.005710987723
-0.005670241887
-0.005616013388
-0.003961149344
-0.003953004518
-0.003935155229
-0.003908194678
-0.003872368297
-0.0027319763
-0.002726693986
-0.002715130697
-0.002697685085
-0.002674537302
-0.001895039759
-0.001891698029
-0.001884386559
-0.001873368368
-0.001858771734
-0.001327855069
-0.00132580162
-0.001321314106
-0.001314561044
-0.001305631078
-0.0009436036835
-0.0009423954126
-0.0009397572902
-0.0009357939358
-0.0009305646107
-0.0006825741856
-0.0006819107741
-0.0006804649259
-0.0006782977991
-0.0006754467085
-0.0005041375219
-0.0005038189734
-0.0005031262241
-0.0005020913493
-0.0005007353398
-0.000381232361
-0.0003811233391
-0.0003808878171
-0.0003805386539
-0.0003800848145
-0.0002954681892
-0.0002954783069
-0.0002955018861
-0.0002955396671
-0.0002955921189
-0.0002349107071
-0.000234978543
-0.0002351272741
-0.00023535068
-0.0002356435824
-0.0001908405842
-0.0001909270977
-0.0001911156542
-0.0001913967644
-0.0001917621426
-0.000158661049
-0.0001587419174
-0.0001589176054
-0.0001591779893
-0.0001595136119
-0.0001343267083
-0.0001343949797
-0.0001345428743
-0.000134760932
-0.0001350399739
0.01614397849
0.004933522245
0.0007747801058
-8.165446731e-05
-0.0003243724069
-0.0002971723539
-5.668249324e-05
0.0001902946007
0.0003050272345
0.0004736290483
0.000768925638
0.001101481396
0.001334890448
0.001595263425
0.002025966021
0.002761537352
0.003775828252
0.00483971558
0.005851560431
0.006869786567
0.007720381036
0.008838792249
0.01036474781
0.01179031032
0.01393859339
0.01705769234
0.02329131302
0.03243964512
0.0473487274
0.07623723168
0.1248184453
0.2284090544
0.4225250263
0.7153738141
0.9407920122
0.8831573608
0.6562770411
0.4609214394
0.355508264
0.2864110809
0.02937380873
-0.1582938546
-0.2077178095
-0.2067788626
-0.1849347788
-0.1582096996
-0.1299968069
-0.103691289
-0.08044897351
-0.06099137023
-0.04523032935
-0.03322207882
-0.02289369906
-0.01640325283
-0.01156245742
-0.00805587397
-0.005572151129
-0.00384341151
-0.002655843719
-0.001846997983
-0.00129844164
-0.0009263674662
-0.0006731703104
-0.0004996632746
-0.0003797366689
-0.0002956470076
-0.0002358870317
-0.0001920591231
-0.0001597829036
-0.0001352617595
0.2449132754
0.8464965252
-0.02669431779
-0.00468508248
-0.001401125911
0.07210832079
0.8808685762
0.08009159519
-0.03755252213
-0.003777818593
0.03481983343
0.4162004061
0.9275707562
-0.2016596144
-0.01887023752
0.01986876036
0.2035657267
2.467206798
-0.5841558251
-0.09796415296
0.01184406269
0.1129079547
2.218040836
-0.5317382085
-0.1989619245
0.01049838318
0.105108293
1.70101121
-0.05535106498
-0.3390668687
0.01259213974
0.1198255356
1.418088572
0.8166021068
-0.5219194184
0.01237371545
0.09724847231
0.8266394107
2.663449492
-0.8312429884
0.01019854687
0.06694911671
0.4721240566
3.318389842
-0.7877530127
0.009330544986
0.0571370078
0.3715315043
2.966173661
-0.2687718544
0.009702780809
0.05683717632
0.3381310374
2.537736719
0.5640359344
0.009922779479
0.05313335517
0.2765409704
1.792229457
2.109510191
0.009262310415
0.04347981203
0.1983341623
1.101464943
3.55385533
0.008862313143
0.03788652344
0.1617103341
0.8289900256
3.519325838
0.009190854581
0.03697359143
0.1506861773
0.7216626771
3.286922436
0.01016505686
0.03875572566
0.1490938303
0.6582940637
2.94939073
0.01137614099
0.03974574213
0.1421501584
0.5720258211
2.412094004
0.01210766798
0.03799945847
0.1262918035
0.467489316
1.83774028
0.01207407839
0.0359533237
0.113904262
0.4011633899
1.511673305
0.01267151052
0.03558451802
0.1097067899
0.3739293668
1.358563015
0.01371345511
0.03728995796
0.1123378838
0.3701374261
1.285438991
0.01502507491
0.04062355389
0.1187065376
0.3756361956
1.240098784
0.01702362337
0.04492064366
0.1266577368
0.3839632189
1.201706242
0.0195961008
0.05002764073
0.1358601993
0.39437243
1.166347251
0.02287557537
0.05638223469
0.1477274437
0.41191447
1.150962263
0.02756319925
0.0707728026
0.1668451034
0.4484358338
1.180152073
0.03702531795
0.08543681223
0.1999063392
0.5172893744
1.266090494
0.05111728948
0.1066776459
0.2556368664
0.6299330275
1.399648856
0.07384245613
0.150753481
0.3473747328
0.795785764
1.554187473
0.1225762404
0.227297879
0.4925972921
1.010607406
1.68013561
0.182894523
0.3585706383
0.7040926058
1.237605126
1.719367008
0.3204989364
0.5686504811
0.9624577223
1.397592973
1.634943886
0.553706015
0.8446279189
1.177240105
1.405655871
1.439414519
0.846314736
1.064206742
1.216469375
1.249506864
1.192028297
0.9975556665
1.055735351
1.054960147
1.013718695
0.9547612051
0.8741394962
0.8497911081
0.817895213
0.7952321304
0.7043330531
0.6408015242
0.6264101653
0.6267388561
0.614344445
0.2994796622
0.4625198077
0.4804784623
0.4921633209
0.3231322487
-0.1128840888
0.369402
0.3785697029
0.2415953941
-0.08595037689
-0.3063858389
0.2572982012
0.1022729294
-0.1193493876
-0.2762301731
-0.3771332304
-0.04775167049
-0.1657191322
-0.2621091875
-0.3341122219
-0.3792925948
-0.1917649539
-0.246917605
-0.2939403195
-0.3279043728
-0.346302128
-0.2250924773
-0.2540950102
-0.2778635498
-0.2933659671
-0.2990665641
-0.2161533289
-0.2315560757
-0.2432405578
-0.249408776
-0.2491128328
-0.1909943148
-0.1987360096
-0.2038078863
-0.2051250778
-0.202159658
-0.1609348517
-0.1639165767
-0.1656936543
-0.1643968642
-0.1602578092
-0.1307632832
-0.1316495141
-0.1312501274
-0.1291170857
-0.1251358989
-0.1036692083
-0.1032955698
-0.1019838331
-0.09955199156
-0.09593506213
-0.08007569341
-0.07919646486
-0.07767373392
-0.07542658585
-0.07187418187
-0.06053937194
-0.05959038477
-0.05801643885
-0.05594210444
-0.05364559158
-0.04477275988
-0.04385922785
-0.04270857438
-0.04119183165
-0.03933746454
-0.03271223979
-0.03218417896
-0.02938370882
-0.02834734449
-0.02710421423
-0.02261017303
-0.02206701181
-0.02140275019
-0.02061081174
-0.01969831145
-0.01619510909
-0.01579238127
-0.01530280379
-0.01472961792
-0.0140793096
-0.01141457882
-0.01112884122
-0.01078399138
-0.01038361523
-0.009932870141
-0.007953914041
-0.007757313276
-0.007521309625
-0.007248793286
-0.006943565522
-0.005503586749
-0.005371596031
-0.005213812229
-0.005032408245
-0.0048301018
-0.003798324605
-0.003711652341
-0.003608428486
-0.003490229862
-0.00335896209
-0.002626838149
-0.002571169469
-0.002505118157
-0.002429798423
-0.002346517675
-0.001828782762
-0.001793899885
-0.001752679439
-0.00170588202
-0.001654372781
-0.001287340696
-0.001266149378
-0.001241219051
-0.001213054367
-0.001182206213
-0.0009198886242
-0.0009075799488
-0.0008931709855
-0.0008769753173
-0.0008593161107
-0.0006696448822
-0.0006629967445
-0.0006552531123
-0.0006465873134
-0.0006371602473
-0.0004979822031
-0.0004948518479
-0.000491217282
-0.0004871502315
-0.0004826986893
-0.0003791602757
-0.0003781203875
-0.0003769014636
-0.0003755043456
-0.0003739019985
-0.0002956848067
-0.0002957908646
-0.0002958755759
-0.0002958933854
-0.0002957721283
-0.0002362129516
-0.0002368429251
-0.0002375074335
-0.0002381352497
-0.0002386320905
-0.0001924693855
-0.0001932374648
-0.0001940404796
-0.0001947970806
-0.0001954080174
-0.0001601553857
-0.0001608355867
-0.0001615249418
-0.0001621436589
-0.0001625989567
-0.0001355671601
-0.0001361127781
-0.0001366464231
-0.0001370956136
-0.0001373780077
-2.73727195e-06
-6.448222761e-09
-1.126387917e-10
-4.622607691e-12
-3.214571199e-13
-2.749255244e-14
-2.326824309e-15
-1.296973193e-16
2.621100515e-17
2.128633252e-17
1.286669118e-17
8.172780432e-18
5.42413597e-18
3.655303146e-18
2.46058427e-18
1.641175471e-18
1.080972198e-18
7.025148392e-19
4.511672614e-19
2.87242497e-19
1.821354229e-19
1.156143545e-19
7.381380422e-20
4.755558172e-20
3.096434363e-20
2.036767598e-20
1.350591611e-20
8.999904778e-21
6.006144425e-21
4.002209373e-21
2.6573967e-21
1.756401463e-21
1.155300504e-21
7.562330542e-22
4.922785497e-22
3.179683781e-22
2.029089552e-22
1.271596062e-22
7.774944885e-23
4.61295654e-23
2.647573504e-23
1.469784763e-23
7.914629806e-24
4.155783168e-24
2.14197726e-24
1.091170256e-24
5.526027135e-25
2.792368174e-25
1.409267735e-25
7.091357287e-26
3.544081662e-26
1.750033748e-26
8.482557848e-27
3.998232806e-27
1.80112041e-27
7.464205943e-28
2.591364498e-28
6.071786787e-29
4.860897032e-30
4.570648906e-32
-1.465935729e-05
-3.266486312e-08
-5.733335681e-10
-3.165986883e-11
-3.156359387e-12
-3.863188218e-13
-4.210491923e-14
-9.505211942e-16
2.545555131e-15
2.019298867e-15
1.324494973e-15
8.282860396e-16
5.050522887e-16
3.03957354e-16
1.815973461e-16
1.08073128e-16
6.42037544e-17
3.813473461e-17
2.270252078e-17
1.358618405e-17
8.203840088e-18
5.017869619e-18
3.118999168e-18
1.973219921e-18
1.27032016e-18
8.305206387e-19
5.494911296e-19
3.663018925e-19
2.449490361e-19
1.636946725e-19
1.090478374e-19
7.232686529e-20
4.774701749e-20
3.137420287e-20
2.050980756e-20
1.331066787e-20
8.538913039e-21
5.380962897e-21
3.308305947e-21
1.973175434e-21
1.138033099e-21
6.346878625e-22
3.433234658e-22
1.811150348e-22
9.381667515e-23
4.805095683e-23
2.447507697e-23
1.244209747e-23
6.317500771e-24
3.197578431e-24
1.606919787e-24
7.97652423e-25
3.885721508e-25
1.840192314e-25
8.325319234e-26
3.465971977e-26
1.216509479e-26
2.965643825e-27
2.945965255e-28
5.260321403e-30
-5.878002373e-05
-1.013160321e-07
-1.362335775e-09
-1.071753866e-10
-1.614276799e-11
-2.998197799e-12
-5.497238894e-13
-7.605116361e-14
2.022262228e-14
3.507063482e-14
2.99962178e-14
2.138207694e-14
1.382635506e-14
8.433667453e-15
4.936924017e-15
2.811317906e-15
1.572817419e-15
8.726388098e-16
4.847693951e-16
2.719605265e-16
1.552358768e-16
9.063339394e-17
5.430522107e-17
3.341588837e-17
2.108294247e-17
1.359079058e-17
8.908162425e-18
5.904644241e-18
3.937705244e-18
2.630927056e-18
1.75601018e-18
1.169110915e-18
7.760452437e-19
5.135469337e-19
3.385881908e-19
2.219064155e-19
1.438917911e-19
9.169346233e-20
5.700234094e-20
3.436028281e-20
2.001507407e-20
1.126586956e-20
6.146857092e-21
3.269522004e-21
1.707413759e-21
8.817366062e-22
4.529526905e-22
2.322792802e-22
1.189831936e-22
6.075308131e-23
3.079640985e-23
1.541618715e-23
7.570628568e-24
3.612135729e-24
1.644892845e-24
6.888790547e-25
2.444906293e-25
6.114116157e-26
6.733331509e-27
1.603279515e-28
-0.0009133230411
-1.932599858e-06
-8.628618667e-09
-4.198877067e-10
-7.69364934e-11
-2.115284994e-11
-6.574185402e-12
-2.055045921e-12
-4.950265115e-13
4.431192195e-14
1.931079596e-13
1.943921496e-13
1.502609367e-13
1.025763159e-13
6.469108768e-14
3.862175151e-14
2.212219199e-14
1.231627201e-14
6.744062268e-15
3.680933486e-15
2.027578969e-15
1.139004328e-15
6.571316887e-16
3.906475968e-16
2.392218251e-16
1.504004613e-16
9.65891967e-17
6.29947059e-17
4.149412755e-17
2.748240872e-17
1.824812988e-17
1.212880718e-17
8.066582163e-18
5.368366432e-18
3.572778052e-18
2.371354025e-18
1.560886751e-18
1.010834566e-18
6.386746341e-19
3.910612201e-19
2.311961471e-19
1.319545482e-19
7.294700671e-20
3.92895147e-20
2.076839731e-20
1.085341658e-20
5.640752174e-21
2.925549204e-21
1.515042059e-21
7.818862936e-22
4.006127269e-22
2.027271394e-22
1.006350478e-22
4.851291426e-23
2.229673979e-23
9.416078134e-24
3.384944206e-24
8.686475832e-25
1.039541407e-25
3.273816507e-27
-0.006600362072
-3.223262263e-05
-1.113661026e-07
-2.178099934e-09
-3.750513244e-10
-1.320991472e-10
-5.370543255e-11
-2.206110518e-11
-8.58113766e-12
-2.768476749e-12
-3.654037778e-13
4.902955168e-13
6.700175628e-13
5.893200955e-13
4.381283879e-13
2.958307271e-13
1.866474343e-13
1.121104078e-13
6.489167915e-14
3.670397199e-14
2.0535356e-14
1.15202996e-14
6.547535523e-15
3.800210129e-15
2.260480091e-15
1.378271799e-15
8.590406457e-16
5.44989753e-16
3.503259146e-16
2.272678384e-16
1.483796567e-16
9.735871798e-17
6.419849466e-17
4.257308672e-17
2.839631604e-17
1.900353912e-17
1.267851924e-17
8.351831124e-18
5.376399682e-18
3.354026699e-18
2.018270134e-18
1.170911947e-18
6.571443607e-19
3.590393701e-19
1.924804291e-19
1.020219887e-19
5.377212298e-20
2.826700777e-20
1.482494524e-20
7.74186135e-21
4.011627965e-21
2.052845365e-21
1.030660708e-21
5.025267138e-22
2.335261405e-22
9.971490116e-23
3.639097306e-23
9.621164793e-24
1.251908064e-24
5.456514204e-26
-0.03819575027
-0.0004631435497
-2.432714152e-06
-2.177242344e-08
-2.165864147e-09
-6.916359359e-10
-2.929975612e-10
-1.316660709e-10
-5.94671663e-11
-2.581701727e-11
-9.965395628e-12
-2.692148584e-12
3.742600529e-13
1.410040739e-12
1.525504381e-12
1.282909742e-12
9.530017422e-13
6.540476195e-13
4.234884103e-13
2.627933603e-13
1.580803772e-13
9.339379521e-14
5.474558281e-14
3.217802769e-14
1.908582637e-14
1.147700115e-14
7.000865548e-15
4.327368273e-15
2.703955501e-15
1.704458578e-15
1.082452036e-15
6.92427372e-16
4.465980902e-16
2.910308447e-16
1.920185627e-16
1.28174835e-16
8.602746168e-17
5.741820909e-17
3.763244649e-17
2.395399704e-17
1.470227144e-17
8.682467162e-18
4.946756684e-18
2.73745111e-18
1.485079383e-18
7.969848573e-19
4.257784619e-19
2.270475986e-19
1.208026898e-19
6.396755977e-20
3.358275383e-20
1.739848472e-20
8.840029652e-21
4.361895598e-21
2.052828574e-21
8.898250303e-22
3.317403563e-22
9.137613623e-23
1.314557515e-23
8.19616932e-25
-0.1352904889
-0.004255570875
-5.136553105e-05
-4.220454964e-07
-1.263753691e-08
-2.580158777e-09
-1.002566434e-09
-4.617628084e-10
-2.240484495e-10
-1.094368993e-10
-5.187227281e-11
-2.262182364e-11
-7.983413337e-12
-1.026497057e-12
1.905826655e-12
2.794938101e-12
2.719639872e-12
2.259896131e-12
1.712766503e-12
1.217789171e-12
8.24796938e-13
5.385813172e-13
3.422452953e-13
2.136940714e-13
1.320781038e-13
8.140058184e-14
5.020969969e-14
3.106450564e-14
1.926901537e-14
1.197395119e-14
7.44898448e-15
4.642958978e-15
2.907087482e-15
1.836326146e-15
1.17665571e-15
7.682111617e-16
5.099600818e-16
3.406202274e-16
2.256791697e-16
1.462334524e-16
9.16432533e-17
5.524197901e-17
3.202458662e-17
1.794650592e-17
9.820561856e-18
5.308494857e-18
2.858950045e-18
1.539913804e-18
8.292475578e-19
4.450779322e-19
2.370163246e-19
1.2456425e-19
6.418761188e-20
3.212118422e-20
1.535352111e-20
6.791623829e-21
2.610955578e-21
7.611742307e-22
1.244282399e-22
1.116656128e-23
-0.2788804526
-0.02893753064
-0.0007113028356
-8.253747338e-06
-1.210540044e-07
-9.950401202e-09
-2.742261056e-09
-1.16778455e-09
-5.705938106e-10
-2.92482587e-10
-1.510439049e-10
-7.60943033e-11
-3.581652505e-11
-1.435958196e-11
-3.329724089e-12
1.907423723e-12
3.979235302e-12
4.393590986e-12
4.013555468e-12
3.322226208e-12
2.57727496e-12
1.904767033e-12
1.353806864e-12
9.319946152e-13
6.253445762e-13
4.114750788e-13
2.668682987e-13
1.713334967e-13
1.091208405e-13
6.902410852e-14
4.334527177e-14
2.702518755e-14
1.675291489e-14
1.036688159e-14
6.445382588e-15
4.062570469e-15
2.61465555e-15
1.712485856e-15
1.127573536e-15
7.357209135e-16
4.692216858e-16
2.893157671e-16
1.715022597e-16
9.780951235e-17
5.41050151e-17
2.940819333e-17
1.588737258e-17
8.585423245e-18
4.64792179e-18
2.515340939e-18
1.354586244e-18
7.216743497e-19
3.776257944e-19
1.921546896e-19
9.358441741e-20
4.238791358e-20
1.686978933e-20
5.219275047e-21
9.681459921e-22
1.184643687e-22
-0.4160599857
-0.08609362089
-0.004270872799
-0.0001164362006
-1.491030477e-06
-4.924158375e-08
-7.496755779e-09
-2.558676986e-09
-1.180851084e-09
-6.082784687e-10
-3.266911599e-10
-1.766907877e-10
-9.3512989e-11
-4.664068405e-11
-2.0327002e-11
-5.929434895e-12
1.507226543e-12
4.909164767e-12
6.03390363e-12
5.941043979e-12
5.262800251e-12
4.367216989e-12
3.458707726e-12
2.639972762e-12
1.953196566e-12
1.406515462e-12
9.886414015e-13
6.801916761e-13
4.592361574e-13
3.049495071e-13
1.993905417e-13
1.284358595e-13
8.151919815e-14
5.107278141e-14
3.170738433e-14
1.96361783e-14
1.225103149e-14
7.762853556e-15
4.982134511e-15
3.206437642e-15
2.047059803e-15
1.282992486e-15
7.807867485e-16
4.57527664e-16
2.579816411e-16
1.41652822e-16
7.683299665e-17
4.15362735e-17
2.24747566e-17
1.217828176e-17
6.591967657e-18
3.546231784e-18
1.881953488e-18
9.749373768e-19
4.853302241e-19
2.259651966e-19
9.345459654e-20
3.077118402e-20
6.462350418e-21
1.021042696e-21
-0.5334029083
-0.1723630525
-0.01642881291
-0.0007960878146
-1.980152272e-05
-3.753332838e-07
-2.466256864e-08
-5.633145177e-09
-2.248851302e-09
-1.112617049e-09
-6.012259718e-10
-3.370494586e-10
-1.902347489e-10
-1.05307455e-10
-5.527455434e-11
-2.579677746e-11
-8.75269684e-12
6.810397496e-13
5.466660224e-12
7.460749448e-12
7.836694292e-12
7.333870416e-12
6.412430115e-12
5.349584185e-12
4.304436502e-12
3.361161109e-12
2.556962621e-12
1.899703858e-12
1.380359509e-12
9.818714727e-13
6.839343672e-13
4.664989169e-13
3.115725879e-13
2.039049141e-13
1.31021799e-13
8.292936427e-14
5.193503066e-14
3.242280653e-14
2.030997547e-14
1.277357836e-14
8.019413356e-15
4.99589861e-15
3.072054818e-15
1.849438855e-15
1.077453993e-15
6.055173296e-16
3.320213134e-16
1.800066817e-16
9.726659619e-17
5.255873252e-17
2.841616044e-17
1.533661972e-17
8.215468603e-18
4.32394065e-18
2.201218744e-18
1.05624315e-18
4.553919945e-19
1.599553032e-19
3.787206465e-20
7.325459299e-21
-0.6236558422
-0.2737340318
-0.05077563289
-0.003427089589
-0.0001560446941
-3.489921e-06
-1.137685226e-07
-1.390930199e-08
-4.261258981e-09
-1.921060189e-09
-1.012831401e-09
-5.737159119e-10
-3.355182849e-10
-1.973157264e-10
-1.139281294e-10
-6.265408257e-11
-3.106254937e-11
-1.186828143e-11
-6.188957474e-13
5.561855564e-12
8.540948877e-12
9.541571545e-12
9.369136631e-12
8.551602425e-12
7.430384619e-12
6.220799339e-12
5.052855724e-12
3.998866719e-12
3.091789231e-12
2.339291744e-12
1.733755245e-12
1.258929195e-12
8.950698066e-13
6.226947975e-13
4.239250787e-13
2.826732834e-13
1.848675867e-13
1.187636035e-13
7.517887259e-14
4.708463786e-14
2.927605696e-14
1.80557027e-14
1.102385885e-14
6.655263608e-15
3.959382195e-15
2.300070494e-15
1.296912806e-15
7.12820914e-16
3.860421982e-16
2.079589394e-16
1.119921674e-16
6.034065116e-17
3.242923679e-17
1.724883732e-17
8.951605721e-18
4.423417503e-18
1.990901058e-18
7.468349342e-19
1.981290676e-19
4.471404176e-20
-0.7733068384
-0.3982096841
-0.1125047026
-0.01102549114
-0.000822022493
-3.675591334e-05
-9.840865762e-07
-5.182316951e-08
-9.12036665e-09
-3.29373124e-09
-1.609709967e-09
-8.955424673e-10
-5.301833836e-10
-3.22459489e-10
-1.965483114e-10
-1.176447439e-10
-6.731746915e-11
-3.506748422e-11
-1.462314912e-11
-2.014930775e-12
5.377779359e-12
9.312436441e-12
1.098780098e-11
1.122978109e-11
1.060799921e-11
9.512635593e-12
8.206953474e-12
6.863687464e-12
5.590462387e-12
4.448140414e-12
3.464614346e-12
2.645377974e-12
1.981429868e-12
1.456075795e-12
1.049641632e-12
7.422602365e-13
5.147716349e-13
3.498385992e-13
2.326944073e-13
1.512958826e-13
9.62601906e-14
6.010196359e-14
3.689875129e-14
2.230439031e-14
1.329942063e-14
7.827382719e-15
4.529696575e-15
2.563446466e-15
1.41544619e-15
7.668263057e-16
4.116963759e-16
2.208047121e-16
1.185054999e-16
6.33376346e-17
3.331888909e-17
1.688704077e-17
7.924832583e-18
3.176534402e-18
9.387578728e-19
2.373030791e-19
-0.7998410498
-0.5199472343
-0.1865482007
-0.02957882657
-0.002620268489
-0.0002042435396
-9.503383048e-06
-3.446926238e-07
-2.7043346e-08
-6.045835328e-09
-2.435907877e-09
-1.264455769e-09
-7.335760466e-10
-4.509086029e-10
-2.813664033e-10
-1.772702785e-10
-1.09325363e-10
-6.422221152e-11
-3.421050874e-11
-1.446221801e-11
-1.79639822e-12
5.958501203e-12
1.032253281e-11
1.237548572e-11
1.289023282e-11
1.242159687e-11
1.136710893e-11
1.000908581e-11
8.544218963e-12
7.104639845e-12
5.773368571e-12
4.596106582e-12
3.590915796e-12
2.756973125e-12
2.08184787e-12
1.546764184e-12
1.13051791e-12
8.119487289e-13
5.717712591e-13
3.938046645e-13
2.645153012e-13
1.729624548e-13
1.100490191e-13
6.816789911e-14
4.126323148e-14
2.450943387e-14
1.432172458e-14
8.248017292e-15
4.672360276e-15
2.592723671e-15
1.410402516e-15
7.575050162e-16
4.051682438e-16
2.164311688e-16
1.147077737e-16
5.929397348e-17
2.891564703e-17
1.23970348e-17
4.070472325e-18
1.117736485e-18
-0.4793682389
-0.6085755111
-0.2665870218
-0.06617692464
-0.00720311409
-0.0007206574882
-5.880162308e-05
-3.038634805e-06
-1.456226961e-07
-1.486995824e-08
-3.745855029e-09
-1.584107025e-09
-8.527680883e-10
-5.138605398e-10
-3.208541011e-10
-2.061845151e-10
-1.311498209e-10
-8.075832825e-11
-4.649548722e-11
-2.321986917e-11
-7.623397022e-12
2.532693235e-12
8.819722198e-12
1.236778263e-11
1.4000217e-11
1.432022084e-11
1.377031293e-11
1.267618276e-11
1.127920616e-11
9.757471009e-12
8.238130724e-12
6.807496593e-12
5.519211761e-12
4.399658821e-12
3.454257633e-12
2.674227753e-12
2.042410301e-12
1.538029713e-12
1.140111411e-12
8.296461887e-13
5.905760597e-13
4.095210227e-13
2.756691296e-13
1.796867572e-13
1.133652587e-13
6.938216377e-14
4.135500144e-14
2.411769751e-14
1.383524262e-14
7.822041445e-15
4.353483728e-15
2.382006505e-15
1.285823758e-15
6.889384536e-16
3.66851822e-16
1.923729641e-16
9.691177516e-17
4.430802937e-17
1.615847852e-17
4.753264569e-18
0.05654080928
-0.66295719
-0.3509410274
-0.1198784125
-0.01851534233
-0.0021330754
-0.0002312374708
-2.059298807e-05
-1.27599164e-06
-7.516310567e-08
-8.345024521e-09
-2.068377555e-09
-8.543514031e-10
-4.600328208e-10
-2.75184981e-10
-1.717436479e-10
-1.076232263e-10
-6.558237108e-11
-3.719709977e-11
-1.782324174e-11
-4.655724406e-12
4.12166677e-12
9.746857741e-12
1.309553049e-11
1.480367866e-11
1.534092089e-11
1.505801231e-11
1.421900881e-11
1.302324312e-11
1.162442572e-11
1.014460964e-11
8.676205849e-12
7.285162989e-12
6.017414728e-12
4.898913539e-12
3.936830726e-12
3.125973484e-12
2.453251825e-12
1.901143712e-12
1.451779272e-12
1.089000892e-12
7.992089179e-13
5.712249143e-13
3.958282539e-13
2.648280404e-13
1.706864116e-13
1.060353642e-13
6.371501491e-14
3.725086986e-14
2.133890083e-14
1.204363204e-14
6.710138013e-15
3.690066315e-15
2.008004825e-15
1.083628312e-15
5.777289091e-16
2.993973198e-16
1.447276834e-16
5.838111817e-17
1.846746791e-17
0.7546955641
-0.6914952418
-0.4383810185
-0.1827427425
-0.04224791308
-0.005526140057
-0.0007196298304
-8.706962955e-05
-8.96880589e-06
-6.998965036e-07
-4.733402514e-08
-4.720710441e-09
-9.903295295e-10
-3.660526925e-10
-1.80250257e-10
-9.952122449e-11
-5.603507757e-11
-2.981550711e-11
-1.302558794e-11
-1.959793444e-12
5.375581768e-12
1.01604813e-11
1.314564041e-11
1.483567856e-11
1.55839858e-11
1.56457547e-11
1.520974486e-11
1.441831983e-11
1.338121426e-11
1.218566435e-11
1.090490149e-11
9.601381136e-12
8.326780213e-12
7.120386038e-12
6.010652261e-12
5.015178507e-12
4.139271565e-12
3.379886949e-12