/*--------------------------------*- C++ -*----------------------------------*\
  =========                 |
  \\      /  F ield         | OpenFOAM: The Open Source CFD Toolbox
   \\    /   O peration     | Website:  https://openfoam.org
    \\  /    A nd           | Version:  10
     \\/     M anipulation  |
\*---------------------------------------------------------------------------*/
FoamFile
{
    format      ascii;
    class       volScalarField;
    location    "3000";
    object      RR.HCNN;
}
// * * * * * * * * * * * * * * * * * * * * * * * * * * * * * * * * * * * * * //

dimensions      [1 -3 -1 0 0 0 0];

internalField   nonuniform List<scalar> 
5170
(
-1.212174538e-75
-5.434987096e-76
-9.870250711e-77
-7.154106775e-78
-1.728605715e-79
-8.519721866e-73
-3.581310111e-73
-5.476726444e-74
-3.022557598e-75
-6.979537482e-77
-5.879989238e-70
-2.310580566e-70
-2.944580686e-71
-1.304448546e-72
-3.460176229e-74
-4.008859042e-67
-1.476136074e-67
-1.590743723e-68
-5.736549848e-70
-2.047829501e-71
-2.722809599e-64
-9.512391375e-65
-8.839878839e-66
-2.681245644e-67
-1.110804589e-68
-1.853651889e-61
-6.216598945e-62
-4.989959091e-63
-1.311371727e-64
-6.641648909e-66
-1.274474635e-58
-4.121945317e-59
-2.936750466e-60
-6.794169551e-62
-7.125346812e-63
-8.847895861e-56
-2.823005645e-56
-1.860256063e-57
-4.053884403e-59
-1.563120737e-59
-6.266525997e-53
-2.047024332e-53
-1.288004687e-54
-2.900934575e-56
-4.588559715e-56
-4.548559165e-50
-1.583992148e-50
-9.960861601e-52
-3.107089828e-53
-1.453655627e-52
-3.406141865e-47
-1.322874106e-47
-9.211483409e-49
-7.551768934e-50
-4.737194677e-49
-2.625098967e-44
-1.189393626e-44
-1.100184832e-45
-3.362005325e-46
-1.575553815e-45
-2.084495782e-41
-1.161441528e-41
-1.78949519e-42
-1.786818878e-42
-5.344439444e-42
-1.706624429e-38
-1.221542119e-38
-3.758475294e-39
-9.653616814e-39
-2.859783123e-38
-1.430968583e-35
-1.395060623e-35
-9.354585693e-36
-5.022759352e-35
-1.70565943e-34
-1.227959207e-32
-1.695643506e-32
-2.523335391e-32
-2.412326006e-31
-1.026403032e-30
-1.050115532e-29
-2.193874365e-29
-6.955376324e-29
-1.037902855e-27
-6.191014472e-27
-8.956718615e-27
-2.924597527e-26
-1.874260899e-25
-4.135723635e-24
-3.742455967e-23
-7.011754587e-24
-3.796078502e-23
-4.675171557e-22
-1.436092755e-20
-2.267728805e-19
-4.74813635e-21
-4.655632478e-20
-1.107416329e-18
-4.77040637e-17
-1.337201139e-15
4.148983066e-21
8.302216543e-22
4.343543371e-22
1.057874026e-21
4.114621402e-21
-1.431284413e-21
-1.316722284e-22
-9.910377591e-23
-2.394014996e-22
-1.361843225e-21
-5.307168109e-22
-6.102365066e-22
-4.79897203e-22
-6.789658393e-22
-5.899574956e-22
-3.082368186e-22
-2.994083368e-22
-3.126848302e-22
-2.676747014e-22
-2.883870717e-22
-1.787817041e-22
-1.61188773e-22
-1.635550388e-22
-1.965888545e-22
-1.604803315e-22
-1.08162136e-22
-1.157677939e-22
-1.083939644e-22
-1.427528576e-22
-9.459113538e-23
-6.914117313e-23
-8.661147797e-23
-8.571704556e-23
-1.021983668e-22
-5.714631873e-23
-4.553999238e-23
-6.419695788e-23
-6.606213224e-23
-6.975404414e-23
-3.358061171e-23
-3.045918727e-23
-4.633391452e-23
-4.902918918e-23
-4.441853206e-23
-1.926327631e-23
-2.061016878e-23
-3.289975087e-23
-3.496796321e-23
-2.7420208e-23
-1.121064968e-23
-1.402577976e-23
-2.292652811e-23
-2.419011665e-23
-1.702360344e-23
-6.847103271e-24
-9.614969637e-24
-1.582504379e-23
-1.640017082e-23
-1.072912873e-23
-4.42287213e-24
-6.84589339e-24
-1.090000587e-23
-1.105442279e-23
-6.989325315e-24
-3.037980847e-24
-9.494884334e-24
-1.681312193e-23
-1.045341956e-23
-4.586542818e-24
-2.114887974e-24
-5.733645981e-24
-9.967449652e-24
-1.386718075e-23
-1.48253386e-23
-6.068583569e-24
-8.163633987e-23
-4.228067417e-23
-1.967662958e-23
-1.088150546e-23
-3.320379332e-24
-1.362020835e-20
-7.203543385e-21
-2.607041854e-21
-1.505137557e-21
-3.614210096e-22
-2.422447015e-18
-1.441794946e-18
-5.304831122e-19
-4.097958248e-19
-7.937992251e-20
2.953568463e-16
1.226349166e-16
-1.071478284e-16
-1.216199288e-16
-1.646127757e-17
-2.166989578e-14
-3.429874364e-15
4.929770426e-15
4.282102033e-14
-3.043139013e-15
-8.962986147e-19
-1.424287376e-17
-8.034860682e-16
-7.395448555e-14
-3.585972429e-12
-2.394002807e-17
-3.913917529e-16
-2.179940811e-14
-1.584916528e-12
-5.018592775e-11
-1.224833724e-16
-1.821273425e-15
-8.540129952e-14
-4.301607699e-12
-8.741246263e-11
-1.234090128e-14
-2.304980532e-13
-1.186090741e-11
-5.009683228e-10
-8.587714846e-09
-3.908238626e-14
-6.341282322e-13
-2.506238107e-11
-6.790387207e-10
-8.010412068e-09
-7.31291474e-14
-1.014920952e-12
-2.994669294e-11
-5.573576596e-10
-4.753364963e-09
-1.195399818e-13
-1.492503753e-12
-3.319396883e-11
-4.216766469e-10
-2.561852543e-09
-3.661607097e-13
-5.329824651e-12
-1.11373862e-10
-1.270284516e-09
-8.360541203e-09
-1.244107118e-12
-1.734186671e-11
-2.679889666e-10
-2.221074308e-09
-1.188552548e-08
-3.207537261e-12
-3.747472952e-11
-4.028703778e-10
-2.429442696e-09
-1.042395787e-08
-6.981148749e-12
-5.97187857e-11
-4.377747402e-10
-2.022215647e-09
-7.146923597e-09
-1.367092431e-11
-8.655628717e-11
-5.000613782e-10
-2.089748456e-09
-7.262960762e-09
-2.995969336e-11
-1.520255368e-10
-7.828499967e-10
-3.207013508e-09
-1.132915153e-08
-6.532392181e-11
-2.63243212e-10
-1.156114387e-09
-4.231100321e-09
-1.345862658e-08
-1.270950341e-10
-3.901069293e-10
-1.409941615e-09
-4.448462317e-09
-1.240098555e-08
-2.085150721e-10
-4.967858868e-10
-1.471933285e-09
-4.015008648e-09
-9.919818679e-09
-3.116948072e-10
-6.06536966e-10
-1.527804137e-09
-3.783870848e-09
-8.853547987e-09
-5.351864954e-10
-9.487336318e-10
-2.255871965e-09
-5.610564242e-09
-1.375012179e-08
-1.065992473e-09
-1.750562939e-09
-3.858718435e-09
-9.099333969e-09
-2.135059306e-08
-1.896855886e-09
-2.877521797e-09
-5.72338865e-09
-1.230894908e-08
-2.659269965e-08
-2.82333931e-09
-3.976253794e-09
-7.15673026e-09
-1.402570644e-08
-2.791400414e-08
-3.58645703e-09
-4.768739113e-09
-7.893735649e-09
-1.427984842e-08
-2.649086196e-08
-4.132131059e-09
-5.248957697e-09
-8.127689568e-09
-1.378519909e-08
-2.418882491e-08
-4.617750651e-09
-5.69602017e-09
-8.422646231e-09
-1.367660274e-08
-2.317474497e-08
-5.440293175e-09
-6.601229602e-09
-9.528768231e-09
-1.514634363e-08
-2.52879353e-08
-7.025037089e-09
-8.435434229e-09
-1.197773354e-08
-1.872743393e-08
-3.083303302e-08
-9.662711138e-09
-1.145737935e-08
-1.592304965e-08
-2.430138487e-08
-3.904949858e-08
-1.348939826e-08
-1.576044084e-08
-2.13334056e-08
-3.158254226e-08
-4.922140971e-08
-1.867271705e-08
-2.148302872e-08
-2.83272845e-08
-4.069042929e-08
-6.14657156e-08
-2.565782372e-08
-2.915129288e-08
-3.754928233e-08
-5.250015952e-08
-7.72043444e-08
-3.569770667e-08
-4.012636814e-08
-5.071671583e-08
-6.938617692e-08
-9.957018294e-08
-5.142766011e-08
-5.734744436e-08
-7.130707674e-08
-9.55322032e-08
-1.340884815e-07
-7.79402158e-08
-8.600776546e-08
-1.048926319e-07
-1.368469288e-07
-1.847507357e-07
-1.198196504e-07
-1.297684078e-07
-1.514346646e-07
-1.845120358e-07
-2.259640186e-07
-1.29866509e-07
-1.354969693e-07
-1.434631435e-07
-1.478551546e-07
-1.395502979e-07
-8.295648199e-09
-4.037798641e-09
7.591362488e-09
2.556215327e-08
5.645287966e-08
6.780756702e-08
6.912320565e-08
7.269125982e-08
7.825911584e-08
8.749782497e-08
-1.08273863e-08
-1.092549636e-08
-1.042751322e-08
-7.465316783e-09
1.079543326e-09
-8.50104364e-08
-8.201910038e-08
-7.403369949e-08
-5.756602627e-08
-2.608391244e-08
-6.461902344e-08
-5.399127663e-08
-2.856677881e-08
1.500300585e-08
7.666097212e-08
2.864425979e-08
2.672067462e-08
1.194123809e-08
-3.642824701e-08
-1.283540187e-07
-1.59316989e-07
-1.589241065e-07
-1.558870853e-07
-1.483820342e-07
-1.366692196e-07
-7.02459608e-08
-6.904125612e-08
-6.647694967e-08
-6.279781057e-08
-5.825784104e-08
-2.920599634e-08
-2.878052885e-08
-2.786828583e-08
-2.654869188e-08
-2.489930607e-08
-1.229871205e-08
-1.214303358e-08
-1.180864936e-08
-1.132171714e-08
-1.0707079e-08
-5.238384004e-09
-5.180190658e-09
-5.05459552e-09
-4.870654707e-09
-4.636672321e-09
-2.255270848e-09
-2.232919187e-09
-2.18466566e-09
-2.113713135e-09
-2.022931415e-09
-9.805247624e-10
-9.718079586e-10
-9.529250587e-10
-9.250634895e-10
-8.892456214e-10
-4.303023869e-10
-4.268303382e-10
-4.193114294e-10
-4.08189856e-10
-3.938386013e-10
-1.905225414e-10
-1.891233237e-10
-1.860857101e-10
-1.815814911e-10
-1.757510045e-10
-8.511899627e-11
-8.454528426e-11
-8.330032481e-11
-8.145117786e-11
-7.905098381e-11
-3.837632626e-11
-3.813871782e-11
-3.76220407e-11
-3.685325019e-11
-3.585196361e-11
-1.746739705e-11
-1.736746512e-11
-1.715021359e-11
-1.682648815e-11
-1.640436811e-11
-8.027500857e-12
-7.985039974e-12
-7.892580471e-12
-7.754599265e-12
-7.574316086e-12
-3.725081855e-12
-3.706779119e-12
-3.666928074e-12
-3.607383787e-12
-3.529445752e-12
-1.744881915e-12
-1.736909187e-12
-1.71952678e-12
-1.693521789e-12
-1.659426664e-12
-8.246995301e-13
-8.211789156e-13
-8.135039029e-13
-8.020104937e-13
-7.869200115e-13
-3.930579844e-13
-3.914874783e-13
-3.880602989e-13
-3.829232397e-13
-3.761698618e-13
-1.888056764e-13
-1.880965089e-13
-1.865493383e-13
-1.842287832e-13
-1.811750348e-13
-9.137930709e-14
-9.105711867e-14
-9.035379663e-14
-8.929844654e-14
-8.79087613e-14
-4.469937473e-14
-4.455599898e-14
-4.424345029e-14
-4.377513214e-14
-4.315963975e-14
-2.261644348e-14
-2.256770026e-14
-2.246245823e-14
-2.230761004e-14
-2.210956966e-14
-1.337380688e-14
-1.340278144e-14
-1.346972246e-14
-1.358021446e-14
-1.374520111e-14
-5.973184074e-15
-5.934681905e-15
-5.848595401e-15
-5.713828703e-15
-5.526005614e-15
-4.606643025e-15
-4.570046613e-15
-4.488374446e-15
-4.360875405e-15
-4.183918134e-15
-3.986036179e-15
-3.946544758e-15
-3.859248772e-15
-3.725073118e-15
-3.542687862e-15
-3.552559962e-15
-3.513099421e-15
-3.426520884e-15
-3.295220246e-15
-3.120000209e-15
-3.240788351e-15
-3.206015778e-15
-3.130169967e-15
-3.016289436e-15
-2.866391604e-15
-2.91481744e-15
-2.886217989e-15
-2.82411142e-15
-2.731615658e-15
-2.611256697e-15
-2.973429942e-15
-2.952166516e-15
-2.906078168e-15
-2.837695948e-15
-2.749176922e-15
1.147178389e-12
-4.946906092e-10
-6.760456807e-10
-6.360846375e-08
-4.271882084e-08
-1.899910898e-08
-7.998141202e-09
-3.309156413e-08
-3.963600147e-08
-2.897011994e-08
-1.703899903e-08
-1.804785967e-08
-2.876311169e-08
-3.095738271e-08
-2.554760091e-08
-1.865246504e-08
-1.634914192e-08
-2.68830346e-08
-4.008592073e-08
-4.672096172e-08
-4.611767024e-08
-4.162701894e-08
-3.660375133e-08
-3.435237873e-08
-3.723472855e-08
-4.498615893e-08
-5.593720947e-08
-6.890077692e-08
-8.408530809e-08
-1.034920773e-07
-1.312293911e-07
-1.733482494e-07
-2.303884285e-07
-2.57218287e-07
-1.236929254e-07
8.424942241e-08
9.836271969e-08
1.513346856e-08
1.138673437e-08
1.206446833e-07
-1.941440568e-07
-1.275531859e-07
-5.489391753e-08
-2.365578827e-08
-1.023778228e-08
-4.456277709e-09
-1.952412922e-09
-8.612521702e-10
-3.825662759e-10
-1.711518124e-10
-7.715077682e-11
-3.505743498e-11
-1.606811271e-11
-7.430315082e-12
-3.467039743e-12
-1.632064536e-12
-7.747854704e-13
-3.707298563e-13
-1.787116431e-13
-8.678671564e-14
-4.266395624e-14
-2.195610443e-14
-1.390008143e-14
-5.362786324e-15
-4.028951245e-15
-3.385924644e-15
-2.972238229e-15
-2.741913878e-15
-2.512567594e-15
-2.677085466e-15
-4.383118514e-12
-1.745016359e-11
-1.741858481e-12
4.90374841e-13
-1.54497383e-14
-1.768000543e-09
3.646310578e-09
-5.005922685e-10
-3.130301641e-11
-1.113692454e-12
-2.121224485e-09
-1.10809682e-08
-4.018765624e-08
-4.475586988e-09
-2.923071601e-10
-2.334543736e-07
-2.090872225e-06
3.923502679e-06
-9.886552745e-07
-5.701960829e-08
-1.256747616e-07
-7.763443389e-07
-1.214984398e-06
-2.931756739e-07
-2.318297441e-08
-4.682254211e-08
-2.081700129e-07
-3.544914439e-07
-6.761752281e-08
-7.219645122e-09
-1.733828542e-08
-6.139067714e-08
-8.430041781e-08
-9.063196547e-08
-1.947450355e-08
-9.245994316e-08
-5.903565965e-07
-3.259038381e-06
8.65079451e-06
-1.967879784e-06
-9.865227534e-08
-5.029258987e-07
-2.186620304e-06
1.950596493e-06
-1.216758144e-06
-6.418544391e-08
-2.587176373e-07
-8.72391995e-07
-1.051158523e-07
-4.518544272e-07
-3.436238546e-08
-1.151804315e-07
-3.288287832e-07
-1.209992544e-08
-2.123077279e-07
-3.883753544e-08
-1.5773411e-07
-5.96642245e-07
-1.916528681e-06
4.641131805e-06
-6.310335621e-08
-2.619873334e-07
-9.897681264e-07
-3.461736492e-06
9.326409877e-06
-6.331368662e-08
-2.241272661e-07
-7.057231889e-07
-2.0025192e-06
1.93794391e-06
-4.850030954e-08
-1.472031287e-07
-3.997714217e-07
-9.822111115e-07
7.921991579e-07
-3.336490229e-08
-9.033543504e-08
-2.231926313e-07
-5.065635213e-07
4.343706059e-07
-2.937560304e-08
-8.337683056e-08
-2.289079163e-07
-6.168549254e-07
-8.848466995e-07
-5.103786479e-08
-1.622226161e-07
-4.932387107e-07
-1.44867123e-06
-3.742190122e-06
-7.393767158e-08
-2.183257388e-07
-6.067365126e-07
-1.603151284e-06
-3.804780853e-06
-8.21737254e-08
-2.199762274e-07
-5.550518751e-07
-1.331334492e-06
-2.8705979e-06
-7.756750682e-08
-1.908586835e-07
-4.467960201e-07
-1.00108358e-06
-2.007027314e-06
-6.74501251e-08
-1.554720437e-07
-3.450369246e-07
-7.392900525e-07
-1.403344584e-06
-5.765470356e-08
-1.270497015e-07
-2.72862812e-07
-5.699104556e-07
-1.037254417e-06
-5.335072987e-08
-1.157337733e-07
-2.475150164e-07
-5.176579826e-07
-9.393376558e-07
-5.767959424e-08
-1.256132788e-07
-2.714973287e-07
-5.752507679e-07
-1.067920467e-06
-6.921941647e-08
-1.491209853e-07
-3.18978827e-07
-6.663898191e-07
-1.208944806e-06
-8.46777977e-08
-1.769503681e-07
-3.670868854e-07
-7.384251803e-07
-1.239601037e-06
-1.021142137e-07
-2.05251673e-07
-4.095027766e-07
-7.801536777e-07
-1.131505881e-06
-1.219464435e-07
-2.356729717e-07
-4.502888946e-07
-7.912066999e-07
-8.674977655e-07
-1.473085695e-07
-2.736173339e-07
-4.946506472e-07
-7.53941622e-07
-4.291458687e-07
-1.828637209e-07
-3.250209618e-07
-5.342605449e-07
-6.153976628e-07
1.503651433e-07
-2.347073269e-07
-3.839252042e-07
-5.172012493e-07
-3.09388949e-07
7.298575794e-07
-2.919803221e-07
-3.932904873e-07
-3.356852239e-07
1.339992494e-07
1.120861798e-06
-2.745556684e-07
-2.253447786e-07
2.817474263e-08
5.176410036e-07
1.271063566e-06
-6.84972212e-08
8.477608987e-08
3.271153929e-07
6.809533607e-07
1.291204437e-06
1.28606747e-07
2.223444698e-07
3.675692735e-07
6.678618965e-07
9.903847671e-07
1.119132025e-07
1.721289759e-07
3.333573768e-07
6.559199402e-07
-1.216844781e-07
4.013440322e-08
1.519440822e-07
3.846705716e-07
1.19443626e-07
-5.155959369e-07
7.770442101e-08
2.416811716e-07
3.119775617e-08
-4.153092704e-07
-3.004222106e-07
1.186657573e-07
-1.679091397e-07
-3.121117151e-07
-2.310849971e-07
-1.642775788e-07
-2.326885843e-07
-2.02896458e-07
-1.561944682e-07
-1.170813567e-07
-8.600553051e-08
-1.140053977e-07
-9.318007568e-08
-7.398454176e-08
-5.729076885e-08
-4.341862004e-08
-4.99491737e-08
-4.197741007e-08
-3.429792603e-08
-2.733473867e-08
-2.131549427e-08
-2.181707254e-08
-1.874964881e-08
-1.569145745e-08
-1.282178435e-08
-1.025568903e-08
-9.540854428e-09
-8.3488714e-09
-7.12836958e-09
-5.950627648e-09
-4.866895213e-09
-4.187501524e-09
-3.718940078e-09
-3.228912516e-09
-2.745097566e-09
-2.289053321e-09
-1.84708492e-09
-1.660645852e-09
-1.462310838e-09
-1.262758228e-09
-1.070809797e-09
-8.193620025e-10
-7.442820925e-10
-6.632837893e-10
-5.804949813e-10
-4.994834148e-10
-3.656747123e-10
-3.350845021e-10
-3.016961341e-10
-2.671136778e-10
-2.327791641e-10
-1.642526475e-10
-1.516483656e-10
-1.377551704e-10
-1.232016568e-10
-1.085688105e-10
-7.429677722e-11
-6.904668016e-11
-6.320893302e-11
-5.703494008e-11
-5.075826961e-11
-3.386390933e-11
-3.165237178e-11
-2.917655087e-11
-2.653440707e-11
-2.382246719e-11
-1.556266385e-11
-1.462088177e-11
-1.355939392e-11
-1.241831554e-11
-1.123694236e-11
-7.213745128e-12
-6.808170131e-12
-6.348408741e-12
-5.850807332e-12
-5.331623538e-12
-3.373140637e-12
-3.196501336e-12
-2.995229616e-12
-2.776060449e-12
-2.545781935e-12
-1.590876606e-12
-1.513082879e-12
-1.424030558e-12
-1.326526892e-12
-1.223434744e-12
-7.565127979e-13
-7.218766426e-13
-6.820639712e-13
-6.382590854e-13
-5.916823706e-13
-3.625355691e-13
-3.469536213e-13
-3.289770475e-13
-3.091117954e-13
-2.878840028e-13
-1.750001914e-13
-1.679230426e-13
-1.597321916e-13
-1.506466889e-13
-1.408962181e-13
-8.509612215e-14
-8.186639848e-14
-7.812109248e-14
-7.395795186e-14
-6.948078955e-14
-4.191815702e-14
-4.05010568e-14
-3.887185701e-14
-3.708450993e-14
-3.520024959e-14
-2.17291767e-14
-2.133514099e-14
-2.094520474e-14
-2.061831769e-14
-2.043073399e-14
-1.414738026e-14
-1.475562143e-14
-1.478527563e-14
-1.244616808e-14
-9.185982372e-15
-5.113623603e-15
-4.576749027e-15
-3.87169651e-15
-2.978051366e-15
-1.881277923e-15
-3.801369695e-15
-3.307821025e-15
-2.673270962e-15
-1.894137864e-15
-9.809064994e-16
-3.162238255e-15
-2.693115808e-15
-2.119831908e-15
-1.454058951e-15
-7.195753696e-16
-2.76537308e-15
-2.346223888e-15
-1.857895578e-15
-1.320443516e-15
-7.623034029e-16
-2.569945835e-15
-2.231414663e-15
-1.852376611e-15
-1.454383206e-15
-1.063573408e-15
-2.377796265e-15
-2.119039641e-15
-1.839551013e-15
-1.558815881e-15
-1.298184233e-15
-2.578844143e-15
-2.392660757e-15
-2.194677483e-15
-1.999445248e-15
-1.822186122e-15
-1.086073395e-14
-1.780531795e-16
-7.549123907e-18
-7.025687566e-19
-1.435936684e-19
-3.654691068e-20
-9.081209868e-21
-2.158863886e-21
-5.183647256e-22
-1.450350991e-22
-5.971588653e-23
-3.875700356e-23
-3.229566988e-23
-2.906125377e-23
-2.636564096e-23
-2.353909652e-23
-2.048010909e-23
-1.728198024e-23
-1.410863597e-23
-1.112597187e-23
-8.467890687e-24
-6.218042197e-24
-4.405255344e-24
-3.011518688e-24
-1.987048309e-24
-1.266412431e-24
-7.804498876e-25
-4.65565181e-25
-2.691710264e-25
-1.510478708e-25
-8.240637317e-26
-4.379563514e-26
-2.273119883e-26
-1.156118406e-26
-5.787982323e-27
-2.868332425e-27
-1.415428012e-27
-6.986395888e-28
-3.45200276e-28
-1.700224556e-28
-8.276622754e-29
-3.940644683e-29
-1.817293265e-29
-8.060744085e-30
-3.428248189e-30
-1.401103313e-30
-5.55932883e-31
-2.19319391e-31
-8.997511689e-32
-4.091346026e-32
-2.168240581e-32
-1.330709317e-32
-8.965485274e-33
-6.264422774e-33
-4.349046472e-33
-2.886187004e-33
-1.731482406e-33
-8.531218742e-34
-2.82176766e-34
-5.32595889e-35
-1.190724164e-13
-2.062396356e-15
-7.530681695e-17
-6.350014715e-18
-9.685585034e-19
-1.806133987e-19
-3.509623715e-20
-7.211182934e-21
-1.83759847e-21
-7.329265853e-22
-4.586848466e-22
-3.633050774e-22
-3.103866719e-22
-2.683985785e-22
-2.295118264e-22
-1.923859334e-22
-1.57620101e-22
-1.26079334e-22
-9.838880637e-23
-7.479391749e-23
-5.529920686e-23
-3.970711979e-23
-2.766450735e-23
-1.868712564e-23
-1.223660342e-23
-7.768245639e-24
-4.783306498e-24
-2.858863104e-24
-1.659965132e-24
-9.373382307e-25
-5.15432182e-25
-2.765128091e-25
-1.450795137e-25
-7.470990201e-26
-3.794477939e-26
-1.912205458e-26
-9.618476101e-27
-4.846619839e-27
-2.443905273e-27
-1.225359055e-27
-6.047304256e-28
-2.905179298e-28
-1.345858453e-28
-5.974691563e-29
-2.53595073e-29
-1.032041238e-29
-4.068706621e-30
-1.590102641e-30
-6.433339806e-31
-2.871442744e-31
-1.492928134e-31
-9.03872684e-32
-6.050044011e-32
-4.219624951e-32
-2.930492799e-32
-1.94939222e-32
-1.186087141e-32
-6.157320531e-33
-2.366854992e-33
-4.19126909e-34
-7.703342659e-12
-7.112946723e-14
-8.356020778e-16
-3.974677312e-17
-3.869206793e-18
-5.657674632e-19
-1.013750593e-19
-2.333441186e-20
-7.898351461e-21
-4.011427011e-21
-2.691738782e-21
-2.102017136e-21
-1.74453285e-21
-1.47762662e-21
-1.240503635e-21
-1.015584184e-21
-8.06172267e-22
-6.20633832e-22
-4.644733365e-22
-3.385424146e-22
-2.407500382e-22
-1.671172759e-22
-1.132562545e-22
-7.496373746e-23
-4.840287758e-23
-3.047218449e-23
-1.870331638e-23
-1.119458697e-23
-6.537372479e-24
-3.729152003e-24
-2.079296565e-24
-1.134686582e-24
-6.07420148e-25
-3.201146597e-25
-1.669307688e-25
-8.666268064e-26
-4.502911964e-26
-2.345537615e-26
-1.219906086e-26
-6.276036638e-27
-3.156057287e-27
-1.533885288e-27
-7.143015419e-28
-3.17118777e-28
-1.340817401e-28
-5.418162143e-29
-2.113912965e-29
-8.133218852e-30
-3.210663799e-30
-1.382787753e-30
-6.906423638e-31
-4.051939269e-31
-2.666357784e-31
-1.847932432e-31
-1.282312063e-31
-8.555769572e-32
-5.277314946e-32
-2.835940028e-32
-1.117246009e-32
-1.758102477e-33
-1.776264214e-09
-2.182928417e-11
-1.27520548e-13
-1.648887036e-15
-6.322526057e-17
-4.877029452e-18
-7.069794978e-19
-1.812769664e-19
-6.68568756e-20
-3.111402854e-20
-1.763015015e-20
-1.186647438e-20
-8.970105938e-21
-7.175662672e-21
-5.798882962e-21
-4.616191642e-21
-3.60225143e-21
-2.737306022e-21
-2.01142478e-21
-1.428456608e-21
-9.829895244e-22
-6.577254623e-22
-4.293817972e-22
-2.742007675e-22
-1.716810411e-22
-1.055780692e-22
-6.380074828e-23
-3.788178266e-23
-2.20981955e-23
-1.266423423e-23
-7.13692108e-24
-3.961250612e-24
-2.170750077e-24
-1.178585796e-24
-6.37018853e-25
-3.444920979e-25
-1.86939525e-25
-1.015874828e-25
-5.484861453e-26
-2.907322866e-26
-1.493892304e-26
-7.361260782e-27
-3.452598502e-27
-1.535171441e-27
-6.469832904e-28
-2.595513891e-28
-1.000980416e-28
-3.78119423e-29
-1.447329576e-29
-5.933850159e-30
-2.783808773e-30
-1.544586936e-30
-9.822345353e-31
-6.707452778e-31
-4.637662383e-31
-3.105208854e-31
-1.936406011e-31
-1.065070693e-31
-4.090809706e-32
-5.733487208e-33
-1.109365784e-09
-2.188037215e-11
-2.026858946e-13
-2.483357376e-15
-1.320019826e-16
-2.259183441e-17
-6.648677051e-18
-2.286067643e-18
-8.617746102e-19
-3.582136927e-19
-1.683288842e-19
-9.165211772e-20
-5.764172451e-20
-4.052131447e-20
-3.032529544e-20
-2.319450892e-20
-1.758314274e-20
-1.300915555e-20
-9.359669943e-21
-6.572330972e-21
-4.463593627e-21
-2.93177636e-21
-1.864448017e-21
-1.151749157e-21
-6.943234362e-22
-4.106621838e-22
-2.39463575e-22
-1.380945957e-22
-7.886819427e-23
-4.463774618e-23
-2.505899501e-23
-1.397345827e-23
-7.756105592e-24
-4.299916901e-24
-2.3914405e-24
-1.339179341e-24
-7.548845028e-25
-4.255637206e-25
-2.371064718e-25
-1.287498652e-25
-6.72830493e-26
-3.352325457e-26
-1.582944099e-26
-7.064645494e-27
-2.982057257e-27
-1.195603213e-27
-4.591569714e-28
-1.714121848e-28
-6.384499896e-29
-2.480969787e-29
-1.072265746e-29
-5.445850541e-30
-3.24632395e-30
-2.14478034e-30
-1.467109521e-30
-9.842843624e-31
-6.202470143e-31
-3.465277385e-31
-1.264379943e-31
-1.627962146e-32
-4.377838624e-10
-2.028317514e-11
-3.342497283e-13
-4.136892274e-15
-2.928582349e-16
-8.976023663e-17
-3.910710964e-17
-1.746678072e-17
-7.728472351e-18
-3.45927148e-18
-1.6196598e-18
-8.216329016e-19
-4.631837579e-19
-2.914122079e-19
-2.00513597e-19
-1.450424476e-19
-1.062213329e-19
-7.684581466e-20
-5.423776273e-20
-3.723619578e-20
-2.483905051e-20
-1.611046805e-20
-1.011385909e-20
-6.143210503e-21
-3.617786045e-21
-2.076604801e-21
-1.168016896e-21
-6.467405612e-22
-3.540469958e-22
-1.925888651e-22
-1.045847353e-22
-5.690470183e-23
-3.112600916e-23
-1.718216773e-23
-9.612802466e-24
-5.465156396e-24
-3.144469026e-24
-1.810738982e-24
-1.027641737e-24
-5.657318094e-25
-2.9812345e-25
-1.490583685e-25
-7.038570443e-26
-3.135562639e-26
-1.321423781e-26
-5.297524161e-27
-2.036669102e-27
-7.5928844e-28
-2.793239217e-28
-1.04544545e-28
-4.188365285e-29
-1.913872793e-29
-1.033667315e-29
-6.412323346e-30
-4.267103791e-30
-2.85266027e-30
-1.816757268e-30
-1.026808264e-30
-3.521888104e-31
-4.296883374e-32
-1.895032966e-09
-2.220473323e-10
-7.219117866e-12
-1.363713958e-13
-3.464138242e-15
-6.210317519e-16
-2.303973558e-16
-9.908759438e-17
-4.395270824e-17
-1.986048659e-17
-9.286184406e-18
-4.629065843e-18
-2.538430504e-18
-1.556500385e-18
-1.053872979e-18
-7.625014694e-19
-5.666834103e-19
-4.203205749e-19
-3.066796635e-19
-2.175453953e-19
-1.501539048e-19
-9.988344824e-20
-6.355221396e-20
-3.879712331e-20
-2.28390732e-20
-1.306556383e-20
-7.279854342e-21
-3.950143113e-21
-2.094543442e-21
-1.092895593e-21
-5.658835136e-22
-2.927819846e-22
-1.524708709e-22
-8.058275705e-23
-4.354424303e-23
-2.415811387e-23
-1.371918832e-23
-7.857675513e-24
-4.45373954e-24
-2.451944444e-24
-1.291189416e-24
-6.440728656e-25
-3.028000571e-25
-1.340230505e-25
-5.605712771e-26
-2.235376722e-26
-8.586654628e-27
-3.209999627e-27
-1.18120785e-27
-4.354803048e-28
-1.661261566e-28
-6.912093879e-29
-3.31986656e-29
-1.86890075e-29
-1.177488286e-29
-7.731757249e-30
-4.953089984e-30
-2.815525188e-30
-9.083779559e-31
-1.072138448e-31
-1.807373937e-07
-1.472722921e-08
-6.92272813e-10
-1.742957676e-11
-3.262414759e-13
-1.700288863e-14
-2.576278087e-15
-6.61168043e-16
-2.069439091e-16
-7.378848388e-17
-2.982103567e-17
-1.369864794e-17
-7.19515633e-18
-4.344118213e-18
-2.984479563e-18
-2.260094687e-18
-1.809951929e-18
-1.47588378e-18
-1.190605596e-18
-9.341423485e-19
-7.02427634e-19
-5.027020844e-19
-3.409871464e-19
-2.212226637e-19
-1.373557786e-19
-8.242654915e-20
-4.734276273e-20
-2.601398907e-20
-1.380164974e-20
-7.140873198e-21
-3.629281134e-21
-1.816247856e-21
-9.025426395e-22
-4.510176611e-22
-2.292784737e-22
-1.19391726e-22
-6.390651585e-23
-3.495734021e-23
-1.919072143e-23
-1.034989378e-23
-5.382958233e-24
-2.663307847e-24
-1.243723079e-24
-5.464360714e-25
-2.264858353e-25
-8.945798187e-26
-3.413731041e-26
-1.274405675e-26
-4.699198292e-27
-1.728093757e-27
-6.442137863e-28
-2.514454901e-28
-1.081751993e-28
-5.379934142e-29
-3.091055226e-29
-1.938847156e-29
-1.226758328e-29
-6.945900727e-30
-2.135505648e-30
-2.411224471e-31
-1.389449767e-07
-1.403357672e-08
-1.227365287e-09
-5.568088467e-11
-1.320951884e-12
-4.527916793e-14
-4.726196303e-15
-1.05734459e-15
-3.409767579e-16
-1.295223079e-16
-5.479911961e-17
-2.567576304e-17
-1.352442105e-17
-8.166424731e-18
-5.667077683e-18
-4.404534328e-18
-3.677489847e-18
-3.173849383e-18
-2.75473525e-18
-2.362853245e-18
-1.98044571e-18
-1.609269214e-18
-1.258166428e-18
-9.364523821e-19
-6.598689189e-19
-4.365644883e-19
-2.703718798e-19
-1.580457038e-19
-8.812085314e-20
-4.748035766e-20
-2.461990535e-20
-1.228981798e-20
-5.998309007e-21
-2.909025463e-21
-1.414630505e-21
-6.91133855e-22
-3.415098526e-22
-1.715087491e-22
-8.728468419e-23
-4.44676391e-23
-2.225859333e-23
-1.078295926e-23
-4.985533833e-24
-2.176961516e-24
-8.942982612e-25
-3.489320335e-25
-1.316029708e-25
-4.867866802e-26
-1.783600037e-26
-6.524035735e-27
-2.403468291e-27
-9.059095442e-28
-3.606145544e-28
-1.591311222e-28
-8.089634074e-29
-4.6709189e-29
-2.846413799e-29
-1.587228789e-29
-4.703614549e-30
-5.206881735e-31
-6.47974177e-08
-7.521723598e-09
-1.064628501e-09
-8.525471732e-11
-3.667645238e-12
-1.064390403e-13
-6.527488654e-15
-1.115783752e-15
-3.520502247e-16
-1.452402537e-16
-6.768615536e-17
-3.429916227e-17
-1.907022804e-17
-1.194673996e-17
-8.553889603e-18
-6.879749399e-18
-5.976432507e-18
-5.393406157e-18
-4.91825392e-18
-4.455713932e-18
-3.969940663e-18
-3.456615828e-18
-2.927370607e-18
-2.400829983e-18
-1.898380614e-18
-1.440472244e-18
-1.043579402e-18
-7.145051823e-19
-4.585821765e-19
-2.73777372e-19
-1.517880008e-19
-7.924261657e-20
-3.975313885e-20
-1.954817975e-20
-9.392357567e-21
-4.432569166e-21
-2.072232296e-21
-9.655322845e-22
-4.484330145e-22
-2.083608293e-22
-9.684982663e-23
-4.440679324e-23
-1.991373967e-23
-8.638617461e-24
-3.569293398e-24
-1.382419617e-24
-5.12356872e-25
-1.859218216e-25
-6.695164631e-26
-2.410665495e-26
-8.728139763e-27
-3.205184141e-27
-1.213530379e-27
-4.884655686e-28
-2.18616168e-28
-1.119747693e-28
-6.32930509e-29
-3.407481916e-29
-9.813120912e-30
-1.085415132e-30
-4.445701876e-08
-7.290899183e-09
-1.238109343e-09
-1.763532476e-10
-1.332749253e-11
-5.392598055e-13
-2.179746267e-14
-2.318842487e-15
-5.410674719e-16
-1.982686836e-16
-8.990017771e-17
-4.55898838e-17
-2.539853504e-17
-1.594108051e-17
-1.154443057e-17
-9.525723923e-18
-8.577488942e-18
-8.061588294e-18
-7.668765222e-18
-7.254704158e-18
-6.760463572e-18
-6.172611226e-18
-5.502881712e-18
-4.776713815e-18
-4.026229033e-18
-3.285581235e-18
-2.587197054e-18
-1.9581656e-18
-1.417781557e-18
-9.77097329e-19
-6.376735721e-19
-3.901376511e-19
-2.222092973e-19
-1.17505893e-19
-5.817921994e-20
-2.770961451e-20
-1.284212049e-20
-5.820560809e-21
-2.553381989e-21
-1.096095143e-21
-4.676203482e-22
-1.987512187e-22
-8.368049782e-23
-3.482355147e-23
-1.428674183e-23
-5.686494549e-24
-2.124982586e-24
-7.495373641e-25
-2.603012774e-25
-9.066445887e-26
-3.186491469e-26
-1.134885103e-26
-4.122529831e-27
-1.550317289e-27
-6.222618127e-28
-2.776857937e-28
-1.392148918e-28
-6.991148904e-29
-1.963178909e-29
-2.207519879e-30
-1.140855324e-06
-1.668652113e-07
-2.387539495e-08
-3.298196445e-09
-3.585015041e-10
-2.211949653e-11
-7.83513701e-13
-3.757221872e-14
-4.117890404e-15
-7.83253057e-16
-2.161462449e-16
-7.855467089e-17
-3.613073917e-17
-2.069088128e-17
-1.463669916e-17
-1.230996556e-17
-1.150038491e-17
-1.124975982e-17
-1.11198663e-17
-1.090735304e-17
-1.052579572e-17
-9.950909012e-18
-9.194137486e-18
-8.288253445e-18
-7.278203579e-18
-6.214374718e-18
-5.147641932e-18
-4.126016978e-18
-3.190415307e-18
-2.371719222e-18
-1.688684732e-18
-1.146789669e-18
-7.39288722e-19
-4.50559303e-19
-2.586923121e-19
-1.386970075e-19
-6.937393964e-20
-3.230448481e-20
-1.415060521e-20
-5.955019736e-21
-2.425150682e-21
-9.666686074e-22
-3.809068624e-22
-1.489342151e-22
-5.78243401e-23
-2.230144488e-23
-8.524654105e-24
-3.149496918e-24
-1.097642913e-24
-3.668814114e-25
-1.219523231e-25
-4.141825564e-26
-1.437755998e-26
-5.109874381e-27
-1.880216279e-27
-7.372050678e-28
-3.180085223e-28
-1.424542939e-28
-3.865449901e-29
-4.455598059e-30
-1.941947315e-06
-2.9938724e-07
-4.545319962e-08
-6.918694022e-09
-9.198698994e-10
-9.852545341e-11
-6.268187319e-12
-2.568815331e-13
-1.456344964e-14
-1.763955637e-15
-3.772984272e-16
-1.140706029e-16
-4.519777801e-17
-2.417748838e-17
-1.732365474e-17
-1.538958341e-17
-1.516988819e-17
-1.548406462e-17
-1.582201766e-17
-1.595041038e-17
-1.576838605e-17
-1.524809279e-17
-1.440622592e-17
-1.328765923e-17
-1.195420297e-17
-1.047807431e-17
-8.936868932e-18
-7.404047081e-18
-5.946120718e-18
-4.618272037e-18
-3.460274483e-18
-2.494115706e-18
-1.723194043e-18
-1.136849993e-18
-7.138541012e-19
-4.250712522e-19
-2.390746647e-19
-1.264552325e-19
-6.24043182e-20
-2.847131829e-20
-1.201046256e-20
-4.721372148e-21
-1.792641376e-21
-6.653780713e-22
-2.438500231e-22
-8.890612772e-23
-3.233013467e-23
-1.176524042e-23