/*--------------------------------*- C++ -*----------------------------------*\
  =========                 |
  \\      /  F ield         | OpenFOAM: The Open Source CFD Toolbox
   \\    /   O peration     | Website:  https://openfoam.org
    \\  /    A nd           | Version:  10
     \\/     M anipulation  |
\*---------------------------------------------------------------------------*/
FoamFile
{
    format      ascii;
    class       volScalarField;
    location    "3000";
    object      RR.HCCOH;
}
// * * * * * * * * * * * * * * * * * * * * * * * * * * * * * * * * * * * * * //

dimensions      [1 -3 -1 0 0 0 0];

internalField   nonuniform List<scalar> 
5170
(
0
0
0
0
0
0
0
0
0
0
0
0
0
0
0
0
0
0
0
0
0
0
0
0
0
0
0
0
0
0
0
0
0
0
0
0
0
0
0
0
0
0
0
0
0
0
0
0
0
0
0
0
0
0
0
0
0
0
0
0
0
0
0
0
0
0
0
0
0
0
0
0
0
0
0
0
0
0
0
0
0
0
0
0
0
0
0
0
-3.086944467e-29
-1.123114097e-27
-1.389654674e-28
-3.070282759e-27
-2.580418499e-25
-5.850981157e-23
-3.578098608e-21
-3.046369402e-23
-1.68415513e-21
-3.094967176e-19
-9.154608494e-17
-1.151921756e-14
3.844557196e-23
2.959384108e-24
-9.748693352e-25
-5.885755677e-25
-5.194510983e-24
-5.339410988e-24
-4.551330868e-24
-1.748076877e-24
-5.843828186e-24
1.126248587e-23
3.425544552e-24
3.03622152e-24
-1.653930356e-24
-2.68995383e-24
-2.095330548e-24
-1.752275195e-24
-1.539015118e-24
-4.610848254e-25
-6.030752749e-25
-1.291492021e-24
-1.094824444e-24
-1.178197618e-24
-1.03413463e-24
-1.226963067e-24
5.050957073e-26
-7.658199876e-25
-8.815315012e-25
-8.00205626e-25
-9.852306227e-25
-6.027125625e-25
1.527233559e-25
-2.929260212e-25
-2.782735153e-25
-7.945865697e-25
-3.747568619e-27
-3.616486703e-25
-4.120853208e-25
-6.265012151e-25
-1.562656169e-24
-4.146043086e-25
1.479163762e-25
-1.368939202e-25
-1.610706408e-25
-2.28099661e-24
-7.794750081e-25
-1.917274163e-25
-1.960855196e-25
-3.776985623e-25
-3.107490717e-25
9.185088348e-26
-3.724897483e-25
-2.054124948e-25
-4.35952826e-25
-2.196158851e-24
-2.751905423e-25
-4.406484549e-23
-2.183940187e-23
-1.049733619e-23
-9.131645013e-24
-5.028117011e-24
-7.243541952e-21
-3.768179585e-21
-1.685594159e-21
-1.438062364e-21
-7.134873716e-22
-1.199948971e-18
-5.734945974e-19
-2.62204248e-19
-2.253101824e-19
-1.035400915e-19
-1.986986467e-16
-7.785451009e-17
-3.661280736e-17
-3.22161093e-17
-1.402984354e-17
-3.316459999e-14
-8.052488041e-15
-4.284618522e-15
-4.082590523e-15
-1.729366971e-15
-4.070984616e-12
-3.460649517e-13
-2.99156573e-13
-4.352179998e-13
-1.893802818e-13
1.59611407e-10
1.652662075e-10
3.65667752e-11
-3.061591577e-11
-1.730737645e-11
8.053431257e-08
4.303278312e-08
2.08082359e-08
4.103719754e-10
-1.119878957e-09
-5.254037688e-07
1.090839008e-06
1.259372437e-06
2.714124674e-07
-2.27208441e-08
-2.426189626e-19
-2.897100084e-17
-2.433198293e-14
-3.346899321e-11
-3.171591235e-08
-2.023803433e-17
-1.974097391e-15
-1.216518349e-12
-9.420252081e-10
-3.460350085e-07
-1.615531604e-16
-1.275967956e-14
-5.644582652e-12
-2.252708735e-09
-3.234566038e-07
-8.459680229e-16
-6.347300105e-14
-2.184636047e-11
-5.060432173e-09
-4.090029643e-07
-4.207559118e-15
-2.999913557e-13
-7.557657756e-11
-1.083280122e-08
-5.980365954e-07
-2.228987829e-14
-1.38131716e-12
-2.522405984e-10
-2.510162217e-08
-1.020419455e-06
-1.335645911e-13
-7.44318207e-12
-1.070792502e-09
-7.610932605e-08
-2.074617186e-06
-8.057278232e-13
-4.203302713e-11
-4.343065369e-09
-1.903217127e-07
-3.447812764e-06
-4.438607121e-12
-2.035910672e-10
-1.323071799e-08
-3.4766659e-07
-4.709383242e-06
-2.246595725e-11
-8.283970572e-10
-3.31890437e-08
-5.754699106e-07
-6.470055583e-06
-1.17240385e-10
-2.948126667e-09
-7.352247417e-08
-9.345298521e-07
-8.965815161e-06
-5.250653313e-10
-8.474365563e-09
-1.426988222e-07
-1.422251982e-06
-1.170699253e-05
-1.995630064e-09
-2.081742288e-08
-2.486426268e-07
-1.990703432e-06
-1.42675313e-05
-6.794501589e-09
-4.715316165e-08
-4.128111005e-07
-2.768425038e-06
-1.728832944e-05
-2.276077346e-08
-1.068633241e-07
-7.026757772e-07
-4.128504087e-06
-2.157701734e-05
-7.562082929e-08
-2.509944594e-07
-1.254676689e-06
-6.474053383e-06
-2.771382837e-05
-2.439514089e-07
-6.061186816e-07
-2.343213625e-06
-1.03322893e-05
-3.535998846e-05
-7.244411245e-07
-1.450726239e-06
-4.70142068e-06
-1.593976965e-05
-4.299276933e-05
-2.163003909e-06
-3.703517172e-06
-9.143556021e-06
-2.293130673e-05
-5.024744169e-05
-5.772835372e-06
-8.326720258e-06
-1.561062612e-05
-3.060599797e-05
-5.793470239e-05
-1.165865044e-05
-1.484850695e-05
-2.303027745e-05
-3.878865791e-05
-6.767547286e-05
-1.833403746e-05
-2.195978806e-05
-3.085996655e-05
-4.821209506e-05
-7.870048179e-05
-2.537452336e-05
-2.943841871e-05
-3.976251252e-05
-5.927361899e-05
-9.213571192e-05
-3.374929408e-05
-3.866332244e-05
-5.108639353e-05
-7.251477726e-05
-0.0001126239422
-4.537773394e-05
-5.165066996e-05
-6.50047493e-05
-9.251388893e-05
-0.0001375048503
-6.300589144e-05
-7.114937486e-05
-9.148662075e-05
-0.0001207663012
-0.0001756967344
-9.125334527e-05
-0.0001020389471
-0.0001274570488
-0.0001696567544
-0.0002406343524
-0.0001372038977
-0.0001518255037
-0.0001874053691
-0.0002387454609
-0.0003320011056
-0.0002063880616
-0.0002242575469
-0.0002802615565
-0.0003650845716
-0.0004919534556
-0.0003250293069
-0.0003593931139
-0.0004191971797
-0.000523932709
-0.0006914090134
-0.0005153008942
-0.0005472118404
-0.0006340805613
-0.0007738246797
-0.0009350806972
-0.0007896275048
-0.0008417059346
-0.0009283827277
-0.001040796606
-0.001232342898
-0.001076393764
-0.001108118631
-0.001281486799
-0.001183536842
-0.001239960976
-0.0007572945968
-0.0007270572485
-0.0006806736833
-0.0005223970854
-0.0001557728886
0.0008472916798
0.001000890744
0.001312854618
0.001836806639
0.002645477025
0.003561955583
0.003706769612
0.004036922662
0.004516286841
0.005182613662
0.004619295195
0.004703389847
0.004893246317
0.0051675712
0.005523383865
0.003944913304
0.003994158529
0.004102554097
0.004247739348
0.00439592772
0.002693063322
0.002704981719
0.002713220451
0.002670843479
0.002488696343
0.0008707983839
0.0007734928158
0.0005181556736
1.658294351e-05
-0.0008790478852
-0.002469299986
-0.002679896206
-0.003114817959
-0.003647659313
-0.004012099842
-0.002510962031
-0.002462522425
-0.002354315572
-0.002194601798
-0.001998062679
-0.001030719721
-0.001012123977
-0.0009726539861
-0.0009163702926
-0.0008473536402
-0.0004259680562
-0.0004195253483
-0.0004057317201
-0.0003858254375
-0.0003610162103
-0.0001785750355
-0.0001762452825
-0.0001712449349
-0.0001639729459
-0.0001548099732
-7.579321748e-05
-7.492979013e-05
-7.306733279e-05
-7.034211563e-05
-6.687982461e-05
-3.253889638e-05
-3.220957964e-05
-3.149890873e-05
-3.045463203e-05
-2.911977601e-05
-1.411475602e-05
-1.398708514e-05
-1.371061028e-05
-1.330289749e-05
-1.277916228e-05
-6.183455377e-06
-6.13288871e-06
-6.023415132e-06
-5.861565531e-06
-5.652870218e-06
-2.735001125e-06
-2.714759032e-06
-2.67082829e-06
-2.605735108e-06
-2.521547073e-06
-1.222391593e-06
-1.214191823e-06
-1.19640834e-06
-1.170027297e-06
-1.135846275e-06
-5.53492194e-07
-5.502028985e-07
-5.430627601e-07
-5.324731779e-07
-5.187618612e-07
-2.560111982e-07
-2.547661392e-07
-2.520750547e-07
-2.481078985e-07
-2.430184291e-07
-1.245871271e-07
-1.242713023e-07
-1.236050901e-07
-1.226712086e-07
-1.215686005e-07
-7.271331908e-08
-7.303797809e-08
-7.379281551e-08
-7.505330916e-08
-7.602164225e-08
-1.887882098e-08
-1.872537948e-08
-1.84204608e-08
-1.80390777e-08
-1.767494357e-08
-1.259889379e-08
-1.263903244e-08
-1.273805806e-08
-1.29154137e-08
-1.320144768e-08
-1.292240789e-08
-1.307018868e-08
-1.33969815e-08
-1.389753448e-08
-1.45748863e-08
-1.637144798e-08
-1.649769497e-08
-1.677428858e-08
-1.719166802e-08
-1.774499193e-08
-1.723769051e-08
-1.731601089e-08
-1.748758779e-08
-1.774651246e-08
-1.80898324e-08
-1.566096859e-08
-1.57090419e-08
-1.581374991e-08
-1.597003595e-08
-1.61736153e-08
-1.387421649e-08
-1.390228962e-08
-1.396304717e-08
-1.405264516e-08
-1.416744686e-08
-1.196032266e-08
-1.197184087e-08
-1.199644768e-08
-1.203179425e-08
-1.207524602e-08
-1.002648104e-08
-1.002626709e-08
-1.002534897e-08
-1.002266527e-08
-1.001661824e-08
-8.178643025e-09
-8.17124908e-09
-8.154782421e-09
-8.129125666e-09
-8.093543353e-09
-6.490457583e-09
-6.479570766e-09
-6.455596863e-09
-6.419015118e-09
-6.369710241e-09
-5.014693919e-09
-5.002973564e-09
-4.977279912e-09
-4.938395325e-09
-4.886587041e-09
-3.769032655e-09
-3.758191353e-09
-3.734485571e-09
-3.698779875e-09
-3.651527e-09
-2.77796558e-09
-2.768835159e-09
-2.748909012e-09
-2.718996518e-09
-2.679595023e-09
-2.063509083e-09
-2.056169079e-09
-2.040170134e-09
-2.016206759e-09
-1.984742133e-09
-5.202356138e-07
-1.052942473e-05
-6.331820911e-06
-7.32909139e-06
-9.800280912e-06
-1.344577273e-05
-1.977107166e-05
-2.409762198e-05
-2.654217592e-05
-3.065392056e-05
-3.647109093e-05
-4.088787121e-05
-4.302999463e-05
-4.621389774e-05
-5.212918715e-05
-6.092230618e-05
-7.018633351e-05
-7.703451164e-05
-8.298010821e-05
-9.097182588e-05
-9.971357806e-05
-0.0001138040039
-0.0001348385624
-0.0001569049977
-0.0001906724587
-0.0002391328436
-0.0003208704802
-0.0004341888925
-0.0005955879158
-0.0008409397189
-0.001113653203
-0.001384859499
-0.001220562969
0.0002723657419
0.003360619172
0.005728094193
0.005816551826
0.004485997983
0.002221216213
-0.001797471188
-0.004026031467
-0.001856334889
-0.0007964874518
-0.0003423702404
-0.0001478285961
-6.421464711e-05
-2.808411573e-05
-1.237024167e-05
-5.489106373e-06
-2.455223045e-06
-1.108853973e-06
-5.079462909e-07
-2.390570675e-07
-1.208183879e-07
-7.184143871e-08
-1.749425735e-08
-1.347855295e-08
-1.514057004e-08
-1.819804543e-08
-1.832987579e-08
-1.633752138e-08
-1.425796825e-08
-1.210773253e-08
-1.000934958e-08
-8.062919177e-09
-6.328553051e-09
-4.843899397e-09
-3.612895766e-09
-2.647557103e-09
-1.959254514e-09
-1.388075538e-06
-7.66109621e-06
-2.00176088e-06
2.76356508e-06
-7.534710505e-08
-4.953203769e-05
0.001013012845
-0.0001480220684
-8.164800319e-06
4.820057376e-07
-4.023288287e-05
-4.456574698e-05
-0.0002370893295
-1.770419478e-05
-7.682985464e-07
-5.935244294e-05
-0.0008119486956
0.01025651073
-0.001911926812
-8.945539328e-05
-7.250926991e-05
-0.0008295610465
0.006081584873
-0.002423446269
-0.0001713787597
-8.484155459e-05
-0.000668600568
0.001719244143
-0.001837676363
-0.0001622735008
-0.0001018847853
-0.0005441222517
0.0007995360989
-0.001390236886
-0.0001601185287
-9.972187618e-05
-0.0004369527829
-0.001402553261
0.006283752266
-0.001915043004
-9.537036174e-05
-0.0004307036609
-0.002621748531
0.01641359168
-0.004783179224
-0.0001001796001
-0.0004324273872
-0.002205888035
0.009698538801
-0.004600324344
-0.000108781549
-0.0004189083181
-0.001649958828
0.006065495607
-0.003708620708
-0.00010979757
-0.0003688623919
-0.001221244002
0.001855031068
0.0004942930615
-0.0001052243652
-0.00033038325
-0.001200452403
-0.002882760913
0.02089761009
-0.0001059489657
-0.0003229644093
-0.001185839775
-0.003446505393
0.01806262974
-0.0001132480676
-0.0003319677065
-0.00113472649
-0.002919402308
0.01380644071
-0.0001235718232
-0.0003437230261
-0.001055995179
-0.002294203595
0.01044753366
-0.00013204962
-0.0003400779243
-0.0009421830721
-0.001836181735
0.006608481645
-0.000135031924
-0.0003267305482
-0.0008710887869
-0.001927101977
0.001399523075
-0.0001328184146
-0.0003269694433
-0.000880112756
-0.002191160633
-0.001636629196
-0.0001424193864
-0.0003488071507
-0.0009423477107
-0.00239425109
-0.002716689275
-0.0001592343172
-0.0003885108633
-0.001024927176
-0.002489498552
-0.002789694062
-0.0001801128349
-0.0004386898074
-0.001100774914
-0.002474191755
-0.002405288063
-0.0002094952569
-0.0004924991417
-0.001159233752
-0.002381539405
-0.001854556434
-0.0002463182082
-0.0005507020315
-0.001211691571
-0.002274813715
-0.001338922439
-0.0002932923148
-0.0006212553821
-0.001282938183
-0.002221556125
-0.0009447060517
-0.0003581486863
-0.0007435228954
-0.001399608317
-0.002229376796
-0.0004610265772
-0.0004653137447
-0.0008819638509
-0.001575166111
-0.002228813465
0.0004456359542
-0.0006142206929
-0.001066979938
-0.001793348248
-0.002061192
0.002081726138
-0.000820177799
-0.001332377305
-0.001977256106
-0.00143855062
0.004640281998
-0.001163793852
-0.001616494683
-0.00192038435
4.560798141e-05
0.007960446866
-0.001370915558
-0.00175423725
-0.001196147367
0.002710036897
0.01133982688
-0.001518367243
-0.00129416005
0.0007863212957
0.006312313866
0.01363204756
-0.0009329713932
0.0005268084462
0.004162028363
0.009697018373
0.01381753442
0.001263644867
0.003880341934
0.007681973255
0.01130933922
0.01149375181
0.004583455442
0.006953930345
0.009317001798
0.010326349
0.006580688607
0.006474381353
0.007713518319
0.008372042817
0.006809312826
-0.001013575723
0.006096827789
0.006366468293
0.005423526566
0.0008933958202
-0.007425020246
0.004382243389
0.00354696763
0.0003636913762
-0.006033215046
-0.006117242199
0.001448353383
-0.001264660849
-0.005644743748
-0.005577076426
-0.003746987571
-0.003350928763
-0.005278746462
-0.004386258645
-0.003100252907
-0.002150396689
-0.003681960815
-0.002902178269
-0.002189466587
-0.001611101151
-0.001161728489
-0.001649842557
-0.001334538626
-0.001046924296
-0.0008001398593
-0.0005981779203
-0.0007218348477
-0.0006022040459
-0.0004878559768
-0.0003851628204
-0.0002973505221
-0.0003148305632
-0.0002691253252
-0.000223837113
-0.0001816437445
-0.0001442148095
-0.0001374694768
-0.0001198226778
-0.0001018391471
-8.457976464e-05
-6.879388207e-05
-6.024617969e-05
-5.334902017e-05
-4.616220826e-05
-3.909627241e-05
-3.246729435e-05
-2.653798065e-05
-2.380772219e-05
-2.091168427e-05
-1.80077008e-05
-1.522523601e-05
-1.175856821e-05
-1.066444756e-05
-9.487006871e-06
-8.287166527e-06
-7.117423917e-06
-5.243801923e-06
-4.800442183e-06
-4.31777621e-06
-3.81957144e-06
-3.32717593e-06
-2.355783864e-06
-2.174611433e-06
-1.975676982e-06
-1.768448716e-06
-1.561795463e-06
-1.068374149e-06
-9.942840064e-07
-9.126204429e-07
-8.273514549e-07
-7.423935972e-07
-4.917468899e-07
-4.622061549e-07
-4.299325043e-07
-3.968134395e-07
-3.648900906e-07
-2.331631224e-07
-2.227644132e-07
-2.120421295e-07
-2.021340639e-07
-1.944139534e-07
-1.197752374e-07
-1.186400263e-07
-1.187659418e-07
-1.212243076e-07
-1.161796945e-07
-6.59592974e-08
-5.612041597e-08
-4.686426574e-08
-3.942097744e-08
-3.496102316e-08
-1.740128324e-08
-1.782678988e-08
-1.929776641e-08
-1.951358893e-08
-2.094832043e-08
-1.395669445e-08
-1.512310903e-08
-1.686320693e-08
-1.926802195e-08
-2.236400415e-08
-1.599965367e-08
-1.773168755e-08
-1.984834873e-08
-2.231674786e-08
-2.507058763e-08
-1.886888149e-08
-2.017126944e-08
-2.167931935e-08
-2.335352377e-08
-2.49071772e-08
-1.867043999e-08
-1.933172186e-08
-2.008486259e-08
-2.090603863e-08
-2.175695349e-08
-1.657450854e-08
-1.701805199e-08
-1.750158354e-08
-1.79921925e-08
-1.845225283e-08
-1.438669744e-08
-1.461654104e-08
-1.484852459e-08
-1.505779495e-08
-1.521768744e-08
-1.215157121e-08
-1.221870536e-08
-1.226674811e-08
-1.22793062e-08
-1.22399668e-08
-9.995581339e-09
-9.955216038e-09
-9.885901544e-09
-9.778631773e-09
-9.625111852e-09
-8.015647969e-09
-7.914847596e-09
-7.78283707e-09
-7.616102152e-09
-7.412049622e-09
-6.266520001e-09
-6.140994621e-09
-5.986532903e-09
-5.803190762e-09
-5.591888052e-09
-4.780178756e-09
-4.654312435e-09
-4.504057129e-09
-4.331531009e-09
-4.139496154e-09
-3.555556449e-09
-3.443950198e-09
-3.313240237e-09
-3.166354087e-09
-3.006646722e-09
-2.600175924e-09
-2.508926546e-09
-2.403506324e-09
-2.286884268e-09
-2.162277571e-09
-1.921658397e-09
-1.849778768e-09
-1.767528485e-09
-1.677554203e-09
-1.582633544e-09
-4.743416717e-11
-9.139922642e-15
-4.324114601e-17
-6.949277014e-19
-3.769986828e-20
-3.560467273e-21
-3.990482609e-22
-4.704846751e-23
-5.572003483e-24
-6.593854823e-25
-7.749938921e-26
-8.450337815e-27
-4.697376848e-28
2.727456817e-28
2.102328847e-28
1.137494344e-28
5.32881986e-29
2.368490964e-29
1.043017534e-29
4.53240857e-30
2.255048347e-30
9.631068947e-31
4.804717381e-31
2.399196624e-31
1.198639363e-31
5.990593225e-32
2.99494648e-32
9.983193544e-33
9.983088038e-33
4.991082767e-33
2.495044592e-33
2.494257277e-33
1.246597702e-33
1.245969068e-33
6.226514499e-34
6.223249806e-34
3.110118242e-34
0
0
0
0
0
0
0
0
0
0
0
0
0
0
0
0
0
0
0
0
0
0
0
-5.612987992e-10
-2.800869474e-13
-1.221317767e-15
-2.395025921e-17
-1.511144782e-18
-1.549451186e-19
-1.786425016e-20
-2.288733462e-21
-3.456875946e-22
-6.536285586e-23
-1.430808739e-23
-3.328820561e-24
-7.709827423e-25
-1.712186509e-25
-3.458600737e-26
-5.442864954e-27
-1.484349746e-28
4.491655394e-28
3.079540446e-28
1.60910602e-28
7.880989081e-29
3.612752947e-29
1.720115297e-29
8.531417438e-30
4.241634481e-30
2.112472234e-30
1.053327859e-30
5.660830011e-31
3.230288192e-31
2.016870748e-31
1.209174542e-31
8.055748553e-32
5.031501909e-32
3.016756129e-32
2.009641389e-32
1.255018525e-32
7.523906739e-33
5.011768672e-33
3.755707851e-33
2.501750913e-33
1.24987667e-33
6.244558418e-34
3.119947691e-34
3.117691226e-34
1.557753941e-34
7.783561556e-35
0
0
1.942695208e-35
0
0
0
0
0
0
0
0
0
0
0
-2.54876049e-09
-1.593549408e-12
-6.428607279e-15
-2.439466235e-16
-2.524751918e-17
-3.856011683e-18
-6.9298049e-19
-1.551552985e-19
-3.993212999e-20
-1.102048832e-20
-2.980538729e-21
-7.785419512e-22
-1.929213545e-22
-4.562347148e-23
-1.032168988e-23
-2.249526048e-24
-4.736238898e-25
-9.550769957e-26
-1.76638944e-26
-2.501318952e-27
7.467277563e-29
2.975748758e-28
2.069971639e-28
1.149253229e-28
5.915236517e-29
3.120749521e-29
1.645294299e-29
8.997664813e-30
5.136813912e-30
3.05484717e-30
1.97739695e-30
1.193140535e-30
7.810299566e-31
5.134455597e-31
3.488383956e-31
2.254593387e-31
1.432627837e-31
9.193613476e-32
6.117156799e-32
3.560950749e-32
2.030439706e-32
1.266255401e-32
7.581154421e-33
3.782786461e-33
1.887916461e-33
1.256544562e-33
6.273922909e-34
3.133255316e-34
1.565078941e-34
7.819349113e-35
3.907407612e-35
3.905452654e-35
1.951782164e-35
9.755392293e-36
4.879307075e-36
2.45059355e-36
1.259806436e-36
0
0
0
-2.978733367e-07
-2.36975199e-10
-1.687564542e-13
-2.750716693e-15
-3.412745025e-16
-7.662431908e-17
-2.095063863e-17
-6.405101494e-18
-2.041194903e-18
-6.491280738e-19
-1.982774287e-19
-5.763113543e-20
-1.576260754e-20
-4.069821085e-21
-9.916279302e-22
-2.300557519e-22
-5.11994852e-23
-1.107809013e-23
-2.356584227e-24
-4.972871643e-25
-1.038610269e-25
-2.077802489e-26
-3.52359234e-27
-2.21552349e-28
2.603190163e-28
2.265375126e-28
1.446680924e-28
8.627560722e-29
5.144751607e-29
3.088285204e-29
1.920291776e-29
1.215335315e-29
7.898601353e-30
5.195804611e-30
3.430581391e-30
2.298687874e-30
1.503185195e-30
1.000992506e-30
6.247669373e-31
3.95082548e-31
2.491290559e-31
1.450839469e-31
8.275403911e-32
4.644840053e-32
2.573671175e-32
1.41133736e-32
7.674440621e-33
3.825974273e-33
2.226262754e-33
1.269762019e-33
6.340759235e-34
3.960011242e-34
2.374915838e-34
1.187276831e-34
5.943710194e-35
2.997481506e-35
1.037525677e-35
2.970328377e-36
0
0
-2.017791758e-06
-5.339940529e-09
-4.960220573e-12
-3.174033268e-14
-3.440770016e-15
-9.790083801e-16
-3.366799318e-16
-1.205287199e-16
-4.364533191e-17
-1.566312663e-17
-5.459362153e-18
-1.826588195e-18
-5.800751447e-19
-1.742848213e-19
-4.928448478e-20
-1.315384391e-20
-3.315648796e-21
-7.963236634e-22
-1.836110533e-22
-4.127747285e-23
-9.16777393e-24
-2.043845309e-24
-4.60853703e-25
-1.048293077e-25
-2.350738969e-26
-4.788574182e-27
-6.264159022e-28
1.865327447e-28
2.55001336e-28
1.955581667e-28
1.325260785e-28
8.744895149e-29
5.729371234e-29
3.812664356e-29
2.557036012e-29
1.730127659e-29
1.183267005e-29
7.840242039e-30
5.215973746e-30
3.317115527e-30
2.054487404e-30
1.214755625e-30
6.907587679e-31
3.975411591e-31
2.300386819e-31
1.253692305e-31
7.041653653e-32
3.90349359e-32
2.205967119e-32
1.229215946e-32
7.098242539e-33
3.864724408e-33
2.252646761e-33
1.12686278e-33
6.462350715e-34
2.867161312e-34
1.289603434e-34
3.768688131e-35
4.713290998e-36
0
-6.583110516e-06
-6.99977323e-08
-1.793649142e-10
-5.817923497e-13
-3.442795655e-14
-8.60388147e-15
-3.050401556e-15
-1.170721771e-15
-4.627949269e-16
-1.843973192e-16
-7.278120326e-17
-2.806222299e-17
-1.044911417e-17
-3.728390761e-18
-1.265277391e-18
-4.067990279e-19
-1.23461539e-19
-3.539013761e-20
-9.584342326e-21
-2.470314245e-21
-6.106602329e-22
-1.470182964e-22
-3.49378047e-23
-8.330763868e-24
-2.015048076e-24
-4.97587649e-25
-1.2481498e-25
-3.118219281e-26
-7.351743773e-27
-1.354633469e-27
4.648795719e-29
2.912361193e-28
2.687320277e-28
2.018066708e-28
1.449963879e-28
1.019223627e-28
7.127703047e-29
4.970849647e-29
3.383465501e-29
2.224747992e-29
1.40789338e-29
8.598825445e-30
5.099763897e-30
2.929228408e-30
1.676553444e-30
9.3423554e-31
5.20601316e-31
2.976226441e-31
1.646869746e-31
9.548182268e-32
5.423816929e-32
3.165994136e-32
1.776951144e-32
9.540000768e-33
5.124871754e-33
2.529547268e-33
1.074379525e-33
3.187144686e-34
4.963105912e-35
2.34610355e-36
-1.462661289e-05
-4.113397626e-07
-3.517493938e-09
-1.566001444e-11
-2.925674033e-13
-4.562000666e-14
-1.481493844e-14
-5.850188573e-15
-2.469913268e-15
-1.070877946e-15
-4.673903683e-16
-2.026954129e-16
-8.645689753e-17
-3.597011837e-17
-1.449467912e-17
-5.621602732e-18
-2.085162501e-18
-7.358540454e-19
-2.459163061e-19
-7.773732854e-20
-2.325291984e-20
-6.613973577e-21
-1.799767946e-21
-4.738531332e-22
-1.221960366e-22
-3.135768152e-23
-8.094644315e-24
-2.117248046e-24
-5.612603247e-25
-1.501115591e-25
-3.991205511e-26
-1.01492197e-26
-2.155964894e-27
-1.022440222e-28
3.408122558e-28
3.691457313e-28
3.049787125e-28
2.329828196e-28
1.69647683e-28
1.184417601e-28
7.897772793e-29
5.051778068e-29
3.082397296e-29
1.813953678e-29
1.043277226e-29
5.947206787e-30
3.365997439e-30
1.936619418e-30
1.09076201e-30
6.33931107e-31
3.664191413e-31
2.131491227e-31
1.228064341e-31
6.821936735e-32
3.70642241e-32
1.863202989e-32
7.914142718e-33
2.583902897e-33
4.569271353e-34
3.692438782e-35
-0.0001840832745
-9.852589627e-06
-1.380594714e-07
-7.248292992e-10
-4.636183338e-12
-2.476826825e-13
-5.340997632e-14
-1.921413672e-14
-8.137396251e-15
-3.672471868e-15
-1.702125606e-15
-7.954175985e-16
-3.705658575e-16
-1.707372046e-16
-7.731929006e-17
-3.423782839e-17
-1.475571581e-17
-6.164146193e-18
-2.484426339e-18
-9.612414939e-19
-3.551994278e-19
-1.248121835e-19
-4.156889025e-20
-1.313329687e-20
-3.954254763e-21
-1.144899623e-21
-3.218474619e-22
-8.882684255e-23
-2.430625589e-23
-6.650525816e-24
-1.825493278e-24
-5.030618619e-25
-1.390940106e-25
-3.832045341e-26
-1.020084171e-26
-2.321051789e-27
-1.395188605e-28
4.133103552e-28
4.848470496e-28
4.162210721e-28
3.161980646e-28
2.208166831e-28
1.444485061e-28
8.921932073e-29
5.28992058e-29
3.065632457e-29
1.757720955e-29
1.007010173e-29
5.827037354e-30
3.397127931e-30
1.977672778e-30
1.157530678e-30
6.775281301e-31
3.887591826e-31
2.165343366e-31
1.113653514e-31
4.955719868e-32
1.713515473e-32
3.461202924e-33
3.934808794e-34
-0.0005126170305
-4.174356947e-05
-1.373360502e-06
-1.895729931e-08
-1.126988277e-10
-1.771757095e-12
-1.893112521e-13
-5.219429065e-14
-2.06147717e-14
-9.300347787e-15
-4.442984439e-15
-2.178294146e-15
-1.078370157e-15
-5.336628144e-16
-2.621658375e-16
-1.271755234e-16
-6.06592004e-17
-2.834521676e-17
-1.293339292e-17
-5.742858863e-18
-2.472626711e-18
-1.028459879e-18
-4.118200935e-19
-1.580307269e-19
-5.786617278e-20
-2.016685413e-20
-6.679734898e-21
-2.109802237e-21
-6.403710679e-22
-1.887401331e-22
-5.446967515e-23
-1.549924231e-23
-4.376976517e-24
-1.235841146e-24
-3.518124267e-25
-1.017284655e-25
-2.987973811e-26
-8.593413583e-27
-2.007289705e-27
2.934446847e-29
5.665445547e-28
5.994403328e-28
4.80500523e-28
3.372285271e-28
2.167313669e-28
1.316816936e-28
7.761082848e-29
4.506213131e-29
2.627497712e-29
1.534448846e-29
9.04970558e-30
5.353148322e-30
3.173121333e-30
1.855192321e-30
1.047237523e-30
5.548628299e-31
2.607163614e-31
9.710287343e-32
2.266141196e-32
3.318841535e-33
-0.00058384481
-7.092037134e-05
-3.869721989e-06
-1.494119052e-07
-1.957658997e-09
-1.801766555e-11
-7.844169728e-13
-1.387135742e-13
-4.655062594e-14
-2.004844483e-14
-9.591023745e-15
-4.826186527e-15
-2.490085901e-15
-1.298400546e-15
-6.778437914e-16
-3.52001588e-16
-1.809546002e-16
-9.174754068e-17
-4.573873692e-17
-2.235909793e-17
-1.068400698e-17
-4.980180059e-18
-2.256798851e-18
-9.907775238e-19
-4.198448006e-19
-1.711217149e-19
-6.68984383e-20
-2.5009429e-20
-8.916416259e-21
-3.028647778e-21
-9.817324144e-22
-3.055713164e-22
-9.219924391e-23
-2.724356588e-23
-7.954450426e-24
-2.317665573e-24
-6.811477497e-25
-2.046184975e-25
-6.301533613e-26
-1.925886604e-26
-5.221232758e-27
-7.270527739e-28
5.602972688e-28
7.664958068e-28
6.404673554e-28
4.472481003e-28
2.853732133e-28
1.733380385e-28
1.028308295e-28
6.08873174e-29
3.600229215e-29
2.151031893e-29
1.287148571e-29
7.623352782e-30
4.425945747e-30
2.428690658e-30
1.199804348e-30
4.826923264e-31
1.260390976e-31
2.321693592e-32
-0.0005464390504
-7.794520793e-05
-7.452418504e-06
-5.512677818e-07
-1.696445923e-08
-2.302841202e-10
-4.379899351e-12
-4.071964969e-13
-1.028000741e-13
-4.00287368e-14
-1.860763816e-14
-9.409674418e-15
-4.97453218e-15
-2.691384286e-15
-1.470795043e-15
-8.048567497e-16
-4.3841949e-16
-2.366167684e-16
-1.262551282e-16
-6.641337624e-17
-3.433879683e-17
-1.74021315e-17
-8.618363861e-18
-4.158330252e-18
-1.948534036e-18
-8.839354465e-19
-3.870768229e-19
-1.632115113e-19
-6.610582862e-20
-2.566803279e-20
-9.543864283e-21
-3.394117661e-21
-1.154316899e-21
-3.765374888e-22
-1.187182553e-22
-3.656805853e-23
-1.109251862e-23
-3.334976534e-24
-1.003458754e-24
-3.063086774e-25
-9.524446597e-26
-2.926110279e-26
-8.076154134e-27
-1.328942172e-27
6.062253408e-28
9.416423404e-28
7.874213386e-28
5.462075736e-28
3.47765125e-28
2.126077636e-28
1.284466747e-28
7.723037377e-29
4.67121866e-29
2.813594616e-29
1.666295182e-29
9.444557457e-30
4.910809787e-30
2.130153773e-30
6.33423625e-31
1.389855741e-31
-0.001346585416
-0.0002060794718
-2.915001367e-05
-2.05850666e-06
-1.120664742e-07
-3.052785257e-09
-5.096822726e-11
-1.828088318e-12
-2.568730353e-13
-7.843367161e-14
-3.350348937e-14
-1.655457894e-14
-8.804386193e-15
-4.870213806e-15
-2.746844065e-15
-1.56398794e-15
-8.924696907e-16
-5.073198848e-16
-2.860948807e-16
-1.595734506e-16
-8.775046282e-17
-4.74341649e-17
-2.513478012e-17
-1.30192832e-17
-6.573206459e-18
-3.225328219e-18
-1.533698954e-18
-7.049105122e-19
-3.124274131e-19
-1.332784857e-19
-5.464943626e-20
-2.152467897e-20
-8.141768805e-21
-2.959795684e-21
-1.036391313e-21
-3.507640212e-22
-1.15262815e-22
-3.690009748e-23
-1.155567799e-23
-3.561199397e-24
-1.094774163e-24
-3.41395799e-25
-1.08000235e-25
-3.350710823e-26
-9.191778506e-27
-1.402604141e-27
8.00540031e-28
1.135697663e-27
9.231422643e-28
6.323792974e-28
4.034951399e-28
2.500827224e-28
1.53718913e-28
9.405050362e-29
5.682079669e-29
3.326339427e-29
1.810705968e-29
8.455021271e-30
2.862999336e-30
7.288055766e-31
-0.004947367269
-0.0007506531844
-0.0001163132878
-8.433220186e-06
-5.502070797e-07
-2.711413855e-08
-7.345793586e-10
-1.554518699e-11
-9.019513288e-13
-1.627240789e-13
-5.594312452e-14
-2.552525571e-14
-1.32204162e-14
-7.351265834e-15
-4.202659869e-15
-2.476962887e-15
-1.470743653e-15
-8.731987875e-16
-5.156620966e-16
-3.017670867e-16
-1.744626632e-16
-9.937798908e-17
-5.562954773e-17
-3.052000714e-17
-1.636489213e-17
-8.551348804e-18
-4.342083975e-18
-2.136492555e-18
-1.016171117e-18
-4.662760777e-19
-2.06148383e-19
-8.776731139e-20
-3.598348836e-20
-1.421814783e-20
-5.424909603e-21
-2.003961048e-21
-7.187279362e-22
-2.507404713e-22
-8.509622052e-23
-2.813055865e-23
-9.09493155e-24
-2.907500037e-24
-9.342599904e-25
-3.045749666e-25
-9.991396239e-26
-3.143921345e-26
-8.286565648e-27
-8.275757242e-28
1.161335449e-27
1.344991399e-27
1.042683246e-27
7.079013399e-28
4.548093096e-28
2.851010474e-28
1.762444621e-28
1.063346043e-28
6.07357221e-29
3.059216162e-29
1.173966702e-29
3.387827715e-30
-0.005860771144
-0.001011963989
-0.0001789965666
-2.151108117e-05
-1.878849045e-06
-1.277300707e-07
-6.241318554e-09
-1.980789109e-10
-5.768186731e-12
-4.462667682e-13
-9.105424945e-14
-3.288963512e-14
-1.56350514e-14
-8.500841559e-15
-4.858997309e-15
-2.918804138e-15
-1.778106966e-15
-1.08918776e-15
-6.665116455e-16
-4.055758837e-16
-2.445762624e-16
-1.457696878e-16
-8.566888824e-17
-4.953098712e-17
-2.810052133e-17
-1.559592496e-17
-8.438020136e-18
-4.434144614e-18
-2.255845177e-18
-1.108377532e-18
-5.249224492e-19
-2.393560099e-19
-1.051496112e-19
-4.458217827e-20
-1.82891379e-20
-7.281859949e-21
-2.821959868e-21
-1.066905777e-21
-3.939226265e-22
-1.419746406e-22
-4.99294309e-23
-1.715943459e-23
-5.812782423e-24
-1.969509838e-24
-6.762437781e-25
-2.345968986e-25
-7.963703028e-26
-2.461124035e-26
-5.623854981e-27
2.968414697e-28
1.64121234e-27
1.553692472e-27
1.145975465e-27
7.696728444e-28
4.952009384e-28
3.096478778e-28
1.850012781e-28
1.00484626e-28
4.35962349e-29
1.411613151e-29
-0.005488770621
-0.001059675205
-0.0002073277942
-3.782349164e-05
-3.871393793e-06
-3.828757514e-07
-2.917703716e-08
-1.638760493e-09
-6.650430904e-11
-2.501626468e-12
-2.092754677e-13
-4.12516427e-14
-1.449754707e-14
-6.990691435e-15
-3.863073613e-15
-2.289093462e-15
-1.405802669e-15
-8.78976846e-16
-5.536402931e-16
-3.489272945e-16
-2.190178426e-16
-1.364448684e-16
-8.412845925e-17
-5.12087565e-17
-3.069510339e-17
-1.807037293e-17
-1.041724853e-17
-5.860381698e-18
-3.204107894e-18
-1.695719728e-18
-8.665071984e-19
-4.266236351e-19
-2.019695605e-19
-9.202693833e-20
-4.051563124e-20
-1.729965603e-20
-7.19805906e-21
-2.932235215e-21
-1.172177576e-21
-4.598888172e-22
-1.768646416e-22
-6.661474883e-23
-2.461948737e-23
-8.996255276e-24
-3.287655714e-24
-1.212128615e-24
-4.483639637e-25
-1.621000635e-25
-5.448395073e-26
-1.526746244e-26
-2.070784175e-27
1.624459949e-27
2.121393097e-27
1.729245312e-27
1.224273216e-27
8.118798577e-28
5.114926782e-28
2.983939092e-28
1.452075796e-28
5.294546495e-29
-0.004806570646
-0.001035142806
-0.0002213357717
-4.942686731e-05
-6.224449387e-06
-9.08091899e-07
-9.288362439e-08
-7.675203546e-09
-5.354873066e-10
-2.887639807e-11
-1.278875218e-12
-9.047771169e-14
-1.447933841e-14
-4.628424679e-15
-2.148542178e-15
-1.187849852e-15
-7.140069217e-16