/*--------------------------------*- C++ -*----------------------------------*\
  =========                 |
  \\      /  F ield         | OpenFOAM: The Open Source CFD Toolbox
   \\    /   O peration     | Website:  https://openfoam.org
    \\  /    A nd           | Version:  10
     \\/     M anipulation  |
\*---------------------------------------------------------------------------*/
FoamFile
{
    format      ascii;
    class       volScalarField;
    location    "3000";
    object      RR.HCO;
}
// * * * * * * * * * * * * * * * * * * * * * * * * * * * * * * * * * * * * * //

dimensions      [1 -3 -1 0 0 0 0];

internalField   nonuniform List<scalar> 
5170
(
-1.715753936e-68
-7.697109078e-69
-1.393516124e-69
-1.007486643e-70
-2.400951132e-72
-1.214299884e-65
-5.109124193e-66
-7.780215954e-67
-4.283380302e-68
-8.749470171e-70
-8.460181921e-63
-3.330371365e-63
-4.223058384e-64
-1.867456731e-65
-2.586552719e-67
-5.839237512e-60
-2.157085849e-60
-2.311972826e-61
-8.330943367e-63
-2.039935046e-65
-4.026889964e-57
-1.414615979e-57
-1.307324772e-58
-3.967538118e-60
2.691162755e-64
-2.792205154e-54
-9.446687395e-55
-7.544778349e-56
-1.986243773e-57
2.02613818e-61
-1.961088644e-51
-6.42587806e-52
-4.564178476e-53
-1.057553975e-54
4.071140756e-58
-1.394866587e-48
-4.535565988e-49
-2.989934989e-50
-6.489916219e-52
1.655706962e-54
-1.014711292e-45
-3.40053902e-46
-2.154675609e-47
-4.76920137e-49
7.503789056e-51
-7.581473911e-43
-2.727371884e-43
-1.748374228e-44
-5.397416044e-46
3.383351821e-47
-5.85288785e-40
-2.362679986e-40
-1.708705968e-41
-1.457062948e-42
1.507463677e-43
-4.654978626e-37
-2.202630312e-37
-2.157673645e-38
-6.916083465e-39
-1.353621357e-38
-3.815187012e-34
-2.225077382e-34
-3.660648591e-35
-3.751241421e-35
-9.019419546e-35
-3.222764136e-31
-2.413817888e-31
-7.881281553e-32
-2.034541817e-31
-5.464881498e-31
-2.784644457e-28
-2.832998392e-28
-1.986965283e-28
-1.060276293e-27
-3.287166082e-27
-2.458143621e-25
-3.526097673e-25
-5.401888174e-25
-5.101394021e-24
-1.97918045e-23
-2.158424212e-22
-4.653536779e-22
-1.498658679e-21
-2.200642845e-20
-1.193983697e-19
-1.886033232e-19
-6.309117992e-19
-4.06637652e-18
-8.803356565e-17
-7.218214225e-16
-1.509066689e-16
-8.313428358e-16
-1.023562951e-14
-3.079099823e-13
-4.373772055e-12
-1.042918616e-13
-1.034708635e-12
-2.455451958e-11
-1.037935293e-09
-2.578766619e-08
3.31368532e-08
9.165764298e-09
5.555263748e-09
1.103533574e-08
3.29732672e-08
-5.121430626e-09
3.200854419e-11
1.903061448e-10
-6.049954559e-10
-6.382334608e-09
-5.49663161e-09
-2.616977354e-09
-1.978321979e-09
-3.502373449e-09
-5.35935696e-09
-3.57909217e-09
-2.823591912e-09
-2.409817394e-09
-3.133689547e-09
-3.197598107e-09
-2.296059793e-09
-2.309445823e-09
-2.143423006e-09
-2.475272249e-09
-1.978087844e-09
-1.511205635e-09
-1.781757201e-09
-1.745796195e-09
-1.891519318e-09
-1.263599571e-09
-1.034921306e-09
-1.360295642e-09
-1.379381777e-09
-1.420530226e-09
-8.280274899e-10
-7.241058762e-10
-1.031706217e-09
-1.07335678e-09
-1.028662737e-09
-5.354333473e-10
-5.124765839e-10
-7.678384081e-10
-8.143573778e-10
-7.086968037e-10
-3.424002456e-10
-3.662923904e-10
-5.657564859e-10
-6.015793464e-10
-4.76193327e-10
-2.223391971e-10
-2.633305662e-10
-4.119601859e-10
-4.355681526e-10
-3.199196024e-10
-1.494577114e-10
-1.909017244e-10
-2.983870834e-10
-3.114425091e-10
-2.177304178e-10
-1.045266357e-10
-1.398024448e-10
-2.157343682e-10
-2.222089013e-10
-1.517042633e-10
-7.627461894e-11
-1.0418104e-10
-1.574308143e-10
-1.597537146e-10
-1.088440321e-10
-5.803281434e-11
-7.916974954e-11
-1.16219213e-10
-1.166118751e-10
-8.071703488e-11
-4.597966485e-11
-6.180768655e-11
-8.758036882e-11
-8.701605835e-11
-6.184104378e-11
-3.77792324e-11
-5.339482878e-11
-6.812673075e-11
-6.676110631e-11
-4.907336041e-11
-3.221210601e-11
-2.256778108e-10
-2.951228811e-10
-8.268995026e-11
-3.589937295e-11
-2.738855053e-11
-3.021481495e-10
-1.648155612e-10
-4.457846947e-10
-4.982868543e-10
-1.307784411e-11
-1.192366108e-07
-7.425723681e-08
-1.225973015e-08
2.707462393e-10
-7.176355096e-10
-2.033697892e-11
-3.340506362e-10
-1.921677291e-08
-1.303641385e-06
-1.277434241e-05
-7.406470004e-11
-1.080638435e-09
-5.305626055e-08
-2.00377609e-06
-2.729940561e-05
-1.725351913e-10
-2.41625187e-09
-9.242645356e-08
-2.151956205e-06
-2.26324691e-05
-3.816118779e-10
-5.448615025e-09
-1.691928952e-07
-3.00043791e-06
-3.177386841e-05
-7.966604327e-10
-1.151914947e-08
-2.712428807e-07
-3.989079881e-06
-3.874929022e-05
-1.648861029e-09
-2.263568777e-08
-3.924028554e-07
-5.112977806e-06
-4.212058079e-05
-4.084635344e-09
-4.710191622e-08
-6.923109972e-07
-7.727874604e-06
-4.953596419e-05
-1.053777184e-08
-1.067066237e-07
-1.28495832e-06
-1.119117197e-05
-5.784107775e-05
-2.365539541e-08
-2.216003983e-07
-2.214274868e-06
-1.503758455e-05
-6.815250084e-05
-5.333201336e-08
-4.22788e-07
-3.500401181e-06
-1.900860311e-05
-7.653141865e-05
-1.195781035e-07
-7.643420941e-07
-4.993659248e-06
-2.243702013e-05
-8.096260421e-05
-2.366543899e-07
-1.22099219e-06
-6.491346044e-06
-2.540535895e-05
-8.373511649e-05
-4.343601116e-07
-1.858050647e-06
-8.389068193e-06
-2.977904874e-05
-9.204565735e-05
-7.845389863e-07
-2.794013267e-06
-1.08937754e-05
-3.528297909e-05
-0.0001024757012
-1.475930158e-06
-4.235809903e-06
-1.429417129e-05
-4.290100946e-05
-0.0001173727861
-2.732814576e-06
-6.367014604e-06
-1.847466134e-05
-5.061160078e-05
-0.0001295598783
-4.839967731e-06
-9.357860341e-06
-2.337883392e-05
-5.812008394e-05
-0.0001389233754
-7.912944845e-06
-1.336714781e-05
-2.958132929e-05
-6.818263324e-05
-0.0001542417281
-1.221110914e-05
-1.8802111e-05
-3.742275562e-05
-8.098846366e-05
-0.0001760914519
-1.767979147e-05
-2.529826446e-05
-4.715408618e-05
-9.537209124e-05
-0.0001999039935
-2.42060128e-05
-3.33437652e-05
-5.833977118e-05
-0.0001122129336
-0.0002335875974
-3.341801302e-05
-4.297377971e-05
-7.32997942e-05
-0.0001354934045
-0.0002322529225
-4.516677894e-05
-5.814030094e-05
-9.252719327e-05
-0.0001477088327
-0.000250637165
-6.004726514e-05
-7.523630423e-05
-0.0001111952812
-0.0001670722385
-0.0002732572805
-7.931733059e-05
-9.760233365e-05
-0.0001265323914
-0.0001926953072
-0.0003024162008
-0.0001019066535
-0.0001231446027
-0.0001766379743
-0.0002218338938
-0.0003379125639
-0.0001343208185
-0.0001595211136
-0.0001935740109
-0.0002721841545
-0.0003830827093
-0.00017240217
-0.0002004456358
-0.0002685672497
-0.0003206055866
-0.0004378402394
-0.0001979508054
-0.000219803774
-0.0003211552744
-0.0004450180828
-0.0005256309407
-0.0002578070505
-0.0002910861976
-0.0003499117896
-0.0004446282835
-0.0005795036055
-0.0003226153672
-0.0003448769705
-0.0004002823566
-0.0004854295878
-0.0005553251786
-0.0003495593881
-0.0003702660647
-0.0004065187739
-0.0004404096578
-0.000458382606
-0.0002523820197
-0.0002470456016
-0.0002477658373
-0.0002160339673
-0.000119392039
6.084802617e-05
8.591553016e-05
0.0001526758419
0.0002601083845
0.0004105502123
0.0004765062774
0.0004826515467
0.0005062955623
0.0005373872804
0.0005580713131
0.0002321767904
0.0002207808949
0.0001976518022
0.0001590780686
0.0001159811214
-0.0002054842252
-0.0002102738461
-0.0002192298013
-0.0002289724674
-0.0002348562956
-0.0003625565602
-0.0003597794088
-0.0003528270777
-0.0003396361827
-0.0003163085683
-0.0003297071375
-0.0003229832411
-0.0003070888219
-0.0002795201
-0.0002364971907
-0.0002088826171
-0.000197714167
-0.000172353158
-0.0001329845873
-8.559723829e-05
-0.0001017137277
-0.000106297364
-0.0001241814626
-0.0001687540566
-0.0002417846251
-0.000204606854
-0.0002022527355
-0.0001954173217
-0.0001832165746
-0.0001666986849
-8.597389705e-05
-8.446000327e-05
-8.130264645e-05
-7.69273284e-05
-7.176547474e-05
-3.940208176e-05
-3.897219632e-05
-3.806982017e-05
-3.68072105e-05
-3.529374134e-05
-2.121287521e-05
-2.108388076e-05
-2.075731218e-05
-2.03686948e-05
-1.989223958e-05
-1.283693131e-05
-1.278917112e-05
-1.268440791e-05
-1.253028802e-05
-1.232291913e-05
-8.196650534e-06
-8.168886472e-06
-8.107461951e-06
-8.013351205e-06
-7.885607855e-06
-5.234258834e-06
-5.214695554e-06
-5.171260321e-06
-5.104632805e-06
-5.014323598e-06
-3.257509424e-06
-3.243638524e-06
-3.213052569e-06
-3.166766784e-06
-3.104050548e-06
-1.957235128e-06
-1.948024518e-06
-1.927691285e-06
-1.897012369e-06
-1.85595672e-06
-1.117555163e-06
-1.109172548e-06
-1.104837194e-06
-1.084698773e-06
-1.556623645e-06
-7.737907501e-07
-7.707724488e-07
-7.643392917e-07
-7.55190787e-07
-5.672736699e-07
-3.717310943e-07
-3.699686656e-07
-3.660770867e-07
-3.601179114e-07
-3.520059837e-07
-1.838405561e-07
-1.829341235e-07
-1.809470687e-07
-1.779474583e-07
-1.739691217e-07
-9.347131825e-08
-9.303348886e-08
-9.207788348e-08
-9.064428287e-08
-8.875826922e-08
-4.862990452e-08
-4.841913887e-08
-4.795919606e-08
-4.727918917e-08
-4.638745756e-08
-2.581446469e-08
-2.571107257e-08
-2.548544347e-08
-2.514673937e-08
-2.471477811e-08
-1.411391599e-08
-1.407387175e-08
-1.398717357e-08
-1.385901478e-08
-1.369403697e-08
-8.10283588e-09
-8.094059197e-09
-8.076203189e-09
-8.052911911e-09
-8.026684054e-09
-5.118911826e-09
-5.128643805e-09
-5.151091125e-09
-5.188061586e-09
-5.243088451e-09
-3.820100531e-09
-3.840889199e-09
-3.886879103e-09
-3.957500821e-09
-4.053148888e-09
-3.269246136e-09
-3.292714376e-09
-3.343996265e-09
-3.424057588e-09
-3.530347896e-09
-3.242098953e-09
-3.265106478e-09
-3.315079767e-09
-3.389352441e-09
-3.485552035e-09
-3.437955879e-09
-3.455381551e-09
-3.492763492e-09
-3.547023628e-09
-3.614806064e-09
-3.675889594e-09
-3.684596765e-09
-3.702640145e-09
-3.7270696e-09
-3.754124928e-09
-3.838590072e-09
-3.837090081e-09
-3.832722969e-09
-3.823156409e-09
-3.804842747e-09
-3.848960213e-09
-3.837360569e-09
-3.81096757e-09
-3.768426426e-09
-3.706928785e-09
-3.718361931e-09
-3.698857117e-09
-3.655382554e-09
-3.587661822e-09
-3.493911627e-09
-3.452563483e-09
-3.427556956e-09
-3.372305926e-09
-3.287558173e-09
-3.172636351e-09
-3.419667115e-09
-3.394579212e-09
-3.339349358e-09
-3.255187377e-09
-3.142070789e-09
-5.368659166e-05
-0.0002818368148
-0.0001987488312
-0.0001939848488
-0.0002038204965
-0.000189681343
-0.0001984449215
-0.000201161181
-0.0002133625264
-0.0002182492659
-0.0002122386069
-0.0002058188695
-0.0002160891921
-0.000227768975
-0.0002490851009
-0.0002618249251
-0.0002905910271
-0.00031224354
-0.0003405926463
-0.0003675795098
-0.0003376534591
-0.0003533250607
-0.000372363192
-0.0003927800335
-0.0004209874572
-0.0004579186652
-0.0005061997324
-0.0005651594782
-0.0006127878801
-0.0006550336565
-0.0006237031719
-0.0004461948779
-9.481846066e-06
0.0005335986141
0.0005597103943
8.965734624e-05
-0.0002300632848
-0.0002892363775
-0.0001928981603
-6.036560144e-05
-0.0002884831483
-0.0001545231124
-6.807523992e-05
-3.418966015e-05
-1.953082073e-05
-1.215795875e-05
-7.781810115e-06
-4.940832302e-06
-3.05330269e-06
-1.822802069e-06
-1.044852677e-06
-5.593074788e-07
-3.451532096e-07
-1.707473756e-07
-8.724288454e-08
-4.567163982e-08
-2.439916166e-08
-1.356521075e-08
-8.009075818e-09
-5.294751913e-09
-4.134143806e-09
-3.618246357e-09
-3.562104206e-09
-3.665863771e-09
-3.770283309e-09
-3.783216944e-09
-3.650172878e-09
-3.411719017e-09
-3.074393122e-09
-3.046460012e-09
2.971212964e-05
2.367393323e-05
-2.713367874e-06
-1.815953515e-07
-8.335860414e-09
-0.0006908776599
0.001366230486
-0.0001597376689
-8.33554287e-06
1.419988391e-07
-0.0004107625342
-0.0001311076324
-0.0001446326564
-2.495959048e-05
1.398115082e-06
-0.0006910086407
-0.003739479745
0.008200314957
-0.001753083219
-8.903610578e-05
-0.0006848275655
-0.003851178123
0.003692477213
-0.001636757872
-0.000114692615
-0.0005970013435
-0.002852842212
0.002302528814
-0.001203577547
-0.0001287616422
-0.0004992474269
-0.002029596712
0.001983683998
-0.0009595650809
-0.0001614448474
-0.0005446290131
-0.002081867333
-0.003421707475
0.01129361295
-0.002824124408
-0.0005570259548
-0.002162404493
-0.005642830336
0.01227432858
-0.003818700231
-0.0005446558492
-0.001945500946
-0.004797719917
0.008242816286
-0.003216501883
-0.0005100889082
-0.001642707994
-0.003662080693
0.00658828947
-0.002565380893
-0.0004811864409
-0.001441591267
-0.003200617139
0.002140641646
0.003951265799
-0.0004931353749
-0.001466231478
-0.003652766508
-0.004079339337
0.01923770696
-0.0005012519516
-0.001410222093
-0.003404439728
-0.004460166825
0.01287299219
-0.0004578690998
-0.001299920185
-0.002943676833
-0.003683119678
0.01063334986
-0.0004495155323
-0.001190353696
-0.002527041501
-0.002939947535
0.009091624668
-0.0004473300779
-0.00111489685
-0.00226907344
-0.002734375925
0.006165594548
-0.000469064535
-0.001137936951
-0.002362941686
-0.003564712694
0.0007462595196
-0.0004913921591
-0.00117356744
-0.002412830427
-0.003851467541
-0.00131874285
-0.0005160219276
-0.001174904553
-0.002327707574
-0.003608235389
-0.00137350702
-0.000530930257
-0.001149860428
-0.002173515141
-0.003175894366
-0.0008599595045
-0.0005445375058
-0.001114085441
-0.002001311446
-0.002723017206
-0.0003069410238
-0.0005550452749
-0.001076931422
-0.001838537149
-0.002316861782
0.0001364735979
-0.000569566747
-0.001053412963
-0.001715237744
-0.002009105438
0.0003740976831
-0.0005940217919
-0.001051813697
-0.001638699939
-0.001793509975
0.0004587727155
-0.0006305999596
-0.00106294084
-0.001577794828
-0.00156213092
0.0006532616021
-0.000675228397
-0.001081201118
-0.001487273319
-0.001208641325
0.001087242926
-0.0007371016989
-0.001090154386
-0.00131417671
-0.0006724885072
0.00167496536
-0.0007728850649
-0.001034879317
-0.0009934208345
5.033402532e-05
0.002214225787
-0.0008653570616
-0.0008581056685
-0.0004681162744
0.0008491437576
0.002482142396
-0.0006487200157
-0.0004875199514
0.0002373680938
0.001458200331
0.002379761717
-0.0003336346876
0.0001079592233
0.0009081001648
0.001600535272
0.001991156157
0.0002196880766
0.0007185522633
0.00114421536
0.001286431452
0.001492167046
0.0006842338928
0.0008439801277
0.0008314933385
0.0008166173544
0.001062670406
0.0005158461505
0.0004261144876
0.000364698719
0.0004605238088
0.0007753698908
3.70183256e-05
5.481986964e-06
6.424865521e-05
0.0002801279291
0.0003272444813
-0.0002264195887
-0.0001608299605
9.848282144e-07
0.0002098692851
-0.0006004010183
-0.0002479870622
-0.0001181827001
5.947819912e-05
-0.000279178771
-0.0007168028476
-0.0001268372098
-1.182992649e-05
-0.000254102109
-0.0005636053003
-0.0003945520294
-8.65204763e-05
-0.0003344329538
-0.0004041928986
-0.0002924555865
-0.0002113156606
-0.0003042379311
-0.0002513248311
-0.0001918004579
-0.0001467645364
-0.0001136971577
-0.0001377070827
-0.0001132683292
-9.276146505e-05
-7.628310554e-05
-6.308230025e-05
-6.300898232e-05
-5.528463266e-05
-4.835362955e-05
-4.224327343e-05
-3.675558101e-05
-3.263025689e-05
-3.01011721e-05
-2.758477199e-05
-2.506411117e-05
-2.248728391e-05
-1.901125134e-05
-1.802673499e-05
-1.690739964e-05
-1.563803634e-05
-1.421348024e-05
-1.190241252e-05
-1.137380186e-05
-1.07430701e-05
-9.967805999e-06
-9.073795756e-06
-7.608709299e-06
-7.270481614e-06
-6.848091006e-06
-6.341957178e-06
-5.765113537e-06
-4.82045566e-06
-4.587021941e-06
-4.30090201e-06
-3.967340872e-06
-3.594960197e-06
-2.971959403e-06
-2.816144937e-06
-2.629107957e-06
-2.415723202e-06
-2.199184975e-06
-1.770604733e-06
-1.670802676e-06
-1.553045925e-06
-1.431808968e-06
-1.291138889e-06
-1.009936972e-06
-9.576105497e-07
-8.876568494e-07
-8.167832503e-07
-7.358841931e-07
-5.478740014e-07
-5.121328053e-07
-5.956904853e-07
-5.35492295e-07
-4.762073137e-07
-3.345460951e-07
-3.136502751e-07
-2.894094825e-07
-2.635944977e-07
-2.372345377e-07
-1.6583825e-07
-1.56507703e-07
-1.458218766e-07
-1.342415419e-07
-1.221421188e-07
-8.494552596e-08
-8.060680062e-08
-7.564906915e-08
-7.028526507e-08
-6.464843274e-08
-4.458842222e-08
-4.254054498e-08
-4.018634299e-08
-3.756213717e-08
-3.505701306e-08
-2.392300364e-08
-2.303443195e-08
-2.203737213e-08
-2.098525393e-08
-1.994709647e-08
-1.337373206e-08
-1.303640137e-08
-1.269667351e-08
-1.240850422e-08
-1.221333382e-08
-7.987927529e-09
-7.991225255e-09
-8.054944765e-09
-8.145268345e-09
-8.360698492e-09
-5.376391111e-09
-5.575487917e-09
-5.877144547e-09
-6.239698335e-09
-6.571439992e-09
-4.253027641e-09
-4.496418283e-09
-4.783091879e-09
-5.092501119e-09
-5.41929484e-09
-3.746319207e-09
-3.994272606e-09
-4.272828498e-09
-4.55710865e-09
-4.807026553e-09
-3.67229337e-09
-3.871204626e-09
-4.072013353e-09
-4.243705006e-09
-4.345631484e-09
-3.738111455e-09
-3.851741866e-09
-3.938876931e-09
-3.966665483e-09
-3.89620562e-09
-3.791513307e-09
-3.7986196e-09
-3.754686279e-09
-3.629910277e-09
-3.392261521e-09
-3.749860751e-09
-3.648657115e-09
-3.479431621e-09
-3.219017179e-09
-2.845111517e-09
-3.566623173e-09
-3.370229585e-09
-3.097425569e-09
-2.733839397e-09
-2.268269182e-09
-3.292293496e-09
-3.032218217e-09
-2.696653937e-09
-2.279886024e-09
-1.780312461e-09
-2.932844265e-09
-2.637257912e-09
-2.272868841e-09
-1.841284409e-09
-1.348249557e-09
-2.909160092e-09
-2.628057971e-09
-2.289101416e-09
-1.897205508e-09
-1.460930984e-09
-2.616217589e-09
-4.160791464e-11
-1.621959582e-12
-1.244354912e-13
-2.053497829e-14
-4.283120321e-15
-8.865253015e-16
-1.779350472e-16
-3.595366909e-17
-8.031238573e-18
-2.343294741e-18
-1.023570547e-18
-6.224338478e-19
-4.506616273e-19
-3.537747461e-19
-2.880373799e-19
-2.371594116e-19
-1.941411521e-19
-1.561851139e-19
-1.225416926e-19
-9.333958243e-20
-6.88630396e-20
-4.917023556e-20
-3.398683114e-20
-2.276672687e-20
-1.481721072e-20
-9.406218034e-21
-5.855933416e-21
-3.601909872e-21
-2.209910332e-21
-1.367819559e-21
-8.641885112e-22
-5.62939215e-22
-3.802232103e-22
-2.661377589e-22
-1.917573853e-22
-1.406678245e-22
-1.037465596e-22
-7.60380217e-23
-5.487967018e-23
-3.877498317e-23
-2.674638088e-23
-1.801300891e-23
-1.187249707e-23
-7.688631004e-24
-4.915743537e-24
-3.118242128e-24
-1.971451236e-24
-1.247269644e-24
-7.924376424e-25
-5.070888042e-25
-3.274688008e-25
-2.133509903e-25
-1.395578443e-25
-9.046817481e-26
-5.654690203e-26
-3.224762771e-26
-1.518155651e-26
-4.80894358e-27
-8.849304269e-28
-4.773636383e-08
-7.652366532e-10
-1.925964792e-11
-9.269324035e-13
-9.16409639e-14
-1.311022704e-14
-2.222029263e-15
-4.371080173e-16
-1.109286385e-16
-3.991367146e-17
-1.90350175e-17
-1.074081583e-17
-6.701646162e-18
-4.51278233e-18
-3.230826969e-18
-2.415803215e-18
-1.849939823e-18
-1.426910857e-18
-1.094455423e-18
-8.269278368e-19
-6.116619022e-19
-4.412310686e-19
-3.098382351e-19
-2.116397805e-19
-1.407228918e-19
-9.125353173e-20
-5.790407849e-20
-3.613683238e-20
-2.233636478e-20
-1.379793214e-20
-8.610059432e-21
-5.48815347e-21
-3.606842709e-21
-2.456481824e-21
-1.732251575e-21
-1.256180663e-21
-9.26498288e-22
-6.863274038e-22
-5.047499526e-22
-3.652412509e-22
-2.585638197e-22
-1.786367182e-22
-1.20489523e-22
-7.955012584e-23
-5.162413962e-23
-3.309208114e-23
-2.105734352e-23
-1.33609676e-23
-8.485776015e-24
-5.412306015e-24
-3.476204018e-24
-2.25245773e-24
-1.471791564e-24
-9.648907021e-25
-6.263294756e-25
-3.920635089e-25
-2.261463054e-25
-1.115561309e-25
-4.067191326e-26
-6.955315647e-27
-2.287036591e-07
-2.366350034e-09
-3.151439468e-11
-1.481849836e-12
-1.461428324e-13
-1.956065521e-14
-4.45092519e-15
-1.480108666e-15
-6.539651414e-16
-3.341812966e-16
-1.799493611e-16
-1.125103871e-16
-6.218037783e-17
-3.54579951e-17
-2.18592492e-17
-1.448901596e-17
-1.011092845e-17
-7.270023091e-18
-5.266789828e-18
-3.789364012e-18
-2.687548925e-18
-1.871415797e-18
-1.277304335e-18
-8.545477583e-19
-5.60105672e-19
-3.60067938e-19
-2.276390299e-19
-1.421530792e-19
-8.82423771e-20
-5.492845834e-20
-3.461247914e-20
-2.230030137e-20
-1.481610702e-20
-1.019704112e-20
-7.261464193e-21
-5.312825703e-21
-3.94911551e-21
-2.944570181e-21
-2.176967752e-21
-1.581774692e-21
-1.123376183e-21
-7.781501261e-22
-5.261031972e-22
-3.482130146e-22
-2.266524077e-22
-1.458248329e-22
-9.320891852e-23
-5.944766354e-23
-3.796900022e-23
-2.435833204e-23
-1.573427986e-23
-1.024790628e-23
-6.724506545e-24
-4.421838742e-24
-2.87512301e-24
-1.802733414e-24
-1.049715577e-24
-5.31986644e-25
-1.967067465e-25
-2.963150517e-26
-4.238895071e-06
-5.43692838e-08
-3.699942275e-10
-5.970643808e-12
-3.165416908e-13
-5.459785305e-14
-1.961779745e-14
-9.493384234e-15
-5.060572067e-15
-2.786622501e-15
-1.544924758e-15
-8.577556135e-16
-4.757923187e-16
-2.660317992e-16
-1.572533296e-16
-9.716111404e-17
-5.690897007e-17
-3.643631433e-17
-2.440754718e-17
-1.661321794e-17
-1.124138833e-17
-7.492311315e-18
-4.90749757e-18
-3.160349066e-18
-2.005060388e-18
-1.256776047e-18
-7.803913556e-19
-4.81746872e-19
-2.971663425e-19
-1.844045172e-19
-1.161448559e-19
-7.495572021e-20
-4.997518981e-20
-3.457561944e-20
-2.479369122e-20
-1.829300265e-20
-1.372080378e-20
-1.032075471e-20
-7.691286717e-21
-5.628213968e-21
-4.023092596e-21
-2.803670202e-21
-1.906587407e-21
-1.268969291e-21
-8.303814357e-22
-5.371369341e-22
-3.452454378e-22
-2.214921505e-22
-1.423481293e-22
-9.191236076e-23
-5.975914551e-23
-3.91682219e-23
-2.584347934e-23
-1.706389689e-23
-1.112312469e-23
-6.993183435e-24
-4.096332452e-24
-2.106577284e-24
-7.513024481e-25
-9.980573986e-26
-6.72942871e-06
-2.01110771e-07
-1.877207736e-09
-2.098690937e-11
-1.320749603e-12
-3.470996718e-13
-1.542415225e-13
-7.720367097e-14
-4.077313341e-14
-2.223752054e-14
-1.234260939e-14
-6.910776124e-15
-3.874444041e-15
-2.172301227e-15
-1.219486599e-15
-6.874805478e-16
-3.89663288e-16
-2.535430069e-16
-1.419193806e-16
-8.669035056e-17
-5.485460062e-17
-3.488785331e-17
-2.192749196e-17
-1.354103398e-17
-8.221865055e-18
-4.92951425e-18
-2.935073518e-18
-1.745025713e-18
-1.041547606e-18
-6.279979581e-19
-3.855185827e-19
-2.431102169e-19
-1.587911571e-19
-1.080279609e-19
-7.656493303e-20
-5.615513489e-20
-4.207802006e-20
-3.172427585e-20
-2.373662641e-20
-1.745096276e-20
-1.253750287e-20
-8.787436093e-21
-6.01519707e-21
-4.034560768e-21
-2.664179876e-21
-1.740872905e-21
-1.130699757e-21
-7.325902913e-22
-4.749029726e-22
-3.08851975e-22
-2.020036024e-22
-1.330785162e-22
-8.821574881e-23
-5.848531611e-23
-3.8265748e-23
-2.415483557e-23
-1.423322983e-23
-7.37226117e-24
-2.473919844e-24
-2.990488616e-25
-2.044733988e-06
-1.368200228e-06
-2.601656305e-08
-3.002894215e-10
-1.493746509e-11
-3.403883216e-12
-1.285726169e-12
-5.85378115e-13
-2.981047885e-13
-1.623111448e-13
-9.165288564e-14
-5.265534063e-14
-3.03995338e-14
-1.753975776e-14
-1.011835693e-14
-5.816387252e-15
-3.320403472e-15
-1.878129689e-15
-1.051359688e-15
-6.675866988e-16
-3.697943247e-16
-2.151006608e-16
-1.276511333e-16
-7.555856888e-17
-4.412868006e-17
-2.539369861e-17
-1.44344074e-17
-8.14049783e-18
-4.583084587e-18
-2.598685726e-18
-1.499301058e-18
-8.894807061e-19
-5.482241508e-19
-3.539972502e-19
-2.403237103e-19
-1.708283148e-19
-1.254218505e-19
-9.34435728e-20
-6.949754368e-20
-5.097318925e-20
-3.660321734e-20
-2.56662969e-20
-1.75913805e-20
-1.182915764e-20
-7.850570934e-21
-5.171728685e-21
-3.396335326e-21
-2.228629589e-21
-1.462992264e-21
-9.618918731e-22
-6.343376485e-22
-4.201792976e-22
-2.794514468e-22
-1.856920562e-22
-1.218578357e-22
-7.736885146e-23
-4.600692111e-23
-2.394798446e-23
-7.499428554e-24
-8.515149232e-25
2.009216506e-06
-4.41365561e-06
-1.682747969e-07
-3.076350872e-09
-7.609655054e-11
-1.188711286e-11
-4.222418195e-12
-1.978399308e-12
-1.058212874e-12
-6.108774485e-13
-3.685600643e-13
-2.280605034e-13
-1.429446431e-13
-8.991600208e-14
-5.628817528e-14
-3.490509115e-14
-2.13343244e-14
-1.283799624e-14
-7.6306586e-15
-4.467122721e-15
-2.594357614e-15
-1.673120403e-15
-9.341167779e-16
-5.259422802e-16
-2.969101216e-16
-1.667650905e-16
-9.25392155e-17
-5.047715323e-17
-2.711034402e-17
-1.444754407e-17
-7.727643577e-18
-4.199687387e-18
-2.352435181e-18
-1.379072197e-18
-8.558307953e-19
-5.636488801e-19
-3.905240372e-19
-2.791819599e-19
-2.019246185e-19
-1.454355867e-19
-1.032200304e-19
-7.183281643e-20
-4.89796051e-20
-3.280950362e-20
-2.171908436e-20
-1.431774603e-20
-9.450710653e-21
-6.260447883e-21
-4.161324403e-21
-2.773098526e-21
-1.851623237e-21
-1.238633694e-21
-8.292615709e-22
-5.533049211e-22
-3.644620489e-22
-2.329688276e-22
-1.401781095e-22
-7.320298559e-23
-2.148776799e-23
-2.344677015e-24
-0.0002704269642
-2.203133064e-05
-1.857206348e-06
-5.404447819e-08
-1.023674258e-09
-6.566618572e-11
-1.366080274e-11
-5.137307658e-12
-2.487186617e-12
-1.383052438e-12
-8.347213722e-13
-5.294410651e-13
-3.466232511e-13
-2.317395715e-13
-1.570473916e-13
-1.072643639e-13
-7.346616633e-14
-5.013462141e-14
-3.380830224e-14
-2.239276196e-14
-1.442266497e-14
-8.960793477e-15
-5.372871195e-15
-3.569549223e-15
-2.009594296e-15
-1.140291249e-15
-6.369913178e-16
-3.463408984e-16
-1.837593902e-16
-9.577978386e-17
-4.936615151e-17
-2.526361234e-17
-1.300081031e-17
-6.858270969e-18
-3.780296412e-18
-2.204122045e-18
-1.364933107e-18
-8.910258001e-19
-6.021559432e-19
-4.132658721e-19
-2.837864441e-19
-1.931128955e-19
-1.296309234e-19
-8.580687992e-20
-5.623887727e-20
-3.677171669e-20
-2.415035978e-20
-1.599221242e-20
-1.068156035e-20
-7.18490969e-21
-4.856084736e-21
-3.290354596e-21
-2.22870199e-21
-1.501604722e-21
-9.973890972e-22
-6.430857507e-22
-3.905793742e-22
-2.041699938e-22
-5.714940612e-23
-5.950195985e-24
-0.0004407347195
-2.898183976e-05
-8.146523095e-06
-4.604171608e-07
-1.142395954e-08
-3.84716786e-10
-4.458105494e-11
-1.189799083e-11
-4.915740286e-12
-2.524008089e-12
-1.467290964e-12
-9.212130511e-13
-6.087970732e-13
-4.172676034e-13
-2.937490481e-13
-2.1088024e-13
-1.534786264e-13
-1.126501661e-13
-8.294707607e-14
-6.093419383e-14
-4.438744025e-14
-3.184381688e-14
-2.23098601e-14
-1.502805204e-14
-1.013515067e-14
-6.854270019e-15
-3.981151343e-15
-2.250057462e-15
-1.235945987e-15
-6.634514108e-16
-3.451351812e-16
-1.737680849e-16
-8.604129666e-17
-4.269662938e-17
-2.153958472e-17
-1.115110888e-17
-6.010904739e-18
-3.408934611e-18
-2.03569361e-18
-1.268717098e-18
-8.119259458e-19
-5.26601625e-19
-3.424747365e-19
-2.217359605e-19
-1.426200032e-19
-9.163010125e-20
-5.929717246e-20
-3.881784646e-20
-2.573221325e-20
-1.726845817e-20
-1.171596919e-20
-8.010241523e-21
-5.492609215e-21
-3.751865069e-21
-2.527741021e-21
-1.65301214e-21
-1.016661334e-21
-5.336729291e-22
-1.450193604e-22
-1.488485742e-23
-0.0004542075964
-3.542265103e-05
-1.126308221e-05
-1.628440582e-06
-8.296933777e-08
-2.548313233e-09
-1.57803275e-10
-2.678450778e-11
-8.731139012e-12
-4.002577506e-12
-2.203086253e-12
-1.352107132e-12
-8.912833136e-13
-6.18336406e-13
-4.458314705e-13
-3.310714028e-13
-2.51388796e-13
-1.939825215e-13
-1.512543617e-13
-1.185196806e-13
-9.279887179e-14
-7.21958909e-14
-5.546078722e-14
-4.176936507e-14
-3.060982973e-14
-2.16796432e-14
-1.675009365e-14
-1.111798731e-14
-6.901675502e-15
-4.054669396e-15
-2.234928082e-15
-1.167281349e-15
-5.883968854e-16
-2.919161864e-16
-1.422938346e-16
-6.876076185e-17
-3.344150025e-17
-1.662788039e-17
-8.549169003e-18
-4.607770467e-18
-2.619534897e-18
-1.550712118e-18
-9.468646552e-19
-5.905649001e-19
-3.720639128e-19
-2.330884284e-19
-1.466751607e-19
-9.360134487e-20
-6.077136609e-20
-4.014777256e-20
-2.695339672e-20
-1.835681551e-20
-1.263306924e-20
-8.715936772e-21
-5.958858252e-21
-3.965983458e-21
-2.481886859e-21
-1.316766639e-21
-3.544883727e-22
-3.712356476e-23
-0.0004360304278
-6.892589604e-05
-2.989696313e-06
-4.103812863e-06
-3.66766624e-07
-1.634260902e-08
-6.627768295e-10
-6.575721157e-11
-1.53251067e-11
-5.973256145e-12
-3.036008766e-12
-1.794214744e-12
-1.167265542e-12
-8.126308773e-13
-5.954681823e-13
-4.540462423e-13
-3.570258129e-13
-2.872542084e-13
-2.348806382e-13
-1.938640678e-13
-1.604853089e-13
-1.324516537e-13
-1.083608958e-13
-8.738699514e-14
-6.907299209e-14
-5.320346199e-14
-3.968940613e-14
-3.214160969e-14
-2.312813743e-14
-1.549511743e-14
-9.968586294e-15
-6.060648113e-15
-3.446946107e-15
-1.826157632e-15
-9.085066297e-16
-4.364244372e-16
-2.053045299e-16
-9.559085294e-17
-4.405780882e-17
-2.065270559e-17
-1.017329494e-17
-5.315602313e-18
-2.921213912e-18
-1.683404283e-18
-1.014594712e-18
-6.296965175e-19
-3.887798686e-19
-2.377226592e-19
-1.479957324e-19
-9.447660603e-20
-6.177031139e-20
-4.127043602e-20
-2.806008462e-20
-1.928483895e-20
-1.325382136e-20
-8.9361052e-21
-5.693323122e-21
-3.074675711e-21
-8.415543805e-22
-9.477970442e-23
-0.001777134903
-0.0002865573394
-2.503565672e-05
-1.078718017e-05
-1.645658544e-06
-1.220836813e-07
-5.135399478e-09
-2.721041051e-10
-3.56697862e-11
-9.753153318e-12
-4.154571766e-12
-2.25608178e-12
-1.417354342e-12
-9.805973686e-13
-7.271207745e-13
-5.687534045e-13
-4.633333029e-13
-3.886943387e-13
-3.325272212e-13
-2.876322677e-13
-2.496829006e-13
-2.161232586e-13
-1.855151509e-13
-1.571431974e-13
-1.307611599e-13
-1.064085985e-13
-8.42761699e-14
-6.635423693e-14
-5.646011536e-14
-4.043649153e-14
-2.81888866e-14
-1.891563016e-14
-1.211457098e-14
-7.360127645e-15
-4.222951886e-15
-2.26757857e-15
-1.139192832e-15
-5.35464802e-16
-2.391573491e-16
-1.048281732e-16
-4.639094e-17
-2.151617839e-17
-9.803406463e-18
-4.719588068e-18
-2.526035717e-18
-1.518075519e-18
-9.984702649e-19
-6.42450713e-19
-3.935401418e-19
-2.395449482e-19
-1.483094113e-19
-9.508503324e-20
-6.2745122e-20
-4.22574024e-20
-2.870622952e-20
-1.933237961e-20
-1.24508859e-20
-6.882757851e-21
-1.972377572e-21
-2.632277315e-22
-0.004275630323
-0.0006852137735
-9.363251965e-05
-1.728055751e-05
-4.165964069e-06
-5.187422981e-07
-3.680615063e-08
-1.69555392e-09
-1.118807397e-10
-1.738595085e-11
-5.45489854e-12
-2.588975079e-12
-1.549566642e-12
-1.074419893e-12
-8.179979588e-13
-6.688655346e-13
-5.728038791e-13
-5.05495126e-13
-4.538985668e-13
-4.106337281e-13
-3.71438315e-13
-3.339472249e-13
-2.97010813e-13
-2.602890929e-13
-2.239655147e-13
-1.885687798e-13
-1.548286219e-13
-1.247298885e-13
-1.10793825e-13
-8.438924955e-14
-6.175729375e-14
-4.383232264e-14
-2.996728146e-14
-1.962618521e-14
-1.226156935e-14
-7.277861539e-15
-4.087876687e-15
-2.16494896e-15
-1.07474558e-15
-4.98266736e-16
-2.187088504e-16
-9.219055115e-17
-3.491356924e-17
-1.556339127e-17
-7.392106725e-18
-3.823626835e-18
-2.155143464e-18
-1.306088363e-18
-8.291086187e-19
-5.942122392e-19
-3.853409932e-19
-2.367993222e-19
-1.480557944e-19
-9.518612863e-20
-6.272609871e-20
-4.152037075e-20
-2.669129099e-20