/*--------------------------------*- C++ -*----------------------------------*\
  =========                 |
  \\      /  F ield         | OpenFOAM: The Open Source CFD Toolbox
   \\    /   O peration     | Website:  https://openfoam.org
    \\  /    A nd           | Version:  10
     \\/     M anipulation  |
\*---------------------------------------------------------------------------*/
FoamFile
{
    format      ascii;
    class       volScalarField;
    location    "3000";
    object      RR.H2CN;
}
// * * * * * * * * * * * * * * * * * * * * * * * * * * * * * * * * * * * * * //

dimensions      [1 -3 -1 0 0 0 0];

internalField   nonuniform List<scalar> 
5170
(
-1.87928044e-71
-1.512939067e-71
-9.34706797e-72
-4.608551745e-72
-3.694798228e-72
-6.399825193e-69
-5.094595565e-69
-3.09234284e-69
-1.787040212e-69
-3.206114682e-69
-2.210370313e-66
-1.745677207e-66
-1.054232052e-66
-8.303096852e-67
-2.549404742e-66
-7.805551406e-64
-6.156350588e-64
-3.836126211e-64
-4.315495404e-64
-1.862806764e-63
-2.811073117e-61
-2.23600719e-61
-1.493267472e-61
-2.379174519e-61
-1.269386737e-60
-1.034812203e-58
-8.410045024e-59
-6.168365997e-59
-1.349290115e-58
-8.152808412e-58
-3.881534843e-56
-3.251661795e-56
-2.733208598e-56
-7.765039627e-56
-5.038103718e-55
-1.47975864e-53
-1.291766004e-53
-1.296767666e-53
-4.508035506e-53
-3.028842535e-52
-5.747141105e-51
-5.333002605e-51
-6.434678536e-51
-2.630700743e-50
-1.779554724e-49
-2.276583034e-48
-2.285055326e-48
-3.303174975e-48
-1.544272861e-47
-1.02539796e-46
-9.175097966e-46
-1.01200442e-45
-1.742134493e-45
-9.099420878e-45
-5.814508195e-44
-3.748745401e-43
-4.621172211e-43
-9.453675454e-43
-5.38171222e-42
-3.258456541e-41
-1.549773363e-40
-2.167021101e-40
-5.309016172e-40
-3.226849732e-39
-1.814731306e-38
-6.450554814e-38
-1.038443226e-37
-3.070135338e-37
-1.974615316e-36
-1.011829545e-35
-2.699219124e-35
-5.059701868e-35
-1.813080521e-34
-1.235722922e-33
-5.689260249e-33
-1.121698483e-32
-2.477077952e-32
-1.077178086e-31
-7.686618236e-31
-3.240689604e-30
-4.622835907e-30
-1.220536337e-29
-6.258832489e-29
-4.544751189e-28
-1.621382543e-27
-1.602583282e-27
-3.36487211e-27
5.779741962e-26
5.065100927e-24
8.222251351e-23
3.329180461e-23
5.498241229e-22
2.614052247e-20
1.503856854e-18
2.65539748e-17
3.382015038e-18
1.089222306e-16
6.709246304e-15
3.351020726e-13
8.046554153e-12
3.148653617e-18
1.025629557e-18
6.141204886e-19
1.240978206e-18
3.102143222e-18
-8.669754598e-19
9.407156194e-21
2.379689915e-20
-7.178771237e-20
-1.036708624e-18
-4.07209373e-19
-6.45931172e-19
-5.218445555e-19
-6.736163192e-19
-4.492551706e-19
-2.533306517e-19
-3.652791457e-19
-3.323178287e-19
-2.140416332e-19
-1.938927309e-19
-1.639590752e-19
-1.102979177e-19
-1.813071792e-19
-1.336619238e-19
-1.297215775e-19
-1.082038432e-19
-9.992770659e-20
-8.365120081e-20
-1.112426171e-19
-8.748789084e-20
-7.421791361e-20
-8.244787932e-20
-7.63495075e-20
-9.072112533e-20
-6.00579954e-20
-5.222450729e-20
-6.62037073e-20
-6.526178362e-20
-7.121781822e-20
-4.036822692e-20
-3.730214672e-20
-5.1748253e-20
-5.337184389e-20
-5.202395017e-20
-2.641645553e-20
-2.693530479e-20
-3.96160928e-20
-4.174189887e-20
-3.609276471e-20
-1.726687373e-20
-1.95382028e-20
-2.969518474e-20
-3.144140676e-20
-2.456656439e-20
-1.153555942e-20
-1.424573714e-20
-2.194429513e-20
-2.30482664e-20
-1.672773585e-20
-7.949520296e-21
-1.044624409e-20
-1.605738351e-20
-1.666043526e-20
-1.155943217e-20
-5.685181091e-21
-7.757206437e-21
-1.17718507e-20
-1.201834001e-20
-8.172424812e-21
-4.224356984e-21
-6.238070653e-21
-8.775464215e-21
-8.749982128e-21
-5.941446758e-21
-3.259900423e-21
-6.047199466e-20
-3.157224738e-20
-1.163625586e-20
-5.082775044e-21
-2.633138631e-21
-8.225077156e-18
-2.536797379e-18
-6.094144659e-19
-1.514739758e-19
-1.734914941e-20
-1.543278976e-15
-4.490564366e-16
-9.865598802e-17
-1.93685735e-17
-1.923008277e-18
-3.230152642e-13
-8.166902572e-14
-1.640623325e-14
-2.766403632e-15
-2.391882307e-16
-1.916047284e-10
-2.016107684e-11
-2.77711516e-12
-3.489667439e-13
-2.606408163e-14
4.147712489e-15
2.479078214e-13
5.5718879e-11
1.05041734e-08
1.036060445e-06
6.879894151e-14
2.770497162e-12
3.220212544e-10
2.105848159e-08
3.989541156e-07
4.180063016e-13
1.193890386e-11
7.920388854e-10
2.317899198e-08
1.893977801e-07
1.788144931e-12
4.049718253e-11
1.888669208e-09
4.111352714e-08
3.996618579e-07
6.169237863e-12
1.137538608e-10
3.699009435e-09
5.238532218e-08
3.490012259e-07
1.798501137e-11
2.641961962e-10
5.753941596e-09
5.2648097e-08
2.813255391e-07
4.74992791e-11
5.609390887e-10
8.345063469e-09
6.187309356e-08
3.540378437e-07
1.21223154e-10
1.244317868e-09
1.551473047e-08
1.274101463e-07
7.049516432e-07
2.983171392e-10
2.663468059e-09
2.654234141e-08
1.771356185e-07
7.38440786e-07
6.691296066e-10
4.871194538e-09
3.681611168e-08
1.959609071e-07
6.497952134e-07
1.382443204e-09
7.705238617e-09
4.667208284e-08
2.186220714e-07
6.150905444e-07
2.642734639e-09
1.214299962e-08
6.717859415e-08
2.902366197e-07
7.096833155e-07
4.997811616e-09
1.966936477e-08
9.610856956e-08
3.522079891e-07
6.761084334e-07
9.204458803e-09
3.033366574e-08
1.251756674e-07
3.788633642e-07
5.336114457e-07
1.653855406e-08
4.518057106e-08
1.5671958e-07
3.97775461e-07
3.669355881e-07
3.043295379e-08
6.982922713e-08
1.992179462e-07
4.147872001e-07
1.991609412e-07
6.02828299e-08
1.144246825e-07
2.542999057e-07
4.027435977e-07
2.362468648e-08
1.095499482e-07
1.691872712e-07
2.923174366e-07
2.680439962e-07
-1.863637474e-07
1.497046216e-07
1.87208831e-07
1.974480719e-07
-1.06367959e-08
-3.327422713e-07
7.877651868e-08
5.653528936e-08
-4.324162633e-08
-2.102989969e-07
-3.133892947e-07
-9.637829918e-08
-1.252881443e-07
-1.774228216e-07
-2.142309015e-07
-2.060482318e-07
-1.460019849e-07
-1.243143882e-07
-1.490736716e-07
-1.491797457e-07
-8.581450193e-08
-9.291251077e-08
-9.247024673e-08
-9.288036455e-08
-6.254192439e-08
-6.040616275e-08
-4.991259911e-08
-5.166856178e-08
-5.348446033e-08
-3.866210657e-08
-4.497804048e-08
-3.033165711e-08
-3.423413769e-08
-2.501544189e-08
-2.916212275e-08
-3.977975153e-08
-2.240482899e-08
-2.665101843e-08
-3.525874099e-08
-2.685563781e-08
-4.080916507e-08
-2.203949894e-08
-2.675611577e-08
-2.335344068e-08
-3.394847843e-08
-4.780520199e-08
-2.427862488e-08
-2.901780491e-08
-4.108972777e-08
-4.005331989e-08
-5.810981605e-08
-2.196350565e-08
-2.473668072e-08
-4.932541703e-08
-6.754698906e-08
-7.498125309e-08
-3.251045784e-08
-3.778351102e-08
-4.761821465e-08
-6.497719183e-08
-9.338591355e-08
-4.612368533e-08
-5.115614412e-08
-6.375633517e-08
-8.66814304e-08
-1.17160195e-07
-6.642406576e-08
-7.390228349e-08
-8.803737551e-08
-1.142831238e-07
-1.556630155e-07
-9.14173779e-08
-1.001721048e-07
-1.217615888e-07
-1.530395673e-07
-2.044042263e-07
-1.251996433e-07
-1.35957415e-07
-1.608044183e-07
-2.005161397e-07
-2.564737646e-07
-1.598806775e-07
-1.690225396e-07
-1.899419941e-07
-2.171418219e-07
-2.429408396e-07
-1.031802608e-07
-1.035959857e-07
-1.011495164e-07
-9.293186814e-08
-6.654068013e-08
1.418438472e-08
1.811077841e-08
2.890973924e-08
4.876553711e-08
8.411558601e-08
1.17931155e-08
1.632506205e-08
2.799968181e-08
5.049126351e-08
9.049098892e-08
-3.864237348e-08
-2.990046748e-08
-8.393172946e-09
3.088587584e-08
9.636687839e-08
-1.178723828e-08
3.335343268e-09
3.592921797e-08
7.934957724e-08
1.050893837e-07
-1.060169805e-07
-1.236967755e-07
-1.631715494e-07
-2.129135765e-07
-2.453270131e-07
-1.677370357e-07
-1.668485219e-07
-1.650850615e-07
-1.627067566e-07
-1.593229206e-07
-9.61795808e-08
-9.527217467e-08
-9.32034029e-08
-8.991723123e-08
-8.534853302e-08
-4.542251351e-08
-4.483693232e-08
-4.356305211e-08
-4.167808618e-08
-3.925949435e-08
-1.979370804e-08
-1.954610474e-08
-1.899478766e-08
-1.821765494e-08
-1.723334176e-08
-8.502043996e-09
-8.406308901e-09
-8.199598644e-09
-7.897882902e-09
-7.512778035e-09
-3.670409623e-09
-3.633455368e-09
-3.55368716e-09
-3.436439049e-09
-3.286517334e-09
-1.597641084e-09
-1.583245207e-09
-1.552066553e-09
-1.506081733e-09
-1.447001791e-09
-7.018331689e-10
-6.961131168e-10
-6.837261572e-10
-6.654058515e-10
-6.418232705e-10
-3.11238067e-10
-3.089420574e-10
-3.039531892e-10
-2.965699352e-10
-2.87002092e-10
-1.391675397e-10
-1.382889686e-10
-1.361241685e-10
-1.33178339e-10
-1.30295491e-10
-6.341246168e-11
-6.30311138e-11
-6.220279303e-11
-6.097273066e-11
-5.882102379e-11
-2.896308852e-11
-2.880265918e-11
-2.845391133e-11
-2.793427129e-11
-2.725659416e-11
-1.338066337e-11
-1.33135573e-11
-1.316756067e-11
-1.295004259e-11
-1.266654428e-11
-6.279294168e-12
-6.252008327e-12
-6.192780792e-12
-6.104775425e-12
-5.990535942e-12
-3.026490346e-12
-3.016702358e-12
-2.995569163e-12
-2.964527155e-12
-2.924946858e-12
-1.528294997e-12
-1.512748634e-12
-1.477977949e-12
-1.423436789e-12
-1.395304988e-12
-7.57722451e-13
-7.568498081e-13
-7.549516753e-13
-7.521299226e-13
-7.484892997e-13
-4.334214123e-13
-4.336298939e-13
-4.341646286e-13
-4.350563123e-13
-4.363743517e-13
-2.757925912e-13
-2.764707524e-13
-2.779823256e-13
-2.80333517e-13
-2.835846803e-13
-1.989888236e-13
-1.998805252e-13
-2.018562128e-13
-2.0489719e-13
-2.090420298e-13
-1.622169049e-13
-1.631893623e-13
-1.653376088e-13
-1.686286357e-13
-1.730652026e-13
-1.455607192e-13
-1.465147642e-13
-1.486150897e-13
-1.518133031e-13
-1.561083426e-13
-1.396146841e-13
-1.40505243e-13
-1.424602052e-13
-1.454222597e-13
-1.493724634e-13
-1.390101898e-13
-1.397839013e-13
-1.414768585e-13
-1.440272886e-13
-1.47401228e-13
-1.40365828e-13
-1.409757111e-13
-1.423049532e-13
-1.442931894e-13
-1.468968276e-13
-1.411838007e-13
-1.415928548e-13
-1.424789779e-13
-1.437898895e-13
-1.45479572e-13
-1.402254148e-13
-1.40422705e-13
-1.408441721e-13
-1.414511626e-13
-1.422024598e-13
-1.360117762e-13
-1.359990192e-13
-1.359614092e-13
-1.35878208e-13
-1.357193245e-13
-1.338335148e-13
-1.337005102e-13
-1.334014768e-13
-1.329289955e-13
-1.322635169e-13
3.504187083e-06
1.217503929e-06
6.210994123e-07
1.925336131e-06
1.285902638e-06
9.04040604e-07
1.029021911e-06
1.755541503e-06
1.310343082e-06
8.172731299e-07
5.833139925e-07
6.096812985e-07
3.732821387e-07
7.720623261e-08
-1.392370861e-07
-2.957369723e-07
-4.187974542e-07
-5.169272745e-07
-4.15676033e-07
-2.762420364e-07
-1.268060882e-07
-9.347816887e-08
-7.123595114e-08
-5.665723097e-08
-5.227521751e-08
-5.57029318e-08
-6.572385407e-08
-7.947003719e-08
-9.47188612e-08
-1.189027922e-07
-1.51418002e-07
-1.972716969e-07
-2.547486525e-07
-3.061973335e-07
-2.562340106e-07
-3.466849353e-08
1.228565247e-07
1.366315659e-07
1.642922294e-07
7.702052009e-08
-2.497063455e-07
-1.56122588e-07
-8.163292679e-08
-3.740008492e-08
-1.647711324e-08
-7.215919501e-09
-3.170188163e-09
-1.400869521e-09
-6.233043493e-10
-2.79464239e-10
-1.261633765e-10
-5.752831764e-11
-2.671645552e-11
-1.244090696e-11
-5.900118147e-12
-2.894428333e-12
-1.383803018e-12
-7.457658895e-13
-4.375947265e-13
-2.86389868e-13
-2.125536775e-13
-1.767430884e-13
-1.596835726e-13
-1.52631696e-13
-1.501552939e-13
-1.48991712e-13
-1.468058541e-13
-1.427512518e-13
-1.355230847e-13
-1.316600741e-13
-2.347485377e-07
-5.814803914e-10
-5.206724798e-10
-3.2339432e-11
-2.285979211e-12
-2.773386748e-07
1.207543474e-08
-3.409804481e-09
-2.015309368e-10
-1.913222583e-11
-2.356948459e-07
-3.011388929e-08
-1.663924972e-09
-1.187710432e-08
-9.360514567e-10
-6.450467865e-07
-2.61338711e-06
4.621352102e-06
-1.233040764e-06
-7.170755589e-08
-4.708732622e-07
-8.573583095e-07
-1.724600966e-06
-3.098497709e-07
-2.627838373e-08
-3.322234706e-07
-2.62499611e-07
-3.004272543e-07
-7.108551279e-08
-1.117733948e-08
-3.317856209e-07
-1.390360666e-07
-4.773235791e-08
3.168859531e-09
-4.789708461e-08
-5.462653599e-07
-6.466352974e-07
-3.099906769e-06
8.350383635e-06
-1.90811613e-06
-5.323163151e-07
-5.527090338e-07
-2.058179811e-06
1.826810714e-06
-1.15962954e-06
-4.496228122e-07
-3.137310839e-07
-7.783550372e-07
-2.323051512e-07
-3.883042826e-07
-4.146646605e-07
-1.867438031e-07
-3.187122336e-07
2.668096002e-08
-3.355766882e-08
-4.589263501e-07
-1.95773962e-07
-4.466852854e-07
-1.027103281e-06
2.27101657e-06
-4.76577116e-07
-3.356557923e-07
-1.03275673e-06
-3.49091917e-06
1.11594257e-05
-4.583561101e-07
-3.012241691e-07
-7.362801709e-07
-1.883983549e-06
1.453082932e-06
-3.997123817e-07
-2.227861919e-07
-4.192818691e-07
-8.468038651e-07
5.572873142e-07
-3.023038522e-07
-1.718417798e-07
-2.547565964e-07
-4.304615505e-07
3.575020734e-07
-2.519750059e-07
-1.535125025e-07
-2.270040988e-07
-4.245836022e-07
-2.855289616e-07
-2.25817134e-07
-2.444878114e-07
-5.739647894e-07
-1.573555787e-06
-4.137610317e-06
-1.990943162e-07
-3.124954488e-07
-7.488338263e-07
-1.886884703e-06
-4.48305999e-06
-1.718345592e-07
-3.0412778e-07
-6.834503393e-07
-1.545621877e-06
-3.247160623e-06
-1.391083134e-07
-2.554113749e-07
-5.36446861e-07
-1.112610057e-06
-2.119635334e-06
-1.113755137e-07
-2.029143749e-07
-4.034412607e-07
-7.849836547e-07
-1.38484179e-06
-8.92596144e-08
-1.623915978e-07
-3.1132134e-07
-5.792909252e-07
-9.588574276e-07
-7.559773732e-08
-1.393019352e-07
-2.62786676e-07
-4.769930697e-07
-7.58140623e-07
-7.268347913e-08
-1.377173945e-07
-2.629667327e-07
-4.846441382e-07
-7.971024069e-07
-8.000957544e-08
-1.551859145e-07
-3.005748721e-07
-5.639777251e-07
-9.602213608e-07
-9.4344218e-08
-1.821408958e-07
-3.483821933e-07
-6.43733987e-07
-1.062733372e-06
-1.136565877e-07
-2.117124423e-07
-3.907581571e-07
-6.937776941e-07
-1.035621191e-06
-1.348233411e-07
-2.43502397e-07
-4.318434468e-07
-7.27539132e-07
-8.841339386e-07
-1.720038744e-07
-2.853606831e-07
-4.881039814e-07
-7.659983503e-07
-6.004734977e-07
-2.044020675e-07
-3.460833571e-07
-5.691765429e-07
-7.786172445e-07
-1.176894189e-07
-2.609386617e-07
-4.262326731e-07
-6.441243918e-07
-6.374839037e-07
6.091553836e-07
-3.283059496e-07
-4.925768373e-07
-5.871198735e-07
-1.809706972e-07
1.479144303e-06
-3.626458963e-07
-4.168867282e-07
-2.207422849e-07
5.55853726e-07
2.27968171e-06
-2.355530372e-07
-9.332912164e-08
3.141179979e-07
1.159640027e-06
2.480293744e-06
3.836035948e-08
2.488683632e-07
6.559903627e-07
1.39070017e-06
1.182090868e-06
1.890675385e-07
3.922357821e-07
7.880769287e-07
1.089744264e-06
-6.375471702e-07
2.13284204e-07
4.515270258e-07
6.660657903e-07
-3.513551697e-07
-5.54923181e-07
2.584382224e-07
2.990164876e-07
-3.311230333e-07
-4.389032774e-07
-3.79955491e-07
-8.234472818e-08
-3.388025129e-07
-3.278249266e-07
-2.921744575e-07
-2.317929777e-07
-2.432453818e-07
-2.305600156e-07
-2.065992743e-07
-1.686062749e-07
-1.282807174e-07
-1.489736738e-07
-1.322235141e-07
-1.102555723e-07
-8.732410687e-08
-6.669801989e-08
-7.557750816e-08
-6.47970194e-08
-5.348288043e-08
-4.275646715e-08
-3.331308264e-08
-3.457759819e-08
-2.978332788e-08
-2.49246687e-08
-2.0325729e-08
-1.621060504e-08
-1.534832718e-08
-1.340951655e-08
-1.142351305e-08
-9.51033325e-09
-7.754852625e-09
-6.774895765e-09
-6.004276237e-09
-5.20151223e-09
-4.411157778e-09
-3.668796535e-09
-2.996408438e-09
-2.689532182e-09
-2.364123607e-09
-2.037573432e-09
-1.724555457e-09
-1.331847833e-09
-1.208386274e-09
-1.075489604e-09
-9.400640087e-10
-8.079063468e-10
-5.955547283e-10
-5.453729326e-10
-4.906728413e-10
-4.341544014e-10
-3.779694466e-10
-2.681581325e-10
-2.475462765e-10
-2.248284464e-10
-2.010967511e-10
-1.772133773e-10
-1.216480718e-10
-1.12962877e-10
-1.035707778e-10
-9.348543526e-11
-8.336038792e-11
-5.554055236e-11
-5.193705541e-11
-4.852244191e-11
-4.425022753e-11
-3.990386048e-11
-2.590454787e-11
-2.439340171e-11
-2.269773034e-11
-2.089233248e-11
-1.904942151e-11
-1.210210836e-11
-1.147301923e-11
-1.076955798e-11
-1.002410767e-11
-9.270831213e-12
-5.764760493e-12
-5.516712624e-12
-5.245283401e-12
-4.967707401e-12
-4.703952942e-12
-2.849303213e-12
-2.771865505e-12
-2.655435121e-12
-2.360952765e-12
-2.250436302e-12
-1.36632053e-12
-1.333430479e-12
-1.297896451e-12
-1.261792217e-12
-1.227574201e-12
-7.418226237e-13
-7.353873831e-13
-7.296281904e-13
-7.259409549e-13
-7.257192206e-13
-4.394850554e-13
-4.4416213e-13
-4.509035716e-13
-4.605089941e-13
-4.739227751e-13
-2.906649537e-13
-2.998406565e-13
-3.119954381e-13
-3.278088375e-13
-3.470653613e-13
-2.178646443e-13
-2.288887543e-13
-2.428893403e-13
-2.601603083e-13
-2.809014105e-13
-1.822681415e-13
-1.935295794e-13
-2.07480471e-13
-2.241852008e-13
-2.43639043e-13
-1.650314737e-13
-1.757706603e-13
-1.888213253e-13
-2.040947954e-13
-2.214203565e-13
-1.574873649e-13
-1.670770657e-13
-1.78486706e-13
-1.915062752e-13
-2.05850136e-13
-1.54244387e-13
-1.621580223e-13
-1.713408134e-13
-1.815071403e-13
-1.923181249e-13
-1.520952747e-13
-1.579396119e-13
-1.645010589e-13
-1.714725498e-13
-1.785249236e-13
-1.487729738e-13
-1.523028918e-13
-1.560427012e-13
-1.597179301e-13
-1.630667262e-13
-1.435780375e-13
-1.448486083e-13
-1.459258415e-13
-1.46610303e-13
-1.467442278e-13
-1.35267378e-13
-1.344425288e-13
-1.331283398e-13
-1.312270353e-13
-1.287040219e-13
-1.308151783e-13
-1.288900563e-13
-1.263755951e-13
-1.232511811e-13
-1.19569568e-13
2.26250006e-12
1.292965845e-15
1.336859772e-17
3.325378932e-19
2.406637518e-20
2.859565103e-21
3.021187544e-22
-4.339571188e-23
-7.999603615e-23
-7.441068652e-23
-6.519687903e-23
-5.725687693e-23
-5.069854942e-23
-4.509662033e-23
-4.009699784e-23
-3.547696536e-23
-3.113720892e-23
-2.705675958e-23
-2.326399506e-23
-1.980200353e-23
-1.671132607e-23
-1.401548491e-23
-1.171444335e-23
-9.783725879e-24
-8.179823082e-24
-6.847908499e-24
-5.731470898e-24
-4.781358393e-24
-3.961143041e-24
-3.247988866e-24
-2.629905929e-24
-2.101077964e-24
-1.657312816e-24
-1.292988661e-24
-9.998437856e-25
-7.674236419e-25
-5.845360284e-25
-4.408544995e-25
-3.279694021e-25
-2.396185631e-25
-1.712671487e-25
-1.19448131e-25
-8.121744772e-26
-5.387894973e-26
-3.494642335e-26
-2.222530664e-26
-1.390156851e-26
-8.573393351e-27
-5.221934642e-27
-3.142999748e-27
-1.868372693e-27
-1.095362166e-27
-6.318080789e-28
-3.571397821e-28
-1.963642743e-28
-1.032715467e-28
-4.973446364e-29
-1.972331555e-29
-4.588529583e-30
-3.748503553e-31
2.12622257e-11
5.053580173e-14
3.57999231e-16
8.879705489e-18
7.04467859e-19
9.322173813e-20
1.824671979e-20
6.84018709e-21
3.679462255e-21
2.02497e-21
9.622840003e-22
3.48534985e-22
1.769556985e-23
-1.468438479e-22
-2.114692313e-22
-2.225602968e-22
-2.082220072e-22
-1.838748887e-22
-1.573374425e-22
-1.322155957e-22
-1.099852815e-22
-9.106986116e-23
-7.537810213e-23
-6.255122175e-23
-5.211809294e-23
-4.35814777e-23
-3.648627808e-23
-3.046709045e-23
-2.526997511e-23
-2.074391075e-23
-1.681513926e-23
-1.345099963e-23
-1.062729676e-23
-8.309099936e-24
-6.443602534e-24
-4.963347534e-24
-3.796064877e-24
-2.875504726e-24
-2.148440813e-24
-1.57601016e-24
-1.130599182e-24
-7.912107521e-25
-5.397588302e-25
-3.592994901e-25
-2.339153825e-25
-1.493891011e-25
-9.387788781e-26
-5.81940696e-26
-3.563913587e-26
-2.157076173e-26
-1.289424017e-26
-7.600674021e-27
-4.407177046e-27
-2.503443574e-27
-1.38215983e-27
-7.289690218e-28
-3.517456177e-28
-1.402761762e-28
-3.491394109e-29
-3.540010917e-30
7.827977753e-10
1.467854715e-12
3.920402887e-15
1.136778481e-16
1.109867353e-17
1.92657548e-18
5.857143164e-19
3.060540719e-19
1.879770593e-19
1.203299123e-19
7.121125026e-20
3.870149971e-20
1.895479995e-20
8.289789389e-21
3.014626344e-21
6.764829673e-22
-2.189582513e-22
-5.209613409e-22
-5.67805702e-22
-5.188527553e-22
-4.435090987e-22
-3.691034687e-22
-3.046930526e-22
-2.517788564e-22
-2.090502788e-22
-1.743911885e-22
-1.457675827e-22
-1.215810654e-22
-1.007624336e-22
-8.269377067e-23
-6.706765346e-23
-5.373574924e-23
-4.257955171e-23
-3.343743722e-23
-2.608171212e-23
-2.023266248e-23
-1.559743566e-23
-1.191297451e-23
-8.973429567e-24
-6.633340602e-24
-4.792750216e-24
-3.37645458e-24
-2.318082835e-24
-1.552814737e-24
-1.017524613e-24
-6.543641761e-25
-4.143226213e-25
-2.589339927e-25
-1.59947352e-25
-9.767315967e-26
-5.891096348e-26
-3.503305093e-26
-2.048576073e-26
-1.172709e-26
-6.515690887e-27
-3.449042586e-27
-1.665117838e-27
-6.605214723e-28
-1.654652333e-28
-1.7446197e-29
-9.5988702e-10
2.29226301e-10
1.710889718e-13
1.784570492e-15
1.781533352e-16
4.153993622e-17
1.548399588e-17
8.15310868e-18
4.986953576e-18
3.110528025e-18
1.846474499e-18
1.021975904e-18
5.186927753e-19
2.495475505e-19
1.150677365e-19
4.84175185e-20
1.831509242e-20
5.732550463e-21
8.984885413e-22
-6.968829959e-22
-1.08888439e-21
-1.082633381e-21
-9.554010186e-22
-8.096997135e-22
-6.778087469e-22
-5.658729607e-22
-4.718028569e-22
-3.919734912e-22
-3.234716722e-22
-2.644751407e-22
-2.139740946e-22
-1.713495667e-22
-1.360352378e-22
-1.073251759e-22
-8.433485354e-23
-6.605809691e-23
-5.14977375e-23
-3.979968685e-23
-3.033072261e-23
-2.26721139e-23
-1.655452304e-23
-1.177988643e-23
-8.166381299e-24
-5.523540696e-24
-3.655266791e-24
-2.374803776e-24
-1.519736811e-24
-9.602940794e-25
-5.999030252e-25
-3.705379033e-25
-2.260775906e-25
-1.36001383e-25
-8.042459992e-26
-4.651991183e-26
-2.606823356e-26
-1.386766422e-26
-6.699028063e-27
-2.63922601e-27
-6.555610297e-28
-6.958526213e-29
-3.543808524e-09
2.439681674e-09
4.445849189e-12
2.380836147e-14
2.165036521e-15
6.172920646e-16
2.543727866e-16
1.32234464e-16
7.997364557e-17
5.096368877e-17
3.19119292e-17
1.900599924e-17
1.057668075e-17
5.473899501e-18
2.62574534e-18
1.169905055e-18
4.816798196e-19
1.940919472e-19
7.426291537e-20
2.573952956e-20
7.129018472e-21
5.476531072e-22
-1.481645151e-21
-1.885919403e-21
-1.79993556e-21
-1.578789608e-21
-1.338490615e-21
-1.114857958e-21
-9.168930346e-22
-7.456465544e-22
-6.001439462e-22
-4.788069295e-22
-3.796096408e-22
-3.000023369e-22
-2.369649138e-22
-1.872234008e-22
-1.47635547e-22
-1.156073009e-22
-8.932011662e-23
-6.767601621e-23
-5.006004444e-23
-3.606671913e-23
-2.530608e-23
-1.732362632e-23
-1.160732107e-23
-7.639896557e-24
-4.95553048e-24
-3.174412912e-24
-2.010113443e-24
-1.258073129e-24
-7.775033895e-25
-4.736241482e-25
-2.835244179e-25
-1.658983718e-25
-9.388021318e-26
-5.026610827e-26
-2.432785078e-26
-9.54737442e-27
-2.353882935e-27
-2.543416485e-28
-1.894470617e-09
1.578012886e-09
1.403076039e-10
5.257206999e-13
2.621321345e-14
6.166924409e-15
2.351716964e-15
1.149833095e-15
6.815711384e-16
4.504100849e-16
3.061874926e-16
2.035153188e-16
1.286499214e-16
7.634559631e-17
4.22872101e-17
2.178966335e-17
1.040891623e-17
4.612029782e-18
1.899274054e-18
7.295748323e-19
2.653882381e-19
9.707156784e-20
3.171497613e-20
7.803865521e-21
-3.17749651e-22
-2.688294624e-21
-3.05966354e-21
-2.796810309e-21
-2.37901701e-21
-1.953490315e-21
-1.571712467e-21
-1.248977602e-21
-9.859774535e-22
-7.771475319e-22
-6.141376178e-22
-4.874185452e-22
-3.876653699e-22
-3.071795009e-22
-2.406736051e-22
-1.850956428e-22
-1.389578533e-22
-1.015279265e-22
-7.216982131e-23
-5.001624394e-23
-3.392950007e-23
-2.262992642e-23
-1.489132887e-23
-9.685456409e-24
-6.228633927e-24
-3.957755404e-24
-2.481435323e-24
-1.532230479e-24
-9.289990062e-25
-5.500565077e-25
-3.145859861e-25
-1.698970274e-25
-8.269683315e-26
-3.257493352e-26
-8.049895936e-27
-8.956624553e-28
-4.572036982e-09
-2.805514733e-09
2.535516756e-09
1.93212979e-11
2.819524077e-13
3.689188564e-14
1.162428557e-14
5.138763706e-15
2.845373243e-15
1.847116933e-15
1.303799504e-15
9.412225588e-16
6.689221975e-16
4.581625055e-16
2.98574809e-16
1.836260917e-16
1.057915409e-16
5.680581254e-17
2.838331607e-17
1.318991792e-17
5.735832779e-18
2.335474619e-18
8.878030104e-19
3.131667413e-19
1.068551185e-19
3.302640127e-20
6.596987993e-21
-2.061680163e-21
-4.310358619e-21
-4.372122942e-21
-3.775632002e-21
-3.075471942e-21
-2.442234529e-21
-1.920359807e-21
-1.509982737e-21
-1.194435205e-21
-9.51040964e-22
-7.582793642e-22
-6.005576375e-22
-4.684600089e-22
-3.57299955e-22
-2.652769351e-22
-1.914015613e-22
-1.343788724e-22
-9.22026083e-23
-6.218492593e-23
-4.141681238e-23
-2.730382028e-23
-1.781940531e-23
-1.149865533e-23
-7.321794173e-24
-4.58914686e-24
-2.821876584e-24
-1.69275678e-24
-9.799509321e-25
-5.355387843e-25
-2.638256845e-25
-1.055162259e-25
-2.66268815e-26
-3.098186214e-27
-1.766182551e-07
-1.647302902e-08
1.538440154e-09
6.583524736e-10
5.193264712e-12
2.278455409e-13
4.347884476e-14
1.583071588e-14
7.821824351e-15
4.73281112e-15
3.262233374e-15
2.398532818e-15
1.793764225e-15
1.326207307e-15
9.542731454e-16
6.624677103e-16
4.412774294e-16
2.807782793e-16
1.697650735e-16
9.705653459e-17
5.210004459e-17
2.610414381e-17
1.214094303e-17
5.262259593e-18
2.129307611e-18
8.107631721e-19
2.851872946e-19
8.922876207e-20
2.454210081e-20
2.108073135e-21
-4.589810952e-21
-5.793859373e-21
-5.266943747e-21
-4.338641203e-21
-3.452830845e-21
-2.725846999e-21
-2.158729182e-21
-1.716965135e-21
-1.363830939e-21
-1.073532784e-21
-8.307324069e-22
-6.276483184e-22
-4.610561292e-22
-3.289657997e-22
-2.287115828e-22
-1.559282057e-22
-1.048838723e-22
-6.985520312e-23
-4.611433417e-23
-3.014436107e-23
-1.946954606e-23
-1.238811597e-23
-7.734779285e-24
-4.710135205e-24
-2.767026461e-24
-1.535087093e-24
-7.692884231e-25
-3.147046212e-25
-8.204516127e-26
-1.015920077e-26
-1.358125196e-07
-1.444986304e-08
-6.145621827e-09
5.210516021e-09
9.92508062e-11
1.700407724e-12
1.597840237e-13
4.175911838e-14
1.76377428e-14
9.692995589e-15
6.331319279e-15
4.587347539e-15
3.487936912e-15
2.681544976e-15
2.039867392e-15
1.517291503e-15
1.09636842e-15
7.666382548e-16
5.173381157e-16
3.360573103e-16
2.095531692e-16
1.250332261e-16
7.109401565e-17
3.825150182e-17
1.935000278e-17
9.125299804e-18
3.980569881e-18
1.604113793e-18
5.968124708e-19
2.030788598e-19
5.835846247e-20
1.109953158e-20
-3.29459738e-21
-6.764655193e-21
-6.688711732e-21
-5.678668451e-21
-4.586560995e-21
-3.650213538e-21
-2.892265267e-21
-2.277712163e-21
-1.774617075e-21
-1.360525834e-21
-1.01986061e-21
-7.434403065e-22
-5.262300393e-22
-3.637127091e-22
-2.472964359e-22
-1.661903873e-22
-1.106388071e-22
-7.299460317e-23
-4.766931276e-23
-3.073281351e-23
-1.947844054e-23
-1.205595207e-23
-7.205836649e-24
-4.072967059e-24
-2.086580008e-24
-8.794696945e-25
-2.400111262e-25
-3.230406497e-26
-6.797168868e-08
-8.869528591e-09
-3.652763048e-09
-1.707936015e-10
1.140887881e-09
1.688912635e-11
7.012461406e-13
1.122098929e-13
3.734916887e-14
1.794056691e-14
1.078121929e-14
7.49346695e-15
5.656954911e-15
4.426853291e-15
3.486290715e-15
2.716677659e-15
2.075421855e-15
1.546590221e-15
1.12090516e-15
7.885503378e-16
5.374167025e-16
3.54324042e-16
2.254730345e-16
1.38089282e-16
8.110716373e-17
4.549896859e-17
2.426583991e-17
1.220598516e-17
5.737938877e-18
2.491660252e-18
9.863996147e-19
3.518167568e-19
1.094565569e-19
2.51424284e-20
-7.047683571e-22
-7.260414976e-21
-8.001266781e-21
-7.031574817e-21
-5.74995053e-21
-4.567496904e-21
-3.567893697e-21
-2.7483475e-21
-2.085730012e-21
-1.553404026e-21
-1.127745731e-21
-7.959107384e-22
-5.491324347e-22
-3.729380623e-22
-2.503206097e-22
-1.6633275e-22
-1.094529939e-22
-7.124557816e-23
-4.572241302e-23
-2.874007277e-23
-1.749459667e-23
-1.010392352e-23
-5.315434688e-24
-2.324934561e-24
-6.735735604e-25
-1.003588061e-25
-7.528280883e-08
-1.130518659e-08
-2.319916617e-09
-4.348892591e-09
4.359415303e-09
2.02399482e-10
4.298591049e-12
3.50930273e-13
8.168824277e-14
3.255396103e-14
1.738545428e-14
1.124401283e-14
8.217085619e-15
6.41705601e-15
5.149184145e-15
4.144342384e-15
3.300216205e-15
2.580235936e-15
1.973263754e-15
1.472595116e-15
1.070510566e-15
7.569074938e-16
5.196612691e-16
3.457648563e-16
2.224405728e-16
1.37987694e-16
8.228871541e-17
4.701289274e-17
2.562238052e-17
1.325501843e-17
6.470640295e-18
2.949790493e-18
1.238867539e-18
4.699384037e-19
1.552468812e-19
3.985948228e-20
1.961920603e-21
-8.057127321e-21
-9.383673296e-21
-8.332923769e-21
-6.77448664e-21
-5.298386579e-21
-4.051766509e-21
-3.046931675e-21
-2.254251583e-21
-1.63332118e-21
-1.154331794e-21
-7.969363968e-22
-5.403678504e-22
-3.615962173e-22
-2.394148185e-22
-1.569125099e-22
-1.016154225e-22
-6.468127749e-23
-4.004619181e-23
-2.364900576e-23
-1.281818283e-23
-5.854492175e-24
-1.82424976e-24
-3.054561682e-25
-7.096895702e-07
-1.095354386e-07
-1.627093686e-08
-5.048633526e-09
2.924172268e-10
2.079947114e-09
5.308920309e-11
1.758751742e-12
2.128984476e-13
6.132626288e-14
2.759982127e-14
1.605915989e-14
1.105231365e-14
8.430350011e-15
6.78179203e-15
5.56887823e-15
4.575588419e-15
3.718665679e-15
2.970787415e-15
2.324940513e-15
1.778358412e-15
1.327273097e-15
9.651201649e-16
6.826416519e-16
4.688198248e-16
3.119651443e-16
2.006577502e-16
1.244303318e-16
7.417940111e-17
4.238186094e-17
2.312799493e-17
1.200691014e-17
5.899255579e-18
2.725008286e-18
1.172248143e-18
4.600227148e-19
1.577623721e-19
4.062969059e-20
7.821592875e-22
-9.962655239e-21
-1.095957352e-20
-9.4212853e-21
-7.484815738e-21
-5.72798622e-21
-4.2867536e-21
-3.154111727e-21
-2.280157668e-21
-1.614144928e-21
-1.116368015e-21
-7.559831235e-22
-5.038514898e-22
-3.319651741e-22
-2.163785442e-22
-1.390351688e-22
-8.729210959e-23
-5.262850369e-23
-2.942540601e-23
-1.410557292e-23
-4.781959253e-24
-9.104034664e-25
-2.030099844e-06
-3.086053943e-07
-4.641235265e-08
-7.880978087e-09
-5.232227e-09
5.385371443e-09
5.572270093e-10
1.516337286e-11
8.015944934e-13
1.285898146e-13
4.316898358e-14
2.150152607e-14
1.353783162e-14
9.919679147e-15
7.89222382e-15
6.567769495e-15
5.532978116e-15
4.644452725e-15
3.850126161e-15
3.136262538e-15
2.502978337e-15
1.953265062e-15
1.488152897e-15
1.105237218e-15
7.988380285e-16
5.608487577e-16
3.817226036e-16
2.513070702e-16
1.596686721e-16
9.768131544e-17
5.741515594e-17
3.235051492e-17
1.742424421e-17
8.940746707e-18
4.35266569e-18
1.99735551e-18
8.537305394e-19
3.314173613e-19
1.090947047e-19
2.292270149e-20
-5.814309703e-21
-1.266326785e-20
-1.227433212e-20
-1.004697444e-20
-7.755636455e-21
-5.806490984e-21
-4.257472966e-21
-3.068060772e-21
-2.170969501e-21
-1.503495742e-21
-1.018384207e-21
-6.768811101e-22
-4.43506755e-22
-2.867597542e-22
-1.819376754e-22
-1.116494095e-22
-6.433789619e-23
-3.250770806e-23
-1.211040501e-23
-2.641165544e-24
-1.043813787e-06
-2.075476346e-07
-3.792492203e-08
-6.92407061e-09
-3.622054236e-09
-8.380069488e-10
2.431671919e-09
1.5396627e-10
5.347978661e-12
3.816941139e-13
7.083027559e-14
2.596773223e-14
1.42705824e-14
9.922204853e-15
7.792350989e-15
6.555736029e-15
5.642513458e-15