/*--------------------------------*- C++ -*----------------------------------*\
  =========                 |
  \\      /  F ield         | OpenFOAM: The Open Source CFD Toolbox
   \\    /   O peration     | Website:  https://openfoam.org
    \\  /    A nd           | Version:  10
     \\/     M anipulation  |
\*---------------------------------------------------------------------------*/
FoamFile
{
    format      ascii;
    class       volScalarField;
    location    "3000";
    object      RR.HCN;
}
// * * * * * * * * * * * * * * * * * * * * * * * * * * * * * * * * * * * * * //

dimensions      [1 -3 -1 0 0 0 0];

internalField   nonuniform List<scalar> 
5170
(
1.811741522e-71
1.458594824e-71
9.012178945e-72
4.443841328e-72
3.560347865e-72
6.171419099e-69
4.91147206e-69
2.982109587e-69
1.722287253e-69
3.092734736e-69
2.131196771e-66
1.682249357e-66
1.016402568e-66
8.009619392e-67
2.45788373e-66
7.526462543e-64
5.934053925e-64
3.698742286e-64
4.158442389e-64
1.799253266e-63
2.710660727e-61
2.155004265e-61
1.4398763e-61
2.295258891e-61
1.224616599e-60
9.974414498e-59
8.106788394e-59
5.947312936e-59
1.300904508e-58
7.866319213e-58
3.742070019e-56
3.134874258e-56
2.635542464e-56
7.488741541e-56
4.846027099e-55
1.426470977e-53
1.245122726e-53
1.250117865e-53
4.345301318e-53
2.918271895e-52
5.540815126e-51
5.141297526e-51
6.203312139e-51
2.535220807e-50
1.717233519e-49
2.195019514e-48
2.203420652e-48
3.184147477e-48
1.489763866e-47
9.897571848e-47
8.848257693e-46
9.757332325e-46
1.67935104e-45
8.772616754e-45
5.599777157e-44
3.614265224e-43
4.454529397e-43
9.113864445e-43
5.187697835e-42
3.139594449e-41
1.493776457e-40
2.089515373e-40
5.116987611e-40
3.112353721e-39
1.751941218e-38
6.217628956e-38
1.001079035e-37
2.960424778e-37
1.903295881e-36
9.738835296e-36
2.602422909e-35
4.878008374e-35
1.748285118e-34
1.192249713e-33
5.479545419e-33
1.081204686e-32
2.388054996e-32
1.038721905e-31
7.405677804e-31
3.130186501e-30
4.459357741e-30
1.177683478e-29
6.066309671e-29
4.557564495e-28
1.843833033e-27
1.82309152e-27
6.136606238e-27
4.903954597e-26
1.08397026e-24
1.379806144e-23
5.864163414e-24
8.726176035e-23
4.021428472e-21
2.299809891e-19
4.042007844e-18
5.178032983e-19
1.666552635e-17
1.02514223e-15
5.071245138e-14
1.153517256e-12
8.616596483e-12
5.049793193e-12
3.847235245e-12
5.596580683e-12
8.483488176e-12
4.190623486e-13
1.394991068e-12
1.401760009e-12
1.07294844e-12
1.293340915e-13
-8.704053824e-13
-5.548284663e-13
-6.560232982e-13
-6.037618118e-13
-9.91253557e-13
-9.252543903e-13
-7.474125551e-13
-6.861277146e-13
-6.763037026e-13
-8.987690362e-13
-7.978125321e-13
-7.264292958e-13
-6.778853384e-13
-6.593177812e-13
-7.261710416e-13
-6.621793908e-13
-6.698443643e-13
-6.409924618e-13
-6.335918484e-13
-5.944410771e-13
-5.469052464e-13
-5.999923401e-13
-5.929328649e-13
-5.981103874e-13
-4.916174823e-13
-4.527584736e-13
-5.325296786e-13
-5.407405904e-13
-5.47929749e-13
-4.003023945e-13
-3.74482641e-13
-4.660624528e-13
-4.846622858e-13
-4.734489396e-13
-3.175574835e-13
-3.091680297e-13
-4.006890001e-13
-4.225888285e-13
-3.89491854e-13
-2.484984044e-13
-2.543227394e-13
-3.382548753e-13
-3.5827797e-13
-3.122472302e-13
-1.946899539e-13
-2.089105244e-13
-2.814868686e-13
-2.970475695e-13
-2.478320653e-13
-1.539346412e-13
-1.717614173e-13
-2.318510419e-13
-2.4295089e-13
-1.969328543e-13
-1.236641499e-13
-1.421729807e-13
-1.905802514e-13
-1.977332176e-13
-1.578683674e-13
-1.013741188e-13
-1.187990465e-13
-1.569271645e-13
-1.612924938e-13
-1.283803131e-13
-8.504699031e-14
-1.066504794e-13
-1.320935357e-13
-1.332987689e-13
-1.066036828e-13
-7.317571651e-14
-9.267265267e-13
-3.472879908e-13
-1.844883633e-13
-1.344665635e-13
-8.235022142e-14
-9.722814071e-11
-2.903313771e-11
-7.377183147e-12
-4.381947634e-12
-1.718493226e-12
-5.453295786e-09
-3.365107782e-09
-4.560629396e-10
-3.202842714e-10
-1.252926401e-10
3.782471535e-06
-9.921308933e-07
-1.08472014e-07
-2.372278399e-08
-6.939902356e-09
6.337876255e-16
3.779587502e-14
8.389576073e-12
1.437319508e-09
9.796888947e-08
1.051807401e-14
4.228532833e-13
4.865925035e-11
2.977544346e-09
2.955180558e-08
6.391726777e-14
1.82250825e-12
1.19745543e-10
3.34107433e-09
8.530256189e-09
2.733088308e-13
6.170898455e-12
2.822064582e-10
5.032698526e-09
-1.166888455e-08
9.418963042e-13
1.726156591e-11
5.383714751e-10
4.561106968e-09
-5.342878132e-08
2.739360212e-12
3.974582835e-11
7.870434575e-10
2.846888425e-10
-1.079183001e-07
7.19372639e-12
8.239697469e-11
8.799502524e-10
-1.189740605e-08
-2.012120223e-07
1.812926082e-11
1.720248437e-10
7.690892388e-10
-2.861174848e-08
-2.458818159e-07
4.349630695e-11
3.218081188e-10
-5.823694443e-10
-5.10504038e-08
-2.688482658e-07
9.22138045e-11
4.076463465e-10
-5.095043697e-09
-8.321046085e-08
-3.090179661e-07
1.608733883e-10
2.109580249e-11
-1.442814552e-08
-1.2579372e-07
-3.460111218e-07
1.843118297e-10
-1.295016516e-09
-2.75689783e-08
-1.651191062e-07
-2.902135596e-07
-3.827160132e-11
-4.165719695e-09
-4.446969083e-08
-1.941537408e-07
-1.772659181e-07
-1.130228785e-09
-1.000527887e-08
-6.723083089e-08
-2.206826506e-07
-6.610908279e-08
-4.981294475e-09
-2.190813552e-08
-1.001290477e-07
-2.548469848e-07
4.755857186e-08
-1.596680819e-08
-4.48137661e-08
-1.429207288e-07
-2.687710617e-07
2.338788816e-07
-4.104971189e-08
-8.21149265e-08
-1.790039565e-07
-1.918171814e-07
6.107839279e-07
-7.848692633e-08
-1.174048443e-07
-1.697312355e-07
7.668417131e-08
1.122072837e-06
-9.671940683e-08
-1.030461043e-07
-5.644526645e-09
4.820319266e-07
1.440380967e-06
1.375561236e-08
7.923885752e-08
3.054857561e-07
7.562878917e-07
1.501129077e-06
2.455141517e-07
3.225804413e-07
5.05079541e-07
8.283460693e-07
1.473507405e-06
3.659837734e-07
3.938065188e-07
5.630424429e-07
8.682585112e-07
1.480924555e-06
4.091704981e-07
4.728707888e-07
6.500461953e-07
1.017913961e-06
1.850487015e-06
5.383824862e-07
6.383743521e-07
9.172768785e-07
1.480010272e-06
2.89403556e-06
8.886953421e-07
1.065956979e-06
1.481493893e-06
2.546022741e-06
4.569943438e-06
1.684256805e-06
2.005219826e-06
2.892614517e-06
4.49095215e-06
7.779279187e-06
3.41284574e-06
3.998142722e-06
5.557530452e-06
8.706376334e-06
1.4817625e-05
7.144358703e-06
8.22487272e-06
1.106850298e-05
1.629367301e-05
2.665016392e-05
1.490260741e-05
1.678147619e-05
2.236990263e-05
3.257685717e-05
5.131692514e-05
3.204213631e-05
3.633546099e-05
4.540345367e-05
6.281483744e-05
9.468283552e-05
7.049847672e-05
7.714869607e-05
9.464335787e-05
0.0001266544796
0.000176008513
0.0001588704831
0.0001727351225
0.0002049455927
0.000259242485
0.0003570920307
0.0003623045304
0.0003883378235
0.0004539741288
0.0005512722084
0.0007263296341
0.0008075200427
0.0008538208669
0.0009634034199
0.00115235217
0.001450970936
0.001729477321
0.001806403108
0.001989675394
0.002306208358
0.002798393961
0.003367032405
0.003496404066
0.003797226287
0.004295101624
0.005049691025
0.005668724171
0.005841387433
0.006237752254
0.006881349279
0.007835189237
0.007818703027
0.008019294099
0.008483864947
0.009249190537
0.01041063486
0.00948704205
0.009751825519
0.01037154054
0.01141290801
0.01301632916
0.0113690974
0.01173580805
0.01255092138
0.01376753158
0.01512934818
0.009408836037
0.009056844815
0.007980792135
0.005569368423
0.001164260435
-0.008408863808
-0.008989549377
-0.01011898703
-0.01145118271
-0.01257914888
-0.009327139489
-0.009281115441
-0.009152775398
-0.008902345999
-0.008495842448
-0.004768685087
-0.004704423282
-0.004563620803
-0.004353381082
-0.00408158918
-0.002107554655
-0.00207897821
-0.002013359012
-0.001923954452
-0.001811394431
-0.0009058637915
-0.0008948417997
-0.0008710626653
-0.0008365146272
-0.0007924786234
-0.000390780425
-0.0003865819892
-0.0003775277831
-0.000364246517
-0.000347315968
-0.0001700820028
-0.0001684703703
-0.00016498299
-0.0001598480734
-0.0001532669669
-7.485772651e-05
-7.422697346e-05
-7.2861669e-05
-7.085469297e-05
-6.828060327e-05
-3.34331223e-05
-3.318663137e-05
-3.264684236e-05
-3.186068229e-05
-3.083205606e-05
-1.502404202e-05
-1.500175694e-05
-1.462006773e-05
-1.439846025e-05
-1.364718275e-05
-6.955510341e-06
-6.917755141e-06
-6.835880148e-06
-6.714369864e-06
-6.752866143e-06
-3.441644919e-06
-3.428342418e-06
-3.399657127e-06
-3.357537293e-06
-3.303814403e-06
-1.826681322e-06
-1.82346634e-06
-1.816629829e-06
-1.806867971e-06
-1.794926997e-06
-1.08227223e-06
-1.08316634e-06
-1.085234623e-06
-1.088641776e-06
-1.093679116e-06
-7.376204049e-07
-7.400185505e-07
-7.453214122e-07
-7.534563901e-07
-7.644833624e-07
-5.75068481e-07
-5.777630976e-07
-5.836791351e-07
-5.9264225e-07
-6.04587948e-07
-4.92872474e-07
-4.953067866e-07
-5.006297036e-07
-5.086380876e-07
-5.192080754e-07
-4.434738888e-07
-4.454180189e-07
-4.496563637e-07
-4.559976077e-07
-4.64301056e-07
-4.050347139e-07
-4.064411631e-07
-4.09497748e-07
-4.14045605e-07
-4.199534091e-07
-3.684189363e-07
-3.69335387e-07
-3.713197109e-07
-3.742518533e-07
-3.780222272e-07
-3.306781443e-07
-3.311967515e-07
-3.323127962e-07
-3.339435636e-07
-3.360055881e-07
-2.918861251e-07
-2.921087424e-07
-2.925806042e-07
-2.932503103e-07
-2.940585943e-07
-2.531331741e-07
-2.531525285e-07
-2.531829901e-07
-2.531970799e-07
-2.531557562e-07
-2.157567877e-07
-2.15648523e-07
-2.154028247e-07
-2.150091678e-07
-2.144440046e-07
-1.807991449e-07
-1.806205568e-07
-1.802234599e-07
-1.796084754e-07
-1.787632422e-07
-1.491092556e-07
-1.489009613e-07
-1.484408707e-07
-1.477362914e-07
-1.467824523e-07
-1.209611093e-07
-1.207504919e-07
-1.202867841e-07
-1.195807094e-07
-1.186323374e-07
-9.702093984e-08
-9.682451131e-08
-9.639297298e-08
-9.573823334e-08
-9.48631128e-08
-7.830800076e-08
-7.813324383e-08
-7.774978064e-08
-7.716922227e-08
-7.639558841e-08
1.511281795e-06
5.422302176e-07
1.764191649e-07
-1.460982402e-08
-2.61869959e-07
-4.184582508e-07
-5.21082265e-07
-5.74620763e-08
1.130579628e-07
9.30200399e-08
1.393389282e-07
6.399888036e-07
9.884599415e-07
1.053837435e-06
1.052340696e-06
1.217155409e-06
1.762545073e-06
2.410674118e-06
2.704811005e-06
2.592192252e-06
2.256002645e-06
2.427385632e-06
3.323471619e-06
4.748236791e-06
7.609383998e-06
1.247587123e-05
2.296145815e-05
3.991250369e-05
6.967377326e-05
0.0001284010865
0.0002342105802
0.0004591698043
0.0009019165322
0.001739986726
0.003269919825
0.005751770531
0.008718514372
0.01152352019
0.01455665188
0.0157507752
-0.002929385494
-0.01307258667
-0.008140565921
-0.003872930131
-0.001725148605
-0.0007586958999
-0.0003342394788
-0.0001481463904
-6.626287897e-05
-3.002924991e-05
-1.367223397e-05
-6.623136082e-06
-3.262354412e-06
-1.78631008e-06
-1.09840655e-06
-7.738097506e-07
-6.14474657e-07
-5.278513381e-07
-4.710267625e-07
-4.246947892e-07
-3.810139338e-07
-3.376118859e-07
-2.946550188e-07
-2.530732136e-07
-2.139469567e-07
-1.780482705e-07
-1.459871835e-07
-1.178477186e-07
-9.414265273e-08
-7.57606678e-08
1.76212415e-05
0.0006225847884
-4.735261793e-05
-2.304247352e-06
-1.293585938e-07
3.522243401e-06
0.0005916443113
-0.0001532948768
-1.392948097e-05
-2.838518444e-07
2.839739314e-06
0.0002141236989
0.005782988228
-0.0008316726373
-8.585784379e-06
7.258714001e-06
0.0001216182531
0.03370625669
-0.01065462371
-0.0004195301788
3.101514228e-06
4.649923885e-05
0.003877297088
-0.00749684691
-0.0006166376301
1.489898512e-06
2.698712965e-05
0.001883118661
-0.004650343948
-0.0007716011267
1.833491815e-06
2.949154631e-05
0.001606043031
0.005302848151
-0.003347962263
5.759702454e-06
4.943943012e-05
0.00102277796
0.0669516111
-0.01919977404
4.234853036e-06
2.684831544e-05
0.0004647207214
0.0171243523
-0.01456777835
2.602101253e-06
1.550177537e-05
0.0002919908011
0.007072513303
-0.008500505385
2.149066593e-06
1.334166779e-05
0.0002440043814
0.004835435402
0.004843208733
3.655973197e-06
2.004624646e-05
0.0002345564659
0.003015463443
0.06371269839
3.72268262e-06
1.648495024e-05
0.000155400078
0.001580103517
0.03804104935
2.93339248e-06
1.158915781e-05
0.0001057691713
0.001041692041
0.01578888787
2.296148148e-06
9.212477368e-06
8.616065542e-05
0.0008461152425
0.01003575224
2.232363118e-06
9.734939243e-06
8.478246616e-05
0.0007699264046
0.007521932576
3.351547193e-06
1.348354633e-05
9.617525965e-05
0.0007223596738
0.00545951739
4.714604263e-06
1.65234078e-05
9.873733442e-05
0.0006173442548
0.003743789068
4.03201932e-06
1.670538452e-05
9.06297019e-05
0.0005118046389
0.002824534799
4.15877895e-06
1.644656922e-05
8.590509407e-05
0.0004609496901
0.002445165672
4.295349981e-06
1.755622791e-05
8.961417066e-05
0.0004584619101
0.002326587691
4.935875867e-06
2.118844228e-05
0.0001015619386
0.000485678603
0.002311565106
6.768975385e-06
2.760436461e-05
0.0001210134363
0.0005310608347
0.002325181673
1.006584656e-05
3.760824602e-05
0.0001489153105
0.0005932598724
0.002355363735
1.538601808e-05
5.220491813e-05
0.0001867617535
0.0006761391718
0.002438712606
2.372256888e-05
8.141404703e-05
0.0002397898036
0.0007956808108
0.00263783466
4.13467391e-05
0.0001144715188
0.0003209376229
0.0009845266336
0.003033898214
6.882303398e-05
0.0001631823738
0.000451803649
0.001285955561
0.003714702701
0.0001152809308
0.0002597566335
0.0006672570836
0.00176061738
0.004819076807
0.0002090201836
0.0004300571369
0.001022216353
0.00249894424
0.006575392598
0.0003527733451
0.0007322776961
0.001602218089
0.003658485453
0.009341794396
0.0006606639237
0.001262272835
0.002546273496
0.005524080594
0.01351301435
0.001236565049
0.002176024318
0.004111893318
0.00851578342
0.01929664087
0.002282614317
0.003761146234
0.006725184729
0.01296765559
0.02657552329
0.004139408173
0.006420963877
0.01065102273
0.01882818439
0.03472518448
0.006987171909
0.01007318229
0.01552711267
0.0256976162
0.03854568858
0.01022860197
0.01408450463
0.02099284678
0.03139994395
0.01943326628
0.0134315897
0.0184662535
0.02575729359
0.02080738195
-0.01249371488
0.01698878529
0.02123487959
0.01475141801
-0.01060903069
-0.02094671322
0.01461958919
0.003712635128
-0.01324787095
-0.01909711737
-0.01646760395
-0.008734494534
-0.01531920295
-0.01629600113
-0.01375246945
-0.0103539684
-0.01309474077
-0.01205183686
-0.01005250004
-0.007823428951
-0.005828311649
-0.007510781235
-0.006369660534
-0.005163262255
-0.0040364794
-0.003069341246
-0.003551736439
-0.003014786905
-0.002479192814
-0.001982742189
-0.001549703506
-0.001596216643
-0.001377310587
-0.001156961146
-0.0009486891242
-0.0007614914785
-0.0007088703021
-0.0006221791999
-0.0005333555029
-0.0004471920875
-0.0003675680761
-0.0003147132115
-0.0002805570296
-0.0002447876257
-0.0002092898771
-0.0001757410616
-0.0001404900229
-0.00012689892
-0.0001123981144
-9.78064116e-05
-8.37196769e-05
-6.323832799e-05
-5.7807655e-05
-5.191669277e-05
-4.590187882e-05
-3.976834452e-05
-2.882487888e-05
-2.66606303e-05
-2.426769718e-05
-2.176571807e-05
-1.925638952e-05
-1.337462624e-05
-1.234222655e-05
-1.153809504e-05
-1.047835074e-05
-9.58658183e-06
-6.352604964e-06
-6.061389274e-06
-5.597292964e-06
-5.240136502e-06
-4.890515408e-06
-3.200632194e-06
-3.091929561e-06
-2.978086605e-06
-2.86698592e-06
-2.766317349e-06
-1.773541048e-06
-1.754433003e-06
-1.73916278e-06
-1.730980576e-06
-1.73243185e-06
-1.105445013e-06
-1.122172781e-06
-1.145427074e-06
-1.175973786e-06
-1.213851965e-06
-7.875907825e-07
-8.15849795e-07
-8.504352256e-07
-8.908121571e-07
-9.358700026e-07
-6.290008273e-07
-6.5769853e-07
-6.914017781e-07
-7.290324241e-07
-7.690547978e-07
-5.404778931e-07
-5.648683388e-07
-5.927192767e-07
-6.228025383e-07
-6.535787248e-07
-4.807894558e-07
-4.992955429e-07
-5.198849477e-07
-5.414112779e-07
-5.625384346e-07
-4.315216697e-07
-4.442107645e-07
-4.579186388e-07
-4.716661481e-07
-4.843742547e-07
-3.852673195e-07
-3.929647337e-07
-4.009121643e-07
-4.083668536e-07
-4.145354946e-07
-3.398398971e-07
-3.436782957e-07
-3.472782718e-07
-3.501034054e-07
-3.515989029e-07
-2.95414819e-07
-2.964978355e-07
-2.970587775e-07
-2.967331289e-07
-2.951557362e-07
-2.528527171e-07
-2.521259839e-07
-2.507402071e-07
-2.484639894e-07
-2.450741098e-07
-2.131342487e-07
-2.113389022e-07
-2.088467849e-07
-2.055238421e-07
-2.012477018e-07
-1.769308218e-07
-1.746089886e-07
-1.716154094e-07
-1.678835709e-07
-1.633593612e-07
-1.447652502e-07
-1.422910239e-07
-1.392067331e-07
-1.354903228e-07
-1.311311383e-07
-1.166530679e-07
-1.142685668e-07
-1.113539585e-07
-1.079143303e-07
-1.039645415e-07
-9.305168026e-08
-9.089478389e-08
-8.829223698e-08
-8.526372912e-08
-8.183679247e-08
-7.48024824e-08
-7.291941513e-08
-7.066585228e-08
-6.806709914e-08
-6.515455662e-08
-2.576210997e-12
-5.613538543e-15
-1.003006333e-16
-5.958103105e-18
-7.686695881e-19
-1.274124728e-19
-2.164703383e-20
-3.750618853e-21
-6.790572976e-22
-1.147957805e-22
4.240856491e-24
3.298044735e-23
3.937200353e-23
3.906009091e-23
3.647009434e-23
3.306776224e-23
2.941242122e-23
2.575747608e-23
2.225231234e-23
1.899739368e-23
1.606253284e-23
1.348734574e-23
1.128132842e-23
9.426229848e-24
7.883037958e-24
6.600465449e-24
5.524845457e-24
4.609201215e-24
3.818613111e-24
3.131159987e-24
2.535326016e-24
2.025523251e-24
1.597718642e-24
1.246496066e-24
9.638923677e-25
7.398295304e-25
5.635180379e-25
4.250028472e-25
3.161767296e-25
2.310026915e-25
1.651089639e-25
1.151531824e-25
7.829714463e-26
5.194164598e-26
3.368986896e-26
2.142616027e-26
1.340171545e-26
8.265123304e-27
5.034171653e-27
3.029988177e-27
1.801192373e-27
1.055976672e-27
6.090904107e-28
3.442982515e-28
1.893036836e-28
9.955825344e-29
4.794618154e-29
1.901413227e-29
4.42354168e-30
3.613720129e-31
-5.844128071e-11
-1.246855596e-13
-2.555480461e-15
-1.899049475e-16
-2.694108274e-17
-4.749678481e-18
-9.17032415e-19
-2.117979266e-19
-6.036505021e-20
-2.050536482e-20
-7.549882132e-21
-2.818172552e-21
-9.79979669e-22
-2.523733895e-22
3.247995457e-23
1.355298494e-22
1.626834458e-22
1.584938288e-22
1.423443662e-22
1.228306752e-22
1.037551997e-22
8.669218705e-23
7.214126773e-23
6.005506895e-23
5.013026481e-23
4.19629187e-23
3.515145378e-23
2.936158987e-23
2.435704975e-23
1.999620791e-23
1.620976322e-23
1.29670341e-23
1.024504799e-23
8.010281914e-24
6.21189228e-24
4.784874505e-24
3.659568203e-24
2.772110162e-24
2.071189727e-24
1.519342018e-24
1.089946618e-24
7.62761481e-25
5.203509309e-25
3.463803005e-25
2.255045806e-25
1.440175775e-25
9.050235839e-26
5.610160884e-26
3.43576739e-26
2.079515056e-26
1.243060718e-26
7.327379653e-27
4.248709965e-27
2.413428268e-27
1.33246207e-27
7.027577786e-28
3.39098043e-28
1.352323222e-28
3.365855462e-29
3.412724207e-30
-4.04474899e-09
-3.601822549e-12
-2.489786435e-14
-1.571957167e-15
-2.4861441e-16
-5.599170778e-17
-1.520915308e-17
-5.052551265e-18
-1.898491942e-18
-7.675378099e-19
-3.157474875e-19
-1.311863757e-19
-5.431536769e-20
-2.227554356e-20
-8.844004181e-21
-3.225015019e-21
-9.067779002e-22
2.12691601e-24
3.192889434e-22
3.951587893e-22
3.790620581e-22
3.334774988e-22
2.834808681e-22
2.380531184e-22
1.994228586e-22
1.67176404e-22
1.401081789e-22
1.170262755e-22
9.705998536e-23
7.968635388e-23
6.464169534e-23
5.179753863e-23
4.104602303e-23
3.223410925e-23
2.514348308e-23
1.95049953e-23
1.503653664e-23
1.148459696e-23
8.650764527e-24
6.394823855e-24
4.620417521e-24
3.255048129e-24
2.234732236e-24
1.496980726e-24
9.809378667e-25
6.308354611e-25
3.994249879e-25
2.49623607e-25
1.541961895e-25
9.416116542e-26
5.679272581e-26
3.377338171e-26
1.974916252e-26
1.130542377e-26
6.28140882e-27
3.325026758e-27
1.605245869e-27
6.367713683e-28
1.595156673e-28
1.681889114e-29
-4.404199433e-07
-3.792928717e-10
-4.344284e-13
-1.064608992e-14
-1.72838241e-15
-5.016651e-16
-1.788441047e-16
-7.149240572e-17
-3.029360405e-17
-1.319559901e-17
-5.770213455e-18
-2.525260049e-18
-1.101514377e-18
-4.787339131e-19
-2.058402966e-19
-8.73439019e-20
-3.597470911e-20
-1.400180025e-20
-4.813147654e-21
-1.118741719e-21
2.602599968e-22
6.949421799e-22
7.669430001e-22
7.125376636e-22
6.234375782e-22
5.323381164e-22
4.49061934e-22
3.753599915e-22
3.107470433e-22
2.544931585e-22
2.060774616e-22
1.651018575e-22
1.311071899e-22
1.034506856e-22
8.129599076e-23
6.368016754e-23
4.964492141e-23
3.836815069e-23
2.923993497e-23
2.185682062e-23
1.595924642e-23
1.13563095e-23
7.872741575e-24
5.324931445e-24
3.523835343e-24
2.289413763e-24
1.465092204e-24
9.257651605e-25
5.783325514e-25
3.572146204e-25
2.179486096e-25
1.311112363e-25
7.753280514e-26
4.484721417e-26
2.513090863e-26
1.336903022e-26
6.458153813e-27
2.544328433e-27
6.319892863e-28
6.708321301e-29
-3.23216557e-06
-5.536094052e-09
-7.891366098e-12
-7.492444094e-14
-1.050499057e-14
-3.511790478e-15
-1.427810369e-15
-6.178809024e-16
-2.77082363e-16
-1.267007172e-16
-5.832750193e-17
-2.690787175e-17
-1.240451007e-17
-5.725316472e-18
-2.639382623e-18
-1.213067861e-18
-5.51519524e-19
-2.444501649e-19
-1.047649954e-19
-4.289905003e-20
-1.621972159e-20
-5.126256365e-21
-7.34496799e-22
8.578881341e-22
1.316470418e-21
1.34050569e-21
1.212008716e-21
1.041037254e-21
8.694248247e-22
7.126115356e-22
5.7589742e-22
4.604500257e-22
3.654735347e-22
2.890079165e-22
2.283559697e-22
1.80453523e-22
1.423106797e-22
1.114433554e-22
8.610541818e-23
6.524133556e-23
4.825953721e-23
3.476968314e-23
2.43960868e-23
1.670070271e-23
1.118995323e-23
7.365189394e-24
4.77734574e-24
3.060271622e-24
1.937836549e-24
1.212837085e-24
7.495470085e-25
4.565942341e-25
2.73329845e-25
1.59933231e-25
9.050460036e-26
4.845871013e-26
2.345310411e-26
9.204083347e-27
2.26924532e-27
2.451963868e-28
-2.252520929e-05
-7.523975851e-08
-2.353688308e-10
-9.897509225e-13
-7.035723388e-14
-2.004439962e-14
-8.024406493e-15
-3.524408621e-15
-1.621163378e-15
-7.655764009e-16
-3.66133975e-16
-1.759194776e-16
-8.470030802e-17
-4.097313768e-17
-1.9966923e-17
-9.827679815e-18
-4.871586152e-18
-2.414195725e-18
-1.180587244e-18
-5.639142876e-19
-2.595139569e-19
-1.131842959e-19
-4.648755325e-20
-1.712567775e-20
-4.733084603e-21
1.573826873e-22
1.846699776e-21
2.221865923e-21
2.09177818e-21
1.797994634e-21
1.479260226e-21
1.188931367e-21
9.441445291e-22
7.465047858e-22
5.909037244e-22
4.693946811e-22
3.73507874e-22
2.960379779e-22
2.319775923e-22
1.784222273e-22
1.339540438e-22
9.787448063e-23
6.957380308e-23
4.821747461e-23
3.270939578e-23
2.18161959e-23
1.435587694e-23
9.337197383e-24
6.004672612e-24
3.815447753e-24
2.392211289e-24
1.477136669e-24
8.955953587e-25
5.30278347e-25
3.03274544e-25
1.637881084e-25
7.972333659e-26
3.140364979e-26
7.760449068e-27
8.63457483e-28
-0.0002179673989
-1.65339094e-06
-8.162966985e-09
-3.409246254e-11
-5.547763545e-13
-8.694334874e-14
-2.990636644e-14
-1.282249891e-14
-5.98806578e-15
-2.916539084e-15
-1.450097211e-15
-7.267694529e-16
-3.644575944e-16
-1.824819971e-16
-9.156343998e-17
-4.643729432e-17
-2.405465916e-17
-1.280109856e-17
-6.950930777e-18
-3.796607234e-18
-2.042671592e-18
-1.068651691e-18
-5.376814448e-19
-2.578268948e-19
-1.151768277e-19
-4.699188537e-20
-1.629622441e-20
-3.344951448e-21
1.57909013e-21
3.050870184e-21
3.144582145e-21
2.759661938e-21
2.269957314e-21
1.816522973e-21
1.441216328e-21
1.145342367e-21
9.141723522e-22
7.298343601e-22
5.784441256e-22
4.513924888e-22
3.443608298e-22
2.557028148e-22
1.845064236e-22
1.29542634e-22
8.888589207e-23
5.99485319e-23
3.992747637e-23
2.632203102e-23
1.717866978e-23
1.108519993e-23
7.058526575e-24
4.424136532e-24
2.720411439e-24
1.631890991e-24
9.447152269e-25
5.162826318e-25
2.543394103e-25
1.017222213e-25
2.566946953e-26
2.986786009e-27
-0.001632500684
-3.55919996e-05
-2.563100863e-07
-1.411397118e-09
-9.054929857e-12
-4.354269946e-13
-9.321424249e-14
-3.489040747e-14
-1.576441382e-14
-7.720102342e-15
-3.932494117e-15
-2.040190418e-15
-1.064999888e-15
-5.553701469e-16
-2.885054439e-16
-1.495879686e-16
-7.796731001e-17
-4.137261225e-17
-2.26829215e-17
-1.295276533e-17
-7.676996766e-18
-4.634922029e-18
-2.777799971e-18
-1.608791395e-18
-8.866682524e-19
-4.597879302e-19
-2.230246148e-19
-9.953239869e-20
-3.87142827e-20
-1.15636749e-20
-5.250217628e-22
3.271619638e-21
4.064914249e-21
3.761226648e-21
3.158149605e-21
2.558052892e-21
2.051791418e-21
1.642609404e-21
1.30931987e-21
1.03259287e-21
7.998974483e-22
6.047033641e-22
4.443401701e-22
3.170901904e-22
2.204728093e-22
1.503169738e-22
1.011112614e-22
6.734306302e-23
4.445611115e-23
2.906044217e-23
1.876947903e-23
1.194267915e-23
7.456662289e-24
4.540774587e-24
2.667533551e-24
1.479890573e-24
7.416274253e-25
3.033889135e-25
7.909509645e-26
9.793910485e-27
-0.001890260939
-0.0001218685958
-2.122576495e-06
-2.554918471e-08
-1.735770694e-10
-2.875776536e-12
-2.97674747e-13
-8.329018344e-14
-3.427115098e-14
-1.63826979e-14
-8.395950592e-15
-4.455813838e-15
-2.404092319e-15
-1.303966386e-15
-7.061987e-16
-3.807454424e-16
-2.045771768e-16
-1.10198201e-16
-6.018148752e-17
-3.382092169e-17
-1.981760462e-17
-1.215447283e-17
-7.732900446e-18
-5.009869848e-18
-3.222886762e-18
-2.015766082e-18
-1.202396959e-18
-6.727829495e-19
-3.489047463e-19
-1.655466579e-19
-7.017915392e-20
-2.434267772e-20
-4.596339091e-21
2.748326174e-21
4.772146951e-21
4.763557393e-21
4.126345559e-21
3.397133902e-21
2.737432304e-21
2.174702621e-21
1.702226791e-21
1.308245181e-21
9.819433059e-22
7.162767751e-22
5.071694403e-22
3.505925871e-22
2.38392162e-22
1.602112299e-22
1.066596233e-22
7.036968944e-23
4.595520976e-23
2.962774483e-23
1.877805619e-23
1.162245941e-23
6.94673883e-24
3.926516908e-24
2.01155366e-24
8.478469518e-25
2.313811429e-25
3.114252062e-26
-0.002092324521
-0.0002430344191
-9.06542897e-06
-1.87702243e-07
-2.821693052e-09
-2.909675715e-11
-1.19380397e-12
-2.054888925e-13
-6.978837452e-14
-3.110814206e-14
-1.56359858e-14
-8.351038202e-15
-4.605906841e-15
-2.579562671e-15
-1.451504879e-15
-8.152880983e-16
-4.557563011e-16
-2.5374998e-16
-1.414352949e-16
-7.972882979e-17
-4.609725839e-17
-2.775269591e-17
-1.752425609e-17
-1.154985057e-17
-7.8153713e-18
-5.312625932e-18
-3.553764083e-18
-2.303440946e-18
-1.42635313e-18
-8.335296022e-19
-4.535520471e-19
-2.258045994e-19
-1.002864467e-19
-3.747217899e-20
-9.146633848e-21
1.988670571e-21
5.413015756e-21
5.782439789e-21
5.124901194e-21
4.232093136e-21
3.372189751e-21
2.62373579e-21
2.001187916e-21
1.494170907e-21
1.086075509e-21
7.669462532e-22
5.292859578e-22
3.59499601e-22
2.413118549e-22
1.603497502e-22
1.055168177e-22
6.868365897e-23
4.407834362e-23
2.770666478e-23
1.686554704e-23
9.740619903e-24
5.124309528e-24
2.241337784e-24
6.493541425e-25
9.675024441e-26
-0.004934883479
-0.0006565374664
-4.291286138e-05
-1.223465392e-06
-2.830656429e-08
-3.886810217e-10
-7.110595791e-12
-5.934438343e-13
-1.445358975e-13
-5.654949147e-14
-2.703193626e-14
-1.426053334e-14
-7.938804347e-15
-4.549110996e-15
-2.641868423e-15
-1.539651431e-15
-8.951630203e-16
-5.177142686e-16
-2.983962301e-16
-1.721823856e-16
-1.003483448e-16
-5.982336191e-17
-3.698473587e-17
-2.392309477e-17
-1.616316178e-17
-1.125892418e-17
-7.930315522e-18
-5.538457941e-18
-3.772252414e-18
-2.472805634e-18
-1.543673955e-18
-9.097481874e-19
-5.005120086e-19
-2.532370403e-19
-1.148811189e-19
-4.394080449e-20
-1.116558948e-20
2.162274151e-21
6.414325909e-21
6.897342292e-21
6.070255599e-21
4.930541439e-21
3.840874819e-21
2.914360193e-21
2.16541482e-21
1.572093123e-21
1.112069644e-21
7.680638414e-22
5.208774902e-22
3.485778146e-22
2.308017296e-22
1.512692281e-22
9.796133906e-23
6.235546725e-23
3.860624287e-23
2.279866185e-23
1.235728315e-23
5.643984279e-24
1.75865591e-24
2.94473003e-25
-0.01778150023
-0.002536378177
-0.0002239611509
-7.884282691e-06
-2.489168127e-07
-6.487044061e-09
-9.572212688e-11
-2.874946009e-12
-3.546269538e-13
-1.038226083e-13
-4.444916354e-14
-2.254089131e-14
-1.247258618e-14
-7.236298229e-15
-4.299528662e-15
-2.584300998e-15
-1.55858189e-15
-9.378095777e-16
-5.617003219e-16
-3.351814083e-16
-2.000638085e-16
-1.203656932e-16
-7.384010617e-17
-4.678878637e-17
-3.090761091e-17
-2.128861295e-17
-1.513106449e-17
-1.090618634e-17
-7.823977677e-18
-5.496157332e-18
-3.732558994e-18
-2.426597167e-18
-1.497735237e-18
-8.704065529e-19
-4.716839624e-19
-2.352050905e-19
-1.047127161e-19
-3.830045785e-20
-7.658388685e-21
4.550151355e-21
8.106300754e-21
8.065470098e-21
6.826804804e-21
5.382403639e-21
4.084930867e-21
3.025066274e-21
2.1932601e-21
1.55463591e-21
1.075808457e-21
7.286856328e-22
4.857036903e-22
3.20020488e-22
2.085960611e-22
1.340353375e-22
8.415322583e-23
5.073612286e-23
2.836735978e-23
1.359838283e-23
4.61001605e-24
8.776684354e-25
-0.01747174745
-0.003155709584
-0.0004398654159
-2.795162574e-05
-1.128074387e-06
-4.734788138e-08
-1.351550876e-09
-2.686655674e-11
-1.292954545e-12
-2.092005294e-13
-6.967940902e-14
-3.209948618e-14
-1.714832155e-14
-9.94808747e-15
-5.971004186e-15
-3.699036658e-15
-2.310434102e-15
-1.443405014e-15
-8.976887993e-16
-5.549407694e-16
-3.413630374e-16
-2.098343763e-16
-1.299218133e-16
-8.195162447e-17
-5.332591153e-17
-3.611452394e-17
-2.545558154e-17
-1.84859074e-17
-1.360035115e-17
-9.955343095e-18
-7.13825161e-18
-4.95406276e-18
-3.298705783e-18
-2.092698166e-18
-1.256833699e-18
-7.095178016e-19
-3.724753141e-19
-1.780184995e-19
-7.359728461e-20
-2.214617875e-20
4.388226601e-22
8.511262732e-21
1.001412418e-20
8.97158394e-21
7.221079751e-21
5.511744739e-21
4.076883967e-21
2.949281917e-21
2.090401981e-21
1.448722657e-21
9.815715648e-22
6.524906913e-22
4.275459999e-22
2.764452373e-22
1.753948865e-22
1.076346488e-22
6.202447324e-23
3.133883179e-23
1.167495473e-23
2.546198116e-24
-0.01228152603
-0.003187328003
-0.0005850467714
-6.618485129e-05
-3.660536248e-06
-1.927926119e-07
-1.031389726e-08
-3.309576171e-10
-9.07455689e-12
-5.952771115e-13
-1.115081259e-13
-3.988289244e-14
-1.948740954e-14
-1.106404289e-14
-6.654682379e-15
-4.207441799e-15
-2.697335579e-15
-1.736551423e-15
-1.116299255e-15
-7.140353228e-16
-4.542215985e-16
-2.879844993e-16
-1.829291475e-16
-1.173884437e-16
-7.692424521e-17
-5.202942032e-17
-3.655949576e-17
-2.665229548e-17
-1.993109844e-17
-1.501753391e-17
-1.120912713e-17
-8.174550686e-18
-5.759644649e-18
-3.890895684e-18
-2.507161383e-18
-1.533829136e-18
-8.860236631e-19
-4.788022114e-19
-2.376826078e-19
-1.039617659e-19
-3.531064352e-20
-3.50489128e-21
8.91433891e-21
1.205210788e-20
1.129480436e-20
9.277050863e-21
7.134766237e-21
5.280007391e-21
3.809196795e-21
2.691992581e-21
1.863975738e-21
1.262948013e-21
8.383454111e-22
5.466208507e-22
3.498170334e-22
2.177960603e-22
1.289433546e-22