/*--------------------------------*- C++ -*----------------------------------*\
  =========                 |
  \\      /  F ield         | OpenFOAM: The Open Source CFD Toolbox
   \\    /   O peration     | Website:  https://openfoam.org
    \\  /    A nd           | Version:  10
     \\/     M anipulation  |
\*---------------------------------------------------------------------------*/
FoamFile
{
    format      ascii;
    class       volScalarField;
    location    "3000";
    object      RR.HNO;
}
// * * * * * * * * * * * * * * * * * * * * * * * * * * * * * * * * * * * * * //

dimensions      [1 -3 -1 0 0 0 0];

internalField   nonuniform List<scalar> 
5170
(
-5.390354222e-67
-4.348106961e-67
-2.695774677e-67
-1.330861896e-67
-1.061511475e-67
-1.831163052e-64
-1.46119842e-64
-8.908522445e-65
-5.152018998e-65
-9.171879472e-65
-6.297464481e-62
-4.987363725e-62
-3.027515013e-62
-2.383966632e-62
-7.252101569e-62
-2.211454137e-59
-1.749561852e-59
-1.096293985e-59
-1.231744412e-59
-5.263987782e-59
-7.918521429e-57
-6.31886377e-57
-4.243461834e-57
-6.746778151e-57
-3.563416341e-56
-2.900538277e-54
-2.364926032e-54
-1.743403392e-54
-3.803384653e-54
-2.275954094e-53
-1.08424151e-51
-9.112015743e-52
-7.691754813e-52
-2.178749274e-51
-1.401225481e-50
-4.127775076e-49
-3.61498414e-49
-3.641025952e-49
-1.26193446e-48
-8.413667861e-48
-1.604867715e-46
-1.494355181e-46
-1.80779958e-46
-7.368732258e-46
-4.952397281e-45
-6.379970691e-44
-6.429792039e-44
-9.317451459e-44
-4.3433857e-43
-2.867865021e-42
-2.585960416e-41
-2.867199651e-41
-4.950877131e-41
-2.578519708e-40
-1.63812507e-39
-1.063716815e-38
-1.32034296e-38
-2.713452324e-38
-1.539428392e-37
-9.24386319e-37
-4.422402748e-36
-6.23832768e-36
-1.53856708e-35
-9.295825806e-35
-5.14852823e-34
-1.84206783e-33
-2.996083774e-33
-8.929430263e-33
-5.660046198e-32
-2.810505059e-31
-7.629474656e-31
-1.443806008e-30
-5.201728591e-30
-3.40688938e-29
-1.464049719e-28
-3.071032992e-28
-6.802328099e-28
-2.928853346e-27
-1.86477389e-26
-6.617303448e-26
-1.180588091e-25
-3.05196384e-25
-1.473915238e-24
-7.684752003e-24
-1.452244535e-23
-4.090091439e-23
-1.192059298e-22
-5.443664374e-22
5.161960549e-22
2.381995315e-20
-1.132251959e-20
-3.049294018e-20
3.783390287e-20
5.867438167e-18
5.458375083e-17
-2.12469296e-18
-8.516344568e-18
-5.340658373e-16
-3.541293018e-14
-2.015587115e-13
4.883010547e-08
2.421653375e-08
1.799581368e-08
2.70550964e-08
4.849994932e-08
2.488783573e-09
7.499141443e-09
6.599139631e-09
7.322576076e-09
3.746361703e-10
-4.994020635e-09
-1.013075184e-09
-7.023858691e-10
-2.274414236e-09
-5.689120708e-09
-5.127359267e-09
-3.536909433e-09
-2.918495618e-09
-3.582065428e-09
-4.938019238e-09
-4.229466544e-09
-3.800607797e-09
-3.4898489e-09
-3.614068783e-09
-3.790536656e-09
-3.335243337e-09
-3.503868721e-09
-3.386321839e-09
-3.330437348e-09
-2.910473517e-09
-2.611042442e-09
-3.03523254e-09
-3.051452832e-09
-2.948231821e-09
-2.258511375e-09
-2.047797318e-09
-2.570398113e-09
-2.655726103e-09
-2.562630242e-09
-1.736028531e-09
-1.60629114e-09
-2.139475428e-09
-2.258270564e-09
-2.127992563e-09
-1.301697378e-09
-1.259019782e-09
-1.749704944e-09
-1.87067661e-09
-1.67314377e-09
-9.579176067e-10
-9.832787715e-10
-1.406532573e-09
-1.509723733e-09
-1.271221382e-09
-7.014643404e-10
-7.657843727e-10
-1.114289716e-09
-1.191445011e-09
-9.500602739e-10
-5.158640663e-10
-5.954913026e-10
-8.722377399e-10
-9.253414131e-10
-7.075716798e-10
-3.846943203e-10
-4.652263839e-10
-6.795376412e-10
-7.12651853e-10
-5.300807817e-10
-2.932603088e-10
-3.665200206e-10
-5.288683252e-10
-5.482362469e-10
-4.023919861e-10
-2.303736476e-10
-2.93990763e-10
-4.147101478e-10
-4.247042302e-10
-3.115750752e-10
-1.877460396e-10
-2.421761482e-10
-3.297746841e-10
-3.342932789e-10
-2.485034534e-10
-1.606364934e-10
-2.091450883e-10
-2.689776831e-10
-2.697011507e-10
-2.054076061e-10
-1.449570434e-10
-3.713747109e-10
-2.687330176e-10
-2.33922388e-10
-1.80876346e-10
-1.395722267e-10
1.499723791e-07
-6.968799219e-09
-2.328208872e-09
-6.664026104e-10
-3.159896755e-10
-4.868752751e-16
-3.309173112e-14
-7.64063821e-12
7.078679787e-10
2.206870032e-06
-1.3008164e-14
-5.273213391e-13
-6.670564253e-11
-1.487591182e-09
8.610098817e-07
-9.486315798e-14
-2.748021532e-12
-2.025447923e-10
-2.238243108e-09
4.048243587e-07
-2.252136624e-13
-2.785489537e-12
1.644664832e-11
1.133906565e-08
3.41949768e-07
6.41769241e-13
2.316797389e-11
1.060081754e-09
2.374237016e-08
2.404135235e-07
7.070872696e-12
1.245753448e-10
2.727106772e-09
3.159513089e-08
2.051735233e-07
3.210116452e-11
3.765249459e-10
4.894929514e-09
5.124016608e-08
3.277255346e-07
1.023833811e-10
8.538247533e-10
8.231066406e-09
8.475253494e-08
4.560443252e-07
2.572266423e-10
1.58703153e-09
1.346133068e-08
1.083633768e-07
4.206113679e-07
5.328458186e-10
2.644430664e-09
2.134544516e-08
1.229253809e-07
3.937781206e-07
9.839466413e-10
4.410148432e-09
3.253890614e-08
1.395649647e-07
4.562790819e-07
1.64653208e-09
7.211352415e-09
4.487330408e-08
1.47640165e-07
5.19209428e-07
2.710830084e-09
1.121842488e-08
5.37641408e-08
1.208125028e-07
4.611545678e-07
4.573847408e-09
1.609441036e-08
5.432886968e-08
7.108218058e-08
3.529153406e-07
7.532028484e-09
2.022305544e-08
4.394814672e-08
4.444806631e-08
2.938580128e-07
8.145732135e-09
1.590465512e-08
1.231187512e-08
4.514906837e-08
2.857585459e-07
-1.256057429e-08
-2.249626224e-08
-6.694659802e-08
4.017692631e-08
1.467468398e-07
-1.096812782e-07
-1.504740397e-07
-1.890389301e-07
-1.111890487e-07
-4.13871071e-07
-3.250921348e-07
-3.66578532e-07
-4.16211671e-07
-5.862168319e-07
-1.374547063e-06
-6.582985719e-07
-7.21328167e-07
-9.046556987e-07
-1.403561661e-06
-2.446155966e-06
-1.206137778e-06
-1.330981546e-06
-1.666432557e-06
-2.300427764e-06
-3.260212582e-06
-1.924402601e-06
-2.054316162e-06
-2.40843875e-06
-2.947475011e-06
-3.725719605e-06
-2.483383405e-06
-2.597246107e-06
-2.850740548e-06
-3.259208476e-06
-3.861937191e-06
-2.705303967e-06
-2.787442547e-06
-2.975331556e-06
-3.304934988e-06
-3.778120413e-06
-2.668254192e-06
-2.740385137e-06
-2.918003887e-06
-3.21210788e-06
-3.746986914e-06
-2.547173777e-06
-2.631542145e-06
-2.830137873e-06
-3.139957978e-06
-3.730079203e-06
-2.459442955e-06
-2.563914611e-06
-2.816659462e-06
-3.151457196e-06
-3.736977261e-06
-2.454238572e-06
-2.579977571e-06
-2.872480712e-06
-3.247580013e-06
-3.937316578e-06
-2.464575563e-06
-2.602533235e-06
-3.038283497e-06
-3.579156675e-06
-4.246879353e-06
-2.668181144e-06
-2.810434719e-06
-3.209693962e-06
-3.862479826e-06
-4.831625061e-06
-2.991590153e-06
-3.178932416e-06
-3.645995275e-06
-4.41758018e-06
-5.468120183e-06
-3.44907736e-06
-3.657412046e-06
-4.138347237e-06
-4.964533228e-06
-6.139436595e-06
-3.87772408e-06
-4.184731428e-06
-3.985716224e-06
-5.539430983e-06
-6.517737294e-06
-4.171263344e-06
-4.396780749e-06
-4.639992999e-06
-5.047802905e-06
-5.468073234e-06
-2.113149647e-06
-2.189810904e-06
-2.209277869e-06
-2.064818635e-06
-1.633085361e-06
1.7074185e-06
1.787746676e-06
2.026338088e-06
2.336040096e-06
2.943147214e-06
3.515652299e-06
3.535545123e-06
3.618935473e-06
3.770549841e-06
4.113060208e-06
1.631769156e-06
1.656243742e-06
1.762164946e-06
2.045024539e-06
2.718487245e-06
-6.951104845e-07
-4.720581296e-07
1.179812991e-07
1.313389066e-06
3.604667803e-06
1.333927475e-06
2.180254205e-06
4.205910717e-06
7.674063888e-06
1.258852167e-05
9.181139165e-06
9.255626921e-06
8.781940203e-06
6.729006838e-06
2.876289708e-06
-4.160161896e-06
-4.416559877e-06
-4.936042285e-06
-5.637573211e-06
-6.442641751e-06
-5.845142081e-06
-5.874718019e-06
-5.921651805e-06
-5.949064523e-06
-5.912702239e-06
-3.852643064e-06
-3.823661387e-06
-3.757804291e-06
-3.652797497e-06
-3.506496477e-06
-2.120058817e-06
-2.101435506e-06
-2.044268257e-06
-1.983487777e-06
-1.912953387e-06
-1.239618949e-06
-1.232583758e-06
-1.217458832e-06
-1.194762859e-06
-1.167596883e-06
-8.838741005e-07
-8.820147392e-07
-8.781059212e-07
-8.725668939e-07
-8.657627979e-07
-7.576108896e-07
-7.574207035e-07
-7.57047233e-07
-7.565147952e-07
-7.557945104e-07
-7.124108384e-07
-7.123727541e-07
-7.126507367e-07
-7.139609077e-07
-7.134340868e-07
-6.853429608e-07
-6.850425424e-07
-6.842015807e-07
-6.832129197e-07
-6.813105917e-07
-6.512271514e-07
-6.501403883e-07
-6.491209455e-07
-6.475550097e-07
-6.627899204e-07
-6.092708512e-07
-6.086355545e-07
-6.072479124e-07
-6.051455615e-07
-5.922334009e-07
-5.488936818e-07
-5.481721944e-07
-5.465801156e-07
-5.441429924e-07
-5.408442523e-07
-4.88097536e-07
-4.873980366e-07
-4.858600284e-07
-4.835192581e-07
-4.803792786e-07
-4.27855044e-07
-4.272296542e-07
-4.25852778e-07
-4.237593546e-07
-4.209562735e-07
-3.703344687e-07
-3.697852993e-07
-3.685772533e-07
-3.667415013e-07
-3.642848594e-07
-3.169599126e-07
-3.164904905e-07
-3.154572162e-07
-3.138877285e-07
-3.117889285e-07
-2.689510969e-07
-2.685570129e-07
-2.676904083e-07
-2.663749602e-07
-2.646172865e-07
-2.267785075e-07
-2.26452734e-07
-2.257362245e-07
-2.246491009e-07
-2.231973347e-07
-1.903753126e-07
-1.901078555e-07
-1.895200266e-07
-1.88628385e-07
-1.874379808e-07
-1.593384439e-07
-1.59119533e-07
-1.586382247e-07
-1.579080602e-07
-1.569330167e-07
-1.33119128e-07
-1.329393265e-07
-1.325441248e-07
-1.319444354e-07
-1.311432422e-07
-1.111196434e-07
-1.109713248e-07
-1.106451345e-07
-1.10149907e-07
-1.094878424e-07
-9.278335583e-08
-9.266018233e-08
-9.238932469e-08
-9.19779196e-08
-9.142755642e-08
-7.755231071e-08
-7.744936952e-08
-7.722287285e-08
-7.687868813e-08
-7.641799795e-08
-6.499498489e-08
-6.490841507e-08
-6.471797452e-08
-6.442850994e-08
-6.404090562e-08
-5.458157629e-08
-5.450802112e-08
-5.434615252e-08
-5.410008176e-08
-5.37705679e-08
-4.612964874e-08
-4.606710594e-08
-4.59295271e-08
-4.572043255e-08
-4.544048751e-08
-3.907410641e-08
-3.901951149e-08
-3.889942896e-08
-3.871703083e-08
-3.8473047e-08
-3.453236195e-08
-3.44864726e-08
-3.438553105e-08
-3.423224297e-08
-3.402724077e-08
1.817616303e-05
9.557773738e-06
3.905000148e-06
2.405816695e-06
1.418814841e-06
1.28066046e-06
1.956498516e-06
2.250117133e-06
1.750747191e-06
1.45444066e-06
1.543711762e-06
1.539855973e-06
1.101212088e-06
6.40098103e-07
4.031369062e-07
3.213222663e-07
9.808326221e-09
-8.860133015e-07
-2.112337075e-06
-3.223015732e-06
-4.026914241e-06
-4.304342262e-06
-4.250597132e-06
-4.256860942e-06
-4.203477355e-06
-4.240412691e-06
-4.318796332e-06
-4.649952403e-06
-5.074209478e-06
-5.719311388e-06
-6.522324046e-06
-7.213894698e-06
-7.36398404e-06
-5.710368022e-06
-1.213377431e-06
3.483676788e-06
4.545785513e-06
3.633141441e-06
6.262384897e-06
1.617781563e-05
5.115043601e-09
-6.986305585e-06
-5.838854805e-06
-3.38717368e-06
-1.855921792e-06
-1.146144361e-06
-8.60138375e-07
-7.546626156e-07
-7.12459766e-07
-6.793485574e-07
-6.421890993e-07
-5.891416793e-07
-5.379294003e-07
-4.776726197e-07
-4.185641447e-07
-3.622029e-07
-3.100191655e-07
-2.631406786e-07
-2.219809677e-07
-1.86442374e-07
-1.561182514e-07
-1.3047393e-07
-1.089345851e-07
-9.096744511e-08
-7.603253917e-08
-6.371642512e-08
-5.349454481e-08
-4.520602837e-08
-3.82688252e-08
-3.385571462e-08
-1.463381077e-07
6.102466511e-06
-1.178678352e-07
-3.037726502e-08
-3.325594905e-09
5.332097544e-07
-2.170652143e-06
1.43664882e-06
-6.403523107e-08
-2.75683279e-08
1.114022376e-06
-5.742286997e-06
2.17028553e-05
-1.873429292e-06
-1.538308674e-07
-1.455861866e-06
-2.605450426e-05
5.164234841e-05
-1.320576865e-05
-4.490645222e-08
-3.578454626e-06
-1.960330867e-05
-8.562591429e-06
-4.578285867e-06
-8.782902083e-08
-2.655002923e-06
-1.102311976e-05
-6.169511937e-06
4.068302058e-06
-7.443367315e-07
-6.371287554e-07
-6.732621944e-06
-1.197314617e-05
3.106488916e-05
-6.011097874e-06
-6.143392747e-07
-8.345557836e-06
-4.921618875e-05
0.0001343494148
-2.876055321e-05
-2.037974678e-06
-1.169070178e-05
-3.472785883e-05
3.132908584e-05
-1.578992376e-05
-2.265841702e-06
-1.035990957e-05
-1.942511125e-05
5.689939667e-06
1.916781656e-06
-1.71852049e-06
-8.13571265e-06
-1.256449811e-05
-8.219834681e-06
3.533048163e-05
-1.633494615e-06
-7.457185094e-06
-1.477004919e-05
-4.845977263e-05
0.0001466554805
-2.365422295e-06
-8.752058225e-06
-1.70297823e-05
-4.87192214e-05
9.864623703e-05
-2.852334578e-06
-8.93981858e-06
-1.506219137e-05
-3.137393954e-05
3.821150789e-05
-2.840783828e-06
-8.028975313e-06
-1.199495272e-05
-1.999536405e-05
1.623574618e-05
-2.702967713e-06
-6.96296008e-06
-9.916020902e-06
-1.691970165e-05
-4.164547983e-06
-2.8742206e-06
-6.607292701e-06
-9.986517422e-06
-2.227703614e-05
-3.656984898e-05
-3.669363527e-06
-7.343189412e-06
-1.200966462e-05
-2.811421532e-05
-5.506904627e-05
-4.805253415e-06
-8.216360872e-06
-1.332646791e-05
-2.790738669e-05
-4.973827175e-05
-5.405749077e-06
-8.461126612e-06
-1.311367536e-05
-2.45058758e-05
-3.867363297e-05
-5.572950998e-06
-8.119264047e-06
-1.205173608e-05
-2.077694088e-05
-2.966914202e-05
-5.513392951e-06
-7.53204995e-06
-1.094242881e-05
-1.810730778e-05
-2.446062504e-05
-5.260037742e-06
-7.057696584e-06
-1.032064234e-05
-1.708692801e-05
-2.309477259e-05
-5.062162306e-06
-6.899925705e-06
-1.045400496e-05
-1.777191573e-05
-2.477265493e-05
-5.01729164e-06
-7.095213114e-06
-1.123205188e-05
-1.932972475e-05
-2.698599729e-05
-5.156415388e-06
-7.362553576e-06
-1.234136133e-05
-2.075159388e-05
-2.760608711e-05
-5.341677205e-06
-8.084737246e-06
-1.349008835e-05
-2.151712313e-05
-2.612983125e-05
-5.8134009e-06
-9.0506516e-06
-1.451879625e-05
-2.134932848e-05
-2.257287144e-05
-6.397495507e-06
-9.952826477e-06
-1.518509623e-05
-1.993843988e-05
-1.679143482e-05
-6.467584227e-06
-1.079384179e-05
-1.511838634e-05
-1.694071842e-05
-8.392000544e-06
-8.005459987e-06
-1.123969761e-05
-1.38927357e-05
-1.205781141e-05
2.470073698e-06
-8.509511639e-06
-1.075687668e-05
-1.095705588e-05
-5.002981647e-06
1.46211842e-05
-8.049269914e-06
-8.480647515e-06
-5.661584104e-06
3.786345276e-06
2.627863674e-05
-5.332665964e-06
-3.440695996e-06
1.807400443e-06
1.285071411e-05
3.726591885e-05
5.521846299e-08
3.217888863e-06
9.088689495e-06
2.123760799e-05
5.024748025e-05
4.587896764e-06
7.407755929e-06
1.359874355e-05
2.936085194e-05
5.590692107e-05
5.446948411e-06
8.976662343e-06
1.873832391e-05
4.030659394e-05
2.301336172e-05
5.558866562e-06
1.308647735e-05
2.928180783e-05
2.545786231e-05
-4.245702382e-06
1.121911506e-05
2.357576939e-05
1.789019251e-05
-3.203466322e-06
-1.211121138e-05
1.726786471e-05
5.884414439e-06
-5.09177484e-06
-1.066807639e-05
-1.1633297e-05
-3.3004188e-06
-7.221516428e-06
-9.603548077e-06
-9.680395297e-06
-8.230068229e-06
-7.567321717e-06
-7.930798978e-06
-7.425332667e-06
-6.332643376e-06
-5.090093333e-06
-5.628111302e-06
-5.112254947e-06
-4.423045831e-06
-3.685184581e-06
-3.003245751e-06
-3.190867266e-06
-2.843936874e-06
-2.480579549e-06
-2.1312536e-06
-1.8271163e-06
-1.775840131e-06
-1.626915075e-06
-1.480224237e-06
-1.345510483e-06
-1.227227453e-06
-1.122256947e-06
-1.070280206e-06
-1.024478416e-06
-9.792112523e-07
-9.368637156e-07
-8.543537317e-07
-8.424317193e-07
-8.308727746e-07
-8.172770863e-07
-8.005083133e-07
-7.549532946e-07
-7.525182216e-07
-7.489431768e-07
-7.442454077e-07
-7.325331809e-07
-7.123354594e-07
-7.094258635e-07
-7.038123212e-07
-6.944453864e-07
-6.87672179e-07
-6.775980932e-07
-6.715883882e-07
-6.615347996e-07
-6.540156168e-07
-6.393291278e-07
-6.373383025e-07
-6.309388713e-07
-6.193194912e-07
-6.067361888e-07
-5.905246491e-07
-5.850762483e-07
-5.758545641e-07
-5.7504092e-07
-5.621663439e-07
-5.476396746e-07
-5.34149791e-07
-5.257742329e-07
-5.155356443e-07
-5.035252476e-07
-4.897828503e-07
-4.740504289e-07
-4.662976629e-07
-4.568950793e-07
-4.458699526e-07
-4.333901287e-07
-4.152880304e-07
-4.083896732e-07
-4.000356292e-07
-3.902579421e-07
-3.790995054e-07
-3.593024901e-07
-3.532680159e-07
-3.459758546e-07
-3.374657274e-07
-3.277932183e-07
-3.075251643e-07
-3.023820454e-07
-2.961815993e-07
-2.889678679e-07
-2.807970149e-07
-2.610432366e-07
-2.567466087e-07
-2.515767512e-07
-2.455746861e-07
-2.38790015e-07
-2.202429597e-07
-2.166992512e-07
-2.124391567e-07
-2.074962359e-07
-2.01909363e-07
-1.850129729e-07
-1.82107101e-07
-1.786127798e-07
-1.745538565e-07
-1.699560498e-07
-1.549436168e-07
-1.525588779e-07
-1.496862344e-07
-1.463421249e-07
-1.425436202e-07
-1.295057407e-07
-1.275407706e-07
-1.251687584e-07
-1.223999976e-07
-1.192445797e-07
-1.081323044e-07
-1.065033782e-07
-1.045326609e-07
-1.022263441e-07
-9.959053142e-08
-9.029924377e-08
-8.894136225e-08
-8.729558975e-08
-8.536582366e-08
-8.315617903e-08
-7.547256729e-08
-7.433337441e-08
-7.295096883e-08
-7.132811545e-08
-6.946832889e-08
-6.324519926e-08
-6.228587932e-08
-6.112109616e-08
-5.975349706e-08
-5.818675708e-08
-5.309414173e-08
-5.227845631e-08
-5.128864058e-08
-5.012764209e-08
-4.880009261e-08
-4.4866278e-08
-4.417459747e-08
-4.3336505e-08
-4.235574282e-08
-4.123803951e-08
-3.79734138e-08
-3.737324207e-08
-3.664873771e-08
-3.580493835e-08
-3.484923188e-08
-3.360732781e-08
-3.310344711e-08
-3.2495761e-08
-3.178908024e-08
-3.099090179e-08
-3.121496748e-10
-4.74625954e-11
-1.308845165e-12
-7.864243427e-14
-1.319993537e-14
-3.285911477e-15
-8.50226761e-16
-2.456497592e-16
-9.796139064e-17
-5.665076267e-17
-4.042680587e-17
-3.14129279e-17
-2.535107673e-17
-2.091504769e-17
-1.750565986e-17
-1.477545235e-17
-1.251294696e-17
-1.058883172e-17
-8.929342857e-18
-7.492869507e-18
-6.256261229e-18
-5.203735298e-18
-4.320153697e-18
-3.58749055e-18
-2.98450777e-18
-2.487983379e-18
-2.075224588e-18
-1.726801426e-18
-1.428230261e-18
-1.170193638e-18
-9.475270815e-19
-7.575255071e-19
-5.982822907e-19
-4.675509736e-19
-3.6226202e-19
-2.786377986e-19
-2.126793613e-19
-1.607178481e-19
-1.197770052e-19
-8.764747489e-20
-6.273126514e-20
-4.380291281e-20
-2.981395697e-20
-1.979596404e-20
-1.284969356e-20
-8.17746136e-21
-5.11759957e-21
-3.157488474e-21
-1.923828099e-21
-1.15821366e-21
-6.886275522e-22
-4.037608204e-22
-2.328990244e-22
-1.316468853e-22
-7.237810172e-23
-3.806259559e-23
-1.833072e-23
-7.270721946e-24
-1.692235949e-24
-1.383230569e-25
-2.381900633e-09
-2.102860641e-10
-8.021483621e-12
-1.188025343e-12
-3.450252298e-13
-1.002406477e-13
-2.847209858e-14
-9.411546701e-15
-3.910409623e-15
-1.993272713e-15
-1.142141877e-15
-7.071706009e-16
-4.638275379e-16
-3.197494975e-16
-2.296618496e-16
-1.703273144e-16
-1.2934572e-16
-9.986805591e-17
-7.801182003e-17
-6.144563395e-17
-4.872018159e-17
-3.887862428e-17
-3.124748017e-17
-2.531425506e-17
-2.067453455e-17
-1.700168538e-17
-1.403737378e-17
-1.158874214e-17
-9.524077278e-18
-7.761965632e-18
-6.257281774e-18
-4.985175628e-18
-3.927564937e-18
-3.065214316e-18
-2.374482557e-18
-1.827977489e-18
-1.397698563e-18
-1.058604672e-18
-7.908571318e-19
-5.80083513e-19
-4.161048909e-19
-2.911813607e-19
-1.986408948e-19
-1.32233899e-19
-8.609467687e-20
-5.498872617e-20
-3.455840306e-20
-2.142386448e-20
-1.312094435e-20
-7.941646896e-21
-4.747167409e-21
-2.798136628e-21
-1.622324991e-21
-9.214234845e-22
-5.086453128e-22
-2.68232449e-22
-1.294258753e-22
-5.162488159e-23
-1.28556494e-23
-1.304349021e-24
-2.873599369e-08
-1.13895596e-09
-3.46401302e-11
-7.24027695e-12
-2.393382727e-12
-8.474071551e-13
-3.26781521e-13
-1.489597336e-13
-7.613385736e-14
-4.192728484e-14
-2.371208875e-14
-1.377856892e-14
-8.192419051e-15
-5.017092431e-15
-3.161651473e-15
-2.047665175e-15
-1.35847528e-15
-9.208456686e-16
-6.371131871e-16
-4.497344161e-16
-3.239708159e-16
-2.382022673e-16
-1.788152768e-16
-1.369831998e-16
-1.06898809e-16
-8.469046805e-17
-6.778504785e-17
-5.450424289e-17
-4.379414595e-17
-3.501439271e-17
-2.778161166e-17
-2.185477967e-17
-1.705551762e-17
-1.322514586e-17
-1.020736866e-17
-7.847602937e-18
-6.00279559e-18
-4.553129795e-18
-3.408289903e-18
-2.505402145e-18
-1.801300556e-18
-1.263636075e-18
-8.644777577e-19
-5.774217684e-19
-3.774998563e-19
-2.423241776e-19
-1.532096642e-19
-9.563905762e-20
-5.902293435e-20
-3.601566505e-20
-2.170899956e-20
-1.29028961e-20
-7.541391578e-21
-4.315156688e-21
-2.396581359e-21
-1.268208378e-21
-6.121650016e-22
-2.428673365e-22
-6.087282051e-23
-6.423469238e-24
-2.597071802e-07
-1.623642947e-08
-3.521103079e-10
-3.190376377e-11
-1.068241309e-11
-4.812464838e-12
-2.434411365e-12
-1.338124615e-12
-7.68760186e-13
-4.519093665e-13
-2.670676722e-13
-1.589542649e-13
-9.524249128e-14
-5.779098307e-14
-3.550287297e-14
-2.21013421e-14
-1.390139672e-14
-8.828606881e-15
-5.66114555e-15
-3.676054605e-15
-2.427266449e-15
-1.637285587e-15
-1.132470347e-15
-8.04603456e-16
-5.866026966e-16
-4.371272874e-16
-3.310477581e-16
-2.531874277e-16
-1.944470735e-16
-1.49327091e-16
-1.14393718e-16
-8.735770766e-17
-6.655305419e-17
-5.066023442e-17
-3.858182416e-17
-2.939428995e-17
-2.234884285e-17
-1.68795632e-17
-1.25929412e-17
-9.230995045e-18
-6.622384119e-18
-4.639776024e-18
-3.173996959e-18
-2.123040658e-18
-1.392157839e-18
-8.977947276e-19
-5.711177322e-19
-3.591550932e-19
-2.235074242e-19
-1.376275263e-19
-8.376260493e-20
-5.028692723e-20
-2.96873082e-20
-1.714772372e-20
-9.597564195e-21
-5.100738853e-21
-2.462350318e-21
-9.698637083e-22
-2.409850567e-22
-2.560141827e-23
-2.236547948e-07
-7.646221073e-08
-3.008224585e-09
-1.429742137e-10
-4.106094886e-11
-2.113974059e-11
-1.22072059e-11
-7.298868722e-12
-4.456311739e-12
-2.754376168e-12
-1.710326476e-12
-1.06551451e-12
-6.651934861e-13
-4.172933978e-13
-2.629201976e-13
-1.666187632e-13
-1.05936302e-13
-6.756886529e-14
-4.316006701e-14
-2.767182427e-14
-1.784751825e-14
-1.164278641e-14
-7.717111638e-15
-5.218124063e-15
-3.602877973e-15
-2.535623847e-15
-1.811572161e-15
-1.307594069e-15
-9.494451626e-16
-6.914018323e-16
-5.042413259e-16
-3.683542629e-16
-2.69943351e-16
-1.988837976e-16
-1.475460941e-16
-1.10146853e-16
-8.242336857e-17
-6.1425665e-17
-4.526285755e-17
-3.277833776e-17
-2.323829713e-17
-1.610470032e-17
-1.091667196e-17
-7.253883696e-18
-4.739759803e-18
-3.055382128e-18
-1.948243901e-18
-1.230720456e-18
-7.705378584e-19
-4.778452501e-19
-2.931206542e-19
-1.774777032e-19
-1.057158925e-19
-6.160287438e-20
-3.474039008e-20
-1.854770958e-20
-8.956354389e-21
-3.509425287e-21
-8.646929108e-22
-9.347762984e-23
2.241650667e-08
-2.27429181e-07
-2.181451079e-08
-9.485181724e-10
-1.681625483e-10
-7.678986214e-11
-4.414325256e-11
-2.699393907e-11
-1.701740433e-11
-1.093037635e-11
-7.098817216e-12
-4.640481604e-12
-3.044904713e-12
-2.004307133e-12
-1.322118321e-12
-8.739158295e-13
-5.779800483e-13
-3.823512757e-13
-2.525722697e-13
-1.668099729e-13
-1.102054086e-13
-7.311897579e-14
-4.883597367e-14
-3.295193291e-14
-2.246817685e-14
-1.546893603e-14
-1.071679158e-14
-7.44640253e-15
-5.175274837e-15
-3.594610307e-15
-2.497145435e-15
-1.738951507e-15
-1.217972224e-15
-8.613879685e-16
-6.171460546e-16
-4.480007071e-16
-3.27956444e-16
-2.400093893e-16
-1.739061547e-16
-1.237516804e-16
-8.605532476e-17
-5.839859812e-17
-3.874047648e-17
-2.52212235e-17
-1.61959046e-17
-1.030603918e-17
-6.517888159e-18
-4.100832512e-18
-2.565323118e-18
-1.593110193e-18
-9.800914177e-19
-5.957674986e-19
-3.565438889e-19
-2.088200207e-19
-1.183317797e-19
-6.340756026e-20
-3.066051352e-20
-1.20139322e-20
-2.958303499e-21
-3.288337631e-22
1.303698459e-07
-3.225787316e-07
-1.187948746e-07
-8.512833397e-09
-6.710997519e-10
-2.122081795e-10
-1.117486765e-10
-6.801037495e-11
-4.378334653e-11
-2.902800231e-11
-1.959303717e-11
-1.338208184e-11
-9.214490578e-12
-6.382178353e-12
-4.439616167e-12
-3.097895004e-12
-2.164937452e-12
-1.513277084e-12
-1.056273697e-12
-7.359619166e-13
-5.116927343e-13
-3.55549099e-13
-2.471724497e-13
-1.723030482e-13
-1.204499732e-13
-8.440545714e-14
-5.908137957e-14
-4.115999682e-14
-2.843260697e-14
-1.944570329e-14
-1.317675514e-14
-8.877168048e-15
-5.979469404e-15
-4.05485088e-15
-2.78783463e-15
-1.952682826e-15
-1.390822629e-15
-9.980495816e-16
-7.128141089e-16
-5.008651317e-16
-3.43314424e-16
-2.287417658e-16
-1.482525949e-16
-9.389412862e-17
-5.855592986e-17
-3.624750358e-17
-2.239236779e-17
-1.383179393e-17
-8.536573558e-18
-5.251818141e-18
-3.210883823e-18
-1.944084141e-18
-1.160680587e-18
-6.788721462e-19
-3.845039208e-19
-2.061596084e-19
-9.988443259e-20
-3.938324962e-20
-9.828644107e-21
-1.137684448e-21
-1.485530505e-06
-1.842303309e-07
-3.870153849e-07
-4.86338943e-08
-3.581435363e-09
-5.911564135e-10
-2.365015377e-10
-1.336655639e-10
-8.497309743e-11
-5.691266867e-11
-3.923599762e-11
-2.755157882e-11
-1.959707104e-11
-1.407435394e-11
-1.018584267e-11
-7.418392078e-12
-5.430794326e-12
-3.992252273e-12
-2.943009336e-12
-2.172561156e-12
-1.603789433e-12
-1.182791433e-12
-8.707918086e-13
-6.399671302e-13
-4.69347495e-13
-3.432501473e-13
-2.496779535e-13
-1.80051296e-13
-1.281990656e-13
-8.985762149e-14
-6.188366126e-14
-4.190837452e-14
-2.801305998e-14
-1.861006001e-14
-1.239599419e-14
-8.360632362e-15
-5.748770039e-15
-4.016819398e-15
-2.82073015e-15
-1.96561291e-15
-1.343417378e-15
-8.924889566e-16
-5.740165826e-16
-3.579445636e-16
-2.180341688e-16
-1.311573125e-16
-7.863339906e-17
-4.721631998e-17
-2.84265114e-17
-1.713180162e-17
-1.030223095e-17
-6.156349352e-18
-3.637072804e-18
-2.108906477e-18
-1.185831223e-18
-6.324144531e-19
-3.057837808e-19
-1.211193714e-19
-3.072812625e-20
-3.74782943e-21
-2.151722133e-06
5.151289403e-07
-4.255681638e-07
-2.068889816e-07
-1.873320557e-08
-1.971415365e-09
-5.006083436e-10
-2.350997818e-10
-1.410047996e-10
-9.31864948e-11
-6.46148705e-11
-4.609631352e-11
-3.351224137e-11
-2.469641933e-11
-1.838995168e-11
-1.380994441e-11
-1.04450562e-11
-7.949564161e-12
-6.083622367e-12
-4.677639869e-12
-3.610358894e-12
-2.794645512e-12
-2.167384885e-12
-1.681720175e-12
-1.303195303e-12
-1.006517233e-12
-7.724628313e-13
-5.870738367e-13
-4.401220823e-13
-3.242877326e-13
-2.340257065e-13
-1.651001564e-13
-1.138868176e-13
-7.706991453e-14
-5.147128924e-14
-3.420382989e-14
-2.284946804e-14
-1.546289129e-14
-1.057535525e-14
-7.244589532e-15
-4.922558069e-15
-3.286999309e-15
-2.136309774e-15
-1.341806628e-15
-8.143585856e-16
-4.8278127e-16
-2.83155686e-16
-1.656197907e-16
-9.699958235e-17
-5.694413095e-17
-3.345892079e-17
-1.960576796e-17
-1.139300662e-17
-6.512091813e-18
-3.615296474e-18
-1.906585578e-18
-9.144648767e-19
-3.619339658e-19
-9.327305386e-20
-1.211559365e-20
-2.888659236e-06
4.158645498e-07
2.419665048e-08
-4.371527105e-07
-8.615769237e-08
-8.416836733e-09
-1.229411204e-09
-4.155246827e-10
-2.186611637e-10
-1.378592404e-10
-9.437143092e-11
-6.759171967e-11
-4.979374449e-11
-3.738211313e-11
-2.8444823e-11
-2.18667139e-11
-1.695001726e-11
-1.323349087e-11
-1.039915415e-11
-8.221159179e-12
-6.534540138e-12
-5.220515043e-12
-4.188608527e-12
-3.371736647e-12
-2.719329756e-12
-2.193335828e-12
-1.765071855e-12
-1.412674371e-12
-1.11992776e-12
-8.755084771e-13
-6.717305352e-13
-5.037316898e-13
-3.682318871e-13
-2.623254859e-13
-1.825066389e-13
-1.245360534e-13
-8.382675869e-14
-5.610576973e-14
-3.758181839e-14
-2.52186246e-14
-1.686883589e-14
-1.118505384e-14
-7.31431011e-15
-4.681563606e-15
-2.902067089e-15
-1.737080794e-15
-1.014431536e-15
-5.851464258e-16
-3.359901517e-16
-1.927795142e-16
-1.10674474e-16
-6.349380371e-17
-3.623612924e-17
-2.039673609e-17
-1.117048136e-17
-5.818106668e-18
-2.760352117e-18
-1.08674258e-18
-2.836382655e-19
-3.930948985e-20
-7.90909767e-06
-4.609237061e-07
2.378050537e-07
-4.739645842e-07
-2.481115782e-07
-3.238807146e-08
-3.632523575e-09
-7.84800422e-10
-3.317100895e-10
-1.919449658e-10
-1.272701145e-10
-9.050070612e-11
-6.706120106e-11
-5.100348761e-11
-3.946629182e-11
-3.091058758e-11
-2.443197257e-11
-1.945430826e-11
-1.559863469e-11
-1.258789546e-11
-1.021964007e-11
-8.344096557e-12
-6.848398788e-12
-5.646682791e-12
-4.673060673e-12
-3.876735994e-12
-3.218506697e-12
-2.668188156e-12
-2.202443054e-12
-1.803847527e-12
-1.460057277e-12
-1.162753013e-12
-9.069830605e-13
-6.904667651e-13
-5.12107325e-13
-3.702246648e-13
-2.613612735e-13
-1.806329632e-13
-1.226757258e-13
-8.225652912e-14
-5.46597772e-14
-3.597615922e-14
-2.34076014e-14
-1.503230602e-14
-9.493659432e-15
-5.84462947e-15
-3.486739423e-15
-2.023407404e-15
-1.154102935e-15
-6.530788756e-16
-3.686299751e-16
-2.078409785e-16
-1.167733361e-16
-6.490403599e-17
-3.520541247e-17
-1.820222506e-17
-8.589079609e-18
-3.375547741e-18
-8.934492355e-19
-1.315814672e-19
-2.751274004e-05
-3.314807452e-06
2.918891071e-07
-3.208720791e-07
-4.946740932e-07
-1.266649393e-07
-1.526909489e-08
-2.014429696e-09
-5.486483746e-10
-2.618340129e-10
-1.616841894e-10
-1.122933019e-10
-8.302237945e-11
-6.365278145e-11
-4.988545013e-11
-3.96775115e-11
-3.18908434e-11
-2.583302279e-11
-2.106337927e-11
-1.727877775e-11
-1.425557109e-11
-1.182689964e-11
-9.865423669e-12
-8.272066602e-12
-6.968897847e-12
-5.894287595e-12
-4.999426147e-12
-4.245683148e-12
-3.602598739e-12
-3.046486477e-12
-2.559515787e-12
-2.129034944e-12
-1.746724624e-12
-1.40813908e-12
-1.111817211e-12
-8.578309168e-13
-6.458690459e-13
-4.740852155e-13
-3.39133101e-13
-2.364809678e-13
-1.610704441e-13
-1.075202959e-13
-7.049724031e-14
-4.545088341e-14
-2.884638313e-14
-1.801916043e-14
-1.103255881e-14
-6.583735755e-15
-3.820011591e-15
-2.166742714e-15
-1.213389932e-15
-6.762897869e-16
-3.758001947e-16
-2.071528969e-16
-1.118924627e-16
-5.79015279e-17
-2.751009194e-17
-1.096445779e-17
-2.99022399e-18
-4.678971203e-19
-2.373272632e-05
-4.652485405e-06
2.226767495e-07
-1.141336071e-08
-5.840391361e-07
-2.921836688e-07
-5.755794504e-08
-7.27406136e-09
-1.148680653e-09
-3.714135757e-10
-1.950934656e-10
-1.280088313e-10
-9.307615216e-11
-7.158563463e-11
-5.65565322e-11
-4.570667275e-11
-3.734539508e-11
-3.07433468e-11
-2.545638352e-11
-2.118902445e-11
-1.772752631e-11
-1.490971292e-11
-1.260817593e-11
-1.072090804e-11
-9.165547805e-12
-7.875301354e-12
-6.79592975e-12
-5.883323228e-12
-5.101754357e-12
-4.422574754e-12
-3.823276605e-12
-3.286830039e-12
-2.801137908e-12
-2.358741845e-12
-1.956357873e-12
-1.593706783e-12
-1.272052298e-12
-9.925521572e-13
-7.552984905e-13
-5.594111665e-13
-4.025509126e-13
-2.81287083e-13
-1.910558499e-13
-1.262890664e-13
-8.151258728e-14
-5.153880794e-14
-3.197063198e-14
-1.94730519e-14
-1.161709447e-14
-6.758955067e-15
-3.83745028e-15
-2.140575491e-15
-1.182729745e-15
-6.486282084e-16
-3.502926963e-16
-1.826625074e-16
-8.850407019e-17
-3.661644187e-17
-1.062135337e-17