/*--------------------------------*- C++ -*----------------------------------*\
  =========                 |
  \\      /  F ield         | OpenFOAM: The Open Source CFD Toolbox
   \\    /   O peration     | Website:  https://openfoam.org
    \\  /    A nd           | Version:  10
     \\/     M anipulation  |
\*---------------------------------------------------------------------------*/
FoamFile
{
    format      ascii;
    class       volScalarField;
    location    "3000";
    object      RR.HO2;
}
// * * * * * * * * * * * * * * * * * * * * * * * * * * * * * * * * * * * * * //

dimensions      [1 -3 -1 0 0 0 0];

internalField   nonuniform List<scalar> 
5170
(
2.533192508e-34
2.532819713e-34
2.533092408e-34
2.536202295e-34
2.560214763e-34
2.48174463e-34
2.481661997e-34
2.482773941e-34
2.490449941e-34
2.533637493e-34
2.446004361e-34
2.446322283e-34
2.44920514e-34
2.4639931e-34
2.524457089e-34
2.42833317e-34
2.429219345e-34
2.434513862e-34
2.45843859e-34
2.533502938e-34
2.422945105e-34
2.424598211e-34
2.432829184e-34
2.466114689e-34
2.55562686e-34
2.425057738e-34
2.427656557e-34
2.439279521e-34
2.482295064e-34
2.585716228e-34
2.432830604e-34
2.436444843e-34
2.451604879e-34
2.505421369e-34
2.621989369e-34
2.44465121e-34
2.449367437e-34
2.468524654e-34
2.533692865e-34
2.662461541e-34
2.459651292e-34
2.465314801e-34
2.488530977e-34
2.569317765e-34
2.740498415e-34
3.051804363e-34
2.982533726e-34
3.077018449e-34
5.603258271e-34
3.051888976e-33
2.840624404e-32
2.766088101e-32
3.911600823e-32
2.353429691e-31
2.057281774e-30
1.400564195e-29
1.563303006e-29
2.786165973e-29
1.876557705e-28
1.519692505e-27
7.118364721e-27
9.293714908e-27
2.101730924e-26
1.540704752e-25
1.122295077e-24
3.669097006e-24
5.691665618e-24
1.646600049e-23
1.299241574e-22
8.295431823e-22
1.907729902e-21
3.564184344e-21
1.316347792e-20
1.115610636e-19
6.138552267e-19
9.848231674e-19
2.232882821e-18
1.046073211e-17
9.374489386e-17
4.546844907e-16
5.004344323e-16
1.399075825e-15
8.013200546e-15
7.524567623e-14
3.380684088e-13
2.454279244e-13
8.58412886e-13
5.939370765e-12
5.773720932e-11
2.574668276e-10
1.102718755e-10
5.024251361e-10
4.1479288e-09
4.246543291e-08
2.355582974e-07
4.252907002e-08
2.854353137e-07
2.940384276e-06
3.553781248e-05
0.0004386808414
0.0007686350247
0.0003969633094
0.000312187088
0.0004366146849
0.0007647251292
8.165376918e-05
0.0001471182205
0.0001371700987
0.0001429408669
5.055563883e-05
-3.397891714e-05
3.392107456e-05
4.437103012e-05
1.299273869e-05
-4.484929282e-05
-4.485122367e-05
-1.685464306e-05
-7.120792848e-06
-2.094041131e-05
-4.518990826e-05
-3.958097231e-05
-2.942645529e-05
-2.467830461e-05
-2.911271526e-05
-3.673514602e-05
-3.252689447e-05
-3.102942853e-05
-2.896382644e-05
-2.984293195e-05
-2.940315505e-05
-2.640801766e-05
-2.871318975e-05
-2.835034054e-05
-2.814065446e-05
-2.383750713e-05
-2.153056046e-05
-2.5503435e-05
-2.602312106e-05
-2.605607006e-05
-1.933458617e-05
-1.765207495e-05
-2.219228914e-05
-2.320120494e-05
-2.309605084e-05
-1.548834138e-05
-1.457346134e-05
-1.900680369e-05
-2.018279617e-05
-1.940122923e-05
-1.236468681e-05
-1.210981508e-05
-1.609297253e-05
-1.720106636e-05
-1.589152844e-05
-1.001359137e-05
-1.016077257e-05
-1.354911168e-05
-1.446953493e-05
-1.300391119e-05
-8.315661393e-06
-8.636023322e-06
-1.140490966e-05
-1.213608118e-05
-1.081201592e-05
-7.139274248e-06
-7.490022681e-06
-9.6985974e-06
-1.026136724e-05
-9.231135316e-06
-6.353987478e-06
-6.643140778e-06
-8.369913388e-06
-8.825774982e-06
-8.141812314e-06
-5.85860882e-06
-6.058947054e-06
-7.391557605e-06
-7.77199218e-06
-7.389778504e-06
-5.547326265e-06
-5.682806858e-06
-6.689244589e-06
-7.044262438e-06
-6.916623284e-06
-5.399909845e-06
-5.531330845e-06
-6.227671105e-06
-6.60016363e-06
-6.684357185e-06
-5.404233264e-06
-5.759777733e-06
-5.895142821e-06
-6.419601769e-06
-6.598157464e-06
-5.505698865e-06
0.0004777166604
2.688411923e-05
-6.085389494e-06
-1.083282948e-05
-1.131889579e-05
2.262559496e-06
2.247023817e-05
0.0005347636352
0.01850677954
0.4036086303
1.048325542e-05
8.614796326e-05
0.001251413415
0.01003597326
0.05468132855
2.884206568e-05
0.000203592664
0.00198134264
0.00379172575
0.01832847775
6.309022395e-05
0.0003868528788
0.002550456583
0.0008705564837
0.01444671657
0.0001174816024
0.0006190561957
0.002673901795
-0.0004979469346
0.0101144285
0.0001964281192
0.0008679614795
0.002311644745
-0.001097883683
0.008576587104
0.0003139973062
0.001132796581
0.001548901145
-0.001162858906
0.01203596718
0.0004801851194
0.001334364452
0.0004784869487
-0.0005882008199
0.01562182347
0.0006810392821
0.001300658977
-0.0006403289024
-0.0001741112393
0.01562889616
0.0008572043266
0.0009122511054
-0.001494453804
0.0004920632228
0.01641640119
0.0009200059206
0.0002229975654
-0.001840420054
0.001834198857
0.01873825393
0.0007209906331
-0.0005221127986
-0.001674243091
0.003404250349
0.02067056428
0.0002411027996
-0.001137022224
-0.001252349248
0.004369224787
0.02048362629
-0.0003921701436
-0.001481831242
-0.0005993896536
0.005375511717
0.01966038725
-0.0009243365996
-0.001356258976
0.0005569188275
0.007560470098
0.01943830225
-0.000909838393
-0.0005297454185
0.002318554079
0.01058829885
0.01957678939
-1.998653005e-06
0.001036197877
0.004416935161
0.013371636
0.0178234337
0.001545952821
0.002789286948
0.007146102758
0.01343071275
0.01200318705
0.003404545185
0.004938031157
0.008154184405
0.009120812051
0.004098509923
0.00412987604
0.004730166805
0.00476279016
0.002003349296
-0.003020416846
0.0008880866322
0.0003252312703
-0.001466481139
-0.004442593943
-0.007220208822
-0.004639369768
-0.0050929159
-0.006681147131
-0.008073984384
-0.009538988157
-0.008585519668
-0.008847990307
-0.009169307023
-0.009637408962
-0.008616219919
-0.009842606729
-0.009704491372
-0.009292930957
-0.008705566691
-0.006723438845
-0.008948686639
-0.008573118689
-0.008047164445
-0.006697465034
-0.004896417202
-0.007131464766
-0.006791807989
-0.006215034121
-0.004442539734
-0.002944418736
-0.004982334746
-0.004766664948
-0.005222132456
-0.003992123265
-0.001255143926
-0.003346839409
-0.003394281842
-0.003838093681
-0.001565414532
3.459931916e-05
-0.0005731837039
-3.110864869e-05
-0.002678376542
-0.003950728811
-0.004483383699
0.001310242529
-0.0008042472868
0.0003456162561
0.001446292516
0.002435283123
0.001982371171
0.002335830794
0.002645269204
0.003393380958
0.004409156002
0.002796166198
0.002930478169
0.003494551774
0.004037928908
0.004579850044
0.00340295874
0.003487130527
0.003701716406
0.003944698666
0.003936671246
0.002663589908
0.002596105101
0.002392889296
0.001988797945
0.001297014368
-0.0006861703303
-0.000854813907
-0.001282307042
-0.001885852592
-0.002633732608
-0.003875620869
-0.003953125572
-0.004096984392
-0.004280771694
-0.00445639598
-0.003973881507
-0.003961544965
-0.003931633556
-0.003877320636
-0.003796259721
-0.002750168498
-0.002729960992
-0.002687049023
-0.002625916981
-0.002552098335
-0.001680550086
-0.001673605814
-0.001660321171
-0.001645775913
-0.001638348271
-0.001067565195
-0.001075144186
-0.001094083802
-0.001129540614
-0.001189725129
-0.000852997624
-0.0008708702529
-0.00090932233
-0.0009634604774
-0.001021659546
-0.0007140205252
-0.000719535194
-0.0007298646265
-0.0007418003637
-0.0007517329897
-0.0005394934563
-0.0005412624862
-0.0005442911386
-0.0005468109524
-0.0005466040148
-0.0004264484303
-0.0004259836486
-0.0004245343456
-0.000421260878
-0.0004151231397
-0.0003549590554
-0.0003534977325
-0.0003568160838
-0.000351034492
-0.0003423924888
-0.0003204030893
-0.0003189287494
-0.0003158497045
-0.0003110992499
-0.0003056233606
-0.0003119851051
-0.0003113159795
-0.0003099978048
-0.0003083246921
-0.000306699017
-0.0003305479029
-0.0003307353973
-0.0003313106209
-0.000332511846
-0.0003347029991
-0.0003684757973
-0.0003694148229
-0.0003715893145
-0.0003752350822
-0.0003804152989
-0.0004168931564
-0.0004183511178
-0.0004215870552
-0.0004268040306
-0.0004339430688
-0.0004675418876
-0.0004688890951
-0.0004737108182
-0.0004794400505
-0.0005010585613
-0.0005201927657
-0.0005222015398
-0.0005266579705
-0.000533503435
-0.0005290838736
-0.0005520075495
-0.0005538696361
-0.0005579657794
-0.0005641853598
-0.0005725013562
-0.0005743962138
-0.0005761336532
-0.0005799521587
-0.0005857411392
-0.000593471411
-0.0005863504027
-0.000587954219
-0.0005914699587
-0.0005967899806
-0.0006038786064
-0.0005881420924
-0.0005895992192
-0.0005927916613
-0.0005976166165
-0.0006040354674
-0.0005810750543
-0.0005823889027
-0.0005852633347
-0.0005896034737
-0.0005953715717
-0.0005669808974
-0.0005681583442
-0.0005707345216
-0.0005746225977
-0.000579786466
-0.0005477137467
-0.0005487662745
-0.0005510673072
-0.0005545383335
-0.0005591450402
-0.0005249017674
-0.0005258363165
-0.0005278793926
-0.0005309590391
-0.0005350417902
-0.0004997943199
-0.0005006157196
-0.0005024092948
-0.0005051088227
-0.0005086799283
-0.000473333514
-0.0004740410405
-0.0004755845382
-0.0004779027779
-0.0004809592566
-0.00044620293
-0.0004467959399
-0.0004480864365
-0.0004500173852
-0.000452550256
-0.0004190595774
-0.0004195360489
-0.0004205701339
-0.00042210917
-0.0004241123921
-0.000392166715
-0.0003925260378
-0.0003933014034
-0.0003944451584
-0.0003959149524
-0.000366195556
-0.0003664379112
-0.000366956118
-0.0003677078406
-0.0003686497759
-0.0003405182826
-0.0003406430721
-0.0003409022368
-0.0003412596811
-0.0003416726075
-0.0003167128528
-0.0003167247352
-0.0003167363848
-0.000316718679
-0.0003166304942
-0.000292598004
-0.0002924975305
-0.0002922626876
-0.0002918725447
-0.000291289817
-0.0002801699646
-0.0002800065218
-0.0002796343707
-0.0002790389182
-0.0002781871196
0.5263749848
0.2758031294
0.1260233098
0.07519381907
0.04786546498
0.04128210201
0.05048391849
0.05181116467
0.0423768098
0.03708310549
0.03692216927
0.03536726195
0.02938680561
0.02409581226
0.02141720052
0.02014023739
0.01660089812
0.00915854172
0.001178012086
-0.004593551903
-0.008734953977
-0.008332543904
-0.006765910117
-0.005244752093
-0.003390179048
-0.001663192753
-0.0004304696695
0.0002742731464
0.003529973404
0.004207625476
0.004956332128
0.004939897075
0.003794339814
0.0006495438823
-0.003178436779
-0.004550889643
-0.003729326692
-0.002503483059
-0.001646468299
-0.001252757589
-0.001056942265
-0.0007566472991
-0.0005438604813
-0.0004083739945
-0.0003346735322
-0.0003007641593
-0.000305157134
-0.0003363591118
-0.0003845342676
-0.0004396699951
-0.0004944505069
-0.000535747998
-0.0005791491782
-0.0005996904485
-0.0006095968556
-0.0006092248583
-0.0006000445742
-0.000583976197
-0.00056288629
-0.00053835755
-0.0005115752286
-0.0004834281652
-0.0004545826512
-0.0004257025696
-0.0003970589603
-0.000369353592
-0.0003419359863
-0.0003164799251
-0.0002907327554
-0.0002774135786
-0.02590517398
-0.00147368494
0.001155679576
7.474916313e-06
0.0001418151363
-0.01222631707
0.01630105426
-0.002484232069
0.0009026071676
0.001182545965
-0.004181555423
0.0009946627136
-0.009572657176
0.0005532636711
0.006166613791
-0.00830801266
-0.004109890783
-0.004763293064
-0.00318319204
0.007343481539
-0.01308314621
-0.008785377463
0.0144401555
-0.01012336162
0.0006313806676
-0.004411654839
-0.009044615003
0.02362009589
-0.01682415222
-0.003564237836
0.01049964975
-0.006341174773
0.02267096189
-0.02167543715
-0.005270387143
0.01077727603
-0.007093495883
0.01462307851
-0.01918408293
-0.007046722761
0.003401611918
-0.009908123796
0.008276761555
0.004910206739
-0.01445229032
0.002922999618
-0.009054525087
0.005640833337
0.0178604895
-0.02165724043
0.006113963638
-0.006592989475
0.004293714514
0.02242193901
-0.02623880813
0.006136834169
-0.005967633424
0.002037856737
0.02263843142
-0.02692667335
0.002179256013
-0.008053884047
-0.0004157148406
0.01879334322
-0.00776587558
0.0001758964192
-0.008407514028
-0.001365816034
0.01680840568
0.006324680992
0.0003607825491
-0.006925414489
-0.001348737359
0.01592337012
0.01299920065
0.0004166123374
-0.005097257512
-0.001080586199
0.01501065424
0.01648584236
-0.001238378645
-0.004809757008
-0.001085688072
0.0131701046
0.01821944548
-0.005042090714
-0.005626906082
-0.001185443499
0.01110806142
0.01823356069
-0.007976322367
-0.005938635047
-0.0008101181337
0.01007693706
0.01762493697
-0.008866828476
-0.005176425828
5.935373706e-05
0.009935492463
0.01713727931
-0.008043188457
-0.0038138106
0.001169554571
0.01021253246
0.01662631279
-0.006943035351
-0.002355597855
0.002319988986
0.01051037299
0.01585017162
-0.005066433154
-0.001082770616
0.003394886741
0.0106558118
0.01480261608
-0.003269993399
3.921093224e-05
0.004381188896
0.01061985763
0.01353469878
-0.001732462256
0.001100742421
0.005279596816
0.01045690201
0.01210587731
-0.0003806214459
0.002135224765
0.006173324058
0.01023983372
0.01046857002
0.000751590447
0.003731017871
0.006962882866
0.009874894872
0.008427490803
0.001376649885
0.004699120176
0.007538544151
0.009105363383
0.005744351541
0.003869258224
0.005869601367
0.007743677629
0.007586894139
0.002419779367
0.001557464451
0.006454197987
0.007128364906
0.004983698861
-0.001135766613
0.005471567303
0.006150698447
0.005233867403
0.001372084896
-0.004189866103
0.005057621303
0.004464458462
0.001907182325
-0.002390105325
-0.006092980699
0.003141870934
0.001136351732
-0.002028093033
-0.005015178978
-0.006663661661
-0.000553912277
-0.002767329341
-0.004746725799
-0.005850731339
-0.006198776187
-0.003921902512
-0.004839702765
-0.005275078587
-0.005290554216
-0.005257855422
-0.004617233876
-0.00457636059
-0.004387539864
-0.004215126996
-0.004338838952
-0.00360352485
-0.003398745596
-0.003244873442
-0.003297468979
-0.003506426032
-0.00242780122
-0.002367689135
-0.002448504648
-0.002691228523
-0.002546975052
-0.001665043052
-0.001795709799
-0.002018001126
-0.002002176043
-0.001735149236
-0.001344518495
-0.001498445943
-0.00149092606
-0.001356723376
-0.001153896949
-0.001073761307
-0.001066202084
-0.00100740019
-0.0008992951669
-0.0007549969967
-0.0007522038716
-0.0007292386009
-0.0006756563796
-0.0005942365146
-0.0004984291501
-0.0005349498329
-0.0005075119499
-0.0004629960698
-0.0004071175299
-0.0003515060557
-0.0003982260238
-0.000373015933
-0.0003414969684
-0.0003098034146
-0.0002867458751
-0.0003227913085
-0.0003055220826
-0.0002891248381
-0.0002789048904
-0.0002809669128
-0.0002959020643
-0.0002901549946
-0.0002873827849
-0.0002949089824
-0.0003144640853
-0.0003067501269
-0.0003100470585
-0.0003200829416
-0.0003395541039
-0.0003707687139
-0.0003423225398
-0.0003540849565
-0.0003730125316
-0.0004009688001
-0.0004388092845
-0.0003935552288
-0.0004111124562
-0.0004353865797
-0.0004675371538
-0.0005095923568
-0.0004505136669
-0.0004712194716
-0.000497683214
-0.0005331044923
-0.0005742137691
-0.0005047768986
-0.0005280768608
-0.0005544543271
-0.0005883951637
-0.0006255163094
-0.0005479062803
-0.0005677266067
-0.0006094559928
-0.0006412294897
-0.0006782149711
-0.0005900598347
-0.0006107100304
-0.0006357588628
-0.0006651420311
-0.0006985826395
-0.0006097177103
-0.0006287926039
-0.000651757784
-0.0006783951096
-0.0007083700263
-0.0006186832835
-0.0006360080544
-0.0006567375839
-0.0006806210951
-0.000707312265
-0.0006173781318
-0.0006329586991
-0.0006515237966
-0.0006728172243
-0.0006965116087
-0.0006073225297
-0.0006212628298
-0.0006378287066
-0.0006567749528
-0.0006777813513
-0.0005904565651
-0.000602893901
-0.0006176396152
-0.0006344532234
-0.0006530143306
-0.000568639827
-0.0005796917014
-0.0005927508765
-0.0006075650727
-0.0006237983803
-0.0005434307961
-0.0005531636289
-0.000564599856
-0.0005774599413
-0.0005913570815
-0.0005159836942
-0.0005244007638
-0.0005341897378
-0.0005450412012
-0.0005565344285
-0.0004871710819
-0.0004942541722
-0.0005023697694
-0.0005111743149
-0.0005202009812
-0.0004576521632
-0.0004633740717
-0.0004697814956
-0.0004765005699
-0.0004830338546
-0.0004280967143
-0.0004324491554
-0.0004371471199
-0.0004417957934
-0.0004458808104
-0.0003987783008
-0.0004017625937
-0.0004047658038
-0.0004073831353
-0.0004091002112
-0.0003704109491
-0.0003720609963
-0.0003734273724
-0.0003741095412
-0.0003736103848
-0.000342335076
-0.0003426642122
-0.0003424312693
-0.0003412531611
-0.0003386708497
-0.0003162614511
-0.0003153712446
-0.000313688058
-0.0003108645404
-0.0003064993639
-0.0002899122696
-0.0002878486985
-0.0002848013774
-0.0002804749685
-0.0002745441364
-0.0002762684732
-0.0002736023847
-0.0002698894622
-0.000264882777
-0.0002583254442
0.0001030763735
-8.286843289e-06
-2.261773049e-07
-7.227596036e-09
8.80178815e-10
4.069988313e-10
9.647694141e-11
1.888288369e-11
3.368320874e-12
5.443072272e-13
6.576632223e-14
-2.459111919e-15
-4.52043539e-15
1.582935478e-15
7.358367154e-15
1.222540366e-14
1.647336583e-14
2.022112524e-14
2.338792652e-14
2.581570865e-14
2.739592935e-14
2.814565142e-14
2.820872445e-14
2.779764914e-14
2.711618852e-14
2.630818347e-14
2.54282669e-14
2.445229291e-14
2.332390271e-14
2.19958871e-14
2.045491846e-14
1.872491246e-14
1.685583909e-14
1.49080301e-14
1.293948163e-14
1.100066854e-14
9.136456938e-15
7.389825913e-15
5.802801697e-15
4.412514318e-15
3.244265959e-15
2.305772842e-15
1.585906241e-15
1.058234164e-15
6.875290019e-16
4.367836722e-16
2.725381183e-16
1.676701992e-16
1.019954641e-16
6.143857038e-17
3.664592825e-17
2.161422999e-17
1.257230736e-17
7.179263822e-18
3.990969788e-18
2.121275084e-18
1.033006737e-18
4.221046103e-19
1.202698955e-19
2.146526649e-20
-3.827442232e-05
-2.65221429e-05
-8.099501664e-07
-3.641036918e-08
-2.588741962e-09
-4.613682668e-10
-1.708927083e-10
-7.537164702e-11
-3.412911622e-11
-1.589621331e-11
-7.383357823e-12
-3.401671038e-12
-1.537994736e-12
-6.692575984e-13
-2.598689566e-13
-6.088592494e-14
4.132807987e-14
9.772076889e-14
1.30711384e-13
1.501034433e-13
1.604953552e-13
1.645873493e-13
1.645151954e-13
1.620453033e-13
1.585239015e-13
1.546584094e-13
1.505549379e-13
1.459085542e-13
1.402704726e-13
1.332939333e-13
1.248709012e-13
1.151305333e-13
1.043602296e-13
9.29166103e-14
8.115461224e-14
6.939512046e-14
5.793671268e-14
4.707692849e-14
3.711440558e-14
2.831938446e-14
2.088464931e-14
1.488494491e-14
1.026692879e-14
6.872140594e-15
4.480839195e-15
2.858758206e-15
1.792632331e-15
1.109111629e-15
6.788755491e-16
4.115841813e-16
2.471007598e-16
1.4668401e-16
8.585389996e-17
4.931067101e-17
2.755001236e-17
1.471447164e-17
7.260876871e-18
3.100753421e-18
1.004149804e-18
1.619430746e-19
-1.841159648e-05
-7.09984732e-05
-1.443855396e-06
-1.114672175e-07
-3.02643199e-08
-1.14942252e-08
-4.74216496e-09
-2.182828388e-09
-1.053783889e-09
-5.184277676e-10
-2.489918575e-10
-1.168097325e-10
-5.319465833e-11
-2.366849838e-11
-1.027045735e-11
-4.290934832e-12
-1.627771903e-12
-4.284520813e-13
1.216142433e-13
3.763975218e-13
4.91387087e-13
5.378196829e-13
5.510308666e-13
5.499889073e-13
5.437483348e-13
5.361092548e-13
5.275368642e-13
5.167574389e-13
5.021001071e-13
4.825664048e-13
4.575564878e-13
4.272552697e-13
3.9243289e-13
3.540905461e-13
3.132894752e-13
2.71118265e-13
2.287783824e-13
1.876248545e-13
1.491030652e-13
1.145566687e-13
8.499494751e-14
6.091346233e-14
4.224033512e-14
2.843083063e-14
1.865286458e-14
1.198487828e-14
7.576802418e-15
4.731099649e-15
2.925136359e-15
1.79248084e-15
1.088016514e-15
6.528921888e-16
3.860862196e-16
2.238483137e-16
1.260905865e-16
6.784902126e-17
3.391137177e-17
1.484433231e-17
4.822766334e-18
6.724729017e-19
0.003843023902
-0.0004759191082
-1.53089269e-05
-7.296259336e-07
-1.991770693e-07
-9.255763677e-08
-4.768716357e-08
-2.544311645e-08
-1.3579978e-08
-7.142465644e-09
-3.642674361e-09
-1.80097649e-09
-8.605303956e-10
-3.994180451e-10
-1.803784691e-10
-7.967542166e-11
-3.435901703e-11
-1.429060995e-11
-5.451455202e-12
-1.562445575e-12
1.467619919e-13
8.888956096e-13
1.20167069e-12
1.327037071e-12
1.374538543e-12
1.391350429e-12
1.393651089e-12
1.38406857e-12
1.360958663e-12
1.322221648e-12
1.267965401e-12
1.199480449e-12
1.118516161e-12
1.02656095e-12
9.249660436e-13
8.153634769e-13
7.003085403e-13
5.837564266e-13
4.707617604e-13
3.665341798e-13
2.753293625e-13
1.996432368e-13
1.400153822e-13
9.528255241e-14
6.318937183e-14
4.104786106e-14
2.624802824e-14
1.658955063e-14
1.039049789e-14
6.454933478e-15
3.974467096e-15
2.420158955e-15
1.451891372e-15
8.531515724e-16
4.862748139e-16
2.645225771e-16
1.336642083e-16
5.931745424e-17
1.843730098e-17
2.227344848e-18
0.01157833969
-0.001313771537
-0.0001195735125
-4.418281936e-06
-1.092172477e-06
-5.500936219e-07
-3.087787539e-07
-1.749337661e-07
-9.856835407e-08
-5.479133768e-08
-2.979741792e-08
-1.579760881e-08
-8.132372918e-09
-4.068429292e-09
-1.97646082e-09
-9.353264962e-10
-4.316140164e-10
-1.950508598e-10
-8.620416782e-11
-3.700515166e-11
-1.495131162e-11
-5.111196645e-12
-7.051021316e-13
1.285892919e-12
2.204980617e-12
2.64246449e-12
2.854236711e-12
2.946988461e-12
2.964592002e-12
2.927252112e-12
2.847487509e-12
2.733938917e-12
2.591283422e-12
2.421488175e-12
2.224729467e-12
2.001413198e-12
1.754576912e-12
1.492011702e-12
1.226140138e-12
9.716387337e-13
7.420876968e-13
5.468682678e-13
3.898125897e-13
2.697780122e-13
1.821402954e-13
1.205670711e-13
7.859403135e-14
5.062272281e-14
3.228556073e-14
2.040392314e-14
1.277169137e-14
7.904296904e-15
4.820133784e-15
2.878542914e-15
1.666471733e-15
9.196806007e-16
4.707942863e-16
2.108046327e-16
6.149238049e-17
6.666666333e-18
0.009561745891
0.001098169606
-0.0006445657146
-3.873010526e-05
-5.913906071e-06
-2.511140077e-06
-1.366219078e-06
-7.847713138e-07
-4.578872095e-07
-2.674479016e-07
-1.548982351e-07
-8.836747782e-08
-4.940960519e-08
-2.700473024e-08
-1.439005598e-08
-7.47269259e-09
-3.77869325e-09
-1.862410399e-09
-8.959653334e-10
-4.223613056e-10
-1.95303835e-10
-8.856972009e-11
-3.883194998e-11
-1.570432601e-11
-4.811460342e-12
4.462945664e-13
3.075077209e-12
4.416072675e-12
5.080145806e-12
5.365024029e-12
5.428255782e-12
5.354923684e-12
5.189536646e-12
4.951601527e-12
4.646141011e-12
4.274530685e-12
3.835404325e-12
3.338945401e-12
2.808312771e-12
2.275492206e-12
1.774138716e-12
1.33216817e-12
9.661639439e-13
6.800489939e-13
4.675458258e-13
3.15886507e-13
2.107014063e-13
1.390935326e-13
9.092983856e-14
5.883050343e-14
3.761707546e-14
2.372699003e-14
1.472075102e-14
8.936151834e-15
5.259968046e-15
2.954928525e-15
1.539995771e-15
6.959202394e-16
1.898568285e-16
1.91260998e-17
0.004433873636
0.01039497888
-0.001729747359
-0.0002903496471
-2.456995779e-05
-7.685397256e-06
-3.897995911e-06
-2.250625993e-06
-1.354616759e-06
-8.272165411e-07
-5.062704824e-07
-3.083243668e-07
-1.859174738e-07
-1.10592601e-07
-6.470801702e-08
-3.715045936e-08
-2.087807622e-08
-1.146519195e-08
-6.13628872e-09
-3.205022099e-09
-1.635409922e-09
-8.179994962e-10
-4.021795364e-10
-1.948865185e-10
-9.263706526e-11
-4.228419128e-11
-1.71591932e-11
-4.371166391e-12
2.294514677e-12
5.822883132e-12
7.6823537e-12
8.595691013e-12
8.938189944e-12
8.915140455e-12
8.630685405e-12
8.136058643e-12
7.47159685e-12
6.661606113e-12
5.745114558e-12
4.775585363e-12
3.817189228e-12
2.933312769e-12
2.171882878e-12
1.556915596e-12
1.088471706e-12
7.486469455e-13
5.098776622e-13
3.449276223e-13
2.317164418e-13
1.542269712e-13
1.01376054e-13
6.55903122e-14
4.161954525e-14
2.577309604e-14
1.545837093e-14
8.860332815e-15
4.7216407e-15
2.154819707e-15
5.541822041e-16
5.31251493e-17
-0.001116785083
0.01573535228
0.001311539396
-0.001061336837
-0.0001296119292
-2.262997546e-05
-8.901431771e-06
-4.825638585e-06
-2.897728835e-06
-1.807762208e-06
-1.144712907e-06
-7.277492674e-07
-4.616774455e-07
-2.911241848e-07
-1.819784789e-07
-1.125259773e-07
-6.869667954e-08
-4.134773938e-08
-2.448605584e-08
-1.422540698e-08
-8.093635451e-09
-4.506437254e-09
-2.454970275e-09
-1.31053023e-09
-6.874532545e-10
-3.550324879e-10
-1.803479253e-10
-8.919253183e-11
-4.132185662e-11
-1.573945835e-11
-1.697470756e-12
6.11762078e-12
1.0440678e-11
1.269823933e-11
1.362497542e-11
1.35876713e-11
1.286620953e-11
1.173628486e-11
1.036009649e-11
8.834127193e-12
7.255392027e-12
5.727939043e-12
4.348546903e-12
3.185813124e-12
2.268408779e-12
1.585221282e-12
1.097077786e-12
7.561815107e-13
5.196925689e-13
3.552792857e-13
2.40523751e-13
1.604175724e-13
1.048340468e-13
6.672968567e-14
4.10528438e-14
2.410463104e-14
1.313657674e-14
6.063786435e-15
1.499748911e-15
1.363055882e-16
-0.004388026722
0.01003095742
0.0143586844
-0.002075674435
-0.0005260196097
-7.568830599e-05
-1.961853427e-05
-9.00430612e-06
-5.168101279e-06
-3.219131925e-06
-2.07486066e-06
-1.35743041e-06
-8.928585434e-07
-5.872429853e-07
-3.848856342e-07
-2.507877571e-07
-1.621708373e-07
-1.039104925e-07
-6.589681425e-08
-4.129787533e-08
-2.551869605e-08
-1.551966393e-08
-9.282656979e-09
-5.452628907e-09
-3.142410954e-09
-1.777972365e-09
-9.886991941e-10
-5.409920103e-10
-2.909144555e-10
-1.521872048e-10
-7.536176565e-11
-3.253550119e-11
-8.122762814e-12
6.08837079e-12
1.419026943e-11
1.815652283e-11
1.925354576e-11
1.849985886e-11
1.68029363e-11
1.47011195e-11
1.240493105e-11
1.008825227e-11
7.898390306e-12
5.954400788e-12
4.3393959e-12
3.085772917e-12
2.167159231e-12
1.51504894e-12
1.0575134e-12
7.368709108e-13
5.110998379e-13
3.509008008e-13
2.36800859e-13
1.558575972e-13
9.913325738e-14
6.008955478e-14
3.36864646e-14
1.582829627e-14
3.838656257e-15
3.425231927e-16
-0.006114138786
0.002486619963
0.01965586791
0.001760706719
-0.001574072468
-0.0002754926435
-4.584388112e-05
-1.608871016e-05
-8.378996013e-06
-5.085449733e-06
-3.287845843e-06
-2.189483364e-06
-1.478907009e-06
-1.004838751e-06
-6.833466192e-07
-4.636482452e-07
-3.131888961e-07
-2.102858403e-07
-1.401623971e-07
-9.265337916e-08
-6.065079193e-08
-3.925807756e-08
-2.508120644e-08
-1.580080455e-08
-9.800661518e-09
-5.977411711e-09
-3.582010613e-09
-2.108831802e-09
-1.220083778e-09
-6.944515705e-10
-3.886074606e-10
-2.116935345e-10
-1.08761516e-10
-4.786115561e-11
-1.203081674e-11
8.450365476e-12
1.918982836e-11
2.349943329e-11
2.368511173e-11
2.175957679e-11
1.907236021e-11
1.605368113e-11
1.303345992e-11
1.022804032e-11
7.76871391e-12
5.668532566e-12
4.040092592e-12
2.855016912e-12
2.014268807e-12
1.421036206e-12
1.00057843e-12
7.008056834e-13
4.855833699e-13
3.300047384e-13
2.175652486e-13
1.36920869e-13
7.95341052e-14
3.839111094e-14
9.324740803e-15
8.417023856e-16
-0.006862042696
-0.001791386843
0.01265011529
0.01243271719
-0.002237753058
-0.0008049060191
-0.0001304104758
-3.043486078e-05
-1.317976148e-05
-7.521551577e-06
-4.794516825e-06
-3.215331039e-06
-2.212354493e-06
-1.54182701e-06
-1.080261293e-06
-7.574380136e-07
-5.299526206e-07
-3.692140377e-07
-2.55936234e-07
-1.763148801e-07
-1.205732391e-07
-8.173368174e-08
-5.480672144e-08
-3.630422066e-08
-2.373248036e-08
-1.529003484e-08
-9.697281045e-09
-6.049132677e-09
-3.70872965e-09
-2.23357473e-09
-1.320547381e-09
-7.657379013e-10
-4.336692465e-10
-2.370958408e-10
-1.211660043e-10
-5.193728298e-11
-1.113121941e-11
1.172626756e-11
2.219980099e-11
2.528634203e-11
2.461375124e-11
2.220863569e-11
1.905112825e-11
1.574483048e-11
1.265849971e-11
9.903221335e-12
7.369865275e-12
5.249631107e-12
3.710993602e-12
2.629043392e-12
1.864931247e-12
1.320842406e-12
9.294666829e-13
6.455212611e-13
4.381778027e-13
2.856552315e-13
1.724365682e-13
8.629488543e-14
2.152520157e-14
2.027352319e-15
-0.007905926604
-0.003748300923
0.006667817087
0.01809878568
0.001591523196
-0.001988473227
-0.0004426268345
-7.358396554e-05
-2.193948782e-05
-1.078628494e-05
-6.5647567e-06
-4.369862638e-06
-3.037097518e-06
-2.157185394e-06
-1.54744612e-06
-1.114897052e-06
-8.037812623e-07
-5.781737458e-07
-4.14213276e-07
-2.951537219e-07
-2.089382691e-07
-1.467518292e-07
-1.021448702e-07
-7.027340341e-08
-4.77745131e-08
-3.205515494e-08
-2.12024308e-08
-1.38105988e-08
-8.851576938e-09
-5.578964903e-09
-3.456619575e-09
-2.104509303e-09
-1.257443217e-09
-7.344603831e-10
-4.15219283e-10
-2.23353635e-10
-1.096705724e-10
-4.450874115e-11
-8.555179837e-12
1.079709849e-11
1.979706879e-11
2.267358994e-11
2.227924305e-11
2.024857546e-11
1.747908007e-11
1.454384696e-11
1.183098263e-11
9.274197857e-12
6.872319407e-12
4.886775227e-12
3.431875345e-12
2.426949406e-12
1.716848117e-12
1.20552828e-12
8.317856319e-13
5.5545585e-13
3.467186135e-13
1.811326931e-13
4.760950484e-14
4.808084859e-15
-0.01283756543
-0.004981720439
0.001864961553
0.015037129
0.009528059649
-0.002107500713
-0.001228573405
-0.000237258899
-4.400149019e-05
-1.568463097e-05
-8.444271957e-06
-5.414871548e-06
-3.741697919e-06
-2.68867228e-06
-1.958150409e-06
-1.44743622e-06
-1.072316139e-06
-7.932986463e-07
-5.847086992e-07
-4.286876829e-07
-3.123051209e-07
-2.258602096e-07
-1.619710131e-07
-1.149624904e-07
-8.068048313e-08
-5.593725854e-08
-3.826905776e-08
-2.58071408e-08
-1.713931475e-08
-1.120362561e-08
-7.206917017e-09
-4.562614813e-09
-2.8435731e-09
-1.74461993e-09
-1.052561227e-09
-6.219339182e-10
-3.563550633e-10
-1.937881259e-10
-9.599149297e-11
-3.966805598e-11
-9.019073949e-12
6.26766588e-12
1.424592989e-11
1.776810604e-11
1.84105358e-11
1.733927919e-11
1.538222007e-11
1.312522443e-11
1.083109234e-11
8.52191628e-12
6.359158332e-12
4.540752905e-12
3.180891316e-12
2.21551963e-12
1.533378907e-12
1.03578353e-12
6.613016619e-13
3.614052248e-13
1.023493739e-13
1.128308513e-14
-0.01828237329
-0.005982896931
-0.001555498053
0.01019811552
0.01760135127
0.0007021511178
-0.002230075678
-0.0007034084591
-0.0001281564686
-2.71905462e-05
-1.065486653e-05
-6.014809232e-06
-3.998253042e-06
-2.862166903e-06
-2.099989304e-06
-1.578150926e-06
-1.191564247e-06
-9.002502831e-07
-6.785998665e-07
-5.093992753e-07
-3.803658883e-07
-2.822305269e-07
-2.079115127e-07
-1.51799258e-07
-1.098152701e-07
-7.861136067e-08
-5.559901763e-08
-3.879283779e-08
-2.667031011e-08
-1.805354326e-08
-1.20286652e-08
-7.89188888e-09
-5.104082869e-09
-3.258655024e-09
-2.057297456e-09
-1.285899575e-09
-7.958195548e-10
-4.862698531e-10
-2.909733032e-10
-1.677724047e-10
-9.027185013e-11
-4.229170438e-11
-1.440624739e-11
9.990967158e-13
8.937299322e-12
1.333686419e-11
1.508027203e-11
1.495393103e-11
1.367678398e-11
1.183285711e-11
9.742538573e-12
7.607602763e-12
5.658854499e-12
4.054178894e-12
2.819783469e-12
1.906074716e-12
1.226036808e-12
6.938537624e-13
2.170706657e-13
2.611024717e-14
-0.02232095546
-0.006715877564
-0.003227407506
0.005042428457
0.01540775411
0.006961496051