/*--------------------------------*- C++ -*----------------------------------*\
  =========                 |
  \\      /  F ield         | OpenFOAM: The Open Source CFD Toolbox
   \\    /   O peration     | Website:  https://openfoam.org
    \\  /    A nd           | Version:  10
     \\/     M anipulation  |
\*---------------------------------------------------------------------------*/
FoamFile
{
    format      ascii;
    class       volScalarField;
    location    "3000";
    object      RR.HOCN;
}
// * * * * * * * * * * * * * * * * * * * * * * * * * * * * * * * * * * * * * //

dimensions      [1 -3 -1 0 0 0 0];

internalField   nonuniform List<scalar> 
5170
(
0
0
0
0
0
0
0
0
0
0
0
0
0
0
0
0
0
0
0
0
0
0
0
0
0
0
0
0
0
0
0
0
0
0
0
0
0
0
0
0
0
0
0
0
0
0
0
0
0
0
0
0
0
0
0
0
0
0
0
0
0
0
0
0
0
0
0
0
0
0
0
0
0
0
0
0
0
0
0
0
0
0
0
0
0
0
0
0
0
0
0
-5.405427392e-30
-3.703241244e-28
-8.623708893e-26
-5.522573637e-24
-4.127250431e-26
-2.357037634e-24
-4.517267222e-22
-1.415205083e-19
-1.922129425e-17
1.188239098e-12
9.788524375e-13
8.674187897e-13
1.024507359e-12
1.177391977e-12
3.924405751e-13
4.851692719e-13
4.975380789e-13
4.391082948e-13
3.672871622e-13
1.460487374e-13
1.553100612e-13
1.356458758e-13
1.612681613e-13
1.10301107e-13
3.681600655e-14
7.343896031e-14
7.576718519e-14
8.116258749e-14
1.130627264e-14
-1.795346757e-14
2.01583142e-14
2.632610659e-14
2.609710459e-14
-3.219213626e-14
-4.648444294e-14
-1.622186405e-14
-8.620586185e-15
-1.575045985e-14
-5.561058708e-14
-6.047621771e-14
-3.937525784e-14
-3.331832587e-14
-4.675791943e-14
-6.801323545e-14
-6.707188485e-14
-5.499477328e-14
-5.143430721e-14
-6.558490966e-14
-7.268176989e-14
-6.908278423e-14
-6.493748831e-14
-6.424019552e-14
-7.362782903e-14
-7.184872542e-14
-6.815354619e-14
-6.982699996e-14
-7.117376929e-14
-7.567986762e-14
-6.812571827e-14
-6.540029798e-14
-7.082827536e-14
-7.314411582e-14
-7.416578215e-14
-6.316529062e-14
-6.170820044e-14
-6.920116266e-14
-7.179437071e-14
-7.049735768e-14
-5.785483516e-14
-5.766288302e-14
-6.599464091e-14
-6.857830427e-14
-6.578365158e-14
-5.281726279e-14
-5.375519246e-14
-6.213257993e-14
-6.449569816e-14
-6.083581498e-14
-4.839729674e-14
-5.018810708e-14
-5.808232118e-14
-6.017541942e-14
-5.617936711e-14
-4.474293838e-14
-5.035540444e-14
-5.536664115e-14
-5.642372779e-14
-5.22439778e-14
-4.187330741e-14
-1.741504083e-13
-1.113483181e-13
-8.526879547e-14
-6.895776878e-14
-4.853240389e-14
6.047878345e-11
1.030016611e-11
-4.233210518e-13
-1.377654804e-12
-7.179786195e-13
7.274214913e-09
2.058927613e-09
5.122141905e-10
-2.118573644e-11
-3.617982353e-11
4.441285434e-07
2.302352143e-07
6.376183098e-08
5.977623021e-09
-6.122641726e-10
-2.914229801e-22
-3.786348597e-20
-3.534124026e-17
-6.23671747e-14
-2.859287407e-10
-3.105392507e-21
-2.744975375e-19
-1.561531167e-16
-1.455342218e-13
-2.371472276e-10
-1.323801011e-20
-9.338504572e-19
-3.962190371e-16
-2.435622446e-13
-1.760796518e-10
-5.252824851e-20
-3.71882197e-18
-1.440944819e-15
-7.568142467e-13
-3.594825837e-10
-2.293013622e-19
-1.6335221e-17
-5.365651798e-15
-2.168355833e-12
-5.96546342e-10
-1.104371308e-18
-7.15293342e-17
-1.959815145e-14
-6.238567465e-12
-1.050395634e-09
-6.142505026e-18
-3.782125696e-16
-9.714336744e-14
-2.358761262e-11
-2.256001854e-09
-3.597496434e-17
-2.268122586e-15
-5.046517257e-13
-7.562452369e-11
-4.275241552e-09
-2.032102321e-16
-1.275174869e-14
-2.059528308e-12
-1.733316822e-10
-6.507919717e-09
-1.120431052e-15
-6.476392882e-14
-6.897604243e-12
-3.452850748e-10
-9.494440045e-09
-6.848231508e-15
-3.013913238e-13
-1.979763972e-11
-6.529276376e-10
-1.373617589e-08
-3.843776963e-14
-1.150254116e-12
-4.862296251e-11
-1.150767447e-09
-1.926705394e-08
-1.950357713e-13
-3.788779962e-12
-1.061391129e-10
-1.866442189e-09
-2.556625444e-08
-9.422751833e-13
-1.163721561e-11
-2.195429657e-10
-2.983558443e-09
-3.32390383e-08
-4.734957276e-12
-3.622539998e-11
-4.63157664e-10
-5.044841483e-09
-4.353720248e-08
-2.439690687e-11
-1.184905782e-10
-1.025084922e-09
-8.918349909e-09
-5.837325606e-08
-1.227603296e-10
-4.031959876e-10
-2.401404752e-09
-1.627719214e-08
-7.964530389e-08
-5.564504442e-10
-1.360136405e-09
-6.140125656e-09
-2.943029993e-08
-1.071815349e-07
-2.448105968e-09
-4.826467488e-09
-1.525523019e-08
-5.015666443e-08
-1.404231468e-07
-9.126965021e-09
-1.452295121e-08
-3.254697808e-08
-7.814417812e-08
-1.785871433e-07
-2.409674193e-08
-3.279896279e-08
-5.755878856e-08
-1.118460749e-07
-2.231820499e-07
-4.62441945e-08
-5.786022892e-08
-8.814970098e-08
-1.5143672e-07
-2.703784804e-07
-7.359161845e-08
-8.770621866e-08
-1.246686255e-07
-1.974479601e-07
-3.253161533e-07
-1.077030319e-07
-1.254473429e-07
-1.71142752e-07
-2.527614377e-07
-4.083740106e-07
-1.550480856e-07
-1.78411767e-07
-2.295486453e-07
-3.360028933e-07
-5.149419913e-07
-2.273156132e-07
-2.587904611e-07
-3.384217174e-07
-4.572472384e-07
-6.834428711e-07
-3.455014775e-07
-3.890006775e-07
-4.930890003e-07
-6.705344005e-07
-9.778076426e-07
-5.434923779e-07
-6.051539644e-07
-7.571665037e-07
-9.837968827e-07
-1.405328703e-06
-8.524649198e-07
-9.313534133e-07
-1.178860138e-06
-1.564866064e-06
-2.16305344e-06
-1.393321088e-06
-1.547812373e-06
-1.824844541e-06
-2.319151884e-06
-3.133557343e-06
-2.275993306e-06
-2.427204465e-06
-2.837044346e-06
-3.514303106e-06
-4.351466284e-06
-3.574100311e-06
-3.820677351e-06
-4.25751714e-06
-4.867555023e-06
-5.944301942e-06
-5.059026267e-06
-5.252209984e-06
-6.130251684e-06
-6.025576148e-06
-6.896034312e-06
-4.939913305e-06
-5.024037024e-06
-5.341146883e-06
-5.694593721e-06
-6.005906385e-06
-3.440907263e-06
-3.390036879e-06
-3.377082359e-06
-3.33382474e-06
-3.132226739e-06
-6.27686611e-07
-5.823562753e-07
-4.562627206e-07
-1.701262756e-07
3.898484138e-07
1.891548964e-06
2.032538684e-06
2.394906424e-06
3.084490166e-06
4.317260288e-06
4.924899037e-06
5.254746918e-06
6.064936682e-06
7.511832704e-06
9.91900412e-06
9.886548439e-06
1.054204903e-05
1.2103045e-05
1.479627731e-05
1.906874702e-05
1.869663083e-05
1.981381261e-05
2.235714014e-05
2.63839064e-05
3.170562603e-05
2.476940917e-05
2.483241294e-05
2.436849568e-05
2.197958601e-05
1.573342241e-05
-6.881768192e-06
-8.194014508e-06
-1.088366649e-05
-1.438196535e-05
-1.792211916e-05
-1.624370793e-05
-1.630725443e-05
-1.63720653e-05
-1.630449801e-05
-1.597251728e-05
-9.638405569e-06
-9.537298601e-06
-9.309415509e-06
-8.954789887e-06
-8.474731656e-06
-4.548518509e-06
-4.491995511e-06
-4.346258755e-06
-4.165061893e-06
-3.940184109e-06
-2.01998056e-06
-1.996478459e-06
-1.945545627e-06
-1.869785435e-06
-1.774390316e-06
-8.933825307e-07
-8.841633799e-07
-8.642626333e-07
-8.350375899e-07
-7.977238047e-07
-3.989384332e-07
-3.954088872e-07
-3.877731168e-07
-3.765319577e-07
-3.621166234e-07
-1.81129804e-07
-1.800112783e-07
-1.78244803e-07
-1.758585021e-07
-1.706954763e-07
-8.786861534e-08
-8.742902797e-08
-8.632455048e-08
-8.507522752e-08
-8.299584682e-08
-3.765991304e-08
-4.054475901e-08
-3.558727941e-08
-3.708939376e-08
-6.218595275e-08
-3.308503112e-08
-3.308772446e-08
-3.310749918e-08
-3.317594958e-08
-2.612647189e-08
-1.931001625e-08
-1.937039746e-08
-1.950372327e-08
-1.970703015e-08
-1.997746032e-08
-1.515476587e-08
-1.526150711e-08
-1.549633162e-08
-1.585245421e-08
-1.632715088e-08
-1.51413658e-08
-1.524845572e-08
-1.548045984e-08
-1.582332512e-08
-1.626315649e-08
-1.556820321e-08
-1.562353575e-08
-1.573885754e-08
-1.589679164e-08
-1.607509082e-08
-1.429843531e-08
-1.427074843e-08
-1.42032213e-08
-1.408263148e-08
-1.388738895e-08
-1.059949092e-08
-1.049193092e-08
-1.02511927e-08
-9.873804352e-09
-9.347134439e-09
-4.96371531e-09
-4.8089509e-09
-4.467892883e-09
-3.947219306e-09
-3.245787736e-09
1.343007333e-09
1.503079492e-09
1.853071713e-09
2.380075856e-09
3.076685674e-09
6.974431382e-09
7.108237723e-09
7.399182636e-09
7.833025111e-09
8.398688502e-09
1.105488142e-08
1.114834843e-08
1.135053036e-08
1.164926554e-08
1.203369023e-08
1.332151768e-08
1.337494688e-08
1.348968353e-08
1.365705768e-08
1.386842468e-08
1.397215977e-08
1.39935352e-08
1.40385754e-08
1.410206464e-08
1.417808167e-08
1.342295887e-08
1.342240214e-08
1.341993444e-08
1.341308471e-08
1.339828765e-08
1.212266723e-08
1.210925195e-08
1.207905728e-08
1.203148051e-08
1.196471978e-08
1.045428414e-08
1.043488018e-08
1.0391888e-08
1.032581449e-08
1.023601693e-08
8.693215928e-09
8.672373574e-09
8.626446483e-09
8.556490247e-09
8.462542478e-09
7.047303525e-09
7.027688378e-09
6.98458591e-09
6.919230387e-09
6.831997711e-09
5.727682318e-09
5.710291964e-09
5.67213309e-09
5.614413737e-09
5.537630879e-09
-4.262638521e-08
-2.104213662e-08
-1.001220263e-08
-2.007119183e-08
-2.376311132e-08
-2.887393385e-08
-4.094512253e-08
-5.530939323e-08
-6.314300798e-08
-7.099941032e-08
-8.269504249e-08
-9.694494083e-08
-1.081018789e-07
-1.195400616e-07
-1.351457381e-07
-1.584479678e-07
-1.901273196e-07
-2.264524893e-07
-2.667586528e-07
-3.125362994e-07
-3.550031978e-07
-4.109906195e-07
-4.916735142e-07
-5.825777663e-07
-7.296493251e-07
-9.511062996e-07
-1.335169623e-06
-1.881768849e-06
-2.674498167e-06
-3.892115864e-06
-5.297426188e-06
-6.912787391e-06
-7.584632993e-06
-6.173911046e-06
-2.895433137e-06
1.014212859e-06
5.634665096e-06
1.238605534e-05
2.327909544e-05
3.559792229e-05
8.795709984e-06
-1.996423146e-05
-1.558081804e-05
-8.094725465e-06
-3.763659524e-06
-1.700597865e-06
-7.689585614e-07
-3.509221909e-07
-1.666614415e-07
-8.153046496e-08
-3.674196331e-08
-2.61933001e-08
-2.019599474e-08
-1.671927191e-08
-1.661037799e-08
-1.619271174e-08
-1.369431594e-08
-8.890306071e-09
-2.659566982e-09
3.64671575e-09
8.85439573e-09
1.233877155e-08
1.403259946e-08
1.42334447e-08
1.338143553e-08
1.190709915e-08
1.016082664e-08
8.38480801e-09
6.76027051e-09
5.474717543e-09
-6.913305085e-07
3.366249627e-06
-1.366655959e-07
1.654144046e-07
3.215924097e-09
-2.168875129e-07
-9.161072375e-07
-1.104731082e-07
-6.193160204e-08
-1.788100326e-09
-1.712494122e-07
-3.093376542e-06
2.387637337e-05
-2.978246129e-06
-1.772471163e-08
-4.308372766e-07
-9.231422785e-06
5.386725441e-05
-2.033895953e-05
-4.702939384e-08
-3.842017466e-07
-5.340747892e-06
-1.148443864e-05
-1.034994693e-05
-9.063229914e-07
-3.576492485e-07
-3.389039095e-06
-6.450981098e-06
-2.355914568e-06
-1.767225823e-06
-3.881783522e-07
-2.829262843e-06
-1.236200845e-05
3.073962457e-05
-9.748135867e-06
-4.210080154e-07
-3.294389141e-06
-3.283804783e-05
0.0001542316074
-4.050805554e-05
-3.861298046e-07
-2.526843488e-06
-1.774919377e-05
1.619815095e-05
-2.273994174e-05
-3.616428139e-07
-1.974065923e-06
-1.004194535e-05
2.564517372e-06
-5.31059885e-06
-3.625798436e-07
-1.730669049e-06
-7.666149596e-06
-9.366988669e-06
3.585106919e-05
-3.779093335e-07
-1.758597315e-06
-9.008238882e-06
-3.980775995e-05
0.0001739851789
-3.750832608e-07
-1.605795867e-06
-7.41538366e-06
-2.809856357e-05
6.874009222e-05
-3.721564061e-07
-1.430508759e-06
-5.689845032e-06
-1.706067881e-05
2.468183369e-05
-3.799458247e-07
-1.319971557e-06
-4.623600356e-06
-1.214978307e-05
1.029437254e-05
-4.001882777e-07
-1.294912134e-06
-4.259379378e-06
-1.207439247e-05
-7.766445595e-06
-4.364627879e-07
-1.355182904e-06
-4.577343355e-06
-1.57386983e-05
-3.413611266e-05
-4.778461161e-07
-1.432612129e-06
-4.840242976e-06
-1.662393147e-05
-3.841613532e-05
-5.021829112e-07
-1.494767502e-06
-4.789832694e-06
-1.481609864e-05
-2.967100839e-05
-5.553161193e-07
-1.557514203e-06
-4.620811366e-06
-1.265828841e-05
-2.150895387e-05
-6.192164475e-07
-1.638739906e-06
-4.484478091e-06
-1.105186647e-05
-1.674290155e-05
-6.883387426e-07
-1.754820017e-06
-4.474243362e-06
-1.031019087e-05
-1.551133121e-05
-7.927826892e-07
-1.930490668e-06
-4.696342198e-06
-1.062566713e-05
-1.742940776e-05
-9.426408744e-07
-2.205722258e-06
-5.22084715e-06
-1.183866248e-05
-2.084388744e-05
-1.157972079e-06
-2.611216008e-06
-6.013197006e-06
-1.337975157e-05
-2.320664066e-05
-1.473868313e-06
-3.325146477e-06
-7.066801818e-06
-1.494102254e-05
-2.372816079e-05
-2.00984951e-06
-4.13855743e-06
-8.445021664e-06
-1.646154657e-05
-2.264158156e-05
-2.764635118e-06
-5.195449623e-06
-1.016706679e-05
-1.767212255e-05
-1.99573003e-05
-3.823443466e-06
-6.758146145e-06
-1.204193236e-05
-1.7862728e-05
-1.54459669e-05
-5.593793348e-06
-8.599232052e-06
-1.344406295e-05
-1.608053052e-05
-8.942000707e-06
-6.828341523e-06
-1.020740119e-05
-1.327535797e-05
-1.187670018e-05
-2.425107176e-07
-8.256443189e-06
-1.048130613e-05
-1.067213589e-05
-5.705411994e-06
1.082325657e-05
-8.200677422e-06
-8.440650046e-06
-6.033485699e-06
1.953011345e-06
2.442707396e-05
-5.877240887e-06
-4.468406731e-06
-1.081455242e-07
1.141394883e-05
4.135044455e-05
-2.031890567e-06
6.959925089e-07
7.545819138e-06
2.424231454e-05
6.320225034e-05
2.526608408e-06
7.261451572e-06
1.810463537e-05
4.225295786e-05
8.353396641e-05
8.308566534e-06
1.632240722e-05
3.301604893e-05
6.335202782e-05
6.299478942e-05
1.694838273e-05
2.98732048e-05
5.1869616e-05
5.962413242e-05
-1.619577277e-06
3.033554298e-05
4.573785377e-05
4.633463462e-05
3.052809864e-07
-3.060143546e-05
3.79801143e-05
2.503235255e-05
-9.234382361e-06
-2.870155815e-05
-2.922724513e-05
-2.985620402e-06
-1.976695479e-05
-2.673814398e-05
-2.516058665e-05
-2.004292097e-05
-2.158569277e-05
-2.17623409e-05
-1.928739575e-05
-1.55894075e-05
-1.187972885e-05
-1.469405435e-05
-1.284628081e-05
-1.064551387e-05
-8.445054649e-06
-6.47901238e-06
-7.478080814e-06
-6.420559966e-06
-5.325897414e-06
-4.284420019e-06
-3.365841931e-06
-3.495768817e-06
-3.029328607e-06
-2.557367506e-06
-2.106947616e-06
-1.701104619e-06
-1.59511219e-06
-1.403276282e-06
-1.208805768e-06
-1.02016084e-06
-8.470306765e-07
-7.257000783e-07
-6.501145663e-07
-5.721314318e-07
-4.940011703e-07
-4.213846505e-07
-3.340534668e-07
-3.040812302e-07
-2.755356215e-07
-2.468600531e-07
-2.173396318e-07
-1.60528309e-07
-1.496502037e-07
-1.373252486e-07
-1.250581728e-07
-1.192568742e-07
-7.92188932e-08
-7.571826012e-08
-7.430857815e-08
-7.251927844e-08
-6.436689249e-08
-4.409359984e-08
-3.658136231e-08
-4.139865708e-08
-3.838208749e-08
-4.189349369e-08
-2.447850503e-08
-2.553323576e-08
-3.123511182e-08
-3.068919118e-08
-3.058934438e-08
-2.05182079e-08
-2.117605586e-08
-2.203965055e-08
-2.316150288e-08
-2.447966782e-08
-1.72940241e-08
-1.841790988e-08
-1.969436759e-08
-2.100315944e-08
-2.213849066e-08
-1.709473949e-08
-1.793952269e-08
-1.870872071e-08
-1.920695032e-08
-1.91878776e-08
-1.632180309e-08
-1.639522738e-08
-1.615631952e-08
-1.542044297e-08
-1.400183449e-08
-1.336631407e-08
-1.253858329e-08
-1.126355661e-08
-9.432830794e-09
-6.9712747e-09
-8.188262848e-09
-6.686182916e-09
-4.734084496e-09
-2.314995581e-09
5.448608724e-10
-1.785151189e-09
-2.720147591e-11
2.090132258e-09
4.51584447e-09
7.164018336e-09
4.483172317e-09
6.101070665e-09
7.954280923e-09
9.960823813e-09
1.201749293e-08
9.51484742e-09
1.075382964e-08
1.211414918e-08
1.351210324e-08
1.485452419e-08
1.277496675e-08
1.356740287e-08
1.439567131e-08
1.519077861e-08
1.588147331e-08
1.426189378e-08
1.465714254e-08
1.503314598e-08
1.534059217e-08
1.553141481e-08
1.430439131e-08
1.440304847e-08
1.445218199e-08
1.442062877e-08
1.427974901e-08
1.334820291e-08
1.325609435e-08
1.310178431e-08
1.286813726e-08
1.254065412e-08
1.18158058e-08
1.162059035e-08
1.136166998e-08
1.103152841e-08
1.062493298e-08
1.00452847e-08
9.810105173e-09
9.516109664e-09
9.161709434e-09
8.747120404e-09
8.266797172e-09
8.031616846e-09
7.745522459e-09
7.410167854e-09
7.028561037e-09
6.652048071e-09
6.438898794e-09
6.183548486e-09
5.889082326e-09
5.559567938e-09
5.380112024e-09
5.195022319e-09
4.975225066e-09
4.724167811e-09
4.446024476e-09
-1.879860949e-13
-6.186161702e-18
-2.024105342e-20
-2.618468549e-22
-9.727889717e-24
-4.520093886e-25
-3.735400579e-27
4.757438066e-27
1.470543775e-27
4.429189243e-28
1.604459586e-28
6.79263065e-29
3.0459553e-29
1.420550426e-29
6.569777646e-30
2.962224854e-30
1.332204965e-30
5.962347045e-31
2.648286708e-31
1.21403801e-31
5.03359006e-32
2.257281784e-32
8.758599392e-33
3.748744725e-33
1.872874004e-33
6.240201276e-34
3.119735916e-34
1.559873991e-34
0
0
0
0
0
0
0
0
0
0
0
0
0
0
0
0
0
0
0
0
0
0
0
0
0
0
0
0
0
0
0
0
-2.225441193e-12
-1.371466831e-16
-3.40956018e-19
-5.092043991e-21
-2.117317038e-22
-1.092207283e-23
1.989777369e-26
2.396537023e-25
1.019433772e-25
4.133644931e-26
1.710400641e-26
7.133702916e-27
2.960187712e-27
1.218617914e-27
4.984330552e-28
2.036167929e-28
8.349467324e-29
3.39829191e-29
1.39007034e-29
5.722036492e-30
2.335422411e-30
9.617282151e-31
3.928147914e-31
1.589386662e-31
6.627553877e-32
2.79293204e-32
1.139417155e-32
5.05431251e-33
1.892746987e-33
6.302721088e-34
3.148892037e-34
0
0
0
0
0
0
0
0
0
0
0
0
0
0
0
0
0
0
0
0
0
0
0
0
0
0
0
0
0
-3.729141935e-11
-1.713198273e-15
-2.133499144e-18
-4.723049653e-20
-3.502187559e-21
-4.006213666e-22
-5.088866194e-23
-6.40265614e-24
-5.8646121e-26
5.863889439e-25
4.077825105e-25
2.110812119e-25
9.581091389e-26
4.033114726e-26
1.612131008e-26
6.244718567e-27
2.374022881e-27
8.94618415e-28
3.394867883e-28
1.29179959e-28
4.997631077e-29
1.952835122e-29
7.72645664e-30
3.109640978e-30
1.246670487e-30
5.088178567e-31
2.046124926e-31
8.331171123e-32
3.36585589e-32
1.290053703e-32
5.149471223e-33
2.571423568e-33
1.284588744e-33
0
0
0
0
0
0
0
0
0
0
0
0
0
0
0
0
0
0
0
0
0
0
0
0
0
0
0
-7.335401059e-09
-5.34823113e-13
-8.208529518e-17
-6.417577329e-19
-5.652529694e-20
-1.039894206e-20
-2.402918745e-21
-6.190602911e-22
-1.615348364e-22
-3.885531006e-23
-7.066826266e-24
-1.038561513e-25
7.83590084e-25
5.381315083e-25
2.671631494e-25
1.154881093e-25
4.61380048e-26
1.757252178e-26
6.517510169e-27
2.392029189e-27
8.790321284e-28
3.265278588e-28
1.231176457e-28
4.724278031e-29
1.84005257e-29
7.312168891e-30
2.915966237e-30
1.171262086e-30
4.671121603e-31
1.930178253e-31
7.434757983e-32
3.164935716e-32
1.050345925e-32
5.237706261e-33
2.614772402e-33
1.306072656e-33
0
0
0
0
0
0
0
0
0
0
0
0
0
0
0
0
0
0
0
0
0
0
0
0
-6.406468345e-08
-2.4211879e-11
-3.400454556e-15
-9.352587418e-18
-7.161309848e-19
-1.679835049e-19
-4.971861667e-20
-1.554868851e-20
-4.950944555e-21
-1.558936975e-21
-4.691604695e-22
-1.299202942e-22
-3.072980883e-23
-4.930686834e-24
4.029057948e-25
8.570146181e-25
5.224559033e-25
2.472591594e-25
1.038247349e-25
4.079281944e-26
1.540648541e-26
5.709555833e-27
2.106731982e-27
7.791485434e-28
2.924544516e-28
1.110916362e-28
4.287459385e-29
1.678392692e-29
6.576653433e-30
2.592627209e-30
1.012852163e-30
3.966938324e-31
1.627662283e-31
6.440311413e-32
2.66357918e-32
1.060127242e-32
2.641220993e-33
2.634489932e-33
0
0
0
0
0
0
0
0
0
0
0
0
0
0
0
0
0
0
0
0
0
0
-1.340540289e-07
-9.531613646e-10
-3.526305661e-13
-2.765390728e-16
-9.722345802e-18
-1.904239621e-18
-5.689103433e-19
-1.888683587e-19
-6.57580576e-20
-2.336253054e-20
-8.277617693e-21
-2.865240977e-21
-9.488458833e-22
-2.935673857e-22
-8.151093714e-23
-1.858280995e-23
-2.35122898e-24
7.47977182e-25
8.071774398e-25
4.580291521e-25
2.130782518e-25
8.976607975e-26
3.565965394e-26
1.372267256e-26
5.177263821e-27
1.941085736e-27
7.285692107e-28
2.73832296e-28
1.033599154e-28
3.911858758e-29
1.494255767e-29
5.70665369e-30
2.170237584e-30
8.454310257e-31
3.348130877e-31
1.317961587e-31
5.432700493e-32
2.157486826e-32
1.073434486e-32
5.347951904e-33
0
0
0
0
0
0
0
0
0
0
0
0
0
0
0
0
0
0
0
0
-5.07404848e-07
-2.934837639e-08
-4.155882615e-11
-2.305114598e-14
-1.319370214e-16
-1.314744442e-17
-3.380173952e-18
-1.127562845e-18
-4.144149952e-19
-1.595758275e-19
-6.273914108e-20
-2.474337129e-20
-9.646975908e-21
-3.6692438e-21
-1.342898215e-21
-4.6491437e-22
-1.483267535e-22
-4.15185051e-23
-8.914197737e-24
-5.399644263e-25
8.681459716e-25
7.002288044e-25
3.827965134e-25
1.790800085e-25
7.68549993e-26
3.126484268e-26
1.227016755e-26
4.697978524e-27
1.766030764e-27
6.559692602e-28
2.412607591e-28
8.854553859e-29
3.254113679e-29
1.203497344e-29
4.571626662e-30
1.730370615e-30
6.990648972e-31
2.967061771e-31
1.125581761e-31
4.459403616e-32
1.106750672e-32
5.50062943e-33
0
0
0
0
0
0
0
0
0
0
0
0
0
0
0
0
0
0
-2.189654078e-06
-3.412658528e-07
-2.835621927e-09
-2.91457288e-12
-3.94605082e-15
-9.753528226e-17
-1.474808637e-17
-4.296632193e-18
-1.556680591e-18
-6.18413214e-19
-2.570199402e-19
-1.092102315e-19
-4.672363349e-20
-1.990047401e-20
-8.358210998e-21
-3.430257119e-21
-1.361979684e-21
-5.167778086e-22
-1.838635344e-22
-5.930793277e-23
-1.608004577e-23
-2.764808923e-24
4.825179821e-25
8.152138338e-25
5.460606595e-25
2.886496576e-25
1.351087268e-25
5.857735684e-26
2.401270564e-26
9.443168661e-27
3.581665759e-27
1.322675044e-27
4.786415428e-28
1.716876465e-28
6.174843652e-29
2.276921759e-29
8.610929669e-30
3.306482842e-30
1.295849434e-30
5.105515487e-31
1.909408602e-31
7.053343796e-32
2.320830754e-32
0
0
0
0
0
0
0
0
0
0
0
0
0
0
0
0
0
-3.386151005e-06
-3.166527041e-07
-3.131819564e-08
-1.539566372e-10
-1.938010995e-13
-1.01465745e-15
-6.439003521e-17
-1.346523085e-17
-4.430825789e-18
-1.737872905e-18
-7.397570474e-19
-3.285243165e-19
-1.492492315e-19
-6.843905475e-20
-3.137005752e-20
-1.426029568e-20
-6.383866591e-21
-2.794654795e-21
-1.186933979e-21
-4.840769746e-22
-1.866959781e-22
-6.6388915e-23
-2.066678814e-23
-4.822796517e-24
-1.58830306e-25
7.523161025e-25
6.408583167e-25
3.83156616e-25
1.950224317e-25
8.981646929e-26
3.841639306e-26
1.549602337e-26
5.960180005e-27
2.206909918e-27
7.959003109e-28
2.841019696e-28
1.01697555e-28
3.725392224e-29
1.383166262e-29
4.928953689e-30
1.814438112e-30
5.8539095e-31
1.812232576e-31
5.054384398e-32
1.235922485e-32
0
0
0
0
0
0
0
0
0
0
0
0
0
0
0
-4.437170939e-06
-3.559035228e-07
-1.227367771e-07
-2.300170654e-09
-8.346633243e-12
-1.856728719e-14
-3.573933849e-16
-4.259301207e-17
-1.13593981e-17
-4.161330574e-18
-1.753924986e-18
-7.948677639e-19
-3.749736074e-19
-1.809714092e-19
-8.825725638e-20
-4.310493054e-20
-2.093676869e-20
-1.00537255e-20
-4.746631809e-21
-2.190637816e-21
-9.810934867e-22
-4.229290712e-22
-1.731184737e-22
-6.583974031e-23
-2.230454317e-23
-6.024837126e-24
-7.086059416e-25
5.987501179e-25
6.495079035e-25
4.30912521e-25
2.354342079e-25
1.140608476e-25
5.057667862e-26
2.091546814e-26
8.179591662e-27
3.061138527e-27
1.106908431e-27
3.920904014e-28
1.372780009e-28
4.743414231e-29
1.613552323e-29
5.223080272e-30
1.61433167e-30
4.766764968e-31
1.151919704e-31
2.767624383e-32
0
0
0
0
0
0
0
0
0
0
0
0
0
0
-1.257181828e-05
-1.297118105e-06
-2.81051522e-07
-1.745741578e-08
-1.926309753e-10
-6.051362735e-13
-3.304449865e-15
-1.61600192e-16
-2.949946805e-17
-9.396335458e-18
-3.773547574e-18
-1.700286754e-18
-8.172453403e-19
-4.076400677e-19
-2.077291196e-19
-1.069147058e-19
-5.512559379e-20
-2.828691161e-20
-1.438935104e-20
-7.2215464e-21
-3.556969604e-21
-1.709701287e-21
-7.964556338e-22
-3.563994875e-22
-1.512690632e-22
-5.96767826e-23
-2.106083039e-23
-6.04458646e-24
-8.937455393e-25
4.80809649e-25
6.032518947e-25
4.222152231e-25
2.401420603e-25
1.203454842e-25
5.485868497e-26
2.320956265e-26
9.205960353e-27
3.451800466e-27
1.228935384e-27
4.184989308e-28
1.367912794e-28
4.292341453e-29
1.273180429e-29
3.611255903e-30
8.578660483e-31
2.062592743e-31
3.259194282e-32
0
0
0
0
0
0
0
0
0
0
0
0
0
-3.951201637e-05
-4.92830016e-06
-3.924612021e-07
-1.0926361e-07
-2.890131204e-09
-2.38393259e-11
-9.110248668e-14
-1.123808487e-15
-9.274789693e-17
-2.142703889e-17
-7.653600286e-18
-3.313424199e-18
-1.586979051e-18
-8.050109766e-19
-4.215854712e-19
-2.252431924e-19
-1.215768898e-19
-6.575442917e-20
-3.542570237e-20
-1.89243407e-20
-9.975422756e-21
-5.164058268e-21
-2.612596204e-21
-1.284534622e-21
-6.096095928e-22
-2.767895735e-22
-1.186950792e-22
-4.708294531e-23
-1.659911154e-23
-4.67868623e-24
-6.022529567e-25
4.627015002e-25
5.325128221e-25
3.677431027e-25
2.087024936e-25
1.051953584e-25
4.836555105e-26
2.057289227e-26
8.112448424e-27
2.973104048e-27
1.012821844e-27
3.219295155e-28
9.627308357e-29
2.671372661e-29
6.637195648e-30
1.369730606e-30
1.624472465e-31
-7.732146397e-32
-3.60602447e-32
-3.315747155e-32
-1.535837165e-32
0
0
0
0
0
0
0
0
0
-2.95836272e-05
-6.141022237e-06
-4.305773919e-07
-2.579863648e-07
-1.462774352e-08
-3.436659122e-10
-3.046268093e-12
-1.852453379e-14
-4.658136173e-16
-5.443363766e-17
-1.469098002e-17
-5.708543609e-18
-2.621437554e-18
-1.325889688e-18
-6.999730063e-19
-3.86061102e-19
-2.164725538e-19
-1.221788653e-19
-6.891926629e-20
-3.86506505e-20
-2.145487642e-20
-1.174124339e-20
-6.309130167e-21
-3.314376854e-21
-1.693721922e-21
-8.370080523e-22
-3.970688402e-22
-1.790513163e-22
-7.563144491e-23
-2.918298338e-23
-9.749287964e-24
-2.393031291e-24
-2.753192238e-26
4.874233475e-25
4.360695638e-25
2.799874706e-25
1.53666805e-25
7.577828814e-26
3.419750891e-26
1.420416449e-26
5.419699117e-27
1.896271826e-27
6.059259506e-28
1.745019304e-28
4.495805014e-29
9.824754204e-30
1.415055609e-30
-1.87403923e-31
-2.655492643e-31
-1.671211977e-31
-7.785866532e-32
-3.585399817e-32
-1.664261232e-32
0
0
0
0
0
0
0
-1.368156304e-05
-6.363733456e-06
-8.807471878e-07
-2.747250541e-07
-5.000529824e-08
-2.077808095e-09
-4.622940558e-11
-5.253479357e-13
-5.396669605e-15
-2.085207969e-16
-2.888995812e-17
-8.32751774e-18
-3.413380408e-18
-1.666407188e-18
-8.733723678e-19
-4.889983885e-19
-2.805206987e-19
-1.630218894e-19
-9.514838173e-20
-5.542946482e-20
-3.207911658e-20
-1.83732434e-20
-1.037861523e-20
-5.761823687e-21
-3.131055986e-21
-1.657288313e-21
-8.49203761e-22
-4.180713824e-22
-1.95905888e-22
-8.629855255e-23
-3.501831418e-23
-1.257404366e-23
-3.601554147e-24
-4.694290063e-25
3.701484953e-25
4.34360078e-25
3.074901466e-25
1.799198253e-25
9.357974216e-26
4.424111812e-26
1.917777935e-26
7.591328414e-27
2.728107608e-27
8.773052188e-28
2.47121331e-28
5.865920919e-29
9.627300566e-30
-4.715519687e-31
-1.279700011e-30
-7.894719939e-31
-3.703096435e-31
-1.738688979e-31
-8.139030294e-32
-1.910427036e-32
0
0
0
0
0
0
9.212890025e-06
-9.401925819e-06
-1.756518809e-06
-2.351147703e-07
-1.180705171e-07
-8.320169919e-09
-3.483855979e-10
-8.891053729e-12
-1.429001801e-13
-2.15596291e-15
-9.428417039e-17
-1.264920151e-17
-3.551073326e-18
-1.48920266e-18
-7.443799132e-19
-4.076547709e-19
-2.346349638e-19
-1.387560496e-19
-8.31743525e-20
-5.009700628e-20
-3.013560798e-20
-1.80216137e-20
-1.067291805e-20
-6.237467986e-21
-3.584151612e-21
-2.016758997e-21
-1.105970083e-21
-5.875248274e-22
-2.999387741e-22
-1.456718516e-22
-6.646553897e-23
-2.79131103e-23
-1.035470749e-23
-3.059092013e-24
-4.165957503e-25
3.249933423e-25
3.949977276e-25
2.879254923e-25
1.737360131e-25
9.306100741e-26
4.538909294e-26
2.025227041e-26
8.234658707e-27
2.993284572e-27
9.555691655e-28
2.539459043e-28
4.778882054e-29
0
-5.462378763e-30
-3.857367974e-30
-1.967594761e-30
-8.138576898e-31
-2.878156336e-31
-1.361181764e-31
-4.313251183e-32
-2.079610291e-32
0
0
0
0
6.837178459e-05
-2.126097172e-05
-4.298709801e-06
-4.000826231e-07
-2.201943304e-07
-3.157569566e-08
-1.858451064e-09
-7.799977382e-11
-2.544330792e-12
-5.893668737e-14
-1.113619942e-15
-4.098722395e-17
-4.388923622e-18
-1.11412519e-18
-4.487050032e-19
-2.248347718e-19
-1.253101321e-19
-7.392261788e-20
-4.499925148e-20
-2.785344887e-20
-1.736725943e-20
-1.083746221e-20
-6.734311302e-21
-4.149240082e-21
-2.524499492e-21
-1.510222294e-21
-8.840106116e-22
-5.034460146e-22
-2.769839832e-22
-1.459513164e-22
-7.286905539e-23
-3.397877352e-23
-1.443390436e-23
-5.29653106e-24
-1.422105537e-24
-1.831914762e-26
3.437344193e-25
3.342087888e-25
2.340107888e-25
1.405196911e-25
7.587704778e-26
3.749341914e-26
1.690058095e-26
6.869669436e-27
2.464758551e-27
7.310428907e-28
1.517931362e-28
-1.796969196e-30
-2.261481229e-29
-1.591145017e-29
-8.272608494e-30
-3.454091885e-30
-1.360745653e-30
-5.30803437e-31
-2.01163984e-31
-9.655991581e-32
-2.371173402e-32
-1.219303183e-32
0
0
0.0001721623696
-4.427871811e-05
-1.003652321e-05
-1.134979928e-06
-2.820676645e-07
-1.032257733e-07
-8.104293948e-09
-4.929201781e-10
-2.339764137e-11
-9.5656445e-13
-2.7260531e-14
-5.49008013e-16
-1.450994685e-17
-1.189524243e-18
-2.708700241e-19
-1.048492444e-19
-5.181953197e-20
-2.897449275e-20
-1.733029991e-20
-1.076847266e-20
-6.835785922e-21
-4.387048452e-21
-2.825938301e-21
-1.816850829e-21
-1.160179502e-21
-7.323098055e-22
-4.545441204e-22
-2.758203325e-22
-1.624892475e-22
-9.216978782e-23
-4.980587102e-23
-2.526692346e-23
-1.176034532e-23
-4.804921417e-24
-1.52781553e-24
-1.767126593e-25
2.595887233e-25
3.172585683e-25
2.497781109e-25
1.644002028e-25
9.631525538e-26
5.133989156e-26
2.507951329e-26
1.108448954e-26
4.284540886e-27
1.358702011e-27
2.686217135e-28
-4.423635838e-29
-8.479813607e-29
-5.788830206e-29
-2.970588227e-29
-1.346543534e-29
-5.699353743e-30
-2.226531602e-30
-9.232023237e-31
-3.295884907e-31
-1.071988095e-31
-2.72764264e-32
-1.533574828e-32
0
0.0001372892075
-4.800780745e-05
-1.375685116e-05
-2.416841543e-06
-2.003534521e-07
-2.197653058e-07
-3.023428061e-08
-2.278420498e-09
-1.422343602e-10
-7.705880331e-12
-3.563529786e-13
-9.916763278e-15
-1.674763963e-16
-3.611405231e-18
-2.773503762e-19
-6.109970018e-20
-2.299347585e-20
-1.114181202e-20
-6.147378598e-21
-3.645773574e-21
-2.259028805e-21
-1.437959989e-21
-9.297226824e-22
-6.057491182e-22
-3.952535637e-22
-2.567680443e-22
-1.650898957e-22
-1.043963735e-22
-6.447034926e-23
-3.853399505e-23
-2.203874261e-23
-1.186145784e-23
-5.848311826e-24
-2.502160336e-24
-7.924102e-25
-2.567568031e-26
2.434246096e-25
2.798645346e-25
2.276733439e-25
1.5776988e-25
9.804600979e-26
5.546899891e-26
2.859446772e-26
1.325088207e-26
5.302697148e-27
1.627064379e-27
1.832551367e-28
-2.374647123e-28
-2.539185232e-28
-1.712032738e-28
-9.245145574e-29
-4.365327251e-29
-1.868153341e-29
-7.72695296e-30
-3.132515777e-30
-1.223352524e-30
-4.72883955e-31
-1.793258637e-31
-3.330052813e-32
0
7.890596673e-05
-3.496032282e-05
-1.408383336e-05
-3.421358126e-06
-2.975298795e-07
-2.586158575e-07
-7.538587995e-08
-7.612807989e-09
-6.320560786e-10
-4.219062795e-11
-2.410786725e-12
-1.075168797e-13
-2.298421401e-15
-2.912089099e-17
-6.947398925e-19
-6.447477397e-20
-1.509528182e-20
-5.597784002e-21
-2.610636428e-21
-1.381317824e-21
-7.888642974e-22
-4.732688096e-22
-2.932947901e-22
-1.855767089e-22
-1.187879834e-22
-7.626616827e-23
-4.881138019e-23
-3.089590155e-23
-1.917868495e-23
-1.155050613e-23