/*--------------------------------*- C++ -*----------------------------------*\
  =========                 |
  \\      /  F ield         | OpenFOAM: The Open Source CFD Toolbox
   \\    /   O peration     | Website:  https://openfoam.org
    \\  /    A nd           | Version:  10
     \\/     M anipulation  |
\*---------------------------------------------------------------------------*/
FoamFile
{
    format      ascii;
    class       volScalarField;
    location    "3000";
    object      RR.HNCO;
}
// * * * * * * * * * * * * * * * * * * * * * * * * * * * * * * * * * * * * * //

dimensions      [1 -3 -1 0 0 0 0];

internalField   nonuniform List<scalar> 
5170
(
0
0
0
0
0
0
0
0
0
0
0
0
0
0
0
0
0
0
0
0
0
0
0
0
0
0
0
0
0
0
0
0
0
0
0
0
0
0
0
0
0
0
0
0
0
0
0
0
0
0
0
0
0
0
0
0
0
0
0
0
0
0
0
0
0
0
0
0
0
0
0
0
0
0
0
0
0
0
0
0
0
0
0
0
0
0
0
0
0
0
2.868964488e-28
4.843262944e-27
2.701884812e-25
4.345254208e-23
2.201092822e-21
3.984172416e-23
1.733491952e-21
2.954315276e-19
1.140729975e-16
1.607927949e-14
1.004924569e-09
7.592730994e-10
6.605918045e-10
7.992485108e-10
9.991281602e-10
3.250394403e-10
3.820112054e-10
3.698695284e-10
3.723563772e-10
2.942808053e-10
9.619730093e-11
1.656858153e-10
1.706702995e-10
1.461654365e-10
6.67217463e-11
4.078902556e-12
5.297052951e-11
6.368183898e-11
4.920783832e-11
-1.367335762e-11
-3.616603386e-11
-2.680336103e-12
5.088210432e-12
-3.996234142e-12
-4.406196642e-11
-5.303629817e-11
-3.292337244e-11
-2.704405071e-11
-3.590731248e-11
-5.644766705e-11
-5.837955301e-11
-4.829808998e-11
-4.506737757e-11
-5.389222704e-11
-6.013409026e-11
-5.851395468e-11
-5.601636865e-11
-5.506767758e-11
-6.212430862e-11
-5.887315765e-11
-5.597129723e-11
-5.883274771e-11
-5.973285592e-11
-6.357401561e-11
-5.463624921e-11
-5.214156755e-11
-5.822095511e-11
-6.021905419e-11
-6.103232301e-11
-4.921093203e-11
-4.777651146e-11
-5.546585983e-11
-5.789694116e-11
-5.646375683e-11
-4.374893853e-11
-4.339250641e-11
-5.156757077e-11
-5.397900076e-11
-5.112851489e-11
-3.875765065e-11
-3.92682742e-11
-4.718757647e-11
-4.940247642e-11
-4.58551067e-11
-3.451330982e-11
-3.565669446e-11
-4.291994924e-11
-4.480865665e-11
-4.110671219e-11
-3.108571812e-11
-3.257543671e-11
-3.897085721e-11
-4.056846827e-11
-3.709641731e-11
-2.844234492e-11
-3.013781262e-11
-3.558324624e-11
-3.688013672e-11
-3.380454622e-11
-2.642169258e-11
-2.978992186e-11
-3.329545549e-11
-3.408862207e-11
-3.141335541e-11
-2.509899126e-11
2.518807289e-10
1.063538703e-11
-3.632386664e-11
-3.891928444e-11
-2.989434145e-11
3.61392165e-08
1.085868414e-08
2.638056903e-09
-2.377087347e-10
-3.14228482e-10
1.981558035e-05
2.265007403e-06
3.210288629e-07
2.087802516e-08
-7.500758707e-09
2.390908782e-19
3.887628046e-17
1.189948123e-13
7.424685697e-10
1.342392178e-06
4.936214048e-18
8.093270145e-16
1.890325884e-12
3.3508836e-09
5.844159815e-07
4.462264779e-17
7.668196718e-15
1.21516643e-11
7.086145964e-09
3.098424332e-07
3.865146989e-16
6.587264728e-14
6.147593366e-11
1.266089029e-08
2.527343278e-07
2.841826376e-15
4.398254069e-13
2.26244553e-10
1.849256161e-08
2.596215879e-07
1.882601268e-14
2.426779056e-12
6.701376472e-10
2.577935863e-08
3.234589685e-07
1.327999909e-13
1.35782686e-11
1.924211044e-09
4.086390657e-08
5.125822449e-07
9.724683028e-13
7.353926255e-11
4.910706381e-09
6.815374797e-08
8.216536467e-07
6.63670811e-12
3.301415784e-10
1.035906862e-08
1.078632427e-07
1.152544302e-06
3.851460983e-11
1.137707422e-09
1.881024689e-08
1.629126332e-07
1.549331296e-06
1.947415442e-10
3.04683207e-09
3.086667353e-08
2.42309524e-07
2.07919632e-06
7.41000804e-10
6.417888049e-09
4.801514189e-08
3.550222229e-07
2.746431542e-06
2.20126066e-09
1.187823364e-08
7.47163504e-08
5.090473841e-07
3.473453252e-06
5.502354862e-09
2.112183476e-08
1.182305492e-07
7.256352219e-07
4.285077179e-06
1.273041653e-08
3.866308303e-08
1.937902548e-07
1.06714154e-06
5.307713704e-06
2.980950035e-08
7.702261291e-08
3.346754038e-07
1.628818342e-06
6.745424999e-06
7.691357363e-08
1.704777923e-07
6.158581457e-07
2.575848494e-06
8.686025917e-06
2.115535647e-07
4.012388645e-07
1.221831349e-06
4.028876925e-06
1.086061159e-05
6.027795512e-07
9.977498536e-07
2.387058407e-06
5.927591005e-06
1.30003451e-05
1.559705778e-06
2.220945612e-06
4.105280056e-06
7.995141408e-06
1.498358798e-05
3.124684016e-06
3.947723226e-06
6.050557235e-06
1.001164486e-05
1.698726781e-05
4.857329802e-06
5.744284321e-06
7.931079222e-06
1.201106812e-05
1.890659771e-05
6.499497678e-06
7.441962409e-06
9.787376135e-06
1.410189003e-05
2.105160661e-05
8.156385964e-06
9.227859991e-06
1.190449634e-05
1.642403579e-05
2.47582025e-05
1.020471386e-05
1.152122461e-05
1.426665882e-05
1.999656899e-05
2.890293799e-05
1.31440063e-05
1.481772667e-05
1.902184725e-05
2.487280983e-05
3.541909209e-05
1.779090115e-05
1.998615442e-05
2.523883696e-05
3.385608388e-05
4.857738578e-05
2.547487138e-05
2.846574829e-05
3.587720146e-05
4.627991312e-05
6.640897006e-05
3.724606392e-05
4.08947855e-05
5.335997829e-05
7.250896265e-05
0.0001028553216
6.117774511e-05
6.896167687e-05
8.314953471e-05
0.0001096496068
0.0001563243753
0.0001110137742
0.0001205820522
0.0001456151167
0.0001907180835
0.0002616702533
0.000226791654
0.0002460478746
0.0002916708656
0.0003735984711
0.0005168162232
0.0005180568548
0.0005574241011
0.0006496302681
0.0008256119542
0.00110754794
0.001292724848
0.00137408544
0.001562164429
0.001878744169
0.002359046834
0.002772948372
0.002886853876
0.003116419407
0.00344833012
0.003866035607
0.003416281868
0.003441141424
0.003487059688
0.00352683428
0.003554090205
0.001860907184
0.001847935288
0.001822058423
0.001785722796
0.001752946649
0.0003305798138
0.0003443342803
0.0003784225255
0.0004364173929
0.0005257428816
-0.0001646706645
-0.0001319622869
-6.163922801e-05
3.773422311e-05
0.0001450858572
-0.0001574247523
-0.0001510907796
-0.0001570597546
-0.0002267972647
-0.0004594670092
-0.001065013367
-0.001169326357
-0.001400794181
-0.001733089889
-0.002089061035
-0.001756264182
-0.001762502218
-0.001768899578
-0.001764470595
-0.00173867432
-0.001087189471
-0.001077969674
-0.001056596974
-0.00102195103
-0.0009727862093
-0.0005364718348
-0.0005299245396
-0.0005155867122
-0.0004941268298
-0.0004662184421
-0.0002419327339
-0.0002389622121
-0.000231539874
-0.0002222090613
-0.0002104484118
-0.0001060829064
-0.0001048938152
-0.0001023200156
-9.859399277e-05
-9.377899786e-05
-4.673491789e-05
-4.627193907e-05
-4.527219015e-05
-4.380288909e-05
-4.19247764e-05
-2.084128665e-05
-2.0662845e-05
-2.027663541e-05
-1.970750826e-05
-1.897700215e-05
-9.483605041e-06
-9.415534221e-06
-9.267564751e-06
-9.042447051e-06
-8.752005087e-06
-4.428880088e-06
-4.402187577e-06
-4.344631818e-06
-4.258357241e-06
-4.150447736e-06
-2.227471325e-06
-2.207512143e-06
-2.23685834e-06
-2.179441159e-06
-2.289222085e-06
-1.265380727e-06
-1.26449149e-06
-1.262781696e-06
-1.260902896e-06
-1.270093704e-06
-8.740919566e-07
-8.767600571e-07
-8.826758292e-07
-8.917816103e-07
-9.041612282e-07
-7.192706255e-07
-7.222729253e-07
-7.288407087e-07
-7.387235792e-07
-7.517622547e-07
-6.267765897e-07
-6.291282463e-07
-6.342289478e-07
-6.417928815e-07
-6.515656781e-07
-5.477992963e-07
-5.492288854e-07
-5.522968119e-07
-5.567608728e-07
-5.623672792e-07
-4.699973901e-07
-4.705560142e-07
-4.717255113e-07
-4.733447239e-07
-4.752202471e-07
-3.92003588e-07
-3.919309324e-07
-3.917337873e-07
-3.913333085e-07
-3.906096337e-07
-3.173630608e-07
-3.169186994e-07
-3.159234558e-07
-3.143609227e-07
-3.121741509e-07
-2.496495741e-07
-2.490493379e-07
-2.47723864e-07
-2.456933643e-07
-2.429435326e-07
-1.913274739e-07
-1.907040727e-07
-1.893334664e-07
-1.872500406e-07
-1.844578875e-07
-1.429163108e-07
-1.423371219e-07
-1.410660383e-07
-1.391404088e-07
-1.365732535e-07
-1.041800848e-07
-1.03667687e-07
-1.025439864e-07
-1.008439075e-07
-9.858034653e-08
-7.361785059e-08
-7.316714615e-08
-7.217869564e-08
-7.068326022e-08
-6.869229309e-08
-4.948663653e-08
-4.908462845e-08
-4.820294388e-08
-4.686896478e-08
-4.509292564e-08
-3.01132624e-08
-2.974822838e-08
-2.894788993e-08
-2.773764752e-08
-2.612767743e-08
-1.424166848e-08
-1.390751161e-08
-1.317548959e-08
-1.207009538e-08
-1.060250406e-08
-1.003775925e-09
-7.005276699e-10
-3.705870029e-11
9.627071524e-10
2.28615244e-09
9.803391322e-09
1.007214553e-08
1.065921324e-08
1.154156334e-08
1.270540145e-08
1.712685111e-08
1.73603894e-08
1.78698247e-08
1.863372384e-08
1.963809492e-08
1.477690197e-05
8.141196046e-06
2.663972788e-06
2.167793692e-06
2.325087399e-06
2.824322049e-06
4.017696566e-06
5.296276973e-06
6.058529571e-06
6.896982737e-06
8.134136198e-06
9.501017848e-06
1.046487431e-05
1.136486171e-05
1.262830051e-05
1.459179423e-05
1.711777223e-05
1.946104277e-05
2.140147594e-05
2.318056209e-05
2.450105795e-05
2.650981123e-05
3.012233743e-05
3.355126254e-05
3.956123962e-05
4.834520461e-05
6.636504959e-05
9.046723791e-05
0.0001287200354
0.0002037196529
0.0003442935871
0.0006695438535
0.001393330849
0.002794351502
0.004172314933
0.003566036017
0.001755001569
0.0006168507421
0.0002043776836
-0.0007802430119
-0.002287394447
-0.001707203263
-0.0009324849476
-0.0004446300205
-0.0002012854557
-9.006031447e-05
-4.047289176e-05
-1.84093367e-05
-8.527584573e-06
-4.064743989e-06
-2.127078427e-06
-1.267216087e-06
-9.146425844e-07
-7.624294985e-07
-6.593525276e-07
-5.666880959e-07
-4.765161149e-07
-3.898421722e-07
-3.102776218e-07
-2.406385327e-07
-1.8214474e-07
-1.344610948e-07
-9.671798872e-08
-6.705391283e-08
-4.363104257e-08
-2.480348167e-08
-9.397948882e-09
3.368850405e-09
1.365374005e-08
2.04535668e-08
6.758601964e-05
0.0001272774422
9.477695054e-07
1.484280205e-06
-8.715132885e-09
2.056229247e-05
0.0006026024009
-9.299683513e-05
-2.929540448e-06
1.802493509e-07
1.557704964e-05
0.0002603941369
0.0006398392148
-0.0001143709271
1.691682733e-06
1.807353001e-05
0.0002440509598
0.008500637506
-0.002038383572
-2.963191399e-05
1.744565751e-05
0.0001620713884
0.006230451061
-0.002574514964
-0.0001485894706
1.770317344e-05
0.0001304663342
0.003467558618
-0.002193221921
-0.0002461759332
2.124546031e-05
0.0001349291901
0.002554432389
-0.0008624237067
-0.0005923180177
2.418160667e-05
0.00013801072
0.001435760471
0.009676709374
-0.0032394423
2.327709487e-05
0.0001076401163
0.000817192403
0.01344008204
-0.00526372892
2.301556547e-05
9.373862505e-05
0.0006183567859
0.01003777922
-0.005189595375
2.448416812e-05
9.231198735e-05
0.0005443734495
0.007625774804
-0.003488743668
2.651525942e-05
9.751274375e-05
0.0004694709477
0.004595678079
0.005214677724
2.662142406e-05
8.710660938e-05
0.000353170643
0.002465895098
0.01606623682
2.644759599e-05
7.713734226e-05
0.0002877558661
0.001729206915
0.01481748171
2.719449285e-05
7.365767405e-05
0.0002613254309
0.001445143283
0.01274484932
2.924122412e-05
7.703949833e-05
0.000259068132
0.001305658262
0.01073494003
3.235891773e-05
8.322363343e-05
0.0002611188357
0.001157106595
0.008100261537
3.472859406e-05
8.465522059e-05
0.0002466593587
0.0009652698618
0.005601229634
3.45169143e-05
8.267050111e-05
0.0002296154119
0.0008322221581
0.004283591133
3.585744049e-05
8.155039312e-05
0.0002219052227
0.000772355219
0.003705727586
3.76747804e-05
8.281166709e-05
0.0002263162643
0.0007672522014
0.003490629485
3.96757296e-05
8.952982994e-05
0.0002410451062
0.000795045486
0.00343723961
4.405443619e-05
9.992081089e-05
0.0002638423956
0.0008430353365
0.003444640226
5.092187525e-05
0.0001139397201
0.0002939189775
0.0009070135457
0.00347730578
5.999745141e-05
0.0001321093285
0.0003332451952
0.0009968914425
0.003591871956
7.204628487e-05
0.0001747589411
0.0003921993661
0.001147025739
0.003902044206
9.938792028e-05
0.0002140286251
0.0004902885978
0.001411739848
0.00451715958
0.0001356329866
0.0002684679945
0.0006600820183
0.00186553387
0.005503555487
0.0001935991095
0.0003922791686
0.0009604908613
0.00261717291
0.00685617326
0.0003155174973
0.0006234487199
0.001497231182
0.003784195238
0.00835883355
0.0005111777447
0.00107110584
0.002431985606
0.005364610197
0.009492895973
0.0009761028021
0.001930227027
0.003886456097
0.006952057484
0.009591883964
0.001940253121
0.003380622542
0.005538597886
0.007639936635
0.008343188207
0.003524188421
0.004941814396
0.006228460639
0.006779837522
0.006087103448
0.004559038716
0.005023306444
0.00513587872
0.004844349961
0.003210290355
0.003498654166
0.00338772735
0.003233586309
0.002693053724
-0.0005337646074
0.001714064522
0.001752879122
0.001654810876
0.0002111288884
-0.004006914042
0.000697955523
0.0007649288465
-5.70171527e-05
-0.002967359844
-0.004452771028
0.0001394434973
-0.0006329687432
-0.002694931677
-0.003792871377
-0.003437674968
-0.001455628858
-0.002723358576
-0.003121692241
-0.002841049004
-0.00226435493
-0.002412490995
-0.002387779095
-0.002143223233
-0.001752108953
-0.001334458069
-0.00162797919
-0.001446987959
-0.001209151207
-0.0009578782091
-0.000729682677
-0.0008646518152
-0.0007431495074
-0.0006134054313
-0.0004890752871
-0.000379212776
-0.0004110009921
-0.0003539059673
-0.0002955871208
-0.0002401547447
-0.0001908668754
-0.0001875340525
-0.0001635912086
-0.0001391601719
-0.0001157133422
-9.435584344e-05
-8.469101593e-05
-7.495682046e-05
-6.504835745e-05
-5.528943775e-05
-4.608684193e-05
-3.829036248e-05
-3.446194636e-05
-3.043759449e-05
-2.64108345e-05
-2.257147091e-05
-1.75546068e-05
-1.603846641e-05
-1.441190307e-05
-1.273188947e-05
-1.108968331e-05
-8.189392438e-06
-7.579304492e-06
-6.926933632e-06
-6.238615766e-06
-5.583690034e-06
-3.935284174e-06
-3.695242227e-06
-3.442347721e-06
-3.192887705e-06
-2.978329672e-06
-2.036836593e-06
-2.011843025e-06
-1.920852975e-06
-1.879943089e-06
-1.860944355e-06
-1.252640782e-06
-1.266129457e-06
-1.28317455e-06
-1.310464935e-06
-1.349190211e-06
-9.301280015e-07
-9.618996644e-07
-1.00051102e-06
-1.04461925e-06
-1.091423537e-06
-7.778836372e-07
-8.07590846e-07
-8.407774648e-07
-8.750344633e-07
-9.070858363e-07
-6.704052136e-07
-6.905633923e-07
-7.113374344e-07
-7.304186558e-07
-7.451850258e-07
-5.726409854e-07
-5.826131912e-07
-5.913967345e-07
-5.97122034e-07
-5.981036264e-07
-4.780893178e-07
-4.797554546e-07
-4.793837353e-07
-4.758957847e-07
-4.68322718e-07
-3.884725928e-07
-3.848217711e-07
-3.789785468e-07
-3.704052269e-07
-3.586783051e-07
-3.073278261e-07
-3.00997887e-07
-2.926593212e-07
-2.82131498e-07
-2.693302867e-07
-2.371454377e-07
-2.300441014e-07
-2.212670001e-07
-2.106602767e-07
-1.982116496e-07
-1.786651515e-07
-1.717219919e-07
-1.633041753e-07
-1.534602939e-07
-1.42273411e-07
-1.312979627e-07
-1.250464515e-07
-1.175545626e-07
-1.088973255e-07
-9.916874286e-08
-9.393386568e-08
-8.844668096e-08
-8.189426559e-08
-7.434970276e-08
-6.59019168e-08
-6.460675939e-08
-5.97833104e-08
-5.402724081e-08
-4.740696475e-08
-4.000836277e-08
-4.144965919e-08
-3.715014261e-08
-3.202575634e-08
-2.614578615e-08
-1.959996407e-08
-2.283090211e-08
-1.895034454e-08
-1.434333701e-08
-9.086278618e-09
-3.278087979e-09
-7.607992246e-09
-4.102245491e-09
3.078567219e-11
4.704536201e-09
9.809809754e-09
4.972645878e-09
8.093798087e-09
1.173854932e-08
1.581145431e-08
2.019639881e-08
1.505363013e-08
1.77566038e-08
2.087800803e-08
2.431837496e-08
2.796097688e-08
2.165350155e-08
2.395424782e-08
2.658444572e-08
2.944697982e-08
3.243075117e-08
-1.654429734e-10
-4.353946732e-13
-8.645713686e-15
-4.282255956e-16
-4.014180625e-17
-4.924740661e-18
-6.746369698e-19
-1.031354534e-19
-1.866320972e-20
-4.45125133e-21
-1.447567411e-21
-5.820769509e-22
-2.578202022e-22
-1.178609096e-22
-5.407011649e-23
-2.460553015e-23
-1.105943007e-23
-4.902955248e-24
-2.14447143e-24
-9.261484822e-25
-3.954004993e-25
-1.670470385e-25
-6.987932911e-26
-2.894214866e-26
-1.18584189e-26
-4.797846145e-27
-1.910486343e-27
-7.447462384e-28
-2.818674992e-28
-1.021712076e-28
-3.457009035e-29
-1.027571642e-29
-2.157393149e-30
2.048840385e-31
6.687665729e-31
5.916851992e-31
4.147682844e-31
2.615217845e-31
1.538099834e-31
8.537553979e-32
4.490083012e-32
2.242800136e-32
1.067648381e-32
4.868696979e-33
2.141130201e-33
9.147953448e-34
3.825002049e-34
1.575370395e-34
6.42427814e-35
2.602609939e-35
1.048480933e-35
4.192396187e-36
1.654720192e-36
6.378919556e-37
2.355750503e-37
8.021057881e-38
2.301734961e-38
4.513223417e-39
3.081147624e-40
2.543876016e-42
-1.410640507e-09
-3.890478755e-12
-8.59112422e-14
-5.601220508e-15
-7.037840272e-16
-1.12484351e-16
-1.980978049e-17
-4.228911727e-18
-1.167927051e-18
-4.035535587e-19
-1.552748085e-19
-6.228473913e-20
-2.521751697e-20
-1.021811579e-20
-4.134826689e-21
-1.671807058e-21
-6.761982236e-22
-2.737895401e-22
-1.110506465e-22
-4.512050355e-23
-1.835934019e-23
-7.477668022e-24
-3.046410197e-24
-1.239588047e-24
-5.027279809e-25
-2.026158244e-25
-8.080661389e-26
-3.169518941e-26
-1.212018262e-26
-4.458373463e-27
-1.541108069e-27
-4.754351751e-28
-1.108119112e-28
-1.916897124e-31
2.447837414e-29
2.348539697e-29
1.697859686e-29
1.089319667e-29
6.481843165e-30
3.628574705e-30
1.920673518e-30
9.64243975e-31
4.609564278e-31
2.11020961e-31
9.316517106e-32
3.997626573e-32
1.679674803e-32
6.956341643e-33
2.854190868e-33
1.163797677e-33
4.719421053e-34
1.899512066e-34
7.545587459e-35
2.926508043e-35
1.086616838e-35
3.718203466e-36
1.076399679e-36
2.174765771e-37
1.788308284e-38
2.574758448e-40
-8.466401548e-09
-1.999811075e-11
-3.10723784e-13
-2.612263893e-14
-4.374340763e-15
-9.598031233e-16
-2.492817788e-16
-8.141559247e-17
-3.11758296e-17
-1.298638622e-17
-5.447991969e-18
-2.259643709e-18
-9.118604756e-19
-3.587329402e-19
-1.377614016e-19
-5.198522058e-20
-1.941753697e-20
-7.234420003e-21
-2.708167961e-21
-1.023559594e-21
-3.916105442e-22
-1.517205739e-22
-5.947729436e-23
-2.354304665e-23
-9.381261101e-24
-3.748351924e-24
-1.49400378e-24
-5.900015421e-25
-2.288804375e-25
-8.61979208e-26
-3.093752876e-26
-1.02112567e-26
-2.820489292e-27
-4.050135592e-28
2.491821914e-28
3.330002408e-28
2.644183291e-28
1.777649808e-28
1.089199195e-28
6.224752546e-29
3.346492797e-29
1.700482573e-29
8.208082823e-30
3.787958855e-30
1.68444737e-30
7.27872764e-31
3.081133343e-31
1.286541521e-31
5.326485489e-32
2.19307806e-32
8.98422095e-33
3.653326413e-33
1.465822177e-33
5.738420917e-34
2.147923858e-34
7.395849343e-35
2.157546956e-35
4.413874944e-36
3.886364322e-37
6.803126051e-39
-2.827262914e-07
-7.763732281e-10
-2.86803491e-12
-1.192061636e-13
-2.180413044e-14
-6.507425993e-15
-2.373081444e-15
-9.869811233e-16
-4.398213905e-16
-2.008203661e-16
-9.068874465e-17
-4.0018562e-17
-1.706805565e-17
-7.033686564e-18
-2.794735191e-18
-1.075278078e-18
-4.020390378e-19
-1.472601807e-19
-5.326853591e-20
-1.921710196e-20
-6.972290922e-21
-2.560568581e-21
-9.553431845e-22
-3.625738598e-22
-1.398254507e-22
-5.460498358e-23
-2.148097081e-23
-8.454631168e-24
-3.302538071e-24
-1.268101033e-24
-4.726142249e-25
-1.674960783e-25
-5.409962136e-26
-1.407890205e-26
-1.232352692e-27
2.061034893e-27
2.294896657e-27
1.74452987e-27
1.142468671e-27
6.817654591e-28
3.780629523e-28
1.966684146e-28
9.669576118e-29
4.529794078e-29
2.040180054e-29
8.917999457e-30
3.816962485e-30
1.611540498e-30
6.748303069e-31
2.811630556e-31
1.166297185e-31
4.804661048e-32
1.953124151e-32
7.742402554e-33
2.929978888e-33
1.017307867e-33
2.991831352e-34
6.181472589e-35
5.667453567e-36
1.153062077e-37
-4.937008569e-07
-9.397005862e-09
-3.279863583e-11
-6.179373317e-13
-1.037888413e-13
-3.767847767e-14
-1.639323398e-14
-7.58937796e-15
-3.642481054e-15
-1.775592192e-15
-8.623503974e-16
-4.122141864e-16
-1.91879246e-16
-8.658164435e-17
-3.767061547e-17
-1.580606465e-17
-6.387476289e-18
-2.495909352e-18
-9.457012668e-19
-3.501729425e-19
-1.275693095e-19
-4.617594425e-20
-1.673492073e-20
-6.117230511e-21
-2.265061386e-21
-8.510324698e-22
-3.239270711e-22
-1.243883895e-22
-4.79026139e-23
-1.836960601e-23
-6.956870423e-24
-2.574198642e-24
-9.150857982e-25
-3.021521475e-25
-8.466211993e-26
-1.293332973e-26
7.085355282e-27
9.947225417e-27
7.952614295e-27
5.26584217e-27
3.116640031e-27
1.695312557e-27
8.607898399e-28
4.131571136e-28
1.897447947e-28
8.434258342e-29
3.665174741e-29
1.569466626e-29
6.660438899e-30
2.810744833e-30
1.180641823e-30
4.92581007e-31
2.028611006e-31
8.14750134e-32
3.121367593e-32
1.095006092e-32
3.250075748e-33
6.796298258e-34
6.459366824e-35
1.561653727e-36
-1.253932526e-06
-8.505420889e-08
-5.984651508e-10
-5.715048783e-12
-5.737751448e-13
-1.859150831e-13
-8.143243794e-14
-3.886461425e-14
-1.940278972e-14
-9.942377269e-15
-5.148173843e-15
-2.659252808e-15
-1.355911385e-15
-6.773733131e-16
-3.292975417e-16
-1.551366719e-16
-7.055848792e-17
-3.094682952e-17
-1.306998353e-17
-5.329784848e-18
-2.103423349e-18
-8.087996703e-19
-3.045618178e-19
-1.131967082e-19
-4.176153776e-20
-1.539106925e-20
-5.684662381e-21
-2.107833351e-21
-7.841472126e-22
-2.921464668e-22
-1.086716467e-22
-4.018646308e-23
-1.468643781e-23
-5.256887193e-24
-1.811368268e-24
-5.751344496e-25
-1.459943511e-25
-8.397931171e-27
2.616227128e-26
2.691650398e-26
1.916771642e-26
1.154768847e-26
6.241141523e-27
3.118123841e-27
1.471842944e-27
6.6813044e-28
2.956672564e-28
1.287649573e-28
5.552249638e-29
2.378258618e-29
1.012869988e-29
4.280983034e-30
1.785406904e-30
7.261843827e-31
2.818234397e-31
1.001889912e-31
3.016330408e-32
6.445297695e-33
6.422548513e-34
1.880771362e-35
-2.556681339e-05
-3.588547854e-07
-1.218137681e-08
-1.077549049e-10
-3.292383969e-12
-6.72145036e-13
-2.643447072e-13
-1.255078291e-13
-6.431637872e-14
-3.432816553e-14
-1.873742722e-14
-1.033225675e-14
-5.699946368e-15
-3.121129882e-15
-1.685270746e-15
-8.92223966e-16
-4.606401884e-16
-2.308740058e-16
-1.118673036e-16
-5.229706767e-17
-2.355485152e-17
-1.023247154e-17
-4.292131553e-18
-1.744862339e-18
-6.89886469e-19
-2.668397233e-19
-1.013272749e-19
-3.790448425e-20
-1.399351933e-20
-5.109641805e-21
-1.849190446e-21
-6.648699637e-22
-2.38059825e-22
-8.505158078e-23
-3.035803174e-23
-1.079333899e-23
-3.743202459e-24
-1.188680628e-24
-2.867404679e-25
-7.381650806e-28
6.261751815e-26
5.588692857e-26
3.573423951e-26
1.948714343e-26
9.655603066e-27
4.510514869e-27
2.035491689e-27
9.009890537e-28
3.945283314e-28
1.715856723e-28
7.417498883e-29
3.180474584e-29
1.344942268e-29
5.545987612e-30
2.184175236e-30
7.903214708e-31
2.43507004e-31
5.402381609e-32
5.793311957e-33
2.083843398e-34
-0.0002278676676
-3.714211382e-06
-1.751092023e-07
-2.54600641e-09
-3.459484533e-11
-2.657424149e-12
-7.125957575e-13
-3.041169249e-13
-1.524232214e-13
-8.216217083e-14
-4.607194395e-14
-2.640998278e-14
-1.530925143e-14
-8.902363732e-15
-5.160648149e-15
-2.967053298e-15
-1.684335973e-15
-9.404514795e-16
-5.143837066e-16
-2.744337503e-16
-1.422087278e-16
-7.129280919e-17
-3.445518924e-17
-1.602750078e-17
-7.176792299e-18
-3.099321607e-18
-1.293159896e-18
-5.224204031e-19
-2.046715168e-19
-7.793498558e-20
-2.888803814e-20
-1.045345894e-20
-3.711361099e-21
-1.302957437e-21
-4.565432649e-22
-1.614060935e-22
-5.792002105e-23
-2.074030255e-23
-7.079469274e-24
-2.109278665e-24
-4.226629649e-25
5.144654889e-26
1.215275755e-25
8.900352952e-26
5.001885626e-26
2.483794436e-26
1.156500605e-26
5.210990316e-27
2.311076969e-27
1.017061345e-27
4.451986536e-28
1.935052543e-28
8.303282071e-29
3.477885062e-29
1.393520525e-29
5.148656231e-30
1.631893656e-30
3.783658321e-31
4.401255252e-32
1.926551379e-33
-0.0005708738473
-1.927673898e-05
-6.100640372e-07
-3.438183146e-08
-4.509452141e-10
-1.368426567e-11
-1.95842373e-12
-6.519702927e-13
-3.015904015e-13
-1.592618272e-13
-8.98298653e-14
-5.259356433e-14
-3.147731578e-14
-1.906699827e-14
-1.160521525e-14
-7.058576488e-15
-4.271235096e-15
-2.561878473e-15
-1.518127988e-15
-8.86015604e-16
-5.076309435e-16
-2.845743108e-16
-1.555958851e-16
-8.264594185e-17
-4.246913638e-17
-2.104159441e-17
-1.001635878e-17
-4.572872377e-18
-2.001828625e-18
-8.410236559e-19
-3.392198181e-19
-1.314559107e-19
-4.906519257e-20
-1.773990026e-20
-6.266257202e-21
-2.185742663e-21
-7.634935486e-22
-2.693644074e-22
-9.451751047e-23
-3.183184225e-23
-9.727871091e-24
-2.385243863e-24
-2.468136501e-25
1.98290753e-25
1.883986535e-25
1.111765845e-25
5.577008338e-26
2.599656211e-26
1.171112667e-26
5.198704653e-27
2.293740426e-27
1.007090571e-27
4.379037185e-28
1.864658523e-28
7.622681877e-29
2.887159667e-29
9.461828746e-30
2.308584352e-30
2.942819582e-31
1.557660775e-32
-0.0008065435943
-6.099574019e-05
-1.268051179e-06
-1.608979727e-07
-5.533343598e-09
-1.033553898e-10
-6.456233713e-12
-1.419787501e-12
-5.582075567e-13
-2.775996689e-13
-1.538502539e-13
-9.046243929e-14
-5.513294087e-14
-3.433895372e-14
-2.165045742e-14
-1.372433101e-14
-8.702572884e-15
-5.498136205e-15
-3.449703602e-15
-2.143553053e-15
-1.315222847e-15
-7.95156458e-16
-4.722519567e-16
-2.74678976e-16
-1.559407625e-16
-8.612008662e-17
-4.611837971e-17
-2.386089653e-17
-1.187820427e-17
-5.666623184e-18
-2.58073632e-18
-1.119250279e-18
-4.621834933e-19
-1.821447006e-19
-6.881526294e-20
-2.507348655e-20
-8.866211284e-21
-3.072068998e-21
-1.04924194e-21
-3.509419116e-22
-1.1221917e-22
-3.305640601e-23
-8.308855578e-24
-1.329107662e-24
2.338924002e-25
3.55453057e-25
2.226321806e-25
1.130879653e-25
5.280006347e-26
2.376203044e-26
1.053872137e-26
4.648856424e-27
2.038714857e-27
8.804019526e-28
3.672537194e-28
1.429939081e-28
4.867498134e-29
1.258452671e-29
1.777730156e-30
1.127610107e-31
-0.001185459713
-0.0001358590961
-5.352413249e-06
-4.077209706e-07
-3.782344091e-08
-9.443370802e-10
-2.99867386e-11
-3.519469378e-12
-1.045969985e-12
-4.655912866e-13
-2.467266535e-13
-1.430968144e-13
-8.759520201e-14
-5.544827804e-14
-3.582170098e-14
-2.340923483e-14
-1.537731297e-14
-1.010406932e-14
-6.622171271e-15
-4.315721309e-15
-2.788822961e-15
-1.782060777e-15
-1.123044512e-15
-6.960900554e-16
-4.231682307e-16
-2.51592424e-16
-1.458782833e-16
-8.225970371e-17
-4.497573572e-17
-2.376622019e-17
-1.20974672e-17
-5.90788551e-18
-2.75523058e-18
-1.222473366e-18
-5.153852908e-19
-2.067349645e-19
-7.903082111e-20
-2.87962835e-20
-1.001451946e-20
-3.336657389e-21
-1.066847062e-21
-3.235484406e-22
-9.072719192e-23
-2.22586312e-23
-3.925528123e-24
1.582113139e-25
6.236976694e-25
4.150397003e-25
2.129677096e-25
9.92747832e-26
4.453324064e-26
1.970058491e-26
8.664604559e-27
3.772663865e-27
1.599868714e-27
6.397976194e-28
2.2682524e-28
6.249676442e-29
9.88151657e-30
7.443339674e-31
-0.003070652311
-0.0004099521771
-2.805578466e-05
-1.199618063e-06
-1.727457865e-07
-1.02560669e-08
-2.732601562e-10
-1.360781338e-11
-2.274286453e-12
-7.936315609e-13
-3.820404263e-13
-2.131916698e-13
-1.290197711e-13
-8.200711045e-14
-5.369534726e-14
-3.5836437e-14
-2.418968764e-14
-1.640972001e-14
-1.113730858e-14
-7.536787337e-15
-5.069715531e-15
-3.38002455e-15
-2.227796159e-15
-1.447991524e-15
-9.257611696e-16
-5.807144486e-16
-3.564861426e-16
-2.136175082e-16
-1.24638889e-16
-7.06319908e-17
-3.877747306e-17
-2.057038235e-17
-1.051139208e-17
-5.156689425e-18
-2.420629991e-18
-1.084099072e-18
-4.617551971e-19
-1.862467803e-19
-7.079077028e-20
-2.522705346e-20
-8.422835269e-21
-2.641080814e-21
-7.749504696e-22
-2.092895557e-22
-4.976914136e-23
-8.902839049e-24
-5.742721347e-26
1.056407942e-24
7.341631429e-25
3.787798555e-25
1.757053362e-25
7.83567818e-26
3.449034202e-26
1.50562212e-26
6.448693716e-27
2.636467439e-27
9.729284824e-28
2.869617673e-28
5.125624537e-29
4.555230422e-30
-0.005646512804
-0.000911434355
-9.057892354e-05
-3.859549224e-06
-4.245629786e-07
-5.441814978e-08
-2.79005788e-09
-9.664317649e-11
-7.070103407e-12
-1.488226363e-12
-5.773462438e-13
-2.949881192e-13
-1.71765874e-13
-1.081958482e-13
-7.085938762e-14
-4.813233166e-14
-3.323041725e-14
-2.313554045e-14
-1.615200321e-14
-1.126415404e-14
-7.821864649e-15
-5.393547042e-15
-3.683972864e-15
-2.48650781e-15
-1.654421739e-15
-1.082485691e-15
-6.947849098e-16
-4.3638468e-16
-2.67578381e-16
-1.598217396e-16
-9.279975379e-17
-5.228090782e-17
-2.851874239e-17
-1.502969073e-17
-7.634582603e-18
-3.727627041e-18
-1.743332343e-18
-7.771668028e-19
-3.280274658e-19
-1.30164668e-19
-4.818074015e-20
-1.653697813e-20
-5.242905012e-21
-1.525171831e-21
-4.032599131e-22
-9.330145531e-23
-1.620835907e-23
-1.736913906e-25
1.77896741e-24
1.235443642e-24
6.359948142e-25
2.934703263e-25
1.298621422e-25
5.660244153e-26
2.432104762e-26
1.009670171e-26
3.864776763e-27
1.225501596e-27
2.497849391e-28
2.611691578e-29
-0.00633567923
-0.001256623536
-0.0001801084311
-1.196574121e-05
-8.420102546e-07
-1.580840121e-07
-1.672667141e-08
-8.937101725e-10
-4.064574818e-11
-3.862484266e-12
-9.140784511e-13
-3.730244868e-13
-1.988331842e-13
-1.21433385e-13
-7.871980354e-14
-5.382039539e-14
-3.7616217e-14
-2.662968854e-14
-1.897610494e-14
-1.354444714e-14
-9.649330643e-15
-6.842522169e-15
-4.818464891e-15
-3.362208412e-15
-2.31943896e-15
-1.577948843e-15
-1.055715348e-15
-6.926281368e-16
-4.444256785e-16
-2.782565057e-16
-1.696305267e-16
-1.00502462e-16
-5.780018635e-17
-3.223291706e-17
-1.740787498e-17
-9.089198166e-18
-4.575986137e-18
-2.212866432e-18
-1.022352581e-18
-4.480751203e-19
-1.847385781e-19
-7.094168125e-20
-2.514033046e-20
-8.15189384e-21
-2.398398342e-21
-6.312265581e-22
-1.421459312e-22
-2.295106525e-23
6.236662792e-25
3.006837707e-24
1.967532646e-24
9.95532445e-25
4.560694993e-25
2.002475196e-25
8.608963007e-26
3.605384953e-26
1.422011307e-26
4.842453753e-27
1.134830852e-27
1.402723269e-28
-0.005762216964
-0.001533674139
-0.0002783558383
-3.051908829e-05
-1.891197512e-06
-3.324008614e-07
-5.755874424e-08
-5.91277667e-09
-3.723884727e-10
-2.108576322e-11
-2.197731263e-12
-5.15120991e-13
-2.079695847e-13
-1.132643339e-13
-7.054921647e-14
-4.719957915e-14
-3.288013006e-14
-2.344249006e-14
-1.693340138e-14
-1.231150742e-14
-8.968880654e-15
-6.5247299e-15
-4.727261918e-15
-3.402988948e-15
-2.428512414e-15
-1.714202682e-15
-1.193890887e-15
-8.181651396e-16
-5.499290167e-16
-3.614348741e-16
-2.317545093e-16
-1.446561999e-16
-8.768970069e-17
-5.157296757e-17
-2.942074483e-17
-1.626422864e-17
-8.702740657e-18
-4.498991442e-18
-2.238473539e-18
-1.065888304e-18
-4.821882341e-19
-2.054095028e-19
-8.154956608e-20
-2.983243669e-20
-9.924969804e-21
-2.957719898e-21
-7.71404576e-22
-1.65551777e-22
-2.202772953e-23
3.817030512e-24
4.993731782e-24
2.943999416e-24
1.438497746e-24
6.506634886e-25
2.836332117e-25
1.202486612e-25
4.864701888e-26
1.763076207e-26