/*--------------------------------*- C++ -*----------------------------------*\
  =========                 |
  \\      /  F ield         | OpenFOAM: The Open Source CFD Toolbox
   \\    /   O peration     | Website:  https://openfoam.org
    \\  /    A nd           | Version:  10
     \\/     M anipulation  |
\*---------------------------------------------------------------------------*/
FoamFile
{
    format      ascii;
    class       volScalarField;
    location    "3000";
    object      RR.HCNO;
}
// * * * * * * * * * * * * * * * * * * * * * * * * * * * * * * * * * * * * * //

dimensions      [1 -3 -1 0 0 0 0];

internalField   nonuniform List<scalar> 
5170
(
0
0
0
0
0
0
0
0
0
0
0
0
0
0
0
0
0
0
0
0
0
0
0
0
0
0
0
0
0
0
0
0
0
0
0
0
0
0
0
0
0
0
0
0
0
0
0
0
0
0
0
0
0
0
0
0
0
0
0
0
0
0
0
0
0
0
0
0
0
0
0
0
0
0
0
0
0
0
0
0
0
0
0
0
0
0
0
0
0
8.63933921e-29
8.965514026e-30
2.594605148e-28
2.014563237e-26
4.259838424e-24
1.717840071e-22
2.552016517e-24
1.434918521e-22
3.016692337e-20
1.161193765e-17
1.547205549e-15
1.53571037e-17
1.371054927e-17
1.27319905e-17
1.415613484e-17
1.532202082e-17
6.735259793e-18
6.944716022e-18
7.067368125e-18
6.731184016e-18
6.378350172e-18
3.20495809e-18
3.673332719e-18
3.389749524e-18
3.589609229e-18
2.683530001e-18
1.412867914e-18
2.085452814e-18
2.132847922e-18
2.01020113e-18
9.877620839e-19
4.302995796e-19
1.059931839e-18
1.169220922e-18
9.381665027e-19
1.262430871e-19
-1.247667021e-19
3.628339534e-19
4.771766715e-19
2.296801059e-19
-3.414936089e-19
-4.380652981e-19
-9.543111155e-20
-8.784052261e-21
-2.131205404e-19
-5.865477669e-19
-6.168673016e-19
-3.944542537e-19
-3.357152866e-19
-4.890670442e-19
-7.1397532e-19
-7.166861327e-19
-5.845323153e-19
-5.494636677e-19
-6.579328172e-19
-7.763215808e-19
-7.697075478e-19
-7.014916283e-19
-6.843418281e-19
-7.559893115e-19
-8.013514376e-19
-7.948364531e-19
-7.702575153e-19
-7.656150186e-19
-8.077542752e-19
-8.053477412e-19
-8.032724337e-19
-8.076798508e-19
-8.107155973e-19
-8.298007531e-19
-7.975617031e-19
-8.091531826e-19
-8.268334585e-19
-8.327533015e-19
-8.346098315e-19
-7.845420785e-19
-1.530640829e-18
-1.072904457e-18
-9.223713816e-19
-8.873454451e-19
-8.229372416e-19
-6.322891558e-17
-2.161825239e-17
-8.17123566e-18
-5.777634729e-18
-4.911704249e-18
-3.348679939e-15
-1.227960164e-15
-5.085953964e-16
-3.713260688e-16
-2.930529476e-16
2.979580019e-13
4.168681e-14
-1.262074626e-14
-2.251302759e-14
-1.843870569e-14
1.665499594e-10
3.27936488e-11
4.424318995e-12
-6.711516758e-13
-9.700840459e-13
1.945061924e-08
5.030474734e-09
1.141113984e-09
7.280861118e-11
-3.49870123e-11
3.543097868e-06
6.218577184e-07
9.199846067e-08
1.019522689e-08
-1.152994105e-10
2.2284018e-20
4.15020551e-18
1.478591793e-14
9.581426809e-11
1.72103437e-07
6.019441654e-19
1.143087705e-16
2.643722855e-13
4.582040242e-10
6.87001392e-08
6.375152061e-18
1.199622135e-15
1.816308799e-12
1.060058899e-09
3.523186327e-08
8.119125104e-17
1.306686117e-14
1.088130759e-11
2.357037737e-09
3.384922477e-08
7.724839993e-16
1.026379157e-13
4.754836526e-11
4.449342817e-09
3.712058641e-08
5.417885366e-15
5.901067641e-13
1.558319244e-10
6.874916891e-09
3.126332342e-09
3.746749695e-14
3.368526534e-12
4.815267496e-10
8.949852462e-09
-1.150387709e-07
2.646451583e-13
1.877977659e-11
1.28884684e-09
7.692062419e-09
-2.995193568e-07
1.825111361e-12
9.042727657e-11
2.850087792e-09
3.878344299e-09
-4.643791685e-07
1.103736927e-11
3.379575464e-10
5.063410175e-09
-7.659140864e-09
-7.267078702e-07
5.885993865e-11
9.556066227e-10
6.705541494e-09
-4.099095392e-08
-1.187789416e-06
2.352755064e-10
2.007401351e-09
5.675299328e-09
-1.04914417e-07
-1.791830202e-06
7.314519405e-10
3.448742551e-09
6.654654781e-10
-1.903972079e-07
-2.372127688e-06
1.855785607e-09
4.985022946e-09
-1.118075142e-08
-3.147760205e-07
-3.015246403e-06
3.795059339e-09
4.949982872e-09
-4.085822915e-08
-5.533773496e-07
-3.928221584e-06
4.757017821e-09
-3.526648605e-09
-1.163415081e-07
-1.015145173e-06
-5.305893014e-06
-6.428696672e-09
-4.403023689e-08
-3.042364125e-07
-1.850684069e-06
-7.136052433e-06
-7.113527744e-08
-1.82731991e-07
-7.860587406e-07
-3.161603741e-06
-8.988704025e-06
-3.411539694e-07
-6.415588196e-07
-1.7895785e-06
-4.841817056e-06
-1.05086956e-05
-1.140418964e-06
-1.701258664e-06
-3.331702263e-06
-6.582682737e-06
-1.171733072e-05
-2.548617638e-06
-3.265223802e-06
-5.045359945e-06
-8.16582539e-06
-1.29100206e-05
-4.10983375e-06
-4.894098422e-06
-6.624765114e-06
-9.660356807e-06
-1.413259627e-05
-5.545849337e-06
-6.305638339e-06
-8.112042953e-06
-1.11553035e-05
-1.592109632e-05
-6.959635749e-06
-7.776645673e-06
-9.713777662e-06
-1.287475116e-05
-1.79977391e-05
-8.633633979e-06
-9.562618325e-06
-1.155302764e-05
-1.512853155e-05
-2.012662302e-05
-1.087548003e-05
-1.193528144e-05
-1.44105829e-05
-1.795939808e-05
-2.291488833e-05
-1.402421133e-05
-1.521296754e-05
-1.784401369e-05
-2.171129337e-05
-2.708987305e-05
-1.83661824e-05
-1.966003332e-05
-2.252273937e-05
-2.615036958e-05
-3.061473534e-05
-2.316338932e-05
-2.427244108e-05
-2.757987955e-05
-3.081058317e-05
-3.265957514e-05
-2.718024832e-05
-2.864425998e-05
-2.923734693e-05
-2.827884693e-05
-2.160429305e-05
-2.313017246e-05
-2.132183973e-05
-1.704900658e-05
-5.073108372e-06
2.836595547e-05
1.61417618e-05
2.317952779e-05
4.613574424e-05
9.376851973e-05
0.0001815798306
0.0001813013209
0.0002077103533
0.0002632947946
0.0004034885555
0.0006119631181
0.0007311187157
0.0007900719538
0.0009246871066
0.001147188577
0.001469705674
0.001554709437
0.001607685142
0.001704504578
0.001827197161
0.001941269116
0.001167307061
0.001149141677
0.001106618
0.001021414531
0.0009038206073
-7.274257137e-05
-8.620783634e-05
-0.0001136241859
-0.0001518233104
-0.0001945283586
-0.0005898573936
-0.0005831589199
-0.0005688687036
-0.0005464763209
-0.0005182937915
-0.0005401604934
-0.0005295500813
-0.0005078269043
-0.0004795150173
-0.0004522944696
-0.0003699955196
-0.0003685138576
-0.000370390202
-0.0003881001649
-0.0004439366003
-0.0004517481265
-0.0004770894443
-0.0005336999571
-0.0006139909905
-0.0006876611187
-0.0004469532232
-0.0004399528373
-0.000423338243
-0.0003973356264
-0.0003640122072
-0.0001868294933
-0.0001836017701
-0.0001767429456
-0.0001669337175
-0.0001548603736
-7.755444034e-05
-7.642199062e-05
-7.399528468e-05
-7.048761744e-05
-6.610634243e-05
-3.260990053e-05
-3.219688147e-05
-3.131003585e-05
-3.001915029e-05
-2.839049319e-05
-1.387502232e-05
-1.372142526e-05
-1.339008354e-05
-1.29051779e-05
-1.228900446e-05
-5.978346486e-06
-5.919889024e-06
-5.794430128e-06
-5.610216992e-06
-5.375571665e-06
-2.610355698e-06
-2.588090428e-06
-2.539868292e-06
-2.468763826e-06
-2.377358287e-06
-1.144269115e-06
-1.134877006e-06
-1.114465793e-06
-1.08771258e-06
-1.057533851e-06
-4.928232192e-07
-4.884351271e-07
-4.891253921e-07
-4.659037165e-07
-4.609888257e-07
-3.601189066e-07
-3.561698342e-07
-3.633253933e-07
-3.673949904e-07
-3.747922572e-07
-1.301760535e-07
-1.291974625e-07
-1.270807936e-07
-1.239594406e-07
-5.502724011e-08
-3.385055401e-08
-3.43292276e-08
-3.538146021e-08
-3.698071136e-08
-3.912426028e-08
-3.864406887e-08
-3.923943839e-08
-4.054087586e-08
-4.24977932e-08
-4.508215585e-08
-5.119068109e-08
-5.161271537e-08
-5.253202288e-08
-5.390724473e-08
-5.570945406e-08
-5.430418746e-08
-5.455863913e-08
-5.51109131e-08
-5.593321596e-08
-5.700330982e-08
-5.031105112e-08
-5.043083511e-08
-5.06904436e-08
-5.107490508e-08
-5.157149608e-08
-4.273706367e-08
-4.280465793e-08
-4.2950263e-08
-4.316335192e-08
-4.343338974e-08
-3.553281576e-08
-3.556133288e-08
-3.562181047e-08
-3.570752677e-08
-3.581030367e-08
-2.897124634e-08
-2.89716588e-08
-2.897093234e-08
-2.896527074e-08
-2.894899522e-08
-2.314758607e-08
-2.312647129e-08
-2.307851371e-08
-2.300134952e-08
-2.288965479e-08
-1.80173547e-08
-1.797932483e-08
-1.789439442e-08
-1.776167957e-08
-1.75773556e-08
-1.350960956e-08
-1.345800404e-08
-1.334354584e-08
-1.316684964e-08
-1.292492105e-08
-9.454232394e-09
-9.391538703e-09
-9.253029032e-09
-9.040678852e-09
-8.752711194e-09
-5.735346732e-09
-5.66467235e-09
-5.508994432e-09
-5.271572714e-09
-4.951952271e-09
-2.287757473e-09
-2.212779901e-09
-2.048047681e-09
-1.797935618e-09
-1.463319975e-09
8.915118339e-10
9.666742897e-10
1.131425795e-09
1.380556619e-09
1.711983714e-09
3.74520848e-09
3.816341475e-09
3.971909693e-09
4.206261374e-09
4.516385321e-09
6.151680378e-09
6.215284794e-09
6.354083796e-09
6.562410986e-09
6.836702456e-09
7.677605253e-09
7.732276378e-09
7.851370207e-09
8.029588854e-09
8.263270667e-09
2.005035852e-06
1.068526688e-07
-3.504486074e-07
-3.404665912e-07
-5.360724129e-07
-1.205564726e-06
-2.441280601e-06
-3.401408426e-06
-3.768285145e-06
-4.517121553e-06
-5.896798289e-06
-7.248490902e-06
-7.916079925e-06
-8.564234125e-06
-9.78920723e-06
-1.176949472e-05
-1.39826711e-05
-1.547790365e-05
-1.621402129e-05
-1.673858721e-05
-1.729352639e-05
-1.884330529e-05
-2.07822056e-05
-2.258623383e-05
-2.488192741e-05
-2.757393131e-05
-3.127621531e-05
-3.32070045e-05
-2.89579865e-05
-7.276345706e-06
6.906409894e-05
0.0002844500644
0.0008256540832
0.001743663495
0.001985944868
0.0008107500656
-0.0002170303428
-0.0004939566408
-0.0004410216478
-0.0005194298579
-0.0007082467943
-0.0003395061451
-0.0001459250393
-6.280451841e-05
-2.71476395e-05
-1.181464453e-05
-5.193613093e-06
-2.306079142e-06
-1.030127444e-06
-4.488353031e-07
-3.742542819e-07
-5.609307022e-08
-4.096203331e-08
-4.721023645e-08
-5.71707722e-08
-5.786653553e-08
-5.197029798e-08
-4.364498507e-08
-3.588522183e-08
-2.892388972e-08
-2.27896807e-08
-1.741917235e-08
-1.271933329e-08
-8.510460574e-09
-4.68521147e-09
-1.18600325e-09
1.984915621e-09
4.770242219e-09
7.059958262e-09
8.452595878e-09
1.152751926e-05
-4.700556282e-06
1.347518489e-06
4.99513444e-07
6.832246104e-09
-1.778022075e-06
0.0003963841486
-6.030373167e-05
-4.015777987e-07
6.719393551e-08
-2.838934384e-06
0.0001175634024
-9.639971811e-05
-7.5388965e-06
2.942546128e-07
-3.63322048e-06
3.813540723e-05
0.002056613721
-0.0004110328466
-7.4034243e-06
-5.337285669e-06
4.333221782e-06
0.003135603954
-0.0008991715349
-4.796368007e-05
-8.993683414e-06
-1.635929864e-05
0.002170263892
-0.0009879193943
-8.327890944e-05
-1.386242994e-05
-2.387347058e-05
0.001628244669
-0.0009436167292
-0.0001116111674
-1.481350441e-05
-2.444220615e-05
0.0006331392402
0.001104734668
-0.0005900706823
-1.345209996e-05
-2.365380049e-05
0.0002894455166
0.005287529182
-0.001739598377
-1.43375545e-05
-2.994456994e-05
0.0001565081726
0.005466850963
-0.002287615324
-1.707906791e-05
-3.783958571e-05
9.701512095e-05
0.004716578285
-0.002338845485
-1.882367894e-05
-3.953069111e-05
4.586861566e-05
0.002714518411
-0.0009273119006
-1.81927234e-05
-3.509763323e-05
1.646560271e-05
0.001355129803
0.00462911686
-1.788136521e-05
-3.368791942e-05
-2.404996657e-06
0.0008663611679
0.006577583675
-1.907725411e-05
-3.622932133e-05
-1.861145151e-05
0.0006556587637
0.006807447196
-2.142486078e-05
-4.02622748e-05
-2.938383333e-05
0.0005431204528
0.006302663177
-2.353396688e-05
-4.199652861e-05
-3.288060737e-05
0.0004317779535
0.004890323686
-2.38814031e-05
-3.974184445e-05
-2.94371145e-05
0.0003314939569
0.003404485441
-2.31389281e-05
-3.669758768e-05
-2.481526437e-05
0.0002786951643
0.002648716057
-2.297257788e-05
-3.527354685e-05
-2.178621301e-05
0.0002597660389
0.00232158842
-2.366739006e-05
-3.578311154e-05
-1.970365003e-05
0.0002623002122
0.002198457563
-2.508842026e-05
-3.723123761e-05
-1.659604512e-05
0.0002792806281
0.002168698326
-2.70344936e-05
-3.848707892e-05
-1.0361543e-05
0.0003085777802
0.002172606039
-2.92217414e-05
-3.8515646e-05
1.133601634e-06
0.0003523268554
0.002192105814
-3.132356782e-05
-3.638917351e-05
2.069717724e-05
0.0004215111982
0.002278928321
-3.300372686e-05
-3.135641807e-05
5.43495089e-05
0.0005412668737
0.002510390883
-3.48207054e-05
-1.755655477e-05
0.000115658901
0.0007530380184
0.002938607487
-3.166959728e-05
1.133184363e-05
0.0002319760535
0.001116000321
0.003549060085
-1.56492927e-05
7.857590599e-05
0.0004565449891
0.001702910384
0.004210659153
2.72123984e-05
0.0002320883106
0.0008805298813
0.002535171145
0.004606534061
0.0001692141577
0.0005702132978
0.001606329526
0.003412073083
0.004343916135
0.0005092305057
0.001237232219
0.00256091981
0.003769718659
0.003289437261
0.001232734829
0.002190585423
0.003125896884
0.003082370208
0.001791712704
0.002126760252
0.002607434028
0.002485268722
0.001653244678
0.000408952838
0.001936234526
0.001636884595
0.001061265963
0.0003586519631
-0.0005917336913
0.0006174559701
0.0003118943254
-6.594356385e-06
-0.0004199390077
-0.001347986281
-0.0002729883566
-0.000337269691
-0.0004639389487
-0.000907524935
-0.001799089103
-0.000479594567
-0.0004919710265
-0.0007278939288
-0.001376365948
-0.001357603591
-0.0004630325123
-0.000653868623
-0.001122147352
-0.001136771267
-0.0007874880761
-0.0006760714449
-0.0009538497698
-0.0008444648855
-0.0006122132448
-0.0004335209281
-0.0006694656485
-0.0005420432401
-0.000415711232
-0.0003108882464
-0.0002277953354
-0.0003035566189
-0.0002480499859
-0.0001967839404
-0.000152193372
-0.0001151846558
-0.0001327909976
-0.0001115837064
-9.113522502e-05
-7.259680675e-05
-5.659233872e-05
-5.792270278e-05
-4.977777238e-05
-4.165931e-05
-3.404971757e-05
-2.726206089e-05
-2.530235768e-05
-2.214908926e-05
-1.892575332e-05
-1.582297594e-05
-1.298801835e-05
-1.110833588e-05
-9.881003991e-06
-8.604587199e-06
-7.356557663e-06
-6.143754612e-06
-4.922064311e-06
-4.448831869e-06
-3.92269055e-06
-3.410134183e-06
-2.918732922e-06
-2.198958182e-06
-2.007020585e-06
-1.800874708e-06
-1.600626413e-06
-1.385385084e-06
-9.913114811e-07
-9.05221876e-07
-8.414893842e-07
-7.457468159e-07
-8.601508189e-07
-4.31601087e-07
-3.815760176e-07
-3.738355259e-07
-3.409583108e-07
-3.509192965e-07
-1.859261198e-07
-2.990942026e-07
-1.615255003e-07
-1.927238369e-07
-1.065094013e-07
-8.425829077e-08
-7.024761806e-08
-9.693987935e-08
-9.333045695e-08
-9.328811241e-08
-4.348587659e-08
-4.906493874e-08
-5.619104814e-08
-6.488394553e-08
-7.505883005e-08
-5.02850433e-08
-5.633258428e-08
-6.337220045e-08
-7.118249274e-08
-7.947764008e-08
-5.927926657e-08
-6.331804361e-08
-6.787320057e-08
-7.273891506e-08
-7.766978874e-08
-5.910340406e-08
-6.143428871e-08
-6.399068099e-08
-6.638531266e-08
-6.857644061e-08
-5.253120676e-08
-5.356738588e-08
-5.465493674e-08
-5.569282725e-08
-5.6573104e-08
-4.393560523e-08
-4.444271327e-08
-4.492100922e-08
-4.529691714e-08
-4.54865541e-08
-3.597893239e-08
-3.610739277e-08
-3.615543118e-08
-3.607085648e-08
-3.577835118e-08
-2.887258875e-08
-2.87264189e-08
-2.84730651e-08
-2.803382202e-08
-2.733534839e-08
-2.262840263e-08
-2.226193703e-08
-2.174071296e-08
-2.102456527e-08
-2.007191124e-08
-1.717391903e-08
-1.664718319e-08
-1.594718929e-08
-1.504494273e-08
-1.391198216e-08
-1.240567692e-08
-1.175013292e-08
-1.090952496e-08
-9.86516292e-09
-8.601482723e-09
-8.144475759e-09
-7.393673883e-09
-6.454610477e-09
-5.319326557e-09
-3.985003589e-09
-4.285072374e-09
-3.476445945e-09
-2.485309674e-09
-1.314182934e-09
2.804916152e-11
-7.724000818e-10
5.248878866e-11
1.045692147e-09
2.19541176e-09
3.483100572e-09
2.389911628e-09
3.187885464e-09
4.132990511e-09
5.206012667e-09
6.381370643e-09
5.145103237e-09
5.875330754e-09
6.726702257e-09
7.675332834e-09
8.691920019e-09
7.388084564e-09
8.02024099e-09
8.74603425e-09
9.539781793e-09
1.037158903e-08
8.72973322e-09
9.258852421e-09
9.858507153e-09
1.050372663e-08
1.116632459e-08
7.613318919e-13
3.364725798e-15
9.386017943e-18
1.808776353e-19
1.49105282e-20
1.039954912e-21
6.726558691e-23
5.007568948e-24
5.142944057e-25
8.047702638e-26
1.840418916e-26
5.311989812e-27
1.696927386e-27
5.653790694e-28
1.936355517e-28
6.49996768e-29
2.264748441e-29
7.89496988e-30
2.933486815e-30
1.133102142e-30
4.832246458e-31
1.605178158e-31
8.007862301e-32
1.99933052e-32
9.988661357e-33
9.984322042e-33
4.991577466e-33
1.247899193e-33
1.247886005e-33
3.11942673e-34
1.55940287e-34
7.794553989e-35
3.89561782e-35
9.73413334e-36
4.864464452e-36
2.430956956e-36
1.214889938e-36
6.071791725e-37
3.034685175e-37
7.58392137e-38
3.790686238e-38
1.894749763e-38
9.470878822e-39
0
1.183156654e-39
0
0
0
1.846653385e-41
9.23099874e-42
2.307207537e-42
1.153345262e-42
5.765519334e-43
1.441131239e-43
0
1.802015178e-44
0
0
0
0
1.451410691e-10
4.631891112e-13
1.891818161e-15
3.454167572e-17
1.813952044e-18
1.423376658e-19
1.411108505e-20
1.913770233e-21
3.52335492e-22
8.240834535e-23
2.138394134e-23
5.768221878e-24
1.566272784e-24
4.261119533e-25
1.163500151e-25
3.202916684e-26
8.961761594e-27
2.564971633e-27
7.58479406e-28
2.344301011e-28
7.609230837e-29
2.642661878e-29
9.9237421e-30
3.937577279e-30
1.631397877e-30
7.312403887e-31
3.241008797e-31
1.516293753e-31
7.57098795e-32
3.529523809e-32
1.637423859e-32
8.181619624e-33
3.773626432e-33
1.806911223e-33
8.242669759e-34
4.118029535e-34
1.959350713e-34
9.299180153e-35
4.156707908e-35
1.771259191e-35
7.323496116e-36
2.896645751e-36
1.142558969e-36
4.186352964e-37
1.521244083e-37
5.225779853e-38
1.899123242e-38
6.524705114e-39
2.22323823e-39
8.1481796e-40
2.591522186e-40
9.252008328e-41
3.005949621e-41
1.040278923e-41
2.889726281e-42
8.685060378e-43
2.206026964e-43
3.964246432e-44
7.007807123e-45
0
4.467616924e-10
1.723618642e-12
9.494401128e-15
3.404890626e-16
3.062120294e-17
4.26365657e-18
7.561362444e-19
1.747921718e-19
4.707462589e-20
1.371661657e-20
3.960967235e-21
1.117600086e-21
3.024871058e-22
7.900192009e-23
1.998772354e-23
4.957611641e-24
1.222044091e-24
3.04147273e-25
7.779449977e-26
2.081360665e-26
5.917817469e-27
1.815206742e-27
6.051792085e-28
2.200399475e-28
8.700900226e-29
3.663488568e-29
1.636899941e-29
7.581365722e-30
3.604054922e-30
1.733832177e-30
8.496627518e-31
4.139991944e-31
2.042496103e-31
1.007636911e-31
4.937602291e-32
2.425929675e-32
1.183197097e-32
5.626299913e-33
2.598596882e-33
1.147572019e-33
4.833199984e-34
1.929060963e-34
7.403471114e-35
2.739811157e-35
9.832898232e-36
3.489549411e-36
1.225375568e-36
4.255061693e-37
1.480634985e-37
5.041007996e-38
1.699235793e-38
5.661285432e-39
1.842750875e-39
5.721632252e-40
1.675177142e-40
4.440429445e-41
9.31119907e-42
1.340152682e-42
6.168532643e-44
0
-1.769342633e-08
4.131591329e-11
1.438225344e-13
3.310535671e-15
3.922701859e-16
8.423927685e-17
2.252178935e-17
6.8481279e-18
2.209705557e-18
7.235299342e-19
2.311235648e-19
7.124333962e-20
2.090793482e-20
5.848326711e-21
1.555940031e-21
3.96587518e-22
9.748270077e-23
2.344504909e-23
5.610485738e-24
1.366520074e-24
3.472197397e-25
9.43394185e-26
2.798065256e-26
9.171615626e-27
3.325265529e-27
1.317494481e-27
5.613121984e-28
2.519318449e-28
1.174080983e-28
5.610384788e-29
2.721121422e-29
1.334547894e-29
6.601424136e-30
3.291898385e-30
1.652536158e-30
8.300091726e-31
4.142893224e-31
2.02674915e-31
9.5830137e-32
4.333399247e-32
1.859141799e-32
7.585129616e-33
2.952254386e-33
1.106274296e-33
4.040211341e-34
1.448738301e-34
5.136903817e-35
1.811717757e-35
6.318433721e-36
2.186956603e-36
7.44992769e-37
2.486487772e-37
8.078129918e-38
2.509877182e-38
7.274400153e-39
1.858103732e-39
3.784690586e-40
4.815634004e-41
2.385367536e-42
3.639762109e-44
-2.811493791e-07
8.349323109e-10
4.163833012e-12
3.736835898e-14
4.130407001e-15
1.125462155e-15
3.724810499e-16
1.297091527e-16
4.641552173e-17
1.670676272e-17
5.927395047e-18
2.047404678e-18
6.800904185e-19
2.162963784e-19
6.539646125e-20
1.881390085e-20
5.143740824e-21
1.345661437e-21
3.390237117e-22
8.357424543e-23
2.052339415e-23
5.157222185e-24
1.36364431e-24
3.905083769e-25
1.235168984e-25
4.337820439e-26
1.673790099e-26
6.959601025e-27
3.055791613e-27
1.393722313e-27
6.529070119e-28
3.120217377e-28
1.516764226e-28
7.495449099e-29
3.763637381e-29
1.91167445e-29
9.719693253e-30
4.870513262e-30
2.365459868e-30
1.097777602e-30
4.832402013e-31
2.015456951e-31
8.002842615e-32
3.05572987e-32
1.135233951e-32
4.143520405e-33
1.496937187e-33
5.365397683e-34
1.906365915e-34
6.701938878e-35
2.321785099e-35
7.884916068e-36
2.601273938e-36
8.205797413e-37
2.402020637e-37
6.163979327e-38
1.241647847e-38
1.533483126e-39
6.630043241e-41
5.672416596e-43
-1.375245307e-06
-5.672411295e-09
8.901792375e-11
6.580052535e-13
4.225192595e-14
1.035379925e-14
3.551334616e-15
1.31899723e-15
5.076287413e-16
1.990226472e-16
7.816286367e-17
3.034597686e-17
1.151585591e-17
4.237275465e-18
1.499851556e-18
5.080732716e-19
1.638978737e-19
5.030662609e-20
1.467308925e-20
4.090204708e-21
1.096927518e-21
2.875225349e-22
7.495038273e-23
1.994931144e-23
5.57206581e-24
1.679609453e-24
5.549529163e-25
2.010528225e-25
7.878951285e-26
3.279489613e-26
1.427014257e-26
6.422543556e-27
2.974357787e-27
1.416119817e-27
6.937327177e-28
3.487765679e-28
1.780404606e-28
9.063602156e-29
4.506546332e-29
2.149475569e-29
9.718597341e-30
4.149924324e-30
1.680166354e-30
6.516306063e-31
2.454852594e-31
9.097993587e-32
3.344025115e-32
1.221885655e-32
4.433121842e-33
1.591703663e-33
5.631574994e-34
1.952297028e-34
6.573668411e-35
2.115768077e-35
6.318695627e-36
1.654399411e-36
3.404687528e-37
4.326218863e-38
1.935873335e-39
1.901805895e-41
-5.042842907e-06
-1.623417398e-07
5.86791789e-10
1.495695516e-11
3.620258433e-13
5.658723992e-14
1.786626237e-14
6.832424292e-15
2.801002672e-15
1.185808761e-15
5.09249614e-16
2.192243555e-16
9.371380584e-17
3.946502793e-17
1.625725803e-17
6.509379659e-18
2.515852935e-18
9.328902701e-19
3.30100284e-19
1.112172153e-19
3.564315663e-20
1.090600685e-20
3.203415619e-21
9.141506854e-22
2.574500432e-22
7.328642958e-23
2.161299835e-23
6.765603569e-24
2.280136942e-24
8.285896171e-25
3.214700011e-25
1.314215896e-25
5.605050398e-26
2.48303868e-26
1.143770753e-26
5.490754357e-27
2.729941632e-27
1.380163018e-27
6.929418996e-28
3.375880023e-28
1.567463308e-28
6.873311504e-29
2.844595161e-29
1.119583602e-29
4.254020624e-30
1.587081961e-30
5.882966983e-31
2.176667492e-31
8.031054858e-32
2.942999974e-32
1.065232084e-32
3.782538295e-33
1.304999504e-33
4.305452352e-34
1.320374966e-34
3.569065623e-35
7.66360261e-36
1.042946639e-36
5.337065637e-38
7.592984317e-40
-4.878233881e-05
-1.594950905e-06
-1.219592987e-08
2.336326241e-10
4.514609428e-12
2.956366396e-13
6.499885763e-14
2.295760423e-14
9.473517529e-15
4.161458069e-15
1.888977625e-15
8.701979262e-16
4.026589706e-16
1.858097191e-16
8.500704573e-17
3.835680633e-17
1.69876972e-17
7.351742733e-18
3.090965101e-18
1.255698667e-18
4.901012715e-19
1.828699736e-19
6.497995977e-20
2.198748616e-20
7.113918072e-21
2.221364414e-21
6.783655893e-22
2.06446709e-22
6.399809373e-23
2.06719201e-23
7.062182814e-24
2.565116709e-24
9.864218488e-25
3.986959764e-25
1.685670568e-25
7.469242306e-26
3.477507597e-26
1.68215248e-26
8.26801779e-27
4.031290717e-27
1.906830901e-27
8.595968862e-28
3.659050777e-28
1.471226713e-28
5.653808547e-29
2.11663888e-29
7.848851471e-30
2.908506748e-30
1.079432187e-30
4.002018346e-31
1.474129091e-31
5.353075831e-32
1.895637038e-32
6.437718692e-33
2.039128588e-33
5.73128712e-34
1.297249959e-34
1.915819838e-35
1.145233492e-36
2.367502822e-38
-0.0001802916481
-6.681176735e-06
-2.191886631e-07
1.483573381e-09
6.028195141e-11
1.887330579e-12
2.257454017e-13
6.279135523e-14
2.436433617e-14
1.072414198e-14
5.005335783e-15
2.411284617e-15
1.180036006e-15
5.81400876e-16
2.865521451e-16
1.405567094e-16
6.831177594e-17
3.276832824e-17
1.545801339e-17
7.136750501e-18
3.212014162e-18
1.402955404e-18
5.922090143e-19
2.40372077e-19
9.338069119e-20
3.463448388e-20
1.225388621e-20
4.154164102e-21
1.363774275e-21
4.408379114e-22
1.431492525e-22
4.77063186e-23
1.660012864e-23
6.086284705e-24
2.351713994e-24
9.543963216e-25
4.067339492e-25
1.819255143e-25
8.424598774e-26
3.957720558e-26
1.851155741e-26
8.471990698e-27
3.724811058e-27
1.550893627e-27
6.101115896e-28
2.307228478e-28
8.565646505e-29
3.162636986e-29
1.168920201e-29
4.33292672e-30
1.607139763e-30
5.926055475e-31
2.14800266e-31
7.519131325e-32
2.472021898e-32
7.275459385e-33
1.75088955e-33
2.835791451e-34
2.003464537e-35
5.786902857e-37
-0.0002911840719
-2.229588973e-05
-1.118693924e-06
-1.967897301e-08
5.790293711e-10
1.670999826e-11
9.247894523e-13
1.688532534e-13
5.586592027e-14
2.34252615e-14
1.093923176e-14
5.396517636e-15
2.7440185e-15
1.419509775e-15
7.406662295e-16
3.872746123e-16
2.018376949e-16
1.044508274e-16
5.350225802e-17
2.703003048e-17
1.34106178e-17
6.517946849e-18
3.090507959e-18
1.423657714e-18
6.34389548e-19
2.723464791e-19
1.122906731e-19
4.434784641e-20
1.675237612e-20
6.063178949e-21
2.115669231e-21
7.209687172e-22
2.446668374e-22
8.453023006e-23
3.031745403e-23
1.140203329e-23
4.493188704e-24
1.850623301e-24
7.929501929e-25
3.497086674e-25
1.561484658e-25
6.970827393e-26
3.078704345e-26
1.325104056e-26
5.444750067e-27
2.121090029e-27
7.963108131e-28
2.938557253e-28
1.079183899e-28
3.96928047e-29
1.465995822e-29
5.426326196e-30
1.995856182e-30
7.171054992e-31
2.447666996e-31
7.576621705e-32
1.952047877e-32
3.499155224e-33
2.94854042e-34
1.14041525e-35
-0.0003472492821
-4.112614608e-05
-2.903053685e-06
-1.773183983e-07
5.483608604e-10
1.255873857e-10
4.82213879e-12
4.940187165e-13
1.243392341e-13
4.720978514e-14
2.141522559e-14
1.060352669e-14
5.516689653e-15
2.957195465e-15
1.612513514e-15
8.866292452e-16
4.884907255e-16
2.681906972e-16
1.464021835e-16
7.926399919e-17
4.234788487e-17
2.225911041e-17
1.147071532e-17
5.774087701e-18
2.828468089e-18
1.343297135e-18
6.163847048e-19
2.724751578e-19
1.157494386e-19
4.718125065e-20
1.846074217e-20
6.950730161e-21
2.53318038e-21
9.044655629e-22
3.224545191e-22
1.171915805e-22
4.404980843e-23
1.718199829e-23
6.940072866e-24
2.885744463e-24
1.225825962e-24
5.259004895e-25
2.257229641e-25
9.633416342e-26
4.051729942e-26
1.650096539e-26
6.430056252e-27
2.409794679e-27
8.832687223e-28
3.217271567e-28
1.176045022e-28
4.327903836e-29
1.597214742e-29
5.833049428e-30
2.054830207e-30
6.680184932e-31
1.849022762e-31
3.692774273e-32
3.735874255e-33
1.863769488e-34
-0.0006240965234
-9.242721059e-05
-8.110939708e-06
-6.927358381e-07
-2.005937939e-08
7.246007368e-10
3.994107254e-11
2.134350559e-12
3.109270986e-13
9.31731301e-14
3.886325732e-14
1.88229771e-14
9.858625845e-15
5.405726887e-15
3.04259148e-15
1.740067835e-15
1.003338784e-15
5.792690983e-16
3.332915107e-16
1.906561595e-16
1.079539509e-16
6.026048406e-17
3.306889646e-17
1.778201482e-17
9.338195674e-18
4.772961864e-18
2.366515871e-18
1.134697728e-18
5.24714024e-19
2.335230999e-19
9.991486222e-20
4.111532765e-20
1.630957894e-20
6.269759416e-21
2.358287636e-21
8.80673516e-22
3.319744771e-22
1.280808297e-22
5.089880456e-23
2.075455963e-23
8.627842396e-24
3.629424996e-24
1.531152552e-24
6.430528269e-25
2.678772163e-25
1.102661389e-25
4.441413311e-26
1.731150257e-26
6.499210022e-27
2.372817051e-27
8.577861743e-28
3.117089877e-28
1.143225914e-28
4.197247857e-29
1.510048458e-29
5.118779753e-30
1.519888385e-30
3.397033674e-31
4.149035591e-32
2.594200917e-33
-0.001694647986
-0.000262812493
-2.629994888e-05
-1.507435623e-06
-9.983004362e-08
6.090179659e-10
3.058035793e-10
1.509863127e-11
1.073662098e-12
1.965251708e-13
6.612084905e-14
2.967567851e-14
1.516255635e-14
8.371998156e-15
4.7832655e-15
2.833681193e-15
1.699584972e-15
1.023358956e-15
6.151802537e-16
3.681261435e-16
2.182958012e-16
1.278403656e-16
7.375656665e-17
4.179664475e-17
2.319190701e-17
1.255982093e-17
6.617172824e-18
3.380893356e-18
1.670359423e-18
7.961592554e-19
3.655643168e-19
1.616357064e-19
6.888879767e-20
2.838801001e-20
1.13797547e-20
4.479455231e-21
1.753230067e-21
6.916037256e-22
2.781214272e-22
1.148195215e-22
4.856353978e-23
2.085632251e-23
8.974063512e-24
3.821311199e-24
1.602814095e-24
6.612117635e-25
2.678350547e-25
1.064652463e-25
4.132442244e-26
1.555706683e-26
5.697026814e-27
2.05839036e-27
7.456944787e-28
2.721686333e-28
9.882220446e-29
3.4561507e-29
1.094247023e-29
2.746129791e-30
4.075543139e-31
3.136173643e-32
-0.00245303898
-0.0004263900527
-6.160621654e-05
-4.228019169e-06
-4.315277278e-07
-1.422980232e-08
1.112575238e-09
1.126932314e-10
6.198677671e-12
5.537119138e-13
1.142092246e-13
4.087445361e-14
1.919086729e-14
1.036324018e-14
5.91643793e-15
3.566608227e-15
2.188307051e-15
1.354437544e-15
8.40938075e-16
5.208678336e-16
3.203043574e-16
1.951447836e-16
1.174907851e-16
6.972694441e-17
4.067568883e-17
2.324802268e-17
1.296975591e-17
7.035442312e-18
3.697838399e-18
1.878000154e-18
9.195640731e-19
4.336425338e-19
1.971128497e-19
8.659932423e-20
3.695071966e-20
1.542433059e-20
6.360454993e-21
2.621763755e-21
1.093491817e-21
4.66019491e-22
2.037763535e-22
9.100571735e-23
4.104717793e-23
1.840388129e-23
8.086235299e-24
3.452216772e-24
1.428881276e-24
5.745040238e-25
2.256688584e-25
8.681899997e-26
3.269260172e-26
1.205408212e-26
4.38948459e-27
1.596680291e-27
5.807408246e-28
2.072681552e-28
6.920112682e-29
1.939974626e-29
3.510524267e-30
3.316907717e-31
-0.002804929705
-0.000538596533
-9.931118413e-05
-1.058936765e-05
-1.181643313e-06
-8.815531069e-08
-4.007228386e-10
5.303891304e-10
4.754107785e-11
3.009224691e-12
2.925237816e-13
5.990084003e-14
2.088442962e-14
9.93176043e-15
5.427494144e-15
3.190821988e-15
1.954282485e-15
1.22475444e-15
7.748182268e-16
4.920207414e-16
3.120769801e-16
1.969835385e-16
1.233592006e-16
7.643715529e-17
4.67349563e-17
2.811415863e-17
1.658621232e-17
9.560136595e-18
5.360102746e-18
2.911375829e-18
1.527873132e-18
7.730824406e-19
3.7662993e-19
1.769976534e-19
8.063084579e-20
3.583725933e-20
1.568661179e-20
6.841269795e-21
3.007899317e-21
1.347438514e-21
6.192326191e-22
2.919939478e-22
1.401214132e-22
6.740507821e-23
3.189933434e-23
1.460818586e-23
6.406846765e-24
2.684280273e-24
1.079555588e-24
4.211330305e-25
1.606607255e-25
6.035735214e-26
2.239726396e-26
8.26313826e-27
3.043422116e-27
1.109101741e-27
3.869582212e-28
1.192937785e-28
2.609193387e-29
3.06225446e-30
-0.00285564045
-0.0006187958389
-0.0001313493018
-1.977349497e-05
-2.438125871e-06
-3.33748142e-07
-1.763874555e-08
8.308446965e-10
2.495891912e-10
2.509056124e-11
1.781676162e-12
1.563874938e-13
2.699213806e-14
8.531252349e-15
3.843020147e-15
2.065751177e-15
1.211962693e-15
7.469158227e-16
4.735674657e-16
3.051247818e-16
1.982032741e-16
1.290831e-16
8.392904096e-17
5.428668212e-17
3.481573833e-17
2.206476058e-17
1.376930443e-17