/*--------------------------------*- C++ -*----------------------------------*\
  =========                 |
  \\      /  F ield         | OpenFOAM: The Open Source CFD Toolbox
   \\    /   O peration     | Website:  https://openfoam.org
    \\  /    A nd           | Version:  10
     \\/     M anipulation  |
\*---------------------------------------------------------------------------*/
FoamFile
{
    format      ascii;
    class       volScalarField;
    location    "3000";
    object      RR.H2O;
}
// * * * * * * * * * * * * * * * * * * * * * * * * * * * * * * * * * * * * * //

dimensions      [1 -3 -1 0 0 0 0];

internalField   nonuniform List<scalar> 
5170
(
3.673822546e-47
3.694469111e-47
3.80940981e-47
4.376044984e-47
7.35177461e-47
7.450213848e-47
7.524629684e-47
7.924329306e-47
9.733891762e-47
1.492682452e-46
1.150046707e-46
1.170082998e-46
1.260247728e-46
1.615032434e-46
2.234814951e-46
1.581290576e-46
1.623117713e-46
1.789069961e-46
2.354544797e-46
2.990890072e-46
2.037511673e-46
2.10997133e-46
2.374959101e-46
3.179327145e-46
3.764111001e-46
2.75368498e-46
2.821190159e-46
3.156552966e-46
4.373130798e-46
6.33819611e-46
9.123606194e-45
7.567068031e-45
6.381236862e-45
1.748527047e-44
1.097633542e-43
3.481544453e-42
2.927419546e-42
2.846637366e-42
9.839019195e-42
6.595697358e-41
1.439203535e-39
1.251185008e-39
1.42146915e-39
5.778065925e-39
3.95332833e-38
6.317758165e-37
5.715510714e-37
7.446199269e-37
3.46691519e-36
2.400337827e-35
2.986437002e-34
2.8296549e-34
4.114401922e-34
2.159163036e-33
1.540027238e-32
1.538679346e-31
1.55214511e-31
2.473278662e-31
1.46215054e-30
1.129221133e-29
8.72447065e-29
9.695484337e-29
1.728897462e-28
1.200964437e-27
1.036089766e-26
5.430158981e-26
6.999605243e-26
1.522069096e-25
1.343093405e-24
1.211923026e-23
3.657246163e-23
5.839944601e-23
1.737893499e-22
2.006754651e-21
1.677256483e-20
2.59914122e-20
5.39546062e-20
2.369924305e-19
3.388685744e-18
2.524163841e-17
1.879865728e-17
5.343974221e-17
3.414192736e-16
5.614720226e-15
3.937249822e-14
1.350902448e-14
5.375433154e-14
4.884821753e-13
8.859598277e-12
6.229211122e-11
8.86730019e-12
5.170835505e-11
6.452710719e-10
1.229337969e-08
9.924432177e-08
4.963818566e-09
4.718205535e-08
8.233779779e-07
1.55408256e-05
0.0001609272282
0.3693601159
0.3121982572
0.2898968213
0.3221359488
0.368792005
0.1905042315
0.1982285341
0.1934609019
0.1977395804
0.1809569595
0.1124440013
0.1308039842
0.1302162584
0.1252209064
0.1008341851
0.07388254723
0.09021305751
0.09254424964
0.08763988925
0.06387280058
0.05177282348
0.06599650637
0.06831796677
0.06427476427
0.04384337932
0.03780637041
0.04972267403
0.05213198349
0.04838987768
0.0314583201
0.02864792417
0.03857788749
0.04071597668
0.03708813105
0.02342752937
0.02217457805
0.03040713809
0.03228906527
0.02854559987
0.01771317716
0.01742034418
0.02406716936
0.02565737093
0.02201378452
0.01354234677
0.01387547363
0.01920192992
0.02040294182
0.01709173988
0.01051603926
0.01117545153
0.01540102878
0.01627759261
0.01340556549
0.008330548165
0.009111242796
0.01244010786
0.01305350402
0.01064552482
0.006741048184
0.007525537916
0.01012528941
0.01055494177
0.008591180739
0.005592262177
0.00632601096
0.008346972841
0.00863703109
0.007073267692
0.004769853056
0.005418987036
0.006977198366
0.007177845864
0.005963362696
0.004191648161
0.004753722038
0.005945486742
0.006082096386
0.005154386572
0.003787653748
0.004278729852
0.0051744914
0.005276635195
0.004584167953
0.003527887466
0.004005255913
0.004623540457
0.004705057175
0.004201321967
0.003386661956
0.006024608495
0.004743706525
0.004424175681
0.003971474869
0.003336598264
1.14187805
0.068339718
0.01180783387
0.005410378291
0.004565559368
4.296042956e-07
6.105071974e-06
0.0002300979005
0.01079412433
0.6417016212
1.201025288e-06
1.433975228e-05
0.0004323125735
0.01417463641
0.2925334271
2.339136915e-06
2.653436072e-05
0.0007159636479
0.01663693303
0.1627114042
4.580259742e-06
5.226796895e-05
0.001248115911
0.0196409083
0.1130610997
9.536236757e-06
0.0001054575671
0.002073134846
0.02193495275
0.08816300929
2.082026444e-05
0.0002096731884
0.003267891718
0.02431924969
0.07917097884
4.821842898e-05
0.0004315019047
0.005193417975
0.02839039724
0.08230678595
0.000113973547
0.0008949944242
0.007942217301
0.03275118873
0.08555333675
0.0002637785517
0.001755531391
0.01113466675
0.0358685124
0.08448556081
0.0005799420553
0.003138325114
0.01442319226
0.03855594893
0.08489192652
0.001227883922
0.005080000956
0.01761785702
0.04160375638
0.0885106214
0.002340448185
0.007381867795
0.02062802279
0.04467756355
0.09187239228
0.004040083522
0.009963952033
0.023554028
0.04736093168
0.09326664671
0.006458516463
0.01287628353
0.02660297815
0.05014596933
0.09532730512
0.009784947338
0.01630844365
0.03012723113
0.05418980635
0.1003495368
0.01413515158
0.02054985851
0.03452612284
0.05971841294
0.1092168747
0.01959219316
0.02584970614
0.04006970331
0.06690720671
0.1213889756
0.0258588777
0.03195938346
0.04656117876
0.07426907937
0.1304688959
0.03262502039
0.03870458456
0.05332150013
0.08072205126
0.1373889287
0.03945408347
0.04533217793
0.05955813271
0.08813504227
0.1450041402
0.04522535167
0.0509542858
0.06557494853
0.09663472022
0.1568219378
0.05011751116
0.05537597632
0.07362354909
0.108038103
0.1681895031
0.05633374606
0.06410383788
0.08401899669
0.1214619932
0.1776741894
0.0657368787
0.07498941699
0.09820297673
0.1354685458
0.2052284734
0.08036677057
0.09173418562
0.1133644044
0.1618758769
0.2216685803
0.1033157685
0.117395292
0.1526227993
0.1969829386
0.2660647806
0.1406526936
0.158512594
0.2003487544
0.2686440382
0.3789480766
0.2012137531
0.2244282732
0.2811669095
0.3588314901
0.5018340745
0.28990352
0.3166756161
0.406173766
0.5393785449
0.739156804
0.4543844791
0.5065261561
0.5988382135
0.7635225885
1.03571002
0.7532389841
0.80733102
0.9481549437
1.188237468
1.51756442
1.338261768
1.429095683
1.631877837
1.956711226
2.494467433
2.477284317
2.615022262
2.949808294
3.409684042
4.176051175
4.526095993
4.708141421
5.118208059
5.765470286
6.659789064
7.332664373
7.480497176
7.804582757
8.291254842
8.884026636
8.577057015
8.617466924
8.70407045
8.775742833
8.852726273
7.195044813
7.167811694
7.112524987
7.023690602
6.915464425
4.950081556
4.929924912
4.892889793
4.847714318
4.811456337
3.235175593
3.24376251
3.267445701
3.316014422
3.405839724
2.319317721
2.353966215
2.433651576
2.564836567
2.757947008
2.0418019
2.091527259
2.20091206
2.365116229
2.569183802
1.955159587
1.983067652
2.039966003
2.118085054
2.211745193
1.760826855
1.781574453
1.825729143
1.889348232
1.968246446
1.664497503
1.679221009
1.710318727
1.754553854
1.808382803
1.553103015
1.561819821
1.595915896
1.620729336
1.649240132
1.408593414
1.412707156
1.421403243
1.432799788
1.446973958
1.224433366
1.226136397
1.229590003
1.234112545
1.238908616
1.034371548
1.034652487
1.035115668
1.035438691
1.035199208
0.8543880688
0.8539837631
0.8530126918
0.8513131143
0.8487406041
0.6922531076
0.6916039639
0.6901474134
0.6878392337
0.6846082236
0.5526291819
0.552003606
0.5496818003
0.5479847821
0.5327866663
0.4287577988
0.4280709514
0.4265536051
0.4242246215
0.4292076348
0.3357424427
0.3352155668
0.3340605097
0.3323122528
0.3299836141
0.259981956
0.2595732649
0.2586772963
0.2573210015
0.2555122247
0.1994997707
0.1991869047
0.1985016726
0.1974652742
0.1960845411
0.1520954027
0.1518609042
0.151347514
0.150571714
0.1495393862
0.1154960042
0.1153233358
0.1149456502
0.1143754344
0.1136175329
0.08756201093
0.0874370282
0.08716374945
0.08675149908
0.08620415246
0.06641777439
0.06632872231
0.06613417608
0.06584097444
0.06545215785
0.05049809319
0.05043582303
0.05029985512
0.05009514119
0.04982402574
0.03854901637
0.03850644786
0.03841360032
0.03827398906
0.03808939433
0.02958959472
0.02956141428
0.02950000428
0.02940780552
0.02928612643
0.02287073495
0.02285291488
0.02281415017
0.02275606373
0.02267958742
0.01782275452
0.01781231144
0.01778964037
0.01775576202
0.01771129907
0.01402486332
0.01401953573
0.0140080255
0.0139909099
0.01396856332
0.01115249806
0.01115061004
0.01114658347
0.0111406781
0.01113307518
0.008979413285
0.008979689641
0.008980369403
0.008981493003
0.008983090908
0.007306244816
0.007307759234
0.007311114204
0.00731620756
0.007322964464
0.006038179124
0.006040251554
0.006044807426
0.006051663659
0.006060674742
0.005041528945
0.0050437748
0.005048696267
0.005056076123
0.005065742103
2.78670093
1.561705273
0.5074637301
0.2589172563
0.1783476707
0.1629721632
0.1808666315
0.1792209409
0.163230133
0.1589613015
0.1671345242
0.1706229335
0.1653613227
0.1641384498
0.1721409419
0.1870633969
0.2018823666
0.208877237
0.2125284322
0.2198072786
0.2232589609
0.2341277494
0.2623166989
0.2649638922
0.3011652105
0.3623383531
0.5101924577
0.6674217566
0.8922632362
1.286771023
1.880984559
3.013687101
4.870853259
7.400299843
9.292763384
8.886194315
6.846338724
4.812864387
3.51080133
2.93845727
2.718457125
2.28679605
2.030475974
1.849714578
1.671026723
1.457413573
1.242068876
1.034595431
0.8464299012
0.6818763984
0.5419690796
0.4268731616
0.3280981137
0.254042604
0.1949641477
0.1487028505
0.1130041139
0.08576165574
0.06513824883
0.04960552255
0.03794098953
0.02918863222
0.02261864154
0.01767616577
0.01395121706
0.01112752265
0.008984848909
0.007328759188
0.006068177089
0.005073698965
5.972375565
30.23937916
1.37549499
0.1183658285
0.05326583735
1.977667781
10.01972652
14.374915
1.09335476
0.1185871504
1.128978521
5.412986424
32.28834064
3.961936311
0.4343105078
0.5926301391
2.722464141
35.92806924
9.247725779
1.633772417
0.376027611
1.815573197
25.26124144
18.15970233
3.44098565
0.3803878274
1.847654891
18.02645249
30.95847776
6.160692346
0.4533116694
1.96966776
14.50580571
43.80232671
9.543452547
0.4178170404
1.530460396
8.984309536
50.80313296
14.19353034
0.3484196072
1.136903119
5.934346725
39.55122505
24.63655813
0.3316123667
1.035688257
5.039769659
30.22639382
36.8989994
0.3435077255
1.025887049
4.588760123
24.01113657
47.5282977
0.3376225301
0.9455173113
3.753354746
17.19659647
55.26226403
0.3114661997
0.8014780645
2.874078621
11.78287859
47.34927785
0.3006165973
0.7283933051
2.49032048
9.551873161
38.31551175
0.3090532389
0.7242466835
2.358264782
8.511534888
32.10208396
0.3260690694
0.7483801238
2.296188152
7.746033986
27.12155747
0.3411699215
0.7424606288
2.151921074
6.752648535
22.0075751
0.3414323154
0.7006197102
1.930667153
5.693370791
17.54664963
0.305633012
0.6651277475
1.782699107
5.059228001
15.05832538
0.3148719942
0.6640816409
1.743009488
4.802697623
13.81447406
0.3305503064
0.6951025582
1.78076491
4.751314299
13.11081318
0.3301495657
0.7470797524
1.853598388
4.76485894
12.57159565
0.3569585018
0.8102135435
1.938156766
4.793026422
12.08318759
0.3992571991
0.884679946
2.036958833
4.845507252
11.66090221
0.4583683265
0.9787739536
2.171077085
4.980005649
11.45635935
0.5420062329
1.254038975
2.390294738
5.30162939
11.64441212
0.7405758168
1.433331082
2.758967523
5.914325935
12.30074142
0.9577782312
1.662378193
3.34866837
6.889438461
13.34525887
1.266001716
2.190621277
4.255417618
8.271749973
14.59099317
1.870733471
3.024625163
5.588205447
10.00639385
15.70364762
2.538999789
4.318177787
7.401292274
11.83070329
16.28063608
3.932599738
6.200172151
9.517391033
13.21153151
16.00420491
6.039997563
8.507417322
11.29495316
13.53540719
14.82595879
8.495480078
10.33428052
11.78668037
12.56221523
13.03396235
9.797456717
10.40245142
10.64035425
10.71076754
11.1218548
8.847899674
8.727965123
8.605342629
8.757457975
9.467336713
6.710972103
6.601398797
6.718039547
7.257252955
8.016944533
4.810473564
4.998734052
5.482854503
6.222119761
6.356419849
3.668834775
4.133254582
4.777830568
5.098900629
4.920617853
3.190650545
3.699714497
3.955447537
3.984264077
3.986925791
2.854503393
3.027680986
3.166453263
3.283244493
3.348513627
2.37437969
2.540084142
2.692461866
2.805814753
2.859174684
2.10643811
2.237772126
2.348683685
2.421596706
2.445164983
1.89991793
1.981731439
2.044780467
2.078458595
2.075972705
1.687344697
1.729106016
1.756218789
1.762240141
1.74369737
1.463610457
1.482905242
1.483823421
1.476646614
1.452624517
1.244237088
1.244538207
1.236725297
1.219522365
1.191327249
1.032210425
1.025379457
1.012865257
0.9935810045
0.9672522441
0.8421329989
0.8326694497
0.8191343674
0.8010596764
0.7756384278
0.677293009
0.6678627608
0.6547234968
0.6379703321
0.6193104695
0.5374073
0.5289744715
0.518165132
0.5050767033
0.489533525
0.422809571
0.4164325568
0.3995853866
0.389375565
0.3774607157
0.3251534094
0.3194510246
0.3125424517
0.3044163848
0.2951201802
0.2517464387
0.2472946186
0.2419193528
0.2356534545
0.2285459049
0.1932146704
0.1898319914
0.1857635427
0.1810438047
0.1757170345
0.1473976536
0.1448803272
0.141862386
0.1383745443
0.134454155
0.1120480065
0.1102079146
0.1080083528
0.105474675
0.1026372442
0.0850727081
0.08374954052
0.08217251252
0.08036208975
0.07834225476
0.06464994504
0.0637143638
0.06260276725
0.0613312633
0.05991826334
0.04926574483
0.04861668952
0.04784810752
0.04697269118
0.04600453994
0.03771007451
0.03727082695
0.03675283072
0.03616531872
0.0355183401
0.02903655412
0.02874888868
0.02841108635
0.02802970234
0.02761159589
0.02252301931
0.02234360227
0.02213388098
0.02189820564
0.02164087192
0.01762034482
0.01751692678
0.01739659408
0.01726189588
0.01711508944
0.01392278083
0.01387136101
0.01381175289
0.01374507531
0.01367200238
0.01111725862
0.01110001378
0.01107994642
0.01105706454
0.01103087526
0.008985875385
0.008989614253
0.008993507804
0.008996769054
0.008998085567
0.00733608994
0.007351231795
0.007367886961
0.007384738597
0.00739998402
0.006078253782
0.006098090408
0.006119762626
0.006141664057
0.006161760654
0.005084650233
0.005105808126
0.005128880011
0.005152208598
0.005173745266
0.003492571369
4.324189585e-05
1.158774291e-06
5.225072954e-08
3.651570849e-09
2.876220711e-10
2.537743697e-11
3.02690358e-12
5.29125802e-13
1.358573125e-13
4.916987112e-14
2.215525268e-14
1.101976712e-14
5.682017448e-15
2.965465383e-15
1.555464901e-15
8.200326569e-16
4.35633951e-16
2.340722587e-16
1.276916501e-16
7.098404268e-17
4.03417567e-17
2.349876291e-17
1.404920973e-17
8.621486121e-18
5.419921896e-18
3.475806718e-18
2.260098343e-18
1.479733373e-18
9.690935141e-19
6.316496163e-19
4.0854307e-19
2.619771262e-19
1.66631782e-19
1.051873109e-19
6.584252543e-20
4.073345045e-20
2.47645405e-20
1.469552042e-20
8.460012689e-21
4.707348144e-21
2.530681957e-21
1.318558985e-21
6.698273157e-22
3.343407764e-22
1.653070531e-22
8.15499548e-23
4.036890577e-23
2.013023301e-23
1.013325199e-23
5.150473092e-24
2.637657233e-24
1.353040279e-24
6.866787359e-25
3.365359552e-25
1.518442914e-25
5.690032738e-26
1.418885462e-26
1.191189765e-27
1.17296457e-29
0.00368176139
7.856672825e-05
3.101709747e-06
1.860752444e-07
1.753318603e-08
2.315327541e-09
4.047741298e-10
9.534609123e-11
2.996634566e-11
1.178821835e-11
5.128298683e-12
2.314290385e-12
1.052895359e-12
4.811158753e-13
2.213706766e-13
1.030918982e-13
4.885763102e-14
2.367156335e-14
1.177389548e-14
6.030293796e-15
3.188377977e-15
1.74367873e-15
9.876451754e-16
5.793829151e-16
3.51480074e-16
2.197038237e-16
1.406764074e-16
9.156571035e-17
6.009308271e-17
3.947092761e-17
2.580690918e-17
1.674656891e-17
1.07774321e-17
6.883278554e-18
4.366150874e-18
2.748446259e-18
1.711029034e-18
1.047088217e-18
6.253468495e-19
3.621528343e-19
2.026004241e-19
1.094578073e-19
5.729999269e-20
2.92461246e-20
1.466987088e-20
7.291029065e-21
3.616544686e-21
1.800404128e-21
9.029028178e-22
4.570167936e-22
2.335043326e-22
1.201736608e-22
6.193306637e-23
3.156614158e-23
1.552928622e-23
7.03680704e-24
2.667356958e-24
6.938282605e-25
7.27024278e-26
1.354823192e-27
0.007896640298
0.0001132451691
3.431906179e-06
3.166642135e-07
5.488067817e-08
1.348814059e-08
4.086093701e-09
1.562554083e-09
6.93969389e-10
3.316218438e-10
1.581952067e-10
7.42240673e-11
3.383599552e-11
1.508205358e-11
6.610792254e-12
2.881314147e-12
1.263138776e-12
5.634493056e-13
2.585000261e-13
1.229578322e-13
6.09806844e-14
3.163069785e-14
1.718482109e-14
9.772397291e-15
5.799697637e-15
3.572618073e-15
2.266501617e-15
1.467185572e-15
9.602218051e-16
6.303538098e-16
4.127409889e-16
2.687663289e-16
1.739323161e-16
1.11941024e-16
7.169471745e-17
4.564543918e-17
2.877190965e-17
1.783432241e-17
1.078519924e-17
6.319762562e-18
3.57375032e-18
1.949713438e-18
1.02978675e-18
5.299788115e-19
2.679540936e-19
1.342202826e-19
6.710381399e-20
3.367308011e-20
1.70222504e-20
8.684464697e-21
4.471828197e-21
2.318783883e-21
1.203498026e-21
6.173600558e-22
3.054221735e-22
1.391653961e-22
5.339080968e-23
1.429227111e-23
1.669098007e-24
4.139197566e-26
0.05294518206
0.0008993197902
1.338203321e-05
8.228282034e-07
1.922771181e-07
7.056553475e-08
3.098487144e-08
1.525914605e-08
7.928981445e-09
4.170178533e-09
2.149243017e-09
1.075918667e-09
5.191854797e-10
2.422901189e-10
1.095604633e-10
4.841850992e-11
2.108581345e-11
9.164379595e-12
4.025652787e-12
1.81234251e-12
8.462496597e-13
4.136717827e-13
2.129073538e-13
1.156005644e-13
6.607680722e-14
3.951307696e-14
2.449337531e-14
1.557234798e-14
1.005143788e-14
6.53228772e-15
4.250505062e-15
2.761627853e-15
1.790943763e-15
1.160307452e-15
7.514069891e-16
4.855249174e-16
3.113802185e-16
1.965752414e-16
1.210473291e-16
7.215611248e-17
4.145818947e-17
2.295167438e-17
1.228731631e-17
6.40368256e-18
3.276280554e-18
1.6597448e-18
8.387710505e-19
4.252166507e-19
2.170360035e-19
1.11758831e-19
5.807704716e-20
3.03919299e-20
1.59162368e-20
8.234249583e-21
4.105355367e-21
1.885288804e-21
7.33514747e-22
2.022068233e-22
2.576507101e-23
8.340268378e-25
0.2201308723
0.004952954357
9.091818567e-05
3.107113177e-06
7.028350313e-07
3.21203663e-07
1.691346967e-07
9.283213861e-08
5.199554017e-08
2.920531676e-08
1.618211073e-08
8.76193402e-09
4.599391145e-09
2.336504666e-09
1.146085029e-09
5.44697696e-10
2.514966366e-10
1.137625252e-10
5.083111428e-11
2.27423983e-11
1.032131028e-11
4.825177503e-12
2.351824889e-12
1.206020183e-12
6.525219345e-13
3.713858392e-13
2.205541771e-13
1.352206854e-13
8.468152267e-14
5.369654948e-14
3.427389357e-14
2.195918313e-14
1.412057999e-14
9.126343007e-15
5.934862152e-15
3.876056905e-15
2.526089285e-15
1.626089915e-15
1.022340014e-15
6.21973374e-16
3.642220743e-16
2.051551484e-16
1.115601085e-16
5.898367201e-17
3.059453353e-17
1.570727289e-17
8.040247203e-18
4.124705011e-18
2.127914128e-18
1.106185159e-18
5.798226445e-19
3.05942948e-19
1.615650672e-19
8.430576873e-20
4.241116775e-20
1.968111651e-20
7.785932114e-21
2.219253837e-21
3.080734297e-22
1.347570157e-23
0.8388535626
0.03005545735
0.0007906885477
2.261309833e-05
3.175005946e-06
1.286856964e-06
6.789110427e-07
3.8366453e-07
2.234739802e-07
1.318816309e-07
7.780726499e-08
4.541431904e-08
2.600810024e-08
1.453716692e-08
7.894612639e-09
4.158005835e-09
2.121430539e-09
1.050721886e-09
5.064919856e-10
2.39450823e-10
1.11971882e-10
5.251498623e-11
2.502878556e-11
1.230558203e-11
6.304857295e-12
3.385760149e-12
1.900925184e-12
1.107601321e-12
6.630579208e-13
4.042131625e-13
2.493864322e-13
1.552676326e-13
9.755816564e-14
6.1997026e-14
3.994707771e-14
2.608186782e-14
1.7142274e-14
1.12070926e-14
7.189077873e-15
4.470892203e-15
2.674564878e-15
1.53531792e-15
8.481820356e-16
4.543116465e-16
2.383872437e-16
1.238102564e-16
6.414851922e-17
3.331733123e-17
1.739281755e-17
9.139109094e-18
4.835566482e-18
2.572730605e-18
1.369354233e-18
7.204998745e-19
3.661613053e-19
1.723871944e-19
6.979339657e-20
2.08001759e-20
3.192531584e-21
1.938747176e-22
2.338400581
0.1523603666
0.005631966219
0.0002000841452
1.289077318e-05
3.711475674e-06
1.818813108e-06
1.034571879e-06
6.216543246e-07
3.829602791e-07
2.38305969e-07
1.483409982e-07
9.167889055e-08
5.592451551e-08
3.351218303e-08
1.965199638e-08
1.123829235e-08
6.252812626e-09
3.379432791e-09
1.776152465e-09
9.101756314e-10
4.576493685e-10
2.276028348e-10
1.133079709e-10
5.71642563e-11
2.960821427e-11
1.58573676e-11
8.796602917e-12
5.029392023e-12
2.94151538e-12
1.746833075e-12
1.048736747e-12
6.361873727e-13
3.910161118e-13
2.446390892e-13
1.563796866e-13
1.018127203e-13
6.672557866e-14
4.33438521e-14
2.748646812e-14
1.681597643e-14
9.867258071e-15
5.552536909e-15
3.013417208e-15
1.594743497e-15
8.3360915e-16
4.347869721e-16
2.276170531e-16
1.199209573e-16
6.363686916e-17
3.400287817e-17
1.8261117e-17
9.807897846e-18
5.210549524e-18
2.681290546e-18
1.287131651e-18
5.383076961e-19
1.703762206e-19
2.968704643e-20
2.524292468e-21
4.066134662
0.682013869
0.03753499023
0.001474799236
7.305170163e-05
1.080335305e-05
4.003919594e-06
2.121202163e-06
1.266177252e-06
7.942658794e-07
5.100931002e-07
3.309737888e-07
2.151671862e-07
1.39317876e-07
8.94365014e-08
5.672124001e-08
3.54327485e-08
2.175045379e-08
1.308939724e-08
7.706063408e-09
4.430692727e-09
2.486544364e-09
1.363271126e-09
7.331588576e-10
3.894937348e-10
2.064436044e-10
1.102693826e-10
5.989004369e-11
3.323480914e-11
1.885439815e-11
1.088964557e-11
6.370256842e-12
3.761015124e-12
2.241356094e-12
1.352941418e-12
8.325957769e-13
5.249565085e-13
3.373055553e-13
2.1784393e-13
1.392291998e-13
8.678977853e-14
5.216392876e-14
3.005619934e-14
1.661684085e-14
8.892714979e-15
4.672249703e-15
2.441603932e-15
1.279851114e-15
6.759460672e-16
3.602822843e-16
1.937411563e-16
1.048851e-16
5.68659478e-17
3.055243869e-17
1.595571784e-17
7.829965765e-18
3.393814978e-18
1.143423275e-18
2.261395203e-19
2.582540419e-20
6.385518939
1.626369965
0.1593666433
0.009918460291
0.0004554267278
3.831368343e-05
8.840096587e-06
3.866021359e-06
2.179341601e-06
1.35516391e-06
8.816944491e-07
5.870268279e-07
3.952043386e-07
2.669846616e-07
1.800151949e-07
1.206580457e-07
8.014870949e-08
5.263645807e-08
3.410935347e-08
2.177225605e-08
1.366733793e-08
8.426550047e-09
5.099133847e-09
3.026611923e-09
1.762709187e-09
1.009621468e-09
5.707796617e-10
3.204728598e-10
1.800397489e-10
1.019035017e-10
5.831437644e-11
3.374887163e-11
1.971493084e-11
1.160380014e-11
6.878015957e-12
4.114128234e-12
2.497816341e-12
1.546493175e-12
9.713103421e-13
6.116749716e-13
3.816355712e-13
2.333155087e-13
1.381761191e-13
7.859056123e-14
4.290885309e-14
2.277775888e-14
1.194258167e-14
6.252230964e-15
3.291396748e-15
1.749851279e-15
9.411384181e-16
5.114466065e-16
2.79425335e-16
1.518965623e-16
8.068440002e-17
4.059329197e-17
1.828740757e-17
6.574315283e-18
1.475316702e-18
2.169416241e-19
9.213024225
2.920121247
0.4653294003
0.04379611595
0.002783889852
0.0001715044272
2.214582117e-05
6.985803008e-06
3.472888977e-06
2.072478618e-06
1.340350664e-06
9.034812176e-07
6.228912202e-07
4.343829509e-07
3.041624994e-07
2.127529538e-07
1.481063836e-07
1.023328604e-07
7.003157133e-08
4.739048306e-08
3.165797584e-08
2.086003748e-08
1.354016078e-08
8.649517815e-09
5.434215365e-09
3.35792667e-09
2.043023148e-09
1.226107362e-09
7.276965952e-10
4.286407254e-10
2.515702819e-10
1.476876421e-10
8.699397968e-11
5.14977036e-11
3.063721111e-11
1.830377363e-11
1.097596397e-11
6.623595589e-12
4.031987105e-12
2.470300462e-12
1.511718825e-12
9.174216383e-13
5.488987822e-13
3.21004123e-13
1.812924367e-13
9.85636279e-14
5.223290395e-14
2.739182298e-14
1.436657467e-14
7.588710522e-15
4.056548114e-15
2.198325119e-15
1.20419535e-15
6.605942272e-16
3.567749591e-16
1.842965675e-16
8.646487936e-17
3.322350866e-17
8.442249231e-18
1.531974787e-18
12.00990362
4.249861174
1.085533704
0.1323985622
0.01222375381
0.0008108736224
6.907503188e-05
1.361999221e-05
5.434818794e-06
2.989106577e-06
1.88247754e-06
1.26795539e-06
8.865283152e-07
6.329008591e-07
4.565784197e-07
3.305286476e-07
2.389711738e-07
1.719409902e-07
1.228879267e-07
8.707681869e-08
6.106745076e-08
4.232485881e-08
2.89520577e-08
1.952326968e-08
1.296586685e-08
8.475663457e-09
5.453519891e-09
3.456670433e-09
2.161489293e-09
1.336379245e-09
8.193844647e-10
4.997057069e-10
3.038703786e-10
1.846603142e-10
1.123577114e-10
6.851185391e-11
4.181323985e-11
2.546870312e-11
1.545344588e-11
9.341059972e-12
5.627153144e-12
3.367943016e-12
1.99605534e-12
1.16927696e-12
6.744361481e-13
3.793609066e-13
2.068150324e-13
1.098657463e-13
5.763248272e-14
3.02421546e-14
1.6021985e-14
8.613618139e-15
4.700490216e-15
2.587141012e-15
1.415138365e-15
7.49120962e-16
3.660236251e-16
1.503486337e-16
4.307802779e-17
9.27674292e-18
15.51285455
5.673663358
1.971934163
0.3369658682
0.04401900345
0.004134074225
0.0003194405634
3.605071894e-05
9.287292224e-06
4.242339616e-06
2.50132661e-06
1.653139391e-06
1.159596909e-06
8.406857858e-07
6.201789699e-07
4.61549746e-07
3.444432441e-07
2.565743666e-07
1.901837355e-07
1.399807578e-07
1.021041314e-07
7.3685431e-08
5.253814111e-08
3.696421896e-08
2.563439459e-08
1.750721284e-08
1.176905825e-08
7.7876998e-09
5.076072586e-09
3.264015019e-09
2.075432228e-09
1.309023933e-09
8.217221475e-10
5.15037236e-10
3.231725561e-10
2.033185113e-10
1.281777858e-10
8.071672571e-11
5.052973596e-11
3.128341265e-11
1.910075186e-11
1.149848886e-11
6.822842888e-12
3.99007681e-12
2.302250341e-12
1.310909788e-12
7.336053947e-13
4.012784677e-13
2.143052001e-13
1.127079322e-13
5.921923131e-14
3.148139867e-14
1.702591e-14
9.342564275e-15
5.142177766e-15
2.775347703e-15
1.408598003e-15
6.180419272e-16
1.986762267e-16
4.909013069e-17
22.79380829
7.635399613
2.976351364
0.7113468507
0.1046598734
0.01465104339
0.001507488291
0.0001386006185
1.999147361e-05
6.251194911e-06
3.162670075e-06
1.982323528e-06
1.370670866e-06
1.000531133e-06
7.478560845e-07
5.704317433e-07
4.375400267e-07
3.356386809e-07
2.565413943e-07
1.948821834e-07
1.468484554e-07
1.095885705e-07
8.088314051e-08
5.896278817e-08
4.240234868e-08
3.004783191e-08
2.09640648e-08
1.439367654e-08
9.726299137e-09
6.474317397e-09
4.253177189e-09
2.765128065e-09
1.78534065e-09
1.149343525e-09
7.406400757e-10
4.79170176e-10
3.115969784e-10
2.033413333e-10
1.32560864e-10
8.580599183e-11
5.476414706e-11
3.42700614e-11
2.096183686e-11
1.251259538e-11
7.307447363e-12
4.189733529e-12
2.363448923e-12
1.314260162e-12
7.194248934e-13
3.866699213e-13
2.049007101e-13
1.08330237e-13
5.790985417e-14
3.148711606e-14
1.731916825e-14
9.468043626e-15
4.96843632e-15
2.326504358e-15
8.359041234e-16
2.308920874e-16
31.60826119
10.05932958
4.087822356
1.315058608
0.2374420726
0.03802535536
0.005461571618
0.0006186892536
6.560430722e-05
1.13781784e-05
4.016512341e-06
2.17174785e-06
1.431179928e-06
1.035326078e-06
7.771228265e-07
6.01294937e-07
4.694680872e-07
3.676223217e-07
2.874758333e-07
2.238393653e-07
1.731786774e-07
1.329218668e-07
1.010858358e-07
7.607973531e-08
5.659893949e-08
4.156519416e-08
3.009025032e-08
2.14471895e-08
1.504153263e-08
1.038232434e-08
7.060560103e-09
4.740900833e-09
3.154234281e-09
2.088614651e-09
1.382887753e-09
9.193791267e-10
6.153600593e-10
4.147864042e-10
2.808472256e-10
1.900058767e-10
1.275298223e-10
8.421849133e-11
5.431995052e-11
3.403198394e-11
2.066330953e-11
1.217906821e-11
6.99263788e-12
3.92890307e-12
2.173046869e-12
1.187036636e-12
6.412244313e-13
3.433471101e-13
1.837504374e-13
9.930679111e-14
5.43980489e-14
2.993679047e-14
1.61273973e-14
8.018039724e-15
3.208406221e-15
9.780374855e-16
39.60733274
12.53220239
5.234428447
2.085673648
0.4959288644
0.08657169012
0.01498763111
0.002358486838
0.0003029805286
3.661266141e-05
6.975101928e-06
2.519212889e-06
1.373809105e-06
9.229895523e-07
6.766718915e-07
5.179898664e-07
4.051369761e-07
3.201657065e-07
2.539912164e-07
2.014462695e-07
1.592913564e-07
1.253256569e-07
9.795145481e-08
7.594813535e-08
5.834554019e-08
4.435513917e-08
3.332536961e-08
2.471260503e-08
1.806244944e-08
1.300133274e-08
9.220549442e-09
6.451292745e-09
4.462511459e-09
3.064105622e-09
2.099348183e-09
1.44208446e-09
9.97102766e-10
6.954086131e-10
4.887429432e-10
3.448305529e-10
2.427391952e-10
1.691725361e-10
1.157475913e-10
7.712995405e-11
4.971327977e-11
3.086401464e-11
1.845348625e-11
1.066380317e-11
5.996615762e-12
3.308714497e-12
1.805355159e-12
9.792566973e-13
5.301375593e-13
2.884621004e-13
1.586627633e-13
8.801029446e-14
4.841557856e-14
2.52978543e-14
1.11858139e-14
3.763211386e-15
46.3487976
14.91558786
6.372804309
2.890542956
0.9163830001
0.187517098
0.03621253765
0.00675113705
0.001229907318
0.0001914960022
2.629753735e-05
4.763310649e-06
1.536573153e-06
7.852139417e-07
5.093864982e-07
3.686867906e-07
2.811753793e-07
2.204029127e-07
1.753464277e-07
1.405603151e-07
1.130100317e-07
9.084289139e-08
7.284008027e-08
5.814876682e-08
4.614105347e-08
3.633582942e-08
2.835461331e-08
2.189323184e-08
1.670220328e-08
1.257597371e-08
9.343672326e-09
6.85612519e-09
4.97842499e-09
3.587307045e-09
2.574967852e-09
1.849845495e-09
1.335326105e-09
9.710724294e-10
7.115496321e-10
5.241526512e-10
3.864033471e-10
2.831935017e-10
2.047407543e-10
1.448584357e-10
9.953767093e-11
6.597125684e-11
4.195962133e-11
2.554928279e-11
1.492310444e-11
8.425423148e-12
4.651283734e-12
2.54225291e-12
1.388884488e-12
7.635966915e-13
4.244656692e-13
2.385615149e-13
1.341451911e-13
7.309449052e-14
3.528908054e-14
1.318493078e-14
49.63494859
17.57399629
7.56686092
3.657510353
1.463559117
0.3710821473
0.07719819934
0.01645245972
0.003485374658
0.0007457002578
0.0001408033497
2.048795749e-05
3.118981143e-06
8.409506918e-07
3.931413741e-07
2.437327979e-07
1.719271586e-07
1.294810006e-07
1.011219386e-07
8.066325287e-08
6.515304376e-08
5.300124386e-08
4.32654004e-08
3.534471987e-08
2.883375861e-08
2.344512656e-08
1.896797322e-08
1.524403067e-08
1.215237799e-08
9.599030606e-09
7.507934785e-09
5.814889345e-09
4.4641952e-09
3.404456171e-09
2.586813386e-09
1.966134168e-09
1.500141791e-09
1.150737942e-09
8.871954651e-10
6.860995264e-10
5.302314076e-10
4.075484903e-10
3.097851071e-10
2.312446173e-10
1.682902597e-10
1.18594374e-10
8.04218979e-11
5.220446378e-11
3.233556791e-11
1.913154855e-11
1.089183562e-11
6.050667805e-12
3.335120274e-12
1.848936108e-12
1.039146278e-12
5.931691991e-13
3.414664583e-13
1.935046266e-13
1.008242789e-13
4.21286975e-14
45.98127526
21.52678566
9.067964919
4.470579393
2.074353949
0.6636163483
0.1557985826
0.03590516839
0.008301852439
0.001988588355
0.0004783275325
9.636414424e-05
1.281658079e-05
1.646219126e-06
4.067318274e-07
1.814980277e-07
1.08856614e-07
7.498544778e-08
5.550752435e-08
4.282946018e-08
3.393922892e-08
2.738023745e-08
2.235931659e-08
1.841109579e-08
1.524356481e-08