/*--------------------------------*- C++ -*----------------------------------*\
  =========                 |
  \\      /  F ield         | OpenFOAM: The Open Source CFD Toolbox
   \\    /   O peration     | Website:  https://openfoam.org
    \\  /    A nd           | Version:  10
     \\/     M anipulation  |
\*---------------------------------------------------------------------------*/
FoamFile
{
    format      ascii;
    class       volScalarField;
    location    "3000";
    object      RR.H2O2;
}
// * * * * * * * * * * * * * * * * * * * * * * * * * * * * * * * * * * * * * //

dimensions      [1 -3 -1 0 0 0 0];

internalField   nonuniform List<scalar> 
5170
(
2.123422623e-49
2.131115514e-49
2.175801134e-49
2.396641563e-49
3.575416439e-49
3.643289429e-49
3.6705262e-49
3.819530615e-49
4.500250319e-49
6.464006012e-49
5.161219209e-49
5.233555601e-49
5.561615058e-49
6.861905178e-49
9.153076636e-49
6.726902713e-49
6.876584804e-49
7.473087551e-49
9.515320568e-49
1.185555964e-48
8.356968615e-49
8.615322177e-49
9.561916585e-49
1.244607314e-48
1.460485127e-48
1.008217034e-48
1.048062079e-48
1.185192569e-48
1.562928063e-48
1.747404324e-48
1.18860483e-48
1.244734621e-48
1.434784531e-48
1.901771789e-48
2.049842645e-48
1.377826047e-48
1.452414698e-48
1.699778183e-48
2.254407054e-48
2.367615904e-48
1.605153731e-48
1.699269874e-48
2.013859786e-48
2.756485915e-48
3.650755275e-48
1.404028116e-47
1.42358769e-47
2.024860627e-47
8.786344554e-47
5.652274877e-46
4.977296256e-45
5.523509888e-45
9.601190224e-45
5.037456929e-44
3.185651005e-43
2.052279291e-42
2.555834943e-42
5.274703557e-42
2.991974565e-41
1.826673134e-40
8.596078727e-40
1.215718035e-39
3.005782933e-39
1.831638052e-38
1.033403115e-37
3.617529575e-37
5.890808448e-37
1.760077682e-36
1.12937292e-35
5.785772193e-35
1.524799902e-34
2.877532213e-34
1.041018844e-33
6.949619146e-33
3.212435787e-32
6.386971792e-32
1.429301294e-31
6.5547588e-31
6.459722763e-30
5.519349259e-29
1.148022169e-28
6.766632786e-28
1.571371402e-26
7.750860813e-25
1.146421626e-23
1.371536773e-23
1.358850467e-22
4.596247982e-21
2.369622314e-19
3.42967654e-18
1.77586972e-18
2.728675868e-17
1.192783059e-15
6.155150819e-14
9.984710502e-13
1.673665612e-13
5.04293535e-12
2.844879498e-10
1.286111771e-08
2.867553526e-07
4.030129879e-05
2.220295208e-05
1.782806217e-05
2.422386144e-05
4.010284997e-05
5.906997077e-06
8.930913355e-06
8.329329701e-06
8.770401862e-06
4.276530118e-06
-9.15611919e-07
2.644403341e-06
3.139061914e-06
1.559332e-06
-1.613479787e-06
-1.996130891e-06
-4.109381802e-07
9.925918694e-08
-5.913016455e-07
-2.11831022e-06
-1.980866214e-06
-1.322191773e-06
-1.063152929e-06
-1.247323143e-06
-1.88559488e-06
-1.739468564e-06
-1.56152428e-06
-1.438199198e-06
-1.425895754e-06
-1.600412485e-06
-1.474139611e-06
-1.524435766e-06
-1.495202702e-06
-1.424117302e-06
-1.354551204e-06
-1.241491901e-06
-1.404300798e-06
-1.424736154e-06
-1.389795953e-06
-1.141562482e-06
-1.044323028e-06
-1.261582204e-06
-1.310741247e-06
-1.295589206e-06
-9.435314388e-07
-8.788366094e-07
-1.108485896e-06
-1.172087279e-06
-1.129030016e-06
-7.677455413e-07
-7.3982531e-07
-9.5823694e-07
-1.021513901e-06
-9.451296658e-07
-6.246767524e-07
-6.244608676e-07
-8.18534183e-07
-8.731644593e-07
-7.798285686e-07
-5.142902674e-07
-5.300027867e-07
-6.944701104e-07
-7.381028287e-07
-6.450795548e-07
-4.326786856e-07
-4.551068093e-07
-5.899103324e-07
-6.229289583e-07
-5.411727111e-07
-3.740385156e-07
-3.965989146e-07
-5.043573146e-07
-5.293895381e-07
-4.637351471e-07
-3.329690315e-07
-3.528351523e-07
-4.372757741e-07
-4.563735146e-07
-4.067502672e-07
-3.043462365e-07
-3.213467651e-07
-3.859665241e-07
-4.016154002e-07
-3.665257763e-07
-2.863069572e-07
-3.022001891e-07
-3.486486132e-07
-3.624970282e-07
-3.395040184e-07
-2.768236447e-07
-2.886276911e-07
-3.172020825e-07
-3.359811352e-07
-3.237260779e-07
-2.782694733e-07
1.507057755e-05
1.948038243e-06
-1.580820157e-07
-8.097789274e-07
-1.58509947e-06
2.165940986e-10
1.209406128e-08
2.493218353e-06
0.0004196006758
0.01694349663
4.914062901e-09
1.934414575e-07
2.151808523e-05
0.001176804384
0.008345498343
4.092661014e-08
1.18820109e-06
7.76628865e-05
0.001745611494
0.005044568122
2.151232144e-07
4.770123197e-06
0.0001887702634
0.001959066217
0.003270469534
8.340955176e-07
1.424956818e-05
0.0003408555666
0.001842703828
0.00217642621
2.636024717e-06
3.442957937e-05
0.0004982130659
0.001570294239
0.001523069582
7.429479029e-06
7.399328969e-05
0.0006327339852
0.001290479092
0.001193270627
1.906296478e-05
0.0001422642008
0.0007107649323
0.001071305064
0.001010937156
4.417927069e-05
0.000236804458
0.000725413244
0.0009023454333
0.0008664966088
9.06935042e-05
0.0003377501916
0.0006985447508
0.0007766736145
0.0007670174277
0.0001655805322
0.0004208102035
0.0006575670939
0.0006937936632
0.0007199253447
0.0002571185371
0.0004731861846
0.000618845983
0.0006409393574
0.0007001043707
0.0003454083473
0.0004983315902
0.0005823586451
0.0005976245145
0.0006761109365
0.0004129621687
0.0005027831976
0.0005464621898
0.0005588676915
0.000652640475
0.0004514763255
0.0004941116281
0.0005146949952
0.0005336198755
0.000646152942
0.0004637108755
0.0004801076456
0.0004916423671
0.0005262311963
0.0006664482038
0.0004603742143
0.0004664029068
0.0004789696184
0.0005363296418
0.0007084221501
0.0004513683856
0.0004561896567
0.0004790129377
0.0005577511501
0.0007577597127
0.0004463499899
0.0004558448737
0.000491820711
0.0005883366505
0.0008195519885
0.0004526805471
0.0004677505344
0.0005163397051
0.0006362003466
0.0009115938589
0.000470235748
0.0004932407102
0.0005613248049
0.0007186861438
0.001055070213
0.0005113696055
0.0005435277502
0.000645024765
0.0008530836203
0.001226818898
0.0005982095449
0.0006498629427
0.0007838449776
0.001036990209
0.001395515554
0.0007465452861
0.0008139927492
0.0009795204159
0.001219656953
0.001567261816
0.0009456150844
0.001023316082
0.001149978633
0.001377936761
0.001527150288
0.001113800172
0.001181767601
0.001327035318
0.001303283909
0.001186894416
0.001051378739
0.001079144595
0.001108358289
0.0009223821904
0.0005415617401
0.0005634566124
0.0005470120005
0.0005012401525
5.322623036e-05
-0.0003381982447
-0.0002856315375
-0.0003615436024
-0.0002081737045
-0.0002922124152
-0.0007195174595
-0.0006103121165
-0.0005735029236
-0.0006812344919
-0.0007661073372
-0.0008039970059
-0.0004930834294
-0.0004854288822
-0.0004881127437
-0.0004591888514
-0.0004183912324
-0.0002696561526
-0.0002733622924
-0.0002679529169
-0.0002509784049
-0.0002240324803
-0.0001323737392
-0.0001297772055
-0.000118616777
-0.0001091387425
-8.892990568e-05
-5.246816259e-05
-5.137173921e-05
-4.797649732e-05
-4.442332971e-05
-4.259707004e-05
-6.716478622e-05
-6.771490386e-05
-7.472044154e-05
-8.509279588e-05
-0.0001000431962
-0.0001405276683
-0.0001428826897
-0.0001473027987
-0.0001538959804
-0.0001615870198
-0.0001550762329
-0.0001551237705
-0.0001552170031
-0.0001551700841
-0.0001550923751
-0.0001201272362
-0.0001198088161
-0.0001192193052
-0.0001185853684
-0.0001182346812
-8.314662785e-05
-8.337414116e-05
-8.400141171e-05
-8.530744193e-05
-8.780638753e-05
-6.248720846e-05
-6.347580502e-05
-6.575809126e-05
-6.949606553e-05
-7.477133617e-05
-5.718218158e-05
-5.787904063e-05
-5.893131284e-05
-5.912103523e-05
-5.660961045e-05
-3.257985593e-05
-3.163793763e-05
-2.957436532e-05
-2.652038905e-05
-2.26651898e-05
-1.451770893e-05
-1.402196591e-05
-1.296961677e-05
-1.146292942e-05
-9.61829292e-06
-9.602002831e-06
-9.328431047e-06
-8.758439492e-06
-7.962914621e-06
-7.026098354e-06
-9.423740085e-06
-9.27144209e-06
-9.271347685e-06
-8.832220003e-06
-8.327077101e-06
-1.088545715e-05
-1.081659395e-05
-1.068927229e-05
-1.053424642e-05
-1.043425269e-05
-1.269780005e-05
-1.270475907e-05
-1.273613697e-05
-1.282166946e-05
-1.300453637e-05
-1.483205584e-05
-1.48957215e-05
-1.504838527e-05
-1.530960265e-05
-1.571237776e-05
-1.714911181e-05
-1.725645527e-05
-1.750177969e-05
-1.78961398e-05
-1.846296283e-05
-1.951905247e-05
-1.965625313e-05
-1.996293029e-05
-2.045117894e-05
-2.113153716e-05
-2.178848813e-05
-2.191227975e-05
-2.246322376e-05
-2.289195765e-05
-2.561653708e-05
-2.523397144e-05
-2.54352384e-05
-2.588349019e-05
-2.658039486e-05
-2.58153141e-05
-2.68893578e-05
-2.709280834e-05
-2.754382031e-05
-2.823961e-05
-2.919172088e-05
-2.864733359e-05
-2.886110059e-05
-2.933482865e-05
-3.00654763e-05
-3.106540035e-05
-3.04311222e-05
-3.065568316e-05
-3.115279102e-05
-3.191849892e-05
-3.296459054e-05
-3.217631524e-05
-3.241034735e-05
-3.29280555e-05
-3.372450365e-05
-3.481073141e-05
-3.385833772e-05
-3.410061165e-05
-3.463615468e-05
-3.545912638e-05
-3.657981523e-05
-3.547612755e-05
-3.572540063e-05
-3.627615015e-05
-3.712168016e-05
-3.827151739e-05
-3.703841508e-05
-3.72935743e-05
-3.785706052e-05
-3.872140136e-05
-3.989537731e-05
-3.856115543e-05
-3.882118792e-05
-3.939524928e-05
-4.027517408e-05
-4.146906112e-05
-4.006857786e-05
-4.033281529e-05
-4.091600822e-05
-4.180941668e-05
-4.302058357e-05
-4.159836054e-05
-4.186657539e-05
-4.245846306e-05
-4.336482557e-05
-4.459280894e-05
-4.319407675e-05
-4.346643976e-05
-4.406742152e-05
-4.498741426e-05
-4.623325337e-05
-4.489502508e-05
-4.517153104e-05
-4.578155846e-05
-4.671501013e-05
-4.797825583e-05
-4.668651463e-05
-4.696610454e-05
-4.758269185e-05
-4.852545097e-05
-4.979981225e-05
-4.852626749e-05
-4.880625281e-05
-4.942325362e-05
-5.036538062e-05
-5.163637053e-05
-5.030508188e-05
-5.058151033e-05
-5.118986421e-05
-5.211672441e-05
-5.336310762e-05
-5.215104448e-05
-5.241823732e-05
-5.300506669e-05
-5.389599504e-05
-5.508795512e-05
-5.395198842e-05
-5.420234601e-05
-5.475036501e-05
-5.55777588e-05
-5.667594399e-05
-5.654333004e-05
-5.67696443e-05
-5.726324497e-05
-5.800393531e-05
-5.897840491e-05
0.01216470016
0.005414828324
0.003157362378
0.002136260046
0.00148328159
0.001171382931
0.0011119432
0.001056349367
0.000938346383
0.0008637540261
0.0008566546709
0.0008650830742
0.0008434956376
0.0008235804123
0.0008349158884
0.0008875443126
0.0009666945304
0.001047866149
0.001143800336
0.001279564327
0.00142067322
0.001592215394
0.001780725025
0.001771115845
0.001561563714
0.0009903227612
0.000197777156
-0.0006517440554
-0.0009391572214
-0.0007017496511
-0.0003976486711
-0.0002002110632
-7.257391076e-05
-4.399742653e-05
-0.0001124854976
-0.0001668407989
-0.0001551482889
-0.0001186179912
-9.070883868e-05
-7.917433479e-05
-5.268793375e-05
-1.966828988e-05
-8.166712126e-06
-6.28935e-06
-7.95832684e-06
-1.038304274e-05
-1.318115783e-05
-1.606752315e-05
-1.895153542e-05
-2.171270306e-05
-2.436620296e-05
-2.654627956e-05
-2.99971485e-05
-3.191396998e-05
-3.385184633e-05
-3.573108239e-05
-3.752826041e-05
-3.924342494e-05
-4.08864407e-05
-4.24757227e-05
-4.404071974e-05
-4.562617611e-05
-4.728079171e-05
-4.903939761e-05
-5.08687214e-05
-5.269998965e-05
-5.440228127e-05
-5.607581785e-05
-5.757761503e-05
-5.976996539e-05
0.004584688806
-0.0003153414987
2.848155065e-05
-4.88576867e-05
-0.000236492834
0.003942096925
-0.000362733144
-0.0001183637269
-8.026654668e-05
-0.000245121846
0.003106797931
-0.0006131118279
-0.0004898800616
-0.0004310395063
0.0001042842299
0.002383487968
-0.0001684730516
-0.0005065369813
-0.0004865083746
-0.0007265584133
0.001727841578
0.0005045444462
-0.0001166618172
-0.0006816382961
-0.002142542067
0.001602204191
0.002186658197
-0.0005668110359
-0.0008061549439
-0.001694046058
0.00181840381
0.003857180303
-0.001237594002
-0.0009468057533
-0.0008959897206
0.001815885108
0.003928731322
-0.001882844612
-0.001052287293
-0.0006689426507
0.001600963196
0.003500553784
-0.002259857318
-6.030297421e-05
-0.0007589885958
0.001496225595
0.00360833532
-0.002128893413
0.0001364561979
-0.0009319346807
0.001521767669
0.003891867355
-0.00172508319
-3.046426592e-05
-0.001085539862
0.001541452851
0.00387014808
-0.001341716139
-0.0003290068631
-0.001253884085
0.001478107134
0.003503373583
-0.0008885914235
-0.0008574361367
-0.0005084095283
0.001432511264
0.00328048174
-0.0002778613144
-0.001271438935
5.583670137e-05
0.001455057731
0.003271623934
0.0003428298426
-0.001526706928
0.0001708301831
0.001538357061
0.003369867975
0.0007331777204
-0.001690021026
0.0001594160217
0.001657322382
0.003377744865
0.0007304117647
-0.001794276017
0.0001152000024
0.001759716173
0.003199018464
0.0004187554966
-0.001814071584
1.369201063e-05
0.001763718709
0.002929266302
3.84504253e-05
-0.001753372255
-0.000107624727
0.001891494204
0.002632336502
-0.0003310427128
-0.001649530434
-0.000187080822
0.002023480779
0.002276978132
-0.0006901569138
-0.001532230173
-0.0002276486189
0.002065578658
0.001804468869
-0.001028165042
-0.001407240753
-0.0002418336578
0.002016853821
0.001165295491
-0.001310505526
-0.001269296043
-0.0002344138752
0.001747331861
0.0003830857474
-0.001482244491
-0.001111523147
-0.0002058234398
0.001168200522
-0.0004150878421
-0.001485316563
-0.0009256253926
-0.0001540079741
0.0003200923232
-0.0009694597092
-0.001316595766
-0.0007162955798
-8.559976058e-05
-0.0004729134826
-0.001209266884
-0.001035055765
-0.0004958713612
-1.814379738e-05
-0.001008694227
-0.001056495105
-0.0007240346178
-0.0002863380443
2.269708803e-05
-0.0009345146024
-0.0007371132916
-0.0004408461448
-0.0001178685833
1.441862143e-05
-0.0008473282624
-0.0004353694546
-0.0002110204825
-1.943282291e-05
-4.594868303e-05
-0.0003348896903
-0.0002078064517
-6.365020026e-05
-1.128161551e-05
-0.0001369091543
-0.0001510319618
-6.75827894e-05
-1.955038012e-05
-7.878344167e-05
-0.0002218765455
-4.904066497e-05
-3.214808667e-05
-7.269051164e-05
-0.0001681339087
-0.0002723965871
-5.534784174e-05
-9.533563231e-05
-0.0001589376229
-0.0002245344489
-0.0002819606042
-0.0001341706126
-0.0001699709395
-0.0002031879053
-0.0002315923224
-0.0002645012218
-0.0001742953622
-0.0001843316988
-0.000193852432
-0.0002088855482
-0.0002334359476
-0.0001549245434
-0.0001565673586
-0.0001637835624
-0.000181644902
-0.0001737856655
-0.0001193738375
-0.000125522445
-0.0001396794457
-0.0001445584378
-9.081318763e-05
-9.532772326e-05
-0.0001077242797
-0.0001109513332
-7.482843075e-05
-3.707750981e-05
-8.312429493e-05
-7.757370711e-05
-5.177400163e-05
-2.722258013e-05
-1.056194695e-05
-4.473815407e-05
-3.002075088e-05
-1.658242843e-05
-6.466025211e-06
-8.092495135e-07
-1.573855459e-05
-9.278961886e-06
-3.927377628e-06
-6.372239898e-07
-1.29394071e-07
-6.532760378e-06
-3.848973057e-06
-2.072475336e-06
-1.818463599e-06
-3.627578277e-06
-5.644467021e-06
-4.678622178e-06
-4.558547369e-06
-5.741332227e-06
-8.653225796e-06
-7.657553249e-06
-7.647667894e-06
-8.460545351e-06
-1.045682681e-05
-1.399087017e-05
-1.054762395e-05
-1.12316643e-05
-1.265323606e-05
-1.521616453e-05
-1.914739764e-05
-1.366963747e-05
-1.481696794e-05
-1.674722806e-05
-1.9704798e-05
-2.395972236e-05
-1.676899796e-05
-1.831511363e-05
-2.062994922e-05
-2.391466655e-05
-2.841205045e-05
-1.981007764e-05
-2.165163411e-05
-2.423258968e-05
-2.775267565e-05
-3.270323977e-05
-2.267892297e-05
-2.471670683e-05
-2.759622406e-05
-3.142689035e-05
-3.62234707e-05
-2.541189333e-05
-2.769853782e-05
-3.063505795e-05
-3.455555982e-05
-3.959991716e-05
-2.781398727e-05
-2.999663258e-05
-3.510659758e-05
-3.92447558e-05
-4.453688487e-05
-3.12441798e-05
-3.384482676e-05
-3.72352074e-05
-4.157279212e-05
-4.704139228e-05
-3.321928837e-05
-3.594575432e-05
-3.948208623e-05
-4.39694949e-05
-4.958084561e-05
-3.520939324e-05
-3.803988917e-05
-4.169134538e-05
-4.629638555e-05
-5.201708471e-05
-3.713371319e-05
-4.005172209e-05
-4.379800684e-05
-4.849714881e-05
-5.4300697e-05
-3.896946024e-05
-4.196076176e-05
-4.578455641e-05
-5.055754111e-05
-5.64209277e-05
-4.07170067e-05
-4.376836377e-05
-4.765366919e-05
-5.248202697e-05
-5.838521744e-05
-4.23866178e-05
-4.548599456e-05
-4.941885335e-05
-5.428762701e-05
-6.021647403e-05
-4.399786317e-05
-4.713612374e-05
-5.110710306e-05
-5.600816327e-05
-6.195830259e-05
-4.558240233e-05
-4.875543139e-05
-5.276204063e-05
-5.769646713e-05
-6.367483303e-05
-4.71877157e-05
-5.039714131e-05
-5.444367711e-05
-5.941920692e-05
-6.54365788e-05
-4.886387004e-05
-5.211313786e-05
-5.620346789e-05
-6.122219074e-05
-6.727336133e-05
-5.064261202e-05
-5.392677236e-05
-5.80493131e-05
-6.308631101e-05
-6.912106132e-05
-5.24818866e-05
-5.577528896e-05
-5.988730171e-05
-6.487209184e-05
-7.077588539e-05
-5.430156281e-05
-5.755340762e-05
-6.157725272e-05
-6.639280409e-05
-7.19923996e-05
-5.596142649e-05
-5.909928075e-05
-6.292766705e-05
-6.741909047e-05
-7.249833072e-05
-5.755013289e-05
-6.047684781e-05
-6.397176675e-05
-6.795180668e-05
-7.227117784e-05
-5.891278846e-05
-6.15082015e-05
-6.451007663e-05
-6.778151472e-05
-7.111982739e-05
-6.093235196e-05
-6.313998636e-05
-6.560371754e-05
-6.8156057e-05
-7.057193281e-05
0.001103892716
5.419187748e-05
1.720176487e-06
7.987721431e-08
5.408454941e-09
3.781396128e-10
2.44554894e-11
1.623884537e-12
1.435499703e-13
2.487847824e-14
8.378400247e-15
3.804775103e-15
1.892008845e-15
9.622823e-16
4.90490529e-16
2.491569521e-16
1.261210766e-16
6.372144233e-17
3.221457182e-17
1.633725309e-17
8.331498414e-18
4.281480556e-18
2.220846946e-18
1.164257241e-18
6.174858101e-19
3.314206019e-19
1.797120924e-19
9.791777138e-20
5.30010681e-20
2.79280072e-20
1.382470587e-20
5.96590355e-21
1.739430356e-21
-3.671616781e-22
-1.262837188e-21
-1.499994661e-21
-1.408592615e-21
-1.178708362e-21
-9.146809974e-22
-6.697652768e-22
-4.671184061e-22
-3.123502178e-22
-2.014407198e-22
-1.260515737e-22
-7.699118466e-23
-4.615576358e-23
-2.728700688e-23
-1.596734864e-23
-9.272680342e-24
-5.35212771e-24
-3.070509039e-24
-1.747287037e-24
-9.808146897e-25
-5.367890994e-25
-2.798971735e-25
-1.327692099e-25
-5.178679569e-26
-1.333990323e-26
-1.150200417e-27
-1.139266413e-29
0.0001813348436
4.331586782e-05
2.823311848e-06
1.915809457e-07
1.523032817e-08
1.221997401e-09
1.086177343e-10
1.619402389e-11
4.78539691e-12
1.986563557e-12
8.920275986e-13
4.045877074e-13
1.82133964e-13
8.157572939e-14
3.652816367e-14
1.644153273e-14
7.474222638e-15
3.443256011e-15
1.612008639e-15
7.681950562e-16
3.730425323e-16
1.847256014e-16
9.332013877e-17
4.809585062e-17
2.528505918e-17
1.354692955e-17
7.374163111e-18
4.04988927e-18
2.215651981e-18
1.182670435e-18
5.953773186e-19
2.644288899e-19
8.425161085e-20
-7.046855397e-21
-4.712298058e-20
-5.907098332e-20
-5.675760593e-20
-4.820076607e-20
-3.783602915e-20
-2.79749487e-20
-1.967631792e-20
-1.325619259e-20
-8.607735826e-21
-5.420772122e-21
-3.331302496e-21
-2.009203789e-21
-1.195032904e-21
-7.035822186e-22
-4.111193551e-22
-2.38744234e-22
-1.377809226e-22
-7.885739649e-23
-4.451138808e-23
-2.448789801e-23
-1.283004003e-23
-6.119085148e-24
-2.418349378e-24
-6.517013267e-25
-7.056304191e-26
-1.359168266e-27
0.0002514072882
2.258320781e-05
1.486671462e-06
1.399794027e-07
1.477771112e-08
2.063611164e-09
5.419422046e-10
2.409559727e-10
1.210109964e-10
6.07511739e-11
2.915064736e-11
1.347101261e-11
5.986485514e-12
2.58708599e-12
1.095137485e-12
4.590926855e-13
1.925656878e-13
8.162110053e-14
3.52734994e-14
1.563986958e-14
7.142677607e-15
3.365245481e-15
1.636594537e-15
8.211991286e-16
4.247036497e-16
2.258891696e-16
1.229812728e-16
6.794086662e-17
3.756476889e-17
2.036967871e-17
1.050961363e-17
4.888875803e-18
1.778369346e-18
1.591842223e-19
-5.914970181e-19
-8.571787446e-19
-8.692563631e-19
-7.626598919e-19
-6.134251722e-19
-4.627438366e-19
-3.311222695e-19
-2.26446716e-19
-1.489853051e-19
-9.492587692e-20
-5.895716663e-20
-3.591239673e-20
-2.156530405e-20
-1.281745253e-20
-7.560887465e-21
-4.432894372e-21
-2.582951949e-21
-1.492404356e-21
-8.501072996e-22
-4.716736961e-22
-2.490347111e-22
-1.197091968e-22
-4.802379895e-23
-1.337580073e-23
-1.625529797e-24
-4.228138984e-26
0.001313348126
7.673794017e-05
1.607815029e-06
8.296714768e-08
1.683721727e-08
8.005799006e-09
4.809421535e-09
2.866435236e-09
1.61583502e-09
8.642777795e-10
4.378572833e-10
2.117774275e-10
9.790442019e-11
4.360408902e-11
1.878428108e-11
7.899231e-12
3.267417713e-12
1.344372003e-12
5.560000902e-13
2.338042093e-13
1.009110518e-13
4.502205753e-14
2.085507899e-14
1.005292612e-14
5.043916981e-15
2.627525254e-15
1.412843813e-15
7.763105362e-16
4.295971066e-16
2.348816576e-16
1.236721453e-16
6.023454267e-17
2.483650149e-17
5.981027895e-18
-3.258603337e-18
-7.079956572e-18
-7.981493279e-18
-7.414143018e-18
-6.208273921e-18
-4.835582896e-18
-3.554430944e-18
-2.487699767e-18
-1.670200631e-18
-1.08347901e-18
-6.839494213e-19
-4.228617415e-19
-2.574689167e-19
-1.550395316e-19
-9.260754865e-20
-5.49663879e-20
-3.242615235e-20
-1.897088691e-20
-1.094051515e-20
-6.142698453e-21
-3.279586916e-21
-1.594673353e-21
-6.515821932e-22
-1.879714036e-22
-2.514662898e-23
-8.69443584e-25
0.003219685969
0.000243389857
9.738843842e-06
3.02038081e-07
8.200174214e-08
5.058914365e-08
3.286846208e-08
2.046704764e-08
1.215748484e-08
6.904886648e-09
3.749993291e-09
1.951959546e-09
9.736508893e-10
4.669362776e-10
2.154729518e-10
9.618853442e-11
4.16803706e-11
1.767945214e-11
7.394740803e-12
3.086738325e-12
1.299287747e-12
5.583741742e-13
2.472675393e-13
1.137178533e-13
5.453711082e-14
2.729078802e-14
1.41894748e-14
7.596206065e-15
4.13078814e-15
2.243051395e-15
1.191194251e-15
6.01534645e-16
2.748566291e-16
9.922424804e-17
9.605957205e-18
-3.203160097e-17
-4.755844236e-17
-4.927742805e-17
-4.411220862e-17
-3.607985048e-17
-2.756630251e-17
-1.991540547e-17
-1.373268838e-17
-9.11752432e-18
-5.877067342e-18
-3.704809692e-18
-2.297194347e-18
-1.40698326e-18
-8.537912919e-19
-5.142927406e-19
-3.07683608e-19
-1.825009282e-19
-1.067064907e-19
-6.074805759e-20
-3.289652986e-20
-1.625093882e-20
-6.791841191e-21
-2.04073945e-21
-3.005953349e-22
-1.432093268e-23
0.0001509598362
0.0008665179946
7.302276721e-05
3.163279132e-06
5.10347616e-07
2.442039342e-07
1.477735845e-07
9.227795906e-08
5.705497466e-08
3.447226004e-08
2.022589065e-08
1.148596686e-08
6.299044989e-09
3.334129884e-09
1.701437432e-09
8.377227166e-10
3.981834866e-10
1.833080723e-10
8.19867809e-11
3.590490731e-11
1.551895224e-11
6.704090211e-12
2.926219686e-12
1.306711272e-12
6.020157883e-13
2.879381192e-13
1.429724113e-13
7.334409233e-14
3.847852461e-14
2.036863789e-14
1.0707467e-14
5.485400832e-15
2.666365182e-15
1.167040137e-15
3.913364653e-16
7.143760782e-18
-1.679098865e-16
-2.313045697e-16
-2.350039626e-16
-2.081489769e-16
-1.684827588e-16
-1.272022223e-16
-9.076474349e-17
-6.19201253e-17
-4.083530459e-17
-2.628323409e-17
-1.662724999e-17
-1.038578283e-17
-6.423222736e-18
-3.939588584e-18
-2.397119128e-18
-1.444644586e-18
-8.577739126e-19
-4.960218887e-19
-2.732909653e-19
-1.379476082e-19
-5.945158002e-20
-1.884273706e-20
-3.106798416e-21
-2.094449046e-22
-0.002376854815
0.002845938729
0.0002478933111
2.096000836e-05
2.013581409e-06
7.394568628e-07
4.212288818e-07
2.651543614e-07
1.700174671e-07
1.08344679e-07
6.792405337e-08
4.16854814e-08
2.496875935e-08
1.456807606e-08
8.26652259e-09
4.555475061e-09
2.43371658e-09
1.259049677e-09
6.302754048e-10
3.058397503e-10
1.443045759e-10
6.664156935e-11
3.035907608e-11
1.379834747e-11
6.326918787e-12
2.961211247e-12
1.423622807e-12
7.042435574e-13
3.567578528e-13
1.834368833e-13
9.458728562e-14
4.827221982e-14
2.402325371e-14
1.141130799e-14
4.95021204e-15
1.707902249e-15
1.222203023e-16
-6.099814029e-16
-8.884821983e-16
-9.186922131e-16
-8.173612411e-16
-6.594527337e-16
-4.939255224e-16
-3.489934442e-16
-2.361098657e-16
-1.550478079e-16
-9.985527195e-17
-6.348758308e-17
-3.999122497e-17
-2.499541705e-17
-1.550007161e-17
-9.516976549e-18
-5.75525619e-18
-3.391085707e-18
-1.90872369e-18
-9.910257386e-19
-4.452032724e-19
-1.513693911e-19
-2.871919516e-20
-2.756170311e-21
-0.002466916809
0.00266173125
0.0009462638529
0.0001047370929
9.890315916e-06
2.075398342e-06
9.425789356e-07
5.654029147e-07
3.654180457e-07
2.401735032e-07
1.573053072e-07
1.017731112e-07
6.476645008e-08
4.045074757e-08
2.476250939e-08
1.484384462e-08
8.705100138e-09
4.990090207e-09
2.792320703e-09
1.522828038e-09
8.082441361e-10
4.172892049e-10
2.097694827e-10
1.031190561e-10
4.993916141e-11
2.406947081e-11
1.165854642e-11
5.721176867e-12
2.854226135e-12
1.44581685e-12
7.385349882e-13
3.767799043e-13
1.899354382e-13
9.353909632e-14
4.427805218e-14
1.950650958e-14
7.249576321e-15
1.252531154e-15
-1.567651747e-15
-2.699371839e-15
-2.90428287e-15
-2.615342956e-15
-2.10999884e-15
-1.570426465e-15
-1.100887671e-15
-7.404872688e-16
-4.851568349e-16
-3.12862082e-16
-1.998411826e-16
-1.268231371e-16
-7.999191359e-17
-5.003615279e-17
-3.086968592e-17
-1.858895205e-17
-1.072926426e-17
-5.753240962e-18
-2.706318521e-18
-9.904055602e-19
-2.162829345e-19
-2.824006576e-20
-0.001514816743
-0.001969198153
0.003405863622
0.0003746590716
4.708221776e-05
6.482118209e-06
1.990680073e-06
1.036689684e-06
6.511178055e-07
4.327429852e-07
2.916649902e-07
1.961038626e-07
1.30566359e-07
8.577547062e-08
5.549961547e-08
3.533277967e-08
2.211738561e-08
1.360530184e-08
8.21906303e-09
4.872050972e-09
2.830852056e-09
1.610623899e-09
8.968166267e-10
4.883982935e-10
2.60239794e-10
1.360198467e-10
7.001454655e-11
3.572693805e-11
1.820784111e-11
9.321874082e-12
4.79935546e-12
2.476647999e-12
1.272719148e-12
6.462568715e-13
3.211414085e-13
1.540096397e-13
6.951842556e-14
2.750649643e-14
6.85496028e-15
-2.898561262e-15
-6.890784283e-15
-7.801078214e-15
-7.128398212e-15
-5.766377212e-15
-4.275693126e-15
-2.982801121e-15
-2.000808643e-15
-1.310281564e-15
-8.46460964e-16
-5.429465006e-16
-3.467919962e-16
-2.203704493e-16
-1.386185786e-16
-8.544352029e-17
-5.074204928e-17
-2.821581807e-17
-1.395389146e-17
-5.514871535e-18
-1.386031473e-18
-2.355754721e-19
-0.001080824802
-0.003185449152
0.004782712811
0.001101809532
0.0001622451255
2.057518752e-05
4.190644486e-06
1.755632034e-06
1.035481834e-06
6.855996695e-07
4.709379712e-07
3.262961418e-07
2.253472339e-07
1.542504462e-07
1.043505313e-07
6.966471819e-08
4.58596741e-08
2.975307381e-08
1.901649124e-08
1.196801839e-08
7.409928056e-09
4.512301897e-09
2.699614882e-09
1.585424578e-09
9.134215405e-10
5.163658587e-10
2.868439038e-10
1.569394544e-10
8.48269147e-11
4.54634856e-11
2.423814764e-11
1.287886759e-11
6.818862659e-12
3.587452932e-12
1.864985968e-12
9.496600767e-13
4.66941353e-13
2.165615705e-13
8.934003462e-14
2.634864974e-14
-3.268596341e-15
-1.5360595e-14
-1.839061271e-14
-1.702562371e-14
-1.382579079e-14
-1.025813338e-14
-7.151926784e-15
-4.795668248e-15
-3.143909537e-15
-2.036680942e-15
-1.312506912e-15
-8.434557104e-16
-5.390587228e-16
-3.39642949e-16
-2.076794889e-16
-1.200501196e-16
-6.259812669e-17
-2.678231414e-17
-7.730370111e-18
-1.638493082e-18
-0.0007588195002
-0.002339317624
-9.096125844e-05
0.002895040017
0.0004240792484
7.135792438e-05
1.066744171e-05
3.080542155e-06
1.572239978e-06
1.006678679e-06
6.954120892e-07
4.924633323e-07
3.504837136e-07
2.484053645e-07
1.745256746e-07
1.212639096e-07
8.322495033e-08
5.636984487e-08
3.769198687e-08
2.486962722e-08
1.618009803e-08
1.037109794e-08
6.54290234e-09
4.058653359e-09
2.473304522e-09
1.47993461e-09
8.697210998e-10
5.026050631e-10
2.862208762e-10
1.611020881e-10
8.994571271e-11
4.994976122e-11
2.761689748e-11
1.519001099e-11
8.29187365e-12
4.471779924e-12
2.361463058e-12
1.202402164e-12
5.755189428e-13
2.45916974e-13
7.987379957e-14
1.639718493e-15
-3.032214882e-14
-3.882738925e-14
-3.64238961e-14
-2.972656102e-14
-2.217196496e-14
-1.552246465e-14
-1.04336456e-14
-6.857276156e-15
-4.46165479e-15
-2.892890624e-15
-1.870967722e-15
-1.200254887e-15
-7.537550529e-16
-4.525606399e-16
-2.49012491e-16
-1.154126977e-16
-3.808726704e-17
-9.688788364e-18
-0.0005428612806
-0.001526129965
-0.003089034629
0.004912758906
0.001083310995
0.000200402501
3.390609175e-05
6.458221017e-06
2.426007544e-06
1.401822585e-06
9.506479975e-07
6.807659027e-07
4.961281833e-07
3.622398511e-07
2.628893293e-07
1.891202073e-07
1.34657496e-07
9.477123881e-08
6.588680755e-08
4.523161378e-08
3.063830038e-08
2.045929934e-08
1.345641556e-08
8.708872511e-09
5.540703348e-09
3.462467443e-09
2.124463657e-09
1.280201631e-09
7.585751833e-10
4.430061654e-10
2.558456984e-10
1.467102502e-10
8.383927751e-11
4.785709986e-11
2.72910487e-11
1.550781193e-11
8.726375952e-12
4.80973866e-12
2.553848434e-12
1.272147715e-12
5.666346763e-13
1.981542385e-13
2.057077379e-14
-5.333221377e-14
-7.429330544e-14
-7.089361034e-14
-5.825454939e-14
-4.380692774e-14
-3.094299201e-14
-2.09435837e-14
-1.384105046e-14
-9.062481824e-15
-5.919201029e-15
-3.851672721e-15
-2.473196151e-15
-1.536745106e-15
-8.907455482e-16
-4.470097468e-16
-1.677355457e-16
-4.95827454e-17
-0.0006152075225
-0.001150536355
-0.003037779655
0.002654859286
0.002256450934
0.0004563234606
0.0001010028034
1.743758112e-05
4.199588589e-06
1.890101484e-06
1.187024914e-06
8.409787154e-07
6.200557717e-07
4.635050767e-07
3.447306538e-07
2.563763976e-07
1.88881041e-07
1.376101876e-07
9.904040517e-08
7.037378163e-08
4.933977638e-08
3.411227478e-08
2.324009514e-08
1.558768158e-08
1.028252486e-08
6.664305722e-09
4.24039577e-09
2.647955792e-09
1.623512874e-09
9.788313138e-10
5.819780003e-10
3.426253821e-10
2.006819301e-10
1.174842914e-10
6.897530945e-11
4.063992856e-11
2.396024585e-11
1.40326742e-11
8.064602139e-12
4.469801824e-12
2.326510866e-12
1.085722253e-12
4.050937694e-13
6.246953759e-14
-8.544346342e-14
-1.303262629e-13
-1.26936006e-13
-1.051814136e-13
-7.977144315e-14
-5.698977021e-14
-3.903851323e-14
-2.607341555e-14
-1.722873266e-14
-1.134251214e-14
-7.41547934e-15
-4.746289507e-15
-2.887460284e-15
-1.567222489e-15
-6.654113901e-16
-2.229921836e-16
-0.0007680890863
-0.0008384821562
-0.002109760884
-0.001886294446
0.004290377685
0.0009219949416
0.0002238720508
5.343645907e-05
1.000514446e-05
2.78271244e-06
1.364015969e-06
8.920533674e-07
6.494386722e-07
4.912971291e-07
3.723272645e-07
2.83907989e-07
2.147323568e-07
1.608185522e-07
1.190986711e-07
8.714544422e-08
6.296474997e-08
4.490325573e-08
3.159270456e-08
2.191604655e-08
1.497691145e-08
1.007041262e-08
6.65321047e-09
4.313681298e-09
2.743421937e-09
1.712657655e-09
1.051499463e-09
6.37099458e-10
3.8294586e-10
2.297325558e-10
1.383130968e-10
8.38689387e-11
5.122579748e-11
3.13906327e-11
1.91389295e-11
1.146244894e-11
6.623031407e-12
3.593312674e-12
1.748195962e-12
6.833437782e-13
1.221374037e-13
-1.312303574e-13