/*--------------------------------*- C++ -*----------------------------------*\
  =========                 |
  \\      /  F ield         | OpenFOAM: The Open Source CFD Toolbox
   \\    /   O peration     | Website:  https://openfoam.org
    \\  /    A nd           | Version:  10
     \\/     M anipulation  |
\*---------------------------------------------------------------------------*/
FoamFile
{
    format      ascii;
    class       volScalarField;
    location    "3000";
    object      RR.NH;
}
// * * * * * * * * * * * * * * * * * * * * * * * * * * * * * * * * * * * * * //

dimensions      [1 -3 -1 0 0 0 0];

internalField   nonuniform List<scalar> 
5170
(
-9.166102596e-68
-5.113045673e-68
-1.29164921e-68
-1.484626635e-69
-2.070961205e-70
-5.054715414e-65
-2.693758494e-65
-5.858130618e-66
-5.712478988e-67
-4.056862516e-67
-2.81700193e-62
-1.434900546e-62
-2.662323445e-63
-2.859814655e-64
-8.308288186e-64
-1.594446747e-59
-7.809131887e-60
-1.271978708e-60
-2.067566357e-61
-1.517467689e-60
-9.19556414e-57
-4.392638069e-57
-6.593253472e-58
-2.066359265e-58
-2.540807367e-57
-5.426999982e-54
-2.573686118e-54
-3.752015247e-55
-2.460642265e-55
-3.936628989e-54
-3.290206327e-51
-1.57024631e-51
-2.46216866e-52
-3.193599088e-52
-5.836167544e-51
-2.04255395e-48
-1.004578917e-48
-1.935414065e-49
-4.366344471e-49
-8.45404155e-48
-1.306848451e-45
-6.885611752e-46
-1.788339227e-46
-6.205474983e-46
-1.206089333e-44
-8.635970811e-43
-5.06568011e-43
-1.891062607e-43
-9.178887644e-43
-1.703927211e-41
-5.904556146e-40
-4.00234385e-40
-2.232210936e-40
-1.414962456e-39
-2.392884831e-38
-4.152279245e-37
-3.365338971e-37
-2.878755309e-37
-2.251883306e-36
-3.348755538e-35
-2.996117059e-34
-3.000458348e-34
-3.982150041e-34
-3.714935709e-33
-4.67669389e-32
-2.204802938e-31
-2.792008537e-31
-5.758683227e-31
-6.294102562e-30
-6.5227509e-29
-1.641446972e-28
-2.701221136e-28
-8.493260735e-28
-1.076020973e-26
-9.08746328e-26
-1.221828218e-25
-2.642343667e-25
-1.235204829e-24
-1.767787937e-23
-1.264565407e-22
-8.904715521e-23
-2.603465197e-22
-1.709610627e-21
-2.670943758e-20
-1.758236131e-19
-6.276492274e-20
-2.508878152e-19
-2.247787487e-18
-3.756518961e-17
-2.440275563e-16
-3.975639887e-17
-2.265954141e-16
-2.680173759e-15
-4.613574601e-14
-3.383685645e-13
-2.123692999e-14
-1.923870229e-13
-3.063251617e-12
-5.120826152e-11
-4.726341298e-10
2.525269843e-08
1.081633922e-08
7.604427499e-09
1.23105289e-08
2.508001859e-08
-6.507264877e-10
2.351378746e-09
2.041825938e-09
2.164208828e-09
-1.720995574e-09
-3.511322286e-09
-1.371867788e-09
-1.096343685e-09
-2.051937589e-09
-3.698837506e-09
-3.009693874e-09
-2.286201919e-09
-1.955410804e-09
-2.399785723e-09
-2.805022266e-09
-2.285039144e-09
-2.191600373e-09
-2.04053377e-09
-2.20057243e-09
-2.015561893e-09
-1.705290893e-09
-1.892829092e-09
-1.849833801e-09
-1.900140166e-09
-1.466228534e-09
-1.286226173e-09
-1.572826971e-09
-1.591362607e-09
-1.5958424e-09
-1.085504086e-09
-9.79566987e-10
-1.287374353e-09
-1.33571883e-09
-1.304274681e-09
-7.969571355e-10
-7.503579949e-10
-1.036035827e-09
-1.096392626e-09
-1.017203176e-09
-5.763880559e-10
-5.780799281e-10
-8.236306614e-10
-8.786262612e-10
-7.648897076e-10
-4.169943355e-10
-4.468783053e-10
-6.468970736e-10
-6.900395429e-10
-5.673803157e-10
-3.067534873e-10
-3.474614933e-10
-5.045409617e-10
-5.343303494e-10
-4.216190157e-10
-2.311938913e-10
-2.722870571e-10
-3.921410173e-10
-4.115858901e-10
-3.177553395e-10
-1.79691914e-10
-2.165126225e-10
-3.066568542e-10
-3.182705876e-10
-2.44858295e-10
-1.444665402e-10
-1.751011989e-10
-2.420079562e-10
-2.489579188e-10
-1.940663018e-10
-1.203133846e-10
-1.450040036e-10
-1.943647429e-10
-1.98326166e-10
-1.581474283e-10
-1.033468601e-10
-1.233211467e-10
-1.59323075e-10
-1.619432354e-10
-1.331155701e-10
-9.174273957e-11
-1.09301018e-10
-1.342920085e-10
-1.363058695e-10
-1.15996237e-10
-8.417604207e-11
-2.029271429e-10
-1.632714631e-10
-1.292449273e-10
-1.063268216e-10
-7.951571116e-11
5.473708897e-08
-1.28200426e-08
-2.4577199e-09
-4.532734246e-10
-1.315073497e-10
-1.62701633e-12
-2.158553433e-11
-7.129519498e-10
-2.461808716e-08
-5.603335794e-07
-4.687275141e-12
-5.159554513e-11
-1.295721314e-09
-2.885139721e-08
-3.061183594e-07
-8.291748985e-12
-8.145556952e-11
-1.714708789e-09
-2.915822164e-08
-2.332119396e-07
-1.698449663e-11
-1.810028908e-10
-4.016873127e-09
-6.667678609e-08
-5.723549614e-07
-3.578983341e-11
-3.890956988e-10
-7.753330885e-09
-9.968288171e-08
-6.481788651e-07
-6.954787305e-11
-7.107847698e-10
-1.171607308e-08
-1.149518051e-07
-5.685246972e-07
-1.421500337e-10
-1.384449096e-09
-1.877126413e-08
-1.415114421e-07
-5.664156879e-07
-3.378869088e-10
-3.281051815e-09
-3.717828959e-08
-2.320369555e-07
-9.017470883e-07
-8.301226715e-10
-7.494029199e-09
-6.552229505e-08
-3.205026011e-07
-1.067702719e-06
-1.884501755e-09
-1.455442038e-08
-9.512940351e-08
-3.659145948e-07
-1.021863527e-06
-4.189212784e-09
-2.477697671e-08
-1.208961885e-07
-3.861772378e-07
-9.451848646e-07
-8.418473573e-09
-3.816831084e-08
-1.526363149e-07
-4.464552635e-07
-1.070747082e-06
-1.580211747e-08
-5.673400196e-08
-1.951518278e-07
-5.296486549e-07
-1.214296502e-06
-2.798878518e-08
-8.08243373e-08
-2.397708555e-07
-5.890579464e-07
-1.234560137e-06
-4.747211897e-08
-1.095457788e-07
-2.786648827e-07
-6.126071785e-07
-1.161836154e-06
-7.568709397e-08
-1.434451964e-07
-3.154119758e-07
-6.285358449e-07
-1.109044802e-06
-1.163212428e-07
-1.893940596e-07
-3.702939957e-07
-6.934215327e-07
-1.212282815e-06
-1.717027351e-07
-2.532403221e-07
-4.534815641e-07
-8.163213021e-07
-1.443314711e-06
-2.40822384e-07
-3.291765388e-07
-5.437358857e-07
-9.345746064e-07
-1.62526484e-06
-3.061249366e-07
-3.950171227e-07
-6.081724652e-07
-9.957693735e-07
-1.674585142e-06
-3.568538808e-07
-4.408843453e-07
-6.427628896e-07
-1.007753872e-06
-1.631283105e-06
-3.99485883e-07
-4.818089047e-07
-6.714628738e-07
-1.014222605e-06
-1.609513889e-06
-4.574868798e-07
-5.367350308e-07
-7.267922264e-07
-1.073559435e-06
-1.673945973e-06
-5.448921642e-07
-6.290975361e-07
-8.311432534e-07
-1.224933562e-06
-1.863409064e-06
-6.654257031e-07
-7.584608755e-07
-1.017266235e-06
-1.449487603e-06
-2.19899499e-06
-8.276004746e-07
-9.355658136e-07
-1.193218845e-06
-1.756311666e-06
-2.624868528e-06
-1.028852979e-06
-1.153450478e-06
-1.474856826e-06
-2.119801821e-06
-3.109521882e-06
-1.281438908e-06
-1.426271496e-06
-1.768641491e-06
-2.577070484e-06
-3.702513672e-06
-1.716062764e-06
-1.916287393e-06
-2.186267575e-06
-2.893890734e-06
-4.367192146e-06
-2.139005012e-06
-2.347723318e-06
-2.90533844e-06
-3.844065551e-06
-5.335321442e-06
-2.743750524e-06
-3.024258354e-06
-3.673170735e-06
-4.772992021e-06
-6.572386783e-06
-3.571814476e-06
-3.903302294e-06
-4.737495875e-06
-6.085112302e-06
-8.139107444e-06
-4.796636106e-06
-5.233843252e-06
-5.923053317e-06
-7.830562926e-06
-1.006510564e-05
-6.412514954e-06
-6.883020756e-06
-7.791623507e-06
-9.23912148e-06
-1.114415842e-05
-5.935608648e-06
-6.26484465e-06
-6.835248111e-06
-7.502394706e-06
-8.076121303e-06
-1.391240406e-06
-1.43245266e-06
-1.430345369e-06
-1.484633955e-06
-1.287444067e-06
2.253709366e-06
2.152230049e-06
1.978334968e-06
1.72411803e-06
1.535596892e-06
-2.688879918e-07
-4.168996301e-07
-6.734549878e-07
-9.015233108e-07
-7.87699223e-07
-4.878543084e-06
-4.764317656e-06
-4.347881515e-06
-3.197114053e-06
-3.731641994e-07
-3.189305205e-06
-1.90236551e-06
1.380827357e-06
7.64640221e-06
1.818428899e-05
1.760064294e-05
1.890616897e-05
2.057610794e-05
2.002830567e-05
1.514671067e-05
-4.259973816e-06
-5.010511773e-06
-6.640412766e-06
-9.041576239e-06
-1.201098315e-05
-1.334750598e-05
-1.348949611e-05
-1.374153139e-05
-1.397708579e-05
-1.404689489e-05
-9.054193034e-06
-8.980977995e-06
-8.812159643e-06
-8.53837811e-06
-8.150668239e-06
-4.520369221e-06
-4.468393881e-06
-4.332169939e-06
-4.162588328e-06
-3.952336853e-06
-2.107261684e-06
-2.084115246e-06
-2.034005785e-06
-1.960044685e-06
-1.866614457e-06
-1.01090635e-06
-1.001613025e-06
-9.815848497e-07
-9.522333157e-07
-9.148523659e-07
-5.229202064e-07
-5.192333173e-07
-5.112724033e-07
-4.995754406e-07
-4.846119073e-07
-2.990738613e-07
-2.975166538e-07
-2.9434016e-07
-2.901579622e-07
-2.837637949e-07
-1.886826603e-07
-1.879518937e-07
-1.863212538e-07
-1.839947348e-07
-1.808572542e-07
-1.267269169e-07
-1.262780048e-07
-1.254838564e-07
-1.241838085e-07
-1.273372163e-07
-8.880268893e-08
-8.855721512e-08
-8.8024026e-08
-8.723143317e-08
-8.515565749e-08
-6.132117466e-08
-6.116943365e-08
-6.08384223e-08
-6.0341868e-08
-5.968762696e-08
-4.252005778e-08
-4.242021668e-08
-4.220197185e-08
-4.187378131e-08
-4.144009923e-08
-2.915462898e-08
-2.90881805e-08
-2.894266985e-08
-2.87230215e-08
-2.843145897e-08
-1.96748926e-08
-1.962897166e-08
-1.952824112e-08
-1.937584081e-08
-1.917279384e-08
-1.301987025e-08
-1.298840931e-08
-1.291940905e-08
-1.281497281e-08
-1.267576286e-08
-8.470991734e-09
-8.449955491e-09
-8.403818815e-09
-8.334022584e-09
-8.24105885e-09
-5.442439093e-09
-5.428730716e-09
-5.398695937e-09
-5.353304307e-09
-5.292920147e-09
-3.470931871e-09
-3.462218391e-09
-3.443132837e-09
-3.414310521e-09
-3.37601166e-09
-2.209897044e-09
-2.204452737e-09
-2.192537255e-09
-2.174555656e-09
-2.150683003e-09
-1.41265415e-09
-1.409293491e-09
-1.401939286e-09
-1.390846366e-09
-1.376128971e-09
-9.120315246e-10
-9.099665392e-10
-9.054501125e-10
-8.986402905e-10
-8.896093566e-10
-5.978432731e-10
-5.965746186e-10
-5.937999613e-10
-5.896172171e-10
-5.840717642e-10
-4.000641161e-10
-3.992797363e-10
-3.975648769e-10
-3.949803061e-10
-3.915544793e-10
-2.742599927e-10
-2.737716985e-10
-2.727042154e-10
-2.710955252e-10
-2.689636009e-10
-1.934471754e-10
-1.931387854e-10
-1.924648204e-10
-1.914493156e-10
-1.90103673e-10
-1.403136433e-10
-1.401178468e-10
-1.396899628e-10
-1.390452169e-10
-1.381908223e-10
-1.05216935e-10
-1.050878993e-10
-1.048059791e-10
-1.043811618e-10
-1.038181141e-10
-8.251709802e-11
-8.243180356e-11
-8.224540789e-11
-8.196435472e-11
-8.159151115e-11
-1.993200852e-06
-9.34546298e-07
-8.327245792e-07
-2.495784511e-06
-2.134305406e-06
-1.469147416e-06
-1.32658668e-06
-2.323713661e-06
-2.410284559e-06
-1.988339606e-06
-1.680541041e-06
-1.981839952e-06
-2.185730661e-06
-2.060271523e-06
-1.796185004e-06
-1.650804939e-06
-1.856017376e-06
-2.261246165e-06
-2.501451073e-06
-2.48787505e-06
-2.375504594e-06
-2.274505989e-06
-2.310261195e-06
-2.583883705e-06
-3.025003924e-06
-3.575505142e-06
-4.18188297e-06
-4.915388098e-06
-5.818368343e-06
-6.91887718e-06
-8.352240872e-06
-1.015636336e-05
-1.216483498e-05
-1.274218299e-05
-8.48009734e-06
-1.116713308e-06
1.521493505e-06
-1.688456304e-07
3.475223528e-06
2.797333763e-05
1.002110398e-05
-1.411128507e-05
-1.39517268e-05
-7.83208986e-06
-3.785320208e-06
-1.794136218e-06
-8.858979559e-07
-4.729047576e-07
-2.787163525e-07
-1.783754289e-07
-1.211424366e-07
-8.432870942e-08
-5.915981308e-08
-4.109089677e-08
-2.81958525e-08
-1.90082454e-08
-1.256278319e-08
-8.165570469e-09
-5.243877788e-09
-3.344899926e-09
-2.131282054e-09
-1.364161774e-09
-8.822594153e-10
-5.795534355e-10
-3.887599283e-10
-2.672220443e-10
-1.890027677e-10
-1.374905641e-10
-1.033556973e-10
-8.128464262e-11
-4.803006978e-06
6.881711373e-06
-3.916121477e-07
-3.536682161e-08
-2.778056198e-09
-1.441628473e-06
-3.18660447e-06
6.852134431e-07
-1.352563772e-07
-1.293049151e-08
-1.891806962e-06
-1.459528887e-05
4.395398202e-05
-5.501686192e-06
-2.971615968e-07
-7.431101425e-06
-5.975062558e-05
7.955238675e-05
-2.702530867e-05
-2.135715916e-06
-4.813874155e-06
-2.398978119e-05
-3.233509034e-05
-6.223466665e-06
-1.456620142e-06
-2.574272942e-06
-8.677300284e-06
-1.321700823e-05
7.505197348e-06
-2.751627344e-06
-2.198797953e-06
-8.442827606e-06
-3.441650499e-05
7.632198083e-05
-1.883102505e-05
-4.910526087e-06
-2.58542039e-05
-0.0001357316581
0.0003291094345
-7.673486213e-05
-4.542994993e-06
-1.777319542e-05
-6.515781564e-05
1.684204324e-06
-2.743745004e-05
-3.254410358e-06
-9.726742331e-06
-2.667445297e-05
-1.239248789e-05
1.065333774e-05
-2.543981504e-06
-7.02555836e-06
-1.956089001e-05
-3.973030223e-05
9.906330689e-05
-3.336474726e-06
-1.143502956e-05
-4.103013282e-05
-0.0001470216866
0.0004128988258
-3.654993703e-06
-1.136441762e-05
-3.475039144e-05
-0.0001035240693
0.000141147914
-3.229627586e-06
-8.541755687e-06
-2.156580994e-05
-5.184262271e-05
2.706347488e-05
-2.633946912e-06
-6.135358828e-06
-1.371812018e-05
-2.988401765e-05
-2.390133822e-06
-2.391135484e-06
-5.529264676e-06
-1.291343304e-05
-3.166702939e-05
-4.858661181e-05
-2.87708786e-06
-7.411476186e-06
-1.957121854e-05
-5.449547743e-05
-0.0001326819567
-3.657645857e-06
-9.470892314e-06
-2.435728605e-05
-6.397185259e-05
-0.0001504813103
-4.054290281e-06
-9.688906312e-06
-2.274101564e-05
-5.354132492e-05
-0.0001116879825
-3.929877877e-06
-8.647906696e-06
-1.862607029e-05
-4.011246539e-05
-7.582154587e-05
-3.602633386e-06
-7.410741252e-06
-1.504318077e-05
-3.069353303e-05
-5.472507071e-05
-3.36972094e-06
-6.634507343e-06
-1.314809597e-05
-2.640901281e-05
-4.681094851e-05
-3.391102334e-06
-6.626218773e-06
-1.325031539e-05
-2.698538148e-05
-4.94535891e-05
-3.758244547e-06
-7.431404664e-06
-1.513235554e-05
-3.122031635e-05
-5.872068334e-05
-4.391157896e-06
-8.704966708e-06
-1.771015355e-05
-3.6078476e-05
-6.701185783e-05
-5.156800039e-06
-1.000906813e-05
-2.007805617e-05
-3.953177595e-05
-7.028375238e-05
-5.966149565e-06
-1.139199703e-05
-2.212565675e-05
-4.166959183e-05
-6.957738557e-05
-6.914992895e-06
-1.28910612e-05
-2.405748288e-05
-4.293471179e-05
-6.594240937e-05
-8.043452248e-06
-1.451862502e-05
-2.591885931e-05
-4.314970911e-05
-5.875269392e-05
-9.117091519e-06
-1.634248326e-05
-2.749235814e-05
-4.151473179e-05
-4.639415578e-05
-1.111723607e-05
-1.827888562e-05
-2.827856029e-05
-3.686475497e-05
-2.800564455e-05
-1.310287668e-05
-1.996440761e-05
-2.722997527e-05
-2.796285676e-05
-5.077701208e-06
-1.486467866e-05
-2.002259388e-05
-2.235143359e-05
-1.458446e-05
1.890052577e-05
-1.41519589e-05
-1.551654343e-05
-1.217879084e-05
1.223712074e-06
4.32390561e-05
-7.922216113e-06
-5.740626096e-06
5.823170375e-07
1.820646731e-05
7.813111513e-05
-2.416659755e-07
2.198482349e-06
9.836523586e-06
3.723263946e-05
0.0001172483236
1.97729335e-06
5.500354801e-06
2.061288008e-05
7.117139437e-05
7.887660358e-05
1.852041056e-06
1.30900932e-05
4.841525677e-05
7.299435621e-05
8.573097126e-06
1.199037648e-05
4.114886865e-05
5.313913308e-05
9.161535215e-06
-2.396186376e-05
3.771765156e-05
2.71156683e-05
-1.252094335e-07
-2.144028011e-05
-2.751855186e-05
1.891441451e-06
-1.129718186e-05
-2.107606168e-05
-2.309309969e-05
-1.98354715e-05
-1.656229438e-05
-1.865094693e-05
-1.788789718e-05
-1.518621404e-05
-1.192342746e-05
-1.349316358e-05
-1.221283844e-05
-1.039545197e-05
-8.405700649e-06
-6.545238511e-06
-7.298502488e-06
-6.344344684e-06
-5.326195911e-06
-4.332648074e-06
-3.447003795e-06
-3.532643665e-06
-3.086070023e-06
-2.629383205e-06
-2.194335766e-06
-1.802220695e-06
-1.691127125e-06
-1.503804577e-06
-1.314819975e-06
-1.131348077e-06
-9.629049076e-07
-8.433147943e-07
-7.68565742e-07
-6.911608015e-07
-6.143411008e-07
-5.415268145e-07
-4.557800833e-07
-4.250041981e-07
-3.925127954e-07
-3.604852695e-07
-3.277074914e-07
-2.712634576e-07
-2.576642388e-07
-2.427075536e-07
-2.268416402e-07
-2.132422861e-07
-1.747141077e-07
-1.678446852e-07
-1.599933044e-07
-1.52776915e-07
-1.439979086e-07
-1.190427253e-07
-1.151920215e-07
-1.10813532e-07
-1.059403959e-07
-1.012380885e-07
-8.289787832e-08
-8.063565337e-08
-7.855841776e-08
-7.547044637e-08
-7.218179085e-08
-5.83559226e-08
-5.682268084e-08
-5.50316609e-08
-5.301182102e-08
-5.077484842e-08
-4.055109847e-08
-3.951799875e-08
-3.829129145e-08
-3.687680381e-08
-3.53052242e-08
-2.782768039e-08
-2.711778142e-08
-2.626332829e-08
-2.526765294e-08
-2.413417208e-08
-1.875066491e-08
-1.825210582e-08
-1.765046025e-08
-1.694925366e-08
-1.615371897e-08
-1.238646806e-08
-1.204478708e-08
-1.163333525e-08
-1.115577395e-08
-1.061706276e-08
-8.048355253e-09
-7.821247995e-09
-7.548798696e-09
-7.234106659e-09
-6.881228007e-09
-5.168134794e-09
-5.021426085e-09
-4.846108364e-09
-4.644517792e-09
-4.419578825e-09
-3.297092377e-09
-3.204506722e-09
-3.094228291e-09
-2.967837698e-09
-2.82726722e-09
-2.101605044e-09
-2.044109139e-09
-1.975775619e-09
-1.897662081e-09
-1.811019654e-09
-1.345933412e-09
-1.310591201e-09
-1.268660691e-09
-1.220810026e-09
-1.167818255e-09
-8.711088223e-10
-8.494645824e-10
-8.23814746e-10
-7.945745588e-10
-7.622223021e-10
-5.727261922e-10
-5.594543924e-10
-5.43738459e-10
-5.258345852e-10
-5.060352847e-10
-3.845543936e-10
-3.763655136e-10
-3.666742826e-10
-3.556390096e-10
-3.434387917e-10
-2.64612436e-10
-2.595205542e-10
-2.534971306e-10
-2.466400427e-10
-2.390593894e-10
-1.873604963e-10
-1.841491787e-10
-1.803510644e-10
-1.760271941e-10
-1.712455029e-10
-1.364506185e-10
-1.344110907e-10
-1.319977563e-10
-1.292480647e-10
-1.262033746e-10
-1.026721283e-10
-1.013273221e-10
-9.973482056e-11
-9.791816798e-11
-9.590322577e-11
-8.083200278e-11
-7.99377326e-11
-7.887484765e-11
-7.765656173e-11
-7.629740401e-11
-1.077908785e-10
-1.786468546e-12
-6.777346986e-14
-5.009226344e-15
-7.989873944e-16
-1.611817106e-16
-3.21545734e-17
-6.170959696e-18
-1.170708589e-18
-2.398234095e-19
-6.82389327e-20
-3.626092525e-20
-2.977135898e-20
-2.760621526e-20
-2.573116844e-20
-2.340198694e-20
-2.060440974e-20
-1.751801595e-20
-1.437064869e-20
-1.137034744e-20
-8.676393787e-21
-6.386313634e-21
-4.535688688e-21
-3.109268955e-21
-2.058021528e-21
-1.316342807e-21
-8.144592049e-22
-4.879682054e-22
-2.834309355e-22
-1.598149264e-22
-8.761336142e-23
-4.678553918e-23
-2.439355994e-23
-1.245829517e-23
-6.259535903e-24
-3.110826322e-24
-1.538004963e-24
-7.597682561e-25
-3.753010837e-25
-1.846109559e-25
-8.967384941e-26
-4.256704036e-26
-1.954983324e-26
-8.618901453e-27
-3.628711865e-27
-1.455282626e-27
-5.55826389e-28
-2.025075172e-28
-7.061425968e-29
-2.36862742e-29
-7.698747951e-30
-2.450955885e-30
-7.767285865e-31
-2.507412211e-31
-8.46461793e-32
-3.027001604e-32
-1.10844841e-32
-3.729817267e-33
-9.263713866e-34
-1.500180956e-34
-4.012153163e-10
-6.946898841e-12
-2.221461968e-13
-1.45994264e-14
-1.874593729e-15
-3.15848864e-16
-5.629497735e-17
-1.025047996e-17
-2.142972806e-18
-6.841086485e-19
-3.927413449e-19
-3.183070364e-19
-2.853987047e-19
-2.571392386e-19
-2.263642719e-19
-1.933675094e-19
-1.603049168e-19
-1.291622042e-19
-1.012545197e-19
-7.720674064e-20
-5.721517248e-20
-4.11683149e-20
-2.874431111e-20
-1.946317306e-20
-1.277973188e-20
-8.138320012e-21
-5.028590422e-21
-3.016835251e-21
-1.758726599e-21
-9.972308532e-22
-5.506572711e-22
-2.966148e-22
-1.562251616e-22
-8.072864182e-23
-4.112212927e-23
-2.076969543e-23
-1.04617738e-23
-5.273880137e-24
-2.658007198e-24
-1.330892788e-24
-6.554257298e-25
-3.139732517e-25
-1.448915842e-25
-6.396068596e-26
-2.689751332e-26
-1.07599537e-26
-4.097613575e-27
-1.489250643e-27
-5.1862871e-28
-1.740113516e-28
-5.667111045e-29
-1.810536094e-29
-5.762672995e-30
-1.867002616e-30
-6.306331077e-31
-2.24666917e-31
-8.216933399e-32
-2.82874336e-32
-7.778001427e-33
-1.123606483e-33
-6.311913484e-09
-6.352991856e-11
-7.884238437e-13
-3.405070942e-14
-2.971107215e-15
-4.320469739e-16
-8.655388168e-17
-1.977347412e-17
-7.48803073e-18
-4.111864316e-18
-2.795971523e-18
-1.991931816e-18
-1.643305177e-18
-1.429037106e-18
-1.238557369e-18
-1.038298508e-18
-8.364869417e-19
-6.494455953e-19
-4.882891515e-19
-3.56809668e-19
-2.541435668e-19
-1.766376711e-19
-1.19863211e-19
-7.945600447e-20
-5.139551485e-20
-3.24244794e-20
-1.994953604e-20
-1.197225885e-20
-7.011397109e-21
-4.011322463e-21
-2.243219117e-21
-1.227625264e-21
-6.589049202e-22
-3.48049712e-22
-1.818361541e-22
-9.452304068e-23
-4.914381044e-23
-2.559581871e-23
-1.33011196e-23
-6.832700227e-24
-3.428724468e-24
-1.661834978e-24
-7.711116709e-25
-3.406147889e-25
-1.428680112e-25
-5.690622669e-26
-2.157439206e-26
-7.815202781e-27
-2.718601026e-27
-9.136530087e-28
-2.988437932e-28
-9.606062868e-29
-3.076225859e-29
-9.998120868e-30
-3.365102904e-30
-1.183833446e-30
-4.261921679e-31
-1.452990579e-31
-3.889600552e-32
-4.783285558e-33
-1.554576654e-07
-2.13526214e-09
-1.30882317e-11
-1.969950858e-13
-9.797365906e-15
-1.059365077e-15
-2.648052615e-16
-1.090533217e-16
-5.598181828e-17
-3.172697177e-17
-1.925282772e-17
-1.260710436e-17
-9.736289656e-18
-7.336767934e-18
-5.900615272e-18
-4.805676834e-18
-3.829359468e-18
-2.949618641e-18
-2.183771222e-18
-1.556419717e-18
-1.072507114e-18
-7.17828412e-19
-4.68578063e-19
-2.992095435e-19
-1.873637531e-19
-1.152682773e-19
-6.970284213e-20
-4.142303902e-20
-2.418945661e-20
-1.387855038e-20
-7.83023142e-21
-4.350717568e-21
-2.386346934e-21
-1.296511072e-21
-7.0101009e-22
-3.790942249e-22
-2.056268517e-22
-1.116412402e-22
-6.019238085e-23
-3.184548378e-23
-1.632461616e-23
-8.020855279e-24
-3.748598177e-24
-1.659044209e-24
-6.944500214e-25
-2.754296982e-25
-1.039299181e-25
-3.752241129e-26
-1.30456464e-26
-4.397898651e-27
-1.448173589e-27
-4.697587757e-28
-1.517139787e-28
-4.946535962e-29
-1.652099718e-29
-5.687686639e-30
-1.980907222e-30
-6.517130346e-31
-1.606444862e-31
-1.672200399e-32
-2.119007351e-07
-5.586741078e-09
-5.133137204e-11
-5.947290466e-13
-3.088801914e-14
-6.228225706e-15
-2.342709899e-15
-1.053302401e-15
-5.247916664e-16
-2.812148413e-16
-1.60474872e-16
-9.703902192e-17
-6.224585764e-17
-4.224139747e-17
-3.297117778e-17
-2.509694584e-17
-1.916077039e-17
-1.44186853e-17
-1.051335717e-17
-7.444010907e-18
-5.076786258e-18
-3.338997568e-18
-2.122512253e-18
-1.309362857e-18
-7.879381406e-19
-4.651759368e-19
-2.707847383e-19
-1.559156047e-19
-8.892287127e-20
-5.026451508e-20
-2.818333615e-20
-1.569625602e-20
-8.700979419e-21
-4.816902464e-21
-2.674816289e-21
-1.495342615e-21
-8.413611772e-22
-4.733422477e-22
-2.631134348e-22
-1.424929438e-22
-7.424091433e-23
-3.686418605e-23
-1.733947163e-23
-7.702886347e-24
-3.232026377e-24
-1.284320345e-24
-4.856351259e-25
-1.758209945e-25
-6.137872098e-26
-2.081348936e-26
-6.906824523e-27
-2.260265403e-27
-7.354650936e-28
-2.401085616e-28
-7.930444769e-29
-2.652430695e-29
-8.825967316e-30
-2.747068974e-30
-6.062364532e-31
-5.490422686e-32
-3.781951713e-07
-2.461447315e-08
-4.733002201e-10
-5.585787531e-12
-2.877842989e-13
-6.120490952e-14
-2.167969498e-14
-9.219647371e-15
-4.396887682e-15
-2.299144095e-15
-1.293172034e-15
-7.716750686e-16
-4.83545787e-16
-3.173464991e-16
-2.181605633e-16
-1.551632746e-16
-1.232374892e-16
-8.815072702e-17
-6.27726471e-17
-4.357622459e-17
-2.931811925e-17
-1.911561712e-17
-1.202780177e-17
-7.305376606e-18
-4.294652439e-18
-2.458000554e-18
-1.377588171e-18
-7.597829267e-19
-4.142423158e-19
-2.244192158e-19
-1.213825128e-19
-6.578378183e-20
-3.584211653e-20
-1.970897625e-20
-1.098457276e-20
-6.22205169e-21
-3.567203753e-21
-2.046930647e-21
-1.157505789e-21
-6.348197745e-22
-3.331891939e-22
-1.658783151e-22
-7.796899883e-23
-3.455937135e-23
-1.447972382e-23
-5.761481371e-24
-2.190189671e-24
-8.002806024e-25
-2.82727667e-25
-9.713675118e-26
-3.264373563e-26
-1.079622869e-26
-3.536247438e-27
-1.153789598e-27
-3.76376514e-28
-1.223019418e-28
-3.881448655e-29
-1.132101778e-29
-2.213296269e-30
-1.789735999e-31
-2.024097549e-06
-1.786111494e-07
-6.402104162e-09
-1.082875027e-10
-2.423063551e-12
-3.154207375e-13
-9.543384012e-14
-3.858797704e-14
-1.811617183e-14
-9.624211787e-15
-5.603880034e-15
-3.488779141e-15
-2.32208051e-15
-1.616115048e-15
-1.161868677e-15
-8.616942301e-16
-6.389119919e-16
-5.210053253e-16
-3.707875004e-16
-2.628603065e-16
-1.826127784e-16
-1.223270616e-16
-7.824173196e-17
-4.790562615e-17
-2.822002238e-17
-1.612218066e-17
-8.955633608e-18
-4.838093817e-18
-2.551517334e-18
-1.323244474e-18
-6.807229379e-19
-3.498619082e-19
-1.80986385e-19
-9.503035453e-20
-5.102982507e-20
-2.814447703e-20
-1.589545157e-20
-9.056891294e-21
-5.10739481e-21
-2.797406555e-21
-1.465358363e-21
-7.269862804e-22
-3.398672802e-22
-1.495534292e-22
-6.21636639e-23
-2.461349853e-23
-9.369148895e-24
-3.454486635e-24
-1.239827938e-24
-4.345220917e-25
-1.490675142e-25
-5.019322995e-26
-1.663947044e-26
-5.445082228e-27
-1.759260103e-27
-5.573664661e-28
-1.693515206e-28
-4.607694389e-29
-7.994491971e-30
-5.845330906e-31
-7.955431717e-06
-1.146123853e-06
-7.839778958e-08
-2.137757358e-09
-4.007134073e-11
-2.302597633e-12
-3.763514393e-13
-1.167856184e-13
-4.828307655e-14
-2.390091416e-14
-1.362171367e-14
-8.531024037e-15
-5.771555928e-15
-4.203897366e-15
-3.238524278e-15
-2.574411898e-15
-2.121029226e-15
-1.738307736e-15
-1.556072538e-15
-1.184978602e-15
-8.847774352e-16
-6.343428583e-16
-4.320975014e-16
-2.814296429e-16
-1.751756415e-16
-1.051965029e-16
-6.035063302e-17
-3.306371878e-17
-1.746177919e-17
-8.980815166e-18
-4.532025782e-18
-2.249941917e-18
-1.108500649e-18
-5.490676898e-19
-2.766954816e-19
-1.428900784e-19
-7.589866398e-20
-4.12224774e-20
-2.247688716e-20
-1.20413483e-20
-6.220732955e-21
-3.056943075e-21
-1.417746784e-21
-6.185665341e-22
-2.545631288e-22
-9.979986344e-23
-3.77667133e-23
-1.394984559e-23
-5.061070177e-24
-1.807095606e-24
-6.346019323e-25
-2.188807553e-25
-7.405344377e-26
-2.45341243e-26
-7.925211708e-27
-2.468816825e-27
-7.217860758e-28
-1.833474035e-28
-2.853013103e-29
-1.853978729e-30
-5.660051432e-06
-1.076692244e-06
-2.012675848e-07
-1.223255634e-08
-3.234387207e-10
-1.089730257e-11
-1.081152639e-12
-2.536334378e-13
-9.425746475e-14
-4.443143086e-14
-2.471764997e-14
-1.534887679e-14
-1.046960103e-14
-7.71850764e-15
-6.115269708e-15
-5.11478958e-15
-4.386163622e-15
-3.863475116e-15
-3.37236935e-15
-3.20653218e-15
-2.613926904e-15
-2.105900423e-15
-1.645219178e-15
-1.22670566e-15
-8.660889159e-16
-5.736420422e-16
-3.552091886e-16
-2.072953414e-16
-1.152101631e-16
-6.178103371e-17
-3.183513854e-17
-1.577059101e-17
-7.629591561e-18
-3.664352689e-18
-1.76374935e-18
-8.528236079e-19
-4.172112317e-19
-2.075704108e-19
-1.047062807e-19
-5.288973464e-20
-2.625323915e-20
-1.261271994e-20
-5.783266691e-21
-2.504397498e-21
-1.02026767e-21
-3.947536706e-22
-1.476021644e-22
-5.407729912e-23
-1.957605389e-23
-7.029460765e-24
-2.503812894e-24
-8.815066824e-25
-3.051339843e-25
-1.031536273e-25
-3.373135035e-26
-1.04900423e-26
-2.998939055e-27
-7.221721076e-28
-1.025934085e-28
-6.085800797e-30
-6.823520995e-06
-1.376264822e-06
-3.451259552e-07
-4.285291153e-08
-2.35225867e-09
-6.85570761e-11
-3.717524846e-12
-5.597819326e-13
-1.671984594e-13
-7.140069581e-14
-3.795308731e-14
-2.309012377e-14
-1.573009515e-14
-1.178517608e-14
-9.497091088e-15
-8.194851026e-15
-7.346792554e-15
-6.7208336e-15
-6.207724997e-15
-5.649809907e-15
-5.537370462e-15
-4.719622261e-15
-3.967607757e-15
-3.247762397e-15
-2.567646333e-15
-1.948183704e-15
-1.410426861e-15
-9.64075331e-16
-6.170349293e-16
-3.668928293e-16
-2.023303629e-16
-1.049255545e-16
-5.221745525e-17
-2.544085821e-17
-1.209823663e-17
-5.646818437e-18
-2.609963812e-18
-1.202356188e-18
-5.522988531e-19
-2.539052604e-19
-1.168048051e-19
-5.301764557e-20
-2.35412649e-20
-1.011356586e-20
-4.138638208e-21
-1.587615011e-21
-5.828108943e-22
-2.094413988e-22
-7.462368258e-23
-2.651122737e-23
-9.40304998e-24
-3.324725359e-24
-1.165777339e-24
-4.01222851e-25
-1.335354721e-25
-4.200001589e-26
-1.196453331e-26
-2.795848607e-27
-3.728887666e-28
-2.076422441e-29
-2.376152261e-05
-3.901124093e-06
-8.383929419e-07
-1.505213578e-07
-1.328614591e-08
-5.580472874e-10
-2.036453549e-11
-1.687306776e-12
-3.389953649e-13
-1.159506322e-13
-5.536586644e-14
-3.179714778e-14
-2.119008667e-14
-1.596255257e-14
-1.318837807e-14
-1.157541958e-14
-1.085781142e-14
-1.029115004e-14
-9.952639458e-15
-9.507896823e-15
-9.608115023e-15
-8.817338813e-15
-7.754074953e-15
-6.69175937e-15
-5.624384083e-15
-4.580442994e-15
-3.598978246e-15
-2.716457708e-15
-1.959882904e-15
-1.344764829e-15
-8.729494709e-16
-5.307131123e-16
-3.000514642e-16
-1.573262785e-16
-7.71497132e-17
-3.635642538e-17
-1.665775273e-17
-7.459660351e-18
-3.232259393e-18
-1.370412906e-18
-5.775416048e-19
-2.425454506e-19
-1.009301198e-19
-4.152656536e-20
-1.68498409e-20
-6.634807579e-21
-2.453143584e-21
-8.562213921e-22
-2.942000727e-22
-1.012919801e-22
-3.508362299e-23
-1.221508834e-23
-4.253837506e-24
-1.467355337e-24
-4.933255456e-25
-1.57225096e-25
-4.520626034e-26
-1.049232171e-26
-1.360815821e-27
-7.382638015e-29
-8.146427012e-05
-1.26313229e-05
-2.349987909e-06
-5.119881063e-07
-7.155817223e-08
-5.263702806e-09
-2.029724683e-10
-9.471338917e-12
-9.934022225e-13
-2.243676194e-13
-8.303753541e-14
-4.220385755e-14
-2.665925408e-14
-1.999500708e-14
-1.694372867e-14
-1.546771207e-14
-1.50118661e-14
-1.487083728e-14
-1.490426543e-14
-1.479882505e-14
-1.478766952e-14
-1.483504085e-14
-1.346946203e-14
-1.203602861e-14
-1.051274486e-14
-8.938506574e-15
-7.374239695e-15
-5.885029773e-15
-4.52844201e-15
-3.347952799e-15
-2.369111531e-15
-1.597834197e-15
-1.022227148e-15
-6.177715992e-16
-3.514328447e-16
-1.865262618e-16
-9.22830181e-17
-4.2472166e-17
-1.837543016e-17
-7.633479325e-18
-3.067608958e-18
-1.20648555e-18
-4.691349326e-19
-1.81056649e-19
-6.941136184e-20
-2.644586138e-20
-9.990725093e-21
-3.649175846e-21
-1.257526665e-21
-4.15555692e-22
-1.364299098e-22
-4.561096312e-23
-1.544422947e-23
-5.235742467e-24
-1.745692672e-24
-5.57063821e-25
-1.617000431e-25
-3.795313339e-26
-4.957283801e-27
-2.734911458e-28
-4.882494064e-05
-1.120329695e-05
-2.364253631e-06
-6.815062006e-07
-1.398469757e-07
-1.85327736e-08
-1.3138627e-09
-5.499635814e-11
-3.072456883e-12
-4.05697407e-13
-1.11095378e-13
-4.969402603e-14
-3.026392428e-14
-2.330838312e-14
-2.082776879e-14
-2.011028858e-14
-2.065073163e-14
-2.129666208e-14
-2.219926641e-14
-2.264014311e-14
-2.451559813e-14
-2.351841707e-14
-2.185825675e-14
-1.996285209e-14
-1.783117652e-14
-1.553318237e-14
-1.31697923e-14
-1.084456199e-14
-8.653309534e-15
-6.674977864e-15
-4.964740328e-15
-3.550568947e-15
-2.43264534e-15
-1.590624592e-15
-9.893279812e-16
-5.831702807e-16
-3.24488495e-16
-1.696916669e-16
-8.274108515e-17
-3.727621995e-17
-1.551862143e-17
-6.017587709e-18
-2.253045432e-18
-8.245441151e-19
-2.979895848e-19
-1.071770783e-19
-3.846670963e-20
-1.382404064e-20
-4.932777567e-21