/*--------------------------------*- C++ -*----------------------------------*\
  =========                 |
  \\      /  F ield         | OpenFOAM: The Open Source CFD Toolbox
   \\    /   O peration     | Website:  https://openfoam.org
    \\  /    A nd           | Version:  10
     \\/     M anipulation  |
\*---------------------------------------------------------------------------*/
FoamFile
{
    format      ascii;
    class       volScalarField;
    location    "3000";
    object      RR.NCO;
}
// * * * * * * * * * * * * * * * * * * * * * * * * * * * * * * * * * * * * * //

dimensions      [1 -3 -1 0 0 0 0];

internalField   nonuniform List<scalar> 
5170
(
1.844057532e-70
8.252735095e-71
1.462263528e-71
9.436131428e-73
-7.230739305e-74
1.328583032e-67
5.58798357e-68
8.367029028e-69
4.152998889e-70
-7.518779036e-71
9.427565117e-65
3.717305115e-65
4.651698926e-66
1.844268501e-67
-6.381632197e-68
6.63082295e-62
2.458735852e-62
2.608122619e-63
8.290503682e-65
-4.743446412e-65
4.660419256e-59
1.647049826e-59
1.51004483e-60
3.974155036e-62
-3.176839936e-62
3.292512333e-56
1.123189892e-56
8.919690152e-58
2.004313735e-59
-2.037477391e-59
2.353883482e-53
7.792588645e-54
5.517085695e-55
1.083401922e-56
-1.205254733e-56
1.701844462e-50
5.601080034e-51
3.687535708e-52
6.936249662e-54
-5.388854351e-54
1.255796322e-47
4.262618879e-48
2.700026713e-49
5.459078847e-51
2.711030426e-51
9.49256641e-45
3.456087904e-45
2.211534604e-46
6.550849209e-48
2.047084331e-47
7.390645473e-42
3.011659682e-42
2.159526682e-43
1.728115163e-44
7.370123372e-44
5.907069631e-39
2.809409011e-39
2.691610546e-40
7.909848963e-41
2.487556279e-40
4.846372193e-36
2.824800183e-36
4.473288622e-37
4.246706411e-37
1.118683471e-36
4.081190434e-33
3.035104076e-33
9.430350909e-34
2.29909421e-33
6.482288326e-33
3.5006191e-30
3.512727654e-30
2.335655978e-30
1.197226781e-29
3.909623696e-29
3.054696742e-27
4.294853339e-27
6.254141529e-27
5.753028011e-26
2.371274023e-25
2.639678733e-24
5.552278348e-24
1.710786933e-23
2.474334907e-22
1.441029032e-21
2.259741747e-21
7.355235395e-21
4.574832734e-20
9.855023734e-19
8.772507011e-18
1.762921508e-18
9.443872455e-18
1.131916762e-16
3.416299019e-15
5.349951226e-14
1.178916735e-15
1.136134309e-14
2.629955811e-13
1.119417568e-11
3.137135058e-10
7.389543082e-11
4.675432259e-11
3.788299799e-11
5.051467859e-11
7.340328462e-11
1.328402783e-11
1.877531782e-11
1.745257984e-11
1.833920335e-11
1.042172001e-11
-2.397728376e-12
3.934632955e-12
4.652987715e-12
2.039996946e-12
-4.072324515e-12
-6.121635587e-12
-2.946866674e-12
-1.963209264e-12
-3.130183359e-12
-6.477663381e-12
-6.613215378e-12
-5.220093398e-12
-4.686669546e-12
-5.061428373e-12
-6.319641838e-12
-6.135087659e-12
-5.850740832e-12
-5.591142549e-12
-5.740005878e-12
-5.679347719e-12
-5.405543243e-12
-5.735905901e-12
-5.700380178e-12
-5.791357367e-12
-4.969004326e-12
-4.675369154e-12
-5.353649546e-12
-5.461354359e-12
-5.510981947e-12
-4.242964269e-12
-4.002812314e-12
-4.847568445e-12
-5.047165833e-12
-4.965241058e-12
-3.52999273e-12
-3.40920393e-12
-4.288545933e-12
-4.519133598e-12
-4.277080563e-12
-2.895782835e-12
-2.893265105e-12
-3.725752511e-12
-3.944394501e-12
-3.592138161e-12
-2.37557161e-12
-2.455736673e-12
-3.197797625e-12
-3.380501362e-12
-2.98532028e-12
-1.964939518e-12
-2.090785696e-12
-2.723910706e-12
-2.868547641e-12
-2.484048515e-12
-1.651483731e-12
-1.79673113e-12
-2.322358793e-12
-2.42984974e-12
-2.087465964e-12
-1.417445083e-12
-1.561835193e-12
-1.988387658e-12
-2.068612847e-12
-1.783165624e-12
-1.246193647e-12
-1.381940181e-12
-1.722088601e-12
-1.780281806e-12
-1.550328025e-12
-1.11957799e-12
-1.319228097e-12
-1.534534118e-12
-1.565376263e-12
-1.382606972e-12
-1.033049004e-12
-9.547964078e-13
-1.941917493e-12
-1.844194973e-12
-1.582240409e-12
-1.132337242e-12
-3.292263653e-10
-1.043372217e-11
1.482810899e-11
-1.757167028e-11
-9.837092444e-12
1.02557165e-06
2.64106255e-08
3.288507952e-10
-8.748438869e-10
-3.216897755e-10
2.129356532e-13
3.302367066e-12
1.645992541e-10
1.152621277e-08
1.622920294e-07
3.927775855e-13
3.586296255e-12
-1.268578665e-11
-7.87492381e-09
-1.645076068e-07
2.770048506e-13
-3.28550625e-12
-5.778992671e-10
-2.447746068e-08
-1.385617207e-07
-4.880998915e-13
-2.808189477e-11
-1.999708658e-09
-4.452046433e-08
-6.894778531e-08
-5.295421131e-12
-1.413543092e-10
-6.532136993e-09
-9.589292217e-08
-2.665618316e-07
-2.749605668e-11
-5.561773918e-10
-1.751668788e-08
-1.659826229e-07
-4.498009274e-07
-1.180216262e-10
-1.955601636e-09
-4.028724803e-08
-2.330787172e-07
-4.981820376e-07
-4.582789751e-10
-6.188647257e-09
-7.711360202e-08
-2.67393693e-07
-3.324407648e-07
-1.649476597e-09
-1.718747506e-08
-1.292831068e-07
-3.254516584e-07
-4.622228201e-07
-5.307430383e-09
-3.997528137e-08
-1.913296493e-07
-3.985869754e-07
-6.754717453e-07
-1.536283224e-08
-7.698738266e-08
-2.507425186e-07
-4.519862394e-07
-7.813005735e-07
-3.670734219e-08
-1.241503048e-07
-2.986364254e-07
-4.622520774e-07
-7.16974333e-07
-7.446673966e-08
-1.798309324e-07
-3.465583685e-07
-4.999098986e-07
-8.19554223e-07
-1.328651568e-07
-2.43773452e-07
-4.017571688e-07
-5.794693326e-07
-1.039201681e-06
-2.11588271e-07
-3.127741099e-07
-4.593565795e-07
-6.707367257e-07
-1.229313976e-06
-2.99909828e-07
-3.805710097e-07
-5.116986377e-07
-7.447076875e-07
-1.323409654e-06
-3.835569215e-07
-4.431873805e-07
-5.59012181e-07
-7.967670044e-07
-1.352187674e-06
-4.642516167e-07
-5.154791938e-07
-6.413262253e-07
-9.238487146e-07
-1.567743732e-06
-5.764062199e-07
-6.41358748e-07
-8.186370716e-07
-1.213174944e-06
-2.043478011e-06
-7.665343899e-07
-8.605949055e-07
-1.11149892e-06
-1.621744465e-06
-2.601333391e-06
-1.039581189e-06
-1.158889967e-06
-1.459206165e-06
-2.02227064e-06
-3.035360156e-06
-1.329900206e-06
-1.455929095e-06
-1.76233671e-06
-2.321320125e-06
-3.29651305e-06
-1.556416717e-06
-1.678081329e-06
-1.976616683e-06
-2.534156326e-06
-3.51007596e-06
-1.698130314e-06
-1.825240161e-06
-2.14976336e-06
-2.722185826e-06
-3.834034437e-06
-1.810602735e-06
-1.967998798e-06
-2.296613742e-06
-3.023698867e-06
-4.360116809e-06
-1.961244268e-06
-2.172192212e-06
-2.71946562e-06
-3.427067326e-06
-5.041036712e-06
-2.22299371e-06
-2.507987465e-06
-3.217258895e-06
-4.144302767e-06
-5.87507398e-06
-2.673962046e-06
-3.049727978e-06
-3.984092466e-06
-4.810445958e-06
-6.89688512e-06
-2.900033813e-06
-3.209769397e-06
-4.856480959e-06
-6.773334219e-06
-9.033718846e-06
-3.757121078e-06
-4.526355696e-06
-5.425254494e-06
-7.137823864e-06
-9.893762524e-06
-5.059616309e-06
-5.541578139e-06
-6.774646118e-06
-8.766130265e-06
-1.147331748e-05
-6.625233591e-06
-7.205419953e-06
-8.388011459e-06
-1.032051798e-05
-1.309263092e-05
-7.841161119e-06
-8.362836213e-06
-9.510850944e-06
-1.105860275e-05
-1.310841107e-05
-7.419776696e-06
-7.736025085e-06
-8.302913412e-06
-9.045364123e-06
-9.734811255e-06
-3.174669021e-06
-3.233037157e-06
-3.322287752e-06
-3.258623025e-06
-2.998943057e-06
1.383250498e-06
1.315505193e-06
1.213890474e-06
9.123253236e-07
5.222988362e-07
-7.407876974e-07
-9.931632148e-07
-1.537699284e-06
-2.388643089e-06
-3.502806396e-06
-7.031248956e-06
-7.305433958e-06
-7.883180978e-06
-8.694850773e-06
-9.605078227e-06
-1.21095481e-05
-1.226805022e-05
-1.254260514e-05
-1.27270935e-05
-1.237780108e-05
-1.33997184e-05
-1.302611349e-05
-1.194418499e-05
-9.486751338e-06
-4.308396858e-06
8.771597089e-07
3.139632347e-06
8.411064131e-06
1.67714931e-05
2.670583657e-05
1.290280147e-05
1.243420026e-05
1.088284079e-05
7.524694768e-06
2.012305463e-06
-1.151678546e-05
-1.203517651e-05
-1.3084806e-05
-1.443194896e-05
-1.577326053e-05
-1.237233024e-05
-1.235443799e-05
-1.229216297e-05
-1.213868553e-05
-1.184469795e-05
-7.033270112e-06
-6.970040699e-06
-6.730881061e-06
-6.519658997e-06
-6.259963239e-06
-3.388256365e-06
-3.353819074e-06
-3.27849687e-06
-3.169941914e-06
-3.026274863e-06
-1.58644021e-06
-1.571754123e-06
-1.539953186e-06
-1.493037001e-06
-1.432754004e-06
-7.431194991e-07
-7.372300502e-07
-7.244720965e-07
-7.056318138e-07
-6.813552031e-07
-3.534292278e-07
-3.509905667e-07
-3.467509945e-07
-3.43912533e-07
-3.345021134e-07
-1.787712893e-07
-1.779045319e-07
-1.759213528e-07
-1.732265412e-07
-1.695092914e-07
-9.434268738e-08
-9.692219117e-08
-8.961165484e-08
-9.293865336e-08
-1.286195039e-07
-7.20210019e-08
-7.213729993e-08
-7.241686197e-08
-7.289446551e-08
-6.046381292e-08
-4.82020278e-08
-4.833855866e-08
-4.863456789e-08
-4.907142834e-08
-4.96271488e-08
-3.745498378e-08
-3.75651204e-08
-3.780349214e-08
-3.815462203e-08
-3.860353388e-08
-3.080667123e-08
-3.087460239e-08
-3.101977421e-08
-3.122883798e-08
-3.148683627e-08
-2.550734389e-08
-2.553131165e-08
-2.558188554e-08
-2.564842281e-08
-2.571802495e-08
-2.090995661e-08
-2.090007005e-08
-2.087561848e-08
-2.083084651e-08
-2.075654999e-08
-1.692045674e-08
-1.688953697e-08
-1.681995296e-08
-1.670949197e-08
-1.655264435e-08
-1.361231213e-08
-1.357192841e-08
-1.348237091e-08
-1.33438584e-08
-1.315371938e-08
-1.099039408e-08
-1.094845411e-08
-1.085604878e-08
-1.071471582e-08
-1.052362536e-08
-8.989340799e-09
-8.950117866e-09
-8.863952778e-09
-8.732915278e-09
-8.557137342e-09
-7.491654651e-09
-7.457007425e-09
-7.38107286e-09
-7.266026636e-09
-7.112544644e-09
-6.387476719e-09
-6.357946158e-09
-6.293310597e-09
-6.195654198e-09
-6.065852809e-09
-5.57168624e-09
-5.547064302e-09
-5.493259422e-09
-5.412154003e-09
-5.30470153e-09
-4.958102567e-09
-4.9379936e-09
-4.894096568e-09
-4.828072804e-09
-4.740882612e-09
-4.496902966e-09
-4.480889682e-09
-4.445999645e-09
-4.393657536e-09
-4.324781317e-09
-4.134456949e-09
-4.122093622e-09
-4.095197967e-09
-4.05496803e-09
-4.002257481e-09
-3.884750798e-09
-3.875718056e-09
-3.856125156e-09
-3.826934236e-09
-3.78889233e-09
-3.679252537e-09
-3.672877778e-09
-3.659087758e-09
-3.638637879e-09
-3.612165132e-09
-3.734953162e-09
-3.730888934e-09
-3.722131912e-09
-3.709221912e-09
-3.692640997e-09
-4.650676881e-07
-2.243465211e-07
1.601102603e-07
8.462112609e-07
-2.282839734e-07
-8.57177035e-07
-8.148046381e-07
-5.350416099e-08
-6.25363056e-07
-1.200118502e-06
-1.33356976e-06
-1.042411428e-06
-1.304651982e-06
-1.729296966e-06
-1.977205336e-06
-2.005440096e-06
-1.956485436e-06
-2.302289901e-06
-3.019602169e-06
-3.717331192e-06
-4.13624319e-06
-4.383063817e-06
-4.657828794e-06
-5.198466364e-06
-5.974646234e-06
-6.880573056e-06
-7.936782574e-06
-9.226583935e-06
-1.047836451e-05
-1.240856847e-05
-1.425140745e-05
-1.557745717e-05
-1.477701988e-05
-1.01586482e-05
-2.832063829e-06
1.201372499e-07
-4.34852483e-06
-1.010310954e-05
-1.135914636e-05
2.094041905e-06
3.219111638e-05
-2.600691711e-06
-1.652911192e-05
-1.156143689e-05
-6.037298127e-06
-2.912899625e-06
-1.38613722e-06
-6.624631512e-07
-3.271457826e-07
-1.666492272e-07
-9.131186609e-08
-6.049253237e-08
-5.0051631e-08
-3.895516205e-08
-3.167841101e-08
-2.575558208e-08
-2.067921312e-08
-1.641173341e-08
-1.298924734e-08
-1.036120279e-08
-8.40913081e-09
-6.984180757e-09
-5.957670543e-09
-5.215448724e-09
-4.668669515e-09
-4.267914056e-09
-3.958862982e-09
-3.757682902e-09
-3.590507725e-09
-3.679096544e-09
-1.26319846e-05
1.993277453e-05
-6.980595755e-07
-2.695688699e-08
-9.810908075e-09
-4.005676153e-06
-9.770055348e-06
1.153476591e-06
-1.218324303e-07
-3.818612856e-08
-1.908105039e-06
-4.091094767e-05
0.0001163852931
-1.353898824e-05
-5.566117265e-07
-3.257122712e-06
-9.323186404e-05
0.0001006485026
-3.758529983e-05
1.33187729e-06
-5.458606181e-06
-4.888600552e-05
-2.959043713e-05
-1.45187195e-05
-9.121970502e-07
-4.951844938e-06
-2.28766747e-05
-2.518617076e-05
1.985640949e-05
-7.53445034e-06
-3.859441696e-06
-2.277500136e-05
-8.763962678e-05
0.0001940585536
-4.771205649e-05
-3.046581543e-06
-4.071202887e-05
-0.0002060797014
0.0004513676321
-0.0001070456749
-4.204015159e-06
-3.083186294e-05
-0.0001134099412
3.460311507e-05
-4.330960616e-05
-4.391784849e-06
-1.931934628e-05
-5.862193245e-05
-7.758757424e-06
3.503343822e-05
-3.956295776e-06
-1.570294135e-05
-5.210443274e-05
-8.545890917e-05
0.0002454570842
-3.584726708e-06
-1.882534268e-05
-8.113102932e-05
-0.0002244345047
0.0006442928911
-4.156522205e-06
-1.867946482e-05
-6.633698749e-05
-0.0001545593025
0.0001969871877
-4.484299781e-06
-1.568087847e-05
-4.512703464e-05
-9.015096356e-05
6.642015137e-05
-4.34600361e-06
-1.271033863e-05
-3.302424913e-05
-6.50273575e-05
1.245194562e-06
-4.102994459e-06
-1.180343337e-05
-3.32669437e-05
-7.61058731e-05
-9.622281556e-05
-4.168190957e-06
-1.35253773e-05
-4.251456892e-05
-0.0001057826404
-0.0001972555444
-4.927358828e-06
-1.566135109e-05
-4.557764895e-05
-0.0001052833192
-0.0001831135622
-5.845823408e-06
-1.636310305e-05
-4.148680007e-05
-8.683320786e-05
-0.0001346802808
-6.435200792e-06
-1.566848723e-05
-3.539214157e-05
-6.865249974e-05
-9.793661995e-05
-6.588685699e-06
-1.471328789e-05
-3.072666001e-05
-5.726613557e-05
-7.974358667e-05
-6.701186437e-06
-1.415634922e-05
-2.890060484e-05
-5.3534188e-05
-7.768841199e-05
-7.049207084e-06
-1.472691606e-05
-2.990920418e-05
-5.588412126e-05
-8.598727342e-05
-7.811652348e-06
-1.617672307e-05
-3.23938176e-05
-6.003029454e-05
-9.376369734e-05
-8.863888364e-06
-1.78050974e-05
-3.448787378e-05
-6.173644081e-05
-9.302858818e-05
-1.003410959e-05
-1.93040596e-05
-3.575969249e-05
-6.08857162e-05
-8.599531745e-05
-1.125886923e-05
-2.073370351e-05
-3.672208598e-05
-5.883326725e-05
-7.650162723e-05
-1.281296808e-05
-2.242383835e-05
-3.760462965e-05
-5.596226267e-05
-6.565509094e-05
-1.441574994e-05
-2.422743997e-05
-3.803081479e-05
-5.165696563e-05
-5.300355666e-05
-1.73254338e-05
-2.576452079e-05
-3.707801638e-05
-4.487313076e-05
-3.772735985e-05
-1.802888919e-05
-2.609244597e-05
-3.346714887e-05
-3.460178593e-05
-1.971161762e-05
-1.852855018e-05
-2.376287832e-05
-2.60294042e-05
-2.072580272e-05
-8.493946601e-07
-1.614481285e-05
-1.747224096e-05
-1.488076293e-05
-5.903769852e-06
1.489013072e-05
-9.739141849e-06
-8.000648583e-06
-3.824816175e-06
3.950743896e-06
2.442578818e-05
-2.106584054e-06
-1.050433895e-06
4.492513901e-07
5.827658601e-06
3.120457691e-05
-5.528091005e-07
-1.858269436e-06
-1.611732168e-06
7.711380987e-06
5.35074262e-05
-5.611175057e-06
-6.676426226e-06
-2.640601591e-06
2.10904284e-05
9.888825137e-05
-1.043022432e-05
-7.473768452e-06
8.730808744e-06
6.342794082e-05
7.212514173e-05
-8.378381982e-06
6.9587436e-06
4.954221826e-05
6.296576424e-05
1.308689665e-07
1.505944147e-05
4.662888359e-05
4.151409189e-05
-1.937463005e-06
-2.742609618e-05
3.140748349e-05
1.310888398e-05
-1.152913762e-05
-2.476769364e-05
-2.612678308e-05
-9.38763916e-06
-1.811946928e-05
-2.186697011e-05
-2.095908528e-05
-1.769269666e-05
-1.706901392e-05
-1.683158004e-05
-1.526380304e-05
-1.290972816e-05
-1.036415893e-05
-1.097966445e-05
-9.835367963e-06
-8.476755172e-06
-7.025133268e-06
-5.667574376e-06
-5.688451436e-06
-5.025399864e-06
-4.328126056e-06
-3.639579665e-06
-2.997472747e-06
-2.762058936e-06
-2.454233569e-06
-2.14712002e-06
-1.840323865e-06
-1.549453692e-06
-1.315122998e-06
-1.1900268e-06
-1.060352588e-06
-9.27216493e-07
-7.986325614e-07
-6.337302038e-07
-5.821212709e-07
-5.28036379e-07
-4.788153994e-07
-4.22301918e-07
-3.158984097e-07
-2.952715974e-07
-2.721917442e-07
-2.470443199e-07
-2.383893542e-07
-1.622044294e-07
-1.542070079e-07
-1.41882123e-07
-1.465358529e-07
-1.35486686e-07
-9.540413145e-08
-8.775597691e-08
-9.135603261e-08
-8.694718738e-08
-8.990944849e-08
-5.599063908e-08
-5.858152755e-08
-7.356615092e-08
-7.386771903e-08
-7.462079986e-08
-5.065902909e-08
-5.172161867e-08
-5.285886111e-08
-5.404592708e-08
-5.510865278e-08
-3.945716442e-08
-4.033861595e-08
-4.120094947e-08
-4.190631341e-08
-4.227228242e-08
-3.194254163e-08
-3.23419593e-08
-3.261505286e-08
-3.264994799e-08
-3.230254451e-08
-2.579686355e-08
-2.576655758e-08
-2.555940309e-08
-2.508448289e-08
-2.425766129e-08
-2.055726297e-08
-2.022907295e-08
-1.971537819e-08
-1.896491637e-08
-1.793288038e-08
-1.620169517e-08
-1.572617552e-08
-1.508273939e-08
-1.424646124e-08
-1.319938067e-08
-1.274836858e-08
-1.223387609e-08
-1.157825406e-08
-1.077322816e-08
-9.816636753e-09
-1.012548957e-08
-9.636577789e-09
-9.034301296e-09
-8.318580918e-09
-7.4886106e-09
-8.195374618e-09
-7.759104252e-09
-7.231470852e-09
-6.617312097e-09
-5.925270376e-09
-6.79960306e-09
-6.427124172e-09
-5.983107314e-09
-5.474602005e-09
-4.911594215e-09
-5.802698932e-09
-5.492512628e-09
-5.126881203e-09
-4.713590958e-09
-4.26281984e-09
-5.088098979e-09
-4.834933722e-09
-4.539587051e-09
-4.209911732e-09
-3.855708694e-09
-4.566139127e-09
-4.363626886e-09
-4.129915985e-09
-3.872533214e-09
-3.600574866e-09
-4.187693192e-09
-4.030363603e-09
-3.851057306e-09
-3.656741164e-09
-3.45554974e-09
-3.89821128e-09
-3.780112439e-09
-3.647571582e-09
-3.506748293e-09
-3.364648041e-09
-3.714658397e-09
-3.631630364e-09
-3.540340029e-09
-3.445968747e-09
-3.354206843e-09
-3.561264605e-09
-3.505347086e-09
-3.445495902e-09
-3.385869417e-09
-3.330896148e-09
-3.661351665e-09
-3.627708343e-09
-3.592950443e-09
-3.560098793e-09
-3.532336856e-09
-1.136376529e-09
-3.313823509e-11
-9.469320644e-13
-4.287143651e-14
-3.134218477e-15
-3.018671788e-16
-4.020118503e-17
-8.168481883e-18
-2.430652895e-18
-9.502109228e-19
-4.289309102e-19
-2.059217668e-19
-1.014216852e-19
-5.051380387e-20
-2.523852347e-20
-1.253543621e-20
-6.107647525e-21
-2.855561539e-21
-1.230347195e-21
-4.430918761e-22
-8.516853723e-23
5.78228448e-23
9.842711383e-23
9.476405185e-23
7.570462414e-23
5.459585244e-23
3.67096722e-23
2.337097799e-23
1.420877426e-23
8.292335718e-24
4.66131774e-24
2.529717542e-24
1.327840218e-24
6.752204522e-25
3.332716841e-25
1.600734504e-25
7.508058255e-26
3.4532018e-26
1.562888905e-26
6.964101124e-27
3.038726529e-27
1.280593154e-27
5.084591348e-28
1.821350404e-28
5.343672061e-29
8.466742273e-30
-3.85103154e-30
-5.145851971e-30
-3.696408854e-30
-2.167341994e-30
-1.136409139e-30
-5.519004216e-31
-2.520551395e-31
-1.086333729e-31
-4.381409597e-32
-1.606844406e-32
-4.955189253e-33
-1.070258658e-33
-9.420392276e-35
-1.974906136e-36
-4.279664221e-09
-1.66742179e-10
-5.252723653e-12
-3.114617279e-13
-4.312290777e-14
-9.509580886e-15
-2.569461719e-15
-8.492722018e-16
-3.233666683e-16
-1.338458053e-16
-5.668200261e-17
-2.42504379e-17
-1.044347398e-17
-4.553804128e-18
-2.019096884e-18
-9.118330948e-19
-4.187553119e-19
-1.946405176e-19
-9.10023874e-20
-4.247719641e-20
-1.963645159e-20
-8.911777196e-21
-3.929009171e-21
-1.658113444e-21
-6.544031476e-22
-2.31077945e-22
-6.514479277e-23
-7.837264076e-24
7.088733668e-24
7.65763682e-24
4.772606713e-24
2.07107844e-24
3.650985779e-25
-4.661452005e-25
-7.376911082e-25
-7.173841381e-25
-5.789120063e-25
-4.176153956e-25
-2.772627774e-25
-1.718914e-25
-1.004400803e-25
-5.574644202e-26
-2.960802719e-26
-1.51557702e-26
-7.524718089e-27
-3.642607992e-27
-1.7260065e-27
-8.027637017e-28
-3.671126455e-28
-1.651642089e-28
-7.304634262e-29
-3.167975076e-29
-1.340576591e-29
-5.483973473e-30
-2.130913622e-30
-7.588752432e-31
-2.280095749e-31
-4.793439064e-32
-4.198925251e-33
-7.841173803e-35
-5.148989641e-08
-1.145148519e-09
-2.137622435e-11
-1.506499955e-12
-3.382269025e-13
-1.206504605e-13
-4.971760273e-14
-2.247332239e-14
-1.027244435e-14
-4.681337652e-15
-2.067206461e-15
-8.930594039e-16
-3.772748973e-16
-1.577320529e-16
-6.57290224e-17
-2.753622936e-17
-1.166113549e-17
-5.007987638e-18
-2.184858872e-18
-9.681179599e-19
-4.352426893e-19
-1.981937168e-19
-9.129410218e-20
-4.249149249e-20
-1.998124419e-20
-9.506775667e-21
-4.592343966e-21
-2.265172135e-21
-1.149844703e-21
-6.056969799e-22
-3.333287908e-22
-1.920867762e-22
-1.154736817e-22
-7.176715948e-23
-4.556422451e-23
-2.916450144e-23
-1.857140851e-23
-1.161902462e-23
-7.066726099e-24
-4.145859778e-24
-2.335968607e-24
-1.262870399e-24
-6.563539502e-25
-3.292578383e-25
-1.602352675e-25
-7.605296303e-26
-3.53779146e-26
-1.619299631e-26
-7.312539399e-27
-3.261476464e-27
-1.435550915e-27
-6.217163237e-28
-2.634044898e-28
-1.080590714e-28
-4.212704368e-29
-1.504256196e-29
-4.540520841e-30
-9.621977223e-31
-8.862045846e-32
-1.726274316e-33
-1.177237613e-06
-3.259485827e-08
-4.010920694e-10
-1.178380627e-11
-2.517768573e-12
-1.140848755e-12
-5.834653886e-13
-3.004217029e-13
-1.507624011e-13
-7.342365872e-14
-3.444150267e-14
-1.564597546e-14
-6.889273543e-15
-2.965437852e-15
-1.253313803e-15
-5.244281738e-16
-2.182527764e-16
-9.088634961e-17
-3.801694225e-17
-1.604954958e-17
-6.865504837e-18
-2.986224938e-18
-1.32393335e-18
-5.992593395e-19
-2.77209246e-19
-1.311346311e-19
-6.351064451e-20
-3.155439292e-20
-1.61293898e-20
-8.510843807e-21
-4.648464498e-21
-2.630878299e-21
-1.541005683e-21
-9.305312516e-22
-5.754863999e-22
-3.610824329e-22
-2.270968014e-22
-1.412756161e-22
-8.585762428e-23
-5.048503716e-23
-2.855473948e-23
-1.55038181e-23
-8.091665487e-24
-4.074872602e-24
-1.990333213e-24
-9.482792643e-25
-4.430588139e-25
-2.038904197e-25
-9.268840726e-26
-4.167733321e-26
-1.852320059e-26
-8.111288825e-27
-3.477466407e-27
-1.443649848e-27
-5.689567055e-28
-2.049635635e-28
-6.245438127e-29
-1.340304464e-29
-1.291158725e-30
-2.8946408e-32
-1.184545622e-06
-9.233482281e-08
-2.3707564e-09
-6.694248866e-11
-1.467494215e-11
-7.336067079e-12
-4.08458059e-12
-2.251127124e-12
-1.210582936e-12
-6.331165344e-13
-3.209591097e-13
-1.57828851e-13
-7.524137052e-14
-3.490306181e-14
-1.577731997e-14
-6.988602238e-15
-3.041073187e-15
-1.307456675e-15
-5.567935176e-16
-2.361597767e-16
-1.000823366e-16
-4.262126213e-17
-1.83132656e-17
-7.97666114e-18
-3.534486812e-18
-1.598603369e-18
-7.401366476e-19
-3.518482012e-19
-1.723129173e-19
-8.723686724e-20
-4.579486806e-20
-2.497305711e-20
-1.414983255e-20
-8.314464364e-21
-5.043342862e-21
-3.131485024e-21
-1.965383233e-21
-1.2279182e-21
-7.523817327e-22
-4.467871164e-22
-2.552449057e-22
-1.398987467e-22
-7.365318047e-23
-3.740255309e-23
-1.842846993e-23
-8.864327492e-24
-4.185496796e-24
-1.948068671e-24
-8.962156035e-25
-4.0799776e-25
-1.836712209e-25
-8.151626401e-26
-3.544215016e-26
-1.492562038e-26
-5.963653028e-27
-2.174773671e-27
-6.706590479e-28
-1.463565622e-28
-1.475820048e-29
-4.020517259e-31
-6.747942584e-07
-2.437059959e-07
-1.414321957e-08
-4.606725661e-10
-7.230035128e-11
-3.267532931e-11
-1.823688644e-11
-1.045461859e-11
-5.961104725e-12
-3.348662609e-12
-1.843559998e-12
-9.916076771e-13
-5.200538093e-13
-2.659037297e-13
-1.324791972e-13
-6.440494559e-14
-3.057980252e-14
-1.42205432e-14
-6.48592005e-15
-2.913853243e-15
-1.292543614e-15
-5.690048692e-16
-2.491272509e-16
-1.089073657e-16
-4.762836682e-17
-2.092243521e-17
-9.267909685e-18
-4.164124063e-18
-1.910372528e-18
-9.01504724e-19
-4.405849608e-19
-2.242024994e-19
-1.192038344e-19
-6.630536326e-20
-3.852867424e-20
-2.324091096e-20
-1.436811412e-20
-8.944566345e-21
-5.505609571e-21
-3.299360481e-21
-1.90482657e-21
-1.0542966e-21
-5.595831905e-22
-2.860873179e-22
-1.419187265e-22
-6.884653751e-23
-3.286585277e-23
-1.55004626e-23
-7.236365406e-24
-3.344906139e-24
-1.528831992e-24
-6.887211699e-25
-3.039195313e-25
-1.299158418e-25
-5.27107896e-26
-1.953247415e-26
-6.131699216e-27
-1.375062674e-27
-1.471088583e-28
-4.99145769e-30
-2.593043165e-06
-9.324147473e-07
-9.479802201e-08
-4.851109556e-09
-3.145606043e-10
-9.8867532e-11
-5.160881075e-11
-3.0199746e-11
-1.810217794e-11
-1.083826388e-11
-6.420548107e-12
-3.747391373e-12
-2.149860939e-12
-1.210665156e-12
-6.686166325e-13
-3.618547216e-13
-1.916972355e-13
-9.934650348e-14
-5.033460282e-14
-2.495996872e-14
-1.212753913e-14
-5.789564614e-15
-2.719870721e-15
-1.26059501e-15
-5.768300486e-16
-2.611280431e-16
-1.17016114e-16
-5.205399221e-17
-2.309355342e-17
-1.030315978e-17
-4.671578811e-18
-2.177892736e-18
-1.055384895e-18
-5.36158539e-19
-2.871096629e-19
-1.62167957e-19
-9.577207577e-20
-5.8057015e-20
-3.535620381e-20
-2.12033877e-20
-1.23284597e-20
-6.887913574e-21
-3.686241711e-21
-1.89440329e-21
-9.423094522e-22
-4.584144109e-22
-2.200041998e-22
-1.046937608e-22
-4.948657719e-23
-2.321900531e-23
-1.078737247e-23
-4.941826076e-24
-2.217559516e-24
-9.639945904e-25
-3.981536177e-25
-1.506716686e-25
-4.860276614e-26
-1.138405702e-26
-1.326746062e-27
-5.660807956e-29
-2.667678316e-06
-3.066205234e-06
-6.437761734e-07
-4.874094938e-08
-2.506845688e-09
-3.226188063e-10
-1.183225064e-10
-6.423045206e-11
-3.881833545e-11
-2.413113046e-11
-1.50376529e-11
-9.302463761e-12
-5.689857307e-12
-3.435389735e-12
-2.046116515e-12
-1.201778252e-12
-6.958277333e-13
-3.970350074e-13
-2.230518081e-13
-1.232102604e-13
-6.681635694e-14
-3.552573419e-14
-1.849692234e-14
-9.431074408e-15
-4.711064637e-15
-2.307129555e-15
-1.107039311e-15
-5.202469878e-16
-2.394696247e-16
-1.082929227e-16
-4.837790201e-17
-2.155765495e-17
-9.712160119e-18
-4.494908549e-18
-2.169445571e-18
-1.105607206e-18
-5.978958345e-19
-3.394317727e-19
-1.980855457e-19
-1.162487437e-19
-6.72666176e-20
-3.777984802e-20
-2.040089049e-20
-1.056204216e-20
-5.270360799e-21
-2.56380288e-21
-1.229854063e-21
-5.861627302e-22
-2.785008054e-22
-1.318835935e-22
-6.206630892e-23
-2.888312518e-23
-1.319145939e-23
-5.844950826e-24
-2.46499026e-24
-9.560763459e-25
-3.186025549e-25
-7.843462803e-26
-1.002169367e-26
-5.277011011e-28
-8.848344538e-06
-7.247852262e-07
-1.310693013e-06
-1.896813035e-07
-1.331945995e-08
-1.081587708e-09
-2.47630382e-10
-1.143349851e-10
-6.736137164e-11
-4.268470978e-11
-2.759399692e-11
-1.786075564e-11
-1.148945399e-11
-7.323075529e-12
-4.619243316e-12
-2.882440029e-12
-1.779116444e-12
-1.086084659e-12
-6.556205549e-13
-3.911705111e-13
-2.30494698e-13
-1.339997836e-13
-7.678180036e-14
-4.328110918e-14
-2.394583945e-14
-1.297537599e-14
-6.865005667e-15
-3.537655201e-15
-1.772315514e-15
-8.625129478e-16
-4.077011634e-16
-1.876551723e-16
-8.46706565e-17
-3.791232941e-17
-1.712328683e-17
-7.942155083e-18
-3.851107187e-18
-1.971691214e-18
-1.0573351e-18
-5.836038649e-19
-3.257333616e-19
-1.808268652e-19
-9.817805775e-20
-5.143147298e-20
-2.586956439e-20
-1.261301402e-20
-6.043197783e-21
-2.872520864e-21
-1.362120172e-21
-6.457281061e-22
-3.056634833e-22
-1.438221412e-22
-6.673545732e-23
-3.01644334e-23
-1.302854974e-23
-5.201105643e-24
-1.799844787e-24
-4.687709069e-25
-6.620080425e-26
-4.242863879e-27
-1.931487875e-05
-7.571456931e-07
-1.35783763e-06
-4.203925391e-07
-5.49635007e-08
-4.142488373e-09
-5.415639861e-10
-1.884221487e-10
-1.032074661e-10
-6.542154689e-11
-4.340237223e-11
-2.915144529e-11
-1.957017688e-11
-1.3060259e-11
-8.643907604e-12
-5.668383973e-12
-3.681858641e-12
-2.368729151e-12
-1.509395832e-12
-9.525834077e-13
-5.950879763e-13
-3.680089475e-13
-2.250721918e-13
-1.359913457e-13
-8.106203217e-14
-4.759057348e-14
-2.746691824e-14
-1.55399555e-14
-8.584873385e-15
-4.610431644e-15
-2.395955795e-15
-1.201058472e-15
-5.807371269e-16
-2.719986011e-16
-1.245091273e-16
-5.643159821e-17
-2.571216414e-17
-1.199166294e-17
-5.801320784e-18
-2.91679851e-18
-1.50985944e-18
-7.956870858e-19
-4.220576775e-19
-2.219129364e-19
-1.134844788e-19
-5.59803261e-20
-2.689828171e-20
-1.275586144e-20
-6.020847915e-21
-2.840797086e-21
-1.341904076e-21
-6.334251156e-22
-2.968896394e-22
-1.365115547e-22
-6.039344972e-23
-2.488562686e-23
-8.983308789e-24
-2.491190666e-24
-3.922512702e-25
-3.017211844e-26
-6.038379405e-05
-5.647895753e-06
-1.669935279e-06
-9.186250499e-07
-1.776211521e-07
-1.896285389e-08
-1.685062113e-09
-3.389877883e-10
-1.510633493e-10
-9.178853112e-11
-6.152512319e-11
-4.255305423e-11
-2.965639278e-11
-2.062243503e-11
-1.424594269e-11
-9.757596171e-12
-6.622013504e-12
-4.451043231e-12
-2.965462452e-12
-1.958243368e-12
-1.281257125e-12
-8.302619365e-13
-5.325383191e-13
-3.37862514e-13
-2.118492656e-13
-1.311603878e-13
-8.009448769e-14
-4.817776963e-14
-2.848673447e-14
-1.650966598e-14
-9.344662134e-15
-5.14145058e-15
-2.735557097e-15
-1.402186155e-15
-6.923116006e-16
-3.307156386e-16
-1.540407589e-16
-7.064860398e-17
-3.233408494e-17
-1.500058832e-17
-7.140499253e-18
-3.491428469e-18
-1.744802392e-18
-8.848972828e-19
-4.503864837e-19
-2.260218489e-19
-1.104553737e-19
-5.265552866e-20
-2.475452977e-20
-1.159265737e-20
-5.437817875e-21
-2.557345001e-21
-1.201369253e-21
-5.582204657e-22
-2.519551308e-22
-1.070659353e-22
-4.042125924e-23
-1.199572348e-23
-2.121685294e-24
-1.934957269e-25
-0.0001281989639
-1.42625495e-05
-1.38206382e-06
-2.207182648e-06
-5.964822064e-07
-9.777045271e-08
-9.447354814e-09
-9.691175984e-10
-2.437366142e-10
-1.227295012e-10
-7.979289906e-11
-5.614346836e-11
-4.043257073e-11
-2.920647903e-11
-2.098081339e-11
-1.495433452e-11
-1.056631542e-11
-7.395342753e-12
-5.126370629e-12
-3.519843536e-12
-2.393107108e-12
-1.610519075e-12
-1.072443279e-12
-7.063274696e-13
-4.598864643e-13
-2.958504961e-13
-1.87938557e-13
-1.178097067e-13
-7.280367655e-14
-4.429052461e-14
-2.646929535e-14
-1.549503501e-14
-8.851158273e-15
-4.912647082e-15
-2.639383308e-15
-1.369726914e-15
-6.864159776e-16
-3.327181733e-16
-1.567072535e-16
-7.22989963e-17
-3.313510689e-17
-1.532853084e-17
-7.226256386e-18
-3.476954491e-18
-1.701962899e-18
-8.41490112e-19
-4.150205461e-19
-2.015949911e-19
-9.583409121e-20
-4.480460161e-20
-2.082636361e-20
-9.706434868e-21
-4.539715843e-21
-2.115761125e-21
-9.674086809e-22
-4.219407971e-22
-1.664853048e-22
-5.307623063e-23
-1.061887114e-23
-1.138360125e-24
-7.055535783e-05
-1.905151626e-05
-2.985018657e-07
-2.006767878e-06
-1.01929874e-06
-2.612843838e-07
-4.095913006e-08
-4.008969857e-09
-5.041104373e-10
-1.613348484e-10
-9.329164695e-11
-6.536330744e-11
-4.824956957e-11
-3.609667716e-11
-2.681443209e-11
-1.988878236e-11
-1.460858492e-11
-1.061616966e-11
-7.630112975e-12
-5.423736971e-12
-3.813142522e-12
-2.651474858e-12
-1.823350063e-12
-1.239742587e-12
-8.331640501e-13
-5.532247737e-13
-3.628096647e-13
-2.349049145e-13
-1.50089164e-13
-9.457914493e-14
-5.872591521e-14
-3.58745444e-14
-2.150945595e-14
-1.261857199e-14
-7.218473775e-15
-4.013057308e-15
-2.162137099e-15
-1.126609475e-15
-5.671829596e-16
-2.764460749e-16
-1.311075413e-16
-6.109264856e-17
-2.832985533e-17
-1.320821057e-17
-6.241827269e-18
-2.992817356e-18
-1.44838808e-18
-7.031908231e-19
-3.394094741e-19
-1.613684577e-19
-7.548336885e-20
-3.499059126e-20
-1.621466838e-20
-7.520880966e-21
-3.455834516e-21
-1.53614639e-21
-6.311513775e-22
-2.169336303e-22