/*--------------------------------*- C++ -*----------------------------------*\
  =========                 |
  \\      /  F ield         | OpenFOAM: The Open Source CFD Toolbox
   \\    /   O peration     | Website:  https://openfoam.org
    \\  /    A nd           | Version:  10
     \\/     M anipulation  |
\*---------------------------------------------------------------------------*/
FoamFile
{
    format      ascii;
    class       volScalarField;
    location    "3000";
    object      RR.NH2;
}
// * * * * * * * * * * * * * * * * * * * * * * * * * * * * * * * * * * * * * //

dimensions      [1 -3 -1 0 0 0 0];

internalField   nonuniform List<scalar> 
5170
(
0
0
0
0
0
0
0
0
0
0
0
0
0
0
0
0
0
0
0
0
0
0
0
0
0
0
0
0
0
0
0
0
0
0
0
0
0
0
0
0
0
0
0
0
0
0
0
0
0
0
0
0
0
0
0
0
0
0
0
0
0
0
0
0
0
0
0
0
0
0
0
0
0
0
0
0
0
-2.469572392e-37
-4.584537072e-36
-1.247682757e-34
-2.496122072e-34
-1.725122283e-33
-4.517353534e-32
-2.436708058e-30
-3.827902448e-29
-3.901032799e-29
-4.004753773e-28
-1.435097558e-26
-8.127873332e-25
-1.267846787e-23
-5.262420526e-24
-8.510951916e-23
-4.025309247e-21
-2.341347546e-19
-4.208858264e-18
-5.234411559e-19
-1.692873373e-17
-1.06107602e-15
-5.553789248e-14
-1.418153645e-12
1.766981845e-09
9.971203807e-10
7.795184831e-10
1.094581192e-09
1.753449898e-09
1.671154006e-10
3.587108832e-10
3.186105271e-10
3.590529621e-10
9.803684356e-11
-1.259890126e-10
-1.973221453e-11
-2.277274399e-11
-5.596410471e-11
-1.608695285e-10
-1.638171612e-10
-1.109241642e-10
-9.41475138e-11
-1.065941772e-10
-1.664257449e-10
-1.511301656e-10
-1.290005898e-10
-1.184176238e-10
-1.176202902e-10
-1.404463305e-10
-1.297969873e-10
-1.274086202e-10
-1.214992153e-10
-1.1935244e-10
-1.179052536e-10
-1.092065574e-10
-1.175706297e-10
-1.163842434e-10
-1.167146966e-10
-9.981497888e-11
-9.166247279e-11
-1.062324728e-10
-1.081630848e-10
-1.114876536e-10
-8.354877764e-11
-7.680051837e-11
-9.449587592e-11
-9.857499433e-11
-1.004066535e-10
-6.80074349e-11
-6.426215078e-11
-8.250131449e-11
-8.750750324e-11
-8.525850562e-11
-5.439806133e-11
-5.364926782e-11
-7.077858817e-11
-7.563402744e-11
-7.014043373e-11
-4.356433491e-11
-4.480657112e-11
-5.99097476e-11
-6.397990648e-11
-5.705905491e-11
-3.532036702e-11
-3.754207409e-11
-5.024161768e-11
-5.345017497e-11
-4.660774287e-11
-2.926668379e-11
-3.178574978e-11
-4.215967214e-11
-4.455386066e-11
-3.862923646e-11
-2.491461007e-11
-2.726967492e-11
-3.554314248e-11
-3.737949057e-11
-3.273360076e-11
-2.185077225e-11
-2.386948312e-11
-3.037292302e-11
-3.178715449e-11
-2.833392046e-11
-1.963201701e-11
-2.137505539e-11
-2.637925676e-11
-2.759080643e-11
-2.517825264e-11
-1.812805188e-11
-1.877285824e-11
-2.340190907e-11
-2.468449529e-11
-2.310436767e-11
-1.726431971e-11
2.161436646e-11
-1.86996845e-11
-2.0513846e-11
-2.442529083e-11
-1.813238581e-11
1.381651338e-07
-1.244174624e-09
-6.628491232e-10
-2.027385714e-10
-6.692316354e-11
-6.762972191e-16
-4.144112172e-14
-9.891398608e-12
-2.130807991e-09
-2.036925519e-07
-1.324065797e-14
-5.593333429e-13
-7.145331888e-11
-5.479321753e-09
-9.812502293e-08
-9.611419233e-14
-2.916001374e-12
-2.151443109e-10
-7.034254422e-09
-4.349593286e-08
-5.675214142e-13
-1.397191189e-11
-7.018883205e-10
-1.274291354e-08
-5.464327206e-08
-2.772362269e-12
-5.392835806e-11
-1.66032747e-09
-1.352744091e-08
-4.800171395e-08
-1.082673472e-11
-1.564521647e-10
-2.645767094e-09
-7.61562657e-09
-6.762501314e-08
-3.518314513e-11
-3.645759482e-10
-2.871300379e-09
-1.713653278e-11
-1.074884144e-07
-9.478558851e-11
-6.632702852e-10
-1.343904395e-09
4.755139264e-09
-1.910706476e-07
-2.081816554e-10
-8.201610694e-10
2.320912567e-09
1.204570925e-09
-3.315222848e-07
-3.505195876e-10
-3.044279674e-10
7.066383914e-09
-1.569531605e-08
-4.941479612e-07
-3.579920318e-10
1.471135604e-09
1.074885549e-08
-4.666773264e-08
-6.429356023e-07
2.262600718e-10
4.610946745e-09
1.10357014e-08
-9.4536228e-08
-8.190555561e-07
2.055741001e-09
8.544653333e-09
4.531161834e-09
-1.691101033e-07
-1.068847905e-06
5.622407536e-09
1.155134238e-08
-1.471993634e-08
-2.796400928e-07
-1.365943511e-06
9.98995791e-09
9.228916621e-09
-5.61647093e-08
-4.295376673e-07
-1.66464322e-06
8.520608526e-09
-9.713782962e-09
-1.368120181e-07
-6.318653368e-07
-1.966707733e-06
-2.080030848e-08
-7.25596034e-08
-2.906951619e-07
-9.278773715e-07
-2.373927595e-06
-1.297227532e-07
-2.35033792e-07
-5.772045277e-07
-1.400093073e-06
-3.098799247e-06
-4.052036905e-07
-5.80936942e-07
-1.077772859e-06
-2.13863447e-06
-4.21502953e-06
-9.374018118e-07
-1.190298334e-06
-1.853130048e-06
-3.164604433e-06
-5.605996854e-06
-1.760750364e-06
-2.081362436e-06
-2.883663184e-06
-4.374930711e-06
-6.997471907e-06
-2.786257865e-06
-3.145921996e-06
-4.002623828e-06
-5.539755274e-06
-8.192028373e-06
-3.792722528e-06
-4.145814651e-06
-4.987965007e-06
-6.495085658e-06
-9.11386568e-06
-4.562897031e-06
-4.902848245e-06
-5.722894083e-06
-7.248847754e-06
-9.857933994e-06
-5.053293982e-06
-5.405680182e-06
-6.309198351e-06
-7.946293819e-06
-1.097877206e-05
-5.448939332e-06
-5.874469184e-06
-6.932837156e-06
-8.938435844e-06
-1.258136969e-05
-6.034195608e-06
-6.597462365e-06
-8.040393456e-06
-1.055850584e-05
-1.488823172e-05
-7.117518622e-06
-7.886270836e-06
-9.773411721e-06
-1.292500481e-05
-1.83542332e-05
-8.798435956e-06
-9.752845716e-06
-1.2439273e-05
-1.686432016e-05
-2.402668329e-05
-1.160102143e-05
-1.320362579e-05
-1.619987331e-05
-2.144055265e-05
-2.978407766e-05
-1.616641526e-05
-1.776980357e-05
-2.170535214e-05
-2.818237789e-05
-3.753856039e-05
-2.288594829e-05
-2.506656831e-05
-2.968061962e-05
-3.711592395e-05
-4.795215582e-05
-3.142206569e-05
-3.377309726e-05
-3.881218916e-05
-4.643568027e-05
-5.60647771e-05
-3.645748288e-05
-3.823286768e-05
-4.138076692e-05
-4.519370369e-05
-4.769232906e-05
-1.599343904e-05
-1.553359697e-05
-1.373959365e-05
-8.82968532e-06
1.19226552e-06
4.115333636e-05
4.354643273e-05
4.956058038e-05
5.845756158e-05
7.26333e-05
8.365033647e-05
8.54601969e-05
8.982851335e-05
9.671836899e-05
0.0001072145304
7.913959255e-05
8.069926698e-05
8.457137027e-05
9.13731631e-05
0.0001025350344
5.997275507e-05
6.281048825e-05
6.962040507e-05
8.159336339e-05
0.0001011303585
6.442080816e-05
7.006269309e-05
8.268766157e-05
0.0001016916653
0.000122315575
5.659821538e-05
5.110138852e-05
3.417171224e-05
-7.393663392e-07
-5.131595283e-05
-9.147178503e-05
-9.349379704e-05
-9.684173349e-05
-9.975258361e-05
-0.0001008357158
-6.602168277e-05
-6.550613575e-05
-6.427034935e-05
-6.218968027e-05
-5.914618222e-05
-3.277202949e-05
-3.235104342e-05
-3.142897184e-05
-3.005044926e-05
-2.826251492e-05
-1.462337783e-05
-1.443454546e-05
-1.399529138e-05
-1.339586547e-05
-1.264830968e-05
-6.353973988e-06
-6.279714641e-06
-6.119226199e-06
-5.882518993e-06
-5.583561164e-06
-2.769246645e-06
-2.740513358e-06
-2.67847559e-06
-2.587304561e-06
-2.470740751e-06
-1.218960863e-06
-1.207787433e-06
-1.183585188e-06
-1.147884973e-06
-1.101990721e-06
-5.435682665e-07
-5.391127731e-07
-5.297904247e-07
-5.167644684e-07
-4.981461069e-07
-2.470886939e-07
-2.452717722e-07
-2.412072723e-07
-2.35440909e-07
-2.276475087e-07
-1.159994122e-07
-1.133612528e-07
-1.167456392e-07
-1.115061017e-07
-1.444989497e-07
-6.342139148e-08
-6.312185073e-08
-6.248032886e-08
-6.156290551e-08
-5.08756521e-08
-2.92233824e-08
-2.911529274e-08
-2.887711304e-08
-2.851284681e-08
-2.801684114e-08
-1.501833238e-08
-1.496382271e-08
-1.484371867e-08
-1.466053521e-08
-1.44137794e-08
-8.236962797e-09
-8.218547163e-09
-8.177683137e-09
-8.114576028e-09
-8.028132578e-09
-5.098586022e-09
-5.083632284e-09
-5.050553638e-09
-4.999803387e-09
-4.930919223e-09
-3.15492532e-09
-3.143046145e-09
-3.116892043e-09
-3.077019033e-09
-3.023365807e-09
-1.962892458e-09
-1.953516926e-09
-1.932949935e-09
-1.901788478e-09
-1.860218129e-09
-1.224633868e-09
-1.217303627e-09
-1.201279284e-09
-1.177138956e-09
-1.145187871e-09
-7.582575824e-10
-7.526610412e-10
-7.404612803e-10
-7.221707174e-10
-6.981247112e-10
-4.591802133e-10
-4.550370844e-10
-4.460258032e-10
-4.325672761e-10
-4.149685412e-10
-2.668747309e-10
-2.63924606e-10
-2.575230338e-10
-2.479977009e-10
-2.356103276e-10
-1.457588212e-10
-1.437569171e-10
-1.394241996e-10
-1.330049327e-10
-1.247058285e-10
-7.274866245e-11
-7.147194257e-11
-6.871972714e-11
-6.466637568e-11
-5.947055786e-11
-3.243125345e-11
-3.169688454e-11
-3.012456885e-11
-2.783410419e-11
-2.494469552e-11
-1.481680134e-11
-1.448299508e-11
-1.378236924e-11
-1.279290216e-11
-1.160266887e-11
-1.226215447e-11
-1.222055879e-11
-1.215449214e-11
-1.211079327e-11
-1.215390201e-11
-2.200294193e-11
-2.217829642e-11
-2.258374617e-11
-2.324221805e-11
-2.419924922e-11
-3.771463187e-11
-3.803692644e-11
-3.876024725e-11
-3.989017277e-11
-4.145793348e-11
-6.795467395e-11
-6.838729499e-11
-6.934905086e-11
-7.083166157e-11
-7.285388959e-11
-4.855140064e-07
-1.655182567e-07
-8.119406606e-08
-4.065247736e-07
-6.012713334e-07
-7.049752186e-07
-7.133552424e-07
-1.045748858e-06
-1.49564746e-06
-1.783775055e-06
-1.881656406e-06
-2.121221202e-06
-2.589291651e-06
-3.041968465e-06
-3.336316944e-06
-3.546167124e-06
-3.985007154e-06
-5.025342137e-06
-6.583422002e-06
-8.306857212e-06
-9.916880616e-06
-1.106163397e-05
-1.181015441e-05
-1.288633799e-05
-1.434196453e-05
-1.659957214e-05
-1.977606694e-05
-2.43639097e-05
-2.99609367e-05
-3.766791703e-05
-4.70350576e-05
-5.782745014e-05
-6.381939858e-05
-4.785229955e-05
1.104965085e-05
8.501062126e-05
0.0001171931317
0.0001143050563
0.0001209462472
0.0001296227625
-8.544034762e-05
-0.0001002831729
-5.66181958e-05
-2.688507431e-05
-1.207138888e-05
-5.353314334e-06
-2.380535437e-06
-1.066205311e-06
-4.836143464e-07
-2.21581841e-07
-1.062797428e-07
-5.000826555e-08
-2.75967716e-08
-1.421034053e-08
-7.955611551e-09
-4.873384822e-09
-2.978736656e-09
-1.825844768e-09
-1.118942325e-09
-6.784978243e-10
-4.006828027e-10
-2.256152037e-10
-1.180432139e-10
-5.533112428e-11
-2.267393002e-11
-1.070596778e-11
-1.225158999e-11
-2.503299354e-11
-4.277996411e-11
-7.453822458e-11
-2.890145474e-06
5.878636483e-06
-3.372995355e-07
-2.299859999e-08
-2.198860174e-09
-9.183811779e-07
-1.788705621e-06
-3.710403251e-08
-8.353251406e-08
-8.118324476e-09
-9.60897152e-07
-1.566750992e-05
4.461999669e-05
-6.235799465e-06
-2.756275207e-07
-8.668377107e-06
-0.0002064540136
0.000413166066
-0.0001047934449
-6.088428773e-06
-9.463502724e-06
-0.0001170654236
-3.311875904e-05
-4.899351402e-05
-4.042044574e-06
-7.356639302e-06
-4.945150303e-05
-2.918837818e-05
-1.377092294e-05
-3.599680862e-06
-5.210730929e-06
-2.580178291e-05
-3.271290653e-05
5.844579589e-05
-2.035897056e-05
-6.944683021e-06
-5.873894658e-05
-0.0003103947578
0.0008219559162
-0.0001939156078
-8.298853392e-06
-5.750879777e-05
-0.000242899986
0.0003061782422
-0.0001434965214
-7.995208643e-06
-4.119406265e-05
-0.0001308986544
9.057758745e-05
-6.406521202e-05
-6.971814497e-06
-2.841230976e-05
-7.547520638e-05
2.13553058e-05
4.669694434e-05
-7.143959011e-06
-3.042787293e-05
-0.0001048449892
-0.0002309667332
0.0007460853205
-8.178137357e-06
-3.485640439e-05
-0.0001216008088
-0.0003067340074
0.0007776645842
-8.716979024e-06
-3.271447794e-05
-9.795434981e-05
-0.0002120959357
0.0003405514868
-8.540499159e-06
-2.745560996e-05
-7.062368949e-05
-0.0001332749825
0.0001895982389
-8.185541682e-06
-2.321030813e-05
-5.482737087e-05
-0.0001003364889
7.976678022e-05
-8.542348418e-06
-2.377805932e-05
-6.029245077e-05
-0.0001346165628
-0.0001342116639
-1.02696533e-05
-2.923301103e-05
-7.896549691e-05
-0.0001916368383
-0.0003183211081
-1.285204445e-05
-3.423253276e-05
-8.778414514e-05
-0.0002002957609
-0.0003213296465
-1.489132873e-05
-3.635866935e-05
-8.556093408e-05
-0.0001792941197
-0.0002598391322
-1.621532568e-05
-3.605320619e-05
-7.824683689e-05
-0.0001517958055
-0.0001976437837
-1.701257744e-05
-3.469542232e-05
-7.062990744e-05
-0.0001288298864
-0.0001536574094
-1.744362633e-05
-3.386267922e-05
-6.618602278e-05
-0.0001162857402
-0.000134431073
-1.836841124e-05
-3.514311721e-05
-6.762432387e-05
-0.0001177104525
-0.0001426292609
-2.036453911e-05
-3.900208258e-05
-7.432140057e-05
-0.0001285927309
-0.0001629109206
-2.360552964e-05
-4.471179196e-05
-8.351469943e-05
-0.0001405815883
-0.0001742650153
-2.799569994e-05
-5.196300193e-05
-9.337413478e-05
-0.0001490239559
-0.0001679518009
-3.400979924e-05
-6.051264003e-05
-0.0001029891847
-0.000151377004
-0.0001406836919
-4.112394863e-05
-6.999238469e-05
-0.0001110387326
-0.0001437249542
-8.76915105e-05
-5.235219982e-05
-7.994068211e-05
-0.0001145810331
-0.0001199408674
-4.446628542e-06
-6.017085481e-05
-8.821967417e-05
-0.0001077578249
-7.218161195e-05
0.0001076323234
-6.962227334e-05
-8.838170484e-05
-8.010686408e-05
5.823160316e-06
0.0002343108542
-6.918868586e-05
-6.611336446e-05
-1.834803032e-05
0.0001099461246
0.000351281497
-3.890283671e-05
-3.455941449e-06
7.748707222e-05
0.0002181783222
0.0004421753649
3.395864364e-05
8.841929143e-05
0.0001737299347
0.0003044908648
0.000505702291
0.0001068220848
0.0001544695704
0.0002285683376
0.0003530194522
0.0004377666694
0.0001335535915
0.0001770177483
0.0002563701519
0.0003594942782
3.96119323e-05
0.0001340908361
0.0001918824096
0.0002701689816
0.000100846124
-0.0001889195667
0.0001511228495
0.0001975467987
4.756432377e-05
-0.0001654499759
-0.0001789422873
0.0001003830885
-5.603346921e-05
-0.0001538009218
-0.000155459431
-0.0001256712593
-0.0001160175387
-0.0001324241669
-0.0001233096896
-0.0001009936335
-7.612018019e-05
-9.653728063e-05
-8.618613076e-05
-7.157716163e-05
-5.607280645e-05
-4.21740737e-05
-5.230191959e-05
-4.45972956e-05
-3.644719405e-05
-2.874936271e-05
-2.204980387e-05
-2.475074968e-05
-2.115429933e-05
-1.752048471e-05
-1.411000241e-05
-1.110344769e-05
-1.120449111e-05
-9.717100643e-06
-8.206057546e-06
-6.764830201e-06
-5.458179816e-06
-5.014306579e-06
-4.41713248e-06
-3.802587593e-06
-3.201586266e-06
-2.642165517e-06
-2.245264939e-06
-2.007685804e-06
-1.757237729e-06
-1.506737142e-06
-1.267292157e-06
-1.012455214e-06
-9.164819539e-07
-8.138815557e-07
-7.114449367e-07
-6.091380212e-07
-4.615504585e-07
-4.221372522e-07
-3.798744319e-07
-3.352448792e-07
-3.018199562e-07
-2.12437882e-07
-1.956539488e-07
-1.783971473e-07
-1.617328117e-07
-1.431254753e-07
-9.978906473e-08
-9.555191792e-08
-8.579175972e-08
-7.843662752e-08
-7.11882925e-08
-4.917430836e-08
-4.585386696e-08
-4.826974277e-08
-4.421564123e-08
-4.033492189e-08
-2.694584986e-08
-2.565295595e-08
-2.412156689e-08
-2.242460854e-08
-2.059393002e-08
-1.389471956e-08
-1.32704492e-08
-1.250949643e-08
-1.161427498e-08
-1.094172602e-08
-7.840828507e-09
-7.605978025e-09
-7.306172024e-09
-6.937469475e-09
-6.499121945e-09
-4.784607232e-09
-4.604839497e-09
-4.381191754e-09
-4.113747031e-09
-3.805546226e-09
-2.911392181e-09
-2.776450706e-09
-2.612588517e-09
-2.422009795e-09
-2.208696182e-09
-1.774885114e-09
-1.674025628e-09
-1.554389675e-09
-1.418808926e-09
-1.271236187e-09
-1.080531932e-09
-1.005523206e-09
-9.184786539e-10
-8.222504671e-10
-7.203642308e-10
-6.500385602e-10
-5.951790686e-10
-5.328024575e-10
-4.652048393e-10
-3.952489699e-10
-3.801059958e-10
-3.408802131e-10
-2.970121233e-10
-2.505966399e-10
-2.039646198e-10
-2.11322166e-10
-1.843991991e-10
-1.548643197e-10
-1.243975962e-10
-9.481052081e-11
-1.0860354e-10
-9.106480871e-11
-7.228395546e-11
-5.356121058e-11
-3.62747559e-11
-4.955616468e-11
-3.904047506e-11
-2.821901125e-11
-1.807858831e-11
-9.652641509e-12
-1.961016732e-11
-1.425632496e-11
-9.238283017e-12
-5.295205705e-12
-3.193652665e-12
-9.63473581e-12
-8.058387935e-12
-7.262944723e-12
-7.797241469e-12
-1.022227784e-11
-1.262249109e-11
-1.376295482e-11
-1.598479404e-11
-1.968764327e-11
-2.527323448e-11
-2.646981361e-11
-2.961190353e-11
-3.404070269e-11
-4.003799285e-11
-4.787715198e-11
-4.492305932e-11
-4.936966766e-11
-5.520649545e-11
-6.26207224e-11
-7.178429606e-11
-7.71975797e-11
-8.25893489e-11
-8.942396297e-11
-9.781063695e-11
-1.078419104e-10
-1.279796857e-10
-5.069851504e-12
-1.531846422e-13
-8.793265792e-15
-1.303262782e-15
-3.006846125e-16
-7.068229202e-17
-1.620659783e-17
-4.009318052e-18
-1.226525785e-18
-4.849215054e-19
-2.305843626e-19
-1.207670557e-19
-6.610520403e-20
-3.681716917e-20
-2.053683885e-20
-1.135630164e-20
-6.180990253e-21
-3.296940403e-21
-1.719347485e-21
-8.759573748e-22
-4.360366107e-22
-2.121594871e-22
-1.009281975e-22
-4.694811834e-23
-2.135296885e-23
-9.493946892e-24
-4.12563642e-24
-1.751901359e-24
-7.267354936e-25
-2.943076781e-25
-1.161700935e-25
-4.453780421e-26
-1.646475392e-26
-5.781923071e-27
-1.865763614e-27
-5.059278955e-28
-7.581397603e-29
3.481908281e-29
4.639953422e-29
3.404595911e-29
2.061935173e-29
1.123864371e-29
5.708212844e-30
2.755306958e-30
1.281265529e-30
5.799289372e-31
2.574616468e-31
1.127146234e-31
4.881188996e-32
2.092550136e-32
8.864297887e-33
3.691375964e-33
1.495543557e-33
5.778086191e-34
2.0436838e-34
6.019004903e-35
1.189080852e-35
7.98867921e-37
6.412609428e-39
-4.122076526e-10
-2.241720323e-11
-8.992614376e-13
-1.260797294e-13
-3.796839773e-14
-1.114264105e-14
-3.030041987e-15
-9.009946499e-16
-3.146428871e-16
-1.280612273e-16
-5.638401542e-17
-2.592582234e-17
-1.222242487e-17
-5.881286344e-18
-2.874974774e-18
-1.419955607e-18
-7.045187016e-19
-3.492084293e-19
-1.722316094e-19
-8.425620166e-20
-4.07998094e-20
-1.95299824e-20
-9.232427418e-21
-4.30490596e-21
-1.977456287e-21
-8.937293305e-22
-3.969541021e-22
-1.730645906e-22
-7.398671095e-23
-3.098150224e-23
-1.269229418e-23
-5.078536024e-24
-1.978515674e-24
-7.460492176e-25
-2.691363641e-25
-9.062307934e-26
-2.67972335e-26
-5.604883787e-27
4.608323081e-28
1.566287571e-27
1.301177433e-27
8.31844798e-28
4.682112526e-28
2.431386343e-28
1.193449024e-28
5.62592465e-29
2.576500411e-29
1.156060474e-29
5.11152194e-30
2.234294282e-30
9.662897754e-31
4.127657162e-31
1.732561909e-31
7.070858691e-32
2.749014312e-32
9.773453471e-33
2.901079099e-33
5.886403116e-34
4.723917696e-35
6.483802596e-37
-6.050099632e-09
-1.598766388e-10
-4.680953755e-12
-9.339810935e-13
-3.255329732e-13
-1.174916974e-13
-4.411385736e-14
-1.873759339e-14
-8.58761928e-15
-4.110702449e-15
-1.959882261e-15
-9.297838138e-16
-4.35893671e-16
-2.031023301e-16
-9.403056488e-17
-4.331355238e-17
-1.985307738e-17
-9.062198972e-18
-4.127288585e-18
-1.878122025e-18
-8.546171557e-19
-3.887115348e-19
-1.765548193e-19
-7.993082828e-20
-3.598698424e-20
-1.607578651e-20
-7.109331684e-21
-3.105955738e-21
-1.338120756e-21
-5.675620265e-22
-2.36610527e-22
-9.678464087e-23
-3.874894477e-23
-1.512413224e-23
-5.715471195e-24
-2.063409928e-24
-6.908865225e-25
-1.984911363e-25
-3.557988467e-26
9.516272921e-27
1.601003003e-26
1.22822424e-26
7.560325101e-27
4.146363878e-27
2.112609628e-27
1.023706735e-27
4.791661184e-28
2.189914123e-28
9.842433589e-29
4.367796126e-29
1.916217427e-29
8.297372157e-30
3.527493376e-30
1.45640619e-30
5.717196908e-31
2.046622262e-31
6.116902627e-32
1.252390396e-32
1.066526639e-33
1.743385764e-35
-2.185900127e-07
-6.037848848e-09
-9.621770757e-11
-5.497459263e-12
-1.743990644e-12
-7.94633403e-13
-3.946159197e-13
-2.057666676e-13
-1.089284529e-13
-5.74910899e-14
-2.972958916e-14
-1.506584772e-14
-7.461765435e-15
-3.627372735e-15
-1.728588206e-15
-8.086835378e-16
-3.707847145e-16
-1.668889783e-16
-7.389029463e-17
-3.23422428e-17
-1.406773641e-17
-6.108875075e-18
-2.655948312e-18
-1.157412079e-18
-5.053307683e-19
-2.20657187e-19
-9.614670564e-20
-4.170356549e-20
-1.79665765e-20
-7.673522635e-21
-3.243919598e-21
-1.355311683e-21
-5.58738302e-22
-2.268431687e-22
-9.045363719e-23
-3.524524947e-23
-1.326672062e-23
-4.69815898e-24
-1.469955758e-24
-3.330624317e-25
1.232089038e-26
8.071213949e-26
6.841093502e-26
4.33252214e-26
2.398432277e-26
1.226899116e-26
5.967757971e-27
2.808365804e-27
1.292537915e-27
5.85519671e-28
2.617811591e-28
1.154098904e-28
4.991004156e-29
2.093340833e-29
8.327791524e-30
3.010096869e-30
9.070537187e-31
1.871761353e-31
1.647565393e-32
3.061241309e-34
-2.082585069e-07
-1.360582914e-08
-4.883980036e-10
-2.261548915e-11
-6.973832412e-12
-3.754216699e-12
-2.18456588e-12
-1.276354054e-12
-7.416156953e-13
-4.259087189e-13
-2.40108041e-13
-1.32621294e-13
-7.158190751e-14
-3.78009456e-14
-1.948906361e-14
-9.815673263e-15
-4.813854928e-15
-2.299088628e-15
-1.067485417e-15
-4.832530931e-16
-2.137966585e-16
-9.298177181e-17
-3.993852168e-17
-1.703106057e-17
-7.235618481e-18
-3.07049248e-18
-1.302812967e-18
-5.527049088e-19
-2.34269735e-19
-9.909748608e-20
-4.178480089e-20
-1.754370962e-20
-7.330104588e-21
-3.048157448e-21
-1.262433775e-21
-5.205695117e-22
-2.126770023e-22
-8.489808473e-23
-3.224323585e-23
-1.111910171e-23
-3.153195242e-24
-4.898137385e-25
2.02562826e-25
2.659797443e-25
1.859151859e-25
1.06952872e-25
5.583877573e-26
2.75543225e-26
1.312649971e-26
6.108139975e-27
2.792812491e-27
1.256143836e-27
5.534981609e-28
2.362690292e-28
9.548740488e-29
3.496385998e-29
1.065373325e-29
2.227101515e-30
2.025619357e-31
4.391319301e-33
-2.682617526e-07
-2.428915997e-08
-1.68732157e-09
-9.822060638e-11
-2.470723826e-11
-1.308245452e-11
-8.007784294e-12
-4.995404621e-12
-3.114359806e-12
-1.928726083e-12
-1.18091767e-12
-7.123261118e-13
-4.220862906e-13
-2.453510388e-13
-1.395801189e-13
-7.760543012e-14
-4.204680388e-14
-2.216269593e-14
-1.132805846e-14
-5.61451677e-15
-2.695511072e-15
-1.257006196e-15
-5.699757477e-16
-2.522351234e-16
-1.091889677e-16
-4.644014548e-17
-1.947614839e-17
-8.089086405e-18
-3.339550526e-18
-1.374972367e-18
-5.658505742e-19
-2.330912908e-19
-9.623337086e-20
-3.99117068e-20
-1.668971511e-20
-7.055085293e-21
-3.005101983e-21
-1.273363748e-21
-5.252156113e-22
-2.048378832e-22
-7.274864753e-23
-2.213965393e-23
-4.875951889e-24
-1.82630565e-26
8.36944772e-25
6.816412756e-25
4.114608418e-25
2.200266024e-25
1.103957023e-25
5.33087485e-26
2.507850798e-26
1.154622787e-26
5.192335895e-27
2.258198401e-27
9.290410192e-28
3.462145123e-28
1.074683214e-28
2.306309903e-29
2.203937799e-30
5.715274749e-32
-1.803009891e-06
-1.242135787e-07
-8.208633404e-09
-6.055411681e-10
-7.82231257e-11
-3.309080332e-11
-1.969568586e-11
-1.272111936e-11
-8.377642396e-12
-5.52842581e-12
-3.630341397e-12
-2.363587719e-12
-1.521805881e-12
-9.670541747e-13
-6.053795674e-13
-3.725454483e-13
-2.247176862e-13
-1.324612234e-13
-7.60215052e-14
-4.237304231e-14
-2.287580311e-14
-1.195021752e-14
-6.03111611e-15
-2.941256701e-15
-1.385341687e-15
-6.313215743e-16
-2.786012065e-16
-1.193800913e-16
-4.983626623e-17
-2.037831687e-17
-8.212329645e-18
-3.283397625e-18
-1.311186192e-18
-5.266945536e-19
-2.14598623e-19
-8.943205566e-20
-3.814450655e-20
-1.643625661e-20
-6.997533166e-21
-2.865394213e-21
-1.096887731e-21
-3.811773331e-22
-1.151171646e-22
-2.706351428e-23
-2.506932266e-24
2.339525274e-24
2.233772063e-24
1.399753164e-24
7.619456381e-25
3.873679689e-25
1.891228251e-25
8.965201196e-26
4.131561247e-26
1.836547444e-26
7.718948242e-27
2.946155258e-27
9.423587316e-28
2.117255821e-28
2.194891671e-29
6.96376587e-31
-1.824778032e-05
-1.57943294e-06
-9.89969844e-08
-6.153473918e-09
-4.295322854e-10
-8.539152117e-11
-3.988297347e-11
-2.468975512e-11
-1.652031562e-11
-1.131004316e-11
-7.78147446e-12
-5.340985345e-12
-3.643937968e-12
-2.465987307e-12
-1.652823477e-12
-1.095690696e-12
-7.17278827e-13
-4.628615185e-13
-2.936656236e-13
-1.825965195e-13
-1.108482106e-13
-6.544386292e-14
-3.742029224e-14
-2.065749004e-14
-1.098206648e-14
-5.614311763e-15
-2.755307651e-15
-1.297183639e-15
-5.858557522e-16
-2.543905692e-16
-1.065334044e-16
-4.325943591e-17
-1.716865188e-17
-6.733296296e-18
-2.643608111e-18
-1.055195508e-18
-4.335385912e-19
-1.824889044e-19
-7.713202247e-20
-3.19183259e-20
-1.25976494e-20
-4.624218583e-21
-1.539747984e-21
-4.487513026e-22
-1.051651881e-22
-1.289194686e-23
5.628867264e-24
6.230845995e-24
4.011851516e-24
2.211501939e-24
1.134987094e-24
5.580474217e-25
2.650194261e-25
1.210241741e-25
5.222678458e-26
2.052683997e-26
6.815988223e-27
1.618201973e-27
1.843362991e-28
7.171557389e-30
-1.718156051e-05
-1.813384957e-06
-2.176219595e-07
-2.333182477e-08
-1.860844183e-09
-2.376345104e-10
-7.648383835e-11
-4.167607823e-11
-2.727374457e-11
-1.894155219e-11
-1.342617009e-11
-9.57258136e-12
-6.819842462e-12
-4.838003634e-12
-3.410334657e-12
-2.385341301e-12
-1.653548354e-12
-1.134724616e-12
-7.698136654e-13
-5.154025992e-13
-3.397848424e-13
-2.199869833e-13
-1.39451637e-13
-8.620385551e-14
-5.172420639e-14
-2.9986017e-14
-1.670787172e-14
-8.909899828e-15
-4.534426024e-15
-2.199424494e-15
-1.015991109e-15
-4.473210531e-16
-1.883641619e-16
-7.642718372e-17
-3.020538398e-17
-1.178926e-17
-4.624686116e-18
-1.848036005e-18
-7.476975846e-19
-3.007879436e-19
-1.17989253e-19
-4.424839354e-20
-1.548807062e-20
-4.924115657e-21
-1.372946839e-21
-3.134887805e-22
-4.130164149e-23
1.267297698e-23
1.546064536e-23
1.009553173e-23
5.601250005e-24
2.888857229e-24
1.422846151e-24
6.711473164e-25
2.991374248e-25
1.218442832e-25
4.230789981e-26
1.071372674e-26
1.360856606e-27
6.523361727e-29
-1.442224089e-05
-1.83247219e-06
-2.778642741e-07
-4.726702638e-08
-6.279282647e-09
-7.337979008e-10
-1.566080897e-10
-6.804133854e-11
-4.120262106e-11
-2.82175987e-11
-2.02502398e-11
-1.481132859e-11
-1.090615467e-11
-8.032726306e-12
-5.896004221e-12
-4.303158212e-12
-3.118434208e-12
-2.241636497e-12
-1.596907336e-12
-1.126295072e-12
-7.853061999e-13
-5.40639358e-13
-3.666799475e-13
-2.443634143e-13
-1.594975127e-13
-1.015865575e-13
-6.288477469e-14
-3.765286121e-14
-2.168650908e-14
-1.194719337e-14
-6.261003188e-15
-3.108833802e-15
-1.460835828e-15
-6.5096264e-16
-2.765055322e-16
-1.128353055e-16
-4.464828782e-17
-1.735764889e-17
-6.700660206e-18
-2.571000854e-18
-9.703167026e-19
-3.563874713e-19
-1.26091262e-19
-4.217106345e-20
-1.289063188e-20
-3.470229723e-21
-7.740284884e-22
-1.033103884e-22
2.749650933e-23
3.493854361e-23
2.289532197e-23
1.271826027e-23
6.55858034e-24
3.21139864e-24
1.4850223e-24
6.304182627e-25
2.30460183e-25
6.281882392e-26
9.031363407e-27
5.337344693e-28
-2.994048395e-05
-4.242923285e-06
-6.703084182e-07
-1.128942175e-07
-1.670578165e-08
-2.072200862e-09
-3.478468569e-10
-1.122530994e-10
-5.916794815e-11
-3.879127133e-11
-2.773914186e-11
-2.060230473e-11
-1.556261778e-11
-1.182590565e-11
-8.983580472e-12
-6.797472745e-12
-5.112449069e-12
-3.816756132e-12
-2.827711841e-12
-2.07750919e-12
-1.512172209e-12
-1.089196319e-12
-7.751918952e-13
-5.441286265e-13
-3.758339527e-13
-2.54757277e-13
-1.68954976e-13
-1.092586037e-13
-6.862061426e-14
-4.166956967e-14
-2.434796889e-14
-1.361452934e-14
-7.242528556e-15
-3.648140602e-15
-1.736859276e-15
-7.828826527e-16
-3.351648693e-16
-1.367021231e-16
-5.338923087e-17
-2.013259776e-17
-7.38853095e-18
-2.637355567e-18
-9.121585554e-19
-3.046781673e-19
-9.72994777e-20
-2.887196033e-20
-7.635532362e-21
-1.673922266e-21
-2.182391396e-22
5.903713388e-23
7.352096796e-23
4.786641338e-23
2.648406454e-23
1.356432628e-23
6.52827974e-24
2.897254031e-24
1.120896531e-24
3.314312443e-25
5.463775411e-26
3.97388177e-27
-0.0001658266943
-2.402440757e-05
-3.525478294e-06
-5.258324373e-07
-7.544160875e-08
-9.962656567e-09
-1.229788606e-09
-2.361831746e-10
-8.862474621e-11
-5.071193849e-11
-3.491875671e-11
-2.596430099e-11
-1.997801874e-11
-1.559000588e-11
-1.220416327e-11
-9.535460042e-12
-7.415022962e-12
-5.728082689e-12
-4.391755005e-12
-3.34030245e-12
-2.518448444e-12
-1.880657241e-12
-1.389529288e-12
-1.014463149e-12
-7.306244384e-13
-5.18037197e-13
-3.60747912e-13
-2.460610493e-13
-1.638868178e-13
-1.062215995e-13
-6.674261045e-14
-4.048829674e-14
-2.360543662e-14
-1.316468087e-14
-6.992937113e-15
-3.526376414e-15
-1.683793126e-15
-7.593040337e-16
-3.227133376e-16
-1.291198127e-16
-4.882104071e-17
-1.758804815e-17
-6.073663104e-18
-2.015666515e-18
-6.437912323e-19
-1.97299433e-19
-5.692229029e-20
-1.484197304e-20
-3.202085639e-21
-3.91078229e-22
1.276720244e-22
1.464965066e-22
9.370336649e-23
5.128121956e-23
2.583168102e-23
1.200294744e-23
4.92817986e-24
1.591020245e-24
3.041161839e-25
2.714605344e-26
-0.0001968430962
-3.268618204e-05
-5.18944927e-06
-8.532361731e-07
-1.540803907e-07
-2.934574963e-08
-4.567543302e-09
-6.769216484e-10
-1.542128733e-10
-6.523538647e-11
-4.01598949e-11
-2.91195084e-11
-2.257191744e-11
-1.801461637e-11
-1.446187177e-11
-1.166339152e-11
-9.363754473e-12
-7.466729105e-12
-5.907261985e-12
-4.634354429e-12
-3.603811402e-12
-2.776553809e-12
-2.118036739e-12
-1.598183114e-12
-1.191305834e-12
-8.758153368e-13
-6.337863335e-13
-4.504267275e-13
-3.13574888e-13
-2.132431524e-13
-1.412264548e-13
-9.079289629e-14
-5.645940768e-14
-3.383346803e-14
-1.946635249e-14
-1.071457273e-14
-5.621520611e-15
-2.800084189e-15
-1.317700028e-15
-5.833222349e-16
-2.419295845e-16
-9.38846403e-17
-3.417317737e-17
-1.170472443e-17
-3.805426509e-18
-1.181928836e-18
-3.503026867e-19
-9.81677832e-20
-2.509349356e-20
-5.281825872e-21
-5.604448979e-22
2.75625448e-22
2.781038436e-22
1.724938294e-22
9.236625517e-23
4.507477284e-23
1.966070567e-23
6.971580064e-24
1.560686626e-24
1.704378481e-25
-0.0001269736627
-2.883188264e-05
-5.176478303e-06
-9.562914925e-07
-2.07557929e-07
-4.906338972e-08
-1.140776519e-08
-1.971761591e-09
-3.42565045e-10
-9.063157477e-11
-4.276024402e-11
-2.843948211e-11
-2.183394385e-11
-1.770230375e-11
-1.452990397e-11
-1.202844588e-11
-9.916040089e-12
-8.122727033e-12
-6.60363067e-12
-5.325343845e-12
-4.258617765e-12
-3.376313523e-12
-2.652918607e-12
-2.064681388e-12
-1.590031491e-12
-1.209881892e-12
-9.078369065e-13
-6.701628453e-13
-4.854807831e-13
-3.442475191e-13
-2.38263668e-13
-1.604974722e-13
-1.049387946e-13
-6.642022176e-14
-4.058395101e-14
-2.386961718e-14
-1.347034691e-14
-7.267469363e-15
-3.732555979e-15
-1.815766568e-15
-8.320770162e-16
-3.570097603e-16
-1.427900803e-16
-5.31360206e-17
-1.843381254e-17
-5.997293487e-18
-1.839558126e-18
-5.331016435e-19
-1.451118825e-19
-3.582950171e-20
-7.102834301e-21
-4.78895466e-22
5.869714685e-22
5.014787582e-22
2.972553394e-22
1.536582299e-22
7.113630049e-23
2.770256702e-23
7.303283256e-24
9.776254653e-25
-4.616683632e-05
-2.977835614e-05
-5.873696092e-06
-1.19367641e-06
-2.771731125e-07
-7.14216525e-08
-1.930717602e-08
-4.910968121e-09
-9.451291477e-10
-1.825336904e-10
-5.283072899e-11
-2.673909642e-11