/*--------------------------------*- C++ -*----------------------------------*\
  =========                 |
  \\      /  F ield         | OpenFOAM: The Open Source CFD Toolbox
   \\    /   O peration     | Website:  https://openfoam.org
    \\  /    A nd           | Version:  10
     \\/     M anipulation  |
\*---------------------------------------------------------------------------*/
FoamFile
{
    format      ascii;
    class       volScalarField;
    location    "3000";
    object      RR.N;
}
// * * * * * * * * * * * * * * * * * * * * * * * * * * * * * * * * * * * * * //

dimensions      [1 -3 -1 0 0 0 0];

internalField   nonuniform List<scalar> 
5170
(
-4.647659612e-64
-3.730865034e-64
-2.288594086e-64
-1.118835806e-64
-8.93722954e-65
-1.605596603e-61
-1.274796608e-61
-7.683019825e-62
-4.404499941e-62
-7.903449391e-62
-5.600087699e-59
-4.413169991e-59
-2.647358315e-59
-2.070947708e-59
-6.363102746e-59
-1.986871501e-56
-1.564651746e-56
-9.69375032e-57
-1.084306771e-56
-4.67884822e-56
-7.158166401e-54
-5.689393671e-54
-3.783095155e-54
-5.997636243e-54
-3.193770432e-53
-2.627063135e-51
-2.135190429e-51
-1.56177631e-51
-3.400772736e-51
-2.04755577e-50
-9.799853992e-49
-8.217098729e-49
-6.89867578e-49
-1.951441229e-48
-1.26025762e-47
-3.710131715e-46
-3.244513765e-46
-3.257990989e-46
-1.127889552e-45
-7.539819599e-45
-1.430992008e-43
-1.331407478e-43
-1.608872149e-43
-6.553105325e-43
-4.413125114e-42
-5.637900727e-41
-5.679962368e-41
-8.231897399e-41
-3.838345355e-40
-2.541822382e-39
-2.267490404e-38
-2.513986857e-38
-4.343751257e-38
-2.267641598e-37
-1.449348893e-36
-9.290987314e-36
-1.153696113e-35
-2.373545858e-35
-1.354686854e-34
-8.234976682e-34
-3.876287709e-33
-5.476088153e-33
-1.353458848e-32
-8.281259115e-32
-4.692945614e-31
-1.63913984e-30
-2.675739153e-30
-8.01602489e-30
-5.212050658e-29
-2.698393038e-28
-7.010782614e-28
-1.337659951e-27
-4.878165257e-27
-3.370951674e-26
-1.570034492e-25
-2.988763968e-25
-6.736556409e-25
-2.988427298e-24
-2.162584684e-23
-9.228639384e-23
-1.26421818e-22
-3.408739915e-22
-1.787642169e-21
-1.351417864e-20
-5.451386979e-20
-5.171849538e-20
-1.690920594e-19
-1.035802307e-18
-7.994313816e-18
-3.196990362e-17
-1.947886901e-17
-7.975938451e-17
-5.585901627e-16
-4.329413082e-15
-1.845494491e-14
-6.251869888e-15
-3.604740564e-14
-2.913285322e-13
-2.283336583e-12
-1.531437608e-11
6.554727502e-08
3.525913397e-08
2.773449101e-08
3.871685589e-08
6.518064342e-08
7.239517662e-09
1.277480686e-08
1.172351e-08
1.252756593e-08
4.521164705e-09
-3.924426871e-09
1.907111946e-09
2.633058056e-09
1.194970594e-10
-5.024267972e-09
-5.402607652e-09
-2.82924883e-09
-1.95349299e-09
-3.081369317e-09
-5.449386038e-09
-5.055698517e-09
-4.08609911e-09
-3.644896068e-09
-3.961619508e-09
-4.73145518e-09
-4.377381268e-09
-4.265589898e-09
-4.07788529e-09
-4.107999319e-09
-4.014674941e-09
-3.719150529e-09
-4.020648449e-09
-4.010310554e-09
-3.991834962e-09
-3.429337975e-09
-3.158037686e-09
-3.666326736e-09
-3.755406479e-09
-3.818145112e-09
-2.919271867e-09
-2.68578991e-09
-3.284549432e-09
-3.43581657e-09
-3.504586217e-09
-2.442337141e-09
-2.291762194e-09
-2.900335773e-09
-3.076847924e-09
-3.059655232e-09
-2.022804368e-09
-1.961112663e-09
-2.531488518e-09
-2.703711766e-09
-2.602590063e-09
-1.685383646e-09
-1.687803188e-09
-2.194137987e-09
-2.343878165e-09
-2.199528943e-09
-1.426032394e-09
-1.464440197e-09
-1.895646417e-09
-2.021016381e-09
-1.873913883e-09
-1.235415162e-09
-1.28969814e-09
-1.6481921e-09
-1.749133312e-09
-1.624881503e-09
-1.099955678e-09
-1.154197098e-09
-1.446088985e-09
-1.530604298e-09
-1.443241106e-09
-1.007537388e-09
-1.055243695e-09
-1.290220212e-09
-1.361136478e-09
-1.307141098e-09
-9.413741953e-10
-9.852739257e-10
-1.170851063e-09
-1.236368631e-09
-1.21209377e-09
-8.994273263e-10
-9.487098919e-10
-1.08497084e-09
-1.153231881e-09
-1.155114066e-09
-8.806436868e-10
-9.754375336e-10
-1.064172847e-09
-1.115202765e-09
-1.118665892e-09
-8.723770037e-10
7.361955143e-08
-1.493319715e-08
-3.616613535e-09
-1.7124215e-09
-1.38293197e-09
-2.254634768e-13
-1.894268233e-12
-6.033463374e-11
-6.824598625e-09
-6.313088135e-07
-8.902332077e-13
-7.059378815e-12
-2.532008896e-10
-1.343569527e-08
-2.712705339e-07
-2.191587707e-12
-1.750373665e-11
-5.682317147e-10
-1.510474796e-08
-1.512283229e-07
-4.962959001e-12
-4.345715464e-11
-1.312697839e-09
-2.789282466e-08
-3.851654167e-07
-1.094308245e-11
-1.023846294e-10
-2.561093497e-09
-3.756303489e-08
-3.421790205e-07
-2.326603945e-11
-2.148522126e-10
-4.019598352e-09
-3.876416281e-08
-2.173705762e-07
-4.892650561e-11
-4.277100124e-10
-5.831381395e-09
-4.051570451e-08
-1.947268489e-07
-1.069364833e-10
-9.1316248e-10
-1.082667663e-08
-9.284221647e-08
-7.004830587e-07
-2.392989657e-10
-1.918144011e-09
-1.86295924e-08
-1.346033576e-07
-7.61157581e-07
-5.093289685e-10
-3.458124902e-09
-2.492767413e-08
-1.318787083e-07
-5.413086503e-07
-1.017990314e-09
-5.257176487e-09
-2.768336662e-08
-1.13549597e-07
-3.867652719e-07
-1.889250785e-09
-7.847659055e-09
-3.78796825e-08
-1.701997054e-07
-6.778954736e-07
-3.4574334e-09
-1.227922114e-08
-5.565603785e-08
-2.354817585e-07
-8.333633529e-07
-6.103730573e-09
-1.805385585e-08
-6.925421362e-08
-2.437028131e-07
-7.41313615e-07
-9.908276223e-09
-2.342014717e-08
-7.218431635e-08
-2.083571294e-07
-5.497414435e-07
-1.452308352e-08
-2.824883198e-08
-7.318144106e-08
-1.881788669e-07
-4.70596689e-07
-2.286791626e-08
-4.145138901e-08
-1.056353921e-07
-2.858289753e-07
-7.644341406e-07
-4.459506284e-08
-7.857770401e-08
-1.902165545e-07
-5.105858151e-07
-1.280589047e-06
-8.213354045e-08
-1.325681155e-07
-2.968516741e-07
-6.798476029e-07
-1.545983441e-06
-1.23930562e-07
-1.824082189e-07
-3.472871092e-07
-7.122791575e-07
-1.459194229e-06
-1.481952597e-07
-2.025576389e-07
-3.476827749e-07
-6.455659226e-07
-1.211598649e-06
-1.600788733e-07
-2.075183743e-07
-3.306615547e-07
-5.733849825e-07
-1.019544324e-06
-1.795350511e-07
-2.266596569e-07
-3.484111715e-07
-5.891609233e-07
-1.039015012e-06
-2.407440661e-07
-3.023351867e-07
-4.620978795e-07
-7.826611201e-07
-1.39374745e-06
-3.795783112e-07
-4.726439316e-07
-7.126694463e-07
-1.190616255e-06
-2.090380358e-06
-6.11369395e-07
-7.471566895e-07
-1.092066284e-06
-1.759558296e-06
-2.978606667e-06
-9.293790066e-07
-1.110481064e-06
-1.561961302e-06
-2.411740433e-06
-3.911387981e-06
-1.316061456e-06
-1.540045587e-06
-2.088969279e-06
-3.09494236e-06
-4.820501855e-06
-1.751931136e-06
-2.012198587e-06
-2.645154679e-06
-3.780995912e-06
-5.675795151e-06
-2.217070924e-06
-2.507886896e-06
-3.205446382e-06
-4.437714661e-06
-6.45456166e-06
-2.714241904e-06
-3.031734219e-06
-3.786246325e-06
-5.10241013e-06
-7.21249513e-06
-3.327007776e-06
-3.683172725e-06
-4.520078508e-06
-5.968712604e-06
-8.272790788e-06
-4.306934368e-06
-4.74231858e-06
-5.765783435e-06
-7.520307924e-06
-1.030143904e-05
-6.054937244e-06
-6.639248058e-06
-8.012783828e-06
-1.034082148e-05
-1.39477663e-05
-8.777217479e-06
-9.508135667e-06
-1.122191246e-05
-1.402224528e-05
-1.813157628e-05
-1.138345438e-05
-1.217870754e-05
-1.394713794e-05
-1.67715977e-05
-2.067077844e-05
-1.290100603e-05
-1.369728058e-05
-1.543917295e-05
-1.8127934e-05
-2.16729283e-05
-1.592132529e-05
-1.671972467e-05
-1.839953326e-05
-2.075586551e-05
-2.328377054e-05
-2.077211025e-05
-2.115520419e-05
-2.166910613e-05
-2.1361011e-05
-1.800621025e-05
-1.493948799e-05
-1.24408929e-05
-5.472294901e-06
9.613625406e-06
3.91203983e-05
5.308800611e-05
5.758786724e-05
6.354009356e-05
6.148161163e-05
4.256863165e-05
-8.658768865e-06
-1.00049198e-05
-1.267052487e-05
-1.628329655e-05
-2.063919436e-05
-2.195872989e-05
-2.213375998e-05
-2.242743526e-05
-2.265015266e-05
-2.257525216e-05
-1.420262606e-05
-1.406507118e-05
-1.375373751e-05
-1.326179172e-05
-1.258448147e-05
-6.802879232e-06
-6.715856051e-06
-6.505753846e-06
-6.22459866e-06
-5.877955088e-06
-3.041997422e-06
-3.006488753e-06
-2.930468011e-06
-2.81853984e-06
-2.68315337e-06
-1.419312566e-06
-1.408291275e-06
-1.385010955e-06
-1.352099848e-06
-1.312308004e-06
-7.648892465e-07
-7.632584185e-07
-7.599208694e-07
-7.555264448e-07
-7.507394094e-07
-4.993142107e-07
-5.002353224e-07
-5.024342513e-07
-5.057854471e-07
-5.094675095e-07
-3.671690103e-07
-3.680552192e-07
-3.69878702e-07
-3.724378386e-07
-3.753369891e-07
-2.72348497e-07
-2.727055537e-07
-2.735105307e-07
-2.739985885e-07
-2.737846896e-07
-1.916630666e-07
-1.915312623e-07
-1.911892003e-07
-1.905490486e-07
-1.925462762e-07
-1.277495737e-07
-1.275164871e-07
-1.26982069e-07
-1.261190571e-07
-1.248749183e-07
-8.036123887e-08
-8.013990722e-08
-7.964378103e-08
-7.88694863e-08
-7.779720047e-08
-4.799339002e-08
-4.782733623e-08
-4.745916515e-08
-4.68929384e-08
-4.620804889e-08
-2.760664692e-08
-2.750863151e-08
-2.729201848e-08
-2.696088485e-08
-2.651423183e-08
-1.535817286e-08
-1.529887925e-08
-1.516849242e-08
-1.497050444e-08
-1.470570244e-08
-8.319993067e-09
-8.286653521e-09
-8.213474377e-09
-8.102731755e-09
-7.955264764e-09
-4.423590832e-09
-4.405616159e-09
-4.366231013e-09
-4.309502659e-09
-4.234544845e-09
-2.327845197e-09
-2.318915436e-09
-2.299356294e-09
-2.269843662e-09
-2.230692368e-09
-1.21668729e-09
-1.212127207e-09
-1.202151979e-09
-1.187120645e-09
-1.167211903e-09
-6.344540042e-10
-6.321683371e-10
-6.271691936e-10
-6.196408669e-10
-6.096774094e-10
-3.316594213e-10
-3.305231861e-10
-3.280395523e-10
-3.243006566e-10
-3.193539343e-10
-1.74401204e-10
-1.738388646e-10
-1.726094088e-10
-1.707585626e-10
-1.683096794e-10
-9.289737682e-11
-9.261191389e-11
-9.198812402e-11
-9.104936392e-11
-8.980767899e-11
-5.007306454e-11
-4.993123104e-11
-4.962116059e-11
-4.915433615e-11
-4.853652867e-11
-2.747720412e-11
-2.74057751e-11
-2.724965258e-11
-2.701453427e-11
-2.670317592e-11
-1.526265656e-11
-1.522661629e-11
-1.5147801e-11
-1.502903956e-11
-1.487165797e-11
-8.790280845e-12
-8.771077473e-12
-8.729095195e-12
-8.665822708e-12
-8.581933391e-12
-5.145703443e-12
-5.135782523e-12
-5.114091669e-12
-5.081383953e-12
-5.037991161e-12
-3.360577369e-06
-1.276483474e-06
-8.351080709e-07
-2.8010878e-06
-1.595086218e-06
-6.970756067e-07
-6.699750963e-07
-2.914006025e-06
-2.479109335e-06
-1.438057279e-06
-9.414213534e-07
-1.929960489e-06
-2.114937732e-06
-1.588829393e-06
-1.040544957e-06
-8.944485816e-07
-1.574993006e-06
-2.534737823e-06
-2.807689623e-06
-2.44160308e-06
-1.903006606e-06
-1.553553672e-06
-1.589937441e-06
-2.156988712e-06
-3.196404163e-06
-4.426616863e-06
-5.629763062e-06
-6.736131145e-06
-7.726276965e-06
-8.580079417e-06
-9.398577086e-06
-1.062690701e-05
-1.312071745e-05
-1.75266443e-05
-2.201145147e-05
-2.418939823e-05
-2.462073251e-05
-2.461090202e-05
-1.147844391e-05
7.047884906e-05
2.422428336e-05
-2.373636692e-05
-2.228587061e-05
-1.203768344e-05
-5.611187932e-06
-2.581226384e-06
-1.283566953e-06
-7.480217416e-07
-5.126342088e-07
-3.775824958e-07
-2.749681581e-07
-1.917907804e-07
-1.238358384e-07
-7.69140209e-08
-4.565181483e-08
-2.615131283e-08
-1.449134644e-08
-7.836040339e-09
-4.173951475e-09
-2.199085786e-09
-1.151144021e-09
-6.016344163e-10
-3.153589459e-10
-1.663303891e-10
-8.880351014e-11
-4.803633788e-11
-2.645088692e-11
-1.474399275e-11
-8.513814294e-12
-5.002745786e-12
-7.264036181e-06
9.73956898e-06
-5.860830956e-07
-5.968522739e-08
-8.412476662e-09
-2.060544878e-06
-4.99758067e-06
1.116007901e-06
-2.409852459e-07
-1.363218365e-08
-2.690809449e-06
-2.216786335e-05
6.548408568e-05
-8.465837873e-06
-3.721589361e-07
-1.022469368e-05
-8.502266554e-05
6.703797416e-05
-3.922887178e-05
-3.252146547e-06
-4.410410527e-06
-2.299127958e-05
-6.589420099e-05
-4.023926972e-06
-1.914135777e-06
-1.581373598e-06
-6.250299811e-06
-1.732710121e-05
1.380299666e-05
-4.309787948e-06
-1.785416642e-06
-1.057830869e-05
-5.758192847e-05
0.0001228776921
-3.180950008e-05
-8.516708953e-06
-5.450476031e-05
-0.0003006381724
0.0007363197745
-0.0001722030201
-5.921958145e-06
-2.670747578e-05
-9.638823127e-05
-0.0001426356267
-3.484661666e-05
-2.919123507e-06
-1.006683914e-05
-2.76927511e-05
-4.658922673e-05
2.775128068e-05
-1.891783006e-06
-6.885148927e-06
-2.371358314e-05
-7.926174574e-05
0.0001704015376
-4.414824754e-06
-2.039799445e-05
-8.582299315e-05
-0.0003409781399
0.0009419182289
-4.444702434e-06
-1.68025136e-05
-5.556711202e-05
-0.0001651564837
5.94050356e-05
-3.039805069e-06
-9.349148229e-06
-2.483188171e-05
-5.794297018e-05
-4.052110335e-05
-1.863060156e-06
-5.053823471e-06
-1.238837482e-05
-2.877121801e-05
-4.386314541e-05
-1.638851522e-06
-4.904990827e-06
-1.426864168e-05
-4.140391274e-05
-0.0001118204743
-3.089637649e-06
-1.049222432e-05
-3.375213292e-05
-0.0001046816678
-0.0003131397966
-4.827063166e-06
-1.5126421e-05
-4.41719454e-05
-0.0001222287347
-0.000322357252
-5.022976193e-06
-1.376499909e-05
-3.494228191e-05
-8.30887733e-05
-0.000184990839
-4.11218497e-06
-9.993178837e-06
-2.264640088e-05
-4.836505129e-05
-9.745381561e-05
-3.062211374e-06
-6.87120868e-06
-1.467532818e-05
-3.023802064e-05
-6.031456916e-05
-2.453106438e-06
-5.423163571e-06
-1.173905809e-05
-2.515663648e-05
-5.327350954e-05
-2.537720215e-06
-5.829036835e-06
-1.326828781e-05
-2.998159964e-05
-6.675935763e-05
-3.488317556e-06
-8.232757178e-06
-1.918120305e-05
-4.404102455e-05
-9.909722882e-05
-5.121115278e-06
-1.184663961e-05
-2.699413432e-05
-6.047079134e-05
-0.0001325985298
-6.919536413e-06
-1.526620016e-05
-3.323599431e-05
-7.118641428e-05
-0.0001491937113
-8.553574378e-06
-1.792255401e-05
-3.722151853e-05
-7.629283644e-05
-0.0001530664144
-9.962989955e-06
-1.992027017e-05
-3.969637826e-05
-7.838942257e-05
-0.0001511578093
-1.115070557e-05
-2.138164e-05
-4.106899383e-05
-7.833439517e-05
-0.0001442155852
-1.210639561e-05
-2.232122672e-05
-4.135385835e-05
-7.5781296e-05
-0.0001296404783
-1.299377938e-05
-2.313955801e-05
-4.136523307e-05
-7.188798421e-05
-0.000108163996
-1.447355233e-05
-2.509213287e-05
-4.324137555e-05
-6.957788152e-05
-8.434507639e-05
-1.766781892e-05
-2.981934672e-05
-4.87371388e-05
-7.026292471e-05
-6.045221602e-05
-2.306192386e-05
-3.679870087e-05
-5.505700642e-05
-6.859000483e-05
-2.266037386e-05
-2.746034969e-05
-3.938623547e-05
-5.077884402e-05
-4.28269462e-05
9.33757505e-05
-2.866232833e-05
-3.700639708e-05
-3.778267276e-05
1.109560654e-05
0.0002946481118
-2.780663134e-05
-2.967514278e-05
-5.208890156e-06
0.0001457897401
0.0002212559545
-2.3736437e-05
-4.671716169e-06
9.566484089e-05
0.0002167124207
1.548035041e-05
7.648331266e-06
9.605174072e-05
0.0001575102233
1.680580369e-05
-4.010315189e-05
0.000109078253
7.324623178e-05
-4.32338114e-07
-3.563285325e-05
-4.500440746e-05
3.202574643e-06
-1.922393755e-05
-3.467611777e-05
-3.735165115e-05
-3.156294245e-05
-2.734214632e-05
-3.020755253e-05
-2.850192905e-05
-2.384621796e-05
-1.852685871e-05
-2.137822463e-05
-1.909133244e-05
-1.605271233e-05
-1.286369681e-05
-9.995771649e-06
-1.115362582e-05
-9.602309625e-06
-8.004792082e-06
-6.509732488e-06
-5.237451465e-06
-5.218382992e-06
-4.544064884e-06
-3.885686048e-06
-3.296388465e-06
-2.802313407e-06
-2.439442891e-06
-2.196477853e-06
-1.973201663e-06
-1.775239995e-06
-1.610324738e-06
-1.242187213e-06
-1.178618942e-06
-1.121921839e-06
-1.071912098e-06
-1.02526939e-06
-7.431298369e-07
-7.376733617e-07
-7.329317235e-07
-7.253096553e-07
-7.099662056e-07
-5.155739595e-07
-5.209255067e-07
-5.231376413e-07
-5.194784011e-07
-5.074989089e-07
-3.792693513e-07
-3.812955718e-07
-3.800200552e-07
-3.721832701e-07
-3.582153334e-07
-2.746532451e-07
-2.72116991e-07
-2.671071009e-07
-2.577590168e-07
-2.447818021e-07
-1.897438235e-07
-1.859907348e-07
-1.76531471e-07
-1.679911404e-07
-1.569876182e-07
-1.219185383e-07
-1.180273551e-07
-1.127996001e-07
-1.064059925e-07
-9.917995721e-08
-7.541139716e-08
-7.244325159e-08
-6.906362493e-08
-6.487720889e-08
-5.996684706e-08
-4.472501615e-08
-4.290716832e-08
-4.064171399e-08
-3.795699539e-08
-3.491209166e-08
-2.556603176e-08
-2.443427261e-08
-2.306113667e-08
-2.147061534e-08
-1.978146262e-08
-1.415203604e-08
-1.349981629e-08
-1.273111616e-08
-1.188165314e-08
-1.093761572e-08
-7.649530226e-09
-7.30841833e-09
-6.903216415e-09
-6.440544184e-09
-5.931926328e-09
-4.079424426e-09
-3.898200074e-09
-3.683564225e-09
-3.440348565e-09
-3.174510088e-09
-2.150127821e-09
-2.056438431e-09
-1.946006574e-09
-1.821365635e-09
-1.685531813e-09
-1.12637362e-09
-1.078982179e-09
-1.023258348e-09
-9.604906479e-10
-8.9218539e-10
-5.892763256e-10
-5.656187982e-10
-5.378291626e-10
-5.065444249e-10
-4.725007385e-10
-3.092346943e-10
-2.974982412e-10
-2.83710949e-10
-2.681812535e-10
-2.512629308e-10
-1.633010741e-10
-1.574873106e-10
-1.506515157e-10
-1.429408906e-10
-1.345237826e-10
-8.727094272e-11
-8.432658438e-11
-8.086493546e-11
-7.698030838e-11
-7.277879786e-11
-4.72732149e-11
-4.580380561e-11
-4.407260694e-11
-4.21136135e-11
-3.996561532e-11
-2.606592106e-11
-2.532341299e-11
-2.4446517e-11
-2.345130272e-11
-2.235603684e-11
-1.454909981e-11
-1.417230856e-11
-1.372609895e-11
-1.32179314e-11
-1.265635866e-11
-8.409867994e-12
-8.208561606e-12
-7.96968879e-12
-7.696908237e-12
-7.39436476e-12
-4.948871888e-12
-4.844365575e-12
-4.719941207e-12
-4.577239433e-12
-4.41805972e-12
-2.713610722e-10
-4.341124463e-12
-1.58823058e-13
-1.17696202e-14
-1.874772565e-15
-3.873311314e-16
-8.686361819e-17
-2.567974697e-17
-1.28863043e-17
-9.332654652e-18
-7.476939443e-18
-6.009358334e-18
-4.740474347e-18
-3.655825882e-18
-2.754755048e-18
-2.026974885e-18
-1.455773952e-18
-1.020112228e-18
-6.973098069e-19
-4.64839019e-19
-3.021065713e-19
-1.913884331e-19
-1.181623907e-19
-7.107493176e-20
-4.163723904e-20
-2.375910589e-20
-1.321118535e-20
-7.161801577e-21
-3.787789471e-21
-1.956332284e-21
-9.878843023e-22
-4.884671487e-22
-2.369886907e-22
-1.131539477e-22
-5.339499815e-23
-2.504161877e-23
-1.17465194e-23
-5.539421773e-24
-2.629304837e-24
-1.250416941e-24
-5.900643028e-25
-2.729748079e-25
-1.223877066e-25
-5.270596645e-26
-2.167530887e-26
-8.488079231e-27
-3.163711887e-27
-1.123826154e-27
-3.814509481e-28
-1.241398459e-28
-3.888643352e-29
-1.177206605e-29
-3.457671979e-30
-9.887060255e-31
-2.756622608e-31
-7.459214337e-32
-1.90798284e-32
-4.289943425e-33
-7.256382493e-34
-8.621820007e-35
-3.897883691e-10
-7.670490644e-12
-2.997133526e-13
-2.648957069e-14
-4.079772111e-15
-9.154472454e-16
-3.401945176e-16
-2.177855077e-16
-1.708326003e-16
-1.364363961e-16
-1.051936655e-16
-7.827629806e-17
-5.634309992e-17
-3.948318412e-17
-2.708468052e-17
-1.825837138e-17
-1.21310193e-17
-7.955753185e-18
-5.151864423e-18
-3.290204978e-18
-2.068745743e-18
-1.2781996e-18
-7.748671389e-19
-4.601521703e-19
-2.674130576e-19
-1.51971032e-19
-8.44338004e-20
-4.586506163e-20
-2.436598012e-20
-1.266591508e-20
-6.44763341e-21
-3.218470462e-21
-1.578549496e-21
-7.63118517e-22
-3.65335936e-22
-1.742781626e-22
-8.338054876e-23
-4.017900766e-23
-1.948285472e-23
-9.438911977e-24
-4.516082249e-24
-2.106866966e-24
-9.478952504e-25
-4.080379046e-25
-1.672920593e-25
-6.521898992e-26
-2.419214397e-26
-8.558021621e-27
-2.89690603e-27
-9.420693352e-28
-2.955636297e-28
-8.984229817e-29
-2.656297578e-29
-7.662165038e-30
-2.157293325e-30
-5.889340693e-31
-1.518592396e-31
-3.455158313e-32
-6.140840816e-33
-6.078468399e-34
-6.252943151e-09
-6.139095889e-11
-8.593565195e-13
-4.961630912e-14
-7.056117443e-15
-2.628271257e-15
-1.93426204e-15
-1.706387299e-15
-1.464839871e-15
-1.249492955e-15
-9.502987214e-16
-6.821461429e-16
-4.671074708e-16
-3.103064477e-16
-2.005933456e-16
-1.264595642e-16
-7.814757326e-17
-4.761717183e-17
-2.87431713e-17
-1.722237413e-17
-1.025078075e-17
-6.053444044e-18
-3.540888299e-18
-2.048623071e-18
-1.169087917e-18
-6.568758801e-19
-3.629682322e-19
-1.971045935e-19
-1.051627148e-19
-5.515279251e-20
-2.843292809e-20
-1.441857528e-20
-7.205156511e-21
-3.559365829e-21
-1.747018578e-21
-8.575193967e-22
-4.234808302e-22
-2.108746697e-22
-1.05426074e-22
-5.236276347e-23
-2.548852636e-23
-1.200355077e-23
-5.415040553e-24
-2.325397059e-24
-9.479657067e-25
-3.668577039e-25
-1.350895381e-25
-4.751060376e-26
-1.603156303e-26
-5.21489319e-27
-1.642742587e-27
-5.031900048e-28
-1.504041732e-28
-4.396441831e-29
-1.254977205e-29
-3.462148995e-30
-8.958885544e-31
-2.013072854e-31
-3.373202045e-32
-2.725229262e-33
-1.313474154e-07
-1.869903987e-09
-9.937936678e-12
-2.198303381e-13
-2.50333648e-14
-1.397461741e-14
-1.309864454e-14
-1.245726887e-14
-1.110660874e-14
-9.249861458e-15
-7.192555676e-15
-5.256023329e-15
-3.603852085e-15
-2.411432868e-15
-1.544618691e-15
-9.20778351e-16
-5.387035853e-16
-3.10755592e-16
-1.765548793e-16
-9.906359157e-17
-5.510799786e-17
-3.047533204e-17
-1.677497381e-17
-9.191026272e-18
-5.011953238e-18
-2.719046628e-18
-1.465506247e-18
-7.834411886e-19
-4.148574803e-19
-2.173607207e-19
-1.126827546e-19
-5.784095011e-20
-2.94487499e-20
-1.491666261e-20
-7.553215985e-21
-3.845211181e-21
-1.975583389e-21
-1.022746992e-21
-5.289848293e-22
-2.697039734e-22
-1.336115865e-22
-6.353223122e-23
-2.874977777e-23
-1.232046822e-23
-4.992847494e-24
-1.916899613e-24
-7.001571711e-25
-2.446804602e-25
-8.231467804e-26
-2.681495569e-26
-8.501672764e-27
-2.633748769e-27
-7.991275171e-28
-2.375550912e-28
-6.887689533e-29
-1.918829597e-29
-4.948464131e-30
-1.084562174e-30
-1.653630838e-31
-1.095401754e-32
-1.137756452e-07
-2.413957122e-09
-2.119611634e-11
-4.230942373e-13
-9.383709284e-14
-8.209679899e-14
-8.31967858e-14
-8.060139601e-14
-7.340821947e-14
-6.273672134e-14
-5.036446477e-14
-3.814411938e-14
-2.728604886e-14
-1.850023657e-14
-1.191061006e-14
-7.309566454e-15
-4.269040403e-15
-2.518034427e-15
-1.384044861e-15
-7.427813251e-16
-3.929722183e-16
-2.053340295e-16
-1.060651396e-16
-5.430687915e-17
-2.765674224e-17
-1.405835496e-17
-7.151294541e-18
-3.643825671e-18
-1.858843824e-18
-9.484176223e-19
-4.836733785e-19
-2.465693935e-19
-1.257852637e-19
-6.439489603e-20
-3.323218362e-20
-1.736639391e-20
-9.196623954e-21
-4.904534158e-21
-2.60054998e-21
-1.349670557e-21
-6.758668404e-22
-3.230833036e-22
-1.464187216e-22
-6.26944386e-23
-2.535952297e-23
-9.716335282e-24
-3.543377742e-24
-1.237654055e-24
-4.169076209e-25
-1.363445899e-25
-4.354167941e-26
-1.363725922e-26
-4.197444055e-27
-1.267756138e-27
-3.728473899e-28
-1.046150726e-28
-2.680829472e-29
-5.721244199e-30
-7.946135735e-31
-4.556988701e-32
-3.308545857e-07
-1.108708418e-08
-1.870174609e-10
-2.486805812e-12
-4.314248962e-13
-3.491746784e-13
-3.43909964e-13
-3.38439456e-13
-3.209702484e-13
-2.906287454e-13
-2.504745717e-13
-2.051888494e-13
-1.595325e-13
-1.17694452e-13
-8.247934384e-14
-5.489367391e-14
-3.464278391e-14
-2.074422306e-14
-1.181626772e-14
-6.426683267e-15
-3.401907589e-15
-1.828081618e-15
-9.094945875e-16
-4.452047012e-16
-2.148678679e-16
-1.027371297e-16
-4.888268173e-17
-2.323215787e-17
-1.106617631e-17
-5.302021437e-18
-2.562394839e-18
-1.251422291e-18
-6.188114232e-19
-3.107790298e-19
-1.592025957e-19
-8.348200763e-20
-4.466751827e-20
-2.411315275e-20
-1.291527266e-20
-6.742359517e-21
-3.379363662e-21
-1.609882364e-21
-7.250336557e-22
-3.081929486e-22
-1.239151363e-22
-4.734401668e-23
-1.729275212e-23
-6.075570641e-24
-2.065139084e-24
-6.827822342e-25
-2.206015499e-25
-6.991455364e-26
-2.177626779e-26
-6.652640361e-27
-1.975335799e-27
-5.568561175e-28
-1.418920987e-28
-2.95464694e-29
-3.770288799e-30
-1.945589104e-31
-3.049490628e-06
-1.503423377e-07
-4.231366278e-09
-7.031044001e-11
-2.355454164e-12
-9.526801442e-13
-8.168779256e-13
-7.922118791e-13
-7.689234134e-13
-7.266676199e-13
-6.639457627e-13
-5.85273015e-13
-4.971282878e-13
-4.06270556e-13
-3.186092165e-13
-2.390993309e-13
-1.709704703e-13
-1.160962756e-13
-7.482555374e-14
-4.574126888e-14
-2.666921489e-14
-1.481625083e-14
-7.822244656e-15
-3.923214329e-15
-1.980343313e-15
-9.477962793e-16
-4.37706041e-16
-1.992141995e-16
-8.966281228e-17
-4.017038523e-17
-1.805391665e-17
-8.190301727e-18
-3.77527769e-18
-1.781805899e-18
-8.675100169e-19
-4.379022932e-19
-2.286358002e-19
-1.215574826e-19
-6.444228423e-20
-3.335752922e-20
-1.657121355e-20
-7.815066748e-21
-3.479169248e-21
-1.459936291e-21
-5.793837015e-22
-2.192768974e-22
-7.987851398e-23
-2.822034118e-23
-9.716089363e-24
-3.269261681e-24
-1.076813883e-24
-3.475660338e-25
-1.099398566e-25
-3.397934258e-26
-1.016373398e-26
-2.873254628e-27
-7.293811754e-28
-1.484491613e-28
-1.762664033e-29
-8.368628739e-31
-1.788650955e-05
-1.537315544e-06
-6.847821251e-08
-1.544837439e-09
-2.670198305e-11
-2.608844808e-12
-1.444018424e-12
-1.314819827e-12
-1.280437434e-12
-1.234482774e-12
-1.160688664e-12
-1.061174094e-12
-9.430312719e-13
-8.145365558e-13
-6.836213129e-13
-5.571193344e-13
-4.403306985e-13
-3.367694574e-13
-2.482799325e-13
-1.757369232e-13
-1.186582037e-13
-7.598588931e-14
-4.588999197e-14
-2.621916159e-14
-1.418904788e-14
-7.342277062e-15
-3.605959359e-15
-1.683296652e-15
-8.052426641e-16
-3.526526794e-16
-1.530393858e-16
-6.594242502e-17
-2.84464548e-17
-1.244893474e-17
-5.59687626e-18
-2.607867599e-18
-1.265419727e-18
-6.350124966e-19
-3.227178904e-19
-1.621098669e-19
-7.883805795e-20
-3.656856193e-20
-1.604155974e-20
-6.632054839e-21
-2.590558658e-21
-9.656079213e-22
-3.480614455e-22
-1.226950193e-22
-4.256036179e-23
-1.455139387e-23
-4.897405446e-24
-1.6184485e-24
-5.234102129e-25
-1.647330496e-25
-4.988386893e-26
-1.418727127e-26
-3.597641151e-27
-7.212566701e-28
-8.141516794e-29
-3.571668488e-30
-9.146995983e-06
-1.244673989e-06
-1.10225993e-07
-4.97277909e-09
-1.149031878e-10
-5.021924935e-12
-1.923265279e-12
-1.744680246e-12
-1.738963752e-12
-1.715604165e-12
-1.651762289e-12
-1.549847985e-12
-1.418189496e-12
-1.266561615e-12
-1.104583597e-12
-9.409075289e-13
-7.82744451e-13
-6.356365193e-13
-5.033850909e-13
-3.881912719e-13
-2.908792028e-13
-2.111921342e-13
-1.479842363e-13
-9.938404483e-14
-6.356275934e-14
-3.83765344e-14
-2.170893981e-14
-1.15107038e-14
-5.754681533e-15
-2.744093371e-15
-1.241687173e-15
-5.648545499e-16
-2.40737161e-16
-1.010666795e-16
-4.287082207e-17
-1.845196425e-17
-8.132879212e-18
-3.691903061e-18
-1.717135836e-18
-8.057902412e-19
-3.735085309e-19
-1.681704138e-19
-7.244831627e-20
-2.953636308e-20
-1.134895506e-20
-4.150001976e-21
-1.47012152e-21
-5.116198905e-22
-1.763773728e-22
-6.045199803e-23
-2.058759098e-23
-6.935775667e-24
-2.295703774e-24
-7.395689916e-25
-2.28519785e-25
-6.594394168e-26
-1.684798141e-26
-3.365610497e-27
-3.681198207e-28
-1.545863636e-29
-1.045320134e-05
-1.831045921e-06
-2.289846643e-07
-1.88023739e-08
-8.339589919e-10
-2.25154115e-11
-2.741641047e-12
-2.039815105e-12
-2.054440205e-12
-2.078457882e-12
-2.052224972e-12
-1.974385703e-12
-1.853663693e-12
-1.700976479e-12
-1.527377153e-12
-1.343154361e-12
-1.157301909e-12
-9.772096065e-13
-8.085275937e-13
-6.551962267e-13
-5.1950339e-13
-4.026086969e-13
-3.043838524e-13
-2.239094035e-13
-1.59724799e-13
-1.100384121e-13
-7.28659951e-14
-4.600682586e-14
-2.745769636e-14
-1.53367189e-14
-7.955702277e-15
-3.847017647e-15
-1.758591103e-15
-7.716090331e-16
-3.387782626e-16
-1.4436934e-16
-5.955405969e-17
-2.474717069e-17
-1.035937561e-17
-4.377580017e-18
-1.863090393e-18
-7.862061196e-19
-3.258268133e-19
-1.310378779e-19
-5.029925956e-20
-1.813243892e-20
-6.271253591e-21
-2.129825011e-21
-7.194275448e-22
-2.430213735e-22
-8.216220533e-23
-2.774061602e-23
-9.293532984e-24
-3.051545989e-24
-9.640121801e-25
-2.843346822e-25
-7.397116773e-26
-1.493693121e-26
-1.620228151e-27
-6.747583142e-29
-4.048586257e-05
-6.670339917e-06
-9.596055463e-07
-1.079217669e-07
-7.645792564e-09
-2.913764214e-10
-1.096788647e-11
-2.628767883e-12
-2.225594724e-12
-2.260741656e-12
-2.289045782e-12
-2.262353953e-12
-2.181067215e-12
-2.054797369e-12
-1.895030574e-12
-1.71310571e-12
-1.519441803e-12
-1.322965828e-12
-1.131421376e-12
-9.5050522e-13
-7.841623156e-13
-6.348775659e-13
-5.038907763e-13
-3.914512146e-13
-2.970501339e-13
-2.196289923e-13
-1.577414349e-13
-1.096567714e-13
-7.345763993e-14
-4.718040683e-14
-2.889373818e-14
-1.672421233e-14
-9.069452822e-15
-4.574695386e-15
-2.146406722e-15
-9.526387411e-16
-4.029110451e-16
-1.7022376e-16
-6.891407518e-17
-2.662362048e-17
-1.029379891e-17
-3.987833505e-18
-1.537651373e-18
-5.885343051e-19
-2.229295098e-19
-8.21659594e-20
-2.849823095e-20
-9.354679919e-21
-3.032785341e-21
-9.885918549e-22
-3.252104752e-22
-1.078181742e-22
-3.581035611e-23
-1.178142144e-23
-3.767400486e-24
-1.13311249e-24
-3.019140033e-25
-6.242015042e-26
-6.885225907e-27
-2.946538923e-28
-0.0001867219453
-2.916807086e-05
-4.387019183e-06
-5.779130994e-07
-6.220614301e-08
-3.996907618e-09
-1.434194795e-10
-7.624009425e-12
-2.500517016e-12
-2.239933094e-12
-2.30137153e-12
-2.343994236e-12
-2.32866916e-12
-2.25760171e-12
-2.140197064e-12
-1.987694712e-12
-1.81146756e-12
-1.621702022e-12
-1.427269729e-12
-1.235517942e-12
-1.052010456e-12
-8.808284775e-13
-7.247539653e-13
-5.854466157e-13
-4.63640536e-13
-3.593295634e-13
-2.719321143e-13
-2.004288608e-13
-1.434468547e-13
-9.935219444e-14
-6.634181985e-14
-4.253057859e-14
-2.605165866e-14
-1.51736699e-14
-8.364213095e-15
-4.329036033e-15
-2.09263973e-15
-9.380107134e-16
-3.904049968e-16
-1.523591995e-16
-5.950038499e-17
-2.183838783e-17
-7.827843578e-18
-2.795746162e-18
-9.953624424e-19
-3.534884767e-19
-1.248835391e-19
-4.277217036e-20
-1.385593605e-20
-4.317001008e-21
-1.340799402e-21
-4.25418863e-22
-1.370422051e-22
-4.424621578e-23
-1.403499627e-23
-4.240248388e-24
-1.151010621e-24
-2.457115946e-25
-2.820400352e-26
-1.285011313e-27
-7.150534261e-05
-1.884669325e-05
-3.733260084e-06
-6.350863544e-07
-8.700454482e-08
-9.490818699e-09
-6.139207634e-10
-2.420136346e-11
-2.595387896e-12
-1.855596477e-12
-2.001846558e-12
-2.144805209e-12
-2.223049655e-12
-2.233895762e-12
-2.186420689e-12
-2.091764357e-12
-1.961099311e-12
-1.804928069e-12
-1.632730317e-12
-1.45278311e-12
-1.271998173e-12
-1.095946569e-12
-9.289088709e-13
-7.740028739e-13
-6.333426697e-13
-5.082218111e-13
-3.992650686e-13
-3.064638229e-13
-2.292991606e-13
-1.668162376e-13
-1.176839261e-13
-8.027364407e-14
-5.276251021e-14
-3.32959758e-14
-2.010223303e-14
-1.156581194e-14
-6.312747054e-15
-3.250574577e-15
-1.565414858e-15
-6.974817384e-16
-2.855668243e-16
-1.073416372e-16
-3.792004535e-17
-1.377073051e-17
-4.60665488e-18
-1.539012959e-18
-5.147751773e-19
-1.730127178e-19
-5.792112781e-20