/*--------------------------------*- C++ -*----------------------------------*\
  =========                 |
  \\      /  F ield         | OpenFOAM: The Open Source CFD Toolbox
   \\    /   O peration     | Website:  https://openfoam.org
    \\  /    A nd           | Version:  10
     \\/     M anipulation  |
\*---------------------------------------------------------------------------*/
FoamFile
{
    format      ascii;
    class       volScalarField;
    location    "3000";
    object      RR.N2;
}
// * * * * * * * * * * * * * * * * * * * * * * * * * * * * * * * * * * * * * //

dimensions      [1 -3 -1 0 0 0 0];

internalField   nonuniform List<scalar> 
5170
(
0
0
0
0
0
0
0
0
0
0
0
0
0
0
0
0
0
0
0
0
0
0
0
0
0
0
0
0
0
0
0
0
0
0
0
0
0
0
0
0
0
0
0
0
0
0
0
0
0
0
0
0
0
0
0
0
0
0
0
0
0
0
0
0
0
0
0
0
0
0
0
0
0
0
0
0
0
0
0
0
0
0
0
0
0
0
0
0
0
0
0
0
0
0
0
0
0
0
1.350489884e-11
4.274491634e-10
-0.0003095901309
-0.0002561485851
-0.0002361030579
-0.0002649273513
-0.0003090122629
-0.0001672456369
-0.0001744792622
-0.0001691209271
-0.0001750892935
-0.0001588015122
-0.0001026167081
-0.0001218366298
-0.0001223688364
-0.0001159931152
-9.281233783e-05
-7.128281543e-05
-8.661135084e-05
-8.933871117e-05
-8.49098309e-05
-6.34708489e-05
-5.405435645e-05
-6.642787356e-05
-6.868003629e-05
-6.596319436e-05
-4.841789765e-05
-4.372866187e-05
-5.336906525e-05
-5.544862553e-05
-5.318490088e-05
-3.938258112e-05
-3.735828624e-05
-4.488243183e-05
-4.651892534e-05
-4.413349518e-05
-3.365674468e-05
-3.302238741e-05
-3.886158017e-05
-4.015747519e-05
-3.725613562e-05
-2.969313423e-05
-2.99179809e-05
-3.427656009e-05
-3.52401449e-05
-3.224650193e-05
-2.699509859e-05
-2.763766516e-05
-3.088296571e-05
-3.146846826e-05
-2.88434796e-05
-2.517298158e-05
-2.589445844e-05
-2.831846495e-05
-2.864619853e-05
-2.652773478e-05
-2.387214133e-05
-2.4516221e-05
-2.63712422e-05
-2.653782484e-05
-2.487553759e-05
-2.284814076e-05
-2.33724178e-05
-2.484696761e-05
-2.493608172e-05
-2.361863411e-05
-2.196542099e-05
-2.238086173e-05
-2.361892167e-05
-2.366876782e-05
-2.258639281e-05
-2.114598651e-05
-2.147246394e-05
-2.256801222e-05
-2.260650294e-05
-2.167444606e-05
-2.034600345e-05
-2.060952257e-05
-2.162619091e-05
-2.166112447e-05
-2.081338927e-05
-1.953283829e-05
-1.976524388e-05
-2.073604588e-05
-2.077218444e-05
-1.996664041e-05
-1.869556514e-05
-1.89646278e-05
-1.987024445e-05
-1.98964978e-05
-1.910418981e-05
-1.782609575e-05
-1.932865635e-05
-1.927524192e-05
-1.904021784e-05
-1.81818742e-05
-1.687299118e-05
-0.0003044330771
-5.204640704e-05
-2.278938662e-05
-1.761112393e-05
-1.527464104e-05
0
3.275334439e-12
2.632353508e-10
2.463589657e-08
1.247781772e-06
0
6.646660779e-12
3.01508829e-10
1.691978216e-08
3.595791672e-07
0
6.774515464e-12
3.624364886e-10
1.445024435e-08
1.662595364e-07
0
1.735927941e-11
8.369997475e-10
2.388606516e-08
1.841553757e-07
2.573619775e-12
5.001398598e-11
2.330236193e-09
4.085867284e-08
1.986714351e-07
7.81215373e-12
1.797182219e-10
5.872018205e-09
6.15724548e-08
2.014175953e-07
3.722472166e-11
6.380053899e-10
1.36158838e-08
8.672709262e-08
2.247105088e-07
1.490198118e-10
2.102485756e-09
2.793437862e-08
1.21979893e-07
3.015388851e-07
5.502678602e-10
5.924472591e-09
4.801773628e-08
1.520177687e-07
3.269429432e-07
1.765853939e-09
1.369814092e-08
6.98852559e-08
1.689924956e-07
3.122246365e-07
5.095793049e-09
2.618095438e-08
8.979826589e-08
1.788391841e-07
3.013866451e-07
1.218550185e-08
4.239032663e-08
1.094160284e-07
1.976399951e-07
3.338504602e-07
2.476591192e-08
6.183405348e-08
1.298503964e-07
2.187393621e-07
3.59909841e-07
4.40832622e-08
8.359793545e-08
1.483805194e-07
2.310790404e-07
3.588015602e-07
6.964482592e-08
1.056682829e-07
1.623232202e-07
2.342073069e-07
3.45625926e-07
9.730835297e-08
1.258223039e-07
1.726434739e-07
2.366557856e-07
3.444917808e-07
1.223858762e-07
1.439950766e-07
1.850048938e-07
2.512167967e-07
3.776294372e-07
1.426013262e-07
1.60771473e-07
2.010093839e-07
2.7745661e-07
4.278341995e-07
1.572509583e-07
1.739091166e-07
2.155902801e-07
2.973705316e-07
4.549863172e-07
1.645096292e-07
1.805347744e-07
2.208720697e-07
3.003356662e-07
4.551023e-07
1.635627711e-07
1.785613311e-07
2.170528108e-07
2.948440865e-07
4.412085237e-07
1.583193483e-07
1.709100878e-07
2.131496458e-07
2.913688274e-07
4.221540101e-07
1.552084126e-07
1.722247307e-07
2.156745107e-07
2.956732027e-07
4.071320455e-07
1.602760419e-07
1.805147678e-07
2.297832143e-07
3.059912271e-07
4.406112254e-07
1.774151757e-07
2.02043542e-07
2.455813862e-07
3.443812288e-07
4.439813839e-07
2.083714014e-07
2.379104633e-07
3.099994137e-07
3.878428435e-07
5.060003854e-07
2.554822933e-07
2.902742148e-07
3.696861924e-07
4.968763661e-07
6.760818264e-07
3.189383429e-07
3.589443872e-07
4.541064661e-07
5.794885272e-07
7.879831128e-07
3.808175915e-07
4.199054103e-07
5.530553571e-07
7.364747764e-07
9.977182033e-07
4.820229911e-07
5.434716621e-07
6.510783969e-07
8.332233441e-07
1.114892912e-06
6.492235068e-07
7.003471242e-07
8.25080616e-07
1.022495054e-06
1.347787956e-06
9.14908152e-07
9.614754065e-07
1.103274784e-06
1.4542125e-06
1.796433259e-06
9.984272773e-07
9.993691543e-07
4.806356058e-07
1.54820909e-06
8.589946746e-07
-1.270245209e-06
-1.747692608e-06
-3.548916423e-06
-8.261759175e-06
-2.029000538e-05
-5.310422442e-05
-5.902440894e-05
-7.655037689e-05
-0.0001149374275
-0.0001901502274
-0.0003735414074
-0.0004038606183
-0.0004780448083
-0.0006095586483
-0.0008266866803
-0.001173814257
-0.001231326948
-0.001365841475
-0.001591384498
-0.001938448617
-0.002137194097
-0.002215404592
-0.002398552883
-0.002707742597
-0.003192737583
-0.003095617443
-0.003215049701
-0.003498948979
-0.003989797454
-0.004778972237
-0.004601209299
-0.004817593915
-0.00532191309
-0.006158628915
-0.007367898643
-0.006699717521
-0.006841553677
-0.007075501431
-0.007205939733
-0.006966765935
-0.003738869748
-0.003646560762
-0.003453229716
-0.003190856018
-0.002899660081
-0.001699476773
-0.0016880383
-0.001666689215
-0.001643276849
-0.001626096232
-0.001298952858
-0.001307035848
-0.00132521205
-0.001353119443
-0.001390268152
-0.001291566219
-0.001299678957
-0.001367241584
-0.001386262866
-0.001404347686
-0.001302304876
-0.001304326246
-0.001308419124
-0.001310912787
-0.001314084108
-0.001171244176
-0.001169183103
-0.001164132426
-0.001155156371
-0.001140911072
-0.0009526119959
-0.0009480503821
-0.0009378120753
-0.0009217576256
-0.00089945327
-0.0007034277101
-0.000698547602
-0.000687812934
-0.0006715237622
-0.0006498049729
-0.000478062856
-0.0004741843128
-0.0004657090468
-0.0004531193889
-0.0004366325965
-0.0003066166235
-0.0003040681458
-0.0002987345759
-0.000290609238
-0.0002810637009
-0.0001933251608
-0.0001919638478
-0.0001890319263
-0.0001847390437
-0.0001786363056
-0.0001246326294
-0.0001240166045
-0.0001226936699
-0.0001207655443
-0.00011833011
-8.540898531e-05
-8.51833192e-05
-8.469834073e-05
-8.399018063e-05
-8.309170559e-05
-6.259294979e-05
-6.252697498e-05
-6.238291288e-05
-6.2166155e-05
-6.187818489e-05
-4.802268538e-05
-4.800183282e-05
-4.795344892e-05
-4.787307696e-05
-4.775216691e-05
-3.754922258e-05
-3.753093477e-05
-3.748790089e-05
-3.741497319e-05
-3.730320573e-05
-2.938250954e-05
-2.935775434e-05
-2.930120468e-05
-2.920967619e-05
-2.907673627e-05
-2.281800942e-05
-2.278899578e-05
-2.272388692e-05
-2.262147628e-05
-2.24779202e-05
-1.754584865e-05
-1.75165562e-05
-1.745142338e-05
-1.735055006e-05
-1.721196282e-05
-1.336664445e-05
-1.333986954e-05
-1.328064925e-05
-1.318975489e-05
-1.306636176e-05
-1.010297487e-05
-1.008005126e-05
-1.002951093e-05
-9.952369538e-06
-9.848431577e-06
-7.588250254e-06
-7.569465491e-06
-7.52813786e-06
-7.465288169e-06
-7.381027639e-06
-5.670210288e-06
-5.655281669e-06
-5.622482974e-06
-5.572727318e-06
-5.506248219e-06
-4.21968042e-06
-4.208071677e-06
-4.182592558e-06
-4.144008744e-06
-4.092581678e-06
-3.127943197e-06
-3.119064906e-06
-3.099592254e-06
-3.070141258e-06
-3.030956197e-06
-2.311922216e-06
-2.305216503e-06
-2.290517208e-06
-2.268307118e-06
-2.238794855e-06
-1.701841808e-06
-1.696834627e-06
-1.685863098e-06
-1.669296998e-06
-1.647306045e-06
-1.255239706e-06
-1.251520869e-06
-1.243375104e-06
-1.231082607e-06
-1.214777023e-06
-9.470863391e-07
-9.44282615e-07
-9.381420746e-07
-9.288783196e-07
-9.165956179e-07
5.16545812e-06
1.830466892e-06
6.709040077e-07
6.472775542e-07
4.916853096e-07
3.928953677e-07
4.383466142e-07
6.281933531e-07
6.010807467e-07
5.109440088e-07
4.747611761e-07
5.495974065e-07
5.765621124e-07
5.406781563e-07
4.995397206e-07
4.975262976e-07
5.602526414e-07
6.400037647e-07
6.721279139e-07
6.533216855e-07
5.949184443e-07
5.592996533e-07
5.719867615e-07
5.425982705e-07
5.980150251e-07
6.742894156e-07
8.960624613e-07
1.040897369e-06
1.146597361e-06
1.327012454e-06
1.668087315e-06
2.003133412e-06
-9.491633081e-07
-3.764466898e-05
-0.0002776776408
-0.001042899891
-0.002270365893
-0.003671275717
-0.005572237142
-0.008381846133
-0.006524206089
-0.002709876968
-0.00162248035
-0.001420211625
-0.001418495375
-0.001314176103
-0.001127453351
-0.0008805436662
-0.0006320771576
-0.0004234845724
-0.000272148093
-0.000174375544
-0.0001164545033
-8.239950056e-05
-6.164737442e-05
-4.764446912e-05
-3.720124226e-05
-2.895970047e-05
-2.235496372e-05
-1.709523897e-05
-1.296351254e-05
-9.76237952e-06
-7.311582377e-06
-5.451627984e-06
-4.050422954e-06
-2.998884815e-06
-2.214669528e-06
-1.629345592e-06
-1.201468799e-06
-9.065754922e-07
5.253236187e-06
-0.01792544133
-0.0003878917759
-6.09584895e-05
-1.46252522e-05
1.649564331e-06
-8.076976932e-07
-0.00591018079
-0.0001668882972
-6.019098324e-06
1.315049971e-06
5.133082896e-06
-0.03014925063
-0.0004999609911
-9.234032985e-06
1.535006267e-06
6.910536226e-06
-0.0189014395
-0.00182988142
-6.726017277e-05
9.410217765e-07
3.15650975e-06
-0.0008266899182
-0.005473724097
-0.0002367832815
6.784746868e-07
2.090330811e-06
-8.380265626e-05
-0.01526723036
-0.0006394745587
8.12247718e-07
2.659495493e-06
-1.992352194e-05
-0.03499338941
-0.001725125368
1.244524165e-06
4.262046929e-06
9.58013859e-06
-0.04383556812
-0.003784103309
1.065352875e-06
2.97207813e-06
7.402323546e-06
-0.005843276127
-0.009240422737
8.320146359e-07
1.951629169e-06
5.331640279e-06
-0.001121996263
-0.01980127378
7.653504511e-07
1.75155776e-06
5.245368033e-06
-0.0003734013918
-0.03610742473
9.216010164e-07
2.208900586e-06
6.55098562e-06
-9.357969705e-05
-0.05069745808
9.342917633e-07
2.083787876e-06
5.38991303e-06
-1.427712747e-05
-0.01625495027
8.34733748e-07
1.680391756e-06
3.969026983e-06
-1.513586464e-06
-0.004346493324
7.476131124e-07
1.414305654e-06
3.314217024e-06
1.833276161e-06
-0.00175772391
7.435727403e-07
1.387909875e-06
3.332731285e-06
3.981643272e-06
-0.0008678569001
8.54106196e-07
1.600761968e-06
3.801444769e-06
6.602933635e-06
-0.0004036516039
9.777170968e-07
1.802141038e-06
4.109408057e-06
7.600369761e-06
-0.0001759680851
9.152497838e-07
1.756852952e-06
3.772840812e-06
6.63317928e-06
-9.758307389e-05
8.758564422e-07
1.58320028e-06
3.258516308e-06
5.561129661e-06
-6.929262921e-05
8.085521779e-07
1.469392832e-06
2.87421139e-06
4.875583398e-06
-5.708497047e-05
7.219025935e-07
1.3855037e-06
2.692458462e-06
4.513750804e-06
-5.035334159e-05
7.143100979e-07
1.391955113e-06
2.715183536e-06
4.404942178e-06
-4.614122913e-05
7.646358705e-07
1.477932938e-06
2.873034604e-06
4.460855009e-06
-4.432836563e-05
8.442443289e-07
1.622165302e-06
3.083999384e-06
4.430900239e-06
-4.791295276e-05
9.6166965e-07
1.993359991e-06
3.286633774e-06
3.928562112e-06
-6.284766807e-05
1.218184403e-06
2.040517309e-06
3.476335296e-06
2.249979487e-06
-0.000100834014
1.407217108e-06
2.186173609e-06
3.589495198e-06
-2.741029106e-06
-0.0001882716542
1.527637988e-06
2.458155412e-06
3.172468749e-06
-1.812556724e-05
-0.0003868725104
1.765658345e-06
2.711522615e-06
-1.757894319e-09
-6.658470566e-05
-0.0008222950644
2.117419712e-06
1.921968198e-06
-1.59408676e-05
-0.0002149859571
-0.001708528275
1.729723512e-06
-6.802314705e-06
-8.628475187e-05
-0.0006267030956
-0.003314692536
-8.111554675e-06
-6.236734411e-05
-0.000350400615
-0.001586226689
-0.005858812863
-8.762382689e-05
-0.000324545697
-0.001107946383
-0.003373284237
-0.009444022765
-0.0004738904839
-0.001125083204
-0.002631223536
-0.00607601984
-0.01413972862
-0.001456029018
-0.002593532431
-0.004861341296
-0.009711073316
-0.01903674531
-0.002869901343
-0.004505641972
-0.007782238768
-0.01422492071
-0.01828534393
-0.004539124971
-0.00702049516
-0.0116598419
-0.01581223683
-0.01077962849
-0.00697070316
-0.01044406933
-0.01288742842
-0.009286489034
-0.005777210386
-0.009545900521
-0.009536340931
-0.006768184292
-0.004590707706
-0.003436367917
-0.005630138727
-0.004222026245
-0.003245582998
-0.002701398118
-0.002438464289
-0.002475582645
-0.002206263637
-0.002068679173
-0.002025301746
-0.002009516323
-0.001625832719
-0.001662652789
-0.001719860679
-0.001766086931
-0.001764073144
-0.001461781605
-0.001530949089
-0.001581913798
-0.001591035683
-0.00153905981
-0.001412312936
-0.001438243183
-0.001433936402
-0.001386033867
-0.001288573255
-0.00129928509
-0.001282925512
-0.001223766215
-0.001141539324
-0.001026212295
-0.001103935677
-0.001049861612
-0.0009736220822
-0.0008773541307
-0.0007655725674
-0.0008507414595
-0.00079035734
-0.0007164516838
-0.0006324023021
-0.0005435729662
-0.0006052812179
-0.0005541331273
-0.0004958159268
-0.0004339857551
-0.0003722857511
-0.0004040650915
-0.0003683206297
-0.000329450281
-0.000290190451
-0.0002528768775
-0.0002603232951
-0.000239085412
-0.0002168124501
-0.0001950463651
-0.0001750637584
-0.000168333413
-0.0001574187814
-0.0001469042663
-0.0001362141155
-0.0001264225428
-0.0001137343837
-0.0001090007721
-0.0001041301038
-9.93464217e-05
-9.472517002e-05
-8.136642999e-05
-7.953250421e-05
-7.752251822e-05
-7.533937559e-05
-7.292456954e-05
-6.126980624e-05
-6.05284891e-05
-5.956713411e-05
-5.832292835e-05
-5.67185451e-05
-4.744580115e-05
-4.699457172e-05
-4.631739605e-05
-4.535125512e-05
-4.403748902e-05
-3.701780003e-05
-3.659480623e-05
-3.596818566e-05
-3.509334372e-05
-3.393481387e-05
-2.876262631e-05
-2.832913395e-05
-2.772589442e-05
-2.692661623e-05
-2.591337683e-05
-2.215652856e-05
-2.173722976e-05
-2.118284874e-05
-2.048017783e-05
-1.962229047e-05
-1.691146862e-05
-1.653346273e-05
-1.605094279e-05
-1.545869804e-05
-1.47558458e-05
-1.280400624e-05
-1.248167322e-05
-1.207988379e-05
-1.159777458e-05
-1.10373539e-05
-9.630207824e-06
-9.36627659e-06
-9.042615009e-06
-8.660439886e-06
-8.222844661e-06
-7.205607546e-06
-6.995726855e-06
-6.741285928e-06
-6.444297148e-06
-6.107995023e-06
-5.368654163e-06
-5.205280092e-06
-5.008843655e-06
-4.781484982e-06
-4.526145605e-06
-3.986585628e-06
-3.861423934e-06
-3.711837686e-06
-3.539784378e-06
-3.347751455e-06
-2.950438838e-06
-2.855743701e-06
-2.743075993e-06
-2.614094137e-06
-2.470811911e-06
-2.178290561e-06
-2.107352837e-06
-2.023235924e-06
-1.927282289e-06
-1.821072592e-06
-1.602301259e-06
-1.549652666e-06
-1.487383323e-06
-1.416545549e-06
-1.338353742e-06
-1.181447864e-06
-1.14252822e-06
-1.096583841e-06
-1.044421151e-06
-9.869574885e-07
-8.915108473e-07
-8.622506235e-07
-8.277485652e-07
-7.886232335e-07
-7.455690347e-07
5.668646487e-10
9.408691416e-12
3.380065633e-13
2.07502808e-14
5.139030231e-15
0
0
0
0
0
0
0
0
0
0
0
0
0
0
0
0
0
0
0
0
0
0
0
0
0
0
0
0
0
0
0
0
0
0
0
0
0
0
0
0
0
0
0
0
0
0
0
0
0
0
0
0
0
0
0
2.024097557e-09
3.71815756e-11
1.147136469e-12
7.655008494e-14
9.657207405e-15
0
0
0
0
0
0
0
0
0
0
0
0
0
0
0
0
0
0
0
0
0
0
0
0
0
0
0
0
0
0
0
0
0
0
0
0
0
0
0
0
0
0
0
0
0
0
0
0
0
0
0
0
0
0
0
1.313726059e-08
1.974600968e-10
3.023036155e-12
1.887213596e-13
3.570476057e-14
1.572581178e-14
0
0
0
0
0
0
0
0
0
0
0
0
0
0
0
0
0
0
0
0
0
0
0
0
0
0
0
0
0
0
0
0
0
0
0
0
0
0
0
0
0
0
0
0
0
0
0
0
0
0
0
0
0
0
1.138719753e-07
5.643500217e-09
6.718499087e-11
1.75510862e-12
3.588225654e-13
1.689771994e-13
7.820456929e-14
4.800846299e-14
2.177119771e-14
1.953446054e-14
0
0
0
0
0
0
0
0
0
0
0
0
0
0
0
0
0
0
0
0
0
0
0
0
0
0
0
0
0
0
0
0
0
0
0
0
0
0
0
0
0
0
0
0
0
0
0
0
0
0
-5.287890201e-07
1.756458274e-08
4.619976946e-10
1.252554771e-11
2.566279869e-12
1.235049778e-12
6.85873197e-13
3.811676898e-13
1.930622249e-13
1.041565322e-13
6.158268865e-14
2.703295154e-14
0
0
0
0
0
0
0
0
0
0
0
0
0
0
0
0
0
0
0
0
0
0
0
0
0
0
0
0
0
0
0
0
0
0
0
0
0
0
0
0
0
0
0
0
0
0
0
0
-1.440057781e-05
5.20752593e-08
3.051645784e-09
9.517962592e-11
1.396426448e-11
6.06073089e-12
3.320514268e-12
1.847290648e-12
1.016898422e-12
5.498336746e-13
2.714450957e-13
1.431659064e-13
8.306762598e-14
3.590242524e-14
3.10084675e-14
0
0
0
0
0
0
0
0
0
0
0
0
0
0
0
0
0
0
0
0
0
0
0
0
0
0
0
0
0
0
0
0
0
0
0
0
0
0
0
0
0
0
0
0
0
-0.0001169171621
-2.672403693e-07
2.072983356e-08
1.038204792e-09
6.434764959e-11
1.937488333e-11
9.835715445e-12
5.524575445e-12
3.250646608e-12
1.889307766e-12
1.129295624e-12
6.318183537e-13
3.549853475e-13
1.892829231e-13
1.106596869e-13
4.792375716e-14
4.097405694e-14
0
0
0
0
0
0
0
0
0
0
0
0
0
0
0
0
0
0
0
0
0
0
0
0
0
0
0
0
0
0
0
0
0
0
0
0
0
0
0
0
0
0
0
-0.0003321737922
-7.6882579e-06
1.009496392e-07
9.950647149e-09
5.252854233e-10
6.518925286e-11
2.311329051e-11
1.226202204e-11
7.161973817e-12
4.432095334e-12
2.651627072e-12
1.575190056e-12
9.083626846e-13
5.832747567e-13
3.040311701e-13
2.068863756e-13
1.244737443e-13
5.576907391e-14
4.946417763e-14
0
0
0
0
0
0
0
0
0
0
0
0
0
0
0
0
0
0
0
0
0
0
0
0
0
0
0
0
0
0
0
0
0
0
0
0
0
0
0
0
0
-0.000700121837
-4.599463811e-05
-1.856438749e-07
3.907617135e-08
2.811871536e-09
2.240172315e-10
4.955765265e-11
2.224345309e-11
1.277844707e-11
8.003625095e-12
5.033256711e-12
3.1747869e-12
1.939359662e-12
1.232759501e-12
7.024043866e-13
4.863375628e-13
2.985881484e-13
1.372010825e-13
6.291205705e-14
5.756524576e-14
0
0
0
0
0
0
0
0
0
0
0
0
0
0
0
0
0
0
0
0
0
0
0
0
0
0
0
0
0
0
0
0
0
0
0
0
0
0
0
0
-0.001479599293
-0.0001582618852
-3.619821628e-06
7.431543019e-08
1.184469144e-08
8.810673558e-10
1.114717961e-10
3.746081132e-11
2.003167174e-11
1.232279311e-11
8.028806071e-12
5.323919847e-12
3.469410593e-12
2.230073904e-12
1.41852366e-12
8.806645598e-13
5.73375834e-13
3.806853214e-13
2.12282972e-13
1.315581151e-13
6.117120965e-14
5.690350361e-14
0
0
0
0
0
0
0
0
0
0
0
0
0
0
0
0
0
0
0
0
0
0
0
0
0
0
0
0
0
0
0
0
0
0
0
0
0
0
-0.002860495598
-0.0003604084618
-2.18618098e-05
-1.358364148e-07
4.04160046e-08
4.142949882e-09
3.577853286e-10
6.882999923e-11
2.964043321e-11
1.761731637e-11
1.156140495e-11
7.842334042e-12
5.350450774e-12
3.659126933e-12
2.448846498e-12
1.65032798e-12
1.114914858e-12
7.219281623e-13
4.503546413e-13
2.812224136e-13
1.978447687e-13
1.239364075e-13
5.833414804e-14
5.500250974e-14
0
0
0
0
0
0
0
0
0
0
0
0
0
0
0
0
0
0
0
0
0
0
0
0
0
0
0
0
0
0
0
0
0
0
0
0
-0.004859733512
-0.0006493629238
-7.70218428e-05
-1.9692596e-06
8.934116826e-08
2.039615596e-08
2.038239971e-09
2.026031982e-10
4.85423584e-11
2.371974927e-11
1.498153365e-11
1.041123847e-11
7.275532462e-12
5.147017414e-12
3.649546145e-12
2.592380428e-12
1.737305104e-12
1.222399507e-12
8.414091578e-13
5.031460411e-13
3.383021286e-13
1.915075027e-13
1.207778298e-13
5.729309589e-14
5.451145378e-14
5.199613096e-14
0
0
0
0
0
0
0
0
0
0
0
0
0
0
0
0
0
0
0
0
0
0
0
0
0
0
0
0
0
0
0
0
0
0
-0.009253319242
-0.001126112149
-0.0001834106245
-1.00147794e-05
-3.711909154e-08
5.383247265e-08
8.656945965e-09
8.534959455e-10
1.027029342e-10
3.134623217e-11
1.763788925e-11
1.208588778e-11
8.822389362e-12
6.515824496e-12
4.761748942e-12
3.468834082e-12
2.485956943e-12
1.770935945e-12
1.210059158e-12
8.536501711e-13
6.033253239e-13
3.799595884e-13
2.400000685e-13
1.711104312e-13
1.088122322e-13
5.207231652e-14
5.000364298e-14
0
0
0
0
0
0
0
0
0
0
0
0
0
0
0
0
0
0
0
0
0
0
0
0
0
0
0
0
0
0
0
0
0
-0.01679973613
-0.001956295076
-0.0003492261564
-3.586106964e-05
-1.073214934e-06
6.527459015e-08
2.307136966e-08
3.560545536e-09
3.504056392e-10
4.961042088e-11
1.909844964e-11
1.22677417e-11
8.917941643e-12
6.748344258e-12
5.140574223e-12
3.802763746e-12
2.853382711e-12
2.083071837e-12
1.537811426e-12
1.118828289e-12
7.454452179e-13
5.294073109e-13
3.355342539e-13
2.136406205e-13
1.537850649e-13
9.886914466e-14
4.786780527e-14
4.64646059e-14
0
0
0
0
0
0
0
0
0
0
0
0
0
0
0
0
0
0
0
0
0
0
0
0
0
0
0
0
0
0
0
0
-0.02738857196
-0.003204629883
-0.0005812565111
-9.682852269e-05
-5.593344712e-06
-5.288224176e-08
4.35324893e-08
1.092129675e-08
1.680086747e-09
1.664857371e-10
2.638636299e-11
1.183086224e-11
7.983686201e-12
5.914168218e-12
4.460105686e-12
3.38239069e-12
2.515951603e-12
1.87685249e-12
1.425211819e-12
1.023038823e-12
7.652251115e-13
5.335681217e-13
3.705106163e-13
2.66645573e-13
1.715804279e-13
1.250559245e-13
8.161802576e-14
4.027371442e-14
4.002259341e-14
0
0
0
0
0
0
0
0
0
0
0
0
0
0
0
0
0
0
0
0
0
0
0
0
0
0
0
0
0
0
0
-0.04028899895
-0.004838512927
-0.0009053289552
-0.0002017951523
-2.030153395e-05
-7.977861586e-07
4.721482344e-08
2.577324005e-08
6.368837586e-09
1.065225266e-09
1.127612188e-10
1.784107507e-11
7.629411138e-12
4.714436374e-12
3.284300325e-12
2.375843364e-12
1.749321339e-12
1.312508525e-12
9.753098016e-13
7.170160823e-13
5.241011288e-13
3.869306313e-13
2.609696142e-13
1.80334479e-13
1.401770849e-13
1.026472202e-13
6.719645667e-14
3.32080357e-14
3.306072247e-14
3.312864771e-14
0
0
0
0
0
0
0
0
0
0
0
0
0
0
0
0
0
0
0
0
0
0
0
0
0
0
0
0
0
0
-0.04943533091
-0.006842418892
-0.001356207845
-0.0003395103894
-5.488302269e-05
-3.688967773e-06
-5.371625306e-08
4.454197653e-08
1.670818672e-08
4.453632485e-09
8.238401349e-10
9.24907447e-11
1.290877636e-11
4.393246629e-12
2.36697129e-12
1.48988104e-12
1.018268184e-12
7.248875206e-13
5.130771994e-13
3.921610446e-13
2.834073577e-13
2.13773278e-13
1.488769859e-13
1.166748598e-13
8.610691234e-14
5.673000519e-14
2.814928867e-14
2.80524166e-14
2.80711473e-14
0
0
0
0
0
0
0
0
0
0
0
0
0
0
0
0
0
0
0
0
0
0
0
0
0
0
0
0
0
0
0
-0.03320205046
-0.009981837421
-0.001997502202
-0.0005064882371
-0.0001160092214
-1.227425613e-05
-6.14818879e-07
4.788559109e-08
3.44958591e-08
1.121268161e-08
3.114332441e-09
5.750959034e-10
6.022648345e-11
7.503254002e-12
2.178392556e-12
1.031528662e-12
6.112554676e-13
3.917091136e-13
2.781974987e-13
1.83985477e-13
1.260276447e-13
9.773617864e-14
7.16758449e-14
4.707661635e-14
4.670204602e-14
2.331821432e-14
2.342397779e-14
2.366457614e-14
0
0
0
0
0
0
0
0
0
0
0
0
0
0
0
0
0
0
0
0
0
0
0
0
0
0
0
0
0
0
0
0
-0.01720194923
-0.01458660991
-0.002879980198
-0.0007225171847
-0.0002041529415
-3.228080693e-05
-2.59147431e-06
-5.555346698e-08
4.628697208e-08
2.172537743e-08
7.190264502e-09
1.919446838e-09
2.999293239e-10
2.642463468e-11
3.310434159e-12
9.565933394e-13
4.400187057e-13
2.538911229e-13
1.501791999e-13
9.205743132e-14
6.486592056e-14
4.124558083e-14
3.981861795e-14
1.94318127e-14
1.916981896e-14
1.911019572e-14
0
0
0
0
0
0
0
0
0
0
0
0
0
0
0
0
0
0
0
0
0
0
0
0
0
0
0
0
0
0
0
0
0
0
-0.01004583584
-0.0202865672
-0.003998587416
-0.001018330226
-0.0003164197284
-7.007881904e-05
-8.064732794e-06
-5.123599077e-07
3.715028942e-08
3.551433118e-08
1.325095369e-08
4.251608127e-09
9.825985395e-10
1.183358331e-10
9.401185022e-12
1.367436173e-12
4.473957716e-13
2.027785673e-13
9.895721945e-14
6.630125778e-14
4.05049584e-14
1.887973391e-14
1.783453615e-14
1.705182763e-14
0
0
0
0
0
0
0
0
0
0
0
0
0
0
0
0
0
0
0
0
0
0
0
0
0
0
0
0
0
0
0
0
0
0
0
0
-0.006585673005
-0.02677335541
-0.005321307993
-0.001415591221
-0.000449873317
-0.0001291319196
-2.0829493e-05
-1.955518512e-06
-6.079972969e-08
4.089823716e-08
2.192897246e-08
7.857423455e-09
2.321685592e-09
4.196864548e-10
3.773874878e-11
3.347994923e-12
6.365611606e-13
2.22670934e-13
1.03110775e-13
4.489187795e-14
2.024018487e-14
1.857594552e-14
1.725191829e-14
0
0
0
0
0
0
0
0
0
0
0
0
0
0
0
0
0
0
0
0
0
0
0
0
0
0
0
0
0
0
0
0
0
0
0
0
0
-0.004682211711
-0.03351331512
-0.006795182555
-0.001911794925
-0.0006097298702
-0.000207574627
-4.513980417e-05
-5.630595531e-06
-4.151618881e-07
2.996841867e-08
3.320363624e-08
1.314098218e-08
4.499522549e-09
1.160757569e-09
1.624048718e-10
1.245080746e-11
1.320712343e-12
3.01928657e-13
1.132215522e-13
4.734944773e-14
2.087782181e-14
1.89163503e-14
0
0
0
0
0
0
0
0
0
0
0
0
0
0
0
0
0
0
0
0
0
0
0
0
0
0
0
0
0
0
0
0
0
0
0
0
0
0
-0.003507303034
-0.03971056767
-0.00836702904
-0.00248111658
-0.0008052319288
-0.0002996687326
-8.365932691e-05
-1.383422628e-05
-1.428869682e-06
-4.641857571e-08
3.756928782e-08
2.120815465e-08
7.953809401e-09
2.523537577e-09
5.310801509e-10
5.587136383e-11
4.350915661e-12
6.234031482e-13
1.619202369e-13
7.696275893e-14
2.206423017e-14
1.973104565e-14
0
0
0
0
0
0
0
0
0
0
0
0
0
0
0
0
0
0
0
0
0
0
0
0
0
0
0
0
0
0
0
0
0
0
0
0
0
0
-0.002748152076
-0.04371293494
-0.01001381048
-0.003082564165
-0.001037762553
-0.0003982552937
-0.0001350892861
-2.881223676e-05
-3.805578509e-06
-2.961764287e-07
3.11890727e-08
3.212844917e-08
1.322152954e-08
4.791358563e-09
1.379923676e-09
2.343422037e-10
2.051114098e-11
1.851272618e-12
3.181682839e-13
1.146439087e-13
4.727323961e-14
2.075742791e-14
1.878719118e-14
0
0
0
0
0
0
0
0
0
0
0
0
0
0
0
0
0
0
0
0
0
0
0
0
0
0
0
0
0
0
0
0
0
0
0
0
0
-0.002389343097
-0.04327965442
-0.01164958398
-0.003681614649
-0.001300092527
-0.0005021781349
-0.0001954371507
-5.211346576e-05
-8.723390815e-06
-9.537295773e-07
-2.028783802e-08
3.703799867e-08
2.114120525e-08
8.333757623e-09
2.851767531e-09
7.21058271e-10
9.976677419e-11
7.894820572e-12
8.438427217e-13
1.692929082e-13
5.182625459e-14
2.200652226e-14
1.964096984e-14
0
0
0
0
0
0
0
0
0
0
0
0
0
0
0
0
0
0
0
0
0
0
0
0
0
0
0
0
0
0
0
0
0
0
0
0
0
-0.00241366759
-0.04062231915
-0.01297926134
-0.004211898944
-0.001566391488
-0.0006095222739
-0.0002588106888
-8.337806511e-05
-1.740860092e-05
-2.41194909e-06
-1.842509228e-07
3.492359905e-08
3.15754433e-08
1.352883988e-08
5.18637209e-09
1.638840183e-09
3.419444658e-10
3.628737622e-11
2.914103667e-12
4.273343751e-13
1.173860683e-13
4.720295971e-14
2.056249549e-14
0
0
0
0
0
0
0
0
0
0
0
0
0
0
0
0
0
0
0
0
0
0
0
0
0
0
0
0
0
0
0
0
0
0
0
0
0
-0.002847146768
-0.03869204165
-0.01371645698
-0.004617293744
-0.001815061757
-0.0007198284559
-0.000320775581
-0.0001207935013
-3.076227296e-05
-5.216912879e-06
-5.905386262e-07
2.087978928e-09
3.604840647e-08
2.077326008e-08
8.611036652e-09
3.150511467e-09
9.043103247e-10
1.544964445e-10
1.370206109e-11
1.236758061e-12
2.146692396e-13
7.834359305e-14
2.179285938e-14
1.935419214e-14
0
0
0
0
0
0
0
0
0
0
0
0
0
0
0
0
0
0
0
0
0
0
0
0
0
0
0
0
0
0
0
0
0
0
0
0
-0.003779222459
-0.03782950507
-0.0137361691
-0.004855688741
-0.002022411035
-0.0008277090118
-0.0003786392973
-0.0001610071752
-4.882743132e-05
-1.004317582e-05
-1.448968806e-06
-1.019595717e-07
3.608103804e-08
2.987855282e-08
1.332502717e-08
5.387044669e-09
1.852355754e-09
4.711124016e-10
6.701434118e-11
5.458722974e-12
6.158808104e-13
1.226984924e-13
4.743192835e-14
2.033548184e-14
0
0
0
0
0
0
0
0
0
0
0
0
0
0
0
0
0
0
0
0
0
0
0
0
0
0
0
0
0
0
0
0
0
0
0
0
-0.005385365838
-0.03708760877
-0.01314274008
-0.004930708089
-0.002180119349
-0.0009298252207
-0.0004323752419
-0.0002013319865
-7.101385149e-05
-1.740985508e-05
-3.010637606e-06
-3.455484236e-07
1.55920342e-08
3.340566624e-08
1.948827767e-08
8.458768193e-09
3.283182094e-09
1.039233456e-09
2.215099222e-10
2.480250263e-11
2.007729049e-12
2.690917954e-13
7.992146045e-14
2.163319989e-14
1.901308222e-14
0
0
0
0
0
0
0
0
0
0
0
0
0
0
0
0
0
0
0
0
0
0
0
0
0
0
0
0
0
0
0
0
0
0
0
-0.007848911716
-0.03519178514
-0.01212333333
-0.004863908487
-0.002282664666
-0.001019184591
-0.0004809272342
-0.0002391708905
-9.579373905e-05
-2.749232677e-05
-5.617205796e-06
-8.33720368e-07
-4.842103579e-08
3.433162439e-08
2.694545194e-08
1.246321004e-08
5.278859347e-09
1.938845182e-09
5.547624593e-10
9.527589486e-11
8.631519592e-12
7.824532091e-13
1.599496732e-13
4.730811723e-14
1.994442252e-14
0
0
0
0
0
0
0
0
0
0
0
0
0
0
0
0
0
0
0
0
0
0
0
0
0
0
0
0
0
0
0
0
0
0
0
-0.01131422612
-0.03145908297
-0.01085961137
-0.004687177903
-0.002331631416
-0.001091516087
-0.000523774599
-0.0002723973932
-0.0001212284121
-3.991852285e-05
-9.528215056e-06
-1.69348299e-06
-1.908473642e-07
2.204170328e-08
2.946690073e-08
1.740009845e-08
7.857127982e-09
3.200870986e-09
1.094087941e-09
2.750185366e-10
3.899126335e-11
3.284664981e-12
3.734027761e-13
8.189852792e-14
2.143300334e-14
1.857923353e-14
0
0
0
0
0
0
0
0
0
0
0
0
0
0
0
0
0
0
0
0
0
0
0
0
0
0
0
0
0
0
0
0
0
0
-0.01576354437
-0.02625355653
-0.009474670626
-0.004422234234
-0.002326167567
-0.001139702974
-0.0005581808927
-0.0002997579702
-0.0001453253064
-5.389447166e-05
-1.478200237e-05
-3.036328646e-06
-4.583056526e-07
-1.552977677e-08
3.063060471e-08
2.311055633e-08
1.102986855e-08
4.85792861e-09
1.879146694e-09
5.861255437e-10
1.225161081e-10
1.360568535e-11
1.149872954e-12
1.677027152e-13
4.739337574e-14
1.954123742e-14
0
0
0
0
0
0
0
0
0
0
0
0
0
0
0
0
0
0
0
0
0
0
0
0
0
0
0
0
0
0
0
0
0
0
-0.02083777141
-0.02054568469
-0.00803026147
-0.004081026449
-0.002266034044
-0.001159128992
-0.0005815644303
-0.000320182621
-0.0001660650941
-6.81408253e-05
-2.111757607e-05
-4.955898241e-06
-8.992945624e-07
-9.423245142e-08
2.392721251e-08
2.660972785e-08
1.475059925e-08
6.887308615e-09
2.919036353e-09
1.056881172e-09
2.947894608e-10
4.882714646e-11
4.351567323e-12
4.447588991e-13
8.358571736e-14
2.108068097e-14
1.8025527e-14
0
0
0
0
0
0
0
0
0
0
0
0
0
0
0
0
0
0
0
0
0
0
0
0
0
0
0
0
0
0
0
0
0
-0.02491899594
-0.01516419628
-0.006602850846
-0.003680572825
-0.002153383191
-0.001145935554
-0.0005907831243
-0.0003329275246
-0.0001823155898
-8.151006567e-05
-2.81271273e-05
-7.44304926e-06
-1.554910762e-06
-2.310891115e-07
3.794324116e-09
2.613764794e-08
1.888683346e-08
9.25795118e-09
4.209449513e-09
1.69608893e-09
5.659669674e-10
1.365288846e-10
1.838115703e-11
1.579145945e-12
2.105688014e-13
4.752637678e-14
1.909638854e-14
0
0
0
0
0
0
0
0
0
0
0
0
0
0
0
0
0
0
0
0
0
0
0
0
0
0
0
0
0
0
0
0
0
-0.02360131515
-0.01070657165
-0.00532062296
-0.003257011967
-0.001997536163
-0.001101011489
-0.0005844740519
-0.0003373428509
-0.0001930650811
-9.266586337e-05
-3.503490105e-05
-1.032588004e-05
-2.418804984e-06
-4.403930017e-07
-3.586925663e-08
2.31324607e-08
2.243082599e-08
1.19193798e-08
5.723325122e-09
2.50501478e-09
9.49087363e-10
2.859656193e-10
5.59786673e-11
5.872511769e-12
5.207111709e-13
8.524816531e-14
2.070311396e-14