/*--------------------------------*- C++ -*----------------------------------*\
  =========                 |
  \\      /  F ield         | OpenFOAM: The Open Source CFD Toolbox
   \\    /   O peration     | Website:  https://openfoam.org
    \\  /    A nd           | Version:  10
     \\/     M anipulation  |
\*---------------------------------------------------------------------------*/
FoamFile
{
    format      ascii;
    class       volScalarField;
    location    "3000";
    object      RR.NO;
}
// * * * * * * * * * * * * * * * * * * * * * * * * * * * * * * * * * * * * * //

dimensions      [1 -3 -1 0 0 0 0];

internalField   nonuniform List<scalar> 
5170
(
9.963577699e-64
7.99774e-64
4.905647317e-64
2.398163006e-64
1.915624905e-64
3.442399436e-61
2.73290755e-61
1.646887438e-61
9.44071638e-62
1.694025865e-61
1.200860903e-58
9.46188406e-59
5.674811192e-59
4.438887872e-59
1.363865147e-58
4.261736501e-56
3.355156101e-56
2.077975613e-56
2.324108328e-56
1.002874124e-55
1.536074619e-53
1.220309584e-53
8.109825467e-54
1.285548243e-53
6.845866384e-53
5.641524161e-51
4.58158078e-51
3.348179394e-51
7.289536876e-51
4.389401141e-50
2.107015307e-48
1.764342105e-48
1.479117209e-48
4.183255542e-48
2.702331118e-47
7.992908073e-46
6.974190292e-46
6.986879147e-46
2.418334787e-45
1.617734661e-44
3.093237254e-43
2.867437467e-43
3.451957674e-43
1.405803596e-42
9.482989587e-42
1.225665025e-40
1.227545533e-40
1.768173385e-40
8.245308764e-40
5.482090552e-39
4.978072703e-38
5.468391445e-38
9.354877252e-38
4.888667203e-37
3.154298674e-36
2.074388432e-35
2.540057823e-35
5.144926154e-35
2.948593912e-34
1.831969887e-33
8.907082823e-33
1.233690802e-32
2.980540844e-32
1.84920777e-31
1.099313969e-30
3.953876862e-30
6.293016518e-30
1.833195286e-29
1.242892729e-28
7.086937184e-28
1.830670088e-27
3.406847542e-27
1.215270234e-26
9.375148968e-26
5.180932981e-25
8.847463908e-25
1.971867488e-24
8.873337575e-24
8.167471918e-23
4.50483019e-22
4.488997109e-22
1.25082759e-21
7.247601335e-21
8.233580404e-20
4.681710446e-19
2.362660863e-19
8.637342106e-19
6.711309551e-18
9.218318543e-17
5.559291333e-16
1.210875744e-16
6.221269556e-16
6.480800067e-15
9.75806128e-14
6.505471211e-13
4.592651803e-14
1.564583134e-13
-1.119783616e-11
-7.554020568e-10
-1.90270298e-08
0.0004364575828
0.0003912438662
0.0003724071206
0.0004002379131
0.0004362220555
0.0002929305559
0.0002968108919
0.0002910871829
0.0002972769995
0.0002834687828
0.0002091822055
0.0002294462041
0.0002278729795
0.0002233950674
0.0001949185611
0.0001605875426
0.0001815763184
0.0001842929431
0.0001786097635
0.0001469319501
0.0001298806311
0.0001498256911
0.0001529228269
0.0001476649226
0.0001182858633
0.0001091769658
0.0001268250843
0.0001302583637
0.0001249109614
9.926030556e-05
9.48985604e-05
0.0001101679849
0.0001133035602
0.0001076679851
8.615954554e-05
8.43271416e-05
9.736299877e-05
0.0001001670091
9.385784046e-05
7.636428395e-05
7.618499445e-05
8.699451957e-05
8.937450849e-05
8.283355333e-05
6.890286264e-05
6.97718365e-05
7.868951915e-05
8.047021703e-05
7.42709824e-05
6.318985468e-05
6.456236307e-05
7.189911898e-05
7.317754157e-05
6.75987365e-05
5.871084832e-05
6.023975463e-05
6.630985689e-05
6.71873968e-05
6.229007375e-05
5.505273715e-05
5.655711709e-05
6.162864209e-05
6.223027136e-05
5.796711747e-05
5.195492812e-05
5.335844875e-05
5.767004901e-05
5.806646521e-05
5.434594415e-05
4.923223222e-05
5.049485665e-05
5.423001694e-05
5.449223431e-05
5.121697613e-05
4.67550377e-05
4.78807137e-05
5.118505279e-05
5.135179663e-05
4.841841703e-05
4.441822798e-05
4.544750784e-05
4.841457098e-05
4.851476651e-05
4.584296228e-05
4.216733298e-05
4.323381255e-05
4.584905359e-05
4.586583668e-05
4.338509906e-05
3.995057378e-05
4.274786836e-05
4.378216863e-05
4.334903241e-05
4.091612939e-05
3.763785075e-05
0.000489408896
7.973718782e-05
4.560553965e-05
3.835399405e-05
3.322619159e-05
-9.550546323e-12
-7.234391815e-10
-1.686837834e-07
-3.232844122e-05
-0.002205930208
-3.290843798e-10
-1.424325324e-08
-1.831919637e-06
-0.0001386971626
-0.002264838655
-3.235228598e-09
-1.045632569e-07
-8.447770761e-06
-0.0003107574253
-0.002282397584
-2.028877893e-08
-5.207146522e-07
-2.771892492e-05
-0.0005419432098
-0.002311987169
-9.531499408e-08
-1.969006533e-06
-6.904788376e-05
-0.0007750070588
-0.002261206713
-3.731226465e-07
-6.176126671e-06
-0.0001429782193
-0.0009927353231
-0.002208652131
-1.347302013e-06
-1.802341925e-05
-0.0002698092107
-0.001216008103
-0.002265306014
-4.522421373e-06
-4.835562055e-05
-0.000452147617
-0.001430125129
-0.002367374414
-1.383547738e-05
-0.0001128672589
-0.0006652710952
-0.001606236646
-0.002413299847
-3.771571205e-05
-0.000224070566
-0.0008820813411
-0.001749743787
-0.002428559261
-9.329303718e-05
-0.0003824615879
-0.00108613515
-0.001883425951
-0.002467941947
-0.0001959506051
-0.0005706287961
-0.001277874729
-0.002016694157
-0.002520978688
-0.0003568524243
-0.0007798182627
-0.001461152972
-0.00213370857
-0.002538028377
-0.0005818285258
-0.001006843005
-0.001636349313
-0.002225810212
-0.002515637238
-0.0008698168001
-0.001252063479
-0.001807872458
-0.002305026064
-0.002479095354
-0.001204419337
-0.001517737621
-0.001983856632
-0.002379798287
-0.002442638432
-0.001560874657
-0.001799039026
-0.002162185346
-0.002437013309
-0.002384858511
-0.001900784418
-0.00206651231
-0.002310619352
-0.002430773436
-0.002268430093
-0.00217216975
-0.002263015017
-0.002364786128
-0.002324509235
-0.002094165072
-0.002289582058
-0.002303890003
-0.002273299201
-0.002129990132
-0.001890589495
-0.002196080942
-0.002161413961
-0.002064450491
-0.001898434367
-0.00169551885
-0.00196183814
-0.001903113968
-0.00181706374
-0.001680080819
-0.001509276503
-0.001700469834
-0.001665262889
-0.001594136918
-0.001496891806
-0.001349195232
-0.001485330856
-0.001465210974
-0.00142537629
-0.001334455757
-0.00124527364
-0.001339137895
-0.001330764269
-0.001277595872
-0.001233180891
-0.001151608003
-0.001247016272
-0.001242683651
-0.001229774641
-0.001142181148
-0.001060536087
-0.001178595959
-0.001170842704
-0.001149354107
-0.001059763662
-0.0009365709765
-0.001097530973
-0.001081143275
-0.001038759806
-0.0009126009056
-0.000770569593
-0.0009413548855
-0.0009089296681
-0.0008720361313
-0.0007596156626
-0.0005700905748
-0.0007467591216
-0.0007212868324
-0.0006287721346
-0.0004981470303
-0.0003400197534
-0.0005107577737
-0.0004798959164
-0.0004077536341
-0.0003222555175
-0.0003381090281
-0.0003816945504
-0.0003667270583
-0.0003875246716
-0.0005027870972
-0.0007259104278
-0.0008213179737
-0.0009052060087
-0.001002430977
-0.001575027757
-0.002278260375
-0.002955066942
-0.0031755607
-0.003670133919
-0.004530192023
-0.005861089727
-0.00741937429
-0.007757017221
-0.008469084604
-0.009561880561
-0.01103747779
-0.0118862586
-0.01211013505
-0.01259340903
-0.01325832145
-0.0141121837
-0.01261850269
-0.01271784483
-0.01293484764
-0.01323809117
-0.01362381903
-0.01092320405
-0.0109744195
-0.01108823982
-0.0112446591
-0.01141726675
-0.008561657222
-0.008569320815
-0.008567234886
-0.008500404333
-0.008247705644
-0.004950428388
-0.004746613261
-0.004196352636
-0.003034361322
-0.0006578946397
0.006951673746
0.008044661344
0.01059839583
0.01472133338
0.02020375262
0.02244442176
0.02286693517
0.0236324975
0.0244039459
0.02480648331
0.01669891437
0.01658963067
0.01632711252
0.01588667568
0.01525112091
0.00933331703
0.009262830009
0.009109787958
0.008883741464
0.008594860543
0.005671955633
0.005651054963
0.005708245481
0.005629114292
0.005517018114
0.004054846661
0.004044520783
0.004021668047
0.003981005225
0.003929197102
0.003067299718
0.003057358434
0.003034614509
0.002997879245
0.002945014898
0.002291399829
0.002279508914
0.002252974842
0.002211771152
0.002155186125
0.001619321476
0.001607948128
0.001582934821
0.001545000737
0.001494448175
0.001069340032
0.001060449124
0.001041006153
0.001012002335
0.0009739028434
0.0006638327931
0.0006577500551
0.0006450009649
0.0006254987623
0.0006010975098
0.0003932569195
0.00038966502
0.0003818881448
0.0003703969871
0.0003555067267
0.0002261763036
0.0002242244416
0.0002200095601
0.0002138099576
0.0002058845728
0.0001292917782
0.0001283515107
0.0001263299185
0.0001233817413
0.0001196619545
7.583533594e-05
7.549134354e-05
7.476327138e-05
7.373403914e-05
7.249965302e-05
4.793213005e-05
4.79432473e-05
4.798652726e-05
4.810553133e-05
4.83658353e-05
3.476358122e-05
3.500156675e-05
3.553947208e-05
3.63990292e-05
3.763139549e-05
3.02208285e-05
3.062264917e-05
3.151849988e-05
3.291692173e-05
3.486203623e-05
3.101059692e-05
3.154512208e-05
3.273162276e-05
3.456851388e-05
3.709494895e-05
3.537286252e-05
3.602104987e-05
3.745568501e-05
3.966553815e-05
4.268362996e-05
4.226353878e-05
4.300442267e-05
4.464069218e-05
4.715053917e-05
5.055791894e-05
5.080700869e-05
5.161088851e-05
5.338210728e-05
5.608774963e-05
5.973947423e-05
5.998669414e-05
6.081167962e-05
6.262529309e-05
6.538387917e-05
6.908436928e-05
6.8469009e-05
6.92635582e-05
7.100550011e-05
7.364261416e-05
7.715646453e-05
7.464300927e-05
7.535057146e-05
7.689703945e-05
7.922523261e-05
8.230274909e-05
7.664484831e-05
7.721149567e-05
7.844439438e-05
8.02863833e-05
8.269450563e-05
7.277354933e-05
7.315573529e-05
7.398083904e-05
7.519693524e-05
7.675515399e-05
6.104865532e-05
6.12185204e-05
6.157581445e-05
6.207881504e-05
6.267810111e-05
4.086096469e-05
4.081735594e-05
4.070602481e-05
4.049874809e-05
4.015031736e-05
1.164831757e-05
1.142656115e-05
1.092509004e-05
1.012948263e-05
9.001853462e-06
-0.003960258222
-0.002931514662
-0.002852406269
-0.002756083174
-0.002523708621
-0.002384590268
-0.002468604748
-0.002542019568
-0.002492237562
-0.002427135708
-0.002422690364
-0.002434527705
-0.002400789796
-0.002335330976
-0.002271786657
-0.002218482972
-0.002149624407
-0.0020338646
-0.001880221394
-0.001713154708
-0.001527944306
-0.00137455705
-0.001266198667
-0.001165410737
-0.001075175865
-0.0009719723989
-0.0008164558806
-0.0006258112194
-0.000427652982
-0.0002575064223
-0.0003681627708
-0.001026842557
-0.003021225877
-0.007085495537
-0.01221198188
-0.01476769872
-0.01393892005
-0.01153508089
-0.007855952733
0.002211270012
0.02427876562
0.02475906049
0.01473470119
0.008376620533
0.005431765577
0.003884486687
0.002898949253
0.002107802273
0.001453218664
0.0009433832719
0.0005805811126
0.0003438242536
0.0001996918691
0.0001168105743
7.162836723e-05
4.869432683e-05
3.874892207e-05
3.656401284e-05
3.927508033e-05
4.526519662e-05
5.345083081e-05
6.281763552e-05
7.218098315e-05
8.007425982e-05
8.483620639e-05
8.46546832e-05
7.799927684e-05
6.312323792e-05
3.981314516e-05
8.026696232e-06
-0.0004441946932
0.03781362378
0.0006739056488
2.798922564e-05
2.478984484e-06
-0.000865179056
-0.001393987649
0.01313585366
0.0001572097778
-1.697054973e-06
-0.001265899548
-0.0007861222418
0.05775424392
0.002051022678
4.762062718e-05
-0.001485672564
-0.0003591898528
-0.01092993091
0.01914021451
0.001095917456
-0.001489145041
-0.0005074896558
-0.01185339287
0.02427515068
0.001721493472
-0.001534693945
-0.0007204056457
-0.00640035565
0.04157661204
0.002537478293
-0.001745956397
-0.0009795297894
-0.004503570436
0.07089724289
0.008289668221
-0.001886602507
-0.0009947059474
-0.0013463923
0.004169936639
0.03474383207
-0.001895276742
-0.001049333983
-0.0007676561401
-0.02613339603
0.04427217958
-0.00187368899
-0.001094057736
-0.0007006567158
-0.01946186622
0.06002367327
-0.001902970575
-0.001168993953
-0.0006973738378
-0.01447457077
0.07758249568
-0.001935021889
-0.001203320819
-0.0005031842139
-0.007586517275
0.02904159324
-0.001924266555
-0.001231648349
-0.0005232492117
-0.003796177872
-0.03154765758
-0.001883323086
-0.001238219503
-0.0005879190949
-0.002584108189
-0.02968171773
-0.001845532961
-0.001244141617
-0.0006410386199
-0.002083863114
-0.02523549131
-0.001812031101
-0.001252755796
-0.0006741164989
-0.00175072334
-0.02085523907
-0.001771018329
-0.001245228311
-0.0006583336204
-0.001276594513
-0.01500963515
-0.001696054644
-0.001209183393
-0.0006249842151
-0.0008819256301
-0.01014671096
-0.001544123284
-0.001147445105
-0.0005896205152
-0.0007382015235
-0.007977683109
-0.001431527142
-0.001068192391
-0.0005419197537
-0.0007191800747
-0.00714538615
-0.001320796521
-0.0009826728693
-0.0004875435667
-0.0007582355493
-0.006877245373
-0.001221102204
-0.0008958771358
-0.0004352009703
-0.0008248883557
-0.006818401631
-0.001134403203
-0.0008061275915
-0.0003833793838
-0.0009003327983
-0.006800855501
-0.001046100981
-0.0007055213478
-0.000327078072
-0.0009887759018
-0.006811705822
-0.0009451787878
-0.0005909172148
-0.0002776046204
-0.001148432777
-0.00707548584
-0.000824694232
-0.0003955261777
-0.0002678479939
-0.001490596862
-0.007895475807
-0.0006357426994
-0.0002899308252
-0.0003466092248
-0.0021637488
-0.009506188165
-0.0004317932956
-0.0002514950165
-0.0006252276176
-0.003376884883
-0.01204767544
-0.0002673254331
-0.0003013362043
-0.001322930805
-0.00541778427
-0.01554095014
-9.293117995e-05
-0.000712041833
-0.002773352264
-0.008564175909
-0.01965898868
-0.0006082824996
-0.001854524528
-0.005385637142
-0.01284201982
-0.02359944752
-0.001773756514
-0.004276633882
-0.009442633852
-0.01758741221
-0.02622432472
-0.004505023549
-0.008415987782
-0.01442436133
-0.02132012554
-0.02655106091
-0.009182838383
-0.0135319397
-0.01843753354
-0.02265292191
-0.0240952059
-0.01396509503
-0.016945731
-0.01964369661
-0.02126608882
-0.01792330008
-0.01562132852
-0.01700978759
-0.01799020691
-0.01696326925
-0.002649786126
-0.01426800467
-0.01471492012
-0.01402910395
-0.006785870321
0.02772312202
-0.01148470474
-0.01059932563
-0.005014437869
0.0187218662
0.04830947042
-0.006589195799
-0.000308100718
0.01912972185
0.04198190556
0.04394334846
0.008470030988
0.02469519936
0.03784548488
0.03811204329
0.0309672087
0.02883503101
0.03243943604
0.03036495836
0.02521407494
0.01981898163
0.02394782501
0.02161216941
0.01844548211
0.01525633561
0.01247325711
0.0138622002
0.01236930051
0.01084486769
0.00940874339
0.008085455583
0.008031702012
0.007454728249
0.006840341002
0.00618802455
0.005489161586
0.005245198447
0.005006974041
0.004701564597
0.004318227139
0.003855815317
0.003785927557
0.003635340916
0.003389399404
0.003096965886
0.00274053454
0.002822527266
0.002661039602
0.002449081593
0.00219310529
0.001903857131
0.002033351072
0.00188475422
0.001704614364
0.001500345899
0.00128308182
0.001390604596
0.001270862922
0.001133226472
0.0009850186576
0.0008342281817
0.0008979429013
0.0008133758733
0.0007195339207
0.0006216139858
0.0005253819358
0.0005513127989
0.0004978090303
0.0004398775841
0.0003810016502
0.0003248324973
0.0003268169363
0.0002959846973
0.000263445733
0.0002311051804
0.0002011656045
0.0001906924799
0.0001747356987
0.0001582716594
0.000142649278
0.0001291869204
0.0001126977942
0.0001057285807
9.906996127e-05
9.359620106e-05
9.021671281e-05
7.040887992e-05
6.879929019e-05
6.804490929e-05
6.877613825e-05
7.16889941e-05
4.923138613e-05
5.09268076e-05
5.388809792e-05
5.862613126e-05
6.573297177e-05
4.044480474e-05
4.436688068e-05
4.989392136e-05
5.747616036e-05
6.764213945e-05
3.911965216e-05
4.472184566e-05
5.22157486e-05
6.200603777e-05
7.455899049e-05
4.253265285e-05
4.950912665e-05
5.860350171e-05
7.016373874e-05
8.457102427e-05
4.910806772e-05
5.720896194e-05
6.756933433e-05
8.045489152e-05
9.612840746e-05
5.774111737e-05
6.66599821e-05
7.786620852e-05
9.151615409e-05
0.0001077251971
6.736373294e-05
7.668501795e-05
8.818655292e-05
0.0001018943488
0.0001177598368
7.673152728e-05
8.592893417e-05
9.705738128e-05
0.0001100060914
0.0001245652499
8.43341698e-05
9.281034423e-05
0.0001028370541
0.0001141768894
0.0001264809643
8.850017021e-05
9.565625612e-05
0.0001038799794
0.00011283328
0.0001220663508
8.744447157e-05
9.275240355e-05
9.858224243e-05
0.0001045315613
0.0001100969229
7.970733668e-05
8.279332797e-05
8.584207535e-05
8.842922857e-05
9.004723229e-05
6.363278136e-05
6.430754567e-05
6.441700386e-05
6.355486005e-05
6.12538595e-05
3.915607437e-05
3.752562682e-05
3.488958271e-05
3.089264493e-05
2.514045214e-05
6.425427664e-06
2.959908948e-06
-1.812034324e-06
-8.181376409e-06
-1.646150401e-05
-2.020588559e-05
-3.233487725e-07
-1.049437231e-08
-4.595891085e-10
-2.794752472e-11
-1.33482659e-12
2.434069746e-14
1.18908532e-14
-2.109438238e-15
-2.632855536e-15
-1.381208838e-15
-5.416877334e-16
-1.370082264e-16
2.641469578e-17
7.724793243e-17
8.154875974e-17
6.979941517e-17
5.481201825e-17
4.129336793e-17
3.048757349e-17
2.23284129e-17
1.634769117e-17
1.203038165e-17
8.93193841e-18
6.704459849e-18
5.088459834e-18
3.897252078e-18
3.001495255e-18
2.314715326e-18
1.780566101e-18
1.362434527e-18
1.035602161e-18
7.820213315e-19
5.873049587e-19
4.392542912e-19
3.273791581e-19
2.429201894e-19
1.789586921e-19
1.303564027e-19
9.346700697e-20
6.571437793e-20
4.518941141e-20
3.036527223e-20
1.995014867e-20
1.28394968e-20
8.115247815e-21
5.051141306e-21
3.10312352e-21
1.884307375e-21
1.131394631e-21
6.712660783e-22
3.929257995e-22
2.263486741e-22
1.278077904e-22
7.020592216e-23
3.689300161e-23
1.775597326e-23
7.038807062e-24
1.637548474e-24
1.33830015e-25
-4.626928148e-05
-4.210462976e-07
-2.539442954e-08
-7.531641479e-10
6.537777564e-11
1.796975791e-11
-6.379998197e-13
-2.265631177e-12
-1.305661522e-12
-5.814765393e-13
-2.240385253e-13
-7.47905437e-14
-1.888451026e-14
-5.652534148e-16
4.035497108e-15
4.219503504e-15
3.309446757e-15
2.355175868e-15
1.612329882e-15
1.088868946e-15
7.349120536e-16
4.994564942e-16
3.434073526e-16
2.394563196e-16
1.694185509e-16
1.214159199e-16
8.781324256e-17
6.377731251e-17
4.628398522e-17
3.342704825e-17
2.39691519e-17
1.705603929e-17
1.205549217e-17
8.479626164e-18
5.946507378e-18
4.160697657e-18
2.901196468e-18
2.009787948e-18
1.377509739e-18
9.305315456e-19
6.179011942e-19
4.029238421e-19
2.58139277e-19
1.627422032e-19
1.011884201e-19
6.220158425e-20
3.788320574e-20
2.289377371e-20
1.373571288e-20
8.177486419e-21
4.823809626e-21
2.813265097e-21
1.617205195e-21
9.121518359e-22
5.006388231e-22
2.627232699e-22
1.262275736e-22
5.01641445e-23
1.245649202e-23
1.262236286e-24
-0.0002254897606
-1.485707204e-06
2.479962585e-08
6.130809878e-09
8.419063322e-10
-1.362233731e-10
-1.886553865e-10
-1.139756079e-10
-5.513736364e-11
-2.394864215e-11
-9.323744343e-12
-3.215554401e-12
-8.943346226e-13
-1.235442702e-13
7.894580399e-14
1.000460681e-13
7.701308039e-14
5.153236756e-14
3.277626167e-14
2.057011137e-14
1.298354507e-14
8.325004331e-15
5.452357514e-15
3.654247428e-15
2.503459821e-15
1.746387817e-15
1.233291045e-15
8.758290378e-16
6.216692151e-16
4.390107066e-16
3.076069263e-16
2.137087757e-16
1.473353721e-16
1.009609427e-16
6.886220317e-17
4.67481345e-17
3.151007366e-17
2.099123356e-17
1.37459514e-17
8.808557684e-18
5.511273803e-18
3.36836365e-18
2.016754416e-18
1.188170061e-18
6.92271821e-19
4.007687238e-19
2.313851465e-19
1.335259975e-19
7.706237882e-20
4.443756458e-20
2.554726656e-20
1.459754197e-20
8.256716437e-21
4.596638209e-21
2.494174441e-21
1.293482444e-21
6.133268239e-22
2.395706777e-22
5.931946453e-23
6.222626339e-24
-0.0008036942038
-7.840872676e-05
-7.016201699e-07
-5.49462716e-09
-7.102699623e-09
-6.067315876e-09
-3.747765254e-09
-2.000710358e-09
-9.717679551e-10
-4.38932765e-10
-1.8309462e-10
-6.964888258e-11
-2.305507647e-11
-5.795605552e-12
-2.852657285e-13
9.860246616e-13
9.682253456e-13
6.872013778e-13
4.364833888e-13
2.660884466e-13
1.61081069e-13
9.872576301e-14
6.193218966e-14
3.995735404e-14
2.650703348e-14
1.799922224e-14
1.242461807e-14
8.652690153e-15
6.039088911e-15
4.20411658e-15
2.911712942e-15
2.005222407e-15
1.374530086e-15
9.393658008e-16
6.407094198e-16
4.356506822e-16
2.940559874e-16
1.956938189e-16
1.274396276e-16
8.071109689e-17
4.954443849e-17
2.94726918e-17
1.703993429e-17
9.623659789e-18
5.342390416e-18
2.933480211e-18
1.601934157e-18
8.734658094e-19
4.766125909e-19
2.604141017e-19
1.423497492e-19
7.766264904e-20
4.212016415e-20
2.256345299e-20
1.180328731e-20
5.898162445e-21
2.690278125e-21
1.006431303e-21
2.397614053e-22
2.491753262e-23
-0.000263496573
-0.0004347294062
-1.361554576e-05
-4.924176163e-07
-1.292272086e-07
-6.641258825e-08
-3.605185187e-08
-1.888448857e-08
-9.486429396e-09
-4.562244117e-09
-2.084806234e-09
-8.960748334e-10
-3.545001479e-10
-1.239692164e-10
-3.394753033e-11
-3.27196738e-12
4.697436226e-12
5.163889652e-12
3.821989936e-12
2.481044441e-12
1.527717941e-12
9.285434913e-13
5.695820377e-13
3.571488575e-13
2.298549628e-13
1.515363741e-13
1.017359794e-13
6.906688287e-14
4.71204229e-14
3.216622519e-14
2.192278771e-14
1.491538679e-14
1.014591674e-14
6.916586016e-15
4.732917976e-15
3.246619753e-15
2.220121967e-15
1.499802903e-15
9.910071195e-16
6.352308487e-16
3.931099335e-16
2.346497405e-16
1.354400954e-16
7.598341584e-17
4.169780998e-17
2.252374642e-17
1.203628978e-17
6.385107901e-18
3.369457517e-18
1.770249345e-18
9.258025125e-19
4.812791101e-19
2.478694745e-19
1.256453523e-19
6.189030675e-20
2.890896375e-20
1.221562381e-20
4.194464412e-21
9.179707107e-22
9.270213804e-23
0.0008461225889
-0.00111642304
-0.0001530097682
-6.62963816e-06
-1.045775466e-06
-4.202240006e-07
-2.113776589e-07
-1.101720949e-07
-5.73387535e-08
-2.938305537e-08
-1.4670467e-08
-7.064336045e-09
-3.240592292e-09
-1.392406645e-09
-5.427785194e-10
-1.785406083e-10
-3.739578798e-11
8.402997352e-12
1.765680449e-11
1.531793779e-11
1.080076639e-11
7.009048225e-12
4.404877385e-12
2.761399794e-12
1.752496851e-12
1.13261223e-12
7.435948669e-13
4.932418811e-13
3.286313041e-13
2.191214817e-13
1.460289108e-13
9.736305186e-14
6.512273145e-14
4.386414947e-14
2.985470621e-14
2.053375833e-14
1.418995129e-14
9.747066202e-15
6.572922025e-15
4.304068758e-15
2.716865119e-15
1.648828174e-15
9.637657739e-16
5.455026881e-16
3.012591128e-16
1.635237739e-16
8.768968135e-17
4.65730894e-17
2.451285202e-17
1.277804507e-17
6.588085878e-18
3.352018697e-18
1.676246063e-18
8.174094513e-19
3.828401051e-19
1.673324146e-19
6.469627219e-20
1.975759404e-20
3.74585864e-21
3.493308363e-22
0.00138380516
-0.0005741439217
-0.0007024906085
-5.518131121e-05
-5.346328866e-06
-1.612256196e-06
-7.536246772e-07
-3.939458406e-07
-2.121279377e-07
-1.146498352e-07
-6.140369247e-08
-3.230015925e-08
-1.654845837e-08
-8.17814007e-09
-3.846649077e-09
-1.684094996e-09
-6.558319126e-10
-2.004708104e-10
-2.044273563e-11
3.63730319e-11
4.40673993e-11
3.605181521e-11
2.565338964e-11
1.715406281e-11
1.118750142e-11
7.273499128e-12
4.756764234e-12
3.133303493e-12
2.07022224e-12
1.365904398e-12
8.974457365e-13
5.875006202e-13
3.845714499e-13
2.531737647e-13
1.687409735e-13
1.144184436e-13
7.876711803e-14
5.448270918e-14
3.733713953e-14
2.500025937e-14
1.617575681e-14
1.005490148e-14
5.99900791e-15
3.448733887e-15
1.926415625e-15
1.055753693e-15
5.717437015e-16
3.069621744e-16
1.63398507e-16
8.607694364e-17
4.474208317e-17
2.285888891e-17
1.141483186e-17
5.518952852e-18
2.539793901e-18
1.077496687e-18
3.963659376e-19
1.112945477e-19
1.825396541e-20
1.496751973e-21
0.003146261768
0.001505712222
-0.001485495692
-0.0003246817226
-2.976953913e-05
-5.483277771e-06
-2.042391965e-06
-1.012393689e-06
-5.476157875e-07
-3.045909723e-07
-1.703476731e-07
-9.470243737e-08
-5.193676025e-08
-2.79103151e-08
-1.458639257e-08
-7.337002288e-09
-3.493184508e-09
-1.52587364e-09
-5.672815321e-10
-1.339580388e-10
3.763102034e-11
8.734159421e-11
8.646989866e-11
6.920308216e-11
5.026450842e-11
3.475906544e-11
2.348096075e-11
1.572372101e-11
1.049742792e-11
6.989441566e-12
4.62747238e-12
3.039630983e-12
1.981805103e-12
1.28787333e-12
8.399978224e-13
5.548167914e-13
3.734967312e-13
2.553068695e-13
1.750863156e-13
1.187817595e-13
7.865558393e-14
5.028209013e-14
3.084239307e-14
1.814679274e-14
1.030903236e-14
5.717455908e-15
3.1263366e-15
1.694927509e-15
9.125742615e-16
4.872929886e-16
2.571646819e-16
1.334625913e-16
6.763631844e-17
3.311074222e-17
1.537518115e-17
6.553609844e-18
2.405703466e-18
6.63527642e-19
1.021451308e-19
7.740727258e-21
0.004448220459
0.001760432459
-0.0006004326456
-0.001028718533
-0.0001488411439
-1.907383133e-05
-5.063182743e-06
-2.187151842e-06
-1.146517326e-06
-6.428858083e-07
-3.691693699e-07
-2.131837674e-07
-1.226093012e-07
-6.977366067e-08
-3.906170397e-08
-2.137377724e-08
-1.133071339e-08
-5.740189802e-09
-2.711247343e-09
-1.130952501e-09
-3.512877967e-10
-3.657093821e-13
1.312973634e-10
1.587619581e-10
1.426484616e-10
1.131487857e-10
8.383000529e-11
5.965950469e-11
4.147083961e-11
2.843631294e-11
1.930712179e-11
1.298275274e-11
8.637040683e-12
5.687806376e-12
3.718722455e-12
2.427782586e-12
1.596387423e-12
1.064276839e-12
7.170484211e-13
4.834482177e-13
3.22689886e-13
2.11027381e-13
1.337182658e-13
8.137024986e-14
4.746253825e-14
2.680363589e-14
1.484014204e-14
8.119289016e-15
4.407592815e-15
2.37655178e-15
1.270592068e-15
6.705082692e-16
3.466116139e-16
1.734510176e-16
8.245942752e-17
3.604054532e-17
1.360301613e-17
3.872148025e-18
6.135432741e-19
4.836296646e-20
0.006671486164
0.00148884133
0.001273096872
-0.001698301763
-0.0005151304246
-6.441802227e-05
-1.234993276e-05
-4.389363984e-06
-2.146763263e-06
-1.189336914e-06
-6.915785867e-07
-4.098957247e-07
-2.442380948e-07
-1.451353518e-07
-8.551186597e-08
-4.969099099e-08
-2.83115616e-08
-1.569302927e-08
-8.363543115e-09
-4.199219361e-09
-1.903743699e-09
-6.949012206e-10
-1.006840166e-10
1.571605288e-10
2.400839006e-10
2.393928033e-10
2.04783174e-10
1.616129432e-10
1.214126681e-10
8.832373938e-11
6.284290634e-11
4.397857726e-11
3.035032064e-11
2.067647358e-11
1.391637503e-11
9.269122205e-12
6.127728312e-12
4.043763334e-12
2.676486233e-12
1.77625071e-12
1.174882369e-12
7.69555621e-13
4.962309542e-13
3.123111529e-13
1.895626648e-13
1.104719989e-13
6.240257425e-14
3.457550803e-14
1.893239123e-14
1.028133457e-14
5.543098696e-15
2.961321964e-15
1.558243177e-15
7.983386762e-16
3.907752295e-16
1.769857173e-16
6.982133156e-17
2.109746078e-17
3.649289211e-18
3.245835774e-19
0.01344086985
0.001889969882
0.001863005488
-0.0009296987999
-0.001206585197
-0.0002433220892
-3.553307431e-05
-9.172394522e-06
-3.885129947e-06
-2.05948011e-06
-1.19224557e-06
-7.167123846e-07
-4.379965186e-07
-2.690685338e-07
-1.649732712e-07
-1.004093818e-07
-6.036909842e-08
-3.564984263e-08
-2.055417929e-08
-1.145098816e-08
-6.057372667e-09
-2.942042275e-09
-1.207947767e-09
-2.957259627e-10
1.406678184e-10
3.12587502e-10
3.466281278e-10
3.16375237e-10
2.625401443e-10
2.059221586e-10
1.557501511e-10
1.149139046e-10
8.323436151e-11
5.937743584e-11
4.178343203e-11
2.902686481e-11
1.990928188e-11
1.34818183e-11
9.023982607e-12
5.985518607e-12
3.942297102e-12
2.573559784e-12
1.660288095e-12
1.056089914e-12
6.59446047e-13
4.002936981e-13
2.34564919e-13
1.330763429e-13
7.381456857e-14
4.039466881e-14
2.192254459e-14
1.181071467e-14
6.295776255e-15
3.290261262e-15
1.656999417e-15
7.800342944e-16
3.242849713e-16
1.055941565e-16
2.05648667e-17
2.132678648e-18
0.03516949372
0.004822952417
0.001758683498
0.0008702989
-0.001804669757
-0.0007111464581
-0.0001252575205
-2.286498554e-05
-7.308536771e-06
-3.450700918e-06
-1.931991837e-06
-1.160331489e-06
-7.197193381e-07
-4.529066691e-07
-2.861187715e-07
-1.805667233e-07
-1.133190706e-07
-7.035041047e-08
-4.297643932e-08
-2.56689831e-08
-1.484512053e-08
-8.186709757e-09
-4.186884626e-09
-1.863999988e-09
-5.804521214e-10
7.483766936e-11
3.638345868e-10
4.505692199e-10
4.35007062e-10
3.755831602e-10
3.043168359e-10
2.369727119e-10
1.798137461e-10
1.340665464e-10
9.867420058e-11
7.183257373e-11
5.170788062e-11
3.673206984e-11
2.568346642e-11
1.763455063e-11
1.188583481e-11
7.874842226e-12
5.131762402e-12
3.28916003e-12
2.074130566e-12
1.285762048e-12
7.798008392e-13
4.59791852e-13
2.62732001e-13
1.461952385e-13
7.997967604e-14
4.335752527e-14
2.332256324e-14
1.237380707e-14
6.382508104e-15
3.116188796e-15
1.368358636e-15
4.842136973e-16
1.079802504e-16
1.319369474e-17
0.04807123164
0.007249061803
0.001709741707
0.001877536587
-0.001253902527
-0.001367163563
-0.0004040070163
-7.173433201e-05
-1.604480501e-05
-5.86883525e-06
-2.951631691e-06
-1.710905471e-06
-1.05365358e-06
-6.709848541e-07
-4.306490773e-07
-2.804873613e-07
-1.824350656e-07
-1.178410399e-07
-7.521064827e-08
-4.718639752e-08
-2.891569793e-08
-1.715369577e-08
-9.713188221e-09
-5.116754241e-09
-2.368896237e-09
-8.018577678e-10
2.892902348e-11
4.162152847e-10
5.495258665e-10
5.48438313e-10
4.855217037e-10
4.022437638e-10
3.201006066e-10
2.484586827e-10
1.8991676e-10
1.437423947e-10
1.079413218e-10
8.033966248e-11
5.906878225e-11
4.272456519e-11
3.026954096e-11
2.094306167e-11
1.413474503e-11
9.301023586e-12
5.979922714e-12
3.765346623e-12
2.32409224e-12
1.406699744e-12
8.324785693e-13
4.793934153e-13
2.686649008e-13
1.474777219e-13
7.992668888e-14
4.283917805e-14
2.250765934e-14
1.134199404e-14
5.25076689e-15
2.029689822e-15
5.239445697e-16
7.569166322e-17
0.05945465888
0.009631248769
0.001881827016
0.001861746081
0.0003598904767
-0.001761717324
-0.000879146967
-0.000244144974
-4.763407103e-05
-1.178110157e-05
-4.463336456e-06
-2.256326402e-06
-1.320123651e-06
-8.308091527e-07
-5.343488317e-07
-3.535176713e-07
-2.34614944e-07
-1.553016619e-07
-1.019811683e-07
-6.610029252e-08
-4.206385782e-08
-2.610827408e-08
-1.565753971e-08
-8.934155919e-09
-4.710455196e-09
-2.141959663e-09
-6.519828434e-10
1.501924248e-10
5.274814616e-10
6.550608145e-10
6.471604827e-10
5.753823558e-10
4.82046672e-10
3.89802779e-10
3.087662331e-10
2.41803747e-10
1.88137396e-10
1.45603768e-10
1.118732071e-10
8.499054572e-11
6.351775443e-11
4.643913548e-11
3.306082252e-11
2.2841935e-11
1.529696037e-11
9.943940361e-12
6.289652085e-12
3.881761514e-12
2.345799201e-12
1.388984147e-12
8.042770607e-13
4.545064683e-13
2.513256069e-13
1.366135441e-13
7.292520419e-14
3.772990611e-14
1.830790088e-14
7.7148822e-15
2.316734149e-15
3.98013521e-16
0.07271536851
0.01387637636
0.002547097073
0.001516662591
0.001699424825
-0.001300882433
-0.001387471077
-0.0005783699222
-0.0001672173654
-3.505264943e-05
-8.487735454e-06
-2.98919914e-06
-1.430104727e-06
-8.233521461e-07
-5.138928566e-07
-3.341820638e-07
-2.215400725e-07
-1.478794704e-07
-9.856451334e-08
-6.517399386e-08
-4.249876113e-08
-2.714894778e-08
-1.684333534e-08
-1.001471385e-08
-5.573431638e-09
-2.758933578e-09
-1.0401477e-09