/*--------------------------------*- C++ -*----------------------------------*\
  =========                 |
  \\      /  F ield         | OpenFOAM: The Open Source CFD Toolbox
   \\    /   O peration     | Website:  https://openfoam.org
    \\  /    A nd           | Version:  10
     \\/     M anipulation  |
\*---------------------------------------------------------------------------*/
FoamFile
{
    format      ascii;
    class       volScalarField;
    location    "3000";
    object      RR.NNH;
}
// * * * * * * * * * * * * * * * * * * * * * * * * * * * * * * * * * * * * * //

dimensions      [1 -3 -1 0 0 0 0];

internalField   nonuniform List<scalar> 
5170
(
1.856503042e-65
-2.423561907e-65
-1.852570989e-65
-2.410538896e-65
-7.700789349e-67
-2.744795641e-65
-2.856107008e-65
-1.154082861e-64
-2.661228101e-65
-1.079302932e-66
4.21334994e-64
-5.55468538e-65
-1.653614239e-64
-1.057592193e-65
8.122330699e-64
-4.857828655e-62
-1.729845927e-62
-1.968920129e-63
-7.752350517e-65
-3.128227151e-66
-3.356266876e-59
-1.181612077e-59
-1.091436486e-60
-3.31439803e-62
1.332159818e-62
-2.332831848e-56
-7.913622732e-57
-6.319528019e-58
-1.665592301e-59
-8.694142211e-61
-1.641579076e-53
-5.395569686e-54
-3.833511053e-55
-8.913808833e-57
-9.790473776e-58
-1.169142485e-50
-3.814638623e-51
-2.516498082e-52
-5.530994595e-54
-2.192100309e-54
-8.510367749e-48
-2.862213767e-48
-1.815692908e-49
-4.171957132e-51
-6.450803251e-51
-6.357746773e-45
-2.295132113e-45
-1.473768244e-46
-4.864836249e-48
-2.042726991e-47
-4.903627581e-42
-1.98580111e-42
-1.439469938e-43
-1.28654741e-44
-6.652124033e-44
-3.893176885e-39
-1.84719486e-39
-1.81513425e-40
-5.924685466e-41
-2.210333414e-40
-3.182614381e-36
-1.860285889e-36
-3.073193608e-37
-3.181803113e-37
-8.826935129e-37
-2.67926555e-33
-2.010339693e-33
-6.599296435e-34
-1.7225636e-33
-5.039704195e-33
-2.305278416e-30
-2.348814764e-30
-1.658601803e-30
-8.965741105e-30
-3.022402832e-29
-2.024694815e-27
-2.908230793e-27
-4.492271539e-27
-4.306629454e-26
-1.82327242e-25
-1.767057665e-24
-3.815399903e-24
-1.240300219e-23
-1.852835989e-22
-1.102086482e-21
-1.53274684e-21
-5.136525782e-21
-3.343871459e-20
-7.38208268e-19
-6.673969885e-18
-1.215060626e-18
-6.708357558e-18
-8.338177479e-17
-2.562376986e-15
-4.050113351e-14
-8.288535826e-16
-8.249447262e-15
-1.972573054e-13
-8.506274183e-12
-2.391219687e-10
8.539258255e-08
3.410254092e-08
2.399599088e-08
3.896892514e-08
8.492508068e-08
-2.491344572e-09
7.11045545e-09
6.45778155e-09
6.260353442e-09
-6.150952891e-09
-1.133115532e-08
-3.349246653e-09
-1.978060646e-09
-5.792752425e-09
-1.184337321e-08
-9.463605481e-09
-6.800909003e-09
-5.635560379e-09
-7.329024815e-09
-8.81657418e-09
-7.128614042e-09
-6.690713211e-09
-6.182957564e-09
-6.762413365e-09
-6.319634365e-09
-5.326006369e-09
-5.831765521e-09
-5.687486774e-09
-5.809766555e-09
-4.610054929e-09
-4.042140976e-09
-4.877196309e-09
-4.92949221e-09
-4.860225576e-09
-3.441261374e-09
-3.107087063e-09
-4.018569424e-09
-4.162908734e-09
-4.007252201e-09
-2.56613599e-09
-2.407650755e-09
-3.264626687e-09
-3.445623188e-09
-3.192655771e-09
-1.894528662e-09
-1.878820835e-09
-2.625225411e-09
-2.794028022e-09
-2.453807506e-09
-1.398865022e-09
-1.472322892e-09
-2.089716041e-09
-2.225878952e-09
-1.854706994e-09
-1.046952308e-09
-1.160512366e-09
-1.653205706e-09
-1.750647732e-09
-1.400344442e-09
-7.998785402e-10
-9.215601e-10
-1.303792035e-09
-1.369402565e-09
-1.068715345e-09
-6.279280552e-10
-7.416581587e-10
-1.033442939e-09
-1.073924347e-09
-8.309638792e-10
-5.082815026e-10
-6.062788967e-10
-8.258433081e-10
-8.502540108e-10
-6.618027449e-10
-4.249970653e-10
-5.066043989e-10
-6.703491185e-10
-6.840520839e-10
-5.40935751e-10
-3.663980015e-10
-4.341398346e-10
-5.5459021e-10
-5.626861533e-10
-4.557780869e-10
-3.264574997e-10
-3.85881817e-10
-4.705576311e-10
-4.754031886e-10
-3.961956628e-10
-3.002466259e-10
-4.690528394e-10
-4.51072615e-10
-4.238462741e-10
-3.572425204e-10
-2.843548467e-10
8.985885918e-08
-1.105441367e-08
-2.706990721e-09
-7.436009579e-10
-4.068577865e-10
-1.517247049e-13
-2.476878055e-12
-1.417584813e-10
-1.313933438e-08
-6.419065612e-07
-3.004643964e-13
-3.72055635e-12
-1.470983972e-10
-7.633921043e-09
-1.647655512e-07
-3.641948727e-13
-3.688231131e-12
-1.12036153e-10
-3.923358559e-09
-5.721294228e-08
-3.784276431e-13
-3.479135216e-12
-9.525151253e-11
-2.595614812e-09
-3.048284801e-08
-3.75429968e-13
-3.406632466e-12
-8.808272288e-11
-1.86353919e-09
-1.826935825e-08
-4.047909567e-13
-3.966428284e-12
-9.965289461e-11
-1.812409154e-09
-1.634833514e-08
-7.010983178e-13
-8.776092837e-12
-2.199705252e-10
-3.331223055e-09
-2.587730409e-08
-1.792853766e-12
-2.504687903e-11
-5.068196832e-10
-5.530056361e-09
-3.398332771e-08
-4.460359055e-12
-5.849831594e-11
-8.546615958e-10
-6.65126576e-09
-3.310165446e-08
-1.036349194e-11
-1.184825464e-10
-1.257478989e-09
-7.549963182e-09
-3.270845473e-08
-2.641013295e-11
-2.356473044e-10
-1.840298888e-09
-9.305397355e-09
-3.711523045e-08
-6.2353678e-11
-4.169211147e-10
-2.570245525e-09
-1.147507861e-08
-4.227485235e-08
-1.294056113e-10
-6.524887985e-10
-3.287722505e-09
-1.293685529e-08
-4.308511494e-08
-2.428872093e-10
-9.51906908e-10
-4.025518912e-09
-1.413313836e-08
-4.313727866e-08
-4.591782649e-10
-1.407433846e-09
-5.108977471e-09
-1.635825e-08
-4.691660539e-08
-8.864819256e-10
-2.196705147e-09
-6.916402051e-09
-2.03864477e-08
-5.534965726e-08
-1.716514005e-09
-3.530154086e-09
-9.606332256e-09
-2.585321622e-08
-6.570664715e-08
-2.99370562e-09
-5.338434867e-09
-1.265608763e-08
-3.083224319e-08
-7.252449145e-08
-4.688668733e-09
-7.460105984e-09
-1.561565688e-08
-3.456908164e-08
-7.552479439e-08
-6.640404801e-09
-9.762757303e-09
-1.853070986e-08
-3.793700121e-08
-7.81519208e-08
-9.023988613e-09
-1.252325153e-08
-2.209484984e-08
-4.259995732e-08
-8.396285088e-08
-1.227693395e-08
-1.55597904e-08
-2.715330372e-08
-4.983240861e-08
-9.164587429e-08
-1.653220618e-08
-2.133443788e-08
-3.396084192e-08
-5.757911938e-08
-1.047972647e-07
-2.21929945e-08
-2.788912995e-08
-4.104100596e-08
-6.85165127e-08
-1.195816483e-07
-2.923265506e-08
-3.581314224e-08
-5.01446424e-08
-8.056469169e-08
-1.35036587e-07
-3.750961676e-08
-4.491717485e-08
-6.337438415e-08
-9.373923089e-08
-1.515999759e-07
-4.833732615e-08
-5.687824278e-08
-7.439753488e-08
-1.106617213e-07
-1.722095553e-07
-6.235684523e-08
-7.221602945e-08
-9.620778255e-08
-1.319391224e-07
-1.999002007e-07
-7.561223065e-08
-8.618917869e-08
-1.210998397e-07
-1.709106765e-07
-2.382854611e-07
-1.009271583e-07
-1.143238122e-07
-1.454297957e-07
-2.001770717e-07
-2.889538936e-07
-1.352939345e-07
-1.508439299e-07
-1.880349328e-07
-2.519611164e-07
-3.520875449e-07
-1.803656769e-07
-1.993188752e-07
-2.433636453e-07
-3.169943657e-07
-4.30378412e-07
-2.365406231e-07
-2.577239993e-07
-3.077423368e-07
-3.895519271e-07
-5.087062858e-07
-2.920921071e-07
-3.14217229e-07
-3.626779657e-07
-4.400332524e-07
-5.495998341e-07
-2.877265549e-07
-3.085524635e-07
-3.51723443e-07
-4.187039153e-07
-5.152472956e-07
-2.390289364e-07
-2.596333208e-07
-3.062435386e-07
-3.862399053e-07
-5.060002976e-07
-3.011843992e-07
-3.311895854e-07
-3.998110884e-07
-5.137654961e-07
-6.843878076e-07
-5.512821878e-07
-5.933843564e-07
-6.892040144e-07
-8.447571082e-07
-1.071722437e-06
-9.723647409e-07
-1.028472739e-06
-1.15439157e-06
-1.351610236e-06
-1.620333313e-06
-1.561487356e-06
-1.618593893e-06
-1.734625648e-06
-1.876742465e-06
-1.966278412e-06
-1.517573089e-06
-1.437347705e-06
-1.216214201e-06
-7.727721681e-07
-3.400335427e-08
7.083037649e-07
8.240353316e-07
1.060042308e-06
1.373392444e-06
1.71500659e-06
1.099828353e-06
1.135854928e-06
1.206710432e-06
1.294871541e-06
1.379984161e-06
5.663448848e-07
5.75444605e-07
5.913350429e-07
6.063098988e-07
6.111415867e-07
-5.608174002e-09
-5.566465611e-09
-2.436892953e-09
-9.020219334e-09
-2.544805616e-08
-3.920452806e-07
-3.943978647e-07
-4.002929103e-07
-4.113006682e-07
-4.279205768e-07
-5.902669027e-07
-5.921793307e-07
-5.966363916e-07
-6.039089763e-07
-6.143377936e-07
-6.383335435e-07
-6.39213974e-07
-6.411966584e-07
-6.442651271e-07
-6.48389519e-07
-5.897640165e-07
-5.897630891e-07
-5.897468405e-07
-5.896359798e-07
-5.893153979e-07
-4.929858666e-07
-4.924682062e-07
-4.91271819e-07
-4.894768407e-07
-4.868855997e-07
-3.830233826e-07
-3.822353841e-07
-3.81070901e-07
-3.784776029e-07
-3.770111665e-07
-2.814821148e-07
-2.808258297e-07
-2.793767203e-07
-2.771650779e-07
-2.741389204e-07
-1.974921921e-07
-1.969662117e-07
-1.958098093e-07
-1.9405442e-07
-1.917068275e-07
-1.340262453e-07
-1.336427096e-07
-1.32800724e-07
-1.315266599e-07
-1.298301112e-07
-8.862474663e-08
-8.836195435e-08
-8.778617449e-08
-8.69167814e-08
-8.576229978e-08
-5.747302988e-08
-5.730110185e-08
-5.692459053e-08
-5.635682411e-08
-5.560419658e-08
-3.676401118e-08
-3.665493749e-08
-3.641633988e-08
-3.60568802e-08
-3.558093425e-08
-2.331303894e-08
-2.324542085e-08
-2.309751989e-08
-2.287481723e-08
-2.258014732e-08
-1.471884451e-08
-1.467749451e-08
-1.458711097e-08
-1.445106746e-08
-1.427113449e-08
-9.285630228e-09
-9.260583361e-09
-9.205828614e-09
-9.123424184e-09
-9.014451694e-09
-5.871525551e-09
-5.856405726e-09
-5.823365878e-09
-5.773645648e-09
-5.707895314e-09
-3.730225464e-09
-3.721111406e-09
-3.701190262e-09
-3.671209409e-09
-3.631556695e-09
-2.386164361e-09
-2.380655955e-09
-2.368618964e-09
-2.3505018e-09
-2.326534681e-09
-1.538948984e-09
-1.535610347e-09
-1.528312324e-09
-1.51732546e-09
-1.502786343e-09
-1.002422229e-09
-1.000386047e-09
-9.959359545e-10
-9.892354393e-10
-9.803655694e-10
-6.593672729e-10
-6.581201045e-10
-6.553934943e-10
-6.512869444e-10
-6.458489712e-10
-4.391377264e-10
-4.383667059e-10
-4.366814826e-10
-4.341430203e-10
-4.307802689e-10
-2.948142889e-10
-2.943370936e-10
-2.932937389e-10
-2.917216435e-10
-2.896382818e-10
-2.016435411e-10
-2.013427286e-10
-2.006853196e-10
-1.996947538e-10
-1.983816924e-10
-1.395245086e-10
-1.393349534e-10
-1.3892076e-10
-1.382966591e-10
-1.3746942e-10
-2.360218247e-06
-9.355980765e-07
-3.125316724e-07
-1.565381965e-07
-8.524994796e-08
-7.494270987e-08
-1.10564724e-07
-1.229713257e-07
-1.027834601e-07
-9.35045845e-08
-1.015592451e-07
-1.090805944e-07
-1.022931082e-07
-9.607322281e-08
-1.004515771e-07
-1.14285026e-07
-1.293136988e-07
-1.34699048e-07
-1.331298194e-07
-1.325599721e-07
-1.346979309e-07
-1.470468572e-07
-1.6340725e-07
-1.811275288e-07
-1.985913502e-07
-2.171159857e-07
-2.409532876e-07
-2.741633133e-07
-3.186240021e-07
-3.793089994e-07
-4.550297447e-07
-5.425493101e-07
-6.224778943e-07
-6.516061871e-07
-6.105694244e-07
-6.252215218e-07
-8.472364465e-07
-1.280338882e-06
-1.844590611e-06
-1.914912948e-06
6.288358707e-07
1.950549281e-06
1.4342261e-06
6.090754286e-07
-4.117574353e-08
-4.420034153e-07
-6.227987416e-07
-6.515441873e-07
-5.889007128e-07
-4.846941305e-07
-3.726466025e-07
-2.717240268e-07
-1.897975524e-07
-1.284546725e-07
-8.482793895e-08
-5.499557541e-08
-3.519617357e-08
-2.234191865e-08
-1.412562976e-08
-8.926295917e-09
-5.654680139e-09
-3.599446679e-09
-2.307116722e-09
-1.490999109e-09
-9.73171045e-10
-6.414352877e-10
-4.280498204e-10
-2.879456494e-10
-1.973145832e-10
-1.367974155e-10
-5.325275697e-06
7.764023313e-06
-2.613392873e-07
-4.172149718e-08
-5.306423558e-09
-1.60536671e-06
-4.296063072e-06
3.000042796e-06
-3.175693313e-07
-2.997317894e-08
-7.641941845e-07
-4.73663417e-06
8.456168059e-06
-1.062219801e-06
-2.00847172e-07
-4.436264686e-07
-2.851336817e-06
-1.825372028e-06
2.073635983e-06
-7.833344478e-07
-2.379081644e-07
-1.417606788e-06
-4.053681572e-06
6.179301293e-06
-1.637730911e-06
-2.177508033e-07
-1.413928034e-06
-7.011338884e-06
1.167382556e-05
-2.399941386e-06
-3.075527155e-07
-1.942096605e-06
-9.991995227e-06
1.49210788e-05
-1.221903367e-06
-3.175640874e-07
-1.689855784e-06
-7.495026826e-06
2.754752644e-06
5.239072033e-06
-2.432836944e-07
-1.1039551e-06
-4.228235212e-06
-7.432258952e-06
1.31679126e-05
-2.143763352e-07
-9.338522799e-07
-3.592835619e-06
-1.033020635e-05
1.888622614e-05
-2.296518693e-07
-9.844419103e-07
-3.794708363e-06
-1.240693003e-05
2.019138985e-05
-2.387189857e-07
-9.564246067e-07
-3.43774942e-06
-1.082146551e-05
1.051485929e-05
-2.124096809e-07
-7.598393844e-07
-2.428664451e-06
-6.785753485e-06
-6.1251433e-06
-1.925676235e-07
-6.45236663e-07
-1.974322471e-06
-5.472924998e-06
-1.001175217e-05
-1.929746165e-07
-6.374679892e-07
-1.932926121e-06
-5.44558137e-06
-1.236743617e-05
-2.153287083e-07
-6.886165439e-07
-2.034012734e-06
-5.619121168e-06
-1.341294579e-05
-2.372824413e-07
-7.156775526e-07
-1.99835364e-06
-5.219644262e-06
-1.204339186e-05
-2.38259747e-07
-6.657829188e-07
-1.729271929e-06
-4.198983286e-06
-9.018758057e-06
-2.273024788e-07
-5.978556627e-07
-1.476072937e-06
-3.438401487e-06
-7.18833859e-06
-2.208534801e-07
-5.594312716e-07
-1.347068158e-06
-3.091242851e-06
-6.467776836e-06
-2.262062765e-07
-5.585360971e-07
-1.322863217e-06
-3.000577445e-06
-6.262976624e-06
-2.42457319e-07
-5.818927733e-07
-1.346958317e-06
-2.992786927e-06
-6.162599788e-06
-2.638824663e-07
-6.116049622e-07
-1.373511029e-06
-2.967082655e-06
-5.968157409e-06
-2.858350622e-07
-6.366186846e-07
-1.379601729e-06
-2.878257722e-06
-5.596916668e-06
-3.058669246e-07
-6.530713928e-07
-1.362295097e-06
-2.738104762e-06
-5.125276712e-06
-3.26802972e-07
-6.703510878e-07
-1.349112343e-06
-2.616550802e-06
-4.717085994e-06
-3.550119693e-07
-7.025128903e-07
-1.36777053e-06
-2.561859819e-06
-4.446257278e-06
-3.963905223e-07
-7.574115481e-07
-1.425035646e-06
-2.568878042e-06
-4.275405866e-06
-4.52665031e-07
-8.358045143e-07
-1.513773702e-06
-2.609365506e-06
-4.15172472e-06
-5.322520259e-07
-9.345059775e-07
-1.616634083e-06
-2.645016425e-06
-4.030558809e-06
-6.160867507e-07
-1.042011429e-06
-1.703988909e-06
-2.637086883e-06
-3.891121829e-06
-7.112498589e-07
-1.132062865e-06
-1.736946882e-06
-2.568691246e-06
-3.745198646e-06
-7.83319686e-07
-1.163860195e-06
-1.695730879e-06
-2.4799861e-06
-3.635272617e-06
-7.885209912e-07
-1.124538893e-06
-1.646252091e-06
-2.489929441e-06
-3.616070396e-06
-7.457836739e-07
-1.118086204e-06
-1.746124934e-06
-2.714334761e-06
-3.572216187e-06
-8.109930725e-07
-1.302715476e-06
-2.073234464e-06
-3.03061614e-06
-2.5938314e-06
-1.102084041e-06
-1.718245647e-06
-2.533460383e-06
-2.874945399e-06
8.440945904e-07
-1.592605005e-06
-2.24425054e-06
-2.620080494e-06
-4.991088276e-07
4.399541118e-06
-2.115163148e-06
-2.238154413e-06
-4.508678247e-07
3.328672008e-06
5.097082347e-06
-1.503169406e-06
4.427531433e-07
2.955417554e-06
4.194654811e-06
4.247932241e-06
1.510385103e-06
2.712267239e-06
3.333177744e-06
3.348737635e-06
2.865775338e-06
2.167241547e-06
2.400840426e-06
2.362795611e-06
2.049814243e-06
1.524725212e-06
1.442395903e-06
1.394164513e-06
1.206086839e-06
8.878895392e-07
4.806062092e-07
5.676620972e-07
4.655090267e-07
2.911786471e-07
5.643974688e-08
-2.11241084e-07
-8.762788561e-08
-1.744515823e-07
-2.959993609e-07
-4.420191729e-07
-5.956549814e-07
-4.74010563e-07
-5.274929663e-07
-6.002793998e-07
-6.755068269e-07
-7.472722406e-07
-6.383424444e-07
-6.665278868e-07
-6.986888475e-07
-7.296081346e-07
-7.544251068e-07
-6.569322656e-07
-6.655131298e-07
-6.730454038e-07
-6.768944017e-07
-6.745398461e-07
-5.88109379e-07
-5.85395489e-07
-5.799046449e-07
-5.705898334e-07
-5.567090734e-07
-4.810773504e-07
-4.73375339e-07
-4.63024896e-07
-4.493736036e-07
-4.319966792e-07
-3.682683673e-07
-3.597718052e-07
-3.487913659e-07
-3.354947321e-07
-3.198127414e-07
-2.679206968e-07
-2.603660247e-07
-2.510340099e-07
-2.400558628e-07
-2.274809876e-07
-1.868044114e-07
-1.809972935e-07
-1.739919729e-07
-1.658636097e-07
-1.567242006e-07
-1.263151931e-07
-1.221888671e-07
-1.172631976e-07
-1.11611788e-07
-1.053287247e-07
-8.338288014e-08
-8.060491518e-08
-7.731060558e-08
-7.355723442e-08
-6.941354443e-08
-5.405840444e-08
-5.225963148e-08
-5.013523295e-08
-4.772515506e-08
-4.50757397e-08
-3.460571785e-08
-3.347303259e-08
-3.213857446e-08
-3.062846491e-08
-2.897230766e-08
-2.19772981e-08
-2.127775357e-08
-2.045468251e-08
-1.952444488e-08
-1.850530354e-08
-1.390338492e-08
-1.347677338e-08
-1.297509966e-08
-1.24083235e-08
-1.178745251e-08
-8.791857548e-09
-8.533592194e-09
-8.229881719e-09
-7.886672029e-09
-7.510486761e-09
-5.573621009e-09
-5.417752893e-09
-5.234380228e-09
-5.027018427e-09
-4.799509591e-09
-3.550576887e-09
-3.456506202e-09
-3.345757556e-09
-3.22039554e-09
-3.082669809e-09
-2.277580103e-09
-2.220662267e-09
-2.153592468e-09
-2.077580647e-09
-1.993943144e-09
-1.473076551e-09
-1.438500252e-09
-1.39771197e-09
-1.351420682e-09
-1.300398144e-09
-9.622326679e-10
-9.411084631e-10
-9.161594873e-10
-8.878025013e-10
-8.564905804e-10
-6.347248709e-10
-6.217489888e-10
-6.064041005e-10
-5.889341963e-10
-5.696061324e-10
-4.238973148e-10
-4.158610868e-10
-4.063442652e-10
-3.954912899e-10
-3.834591832e-10
-2.853703752e-10
-2.803797445e-10
-2.744602038e-10
-2.676960581e-10
-2.601792111e-10
-1.956898119e-10
-1.925391368e-10
-1.887966884e-10
-1.845126056e-10
-1.797409941e-10
-1.357733654e-10
-1.337873735e-10
-1.314257895e-10
-1.287178249e-10
-1.256932452e-10
-2.734254664e-10
-4.481978822e-12
-1.653456447e-13
-1.206124068e-14
-1.911487438e-15
-3.831620304e-16
-7.575601311e-17
-1.4324908e-17
-2.623507932e-18
-4.74830354e-19
-8.645858407e-20
-1.638016531e-20
-3.566059477e-21
-1.134189338e-21
-6.171962423e-22
-4.631711032e-22
-3.811710539e-22
-3.155182986e-22
-2.561717478e-22
-2.023029455e-22
-1.548397736e-22
-1.14660086e-22
-8.207498919e-23
-5.676616335e-23
-3.793120263e-23
-2.44996025e-23
-1.530958055e-23
-9.264503618e-24
-5.435609646e-24
-3.096322495e-24
-1.715251104e-24
-9.258894266e-25
-4.882605757e-25
-2.524015511e-25
-1.284834198e-25
-6.476199038e-26
-3.250758688e-26
-1.631542447e-26
-8.189732633e-27
-4.092332513e-27
-2.017934719e-27
-9.716701138e-28
-4.524061613e-28
-2.021188034e-28
-8.62159207e-29
-3.502771995e-29
-1.355029452e-29
-4.997553812e-30
-1.761607399e-30
-5.954404018e-31
-1.937259927e-31
-6.091772122e-32
-1.859575689e-32
-5.536532391e-33
-1.6151168e-33
-4.623451911e-34
-1.278333248e-34
-3.215764596e-35
-6.297300366e-36
-8.913128947e-37
-8.930812521e-10
-1.516075641e-11
-4.858219645e-13
-3.235962658e-14
-4.213195136e-15
-7.125694563e-16
-1.249438663e-16
-2.126373441e-17
-3.546792184e-18
-6.015205162e-19
-1.106244645e-19
-2.627143883e-20
-1.023561802e-20
-6.266860236e-21
-4.680340088e-21
-3.693302029e-21
-2.935843996e-21
-2.314034773e-21
-1.796189354e-21
-1.366529789e-21
-1.015353546e-21
-7.34758498e-22
-5.16929306e-22
-3.530891984e-22
-2.340298284e-22
-1.504959246e-22
-9.39222007e-23
-5.692008631e-23
-3.352441518e-23
-1.920810304e-23
-1.072043184e-23
-5.838996456e-24
-3.111387226e-24
-1.627833669e-24
-8.402842083e-25
-4.304861309e-25
-2.201189959e-25
-1.126900117e-25
-5.767369537e-26
-2.931014101e-26
-1.464085985e-26
-7.109681147e-27
-3.324667729e-27
-1.48694041e-27
-6.335271538e-28
-2.567774766e-28
-9.907080367e-29
-3.646411076e-29
-1.284368213e-29
-4.345651344e-30
-1.418201061e-30
-4.483319499e-31
-1.378880539e-31
-4.143386964e-32
-1.220428921e-32
-3.52085089e-33
-9.796520741e-34
-2.498850741e-34
-5.247798583e-35
-6.404753472e-36
-4.449677519e-09
-4.440640127e-11
-6.496309552e-13
-3.837193582e-14
-4.417012814e-15
-7.108203923e-16
-1.218165754e-16
-2.045937572e-17
-3.49482201e-18
-6.820998691e-19
-1.872026582e-19
-8.227837559e-20
-5.013590552e-20
-3.556812481e-20
-2.672843547e-20
-2.03967025e-20
-1.55080363e-20
-1.164999482e-20
-8.615438131e-21
-6.257433963e-21
-4.458839983e-21
-3.112739027e-21
-2.126760417e-21
-1.421593967e-21
-9.280716787e-22
-5.912571576e-22
-3.674815713e-22
-2.228366881e-22
-1.318919826e-22
-7.628015215e-23
-4.313646205e-23
-2.388217822e-23
-1.297514148e-23
-6.942520998e-24
-3.676899089e-24
-1.938984102e-24
-1.023132206e-24
-5.408355824e-25
-2.851355176e-25
-1.485152969e-25
-7.552606788e-26
-3.70846711e-26
-1.743111746e-26
-7.800413006e-27
-3.315374688e-27
-1.338462659e-27
-5.143800438e-28
-1.888333266e-28
-6.650184159e-29
-2.256855232e-29
-7.412871333e-30
-2.366309963e-30
-7.369583849e-31
-2.246495715e-31
-6.709731161e-32
-1.953375068e-32
-5.435906418e-33
-1.365346929e-33
-2.716638469e-34
-2.744529672e-35
-3.353911738e-08
-4.499849835e-10
-3.298889043e-12
-6.734586367e-14
-5.074491893e-15
-7.255758842e-16
-1.345314298e-16
-2.913692463e-17
-7.786339356e-18
-2.664412147e-18
-1.136452121e-18
-5.775386276e-19
-3.353044675e-19
-2.150197019e-19
-1.469794974e-19
-1.040012954e-19
-7.502367029e-20
-5.424265849e-20
-3.8703157e-20
-2.706542233e-20
-1.851385874e-20
-1.239115586e-20
-8.125037616e-21
-5.225850379e-21
-3.301573691e-21
-2.051337209e-21
-1.253565638e-21
-7.531779507e-22
-4.448259113e-22
-2.582010023e-22
-1.474336611e-22
-8.294398921e-23
-4.608907076e-23
-2.538368154e-23
-1.39214187e-23
-7.639618022e-24
-4.205290118e-24
-2.316256468e-24
-1.266197602e-24
-6.788363555e-25
-3.525045382e-25
-1.754313323e-25
-8.305755071e-26
-3.724976816e-26
-1.580646348e-26
-6.357803031e-27
-2.433665784e-27
-8.912863193e-28
-3.141164835e-28
-1.071263827e-28
-3.552665376e-29
-1.150204483e-29
-3.645182698e-30
-1.132137758e-30
-3.437534283e-31
-1.009600609e-31
-2.788448853e-32
-6.777829454e-33
-1.214560676e-33
-1.00318354e-34
-1.403812068e-07
-2.723967792e-09
-2.627747143e-11
-3.006759897e-13
-1.632447271e-14
-3.055885098e-15
-9.041141745e-16
-2.952937672e-16
-1.023446165e-16
-3.781845481e-17
-1.507509862e-17
-6.580725524e-18
-3.176641229e-18
-1.703874206e-18
-1.005639897e-18
-6.392261683e-19
-4.240658311e-19
-2.863091953e-19
-1.938948902e-19
-1.310494349e-19
-8.702160138e-20
-5.65007562e-20
-3.578930137e-20
-2.213706749e-20
-1.34106385e-20
-7.990381149e-21
-4.701614369e-21
-2.739116972e-21
-1.581674102e-21
-9.056596155e-22
-5.146283912e-22
-2.906047568e-22
-1.634209201e-22
-9.182707668e-23
-5.177743716e-23
-2.939575759e-23
-1.679206727e-23
-9.585638928e-24
-5.402915215e-24
-2.965522721e-24
-1.565575138e-24
-7.877181354e-25
-3.75524238e-25
-1.691432869e-25
-7.199111004e-26
-2.903307746e-26
-1.114607291e-26
-4.097721347e-27
-1.452074814e-27
-4.991343281e-28
-1.67355887e-28
-5.4969479e-29
-1.772702077e-29
-5.608366112e-30
-1.730101224e-30
-5.116504204e-31
-1.39882288e-31
-3.275351848e-32
-5.224084905e-33
-3.631746757e-34
-4.993341238e-07
-1.844717359e-08
-3.040864903e-10
-3.529990291e-12
-1.783088265e-13
-3.479408741e-14
-1.036758932e-14
-3.438924871e-15
-1.222403609e-15
-4.609757795e-16
-1.833267482e-16
-7.704038928e-17
-3.449827557e-17
-1.668062869e-17
-8.806373359e-18
-5.045068406e-18
-3.073429885e-18
-1.942598451e-18
-1.247068348e-18
-8.024607288e-19
-5.127234913e-19
-3.235211408e-19
-1.99807891e-19
-1.203686687e-19
-7.072182475e-20
-4.067577991e-20
-2.299667219e-20
-1.282786054e-20
-7.085707633e-21
-3.893528784e-21
-2.137640846e-21
-1.176683702e-21
-6.515218406e-22
-3.642364131e-22
-2.064339558e-22
-1.18890221e-22
-6.926584456e-23
-4.035963849e-23
-2.315891476e-23
-1.288240581e-23
-6.856706427e-24
-3.461959819e-24
-1.650679581e-24
-7.424517174e-25
-3.158040253e-25
-1.276317228e-25
-4.930218349e-26
-1.831060588e-26
-6.574356501e-27
-2.293626812e-27
-7.809800825e-28
-2.605006945e-28
-8.529354592e-29
-2.737353059e-29
-8.543879946e-30
-2.540492083e-30
-6.890995312e-31
-1.560133501e-31
-2.232835779e-32
-1.353313095e-33
-1.435511065e-06
-1.024880714e-07
-2.8363767e-09
-4.619932305e-11
-1.016943094e-12
-1.355232512e-13
-3.8583022e-14
-1.366716473e-14
-5.353343007e-15
-2.240748085e-15
-9.82264264e-16
-4.476043993e-16
-2.126620399e-16
-1.063427132e-16
-5.648349744e-17
-3.204208208e-17
-1.927086137e-17
-1.210520391e-17
-7.817017403e-18
-5.086162745e-18
-3.306683276e-18
-2.111710764e-18
-1.307555378e-18
-7.845055323e-19
-4.572119192e-19
-2.603862849e-19
-1.450465701e-19
-7.894245449e-20
-4.209136454e-20
-2.212730958e-20
-1.156026115e-20
-6.041879359e-21
-3.181165348e-21
-1.700982846e-21
-9.302852137e-22
-5.223803015e-22
-3.001484421e-22
-1.738320219e-22
-9.956933747e-23
-5.537000019e-23
-2.944452735e-23
-1.48309321e-23
-7.040891795e-24
-3.14720254e-24
-1.329358837e-24
-5.351061826e-25
-2.071551784e-25
-7.769936808e-26
-2.836765968e-26
-1.010820312e-26
-3.52067254e-27
-1.199894793e-27
-4.002232625e-28
-1.303227725e-28
-4.107753827e-29
-1.226745248e-29
-3.313119601e-30
-7.287732376e-31
-9.528194549e-32
-5.161686779e-33
-2.194237609e-06
-4.333907156e-07
-2.237191162e-08
-5.580851827e-10
-1.069204068e-11
-6.389959848e-13
-1.17328055e-13
-3.673107914e-14
-1.403078841e-14
-5.936402903e-15
-2.677335954e-15
-1.264408216e-15
-6.235584081e-16
-3.237074991e-16
-1.791601693e-16
-1.067657438e-16
-6.847690561e-17
-4.657917532e-17
-3.277979057e-17
-2.330984482e-17
-1.635322007e-17
-1.114940768e-17
-7.312508951e-18
-4.636484759e-18
-2.835635364e-18
-1.686067804e-18
-9.638808903e-19
-5.290193822e-19
-2.811402639e-19
-1.460423618e-19
-7.4664215e-20
-3.764594096e-20
-1.887257939e-20
-9.52426363e-21
-4.893146733e-21
-2.575836752e-21
-1.393642616e-21
-7.702499631e-22
-4.27052208e-22
-2.32532994e-22
-1.220881359e-22
-6.09810016e-23
-2.875283942e-23
-1.275758102e-23
-5.341023591e-24
-2.130864576e-24
-8.208234011e-25
-3.086612169e-25
-1.139976631e-25
-4.141974232e-26
-1.478750878e-26
-5.175215245e-27
-1.769902749e-27
-5.884967222e-28
-1.88267955e-28
-5.667430325e-29
-1.529471035e-29
-3.300575263e-30
-4.047658484e-31
-1.96931969e-32
-2.447447076e-06
-9.75974922e-07
-1.057426069e-07
-5.012146726e-09
-1.21558545e-10
-4.10611885e-12
-4.252619687e-13
-9.581569444e-14
-3.171428301e-14
-1.255388038e-14
-5.495880113e-15
-2.567827813e-15
-1.264601942e-15
-6.591530637e-16
-3.684558254e-16
-2.237239182e-16
-1.480047294e-16
-1.055041137e-16
-7.931517367e-17
-6.138446596e-17
-4.787413481e-17
-3.699712263e-17
-2.793110778e-17
-2.028907724e-17
-1.405881077e-17
-9.197394677e-18
-5.656229421e-18
-3.294022723e-18
-1.834643294e-18
-9.895994093e-19
-5.146278337e-19
-2.580475647e-19
-1.26690937e-19
-6.188299595e-20
-3.034036094e-20
-1.495561825e-20
-7.458558461e-21
-3.780437911e-21
-1.941435673e-21
-9.97932259e-22
-5.039820701e-22
-2.463554603e-22
-1.149602897e-22
-5.068036723e-23
-2.102663718e-23
-8.287658524e-24
-3.157293624e-24
-1.178544825e-24
-4.345909393e-25
-1.589018218e-25
-5.759082537e-26
-2.060475883e-26
-7.230849286e-27
-2.467085435e-27
-8.07252308e-28
-2.47067511e-28
-6.724329327e-29
-1.442982718e-29
-1.700817365e-30
-7.796567054e-32
-1.730930834e-06
-1.768676783e-06
-3.051395573e-07
-2.595144891e-08
-1.132838991e-09
-3.173419605e-11
-1.760033658e-12
-2.542443755e-13
-6.589732775e-14
-2.298189581e-14
-9.398345941e-15
-4.234884338e-15
-2.046772108e-15
-1.058291586e-15
-5.925723014e-16
-3.646316025e-16
-2.476666478e-16
-1.834732345e-16
-1.44753007e-16
-1.184963238e-16
-9.84563522e-17
-8.1700596e-17
-6.691759472e-17
-5.361189438e-17
-4.170168442e-17
-3.128412628e-17
-2.249096257e-17
-1.532429544e-17
-9.809545897e-18
-5.851522627e-18
-3.24646988e-18
-1.69831513e-18
-8.547561928e-19
-4.221526383e-19
-2.039240793e-19
-9.684179787e-20
-4.558914628e-20
-2.139989966e-20
-1.001581243e-20
-4.690626384e-21
-2.197963141e-21
-1.016191305e-21
-4.596180398e-22
-2.011653377e-22
-8.389713295e-23
-3.281336041e-23
-1.228313959e-23
-4.500555715e-24
-1.634460436e-24
-5.916049768e-25
-2.136501738e-25
-7.684404583e-26
-2.736558122e-26
-9.538411267e-27
-3.197708911e-27
-1.002193917e-27
-2.780827417e-28
-6.027895934e-29
-7.014133946e-30
-3.156102384e-31
6.821014753e-07
-2.534818422e-06
-6.858754185e-07
-8.672206921e-08
-6.091787031e-09
-2.359216167e-10
-8.545084628e-12
-7.269689531e-13
-1.347397176e-13
-3.947184927e-14
-1.459525854e-14
-6.184200369e-15
-2.880856038e-15
-1.460896603e-15
-8.150576989e-16
-5.083665211e-16
-3.558663225e-16
-2.749803335e-16
-2.277178078e-16
-1.960615981e-16
-1.714553393e-16
-1.498999285e-16
-1.29662931e-16
-1.101709567e-16
-9.144542756e-17
-7.379861799e-17
-5.764863343e-17
-4.338663591e-17
-3.12942928e-17
-2.151761124e-17
-1.402819912e-17
-8.583014874e-18
-4.893537249e-18
-2.592680847e-18
-1.287236168e-18
-6.152851365e-19
-2.863975893e-19
-1.304631861e-19
-5.755856535e-20
-2.48633334e-20
-1.067911319e-20
-4.571658101e-21
-1.939526167e-21
-8.136338968e-22
-3.366271097e-22
-1.351782076e-22
-5.09843046e-23
-1.815358745e-23
-6.361712053e-24
-2.232851236e-24
-7.87913651e-25
-2.792638809e-25
-9.888781511e-26
-3.461989645e-26
-1.177244e-26
-3.768916551e-27
-1.072393695e-27
-2.380432953e-28
-2.810945611e-29
-1.292208214e-30
6.111689198e-06
-2.734496763e-06
-1.226859363e-06
-2.195101905e-07
-2.521242808e-08
-1.653616133e-09
-6.433763733e-11
-3.039656608e-12
-3.332737188e-13
-7.10407433e-14
-2.220871463e-14
-8.511550761e-15
-3.726561645e-15
-1.825796549e-15
-1.009362089e-15
-6.416046758e-16
-4.683140601e-16
-3.813154582e-16
-3.32734461e-16
-3.005745182e-16
-2.745507595e-16
-2.499569411e-16
-2.248669386e-16
-1.988007492e-16
-1.720441059e-16
-1.452663291e-16
-1.192936528e-16
-9.497486548e-17
-7.305448303e-17
-5.409065787e-17
-3.839958455e-17
-2.602483426e-17
-1.675775856e-17
-1.020935883e-17
-5.864129049e-18
-3.147582254e-18
-1.577278038e-18
-7.363629793e-19
-3.236262049e-19
-1.367472074e-19
-5.595833847e-20
-2.24285533e-20
-8.892378719e-21
-3.500411438e-21
-1.368953338e-21
-5.320629827e-22
-2.050387053e-22
-7.639927743e-23
-2.68579071e-23
-9.052026373e-24
-3.02942375e-24
-1.031651826e-24
-3.554988529e-25
-1.224858246e-25
-4.141431035e-26
-1.334384989e-26
-3.873557475e-27
-8.885220983e-28
-1.091732339e-28
-5.32775727e-30
1.328314085e-05
-2.125074063e-06
-1.816212426e-06
-4.455470493e-07
-6.520258693e-08
-7.07217697e-09
-4.533530908e-10
-1.890715367e-11
-1.083469862e-12
-1.347482e-13
-3.102941045e-14
-1.021900059e-14
-4.145523951e-15
-1.99139041e-15
-1.122839486e-15
-7.602152405e-16
-5.984963807e-16
-5.222564145e-16
-4.81528388e-16
-4.537099221e-16
-4.283775034e-16
-4.009259809e-16
-3.697159234e-16
-3.346942179e-16
-2.966609055e-16
-2.56890507e-16
-2.169018898e-16
-1.781741961e-16
-1.420570552e-16
-1.096557426e-16
-8.173297356e-17
-5.86561451e-17
-4.038250925e-17
-2.656818629e-17
-1.664932023e-17
-9.901445906e-18
-5.565929948e-18
-2.944606426e-18
-1.454511692e-18
-6.647543149e-19
-2.811333854e-19
-1.108859458e-19
-4.227786088e-20
-1.577047818e-20
-5.812628358e-21
-2.132692368e-21
-7.808827454e-22
-2.862563899e-22
-1.041746912e-22
-3.670488455e-23
-1.239600054e-23