/*--------------------------------*- C++ -*----------------------------------*\
  =========                 |
  \\      /  F ield         | OpenFOAM: The Open Source CFD Toolbox
   \\    /   O peration     | Website:  https://openfoam.org
    \\  /    A nd           | Version:  10
     \\/     M anipulation  |
\*---------------------------------------------------------------------------*/
FoamFile
{
    format      ascii;
    class       volScalarField;
    location    "3000";
    object      RR.N2O;
}
// * * * * * * * * * * * * * * * * * * * * * * * * * * * * * * * * * * * * * //

dimensions      [1 -3 -1 0 0 0 0];

internalField   nonuniform List<scalar> 
5170
(
2.300336457e-61
2.299775855e-61
2.300148168e-61
2.304689102e-61
2.340059031e-61
2.226060509e-61
2.2259356e-61
2.227544451e-61
2.238704909e-61
2.301913131e-61
2.175424109e-61
2.175880587e-61
2.180035065e-61
2.201398653e-61
2.289561188e-61
2.150808713e-61
2.152082328e-61
2.159684742e-61
2.194172423e-61
2.303704138e-61
2.144621328e-61
2.146017592e-61
2.158288079e-61
2.206979702e-61
2.355031922e-61
2.131285149e-61
2.195771504e-61
2.059675476e-61
1.814371698e-61
0
0
0
0
0
0
0
0
0
0
0
0
0
0
0
0
0
0
0
0
0
0
0
0
0
0
0
0
0
0
0
0
0
0
0
0
0
0
0
0
0
0
0
0
0
0
0
0
0
0
0
0
0
0
6.20076802e-31
1.084607666e-29
1.268438123e-29
1.291917103e-28
4.577497417e-27
2.588094241e-25
3.989301273e-24
1.729124897e-24
2.788335666e-23
1.313533152e-21
7.683092766e-20
1.370016611e-18
1.746446937e-19
5.654857522e-18
3.577999058e-16
1.927926657e-14
4.98227193e-13
0.0001657605967
0.0001151279723
9.749038453e-05
0.0001223045191
0.0001650271488
4.772746653e-05
5.62180587e-05
5.200299667e-05
5.683702521e-05
4.141628183e-05
7.691942562e-06
2.299085636e-05
2.497768903e-05
1.82587021e-05
2.760450453e-06
-5.867150966e-06
2.799192121e-06
5.086595084e-06
2.306024509e-06
-8.117255862e-06
-1.039714233e-05
-5.601747066e-06
-4.338670477e-06
-4.744494289e-06
-1.074235273e-05
-1.142455859e-05
-9.23430364e-06
-8.488124032e-06
-8.118139459e-06
-1.097436177e-05
-1.09539272e-05
-1.034089215e-05
-1.007159792e-05
-9.682793589e-06
-1.035582311e-05
-1.000795219e-05
-1.040169738e-05
-1.042375762e-05
-1.035209235e-05
-9.394987471e-06
-8.910331414e-06
-9.995537314e-06
-1.02283007e-05
-1.0132037e-05
-8.158802445e-06
-7.787073484e-06
-9.232460781e-06
-9.619289345e-06
-9.195012356e-06
-6.829737092e-06
-6.703430179e-06
-8.278672311e-06
-8.701835469e-06
-7.937438514e-06
-5.587381448e-06
-5.697280843e-06
-7.236780933e-06
-7.618939581e-06
-6.638255064e-06
-4.512518659e-06
-4.792472849e-06
-6.196886244e-06
-6.498340912e-06
-5.441504961e-06
-3.626851572e-06
-4.003642896e-06
-5.221975147e-06
-5.434606554e-06
-4.40685021e-06
-2.917009722e-06
-3.330047162e-06
-4.349326962e-06
-4.481433739e-06
-3.544464207e-06
-2.356764913e-06
-2.768098981e-06
-3.595233829e-06
-3.66297148e-06
-2.844522078e-06
-1.920172209e-06
-2.309604635e-06
-2.961358581e-06
-2.978512e-06
-2.285822381e-06
-1.584498514e-06
-1.943857426e-06
-2.439662784e-06
-2.411352098e-06
-1.83822853e-06
-1.324586684e-06
-1.044907221e-06
-1.865969988e-06
-1.912547877e-06
-1.476048533e-06
-1.125134383e-06
0.0001040057158
2.247510636e-05
2.16691304e-06
-4.7566229e-07
-3.423658592e-07
2.558432462e-16
1.589865791e-14
3.939931628e-12
9.187350716e-10
9.170868118e-08
6.823539381e-15
3.150472677e-13
4.691344296e-11
4.611806648e-09
1.060276049e-07
6.773245532e-14
2.430038664e-12
2.375240963e-10
1.193131597e-08
1.205180331e-07
4.770507916e-13
1.436138126e-11
1.020793495e-09
3.148128206e-08
2.327459167e-07
2.682305028e-12
6.864183037e-11
3.468961048e-09
6.45233714e-08
3.215925908e-07
1.28713668e-11
2.732842432e-10
9.407031802e-09
1.047911262e-07
3.568315805e-07
5.73898164e-11
1.006119311e-09
2.239319778e-08
1.503195564e-07
3.872101484e-07
2.367817631e-10
3.374363011e-09
4.636460279e-08
2.095128473e-07
4.981219803e-07
8.807277989e-10
9.643693223e-09
8.116822662e-08
2.677917647e-07
5.717642252e-07
2.873776414e-09
2.268525016e-08
1.213636431e-07
3.094346649e-07
5.794484027e-07
8.412732212e-09
4.421486163e-08
1.602169811e-07
3.370165165e-07
5.730977436e-07
2.041563452e-08
7.301040293e-08
1.990701245e-07
3.754749569e-07
6.320446389e-07
4.220569038e-08
1.087334248e-07
2.408606366e-07
4.223328032e-07
6.98921489e-07
7.683474322e-08
1.507658075e-07
2.825284299e-07
4.597430015e-07
7.242304583e-07
1.251846056e-07
1.96654947e-07
3.187180235e-07
4.801347946e-07
7.154514126e-07
1.821170321e-07
2.430093059e-07
3.49416692e-07
4.95306044e-07
7.158341953e-07
2.401612671e-07
2.894829797e-07
3.846229692e-07
5.317037962e-07
7.755790022e-07
2.949111501e-07
3.377511392e-07
4.313618166e-07
5.936905739e-07
8.748787695e-07
3.463316873e-07
3.870732274e-07
4.830362857e-07
6.561439764e-07
9.510813291e-07
3.907146142e-07
4.303868382e-07
5.255365726e-07
6.957073108e-07
9.75968151e-07
4.241727653e-07
4.618225516e-07
5.519708389e-07
7.107532141e-07
9.669999166e-07
4.451264534e-07
4.803127395e-07
5.664734768e-07
7.163647142e-07
9.536224243e-07
4.594619818e-07
4.953145439e-07
5.812357987e-07
7.317518973e-07
9.606832382e-07
4.778457313e-07
5.169092665e-07
6.104477742e-07
7.661872444e-07
1.021164511e-06
5.129774607e-07
5.580710871e-07
6.569472106e-07
8.389278916e-07
1.114909096e-06
5.781062474e-07
6.31354164e-07
7.580746121e-07
9.473661512e-07
1.258447447e-06
6.878711924e-07
7.506815985e-07
8.985465987e-07
1.134977788e-06
1.496582641e-06
8.621789201e-07
9.369216078e-07
1.112305537e-06
1.374575421e-06
1.797515444e-06
1.114281692e-06
1.197488226e-06
1.428823922e-06
1.780003657e-06
2.301093969e-06
1.512646056e-06
1.642656099e-06
1.878051907e-06
2.271043639e-06
2.864423539e-06
2.118180806e-06
2.233584785e-06
2.52993404e-06
2.99324454e-06
3.497751495e-06
2.985417968e-06
3.146172883e-06
3.424546841e-06
3.75154299e-06
4.283938775e-06
4.032240252e-06
4.142582039e-06
4.539288584e-06
4.295777613e-06
4.400974462e-06
3.584906158e-06
3.493668522e-06
3.259504475e-06
2.753972788e-06
1.736944273e-06
-9.364349076e-07
-1.461671225e-06
-2.496996006e-06
-4.060827664e-06
-6.352896772e-06
-1.103326123e-05
-1.15098363e-05
-1.253126283e-05
-1.40459039e-05
-1.598943315e-05
-1.750940451e-05
-1.773692399e-05
-1.821940105e-05
-1.891548746e-05
-1.979897311e-05
-1.746673295e-05
-1.755242253e-05
-1.77401552e-05
-1.803189781e-05
-1.843894194e-05
-1.48140609e-05
-1.485641034e-05
-1.49524849e-05
-1.511477879e-05
-1.537578295e-05
-1.164049469e-05
-1.165979423e-05
-1.175891815e-05
-1.212723606e-05
-1.333879171e-05
-1.358055685e-05
-1.474207796e-05
-1.768216035e-05
-2.282896257e-05
-2.975189957e-05
-2.870697828e-05
-2.935205536e-05
-3.06589515e-05
-3.242724362e-05
-3.450325722e-05
-2.755178299e-05
-2.789017978e-05
-2.860598137e-05
-2.963156563e-05
-3.090407595e-05
-2.449047678e-05
-2.474546367e-05
-2.529126961e-05
-2.609041369e-05
-2.71082404e-05
-2.172287402e-05
-2.192116682e-05
-2.26334843e-05
-2.323711048e-05
-2.396946923e-05
-1.886422537e-05
-1.89927939e-05
-1.926685203e-05
-1.963978491e-05
-2.012204794e-05
-1.492270332e-05
-1.498861217e-05
-1.512137856e-05
-1.529417252e-05
-1.5470702e-05
-9.967496683e-06
-9.957728197e-06
-9.92039528e-06
-9.826117405e-06
-9.626518816e-06
-3.870282295e-06
-3.756584441e-06
-3.485934446e-06
-3.024338929e-06
-2.308651866e-06
3.835858837e-06
4.094293441e-06
4.678244444e-06
5.651003765e-06
7.052588422e-06
1.371525057e-05
1.408855026e-05
1.52394327e-05
1.665977463e-05
1.982095605e-05
2.609279193e-05
2.66610256e-05
2.792281347e-05
2.9870222e-05
3.149649224e-05
3.740959422e-05
3.799412195e-05
3.927722177e-05
4.121907312e-05
4.380004847e-05
4.590380228e-05
4.639835612e-05
4.74745544e-05
4.90789733e-05
5.116737255e-05
4.96566009e-05
5.000490452e-05
5.075707516e-05
5.186333556e-05
5.327565958e-05
4.860560331e-05
4.881045506e-05
4.924913887e-05
4.988455033e-05
5.067751968e-05
4.407479883e-05
4.417097378e-05
4.437410422e-05
4.466067599e-05
4.500365768e-05
3.77594279e-05
3.778681476e-05
3.784175744e-05
3.791131543e-05
3.797884167e-05
3.10387409e-05
3.102892168e-05
3.100428424e-05
3.095879621e-05
3.088308881e-05
2.476685954e-05
2.474055198e-05
2.468106551e-05
2.458635598e-05
2.44515966e-05
1.934763089e-05
1.931669121e-05
1.924785212e-05
1.914112509e-05
1.899429807e-05
1.488697511e-05
1.485739132e-05
1.479198759e-05
1.469168785e-05
1.455568581e-05
1.133146452e-05
1.130575435e-05
1.124910698e-05
1.116274069e-05
1.104655006e-05
8.55667648e-06
8.535515285e-06
8.488983196e-06
8.418287196e-06
8.323633752e-06
6.423896025e-06
6.407063703e-06
6.370099578e-06
6.314069478e-06
6.239289333e-06
4.799266692e-06
4.786190741e-06
4.757500685e-06
4.714080452e-06
4.65625649e-06
3.573626583e-06
3.563636854e-06
3.541733093e-06
3.508621315e-06
3.464594283e-06
2.6503249e-06
2.642799469e-06
2.62630607e-06
2.601393306e-06
2.56830607e-06
1.970081052e-06
1.964451163e-06
1.952117484e-06
1.933499699e-06
1.908793637e-06
1.497841092e-06
1.49357253e-06
1.484222753e-06
1.470113763e-06
1.451400369e-06
3.85481301e-07
2.531343755e-07
2.681540518e-07
6.634627591e-07
7.058413173e-07
6.168932578e-07
6.246093769e-07
9.022393554e-07
9.657678754e-07
8.846062319e-07
8.330341986e-07
9.540981804e-07
1.040682358e-06
1.027128515e-06
9.714277985e-07
9.59397296e-07
1.059171485e-06
1.20131002e-06
1.278841175e-06
1.275683696e-06
1.227795479e-06
1.192758689e-06
1.215442908e-06
1.281082886e-06
1.409470401e-06
1.588678391e-06
1.880922749e-06
2.237828585e-06
2.700817857e-06
3.366841672e-06
4.020114381e-06
4.674663038e-06
4.305554868e-06
6.025647897e-07
-8.342110541e-06
-1.750303036e-05
-2.050277912e-05
-1.880974854e-05
-1.56653708e-05
-1.539601454e-05
-3.461868598e-05
-3.609942088e-05
-3.194260029e-05
-2.795476857e-05
-2.458558891e-05
-2.051790953e-05
-1.559863679e-05
-9.421272014e-06
-1.642537045e-06
8.316019011e-06
2.070962203e-05
3.371303212e-05
4.592221313e-05
5.284801993e-05
5.43890454e-05
5.128748717e-05
4.525534561e-05
3.801498373e-05
3.080946904e-05
2.433457617e-05
1.887041406e-05
1.444241107e-05
1.095047014e-05
8.245708196e-06
6.177906241e-06
4.608887268e-06
3.428580185e-06
2.541269411e-06
1.888620839e-06
1.436128389e-06
2.836598527e-07
-0.0001732271422
0.0001573976021
7.841909453e-05
2.257401504e-05
3.187493462e-07
-9.897276581e-06
-0.0001122776991
0.0001759100436
9.366566013e-06
5.016029738e-07
4.608318118e-07
-0.0002285241882
0.0001395113247
1.456562281e-05
1.530146129e-06
5.873527137e-06
-0.0001705288372
4.345721963e-05
9.905743988e-05
1.314790573e-06
3.382284721e-06
-6.300664682e-05
-9.116610077e-05
0.0002492325951
9.980013126e-07
2.16755872e-06
-1.676432923e-05
-0.0002179857964
0.0002753601777
1.031802041e-06
2.582999702e-06
-1.093330528e-06
-0.0002691222687
0.0001248409564
1.674388856e-06
5.018170356e-06
1.268687443e-05
-0.0002457183757
-4.801249899e-05
1.651200157e-06
3.999728983e-06
8.677642911e-06
-0.0001269827506
-0.0001900489646
1.393806199e-06
2.921909009e-06
5.802121474e-06
-5.588377038e-05
-0.0002715039509
1.279046363e-06
2.637114375e-06
5.573252878e-06
-2.208318771e-05
-0.0003035972873
1.523708783e-06
3.461026951e-06
8.066520958e-06
1.95344002e-06
-0.000295181756
1.623156135e-06
3.425041986e-06
7.261331272e-06
7.157858457e-06
-0.0001904706338
1.528055273e-06
2.904949985e-06
5.614080982e-06
6.360685453e-06
-0.0001066770781
1.394150203e-06
2.490620994e-06
4.648334822e-06
6.044604483e-06
-6.093361923e-05
1.364926786e-06
2.447773373e-06
4.639595904e-06
7.120909953e-06
-3.266005276e-05
1.528088878e-06
2.851267444e-06
5.578496624e-06
9.746199172e-06
-1.150376258e-05
1.726737847e-06
3.19940176e-06
6.150722972e-06
1.082254923e-05
-4.544641847e-07
1.76767541e-06
3.176769101e-06
5.837272662e-06
9.811342126e-06
2.089969025e-06
1.713338706e-06
2.948065428e-06
5.23062016e-06
8.457448599e-06
2.235378307e-06
1.624004296e-06
2.718209853e-06
4.766420455e-06
7.532725211e-06
2.264736844e-06
1.565117609e-06
2.63211125e-06
4.582743416e-06
7.149494422e-06
2.695115914e-06
1.592468022e-06
2.700492951e-06
4.687608006e-06
7.240147506e-06
3.478711775e-06
1.70773367e-06
2.913471372e-06
5.022342737e-06
7.627335333e-06
4.276368419e-06
1.888156112e-06
3.212626254e-06
5.436362817e-06
7.98129163e-06
4.461809251e-06
2.114672761e-06
3.68406655e-06
5.834935665e-06
8.089661051e-06
3.598973827e-06
2.491972336e-06
4.071673223e-06
6.220390199e-06
7.870112686e-06
1.442894728e-06
2.930163129e-06
4.457278269e-06
6.557099252e-06
7.13348005e-06
-2.336139261e-06
3.473681677e-06
5.018070122e-06
6.695606342e-06
5.430423534e-06
-8.169462073e-06
4.392472547e-06
5.540103065e-06
6.248342208e-06
2.01958561e-06
-1.612173946e-05
4.720055496e-06
5.657551217e-06
4.420402422e-06
-3.932858827e-06
-2.541832655e-05
5.005888936e-06
4.465352252e-06
-5.978536342e-08
-1.262817426e-05
-3.438426277e-05
3.613675519e-06
2.312768617e-07
-8.177919936e-06
-2.259285091e-05
-4.125341365e-05
-1.860911543e-06
-8.387400874e-06
-1.836994949e-05
-3.068603272e-05
-4.487327061e-05
-1.174617559e-05
-1.834838192e-05
-2.590394271e-05
-3.416466997e-05
-4.492783664e-05
-1.977088233e-05
-2.369805544e-05
-2.808933266e-05
-3.387819221e-05
-4.746604006e-05
-2.151605507e-05
-2.355886009e-05
-2.656854157e-05
-3.341056506e-05
-6.72503368e-05
-1.938307387e-05
-2.096347574e-05
-2.534963308e-05
-4.867957226e-05
-7.679539007e-05
-1.635748534e-05
-2.055983902e-05
-4.102919842e-05
-6.414408289e-05
-7.19415377e-05
-2.140857348e-05
-4.068732933e-05
-5.425233544e-05
-6.068129984e-05
-6.373391783e-05
-3.955776007e-05
-4.575035964e-05
-5.031488383e-05
-5.335585699e-05
-5.544677121e-05
-3.789790551e-05
-4.098389364e-05
-4.374097001e-05
-4.619411793e-05
-4.822826079e-05
-3.315476434e-05
-3.551748845e-05
-3.790927594e-05
-4.008754043e-05
-4.16428231e-05
-2.896522499e-05
-3.092646318e-05
-3.282465915e-05
-3.431667266e-05
-3.48821744e-05
-2.511457528e-05
-2.647230948e-05
-2.758558861e-05
-2.804429627e-05
-2.721070481e-05
-2.077083124e-05
-2.147686123e-05
-2.149792756e-05
-2.071064445e-05
-1.817265871e-05
-1.55657705e-05
-1.528337298e-05
-1.415979996e-05
-1.157842446e-05
-6.541859854e-06
-8.876049423e-06
-7.427717631e-06
-4.672196665e-06
1.544676442e-07
8.068006123e-06
-3.999492382e-07
2.617652874e-06
7.43416458e-06
1.483402022e-05
2.558297105e-05
1.043545398e-05
1.526172599e-05
2.225642444e-05
3.188648633e-05
4.43199937e-05
2.354017698e-05
3.003664903e-05
3.824187714e-05
4.878103546e-05
6.086469664e-05
3.733739353e-05
4.395958712e-05
5.315706936e-05
6.263445713e-05
7.276833717e-05
4.903809141e-05
5.507892768e-05
6.19458698e-05
6.92039406e-05
7.627450666e-05
5.525605585e-05
5.972885154e-05
6.449556511e-05
6.913955398e-05
7.31977978e-05
5.594584999e-05
5.871158173e-05
6.144868063e-05
6.383885455e-05
6.556651917e-05
5.211171555e-05
5.348698e-05
5.4685987e-05
5.549677149e-05
5.572646846e-05
4.556896294e-05
4.60127457e-05
4.623880449e-05
4.611915268e-05
4.554564267e-05
3.802756362e-05
3.794263257e-05
3.76502821e-05
3.707928856e-05
3.61739754e-05
3.067321221e-05
3.034070535e-05
2.983084697e-05
2.910722018e-05
2.814426661e-05
2.414350292e-05
2.373198213e-05
2.317707976e-05
2.246224093e-05
2.157809791e-05
1.867540907e-05
1.827326461e-05
1.775889085e-05
1.712636028e-05
1.637438901e-05
1.426714209e-05
1.391345387e-05
1.347365589e-05
1.294710023e-05
1.23361206e-05
1.080324724e-05
1.050990851e-05
1.015136222e-05
9.729299875e-06
9.247332866e-06
8.127034955e-06
7.892491235e-06
7.609012722e-06
7.279097324e-06
6.90649169e-06
6.084807539e-06
5.901821595e-06
5.682361679e-06
5.428983688e-06
5.145063554e-06
4.537252209e-06
4.396987533e-06
4.229687558e-06
4.037639246e-06
3.823677161e-06
3.374228976e-06
3.268110427e-06
3.142044025e-06
2.997939867e-06
2.838074869e-06
2.500531923e-06
2.421147938e-06
2.327120936e-06
2.219978402e-06
2.101496982e-06
1.858257049e-06
1.799183038e-06
1.729362055e-06
1.64998075e-06
1.562395788e-06
1.413157527e-06
1.368508307e-06
1.315804071e-06
1.255961881e-06
1.190016736e-06
1.028668997e-10
1.900359961e-12
5.647101983e-14
2.726303873e-15
2.324716362e-16
3.025915618e-17
6.126013234e-18
1.88508591e-18
7.561173496e-19
3.424581726e-19
1.613091345e-19
7.643980673e-20
3.601149788e-20
1.68045655e-20
7.767738088e-21
3.562208574e-21
1.625342664e-21
7.400421809e-22
3.372143484e-22
1.541301218e-22
7.080856191e-23
3.276470394e-23
1.530722738e-23
7.239533587e-24
3.475211269e-24
1.69641571e-24
8.426622146e-25
4.257421937e-25
2.185458699e-25
1.138525673e-25
6.014411778e-26
3.220342055e-26
1.747067287e-26
9.594982269e-27
5.322666182e-27
2.968338933e-27
1.651069715e-27
9.061552074e-28
4.847398089e-28
2.498107297e-28
1.228732567e-28
5.734408923e-29
2.533909414e-29
1.061679958e-29
4.236052474e-30
1.619431541e-30
5.972325851e-31
2.138485607e-31
7.470947155e-32
2.554152661e-32
8.549744181e-33
2.797273183e-33
8.911192586e-34
2.741200034e-34
8.038699102e-35
2.184319647e-35
5.050383373e-36
8.057521919e-37
4.423050792e-38
0
6.427925705e-10
1.622783319e-11
4.660197757e-13
2.867436778e-14
4.896017223e-15
1.545670195e-15
6.169224519e-16
2.725130601e-16
1.20367267e-16
5.247569437e-17
2.218399202e-17
9.17484852e-18
3.727860608e-18
1.501289027e-18
6.03562663e-19
2.43795445e-19
9.947654207e-20
4.115495916e-20
1.731075874e-20
7.411874268e-21
3.232533921e-21
1.437083533e-21
6.520295509e-22
3.022803263e-22
1.433290264e-22
6.951805787e-23
3.445572975e-23
1.741754035e-23
8.960389977e-24
4.682176494e-24
2.482101361e-24
1.334117251e-24
7.267457684e-25
4.008901455e-25
2.23460979e-25
1.252850807e-25
7.008741835e-26
3.86900222e-26
2.081051241e-26
1.077683619e-26
5.322851026e-27
2.493206141e-27
1.105514777e-27
4.649016978e-28
1.862860301e-28
7.158588264e-29
2.656618781e-29
9.581924056e-30
3.37508324e-30
1.163962689e-30
3.930924726e-31
1.297469768e-31
4.167384803e-32
1.292732843e-32
3.817923007e-33
1.040620348e-33
2.418051404e-34
3.940659356e-35
2.586572864e-36
2.974036037e-38
1.120010153e-08
2.23435576e-10
3.492886027e-12
2.689639892e-13
8.036850906e-14
3.837852846e-14
1.919514772e-14
9.544485619e-15
4.493227441e-15
2.034252119e-15
8.726589582e-16
3.597081663e-16
1.423908614e-16
5.472385819e-17
2.056897018e-17
7.648346182e-18
2.84531788e-18
1.070461644e-18
4.111040547e-19
1.621492818e-19
6.591970426e-20
2.766608755e-20
1.19997923e-20
5.379407158e-21
2.490164662e-21
1.18777908e-21
5.819418267e-22
2.91809222e-22
1.493016283e-22
7.777071338e-23
4.118871427e-23
2.216668195e-23
1.211697562e-23
6.721495243e-24
3.775188502e-24
2.136390897e-24
1.207762469e-24
6.740502431e-25
3.664473502e-25
1.916564484e-25
9.551353857e-26
4.510053267e-26
2.01480323e-26
8.535046871e-27
3.446388982e-27
1.335802366e-27
5.006750466e-28
1.826537453e-28
6.515846203e-29
2.277909325e-29
7.801959853e-30
2.611459026e-30
8.50137757e-31
2.669758209e-31
7.964005008e-32
2.183233794e-32
5.078279742e-33
8.227750103e-34
5.614376147e-35
7.02213777e-37
3.050454211e-07
1.145407926e-08
1.447133527e-10
4.291455879e-12
1.041310285e-12
5.230098864e-13
2.824332886e-13
1.479873686e-13
7.377669977e-14
3.512890767e-14
1.59093744e-14
6.891407464e-15
2.85264301e-15
1.13538221e-15
4.355961331e-16
1.624470949e-16
5.932588536e-17
2.147177872e-17
7.791216805e-18
2.870700588e-18
1.085511301e-18
4.247702929e-19
1.729169383e-19
7.340528833e-20
3.247285937e-20
1.491624091e-20
7.079223616e-21
3.454176952e-21
1.726238974e-21
8.816862675e-22
4.598478709e-22
2.448729004e-22
1.331307954e-22
7.384556629e-23
4.16924042e-23
2.382574375e-23
1.364641405e-23
7.728971904e-24
4.265270011e-24
2.263171821e-24
1.143266981e-24
5.467523772e-25
2.472500458e-25
1.060083123e-25
4.333756506e-26
1.701941987e-26
6.470396353e-27
2.397057054e-27
8.692137609e-28
3.091384834e-28
1.077906877e-28
3.674288511e-29
1.217738096e-29
3.888173319e-30
1.175586627e-30
3.246372387e-31
7.552149405e-32
1.211002879e-32
8.204064409e-34
1.129703889e-35
1.724903286e-06
3.305220098e-08
1.06110296e-09
3.337751264e-11
7.709347135e-12
3.941117172e-12
2.213276418e-12
1.216804538e-12
6.461900404e-13
3.3072973e-13
1.62677422e-13
7.690769681e-14
3.487500921e-14
1.519224938e-14
6.350917644e-15
2.556947669e-15
9.931789292e-16
3.748645086e-16
1.383772133e-16
5.05664503e-17
1.850451227e-17
6.881576275e-18
2.631304478e-18
1.044297251e-18
4.318352023e-19
1.85928356e-19
8.30078746e-20
3.824549981e-20
1.812128711e-20
8.81523507e-21
4.40275791e-21
2.259764316e-21
1.193272868e-21
6.48567132e-22
3.622686935e-22
2.067738149e-22
1.192430128e-22
6.837626744e-23
3.831525959e-23
2.066213391e-23
1.060537006e-23
5.150315494e-24
2.363892928e-24
1.028727217e-24
4.271979036e-25
1.706328613e-25
6.606139893e-26
2.494264223e-26
9.220954236e-27
3.343177538e-27
1.188126422e-27
4.127477359e-28
1.393838056e-28
4.530310337e-29
1.390318211e-29
3.873698771e-30
9.01647734e-31
1.432729605e-31
9.610400344e-33
1.403718538e-34
2.277675741e-05
1.075338802e-07
6.719266714e-09
2.520756538e-10
4.136333354e-11
1.885292536e-11
1.052366638e-11
6.001563544e-12
3.386094223e-12
1.871620897e-12
1.007825002e-12
5.267265422e-13
2.663816365e-13
1.301483641e-13
6.128010525e-14
2.77842232e-14
1.211560834e-14
5.087165557e-15
2.058526665e-15
8.073820832e-16
3.08905732e-16
1.16720506e-16
4.407306944e-17
1.687114166e-17
6.611410671e-18
2.669187075e-18
1.110026472e-18
4.745132098e-19
2.080946306e-19
9.366783348e-20
4.338832074e-20
2.076123798e-20
1.030200324e-20
5.317974329e-21
2.858646994e-21
1.59348852e-21
9.101420082e-22
5.228190157e-22
2.958493392e-22
1.618510257e-22
8.441095785e-23
4.163630066e-23
1.938581189e-23
8.549537215e-24
3.599564149e-24
1.460702066e-24
5.761363551e-25
2.221188937e-25
8.393895875e-26
3.110781339e-26
1.129063535e-26
4.00113458e-27
1.376791619e-27
4.553797649e-28
1.419219163e-28
4.000360959e-29
9.362948964e-30
1.489671426e-30
1.002448132e-31
1.609427035e-33
0.0001519512494
1.17033881e-06
4.151116056e-08
2.586793784e-09
1.862507917e-10
5.958138518e-11
3.114850455e-11
1.814725635e-11
1.078600256e-11
6.378095283e-12
3.715875775e-12
2.122927538e-12
1.185810125e-12
6.461355345e-13
3.427368307e-13
1.765774411e-13
8.810009896e-14
4.245433077e-14
1.970585698e-14
8.806313011e-15
3.791052462e-15
1.578647103e-15
6.395165681e-16
2.545828073e-16
1.006795455e-16
4.00349951e-17
1.610993487e-17
6.574992966e-18
2.718462678e-18
1.139179314e-18
4.856611714e-19
2.122404639e-19
9.598685427e-20
4.533792894e-20
2.252357505e-20
1.179609563e-20
6.459693892e-21
3.627121869e-21
2.038918118e-21
1.12127699e-21
5.919845625e-22
2.964969074e-22
1.401134045e-22
6.254716665e-23
2.659302887e-23
1.090034938e-23
4.354514012e-24
1.706673192e-24
6.577976429e-25
2.491390784e-25
9.247005953e-26
3.349169535e-26
1.176367745e-26
3.965138848e-27
1.257369484e-27
3.602590866e-28
8.563780776e-29
1.389712853e-29
9.653208816e-31
1.72621513e-32
0.0003046949715
1.423517196e-05
2.764173255e-07
2.427361687e-08
1.463436456e-09
1.983424215e-10
7.357614971e-11
3.993108239e-11
2.400709857e-11
1.479120241e-11
9.102465388e-12
5.539299538e-12
3.318885523e-12
1.953576943e-12
1.128186249e-12
6.384397403e-13
3.53518546e-13
1.912286846e-13
1.008012326e-13
5.161662111e-14
2.55899144e-14
1.224803581e-14
5.649287857e-15
2.514579505e-15
1.085372544e-15
4.580009509e-16
1.90543512e-16
7.873645321e-17
3.244253769e-17
1.335409134e-17
5.495211816e-18
2.269976729e-18
9.501209868e-19
4.085982989e-19
1.831802875e-19
8.670296344e-20
4.355162819e-20
2.294620508e-20
1.239058493e-20
6.690064489e-21
3.530789354e-21
1.787894781e-21
8.583939291e-22
3.889929853e-22
1.6720232e-22
6.905250948e-23
2.777697235e-23
1.098295529e-23
4.285151589e-24
1.649072896e-24
6.238468652e-25
2.307733619e-25
8.285754543e-26
2.854326518e-26
9.243781538e-27
2.705138628e-27
6.583521976e-28
1.102214068e-28
8.029644664e-30
1.616848705e-31
0.0002951131724
6.741642985e-05
1.246582831e-06
8.021539637e-08
7.355267362e-09
6.590325253e-10
1.56243764e-10
7.280562913e-11
4.289616959e-11
2.705462253e-11
1.734253342e-11
1.109032282e-11
7.021744517e-12
4.387102331e-12
2.700610979e-12
1.636424617e-12
9.752561748e-13
5.710925694e-13
3.281743714e-13
1.847363458e-13
1.016427801e-13
5.452333096e-14
2.84474995e-14
1.439472117e-14
7.047569321e-15
3.33692127e-15
1.529169492e-15
6.807917222e-16
2.961464412e-16
1.265883692e-16
5.33330493e-17
2.219128377e-17
9.154712916e-18
3.777688913e-18
1.580176499e-18
6.804709446e-19
3.065637356e-19
1.45722834e-19
7.23594166e-20
3.679553377e-20
1.878222278e-20
9.445626802e-21
4.590787254e-21
2.122343252e-21
9.274655315e-22
3.87101709e-22
1.567584567e-22
6.226911891e-23
2.441080318e-23
9.463179455e-24
3.622036482e-24
1.362104341e-24
4.991994974e-25
1.760202883e-25
5.845730389e-26
1.757654119e-26
4.415447991e-27
7.719172694e-28
6.018187578e-29
1.389394171e-30
0.0001639352157
0.0001927910184
6.858463025e-06
2.179785621e-07
2.676746729e-08
2.390951257e-09
3.395309224e-10
1.216276217e-10
6.724084996e-11
4.266978472e-11
2.819968666e-11
1.879153185e-11
1.246854139e-11
8.193036798e-12
5.318282512e-12
3.406173949e-12
2.150879613e-12
1.338281699e-12
8.198419674e-13
4.940005741e-13
2.922824035e-13
1.696069981e-13
9.629930463e-14
5.336871908e-14
2.879711646e-14
1.509729609e-14
7.681528837e-15
3.790750756e-15
1.814349543e-15
8.430914041e-16
3.809235023e-16
1.677243321e-16
7.22116436e-17
3.054625367e-17
1.278461644e-17
5.345136123e-18
2.257537464e-18
9.771076202e-19
4.378386001e-19
2.029828693e-19
9.622295527e-20
4.604090738e-20
2.19609037e-20
1.026944276e-20
4.607918609e-21
1.964581854e-21
8.047273105e-22
3.213936343e-22
1.262769444e-22
4.901387029e-23
1.881926099e-23
7.134123596e-24
2.652690384e-24
9.549664164e-25
3.255727222e-25
1.010565407e-25
2.641051252e-26
4.882458512e-27
4.170811676e-28
1.122608782e-29
1.24820545e-05
0.0003206983874
3.382374658e-05
9.367263696e-07
7.674416487e-08
1.035530769e-08
1.039092167e-09
2.208937101e-10
1.00462397e-10
6.148123588e-11
4.123367433e-11
2.840112555e-11
1.963282849e-11
1.349105663e-11
9.176200833e-12
6.165666284e-12
4.08886132e-12
2.674202885e-12
1.725383612e-12
1.097380773e-12
6.871727829e-13
4.230069853e-13
2.555022791e-13
1.511111648e-13
8.731443423e-14
4.918435724e-14
2.696190098e-14
1.436705341e-14
7.437636691e-15
3.741415995e-15
1.830787994e-15
8.722780979e-16
4.04821251e-16
1.831466973e-16
8.096454706e-17
3.512463198e-17
1.502710552e-17
6.372825221e-18
2.701375744e-18
1.157638892e-18
5.060681256e-19
2.253941632e-19
1.016179966e-19
4.603364096e-20
2.071484485e-20
9.082580784e-21
3.824920245e-21
1.549168635e-21
6.105221188e-22
2.365947596e-22
9.066320312e-23
3.438796876e-23
1.286265055e-23
4.694284885e-24
1.636926716e-24
5.24817891e-25
1.435285852e-25
2.838169846e-26
2.718952812e-27
8.681483715e-29
-9.876573935e-05
0.0003282818835
0.0001070833
4.474404715e-06
2.762609232e-07
4.620800751e-08
5.468030557e-09
6.238093357e-10
1.642470051e-10
8.411742951e-11
5.498779311e-11
3.8660563e-11
2.769503387e-11
1.982423753e-11
1.406290965e-11
9.86574358e-12
6.838642413e-12
4.679163885e-12
3.158647705e-12
2.102724109e-12
1.378961832e-12
8.896988247e-13
5.639039167e-13
3.505030178e-13
2.132396432e-13
1.267233589e-13
7.342164516e-14
4.140734906e-14
2.270707333e-14
1.210462122e-14
6.276684479e-15
3.170811429e-15
1.563469011e-15
7.538449265e-16
3.559407852e-16
1.647341095e-16
7.472325883e-17
3.318599532e-17
1.443110007e-17
6.161113427e-18
2.605605776e-18
1.104822955e-18
4.729729848e-19
2.044869723e-19
8.898781012e-20
3.871296319e-20
1.661612758e-20
6.934196321e-21
2.790096333e-21
1.087020098e-21
4.148279521e-22
1.565349419e-22
5.847859072e-23
2.146218993e-23
7.598571702e-24
2.506148821e-24
7.185094933e-25
1.534774959e-25
1.686233666e-26
6.510722403e-28
-0.00018644303
0.000224894675
0.0002175114923
1.706947128e-05
7.901689125e-07
1.085197618e-07
2.157418859e-08
2.468856154e-09
3.392670678e-10
1.124524219e-10
6.578495772e-11
4.618433415e-11
3.397341382e-11
2.522811258e-11
1.853764858e-11
1.356488622e-11
9.802340443e-12
6.987686455e-12
4.910596535e-12
3.40041832e-12
2.318834247e-12
1.555986939e-12
1.026301126e-12
6.644592852e-13
4.215559773e-13
2.615867736e-13
1.584560513e-13
9.352926794e-14
5.371671174e-14
2.999688414e-14
1.629130414e-14
8.616329871e-15
4.447780134e-15
2.247396883e-15
1.114936247e-15
5.442081351e-16
2.614383987e-16
1.233684311e-16
5.696790907e-17
2.567299735e-17
1.128493812e-17
4.859202828e-18
2.067041987e-18
8.748462888e-19
3.709335361e-19
1.577064433e-19
6.689174136e-20
2.813366406e-20
1.161315439e-20
4.64967129e-21
1.800403394e-21
6.791158869e-22
2.520577015e-22
9.222622421e-23
3.286401045e-23
1.10697578e-23
3.31982499e-24
7.730934238e-25
9.959161473e-26
4.740422411e-27
-0.0002463232306
8.724261456e-05
0.0003176425972
5.329678315e-05
2.683781415e-06
2.313235505e-07
5.152544538e-08
9.5544468e-09
1.089900729e-09
1.735562683e-10
7.088486099e-11
4.67599362e-11
3.479251395e-11
2.656156462e-11
2.009822559e-11
1.518776286e-11
1.132685311e-11
8.334174627e-12
6.04672763e-12
4.324190396e-12
3.046818433e-12
2.114232731e-12
1.443991982e-12
9.698164046e-13
6.396605704e-13
4.135581391e-13
2.614839507e-13
1.612941527e-13
9.686444818e-14
5.656143965e-14
3.209668123e-14
1.771266113e-14
9.529082637e-15
5.016003835e-15
2.594297595e-15
1.323278723e-15
6.669668941e-16
3.320296054e-16
1.627729587e-16
7.82266731e-17
3.669948715e-17
1.676159282e-17
7.462513955e-18
3.253735265e-18
1.398168278e-18
5.95423186e-19
2.515637189e-19
1.052495908e-19
4.353378222e-20
1.771386997e-20
7.037517077e-21
2.71245151e-21
1.015550042e-21
3.713621271e-22
1.324201223e-22
4.519933222e-23
1.409016346e-23
3.584686152e-24
5.504152646e-25
3.299240588e-26
-0.0002790468733
-2.990375198e-05
0.0003357622814
0.0001286939491
9.811562423e-06
6.150855849e-07
9.655094211e-08
2.659197165e-08
4.759122194e-09
5.370206152e-10
9.312330043e-11
4.342859538e-11
2.992913977e-11
2.245534075e-11
1.709890364e-11
1.302270911e-11
9.858128809e-12
7.396515152e-12
5.491449577e-12
4.030008141e-12
2.921027894e-12
2.089605656e-12
1.47420577e-12
1.02475661e-12
7.010308331e-13
4.712579101e-13
3.10724702e-13
2.00482844e-13
1.262321386e-13
7.737871614e-14
4.613155239e-14
2.674251609e-14
1.508403579e-14
8.305732632e-15
4.487623729e-15
2.390470714e-15
1.260419759e-15
6.591362916e-16
3.413866727e-16
1.744324142e-16
8.749280452e-17
4.289080222e-17
2.049246272e-17
9.539346594e-18
4.331011269e-18
1.921495324e-18
8.346707909e-19
3.552721142e-19
1.482450956e-19
6.067926598e-20
2.436556804e-20
9.56845908e-21
3.656210524e-21
1.358818009e-21
4.907673482e-22
1.703706809e-22
5.497026252e-23
1.514993891e-23
2.772100676e-24
2.140373519e-25
-0.000288712405
-0.0001084609599
0.0002625768528
0.0002321253843