/*--------------------------------*- C++ -*----------------------------------*\
  =========                 |
  \\      /  F ield         | OpenFOAM: The Open Source CFD Toolbox
   \\    /   O peration     | Website:  https://openfoam.org
    \\  /    A nd           | Version:  10
     \\/     M anipulation  |
\*---------------------------------------------------------------------------*/
FoamFile
{
    format      ascii;
    class       volScalarField;
    location    "3000";
    object      RR.NH3;
}
// * * * * * * * * * * * * * * * * * * * * * * * * * * * * * * * * * * * * * //

dimensions      [1 -3 -1 0 0 0 0];

internalField   nonuniform List<scalar> 
5170
(
0
0
0
0
0
0
0
0
0
0
0
0
0
0
0
0
0
0
0
0
0
0
0
0
0
0
0
0
0
0
0
0
0
0
0
0
0
0
0
0
0
0
0
0
0
0
0
0
0
0
0
0
0
0
0
0
0
0
0
0
0
0
0
0
0
0
0
0
0
0
0
0
0
0
0
0
0
0
0
0
0
0
0
0
0
0
-4.205459319e-32
-2.217779756e-30
-3.292740765e-28
-9.28728965e-27
-7.665514492e-28
-1.894061758e-26
-1.707046084e-24
-2.569810496e-22
-8.806179076e-21
-1.470688368e-22
-8.274466849e-21
-1.183371255e-18
-1.642309956e-16
-8.439780999e-15
2.787914974e-09
1.885855467e-09
1.587768583e-09
2.0131093e-09
2.759012181e-09
6.166820079e-10
8.881505786e-10
8.128596098e-10
9.039246582e-10
5.256960286e-10
7.383826971e-11
1.826056681e-10
1.59215149e-10
1.401978354e-10
-5.932599583e-12
-8.848898168e-11
-4.684974398e-12
9.622636796e-12
1.196498397e-11
-1.244349605e-10
-1.389072584e-10
-7.74120367e-11
-6.258993575e-11
-4.793656553e-11
-1.451249695e-10
-1.517560212e-10
-1.138234393e-10
-9.944413203e-11
-9.366055391e-11
-1.510639445e-10
-1.487027967e-10
-1.295057234e-10
-1.210949699e-10
-1.302541082e-10
-1.51049101e-10
-1.404944979e-10
-1.373680903e-10
-1.347163522e-10
-1.575520672e-10
-1.443782809e-10
-1.296737368e-10
-1.39793477e-10
-1.42646455e-10
-1.655444404e-10
-1.300922252e-10
-1.175831397e-10
-1.359318491e-10
-1.429007293e-10
-1.567100006e-10
-1.127570673e-10
-1.051329328e-10
-1.274316491e-10
-1.360878433e-10
-1.405431396e-10
-9.662889038e-11
-9.321884805e-11
-1.161858318e-10
-1.246967054e-10
-1.230568161e-10
-8.313963399e-11
-8.240299521e-11
-1.038831722e-10
-1.115534324e-10
-1.072907038e-10
-7.265603344e-11
-7.328746427e-11
-9.230466389e-11
-9.884169002e-11
-9.433162777e-11
-6.48950777e-11
-6.58172878e-11
-8.198080352e-11
-8.770668685e-11
-8.437823329e-11
-5.944079409e-11
-6.014037985e-11
-7.354253168e-11
-7.855098934e-11
-7.663498109e-11
-5.543758961e-11
-5.603506035e-11
-6.679957842e-11
-7.155723651e-11
-7.107401243e-11
-5.289369921e-11
-4.533834749e-11
-6.05605394e-11
-6.690336713e-11
-6.78106979e-11
-5.193556068e-11
9.278752634e-10
1.817149884e-10
-9.043362462e-12
-6.841376651e-11
-5.644456295e-11
2.482661096e-07
2.917769914e-08
5.08843826e-09
4.161654434e-10
-1.561106034e-10
-5.223460993e-19
-5.955894115e-17
-3.500900981e-14
-2.105064392e-11
-6.717010383e-09
-1.177541911e-17
-1.034542006e-15
-4.007906459e-13
-1.118823493e-10
-7.321154892e-09
-1.09761176e-16
-8.438643191e-15
-2.412924331e-12
-3.392885886e-10
-6.557125133e-09
-1.370941647e-15
-1.064052121e-13
-2.457317082e-11
-2.013166599e-09
-1.695194553e-08
-1.530399589e-14
-1.059918136e-12
-1.606499491e-10
-6.542167018e-09
-1.340577546e-08
-1.384296638e-13
-7.602605458e-12
-6.883040175e-10
-1.400219413e-08
1.281302477e-08
-1.093474869e-12
-4.556679219e-11
-2.317718972e-09
-2.374502041e-08
5.540950234e-08
-7.300137796e-12
-2.230443785e-10
-5.990483277e-09
-3.103988699e-08
1.523146101e-07
-4.037586141e-11
-8.483383298e-10
-1.190423308e-08
-2.869388426e-08
3.130365533e-07
-1.827826202e-10
-2.488680892e-09
-1.900576651e-08
-1.242399916e-08
5.002493746e-07
-7.089300684e-10
-5.751844399e-09
-2.501407784e-08
1.959922363e-08
6.842337044e-07
-2.136251563e-09
-1.053719948e-08
-2.688230962e-08
7.268537695e-08
9.087703376e-07
-5.15952058e-09
-1.613462966e-08
-2.087144482e-08
1.565321539e-07
1.213100948e-06
-1.030304468e-08
-2.077389664e-08
-1.086555097e-09
2.799699091e-07
1.574301426e-06
-1.662085021e-08
-1.98713104e-08
4.265086099e-08
4.503905872e-07
1.958648762e-06
-1.687191107e-08
-1.100232368e-09
1.301229178e-07
6.897389052e-07
2.387366283e-06
1.320000499e-08
6.610822644e-08
3.020481639e-07
1.052437117e-06
2.980985827e-06
1.307673355e-07
2.444163345e-07
6.314585077e-07
1.643200209e-06
3.952633417e-06
4.350941309e-07
6.339981167e-07
1.222214099e-06
2.569151348e-06
5.372120142e-06
1.042319948e-06
1.343613246e-06
2.161408026e-06
3.85304539e-06
7.133187324e-06
2.015739018e-06
2.412993441e-06
3.430021366e-06
5.388921878e-06
8.986965016e-06
3.260558204e-06
3.724633989e-06
4.850427882e-06
6.956630381e-06
1.072946266e-05
4.54215505e-06
5.024682665e-06
6.20843824e-06
8.407858365e-06
1.2327119e-05
5.659296114e-06
6.168233349e-06
7.430067799e-06
9.793120871e-06
1.406349488e-05
6.638186387e-06
7.224026114e-06
8.668196402e-06
1.144548712e-05
1.650407081e-05
7.812954728e-06
8.573919218e-06
1.049839833e-05
1.390561079e-05
2.025766576e-05
9.76309983e-06
1.082707431e-05
1.350539878e-05
1.823761102e-05
2.660350595e-05
1.336173568e-05
1.491173964e-05
1.87715765e-05
2.509307183e-05
3.66471615e-05
1.961242415e-05
2.172566462e-05
2.796944969e-05
3.839857865e-05
5.570203617e-05
3.205718964e-05
3.614086706e-05
4.423752753e-05
5.906323261e-05
8.452911684e-05
5.797187112e-05
6.336680958e-05
7.704306103e-05
0.000101318669
0.0001396903418
0.0001163809764
0.0001265883276
0.000150675342
0.0001923998861
0.0002638407652
0.0002606674781
0.0002809788289
0.0003271675264
0.0004133664331
0.0005513850937
0.0006576514129
0.0007003180153
0.0007999968103
0.0009705193668
0.001236516066
0.001672253553
0.001755116897
0.001932228825
0.002211165591
0.002603921996
0.003327042293
0.003403907543
0.003570271597
0.003801634934
0.004094718251
0.004283712209
0.004310383166
0.004365095031
0.004430196394
0.00449148419
0.00394218708
0.003931220901
0.003904530954
0.003850496141
0.003749784046
0.002915386333
0.002878033603
0.002787333585
0.002623591833
0.002344966571
0.00141685259
0.001318411985
0.001080177091
0.0006548768154
-4.618085214e-05
-0.00127892956
-0.001456088119
-0.001822163075
-0.002281532839
-0.002653034314
-0.001890933769
-0.001870955413
-0.001820203975
-0.001733257096
-0.001610738002
-0.0008768847221
-0.0008622502629
-0.0008306997389
-0.0007847166514
-0.000726982791
-0.0003731294571
-0.0003674110063
-0.0003551334213
-0.0003373464654
-0.0003150971529
-0.0001573814362
-0.0001552623652
-0.0001506442304
-0.0001440443994
-0.0001357390312
-6.682099805e-05
-6.60358079e-05
-6.434258213e-05
-6.187274095e-05
-5.873213705e-05
-2.86830105e-05
-2.838509015e-05
-2.774236876e-05
-2.679860895e-05
-2.559360199e-05
-1.24436861e-05
-1.232879043e-05
-1.208004115e-05
-1.171337706e-05
-1.124269993e-05
-5.45522622e-06
-5.409892342e-06
-5.311618367e-06
-5.16595528e-06
-4.978882668e-06
-2.414601862e-06
-2.396410661e-06
-2.357124427e-06
-2.298397352e-06
-2.222915845e-06
-1.081821831e-06
-1.071579266e-06
-1.066537239e-06
-1.035484295e-06
-1.054011967e-06
-5.199132649e-07
-5.171705285e-07
-5.112514382e-07
-5.026009999e-07
-4.507811764e-07
-2.275227661e-07
-2.263349061e-07
-2.237437304e-07
-2.198529384e-07
-2.147078669e-07
-1.048122068e-07
-1.042813084e-07
-1.031207713e-07
-1.013754653e-07
-9.90694145e-08
-4.951770885e-08
-4.933623513e-08
-4.893958889e-08
-4.834275799e-08
-4.755357915e-08
-2.613208838e-08
-2.603678098e-08
-2.582796886e-08
-2.551292258e-08
-2.5094907e-08
-1.391774941e-08
-1.386358437e-08
-1.374496932e-08
-1.356588627e-08
-1.332807658e-08
-7.4223105e-09
-7.388477499e-09
-7.314446589e-09
-7.202879391e-09
-7.055145585e-09
-3.839515323e-09
-3.816492822e-09
-3.766264432e-09
-3.69089894e-09
-3.591719667e-09
-1.748126019e-09
-1.731844971e-09
-1.696437893e-09
-1.64361917e-09
-1.574686373e-09
-4.47487083e-10
-4.361268918e-10
-4.115250049e-10
-3.750793568e-10
-3.279865467e-10
4.042705128e-10
4.11646829e-10
4.275344536e-10
4.508423416e-10
4.805285807e-10
9.7494496e-10
9.790362545e-10
9.877505785e-10
1.000293998e-09
1.015822645e-09
1.354921492e-09
1.356369079e-09
1.359329162e-09
1.36327458e-09
1.367558546e-09
1.596716932e-09
1.596129788e-09
1.594665704e-09
1.592024236e-09
1.587739592e-09
1.737031673e-09
1.734956256e-09
1.730267076e-09
1.722843884e-09
1.712374666e-09
1.799591009e-09
1.796506552e-09
1.78963455e-09
1.778992229e-09
1.764393439e-09
1.809730164e-09
1.80603107e-09
1.7978389e-09
1.785268858e-09
1.768231183e-09
1.778537901e-09
1.774537806e-09
1.765705425e-09
1.752220855e-09
1.734065599e-09
1.764330843e-09
1.760267432e-09
1.751309646e-09
1.737669597e-09
1.719369043e-09
-1.03956063e-08
-3.02637804e-08
2.066530789e-08
2.691269895e-07
5.298117957e-07
6.817216721e-07
7.595517182e-07
1.17700486e-06
1.705567157e-06
2.080438364e-06
2.292675166e-06
2.659598371e-06
3.237064823e-06
3.806294702e-06
4.257365217e-06
4.693791539e-06
5.430303743e-06
6.809721338e-06
8.756773029e-06
1.096024734e-05
1.31181399e-05
1.499110878e-05
1.675973623e-05
1.904089785e-05
2.23980268e-05
2.763816543e-05
3.639196525e-05
4.994182631e-05
7.130890588e-05
0.0001104395131
0.000182252794
0.0003382834367
0.0006901539885
0.001487232023
0.00292762092
0.004306573143
0.004516963097
0.003638670456
0.002051474619
-0.0007417624929
-0.00276815468
-0.001514493201
-0.0006838146585
-0.0002983732209
-0.000129416809
-5.631968694e-05
-2.466033194e-05
-1.087564012e-05
-4.832124037e-06
-2.163213818e-06
-9.814629905e-07
-4.415809269e-07
-2.105143662e-07
-9.720401575e-08
-4.69152045e-08
-2.475520825e-08
-1.313422494e-08
-6.934819077e-09
-3.511356707e-09
-1.519320708e-09
-2.906200489e-10
5.036335233e-10
1.027438554e-09
1.37010939e-09
1.583430933e-09
1.703157327e-09
1.751934363e-09
1.753898292e-09
1.718916681e-09
1.704168295e-09
3.138559268e-06
5.991833511e-06
-4.005665342e-07
-1.325462767e-08
-2.634967808e-09
1.493137952e-06
3.619379241e-05
-6.601370531e-06
-3.877671987e-07
-2.054569191e-08
1.465858872e-06
3.040910764e-05
2.534856766e-05
-1.161611603e-05
-4.036920067e-07
9.385358478e-06
0.0002383354567
0.003364468322
-0.0007013643694
-3.593221077e-05
1.053830928e-05
0.0001449103646
0.00206748577
-0.0008166032047
-5.68189276e-05
8.617747029e-06
7.138761168e-05
0.0006889031419
-0.0006276987528
-5.65088193e-05
6.794389435e-06
4.534823683e-05
0.0003749094155
-0.0004277526619
-8.252322397e-05
8.743910555e-06
7.726772822e-05
0.0005577935317
0.002301590525
-0.0007849241865
1.016607901e-05
7.371624387e-05
0.0004270162579
0.003947874923
-0.001457616862
9.995189421e-06
5.603509894e-05
0.0002705724001
0.002206529219
-0.001382238007
9.198480757e-06
4.271322309e-05
0.0001874414536
0.001346688955
-0.001075546606
9.569520086e-06
4.426238397e-05
0.0001969426843
0.001089993005
0.0007440577646
1.067725873e-05
4.755609786e-05
0.0001961609478
0.000892265389
0.004672969026
1.132085427e-05
4.468299936e-05
0.0001617277398
0.0006486096219
0.00371905035
1.13581011e-05
3.931245623e-05
0.0001284346736
0.0004825995909
0.002668164464
1.133775088e-05
3.549330319e-05
0.0001097265882
0.0003953694663
0.002027245062
1.211466215e-05
3.663160802e-05
0.0001134262674
0.0003912888184
0.001727073733
1.426378038e-05
4.25690733e-05
0.0001305835882
0.0004212621684
0.001591786266
1.720874155e-05
4.82699036e-05
0.0001393531428
0.000416679541
0.001431102257
1.989223738e-05
5.164247179e-05
0.0001392851453
0.0003938496753
0.00128597141
2.20865343e-05
5.327217406e-05
0.0001363017041
0.0003723694977
0.001180933219
2.39300286e-05
5.460144231e-05
0.0001347557802
0.000359876626
0.00111616862
2.586003369e-05
5.727234483e-05
0.0001381092878
0.0003620689085
0.001093704288
2.888161336e-05
6.323793979e-05
0.0001500012946
0.0003852886146
0.001122506168
3.389440136e-05
7.367374228e-05
0.0001716491002
0.0004309170847
0.001208444443
4.174249409e-05
9.162174533e-05
0.0002042402594
0.0005020068786
0.001361595243
5.467846019e-05
0.0001150885783
0.0002531432902
0.0006125023991
0.001612012964
7.441019068e-05
0.0001494897268
0.0003301086528
0.0007893523832
0.002003627368
0.0001055783832
0.0002095884115
0.0004582435106
0.001078777125
0.0025889866
0.0001672394354
0.0003158819823
0.0006818354729
0.001552556818
0.00339861699
0.0002630829117
0.0005162214526
0.001082489272
0.002300059225
0.004380716858
0.0004809693929
0.0009099514107
0.001788228234
0.003359669781
0.005312341242
0.0009537450714
0.001673513976
0.002905843944
0.004556053455
0.005792587114
0.001933216449
0.002950541288
0.004253286961
0.005392756598
0.005392127322
0.003447862356
0.004361927815
0.005137861682
0.005293736941
0.003703027344
0.004593323152
0.004931890704
0.004896694929
0.0039283217
9.368253043e-05
0.004502850496
0.004271328215
0.003454424979
0.0009708561514
-0.003913209712
0.003397797422
0.002609303301
0.0006284513548
-0.003298132462
-0.003953173109
0.001461842259
-0.0003892415169
-0.003313596937
-0.00374766282
-0.002699870507
-0.001873048799
-0.003385977221
-0.003148101516
-0.002346713293
-0.001645308046
-0.002668348821
-0.002247585454
-0.001743628891
-0.001289373573
-0.0009245167449
-0.001360402657
-0.001110105032
-0.0008700259379
-0.0006604358807
-0.0004891511248
-0.0006189830803
-0.0005143411761
-0.0004138410259
-0.0003239763824
-0.0002478457136
-0.0002735123357
-0.0002324790643
-0.0001920453267
-0.0001546811149
-0.0001218644272
-0.0001200289357
-0.000104108363
-8.799419897e-05
-7.264586396e-05
-5.872129667e-05
-5.273519635e-05
-4.651825439e-05
-4.008342792e-05
-3.379058458e-05
-2.79195982e-05
-2.326674977e-05
-2.081515872e-05
-1.822484761e-05
-1.563803755e-05
-1.316956602e-05
-1.032636764e-05
-9.346369083e-06
-8.2938042e-06
-7.223292103e-06
-6.182330006e-06
-4.612583754e-06
-4.215237227e-06
-3.783210648e-06
-3.33723978e-06
-2.904863592e-06
-2.073630031e-06
-1.909839309e-06
-1.734708758e-06
-1.549601911e-06
-1.359727024e-06
-9.396190762e-07
-8.781188773e-07
-7.972411087e-07
-7.219129041e-07
-6.386798372e-07
-4.310260321e-07
-4.005775486e-07
-3.854109441e-07
-3.495200893e-07
-3.139319418e-07
-2.041551613e-07
-1.920244121e-07
-1.781201805e-07
-1.630339884e-07
-1.471956221e-07
-9.43682659e-08
-8.893132879e-08
-8.256130835e-08
-7.536419818e-08
-6.965690175e-08
-4.594067962e-08
-4.406796076e-08
-4.186214429e-08
-3.936364426e-08
-3.662062741e-08
-2.423695271e-08
-2.32344256e-08
-2.204839942e-08
-2.070214572e-08
-1.92264774e-08
-1.284028837e-08
-1.227022808e-08
-1.159788175e-08
-1.083948223e-08
-1.001639621e-08
-6.754218979e-09
-6.405401084e-09
-5.99907045e-09
-5.548179567e-09
-5.069195669e-09
-3.392086995e-09
-3.164516289e-09
-2.905123239e-09
-2.625133409e-09
-2.338038831e-09
-1.437964815e-09
-1.285682721e-09
-1.117223394e-09
-9.41959795e-10
-7.71041131e-10
-2.361761943e-10
-1.369134754e-10
-3.132937837e-11
7.228659979e-11
1.648257212e-10
5.36953871e-10
5.951330773e-10
6.529090061e-10
7.035128809e-10
7.397768603e-10
1.043850705e-09
1.069656431e-09
1.090547771e-09
1.101265707e-09
1.096412157e-09
1.373225322e-09
1.373946033e-09
1.36679623e-09
1.347899164e-09
1.313401277e-09
1.576508828e-09
1.558567481e-09
1.530950852e-09
1.490972594e-09
1.43606867e-09
1.689064448e-09
1.658025941e-09
1.616371391e-09
1.562395013e-09
1.494562672e-09
1.73312108e-09
1.693667489e-09
1.643310522e-09
1.581109222e-09
1.506319611e-09
1.732371528e-09
1.688309608e-09
1.633527254e-09
1.567657971e-09
1.490530506e-09
1.69622948e-09
1.650461545e-09
1.594466892e-09
1.528280824e-09
1.452122051e-09
1.681419499e-09
1.635905438e-09
1.580707676e-09
1.516081132e-09
1.44245882e-09
-7.67425207e-11
-7.000349085e-13
-1.915220423e-14
-1.286996856e-15
-1.6712113e-16
-2.592057511e-17
-4.029744648e-18
-6.464615801e-19
-1.179457e-19
-2.795460172e-20
-9.015294307e-21
-3.606400891e-21
-1.597780014e-21
-7.352690049e-22
-3.419230139e-22
-1.58922381e-22
-7.358323777e-23
-3.394595175e-23
-1.564495728e-23
-7.235205143e-24
-3.378558152e-24
-1.605807348e-24
-7.842910598e-25
-3.976453077e-25
-2.111770146e-25
-1.18034161e-25
-6.929431754e-26
-4.234732309e-26
-2.658563044e-26
-1.691226025e-26
-1.07800984e-26
-6.834711098e-27
-4.294821412e-27
-2.67272887e-27
-1.647742457e-27
-1.005845041e-27
-6.062530163e-28
-3.588085003e-28
-2.070201824e-28
-1.156083752e-28
-6.215423133e-29
-3.209345459e-29
-1.592962904e-29
-7.628964407e-30
-3.545428829e-30
-1.609175167e-30
-7.1763035e-31
-3.159839581e-31
-1.378165375e-31
-5.96269419e-32
-2.557695648e-32
-1.084820152e-32
-4.523457987e-33
-1.834820882e-33
-7.096191853e-34
-2.511967594e-34
-7.402798786e-35
-1.463128066e-35
-9.825491403e-37
-7.918093498e-39
-4.673629441e-10
-7.169149704e-12
-3.193981382e-13
-3.185802819e-14
-4.810512352e-15
-8.151413518e-16
-1.438346225e-16
-3.008601779e-17
-8.091955834e-18
-2.72712189e-18
-1.029012187e-18
-4.07630716e-19
-1.642412999e-19
-6.674119615e-20
-2.729348144e-20
-1.124006797e-20
-4.669949098e-21
-1.961265034e-21
-8.350178773e-22
-3.616083112e-22
-1.600296624e-22
-7.284212661e-23
-3.438651967e-23
-1.698789066e-23
-8.854203263e-24
-4.887651545e-24
-2.848529154e-24
-1.734660978e-24
-1.087831438e-24
-6.922320673e-25
-4.417541088e-25
-2.806114252e-25
-1.768059733e-25
-1.104271175e-25
-6.839966069e-26
-4.199793365e-26
-2.548429662e-26
-1.519130295e-26
-8.827262374e-27
-4.962370538e-27
-2.68416327e-27
-1.393785283e-27
-6.955814178e-28
-3.349876603e-28
-1.566130373e-28
-7.155221874e-29
-3.214116284e-29
-1.426355575e-29
-6.272676281e-30
-2.736740524e-30
-1.183707763e-30
-5.061347199e-31
-2.127031943e-31
-8.690616518e-32
-3.382134367e-32
-1.203467719e-32
-3.574490657e-33
-7.253847688e-34
-5.819054121e-35
-8.005113667e-37
-4.847115197e-09
-5.23569535e-11
-1.743674989e-12
-2.009591504e-13
-3.682460986e-14
-8.193245132e-15
-2.100627751e-15
-6.698193062e-16
-2.49335983e-16
-1.009357587e-16
-4.125045047e-17
-1.674098744e-17
-6.649440969e-18
-2.59288028e-18
-9.946705542e-19
-3.781191696e-19
-1.435774732e-19
-5.492882754e-20
-2.136166785e-20
-8.508527593e-21
-3.495061081e-21
-1.490556668e-21
-6.652748691e-22
-3.134196056e-22
-1.570563413e-22
-8.401096229e-23
-4.779455204e-23
-2.859699519e-23
-1.771862404e-23
-1.119266443e-23
-7.11905073e-24
-4.523298267e-24
-2.860143211e-24
-1.798188937e-24
-1.124299013e-24
-6.984187059e-25
-4.294310613e-25
-2.59555776e-25
-1.529003388e-25
-8.707825728e-26
-4.76713728e-26
-2.503069985e-26
-1.262274341e-26
-6.140630676e-27
-2.900108554e-27
-1.339047864e-27
-6.083108602e-28
-2.732166128e-28
-1.21678823e-28
-5.378396584e-29
-2.357153411e-29
-1.021072297e-29
-4.344945225e-30
-1.795736031e-30
-7.05597816e-31
-2.527940409e-31
-7.559500012e-32
-1.547762051e-32
-1.317696669e-33
-2.158332067e-35
-3.483425157e-07
-2.514328751e-09
-2.144060893e-11
-1.040319218e-12
-1.984608983e-13
-5.987984845e-14
-2.176964759e-14
-8.950168479e-15
-3.92254482e-15
-1.756454134e-15
-7.772355469e-16
-3.363281892e-16
-1.409808931e-16
-5.730307851e-17
-2.256357142e-17
-8.653602979e-18
-3.247570486e-18
-1.203738272e-18
-4.449520705e-19
-1.660299745e-19
-6.329267854e-20
-2.494555705e-20
-1.028359866e-20
-4.486005771e-21
-2.092190934e-21
-1.049232178e-21
-5.648674564e-22
-3.23183693e-22
-1.934632329e-22
-1.191926688e-22
-7.456776868e-23
-4.695314572e-23
-2.962715453e-23
-1.870852153e-23
-1.1817743e-23
-7.452327604e-24
-4.666384952e-24
-2.876423454e-24
-1.728090906e-24
-1.002882915e-24
-5.588655019e-25
-2.983772953e-25
-1.528759974e-25
-7.552398708e-26
-3.621757003e-26
-1.698261475e-26
-7.837264431e-27
-3.576800525e-27
-1.618920465e-27
-7.273899185e-28
-3.241342224e-28
-1.427855116e-28
-6.176912667e-29
-2.592627724e-29
-1.032244149e-29
-3.733785361e-30
-1.125642733e-30
-2.322789365e-31
-2.044707421e-32
-3.81809382e-34
-1.226852441e-06
-1.685183669e-08
-1.806868185e-10
-4.916661166e-12
-9.012674135e-13
-3.391786091e-13
-1.505370341e-13
-7.039409341e-14
-3.387277423e-14
-1.64642564e-14
-7.943360936e-15
-3.763498258e-15
-1.734753172e-15
-7.753209351e-16
-3.345520703e-16
-1.395375081e-16
-5.623669745e-17
-2.200945522e-17
-8.398786091e-18
-3.154709062e-18
-1.177307886e-18
-4.426210882e-19
-1.699902112e-19
-6.779020072e-20
-2.852113143e-20
-1.28363043e-20
-6.225265681e-21
-3.246717058e-21
-1.801177351e-21
-1.046436425e-21
-6.271225398e-22
-3.833543428e-22
-2.375215593e-22
-1.487859299e-22
-9.411796703e-23
-5.994079854e-23
-3.815789081e-23
-2.401248867e-23
-1.475347182e-23
-8.755824197e-24
-4.984451156e-24
-2.715059796e-24
-1.417643591e-24
-7.133286484e-25
-3.484697004e-25
-1.665428665e-25
-7.836963575e-26
-3.646877206e-26
-1.682315585e-26
-7.698968939e-27
-3.492554891e-27
-1.565852595e-27
-6.893412449e-28
-2.942881836e-28
-1.189948786e-28
-4.359574071e-29
-1.328896038e-29
-2.778173251e-30
-2.529034117e-31
-5.534130595e-33
-2.775430191e-06
-6.856553316e-08
-1.274472207e-09
-3.093659481e-11
-4.150800719e-12
-1.499829651e-12
-6.979028702e-13
-3.465920987e-13
-1.776137759e-13
-9.252430412e-14
-4.836574672e-14
-2.509581153e-14
-1.280981139e-14
-6.392465335e-15
-3.100780618e-15
-1.457300608e-15
-6.615949495e-16
-2.900364983e-16
-1.226939971e-16
-5.026809267e-17
-2.001792011e-17
-7.815894012e-18
-3.01714305e-18
-1.166744094e-18
-4.583142165e-19
-1.861746419e-19
-7.952806795e-20
-3.621663458e-20
-1.767401181e-20
-9.203180735e-21
-5.056959961e-21
-2.895921404e-21
-1.711891022e-21
-1.039061376e-21
-6.458603712e-22
-4.094989574e-22
-2.624881941e-22
-1.677651584e-22
-1.0527524e-22
-6.397626269e-23
-3.729258325e-23
-2.076446586e-23
-1.105614625e-23
-5.661923357e-24
-2.813606108e-24
-1.369322742e-24
-6.57252893e-25
-3.123610662e-25
-1.472109015e-25
-6.879272968e-26
-3.183349873e-26
-1.454303133e-26
-6.518617431e-27
-2.83189059e-27
-1.164924101e-27
-4.34227902e-28
-1.348273559e-28
-2.894329752e-29
-2.771805316e-30
-7.291865792e-32
-7.021627987e-06
-2.574404425e-07
-9.2438285e-09
-2.882568848e-10
-1.813190268e-11
-4.716832202e-12
-2.069192999e-12
-1.05125036e-12
-5.644876979e-13
-3.114417247e-13
-1.740610915e-13
-9.758792818e-14
-5.445452859e-14
-3.004714668e-14
-1.630563241e-14
-8.660861914e-15
-4.481683951e-15
-2.250607026e-15
-1.092896197e-15
-5.124557468e-16
-2.318365896e-16
-1.013860654e-16
-4.296171565e-17
-1.774218497e-17
-7.191555633e-18
-2.894453071e-18
-1.171240753e-18
-4.840749248e-19
-2.07707897e-19
-9.392435968e-20
-4.512962013e-20
-2.303763943e-20
-1.241886401e-20
-7.018925777e-21
-4.137732741e-21
-2.533584363e-21
-1.596870804e-21
-1.019455096e-21
-6.470059735e-22
-4.010713249e-22
-2.394717154e-22
-1.366601271e-22
-7.439482689e-23
-3.878438262e-23
-1.95497604e-23
-9.640966979e-24
-4.695190967e-24
-2.269460512e-24
-1.090241714e-24
-5.200762386e-25
-2.457795876e-25
-1.146319903e-25
-5.2420011e-26
-2.322188322e-26
-9.747282466e-27
-3.719087545e-27
-1.189708908e-27
-2.674595642e-28
-2.782995718e-29
-8.999950287e-31
-7.412501015e-05
-4.394658308e-06
-1.531665933e-07
-4.134051522e-09
-1.371337838e-10
-1.579968736e-11
-5.034487323e-12
-2.368339752e-12
-1.268629711e-12
-7.178867032e-13
-4.174218398e-13
-2.459482676e-13
-1.455595547e-13
-8.597837685e-14
-5.043291557e-14
-2.925632296e-14
-1.672299959e-14
-9.388766441e-15
-5.159126045e-15
-2.76427259e-15
-1.43863014e-15
-7.247148734e-16
-3.523163617e-16
-1.651587379e-16
-7.476085868e-17
-3.280837426e-17
-1.40328452e-17
-5.896551746e-18
-2.459738133e-18
-1.033695278e-18
-4.450059304e-19
-1.996985097e-19
-9.469339459e-20
-4.775066094e-20
-2.55806114e-20
-1.450264682e-20
-8.645715583e-21
-5.338279353e-21
-3.343475263e-21
-2.081544958e-21
-1.265365734e-21
-7.406013612e-22
-4.140409351e-22
-2.208602696e-22
-1.132125617e-22
-5.649326709e-23
-2.777917907e-23
-1.35628472e-23
-6.595690435e-24
-3.194281761e-24
-1.536758882e-24
-7.311846095e-25
-3.415654062e-25
-1.547321018e-25
-6.652556634e-26
-2.610640227e-26
-8.665298397e-27
-2.058804548e-27
-2.357408006e-28
-9.379618349e-30
-0.0001581713771
-1.440075539e-05
-7.348590039e-07
-3.532969966e-08
-1.074374852e-09
-6.352578327e-11
-1.211208021e-11
-4.657477193e-12
-2.359531201e-12
-1.330096766e-12
-7.88144612e-13
-4.794189999e-13
-2.956247302e-13
-1.83309451e-13
-1.136444739e-13
-7.013331029e-14
-4.293149469e-14
-2.599012022e-14
-1.551866806e-14
-9.114885014e-15
-5.251360715e-15
-2.958985088e-15
-1.626050944e-15
-8.683419613e-16
-4.490114455e-16
-2.242400299e-16
-1.079209825e-16
-5.007282453e-17
-2.247300046e-17
-9.82095923e-18
-4.217774047e-18
-1.80444738e-18
-7.834254157e-19
-3.527354024e-19
-1.677164614e-19
-8.498449332e-20
-4.593871264e-20
-2.629771412e-20
-1.565076037e-20
-9.475107099e-21
-5.727048266e-21
-3.402152637e-21
-1.956885868e-21
-1.077456442e-21
-5.663002212e-22
-2.873241542e-22
-1.428117667e-22
-7.02259539e-23
-3.435903501e-23
-1.67680263e-23
-8.158713376e-24
-3.943358289e-24
-1.879230991e-24
-8.717449524e-25
-3.853453761e-25
-1.563496565e-25
-5.420997385e-26
-1.373626326e-26
-1.755846756e-27
-8.626500624e-29
-0.0001814677257
-2.174263532e-05
-1.71175932e-06
-1.29361742e-07
-6.8162418e-09
-3.101672755e-10
-3.252134312e-11
-9.031618497e-12
-4.044969049e-12
-2.195798808e-12
-1.29823667e-12
-8.0262634e-13
-5.088482417e-13
-3.270275279e-13
-2.114305874e-13
-1.367600109e-13
-8.814282465e-14
-5.642595258e-14
-3.57853773e-14
-2.243246844e-14
-1.386452018e-14
-8.433881605e-15
-5.035859142e-15
-2.943393377e-15
-1.679024005e-15
-9.319971091e-16
-5.021015331e-16
-2.6181231e-16
-1.3177309e-16
-6.390742139e-17
-2.986292891e-17
-1.349361312e-17
-5.950596386e-18
-2.60190181e-18
-1.152386243e-18
-5.288820843e-19
-2.558724931e-19
-1.316417829e-19
-7.173582025e-20
-4.078033152e-20
-2.369048748e-20
-1.382672652e-20
-8.004540303e-21
-4.534933945e-21
-2.474888053e-21
-1.293341054e-21
-6.542616759e-22
-3.248500299e-22
-1.597594834e-22
-7.821939552e-23
-3.822629459e-23
-1.863519953e-23
-9.012244359e-24
-4.271255607e-24
-1.942642351e-24
-8.17954831e-25
-2.979582662e-25
-8.121416502e-26
-1.175821707e-26
-7.131407043e-28
-0.0002049569836
-2.85018708e-05
-3.373511325e-06
-3.070655573e-07
-2.678353933e-08
-1.479855581e-09
-1.06362102e-10
-1.886612446e-11
-6.848912127e-12
-3.438414361e-12
-1.982943508e-12
-1.226588193e-12
-7.896861225e-13
-5.203677554e-13
-3.472395322e-13
-2.329486476e-13
-1.56312585e-13
-1.045000843e-13
-6.945618329e-14
-4.578455165e-14
-2.986093571e-14
-1.922567993e-14
-1.21913186e-14
-7.595769798e-15
-4.638349538e-15
-2.768997383e-15
-1.612065808e-15
-9.131653166e-16
-5.021241708e-16
-2.674308652e-16
-1.377245843e-16
-6.848376669e-17
-3.286735378e-17
-1.527152776e-17
-6.933986314e-18
-3.127179842e-18
-1.429709805e-18
-6.756592618e-19
-3.348683479e-19
-1.748006356e-19
-9.535109777e-20
-5.340952586e-20
-3.020971677e-20
-1.705424703e-20
-9.509039174e-21
-5.162789803e-21
-2.703865008e-21
-1.370149349e-21
-6.795774642e-22
-3.335896743e-22
-1.632115328e-22
-7.979597058e-23
-3.889252644e-23
-1.871994367e-23
-8.730615569e-24
-3.813755024e-24
-1.464653008e-24
-4.323714658e-25
-7.177891592e-26
-5.361731275e-27
-0.0006338003724
-9.359673994e-05
-1.286045554e-05
-1.094018803e-06
-1.123727191e-07
-9.329204822e-09
-5.747590936e-10
-5.552217804e-11
-1.290025569e-11
-5.35820357e-12
-2.885412805e-12
-1.747803486e-12
-1.127236204e-12
-7.535535594e-13
-5.138757704e-13
-3.544200473e-13
-2.456779675e-13
-1.702910537e-13
-1.176154443e-13
-8.073226031e-14
-5.493161696e-14
-3.696377531e-14
-2.454517284e-14
-1.604933584e-14
-1.031073591e-14
-6.493492209e-15
-3.999805469e-15
-2.404461624e-15
-1.407704514e-15
-8.010998015e-16
-4.424047127e-16
-2.367785943e-16
-1.226970651e-16
-6.155894003e-17
-2.996482476e-17
-1.423117438e-17
-6.659424802e-18
-3.113775165e-18
-1.480362401e-18
-7.272730331e-19
-3.728990868e-19
-1.991216563e-19
-1.092350475e-19
-6.059063313e-20
-3.359296603e-20
-1.84650152e-20
-9.967911201e-21
-5.236346813e-21
-2.665894336e-21
-1.323369091e-21
-6.483420497e-22
-3.167333632e-22
-1.547256881e-22
-7.513587062e-23
-3.570303405e-23
-1.611270066e-23
-6.523590434e-24
-2.096240021e-24
-4.030931164e-25
-3.695931727e-26
-0.001495941185
-0.0002316004641
-3.553945938e-05
-3.767502645e-06
-3.622032909e-07
-4.206515199e-08
-3.546626835e-09
-2.582323125e-10
-3.179170084e-11
-8.822569935e-12
-4.017406743e-12
-2.287123757e-12
-1.444641062e-12
-9.686511024e-13
-6.670180286e-13
-4.71255832e-13
-3.358212913e-13
-2.398887099e-13
-1.710333542e-13
-1.213321101e-13
-8.542944761e-14
-5.957188071e-14
-4.105782491e-14
-2.79116785e-14
-1.867671243e-14
-1.22743744e-14
-7.905590725e-15
-4.979305973e-15
-3.060685629e-15
-1.832767474e-15
-1.067594244e-15
-6.042742555e-16
-3.320776529e-16
-1.771369924e-16
-9.178357089e-17
-4.629581806e-17
-2.283085865e-17
-1.108754933e-17
-5.360183231e-18
-2.619344079e-18
-1.313681447e-18
-6.826225953e-19
-3.667821588e-19
-2.011338362e-19
-1.110763853e-19
-6.112723749e-20
-3.327110531e-20
-1.783995118e-20
-9.373415583e-21
-4.797394926e-21
-2.394085164e-21
-1.175346994e-21
-5.736901176e-22
-2.792182681e-22
-1.342153963e-22
-6.217531466e-23
-2.645086347e-23
-9.287364778e-24
-2.086702768e-24
-2.339078413e-25
-0.001697620306
-0.0003002640946
-5.249282835e-05
-7.83164513e-06
-8.539380711e-07
-1.144302122e-07
-1.455747889e-08
-1.364486945e-09
-1.20445059e-10
-1.816127128e-11
-5.617799376e-12
-2.695736347e-12
-1.601358454e-12
-1.056920883e-12
-7.278205475e-13
-5.20920292e-13
-3.776758357e-13
-2.754658861e-13
-2.010847674e-13
-1.463770006e-13
-1.059672429e-13
-7.612859029e-14
-5.417582567e-14
-3.81214456e-14
-2.647306992e-14
-1.810280469e-14
-1.215905972e-14
-8.000782321e-15
-5.145278268e-15
-3.227561622e-15
-1.971440155e-15
-1.171117025e-15
-6.76353043e-16
-3.798551456e-16
-2.076256776e-16
-1.106154076e-16
-5.758087444e-17
-2.940867879e-17
-1.483779938e-17
-7.472266836e-18
-3.807251652e-18
-1.987592107e-18
-1.069982988e-18
-5.910464196e-19
-3.305577568e-19
-1.845734048e-19
-1.018326219e-19
-5.523308417e-20
-2.944749775e-20
-1.542101863e-20
-7.915355197e-21
-3.97736617e-21
-1.96554626e-21
-9.617527629e-22
-4.65805103e-22
-2.200451821e-22
-9.768359731e-23
-3.737372561e-23
-9.850381318e-24
-1.350618125e-24
-0.001566223421
-0.0003252998334
-6.318192375e-05
-1.178853201e-05
-1.618615295e-06
-2.331896368e-07
-3.791710874e-08
-5.474766578e-09
-6.077178161e-10
-6.419388642e-11
-1.061652471e-11
-3.296538436e-12
-1.575939244e-12
-9.533583911e-13
-6.389937874e-13
-4.515728669e-13
-3.280917608e-13
-2.418480148e-13
-1.794498807e-13
-1.333496549e-13
-9.889181667e-14
-7.299641709e-14
-5.351533013e-14
-3.88916747e-14
-2.796487355e-14
-1.985579199e-14
-1.389092032e-14
-9.550887971e-15
-6.435012185e-15
-4.23681915e-15
-2.72074957e-15
-1.701159041e-15
-1.033973293e-15
-6.109385666e-16
-3.513938819e-16
-1.970392423e-16
-1.079980326e-16