/*--------------------------------*- C++ -*----------------------------------*\
  =========                 |
  \\      /  F ield         | OpenFOAM: The Open Source CFD Toolbox
   \\    /   O peration     | Website:  https://openfoam.org
    \\  /    A nd           | Version:  10
     \\/     M anipulation  |
\*---------------------------------------------------------------------------*/
FoamFile
{
    format      ascii;
    class       volScalarField;
    location    "3000";
    object      RR.NO2;
}
// * * * * * * * * * * * * * * * * * * * * * * * * * * * * * * * * * * * * * //

dimensions      [1 -3 -1 0 0 0 0];

internalField   nonuniform List<scalar> 
5170
(
0
0
0
0
0
0
0
0
0
0
0
0
0
0
0
0
0
0
0
0
0
0
0
0
0
0
0
0
0
0
0
0
0
0
0
0
0
0
0
0
0
0
0
0
0
0
0
0
0
0
0
0
0
0
0
0
0
0
0
0
0
0
0
0
0
0
0
0
0
0
0
0
0
0
0
7.358262433e-35
1.661978248e-34
4.046147408e-33
2.065609023e-31
3.407005716e-30
7.795888456e-30
5.350047802e-29
1.357783824e-27
6.972639623e-26
1.050334064e-24
1.210772619e-24
1.205655798e-23
4.133938627e-22
2.200985939e-20
3.254509024e-19
1.585420187e-19
2.464207606e-18
1.103592941e-16
5.959754981e-15
9.985123403e-14
1.518914761e-14
4.67869526e-13
2.750365787e-11
1.322230934e-09
3.066181269e-08
5.002101203e-07
4.893263341e-07
4.793258597e-07
4.945941151e-07
5.004329594e-07
4.04837021e-07
3.9796269e-07
3.938816354e-07
3.973231313e-07
3.979287909e-07
3.156576159e-07
3.345458677e-07
3.331270868e-07
3.295729511e-07
2.986741729e-07
2.48178683e-07
2.758632775e-07
2.782982664e-07
2.693538163e-07
2.275979324e-07
1.989115263e-07
2.295201246e-07
2.336958939e-07
2.2349318e-07
1.794863533e-07
1.635759366e-07
1.927291801e-07
1.97828337e-07
1.882825617e-07
1.46976502e-07
1.390416944e-07
1.647324926e-07
1.695834652e-07
1.6184566e-07
1.255171686e-07
1.215154586e-07
1.433631661e-07
1.477940947e-07
1.412276538e-07
1.101903355e-07
1.08729291e-07
1.265296894e-07
1.305034711e-07
1.242169953e-07
9.887249595e-08
9.932188482e-08
1.136019249e-07
1.167144316e-07
1.108257011e-07
9.075772994e-08
9.222140767e-08
1.035202377e-07
1.058560264e-07
1.008832238e-07
8.510543467e-08
8.68137198e-08
9.572744715e-08
9.739154195e-08
9.366321278e-08
8.111012282e-08
8.261334576e-08
8.964469931e-08
9.09190643e-08
8.855247482e-08
7.825568242e-08
7.938360131e-08
8.504027271e-08
8.606247344e-08
8.499968639e-08
7.617914933e-08
7.682197668e-08
8.145469767e-08
8.244932179e-08
8.263983196e-08
7.467151411e-08
7.482740272e-08
7.873139417e-08
7.975067128e-08
8.085537439e-08
7.335288414e-08
7.324136246e-08
7.656204812e-08
7.777291208e-08
7.96095594e-08
7.228730281e-08
7.224385499e-08
7.485465699e-08
7.649022531e-08
7.9060854e-08
7.168494674e-08
7.460302691e-08
7.607405168e-08
7.561257966e-08
7.837257956e-08
7.060601034e-08
-2.875297331e-06
1.060056581e-07
9.570606001e-08
4.601161356e-08
-2.842464546e-08
2.036420538e-11
1.181281768e-09
2.609541445e-07
4.965108537e-05
0.003380160734
5.217744404e-10
2.201650937e-08
2.813224906e-06
0.0002127584696
0.00347191624
4.992501208e-09
1.606130588e-07
1.295851872e-05
0.000476552088
0.003499286628
3.117342624e-08
7.990118715e-07
4.251235901e-05
0.000831084367
0.003546084165
1.46275032e-07
3.020222114e-06
0.0001058869911
0.001188452079
0.003468411783
5.723295723e-07
9.471451243e-06
0.0002192398803
0.001522231037
0.003387365135
2.06615011e-06
2.763686442e-05
0.0004136949076
0.001864514324
0.003473916108
6.934642605e-06
7.414426163e-05
0.0006932653526
0.002192970707
0.003632031359
2.121396379e-05
0.0001730553541
0.001020041983
0.002463162431
0.00370290688
5.782699065e-05
0.0003435493292
0.001352459684
0.002683210598
0.003725601491
0.0001430351826
0.0005863831455
0.001665302375
0.002888107458
0.003785233112
0.0003004200761
0.0008748633837
0.001959290422
0.003092623924
0.003867351789
0.0005470949997
0.001195576269
0.002240348339
0.003272334857
0.003894131806
0.0008919971047
0.001543638972
0.002509026016
0.003413692613
0.003859565325
0.001333504016
0.001919606544
0.002772055892
0.003535065618
0.003802777086
0.001846493412
0.002326956699
0.00304194373
0.003649583824
0.003746332612
0.002393055576
0.002758359236
0.003315593544
0.003737551223
0.003658773713
0.002914431558
0.003168783099
0.003543641823
0.003728969534
0.00348290466
0.003330989976
0.003470581453
0.003627401873
0.003567377472
0.003217816731
0.003511664544
0.003533970992
0.003488030628
0.003270207688
0.002906513165
0.003369166285
0.003316411937
0.003168692888
0.00291576347
0.002606325423
0.003010956091
0.002921166759
0.0027899916
0.002580667668
0.002318229296
0.002610776336
0.002556957892
0.002448111279
0.002298742501
0.002070134786
0.002280810383
0.002249956735
0.002188658428
0.002047923172
0.001907373832
0.002055788659
0.002042753486
0.001960338306
0.001890012695
0.001758715542
0.001912390193
0.001905200992
0.001883642252
0.00174473447
0.001609169079
0.001802157545
0.001788888403
0.00175221517
0.001606742179
0.001398771523
0.001665020454
0.001636680144
0.001562876745
0.001353957669
0.00110067792
0.001396523156
0.00134048322
0.001263445262
0.001053299791
0.000693240422
0.001027040273
0.0009716696704
0.000793879356
0.0005223821113
0.0001443348159
0.000491322596
0.0004134815381
0.0002251295361
-5.418674837e-05
-0.0002983711417
-0.0001536851158
-0.000245375281
-0.0003849888135
-0.0005292842485
-0.0007434486657
-0.0006693477309
-0.0006988518023
-0.0009189432202
-0.0007540710694
-0.0008188999478
-0.0006143297931
-0.0006105240953
-0.0006304610524
-0.0006292774117
-0.0006039197191
-0.0004285443433
-0.0004209702557
-0.0004057695488
-0.0003813172335
-0.0003474853424
-0.0002210327767
-0.0002161325239
-0.0002056396583
-0.0001904092618
-0.0001717021157
-0.0001008532705
-9.867349441e-05
-9.407049701e-05
-8.755408031e-05
-7.968260703e-05
-4.487655287e-05
-4.405934435e-05
-4.233207893e-05
-3.990846791e-05
-3.701094416e-05
-2.058491671e-05
-2.03319453e-05
-1.980940149e-05
-1.910561566e-05
-1.832874496e-05
-1.059305636e-05
-1.058889118e-05
-1.059558849e-05
-1.065008746e-05
-1.079160752e-05
-6.953815386e-06
-7.018745328e-06
-7.145764904e-06
-7.292723852e-06
-7.397038657e-06
-4.707000011e-06
-4.730309157e-06
-4.782523284e-06
-4.869432604e-06
-5.004668471e-06
-3.589092305e-06
-3.639927814e-06
-3.75356355e-06
-3.932126853e-06
-4.182756779e-06
-3.303064239e-06
-3.361483355e-06
-3.491020436e-06
-3.692458305e-06
-3.972181552e-06
-3.171188175e-06
-3.231768923e-06
-3.402183475e-06
-3.614077254e-06
-3.907157219e-06
-3.028940605e-06
-3.095282011e-06
-3.244725966e-06
-3.480736362e-06
-3.82026371e-06
-2.849962937e-06
-2.9305445e-06
-3.112106828e-06
-3.401040421e-06
-3.814220336e-06
-2.758402627e-06
-2.859776544e-06
-3.087695472e-06
-3.449508935e-06
-3.964798972e-06
-2.862533252e-06
-2.990755762e-06
-3.273511074e-06
-3.708473378e-06
-4.349397437e-06
-3.168364337e-06
-3.327016304e-06
-3.681522687e-06
-4.240546297e-06
-5.026188717e-06
-3.701465411e-06
-3.819640994e-06
-4.514016834e-06
-5.019334884e-06
-6.126102233e-06
-4.729763308e-06
-4.962128e-06
-5.480396683e-06
-6.290937566e-06
-7.143445755e-06
-5.962865287e-06
-6.242203006e-06
-6.865036651e-06
-7.837118709e-06
-9.189789974e-06
-7.815278946e-06
-8.155044519e-06
-8.911791706e-06
-1.009129074e-05
-1.172961188e-05
-1.055264169e-05
-1.09684595e-05
-1.189417185e-05
-1.333505641e-05
-1.533255161e-05
-1.445718489e-05
-1.496713285e-05
-1.61010979e-05
-1.786324814e-05
-2.030051354e-05
-1.981079572e-05
-2.043304606e-05
-2.181559591e-05
-2.395992193e-05
-2.691766122e-05
-2.687896725e-05
-2.763070668e-05
-2.929855508e-05
-3.187938816e-05
-3.542752238e-05
-3.590630972e-05
-3.679875974e-05
-3.877625652e-05
-4.182800148e-05
-4.600735856e-05
-4.704514804e-05
-4.807922341e-05
-5.036637528e-05
-5.388497938e-05
-5.868227587e-05
-6.021545708e-05
-6.1374409e-05
-6.393327029e-05
-6.785621649e-05
-7.317822418e-05
-7.488916772e-05
-7.613538414e-05
-7.88808968e-05
-8.307389742e-05
-8.873132766e-05
-8.994746467e-05
-9.122086498e-05
-9.402011861e-05
-9.827750541e-05
-0.0001039878087
-0.0001035888071
-0.0001048125814
-0.0001074954998
-0.0001115570123
-0.00011696856
-0.000113479876
-0.0001145685285
-0.0001169479232
-0.0001205300744
-0.0001252651255
-0.0001168422828
-0.0001177138017
-0.0001196100671
-0.0001224432208
-0.0001261472846
-0.0001111143492
-0.0001117023492
-0.0001129718466
-0.000114843069
-0.000117241005
-9.328801752e-05
-9.354999982e-05
-9.410118406e-05
-9.487747828e-05
-9.580304436e-05
-6.244505584e-05
-6.237938627e-05
-6.221129871e-05
-6.189742355e-05
-6.136839262e-05
-1.772771717e-05
-1.738865295e-05
-1.662183592e-05
-1.540507575e-05
-1.368023998e-05
0.006039983093
0.004477014622
0.004369174293
0.004233454945
0.003874982191
0.003658136984
0.003785347427
0.003905022988
0.003828231548
0.0037249875
0.003715908751
0.003737432902
0.003687227775
0.003585418365
0.003485654523
0.00340271325
0.003299619247
0.003126943113
0.002894159787
0.002636963327
0.00234869073
0.002109163079
0.001937954368
0.001778799918
0.001632585616
0.001458774386
0.001188974208
0.0008331058317
0.0004004742675
-0.0001345349545
-0.0005533100441
-0.0008824075497
-0.0008378721438
-0.0005750266927
-0.0003212663888
-0.0001581201582
-7.403329618e-05
-3.497372349e-05
-1.785987016e-05
-1.097246018e-05
-7.437838783e-06
-5.146045749e-06
-4.409176851e-06
-4.222207702e-06
-4.174604522e-06
-4.131224002e-06
-4.191324829e-06
-4.431749212e-06
-4.924605734e-06
-5.726964235e-06
-6.836192774e-06
-8.127919673e-06
-1.037690527e-05
-1.316313695e-05
-1.70748953e-05
-2.241929095e-05
-2.947933277e-05
-3.848748741e-05
-4.959411198e-05
-6.277646358e-05
-7.769224647e-05
-9.349802344e-05
-0.0001087652466
-0.0001214617004
-0.0001291629391
-0.0001291623607
-0.0001191557405
-9.649103089e-05
-6.085566727e-05
-1.218842352e-05
0.000623104959
-7.859684887e-05
-2.601935339e-06
-4.369242498e-06
-2.627899236e-06
0.001314628854
4.990947322e-05
-6.866987287e-05
-2.95003647e-05
3.399233017e-06
0.001939742638
0.0005867985333
-0.0002783447103
-0.0001238094616
-5.363191534e-05
0.002324988021
0.0006248601062
-0.000485922964
-0.0001665111428
-0.0007749883233
0.002308248648
0.0007050033866
-0.0006687099463
-0.0001765810326
-0.0009388727525
0.002361863613
0.0009751849288
-0.0007150210321
-0.000227983432
-0.0004933939552
0.00268135291
0.001382235011
-0.0006617484746
-0.0003707922799
-0.0003120400128
0.002924757337
0.001602847273
-0.0006809282962
-0.0005494250232
-0.0002286599923
0.002930324514
0.00163385591
-0.0005266500232
-0.0007716847713
-0.0002243024759
0.002884011359
0.001649783255
-0.0003328465845
-0.0009581141017
-0.0002733753417
0.002922567184
0.001751672123
-0.0001011142454
-0.001077162545
-0.0003641766356
0.002981761262
0.001857181805
0.0001292375035
-0.001185685075
-0.0004969740948
0.002966946854
0.00190345763
0.0003574091787
-0.00122539483
-0.0006690029081
0.002898558614
0.001892698946
0.0004805467639
-0.001177748312
-0.0008390002121
0.002834240978
0.001884145559
0.0005671991096
-0.001095978052
-0.0009760484833
0.002780112331
0.001891482619
0.0006423571202
-0.001010637917
-0.001085283785
0.002722384602
0.00189592664
0.0007054815665
-0.0009376610342
-0.001176760096
0.002615402179
0.001856551921
0.0007235808282
-0.0008833959713
-0.001257103055
0.002381826981
0.001755909266
0.0006572053706
-0.0008838687678
-0.001315537299
0.002204277351
0.001613641731
0.0005285513923
-0.0009308387525
-0.001351460255
0.002025964091
0.001456493763
0.0003741114473
-0.0009954867114
-0.001372030081
0.001864794092
0.001295729053
0.0002179957688
-0.001056901951
-0.001380106439
0.001722876749
0.001129687537
5.966681558e-05
-0.00111988298
-0.001381105056
0.001576733457
0.0009435237162
-0.0001164415137
-0.001193456173
-0.001373421787
0.001406403602
0.0007226033941
-0.000320461725
-0.001274489947
-0.001344415431
0.001193119927
0.0003308245695
-0.0005546588166
-0.001348592904
-0.001279053982
0.0008472814092
2.760053237e-05
-0.0008231394902
-0.001391598935
-0.001170737285
0.0004272300991
-0.0002781305474
-0.00108644488
-0.001361678819
-0.001021222555
-3.484922763e-05
-0.0006916150318
-0.001251470202
-0.001226443309
-0.0008420281066
-0.0007561078504
-0.001008534887
-0.001233703397
-0.001005087175
-0.0006529185786
-0.0008254236087
-0.001113566049
-0.00103913253
-0.0007548450015
-0.0004761841873
-0.0009688533209
-0.0009558446045
-0.0007591031186
-0.0005208858145
-0.000327077591
-0.0007952561489
-0.000666002916
-0.0004916771406
-0.0003309523845
-0.0002122109055
-0.0005106741636
-0.0003990228389
-0.0002874356318
-0.0001959961042
-0.0001315276963
-0.0002788623126
-0.0002139335306
-0.0001560321324
-0.0001108522513
-7.985450708e-05
-0.0001377879769
-0.000107717194
-8.18195764e-05
-6.219920005e-05
-4.931911602e-05
-6.574172809e-05
-5.360468481e-05
-4.353241306e-05
-3.65425711e-05
-3.133919686e-05
-3.202001509e-05
-2.799382973e-05
-2.518820753e-05
-2.322215656e-05
-2.003648115e-05
-1.72061777e-05
-1.6715288e-05
-1.634353778e-05
-1.490552944e-05
-1.39358019e-05
-1.112345512e-05
-1.114946938e-05
-1.060440538e-05
-1.04400058e-05
-1.113776759e-05
-7.370414319e-06
-7.402419226e-06
-7.755932789e-06
-8.600599639e-06
-1.007644831e-05
-5.345732932e-06
-5.902317914e-06
-6.759100176e-06
-8.023456523e-06
-9.881554178e-06
-4.731860816e-06
-5.47865425e-06
-6.524019973e-06
-8.005337181e-06
-1.01533582e-05
-4.581285032e-06
-5.410485204e-06
-6.587130637e-06
-8.278874848e-06
-1.074783105e-05
-4.544819663e-06
-5.477116085e-06
-6.829426443e-06
-8.795856659e-06
-1.166300001e-05
-4.575300801e-06
-5.687334581e-06
-7.274348963e-06
-9.611637654e-06
-1.298195229e-05
-4.754839934e-06
-6.087461715e-06
-8.01580328e-06
-1.078470022e-05
-1.47237454e-05
-5.13134292e-06
-6.765114552e-06
-9.09098777e-06
-1.234039038e-05
-1.691921703e-05
-5.786152047e-06
-7.766653903e-06
-1.055844363e-05
-1.445143455e-05
-1.947608937e-05
-6.778288175e-06
-9.164858988e-06
-1.255270821e-05
-1.671915953e-05
-2.284927852e-05
-7.910060055e-06
-1.095992969e-05
-1.455712535e-05
-1.996907321e-05
-2.674815971e-05
-9.98839214e-06
-1.305175502e-05
-1.775038213e-05
-2.387499226e-05
-3.208691477e-05
-1.215517921e-05
-1.609504298e-05
-2.145111743e-05
-2.863146954e-05
-3.818739941e-05
-1.531286148e-05
-2.004814124e-05
-2.645076502e-05
-3.497887479e-05
-4.624267946e-05
-1.968965109e-05
-2.541593305e-05
-3.311099803e-05
-4.328356778e-05
-5.659782103e-05
-2.559867095e-05
-3.251710493e-05
-4.174545278e-05
-5.383413476e-05
-6.948368198e-05
-3.331932475e-05
-4.161562523e-05
-5.258377361e-05
-6.679592237e-05
-8.495651419e-05
-4.306592291e-05
-5.287712439e-05
-6.571202079e-05
-8.213112556e-05
-0.0001027947261
-5.494744939e-05
-6.631195598e-05
-8.099740515e-05
-9.950655336e-05
-0.0001223953435
-6.88690028e-05
-8.166531146e-05
-9.797113559e-05
-0.000118178094
-0.0001426740937
-8.438634285e-05
-9.828006328e-05
-0.0001157095828
-0.000136906162
-0.0001620385386
-0.0001005381763
-0.000114962708
-0.0001327489108
-0.0001539320458
-0.0001784331022
-0.0001157863078
-0.0001299722481
-0.0001471317223
-0.0001670922816
-0.0001895296082
-0.0001280221562
-0.0001410739471
-0.0001565120712
-0.000173970988
-0.0001929141804
-0.0001348006887
-0.0001458113917
-0.0001584655571
-0.0001722438923
-0.0001864556997
-0.0001334541835
-0.0001416204827
-0.0001505918261
-0.0001597505366
-0.0001683239933
-0.0001217853416
-0.0001265377797
-0.0001312367524
-0.0001352311352
-0.0001377421658
-9.728045422e-05
-9.833091401e-05
-9.851736656e-05
-9.721646615e-05
-9.371134724e-05
-5.985452479e-05
-5.73668901e-05
-5.333949668e-05
-4.722725607e-05
-3.842514004e-05
-9.738241884e-06
-4.434345556e-06
2.871042856e-06
1.262433932e-05
2.530635969e-05
3.09834415e-05
4.959014782e-07
1.60942282e-08
7.049047429e-10
4.288857066e-11
2.055312891e-12
-3.522714579e-14
-1.765869789e-14
3.459504119e-15
4.170586421e-15
2.21602553e-15
9.078793808e-16
2.7209004e-16
9.511070437e-18
-7.805420702e-17
-9.243341046e-17
-8.073748351e-17
-6.289187032e-17
-4.632775041e-17
-3.312412913e-17
-2.331714473e-17
-1.630298509e-17
-1.138962812e-17
-7.981552584e-18
-5.62158203e-18
-3.978674971e-18
-2.822895257e-18
-2.000013226e-18
-1.408825366e-18
-9.829548967e-19
-6.776686963e-19
-4.612660025e-19
-3.101396807e-19
-2.062410591e-19
-1.357809255e-19
-8.846616755e-20
-5.689302535e-20
-3.594230427e-20
-2.217307338e-20
-1.328249705e-20
-7.696088476e-21
-4.306862559e-21
-2.330190746e-21
-1.222527631e-21
-6.245476162e-22
-3.120538598e-22
-1.531022972e-22
-7.398182733e-23
-3.527092646e-23
-1.659534668e-23
-7.696206704e-24
-3.507511953e-24
-1.562591191e-24
-6.73999497e-25
-2.762910224e-25
-1.034778967e-25
-3.223752002e-26
-6.735887998e-27
-4.790732156e-28
-4.052143866e-30
7.095396627e-05
6.461377385e-07
3.895656459e-08
1.157379685e-09
-9.954776011e-11
-2.735800991e-11
1.031896521e-12
3.491252052e-12
2.009225728e-12
8.953834145e-13
3.457759586e-13
1.161205009e-13
2.992580559e-14
1.540094578e-15
-5.708700363e-15
-6.122672484e-15
-4.818999877e-15
-3.420960039e-15
-2.32896118e-15
-1.560710173e-15
-1.043355956e-15
-7.011672239e-16
-4.759349153e-16
-3.270596444e-16
-2.276088833e-16
-1.600915481e-16
-1.13341198e-16
-8.033536162e-17
-5.669719322e-17
-3.966448622e-17
-2.743077387e-17
-1.87369524e-17
-1.264832262e-17
-8.449682508e-18
-5.592817714e-18
-3.666594948e-18
-2.374321702e-18
-1.510869113e-18
-9.387503525e-19
-5.66157608e-19
-3.301025501e-19
-1.858211342e-19
-1.011158956e-19
-5.336233496e-20
-2.74309641e-20
-1.379853702e-20
-6.819538962e-21
-3.321195101e-21
-1.596380261e-21
-7.57326175e-22
-3.540634266e-22
-1.62629005e-22
-7.299255658e-23
-3.170026573e-23
-1.307081179e-23
-4.91964546e-24
-1.545796435e-24
-3.329213488e-25
-2.862260913e-26
-4.298479307e-28
0.0003458923692
2.281254533e-06
-3.79346067e-08
-9.384727143e-09
-1.286088445e-09
2.104930605e-10
2.898644849e-10
1.750248828e-10
8.467729465e-11
3.67954459e-11
1.433902449e-11
4.955638875e-12
1.386387386e-12
1.986841597e-13
-1.152572099e-13
-1.496972055e-13
-1.156569102e-13
-7.73955223e-14
-4.915651814e-14
-3.077968893e-14
-1.93710058e-14
-1.237794259e-14
-8.075095363e-15
-5.388313131e-15
-3.673316757e-15
-2.548309511e-15
-1.788318178e-15
-1.260872403e-15
-8.875913693e-16
-6.208417481e-16
-4.302520488e-16
-2.951579479e-16
-2.005540783e-16
-1.351553273e-16
-9.042831869e-17
-6.002849509e-17
-3.940450005e-17
-2.542861024e-17
-1.601895875e-17
-9.788559381e-18
-5.77775497e-18
-3.2898736e-18
-1.80972079e-18
-9.651614486e-19
-5.014152512e-19
-2.550009384e-19
-1.274927893e-19
-6.28539424e-20
-3.059924243e-20
-1.47071663e-20
-6.966623954e-21
-3.2412026e-21
-1.472535107e-21
-6.46597984e-22
-2.690546447e-22
-1.019466567e-22
-3.228623074e-23
-7.047920222e-24
-6.517536439e-25
-1.215597628e-26
0.001237026717
0.0001202800259
1.076639044e-06
8.490895051e-09
1.091082733e-08
9.311671806e-09
5.75069833e-09
3.070012082e-09
1.491358606e-09
6.738179146e-10
2.812184876e-10
1.070797425e-10
3.5522192e-11
8.990019474e-12
5.004642104e-13
-1.473172605e-12
-1.460651354e-12
-1.038763868e-12
-6.598662128e-13
-4.019918901e-13
-2.430766238e-13
-1.487746123e-13
-9.318407401e-14
-6.001913602e-14
-3.974301716e-14
-2.693303429e-14
-1.85502667e-14
-1.28863949e-14
-8.968391502e-15
-6.223036259e-15
-4.293923861e-15
-2.944502298e-15
-2.008543995e-15
-1.365005923e-15
-9.250635682e-16
-6.243164775e-16
-4.176847069e-16
-2.74993921e-16
-1.767078424e-16
-1.100519988e-16
-6.613748858e-17
-3.830476184e-17
-2.141730797e-17
-1.160570194e-17
-6.125856853e-18
-3.165848625e-18
-1.608907584e-18
-8.064391446e-19
-3.991991293e-19
-1.951149184e-19
-9.400001778e-20
-4.447842505e-20
-2.05414619e-20
-9.157911682e-21
-3.860082803e-21
-1.476789471e-21
-4.721618587e-22
-1.043950877e-22
-1.01324689e-23
-2.27213003e-25
0.0004160620882
0.0006667615863
2.0881157e-05
7.552368497e-07
1.982072633e-07
1.01863177e-07
5.529756435e-08
2.896746387e-08
1.455306423e-08
7.000102806e-09
3.199708582e-09
1.375905182e-09
5.447865165e-10
1.908540658e-10
5.253333431e-11
5.316712321e-12
-7.016382258e-12
-7.801671173e-12
-5.787661022e-12
-3.758589674e-12
-2.313604711e-12
-1.405245652e-12
-8.612690987e-13
-5.395486593e-13
-3.469188601e-13
-2.284970856e-13
-1.532548187e-13
-1.039334692e-13
-7.082632498e-14
-4.828639138e-14
-3.286137152e-14
-2.232051498e-14
-1.515461302e-14
-1.030914891e-14
-7.037471813e-15
-4.814241542e-15
-3.281582295e-15
-2.208358384e-15
-1.452259416e-15
-9.253082317e-16
-5.682427989e-16
-3.358748111e-16
-1.914629793e-16
-1.057375175e-16
-5.690028263e-17
-3.000117806e-17
-1.556409926e-17
-7.964050946e-18
-4.023069754e-18
-2.005330654e-18
-9.846370297e-19
-4.746335685e-19
-2.232184579e-19
-1.012599641e-19
-4.33575329e-20
-1.68101778e-20
-5.443433067e-21
-1.225184106e-21
-1.247744677e-22
-3.469115915e-24
-0.001242842967
0.001712645592
0.0002346324515
1.016609305e-05
1.603670578e-06
6.444232199e-07
3.241641444e-07
1.689658062e-07
8.794393827e-08
4.507116567e-08
2.250666944e-08
1.084024245e-08
4.974550082e-09
2.138829937e-09
8.347962683e-10
2.754322872e-10
5.842789182e-11
-1.218235543e-11
-2.662353083e-11
-2.319952506e-11
-1.637659519e-11
-1.062763886e-11
-6.675996376e-12
-4.182383818e-12
-2.652392354e-12
-1.713005545e-12
-1.123914425e-12
-7.450633578e-13
-4.961185258e-13
-3.305950772e-13
-2.201729763e-13
-1.466905873e-13
-9.80361011e-14
-6.597311001e-14
-4.485696619e-14
-3.081740122e-14
-2.126934861e-14
-1.458807783e-14
-9.819588291e-15
-6.41540701e-15
-4.037837213e-15
-2.441354081e-15
-1.420179017e-15
-7.989528049e-16
-4.378664985e-16
-2.354273952e-16
-1.247776496e-16
-6.532296991e-17
-3.377787229e-17
-1.722817605e-17
-8.647040836e-18
-4.255584534e-18
-2.041140412e-18
-9.434978799e-19
-4.114420117e-19
-1.624977487e-19
-5.371163571e-20
-1.247128762e-20
-1.354899107e-21
-4.781239505e-23
-0.001600775906
0.0008867792595
0.001077316686
8.46170502e-05
8.19805736e-06
2.472267771e-06
1.155651815e-06
6.041197608e-07
3.253154181e-07
1.758362569e-07
9.418231884e-08
4.954926404e-08
2.539077692e-08
1.2551813e-08
5.906827044e-09
2.588411102e-09
1.009907422e-09
3.103620278e-10
3.337663065e-11
-5.439874173e-11
-6.664777576e-11
-5.466147214e-11
-3.892042144e-11
-2.602273399e-11
-1.696301906e-11
-1.102117406e-11
-7.202902344e-12
-4.74176285e-12
-3.131367133e-12
-2.065129176e-12
-1.356314467e-12
-8.875409259e-13
-5.807338181e-13
-3.82141341e-13
-2.54573672e-13
-1.725276137e-13
-1.187015812e-13
-8.205190603e-14
-5.618770409e-14
-3.758733467e-14
-2.429137741e-14
-1.507686243e-14
-8.977770415e-15
-5.148325215e-15
-2.86672522e-15
-1.564916395e-15
-8.433833034e-16
-4.50117918e-16
-2.378603551e-16
-1.241831398e-16
-6.383582316e-17
-3.216355011e-17
-1.577955018e-17
-7.454663296e-18
-3.323660993e-18
-1.346211293e-18
-4.595442061e-19
-1.122172576e-19
-1.340751581e-20
-6.07216233e-22
-0.0009377135851
-0.00221189233
0.002280085787
0.0004978950119
4.564804644e-05
8.407901064e-06
3.131791677e-06
1.552434511e-06
8.397573686e-07
4.671045976e-07
2.612521925e-07
1.452520192e-07
7.966894293e-08
4.282099369e-08
2.238503456e-08
1.126460627e-08
5.367093956e-09
2.347735784e-09
8.757513693e-10
2.09706907e-10
-5.460120774e-11
-1.317111073e-10
-1.31018387e-10
-1.05002292e-10
-7.628797932e-11
-5.274133798e-11
-3.560988665e-11
-2.383076594e-11
-1.589987969e-11
-1.05808194e-11
-7.002116346e-12
-4.597797392e-12
-2.996781292e-12
-1.946889974e-12
-1.269465186e-12
-8.382290547e-13
-5.6411121e-13
-3.854751417e-13
-2.642568744e-13
-1.791999595e-13
-1.186018049e-13
-7.576860013e-14
-4.643611293e-14
-2.729173672e-14
-1.548241238e-14
-8.571467885e-15
-4.676668599e-15
-2.528630402e-15
-1.356995657e-15
-7.217069142e-16
-3.790039999e-16
-1.954932934e-16
-9.830518027e-17
-4.763724895e-17
-2.181426947e-17
-9.109918726e-18
-3.23484439e-18
-8.37658462e-19
-1.110281109e-19
-6.308688897e-21
-0.0005641322122
-0.002397716925
0.0009296456163
0.001577780926
0.000228232765
2.924703367e-05
7.76368796e-06
3.353740685e-06
1.758088382e-06
9.858420131e-07
5.661319327e-07
3.269427347e-07
1.88051394e-07
1.070273697e-07
5.992759744e-08
3.279928645e-08
1.739429885e-08
8.817607993e-09
4.169590813e-09
1.743598952e-09
5.458649064e-10
6.039123769e-12
-1.971885129e-10
-2.403302758e-10
-2.164062315e-10
-1.717661188e-10
-1.272576799e-10
-9.053256878e-11
-6.28965877e-11
-4.310130806e-11
-2.924711596e-11
-1.965692559e-11
-1.307191369e-11
-8.605598211e-12
-5.624933344e-12
-3.671431447e-12
-2.413642158e-12
-1.608792856e-12
-1.083683438e-12
-7.304732744e-13
-4.87445148e-13
-3.186711815e-13
-2.018480269e-13
-1.227666396e-13
-7.156170553e-14
-4.037928383e-14
-2.233293809e-14
-1.220285176e-14
-6.613853857e-15
-3.559270398e-15
-1.89844547e-15
-9.989436969e-16
-5.145264575e-16
-2.562760497e-16
-1.210643483e-16
-5.242935622e-17
-1.949971597e-17
-5.399912525e-18
-8.023286939e-19
-5.617838023e-20
-0.0003476055599
-0.001581823588
-0.001926006795
0.002605657167
0.0007899559781
9.877871363e-05
1.893689529e-05
6.730471377e-06
3.291796717e-06
1.823737909e-06
1.060502573e-06
6.285810644e-07
3.745637951e-07
2.225970761e-07
1.311655718e-07
7.623215598e-08
4.344324396e-08
2.408872096e-08
1.284504879e-08
6.455518934e-09
2.932339811e-09
1.075998496e-09
1.626365156e-10
-2.34499812e-10
-3.630559594e-10
-3.631084505e-10
-3.109182316e-10
-2.454180601e-10
-1.843282799e-10
-1.340298457e-10
-9.5307599e-11
-6.665783651e-11
-4.597628195e-11
-3.130735964e-11
-2.106384222e-11
-1.402582171e-11
-9.270329087e-12
-6.11652808e-12
-4.047784792e-12
-2.685918275e-12
-1.776299843e-12
-1.163289295e-12
-7.499714989e-13
-4.718914794e-13
-2.863331459e-13
-1.667993071e-13
-9.417108758e-14
-5.21433221e-14
-2.852882573e-14
-1.547742417e-14
-8.334532638e-15
-4.446127505e-15
-2.335353999e-15
-1.193760634e-15
-5.825684325e-16
-2.627249162e-16
-1.029557647e-16
-3.073468237e-17
-5.174366171e-18
-4.393424394e-19
-0.0002368482835
-0.000934311908
-0.002750055055
0.00143113733
0.001850535103
0.0003731118245
5.44848479e-05
1.406440379e-05
5.957249219e-06
3.15793325e-06
1.828181921e-06
1.099032957e-06
6.716659719e-07
4.126375513e-07
2.530177977e-07
1.540122854e-07
9.260976104e-08
5.4699997e-08
3.154714497e-08
1.758355728e-08
9.308780111e-09
4.528109166e-09
1.865981998e-09
4.646206387e-10
-2.066621771e-10
-4.720211041e-10
-5.256383542e-10
-4.804056783e-10
-3.987991369e-10
-3.127540081e-10
-2.36455445e-10
-1.743610927e-10
-1.262155388e-10
-8.99860107e-11
-6.328984711e-11
-4.394907344e-11
-3.01347919e-11
-2.04013843e-11
-1.365319912e-11
-9.054830733e-12
-5.963197192e-12
-3.89240023e-12
-2.510828524e-12
-1.596899312e-12
-9.969815036e-13
-6.05061786e-13
-3.544636695e-13
-2.010317239e-13
-1.114608495e-13
-6.096452659e-14
-3.306492936e-14
-1.779993655e-14
-9.479495091e-15
-4.948367121e-15
-2.48829657e-15
-1.168951588e-15
-4.844544508e-16
-1.568902674e-16
-3.020483323e-17
-3.074648683e-18
-0.0001977951206
-0.0005901588956
-0.002166813593
-0.001308333278
0.002769370852
0.001090581543
0.0001920674137
3.50597085e-05
1.120636778e-05
5.291070265e-06
2.962418682e-06
1.779226491e-06
1.10363098e-06
6.94520997e-07
4.387778351e-07
2.769269639e-07
1.738081301e-07
1.079165905e-07
6.593697205e-08
3.939307138e-08
2.27912427e-08
1.257707177e-08
6.440019894e-09
2.87486123e-09
9.038811917e-10
-1.033043903e-10
-5.484399929e-10
-6.831007132e-10
-6.606235191e-10
-5.706591277e-10
-4.623470278e-10
-3.59895218e-10
-2.729350437e-10
-2.033678305e-10
-1.49586842e-10
-1.088350004e-10
-7.830787297e-11
-5.560874035e-11
-3.887249746e-11
-2.668560736e-11
-1.798410785e-11
-1.191410525e-11
-7.763413331e-12
-4.97551462e-12
-3.137269308e-12
-1.944604536e-12
-1.179227907e-12
-6.951885314e-13
-3.971553111e-13
-2.209330967e-13
-1.208252916e-13
-6.547276743e-14
-3.520081075e-14
-1.86642941e-14
-9.619713319e-15
-4.691865887e-15
-2.057166249e-15
-7.261343723e-16
-1.611202191e-16
-1.953457006e-17
-0.0002025930609
-0.0003929494327
-0.001461716808
-0.002805800187
0.0019282034
0.002096940162
0.0006195182739
0.0001099937756
2.460174496e-05
8.998737352e-06
4.525786147e-06
2.62339115e-06
1.615634172e-06
1.028890878e-06
6.603829111e-07
4.301362504e-07
2.797874177e-07
1.80739387e-07
1.153679917e-07
7.239235916e-08
4.437224876e-08
2.633245173e-08
1.491936871e-08
7.867671754e-09
3.650936401e-09
1.245246898e-09
-3.110543628e-11
-6.270515808e-10
-8.332448174e-10
-8.330851938e-10
-7.378902332e-10
-6.112842273e-10
-4.86262631e-10
-3.772150197e-10
-2.881463219e-10
-2.179471711e-10
-1.635686763e-10
-1.216841637e-10
-8.943424724e-11
-6.467126375e-11
-4.58104311e-11
-3.169203631e-11
-2.138779019e-11
-1.407294408e-11
-9.047497946e-12
-5.696583808e-12
-3.515880522e-12
-2.127871357e-12
-1.259127042e-12
-7.249820051e-13
-4.062258599e-13
-2.229382471e-13
-1.207895414e-13
-6.471907118e-14
-3.398923488e-14
-1.711864248e-14
-7.919216274e-15
-3.057614299e-15
-7.875588976e-16
-1.133959433e-16
-0.0002375068181
-0.0002796429602
-0.0009597685533
-0.002685681189
-0.0005396356596
0.002702851859
0.001348218348
0.0003743629718
7.303786822e-05
1.806387093e-05
6.843600579e-06
3.459637021e-06
2.024182128e-06
1.273929133e-06
8.193724348e-07
5.421052027e-07
3.597900118e-07
2.381756046e-07
1.564150022e-07
1.013941733e-07
6.453438843e-08
4.006515007e-08
2.403681341e-08
1.372401154e-08
7.244387188e-09
3.303096473e-09
1.015881564e-09
-2.16377926e-10
-7.968461539e-10
-9.941581607e-10
-9.835019975e-10
-8.747029718e-10
-7.326844742e-10
-5.922045341e-10
-4.687977482e-10
-3.668773624e-10
-2.852622271e-10
-2.206419699e-10
-1.694482498e-10
-1.28685285e-10
-9.614951946e-11
-7.028568445e-11
-5.003271998e-11
-3.456595286e-11
-2.314757879e-11
-1.504689715e-11
-9.51704304e-12
-5.873368821e-12
-3.549166321e-12
-2.101369033e-12
-1.21666471e-12
-6.874705983e-13
-3.80090024e-13
-2.065686431e-13
-1.102431815e-13
-5.702160183e-14
-2.765878233e-14
-1.164898009e-14
-3.494756483e-15
-5.995346259e-16
-0.0002914356515
-0.0002145307204
-0.0006196356552
-0.001959560823
-0.002576217276
0.001998127187
0.002127982658
0.000886893037
0.0002563975185
5.374575462e-05
1.301406397e-05
4.583300395e-06
2.192790866e-06
1.262477563e-06
7.879928065e-07
5.124457618e-07
3.397321372e-07
2.26786838e-07
1.511696624e-07
9.996885656e-08
6.519755992e-08
4.16583076e-08
2.585344894e-08
1.538006782e-08
8.567448632e-09
4.24945153e-09
1.611783181e-09
8.745187122e-11
-7.15591384e-10
-1.065995787e-09
-1.147073789e-09
-1.08204786e-09
-9.500958394e-10
-7.991995406e-10
-6.555115106e-10
-5.303045987e-10
-4.261674926e-10
-3.413199005e-10
-2.723382969e-10
-2.158295889e-10
-1.690956189e-10
-1.30251333e-10
-9.807611921e-11
-7.180639105e-11
-5.08786094e-11