/*--------------------------------*- C++ -*----------------------------------*\
  =========                 |
  \\      /  F ield         | OpenFOAM: The Open Source CFD Toolbox
   \\    /   O peration     | Website:  https://openfoam.org
    \\  /    A nd           | Version:  10
     \\/     M anipulation  |
\*---------------------------------------------------------------------------*/
FoamFile
{
    format      ascii;
    class       volScalarField;
    location    "3000";
    object      RR.O2;
}
// * * * * * * * * * * * * * * * * * * * * * * * * * * * * * * * * * * * * * //

dimensions      [1 -3 -1 0 0 0 0];

internalField   nonuniform List<scalar> 
5170
(
0
0
0
0
0
0
0
0
0
0
0
0
0
0
0
0
0
0
0
0
0
0
0
0
0
0
0
0
0
0
0
0
0
0
0
0
0
0
0
0
0
0
0
0
0
0
0
0
0
0
0
0
0
0
0
0
0
0
0
0
0
0
0
0
0
0
0
0
0
0
0
0
0
0
0
0
0
0
0
0
0
0
0
0
0
0
-7.757703176e-13
-6.392314934e-12
-5.635090711e-11
-2.49011999e-10
-1.065955061e-10
-4.868776158e-10
-4.021379079e-09
-4.117107844e-08
-2.283979486e-07
-4.123323424e-08
-2.767885175e-07
-2.854494702e-06
-3.463446437e-05
-0.0004294226249
-0.2989954269
-0.2499207316
-0.2300477779
-0.2584942492
-0.2986198381
-0.1497041584
-0.155006004
-0.1499221532
-0.1557729223
-0.1410824954
-0.08068091378
-0.09853567692
-0.09858830835
-0.09306969569
-0.0706845122
-0.04807728347
-0.06262814502
-0.06500227808
-0.06074798878
-0.0401857842
-0.03060283536
-0.04236847651
-0.04441234655
-0.04167876685
-0.0249249361
-0.02032251922
-0.02949541941
-0.03141207542
-0.02930728402
-0.0160529723
-0.0140639475
-0.02122234331
-0.022754602
-0.02082105574
-0.01057812232
-0.009896849384
-0.01545290994
-0.01669056519
-0.01435519044
-0.006842890774
-0.007001915862
-0.01113834421
-0.01208628657
-0.009488827484
-0.004341517552
-0.004964695152
-0.007995928852
-0.008591470549
-0.006174215355
-0.002747837891
-0.003503886195
-0.005678334909
-0.006010990485
-0.004002690768
-0.001743034856
-0.002454780621
-0.003993263118
-0.004143247369
-0.002576682973
-0.00109340956
-0.001696185184
-0.002770649431
-0.002815689581
-0.0016313228
-0.0006595690157
-0.001147573938
-0.001895768495
-0.001878552914
-0.0009907209732
-0.0003574238193
-0.0007447906227
-0.001262796096
-0.001214005429
-0.0005431967104
-0.0001369576611
-0.0004453057228
-0.0008033950651
-0.0007386185953
-0.0002241844268
2.743810112e-05
-0.0002186020905
-0.0004652907809
-0.0003914966223
1.204446866e-05
0.000157556049
-8.734571503e-05
-0.0002224495275
-0.0001275109026
0.0002005667747
0.0002709632395
-0.004808874061
-0.001255354159
-0.0001901653632
0.0003132262276
0.0003603438198
-2.500748809
-0.1802993883
-0.02319022475
-0.002737864074
-0.0002361211413
-2.196193787e-06
-2.193552722e-05
-0.0005504572822
-0.02360354723
-0.8512643286
-1.021861411e-05
-8.571262972e-05
-0.001466876884
-0.02652803625
-0.3748238129
-2.838763585e-05
-0.0002098042594
-0.0027804726
-0.03060068846
-0.2471417143
-6.32723543e-05
-0.0004222323284
-0.004542336605
-0.03609230911
-0.1928604729
-0.000121733708
-0.0007374429008
-0.006509247004
-0.03998612886
-0.1565784061
-0.0002147650588
-0.001177503963
-0.008675968703
-0.04363466721
-0.1398049685
-0.0003741527155
-0.001876751876
-0.01170938356
-0.04983739328
-0.1432846578
-0.0006543534223
-0.003014345336
-0.0157736638
-0.05694401105
-0.1491337202
-0.001138125799
-0.004721314701
-0.02037829209
-0.06211865827
-0.1473422593
-0.001939677722
-0.007060571833
-0.0252155539
-0.06674572503
-0.1474968209
-0.003297406771
-0.0100604893
-0.03020200172
-0.07229936085
-0.1525782098
-0.005288855797
-0.01351497988
-0.03527107719
-0.07813627286
-0.1577701386
-0.008047847582
-0.01746978997
-0.04043658285
-0.08299682216
-0.1590653102
-0.01185887035
-0.0221701769
-0.0459820955
-0.08788223387
-0.1597927906
-0.01725708202
-0.02812899454
-0.05266133495
-0.09512635265
-0.1634896066
-0.02482114124
-0.03601394402
-0.06112811079
-0.1050252143
-0.1708978008
-0.0349640217
-0.04620999905
-0.07143445276
-0.1165042753
-0.1781166864
-0.04690219272
-0.05777185219
-0.08349893433
-0.1253356403
-0.178644687
-0.05977252453
-0.07038943528
-0.09398829144
-0.1280650546
-0.1744421522
-0.07095045305
-0.07983896299
-0.09843764154
-0.1260800643
-0.1706061221
-0.0757064071
-0.08258156976
-0.09779392212
-0.1243506942
-0.1731925075
-0.07538493227
-0.08143472952
-0.09760176545
-0.1276558365
-0.1791302156
-0.07608775364
-0.08353907696
-0.1022258753
-0.1366692061
-0.1913439279
-0.08244340721
-0.09165454701
-0.1146588728
-0.1515309792
-0.221476032
-0.09793615192
-0.1097487237
-0.1327775335
-0.1822109285
-0.2564843195
-0.1260548949
-0.141133022
-0.1784793884
-0.2274230972
-0.3171497307
-0.1736552149
-0.1932037318
-0.2388422181
-0.3119149365
-0.4338375615
-0.2518877273
-0.2779477149
-0.3413535239
-0.4293237228
-0.5923741295
-0.3714868982
-0.403139872
-0.5050499467
-0.6596327602
-0.8942415018
-0.5936988551
-0.6553925961
-0.7685957225
-0.9706332299
-1.306090376
-1.006554908
-1.076581013
-1.256383745
-1.564251796
-2.003454447
-1.820223937
-1.942198554
-2.215182782
-2.657595082
-3.392681654
-3.454848865
-3.647767136
-4.110679376
-4.784932888
-5.88453348
-6.556105617
-6.827554767
-7.437165811
-8.4028422
-9.742086219
-10.96095751
-11.20129787
-11.70602779
-12.44281433
-13.32495075
-13.03508383
-13.08975411
-13.199523
-13.28213749
-13.34256154
-10.90615522
-10.85376671
-10.74182397
-10.56480367
-10.33631307
-7.432114674
-7.389413477
-7.302973373
-7.187129746
-7.064901697
-4.756798905
-4.754880471
-4.75758996
-4.781720018
-4.855325651
-3.276963886
-3.317428458
-3.414575819
-3.586133637
-3.86236621
-2.833789052
-2.909116464
-3.077216057
-3.335693498
-3.674636701
-2.757643099
-2.82133896
-2.959354051
-3.166313856
-3.43928832
-2.725490041
-2.785336184
-2.915251518
-3.108867009
-3.360680405
-2.811409907
-2.862742259
-2.973348008
-3.136161742
-3.344395873
-2.861346842
-2.90083405
-3.014109264
-3.1361028
-3.28714845
-2.809073158
-2.83589433
-2.893285083
-2.974376703
-3.077710681
-2.592433546
-2.609251437
-2.644806149
-2.695384128
-2.757003895
-2.26132437
-2.270284134
-2.288986205
-2.315056774
-2.3457958
-1.867363793
-1.871090865
-1.878657298
-1.888743889
-1.899758956
-1.462902621
-1.463743829
-1.46524762
-1.466677794
-1.467149603
-1.09260895
-1.093116013
-1.08664225
-1.087582358
-1.038520467
-0.7589884691
-0.7577426297
-0.7548989212
-0.7503282687
-0.7746517396
-0.5292122751
-0.5282033204
-0.5259534511
-0.5224701067
-0.5177013083
-0.3571899021
-0.3564306849
-0.3547448973
-0.352152289
-0.3486266414
-0.2349965506
-0.2344706161
-0.2333078946
-0.2315288271
-0.2291249548
-0.1520056251
-0.1516693967
-0.1509270434
-0.1497944578
-0.1482698518
-0.09766801281
-0.09746687408
-0.09702333949
-0.09634731619
-0.09543832002
-0.06311715264
-0.06300416134
-0.06275465382
-0.06237384931
-0.06186086061
-0.041634144
-0.04157410863
-0.04144124438
-0.04123761328
-0.04096172946
-0.02846973959
-0.02843925755
-0.02837137313
-0.02826641459
-0.02812256304
-0.02043969007
-0.02042418092
-0.02038932845
-0.02033466507
-0.02025835724
-0.01549402574
-0.01548514471
-0.01546495892
-0.01543278865
-0.01538697863
-0.01235922343
-0.01235254348
-0.01233732308
-0.0123129573
-0.01227808546
-0.01026852585
-0.0102620189
-0.01024729067
-0.01022394022
-0.01019091884
-0.008775772808
-0.008768705128
-0.00875284889
-0.008728029804
-0.008693488939
-0.007625158612
-0.007617465517
-0.007600319244
-0.007573746854
-0.007537235795
-0.006679204813
-0.006671108928
-0.006653147314
-0.00662550422
-0.006587865
-0.005861529409
-0.00585334797
-0.00583525204
-0.005807535818
-0.005770037447
-0.005151372108
-0.005143409293
-0.005125836084
-0.005099013407
-0.005062890919
-0.004585100998
-0.004577551212
-0.004560912085
-0.004535571571
-0.004501549187
-2.208554948
-1.30982468
-0.6305744397
-0.4062305684
-0.3010329987
-0.267590945
-0.284277397
-0.2833020981
-0.2586873604
-0.2457581707
-0.2477156975
-0.2470479269
-0.2359676456
-0.2272407168
-0.2271290449
-0.2345595121
-0.2407923444
-0.2376553115
-0.2311091341
-0.2292128045
-0.2272780424
-0.2387736604
-0.2677583595
-0.2937338313
-0.3453304732
-0.4239553951
-0.5745089033
-0.7764392596
-1.083075879
-1.621572581
-2.481369497
-4.107006084
-6.889093496
-10.84896217
-13.92281945
-13.33935059
-10.17190906
-7.007918067
-4.966503726
-4.140683183
-3.95060775
-3.670486745
-3.568883151
-3.513303934
-3.408719279
-3.159561096
-2.804965872
-2.369282153
-1.907741542
-1.467050593
-1.078962029
-0.7700105749
-0.513837239
-0.3457522499
-0.2271676113
-0.1470291917
-0.0946978837
-0.06144157371
-0.04073463022
-0.02800257782
-0.02019337408
-0.01534704018
-0.01224740947
-0.01016211508
-0.008663797578
-0.007506248651
-0.006556224904
-0.005738734988
-0.005032892342
-0.004473393432
-2.294071903
-53.41359422
-3.326754117
-0.2606260295
-0.0003832488758
-1.066535474
-10.09854335
-28.03579327
-2.182015873
-0.05058256417
-0.7298249295
-4.427639179
-54.82509042
-9.011772812
-0.2610361179
-0.4975381581
-2.363778329
-53.62104361
-22.4245478
-1.889780255
-0.3655216902
-1.660819884
-34.93989771
-39.16183677
-5.765936754
-0.3608127588
-1.584439536
-21.48973157
-59.96572575
-13.11948237
-0.4230636176
-1.642379908
-15.45887539
-76.28736893
-23.27082652
-0.4101351133
-1.327746016
-9.150228286
-77.70683427
-35.33448681
-0.3569947501
-1.025589512
-6.022558256
-55.65007449
-54.00039088
-0.3388816718
-0.9331325442
-4.965026731
-39.55246521
-72.03060326
-0.3463092839
-0.9192266497
-4.40106644
-29.45388674
-83.78468818
-0.3424078818
-0.8570060033
-3.583614274
-20.06616878
-86.99896886
-0.3197920801
-0.7443887487
-2.772786429
-13.3692164
-68.33622371
-0.3065532931
-0.682627309
-2.385697004
-10.50204726
-52.38104657
-0.3088108799
-0.6732523612
-2.231239586
-9.09487834
-41.97597108
-0.3186816107
-0.6912930796
-2.161450901
-8.127063346
-34.24852523
-0.3275460421
-0.6953300692
-2.047200146
-7.064330166
-27.17904422
-0.3250933367
-0.6737090971
-1.879996146
-6.017275521
-21.45449354
-0.3018991167
-0.6579489217
-1.775103009
-5.407983341
-18.31851334
-0.3086951275
-0.6699514093
-1.765778873
-5.18268698
-16.75882594
-0.3264021291
-0.7110950735
-1.831317331
-5.177885251
-15.90141908
-0.3461787276
-0.7758070129
-1.938136262
-5.258201418
-15.29679062
-0.3858782361
-0.8568663703
-2.067510848
-5.37498114
-14.80499324
-0.4417141973
-0.9565054825
-2.22513518
-5.543662145
-14.44860145
-0.5173330989
-1.085778076
-2.437262783
-5.835742794
-14.42052472
-0.6259309992
-1.357396779
-2.764375892
-6.383677095
-14.94750395
-0.8319043136
-1.631006959
-3.291651696
-7.335573163
-16.14366938
-1.112153525
-2.014177096
-4.127791731
-8.820916752
-17.92361801
-1.535031994
-2.740082706
-5.430317875
-10.94559216
-20.02470314
-2.352160079
-3.91347618
-7.39466808
-13.66841851
-21.93118904
-3.362876609
-5.792930982
-10.15602323
-16.60287305
-23.0029314
-5.39597675
-8.63578391
-13.49031228
-18.88883508
-22.7423228
-8.607009439
-12.26149544
-16.37830666
-19.51675723
-21.09456053
-12.50550797
-15.22820473
-17.24736597
-18.10131109
-18.53624275
-14.64726353
-15.40919921
-15.51629276
-15.32593712
-15.88676155
-13.2000304
-12.82455229
-12.39713912
-12.44454361
-13.8442887
-9.881969237
-9.535114012
-9.537968263
-10.41487253
-12.2738405
-6.925820986
-7.075621159
-7.8081335
-9.326348222
-10.47215375
-5.161646088
-5.879513671
-7.101146167
-8.189806134
-8.96004926
-4.566604107
-5.488506931
-6.339371619
-7.134224098
-7.911357958
-4.288362642
-4.941348058
-5.671957789
-6.429293934
-7.125677315
-3.975939787
-4.587593212
-5.250060022
-5.896719941
-6.452973931
-3.842527577
-4.366295918
-4.906296419
-5.404354767
-5.801418666
-3.732170188
-4.137312609
-4.535820751
-4.880588576
-5.128252138
-3.546326749
-3.829421495
-4.092987152
-4.302053478
-4.426482734
-3.249422014
-3.434011328
-3.576275836
-3.685341195
-3.727063466
-2.860449223
-2.952949998
-3.020166601
-3.048461895
-3.024544629
-2.393000735
-2.428738535
-2.443229318
-2.427466892
-2.375040291
-1.912205497
-1.91474415
-1.900738651
-1.865204335
-1.795776041
-1.462235683
-1.449816695
-1.422372646
-1.379474455
-1.32412859
-1.071661865
-1.052554013
-1.027861766
-0.9912152546
-0.9449085207
-0.7593102541
-0.7460394885
-0.6948017552
-0.6678227499
-0.6344717382
-0.5072713687
-0.4944078178
-0.4780023102
-0.4578164526
-0.4339494001
-0.3410110807
-0.3317223376
-0.3201170194
-0.3061985056
-0.290083402
-0.2239999999
-0.2178140941
-0.2101853058
-0.2011474323
-0.1907862932
-0.1450443496
-0.1411708925
-0.1364221151
-0.1308228998
-0.1244216421
-0.09352068431
-0.09121678792
-0.08839102902
-0.08505239808
-0.0812207062
-0.06077630047
-0.05946436445
-0.0578433126
-0.05591042334
-0.05366752666
-0.04037357153
-0.03965107854
-0.03874376267
-0.0376421868
-0.0363385804
-0.02781066802
-0.02741698873
-0.02690888945
-0.02627484588
-0.02550373783
-0.02008859787
-0.01986594767
-0.0195682232
-0.01918341526
-0.01869965089
-0.01528239386
-0.01514012581
-0.01494392169
-0.01468313796
-0.01434716549
-0.01219815114
-0.01208846593
-0.01193631648
-0.0117330286
-0.01146997885
-0.01011658393
-0.01001672826
-0.009880871788
-0.009702383217
-0.009474740101
-0.008617531419
-0.008518562301
-0.00838764465
-0.008220007237
-0.008011053255
-0.007458452558
-0.007358479112
-0.007229563784
-0.007068508974
-0.006872354304
-0.006507750519
-0.006408114244
-0.006282200706
-0.006128082166
-0.005944112293
-0.00569100103
-0.005594148795
-0.005473629746
-0.005328495741
-0.005158104089
-0.004987289126
-0.004895682037
-0.004783036382
-0.004649115718
-0.004493985537
-0.004430677953
-0.004345456199
-0.004241510162
-0.004119026401
-0.003978473894
0.003481140588
2.818496345e-05
7.039957242e-07
2.667151349e-08
3.971673819e-10
-3.056267796e-10
-8.733648359e-11
-1.786061048e-11
-3.237739972e-12
-5.317389725e-13
-6.830399418e-14
0
3.305485097e-15
-1.599397592e-15
-7.007600879e-15
-1.143486407e-14
-1.574925918e-14
-1.925938268e-14
-2.275270855e-14
-2.478618645e-14
-2.611500402e-14
-2.674759509e-14
-2.740879631e-14
-2.665238519e-14
-2.591132058e-14
-2.518061786e-14
-2.445831226e-14
-2.373904195e-14
-2.230007646e-14
-2.085943412e-14
-1.941698632e-14
-1.797301783e-14
-1.652813693e-14
-1.436504532e-14
-1.220376019e-14
-1.07623778e-14
-8.605733286e-15
-7.168306434e-15
-5.732358223e-15
-4.297686731e-15
-2.864161542e-15
-2.147448666e-15
-1.431198743e-15
-7.153881842e-16
-7.151743138e-16
-7.149615677e-16
0
0
0
0
0
0
0
0
0
0
0
0
0
0
0.0029008733
6.004688186e-05
2.186996626e-06
1.111113256e-07
8.120970237e-09
9.248903546e-10
2.036468301e-10
7.209231499e-11
3.03242661e-11
1.382677542e-11
6.42053097e-12
2.983979372e-12
1.367452219e-12
6.030602313e-13
2.382578013e-13
5.524147666e-14
-4.003986724e-14
-9.315810717e-14
-1.252064053e-13
-1.444668443e-13
-1.552810853e-13
-1.589376336e-13
-1.594034684e-13
-1.566438988e-13
-1.53555704e-13
-1.500241907e-13
-1.459620601e-13
-1.413102204e-13
-1.360230959e-13
-1.293444597e-13
-1.205301214e-13
-1.110163905e-13
-1.007911023e-13
-8.98504779e-14
-7.892140823e-14
-6.728260985e-14
-5.638408021e-14
-4.622540703e-14
-3.536196349e-14
-2.740106305e-14
-2.017413568e-14
-1.439897137e-14
-1.00717534e-14
-6.470015866e-15
-4.310323241e-15
-2.87162736e-15
-1.434936951e-15
-7.170804071e-16
-7.167280265e-16
-7.16403251e-16
0
0
0
0
0
0
0
0
0
0
0.004071482598
9.573804214e-05
2.709320777e-06
2.13992801e-07
4.063577099e-08
1.214536682e-08
4.396294122e-09
1.891074936e-09
8.901502454e-10
4.370214552e-10
2.118599746e-10
1.008923609e-10
4.679537785e-11
2.125098566e-11
9.424433872e-12
4.030889203e-12
1.571463443e-12
4.367629229e-13
-9.431603537e-14
-3.473973818e-13
-4.641589344e-13
-5.13448072e-13
-5.284268445e-13
-5.294124961e-13
-5.25052995e-13
-5.178816916e-13
-5.096091162e-13
-4.997698521e-13
-4.865634806e-13
-4.677654916e-13
-4.430438572e-13
-4.143097716e-13
-3.806247069e-13
-3.433382078e-13
-3.038553885e-13
-2.628907487e-13
-2.219481874e-13
-1.818111199e-13
-1.447252624e-13
-1.107017859e-13
-8.266435903e-14
-5.912566985e-14
-4.078888782e-14
-2.76212871e-14
-1.813849572e-14
-1.158957797e-14
-7.23334064e-15
-4.334876919e-15
-2.887061068e-15
-1.442415319e-15
-7.207894821e-16
-7.204288559e-16
-7.200805212e-16
0
0
0
0
0
0
0
0.01951463904
0.0007981244438
1.575087505e-05
8.369838268e-07
2.019005277e-07
8.307285241e-08
3.987325787e-08
2.062565392e-08
1.094710793e-08
5.804303563e-09
3.005267836e-09
1.514249397e-09
7.391276958e-10
3.510453465e-10
1.624238573e-10
7.358362436e-11
3.258302212e-11
1.395097547e-11
5.526605616e-12
1.721998684e-12
3.460497173e-15
-7.637172556e-13
-1.10015951e-12
-1.243560526e-12
-1.304090085e-12
-1.328989362e-12
-1.338073919e-12
-1.332060401e-12
-1.312700158e-12
-1.277254742e-12
-1.226058139e-12
-1.160813454e-12
-1.083058077e-12
-9.941150912e-13
-8.960979743e-13
-7.897917073e-13
-6.78478816e-13
-5.657627194e-13
-4.561945837e-13
-3.55109547e-13
-2.670306506e-13
-1.934064027e-13
-1.356595457e-13
-9.222734192e-14
-6.157024749e-14
-3.919979237e-14
-2.506941161e-14
-1.617384272e-14
-1.026682482e-14
-5.855743752e-15
-3.655198839e-15
-2.191479418e-15
-1.460315489e-15
-7.300463951e-16
-7.309473386e-16
0
0
0
0
0
0.01546683569
0.002860148552
0.0001047979189
3.927216366e-06
9.181933178e-07
4.397763766e-07
2.399538354e-07
1.345065179e-07
7.599752584e-08
4.273714372e-08
2.364196367e-08
1.279331052e-08
6.736829491e-09
3.452900897e-09
1.720597377e-09
8.358980417e-10
3.962703252e-10
1.841096881e-10
8.376383051e-11
3.71358231e-11
1.565247516e-11
5.79327597e-12
1.24761205e-12
-8.747860083e-13
-1.891932799e-12
-2.396773064e-12
-2.654388653e-12
-2.780917405e-12
-2.820902736e-12
-2.801443173e-12
-2.736077444e-12
-2.633771999e-12
-2.500525325e-12
-2.339703116e-12
-2.15116385e-12
-1.936492038e-12
-1.698415948e-12
-1.444264726e-12
-1.187414844e-12
-9.40965395e-13
-7.190583224e-13
-5.297217422e-13
-3.770789006e-13
-2.615819271e-13
-1.763087248e-13
-1.166866494e-13
-7.59227654e-14
-4.950463873e-14
-3.066928945e-14
-1.939311945e-14
-1.190358759e-14
-7.426206466e-15
-4.452214103e-15
-2.969564187e-15
-1.490116622e-15
-7.555684421e-16
-7.929661499e-16
0
0
0
-0.4862650749
0.009624658526
0.0007492261752
3.000022011e-05
4.441765972e-06
1.854678127e-06
1.001567707e-06
5.754224838e-07
3.381142339e-07
2.000121405e-07
1.178233768e-07
6.858008411e-08
3.921192748e-08
2.195182884e-08
1.199712956e-08
6.396005321e-09
3.32287123e-09
1.683521133e-09
8.33033188e-10
4.04220904e-10
1.926860544e-10
9.038112194e-11
4.132993009e-11
1.784868279e-11
6.450760348e-12
7.672701871e-13
-2.176081246e-12
-3.739932862e-12
-4.560954407e-12
-4.956840514e-12
-5.098553416e-12
-5.080719707e-12
-4.956632609e-12
-4.749268881e-12
-4.470515475e-12
-4.120077899e-12
-3.701715041e-12
-3.225086363e-12
-2.714953636e-12
-2.201179446e-12
-1.716954402e-12
-1.289066264e-12
-9.355344743e-13
-6.584564617e-13
-4.526492229e-13
-3.059943876e-13
-2.036435107e-13
-1.348032505e-13
-8.80450918e-14
-5.733492014e-14
-3.584171381e-14
-2.281339202e-14
-1.441667354e-14
-8.343971892e-15
-5.336777287e-15
-3.110794072e-15
-1.651567011e-15
-9.798740393e-16
0
0
-2.914728998
0.02772505578
0.003057719722
0.0002298194157
1.749137509e-05
5.32534803e-06
2.693336987e-06
1.565406678e-06
9.533369647e-07
5.912576372e-07
3.68588562e-07
2.291687108e-07
1.413204833e-07
8.608330235e-08
5.162934201e-08
3.040915748e-08
1.754444584e-08
9.897160895e-09
5.443928259e-09
2.923847221e-09
1.53511076e-09
7.907675733e-10
4.010508584e-10
2.011000074e-10
9.955871519e-11
4.804842213e-11
2.152973166e-11
7.573947224e-12
2.532960347e-14
-4.139542035e-12
-6.446981201e-12
-7.672450173e-12
-8.229631364e-12
-8.353623225e-12
-8.173065374e-12
-7.754797853e-12
-7.151277611e-12
-6.394244653e-12
-5.525800398e-12
-4.599894713e-12
-3.680452836e-12
-2.831611003e-12
-2.098057364e-12
-1.505040312e-12
-1.05324774e-12
-7.249231555e-13
-4.936978135e-13
-3.33974752e-13
-2.247893823e-13
-1.496399063e-13
-9.77315503e-14
-6.379897688e-14
-4.011608399e-14
-2.438198845e-14
-1.503538295e-14
-8.106138844e-15
-4.344945395e-15
-2.072373715e-15
0
0
-7.381339061
-0.1855096397
0.01178115335
0.001191528519
9.147534625e-05
1.501108032e-05
5.824465934e-06
3.178507739e-06
1.936198895e-06
1.230154709e-06
7.953416989e-07
5.172204479e-07
3.360770253e-07
2.172598687e-07
1.393124217e-07
8.840397925e-08
5.540169213e-08
3.423798688e-08
2.082221763e-08
1.242470634e-08
7.263047599e-09
4.157208646e-09
2.329977088e-09
1.281084232e-09
6.933663883e-10
3.705924523e-10
1.959059462e-10
1.019223097e-10
5.09368693e-11
2.273584552e-11
6.701737375e-12
-2.558883002e-12
-7.89806111e-12
-1.085079067e-11
-1.224755746e-11
-1.253249979e-11
-1.203952767e-11
-1.107895972e-11
-9.837678438e-12
-8.422955755e-12
-6.939563979e-12
-5.492455739e-12
-4.178328506e-12
-3.065646982e-12
-2.185884441e-12
-1.530071892e-12
-1.059784258e-12
-7.312710703e-13
-5.022438186e-13
-3.436770825e-13
-2.328960792e-13
-1.553694743e-13
-1.017447029e-13
-6.508914875e-14
-3.911137793e-14
-2.311119152e-14
-1.290157808e-14
-5.48763566e-15
-1.596198113e-15
0
-13.89380174
-1.307893036
0.03843451723
0.004722283005
0.0004635341084
5.000122741e-05
1.234227882e-05
5.630838638e-06
3.270516786e-06
2.076430356e-06
1.369140111e-06
9.183204395e-07
6.200688364e-07
4.189550707e-07
2.821745217e-07
1.889594689e-07
1.255713951e-07
8.267479977e-08
5.386704906e-08
3.467976496e-08
2.201029822e-08
1.374847516e-08
8.447716636e-09
5.100034783e-09
3.023362572e-09
1.761871888e-09
1.011089108e-09
5.726662894e-10
3.203177678e-10
1.759091466e-10
9.325208895e-11
4.553449564e-11
1.737582384e-11
4.477764813e-13
-9.557294731e-12
-1.483239707e-11
-1.682871657e-11
-1.670060444e-11
-1.545176165e-11
-1.368328114e-11
-1.164315339e-11
-9.527349063e-12
-7.495585845e-12
-5.673431101e-12
-4.147412463e-12
-2.95735905e-12
-2.081748232e-12
-1.457798581e-12
-1.018829931e-12
-7.111577236e-13
-4.932766834e-13
-3.392099352e-13
-2.295006511e-13
-1.509298171e-13
-9.564295786e-14
-5.815575351e-14
-3.241608329e-14
-1.516016544e-14
-3.317692594e-15
0
-21.83240292
-3.814775401
-0.03124889385
0.01443670735
0.001966360297
0.000197781652
2.897653714e-05
9.670286401e-06
5.016658676e-06
3.090625083e-06
2.044661549e-06
1.398804241e-06
9.72550517e-07
6.807466074e-07
4.770067383e-07
3.33415221e-07
2.319306068e-07
1.602963103e-07
1.099267214e-07
7.473372511e-08
5.029377574e-08
3.345384006e-08
2.195753963e-08
1.421093781e-08
9.057109649e-09
5.678662324e-09
3.501439767e-09
2.124255169e-09
1.269487414e-09
7.489522767e-10
4.365933554e-10
2.499038677e-10
1.375608089e-10
6.887832975e-11
2.707826187e-11
2.217687241e-12
-1.164742241e-11
-1.814849303e-11
-1.986912011e-11
-1.902617697e-11
-1.710954033e-11
-1.464991412e-11
-1.204074112e-11
-9.536981714e-12
-7.298176149e-12
-5.357642737e-12
-3.83742417e-12
-2.723008589e-12
-1.927217716e-12
-1.363529634e-12
-9.622937718e-13
-6.74822021e-13
-4.681691854e-13
-3.186417701e-13
-2.09551713e-13
-1.323330058e-13
-7.70803745e-14
-3.693626305e-14
-8.547834471e-15
0
-29.43663645
-7.569121178
-0.5450547376
0.03720300908
0.005724307599
0.0007564022921
8.389642783e-05
1.766805503e-05
7.409342761e-06
4.254581628e-06
2.773184434e-06
1.915452779e-06
1.361730742e-06
9.816171504e-07
7.113925279e-07
5.156664315e-07
3.727059815e-07
2.68017254e-07
1.915997042e-07
1.360166126e-07
9.578898486e-08
6.683032199e-08
4.609543961e-08
3.139470378e-08
2.109788103e-08
1.397321914e-08
9.112242908e-09
5.847887527e-09
3.692619519e-09
2.294739897e-09
1.404262507e-09
8.468193316e-10
5.024398327e-10
2.914438569e-10
1.622868826e-10
8.220443708e-11
3.299340659e-11
3.852140573e-12
-1.122993329e-11
-1.762425956e-11
-1.928175564e-11
-1.851338167e-11
-1.650345599e-11
-1.399893738e-11
-1.147197543e-11
-9.108264254e-12
-6.851739953e-12
-4.91980045e-12
-3.501814193e-12
-2.495005772e-12
-1.77734929e-12
-1.263929533e-12
-8.917580564e-13
-6.211515216e-13
-4.222530049e-13
-2.752232705e-13
-1.665869357e-13
-8.314245107e-14
-2.086536339e-14
-2.563831316e-15
-37.72316032
-12.3251588
-1.862330501
0.02644480063
0.01574127353
0.002716675
0.00033850485
4.335950373e-05
1.166254242e-05
5.611132746e-06
3.474364596e-06
2.38908942e-06
1.725083453e-06
1.274963666e-06
9.513900251e-07
7.121504202e-07
5.326161149e-07
3.96876611e-07
2.941627227e-07
2.166043887e-07
1.583015797e-07
1.146972426e-07
8.229804344e-08
5.831924388e-08
4.081977105e-08
2.818957241e-08
1.918749167e-08
1.286159909e-08
8.48569331e-09
5.5098329e-09
3.5220672e-09
2.218072743e-09
1.376640744e-09
8.410226602e-10
5.03237649e-10
2.927134611e-10
1.625845404e-10
8.385306775e-11
3.714387131e-11
9.55977205e-12
-5.560178549e-12
-1.286028369e-11
-1.559644424e-11
-1.57439331e-11
-1.446571495e-11
-1.254254638e-11
-1.051159085e-11
-8.417292677e-12
-6.32843845e-12
-4.546738229e-12
-3.22046007e-12
-2.291418121e-12
-1.629932046e-12
-1.148601956e-12
-7.960150969e-13
-5.322914493e-13
-3.329598538e-13
-1.746337267e-13
-4.555262795e-14
-5.12350989e-15
-50.47706759
-18.14666861
-4.048018438
-0.1809359778
0.03367799294
0.006700088565
0.001238911258
0.0001513512837
2.274846062e-05
7.412425522e-06
4.003761012e-06
2.6675635e-06
1.935210791e-06
1.461199448e-06
1.116971539e-06
8.632937359e-07
6.669568097e-07
5.13390668e-07
3.929897216e-07
2.987614294e-07
2.253964083e-07
1.686263661e-07
1.249753707e-07
9.15827659e-08
6.630846049e-08
4.740351262e-08
3.342593522e-08
2.322604002e-08
1.589187252e-08
1.070399725e-08
7.098808776e-09
4.639101595e-09
2.99126468e-09
1.905903527e-09
1.201296226e-09
7.485608796e-10
4.593041849e-10
2.749023435e-10
1.582642247e-10
8.628158321e-11
4.301147848e-11
1.787646155e-11
2.512918408e-12
-6.374122366e-12
-1.079704643e-11
-1.231870005e-11
-1.210476181e-11
-1.099890685e-11
-9.462178914e-12
-7.651409032e-12
-5.813681766e-12
-4.203440479e-12
-2.971683521e-12
-2.084192515e-12
-1.451654671e-12
-9.836324502e-13
-6.308104163e-13
-3.461338538e-13
-9.713208518e-14
-1.033306727e-14
-63.38255325
-24.5711383
-7.123645551
-0.844610642
0.03746781544
0.01357782509
0.003254877516
0.0005708392134
6.862353851e-05
1.171205518e-05
4.406399409e-06
2.625519162e-06
1.872762716e-06
1.432278587e-06
1.117035844e-06
8.852577737e-07
7.016194438e-07
5.543688751e-07
4.357603094e-07
3.403390757e-07
2.639434068e-07
2.031034972e-07
1.54963014e-07
1.170217834e-07
8.748008312e-08
6.466264517e-08
4.719548998e-08
3.396743903e-08
2.408218911e-08
1.680884489e-08
1.154964594e-08
7.819145651e-09
5.224564604e-09
3.453599809e-09
2.265462481e-09
1.478958262e-09
9.629756389e-10
6.252740708e-10
4.033267681e-10
2.564171371e-10
1.585309027e-10
9.349168171e-11
5.170818859e-11
2.53552071e-11
9.139561509e-12
-1.230955166e-12
-7.134718691e-12
-9.815654832e-12
-1.03853882e-11
-9.740198497e-12
-8.420350455e-12
-6.779524857e-12
-5.144886508e-12
-3.734736848e-12
-2.622825276e-12
-1.785663156e-12
-1.155227096e-12
-6.56150687e-13
-2.035451244e-13
-2.377810457e-14
-72.95184091
-30.59333581
-10.86610991
-2.146857383
-0.04886071765
0.02872311064
0.00632630155
0.001673154541
0.0002890513081
3.547142635e-05
6.562130503e-06
2.641348159e-06
1.635494317e-06
1.199249086e-06
9.314598262e-07
7.40585745e-07
5.93857862e-07
4.769892402e-07
3.82483768e-07
3.055563089e-07
2.428941583e-07
1.917668325e-07
1.503377277e-07
1.169714911e-07
9.024730511e-08
6.897239627e-08
5.214948048e-08
3.89464841e-08
2.867867959e-08
2.079752099e-08
1.48500101e-08
1.044407908e-08
7.247203996e-09
4.979047262e-09
3.399273134e-09
2.316399346e-09
1.582184111e-09
1.086126268e-09
7.495047742e-10
5.185960946e-10
3.574109928e-10
2.427021246e-10
1.599997521e-10
1.003251086e-10
5.809726266e-11
2.984896381e-11
1.173652607e-11
7.421381156e-13
-5.63594407e-12
-8.588302754e-12
-9.282661127e-12
-8.723388269e-12
-7.460963924e-12
-5.902990947e-12
-4.391639364e-12
-3.09293938e-12
-2.041654973e-12
-1.183585748e-12
-4.221507881e-13
-4.95470496e-14
-78.72640277
-35.9189637
-14.8523914
-4.055563746
-0.3892814383
0.03759609674
0.01305254272
0.003621313715
0.001006453271
0.0001899846334
2.5550973e-05
4.642800407e-06
1.686862601e-06
9.681288698e-07
6.794079512e-07
5.177773987e-07
4.089524317e-07
3.284335316e-07
2.656728383e-07
2.153769217e-07
1.745627359e-07
1.411735948e-07
1.137546603e-07
9.121314342e-08
7.269234054e-08
5.750385381e-08
4.508647895e-08
3.49809048e-08
2.68084522e-08
2.026179566e-08
1.508953174e-08
1.106944205e-08
8.006221887e-09
5.724070114e-09
4.068567889e-09
2.895433624e-09
2.076333593e-09
1.504750613e-09
1.103300534e-09
8.158791089e-10
6.051846335e-10
4.469817023e-10
3.256156458e-10
2.309979346e-10
1.57109385e-10
1.003831917e-10
5.844912624e-11
2.926771898e-11
1.063293748e-11
-3.697594136e-13
-6.172162906e-12
-8.557938074e-12
-8.818556952e-12
-7.884911489e-12
-6.401527797e-12
-4.807891773e-12
-3.330081872e-12
-2.027810042e-12
-8.258046876e-13
-9.042975084e-14
-77.83131451
-41.15519696
-18.8594737
-6.384804682
-1.128365873
0.00321807539
0.02690199692
0.006867142865
0.00225021349
0.0006798568392
0.0001496197385
2.206169589e-05
3.504393004e-06
1.030109492e-06
5.21710901e-07
3.434709634e-07
2.52870102e-07
1.965123222e-07
1.5707932e-07
1.274821601e-07
1.042996466e-07
8.565754771e-08
7.041432567e-08
5.781614123e-08
4.733240284e-08
3.857165949e-08
3.123770899e-08
2.509993481e-08
1.9978418e-08
1.573168917e-08
1.224120892e-08
9.408856908e-09
7.147727586e-09
5.378068001e-09
4.023929818e-09
3.010201535e-09
2.265359652e-09
1.728759768e-09
1.34273633e-09
1.059123232e-09
8.406425781e-10
6.662093094e-10
5.218219383e-10
4.007474931e-10
2.989991613e-10
2.141729138e-10
1.450765449e-10
9.099005485e-11
5.103530685e-11
2.3694427e-11
6.689170016e-12
-2.671045399e-12
-6.969366541e-12
-8.197962214e-12
-7.70220157e-12
-6.368785007e-12
-4.742835814e-12
-3.083828173e-12
-1.41005289e-12
-1.221947192e-13
-68.12715536
-47.61079486
-23.04708174
-9.094105772
-2.284993782
-0.1693449831
0.03682148001
0.01376308726
0.004347777881
0.001544363152
0.0004866896948
0.0001114360763
1.562090821e-05
2.129777753e-06
5.581555513e-07
2.630798838e-07
1.653218178e-07
1.183578465e-07
9.039606947e-08
7.150516054e-08
5.775282354e-08
4.724365905e-08
3.893852393e-08
3.22219961e-08
2.670217502e-08
2.210916491e-08
1.825532484e-08
1.500574323e-08
1.226328749e-08
9.955874646e-09
8.027634363e-09
6.433191424e-09
5.132746829e-09
4.088144829e-09
3.261593137e-09
2.616379769e-09
2.117502262e-09
1.733816974e-09
1.436967711e-09
1.201545879e-09
1.013325496e-09
8.539778606e-10
7.129311468e-10
5.839299161e-10
4.654510984e-10
3.589637341e-10
2.655367051e-10
1.86217283e-10
1.218379501e-10
7.258769432e-11
3.765398634e-11
1.513462621e-11
2.216499595e-12
-4.132071205e-12