/*--------------------------------*- C++ -*----------------------------------*\
  =========                 |
  \\      /  F ield         | OpenFOAM: The Open Source CFD Toolbox
   \\    /   O peration     | Website:  https://openfoam.org
    \\  /    A nd           | Version:  10
     \\/     M anipulation  |
\*---------------------------------------------------------------------------*/
FoamFile
{
    format      ascii;
    class       volScalarField;
    location    "3000";
    object      RR.OH;
}
// * * * * * * * * * * * * * * * * * * * * * * * * * * * * * * * * * * * * * //

dimensions      [1 -3 -1 0 0 0 0];

internalField   nonuniform List<scalar> 
5170
(
2.205369932e-47
2.206610384e-47
2.217208174e-47
2.272204982e-47
2.605940244e-47
2.714672931e-47
2.717241817e-47
2.738264436e-47
2.84856082e-47
3.178667504e-47
2.965398787e-47
2.969751509e-47
2.996096231e-47
3.121157877e-47
3.362175061e-47
3.09556421e-47
3.101222173e-47
3.129751556e-47
3.245395422e-47
3.437312974e-47
3.164615283e-47
3.170471844e-47
3.198015193e-47
3.301520381e-47
3.484308867e-47
3.118238991e-47
3.167937606e-47
3.224587709e-47
3.322502436e-47
3.45426612e-47
-4.733479274e-46
-1.994987004e-46
-9.717893874e-48
-3.1291221e-47
-6.394911322e-46
-3.144312034e-43
-1.447662532e-43
-2.688396005e-44
-5.4571475e-44
-7.697090259e-43
-2.027136282e-40
-9.804082856e-41
-2.09186551e-41
-5.888621511e-41
-1.034572526e-39
-1.354702844e-37
-7.198457375e-38
-2.013203574e-38
-8.064677641e-38
-1.530455434e-36
-9.396977686e-35
-5.733569505e-35
-2.350294721e-35
-1.302370616e-34
-2.360459481e-33
-6.723820207e-32
-4.904732894e-32
-3.178755425e-32
-2.298141758e-31
-3.697498815e-30
-4.95223309e-29
-4.492321607e-29
-4.759444161e-29
-4.295968642e-28
-5.825080452e-27
-3.73559216e-26
-4.334928977e-26
-7.562789295e-26
-8.301838863e-25
-9.203232046e-24
-2.863067191e-23
-4.393054492e-23
-1.235104798e-22
-1.619344083e-21
-1.457178243e-20
-2.207589257e-20
-4.545105901e-20
-1.997682233e-19
-3.029955402e-18
-2.311836234e-17
-1.673912281e-17
-4.778391877e-17
-3.086373849e-16
-5.199930284e-15
-3.67683815e-14
-1.235759759e-14
-4.948497829e-14
-4.536055092e-13
-8.306896615e-12
-5.857898688e-11
-8.228565934e-12
-4.824597497e-11
-6.052462892e-10
-1.157476627e-08
-9.354877032e-08
-4.640992417e-09
-4.425958091e-08
-7.733755686e-07
-1.456869581e-05
-0.000150017892
-0.2705948548
-0.2369389649
-0.2232899702
-0.2431345487
-0.2703601806
-0.1521196817
-0.1565977098
-0.1539403668
-0.155870471
-0.1460243207
-0.09788129117
-0.1090587259
-0.1082602118
-0.1056318138
-0.08946399651
-0.06861147735
-0.0800081357
-0.08130049596
-0.07768876937
-0.06052639226
-0.05059300753
-0.06143952087
-0.06304060693
-0.05934841496
-0.04365403776
-0.0385480653
-0.04829131732
-0.05015902197
-0.04637537902
-0.0327610229
-0.03024384945
-0.03880527081
-0.04062700161
-0.03685741611
-0.02546530296
-0.02416614096
-0.0315987565
-0.03330820818
-0.02970281494
-0.0201382927
-0.01956720322
-0.02587053982
-0.02740272119
-0.02417172899
-0.0160632521
-0.01603609038
-0.02132621411
-0.02258542061
-0.0196975749
-0.01292130256
-0.01326913067
-0.01765600006
-0.01865708802
-0.01607593645
-0.01052759571
-0.01109452249
-0.01469171472
-0.01545645255
-0.01319103444
-0.008715830863
-0.009381522518
-0.01229228964
-0.01287137331
-0.01094177835
-0.007372187239
-0.00805935824
-0.01039016551
-0.01081397418
-0.009226282827
-0.006397445646
-0.007044189651
-0.008886786605
-0.00920300353
-0.007948117676
-0.005711491438
-0.006295106598
-0.007733367919
-0.007967604694
-0.007004277596
-0.005233939768
-0.005762339667
-0.00686074251
-0.007049454907
-0.006339739311
-0.004936679373
-0.005440751662
-0.006229552388
-0.006401079807
-0.005906776014
-0.004794734189
-0.004590257638
-0.005581272254
-0.005912674642
-0.005635316424
-0.004765058041
0.4087904831
0.04185521167
0.001320967968
-0.005375127712
-0.006093820439
-4.027224292e-07
-5.675589863e-06
-0.0002015685588
-0.007841349879
-0.4154113245
-1.100172742e-06
-1.23970773e-05
-0.0002836495191
-0.005727932058
-0.1161786668
-1.981583672e-06
-1.879870178e-05
-0.0002586092971
-0.003057819766
-0.03614399753
-3.255522225e-06
-2.609867423e-05
-0.0001869036842
-0.001699070017
-0.01466075645
-5.12628538e-06
-3.297823719e-05
-9.54917699e-05
-0.001073198331
-0.007493489966
-7.804168887e-06
-3.66933093e-05
-2.680973291e-05
-0.0009492882493
-0.006425297048
-1.188087715e-05
-3.562562289e-05
-1.320407691e-05
-0.001364168702
-0.008629097696
-1.69953086e-05
-2.319683967e-05
-7.700576982e-05
-0.001895993232
-0.01001669688
-2.023780158e-05
1.534424441e-06
-0.0002081451988
-0.002165612198
-0.009691812224
-1.66634034e-05
1.79109458e-05
-0.0003874153326
-0.002434737259
-0.009981274686
-3.901616089e-06
-3.164919204e-06
-0.0006144382339
-0.002892077143
-0.01143275862
7.495251289e-06
-7.919734699e-05
-0.000853695215
-0.003349965341
-0.01253514681
-7.688678611e-06
-0.0001947171489
-0.001073398742
-0.003663108521
-0.01273738598
-6.998906652e-05
-0.0003374205011
-0.001305998845
-0.004045190778
-0.01331678727
-0.0001851481288
-0.0005176740239
-0.001613904553
-0.004889845391
-0.01513412285
-0.000363152093
-0.0007672836876
-0.002061410905
-0.006070558611
-0.01838229395
-0.0006270851836
-0.001123829419
-0.002731662072
-0.00761917963
-0.020707304
-0.0009663310656
-0.001551598664
-0.003593142818
-0.009121152482
-0.0219922727
-0.001356281676
-0.002104258292
-0.004364333862
-0.01063063405
-0.02253409312
-0.001894901989
-0.002747125345
-0.005370603798
-0.0115420644
-0.02336717572
-0.002551340597
-0.003590681539
-0.006859874474
-0.01285760621
-0.0251663713
-0.003559840636
-0.00457278417
-0.008212383266
-0.01487909698
-0.02728196554
-0.004974599021
-0.006360512777
-0.01001639787
-0.01683138412
-0.0305782392
-0.006414683961
-0.008024187102
-0.01191077278
-0.01954190032
-0.03407647728
-0.008219673848
-0.01004028743
-0.01404430138
-0.02250353122
-0.03762319226
-0.0102961031
-0.01230139305
-0.01728948162
-0.02565154161
-0.04139793435
-0.01293257726
-0.01518614243
-0.01995666609
-0.02974365125
-0.04616797885
-0.01626261314
-0.01880492633
-0.02498484228
-0.0347737982
-0.05254204567
-0.01965893657
-0.02239263673
-0.03063474913
-0.04315850065
-0.06143779298
-0.02534039508
-0.02878382154
-0.03652532886
-0.05023194262
-0.07259534616
-0.03269189376
-0.03645762523
-0.04548205184
-0.06158033327
-0.08578000305
-0.04221466242
-0.04671580334
-0.05711749072
-0.07486604505
-0.1027042126
-0.05373011564
-0.05877328429
-0.07078271375
-0.09061567706
-0.1209479792
-0.06644354882
-0.07206189864
-0.08481812225
-0.1060376142
-0.1380730162
-0.07621333808
-0.08249240113
-0.09650605327
-0.1195808213
-0.1545646502
-0.08918127918
-0.09644609484
-0.1131710593
-0.141305003
-0.1840011555
-0.121273784
-0.1308560771
-0.1529527753
-0.1897287016
-0.2453453265
-0.1855139216
-0.1986389582
-0.2287739131
-0.2783902624
-0.3524072434
-0.2955015488
-0.3137840303
-0.3554367085
-0.4226849872
-0.5195447855
-0.4754868173
-0.4988301739
-0.5497957857
-0.6248649795
-0.7139074587
-0.6169845825
-0.6190973012
-0.6137398504
-0.5790270997
-0.4872642718
-0.2295742447
-0.2074839924
-0.1597351654
-0.08948992864
0.0001822040141
0.02330225381
0.03818430702
0.07038639107
0.1181350494
0.1798206131
0.1096803922
0.121329016
0.1463483722
0.1830668477
0.2298132763
0.1324194917
0.1412872323
0.1578988596
0.1857299083
0.2206336335
0.1191764184
0.1253951571
0.1385154173
0.1572263325
0.1800622681
0.08054161532
0.08436565394
0.09237485129
0.1036172007
0.1170333082
0.02474350095
0.02680636056
0.03105777121
0.0368858205
0.04358242719
-0.03576171792
-0.03484548234
-0.03300731717
-0.03053259291
-0.02791018071
-0.08953051667
-0.08919081873
-0.08852594411
-0.08777554512
-0.08708691993
-0.1283185745
-0.1277011752
-0.1306318116
-0.1284378254
-0.1547209958
-0.1651992394
-0.1653542681
-0.1657280641
-0.1663739475
-0.14952781
-0.1652367891
-0.1652651135
-0.1653346551
-0.1654484641
-0.1656063457
-0.1567702032
-0.1567407189
-0.1566816635
-0.1565990898
-0.156498209
-0.1424556208
-0.1423944257
-0.1422634374
-0.1420689429
-0.1418143206
-0.1249682568
-0.1248912759
-0.1247246473
-0.1244745201
-0.1241432785
-0.1065907562
-0.1065108453
-0.1063370835
-0.1060755014
-0.1057282453
-0.08893952079
-0.08886514846
-0.08870320305
-0.08845927809
-0.08813546634
-0.07297233769
-0.07290808459
-0.07276810482
-0.07255733357
-0.07227776408
-0.05912708103
-0.05907463155
-0.05896035276
-0.05878838496
-0.0585605317
-0.04748914804
-0.04744830351
-0.04735934866
-0.04722560391
-0.0470486146
-0.03792737508
-0.03789694447
-0.03783069416
-0.03773118139
-0.03759966438
-0.03020493955
-0.03018324491
-0.03013606418
-0.03006528177
-0.02997187027
-0.02404001767
-0.02402532551
-0.02399340492
-0.02394558465
-0.02388257822
-0.01916370096
-0.0191543727
-0.01913415281
-0.01910392532
-0.01906418067
-0.01531839295
-0.01531303621
-0.01530146002
-0.01528420749
-0.01526158865
-0.01230762507
-0.01230507084
-0.01229959936
-0.01229149992
-0.01228093298
-0.009923045374
-0.009922377653
-0.009920998299
-0.009919014683
-0.009916477656
-0.008078830203
-0.008079338321
-0.008080513423
-0.00808234068
-0.008084787957
-0.006608642398
-0.00660981651
-0.006612434243
-0.006616411072
-0.006621677203
-1.628199572
-0.6383234042
-0.1771735269
-0.06090153631
-0.02983485716
-0.02873568878
-0.0396326215
-0.0392169183
-0.0326404725
-0.03199199181
-0.03436550386
-0.03472325675
-0.0323178209
-0.03136779221
-0.03334320983
-0.03692204801
-0.03985131998
-0.04018924343
-0.03943326794
-0.03955479737
-0.04042273359
-0.0437036901
-0.04767198792
-0.05153370084
-0.05523529301
-0.0592187068
-0.06457314202
-0.07206904803
-0.08199999738
-0.09523254078
-0.111476896
-0.1307570338
-0.1509161536
-0.1694199771
-0.1891196425
-0.2258698534
-0.2989888382
-0.422395006
-0.6069040343
-0.7710522059
-0.3847341595
0.07255741076
0.2308004045
0.2681279872
0.2486111135
0.1982219447
0.1275693313
0.04876545287
-0.02593275345
-0.08659393809
-0.1292295714
-0.1499110755
-0.1657003371
-0.1564101694
-0.141605481
-0.1238737954
-0.1054467657
-0.08787365757
-0.07205221425
-0.05837709285
-0.0469064545
-0.03749431833
-0.02989731719
-0.0238325327
-0.01903285742
-0.01524399763
-0.01227297675
-0.009914891922
-0.008087128967
-0.006626226678
-3.68249212
2.904479378
0.5315752955
0.02372937733
-0.06706723519
-1.052205205
-2.662505716
2.132021141
0.04456777766
-0.09383325681
-0.3680049096
-1.911496172
1.609214869
0.5617792644
-0.2578226704
-0.1545017373
-0.855707633
-1.955189212
2.411884473
-0.5413188454
-0.08486357136
-0.5158863726
-2.416437977
3.492068809
-0.4762043039
-0.0875686197
-0.5896201311
-3.313519924
3.982068209
0.3289805448
-0.1096191819
-0.6784675966
-3.522664462
2.772381381
2.003944263
-0.09803754336
-0.5049048965
-2.196815689
-1.970823842
4.228319527
-0.07637882293
-0.3485635705
-1.389830284
-3.999867152
5.491151592
-0.07148066665
-0.3177887458
-1.271957949
-4.419463678
5.31437693
-0.0751796875
-0.3218608741
-1.249349572
-4.365839153
3.660999332
-0.07334118609
-0.2890940306
-1.030152113
-3.323131418
-0.481974167
-0.06523979215
-0.2333219873
-0.7570154797
-2.233462254
-4.286344078
-0.06173324769
-0.2099838158
-0.660717019
-1.937693591
-4.814915493
-0.06325542715
-0.2105096037
-0.6475230322
-1.877385807
-4.918121686
-0.0683982538
-0.2188635288
-0.6461837953
-1.801254475
-4.634189913
-0.07202339761
-0.2155506017
-0.5980031284
-1.564936339
-3.797807995
-0.07034430859
-0.195730552
-0.5085950464
-1.249756582
-2.856211936
-0.06700342541
-0.1771829183
-0.4422026114
-1.055040715
-2.374447923
-0.06598368756
-0.1687481504
-0.4122129998
-0.9703004145
-2.173392681
-0.06799295534
-0.1693109374
-0.4054600209
-0.9382571067
-2.071078676
-0.07223912324
-0.1740329289
-0.4053540847
-0.9137397167
-1.970133167
-0.07697001144
-0.1784409673
-0.4019660432
-0.8783579878
-1.840363895
-0.08129051551
-0.1808716106
-0.3929245638
-0.829375607
-1.679906034
-0.08503645679
-0.1815417122
-0.3802786159
-0.7758820302
-1.521034563
-0.08915905168
-0.1832392449
-0.3713999651
-0.7351360413
-1.400745194
-0.09521002159
-0.1891923831
-0.3723234712
-0.7167449906
-1.330625417
-0.1044319712
-0.2007809527
-0.3836868659
-0.7177537466
-1.297174314
-0.1168928872
-0.2178976713
-0.4038269432
-0.7326199676
-1.288782549
-0.1349073954
-0.2399789476
-0.4301832252
-0.7557902309
-1.296356749
-0.1526400018
-0.2657701199
-0.4595665019
-0.7829462928
-1.314897748
-0.1748822607
-0.2926976159
-0.4886630809
-0.8123174068
-1.342424131
-0.1970735134
-0.3179305169
-0.5172657732
-0.8481388405
-1.382192987
-0.217432365
-0.343943173
-0.5555834922
-0.9073014733
-1.447408068
-0.2429244767
-0.3862911587
-0.6270040837
-1.016200632
-1.536803695
-0.2923500488
-0.4663831168
-0.7500114418
-1.171474701
-1.495184338
-0.3842059349
-0.5994455765
-0.9255561186
-1.288070129
-0.9078560746
-0.5313681945
-0.7882848357
-1.088933335
-0.990236744
0.02324204026
-0.7316307387
-0.9442785264
-0.8423562806
-0.1076693797
0.5669228183
-0.7897327313
-0.5614864009
-0.03939462651
0.4352011168
0.8176011678
-0.2145320724
0.08870791876
0.3857631919
0.6579660122
0.8828488588
0.1692494457
0.3490746744
0.5331898414
0.7023272929
0.8363899724
0.2959839108
0.4198890617
0.5434498036
0.6511131765
0.7276042073
0.3150338736
0.4025940246
0.484900531
0.5500197419
0.5874623726
0.2816951462
0.3400733107
0.3905446522
0.4246353768
0.4355475789
0.2179793659
0.2531837254
0.2791103707
0.2920986626
0.2874894497
0.1381227473
0.1555572695
0.1655193375
0.1647295007
0.1507974579
0.0529417481
0.05905556022
0.0592595611
0.05192466072
0.03581518867
-0.02525954698
-0.02505345895
-0.02883141708
-0.03769645547
-0.05585813986
-0.08722624416
-0.08889794201
-0.09491422279
-0.1036843027
-0.1137213646
-0.1300957498
-0.1327457087
-0.1358856497
-0.1415273843
-0.149093737
-0.1521084824
-0.1517027011
-0.1703721826
-0.1724030507
-0.1752069951
-0.1659660506
-0.1663881848
-0.1669758428
-0.1677871797
-0.1687498348
-0.1563258957
-0.1561446502
-0.1559546304
-0.1557356706
-0.1554369867
-0.1412980983
-0.1406976858
-0.139976079
-0.1391171323
-0.1380930888
-0.1234572849
-0.1226518554
-0.1216785973
-0.1205314154
-0.119200079
-0.1050065031
-0.104159359
-0.1031388116
-0.101946288
-0.1005822153
-0.08746288903
-0.08667534223
-0.08573052824
-0.08463408679
-0.08339194711
-0.07169810088
-0.07102133539
-0.07021273714
-0.06927972772
-0.06823040927
-0.05808901155
-0.05754020414
-0.05688700147
-0.05613697524
-0.05529842487
-0.0466830077
-0.04625884683
-0.04575580638
-0.04518072604
-0.04454096423
-0.03732838225
-0.03701470903
-0.03664391622
-0.03622162721
-0.03575375838
-0.02977937833
-0.02955761515
-0.02929623398
-0.02899949591
-0.02867173843
-0.02375274455
-0.02360378322
-0.02342861382
-0.02323017768
-0.02301132
-0.01898217749
-0.0188885701
-0.01877863638
-0.0186541529
-0.01851665562
-0.01521469337
-0.01516148011
-0.01509890002
-0.01502773859
-0.01494847014
-0.01225868954
-0.01223371425
-0.01220401847
-0.01216962118
-0.01213016119
-0.009910607706
-0.009904188072
-0.00989594447
-0.009885321508
-0.009871381611
-0.008089058716
-0.008094030732
-0.008098834736
-0.008102524573
-0.008103781362
-0.006631788013
-0.006643368131
-0.006655895665
-0.00666828592
-0.006679066411
-0.007493686822
-0.0001278332408
-3.656918708e-06
-1.650466936e-07
-1.120733854e-08
-8.197657686e-10
-6.050954542e-11
-5.395541234e-12
-7.155692199e-13
-1.542624348e-13
-5.093423436e-14
-2.187600382e-14
-1.052806373e-14
-5.251333878e-15
-2.632136611e-15
-1.311822592e-15
-6.488993264e-16
-3.190822478e-16
-1.564891894e-16
-7.682380381e-17
-3.787865188e-17
-1.88007882e-17
-9.398436679e-18
-4.721637673e-18
-2.369800304e-18
-1.173835157e-18
-5.600025386e-19
-2.438670737e-19
-8.251260355e-20
-2.915304466e-21
3.302363467e-20
4.57132782e-20
4.641306019e-20
4.146744565e-20
3.442730816e-20
2.717827454e-20
2.061656064e-20
1.508731924e-20
1.065728517e-20
7.261745582e-21
4.772035077e-21
3.027907818e-21
1.86045088e-21
1.11198371e-21
6.502210931e-22
3.74283509e-22
2.133695416e-22
1.21091982e-22
6.869831467e-23
3.908384721e-23
2.235330623e-23
1.287845582e-23
7.482281327e-24
4.376059163e-24
2.554104528e-24
1.453582306e-24
7.652110777e-25
3.376426951e-25
1.026289677e-25
1.888979035e-26
-0.006010072587
-0.0001632238362
-7.798342798e-06
-4.891933156e-07
-4.159245536e-08
-4.306161012e-09
-5.744557739e-10
-1.112670122e-10
-3.136776715e-11
-1.172630669e-11
-4.980933534e-12
-2.210071359e-12
-9.859294047e-13
-4.384431986e-13
-1.943213266e-13
-8.612856467e-14
-3.834649679e-14
-1.722086249e-14
-7.833344183e-15
-3.620829195e-15
-1.704960131e-15
-8.189512996e-16
-4.011946811e-16
-1.999025614e-16
-1.007141366e-16
-5.075386728e-17
-2.509293584e-17
-1.172951313e-17
-4.753508189e-18
-1.178791162e-18
5.485802427e-19
1.26700887e-18
1.446257274e-18
1.356548904e-18
1.152848326e-18
9.199264384e-19
6.999434021e-19
5.108458695e-19
3.580499248e-19
2.408471624e-19
1.554092233e-19
9.62754029e-20
5.740826325e-20
3.308746337e-20
1.853001148e-20
1.014136732e-20
5.453479101e-21
2.894562652e-21
1.521625849e-21
7.941742721e-22
4.124484224e-22
2.137166438e-22
1.108160379e-22
5.756911806e-23
2.980061488e-23
1.50599872e-23
7.097749128e-24
2.898258664e-24
9.092617603e-25
1.481433222e-25
-0.01014470615
-0.0001569162486
-6.439840803e-06
-5.994312523e-07
-8.57047473e-08
-1.704062845e-08
-4.419239259e-09
-1.541523417e-09
-6.579540271e-10
-3.102119577e-10
-1.471739176e-10
-6.858440544e-11
-3.086771973e-11
-1.346291557e-11
-5.710007917e-12
-2.377608574e-12
-9.822946954e-13
-4.072733615e-13
-1.713615172e-13
-7.380541399e-14
-3.273564277e-14
-1.499480895e-14
-7.09611085e-15
-3.460060003e-15
-1.72765351e-15
-8.738934117e-16
-4.39888527e-16
-2.137017501e-16
-9.424684484e-17
-3.154777857e-17
9.046207056e-20
1.448422933e-17
1.941780279e-17
1.942148029e-17
1.713676404e-17
1.404507593e-17
1.091636138e-17
8.110681435e-18
5.771679466e-18
3.932206782e-18
2.563783632e-18
1.601068278e-18
9.601800506e-19
5.553022579e-19
3.113340492e-19
1.701628786e-19
9.112382474e-20
4.799243295e-20
2.49149882e-20
1.276053917e-20
6.448465897e-21
3.215408697e-21
1.581792149e-21
7.660125462e-22
3.617217269e-22
1.622887512e-22
6.553174051e-23
2.179158091e-23
5.261246271e-24
6.498984237e-25
-0.06165072957
-0.001065289817
-1.492957461e-05
-1.035918902e-06
-2.197375223e-07
-7.14942847e-08
-2.885383179e-08
-1.364510051e-08
-7.015843549e-09
-3.697452072e-09
-1.913168716e-09
-9.581709568e-10
-4.59541623e-10
-2.112843603e-10
-9.31305233e-11
-3.963038142e-11
-1.639464904e-11
-6.673206888e-12
-2.706526502e-12
-1.109863526e-12
-4.660803658e-13
-2.024406084e-13
-9.146226899e-14
-4.303397891e-14
-2.100450432e-14
-1.053129125e-14
-5.335873379e-15
-2.662758854e-15
-1.252900026e-15
-5.047723598e-16
-1.16440131e-16
7.203165306e-17
1.498545062e-16
1.685723675e-16
1.580796481e-16
1.351616015e-16
1.087240172e-16
8.322952176e-17
6.082513324e-17
4.24438156e-17
2.827916707e-17
1.801145728e-17
1.099873704e-17
6.468500447e-18
3.684005445e-18
2.043411166e-18
1.109331083e-18
5.915221585e-19
3.10381696e-19
1.603398863e-19
8.151257109e-20
4.0735541e-20
1.996897129e-20
9.551469303e-21
4.394700656e-21
1.88118874e-21
6.995954792e-22
1.973780098e-22
3.316012753e-23
2.586469801e-24
-0.2124558302
-0.005632226272
-8.738510829e-05
-3.064231646e-06
-6.553969956e-07
-2.816785608e-07
-1.428064986e-07
-7.722750013e-08
-4.332405676e-08
-2.456059938e-08
-1.374826044e-08
-7.496691151e-09
-3.940355325e-09
-1.989251932e-09
-9.60934791e-10
-4.450630573e-10
-1.978822651e-10
-8.50665577e-11
-3.561390364e-11
-1.471348723e-11
-6.077676175e-12
-2.551400991e-12
-1.103071313e-12
-4.961952325e-13
-2.329371998e-13
-1.136008293e-13
-5.682551927e-14
-2.856370228e-14
-1.39915577e-14
-6.338580053e-15
-2.339820346e-15
-3.265925727e-16
6.015609026e-16
9.493603934e-16
1.001890012e-15
9.159993817e-16
7.739440525e-16
6.174064531e-16
4.67997597e-16
3.374619671e-16
2.315787278e-16
1.514926742e-16
9.480822958e-17
5.706453174e-17
3.324045876e-17
1.88524901e-17
1.046064682e-17
5.695924892e-18
3.048054431e-18
1.603358192e-18
8.286650506e-19
4.203149451e-19
2.086785705e-19
1.007423688e-19
4.651747012e-20
1.980756558e-20
7.227351054e-21
1.928770497e-21
2.674748213e-22
1.411668083e-23
-0.499506629
-0.03359871116
-0.0008727076425
-1.989097384e-05
-2.669148821e-06
-1.042616618e-06
-5.386714278e-07
-3.023443043e-07
-1.769000477e-07
-1.055680089e-07
-6.311051332e-08
-3.726886388e-08
-2.150768717e-08
-1.204504776e-08
-6.507985081e-09
-3.382317359e-09
-1.686868856e-09
-8.080101273e-10
-3.721564253e-10
-1.658597379e-10
-7.205201017e-11
-3.092348131e-11
-1.329354801e-11
-5.822064505e-12
-2.630396466e-12
-1.234569846e-12
-5.9936849e-13
-2.969790677e-13
-1.469102578e-13
-7.03373403e-14
-3.093955705e-14
-1.097938768e-14
-1.312708696e-15
2.954830541e-15
4.478034435e-15
4.672857434e-15
4.261459895e-15
3.598206307e-15
2.862235905e-15
2.154430412e-15
1.536030079e-15
1.039053166e-15
6.694724136e-16
4.134566943e-16
2.467143878e-16
1.433309827e-16
8.1517887e-17
4.551555826e-17
2.49678505e-17
1.344923826e-17
7.106654396e-18
3.678635465e-18
1.860334913e-18
9.129033655e-19
4.275715179e-19
1.843544877e-19
6.804852191e-20
1.83563864e-20
2.521032063e-21
1.320066518e-22
-0.7422752358
-0.1592996263
-0.006289617913
-0.000184700483
-1.06714211e-05
-2.878204047e-06
-1.373249194e-06
-7.757746177e-07
-4.685652482e-07
-2.922202296e-07
-1.846530291e-07
-1.166993082e-07
-7.303770374e-08
-4.492801799e-08
-2.70031922e-08
-1.578288763e-08
-8.932011052e-09
-4.878486949e-09
-2.56455777e-09
-1.297231231e-09
-6.32085668e-10
-2.981173766e-10
-1.370404928e-10
-6.213684778e-11
-2.817720978e-11
-1.298253639e-11
-6.133773814e-12
-2.973269216e-12
-1.462246211e-12
-7.153221572e-13
-3.38252816e-13
-1.477834491e-13
-5.367584072e-14
-9.332247908e-15
9.841084986e-15
1.675382453e-14
1.795661258e-14
1.657742706e-14
1.407918069e-14
1.12033591e-14
8.390678367e-15
5.927289869e-15
3.962133692e-15
2.521444469e-15
1.542119327e-15
9.15906498e-16
5.324719933e-16
3.042683745e-16
1.710503918e-16
9.450265193e-17
5.121397713e-17
2.716310439e-17
1.405338155e-17
7.043755475e-18
3.367851798e-18
1.486139763e-18
5.654798552e-19
1.600843296e-19
2.402515636e-20
1.580263626e-21
-0.3779035595
-0.513379632
-0.04159028116
-0.001609791143
-6.18461318e-05
-8.265322202e-06
-2.914887433e-06
-1.520964973e-06
-9.100590235e-07
-5.778416031e-07
-3.774554963e-07
-2.494172206e-07
-1.64899018e-07
-1.082312623e-07
-7.011857438e-08
-4.464335701e-08
-2.783374508e-08
-1.694402507e-08
-1.004156625e-08
-5.776202337e-09
-3.21606885e-09
-1.729830748e-09
-8.981678418e-10
-4.513660174e-10
-2.209351073e-10
-1.06444552e-10
-5.10820426e-11
-2.468723222e-11
-1.207239165e-11
-5.950328436e-12
-2.913221022e-12
-1.38391085e-12
-6.147955192e-13
-2.364769074e-13
-5.846394795e-14
1.911853045e-14
4.839585989e-14
5.546070223e-14
5.244585113e-14
4.496486518e-14
3.586380107e-14
2.679351719e-14
1.880296821e-14
1.245214649e-14
7.85347694e-15
4.776201335e-15
2.832125369e-15
1.648817409e-15
9.452968407e-16
5.336875276e-16
2.961453824e-16
1.610508805e-16
8.547375725e-17
4.394234136e-17
2.156165534e-17
9.798231417e-18
3.875858184e-18
1.16527106e-18
1.958895441e-19
1.665740295e-20
0.4468121125
-0.7951410446
-0.1715689839
-0.01100942118
-0.0004638534239
-3.026797899e-05
-6.393637972e-06
-2.686256466e-06
-1.501188654e-06
-9.408853668e-07
-6.224275055e-07
-4.229238661e-07
-2.906276505e-07
-1.999615619e-07
-1.367998545e-07
-9.260283968e-08
-6.180082898e-08
-4.054966801e-08
-2.609722252e-08
-1.643867171e-08
-1.011219821e-08
-6.06185634e-09
-3.535014608e-09
-2.001643097e-09
-1.099407637e-09
-5.864404495e-10
-3.04734294e-10
-1.55281055e-10
-7.826537397e-11
-3.931077532e-11
-1.970074574e-11
-9.782748068e-12
-4.735564712e-12
-2.17325699e-12
-8.942478207e-13
-2.787414119e-13
-1.380826167e-15
1.099746687e-13
1.433372012e-13
1.407196513e-13
1.221330465e-13
9.776924718e-14
7.308937621e-14
5.118369222e-14
3.372280965e-14
2.117509431e-14
1.285659475e-14
7.623007312e-15
4.440299418e-15
2.548090906e-15
1.440902646e-15
8.012381471e-16
4.361731097e-16
2.305843144e-16
1.166665013e-16
5.492584267e-17
2.27412066e-17
7.319933028e-18
1.392439349e-18
1.505690985e-19
1.645875168
-0.8381505101
-0.4082043159
-0.04901321188
-0.003066333796
-0.0001502154842
-1.679067567e-05
-4.834891232e-06
-2.315786612e-06
-1.375241203e-06
-9.004204388e-07
-6.196808714e-07
-4.374606296e-07
-3.121395913e-07
-2.229630046e-07
-1.584202923e-07
-1.114782787e-07
-7.745302888e-08
-5.300943648e-08
-3.567102179e-08
-2.355347107e-08
-1.524104921e-08
-9.645922358e-09
-5.960018911e-09
-3.589115391e-09
-2.104155839e-09
-1.200994808e-09
-6.680689954e-10
-3.629811954e-10
-1.933561941e-10
-1.013955582e-10
-5.249268574e-11
-2.679638174e-11
-1.33739203e-11
-6.398502462e-12
-2.815288661e-12
-1.022299316e-12
-1.723300167e-13
1.932554438e-13
3.191988568e-13
3.308853984e-13
2.915848642e-13
2.341552249e-13
1.753036936e-13
1.229457451e-13
8.108248651e-14
5.09377083e-14
3.092861286e-14
1.833440828e-14
1.067351525e-14
6.122676402e-15
3.463499964e-15
1.926968862e-15
1.046559792e-15
5.470042663e-16
2.679474722e-16
1.167602756e-16
4.049560136e-17
8.766734543e-18
1.174525801e-18
2.933612258
-0.484745661
-0.6969474985
-0.1467847302
-0.01365037001
-0.0008498483345
-5.534969158e-05
-9.581234486e-06
-3.540720972e-06
-1.895650267e-06
-1.197113375e-06
-8.216884719e-07
-5.897497791e-07
-4.328687779e-07
-3.204359124e-07
-2.37121259e-07
-1.744081445e-07
-1.270023331e-07
-9.1374818e-08
-6.482592903e-08
-4.526641736e-08
-3.105738106e-08
-2.090050545e-08
-1.377157265e-08
-8.86929538e-09
-5.574467626e-09
-3.415641193e-09
-2.039797055e-09
-1.187954205e-09
-6.75844655e-10
-3.767117166e-10
-2.063686276e-10
-1.113321407e-10
-5.91257799e-11
-3.075424171e-11
-1.544519896e-11
-7.246693569e-12
-2.932816612e-12
-7.585403188e-13
2.448659905e-13
6.275666507e-13
6.992360518e-13
6.287349395e-13
5.068569763e-13
3.796357214e-13
2.670720068e-13
1.771777999e-13
1.117664839e-13
6.790635409e-14
4.020696176e-14
2.338518149e-14
1.341546653e-14
7.593345692e-15
4.219710588e-15
2.273965267e-15
1.159653145e-15
5.335723224e-16
2.002902666e-16
4.948601556e-17
8.003714151e-18
4.367572309
0.2633995938
-0.870432615
-0.3257317068
-0.05011282571
-0.004608836312
-0.0003039852782
-2.724714693e-05
-6.107849499e-06
-2.593864772e-06
-1.50051047e-06
-1.003303632e-06
-7.229678441e-07
-5.414381482e-07
-4.125419232e-07
-3.160396175e-07
-2.416102928e-07
-1.833878108e-07
-1.377592859e-07
-1.021977502e-07
-7.472806399e-08
-5.376426442e-08
-3.799818351e-08
-2.633771988e-08
-1.787352905e-08
-1.18561723e-08
-7.676321814e-09
-4.846099343e-09
-2.982004342e-09
-1.78960758e-09
-1.049358261e-09
-6.030238121e-10
-3.408727947e-10
-1.901709603e-10
-1.04832556e-10
-5.688839316e-11
-2.999057686e-11
-1.490474694e-11
-6.530111999e-12
-2.035887916e-12
1.898661252e-13
1.117850866e-12
1.348149854e-12
1.242347562e-12
1.008526326e-12
7.560641605e-13
5.332318133e-13
3.561855046e-13
2.262632032e-13
1.378956904e-13
8.163962233e-14
4.747597018e-14
2.726309257e-14
1.543739036e-14
8.539660395e-15
4.521098033e-15
2.196938055e-15
8.952568993e-16
2.527925187e-16
4.823497238e-17
5.354394421
1.223287149
-0.8173727583
-0.5522755834
-0.1193972725
-0.0165948261
-0.001622293104
-0.0001172587785
-1.393258513e-05
-3.762358816e-06
-1.789228239e-06
-1.117294783e-06
-7.926942128e-07
-6.00570051e-07
-4.671236198e-07
-3.693726246e-07
-2.922901315e-07
-2.30036982e-07
-1.7936908e-07
-1.382237105e-07
-1.050728571e-07
-7.866759703e-08
-5.792367294e-08
-4.187933315e-08
-2.968353198e-08
-2.059049613e-08
-1.395541942e-08
-9.228394867e-09
-5.948414018e-09
-3.736813293e-09
-2.290116212e-09
-1.372420293e-09
-8.07181947e-10
-4.680739264e-10
-2.688259185e-10
-1.532227336e-10
-8.635552098e-11
-4.747757345e-11
-2.471356618e-11
-1.143466801e-11
-3.898735821e-12
8.002113061e-14
1.874872521e-12
2.399169876e-12
2.262476085e-12
1.85419712e-12
1.393621128e-12
9.844693395e-13
6.607441289e-13
4.22966308e-13
2.5961641e-13
1.543662931e-13
8.997211275e-14
5.17305129e-14
2.923942816e-14
1.599872199e-14
8.190838005e-15
3.631665537e-15
1.173662253e-15
2.595121754e-16
5.2480115
2.242913174
-0.5241139561
-0.7650073008
-0.2445002386
-0.04338625644
-0.006114391152
-0.000630665102
-5.069905091e-05
-7.09850529e-06
-2.176354227e-06
-1.136315994e-06
-7.654429469e-07
-5.773871769e-07
-4.542391721e-07
-3.667891562e-07
-2.973255707e-07
-2.402712333e-07
-1.927148724e-07
-1.529925515e-07
-1.199851917e-07
-9.282360473e-08
-7.074937049e-08
-5.306058642e-08
-3.910017838e-08
-2.826057343e-08
-1.999387939e-08
-1.381770667e-08
-9.313030797e-09
-6.11646637e-09
-3.914588044e-09
-2.444961301e-09
-1.495346269e-09
-9.000829487e-10
-5.363267147e-10
-3.17955848e-10
-1.878251532e-10
-1.099984892e-10
-6.289521617e-11
-3.402476168e-11
-1.630728665e-11
-5.689266367e-12
2.479258221e-13
3.0960439e-12
4.001499435e-12
3.821237978e-12
3.157339906e-12
2.381136969e-12
1.68356653e-12
1.131877181e-12
7.286380083e-13
4.511109337e-13
2.706812518e-13
1.589080721e-13
9.167779281e-14
5.162718321e-14
2.769709073e-14
1.331886215e-14
4.924704363e-15
1.252393536e-15
4.245365477
3.186129092
0.01913273434
-0.864374588
-0.4323794265
-0.09998315315
-0.01706952436
-0.00257414921
-0.000289997665
-2.589562752e-05
-3.972465763e-06
-1.284999901e-06
-6.990886789e-07
-4.88509371e-07
-3.755597808e-07
-3.006800045e-07
-2.445773422e-07
-1.997494884e-07
-1.62752261e-07
-1.317858951e-07
-1.057802155e-07
-8.40084879e-08
-6.591130526e-08
-5.101582208e-08
-3.889815763e-08
-2.917098642e-08
-2.147849762e-08
-1.549548696e-08
-1.092863059e-08
-7.52099105e-09
-5.047978491e-09
-3.306101254e-09
-2.116539695e-09
-1.330493849e-09
-8.266726964e-10
-5.108940466e-10
-3.154873641e-10
-1.946419485e-10
-1.189890984e-10
-7.071527897e-11
-3.940870309e-11
-1.90804647e-11
-6.229752106e-12
1.323784194e-12
5.1138886e-12
6.352645381e-12
6.052323642e-12
5.013953628e-12
3.78804515e-12
2.678203345e-12
1.801080646e-12
1.163329512e-12
7.259917954e-13
4.408320455e-13
2.619968178e-13
1.522664961e-13
8.525881266e-14
4.404676088e-14
1.850372684e-14
5.425227385e-15
2.48118268
3.977653574
0.7429495264
-0.7858526287
-0.6413591304
-0.2010813637
-0.04178304343
-0.007652978364
-0.001302086063
-0.0001725519417
-1.782453629e-05
-2.714341333e-06
-8.104918576e-07
-4.15260885e-07
-2.776135178e-07
-2.0775175e-07
-1.63325279e-07
-1.313695975e-07
-1.06719108e-07
-8.692207197e-08
-7.065992229e-08
-5.714835774e-08
-4.587602862e-08