/*--------------------------------*- C++ -*----------------------------------*\
  =========                 |
  \\      /  F ield         | OpenFOAM: The Open Source CFD Toolbox
   \\    /   O peration     | Website:  https://openfoam.org
    \\  /    A nd           | Version:  10
     \\/     M anipulation  |
\*---------------------------------------------------------------------------*/
FoamFile
{
    format      ascii;
    class       volScalarField;
    location    "3000";
    object      T;
}
// * * * * * * * * * * * * * * * * * * * * * * * * * * * * * * * * * * * * * //

dimensions      [0 0 0 1 0 0 0];

internalField   nonuniform List<scalar> 
5170
(
293.9425734
293.9420708
293.942328
293.9460907
293.9755372
293.8758272
293.8756953
293.8770559
293.8867134
293.9406524
293.8284484
293.8288417
293.8325102
293.8512969
293.9273561
293.8036279
293.804753
293.811532
293.8421007
293.9363452
293.7948379
293.7969491
293.8075135
293.8500864
293.9616448
293.7965229
293.7998508
293.8147609
293.8694984
293.9971679
293.8063974
293.811018
293.8304056
293.8983915
294.0405406
293.8223595
293.8283543
293.8526961
293.9343387
294.0893475
293.8416163
293.8491168
293.8786009
293.9747433
294.139094
293.8611546
293.8700866
293.9054022
294.015937
294.1849247
293.8774576
293.8878954
293.9303257
294.0528168
294.2208987
293.8874476
293.899602
293.9484367
294.0806145
294.2414899
293.8888959
293.9031002
293.9572801
294.0961101
294.244414
293.8810571
293.8967507
293.9556867
294.0984655
294.2315565
293.8636151
293.8812192
293.9439884
294.0892215
294.2078041
293.8384344
293.8570624
293.9254099
294.0723786
294.1784347
293.8067043
293.8278095
293.9020285
294.0523353
294.1520108
293.7726392
293.7953458
293.8786791
294.034912
294.1326982
293.7322811
293.7527159
293.8524499
294.0198761
294.1253095
293.6606312
293.6928882
293.8073969
294.0157288
294.2832066
1903.2037
1900.511324
1899.510971
1901.215545
1903.419028
1915.906606
1912.564839
1911.563473
1913.455629
1916.530896
1922.978867
1919.95112
1919.118813
1920.795701
1923.711823
1927.070096
1924.578158
1923.966207
1925.47292
1927.807244
1929.417044
1927.51822
1927.083894
1928.420553
1930.120128
1930.684309
1929.368795
1929.089148
1930.203914
1931.25479
1931.268594
1930.487206
1930.343478
1931.172783
1931.601338
1931.362134
1931.060749
1931.030351
1931.518939
1931.374468
1931.069575
1931.195516
1931.251754
1931.375838
1930.719284
1930.458203
1930.963619
1931.075884
1930.842268
1929.737629
1929.569732
1930.411164
1930.554587
1929.986506
1928.493285
1928.43207
1929.572908
1929.728639
1928.854511
1927.018724
1927.060287
1928.473281
1928.628253
1927.475601
1925.33008
1925.461983
1927.127944
1927.273084
1925.865195
1923.429546
1923.635638
1925.544077
1925.673281
1924.02756
1921.310412
1921.579342
1923.722751
1923.833995
1921.959453
1918.9533
1919.298767
1921.659582
1921.741874
1919.643826
1916.336124
1916.860872
1919.350909
1919.359258
1917.031642
1913.421847
1914.514666
1916.808798
1916.594988
1913.976452
1910.014756
1913.406875
1914.546013
1912.395072
1907.727855
1899.811058
293.6160548
293.692729
294.3429689
302.2199788
402.6264679
293.6487455
293.8438258
295.8813315
315.7175434
455.0091165
293.7255069
294.1955789
298.8149767
333.6042659
490.3721934
293.890546
294.9275064
303.9262014
356.1931186
518.9647787
294.2117749
296.2750137
311.6269367
380.9263152
544.0120147
294.8057889
298.5808257
322.5105285
407.9526277
569.3736053
295.9316224
302.6990713
338.6101716
438.3923383
595.5664441
298.039233
309.840069
360.1873344
469.5947052
621.1258452
301.8204776
321.0500447
385.4980442
499.0155271
644.4245175
308.2128838
336.8365344
412.6756131
526.5975615
665.8597446
318.8754045
357.0265322
439.863234
552.4411787
685.7483901
334.4425674
380.0576943
466.3638405
576.8558133
704.4844101
355.5007632
405.7281717
492.9098377
600.5656277
722.6488264
383.2325768
434.808192
520.6820655
624.6351898
741.1118084
419.3364085
468.6796149
550.9844073
650.1440511
760.6403294
464.6035895
508.9582152
585.3993406
678.5708854
782.7002311
518.7855285
556.8684377
625.7378079
711.8357432
809.2279179
579.680599
611.7294619
672.5462519
751.0133383
841.2499585
645.1759607
672.0359649
725.0426038
795.5956231
878.3607067
712.6419186
735.3080197
781.308305
844.1867862
919.4230172
780.0186868
799.2902219
839.1996935
894.9430785
962.8502959
845.6845738
862.2335756
896.9739072
946.2965117
1007.318042
909.0673432
923.3695117
953.6936444
997.3265704
1052.0635
970.2063265
982.6591133
1009.27502
1047.991601
1097.155018
1029.732258
1040.714086
1064.306891
1098.898868
1143.210131
1088.841993
1098.631857
1119.729976
1150.850832
1191.016488
1148.637532
1157.44122
1176.483209
1204.704203
1241.349252
1209.783753
1217.768717
1235.082159
1260.850466
1294.488743
1272.401429
1279.696959
1295.564906
1319.260214
1350.292495
1336.264874
1342.979689
1357.602683
1379.492577
1408.243769
1401.16135
1407.372126
1420.920722
1441.234114
1467.957447
1467.322431
1473.100819
1485.712028
1504.637154
1529.559705
1535.714744
1541.11113
1552.886633
1570.534223
1593.735666
1607.776812
1612.770106
1623.647257
1639.892793
1661.119892
1683.536713
1687.966863
1697.581341
1711.858776
1730.364832
1757.981827
1761.652738
1769.605118
1781.373787
1796.562765
1824.346856
1827.259242
1833.568001
1842.900695
1854.934107
1880.156258
1882.439928
1887.3857
1894.693928
1904.091609
1926.432002
1928.198686
1932.013296
1937.613933
1944.735904
1964.510572
1965.777989
1968.487409
1972.386239
1977.183391
1993.358407
1994.045078
1995.480262
1997.461711
1999.762736
2011.050812
2011.320541
2011.874585
2012.609811
2013.396193
2022.403674
2022.416771
2022.412733
2022.316555
2022.017564
2029.198487
2028.969737
2028.436787
2027.545579
2026.199015
2030.698277
2030.23131
2029.179016
2027.505024
2025.13184
2025.717377
2025.027366
2023.489949
2021.100235
2017.800759
2013.487068
2012.611632
2010.672205
2007.687699
2003.621145
1993.849026
1992.832877
1990.589142
1987.156402
1982.515985
1967.246727
1966.137066
1963.691892
1959.964581
1954.951102
1934.593472
1933.434265
1930.883259
1927.003749
1921.802385
1897.089366
1895.917672
1893.341358
1889.429209
1884.195319
1856.039292
1854.883295
1852.342842
1848.488869
1843.339356
1812.681674
1811.561952
1809.102048
1805.372538
1800.393538
1768.114815
1767.044382
1764.693184
1761.129701
1756.374614
1723.238727
1722.225004
1719.998581
1716.624801
1712.123967
1678.742176
1677.788404
1675.693711
1672.519752
1668.285893
1635.118826
1634.225336
1632.263025
1629.289641
1625.323316
1592.698424
1591.863686
1590.030351
1587.252261
1583.546203
1551.683542
1550.90494
1549.194832
1546.603277
1543.145712
1512.182296
1511.45666
1509.862811
1507.447227
1504.224049
1474.238877
1473.562841
1472.077868
1469.827086
1466.823425
1437.850215
1437.22039
1435.836853
1433.739625
1430.940523
1402.990696
1402.403833
1401.114615
1399.160188
1396.551356
1369.606971
1369.059961
1367.858232
1366.036278
1363.603985
1337.656383
1337.146362
1336.025857
1334.326921
1332.058609
1307.057068
1306.581284
1305.535952
1303.950885
1301.834401
1277.796424
1277.352524
1276.37723
1274.898286
1272.923336
1249.797967
1249.383501
1248.472843
1247.091845
1245.24757
1223.448532
1223.061669
1222.211667
1220.9226
1219.200963
1201.111337
1200.747516
1199.948043
1198.735473
1197.115821
667.2571747
671.5304576
672.9863451
679.8375902
690.7293593
705.4011756
722.3543699
739.4807816
755.2471082
769.9785919
783.9275392
797.3934368
810.6943702
824.5342768
839.4855512
857.0660372
879.1522932
906.5974852
938.9563811
975.192676
1013.836112
1053.724715
1094.196952
1135.413359
1178.013154
1222.817189
1270.554206
1321.426514
1375.223504
1431.409346
1489.52531
1549.67581
1612.40154
1678.057535
1744.987459
1808.505615
1864.379544
1911.428923
1950.195605
1980.678675
2001.326499
2013.839403
2021.591105
2024.92719
2023.038582
2014.974682
2000.192823
1978.641348
1950.790624
1917.503228
1879.879783
1839.101608
1796.299889
1752.467352
1708.426737
1664.808335
1622.065425
1580.50178
1540.304998
1501.575453
1464.354765
1428.639573
1394.406439
1361.603882
1330.193065
1300.093491
1271.298639
1243.730236
1217.784347
1195.782944
1160.336738
1901.159592
1863.436041
1741.219608
1439.168465
1034.975233
1584.255661
1905.844918
1658.496864
1207.405119
978.0104038
1438.095728
1943.677713
1705.477392
1151.187628
949.8530771
1372.421083
1886.415622
1786.691473
1298.208179
935.5526618
1317.747574
1742.52172
1847.184623
1461.571062
929.509054
1275.479441
1645.968588
1892.982306
1619.206259
927.5326657
1245.805126
1594.830377
1914.498694
1746.953356
928.1496692
1223.535202
1551.945136
1897.03721
1824.514584
929.7045891
1202.975399
1501.007747
1805.202087
1862.345219
932.2285058
1185.551594
1458.118681
1735.881326
1884.564655
935.633955
1172.356367
1427.563792
1694.341038
1897.101116
940.0838902
1162.955105
1403.528503
1659.203182
1892.384623
945.2903241
1155.097532
1379.753754
1615.995455
1839.591117
951.5646764
1149.016448
1358.817535
1577.649321
1787.673427
959.2794853
1145.40204
1342.929853
1549.642557
1753.136756
970.0541411
1146.120648
1333.468117
1530.897093
1729.768975
985.4140354
1152.107613
1330.120684
1518.562855
1711.280271
1005.850677
1163.080955
1331.533341
1509.719967
1692.290028
1030.934279
1178.514778
1336.923985
1504.237106
1675.49372
1059.798608
1197.562192
1345.917178
1502.737928
1663.570826
1091.186026
1219.224266
1357.876802
1504.948553
1656.399036
1124.135366
1242.696812
1372.059169
1510.056715
1653.121954
1158.160706
1267.730007
1388.373149
1517.964819
1653.210607
1193.562312
1294.816711
1407.378351
1529.085634
1656.691324
1230.988208
1324.655318
1429.732904
1543.990315
1664.158233
1271.277441
1358.133713
1456.297667
1563.565487
1676.579706
1315.083718
1395.803601
1487.677455
1588.42798
1694.533371
1362.502462
1437.688224
1523.775474
1618.338318
1717.601241
1413.235612
1483.39794
1564.031665
1652.551283
1744.798963
1466.714455
1532.229496
1607.607595
1689.999645
1774.78109
1522.370149
1583.560294
1653.72171
1729.647915
1806.312022
1580.273397
1637.166872
1701.805113
1770.577951
1838.372264
1640.727756
1692.915748
1751.22124
1811.884954
1870.153423
1703.656632
1750.05015
1800.80933
1852.461945
1900.805198
1766.986959
1806.267028
1848.542168
1890.763126
1929.056367
1826.41679
1858.199994
1892.027253
1925.078038
1953.469013
1878.51033
1903.480372
1929.606025
1954.043142
1972.822667
1922.358963
1941.349155
1960.352045
1976.388222
1986.396966
1958.246217
1971.50643
1983.365526
1991.570695
1995.282865
1985.707632
1992.980089
1998.398815
2001.154081
2000.344397
2003.517526
2006.282993
2007.594755
2006.523288
2002.056212
2014.388531
2014.330124
2012.588285
2008.290102
2000.523359
2020.832838
2018.314643
2013.76379
2006.425872
1995.544158
2022.897591
2017.98348
2010.722585
2000.501045
1986.727059
2019.778916
2012.592884
2002.819749
1989.989853
1973.668287
2010.622845
2001.443252
1989.505999
1974.482398
1956.075109
1994.94713
1984.160249
1970.515143
1953.801477
1933.843797
1972.736449
1960.787836
1945.942255
1928.087957
1907.144518
1944.466925
1931.802903
1916.254952
1897.787032
1876.389458
1910.980512
1898.005349
1882.20139
1863.586606
1842.200169
1873.340498
1860.388376
1844.694672
1826.311911
1805.311709
1832.685486
1820.011742
1804.706928
1786.842893
1766.509689
1790.105278
1777.88751
1763.16282
1746.01529
1726.54294
1746.556955
1734.909676
1720.889158
1704.582814
1686.090312
1702.835353
1691.821035
1678.57045
1663.169573
1645.715357
1659.5499
1649.19239
1636.734711
1622.258634
1605.855849
1617.139523
1607.436095
1595.764845
1582.201914
1566.832449
1575.898796
1566.829649
1555.919423
1543.238074
1528.863752
1536.010035
1527.545583
1517.360172
1505.517539
1492.088888
1497.570923
1489.676562
1480.174256
1469.121794
1456.58377
1460.622208
1453.261823
1444.39937
1434.0871
1422.383464
1425.160508
1418.297941
1410.032174
1400.410393
1389.485439
1391.163194
1384.763989
1377.053824
1368.075297
1357.87615
1358.579537
1352.610533
1345.416439
1337.035738
1327.511603
1327.372081
1321.803081
1315.089085
1307.264871
1298.36949
1297.460951
1292.262602
1285.993733
1278.685848
1270.374354
1268.841704
1263.989266
1258.136027
1251.310509
1243.544781
1241.435724
1236.902993
1231.434239
1225.055421
1217.795727
1215.641888
1211.40929
1206.30141
1200.341683
1193.556458
1193.76696
1189.78366
1184.975365
1179.363423
1172.971886
444.7456531
310.0381553
293.8660553
291.5627013
291.1276168
291.0175414
290.9862793
290.977162
290.9742384
290.9731132
290.9726111
290.9723888
290.9723196
290.9723457
290.9724333
290.9725633
290.9727224
290.9729011
290.9730925
290.9732911
290.9734929
290.9736943
290.9738927
290.9740861
290.9742727
290.9744514
290.974621
290.9747808
290.97493
290.9750682
290.9751949
290.9753099
290.9754131
290.9755041
290.9755831
290.9756499
290.9757045
290.975747
290.9757772
290.9757951
290.9758008
290.975794
290.9757748
290.975743
290.9756987
290.9756416
290.9755717
290.9754889
290.9753931
290.9752842
290.9751622
290.9750271
290.9748787
290.9747166
290.9745402
290.9743464
290.9741215
290.9738191
290.9733
290.9726686
543.5133249
332.4054934
298.2622907
292.5942232
291.4606804
291.1585979
291.0587703
291.019593
291.0006598
290.9903123
290.9842086
290.9805735
290.9784415
290.977265
290.9766998
290.9765328
290.9766265
290.9768932
290.9772749
290.9777339
290.978245
290.9787908
290.979359
290.9799408
290.9805298
290.9811217
290.981713
290.982301
290.9828836
290.9834593
290.9840267
290.9845849
290.9851329
290.9856703
290.9861967
290.9867119
290.9872158
290.9877081
290.9881886
290.988657
290.9891127
290.9895555
290.9899849
290.9904004
290.9908017
290.9911881
290.9915593
290.991915
290.9922548
290.9925782
290.9928847
290.9931738
290.993445
290.9936974
290.9939286
290.9941326
290.9943008
290.9944371
290.9946312
290.9948159
577.0073021
342.6819412
300.7945854
293.8079829
292.1441175
291.580991
291.3241768
291.1895371
291.1092978
291.0600258
291.0286811
291.008962
290.9965674
290.9889214
290.9842854
290.9815663
290.9800545
290.9793057
290.9790402
290.9790842
290.97933
290.9797095
290.9801789
290.9807097
290.981283
290.9818857
290.9825086
290.983145
290.9837898
290.9844391
290.9850903
290.9857413
290.9863905
290.9870371
290.9876808
290.9883217
290.9889602
290.9895968
290.9902317
290.9908651
290.9914969
290.9921269
290.9927545
290.9933791
290.9940001
290.9946167
290.9952283
290.9958345
290.9964346
290.997028
290.9976137
290.9981908
290.9987577
290.9993112
290.9998445
291.0003428
291.0007839
291.0011545
291.0015031
291.0018131
734.8233079
399.1609849
310.566308
296.8976321
293.9554386
292.783471
292.1289978
291.7237553
291.4617832
291.2911417
291.1791938
291.1065934
291.0598423
291.0302489
291.0117519
291.0004135
290.9935839
290.9895745
290.9872975
290.9860814
290.9855131
290.9853438
290.9854248
290.9856676
290.9860181
290.9864423
290.9869182
290.98743
290.9879668
290.9885202
290.9890841
290.9896535
290.9902247
290.9907951
290.991363
290.9919276
290.9924891
290.9930484
290.9936077
290.9941693
290.9947353
290.9953072
290.9958853
290.9964695
290.9970593
290.9976537
290.9982527
290.9988562
290.9994646
291.000078
291.0006959
291.001317
291.0019382
291.0025532
291.0031475
291.0036927
291.0041462
291.0044708
291.0047004
291.0048719
923.3804672
504.6552194
337.4742671
303.6034193
297.5836868
295.2932571
293.911499
292.9727696
292.3281266
291.8863564
291.5844218
291.3799225
291.2426432
291.1518722
291.0926469
291.054741
291.0308814
291.0161889
291.0073137
291.0020877
290.9990909
290.9974443
290.9966019
290.9962417
290.9961733
290.996287
290.9965185
290.9968292
290.9971954
290.9976008
290.9980337
290.9984845
290.9989458
290.9994116
290.999876
291.0003331
291.0007778
291.0012078
291.0016246
291.002033
291.0024389
291.0028485
291.0032657
291.0036925
291.0041282
291.0045708
291.0050187
291.0054716
291.0059307
291.006398
291.0068753
291.0073627
291.0078566
291.0083471
291.0088122
291.0092127
291.0094967
291.0096223
291.0096261
291.0095459
1137.640431
682.5859769
410.2699541
320.3964761
304.2297514
299.5025692
296.9385468
295.1886296
293.9496574
293.0669301
292.4375448
291.9903113
291.6745955
291.4540452
291.3017129
291.1980985
291.1287404
291.0832095
291.0538807
291.0354333
291.0240842
291.0172923
291.0133296
291.0111006
291.0099049
291.0093245
291.0091063
291.0091071
291.0092447
291.009473
291.0097646
291.0101019
291.0104726
291.0108667
291.0112747
291.011684
291.0120794
291.0124481
291.0127846
291.0130906
291.0133739
291.0136456
291.013917
291.0141957
291.0144848
291.0147825
291.0150842
291.0153851
291.015683
291.0159781
291.0162727
291.0165682
291.0168623
291.017144
291.0173889
291.017557
291.0176053
291.0175123
291.0173117
291.0169757
1341.201083
889.5485195
542.4337931
365.8169936
316.5540571
305.393595
300.8833356
298.1110461
296.172252
294.7655217
293.7328177
292.9728967
292.4147105
292.0066275
291.7103128
291.4969581
291.3448321
291.2377056
291.1633575
291.1127234
291.0789259
291.0568933
291.0428579
291.0341539
291.0288961
291.0258232
291.0240888
291.0231652
291.0227253
291.0225785
291.0226135
291.0227677
291.0230058
291.0233067
291.0236556
291.024038
291.0244331
291.0248152
291.0251638
291.0254667
291.0257224
291.0259426
291.0261436
291.0263408
291.0265467
291.0267655
291.0269938
291.0272238
291.0274467
291.0276555
291.0278458
291.028015
291.0281587
291.0282664
291.0283179
291.028285
291.0281445
291.0278985
291.0275629
291.0270154
1493.787461
1078.689734
717.9744194
457.597284
345.1216602
314.9711839
305.8616682
301.5078322
298.7205699
296.739883
295.2781687
294.1840425
293.361692
292.7440548
292.2816888
291.9372062
291.6820169
291.4942895
291.3571957
291.2579183
291.1867746
291.1364678
291.1014726
291.0776357
291.0617842
291.0515157
291.0450302
291.0410437
291.0386607
291.0372891
291.0365442
291.0361885
291.036079
291.0361332
291.0363031
291.0365616
291.0368874
291.037252
291.0376206
291.0379653
291.0382694
291.0385233
291.0387316
291.0389136
291.0390939
291.0392891
291.0395021
291.0397271
291.0399539
291.0401697
291.0403604
291.0405132
291.0406152
291.0406522
291.0406084
291.0404704
291.0402365
291.0399197
291.0395155
291.0388117
1613.551927
1228.684711
876.7764661
589.0999897
401.7727096
332.3751931
312.8734994
305.5416197
301.5664429
298.9149338
296.993331
295.5529878
294.4582572
293.6220799
292.9830295
292.4954683
292.1245883
291.8435497
291.6315523
291.4724448
291.353726
291.2657689
291.2011844
291.1542252
291.1205
291.0966689
291.0801365
291.068923
291.061499
291.0567013
291.0536663
291.0517894
291.0506606
291.0500139
291.0496796
291.0495567
291.0495908
291.0497515
291.0499995
291.0502961
291.0506076
291.0509084
291.0511787
291.0514074
291.0516019
291.0517964
291.052013
291.0522523
291.0525078
291.0527665
291.0530111
291.0532198
291.0533679
291.0534317
291.0533937
291.0532476
291.0530043
291.0526798
291.0522501
291.0514249
1715.596541
1369.513309
1020.615705
725.2218044
495.0386492
366.5232915
324.2772999
310.9574604
304.9845969
301.4059165
298.9259969
297.0961758
295.7069186
294.6379335
293.810486
293.1687162
292.6710646
292.285766
291.9881662
291.7590011
291.583063
291.4486958
291.3465174
291.2692721
291.2113058
291.1682186
291.1365776
291.1136534
291.0972913
291.0858097
291.077894
291.072533
291.0689571
291.0665978
291.0650498
291.0640393
291.0633902
291.0630107
291.0628503
291.0628623
291.0629972
291.0632147
291.0634786
291.0637529
291.064007
291.064233
291.0644522
291.0646911
291.0649601
291.0652515
291.0655487
291.0658273
291.0660563
291.0662031
291.0662418
291.0661621
291.0659725
291.0656834
291.0652503
291.0643249
1794.935449
1496.906353
1159.181897
860.9646599
611.1976356
429.7944147
346.2136175
319.387679
309.5342621
304.4736951
301.2192136
298.8967383
297.1572478
295.8217678
294.7829279
293.9693919
293.3303865
292.8277871
292.4333299
292.1239276
291.8814341
291.6917014
291.5436227
291.4284691
291.3393614
291.2708598
291.2186455
291.1792611
291.1499042
291.1283078
291.112642
291.101425
291.0934805
291.0879022
291.0840041
291.0812759
291.0793482
291.0779771
291.0770241
291.0764072
291.076069
291.0759471
291.0759913
291.0761578
291.0763997
291.07666
291.0769082
291.0771492
291.0774056
291.0776943
291.0780136
291.0783413
291.0786439
291.0788841
291.0790289
291.0790561
291.0789592
291.0787308
291.0783054
291.077299
1846.736274
1601.658346
1283.558544
983.4125987
732.7477917
529.4719751
393.4177124
335.915067
316.5006039
308.4617823
303.9805715
300.9856642
298.8098329
297.160768
295.8807387
294.8778855
294.0869112
293.4594344
292.9602745
292.5627776
292.2459044
291.9933148
291.7922244
291.632512
291.5061064
291.4065429
291.3286213
291.2681298
291.2216269
291.1862792
291.159742
291.1400729
291.1256641
291.1152073
291.1076606
291.1022162
291.0982625
291.0953576
291.0932037
291.0916126
291.0904733
291.0897122
291.0892609
291.0890603
291.089061
291.0892052
291.0894281
291.0896843
291.0899488
291.0902274
291.0905333
291.0908682
291.0912099
291.0915224
291.0917652
291.0919066
291.0919235
291.0917785
291.0913714
291.0902993
1873.935089
1684.159232
1392.948934
1096.979371
841.045996
633.5151351
472.6128852
371.7605722
329.7255607
314.2404602
307.2539739
303.1948723
300.4391675
298.4444014
296.9093622
295.7431202
294.8211148
294.0845395
293.492262
293.0143757
292.6281053
292.3157395
292.0632574
291.8594495
291.6953107
291.5635736
291.4583508
291.3748404
291.309096
291.2578436
291.2183369
291.1882507
291.1656104
291.1487559
291.1363121
291.1271602
291.1204166
291.1154062
291.111635
291.1087657
291.106572
291.1049147
291.1037075
291.1028848
291.1023931
291.1021742
291.1021705
291.1023216
291.1025649
291.1028531
291.1031622
291.1034883
291.103829
291.104168
291.1044762
291.1047209
291.1048641
291.1048394
291.1044765
291.1033515
1888.779027
1751.928728
1494.161572
1207.563581
948.6994427
733.9663877
564.2456195
437.080957
359.042911
324.9886557
311.4154068
305.1101877
301.5379302
299.2046425
297.4855889
296.2266789
295.2397754
294.4541684
293.8213963
293.3078885
292.8893715
292.547549
292.2681847
292.0399125
291.853533
291.7015449
291.5778581
291.4775733
291.3967472
291.3321451
291.281023
291.2410305
291.210142
291.1865764
291.168778
291.1554225
291.1454159
291.1378857
291.1321618
291.1277498
291.1243051
291.1215925
291.1194674
291.117839
291.1166462
291.1158445
291.115386
291.1152129
291.1152675
291.1154795
291.1157813
291.1161195
291.1164728
291.116834
291.1171921
291.1175252
291.1177947
291.1179211
291.1176509
291.1165034
1897.866194
1806.074505
1586.021962
1315.09701
1055.839744
835.1639561
656.5647118
518.4393922
415.9034609
350.3838217
319.6158123
307.1958499
301.7648345
298.9610366
297.1895079
295.9486146
295.0205701
294.2986638
293.7229628
293.2565628
292.8749605
292.5608297
292.3013097
292.0864993
291.9085486
291.7611441
291.6391432
291.5383134
291.455181
291.38698
291.3314994
291.2867992
291.2511556
291.2230953
291.2012799
291.1844634
291.1715623
291.1616606
291.1540062
291.1480186
291.1432673
291.1394474
291.1363525
291.1338528
291.1318652
291.130343
291.1292538
291.1285605
291.1282168
291.1281637
291.1283284
291.1286338
291.1290159
291.1294342
291.1298666
291.1302952
291.130688
291.1309649
291.1308509
291.1297559
1901.685279
1847.130144
1663.207084
1415.153062
1159.902277
934.6080472
748.4219357
600.4676038
487.0772129
401.3266833
342.6911989
313.3129099
302.3016538
298.1284186
296.166142
295.0183019
294.2408454
293.6683718
293.2251622
292.8710722
292.5824155
292.3439851
292.1453245
291.9788376
291.838766
291.7206078
291.6207821
291.5364111
291.4651562
291.4051427
291.3548895
291.3131608
291.2788556
291.2509255
291.2284152
291.2104498
291.1961885
291.184879
291.1758729
291.1686421
291.1627737
291.157954
291.1539527
291.1506181
291.1478551
291.1456043
291.1438306
291.1425097
291.1416187
291.1411248
291.1409758
291.1411049
291.1414289
291.1418715
291.1423787
291.1429129
291.1434331
291.1438589
291.1439511
291.1430325
1898.143965
1875.918858
1725.403599
1502.156097
1257.835751
1030.608716
838.3598652
681.7048313
557.8150471
461.7951585
387.0268733
333.401002
306.7136964
298.0906262
295.2880914
294.0777675
293.4010911
292.9575734
292.637284
292.3915074
292.1955004
292.0352516
291.9020421
291.7900263
291.6950506
291.614019
291.5445517
291.4847893
291.4332745
291.3888673
291.3506565
291.317906
291.290018
291.2664628
291.2467342
291.2303604
291.2168486
291.2056831
291.1964099
291.1886489
291.1821023
291.1765463
291.1718118
291.1677608
291.1642962
291.1613656
291.1589392
291.1569982
291.1555258
291.1545054
291.1539129
291.1537083
291.1538257
291.1541819
291.154696
291.1552995
291.1559284
291.1564946
291.156798
291.1561915
1877.872949
1892.262812
1773.822648
1576.488383
1346.665996
1122.173463
925.4725386
761.3754734
627.8111337
521.0478407
436.4869891
368.9077352
321.2083077
300.8574794
295.2842163
293.5801169
292.8587264
292.4623044
292.2060654
292.0230765
291.884406
291.7750784
291.6864592
291.6132316
291.5518825
291.499889
291.4554131
291.4170868
291.3838649
291.3549381
291.3296723
291.3075647
291.2882167
291.2713074
291.2565627
291.2437408
291.2326163
291.2229492
291.2145136
291.2071018
291.2005384
291.1946985
291.1895039
291.1849132
291.1808816
291.1773667
291.1743517
291.1718317
291.1698019
291.1682551
291.1671802
291.1665574
291.1663499
291.1664946
291.1669077
291.1674992
291.1681796
291.1688452
291.16933
291.1691114
1852.797685
1901.179627
1812.269287
1640.542898
1427.345493
1208.99542
1009.650375
839.3096361
697.0975363
580.2935285
485.3631115
408.6023125
347.1598185
309.0904049
296.7335635
293.6598417
292.6685735
292.2241166
291.9734437
291.8109563
291.6963355
291.6110004
291.5450825
291.4927888
291.4504392
291.4155253
291.3864387
291.3619146
291.3410343
291.3230988
291.3075673
291.2939733
291.2819368
291.271159
291.2614114
291.2525254
291.2443768
291.2368669
291.229912
291.2234472
291.2174159
291.2117892
291.2065491
291.2017025
291.1972879
291.1933335
291.1898451
291.1868324
291.1843072
291.1822764
291.18074
291.179691
291.1791108
291.1789604
291.1791721
291.1796552
291.1803057
291.1810069
291.1816186
291.1817686
1832.71592
1906.60785
1843.350604
1696.116075
1501.013613
1291.448207
1091.933018
916.3219354
766.5169825
640.6254713
536.0846606
449.9092726
379.3498201
326.360436
301.002337
294.4697979
292.8020305
292.1979811
291.9015599
291.7265855
291.6118437
291.5315585
291.4729064
291.4287239
291.394661
291.3679006
291.3465499
291.32931
291.3152499
291.3036523
291.2939329
291.2856567
291.2784098
291.2718606
291.2657609
291.2599362
291.2542734
291.2487184
291.2432536
291.2378814
291.2326123
291.2274676
291.2224847
291.2177014
291.2131707
291.2089709
291.2051684
291.2017973
291.1988849
291.1964556
291.1945232
291.1930915
291.1921536
291.1916857
291.1916385
291.1919351
291.1924747
291.1931406
291.1938093
291.194231
1818.151805
1910.168006
1868.469232
1743.915926
1567.45089
1368.713415
1171.950769
992.3692313
836.0805376
702.1550155
588.9235775
494.3748346
416.3122175
352.7248658
311.1636955
296.7551796
293.3400067
292.3515019
291.9461568
291.7312545
291.5995557
291.5120175
291.4509154
291.4068559
291.3743422
291.3499244
291.331306
291.316963
291.3058502
291.2971738
291.29031
291.2847536
291.2800776
291.2759211
291.2719864
291.2680801
291.2640739
291.259909
291.2555818
291.2511182
291.2465515
291.241927
291.2373
291.2327314
291.2282854
291.2240409
291.2200935
291.2165176
291.213359
291.2106518
291.2084228
291.2066875
291.2054483
291.2046908
291.2043788
291.2044512
291.2048226
291.2053914
291.2060481
291.2066197
1808.155786
1912.352281
1888.480916
1784.385793
1626.365703
1439.980747
1248.284007
1067.062727
905.3709006
764.5162681
643.4503897
540.8723371
455.2728829
385.0478168
330.9923126
302.4695597
294.6345849
292.7292642
292.0931997
291.8008619
291.6359437
291.5318214
291.4617445
291.4127003
291.3775036
291.3518219
291.3328725
291.318777
291.3082374
291.3003473
291.2944088
291.2898535
291.2862207
291.2831263
291.2802599
291.2773906
291.2743663
291.2711044
291.2675652
291.2637756
291.2597666
291.255592
291.2513171
291.2470017
291.2427144
291.2385385
291.2345673
291.2309004
291.2276124
291.2247448
291.2223277
291.2203825
291.2189174
291.2179244
291.2173763
291.2172263
291.2174077
291.2178411
291.2184356
291.2190697
1801.488979
1913.045462
1903.713303
1817.683994
1677.302417
1504.174678
1319.543429
1139.670947
974.1021424
827.6835096
700.0100936
590.3962585
497.9118285
421.2613375
358.8212433
315.3056748
297.8238678
293.5462444
292.3833337
291.9382069
291.7138179
291.5810204
291.4951917
291.4368166
291.3958308
291.3664509
291.3451074
291.329484
291.3180088
291.3095863
291.303418
291.2988573
291.2953792
291.2925648
291.290079
291.2876652
291.2851442
291.282407
291.2794005
291.2761135
291.2725642
291.2687895
291.2648451
291.2608028
291.2567146
291.2526592
291.248737
291.2450507
291.2416968
291.2387396
291.2362097
291.234127
291.2325002
291.2313256
291.2305823
291.2302342
291.230232
291.2305186
291.2310284
291.2317028
1797.587134
1912.267537
1914.99395
1844.553665
1720.45678
1560.777842
1384.585938
1207.949173
1041.323141
890.4736207
757.309547
641.4996527
542.5667217
459.7546328
392.0182144
338.381722
305.9353232
295.484036
292.9453426
292.1671698
291.83525
291.6564195
291.5467594
291.4744711
291.4247244
291.3895623
291.3642875
291.3459351
291.3325316
291.3227063
291.315523
291.3102871
291.3064118
291.3034174
291.3009235
291.2986366
291.2963432
291.2939017
291.2912311
291.2882976
291.2851024
291.2816719
291.2780505
291.2742952
291.2704617
291.2666002
291.2628009
291.2591553
291.25577
291.252744
291.2501352
291.2479565
291.2462112
291.2448951
291.2439939
291.2434802
291.2433177
291.2434684
291.2438986
291.2446484
1797.388214
1910.484631
1922.711094
1865.501603
1756.142596
1609.710512
1442.990164
1271.29854
1105.705068
952.4384631
814.965125
693.9584373
589.2696332
500.4808374
426.8312135
367.3316748
322.8793352
300.32179
294.125524
292.5579446
292.0159999
291.761452
291.6163873
291.5244703
291.4626417
291.4195252
291.3887735
291.366534
291.3503265
291.3384728
291.3297857
291.323426
291.3187576
291.3152546
291.3124874
291.3101155
291.3078808
291.3056007
291.3031591
291.3004947
291.2975872
291.2944472
291.2911072
291.2876151
291.284028
291.2804048
291.2768074
291.2733033
291.2699764
291.2669214
291.2642341
291.2619601
291.2601116
291.2586844
291.2576637
291.2570267