/*--------------------------------*- C++ -*----------------------------------*\
  =========                 |
  \\      /  F ield         | OpenFOAM: The Open Source CFD Toolbox
   \\    /   O peration     | Website:  https://openfoam.org
    \\  /    A nd           | Version:  10
     \\/     M anipulation  |
\*---------------------------------------------------------------------------*/
FoamFile
{
    format      ascii;
    class       volVectorField;
    location    "3000";
    object      U;
}
// * * * * * * * * * * * * * * * * * * * * * * * * * * * * * * * * * * * * * //

dimensions      [0 1 -1 0 0 0 0];

internalField   nonuniform List<vector> 
5170
(
(-0.004113760439 -5.094010232e-15 49.62282983)
(-0.01465568166 -1.029130052e-14 49.63820039)
(-0.02781875872 3.453805448e-15 49.64061958)
(-0.06829406212 -2.154504434e-14 49.6000709)
(0.01209920526 -5.703578363e-15 48.76360916)
(-0.01688554989 -2.222796678e-12 49.96556892)
(-0.04147628754 -4.317131039e-12 49.97920941)
(-0.06370036548 3.7159023e-12 49.98046244)
(-0.1116770169 4.819615917e-13 49.90269916)
(-0.03861614008 -3.808566596e-12 48.56405877)
(-0.02263231504 3.781706607e-12 50.67980559)
(-0.05024542837 7.922771424e-12 50.68759797)
(-0.07009881621 -8.693778631e-12 50.67704079)
(-0.1041091014 -9.267909871e-13 50.49357194)
(-0.06663604137 -3.795390215e-12 48.2189943)
(-0.01763101454 -4.380339121e-12 51.20623766)
(-0.05085914444 -1.732730736e-11 51.21493663)
(-0.06968826218 -5.96776643e-12 51.19436757)
(-0.1027669152 -1.548233069e-12 50.90940207)
(-0.08866250077 -3.324405421e-12 47.69724807)
(-0.01828221988 7.473790527e-13 51.64227971)
(-0.05382426858 1.073776322e-12 51.63769616)
(-0.08147408468 -6.646483221e-12 51.57471382)
(-0.09987307635 -1.87720381e-12 51.07453108)
(-0.09789488404 -2.938051365e-12 47.12281254)
(-0.01622339661 -4.566501428e-12 52.10370095)
(-0.05582225891 -1.524523596e-11 52.09406284)
(-0.08331937178 -1.654263592e-12 51.995884)
(-0.09126354441 3.239683593e-12 51.24400584)
(-0.09950501213 7.947053059e-13 46.59996374)
(-0.02002558727 -6.214717248e-12 52.62300036)
(-0.05376224147 -1.641083337e-11 52.59765756)
(-0.08135033512 -9.16323867e-12 52.43942776)
(-0.08263761852 1.75199122e-12 51.40102718)
(-0.09790467968 1.238743474e-12 46.13525909)
(-0.01711031637 -5.076045138e-12 53.13521599)
(-0.0554366028 -1.036419799e-11 53.09376268)
(-0.07915750719 -2.148800606e-12 52.87521285)
(-0.07721467505 4.484512845e-12 51.54798834)
(-0.09612676323 1.30364266e-12 45.70547001)
(-0.02007091442 -7.069494536e-12 53.65273812)
(-0.05312123752 -1.244215944e-11 53.60168206)
(-0.07713623971 -1.105092394e-11 53.31770094)
(-0.07182418293 -1.114993767e-12 51.68030481)
(-0.09412729359 1.021122898e-12 45.29776771)
(-0.01605720208 -1.677524072e-13 54.13175336)
(-0.05219451897 -9.539268007e-12 54.05207475)
(-0.07761238146 -2.818146962e-12 53.71534882)
(-0.06969679253 2.755581787e-12 51.7915625)
(-0.0898269678 1.058604867e-12 44.91157258)
(-0.0169757068 -1.306135365e-11 54.60583529)
(-0.04761646273 -6.273874662e-12 54.52561029)
(-0.0751013742 -2.500051098e-12 54.20389146)
(-0.06919471697 3.151363865e-12 51.87027682)
(-0.08107265541 1.1305612e-12 44.55193427)
(-0.01460294125 1.883438789e-11 55.05149394)
(-0.04923280644 -1.032335096e-11 54.95592234)
(-0.07179974796 -9.608422178e-12 54.54821464)
(-0.05841526103 2.215080378e-12 51.91477137)
(-0.07165806518 1.095150143e-12 44.23015653)
(-0.01805044039 2.618082172e-11 55.50942265)
(-0.04577375763 -2.585818072e-11 55.40748994)
(-0.06889662006 -9.425099539e-12 54.82719022)
(-0.04939869183 1.229293904e-12 51.94804506)
(-0.06325694283 9.577243557e-13 43.95676899)
(-0.01444422834 2.039398391e-11 55.95763271)
(-0.04863287206 -1.332635836e-11 55.80120314)
(-0.06683672381 -9.597115042e-12 55.09893313)
(-0.04444826649 1.590929253e-13 51.98364091)
(-0.05549107914 7.667817121e-13 43.72590026)
(-0.01777394842 -6.152172567e-12 56.40587632)
(-0.04224585475 -1.263997211e-11 56.25413668)
(-0.06742868241 -8.138362443e-12 55.35339646)
(-0.03938302437 -5.634019574e-13 51.98457619)
(-0.04705052422 5.938516834e-13 43.5253645)
(-0.01188021741 -4.060633127e-11 56.83723855)
(-0.04656926998 -2.962798415e-11 56.58361335)
(-0.05906345712 -1.110269639e-11 55.61031563)
(-0.03928823843 -1.427558781e-12 51.96843128)
(-0.03846569115 4.162555764e-13 43.35933532)
(-0.01765812038 2.28603445e-11 57.22247266)
(-0.03021989358 -1.60910802e-11 57.02987786)
(-0.06524419604 -1.776528728e-12 55.86132803)
(-0.03248039642 -8.30994567e-13 51.94377798)
(-0.03051952756 3.497898633e-13 43.21037861)
(-0.004147000477 -2.855384687e-11 57.64913221)
(-0.04636377104 1.434739271e-12 57.29451212)
(-0.03867384022 -1.499756479e-11 56.08264868)
(-0.02941193117 -1.158787605e-12 51.87324965)
(-0.02137384539 2.888451446e-13 43.11142651)
(-0.01362762036 -9.600332874e-12 57.99862945)
(0.01583445048 -1.909987466e-11 57.76624258)
(-0.0561583025 -5.084696486e-12 56.42399925)
(-0.04218738816 -9.68108457e-13 51.91068508)
(-0.017519519 2.440602672e-13 43.05905621)
(-0.1305418993 -1.973732775e-11 58.81668702)
(-0.3809099293 -1.33898624e-11 58.56534815)
(-0.4543786477 -4.156503039e-12 57.27369471)
(-0.5321290222 -7.795547193e-13 52.30162087)
(-0.2652320404 2.173012404e-13 43.50941267)
(-0.06192521669 6.268903627e-12 9.413354482)
(0.1995656556 5.337150105e-11 11.56776715)
(-0.1245540357 1.018640482e-11 11.49805101)
(-0.5188739411 1.564912237e-11 11.46764901)
(0.05884051192 9.728210537e-13 8.824338955)
(0.08204962104 4.769706197e-12 9.91281975)
(0.0785324363 4.912959391e-12 12.8274125)
(-0.1307601067 -1.121484131e-11 12.7461709)
(-0.3459475891 1.368242415e-11 12.51393779)
(-0.06558177808 5.191693418e-11 8.932372536)
(0.1081597766 2.149544313e-11 9.764635175)
(0.04528220257 6.995221482e-11 13.96749193)
(-0.08804852573 -8.27187341e-12 14.35492467)
(-0.2384868647 -1.288975175e-11 13.5367674)
(-0.1071657025 -1.428472183e-11 8.441771105)
(0.1040810965 -9.997919163e-11 9.390677743)
(0.02878241456 -6.268055168e-11 14.45913752)
(-0.1069971634 -7.082304812e-11 14.96208974)
(-0.2113327476 -3.516086253e-11 13.57754369)
(-0.09691500382 -3.860946733e-11 7.521014463)
(0.06153032428 -6.877195099e-11 8.964669144)
(0.03624197537 -1.141009141e-10 14.69370477)
(-0.05781246082 -2.549498111e-11 15.41080365)
(-0.1545693114 3.598249576e-11 13.55377712)
(-0.03216592165 3.092695691e-11 6.849960194)
(0.03906329945 -7.959922838e-11 8.768176523)
(0.03525943603 -1.627810214e-10 14.87475722)
(-0.01838861321 -8.531175001e-12 15.71974143)
(-0.08883730958 -1.825315599e-11 13.59648176)
(-0.002107135272 -6.865212167e-11 6.609109843)
(0.02656389585 -5.789841456e-11 8.640496594)
(0.03234454701 -7.981051973e-11 15.01620373)
(-0.007437750403 -1.786609398e-11 16.06132441)
(-0.06302341088 -4.998279543e-11 13.64333865)
(0.008391667397 -3.104864579e-11 6.519258728)
(0.01746184732 -4.471119703e-11 8.536983104)
(0.01711648602 -1.149813049e-10 15.12663474)
(-0.007103915801 -4.67589754e-11 16.24969227)
(-0.03550577884 -4.553067841e-11 13.64953409)
(0.01098468533 -5.432490972e-11 6.474139139)
(0.01289745425 -7.077352163e-11 8.464637314)
(0.006577422786 -2.443153103e-11 15.20583495)
(-0.006561728617 -1.317610336e-11 16.33069682)
(-0.01665839609 -3.776256169e-11 13.63116923)
(0.01057705822 4.063139641e-11 6.465215952)
(0.008058537087 3.408723915e-11 8.431155918)
(0.002582805883 -1.241890668e-10 15.26246524)
(-0.004849526529 -1.623210671e-12 16.38545042)
(-0.008311738122 1.490858838e-11 13.60859277)
(0.01012764179 4.159480039e-11 6.476111303)
(0.004541123888 -1.56784655e-10 8.424968633)
(0.0004397157929 -3.844187894e-11 15.30510108)
(-0.003208504018 -2.680043972e-11 16.41948919)
(-0.003034774757 -7.936635698e-11 13.58236438)
(0.009504761727 -7.275252783e-11 6.508602876)
(0.003061986079 -3.723274751e-11 8.430245046)
(-0.001188037011 -4.954131814e-11 15.33918941)
(-0.002074480285 -8.368001245e-11 16.43794176)
(0.0003015933768 -1.159909462e-11 13.56108322)
(0.008233533901 -3.244657329e-11 6.547384719)
(0.001408974102 1.321463627e-10 8.445716373)
(-0.002916527917 -3.865158074e-11 15.36739617)
(-0.001483366171 -9.880200711e-11 16.44342477)
(0.002515863925 -9.070685832e-11 13.54514419)
(0.007345306936 -2.627218036e-11 6.590613374)
(0.0002205537477 6.142411141e-11 8.469447075)
(-0.0043692349 -2.381680244e-11 15.39016913)
(-0.0008708651767 -9.465215447e-11 16.43788663)
(0.003834159251 -8.956265703e-11 13.52770966)
(0.006775213092 -4.749637607e-11 6.633252485)
(-0.0005982023779 5.872833237e-11 8.495403652)
(-0.005338444039 -8.203682046e-11 15.40886305)
(-0.0008367427727 -8.828814641e-11 16.42427395)
(0.004246027931 -1.720340703e-10 13.51333474)
(0.00507640984 1.529403109e-11 6.678057041)
(-0.003401910483 -1.140806636e-10 8.531737743)
(-0.009537481072 -8.83602634e-11 15.42468063)
(-0.003508890345 -9.573033425e-11 16.40808679)
(0.003431625185 -1.260165049e-10 13.50655598)
(0.003925026687 -1.98212567e-11 6.71170569)
(-0.01283818138 -7.331076022e-11 8.608820335)
(-0.02998061692 -8.530462996e-11 15.4439813)
(-0.01741749954 -9.477284301e-11 16.37974819)
(-0.002844943614 -1.052427183e-10 13.48940476)
(0.0003261372403 -2.982537691e-11 6.738992385)
(-0.05903748948 -5.731533218e-11 8.805436965)
(-0.1059165736 -8.209599493e-11 15.4770617)
(-0.07034905562 -9.065565766e-11 16.31056601)
(-0.02838538898 -8.820395038e-11 13.41833023)
(-0.01280447159 -3.007555211e-11 6.719734397)
(-0.226124175 -5.315762839e-11 9.838255718)
(-0.2998187886 -8.038181247e-11 15.69762196)
(-0.2236437533 -8.58786715e-11 16.18350903)
(-0.1285616827 -7.650777831e-11 13.23143268)
(-0.05247439862 -2.871383147e-11 6.568338746)
(-1.845509883 -5.92466046e-11 11.0520716)
(-1.502351926 -6.626222362e-11 14.96638634)
(-1.03436842 -3.684071459e-11 15.1642943)
(-0.3142359716 -5.843850692e-11 12.15910689)
(0.012675237 -2.349388032e-11 5.440271392)
(0.004974600481 1.470134426e-11 60.65408208)
(0.02419565243 -2.01130405e-11 60.16829577)
(0.09628341983 -4.355740244e-12 58.11255821)
(-0.002067341433 -9.903512374e-13 53.04646569)
(1.186955315 -2.237059149e-12 44.14598169)
(0.004196208468 1.490205112e-11 60.58517544)
(0.03084292985 -1.63538572e-11 60.0165741)
(0.0871137409 -1.12713683e-12 57.96894158)
(0.02180787202 -2.311660891e-12 52.83870947)
(1.007083843 -4.454584561e-12 44.22049996)
(0.006406520325 -1.257085492e-11 60.42779601)
(0.02442484041 -2.43578103e-11 59.79150832)
(0.1288656977 -8.436053433e-12 57.65214458)
(0.1777645336 3.17194797e-13 52.5527275)
(1.012998481 -1.609086088e-12 44.4338369)
(0.01290713536 5.790326118e-12 60.16951083)
(0.02851308814 -2.256345187e-11 59.47791209)
(0.1533716599 -1.11679146e-11 57.11752591)
(0.3432197715 -4.378793995e-12 51.94243172)
(1.069194994 -1.236101561e-11 44.62051947)
(0.0185242037 1.186458483e-12 59.86639912)
(0.0381286407 -1.344894409e-11 59.10525866)
(0.18469024 -2.113931719e-12 56.50940759)
(0.4693463812 -1.531904614e-12 51.38494913)
(1.11134311 -6.884061398e-12 44.84004447)
(0.02143032966 -5.14023454e-12 59.52212277)
(0.04977533406 -1.756671784e-11 58.69304666)
(0.2184333376 -3.164541385e-12 55.95914726)
(0.5793761935 -1.351590755e-11 50.90010469)
(1.146606314 -1.332051668e-11 44.97255546)
(0.01599813505 -3.488254959e-12 59.18230161)
(0.07087751992 -7.775515135e-12 58.26620985)
(0.2721276927 8.953708008e-12 55.35775226)
(0.7158470977 6.11044655e-12 50.4020998)
(1.201035387 3.457071876e-12 45.08534502)
(0.026339797 -4.882073029e-12 58.90204393)
(0.1024525835 -1.077636519e-11 57.80301699)
(0.3728024333 -1.132764136e-11 54.70294659)
(0.8316914737 -7.874951638e-12 49.99762988)
(1.232967235 -1.080687128e-11 45.19804765)
(0.03810281203 1.394422687e-12 58.62771125)
(0.1498575952 3.231453309e-12 57.32978686)
(0.4849923065 1.414464735e-11 54.07006809)
(0.9094945939 2.027689233e-12 49.739607)
(1.240256736 -2.293160941e-12 45.348928)
(0.05794952294 -7.040754022e-12 58.37689193)
(0.2176030104 -9.246080241e-12 56.82091233)
(0.5937490847 4.965067115e-12 53.4800191)
(0.9652007772 -4.084869476e-12 49.53757141)
(1.244816668 -1.104468975e-11 45.48093311)
(0.09685424517 9.69958446e-12 57.97832591)
(0.3125539296 -2.5036715e-11 56.23078769)
(0.6790093562 1.199270972e-12 53.00241436)
(1.001616266 -7.990394247e-13 49.37034993)
(1.241545249 -6.89326101e-12 45.58536036)
(0.1408383395 -4.911411578e-11 57.54082461)
(0.4063100908 -3.037315495e-11 55.72412509)
(0.743263253 -1.763680517e-11 52.65624592)
(1.028360335 -1.269463137e-11 49.24615297)
(1.238221578 -1.248508076e-11 45.67853787)
(0.1950735948 -1.943586565e-11 57.02573042)
(0.4864224004 -1.880004086e-11 55.23413063)
(0.8032330751 7.159822459e-12 52.33510024)
(1.062101388 -2.193871599e-12 49.10651372)
(1.253469371 -3.47369035e-12 45.72513992)
(0.1563602778 -7.672834182e-12 56.42590889)
(0.579006087 -7.79771451e-12 54.71862792)
(0.8623907462 -8.053641104e-13 51.98304287)
(1.101003903 -5.027370377e-12 48.92229092)
(1.273492469 -1.104174743e-11 45.71306914)
(0.2641559878 -4.528686151e-12 55.67150137)
(0.6355585561 -9.591031592e-12 54.11500079)
(0.9215111833 -8.983969812e-12 51.56652552)
(1.149747199 -7.215799532e-12 48.67957412)
(1.309314759 -7.363386061e-12 45.64466325)
(0.2078556115 1.111662807e-12 54.55600923)
(0.7077158879 2.876738255e-12 53.25894533)
(0.9814288749 8.486016788e-12 50.96815515)
(1.201633244 -6.271769622e-12 48.29655924)
(1.360933812 -1.490160602e-11 45.45971821)
(0.2820394545 -4.088380413e-12 53.07317664)
(0.702208856 -1.386704259e-11 52.02680429)
(0.9988522571 1.280606721e-11 50.06882562)
(1.230057257 -1.806624677e-13 47.67799724)
(1.397163982 -1.316548257e-11 45.07743373)
(0.1896860376 -1.449001263e-12 51.31424335)
(0.6933015759 -3.924388618e-12 50.50639122)
(0.9821802489 -7.765713519e-12 48.88722235)
(1.213800724 -1.853217255e-11 46.81503819)
(1.38743876 -1.855047952e-11 44.49803769)
(0.2443362008 -1.277217989e-11 49.47490007)
(0.6246960027 -1.707937752e-11 48.8412099)
(0.9166019763 -5.877857184e-12 47.5278769)
(1.153043574 -9.960953371e-12 45.77289661)
(1.330764457 -1.083865189e-11 43.74552029)
(0.1528988258 -1.605573076e-11 47.70461587)
(0.5734377299 -2.936482991e-11 47.20205498)
(0.8374777319 -2.221744548e-11 46.13257622)
(1.06182246 -1.372377887e-11 44.65616939)
(1.238171261 -9.14600908e-12 42.90017343)
(0.190274215 -4.970598967e-12 46.10291884)
(0.493462444 -1.290445027e-11 45.690877)
(0.7436393354 -1.566164432e-11 44.8094754)
(0.959122828 -1.565692183e-11 43.56376949)
(1.131051945 -1.522965961e-11 42.04559402)
(0.1183618801 -3.136769116e-12 44.69559421)
(0.4455272106 -4.195179098e-12 44.34782945)
(0.6656491508 -4.299149452e-12 43.60494012)
(0.8640755343 -3.964702306e-12 42.53936014)
(1.029759426 -1.632349561e-12 41.21661845)
(0.1492593277 1.41330342e-11 43.43692424)
(0.3896708954 1.0498347e-11 43.13620081)
(0.5979558932 7.463325868e-12 42.49941533)
(0.7872305031 -5.436607675e-13 41.57688435)
(0.9480155978 -1.958831131e-12 40.41620517)
(0.09749922221 8.781733726e-12 42.25232549)
(0.3638557829 1.351465652e-11 41.98946954)
(0.55162626 6.513989247e-12 41.43721009)
(0.729752788 4.82805365e-12 40.63206898)
(0.8872316857 5.746789914e-12 39.60831054)
(0.1260025565 -7.632728307e-12 41.08112986)
(0.330605339 2.045348661e-13 40.85312545)
(0.5138060383 3.236125632e-12 40.37111884)
(0.6874475132 7.930034443e-12 39.66451177)
(0.842965292 4.214883569e-12 38.75963513)
(0.09647615741 -4.919439462e-12 39.88862987)
(0.3203929028 2.556879276e-11 39.69083239)
(0.4866235422 3.195426823e-11 39.27013589)
(0.6523391439 3.722134936e-11 38.65003514)
(0.8053276477 3.344725759e-11 37.85068719)
(0.1111260522 -4.432103883e-12 38.67555696)
(0.292088952 -8.755494535e-12 38.50566446)
(0.4573929739 3.17017279e-12 38.13957207)
(0.6181972752 1.172346398e-11 37.59657346)
(0.7671855496 1.561021078e-11 36.89217327)
(0.08465710484 1.024656423e-12 37.47166055)
(0.2818246417 2.767349329e-12 37.32406321)
(0.4304735277 8.279194876e-12 37.00473748)
(0.5817596634 1.730676222e-11 36.52881943)
(0.7251510351 9.607375656e-12 35.90782862)
(0.09655437092 9.50438944e-12 36.30401777)
(0.2541548979 2.628464876e-11 36.17565777)
(0.3999294621 2.153414547e-11 35.89631137)
(0.5441905565 1.865647382e-11 35.47813378)
(0.6808439145 1.427185165e-11 34.93003978)
(0.07315807368 -4.058177763e-12 35.19868209)
(0.2439358693 -1.056053108e-11 35.08431264)
(0.3740922888 -1.10932807e-11 34.83755131)
(0.5085365878 -1.520012577e-11 34.4678602)
(0.6384930144 -1.064894003e-11 33.98174714)
(0.08412461526 9.585125176e-12 34.15376211)
(0.2217534668 2.663667979e-11 34.05164887)
(0.3503579345 1.273034245e-11 33.83240154)
(0.4792821653 5.912726093e-12 33.50362876)
(0.60356837 2.038593713e-12 33.07006765)
(0.065087073 -2.563235011e-11 33.16782624)
(0.2177120366 -2.219822357e-11 33.07479942)
(0.3351312359 -2.549285463e-11 32.87793026)
(0.4578437365 -1.569114368e-11 32.58309041)
(0.5783634885 -1.002188312e-11 32.19352972)
(0.07754250318 3.332930562e-12 32.22934301)
(0.2045625084 1.346539201e-11 32.14503744)
(0.32407889 1.101560365e-11 31.9674413)
(0.4449608597 6.150207046e-12 31.70126827)
(0.5628404838 5.145452949e-12 31.348726)
(0.06064268064 -4.023751421e-12 31.33339531)
(0.2065577629 -8.35608622e-12 31.25528518)
(0.3185286378 -1.547226829e-11 31.09303425)
(0.4353447918 -2.188028964e-11 30.85006068)
(0.54995526 -3.036765837e-11 30.52764514)
(0.07299881581 4.463529891e-12 30.45840229)
(0.1923825884 2.246961438e-11 30.38645019)
(0.3041319483 9.81390054e-12 30.23646301)
(0.4161787553 9.237300722e-12 30.01156688)
(0.5239186143 3.116552746e-12 29.71270372)
(0.05441613561 2.547988749e-12 29.57379351)
(0.1809652071 4.656334411e-12 29.50543935)
(0.2777412843 7.162537035e-12 29.36472872)
(0.3779323684 7.377947354e-12 29.15410556)
(0.4746275631 6.211237098e-12 28.8744276)
(0.05794278232 1.98750311e-12 28.64982739)
(0.152676407 5.563787829e-12 28.58590108)
(0.2409991967 8.673192638e-12 28.45416305)
(0.329089745 1.051764764e-11 28.25723195)
(0.4132872124 1.127356275e-11 27.99601198)
(0.04072173058 1.214332357e-12 27.69708143)
(0.1353905668 2.449747416e-12 27.63686778)
(0.2078035062 4.375667844e-12 27.51426122)
(0.2830313965 5.957501744e-12 27.33131324)
(0.35601624 -9.692607288e-13 27.08887264)
(0.04298865064 1.721254762e-11 26.73361911)
(0.1133214629 2.558727863e-11 26.67793249)
(0.1790975145 3.186182684e-11 26.56455947)
(0.2449474624 3.471605977e-11 26.39559075)
(0.3081723398 2.659738135e-11 26.17173969)
(0.03035495646 2.534471214e-11 25.77771784)
(0.1009619756 -5.830102934e-12 25.72538834)
(0.1549223165 1.249181982e-11 25.62051755)
(0.2108297775 1.732245596e-11 25.46464938)
(0.2648053059 1.720773751e-11 25.25837654)
(0.03117106622 7.115966961e-12 24.83250723)
(0.0821499383 1.781134835e-11 24.78406845)
(0.1296968882 2.790014668e-11 24.6875787)
(0.1770791003 3.925607142e-11 24.54460127)
(0.2223463536 3.556368911e-11 24.35565665)
(0.0213248444 7.523967175e-12 23.91207044)
(0.07100472457 2.629988757e-11 23.86691996)
(0.1091286014 2.13229629e-11 23.77873083)
(0.1488728924 2.306300305e-11 23.64857787)
(0.1877033791 2.583570182e-11 23.47680888)
(0.02263683603 7.748459303e-12 23.03184026)
(0.05972268086 1.079481892e-11 22.99019729)
(0.09462060443 1.501150013e-11 22.90979517)
(0.1298164673 1.110566391e-11 22.79157483)
(0.1640472295 8.282442156e-12 22.63566608)
(0.01632656551 8.375148233e-12 22.1952287)
(0.05442166365 2.587165912e-11 22.15636568)
(0.08379894537 1.917012096e-11 22.08278707)
(0.1145891037 2.344971293e-11 21.97504572)
(0.144909152 1.599540057e-11 21.8330924)
(0.01755657166 8.887166173e-13 21.39435558)
(0.04632125452 2.286662583e-12 21.35830871)
(0.07340726268 3.590450439e-12 21.2908666)
(0.1007326771 4.485082345e-12 21.19247179)
(0.127368493 4.994796647e-12 21.06294593)
(0.01246194496 5.652966189e-12 20.62308111)
(0.04154529464 9.521251617e-12 20.58944934)
(0.0639648829 2.280704664e-11 20.52756173)
(0.0874489016 1.303003823e-11 20.4375925)
(0.1106264442 1.111022619e-11 20.31927015)
(0.01306095824 3.069626536e-13 19.87646709)
(0.03446133151 -4.80056968e-13 19.84538256)
(0.05461914772 7.00893548e-12 19.78866207)
(0.07495413364 1.563368129e-11 19.70644144)
(0.09484889262 1.759285268e-11 19.59838118)
(0.009007121113 -9.930909184e-12 19.15406707)
(0.03004261977 -2.152940341e-11 19.1251468)
(0.04628101628 -1.611246977e-11 19.07315831)
(0.06330199043 -1.327552309e-12 18.99803845)
(0.08019049277 8.961808916e-12 18.89939337)
(0.009180439289 -1.026583984e-12 18.45604752)
(0.02423226331 -2.774868757e-12 18.4293371)
(0.03844174802 -3.765034347e-12 18.3817491)
(0.05279358014 -4.213603527e-12 18.31320041)
(0.06694228583 -4.632489703e-12 18.22324835)
(0.006168652553 8.364534823e-12 17.7855763)
(0.02059352406 8.581133836e-12 17.76068373)
(0.03176725865 1.514281053e-11 17.71708629)
(0.04349622999 1.501285634e-11 17.65453765)
(0.05525163097 1.669559882e-11 17.57254951)
(0.006171799906 2.790960995e-12 17.14400935)
(0.01630221651 -3.317876933e-12 17.12091885)
(0.02590389754 1.334526215e-11 17.08098604)
(0.03561999609 1.932590026e-11 17.02393908)
(0.04532189054 2.537547318e-11 16.94924685)
(0.004109810784 -1.196235448e-11 16.53314162)
(0.01373627713 1.262034412e-11 16.51155158)
(0.02122911357 6.77084024e-12 16.47492792)
(0.02910406062 9.999816959e-12 16.42287251)
(0.03711655131 1.295623551e-11 16.35481536)
(0.004124447161 2.492076254e-12 15.95277386)
(0.01090299116 6.303530373e-12 15.93265812)
(0.0173599632 1.665729707e-11 15.89905939)
(0.02390080308 1.389791757e-11 15.85155148)
(0.03053953007 1.726350506e-11 15.78953103)
(0.002779457232 -2.632071431e-12 15.40268905)
(0.009301168921 1.922311987e-11 15.3838307)
(0.0144028897 1.956383676e-11 15.35296052)
(0.01977355194 1.961662788e-11 15.30956365)
(0.02531611598 2.323622576e-11 15.25300893)
(0.002847851841 1.615991171e-12 14.88187356)
(0.007533820575 5.891032782e-12 14.86423097)
(0.01201545868 -3.995860342e-12 14.83584674)
(0.01657503263 -8.092308991e-12 14.7961814)
(0.02122235397 -1.462662124e-11 14.74458128)
(0.001964030621 1.206643378e-11 14.38905949)
(0.006579319254 4.478887543e-14 14.37246944)
(0.01019851327 -2.624135384e-12 14.34632493)
(0.01404617008 -4.172333288e-12 14.31002503)
(0.01795310672 -3.070322149e-12 14.26289729)
(0.002063309532 6.681615776e-12 13.92326549)
(0.005461549386 1.974628329e-11 13.90767529)
(0.008712409116 1.654831369e-11 13.88356534)
(0.0120756759 8.468944137e-12 13.85030993)
(0.01536432431 4.335068176e-12 13.80722101)
(0.001454564146 -1.224576692e-11 13.48247823)
(0.004876780453 -1.071304797e-11 13.46776209)
(0.007557192214 3.115207545e-12 13.4454841)
(0.0104639073 -5.699364641e-12 13.41496843)
(0.01326097414 -1.159821433e-11 13.37551416)
(0.001566779244 -1.157718541e-12 13.06621391)
(0.004148358575 -4.396741925e-12 13.05232658)
(0.006618126783 -1.298760161e-11 13.03171645)
(0.009196426651 -1.686706165e-11 13.00367935)
(0.01166611129 -1.907537747e-11 12.96750431)
(0.001125395068 7.337570559e-12 12.67121723)
(0.003774067383 -2.953341711e-12 12.65808217)
(0.005860695387 -8.38322334e-12 12.63899719)
(0.008076257867 -1.162631971e-11 12.61321657)
(0.01037684066 -1.063818452e-11 12.580021)
(0.001250002322 -8.540651888e-12 12.29871704)
(0.003309107468 4.138762946e-12 12.2862935)
(0.005306479668 1.074886617e-11 12.26860052)
(0.007259646741 1.888009514e-11 12.24486994)
(0.009574724665 1.989130717e-11 12.21437638)
(0.0009136887945 -1.754922917e-11 11.9425408)
(0.003064873685 -1.607723903e-11 11.93076464)
(0.004801965966 -1.228264926e-11 11.91434938)
(0.006441442623 -9.968847869e-12 11.89250501)
(0.008839609523 -9.129281303e-12 11.86450162)
(0.001063441721 -1.318899702e-11 11.6083013)
(0.002817015123 -1.566489815e-11 11.59712188)
(0.004568107324 -1.014119841e-11 11.58186162)
(0.006005587971 -6.800364792e-12 11.56172286)
(0.008612640119 -8.520267686e-12 11.53596946)
(0.0007706702831 4.135600577e-13 11.28326361)
(0.002590461436 5.149910069e-13 11.27269231)
(0.004123782869 -4.985037739e-13 11.25855274)
(0.005328274633 -6.486503168e-13 11.24003261)
(0.0079853684 -3.994139282e-13 11.21640189)
(0.0009642433276 3.597826017e-13 10.98448269)
(0.002556239231 4.823052688e-12 10.97435897)
(0.004200476396 -4.001794663e-12 10.96111592)
(0.005301740097 -1.960828633e-11 10.9439353)
(0.008404317739 -2.832480304e-11 10.92206689)
(0.0006595231975 -1.131154545e-11 10.68179495)
(0.002223205603 -4.302012145e-12 10.6721289)
(0.003587630694 -5.006076365e-12 10.65976972)
(0.004388442474 -8.436079554e-12 10.64390981)
(0.007462065361 -9.42179601e-12 10.62382879)
(0.0009985553415 2.007641374e-12 10.42028934)
(0.002644668023 4.289660527e-12 10.41093013)
(0.004365996331 4.177497323e-12 10.39923206)
(0.005436390351 2.105081659e-12 10.3844026)
(0.008912320953 5.145298152e-12 10.36570384)
(0.0005254184565 -1.185964127e-11 10.12240978)
(0.001789124647 -2.1773311e-11 10.11340942)
(0.00292971562 -2.184685868e-11 10.10244242)
(0.003581050997 -2.208597127e-11 10.08875956)
(0.006295208542 -2.223752976e-11 10.07164763)
(0.001313667065 -1.12899572e-11 9.918582482)
(0.003461767274 -1.344952953e-11 9.909344252)
(0.005580112818 -3.611999595e-12 9.898213976)
(0.007340443089 8.888298294e-12 9.884459106)
(0.01055315083 1.972170616e-11 9.867434585)
(0.001227084287 -4.718639843e-12 9.60665963)
(0.004097239149 -1.002376705e-11 9.598294504)
(0.006373945833 -1.41578566e-11 9.588728185)
(0.008564617295 -1.896906673e-11 9.577211782)
(0.0113785749 -1.430388082e-11 9.56305591)
(2.435690803 -1.450293038e-11 36.80873501)
(1.392622966 -1.372169084e-11 38.14456746)
(1.338506493 -1.472763943e-11 39.30916266)
(1.326406622 -2.791882884e-11 40.11144605)
(1.3337844 -9.447587639e-12 40.77055197)
(1.340898711 -1.148088456e-11 41.24888992)
(1.364972479 4.870045318e-12 41.68567212)
(1.365423568 -1.703897963e-11 42.09028823)
(1.346938892 -3.566463391e-12 42.47187612)
(1.33452744 -1.705358025e-11 42.78894281)
(1.318202441 -1.139540342e-11 43.05289953)
(1.306362508 -1.254558372e-11 43.28339986)
(1.313972527 -1.651456974e-12 43.45722228)
(1.331045525 -9.947863213e-12 43.56274127)
(1.366607407 -7.362155808e-12 43.60357235)
(1.41876398 -1.079039337e-11 43.53166966)
(1.458656111 -1.143629062e-11 43.29667436)
(1.456093404 -1.850657654e-11 42.8857782)
(1.405834984 -9.945708585e-12 42.3015253)
(1.316726457 -7.323758715e-12 41.62102487)
(1.211235461 -1.488950632e-11 40.91586218)
(1.111070782 1.309136354e-12 40.21503376)
(1.030143188 -1.531798272e-12 39.52531203)
(0.9711640478 7.680099729e-12 38.81362307)
(0.9285264809 4.629759379e-12 38.05124058)
(0.8919470431 2.80907136e-11 37.22013925)
(0.8532832823 1.605235193e-11 36.33256516)
(0.8095995958 6.537388633e-12 35.41152663)
(0.7624711297 1.205738781e-11 34.48971029)
(0.7173819499 -9.285165887e-12 33.58943428)
(0.6798024389 -6.960658597e-12 32.7187564)
(0.6530667767 -8.26514757e-12 31.87680216)
(0.6360405723 5.460766524e-12 31.06112491)
(0.6206895046 -2.702059255e-11 30.26385861)
(0.589513944 3.111055511e-12 29.46781513)
(0.5331326785 2.101014638e-12 28.64540916)
(0.4643444678 9.984073982e-12 27.78233518)
(0.4005290949 1.975535826e-12 26.89068576)
(0.3466878093 2.527593484e-11 25.98875728)
(0.2974119712 1.767184317e-11 25.08986999)
(0.2498017472 2.428008498e-11 24.20146306)
(0.2116528506 2.500332783e-11 23.3366763)
(0.1852736115 6.577540991e-12 22.50842471)
(0.1637021657 1.280288767e-11 21.71721723)
(0.1438477381 5.176493861e-12 20.95720157)
(0.1249353777 9.507540664e-12 20.2226692)
(0.1071112097 1.183877737e-11 19.5101444)
(0.09058066726 1.420126483e-11 18.81884121)
(0.0756197426 -5.117603778e-12 18.14978549)
(0.06243198318 1.969894278e-11 17.5055922)
(0.05121295648 2.85642031e-11 16.88824699)
(0.04194055096 1.392778972e-11 16.29924042)
(0.03450177052 1.44780202e-11 15.73888758)
(0.02861164052 2.509229463e-11 15.20683147)
(0.02402033114 -1.678026107e-11 14.70244697)
(0.02039882361 -7.181549378e-12 14.22441664)
(0.01755779998 4.508770835e-12 13.77204611)
(0.01523740521 -1.538579405e-11 13.34333139)
(0.01339264189 -1.687498512e-11 12.93803411)
(0.01176156896 -1.091039009e-11 12.55301878)
(0.01055582317 1.815186946e-11 12.18960517)
(0.009348108353 -9.299524495e-12 11.84176394)
(0.00872012529 -9.058336055e-12 11.51509346)
(0.007622230909 7.441192301e-14 11.19723337)
(0.007646189998 -3.604581186e-11 10.90436935)
(0.006273136987 -1.011281165e-11 10.60755718)
(0.007822224948 6.431100162e-12 10.35051896)
(0.005209858355 -1.668843157e-11 10.05773461)
(0.0106588579 1.920185432e-11 9.853536056)
(0.01250529865 -1.073205786e-11 9.551523647)
(0.8713871629 -3.441464312e-11 26.96719975)
(-2.619947417 -4.354394467e-11 16.39549119)
(-1.662047039 -8.126953208e-11 11.4694823)
(-0.6981700544 -8.251988387e-11 8.033342347)
(-0.2512225643 -2.405973168e-11 3.075760266)
(1.431415129 -2.614917793e-11 30.18831585)
(0.05602940853 -3.41746641e-11 19.48895455)
(-0.5989021166 -3.487150007e-11 12.02053925)
(-0.2853138066 8.647534674e-12 6.953397279)
(-0.12254922 4.549271929e-11 3.066381928)
(1.607770653 -3.965851944e-11 32.4675393)
(0.8387815238 -4.979200016e-11 22.99646746)
(-0.003960983583 -2.145423883e-11 14.54733895)
(-0.1617527326 3.007551121e-11 7.823237694)
(-0.1965798946 3.879011135e-11 3.338922217)
(1.543542428 -5.378077296e-11 33.9355687)
(1.13843797 -1.252731176e-11 25.25271043)
(0.4073561272 1.188313898e-11 17.17330995)
(-0.1576822464 1.474207439e-11 9.954516221)
(-0.2285793766 1.499138075e-11 4.803163695)
(1.521616231 -9.574438151e-12 35.11150943)
(1.263354188 1.644293717e-12 26.95673236)
(0.498538759 2.706238392e-11 19.22961783)
(-0.1660969066 4.978256358e-11 12.23682353)
(-0.2592443612 4.052656651e-11 6.941139196)
(1.502344468 -6.662795511e-12 36.01855704)
(1.277127981 -5.823664748e-13 28.36239324)
(0.6693639837 2.221264995e-11 21.17109415)
(0.09215044996 1.471122973e-11 14.55121172)
(-0.1577730951 2.435633722e-11 9.124986155)
(1.495457774 -1.634897781e-12 36.8968519)
(1.293851479 -1.056776906e-12 29.79285197)
(0.84991148 -1.42892351e-11 23.0971214)
(0.3281319945 5.582330415e-12 16.79243248)
(-0.007096412512 -7.579000263e-12 11.31217616)
(1.469105715 -3.006565615e-11 37.69858764)
(1.300847337 -2.073963991e-11 31.10683077)
(0.955326118 -1.079868526e-11 24.83427361)
(0.4634912929 -1.128846076e-11 18.77360181)
(0.07174193946 -1.354947607e-11 13.29278477)
(1.431109717 -4.792631525e-12 38.39654473)
(1.296136112 -3.087671321e-12 32.18343711)
(1.004374931 1.371582474e-11 26.2000799)