/*--------------------------------*- C++ -*----------------------------------*\
  =========                 |
  \\      /  F ield         | OpenFOAM: The Open Source CFD Toolbox
   \\    /   O peration     | Website:  https://openfoam.org
    \\  /    A nd           | Version:  10
     \\/     M anipulation  |
\*---------------------------------------------------------------------------*/
FoamFile
{
    format      ascii;
    class       volScalarField;
    location    "1";
    object      AR;
}
// * * * * * * * * * * * * * * * * * * * * * * * * * * * * * * * * * * * * * //

dimensions      [0 0 0 0 0 0 0];

internalField   nonuniform List<scalar> 
4000
(
4.34826e-26
1.66919e-25
3.49483e-25
6.25577e-25
1.03916e-24
1.65265e-24
2.55446e-24
3.86829e-24
5.76488e-24
8.38611e-24
1.19525e-23
1.67595e-23
2.31571e-23
3.15303e-23
4.22728e-23
5.57436e-23
7.22035e-23
9.17523e-23
1.14268e-22
1.39381e-22
1.66495e-22
1.94836e-22
2.2354e-22
2.51886e-22
2.78936e-22
3.03554e-22
3.25864e-22
3.45816e-22
3.62563e-22
3.76387e-22
3.87031e-22
3.94697e-22
3.99456e-22
4.01467e-22
4.00974e-22
3.98236e-22
3.93517e-22
3.87068e-22
3.79148e-22
3.69984e-22
3.59722e-22
3.48712e-22
3.37057e-22
3.24886e-22
3.12412e-22
2.99588e-22
2.86854e-22
2.73906e-22
2.61258e-22
2.48423e-22
2.36111e-22
2.24097e-22
2.12369e-22
2.00962e-22
1.89902e-22
1.79211e-22
1.68903e-22
1.58983e-22
1.49453e-22
1.40185e-22
1.31322e-22
1.22724e-22
1.14351e-22
1.0617e-22
9.80785e-23
9.02181e-23
8.24975e-23
7.49126e-23
6.72268e-23
5.99899e-23
5.29517e-23
4.61139e-23
3.95501e-23
3.33076e-23
2.74525e-23
2.2076e-23
1.70152e-23
1.26279e-23
8.99223e-24
6.13743e-24
4.02311e-24
2.54425e-24
1.56116e-24
9.34591e-25
5.484e-25
3.1655e-25
1.80218e-25
1.01374e-25
5.6529e-26
3.12692e-26
1.71692e-26
9.36106e-27
5.06695e-27
2.71961e-27
1.44338e-27
7.5277e-28
3.80771e-28
1.81395e-28
7.52359e-29
1.75621e-29
4.35409e-26
1.67139e-25
3.49969e-25
6.2657e-25
1.04109e-24
1.6562e-24
2.56057e-24
3.87809e-24
5.77937e-24
8.40789e-24
1.1981e-23
1.67916e-23
2.31857e-23
3.1542e-23
4.22445e-23
5.56383e-23
7.19651e-23
9.1334e-23
1.13637e-22
1.38527e-22
1.65437e-22
1.93638e-22
2.22316e-22
2.5045e-22
2.77447e-22
3.02066e-22
3.24431e-22
3.44554e-22
3.61449e-22
3.75479e-22
3.86352e-22
3.94208e-22
3.99098e-22
4.01224e-22
4.00823e-22
3.98157e-22
3.93491e-22
3.87077e-22
3.7918e-22
3.70027e-22
3.59763e-22
3.48744e-22
3.37069e-22
3.24859e-22
3.1236e-22
2.99523e-22
2.86762e-22
2.73759e-22
2.61075e-22
2.4819e-22
2.35855e-22
2.23809e-22
2.12041e-22
2.00603e-22
1.89509e-22
1.78789e-22
1.6846e-22
1.58532e-22
1.4898e-22
1.39709e-22
1.30819e-22
1.22191e-22
1.13785e-22
1.05568e-22
9.74471e-23
8.95504e-23
8.18047e-23
7.42212e-23
6.65176e-23
5.92708e-23
5.22077e-23
4.54085e-23
3.88542e-23
3.26229e-23
2.67569e-23
2.13661e-23
1.63846e-23
1.20972e-23
8.57636e-24
5.83687e-24
3.82337e-24
2.42169e-24
1.49113e-24
8.96954e-25
5.29232e-25
3.07281e-25
1.76032e-25
9.97278e-26
5.58513e-26
3.09753e-26
1.70335e-26
9.29377e-27
5.03096e-27
2.69858e-27
1.43156e-27
7.46246e-28
3.77264e-28
1.79664e-28
7.45072e-29
1.73893e-29
4.3668e-26
1.67641e-25
3.51086e-25
6.2871e-25
1.04488e-24
1.66255e-24
2.57064e-24
3.89315e-24
5.80031e-24
8.43654e-24
1.20163e-23
1.683e-23
2.3221e-23
3.15603e-23
4.22257e-23
5.55508e-23
7.17862e-23
9.10281e-23
1.13164e-22
1.37849e-22
1.64524e-22
1.92463e-22
2.20915e-22
2.48996e-22
2.75964e-22
3.00609e-22
3.23083e-22
3.43248e-22
3.60251e-22
3.74425e-22
3.85356e-22
3.93279e-22
3.9826e-22
4.0049e-22
4.0018e-22
3.97588e-22
3.92981e-22
3.86605e-22
3.78734e-22
3.69593e-22
3.59325e-22
3.48296e-22
3.36598e-22
3.24348e-22
3.11853e-22
2.98983e-22
2.86164e-22
2.73111e-22
2.60352e-22
2.47419e-22
2.35063e-22
2.2295e-22
2.11143e-22
1.99666e-22
1.88538e-22
1.77802e-22
1.67458e-22
1.57502e-22
1.47928e-22
1.38671e-22
1.29759e-22
1.21106e-22
1.12665e-22
1.04426e-22
9.63159e-23
8.84098e-23
8.06575e-23
7.30638e-23
6.53783e-23
5.81441e-23
5.11385e-23
4.43415e-23
3.78805e-23
3.17729e-23
2.58475e-23
2.06094e-23
1.57357e-23
1.15766e-23
8.18771e-24
5.5672e-24
3.64864e-24
2.31498e-24
1.42899e-24
8.62074e-25
5.10173e-25
2.9704e-25
1.70538e-25
9.67204e-26
5.42681e-26
3.01593e-26
1.66172e-26
9.0828e-27
4.92574e-27
2.64851e-27
1.40667e-27
7.33649e-28
3.70953e-28
1.76639e-28
7.32371e-29
1.70892e-29
4.37118e-26
1.6781e-25
3.51444e-25
6.29357e-25
1.04594e-24
1.66412e-24
2.5727e-24
3.89532e-24
5.80151e-24
8.43568e-24
1.20086e-23
1.68068e-23
2.31662e-23
3.14589e-23
4.20577e-23
5.52991e-23
7.1425e-23
9.05328e-23
1.12517e-22
1.37047e-22
1.63583e-22
1.91424e-22
2.19732e-22
2.47743e-22
2.74701e-22
2.99314e-22
3.21776e-22
3.41968e-22
3.58964e-22
3.73158e-22
3.84138e-22
3.9213e-22
3.97191e-22
3.99507e-22
3.9928e-22
3.96738e-22
3.92182e-22
3.85838e-22
3.77985e-22
3.68845e-22
3.58562e-22
3.47506e-22
3.35793e-22
3.2353e-22
3.10981e-22
2.98069e-22
2.85194e-22
2.72082e-22
2.59293e-22
2.46321e-22
2.3393e-22
2.21782e-22
2.09928e-22
1.984e-22
1.87254e-22
1.76485e-22
1.6611e-22
1.56133e-22
1.46546e-22
1.37317e-22
1.28405e-22
1.19773e-22
1.11186e-22
1.02958e-22
9.48752e-23
8.69701e-23
7.92276e-23
7.16586e-23
6.4068e-23
5.68313e-23
4.98243e-23
4.31317e-23
3.67478e-23
3.06802e-23
2.49023e-23
1.98001e-23
1.50324e-23
1.10068e-23
7.75564e-24
5.26051e-24
3.44412e-24
2.1859e-24
1.35119e-24
8.16878e-25
4.84669e-25
2.82972e-25
1.62915e-25
9.26465e-26
5.21128e-26
2.90269e-26
1.60243e-26
8.77238e-27
4.7623e-27
2.56134e-27
1.36109e-27
7.10325e-28
3.59391e-28
1.71237e-28
7.10325e-29
1.65796e-29
4.36847e-26
1.67706e-25
3.51226e-25
6.28952e-25
1.04521e-24
1.66279e-24
2.57022e-24
3.89059e-24
5.79247e-24
8.41834e-24
1.19789e-23
1.67586e-23
2.30938e-23
3.13501e-23
4.18969e-23
5.50673e-23
7.11021e-23
9.00996e-23
1.1196e-22
1.36361e-22
1.62776e-22
1.90516e-22
2.1876e-22
2.46656e-22
2.73474e-22
2.97951e-22
3.20253e-22
3.40483e-22
3.57547e-22
3.71792e-22
3.82828e-22
3.90879e-22
3.96003e-22
3.98374e-22
3.98183e-22
3.95722e-22
3.91203e-22
3.84878e-22
3.77031e-22
3.67889e-22
3.57587e-22
3.46517e-22
3.34773e-22
3.22451e-22
3.09856e-22
2.96911e-22
2.84002e-22
2.70862e-22
2.58042e-22
2.4502e-22
2.32568e-22
2.20372e-22
2.08476e-22
1.96927e-22
1.85745e-22
1.74953e-22
1.64562e-22
1.54578e-22
1.44987e-22
1.35747e-22
1.26815e-22
1.18139e-22
1.09538e-22
1.01317e-22
9.32806e-23
8.53905e-23
7.76514e-23
7.00487e-23
6.26299e-23
5.54747e-23
4.85429e-23
4.19033e-23
3.55422e-23
2.96147e-23
2.41183e-23
1.88753e-23
1.42942e-23
1.044e-23
7.34169e-24
4.9743e-24
3.25651e-24
2.06858e-24
1.28061e-24
7.757e-25
4.61213e-25
2.69857e-25
1.55688e-25
8.87087e-26
4.99858e-26
2.78854e-26
1.54145e-26
8.44764e-27
4.58985e-27
2.47015e-27
1.31328e-27
6.85637e-28
3.4701e-28
1.65378e-28
6.86139e-29
1.60154e-29
4.35882e-26
1.67337e-25
3.50446e-25
6.27535e-25
1.04279e-24
1.65878e-24
2.56362e-24
3.87964e-24
5.77489e-24
8.39117e-24
1.19386e-23
1.67016e-23
2.30124e-23
3.12336e-23
4.17325e-23
5.48399e-23
7.07952e-23
8.9694e-23
1.11434e-22
1.35693e-22
1.61939e-22
1.89467e-22
2.17472e-22
2.45246e-22
2.72044e-22
2.96543e-22
3.18914e-22
3.39149e-22
3.56201e-22
3.70457e-22
3.81526e-22
3.89617e-22
3.94795e-22
3.9722e-22
3.97086e-22
3.94633e-22
3.9012e-22
3.83791e-22
3.75928e-22
3.66759e-22
3.56442e-22
3.45341e-22
3.33557e-22
3.21182e-22
3.08535e-22
2.95554e-22
2.8258e-22
2.69443e-22
2.5655e-22
2.43462e-22
2.30973e-22
2.18763e-22
2.06871e-22
1.95315e-22
1.84126e-22
1.73328e-22
1.62938e-22
1.52959e-22
1.43376e-22
1.34158e-22
1.25249e-22
1.16606e-22
1.08028e-22
9.98172e-23
9.17704e-23
8.38814e-23
7.61402e-23
6.85682e-23
6.1198e-23
5.40888e-23
4.72402e-23
4.06744e-23
3.44499e-23
2.86185e-23
2.31892e-23
1.80863e-23
1.36493e-23
9.93682e-24
6.96902e-24
4.71289e-24
3.0824e-24
1.9578e-24
1.21277e-24
7.35426e-25
4.37896e-25
2.56629e-25
1.48308e-25
8.46466e-26
4.77749e-26
2.66926e-26
1.47749e-26
8.10523e-27
4.40716e-27
2.37355e-27
1.26277e-27
6.59739e-28
3.34128e-28
1.59322e-28
6.61208e-29
1.54344e-29
4.34293e-26
1.66724e-25
3.49145e-25
6.25163e-25
1.03878e-24
1.65233e-24
2.5537e-24
3.86519e-24
5.75314e-24
8.35749e-24
1.18893e-23
1.66274e-23
2.29037e-23
3.10791e-23
4.15183e-23
5.45503e-23
7.04146e-23
8.92068e-23
1.10827e-22
1.34953e-22
1.61096e-22
1.88524e-22
2.16478e-22
2.44179e-22
2.70906e-22
2.95348e-22
3.17637e-22
3.37847e-22
3.54909e-22
3.69175e-22
3.8024e-22
3.88356e-22
3.93593e-22
3.96044e-22
3.9593e-22
3.93484e-22
3.88971e-22
3.82641e-22
3.74744e-22
3.65545e-22
3.55203e-22
3.44067e-22
3.32241e-22
3.19815e-22
3.0709e-22
2.94158e-22
2.81126e-22
2.68006e-22
2.55061e-22
2.41938e-22
2.29426e-22
2.17192e-22
2.05273e-22
1.93701e-22
1.82505e-22
1.71711e-22
1.61331e-22
1.5137e-22
1.41809e-22
1.32611e-22
1.23726e-22
1.15105e-22
1.06561e-22
9.83721e-23
9.03776e-23
8.25473e-23
7.49029e-23
6.71445e-23
5.98753e-23
5.28342e-23
4.60656e-23
3.95602e-23
3.34129e-23
2.76463e-23
2.23729e-23
1.73869e-23
1.30759e-23
9.48941e-24
6.63822e-24
4.48125e-24
2.92826e-24
1.85968e-24
1.15253e-24
6.99506e-25
4.16968e-25
2.44662e-25
1.4157e-25
8.09026e-26
4.57184e-26
2.55756e-26
1.41761e-26
7.7904e-27
4.24374e-27
2.28848e-27
1.21816e-27
6.36538e-28
3.22367e-28
1.537e-28
6.37833e-29
1.48882e-29
4.3254e-26
1.66049e-25
3.47717e-25
6.22552e-25
1.03432e-24
1.64494e-24
2.54168e-24
3.84579e-24
5.72312e-24
8.31156e-24
1.18145e-23
1.65146e-23
2.274e-23
3.08485e-23
4.12028e-23
5.41314e-23
6.98763e-23
8.85383e-23
1.10028e-22
1.34039e-22
1.60055e-22
1.87399e-22
2.15336e-22
2.43049e-22
2.69705e-22
2.94046e-22
3.16349e-22
3.36553e-22
3.53573e-22
3.67831e-22
3.79012e-22
3.87153e-22
3.92418e-22
3.94881e-22
3.94768e-22
3.92309e-22
3.87765e-22
3.81345e-22
3.73451e-22
3.64247e-22
3.53944e-22
3.42756e-22
3.30881e-22
3.18376e-22
3.05647e-22
2.92693e-22
2.79651e-22
2.66573e-22
2.53605e-22
2.40453e-22
2.27902e-22
2.15644e-22
2.03709e-22
1.92129e-22
1.80936e-22
1.7015e-22
1.59786e-22
1.49845e-22
1.40306e-22
1.31129e-22
1.22264e-22
1.13671e-22
1.05165e-22
9.70115e-23
8.90345e-23
8.12404e-23
7.36149e-23
6.58706e-23
5.86828e-23
5.17115e-23
4.49875e-23
3.85775e-23
3.2516e-23
2.68377e-23
2.16245e-23
1.67511e-23
1.25598e-23
9.09034e-24
6.34547e-24
4.27767e-24
2.7934e-24
1.77392e-24
1.09978e-24
6.6791e-25
3.98446e-25
2.33995e-25
1.35518e-25
7.75118e-26
4.38388e-26
2.45426e-26
1.36116e-26
7.48258e-27
4.07714e-27
2.20005e-27
1.17263e-27
6.13305e-28
3.10733e-28
1.48177e-28
6.14984e-29
1.43557e-29
4.30937e-26
1.65436e-25
3.4643e-25
6.20234e-25
1.03042e-24
1.63863e-24
2.5317e-24
3.83024e-24
5.69933e-24
8.27178e-24
1.17563e-23
1.64314e-23
2.26239e-23
3.06902e-23
4.09908e-23
5.38539e-23
6.95226e-23
8.81003e-23
1.09503e-22
1.33453e-22
1.59369e-22
1.8667e-22
2.14485e-22
2.42044e-22
2.68696e-22
2.93057e-22
3.15324e-22
3.35486e-22
3.5251e-22
3.66743e-22
3.77962e-22
3.86083e-22
3.91332e-22
3.93782e-22
3.93655e-22
3.91178e-22
3.86582e-22
3.80229e-22
3.72308e-22
3.63034e-22
3.52682e-22
3.41441e-22
3.29484e-22
3.16958e-22
3.04191e-22
2.91219e-22
2.78113e-22
2.65029e-22
2.52051e-22
2.38905e-22
2.26387e-22
2.14138e-22
2.02209e-22
1.90632e-22
1.79449e-22
1.6868e-22
1.58336e-22
1.48419e-22
1.38906e-22
1.29757e-22
1.20924e-22
1.12363e-22
1.03926e-22
9.5788e-23
8.78396e-23
8.00723e-23
7.24902e-23
6.47779e-23
5.76302e-23
5.07218e-23
4.40887e-23
3.77751e-23
3.18282e-23
2.60095e-23
2.095e-23
1.62091e-23
1.21348e-23
8.76869e-24
6.11198e-24
4.1153e-24
2.68501e-24
1.70416e-24
1.05626e-24
6.41463e-25
3.82724e-25
2.24822e-25
1.30251e-25
7.45307e-26
4.21719e-26
2.36198e-26
1.31047e-26
7.20558e-27
3.92696e-27
2.11946e-27
1.12962e-27
5.90935e-28
2.99529e-28
1.42894e-28
5.932e-29
1.38493e-29
4.29548e-26
1.64908e-25
3.45337e-25
6.18289e-25
1.02719e-24
1.63348e-24
2.52365e-24
3.81772e-24
5.67966e-24
8.24085e-24
1.17098e-23
1.63637e-23
2.25276e-23
3.05566e-23
4.08109e-23
5.3618e-23
6.92207e-23
8.77222e-23
1.09042e-22
1.32879e-22
1.58746e-22
1.85896e-22
2.13644e-22
2.41228e-22
2.67822e-22
2.92142e-22
3.1438e-22
3.3451e-22
3.51523e-22
3.65746e-22
3.76976e-22
3.85076e-22
3.90305e-22
3.92737e-22
3.92589e-22
3.90079e-22
3.85514e-22
3.79139e-22
3.71184e-22
3.61866e-22
3.51474e-22
3.40189e-22
3.28233e-22
3.15692e-22
3.02902e-22
2.89882e-22
2.76774e-22
2.6368e-22
2.50691e-22
2.37549e-22
2.25002e-22
2.12738e-22
2.00801e-22
1.8924e-22
1.78074e-22
1.67324e-22
1.57004e-22
1.47107e-22
1.3761e-22
1.28485e-22
1.19666e-22
1.11119e-22
1.02774e-22
9.46711e-23
8.67619e-23
7.90372e-23
7.15009e-23
6.38587e-23
5.67612e-23
4.99059e-23
4.33262e-23
3.70621e-23
3.11615e-23
2.54073e-23
2.04249e-23
1.57683e-23
1.17781e-23
8.49157e-24
5.90625e-24
3.96952e-24
2.58621e-24
1.63983e-24
1.01579e-24
6.16728e-25
3.67965e-25
2.16193e-25
1.25295e-25
7.17261e-26
4.06051e-26
2.27538e-26
1.26295e-26
6.94631e-27
3.78716e-27
2.04484e-27
1.09053e-27
5.70838e-28
2.89473e-28
1.38137e-28
5.73549e-29
1.33921e-29
4.28068e-26
1.64339e-25
3.44136e-25
6.1612e-25
1.02356e-24
1.62769e-24
2.51478e-24
3.8047e-24
5.66162e-24
8.21418e-24
1.16715e-23
1.63093e-23
2.2449e-23
3.04459e-23
4.06584e-23
5.34152e-23
6.8961e-23
8.74008e-23
1.08664e-22
1.32415e-22
1.58164e-22
1.85256e-22
2.12956e-22
2.40454e-22
2.67028e-22
2.91313e-22
3.1352e-22
3.33617e-22
3.50611e-22
3.64813e-22
3.7603e-22
3.84114e-22
3.89342e-22
3.91761e-22
3.91611e-22
3.89107e-22
3.84512e-22
3.78098e-22
3.70115e-22
3.60771e-22
3.50356e-22
3.39064e-22
3.27091e-22
3.14531e-22
3.01709e-22
2.88674e-22
2.75549e-22
2.62438e-22
2.49432e-22
2.36279e-22
2.23721e-22
2.11459e-22
1.99531e-22
1.87975e-22
1.76825e-22
1.66098e-22
1.55811e-22
1.45962e-22
1.36385e-22
1.27305e-22
1.18537e-22
1.10032e-22
1.01761e-22
9.36457e-23
8.5781e-23
7.80981e-23
7.05983e-23
6.30479e-23
5.59905e-23
4.91803e-23
4.2651e-23
3.64421e-23
3.05998e-23
2.49409e-23
2.00068e-23
1.54076e-23
1.14786e-23
8.25294e-24
5.72564e-24
3.84011e-24
2.49812e-24
1.5824e-24
9.79645e-25
5.9463e-25
3.54774e-25
2.08477e-25
1.20858e-25
6.92135e-26
3.92014e-26
2.19812e-26
1.22127e-26
6.72653e-27
3.67235e-27
1.98476e-27
1.05862e-27
5.54014e-28
2.80891e-28
1.34029e-28
5.56457e-29
1.2993e-29
4.26751e-26
1.63835e-25
3.43079e-25
6.14217e-25
1.02037e-24
1.62256e-24
2.50672e-24
3.79224e-24
5.64141e-24
8.18294e-24
1.16266e-23
1.6249e-23
2.23741e-23
3.03497e-23
4.05322e-23
5.3243e-23
6.87353e-23
8.71173e-23
1.08301e-22
1.32004e-22
1.57685e-22
1.84728e-22
2.1239e-22
2.39834e-22
2.66348e-22
2.90581e-22
3.12751e-22
3.32809e-22
3.49779e-22
3.63956e-22
3.75155e-22
3.83221e-22
3.88421e-22
3.90835e-22
3.90673e-22
3.88138e-22
3.83517e-22
3.7708e-22
3.69066e-22
3.59669e-22
3.49246e-22
3.37952e-22
3.25974e-22
3.13405e-22
3.00563e-22
2.87512e-22
2.74372e-22
2.61249e-22
2.48236e-22
2.35092e-22
2.22523e-22
2.10257e-22
1.98337e-22
1.86803e-22
1.75676e-22
1.64981e-22
1.54714e-22
1.44884e-22
1.35352e-22
1.26298e-22
1.17557e-22
1.09079e-22
1.00835e-22
9.27676e-23
8.49221e-23
7.72609e-23
6.97967e-23
6.23342e-23
5.53114e-23
4.85364e-23
4.20472e-23
3.58753e-23
3.00723e-23
2.45265e-23
1.96446e-23
1.50944e-23
1.12168e-23
8.0466e-24
5.57178e-24
3.73108e-24
2.42427e-24
1.53432e-24
9.49363e-25
5.76074e-25
3.43664e-25
2.01956e-25
1.17093e-25
6.70678e-26
3.79869e-26
2.12995e-26
1.1835e-26
6.52155e-27
3.56112e-27
1.92511e-27
1.02747e-27
5.38061e-28
2.72934e-28
1.30272e-28
5.40952e-29
1.2632e-29
4.2563e-26
1.63406e-25
3.42181e-25
6.12607e-25
1.01768e-24
1.61825e-24
2.50001e-24
3.78202e-24
5.62476e-24
8.15671e-24
1.15875e-23
1.61925e-23
2.22936e-23
3.02423e-23
4.03971e-23
5.30858e-23
6.85419e-23
8.68738e-23
1.08001e-22
1.31624e-22
1.57264e-22
1.84269e-22
2.11847e-22
2.39257e-22
2.65722e-22
2.89923e-22
3.12061e-22
3.32082e-22
3.49026e-22
3.63175e-22
3.74353e-22
3.824e-22
3.87583e-22
3.89955e-22
3.89738e-22
3.87205e-22
3.82583e-22
3.76131e-22
3.68095e-22
3.5871e-22
3.48262e-22
3.36934e-22
3.24922e-22
3.12321e-22
2.99465e-22
2.86405e-22
2.7326e-22
2.6014e-22
2.47128e-22
2.33989e-22
2.2144e-22
2.09196e-22
1.97292e-22
1.85773e-22
1.74663e-22
1.6398e-22
1.53744e-22
1.43945e-22
1.3447e-22
1.25438e-22
1.16715e-22
1.08256e-22
1.0003e-22
9.20037e-23
8.4177e-23
7.65406e-23
6.91005e-23
6.17129e-23
5.47104e-23
4.7968e-23
4.15051e-23
3.53767e-23
2.96171e-23
2.41706e-23
1.93222e-23
1.48182e-23
1.09897e-23
7.86839e-24
5.43888e-24
3.63683e-24
2.36043e-24
1.49275e-24
9.23182e-25
5.60036e-25
3.34069e-25
1.96334e-25
1.13864e-25
6.52535e-26
3.69988e-26
2.07704e-26
1.15476e-26
6.36351e-27
3.47512e-27
1.87862e-27
1.00245e-27
5.24908e-28
2.66249e-28
1.27077e-28
5.27673e-29
1.23219e-29
4.24698e-26
1.6305e-25
3.41437e-25
6.11274e-25
1.01547e-24
1.61472e-24
2.49455e-24
3.77378e-24
5.61109e-24
8.1351e-24
1.15553e-23
1.61465e-23
2.22293e-23
3.01545e-23
4.02791e-23
5.29292e-23
6.83511e-23
8.66497e-23
1.07736e-22
1.31314e-22
1.56906e-22
1.83856e-22
2.11409e-22
2.38769e-22
2.65194e-22
2.89352e-22
3.11453e-22
3.31438e-22
3.48347e-22
3.62469e-22
3.73623e-22
3.81642e-22
3.86788e-22
3.89146e-22
3.8894e-22
3.86401e-22
3.8175e-22
3.75272e-22
3.67224e-22
3.5779e-22
3.47326e-22
3.35994e-22
3.23992e-22
3.11401e-22
2.98535e-22
2.85455e-22
2.72278e-22
2.59141e-22
2.46119e-22
2.33008e-22
2.20475e-22
2.08241e-22
1.96358e-22
1.8486e-22
1.73768e-22
1.63113e-22
1.52902e-22
1.43126e-22
1.33706e-22
1.24696e-22
1.15989e-22
1.07536e-22
9.93246e-23
9.13227e-23
8.35146e-23
7.58974e-23
6.84748e-23
6.11634e-23
5.41942e-23
4.74765e-23
4.1052e-23
3.49512e-23
2.92235e-23
2.38638e-23
1.90451e-23
1.45755e-23
1.07892e-23
7.71107e-24
5.3218e-24
3.55405e-24
2.30455e-24
1.4565e-24
9.00415e-25
5.46118e-25
3.25748e-25
1.91451e-25
1.11042e-25
6.36421e-26
3.60846e-26
2.02609e-26
1.12756e-26
6.21749e-27
3.39646e-27
1.836e-27
9.79864e-28
5.13155e-28
2.60317e-28
1.24255e-28
5.15974e-29
1.20489e-29
4.23933e-26
1.62757e-25
3.40826e-25
6.10179e-25
1.01364e-24
1.61182e-24
2.49005e-24
3.76698e-24
5.59981e-24
8.11737e-24
1.15291e-23
1.6109e-23
2.21773e-23
3.00837e-23
4.01847e-23
5.2806e-23
6.81944e-23
8.6443e-23
1.07491e-22
1.31046e-22
1.56604e-22
1.83515e-22
2.1102e-22
2.38337e-22
2.64724e-22
2.88844e-22
3.1091e-22
3.30852e-22
3.47751e-22
3.61853e-22
3.72986e-22
3.80995e-22
3.86131e-22
3.88468e-22
3.88259e-22
3.85692e-22
3.81016e-22
3.74511e-22
3.66433e-22
3.56995e-22
3.46529e-22
3.35198e-22
3.23176e-22
3.1059e-22
2.97743e-22
2.84702e-22
2.71308e-22
2.5821e-22
2.45219e-22
2.32143e-22
2.19621e-22
2.07407e-22
1.95546e-22
1.84069e-22
1.73009e-22
1.62377e-22
1.52193e-22
1.42449e-22
1.33075e-22
1.24098e-22
1.15433e-22
1.06849e-22
9.86844e-23
9.07178e-23
8.29404e-23
7.53487e-23
6.79502e-23
6.07083e-23
5.37559e-23
4.70633e-23
4.06629e-23
3.45933e-23
2.88935e-23
2.36026e-23
1.87905e-23
1.43492e-23
1.06036e-23
7.56746e-24
5.21656e-24
3.48069e-24
2.25562e-24
1.42504e-24
8.80803e-25
5.34193e-25
3.18646e-25
1.87294e-25
1.08644e-25
6.22746e-26
3.53112e-26
1.98249e-26
1.10282e-26
6.08066e-27
3.32255e-27
1.79715e-27
9.59573e-28
5.02705e-28
2.55082e-28
1.21777e-28
5.05735e-29
1.18103e-29
4.23318e-26
1.62522e-25
3.40334e-25
6.09295e-25
1.01216e-24
1.60944e-24
2.48634e-24
3.76129e-24
5.59064e-24
8.10308e-24
1.1508e-23
1.6079e-23
2.21356e-23
3.00269e-23
4.01088e-23
5.27067e-23
6.80621e-23
8.62832e-23
1.07292e-22
1.30804e-22
1.56333e-22
1.83207e-22
2.10679e-22
2.37963e-22
2.64318e-22
2.88414e-22
3.10457e-22
3.30373e-22
3.47242e-22
3.61309e-22
3.72428e-22
3.8041e-22
3.85538e-22
3.87883e-22
3.87659e-22
3.85069e-22
3.80361e-22
3.73851e-22
3.6578e-22
3.56342e-22
3.4587e-22
3.34523e-22
3.22498e-22
3.09906e-22
2.97044e-22
2.83981e-22
2.70575e-22
2.57479e-22
2.44498e-22
2.31443e-22
2.18932e-22
2.06732e-22
1.94886e-22
1.83423e-22
1.72376e-22
1.61766e-22
1.51603e-22
1.41878e-22
1.32536e-22
1.23572e-22
1.14917e-22
1.06347e-22
9.81927e-23
9.02416e-23
8.24795e-23
7.49056e-23
6.7526e-23
6.03424e-23
5.34106e-23
4.67401e-23
4.03664e-23
3.43289e-23
2.86691e-23
2.3442e-23
1.84757e-23
1.41194e-23
1.04331e-23
7.44309e-24
5.12828e-24
3.42019e-24
2.21558e-24
1.39938e-24
8.64801e-25
5.24447e-25
3.1283e-25
1.83883e-25
1.06675e-25
6.11532e-26
3.46797e-26
1.94726e-26
1.08334e-26
5.97386e-27
3.2646e-27
1.76609e-27
9.43151e-28
4.94179e-28
2.50786e-28
1.19737e-28
4.97282e-29
1.16127e-29
4.22852e-26
1.62344e-25
3.39961e-25
6.08626e-25
1.01105e-24
1.60766e-24
2.48358e-24
3.7571e-24
5.58372e-24
8.09214e-24
1.14917e-23
1.60558e-23
2.21033e-23
2.99828e-23
4.00498e-23
5.26291e-23
6.79608e-23
8.61563e-23
1.07135e-22
1.30616e-22
1.56108e-22
1.82956e-22
2.10398e-22
2.37653e-22
2.63985e-22
2.88055e-22
3.10073e-22
3.29978e-22
3.46834e-22
3.6089e-22
3.71993e-22
3.79964e-22
3.85083e-22
3.87416e-22
3.87172e-22
3.84564e-22
3.79859e-22
3.73351e-22
3.6527e-22
3.55827e-22
3.4535e-22
3.33994e-22
3.21959e-22
3.09357e-22
2.96487e-22
2.83417e-22
2.70016e-22
2.56919e-22
2.43938e-22
2.30897e-22
2.18392e-22
2.06197e-22
1.94358e-22
1.82908e-22
1.71872e-22
1.61275e-22
1.51125e-22
1.41411e-22
1.32095e-22
1.23144e-22
1.14498e-22
1.05949e-22
9.78069e-23
8.98673e-23
8.21205e-23
7.45619e-23
6.71988e-23
6.00475e-23
5.31318e-23
4.64793e-23
4.01238e-23
3.41045e-23
2.8463e-23
2.32516e-23
1.82982e-23
1.39664e-23
1.03087e-23
7.34707e-24
5.05823e-24
3.3716e-24
2.18331e-24
1.37871e-24
8.51951e-25
5.16652e-25
3.08196e-25
1.81177e-25
1.05117e-25
6.02672e-26
3.41814e-26
1.91954e-26
1.06807e-26
5.89066e-27
3.21964e-27
1.74201e-27
9.30408e-28
4.8755e-28
2.4744e-28
1.18145e-28
4.90681e-29
1.14587e-29
4.22527e-26
1.6222e-25
3.39702e-25
6.08161e-25
1.01028e-24
1.60642e-24
2.48166e-24
3.75418e-24
5.57883e-24
8.08435e-24
1.14801e-23
1.6039e-23
2.20797e-23
2.99502e-23
4.00054e-23
5.25688e-23
6.78842e-23
8.60592e-23
1.0702e-22
1.30481e-22
1.55947e-22
1.82765e-22
2.1018e-22
2.37416e-22
2.63728e-22
2.8778e-22
3.0979e-22
3.29676e-22
3.46517e-22
3.60562e-22
3.71655e-22
3.79619e-22
3.84735e-22
3.87058e-22
3.86802e-22
3.84187e-22
3.79477e-22
3.7296e-22
3.64878e-22
3.55429e-22
3.44938e-22
3.33572e-22
3.21529e-22
3.08933e-22
2.96062e-22
2.82991e-22
2.69598e-22
2.56501e-22
2.43523e-22
2.30492e-22
2.1799e-22
2.05801e-22
1.93967e-22
1.82523e-22
1.71497e-22
1.60909e-22
1.50768e-22
1.41066e-22
1.31768e-22
1.22826e-22
1.14189e-22
1.05655e-22
9.75214e-23
8.95919e-23
8.18542e-23
7.43073e-23
6.69591e-23
5.98226e-23
5.2921e-23
4.62818e-23
3.99394e-23
3.39329e-23
2.83061e-23
2.31091e-23
1.81708e-23
1.38592e-23
1.02221e-23
7.28019e-24
5.00909e-24
3.33719e-24
2.16024e-24
1.36381e-24
8.42621e-25
5.1096e-25
3.04799e-25
1.79187e-25
1.03971e-25
5.96182e-26
3.38192e-26
1.89951e-26
1.05707e-26
5.83048e-27
3.18697e-27
1.72445e-27
9.21088e-28
4.82694e-28
2.44986e-28
1.16976e-28
4.85832e-29
1.13455e-29
4.22334e-26
1.62146e-25
3.39549e-25
6.07888e-25
1.00982e-24
1.6057e-24
2.48053e-24
3.75247e-24
5.57591e-24
8.07964e-24
1.1473e-23
1.60288e-23
2.20654e-23
2.99305e-23
3.99787e-23
5.25334e-23
6.78389e-23
8.60021e-23
1.0695e-22
1.30395e-22
1.55845e-22
1.82645e-22
2.10042e-22
2.3726e-22
2.63556e-22
2.87596e-22
3.09591e-22
3.29462e-22
3.46292e-22
3.60329e-22
3.71418e-22
3.79385e-22
3.84495e-22
3.86809e-22
3.86546e-22
3.83932e-22
3.79219e-22
3.72696e-22
3.64605e-22
3.55143e-22
3.44646e-22
3.33278e-22
3.21235e-22
3.08638e-22
2.95768e-22
2.827e-22
2.69316e-22
2.56222e-22
2.43246e-22
2.30222e-22
2.17724e-22
2.05538e-22
1.93708e-22
1.82269e-22
1.71249e-22
1.60668e-22
1.50534e-22
1.40839e-22
1.31548e-22
1.22612e-22
1.13983e-22
1.05461e-22
9.73327e-23
8.94096e-23
8.1679e-23
7.41399e-23
6.67994e-23
5.96725e-23
5.27801e-23
4.61504e-23
3.98175e-23
3.38207e-23
2.82036e-23
2.30169e-23
1.80899e-23
1.37902e-23
1.01667e-23
7.23768e-24
4.97785e-24
3.3152e-24
2.14541e-24
1.35419e-24
8.36575e-25
5.07261e-25
3.02586e-25
1.77888e-25
1.0322e-25
5.91898e-26
3.35774e-26
1.88603e-26
1.04964e-26
5.79005e-27
3.16517e-27
1.7128e-27
9.14929e-28
4.79492e-28
2.4337e-28
1.16207e-28
4.82642e-29
1.12711e-29
4.2226e-26
1.62118e-25
3.39489e-25
6.07781e-25
1.00964e-24
1.60541e-24
2.48008e-24
3.75179e-24
5.57471e-24
8.07764e-24
1.14699e-23
1.60244e-23
2.20591e-23
2.99217e-23
3.99667e-23
5.25176e-23
6.78184e-23
8.59757e-23
1.06916e-22
1.30352e-22
1.55792e-22
1.82583e-22
2.09972e-22
2.3718e-22
2.63466e-22
2.87499e-22
3.09488e-22
3.29353e-22
3.46181e-22
3.60215e-22
3.71301e-22
3.79264e-22
3.84369e-22
3.86679e-22
3.86414e-22
3.83798e-22
3.7908e-22
3.72552e-22
3.64457e-22
3.54995e-22
3.44497e-22
3.33127e-22
3.21084e-22
3.08486e-22
2.95615e-22
2.82546e-22
2.69166e-22
2.56073e-22
2.431e-22
2.30082e-22
2.17586e-22
2.05402e-22
1.93574e-22
1.82138e-22
1.71122e-22
1.60545e-22
1.50414e-22
1.40723e-22
1.31435e-22
1.22503e-22
1.13877e-22
1.05361e-22
9.7236e-23
8.93163e-23
8.15897e-23
7.40547e-23
6.67185e-23
5.95958e-23
5.27084e-23
4.60838e-23
3.9756e-23
3.37644e-23
2.81527e-23
2.29715e-23
1.80506e-23
1.37571e-23
1.01399e-23
7.21724e-24
4.96289e-24
3.30467e-24
2.13831e-24
1.34957e-24
8.33675e-25
5.05486e-25
3.01522e-25
1.77262e-25
1.02858e-25
5.89827e-26
3.34604e-26
1.8795e-26
1.04603e-26
5.77032e-27
3.15448e-27
1.70706e-27
9.11886e-28
4.77905e-28
2.42567e-28
1.15824e-28
4.81053e-29
1.12339e-29
4.22301e-26
1.62134e-25
3.39522e-25
6.07839e-25
1.00974e-24
1.60556e-24
2.48031e-24
3.75213e-24
5.5752e-24
8.07834e-24
1.14709e-23
1.60257e-23
2.20608e-23
2.99239e-23
3.99695e-23
5.25212e-23
6.78227e-23
8.59809e-23
1.06922e-22
1.30359e-22
1.558e-22
1.82592e-22
2.09982e-22
2.3719e-22
2.63477e-22
2.8751e-22
3.09499e-22
3.29364e-22
3.46191e-22
3.60223e-22
3.71309e-22
3.79269e-22
3.84372e-22
3.8668e-22
3.86413e-22
3.83794e-22
3.79074e-22
3.72544e-22
3.64448e-22
3.54984e-22
3.44485e-22
3.33115e-22
3.21071e-22
3.08473e-22
2.95601e-22
2.82533e-22
2.69154e-22
2.56061e-22
2.43089e-22
2.30072e-22
2.17576e-22
2.05393e-22
1.93566e-22
1.82131e-22
1.71115e-22
1.60538e-22
1.50408e-22
1.40717e-22
1.3143e-22
1.22498e-22
1.13872e-22
1.05356e-22
9.72312e-23
8.93118e-23
8.15855e-23
7.40508e-23
6.67148e-23
5.95925e-23
5.27053e-23
4.6081e-23
3.97535e-23
3.37622e-23
2.81508e-23
2.29699e-23
1.80493e-23
1.37561e-23
1.01392e-23
7.2167e-24
4.96251e-24
3.30442e-24
2.13814e-24
1.34947e-24
8.33608e-25
5.05444e-25
3.01497e-25
1.77247e-25
1.02849e-25
5.89776e-26
3.34575e-26
1.87933e-26
1.04594e-26
5.76979e-27
3.15419e-27
1.7069e-27
9.118e-28
4.7786e-28
2.42544e-28
1.15813e-28
4.81007e-29
1.12329e-29
4.22461e-26
1.62195e-25
3.3965e-25
6.08068e-25
1.01012e-24
1.60616e-24
2.48124e-24
3.75353e-24
5.57745e-24
8.08178e-24
1.14759e-23
1.60328e-23
2.20706e-23
2.99373e-23
3.99873e-23
5.25444e-23
6.78523e-23
8.60181e-23
1.06968e-22
1.30416e-22
1.55869e-22
1.82673e-22
2.10073e-22
2.37291e-22
2.63588e-22
2.87628e-22
3.09623e-22
3.29495e-22
3.46325e-22
3.60358e-22
3.71441e-22
3.79399e-22
3.84503e-22
3.86811e-22
3.86544e-22
3.83922e-22
3.79201e-22
3.72669e-22
3.64572e-22
3.55108e-22
3.44609e-22
3.33239e-22
3.21196e-22
3.08598e-22
2.95727e-22
2.82658e-22
2.69276e-22
2.56185e-22
2.43213e-22
2.30192e-22
2.17696e-22
2.05512e-22
1.93683e-22
1.82246e-22
1.71228e-22
1.60648e-22
1.50515e-22
1.4082e-22
1.3153e-22
1.22596e-22
1.13967e-22
1.05446e-22
9.73184e-23
8.9396e-23
8.16664e-23
7.41279e-23
6.67882e-23
5.96622e-23
5.27708e-23
4.61419e-23
3.98099e-23
3.38139e-23
2.81978e-23
2.30119e-23
1.80859e-23
1.37871e-23
1.01644e-23
7.23602e-24
4.97669e-24
3.31441e-24
2.14489e-24
1.35385e-24
8.36364e-25
5.07131e-25
3.02507e-25
1.77841e-25
1.03193e-25
5.91737e-26
3.35682e-26
1.8855e-26
1.04935e-26
5.7884e-27
3.16426e-27
1.7123e-27
9.14658e-28
4.79349e-28
2.43297e-28
1.16172e-28
4.82497e-29
1.12677e-29
4.22738e-26
1.62301e-25
3.3987e-25
6.0846e-25
1.01077e-24
1.60719e-24
2.48282e-24
3.75591e-24
5.58133e-24
8.08785e-24
1.14849e-23
1.60456e-23
2.20883e-23
2.99615e-23
4.00198e-23
5.2587e-23
6.79068e-23
8.60865e-23
1.07052e-22
1.30518e-22
1.55989e-22
1.82811e-22
2.10231e-22
2.37469e-22
2.63783e-22
2.87836e-22
3.09843e-22
3.29727e-22
3.46567e-22
3.60607e-22
3.71694e-22
3.79653e-22
3.84755e-22
3.87067e-22
3.86803e-22
3.84181e-22
3.79457e-22
3.72925e-22
3.64828e-22
3.55367e-22
3.44872e-22
3.33505e-22
3.21463e-22
3.08863e-22
2.9599e-22
2.82922e-22
2.69534e-22
2.56444e-22
2.43471e-22
2.30443e-22
2.17945e-22
2.05758e-22
1.93926e-22
1.82485e-22
1.71461e-22
1.60876e-22
1.50736e-22
1.41035e-22
1.31738e-22
1.22798e-22
1.14162e-22
1.0563e-22
9.74971e-23
8.95689e-23
8.18329e-23
7.42873e-23
6.69403e-23
5.98057e-23
5.29054e-23
4.62676e-23
3.99266e-23
3.39215e-23
2.82962e-23
2.31008e-23
1.81641e-23
1.3854e-23
1.02183e-23
7.27746e-24
5.00717e-24
3.33589e-24
2.15938e-24
1.36326e-24
8.42273e-25
5.10745e-25
3.04669e-25
1.79109e-25
1.03925e-25
5.95914e-26
3.38039e-26
1.89865e-26
1.05658e-26
5.8278e-27
3.18549e-27
1.72364e-27
9.20648e-28
4.8246e-28
2.44866e-28
1.16918e-28
4.85591e-29
1.13399e-29
4.23143e-26
1.62456e-25
3.40194e-25
6.09039e-25
1.01173e-24
1.60872e-24
2.48519e-24
3.75949e-24
5.58718e-24
8.09701e-24
1.14984e-23
1.60649e-23
2.21153e-23
2.99985e-23
4.00699e-23
5.26541e-23
6.79929e-23
8.61944e-23
1.07182e-22
1.3067e-22
1.56167e-22
1.8302e-22
2.10469e-22
2.37732e-22
2.64066e-22
2.88137e-22
3.10157e-22
3.30056e-22
3.46908e-22
3.6096e-22
3.72054e-22
3.80016e-22
3.85121e-22
3.87441e-22
3.87188e-22
3.84573e-22
3.79853e-22
3.73321e-22
3.65227e-22
3.55766e-22
3.45275e-22
3.33911e-22
3.2187e-22
3.09268e-22
2.96397e-22
2.83329e-22
2.69934e-22
2.56843e-22
2.43868e-22
2.3083e-22
2.1833e-22
2.06139e-22
1.94303e-22
1.82857e-22
1.71827e-22
1.61231e-22
1.51082e-22
1.41369e-22
1.32054e-22
1.23104e-22
1.14461e-22
1.05913e-22
9.77724e-23
8.98353e-23
8.20899e-23
7.45337e-23
6.71731e-23
6.00235e-23
5.31094e-23
4.64589e-23
4.01054e-23
3.4088e-23
2.84491e-23
2.32399e-23
1.82887e-23
1.39593e-23
1.03035e-23
7.34322e-24
5.05552e-24
3.36976e-24
2.1821e-24
1.37793e-24
8.51458e-25
5.16347e-25
3.08011e-25
1.81066e-25
1.05052e-25
6.02291e-26
3.41593e-26
1.91827e-26
1.06736e-26
5.88662e-27
3.2174e-27
1.74079e-27
9.29747e-28
4.87201e-28
2.47261e-28
1.18059e-28
4.90322e-29
1.14503e-29
4.2369e-26
1.62665e-25
3.40631e-25
6.09822e-25
1.01303e-24
1.6108e-24
2.4884e-24
3.76435e-24
5.59509e-24
8.10935e-24
1.15166e-23
1.60907e-23
2.21511e-23
3.00473e-23
4.0135e-23
5.27396e-23
6.81031e-23
8.63328e-23
1.07351e-22
1.30872e-22
1.56409e-22
1.83295e-22
2.10774e-22
2.38064e-22
2.64423e-22
2.88519e-22
3.10562e-22
3.30482e-22
3.47347e-22
3.61413e-22
3.72518e-22
3.80485e-22
3.85597e-22
3.87924e-22
3.87681e-22
3.85078e-22
3.80362e-22
3.73834e-22
3.65741e-22
3.56287e-22
3.45802e-22
3.34444e-22
3.22409e-22
3.09812e-22
2.96949e-22
2.83887e-22
2.70485e-22
2.57394e-22
2.44416e-22
2.31364e-22
2.18857e-22
2.06659e-22
1.94816e-22
1.83359e-22
1.72316e-22
1.61708e-22
1.51545e-22
1.41822e-22
1.32483e-22
1.23521e-22
1.14868e-22
1.063e-22
9.81486e-23