/*--------------------------------*- C++ -*----------------------------------*\
  =========                 |
  \\      /  F ield         | OpenFOAM: The Open Source CFD Toolbox
   \\    /   O peration     | Website:  https://openfoam.org
    \\  /    A nd           | Version:  10
     \\/     M anipulation  |
\*---------------------------------------------------------------------------*/
FoamFile
{
    format      ascii;
    class       volScalarField;
    location    "1";
    object      C;
}
// * * * * * * * * * * * * * * * * * * * * * * * * * * * * * * * * * * * * * //

dimensions      [0 0 0 0 0 0 0];

internalField   nonuniform List<scalar> 
4000
(
9.71865e-35
3.7799e-34
8.22062e-34
1.59189e-33
3.04405e-33
6.09175e-33
1.33419e-32
3.31823e-32
9.65017e-32
3.27145e-31
1.30665e-30
6.14638e-30
3.34803e-29
2.04819e-28
1.35337e-27
9.27697e-27
6.36454e-26
4.21197e-25
2.65806e-24
1.587e-23
8.9039e-23
4.67054e-22
2.28392e-21
1.0416e-20
4.42428e-20
1.72908e-19
6.38301e-19
2.2499e-18
7.41805e-18
2.34513e-17
7.02883e-17
2.02333e-16
5.58377e-16
1.47887e-15
3.77364e-15
9.30596e-15
2.22381e-14
5.1636e-14
1.1664e-13
2.56952e-13
5.54953e-13
1.16672e-12
2.40486e-12
4.86959e-12
9.67616e-12
1.90339e-11
3.65607e-11
6.97873e-11
1.30118e-10
2.42845e-10
4.41616e-10
7.93976e-10
1.41286e-09
2.48644e-09
4.32307e-09
7.40488e-09
1.2397e-08
1.97663e-08
2.69045e-08
1.50317e-08
8.40417e-09
4.65615e-09
2.54274e-09
1.36179e-09
7.05981e-10
3.56404e-10
1.7327e-10
8.08564e-11
3.48458e-11
1.44231e-11
5.5653e-12
1.97945e-12
6.40901e-13
1.86217e-13
4.78138e-14
1.07675e-14
1.99229e-15
3.1213e-16
4.16126e-17
4.80495e-18
4.93759e-19
4.65359e-20
4.13265e-21
3.53035e-22
2.94257e-23
2.41489e-24
1.9621e-25
1.57947e-26
1.26628e-27
1.01232e-28
8.07676e-30
6.4348e-31
5.12133e-32
4.0728e-33
3.23724e-34
2.5723e-35
2.04432e-36
1.6247e-37
1.29347e-38
8.75508e-40
9.46283e-35
3.67739e-34
7.98572e-34
1.54315e-33
2.94311e-33
5.87231e-33
1.28221e-32
3.1798e-32
9.22381e-32
3.122e-31
1.24499e-30
5.84649e-30
3.17873e-29
1.94057e-28
1.27951e-27
8.75318e-27
5.99415e-26
3.96749e-25
2.50742e-24
1.5008e-23
8.44865e-23
4.45003e-22
2.18611e-21
9.99389e-21
4.26683e-20
1.67466e-19
6.20976e-19
2.20216e-18
7.29124e-18
2.31775e-17
6.97379e-17
2.01578e-16
5.58432e-16
1.48696e-15
3.81175e-15
9.44017e-15
2.26504e-14
5.28162e-14
1.19746e-13
2.64764e-13
5.74e-13
1.21114e-12
2.50569e-12
5.09587e-12
1.01574e-11
2.00223e-11
3.85321e-11
7.37899e-11
1.37839e-10
2.57865e-10
4.69634e-10
8.45637e-10
1.50762e-09
2.65728e-09
4.62816e-09
7.93941e-09
1.33073e-08
2.12173e-08
2.88488e-08
1.60773e-08
8.95165e-09
4.93636e-09
2.68163e-09
1.42787e-09
7.3656e-10
3.69374e-10
1.78389e-10
8.26017e-11
3.52641e-11
1.44628e-11
5.52244e-12
1.94277e-12
6.21077e-13
1.77921e-13
4.48245e-14
9.842e-15
1.77565e-15
2.71275e-16
3.53418e-17
4.00385e-18
4.05668e-19
3.78751e-20
3.34449e-21
2.84838e-22
2.37098e-23
1.94531e-24
1.58143e-25
1.28211e-26
1.0345e-27
8.31783e-29
6.66987e-30
5.33717e-31
4.26357e-32
3.39604e-33
2.70332e-34
2.15103e-35
1.71056e-36
1.36062e-37
1.08448e-38
7.34927e-40
9.14943e-35
3.55373e-34
7.70921e-34
1.48741e-33
2.83135e-33
5.63775e-33
1.22868e-32
3.04242e-32
8.81519e-32
2.9829e-31
1.18925e-30
5.58303e-30
3.03402e-29
1.84892e-28
1.2165e-27
8.30353e-27
5.68527e-26
3.76235e-25
2.37799e-24
1.42429e-23
8.02951e-23
4.23899e-22
2.0903e-21
9.60666e-21
4.11999e-20
1.62402e-19
6.04907e-19
2.15463e-18
7.16311e-18
2.28838e-17
6.90931e-17
2.00522e-16
5.57646e-16
1.49417e-15
3.85154e-15
9.58864e-15
2.31221e-14
5.4195e-14
1.23437e-13
2.74162e-13
5.97108e-13
1.26528e-12
2.62925e-12
5.37287e-12
1.07425e-11
2.12626e-11
4.11239e-11
7.91037e-11
1.48586e-10
2.79101e-10
5.09816e-10
9.22898e-10
1.65138e-09
2.9213e-09
5.10595e-09
8.7859e-09
1.47721e-08
2.36395e-08
3.21103e-08
1.77932e-08
9.82539e-09
5.36968e-09
2.88664e-09
1.52014e-09
7.76581e-10
3.85007e-10
1.83664e-10
8.39724e-11
3.54123e-11
1.43199e-11
5.38919e-12
1.86209e-12
5.84746e-13
1.65331e-13
3.94158e-14
8.48722e-15
1.4945e-15
2.23106e-16
2.8496e-17
3.17982e-18
3.18899e-19
2.9593e-20
2.60503e-21
2.21593e-22
1.84437e-23
1.51402e-24
1.23171e-25
9.95975e-27
8.01896e-28
6.43592e-29
5.15296e-30
4.11806e-31
3.28647e-32
2.62567e-33
2.09524e-34
1.67048e-35
1.33099e-36
1.06021e-37
8.45868e-39
5.73519e-40
8.8641e-35
3.44157e-34
7.45942e-34
1.4372e-33
2.73061e-33
5.42519e-33
1.17968e-32
2.91491e-32
8.43013e-32
2.84885e-31
1.1332e-30
5.30605e-30
2.87554e-29
1.75133e-28
1.15213e-27
7.86809e-27
5.38709e-26
3.56755e-25
2.25766e-24
1.35466e-23
7.65536e-23
4.05337e-22
2.00392e-21
9.24585e-21
3.9818e-20
1.57446e-19
5.88394e-19
2.10371e-18
7.0128e-18
2.24883e-17
6.81298e-17
1.98413e-16
5.53774e-16
1.48953e-15
3.85956e-15
9.65157e-15
2.33739e-14
5.50236e-14
1.2582e-13
2.80541e-13
6.13411e-13
1.30472e-12
2.72039e-12
5.57937e-12
1.1203e-11
2.22535e-11
4.32189e-11
8.34759e-11
1.57342e-10
2.96798e-10
5.44474e-10
9.90156e-10
1.7818e-09
3.17148e-09
5.57356e-09
9.6551e-09
1.63476e-08
2.63038e-08
3.56206e-08
1.95085e-08
1.06313e-08
5.74443e-09
3.01878e-09
1.56888e-09
7.92538e-10
3.87486e-10
1.82198e-10
8.2039e-11
3.43145e-11
1.36389e-11
5.02898e-12
1.70499e-12
5.25078e-13
1.44435e-13
3.39441e-14
7.13165e-15
1.219e-15
1.76887e-16
2.20389e-17
2.41105e-18
2.38312e-19
2.18952e-20
1.91476e-21
1.62179e-22
1.34605e-23
1.10284e-24
8.95995e-26
7.23806e-27
5.82351e-28
4.67144e-29
3.73876e-30
2.98702e-31
2.38318e-32
1.8995e-33
1.51293e-34
1.20453e-35
9.58838e-37
7.63417e-38
6.09079e-39
4.13132e-40
8.67421e-35
3.36711e-34
7.29358e-34
1.40369e-33
2.66254e-33
5.27872e-33
1.145e-32
2.82171e-32
8.13795e-32
2.74203e-31
1.08941e-30
5.09578e-30
2.7593e-29
1.67781e-28
1.10237e-27
7.52238e-27
5.14926e-26
3.4115e-25
2.16072e-24
1.29813e-23
7.3479e-23
3.89793e-22
1.93074e-21
8.91791e-21
3.84549e-20
1.52268e-19
5.70057e-19
2.04628e-18
6.84115e-18
2.19918e-17
6.67869e-17
1.94888e-16
5.45182e-16
1.4695e-15
3.82088e-15
9.58416e-15
2.32707e-14
5.49136e-14
1.25831e-13
2.81103e-13
6.15736e-13
1.3117e-12
2.73937e-12
5.62977e-12
1.13196e-11
2.25066e-11
4.37766e-11
8.46611e-11
1.59917e-10
3.02406e-10
5.5624e-10
1.01418e-09
1.83067e-09
3.27081e-09
5.7782e-09
1.0065e-08
1.71375e-08
2.7646e-08
3.67612e-08
1.97416e-08
1.05721e-08
5.62101e-09
2.90921e-09
1.49002e-09
7.43384e-10
3.58804e-10
1.66533e-10
7.35539e-11
3.06372e-11
1.20036e-11
4.35348e-12
1.45106e-12
4.34521e-13
1.16439e-13
2.76358e-14
5.39121e-15
8.94124e-16
1.26227e-16
1.53686e-17
1.65186e-18
1.61252e-19
1.46951e-20
1.27865e-21
1.07981e-22
8.94728e-24
7.32435e-25
5.94846e-26
4.80505e-27
3.86656e-28
3.10251e-29
2.484e-30
1.98542e-31
1.58482e-32
1.26381e-33
1.00714e-34
8.02283e-36
6.39024e-37
5.09119e-38
4.06488e-39
2.75906e-40
8.60914e-35
3.34139e-34
7.23476e-34
1.39122e-33
2.63562e-33
5.21684e-33
1.12944e-32
2.77772e-32
7.99404e-32
2.68817e-31
1.06523e-30
4.97068e-30
2.6849e-29
1.6288e-28
1.06809e-27
7.27708e-27
4.97557e-26
3.29388e-25
2.08501e-24
1.25222e-23
7.08789e-23
3.76148e-22
1.86549e-21
8.64046e-21
3.7373e-20
1.48333e-19
5.5653e-19
2.00114e-18
6.69806e-18
2.15573e-17
6.55571e-17
1.91438e-16
5.36169e-16
1.44605e-15
3.76568e-15
9.45408e-15
2.29685e-14
5.42158e-14
1.24227e-13
2.77421e-13
6.07343e-13
1.29258e-12
2.69597e-12
5.53303e-12
1.11015e-11
2.2006e-11
4.27019e-11
8.22013e-11
1.54867e-10
2.91942e-10
5.3515e-10
9.7224e-10
1.74837e-09
3.11003e-09
5.467e-09
9.46523e-09
1.59652e-08
2.51705e-08
3.03261e-08
1.62321e-08
8.67734e-09
4.60856e-09
2.38346e-09
1.21963e-09
6.06473e-10
2.91354e-10
1.34107e-10
5.87725e-11
2.42496e-11
9.37988e-12
3.36088e-12
1.10044e-12
3.25223e-13
8.58012e-14
1.97769e-14
3.75725e-15
6.06988e-16
8.36508e-17
9.98043e-18
1.05615e-18
1.01974e-19
9.22637e-21
7.99245e-22
6.73201e-23
5.5702e-24
4.55673e-25
3.69997e-26
2.98906e-27
2.40599e-28
1.93143e-29
1.54724e-30
1.23697e-31
9.87188e-33
7.87087e-34
6.27195e-35
4.99795e-36
3.98405e-37
3.17753e-38
2.53978e-39
1.72556e-40
8.68809e-35
3.37178e-34
7.29795e-34
1.40227e-33
2.65302e-33
5.24141e-33
1.13214e-32
2.77733e-32
7.9734e-32
2.67347e-31
1.05605e-30
4.91411e-30
2.64817e-29
1.60353e-28
1.05005e-27
7.14792e-27
4.88549e-26
3.23472e-25
2.04841e-24
1.23112e-23
6.97529e-23
3.70646e-22
1.84091e-21
8.53486e-21
3.69489e-20
1.46737e-19
5.51025e-19
1.98386e-18
6.6443e-18
2.13915e-17
6.50956e-17
1.90003e-16
5.34222e-16
1.43936e-15
3.7464e-15
9.40612e-15
2.284e-14
5.38591e-14
1.23274e-13
2.74869e-13
6.00406e-13
1.27493e-12
2.65206e-12
5.42716e-12
1.08505e-11
2.13259e-11
4.1213e-11
7.86758e-11
1.47342e-10
2.75782e-10
5.01352e-10
9.0199e-10
1.60338e-09
2.81357e-09
4.86501e-09
8.24562e-09
1.34717e-08
1.98469e-08
1.76046e-08
9.94816e-09
5.55314e-09
3.04963e-09
1.62093e-09
8.44649e-10
4.27213e-10
2.07847e-10
9.72071e-11
4.18846e-11
1.73301e-11
6.67813e-12
2.38508e-12
7.71788e-13
2.25256e-13
5.78869e-14
1.31736e-14
2.44945e-15
3.87249e-16
5.23235e-17
6.14163e-18
6.42053e-19
6.14876e-20
5.53604e-21
4.78346e-22
4.0251e-23
3.33039e-24
2.72599e-25
2.21548e-26
1.79181e-27
1.44408e-28
1.16076e-29
9.31125e-31
7.46228e-32
5.97791e-33
4.78453e-34
3.82353e-35
3.05294e-36
2.43668e-37
1.94506e-38
1.55592e-39
1.05784e-40
8.92243e-35
3.46329e-34
7.49662e-34
1.44017e-33
2.72293e-33
5.37263e-33
1.15822e-32
2.83417e-32
8.11265e-32
2.70929e-31
1.06719e-30
4.95091e-30
2.66087e-29
1.60781e-28
1.05137e-27
7.15213e-27
4.88862e-26
3.23922e-25
2.05346e-24
1.2358e-23
7.01049e-23
3.73143e-22
1.85603e-21
8.6172e-21
3.73784e-20
1.4867e-19
5.58917e-19
2.01404e-18
6.75567e-18
2.17663e-17
6.62882e-17
1.93509e-16
5.4452e-16
1.46709e-15
3.81806e-15
9.58857e-15
2.32792e-14
5.49052e-14
1.25544e-13
2.79738e-13
6.07502e-13
1.28871e-12
2.67472e-12
5.46182e-12
1.08911e-11
2.13394e-11
4.10954e-11
7.79552e-11
1.45533e-10
2.71211e-10
4.90634e-10
8.77655e-10
1.55046e-09
2.70249e-09
4.6373e-09
7.78399e-09
1.25167e-08
1.76321e-08
1.11177e-08
6.46103e-09
3.69103e-09
2.06946e-09
1.11868e-09
5.92247e-10
3.02267e-10
1.4837e-10
6.95447e-11
2.9865e-11
1.23887e-11
4.77527e-12
1.6865e-12
5.4199e-13
1.56578e-13
3.99555e-14
8.8914e-15
1.62059e-15
2.5131e-16
3.33819e-17
3.86569e-18
4.00368e-19
3.81322e-20
3.42468e-21
2.95787e-22
2.49112e-23
2.06453e-24
1.69329e-25
1.37922e-26
1.11798e-27
9.03007e-29
7.27373e-30
5.84621e-31
4.69058e-32
3.75814e-33
3.00782e-34
2.40824e-35
1.9266e-36
1.53979e-37
1.23015e-38
9.84693e-40
6.69768e-41
9.28031e-35
3.60322e-34
7.80243e-34
1.49945e-33
2.83557e-33
5.59418e-33
1.20524e-32
2.94562e-32
8.41591e-32
2.80569e-31
1.10201e-30
5.09939e-30
2.73454e-29
1.64948e-28
1.07743e-27
7.32535e-27
5.00679e-26
3.31892e-25
2.10523e-24
1.26747e-23
7.20117e-23
3.83508e-22
1.91138e-21
8.89317e-21
3.86045e-20
1.53677e-19
5.7841e-19
2.08539e-18
7.0011e-18
2.25671e-17
6.93813e-17
2.02236e-16
5.69551e-16
1.53552e-15
3.99854e-15
1.00509e-14
2.44431e-14
5.75531e-14
1.31685e-13
2.93729e-13
6.3778e-13
1.35306e-12
2.80999e-12
5.73561e-12
1.14301e-11
2.23778e-11
4.3106e-11
8.16871e-11
1.52464e-10
2.84021e-10
5.13624e-10
9.19347e-10
1.62613e-09
2.84075e-09
4.88848e-09
8.23484e-09
1.32845e-08
1.8622e-08
1.05143e-08
5.90793e-09
3.29358e-09
1.81105e-09
9.6824e-10
5.06694e-10
2.56345e-10
1.24659e-10
5.80565e-11
2.47114e-11
1.01336e-11
3.86142e-12
1.35241e-12
4.30533e-13
1.23922e-13
2.98201e-14
6.54888e-15
1.17714e-15
1.80247e-16
2.36944e-17
2.7235e-18
2.80823e-19
2.66976e-20
2.39804e-21
2.07409e-22
1.75053e-23
1.45435e-24
1.19584e-25
9.76402e-27
7.93265e-28
6.42064e-29
5.18143e-30
4.17123e-31
3.35086e-32
2.68716e-33
2.15216e-34
1.72176e-35
1.37628e-36
1.09948e-37
8.78139e-39
7.02521e-40
4.7749e-41
9.70443e-35
3.7674e-34
8.15728e-34
1.56774e-33
2.9655e-33
5.85362e-33
1.26217e-32
3.08813e-32
8.83474e-32
2.94275e-31
1.15448e-30
5.33448e-30
2.85625e-29
1.72063e-28
1.12294e-27
7.63248e-27
5.21794e-26
3.4613e-25
2.19737e-24
1.32435e-23
7.52674e-23
4.01875e-22
2.00512e-21
9.33483e-21
4.06256e-20
1.61997e-19
6.10719e-19
2.20457e-18
7.41399e-18
2.39307e-17
7.37135e-17
2.15193e-16
6.07061e-16
1.6389e-15
4.2737e-15
1.0761e-14
2.61795e-14
6.1699e-14
1.41346e-13
3.15848e-13
6.86661e-13
1.45883e-12
3.03074e-12
6.18987e-12
1.23439e-11
2.42028e-11
4.66499e-11
8.84917e-11
1.65366e-10
3.08352e-10
5.58887e-10
1.00268e-09
1.77815e-09
3.11351e-09
5.37414e-09
9.08473e-09
1.47082e-08
2.06334e-08
1.14085e-08
6.29497e-09
3.44923e-09
1.86442e-09
9.8553e-10
5.08325e-10
2.53761e-10
1.21864e-10
5.60804e-11
2.36377e-11
9.58637e-12
3.61219e-12
1.2508e-12
3.93303e-13
1.11482e-13
2.63944e-14
5.7072e-15
1.00996e-15
1.52448e-16
1.97966e-17
2.2539e-18
2.30843e-19
2.18529e-20
1.9583e-21
1.69203e-22
1.42779e-23
1.18654e-24
9.76112e-26
7.97481e-27
6.48291e-28
5.25005e-29
4.23865e-30
3.41322e-31
2.74216e-32
2.19893e-33
1.76048e-34
1.4079e-35
1.12491e-36
8.98119e-38
7.16751e-39
5.72841e-40
3.88948e-41
1.0243e-34
3.97795e-34
8.61768e-34
1.6571e-33
3.13551e-33
6.18822e-33
1.3332e-32
3.25677e-32
9.29667e-32
3.09343e-31
1.21325e-30
5.60663e-30
3.00326e-29
1.80902e-28
1.18041e-27
8.02191e-27
5.48517e-26
3.64092e-25
2.31286e-24
1.39665e-23
7.95372e-23
4.25033e-22
2.12347e-21
9.90569e-21
4.31391e-20
1.72274e-19
6.50441e-19
2.3506e-18
7.91718e-18
2.55842e-17
7.89279e-17
2.30702e-16
6.51447e-16
1.76102e-15
4.59703e-15
1.15885e-14
2.82466e-14
6.6656e-14
1.52838e-13
3.4186e-13
7.44031e-13
1.58239e-12
3.29198e-12
6.73192e-12
1.3444e-11
2.63855e-11
5.09199e-11
9.67168e-11
1.80975e-10
3.37826e-10
6.13061e-10
1.10096e-09
1.95463e-09
3.42811e-09
5.92517e-09
1.00309e-08
1.62602e-08
2.27867e-08
1.24765e-08
6.86097e-09
3.73923e-09
2.00877e-09
1.05755e-09
5.39287e-10
2.67086e-10
1.27149e-10
5.79529e-11
2.43069e-11
9.76495e-12
3.6428e-12
1.24808e-12
3.88067e-13
1.08596e-13
2.55509e-14
5.45661e-15
9.52939e-16
1.42027e-16
1.82349e-17
2.05672e-18
2.09168e-19
1.97052e-20
1.76036e-21
1.51815e-22
1.27969e-23
1.06282e-24
8.74081e-26
7.14017e-27
5.80394e-28
4.69992e-29
3.79423e-30
3.05533e-31
2.45532e-32
1.96964e-33
1.5775e-34
1.26145e-35
1.00745e-36
8.03876e-38
6.41107e-39
5.11991e-40
3.4737e-41
1.08145e-34
4.20069e-34
9.10349e-34
1.7514e-33
3.31585e-33
6.54774e-33
1.41125e-32
3.44821e-32
9.83772e-32
3.26774e-31
1.27923e-30
5.90084e-30
3.15576e-29
1.90095e-28
1.24123e-27
8.4455e-27
5.77865e-26
3.83792e-25
2.44065e-24
1.47408e-23
8.40833e-23
4.49876e-22
2.24982e-21
1.05155e-20
4.58809e-20
1.8351e-19
6.93833e-19
2.51006e-18
8.46613e-18
2.73879e-17
8.46132e-17
2.47624e-16
7.00247e-16
1.89404e-15
4.94909e-15
1.24993e-14
3.05215e-14
7.21127e-14
1.65551e-13
3.70996e-13
8.07499e-13
1.7174e-12
3.57378e-12
7.31103e-12
1.46146e-11
2.87098e-11
5.54565e-11
1.05435e-10
1.97439e-10
3.68655e-10
6.69894e-10
1.20419e-09
2.13883e-09
3.75088e-09
6.4845e-09
1.09795e-08
1.78134e-08
2.49378e-08
1.36531e-08
7.48747e-09
4.0676e-09
2.177e-09
1.14091e-09
5.80097e-10
2.85748e-10
1.35248e-10
6.1184e-11
2.55962e-11
1.02066e-11
3.77712e-12
1.28255e-12
3.94857e-13
1.09115e-13
2.5653e-14
5.41877e-15
9.35479e-16
1.37869e-16
1.75247e-17
1.96053e-18
1.98165e-19
1.85882e-20
1.6558e-21
1.42533e-22
1.20002e-23
9.95882e-25
8.18625e-26
6.68484e-27
5.43241e-28
4.39783e-29
3.54916e-30
2.85685e-31
2.29494e-32
1.84003e-33
1.47287e-34
1.17739e-35
9.40121e-37
7.49994e-38
5.97991e-39
4.77423e-40
3.23821e-41
1.13819e-34
4.42168e-34
9.58513e-34
1.84485e-33
3.49465e-33
6.90463e-33
1.48885e-32
3.63883e-32
1.03747e-31
3.44351e-31
1.34705e-30
6.20954e-30
3.31909e-29
1.99755e-28
1.30348e-27
8.8657e-27
6.07276e-26
4.0388e-25
2.57152e-24
1.55553e-23
8.87592e-23
4.75343e-22
2.38235e-21
1.11406e-20
4.86751e-20
1.94844e-19
7.3752e-19
2.67048e-18
9.01788e-18
2.91989e-17
9.03115e-17
2.64555e-16
7.48854e-16
2.02858e-15
5.30949e-15
1.34111e-14
3.27611e-14
7.74537e-14
1.77956e-13
3.98775e-13
8.69081e-13
1.85114e-12
3.85745e-12
7.8993e-12
1.57941e-11
3.10272e-11
5.99277e-11
1.13902e-10
2.133e-10
3.98308e-10
7.23577e-10
1.30059e-09
2.3108e-09
4.05427e-09
7.01124e-09
1.18782e-08
1.92664e-08
2.69202e-08
1.47427e-08
8.07277e-09
4.37779e-09
2.33728e-09
1.22099e-09
6.19906e-10
3.04216e-10
1.43329e-10
6.4462e-11
2.69433e-11
1.06867e-11
3.92919e-12
1.32499e-12
4.04544e-13
1.10594e-13
2.6007e-14
5.44197e-15
9.30087e-16
1.35753e-16
1.71066e-17
1.90012e-18
1.91016e-19
1.78483e-20
1.58571e-21
1.36261e-22
1.14588e-23
9.50223e-25
7.80669e-26
6.37234e-27
5.1769e-28
4.19056e-29
3.38225e-30
2.72264e-31
2.18688e-32
1.75323e-33
1.40328e-34
1.12158e-35
8.95411e-37
7.14207e-38
5.69357e-39
4.54476e-40
3.08203e-41
1.19176e-34
4.63018e-34
1.00389e-33
1.93275e-33
3.66247e-33
7.23883e-33
1.56136e-32
3.81657e-32
1.08807e-31
3.60938e-31
1.41105e-30
6.50073e-30
3.47308e-29
2.08963e-28
1.36353e-27
9.27637e-27
6.35355e-26
4.22696e-25
2.69381e-24
1.63139e-23
9.31924e-23
4.99607e-22
2.50482e-21
1.17296e-20
5.13006e-20
2.05583e-19
7.78906e-19
2.82229e-18
9.54229e-18
3.09219e-17
9.57386e-17
2.80709e-16
7.95351e-16
2.15496e-15
5.63946e-15
1.42517e-14
3.48461e-14
8.24277e-14
1.89425e-13
4.25003e-13
9.26336e-13
1.97299e-12
4.11006e-12
8.41623e-12
1.6842e-11
3.31187e-11
6.40295e-11
1.21724e-10
2.27993e-10
4.25361e-10
7.72664e-10
1.38906e-09
2.46776e-09
4.32963e-09
7.48901e-09
1.26867e-08
2.05765e-08
2.8706e-08
1.5727e-08
8.6031e-09
4.65941e-09
2.48154e-09
1.29297e-09
6.5494e-10
3.20466e-10
1.50463e-10
6.73736e-11
2.81747e-11
1.11215e-11
4.06875e-12
1.36363e-12
4.13513e-13
1.12012e-13
2.6375e-14
5.47457e-15
9.27463e-16
1.34205e-16
1.67804e-17
1.85192e-18
1.85257e-19
1.72492e-20
1.52876e-21
1.3115e-22
1.10165e-23
9.12802e-25
7.49473e-26
6.11481e-27
4.96578e-28
4.01808e-29
3.24165e-30
2.60914e-31
2.09549e-32
1.67978e-33
1.3442e-34
1.0742e-35
8.57466e-37
6.83853e-38
5.45092e-39
4.35053e-40
2.95e-41
1.24055e-34
4.81998e-34
1.04517e-33
2.01263e-33
3.81482e-33
7.54187e-33
1.62701e-32
3.97725e-32
1.13391e-31
3.75965e-31
1.46901e-30
6.76441e-30
3.61251e-29
2.17301e-28
1.41788e-27
9.64781e-27
6.60988e-26
4.40141e-25
2.80548e-24
1.69935e-23
9.71757e-23
5.21488e-22
2.6174e-21
1.22669e-20
5.36932e-20
2.15334e-19
8.16421e-19
2.95967e-18
1.00075e-17
3.24392e-17
1.00503e-16
2.94784e-16
8.35726e-16
2.26639e-15
5.93279e-15
1.50022e-14
3.66953e-14
8.6837e-14
1.9966e-13
4.47918e-13
9.761e-13
2.07826e-12
4.32992e-12
8.86053e-12
1.77163e-11
3.48015e-11
6.79042e-11
1.28796e-10
2.41075e-10
4.49469e-10
8.16511e-10
1.46738e-09
2.60604e-09
4.57086e-09
7.90148e-09
1.33836e-08
2.16984e-08
3.0204e-08
1.65635e-08
9.06269e-09
4.91674e-09
2.5898e-09
1.34892e-09
6.82648e-10
3.33473e-10
1.5621e-10
6.97022e-11
2.91752e-11
1.14798e-11
4.18303e-12
1.39556e-12
4.20857e-13
1.13134e-13
2.67009e-14
5.49343e-15
9.21909e-16
1.32208e-16
1.64003e-17
1.79838e-18
1.79029e-19
1.66111e-20
1.46862e-21
1.25777e-22
1.05524e-23
8.73569e-25
7.1677e-26
5.84482e-27
4.74441e-28
3.83752e-29
3.09498e-30
2.49001e-31
1.99907e-32
1.602e-33
1.28178e-34
1.0242e-35
8.17474e-37
6.51907e-38
5.19594e-39
4.1468e-40
2.81173e-41
1.28352e-34
4.98722e-34
1.08159e-33
2.08324e-33
3.9499e-33
7.81166e-33
1.68577e-32
4.12189e-32
1.17436e-31
3.89201e-31
1.52013e-30
6.9973e-30
3.73586e-29
2.24689e-28
1.46612e-27
9.97763e-27
6.83916e-26
4.55487e-25
2.90538e-24
1.7609e-23
1.00723e-22
5.40938e-22
2.71686e-21
1.27415e-20
5.58073e-20
2.2393e-19
8.49504e-19
3.08134e-18
1.0428e-17
3.38212e-17
1.04813e-16
3.07591e-16
8.72171e-16
2.36528e-15
6.19477e-15
1.56716e-14
3.83579e-14
9.07746e-14
2.08682e-13
4.68239e-13
1.0206e-12
2.17375e-12
4.52892e-12
9.26829e-12
1.8538e-11
3.64299e-11
7.10726e-11
1.3476e-10
2.52169e-10
4.69888e-10
8.53557e-10
1.53369e-09
2.7233e-09
4.77623e-09
8.25652e-09
1.39816e-08
2.26615e-08
3.14954e-08
1.728e-08
9.45016e-09
5.12264e-09
2.69588e-09
1.40183e-09
7.08133e-10
3.45254e-10
1.61354e-10
7.17666e-11
3.00646e-11
1.1794e-11
4.28311e-12
1.42355e-12
4.27509e-13
1.14454e-13
2.7111e-14
5.29362e-15
8.82374e-16
1.25775e-16
1.55254e-17
1.69613e-18
1.68424e-19
1.56036e-20
1.37849e-21
1.18027e-22
9.90278e-24
8.19995e-25
6.7305e-26
5.49061e-27
4.45892e-28
3.60831e-29
2.91153e-30
2.34355e-31
1.88239e-32
1.50921e-33
1.2081e-34
9.6577e-36
7.71188e-37
6.15265e-38
4.90597e-39
3.91697e-40
2.65676e-41
1.31933e-34
5.12659e-34
1.11193e-33
2.14203e-33
4.06225e-33
8.03569e-33
1.73443e-32
4.24127e-32
1.20805e-31
4.00228e-31
1.56267e-30
7.19089e-30
3.83829e-29
2.30818e-28
1.50611e-27
1.02512e-26
7.02897e-26
4.68289e-25
2.98843e-24
1.81204e-23
1.03698e-22
5.57062e-22
2.79925e-21
1.31353e-20
5.75599e-20
2.31072e-19
8.77024e-19
3.18135e-18
1.07707e-17
3.49415e-17
1.08337e-16
3.18027e-16
9.02021e-16
2.4469e-15
6.41078e-15
1.62217e-14
3.97026e-14
9.3961e-14
2.16082e-13
4.84933e-13
1.05709e-12
2.25184e-12
4.69234e-12
9.60413e-12
1.92126e-11
3.77571e-11
7.36295e-11
1.39611e-10
2.61244e-10
4.86616e-10
8.83969e-10
1.58832e-09
2.82021e-09
4.94525e-09
8.54866e-09
1.44759e-08
2.34598e-08
3.25654e-08
1.78716e-08
9.76848e-09
5.29135e-09
2.78408e-09
1.4461e-09
7.29607e-10
3.55181e-10
1.65695e-10
7.35293e-11
3.07822e-11
1.20477e-11
4.36352e-12
1.44586e-12
4.32712e-13
1.15398e-13
2.72215e-14
5.28182e-15
8.748e-16
1.23957e-16
1.52221e-17
1.65613e-18
1.63951e-19
1.51567e-20
1.33707e-21
1.14369e-22
9.58937e-24
7.93661e-25
6.51202e-26
5.31087e-27
4.31192e-28
3.48861e-29
2.8144e-30
2.26498e-31
1.81901e-32
1.4582e-33
1.16712e-34
9.32901e-36
7.44856e-37
5.9419e-38
4.73739e-39
3.78194e-40
2.56492e-41
1.34702e-34
5.23439e-34
1.13541e-33
2.18758e-33
4.14942e-33
8.20983e-33
1.77234e-32
4.33451e-32
1.23442e-31
4.08873e-31
1.59606e-30
7.343e-30
3.91883e-29
2.35642e-28
1.5376e-27
1.04668e-26
7.17726e-26
4.78292e-25
3.05272e-24
1.85159e-23
1.06002e-22
5.69659e-22
2.86336e-21
1.34391e-20
5.89103e-20
2.36565e-19
8.98029e-19
3.25843e-18
1.10346e-17
3.58053e-17
1.11049e-16
3.26067e-16
9.25033e-16
2.50986e-15
6.57683e-15
1.66447e-14
4.07449e-14
9.64413e-14
2.21779e-13
4.97769e-13
1.08524e-12
2.31202e-12
4.8182e-12
9.85962e-12
1.9725e-11
3.8767e-11
7.55796e-11
1.43319e-10
2.68172e-10
4.99376e-10
9.07175e-10
1.62998e-09
2.89405e-09
5.07462e-09
8.77122e-09
1.4852e-08
2.40662e-08
3.3368e-08
1.83152e-08
1.00075e-08
5.41803e-09
2.85032e-09
1.47957e-09
7.4585e-10
3.62743e-10
1.6903e-10
7.49031e-11
3.13098e-11
1.2233e-11
4.42187e-12
1.46187e-12
4.36378e-13
1.1603e-13
2.72798e-14
5.27314e-15
8.69957e-16
1.22813e-16
1.50322e-17
1.63114e-18
1.61156e-19
1.48776e-20
1.31121e-21
1.12086e-22
9.39403e-24
7.7727e-25
6.37621e-26
5.19931e-27
4.22085e-28
3.41465e-29
2.75457e-30
2.21672e-31
1.78015e-32
1.42696e-33
1.14205e-34
9.12809e-36
7.28774e-37
5.81329e-38
4.63458e-39
3.69964e-40
2.50896e-41
1.36559e-34
5.30663e-34
1.15113e-33
2.21807e-33
4.20778e-33
8.3265e-33
1.79778e-32
4.39721e-32
1.25219e-31
4.14705e-31
1.61859e-30
7.44562e-30
3.97313e-29
2.3889e-28
1.55878e-27
1.06118e-26
7.27746e-26
4.85052e-25
3.09644e-24
1.8785e-23
1.07568e-22
5.78215e-22
2.90711e-21
1.36477e-20
5.98378e-20
2.40337e-19
9.12574e-19
3.31175e-18
1.12174e-17
3.64019e-17
1.12913e-16
3.31562e-16
9.40775e-16
2.55298e-15
6.6906e-15
1.6933e-14
4.14559e-14
9.81337e-14
2.25695e-13
5.06631e-13
1.10457e-12
2.35312e-12
4.90353e-12
1.00335e-11
2.0072e-11
3.94453e-11
7.68819e-11
1.45793e-10
2.72802e-10
5.07896e-10
9.2265e-10
1.6577e-09
2.94311e-09
5.16033e-09
8.91895e-09
1.51012e-08
2.44666e-08
3.38963e-08
1.86045e-08
1.01643e-08
5.50137e-09
2.89404e-09
1.50164e-09
7.56594e-10
3.6774e-10
1.71234e-10
7.58167e-11
3.16597e-11
1.23555e-11
4.46027e-12
1.47234e-12
4.38747e-13
1.16432e-13
2.7315e-14
5.26723e-15
8.66819e-16
1.22083e-16
1.49124e-17
1.61548e-18
1.5941e-19
1.47034e-20
1.29508e-21
1.10663e-22
9.27239e-24
7.67072e-25
6.2918e-26
5.13003e-27
4.16434e-28
3.36874e-29
2.71741e-30
2.18673e-31
1.75602e-32
1.40759e-33
1.12654e-34
9.00403e-36
7.18864e-37
5.73419e-38
4.57148e-39
3.64922e-40
2.47474e-41
1.37477e-34
5.34232e-34
1.1589e-33
2.23313e-33
4.2366e-33
8.38416e-33
1.81037e-32
4.4283e-32
1.26102e-31
4.17614e-31
1.62988e-30
7.49731e-30
4.00061e-29
2.4054e-28
1.56958e-27
1.06856e-26
7.32863e-26
4.88509e-25
3.11885e-24
1.89232e-23
1.08369e-22
5.82585e-22
2.92937e-21
1.37539e-20
6.03093e-20
2.42251e-19
9.19911e-19
3.33852e-18
1.13088e-17
3.67007e-17
1.13849e-16
3.34337e-16
9.48714e-16
2.57466e-15
6.74759e-15
1.70781e-14
4.18137e-14
9.89831e-14
2.27652e-13
5.1102e-13
1.11414e-12
2.3735e-12
4.94602e-12
1.01201e-11
2.02454e-11
3.97861e-11
7.75353e-11
1.47034e-10
2.75114e-10
5.12145e-10
9.30369e-10
1.67154e-09
2.96759e-09
5.20303e-09
8.99233e-09
1.52248e-08
2.46651e-08
3.41577e-08
1.87474e-08
1.02416e-08
5.54244e-09
2.91563e-09
1.51255e-09
7.61912e-10
3.70214e-10
1.72324e-10
7.62673e-11
3.18327e-11
1.2416e-11
4.4792e-12
1.4775e-12
4.39911e-13
1.1663e-13
2.73327e-14
5.26457e-15
8.65364e-16
1.21742e-16
1.48565e-17
1.60818e-18
1.58598e-19
1.46223e-20
1.28757e-21
1.10001e-22
9.21574e-24
7.62322e-25
6.25248e-26
5.09776e-27
4.13802e-28
3.34737e-29
2.70012e-30
2.17278e-31
1.7448e-32
1.39859e-33
1.11932e-34
8.94629e-36
7.14249e-37
5.69734e-38
4.54207e-39
3.62572e-40
2.45878e-41
1.37438e-34
5.34078e-34
1.15856e-33
2.23245e-33
4.2353e-33
8.38162e-33
1.80984e-32
4.42713e-32
1.26074e-31
4.1754e-31
1.62968e-30
7.49679e-30
4.00052e-29
2.40543e-28
1.56963e-27
1.0686e-26
7.32894e-26
4.8853e-25
3.11899e-24
1.8924e-23
1.08374e-22
5.82611e-22
2.9295e-21
1.37545e-20
6.0312e-20
2.42261e-19
9.19952e-19
3.33867e-18
1.13093e-17
3.67025e-17
1.13854e-16
3.34352e-16
9.48757e-16
2.57477e-15
6.74788e-15
1.70788e-14
4.18153e-14
9.89865e-14
2.27659e-13
5.11033e-13
1.11416e-12
2.37355e-12
4.94612e-12
1.01203e-11
2.02457e-11
3.97866e-11
7.75363e-11
1.47035e-10
2.75116e-10
5.12149e-10
9.30375e-10
1.67155e-09
2.96761e-09
5.20306e-09
8.99236e-09
1.52249e-08
2.46651e-08
3.41576e-08
1.87473e-08
1.02416e-08
5.54246e-09
2.91562e-09
1.51255e-09
7.61913e-10
3.70216e-10
1.72325e-10
7.62679e-11
3.18331e-11
1.24162e-11
4.47928e-12
1.47753e-12
4.39922e-13
1.16634e-13
2.73336e-14
5.26477e-15
8.65402e-16
1.21748e-16
1.48572e-17
1.60827e-18
1.58607e-19
1.46232e-20
1.28764e-21
1.10008e-22
9.21629e-24
7.62368e-25
6.25285e-26
5.09807e-27
4.13827e-28
3.34758e-29
2.70028e-30
2.17291e-31
1.74491e-32
1.39867e-33
1.11939e-34
8.94683e-36
7.14292e-37
5.69768e-38
4.54234e-39
3.62593e-40
2.45892e-41
1.36455e-34
5.30253e-34
1.15023e-33
2.2163e-33
4.20441e-33
8.31997e-33
1.79645e-32
4.39432e-32
1.2515e-31
4.1453e-31
1.61813e-30
7.44447e-30
3.97295e-29
2.38898e-28
1.55891e-27
1.06128e-26
7.27825e-26
4.85105e-25
3.09678e-24
1.87871e-23
1.07579e-22
5.78279e-22
2.90744e-21
1.36493e-20
5.98452e-20
2.40368e-19
9.12677e-19
3.31213e-18
1.12188e-17
3.64074e-17
1.1293e-16
3.31614e-16
9.40919e-16
2.55337e-15
6.69162e-15
1.69357e-14
4.14625e-14
9.81494e-14
2.25726e-13
5.0668e-13
1.10466e-12
2.35329e-12
4.90388e-12
1.00342e-11
2.00734e-11
3.94483e-11
7.68863e-11
1.458e-10
2.72809e-10
5.07907e-10
9.22669e-10
1.65775e-09
2.94319e-09
5.16045e-09
8.91913e-09
1.51015e-08
2.4467e-08
3.38964e-08
1.86046e-08
1.01644e-08
5.50144e-09
2.89407e-09
1.50167e-09
7.56611e-10
3.67751e-10
1.7124e-10
7.58197e-11
3.16611e-11
1.23561e-11
4.46054e-12
1.47245e-12
4.38782e-13
1.16443e-13
2.73179e-14
5.26785e-15
8.66932e-16
1.221e-16
1.49147e-17
1.61574e-18
1.59437e-19
1.47059e-20
1.2953e-21
1.10683e-22
9.27401e-24
7.67206e-25
6.2929e-26
5.13093e-27
4.16507e-28
3.36933e-29
2.71788e-30
2.18711e-31
1.75632e-32
1.40784e-33
1.12673e-34
9.00557e-36
7.18986e-37
5.73517e-38
4.57226e-39
3.64984e-40
2.47516e-41
1.34558e-34
5.22876e-34
1.13418e-33
2.18522e-33
4.14503e-33
8.20153e-33
1.77069e-32
4.331e-32
1.2336e-31
4.08669e-31
1.59553e-30
7.3417e-30
3.91862e-29
2.35648e-28
1.53771e-27
1.04678e-26
7.17798e-26
4.78341e-25
3.05304e-24
1.85179e-23
1.06013e-22
5.69717e-22
2.86365e-21
1.34404e-20
5.89163e-20
2.36589e-19
8.98134e-19
3.2588e-18
1.10359e-17
3.58089e-17
1.11061e-16
3.26105e-16
9.25149e-16
2.51021e-15
6.57785e-15
1.66477e-14
4.07532e-14
9.64625e-14
2.21832e-13
4.97902e-13
1.08548e-12
2.31242e-12
4.81882e-12
9.86128e-12
1.97272e-11
3.87678e-11
7.55773e-11
1.43312e-10
2.68171e-10
4.9938e-10
9.07181e-10
1.63e-09
2.89411e-09
5.07474e-09
8.77153e-09
1.48526e-08
2.40671e-08
3.33686e-08
1.83156e-08
1.00078e-08
5.41819e-09
2.85045e-09
1.47964e-09
7.45884e-10
3.6276e-10
1.69039e-10
7.49073e-11
3.13118e-11
1.22338e-11
4.42224e-12
1.46202e-12
4.36428e-13
1.16045e-13
2.7284e-14
5.27408e-15
8.70134e-16
1.22841e-16
1.50359e-17
1.63157e-18
1.612e-19
1.48817e-20
1.31158e-21
1.12118e-22
9.39673e-24
7.77494e-25
6.37805e-26
5.2008e-27
4.22206e-28
3.41563e-29
2.75537e-30
2.21736e-31
1.78066e-32
1.42737e-33
1.14238e-34
9.13073e-36
7.28984e-37
5.81497e-38
4.63592e-39
3.70071e-40
2.50968e-41
1.31772e-34
5.1203e-34
1.11056e-33
2.13943e-33
4.05745e-33
8.02674e-33
1.73268e-32
4.23762e-32
1.20721e-31
4.0002e-31
1.56212e-30
7.18944e-30
3.83793e-29
2.30812e-28
1.50611e-27
1.02513e-26
7.02908e-26
4.68295e-25
2.98845e-24
1.81204e-23
1.03698e-22
5.57058e-22
2.79923e-21
1.31351e-20
5.75585e-20
2.31065e-19
8.77005e-19
3.18129e-18
1.07704e-17
3.49405e-17
1.08334e-16
3.18014e-16
9.01975e-16
2.44674e-15
6.4102e-15
1.62198e-14
3.97036e-14
9.39646e-14
2.16095e-13
4.84969e-13
1.0572e-12
2.25222e-12
4.69311e-12
9.60444e-12
1.92129e-11
3.77581e-11
7.36337e-11
1.39621e-10
2.61252e-10
4.86626e-10
8.83981e-10
1.58831e-09
2.82014e-09
4.94508e-09
8.54817e-09
1.44762e-08
2.34607e-08
3.25658e-08
1.78718e-08
9.76859e-09
5.29139e-09
2.78407e-09
1.4461e-09
7.29609e-10
3.55184e-10
1.65698e-10
7.35313e-11
3.07834e-11
1.20483e-11
4.36381e-12
1.44598e-12
4.32761e-13
1.15413e-13
2.7226e-14
5.28288e-15
8.75005e-16
1.2399e-16
1.52266e-17
1.65665e-18
1.64005e-19
1.51619e-20
1.33753e-21
1.14408e-22
9.59273e-24
7.9394e-25
6.51431e-26
5.31274e-27
4.31344e-28
3.48983e-29
2.81539e-30
2.26578e-31
1.81965e-32
1.45871e-33
1.16753e-34
9.33225e-36
7.45114e-37
5.94397e-38
4.73904e-39
3.78325e-40
2.56581e-41
1.28188e-34
4.98085e-34
1.08021e-33
2.08064e-33
3.94515e-33
7.80293e-33
1.68409e-32
4.11843e-32
1.17357e-31
3.89006e-31
1.51961e-30
6.99584e-30
3.73543e-29
2.24676e-28
1.46607e-27
9.97739e-27
6.839e-26
4.55474e-25
2.90526e-24
1.76082e-23
1.00718e-22
5.40906e-22
2.71668e-21
1.27406e-20
5.58026e-20
2.23908e-19
8.49408e-19
3.08095e-18
1.04264e-17
3.38152e-17
1.04815e-16
3.07602e-16
8.72218e-16
2.36544e-15
6.19524e-15
1.56731e-14
3.8355e-14
9.07652e-14
2.08658e-13
4.68189e-13
1.02049e-12
2.17352e-12
4.52853e-12
9.26787e-12
1.85377e-11
3.64304e-11
7.10744e-11
1.34762e-10
2.52182e-10
4.69913e-10
8.536e-10
1.53376e-09
2.7234e-09
4.77638e-09
8.25666e-09
1.39821e-08
2.26621e-08
3.14953e-08
1.728e-08
9.45012e-09
5.12262e-09
2.69587e-09
1.40183e-09
7.08138e-10
3.4526e-10
1.61359e-10
7.17699e-11
3.0066e-11