/*--------------------------------*- C++ -*----------------------------------*\
  =========                 |
  \\      /  F ield         | OpenFOAM: The Open Source CFD Toolbox
   \\    /   O peration     | Website:  https://openfoam.org
    \\  /    A nd           | Version:  10
     \\/     M anipulation  |
\*---------------------------------------------------------------------------*/
FoamFile
{
    format      ascii;
    class       volScalarField;
    location    "1";
    object      C2H;
}
// * * * * * * * * * * * * * * * * * * * * * * * * * * * * * * * * * * * * * //

dimensions      [0 0 0 0 0 0 0];

internalField   nonuniform List<scalar> 
4000
(
6.18544e-30
2.40844e-29
5.30007e-29
1.05591e-28
2.10661e-28
4.37767e-28
9.57064e-28
2.19043e-27
5.20178e-27
1.24755e-26
3.03646e-26
7.60357e-26
1.99224e-25
5.58369e-25
1.72075e-24
5.98925e-24
2.38315e-23
1.07188e-22
5.29308e-22
2.70614e-21
1.35422e-20
6.49395e-20
2.95069e-19
1.26605e-18
5.10599e-18
1.91122e-17
6.81139e-17
2.33473e-16
7.53437e-16
2.34419e-15
6.94631e-15
1.98387e-14
5.44526e-14
1.43626e-13
3.65181e-13
8.9731e-13
2.13572e-12
4.9361e-12
1.10895e-11
2.42742e-11
5.20464e-11
1.08504e-10
2.21458e-10
4.43224e-10
8.67658e-10
1.67486e-09
3.14044e-09
5.81107e-09
1.04004e-08
1.83938e-08
3.12657e-08
5.16689e-08
8.29005e-08
1.28603e-07
1.91643e-07
2.71093e-07
3.55375e-07
4.08916e-07
3.60333e-07
1.98294e-07
1.09275e-07
5.97161e-08
3.21925e-08
1.70352e-08
8.73533e-09
4.36425e-09
2.10308e-09
9.72968e-10
4.16726e-10
1.72096e-10
6.62658e-11
2.34588e-11
7.55598e-12
2.18406e-12
5.58073e-13
1.25258e-13
2.3106e-14
3.6101e-15
4.80096e-16
5.53089e-17
5.67136e-18
5.33425e-19
4.72784e-20
4.03118e-21
3.3539e-22
2.74762e-23
2.22867e-24
1.78977e-25
1.43192e-26
1.14312e-27
9.12319e-29
7.30884e-30
5.94493e-31
5.07165e-32
4.90816e-33
6.05752e-34
9.849e-35
1.83773e-35
3.16133e-36
2.95213e-37
6.18043e-30
2.40654e-29
5.29646e-29
1.05546e-28
2.10646e-28
4.37903e-28
9.57633e-28
2.19183e-27
5.20327e-27
1.24755e-26
3.03276e-26
7.57664e-26
1.97757e-25
5.50848e-25
1.68176e-24
5.78024e-24
2.26745e-23
1.00872e-22
4.95018e-22
2.52879e-21
1.26792e-20
6.10258e-20
2.78567e-19
1.19693e-18
4.85263e-18
1.82457e-17
6.53265e-17
2.25303e-16
7.30056e-16
2.28346e-15
6.7915e-15
1.94651e-14
5.35752e-14
1.41901e-13
3.6199e-13
8.92054e-13
2.1287e-12
4.93299e-12
1.11047e-11
2.43524e-11
5.23093e-11
1.09214e-10
2.23214e-10
4.47543e-10
8.76997e-10
1.69393e-09
3.17834e-09
5.88622e-09
1.05402e-08
1.86511e-08
3.16899e-08
5.23796e-08
8.40374e-08
1.30305e-07
1.94001e-07
2.73915e-07
3.57716e-07
4.08203e-07
3.52699e-07
1.939e-07
1.06613e-07
5.81156e-08
3.12387e-08
1.64729e-08
8.4195e-09
4.1885e-09
2.00691e-09
9.23979e-10
3.93159e-10
1.61267e-10
6.14362e-11
2.15721e-11
6.87206e-12
1.96137e-12
4.92441e-13
1.07613e-13
1.93527e-14
2.94728e-15
3.82782e-16
4.32337e-17
4.36752e-18
4.06617e-19
3.58083e-20
3.04186e-21
2.52597e-22
2.06787e-23
1.6777e-24
1.35962e-25
1.09683e-26
8.82264e-28
7.09164e-29
5.72436e-30
4.70515e-31
4.0866e-32
4.10951e-33
5.37033e-34
9.16425e-35
1.75357e-35
3.04636e-36
2.8511e-37
6.18223e-30
2.40754e-29
5.30032e-29
1.05674e-28
2.11026e-28
4.38945e-28
9.60259e-28
2.19775e-27
5.21421e-27
1.24928e-26
3.03237e-26
7.55763e-26
1.96605e-25
5.44651e-25
1.64946e-24
5.60853e-24
2.17817e-23
9.60213e-23
4.68039e-22
2.38409e-21
1.19469e-20
5.75772e-20
2.63759e-19
1.14016e-18
4.64469e-18
1.75426e-17
6.30944e-17
2.18433e-16
7.10285e-16
2.23071e-15
6.64845e-15
1.91048e-14
5.27135e-14
1.40286e-13
3.59299e-13
8.88581e-13
2.12727e-12
4.94579e-12
1.11622e-11
2.45371e-11
5.28278e-11
1.10503e-10
2.26259e-10
4.54568e-10
8.91629e-10
1.7237e-09
3.23861e-09
6.00432e-09
1.07652e-08
1.90613e-08
3.23761e-08
5.3542e-08
8.58658e-08
1.32994e-07
1.97596e-07
2.77897e-07
3.60225e-07
4.04609e-07
3.36084e-07
1.84566e-07
1.01163e-07
5.4954e-08
2.94014e-08
1.54226e-08
7.85256e-09
3.88238e-09
1.84798e-09
8.43862e-10
3.56309e-10
1.4457e-10
5.45667e-11
1.88374e-11
5.91239e-12
1.67027e-12
3.98208e-13
8.56283e-14
1.50419e-14
2.24003e-15
2.854e-16
3.17697e-17
3.1786e-18
2.94303e-19
2.58523e-20
2.1948e-21
1.82354e-22
1.49453e-23
1.21417e-24
9.8066e-26
7.88984e-27
6.33365e-28
5.08598e-29
4.1109e-30
3.40556e-31
3.04569e-32
3.24712e-33
4.59042e-34
8.32173e-35
1.63942e-35
2.87873e-36
2.7004e-37
6.16614e-30
2.40122e-29
5.28631e-29
1.05392e-28
2.10448e-28
4.37658e-28
9.57069e-28
2.18897e-27
5.1881e-27
1.24159e-26
3.00699e-26
7.4683e-26
1.93293e-25
5.32632e-25
1.60356e-24
5.41991e-24
2.09147e-23
9.17356e-23
4.45824e-22
2.27183e-21
1.1407e-20
5.51406e-20
2.53282e-19
1.09949e-18
4.49888e-18
1.7047e-17
6.15089e-17
2.13774e-16
6.96834e-16
2.19554e-15
6.56201e-15
1.89083e-14
5.23161e-14
1.39636e-13
3.59118e-13
8.91262e-13
2.14036e-12
4.99143e-12
1.12938e-11
2.48844e-11
5.36956e-11
1.1253e-10
2.30751e-10
4.64357e-10
9.12024e-10
1.76443e-09
3.31898e-09
6.15884e-09
1.10468e-08
1.95654e-08
3.32284e-08
5.49293e-08
8.80225e-08
1.36117e-07
2.0155e-07
2.81854e-07
3.61388e-07
3.96154e-07
3.08671e-07
1.69485e-07
9.2736e-08
5.03863e-08
2.66345e-08
1.39206e-08
7.06704e-09
3.47239e-09
1.64095e-09
7.43224e-10
3.13352e-10
1.25601e-10
4.6536e-11
1.58483e-11
4.89865e-12
1.35086e-12
3.17612e-13
6.687e-14
1.14282e-14
1.65767e-15
2.06422e-16
2.25685e-17
2.22931e-18
2.04702e-19
1.78924e-20
1.51487e-21
1.25694e-22
1.02966e-23
8.36508e-25
6.7586e-26
5.44084e-27
4.37181e-28
3.51694e-29
2.85535e-30
2.39482e-31
2.20681e-32
2.50863e-33
3.84061e-34
7.3592e-35
1.48788e-35
2.63947e-36
2.48263e-37
6.13799e-30
2.39022e-29
5.26177e-29
1.04888e-28
2.0939e-28
4.35286e-28
9.51312e-28
2.17392e-27
5.14621e-27
1.22943e-26
2.97273e-26
7.37005e-26
1.90382e-25
5.22997e-25
1.56805e-24
5.27444e-24
2.02618e-23
8.85863e-23
4.29832e-22
2.19241e-21
1.10309e-20
5.34657e-20
2.46319e-19
1.07173e-18
4.39657e-18
1.67039e-17
6.04535e-17
2.11077e-16
6.9043e-16
2.18206e-15
6.54074e-15
1.88921e-14
5.2409e-14
1.40222e-13
3.61991e-13
9.01051e-13
2.16979e-12
5.0731e-12
1.15038e-11
2.53966e-11
5.49051e-11
1.15236e-10
2.36619e-10
4.76913e-10
9.37413e-10
1.81393e-09
3.41383e-09
6.33647e-09
1.13688e-08
2.01423e-08
3.42108e-08
5.65252e-08
9.04709e-08
1.39558e-07
2.05814e-07
2.857e-07
3.61057e-07
3.82864e-07
2.71117e-07
1.4913e-07
8.16435e-08
4.42567e-08
2.33248e-08
1.21455e-08
6.15551e-09
3.01301e-09
1.41577e-09
6.32614e-10
2.66991e-10
1.06056e-10
3.8879e-11
1.30571e-11
3.935e-12
1.06059e-12
2.52763e-13
4.94584e-14
8.22378e-15
1.1636e-15
1.4196e-16
1.52869e-17
1.49498e-18
1.36478e-19
1.18958e-20
1.00631e-21
8.3524e-23
6.8489e-24
5.57172e-25
4.5087e-26
3.63583e-27
2.92746e-28
2.36253e-29
1.93137e-30
1.64925e-31
1.58843e-32
1.95388e-33
3.24614e-34
6.53099e-35
1.34786e-35
2.40891e-36
2.26953e-37
6.10039e-30
2.3756e-29
5.22929e-29
1.04223e-28
2.07994e-28
4.32175e-28
9.439e-28
2.15515e-27
5.09765e-27
1.21692e-26
2.94021e-26
7.28354e-26
1.87878e-25
5.14968e-25
1.53934e-24
5.15933e-24
1.97494e-23
8.61e-23
4.17e-22
2.12727e-21
1.07158e-20
5.20453e-20
2.40555e-19
1.05163e-18
4.33559e-18
1.65412e-17
6.00956e-17
2.10593e-16
6.90866e-16
2.1894e-15
6.58131e-15
1.905e-14
5.29856e-14
1.42055e-13
3.67843e-13
9.18097e-13
2.21613e-12
5.19279e-12
1.1799e-11
2.6096e-11
5.64994e-11
1.18746e-10
2.44131e-10
4.92724e-10
9.6928e-10
1.87583e-09
3.53396e-09
6.55036e-09
1.17652e-08
2.0853e-08
3.54023e-08
5.84279e-08
9.334e-08
1.43603e-07
2.10863e-07
2.90445e-07
3.61372e-07
3.69017e-07
2.31706e-07
1.28416e-07
7.07162e-08
3.85184e-08
2.03615e-08
1.06116e-08
5.36537e-09
2.61586e-09
1.22063e-09
5.41604e-10
2.26918e-10
8.89452e-11
3.21872e-11
1.06167e-11
3.15809e-12
8.36562e-13
1.93947e-13
3.7017e-14
6.00635e-15
8.31238e-16
9.95801e-17
1.05796e-17
1.02543e-18
9.31237e-20
8.0959e-21
6.84256e-22
5.68016e-23
4.66103e-24
3.79576e-25
3.07527e-26
2.4833e-27
2.00303e-28
1.6216e-29
1.33548e-30
1.16354e-31
1.17614e-32
1.56372e-33
2.78689e-34
5.82421e-35
1.22092e-35
2.19456e-36
2.07026e-37
6.05163e-30
2.3565e-29
5.18641e-29
1.03338e-28
2.06148e-28
4.28162e-28
9.34823e-28
2.13409e-27
5.04499e-27
1.20312e-26
2.9044e-26
7.18406e-26
1.84977e-25
5.05926e-25
1.5086e-24
5.04447e-24
1.92802e-23
8.40253e-23
4.07188e-22
2.08186e-21
1.05202e-20
5.12692e-20
2.3784e-19
1.04325e-18
4.31572e-18
1.65158e-17
6.01901e-17
2.11638e-16
6.96124e-16
2.21105e-15
6.66322e-15
1.93144e-14
5.4033e-14
1.4501e-13
3.76104e-13
9.40873e-13
2.27533e-12
5.33977e-12
1.21554e-11
2.69287e-11
5.83734e-11
1.22851e-10
2.52873e-10
5.11033e-10
1.00675e-09
1.94218e-09
3.66502e-09
6.7811e-09
1.21938e-08
2.16217e-08
3.67019e-08
6.05475e-08
9.66503e-08
1.48459e-07
2.17356e-07
2.97722e-07
3.66074e-07
3.62816e-07
2.07914e-07
1.15554e-07
6.37392e-08
3.47347e-08
1.83578e-08
9.54573e-09
4.81503e-09
2.34085e-09
1.09376e-09
4.71815e-10
1.96597e-10
7.62849e-11
2.72999e-11
8.87117e-12
2.59476e-12
6.70211e-13
1.52759e-13
2.85106e-14
4.52548e-15
6.14021e-16
7.23813e-17
7.59945e-18
7.30872e-19
6.60748e-20
5.73159e-21
4.84062e-22
4.01877e-23
3.29972e-24
2.68946e-25
2.18113e-26
1.76332e-27
1.4246e-28
1.15703e-29
9.61531e-31
8.58201e-32
9.13643e-33
1.30494e-33
2.45782e-34
5.2734e-35
1.1162e-35
2.0127e-36
1.89995e-37
6.00067e-30
2.33649e-29
5.14113e-29
1.02388e-28
2.04108e-28
4.23542e-28
9.23779e-28
2.10645e-27
4.97469e-27
1.18473e-26
2.85258e-26
7.04028e-26
1.80849e-25
4.9337e-25
1.46757e-24
4.89962e-24
1.87306e-23
8.17953e-23
3.9751e-22
2.04099e-21
1.03584e-20
5.07164e-20
2.36355e-19
1.04109e-18
4.32351e-18
1.66044e-17
6.07176e-17
2.14103e-16
7.0656e-16
2.24977e-15
6.79634e-15
1.97319e-14
5.5334e-14
1.4875e-13
3.86445e-13
9.68862e-13
2.34752e-12
5.52138e-12
1.25809e-11
2.79111e-11
6.03098e-11
1.27158e-10
2.61956e-10
5.29895e-10
1.04384e-09
2.01421e-09
3.80191e-09
7.01913e-09
1.26353e-08
2.2421e-08
3.80839e-08
6.28406e-08
1.00293e-07
1.53952e-07
2.25065e-07
3.07315e-07
3.75155e-07
3.65014e-07
2.0249e-07
1.11848e-07
6.13338e-08
3.32332e-08
1.74818e-08
9.04093e-09
4.53024e-09
2.1878e-09
1.01425e-09
4.3217e-10
1.7838e-10
6.84708e-11
2.41323e-11
7.73502e-12
2.22663e-12
5.66112e-13
1.26016e-13
2.29917e-14
3.57123e-15
4.75365e-16
5.51791e-17
5.72893e-18
5.46958e-19
4.92353e-20
4.2614e-21
3.59579e-22
2.98502e-23
2.45181e-24
1.99959e-25
1.6229e-26
1.31326e-27
1.06253e-28
8.65615e-30
7.24977e-31
6.60817e-32
7.36046e-33
1.11589e-33
2.19311e-34
4.79824e-35
1.023e-35
1.84932e-36
1.74676e-37
5.95745e-30
2.31962e-29
5.1033e-29
1.01602e-28
2.02439e-28
4.19808e-28
9.14979e-28
2.08483e-27
4.91978e-27
1.16958e-26
2.81362e-26
6.93688e-26
1.77989e-25
4.84954e-25
1.44085e-24
4.80799e-24
1.83946e-23
8.04873e-23
3.92093e-22
2.0196e-21
1.02797e-20
5.04891e-20
2.3597e-19
1.04256e-18
4.34286e-18
1.67205e-17
6.12843e-17
2.16447e-16
7.15589e-16
2.28134e-15
6.96191e-15
2.02013e-14
5.67351e-14
1.52712e-13
3.97235e-13
9.97492e-13
2.42149e-12
5.69055e-12
1.29861e-11
2.88661e-11
6.24119e-11
1.31705e-10
2.71616e-10
5.49561e-10
1.08301e-09
2.09003e-09
3.9478e-09
7.28473e-09
1.31142e-08
2.32624e-08
3.94914e-08
6.51508e-08
1.03952e-07
1.59498e-07
2.32915e-07
3.17252e-07
3.85022e-07
3.69141e-07
2.03383e-07
1.11796e-07
6.09916e-08
3.28574e-08
1.72297e-08
8.85722e-09
4.41e-09
2.11448e-09
9.73242e-10
4.10811e-10
1.67798e-10
6.36554e-11
2.21812e-11
7.02593e-12
2.01084e-12
4.81937e-13
1.05534e-13
1.89302e-14
2.89468e-15
3.80198e-16
4.36797e-17
4.50264e-18
4.27995e-19
3.84391e-20
3.32421e-21
2.80518e-22
2.33006e-23
1.9154e-24
1.56354e-25
1.27023e-26
1.02902e-27
8.33829e-29
6.8135e-30
5.7499e-31
5.34394e-32
6.18391e-33
9.79251e-34
1.97991e-34
4.38749e-35
9.40205e-36
1.7029e-36
1.60932e-37
5.92439e-30
2.30685e-29
5.07508e-29
1.01024e-28
2.01222e-28
4.17094e-28
9.08557e-28
2.06882e-27
4.87797e-27
1.1583e-26
2.78345e-26
6.85483e-26
1.75672e-25
4.78082e-25
1.4192e-24
4.73537e-24
1.81372e-23
7.95376e-23
3.88458e-22
2.00681e-21
1.02496e-20
5.04919e-20
2.36759e-19
1.04923e-18
4.38337e-18
1.69188e-17
6.21572e-17
2.19921e-16
7.2861e-16
2.32656e-15
7.11407e-15
2.06706e-14
5.81334e-14
1.56642e-13
4.07873e-13
1.02549e-12
2.49136e-12
5.85938e-12
1.33824e-11
2.97836e-11
6.44293e-11
1.36038e-10
2.80553e-10
5.67729e-10
1.11904e-09
2.16042e-09
4.07991e-09
7.52843e-09
1.35532e-08
2.40321e-08
4.08094e-08
6.73212e-08
1.07386e-07
1.64628e-07
2.40086e-07
3.2615e-07
3.93422e-07
3.71608e-07
2.04321e-07
1.12038e-07
6.09333e-08
3.26848e-08
1.71397e-08
8.76811e-09
4.34241e-09
2.06982e-09
9.46361e-10
3.97351e-10
1.61018e-10
6.05367e-11
2.08888e-11
6.54319e-12
1.84778e-12
4.35966e-13
9.39961e-14
1.65945e-14
2.50001e-15
3.24125e-16
3.68512e-17
3.76957e-18
3.56433e-19
3.19057e-20
2.75381e-21
2.32136e-22
1.92718e-23
1.58389e-24
1.29294e-25
1.05053e-26
8.51274e-28
6.90254e-29
5.65042e-30
4.79346e-31
4.51915e-32
5.37425e-33
8.77171e-34
1.80738e-34
4.03881e-35
8.68381e-36
1.5749e-36
1.489e-37
5.89333e-30
2.29474e-29
5.04797e-29
1.00464e-28
2.00044e-28
4.14504e-28
9.02637e-28
2.05496e-27
4.84517e-27
1.14979e-26
2.76121e-26
6.79443e-26
1.73915e-25
4.72734e-25
1.40212e-24
4.67897e-24
1.79483e-23
7.89105e-23
3.86448e-22
2.00194e-21
1.02533e-20
5.06606e-20
2.38204e-19
1.05843e-18
4.43227e-18
1.71438e-17
6.31061e-17
2.23588e-16
7.41963e-16
2.37182e-15
7.26244e-15
2.11226e-14
5.94575e-14
1.60337e-13
4.17771e-13
1.05118e-12
2.5567e-12
6.01672e-12
1.37474e-11
3.06133e-11
6.62423e-11
1.39897e-10
2.88608e-10
5.84155e-10
1.15174e-09
2.2236e-09
4.19953e-09
7.7495e-09
1.39512e-08
2.47288e-08
4.19864e-08
6.9235e-08
1.10374e-07
1.69084e-07
2.46228e-07
3.33572e-07
3.99971e-07
3.72573e-07
2.03418e-07
1.11497e-07
6.05694e-08
3.24252e-08
1.70096e-08
8.64409e-09
4.26666e-09
2.02511e-09
9.20588e-10
3.86045e-10
1.55397e-10
5.79774e-11
1.98368e-11
6.1556e-12
1.71912e-12
4.03623e-13
8.59961e-14
1.49892e-14
2.23033e-15
2.85889e-16
3.21949e-17
3.26927e-18
3.07545e-19
2.74366e-20
2.36304e-21
1.98937e-22
1.65028e-23
1.35573e-24
1.10644e-25
8.98913e-27
7.28459e-28
5.90906e-29
4.84474e-30
4.13114e-31
3.9461e-32
4.8047e-33
8.02767e-34
1.6755e-34
3.76215e-35
8.10084e-36
1.4697e-36
1.38965e-37
5.86634e-30
2.28422e-29
5.0244e-29
9.99741e-29
1.99003e-28
4.12175e-28
8.97168e-28
2.0416e-27
4.80982e-27
1.1406e-26
2.73814e-26
6.73701e-26
1.72465e-25
4.68641e-25
1.38939e-24
4.63626e-24
1.78078e-23
7.84843e-23
3.85342e-22
2.00193e-21
1.02801e-20
5.09184e-20
2.39961e-19
1.06861e-18
4.48425e-18
1.73761e-17
6.40644e-17
2.27241e-16
7.55101e-16
2.416e-15
7.40611e-15
2.15586e-14
6.07387e-14
1.63871e-13
4.27216e-13
1.07586e-12
2.61906e-12
6.16642e-12
1.40958e-11
3.14119e-11
6.79665e-11
1.43526e-10
2.9608e-10
5.99197e-10
1.18153e-09
2.2812e-09
4.30824e-09
7.94963e-09
1.43089e-08
2.53453e-08
4.30293e-08
7.09297e-08
1.12994e-07
1.72882e-07
2.51287e-07
3.39262e-07
4.03956e-07
3.70002e-07
2.02236e-07
1.10733e-07
6.00719e-08
3.20995e-08
1.67966e-08
8.52859e-09
4.19518e-09
1.98273e-09
8.96486e-10
3.75779e-10
1.50403e-10
5.57408e-11
1.89317e-11
5.8232e-12
1.60695e-12
3.77212e-13
7.95876e-14
1.37217e-14
2.01935e-15
2.56319e-16
2.86356e-17
2.89055e-18
2.7079e-19
2.40917e-20
2.07141e-21
1.74204e-22
1.44421e-23
1.18605e-24
9.67792e-26
7.86227e-27
6.37078e-28
5.16777e-29
4.24009e-30
3.62874e-31
3.49986e-32
4.33744e-33
7.38282e-34
1.55831e-34
3.51668e-35
7.58802e-36
1.37782e-36
1.3031e-37
5.84377e-30
2.27543e-29
5.00473e-29
9.95659e-29
1.98137e-28
4.10244e-28
8.92653e-28
2.03065e-27
4.78037e-27
1.13278e-26
2.71779e-26
6.68339e-26
1.71001e-25
4.64594e-25
1.37792e-24
4.60347e-24
1.77099e-23
7.82231e-23
3.8496e-22
2.00467e-21
1.03183e-20
5.12159e-20
2.41864e-19
1.07902e-18
4.53583e-18
1.76008e-17
6.4979e-17
2.30699e-16
7.67428e-16
2.45721e-15
7.53916e-15
2.19603e-14
6.19096e-14
1.67143e-13
4.3604e-13
1.09835e-12
2.67478e-12
6.29918e-12
1.44033e-11
3.21008e-11
6.94804e-11
1.4678e-10
3.02895e-10
6.13037e-10
1.20876e-09
2.33338e-09
4.40563e-09
8.12589e-09
1.46203e-08
2.58776e-08
4.39079e-08
7.23276e-08
1.15128e-07
1.75949e-07
2.55271e-07
3.43508e-07
4.06095e-07
3.6571e-07
2.00164e-07
1.09544e-07
5.93724e-08
3.168e-08
1.65413e-08
8.39394e-09
4.11729e-09
1.93925e-09
8.72764e-10
3.65921e-10
1.45692e-10
5.36883e-11
1.81058e-11
5.52681e-12
1.51007e-12
3.54819e-13
7.41682e-14
1.26647e-14
1.84652e-15
2.32435e-16
2.57903e-17
2.58997e-18
2.41761e-19
2.14583e-20
1.84224e-21
1.5479e-22
1.28258e-23
1.05298e-24
8.59063e-26
6.97856e-27
5.65723e-28
4.59441e-29
3.77674e-30
3.24527e-31
3.1614e-32
3.98468e-33
6.88885e-34
1.46621e-34
3.31929e-35
7.16934e-36
1.30215e-36
1.23157e-37
5.82556e-30
2.26835e-29
4.98893e-29
9.92394e-29
1.97447e-28
4.08712e-28
8.89085e-28
2.02202e-27
4.75681e-27
1.1265e-26
2.70145e-26
6.64056e-26
1.6984e-25
4.61301e-25
1.36816e-24
4.57417e-24
1.76305e-23
7.80604e-23
3.85009e-22
2.00909e-21
1.03608e-20
5.15185e-20
2.4368e-19
1.08881e-18
4.58337e-18
1.78069e-17
6.58095e-17
2.33814e-16
7.78513e-16
2.49413e-15
7.65786e-15
2.2318e-14
6.29504e-14
1.6999e-13
4.43502e-13
1.11745e-12
2.72242e-12
6.41246e-12
1.46632e-11
3.26943e-11
7.07626e-11
1.49479e-10
3.08423e-10
6.24123e-10
1.23097e-09
2.37712e-09
4.49021e-09
8.27923e-09
1.48903e-08
2.63273e-08
4.46479e-08
7.35006e-08
1.16889e-07
1.78417e-07
2.58369e-07
3.46508e-07
4.06836e-07
3.60391e-07
1.97505e-07
1.08066e-07
5.85393e-08
3.11836e-08
1.62515e-08
8.23327e-09
4.02868e-09
1.89178e-09
8.47691e-10
3.55658e-10
1.41046e-10
5.17155e-11
1.73523e-11
5.26248e-12
1.42522e-12
3.35441e-13
6.95904e-14
1.17808e-14
1.70341e-15
2.12821e-16
2.34693e-17
2.34599e-18
2.18274e-19
1.93317e-20
1.65734e-21
1.3913e-22
1.15215e-23
9.45543e-25
7.71211e-26
6.26389e-27
5.07666e-28
4.12219e-29
3.39343e-30
2.9273e-31
2.87888e-32
3.68486e-33
6.46337e-34
1.38648e-34
3.1487e-35
6.8087e-36
1.23714e-36
1.1702e-37
5.81095e-30
2.26267e-29
4.97625e-29
9.89774e-29
1.96894e-28
4.07485e-28
8.86238e-28
2.01517e-27
4.73802e-27
1.12149e-26
2.68847e-26
6.60669e-26
1.68927e-25
4.58734e-25
1.36068e-24
4.5523e-24
1.75725e-23
7.79555e-23
3.8528e-22
2.0142e-21
1.04039e-20
5.18085e-20
2.45384e-19
1.09777e-18
4.62616e-18
1.799e-17
6.65408e-17
2.36538e-16
7.8797e-16
2.52528e-15
7.75724e-15
2.26139e-14
6.38043e-14
1.72351e-13
4.49713e-13
1.1333e-12
2.76141e-12
6.50426e-12
1.4873e-11
3.31567e-11
7.17405e-11
1.51482e-10
3.12442e-10
6.3178e-10
1.24509e-09
2.40199e-09
4.57695e-09
8.41645e-09
1.51216e-08
2.67072e-08
4.52707e-08
7.44719e-08
1.18326e-07
1.8039e-07
2.60729e-07
3.48593e-07
4.06719e-07
3.54938e-07
1.94716e-07
1.06581e-07
5.78457e-08
3.0482e-08
1.58818e-08
8.03966e-09
3.92897e-09
1.84139e-09
8.22529e-10
3.45609e-10
1.36591e-10
4.98876e-11
1.66602e-11
5.02642e-12
1.35163e-12
3.18952e-13
6.56114e-14
1.10039e-14
1.57721e-15
1.95552e-16
2.14326e-17
2.13258e-18
1.97781e-19
1.74786e-20
1.49632e-21
1.25492e-22
1.03854e-23
8.51918e-25
6.94624e-26
5.64062e-27
4.57116e-28
3.71254e-29
3.05822e-30
2.6469e-31
2.62732e-32
3.41805e-33
6.08654e-34
1.31653e-34
3.00043e-35
6.49742e-36
1.18127e-36
1.11755e-37
5.79944e-30
2.25819e-29
4.96624e-29
9.877e-29
1.96454e-28
4.06506e-28
8.8395e-28
2.00963e-27
4.72311e-27
1.11753e-26
2.67824e-26
6.58011e-26
1.68215e-25
4.56743e-25
1.35494e-24
4.53603e-24
1.75319e-23
7.79174e-23
3.85731e-22
2.01964e-21
1.04462e-20
5.20832e-20
2.46959e-19
1.10592e-18
4.66476e-18
1.81537e-17
6.71911e-17
2.38964e-16
7.96529e-16
2.55363e-15
7.84688e-15
2.28822e-14
6.45727e-14
1.74441e-13
4.55256e-13
1.14745e-12
2.7966e-12
6.58704e-12
1.50613e-11
3.35781e-11
7.26528e-11
1.53416e-10
3.16425e-10
6.39772e-10
1.26104e-09
2.43325e-09
4.63579e-09
8.52169e-09
1.53041e-08
2.70072e-08
4.57606e-08
7.52338e-08
1.19444e-07
1.81908e-07
2.62515e-07
3.50012e-07
4.06083e-07
3.49537e-07
1.9191e-07
1.05028e-07
5.69752e-08
3.00059e-08
1.56126e-08
7.89175e-09
3.84996e-09
1.80057e-09
8.01921e-10
3.37311e-10
1.32942e-10
4.83982e-11
1.61043e-11
4.83938e-12
1.29582e-12
3.07025e-13
5.99522e-14
9.99272e-15
1.42419e-15
1.75773e-16
1.91991e-17
1.90603e-18
1.76542e-19
1.55928e-20
1.33476e-21
1.11966e-22
9.26959e-24
7.6075e-25
6.20626e-26
5.04276e-27
4.08959e-28
3.32501e-29
2.74507e-30
2.38903e-31
2.40159e-32
3.1867e-33
5.77232e-34
1.25961e-34
2.88072e-35
6.24625e-36
1.13614e-36
1.07492e-37
5.79079e-30
2.25483e-29
4.95875e-29
9.86153e-29
1.96128e-28
4.05782e-28
8.82268e-28
2.00558e-27
4.71196e-27
1.11455e-26
2.67053e-26
6.56006e-26
1.67678e-25
4.55256e-25
1.35073e-24
4.52451e-24
1.75064e-23
7.79171e-23
3.8626e-22
2.02488e-21
1.04848e-20
5.23254e-20
2.48324e-19
1.11293e-18
4.69761e-18
1.82925e-17
6.77413e-17
2.40987e-16
8.03591e-16
2.57689e-15
7.9209e-15
2.31029e-14
6.52072e-14
1.7618e-13
4.59863e-13
1.15917e-12
2.82525e-12
6.6545e-12
1.52167e-11
3.39264e-11
7.34048e-11
1.55003e-10
3.19693e-10
6.46302e-10
1.27389e-09
2.4578e-09
4.68001e-09
8.6018e-09
1.54442e-08
2.72373e-08
4.61368e-08
7.5819e-08
1.20301e-07
1.8305e-07
2.63816e-07
3.5093e-07
4.05184e-07
3.44559e-07
1.89314e-07
1.03594e-07
5.61735e-08
2.95855e-08
1.53828e-08
7.76789e-09
3.78506e-09
1.76763e-09
7.85734e-10
3.30366e-10
1.29912e-10
4.71754e-11
1.56523e-11
4.688e-12
1.25063e-12
2.95066e-13
5.72679e-14
9.48591e-15
1.3441e-15
1.65045e-16
1.79549e-17
1.77729e-18
1.64289e-19
1.44916e-20
1.23945e-21
1.03916e-22
8.60019e-24
7.05654e-25
5.7559e-26
4.67635e-27
3.79234e-28
3.084e-29
2.54865e-30
2.2253e-31
2.25508e-32
3.03039e-33
5.54878e-34
1.21752e-34
2.79051e-35
6.05544e-36
1.10175e-36
1.04245e-37
5.78455e-30
2.2524e-29
4.95335e-29
9.8504e-29
1.95894e-28
4.05264e-28
8.81068e-28
2.00269e-27
4.70398e-27
1.11241e-26
2.66497e-26
6.54557e-26
1.67289e-25
4.54172e-25
1.34765e-24
4.51617e-24
1.74901e-23
7.79335e-23
3.86761e-22
2.02938e-21
1.05166e-20
5.25224e-20
2.49419e-19
1.11846e-18
4.72339e-18
1.84008e-17
6.81659e-17
2.42562e-16
8.09069e-16
2.59492e-15
7.97803e-15
2.32732e-14
6.56962e-14
1.7752e-13
4.63393e-13
1.16814e-12
2.84731e-12
6.70655e-12
1.53351e-11
3.41906e-11
7.39756e-11
1.56203e-10
3.22152e-10
6.51129e-10
1.28332e-09
2.47578e-09
4.71222e-09
8.66031e-09
1.55464e-08
2.74046e-08
4.64099e-08
7.62426e-08
1.20918e-07
1.8387e-07
2.64725e-07
3.51505e-07
4.04319e-07
3.40552e-07
1.87189e-07
1.02422e-07
5.55218e-08
2.9245e-08
1.5198e-08
7.66975e-09
3.73407e-09
1.74202e-09
7.73476e-10
3.24812e-10
1.27526e-10
4.62234e-11
1.53036e-11
4.57188e-12
1.21622e-12
2.86033e-13
5.5302e-14
9.12599e-15
1.28849e-15
1.5772e-16
1.71149e-17
1.69099e-18
1.56112e-19
1.3759e-20
1.17619e-21
9.85815e-23
8.15716e-24
6.69229e-25
5.45844e-26
4.43464e-27
3.59665e-28
2.92568e-29
2.41978e-30
2.11772e-31
2.15806e-32
2.92491e-33
5.39392e-34
1.18777e-34
2.72608e-35
5.91858e-36
1.07703e-36
1.01911e-37
5.78044e-30
2.25081e-29
4.94981e-29
9.84317e-29
1.95743e-28
4.04933e-28
8.80306e-28
2.00087e-27
4.69893e-27
1.11105e-26
2.66145e-26
6.53646e-26
1.67046e-25
4.53502e-25
1.34579e-24
4.51135e-24
1.74819e-23
7.79568e-23
3.87153e-22
2.03268e-21
1.05394e-20
5.26613e-20
2.50186e-19
1.12233e-18
4.74131e-18
1.84759e-17
6.84617e-17
2.43655e-16
8.12869e-16
2.60737e-15
8.01727e-15
2.33892e-14
6.60294e-14
1.78432e-13
4.65796e-13
1.1742e-12
2.86222e-12
6.74169e-12
1.54155e-11
3.43706e-11
7.43617e-11
1.57008e-10
3.23788e-10
6.54348e-10
1.28957e-09
2.48758e-09
4.73318e-09
8.69835e-09
1.56129e-08
2.75132e-08
4.6587e-08
7.65162e-08
1.21315e-07
1.84392e-07
2.65294e-07
3.51839e-07
4.03676e-07
3.37815e-07
1.85689e-07
1.01594e-07
5.5063e-08
2.90055e-08
1.50691e-08
7.60157e-09
3.69897e-09
1.72455e-09
7.65125e-10
3.21033e-10
1.25908e-10
4.55804e-11
1.50694e-11
4.49467e-12
1.19346e-12
2.80098e-13
5.40287e-14
8.8937e-15
1.25287e-15
1.53062e-16
1.65837e-17
1.63662e-18
1.50972e-19
1.32991e-20
1.13652e-21
9.52384e-23
7.87971e-24
6.46431e-25
5.27239e-26
4.28349e-27
3.47415e-28
2.82642e-29
2.33884e-30
2.05003e-31
2.09678e-32
2.85777e-33
5.29451e-34
1.16858e-34
2.68447e-35
5.83015e-36
1.06106e-36
1.00402e-37
5.77811e-30
2.24991e-29
4.94781e-29
9.83913e-29
1.9566e-28
4.04756e-28
8.79906e-28
1.99993e-27
4.69638e-27
1.11038e-26
2.65973e-26
6.53204e-26
1.66929e-25
4.53182e-25
1.3449e-24
4.50916e-24
1.74787e-23
7.79724e-23
3.87369e-22
2.03444e-21
1.05513e-20
5.27335e-20
2.50581e-19
1.12432e-18
4.75049e-18
1.85142e-17
6.86114e-17
2.44205e-16
8.14773e-16
2.61362e-15
8.03697e-15
2.34478e-14
6.61973e-14
1.7889e-13
4.66996e-13
1.17724e-12
2.86969e-12
6.75924e-12
1.54554e-11
3.4459e-11
7.45513e-11
1.57404e-10
3.24596e-10
6.55937e-10
1.29267e-09
2.49345e-09
4.74359e-09
8.71722e-09
1.56458e-08
2.75667e-08
4.66743e-08
7.66511e-08
1.2151e-07
1.84647e-07
2.6557e-07
3.51991e-07
4.03333e-07
3.36422e-07
1.84925e-07
1.01172e-07
5.48294e-08
2.8883e-08
1.50032e-08
7.5668e-09
3.68113e-09
1.71572e-09
7.6093e-10
3.19134e-10
1.25096e-10
4.52594e-11
1.4953e-11
4.4564e-12
1.18224e-12
2.77192e-13
5.34099e-14
8.78194e-15
1.23579e-15
1.50839e-16
1.63313e-17
1.61087e-18
1.48543e-19
1.30821e-20
1.11782e-21
9.36641e-23
7.74916e-24
6.35712e-25
5.18495e-26
4.21248e-27
3.41666e-28
2.77987e-29
2.30091e-30
2.01829e-31
2.06798e-32
2.82605e-33
5.24715e-34
1.15937e-34
2.66441e-35
5.78743e-36
1.05333e-36
9.96716e-38
5.77746e-30
2.24965e-29
4.94725e-29
9.83804e-29
1.9564e-28
4.04718e-28
8.79833e-28
1.99978e-27
4.69606e-27
1.11031e-26
2.65959e-26
6.53175e-26
1.66924e-25
4.53174e-25
1.3449e-24
4.50918e-24
1.74789e-23
7.79736e-23
3.87376e-22
2.03449e-21
1.05516e-20
5.27347e-20
2.50587e-19
1.12434e-18
4.75061e-18
1.85147e-17
6.86133e-17
2.44212e-16
8.14795e-16
2.61369e-15
8.0372e-15
2.34485e-14
6.61991e-14
1.78895e-13
4.67009e-13
1.17727e-12
2.86976e-12
6.75942e-12
1.54558e-11
3.44598e-11
7.45529e-11
1.57408e-10
3.24603e-10
6.5595e-10
1.29269e-09
2.4935e-09
4.74368e-09
8.71738e-09
1.56461e-08
2.75672e-08
4.6675e-08
7.66523e-08
1.21512e-07
1.8465e-07
2.65573e-07
3.51995e-07
4.03337e-07
3.36423e-07
1.84925e-07
1.01173e-07
5.48297e-08
2.8883e-08
1.50032e-08
7.56682e-09
3.68114e-09
1.71573e-09
7.6094e-10
3.19139e-10
1.25098e-10
4.52602e-11
1.49533e-11
4.45651e-12
1.18228e-12
2.77201e-13
5.34119e-14
8.78231e-15
1.23585e-15
1.50847e-16
1.63321e-17
1.61096e-18
1.48551e-19
1.30828e-20
1.11788e-21
9.36694e-23
7.74961e-24
6.35748e-25
5.18524e-26
4.21273e-27
3.41685e-28
2.78003e-29
2.30104e-30
2.0184e-31
2.06808e-32
2.82617e-33
5.24735e-34
1.15942e-34
2.66452e-35
5.78766e-36
1.05338e-36
9.96759e-38
5.77868e-30
2.25012e-29
4.94831e-29
9.84031e-29
1.9569e-28
4.04837e-28
8.80126e-28
2.00052e-27
4.69819e-27
1.1109e-26
2.66114e-26
6.53586e-26
1.67035e-25
4.53486e-25
1.34577e-24
4.51142e-24
1.74825e-23
7.79602e-23
3.87173e-22
2.0328e-21
1.054e-20
5.26646e-20
2.50202e-19
1.12241e-18
4.74165e-18
1.84773e-17
6.84666e-17
2.43673e-16
8.12931e-16
2.60759e-15
8.01797e-15
2.33913e-14
6.60353e-14
1.78448e-13
4.65837e-13
1.17431e-12
2.86248e-12
6.74231e-12
1.54168e-11
3.43731e-11
7.43668e-11
1.57019e-10
3.23809e-10
6.54389e-10
1.28965e-09
2.48774e-09
4.73347e-09
8.69884e-09
1.56137e-08
2.75145e-08
4.65892e-08
7.65198e-08
1.2132e-07
1.84399e-07
2.65304e-07
3.51851e-07
4.03687e-07
3.37818e-07
1.85691e-07
1.01595e-07
5.5064e-08
2.90058e-08
1.50692e-08
7.60168e-09
3.69902e-09
1.72458e-09
7.65142e-10
3.21042e-10
1.25912e-10
4.55823e-11
1.50702e-11
4.49494e-12
1.19354e-12
2.80122e-13
5.40341e-14
8.89468e-15
1.25302e-15
1.53083e-16
1.6586e-17
1.63687e-18
1.50995e-19
1.33011e-20
1.1367e-21
9.52533e-23
7.88095e-24
6.46533e-25
5.27322e-26
4.28417e-27
3.4747e-28
2.82686e-29
2.3392e-30
2.05034e-31
2.09706e-32
2.8581e-33
5.29506e-34
1.1687e-34
2.68475e-35
5.8308e-36
1.06119e-36
1.00414e-37
5.78205e-30
2.25143e-29
4.95123e-29
9.84639e-29
1.95821e-28
4.05133e-28
8.80826e-28
2.00223e-27
4.70305e-27
1.11222e-26
2.66461e-26
6.54493e-26
1.6728e-25
4.54163e-25
1.34767e-24
4.51633e-24
1.7491e-23
7.79383e-23
3.86788e-22
2.02953e-21
1.05174e-20
5.25267e-20
2.4944e-19
1.11856e-18
4.7238e-18
1.84025e-17
6.81725e-17
2.42585e-16
8.09149e-16
2.59516e-15
7.97881e-15
2.32755e-14
6.5703e-14
1.77539e-13
4.63445e-13
1.16828e-12
2.84768e-12
6.70746e-12
1.53373e-11
3.41958e-11
7.39858e-11
1.56222e-10
3.22187e-10
6.51206e-10
1.28345e-09
2.47597e-09
4.71254e-09
8.66081e-09
1.55475e-08
2.74066e-08
4.64132e-08
7.6248e-08
1.20927e-07
1.83882e-07
2.64741e-07
3.51525e-07
4.04335e-07
3.40555e-07
1.8719e-07
1.02423e-07
5.55224e-08
2.92455e-08
1.51983e-08
7.66994e-09
3.73419e-09
1.74209e-09
7.73512e-10
3.2483e-10
1.27536e-10
4.62274e-11
1.53051e-11
4.5724e-12
1.21638e-12
2.86078e-13
5.53119e-14
9.12788e-15
1.28879e-15
1.5776e-16
1.71194e-17
1.69146e-18
1.56157e-19
1.3763e-20
1.17654e-21
9.86105e-23
8.15957e-24
6.69426e-25
5.46005e-26
4.43594e-27
3.59771e-28
2.92655e-29
2.42049e-30
2.11833e-31
2.15864e-32
2.92558e-33
5.39503e-34
1.18801e-34
2.72661e-35
5.91974e-36
1.07724e-36
1.01931e-37
5.78794e-30
2.25372e-29
4.95636e-29
9.85708e-29
1.96049e-28
4.05643e-28
8.82021e-28
2.00513e-27
4.71111e-27
1.11439e-26
2.67026e-26
6.55966e-26
1.67675e-25
4.55262e-25
1.35078e-24
4.52475e-24
1.75075e-23
7.79226e-23
3.86289e-22
2.02504e-21
1.04856e-20
5.23294e-20
2.48344e-19
1.11301e-18
4.69797e-18
1.82939e-17
6.77465e-17
2.41006e-16
8.03652e-16
2.57708e-15
7.9215e-15
2.31045e-14
6.52117e-14
1.76192e-13
4.59889e-13
1.15923e-12
2.82551e-12
6.65515e-12
1.52183e-11
3.39302e-11
7.34136e-11
1.55025e-10
3.19738e-10
6.46366e-10
1.27401e-09
2.45804e-09
4.68051e-09
8.60276e-09
1.54458e-08
2.724e-08
4.61412e-08
7.58257e-08
1.20311e-07
1.83064e-07
2.63832e-07
3.50951e-07
4.05202e-07
3.44563e-07
1.89316e-07
1.03596e-07
5.61751e-08
2.95866e-08
1.53834e-08
7.7683e-09
3.7853e-09
1.76776e-09
7.85799e-10
3.30397e-10
1.29926e-10
4.71814e-11
1.56546e-11
4.68873e-12
1.25085e-12
2.95129e-13
5.72822e-14
9.4886e-15
1.34453e-15
1.65102e-16
1.79615e-17
1.77797e-18
1.64353e-19
1.44973e-20
1.23995e-21
1.03958e-22
8.60366e-24
7.05939e-25
5.75823e-26
4.67824e-27
3.79386e-28
3.08522e-29
2.54964e-30
2.22612e-31
2.25581e-32
3.03117e-33
5.54991e-34
1.21774e-34
2.79099e-35
6.0565e-36
1.10194e-36
1.04264e-37
5.79647e-30
2.25704e-29
4.96378e-29
9.87246e-29
1.96375e-28
4.06371e-28
8.83719e-28
2.00923e-27
4.72238e-27
1.1174e-26
2.67804e-26
6.57987e-26
1.68215e-25
4.56756e-25
1.35501e-24
4.53632e-24
1.75331e-23
7.79234e-23
3.85763e-22
2.01981e-21
1.04471e-20
5.20874e-20
2.46978e-19
1.10601e-18
4.66511e-18
1.8155e-17
6.71957e-17
2.3898e-16
7.96576e-16
2.55376e-15
7.84768e-15
2.28847e-14
6.45801e-14
1.74462e-13
4.55311e-13
1.1476e-12
2.79681e-12
6.58749e-12
1.50622e-11
3.35804e-11
7.26579e-11
1.53427e-10
3.16449e-10
6.39828e-10
1.26117e-09
2.43352e-09
4.63633e-09
8.52266e-09
1.5306e-08
2.70106e-08
4.57663e-08
7.52428e-08
1.19458e-07
1.81927e-07
2.62539e-07
3.50039e-07
4.06105e-07
3.49543e-07
1.91914e-07
1.05031e-07
5.69771e-08
3.00071e-08
1.56133e-08
7.89219e-09
3.85021e-09
1.80071e-09