/*--------------------------------*- C++ -*----------------------------------*\
  =========                 |
  \\      /  F ield         | OpenFOAM: The Open Source CFD Toolbox
   \\    /   O peration     | Website:  https://openfoam.org
    \\  /    A nd           | Version:  10
     \\/     M anipulation  |
\*---------------------------------------------------------------------------*/
FoamFile
{
    format      ascii;
    class       volScalarField;
    location    "1";
    object      C2H2;
}
// * * * * * * * * * * * * * * * * * * * * * * * * * * * * * * * * * * * * * //

dimensions      [0 0 0 0 0 0 0];

internalField   nonuniform List<scalar> 
4000
(
7.59021e-08
2.94076e-07
6.26922e-07
1.15257e-06
1.98208e-06
3.28675e-06
5.3302e-06
8.51469e-06
1.34481e-05
2.07865e-05
3.1564e-05
4.7291e-05
7.00189e-05
0.000102421
0.000147854
0.000210339
0.00029435
0.000404476
0.000544934
0.000719039
0.000928715
0.00117417
0.00145387
0.00176656
0.0021067
0.00246221
0.00283645
0.00323097
0.00362929
0.00403609
0.00444035
0.00484338
0.00524036
0.00562689
0.00600094
0.00636105
0.00670626
0.00703616
0.00734997
0.00764788
0.0079321
0.00819882
0.00845065
0.00868872
0.00891204
0.00912432
0.0093192
0.00950133
0.00965943
0.00979132
0.00987291
0.00987862
0.00976387
0.00946467
0.00890052
0.00798742
0.00666713
0.00496614
0.00311303
0.00171074
0.000941699
0.000514169
0.000277007
0.000146522
7.51233e-05
3.75538e-05
1.81243e-05
8.44259e-06
3.73867e-06
1.78405e-06
1.01649e-06
6.94108e-07
5.2456e-07
4.11192e-07
3.22434e-07
2.4819e-07
1.82731e-07
1.29097e-07
8.71385e-08
5.61518e-08
3.46437e-08
2.05784e-08
1.18468e-08
6.65111e-09
3.66016e-09
1.98199e-09
1.05904e-09
5.5947e-10
2.93073e-10
1.52382e-10
7.87087e-11
4.04124e-11
2.06298e-11
1.04648e-11
5.26503e-12
2.61434e-12
1.26663e-12
5.82615e-13
2.35687e-13
5.42711e-14
7.59133e-08
2.94127e-07
6.27094e-07
1.15313e-06
1.98359e-06
3.29015e-06
5.33682e-06
8.52591e-06
1.34642e-05
2.08114e-05
3.15905e-05
4.7299e-05
6.99656e-05
0.000102221
0.000147347
0.000209252
0.00029221
0.000400782
0.000539209
0.000710894
0.000917947
0.00116094
0.00143889
0.00174736
0.00208431
0.00243696
0.00280872
0.00320255
0.00360008
0.00400762
0.00441367
0.0048189
0.00521723
0.00560575
0.00598148
0.00634308
0.00668963
0.00702094
0.00733581
0.00763464
0.00791969
0.00818696
0.00843911
0.00867758
0.0089005
0.00911209
0.00930663
0.00948768
0.00964475
0.00977489
0.00985369
0.00985606
0.00973589
0.00942855
0.0088521
0.00792223
0.00658227
0.00486576
0.00301286
0.0016571
0.00091165
0.00049727
0.000267487
0.00014116
7.22104e-05
3.59565e-05
1.72752e-05
8.02281e-06
3.54961e-06
1.71272e-06
9.92445e-07
6.85655e-07
5.20153e-07
4.0742e-07
3.18095e-07
2.43334e-07
1.78133e-07
1.25129e-07
8.40378e-08
5.3965e-08
3.32483e-08
1.9766e-08
1.14101e-08
6.43179e-09
3.55633e-09
1.93554e-09
1.03972e-09
5.52496e-10
2.90495e-10
1.51385e-10
7.82936e-11
4.02211e-11
2.05308e-11
1.0407e-11
5.23246e-12
2.59642e-12
1.25709e-12
5.77959e-13
2.33751e-13
5.38146e-14
7.60563e-08
2.9471e-07
6.28461e-07
1.15592e-06
1.98884e-06
3.29944e-06
5.35221e-06
8.54947e-06
1.34965e-05
2.08547e-05
3.16372e-05
4.73295e-05
6.99463e-05
0.00010207
0.00014692
0.000208292
0.000290493
0.000397958
0.000534804
0.000704335
0.000908596
0.00114809
0.0014224
0.00172857
0.00206312
0.00241382
0.00278467
0.00317666
0.0035732
0.00398093
0.00438577
0.00479007
0.00518797
0.00557784
0.00595508
0.0063182
0.00666624
0.00699915
0.00731533
0.00761532
0.00790143
0.00816948
0.008422
0.00866041
0.00888371
0.009095
0.00928867
0.0094685
0.00962322
0.0097505
0.00982542
0.00982143
0.00969225
0.00937117
0.00877445
0.00781766
0.00644599
0.00470034
0.0028474
0.00156845
0.000862182
0.000469625
0.000251892
0.000132445
6.75953e-05
3.35061e-05
1.6014e-05
7.39541e-06
3.27749e-06
1.61037e-06
9.58765e-07
6.73014e-07
5.13936e-07
4.03345e-07
3.11821e-07
2.38034e-07
1.73408e-07
1.2125e-07
8.11365e-08
5.19856e-08
3.2006e-08
1.9039e-08
1.10076e-08
6.21814e-09
3.44637e-09
1.8801e-09
1.01194e-09
5.38393e-10
2.8357e-10
1.48043e-10
7.66904e-11
3.94532e-11
2.01668e-11
1.02412e-11
5.15364e-12
2.55807e-12
1.23851e-12
5.69287e-13
2.30179e-13
5.29795e-14
7.60451e-08
2.94666e-07
6.28367e-07
1.15573e-06
1.98841e-06
3.29832e-06
5.3492e-06
8.54179e-06
1.34783e-05
2.08184e-05
3.15593e-05
4.71632e-05
6.95996e-05
0.000101441
0.000145871
0.000206671
0.000288048
0.000394389
0.000529794
0.000697603
0.000899971
0.00113759
0.00140932
0.00171331
0.00204617
0.00239484
0.00276383
0.00315444
0.00354871
0.00395462
0.00435811
0.00476155
0.00515917
0.00554936
0.00592819
0.00629252
0.00664188
0.00697623
0.00729363
0.00759468
0.00788168
0.00815024
0.00840333
0.00864265
0.00886573
0.00907628
0.00926895
0.00944712
0.00960001
0.00972444
0.00979521
0.00978462
0.00964453
0.00930615
0.00868505
0.00769387
0.00628079
0.00449998
0.00265053
0.00146279
0.000804011
0.000438468
0.000232572
0.000121938
6.21095e-05
3.06221e-05
1.45451e-05
6.6793e-06
2.99111e-06
1.50537e-06
9.22263e-07
6.58893e-07
5.06177e-07
3.96777e-07
3.06591e-07
2.3274e-07
1.68315e-07
1.16898e-07
7.77771e-08
4.96192e-08
3.04681e-08
1.81047e-08
1.04697e-08
5.92109e-09
3.28746e-09
1.79713e-09
9.6943e-10
5.1692e-10
2.72842e-10
1.42723e-10
7.40636e-11
3.81567e-11
1.95236e-11
9.91821e-12
4.99369e-12
2.48011e-12
1.20147e-12
5.52564e-13
2.23521e-13
5.14612e-14
7.59094e-08
2.9414e-07
6.27237e-07
1.1536e-06
1.98458e-06
3.29146e-06
5.33678e-06
8.51895e-06
1.34358e-05
2.07385e-05
3.14203e-05
4.69321e-05
6.92365e-05
0.000100869
0.000144979
0.000205305
0.000286014
0.000391454
0.000525714
0.000692159
0.000893018
0.0011291
0.00139942
0.00170131
0.00203144
0.00237705
0.00274236
0.00313155
0.00352496
0.00392988
0.00433261
0.00473535
0.00513272
0.00552277
0.0059023
0.00626834
0.00661914
0.00695483
0.00727339
0.00757551
0.00786341
0.00813274
0.00838629
0.00862588
0.00884882
0.0090588
0.00925085
0.00942792
0.00957927
0.00970106
0.00976744
0.00974993
0.00959852
0.0092425
0.00859404
0.00756567
0.00610895
0.00429318
0.00245609
0.00135608
0.000744798
0.000404974
0.000213978
0.000111648
5.66665e-05
2.77901e-05
1.31138e-05
5.96136e-06
2.71283e-06
1.40655e-06
8.88672e-07
6.4527e-07
4.98036e-07
3.90296e-07
3.02666e-07
2.25799e-07
1.6255e-07
1.12367e-07
7.44593e-08
4.73629e-08
2.90346e-08
1.72449e-08
9.9768e-09
5.64809e-09
3.14018e-09
1.71922e-09
9.28834e-10
4.96008e-10
2.62164e-10
1.37305e-10
7.13259e-11
3.67767e-11
1.88293e-11
9.56996e-12
4.82007e-12
2.3946e-12
1.16035e-12
5.33777e-13
2.15959e-13
4.97217e-14
7.56577e-08
2.93167e-07
6.25159e-07
1.14974e-06
1.9778e-06
3.2798e-06
5.31678e-06
8.48424e-06
1.33771e-05
2.0643e-05
3.12712e-05
4.67084e-05
6.88988e-05
0.000100355
0.000144201
0.000204144
0.000284312
0.000389002
0.000522243
0.000687331
0.000886411
0.00112011
0.00138748
0.00168706
0.00201569
0.00236016
0.00272483
0.00311283
0.0035048
0.00390855
0.00431059
0.00471274
0.00511027
0.00550055
0.0058812
0.00624797
0.00659966
0.00693627
0.00725566
0.00755846
0.00784718
0.00811714
0.00837114
0.00861108
0.00883395
0.00904327
0.00923468
0.00941023
0.00956012
0.00967966
0.00974255
0.00971927
0.00955803
0.00918529
0.00851093
0.00744681
0.00594895
0.00410421
0.00229445
0.00126672
0.00069518
0.000377549
0.000199068
0.000103514
5.22527e-05
2.54617e-05
1.1922e-05
5.39097e-06
2.48099e-06
1.32509e-06
8.60877e-07
6.33578e-07
4.912e-07
3.84518e-07
2.96887e-07
2.20273e-07
1.57651e-07
1.08372e-07
7.14618e-08
4.52822e-08
2.76864e-08
1.64198e-08
9.49441e-09
5.37589e-09
2.99078e-09
1.639e-09
8.86512e-10
4.73994e-10
2.50843e-10
1.31535e-10
6.84012e-11
3.52954e-11
1.80806e-11
9.19415e-12
4.63312e-12
2.30312e-12
1.11674e-12
5.13995e-13
2.08025e-13
4.78989e-14
7.52907e-08
2.91739e-07
6.22079e-07
1.144e-06
1.96778e-06
3.26306e-06
5.28983e-06
8.4427e-06
1.33111e-05
2.05353e-05
3.11048e-05
4.64459e-05
6.84917e-05
9.97369e-05
0.000143282
0.000202803
0.000282402
0.000386342
0.000518623
0.000682513
0.00088039
0.00111275
0.00137891
0.00167695
0.00200395
0.00234689
0.00270975
0.00309645
0.00348753
0.00389048
0.00429168
0.0046929
0.00509224
0.00548238
0.00586324
0.0062308
0.00658336
0.00692091
0.007241
0.00754436
0.0078334
0.00810385
0.00835836
0.0085989
0.00882206
0.00902989
0.00922142
0.00939571
0.00954496
0.00966322
0.00972359
0.00969538
0.00952506
0.00913701
0.00843896
0.00734238
0.00580862
0.00394457
0.00218109
0.00120206
0.000658247
0.000356462
0.000187365
9.69835e-05
4.87323e-05
2.36357e-05
1.10684e-05
4.88595e-06
2.28347e-06
1.25849e-06
8.38377e-07
6.24098e-07
4.8523e-07
3.79039e-07
2.91713e-07
2.15264e-07
1.53191e-07
1.04738e-07
6.87442e-08
4.3403e-08
2.64723e-08
1.56779e-08
9.06025e-09
5.1302e-09
2.85527e-09
1.56576e-09
8.4756e-10
4.53558e-10
2.40247e-10
1.26104e-10
6.56557e-11
3.39354e-11
1.74149e-11
8.8663e-12
4.46956e-12
2.2219e-12
1.07727e-12
4.95786e-13
2.00647e-13
4.61991e-14
7.48928e-08
2.90192e-07
6.18739e-07
1.13773e-06
1.95668e-06
3.24398e-06
5.25748e-06
8.38815e-06
1.32221e-05
2.03917e-05
3.08601e-05
4.60552e-05
6.78884e-05
9.88295e-05
0.000141951
0.0002009
0.000279762
0.00038279
0.000514008
0.000676748
0.000873254
0.00110436
0.00136962
0.00166694
0.00199254
0.00233361
0.00269555
0.00308121
0.00347114
0.00387327
0.00427562
0.00467691
0.00507675
0.00546712
0.00584822
0.00621643
0.00656957
0.00690715
0.00722803
0.00753288
0.00782077
0.00809203
0.00834709
0.00858778
0.00881127
0.00901917
0.00921086
0.00938408
0.00953303
0.00965025
0.00970826
0.00967552
0.00949684
0.00909449
0.00837423
0.00724742
0.00568132
0.00380389
0.00209631
0.00115295
0.000629641
0.000339856
0.00017813
9.18253e-05
4.58888e-05
2.2134e-05
1.03026e-05
4.52205e-06
2.14379e-06
1.2139e-06
8.23912e-07
6.18219e-07
4.81116e-07
3.74642e-07
2.86873e-07
2.10555e-07
1.4904e-07
1.01397e-07
6.62744e-08
4.17129e-08
2.53888e-08
1.50183e-08
8.67449e-09
4.9114e-09
2.73408e-09
1.49988e-09
8.12301e-10
4.34925e-10
2.30504e-10
1.21051e-10
6.30496e-11
3.25939e-11
1.67303e-11
8.52421e-12
4.30382e-12
2.1419e-12
1.03905e-12
4.7829e-13
1.93585e-13
4.45753e-14
7.45362e-08
2.88811e-07
6.15786e-07
1.13225e-06
1.94713e-06
3.22782e-06
5.23062e-06
8.34404e-06
1.31506e-05
2.0267e-05
3.06657e-05
4.57587e-05
6.74469e-05
9.81849e-05
0.000141025
0.000199598
0.000277973
0.000380399
0.00051091
0.000672991
0.000868535
0.0010989
0.00136289
0.00165852
0.00198335
0.00232388
0.00268484
0.00306929
0.00345847
0.00385931
0.00426456
0.00466493
0.00506452
0.0054548
0.00583598
0.00620466
0.00655824
0.00689607
0.00721744
0.00752285
0.00781076
0.0080821
0.00833705
0.00857785
0.00880133
0.00900925
0.00920062
0.00937329
0.00952176
0.00963793
0.009694
0.00965698
0.00947022
0.00905385
0.00831204
0.00715631
0.00556003
0.00367203
0.00202159
0.00111028
0.000605145
0.00032571
0.000170615
8.75989e-05
4.3576e-05
2.09035e-05
9.68349e-06
4.24165e-06
2.03858e-06
1.18101e-06
8.13859e-07
6.14522e-07
4.79214e-07
3.68683e-07
2.81805e-07
2.06183e-07
1.45434e-07
9.86062e-08
6.42555e-08
4.03423e-08
2.45084e-08
1.44781e-08
8.35504e-09
4.72788e-09
2.63111e-09
1.4432e-09
7.81597e-10
4.18527e-10
2.2185e-10
1.16527e-10
6.07016e-11
3.1381e-11
1.61091e-11
8.20999e-12
4.14607e-12
2.06431e-12
1.00188e-12
4.61348e-13
1.86761e-13
4.30088e-14
7.4241e-08
2.87679e-07
6.13398e-07
1.12789e-06
1.93965e-06
3.21536e-06
5.2101e-06
8.31023e-06
1.30942e-05
2.01719e-05
3.05125e-05
4.55193e-05
6.70818e-05
9.76428e-05
0.000140243
0.000198498
0.000276461
0.000378363
0.000508239
0.000669465
0.00086443
0.0010936
0.0013567
0.00165201
0.00197602
0.00231578
0.00267608
0.00305976
0.00344857
0.00384905
0.00425453
0.00465478
0.00505437
0.00544461
0.00582578
0.00619459
0.0065489
0.00688698
0.00720856
0.00751436
0.00780229
0.00807356
0.00832857
0.00856933
0.0087927
0.00900031
0.00919145
0.0093637
0.00951147
0.00962628
0.00967981
0.00963814
0.00944306
0.00901314
0.00825074
0.00706793
0.00544417
0.00354763
0.00195144
0.00107051
0.000582278
0.000312338
0.000163782
8.3791e-05
4.15128e-05
1.98243e-05
9.14346e-06
4.01264e-06
1.95524e-06
1.15468e-06
8.05041e-07
6.10396e-07
4.75928e-07
3.65133e-07
2.78172e-07
2.02737e-07
1.4244e-07
9.62103e-08
6.24792e-08
3.91126e-08
2.3706e-08
1.39797e-08
8.05748e-09
4.55579e-09
2.53409e-09
1.38964e-09
7.52555e-10
4.0301e-10
2.13661e-10
1.12249e-10
5.84801e-11
3.02315e-11
1.55192e-11
7.9095e-12
3.99516e-12
1.98989e-12
9.66172e-13
4.4507e-13
1.80219e-13
4.15095e-14
7.39451e-08
2.86532e-07
6.10943e-07
1.12335e-06
1.93181e-06
3.20236e-06
5.18922e-06
8.27781e-06
1.3046e-05
2.00958e-05
3.0395e-05
4.5339e-05
6.68001e-05
9.72116e-05
0.0001396
0.000197576
0.000275192
0.000376675
0.000506107
0.000666687
0.000860754
0.00108926
0.00135174
0.00164621
0.00196979
0.00230905
0.0026689
0.00305202
0.00344054
0.00384069
0.00424615
0.00464633
0.00504607
0.00543637
0.00581768
0.0061868
0.00654142
0.00687955
0.0072012
0.00750724
0.00779517
0.0080664
0.00832127
0.00856176
0.00878479
0.00899204
0.00918268
0.00935426
0.009501
0.00961404
0.00966484
0.00961848
0.00941538
0.00897235
0.00819098
0.00698418
0.00533824
0.00344097
0.00187985
0.00103083
0.000560254
0.000300027
0.000157439
8.00515e-05
3.95485e-05
1.88216e-05
8.64602e-06
3.81488e-06
1.88363e-06
1.13113e-06
7.96313e-07
6.05841e-07
4.72306e-07
3.62251e-07
2.75171e-07
1.99831e-07
1.39867e-07
9.41077e-08
6.08947e-08
3.80053e-08
2.29808e-08
1.35288e-08
7.78824e-09
4.40007e-09
2.44628e-09
1.34116e-09
7.26253e-10
3.88948e-10
2.06243e-10
1.08392e-10
5.65159e-11
2.92541e-11
1.50369e-11
7.66976e-12
3.8739e-12
1.92876e-12
9.36183e-13
4.31167e-13
1.74568e-13
4.02068e-14
7.36868e-08
2.85535e-07
6.08818e-07
1.11944e-06
1.92505e-06
3.19107e-06
5.17076e-06
8.24793e-06
1.29949e-05
2.00123e-05
3.02677e-05
4.51559e-05
6.65524e-05
9.68659e-05
0.000139105
0.000196841
0.000274142
0.000375251
0.000504179
0.000664348
0.000857883
0.00108587
0.0013479
0.00164186
0.00196488
0.00230365
0.00266311
0.00304575
0.00343405
0.0038339
0.00423933
0.00463947
0.00503921
0.00542961
0.00581103
0.00618026
0.00653502
0.00687315
0.00719474
0.00750067
0.00778848
0.00805959
0.00831428
0.00855443
0.00877705
0.00898377
0.00917375
0.00934442
0.00948993
0.00960095
0.00964861
0.00959707
0.00938561
0.00892977
0.00812987
0.00689998
0.00523102
0.00332804
0.0018201
0.000997159
0.000541279
0.000289381
0.000151504
7.69799e-05
3.79076e-05
1.79693e-05
8.22266e-06
3.64917e-06
1.82381e-06
1.11073e-06
7.88099e-07
6.01047e-07
4.6826e-07
3.59486e-07
2.72392e-07
1.97167e-07
1.37514e-07
9.22176e-08
5.94971e-08
3.70425e-08
2.23553e-08
1.31413e-08
7.55721e-09
4.2664e-09
2.37082e-09
1.29942e-09
7.03543e-10
3.76742e-10
1.9972e-10
1.04932e-10
5.47084e-11
2.833e-11
1.45646e-11
7.43092e-12
3.75545e-12
1.87083e-12
9.08431e-13
4.1849e-13
1.69458e-13
3.90323e-14
7.34677e-08
2.84689e-07
6.07017e-07
1.11612e-06
1.91933e-06
3.18156e-06
5.15525e-06
8.22305e-06
1.29522e-05
1.99414e-05
3.01561e-05
4.49859e-05
6.62973e-05
9.65033e-05
0.000138613
0.000196215
0.000273305
0.00037411
0.000502664
0.000662326
0.000855475
0.00108309
0.00134453
0.00163812
0.00196075
0.00229921
0.0026584
0.00304068
0.00342881
0.00382843
0.00423382
0.00463393
0.00503372
0.00542405
0.0058053
0.00617458
0.0065295
0.00686761
0.00718908
0.00749509
0.00778266
0.00805341
0.00830762
0.00854711
0.00876918
0.0089753
0.00916459
0.00933439
0.00947863
0.00958746
0.00963217
0.00957583
0.00935649
0.00888845
0.0080713
0.0068197
0.00513125
0.00322564
0.00176661
0.0009674
0.000524636
0.000280091
0.00014633
7.43057e-05
3.64902e-05
1.72443e-05
7.86466e-06
3.51092e-06
1.77324e-06
1.09279e-06
7.80146e-07
5.96108e-07
4.64143e-07
3.56671e-07
2.69594e-07
1.94594e-07
1.35319e-07
9.04866e-08
5.823e-08
3.61752e-08
2.17948e-08
1.27956e-08
7.35173e-09
4.14789e-09
2.30414e-09
1.26269e-09
6.83711e-10
3.66271e-10
1.94361e-10
1.02235e-10
5.33268e-11
2.76129e-11
1.41958e-11
7.24228e-12
3.65926e-12
1.82267e-12
8.84978e-13
4.07662e-13
1.65065e-13
3.80198e-14
7.32852e-08
2.83986e-07
6.05522e-07
1.11338e-06
1.91461e-06
3.17373e-06
5.14258e-06
8.2029e-06
1.2917e-05
1.98828e-05
3.00642e-05
4.48468e-05
6.60916e-05
9.62052e-05
0.000138189
0.000195618
0.000272527
0.000373129
0.000501424
0.00066077
0.000853552
0.00108076
0.00134194
0.00163518
0.00195753
0.0022957
0.00265467
0.00303667
0.00342462
0.00382404
0.00422936
0.00462939
0.00502908
0.00541936
0.00580067
0.00616997
0.00652488
0.00686285
0.00718418
0.00748991
0.00777715
0.00804753
0.00830139
0.00854037
0.00876189
0.00896742
0.00915617
0.00932498
0.00946778
0.00957456
0.00961641
0.00955544
0.00932892
0.00885001
0.00801753
0.00674763
0.00504256
0.0031353
0.0017192
0.00094119
0.000510108
0.000271874
0.000141765
7.18674e-05
3.52074e-05
1.65913e-05
7.54202e-06
3.38684e-06
1.72778e-06
1.07555e-06
7.72057e-07
5.90879e-07
4.59842e-07
3.53749e-07
2.66813e-07
1.92063e-07
1.33202e-07
8.88451e-08
5.70459e-08
3.5375e-08
2.12831e-08
1.24828e-08
7.1672e-09
4.04208e-09
2.24484e-09
1.23007e-09
6.6605e-10
3.56834e-10
1.89366e-10
9.96418e-11
5.20261e-11
2.69532e-11
1.38593e-11
7.06926e-12
3.57204e-12
1.77938e-12
8.64029e-13
3.98034e-13
1.61171e-13
3.71232e-14
7.31353e-08
2.83407e-07
6.04293e-07
1.11112e-06
1.91074e-06
3.16731e-06
5.13222e-06
8.18649e-06
1.28883e-05
1.98351e-05
2.99895e-05
4.47342e-05
6.59261e-05
9.59664e-05
0.000137851
0.000195151
0.0002719
0.00037227
0.000500346
0.000659509
0.000852049
0.00107899
0.00133986
0.00163283
0.00195494
0.00229289
0.00265165
0.00303337
0.00342127
0.00382058
0.00422587
0.00462589
0.00502558
0.00541577
0.00579702
0.00616622
0.00652107
0.00685884
0.00717986
0.00748535
0.00777221
0.00804216
0.00829539
0.0085336
0.00875428
0.00895871
0.00914976
0.00931695
0.00945815
0.0095628
0.00960187
0.0095368
0.00930399
0.0088157
0.00797068
0.00668543
0.00496701
0.00306029
0.00167958
0.000919738
0.000499387
0.000263265
0.000137225
6.95053e-05
3.40069e-05
1.59974e-05
7.2572e-06
3.27915e-06
1.68729e-06
1.05949e-06
7.63991e-07
5.85647e-07
4.55651e-07
3.50856e-07
2.63849e-07
1.89388e-07
1.31034e-07
8.72202e-08
5.59093e-08
3.46265e-08
2.08143e-08
1.22009e-08
7.00307e-09
3.94891e-09
2.19301e-09
1.20172e-09
6.50734e-10
3.4864e-10
1.85004e-10
9.73222e-11
5.07923e-11
2.63134e-11
1.35343e-11
6.90799e-12
3.49232e-12
1.74034e-12
8.45315e-13
3.8949e-13
1.5773e-13
3.63325e-14
7.30143e-08
2.8294e-07
6.03299e-07
1.10929e-06
1.90759e-06
3.16209e-06
5.12371e-06
8.17287e-06
1.28651e-05
1.97968e-05
2.99297e-05
4.46444e-05
6.57944e-05
9.5777e-05
0.000137583
0.000194782
0.000271389
0.000371615
0.000499496
0.000658441
0.000850799
0.00107753
0.00133819
0.00163096
0.00195289
0.0022907
0.00264935
0.00303089
0.00341867
0.00381781
0.00422307
0.00462301
0.00502268
0.00541288
0.00579407
0.00616316
0.00651787
0.00685545
0.00717628
0.00748154
0.00776808
0.00803762
0.00829042
0.00852808
0.00874824
0.00895213
0.00914262
0.00930908
0.00944923
0.00955226
0.00958911
0.00952066
0.00928265
0.00878656
0.00793077
0.006633
0.00490374
0.0029973
0.00164623
0.000901234
0.000489058
0.000257643
0.000134102
6.78186e-05
3.31221e-05
1.55503e-05
7.03982e-06
3.19664e-06
1.65603e-06
1.04668e-06
7.57415e-07
5.81488e-07
4.5275e-07
3.49172e-07
2.59327e-07
1.86252e-07
1.2883e-07
8.57066e-08
5.49038e-08
3.39841e-08
2.04191e-08
1.19655e-08
6.86667e-09
3.87163e-09
2.15004e-09
1.17821e-09
6.38055e-10
3.41882e-10
1.81436e-10
9.54538e-11
4.98214e-11
2.5813e-11
1.32786e-11
6.77861e-12
3.42755e-12
1.70837e-12
8.29903e-13
3.82428e-13
1.54879e-13
3.56755e-14
7.29208e-08
2.8258e-07
6.02533e-07
1.10789e-06
1.90517e-06
3.15808e-06
5.11724e-06
8.1626e-06
1.28472e-05
1.97672e-05
2.98835e-05
4.45752e-05
6.5693e-05
9.56314e-05
0.000137379
0.000194501
0.000271007
0.000371114
0.00049885
0.000657632
0.000849812
0.00107639
0.00133691
0.00162954
0.00195134
0.00228903
0.00264757
0.003029
0.00341673
0.00381579
0.00422101
0.00462091
0.00502054
0.0054107
0.0057918
0.00616079
0.00651543
0.00685289
0.00717352
0.00747858
0.00776485
0.00803407
0.00828653
0.0085237
0.0087434
0.0089468
0.00913656
0.00930236
0.00944162
0.00954333
0.00957839
0.0095072
0.00926496
0.00876273
0.00789839
0.00659045
0.00485232
0.00294596
0.00161892
0.00088608
0.000480575
0.000253163
0.000131666
6.65159e-05
3.24468e-05
1.52126e-05
6.87853e-06
3.13226e-06
1.63152e-06
1.03648e-06
7.51997e-07
5.7783e-07
4.49849e-07
3.46646e-07
2.56982e-07
1.84277e-07
1.27282e-07
8.45675e-08
5.41194e-08
3.34742e-08
2.0103e-08
1.17769e-08
6.75746e-09
3.8099e-09
2.11584e-09
1.15956e-09
6.28021e-10
3.36544e-10
1.78623e-10
9.39858e-11
4.90625e-11
2.5424e-11
1.30806e-11
6.67861e-12
3.37745e-12
1.68359e-12
8.17937e-13
3.76936e-13
1.52659e-13
3.51648e-14
7.28532e-08
2.82319e-07
6.01979e-07
1.10687e-06
1.90343e-06
3.15519e-06
5.11256e-06
8.15519e-06
1.28343e-05
1.97455e-05
2.98497e-05
4.45243e-05
6.56181e-05
9.55232e-05
0.000137225
0.000194285
0.000270719
0.000370734
0.000498377
0.000657051
0.000849109
0.00107556
0.00133596
0.00162849
0.00195022
0.00228783
0.00264632
0.00302766
0.00341535
0.00381435
0.00421955
0.00461942
0.00501902
0.00540913
0.00579017
0.00615909
0.00651365
0.00685098
0.00717147
0.00747637
0.00776243
0.0080314
0.00828356
0.00852038
0.00873973
0.00894272
0.00913188
0.00929713
0.0094357
0.0095364
0.00957011
0.00949687
0.00925148
0.00874458
0.00787393
0.00655844
0.00481373
0.00290794
0.00159857
0.000874774
0.000474261
0.000249839
0.00012986
6.55577e-05
3.19507e-05
1.49654e-05
6.76267e-06
3.08377e-06
1.61307e-06
1.02872e-06
7.47805e-07
5.74951e-07
4.47559e-07
3.44689e-07
2.55294e-07
1.82899e-07
1.26212e-07
8.37814e-08
5.35744e-08
3.31163e-08
1.98789e-08
1.1642e-08
6.67875e-09
3.76514e-09
2.09091e-09
1.14592e-09
6.20682e-10
3.32655e-10
1.76592e-10
9.29334e-11
4.85198e-11
2.51451e-11
1.29381e-11
6.60626e-12
3.34108e-12
1.66556e-12
8.09218e-13
3.7293e-13
1.51039e-13
3.47918e-14
7.281e-08
2.82153e-07
6.01626e-07
1.10622e-06
1.90232e-06
3.15335e-06
5.1096e-06
8.15049e-06
1.2826e-05
1.97317e-05
2.9828e-05
4.44916e-05
6.55702e-05
9.54544e-05
0.000137128
0.000194151
0.000270539
0.000370499
0.000498079
0.000656683
0.000848666
0.00107504
0.00133536
0.00162783
0.0019495
0.00228706
0.00264551
0.00302679
0.00341444
0.00381341
0.00421859
0.00461845
0.00501803
0.0054081
0.00578911
0.00615797
0.00651249
0.00684973
0.00717011
0.00747487
0.00776076
0.00802956
0.00828152
0.0085181
0.00873721
0.00893994
0.0091287
0.00929358
0.00943169
0.00953172
0.00956455
0.00948997
0.00924255
0.00873261
0.00785782
0.00653743
0.00478858
0.00288333
0.00158498
0.000867224
0.000470058
0.000247631
0.000128667
6.49258e-05
3.16254e-05
1.48042e-05
6.68706e-06
3.05203e-06
1.60092e-06
1.02354e-06
7.44981e-07
5.73016e-07
4.46026e-07
3.43397e-07
2.54207e-07
1.82008e-07
1.25527e-07
8.32824e-08
5.3229e-08
3.28886e-08
1.97355e-08
1.15553e-08
6.62802e-09
3.73621e-09
2.07476e-09
1.13707e-09
6.15899e-10
3.301e-10
1.75241e-10
9.22267e-11
4.81544e-11
2.49582e-11
1.28432e-11
6.55843e-12
3.31716e-12
1.65374e-12
8.03512e-13
3.70311e-13
1.49981e-13
3.45482e-14
7.27894e-08
2.82073e-07
6.01457e-07
1.10591e-06
1.90179e-06
3.15248e-06
5.10818e-06
8.14825e-06
1.2822e-05
1.97251e-05
2.98176e-05
4.4476e-05
6.55473e-05
9.54214e-05
0.000137081
0.000194087
0.000270453
0.000370386
0.000497933
0.0006565
0.000848445
0.00107478
0.00133507
0.0016275
0.00194914
0.00228668
0.00264511
0.00302636
0.00341401
0.00381296
0.00421813
0.00461798
0.00501755
0.00540761
0.00578859
0.00615743
0.00651192
0.00684911
0.00716943
0.00747413
0.00775995
0.00802866
0.00828053
0.00851697
0.00873596
0.00893855
0.00912711
0.00929181
0.0094297
0.0095294
0.00956179
0.00948656
0.00923812
0.0087267
0.00784988
0.00652708
0.0047762
0.00287122
0.00157828
0.000863498
0.000467978
0.000246534
0.000128074
6.46118e-05
3.14642e-05
1.47245e-05
6.64977e-06
3.03634e-06
1.5949e-06
1.02095e-06
7.43566e-07
5.72048e-07
4.45266e-07
3.42765e-07
2.53682e-07
1.81584e-07
1.252e-07
8.30457e-08
5.3066e-08
3.27812e-08
1.9668e-08
1.15144e-08
6.60409e-09
3.72257e-09
2.06714e-09
1.13288e-09
6.13633e-10
3.28889e-10
1.746e-10
9.18911e-11
4.79804e-11
2.48687e-11
1.27976e-11
6.53534e-12
3.30558e-12
1.648e-12
8.0074e-13
3.69037e-13
1.49465e-13
3.44295e-14
7.27903e-08
2.82077e-07
6.01464e-07
1.10593e-06
1.90181e-06
3.15251e-06
5.10823e-06
8.14832e-06
1.28221e-05
1.97252e-05
2.98178e-05
4.44762e-05
6.55475e-05
9.54217e-05
0.000137082
0.000194088
0.000270454
0.000370387
0.000497934
0.000656501
0.000848446
0.00107478
0.00133507
0.0016275
0.00194914
0.00228669
0.00264511
0.00302636
0.00341401
0.00381296
0.00421813
0.00461799
0.00501756
0.00540762
0.00578861
0.00615745
0.00651193
0.00684913
0.00716945
0.00747415
0.00775997
0.00802868
0.00828055
0.008517
0.00873599
0.00893858
0.00912715
0.00929186
0.00942975
0.00952945
0.00956185
0.00948662
0.00923817
0.00872674
0.00784993
0.00652712
0.00477622
0.00287123
0.00157829
0.000863502
0.000467981
0.000246534
0.000128074
6.4612e-05
3.14643e-05
1.47246e-05
6.6498e-06
3.03635e-06
1.5949e-06
1.02094e-06
7.43559e-07
5.72042e-07
4.45261e-07
3.42761e-07
2.5368e-07
1.81583e-07
1.25199e-07
8.30453e-08
5.30658e-08
3.27811e-08
1.96679e-08
1.15144e-08
6.60411e-09
3.72258e-09
2.06715e-09
1.13289e-09
6.13639e-10
3.28893e-10
1.74602e-10
9.18924e-11
4.79811e-11
2.48691e-11
1.27978e-11
6.53548e-12
3.30565e-12
1.64805e-12
8.00762e-13
3.69049e-13
1.4947e-13
3.44306e-14
7.28127e-08
2.82163e-07
6.01647e-07
1.10626e-06
1.90238e-06
3.15345e-06
5.10974e-06
8.1507e-06
1.28263e-05
1.9732e-05
2.98284e-05
4.44922e-05
6.55709e-05
9.54551e-05
0.000137129
0.000194152
0.00027054
0.0003705
0.00049808
0.000656684
0.000848668
0.00107504
0.00133536
0.00162783
0.0019495
0.00228707
0.00264552
0.0030268
0.00341446
0.00381343
0.00421861
0.00461848
0.00501806
0.00540814
0.00578915
0.00615801
0.00651253
0.00684977
0.00717016
0.00747493
0.00776083
0.00802963
0.0082816
0.00851818
0.0087373
0.00894004
0.00912882
0.00929371
0.00943184
0.00953188
0.00956472
0.00949015
0.00924271
0.00873277
0.00785795
0.00653751
0.00478862
0.00288334
0.001585
0.000867232
0.000470063
0.000247633
0.000128668
6.49267e-05
3.1626e-05
1.48045e-05
6.68714e-06
3.05206e-06
1.60092e-06
1.02352e-06
7.44961e-07
5.72999e-07
4.46012e-07
3.43387e-07
2.542e-07
1.82004e-07
1.25525e-07
8.32811e-08
5.32284e-08
3.28884e-08
1.97355e-08
1.15553e-08
6.62808e-09
3.73627e-09
2.0748e-09
1.1371e-09
6.15916e-10
3.30111e-10
1.75247e-10
9.22305e-11
4.81566e-11
2.49594e-11
1.28438e-11
6.5588e-12
3.31736e-12
1.65385e-12
8.03574e-13
3.70342e-13
1.49994e-13
3.45514e-14
7.28573e-08
2.82335e-07
6.02011e-07
1.10693e-06
1.90352e-06
3.15533e-06
5.11277e-06
8.15549e-06
1.28347e-05
1.9746e-05
2.98503e-05
4.4525e-05
6.5619e-05
9.55244e-05
0.000137227
0.000194287
0.000270721
0.000370737
0.000498379
0.000657054
0.000849112
0.00107556
0.00133596
0.0016285
0.00195023
0.00228785
0.00264634
0.00302768
0.00341537
0.00381439
0.00421959
0.00461947
0.00501908
0.00540919
0.00579025
0.00615917
0.00651374
0.00685108
0.00717157
0.00747647
0.00776253
0.00803152
0.00828369
0.00852052
0.00873988
0.0089429
0.0091321
0.00929738
0.00943596
0.00953667
0.00957039
0.00949716
0.00925176
0.00874483
0.00787413
0.00655856
0.00481377
0.00290794
0.00159857
0.00087478
0.000474267
0.000249843
0.000129863
6.55597e-05
3.19519e-05
1.4966e-05
6.76301e-06
3.0839e-06
1.6131e-06
1.0287e-06
7.47777e-07
5.74924e-07
4.47537e-07
3.44673e-07
2.55284e-07
1.82893e-07
1.26209e-07
8.37799e-08
5.35739e-08
3.31162e-08
1.9879e-08
1.16421e-08
6.6789e-09
3.76525e-09
2.09099e-09
1.14597e-09
6.20713e-10
3.32674e-10
1.76603e-10
9.29402e-11
4.85237e-11
2.51474e-11
1.29393e-11
6.60695e-12
3.34146e-12
1.66576e-12
8.09322e-13
3.72981e-13
1.51061e-13
3.47969e-14
7.29262e-08
2.826e-07
6.02575e-07
1.10796e-06
1.90529e-06
3.15826e-06
5.11751e-06
8.163e-06
1.28478e-05
1.97678e-05
2.98844e-05
4.45763e-05
6.56944e-05
9.56332e-05
0.000137381
0.000194504
0.00027101
0.000371117
0.000498854
0.000657637
0.000849818
0.0010764
0.00133692
0.00162955
0.00195136
0.00228906
0.0026476
0.00302904
0.00341677
0.00381585
0.00422107
0.00462099
0.00502063
0.0054108
0.00579192
0.00616094
0.00651558
0.00685305
0.0071737
0.00747876
0.00776505
0.00803428
0.00828674
0.00852395
0.00874367
0.00894709
0.00913687
0.00930268
0.00944197
0.00954369
0.00957876
0.00950759
0.00926534
0.0087631
0.00789875
0.00659066
0.0048524
0.00294598
0.00161893
0.000886086
0.00048058
0.000253166
0.000131668
6.65171e-05
3.24477e-05
1.52131e-05
6.87879e-06
3.13234e-06
1.6315e-06
1.03644e-06
7.51954e-07
5.7779e-07
4.49818e-07
3.46623e-07
2.56967e-07
1.84268e-07
1.27277e-07
8.45653e-08
5.41187e-08
3.34741e-08
2.01031e-08
1.17771e-08
6.75766e-09
3.81006e-09
2.11594e-09
1.15962e-09
6.28062e-10
3.36568e-10
1.78637e-10
9.39929e-11
4.90663e-11
2.54261e-11
1.30818e-11
6.67925e-12
3.3778e-12
1.68378e-12
8.18038e-13
3.76986e-13
1.52681e-13
3.51698e-14
7.30204e-08
2.82964e-07
6.03347e-07
1.10938e-06
1.90773e-06
3.1623e-06
5.12403e-06
8.17334e-06
1.28657e-05
1.97976e-05
2.99307e-05
4.46458e-05
6.57961e-05
9.57791e-05
0.000137586
0.000194785
0.000271392
0.000371619
0.000499502
0.000658448
0.000850808
0.00107754
0.0013382
0.00163098
0.00195292
0.00229073
0.00264939
0.00303094
0.00341874
0.00381791
0.00422316
0.00462311
0.00502279
0.005413
0.0057942
0.0061633
0.00651804
0.00685565
0.00717651
0.00748179
0.00776836
0.00803792
0.00829075
0.00852843
0.0087486
0.00895251
0.00914301
0.00930949
0.00944965
0.00955268
0.00958954
0.00952109
0.00928305
0.00878691
0.00793107
0.00663318
0.0049038
0.00299731
0.00164624
0.00090124
0.000489063
0.000257647
0.000134104
6.78204e-05
3.31233e-05
1.55511e-05
7.04032e-06
3.19675e-06
1.65602e-06
1.04663e-06
7.57362e-07
5.81445e-07
4.52715e-07
3.49146e-07
2.59309e-07
1.86241e-07
1.28824e-07
8.57036e-08
5.49026e-08
3.39838e-08
2.04192e-08
1.19657e-08
6.86689e-09
3.8718e-09
2.15016e-09
1.17829e-09
6.38102e-10
3.41909e-10
1.81451e-10
9.54611e-11
4.98249e-11
2.58146e-11
1.32793e-11
6.77899e-12
3.42775e-12
1.70847e-12
8.29963e-13
3.82459e-13
1.54892e-13
3.56788e-14
7.31419e-08
2.83432e-07
6.04344e-07
1.11121e-06
1.91088e-06
3.16754e-06
5.13256e-06
8.18698e-06
1.2889e-05
1.9836e-05
2.99906e-05
4.47356e-05
6.59279e-05
9.59688e-05
0.000137854
0.000195155
0.000271904
0.000372275
0.000500352
0.000659517
0.00085206
0.001079
0.00133988
0.00163285
0.00195497
0.00229292
0.00265169
0.00303342
0.00342132
0.00382063
0.00422595
0.00462599
0.0050257
0.00541592
0.00579719
0.00616641
0.00652128
0.00685908
0.00718013
0.00748564
0.00777253
0.00804251
0.00829577
0.00853401
0.0087547
0.00895914
0.00915021
0.00931739
0.0094586
0.00956326
0.00960232
0.00953723
0.00930436