/*--------------------------------*- C++ -*----------------------------------*\
  =========                 |
  \\      /  F ield         | OpenFOAM: The Open Source CFD Toolbox
   \\    /   O peration     | Website:  https://openfoam.org
    \\  /    A nd           | Version:  10
     \\/     M anipulation  |
\*---------------------------------------------------------------------------*/
FoamFile
{
    format      ascii;
    class       volScalarField;
    location    "1";
    object      C2H5;
}
// * * * * * * * * * * * * * * * * * * * * * * * * * * * * * * * * * * * * * //

dimensions      [0 0 0 0 0 0 0];

internalField   nonuniform List<scalar> 
4000
(
3.03575e-13
1.17623e-12
2.50776e-12
4.61101e-12
7.93086e-12
1.31538e-11
2.13368e-11
3.40941e-11
5.38673e-11
8.32999e-11
1.26562e-10
1.89765e-10
2.81257e-10
4.1202e-10
5.96053e-10
8.50563e-10
1.19557e-09
1.65331e-09
2.24761e-09
3.0038e-09
3.94991e-09
5.11987e-09
6.55905e-09
8.34109e-09
1.05438e-08
1.32113e-08
1.64811e-08
2.04397e-08
2.48717e-08
2.96088e-08
3.41184e-08
3.7842e-08
4.00704e-08
4.0257e-08
3.83439e-08
3.49794e-08
3.1334e-08
2.85127e-08
2.72344e-08
2.79945e-08
3.15197e-08
3.88945e-08
5.21306e-08
7.45616e-08
1.11206e-07
1.70185e-07
2.5959e-07
3.93207e-07
5.75947e-07
8.20244e-07
1.10545e-06
1.41033e-06
1.69072e-06
1.88592e-06
1.93241e-06
1.78469e-06
1.4415e-06
9.76771e-07
5.55569e-07
3.05736e-07
1.68528e-07
9.21403e-08
4.97044e-08
2.63225e-08
1.35095e-08
6.75626e-09
3.25937e-09
1.51057e-09
6.50139e-10
2.75353e-10
1.15481e-10
4.62559e-11
1.73072e-11
6.06857e-12
2.02405e-12
6.73001e-13
2.26887e-13
8.42232e-14
3.42107e-14
1.42999e-14
5.78203e-15
2.19054e-15
7.71962e-16
2.54704e-16
7.95768e-17
2.38071e-17
6.88194e-18
1.93369e-18
5.32714e-19
1.44372e-19
3.85827e-20
1.01847e-20
2.65761e-21
6.85169e-22
1.74062e-22
4.32486e-23
1.03297e-23
2.27983e-24
4.23455e-25
4.26712e-26
3.03611e-13
1.17641e-12
2.50838e-12
4.6131e-12
7.9366e-12
1.31668e-11
2.13622e-11
3.41368e-11
5.39273e-11
8.33904e-11
1.2665e-10
1.89762e-10
2.80976e-10
4.11082e-10
5.93758e-10
8.45692e-10
1.18597e-09
1.63661e-09
2.22133e-09
2.96551e-09
3.89743e-09
5.05189e-09
6.47587e-09
8.22386e-09
1.03914e-08
1.30181e-08
1.62437e-08
2.01742e-08
2.45878e-08
2.9346e-08
3.39163e-08
3.77388e-08
4.00901e-08
4.04079e-08
3.85953e-08
3.52723e-08
3.16092e-08
2.87365e-08
2.74037e-08
2.81182e-08
3.16139e-08
3.89806e-08
5.2245e-08
7.47952e-08
1.11664e-07
1.71066e-07
2.61245e-07
3.96207e-07
5.80856e-07
8.27772e-07
1.11528e-06
1.42238e-06
1.70355e-06
1.89676e-06
1.93792e-06
1.78175e-06
1.42924e-06
9.59479e-07
5.42358e-07
2.9875e-07
1.64591e-07
8.99001e-08
4.84201e-08
2.55834e-08
1.31019e-08
6.53049e-09
3.13561e-09
1.44728e-09
6.19638e-10
2.61944e-10
1.09366e-10
4.35473e-11
1.61667e-11
5.62715e-12
1.86072e-12
6.13219e-13
2.07118e-13
7.73965e-14
3.15848e-14
1.31812e-14
5.30832e-15
2.00567e-15
7.0727e-16
2.34339e-16
7.37267e-17
2.22538e-17
6.50154e-18
1.85278e-18
5.15519e-19
1.40633e-19
3.77375e-20
9.98429e-21
2.60743e-21
6.71578e-22
1.70453e-22
4.23125e-23
1.00949e-23
2.22634e-24
4.13378e-25
4.1646e-26
3.04178e-13
1.17871e-12
2.5138e-12
4.62416e-12
7.95745e-12
1.32036e-11
2.1423e-11
3.42293e-11
5.4053e-11
8.35562e-11
1.26822e-10
1.89854e-10
2.8084e-10
4.10365e-10
5.91825e-10
8.41397e-10
1.17829e-09
1.62387e-09
2.20112e-09
2.9346e-09
3.85174e-09
4.98596e-09
6.38563e-09
8.11184e-09
1.02508e-08
1.28457e-08
1.60427e-08
1.99383e-08
2.43355e-08
2.91127e-08
3.37238e-08
3.76375e-08
4.01304e-08
4.06176e-08
3.89444e-08
3.56868e-08
3.20072e-08
2.9069e-08
2.76637e-08
2.8318e-08
3.17782e-08
3.91441e-08
5.24688e-08
7.52064e-08
1.1243e-07
1.72503e-07
2.63956e-07
4.01015e-07
5.88867e-07
8.399e-07
1.13127e-06
1.44226e-06
1.72442e-06
1.91411e-06
1.9462e-06
1.77609e-06
1.40875e-06
9.31091e-07
5.2161e-07
2.87701e-07
1.58339e-07
8.63394e-08
4.63539e-08
2.43939e-08
1.24586e-08
6.17758e-09
2.94892e-09
1.35122e-09
5.75173e-10
2.4251e-10
1.00966e-10
3.97071e-11
1.46009e-11
5.07068e-12
1.62403e-12
5.40155e-13
1.84857e-13
7.01928e-14
2.89482e-14
1.21135e-14
4.8747e-15
1.84045e-15
6.49497e-16
2.15717e-16
6.81118e-17
2.06424e-17
6.05205e-18
1.72692e-18
4.81788e-19
1.31879e-19
3.55151e-20
9.4291e-21
2.47159e-21
6.40048e-22
1.63016e-22
4.05446e-23
9.68243e-24
2.13581e-24
3.96498e-25
3.99356e-26
3.04139e-13
1.17856e-12
2.51348e-12
4.6235e-12
7.95588e-12
1.31994e-11
2.14112e-11
3.41988e-11
5.39795e-11
8.34084e-11
1.26503e-10
1.8917e-10
2.7941e-10
4.07762e-10
5.87464e-10
8.34623e-10
1.16796e-09
1.60855e-09
2.17913e-09
2.90417e-09
3.8111e-09
4.93359e-09
6.31538e-09
8.02201e-09
1.01395e-08
1.27057e-08
1.58712e-08
1.97405e-08
2.41127e-08
2.88915e-08
3.3543e-08
3.75478e-08
4.01821e-08
4.08391e-08
3.93099e-08
3.61291e-08
3.24404e-08
2.94409e-08
2.79665e-08
2.85677e-08
3.20077e-08
3.94031e-08
5.2835e-08
7.58406e-08
1.13585e-07
1.74584e-07
2.67708e-07
4.07462e-07
5.99028e-07
8.54911e-07
1.15116e-06
1.46589e-06
1.7488e-06
1.93391e-06
1.95429e-06
1.76697e-06
1.38175e-06
8.96111e-07
4.97961e-07
2.74949e-07
1.51176e-07
8.24548e-08
4.37408e-08
2.29362e-08
1.16846e-08
5.75892e-09
2.72924e-09
1.23995e-09
5.27747e-10
2.22006e-10
9.15194e-11
3.56219e-11
1.29715e-11
4.44056e-12
1.42669e-12
4.76427e-13
1.64545e-13
6.31964e-14
2.6206e-14
1.09451e-14
4.38279e-15
1.64738e-15
5.80052e-16
1.92689e-16
6.09748e-17
1.85456e-17
5.46119e-18
1.5657e-18
4.38879e-19
1.20672e-19
3.2628e-20
8.69193e-21
2.28387e-21
5.91854e-22
1.5089e-22
3.75746e-23
8.98526e-24
1.98463e-24
3.68843e-25
3.71707e-26
3.03616e-13
1.17654e-12
2.50913e-12
4.61533e-12
7.94114e-12
1.31729e-11
2.13632e-11
3.41099e-11
5.38133e-11
8.30942e-11
1.25953e-10
1.88253e-10
2.77963e-10
4.05467e-10
5.83854e-10
8.29037e-10
1.15953e-09
1.59617e-09
2.16152e-09
2.87993e-09
3.77882e-09
4.89185e-09
6.26281e-09
7.95181e-09
1.00433e-08
1.25758e-08
1.56983e-08
1.95428e-08
2.39041e-08
2.86915e-08
3.33859e-08
3.74759e-08
4.02424e-08
4.10599e-08
3.96773e-08
3.6563e-08
3.28668e-08
2.98144e-08
2.82817e-08
2.88433e-08
3.22837e-08
3.97377e-08
5.33296e-08
7.66908e-08
1.15075e-07
1.77166e-07
2.72146e-07
4.14764e-07
6.10353e-07
8.71528e-07
1.17325e-06
1.49199e-06
1.77509e-06
1.95391e-06
1.96077e-06
1.75406e-06
1.34979e-06
8.57721e-07
4.74231e-07
2.61583e-07
1.43547e-07
7.80049e-08
4.11907e-08
2.14784e-08
1.08911e-08
5.33372e-09
2.50765e-09
1.12392e-09
4.79567e-10
2.01663e-10
8.25693e-11
3.17622e-11
1.13636e-11
3.84507e-12
1.26686e-12
4.09491e-13
1.43834e-13
5.62334e-14
2.35394e-14
9.84323e-15
3.93301e-15
1.47516e-15
5.19064e-16
1.72599e-16
5.47417e-17
1.67011e-17
4.93504e-18
1.41986e-18
3.99353e-19
1.10148e-19
2.98646e-20
7.97415e-21
2.09912e-21
5.44733e-22
1.39023e-22
3.46475e-23
8.2906e-24
1.83211e-24
3.40614e-25
3.43278e-26
3.02645e-13
1.17278e-12
2.50111e-12
4.60044e-12
7.91497e-12
1.31279e-11
2.12859e-11
3.39756e-11
5.35856e-11
8.2723e-11
1.25372e-10
1.87378e-10
2.76634e-10
4.03432e-10
5.80752e-10
8.24361e-10
1.15259e-09
1.58599e-09
2.14677e-09
2.85874e-09
3.74856e-09
4.84836e-09
6.20118e-09
7.87201e-09
9.94589e-09
1.24593e-08
1.55639e-08
1.93881e-08
2.37351e-08
2.85283e-08
3.32607e-08
3.7424e-08
4.03051e-08
4.12567e-08
3.99916e-08
3.69472e-08
3.32541e-08
3.01647e-08
2.8592e-08
2.91365e-08
3.26001e-08
4.01495e-08
5.39586e-08
7.77632e-08
1.16937e-07
1.80333e-07
2.77606e-07
4.23124e-07
6.23561e-07
8.90839e-07
1.19827e-06
1.52051e-06
1.80234e-06
1.97326e-06
1.96469e-06
1.73726e-06
1.3141e-06
8.18043e-07
4.51184e-07
2.48604e-07
1.36198e-07
7.38564e-08
3.88885e-08
2.01963e-08
1.01816e-08
4.95197e-09
2.30772e-09
1.02435e-09
4.34895e-10
1.82319e-10
7.39472e-11
2.80517e-11
9.94925e-12
3.34322e-12
1.09518e-12
3.56772e-13
1.27376e-13
5.05341e-14
2.12804e-14
8.88808e-15
3.53733e-15
1.32178e-15
4.6405e-16
1.54227e-16
4.8961e-17
1.49671e-17
4.43435e-18
1.27962e-18
3.61023e-19
9.98778e-20
2.71554e-20
7.26654e-21
1.916e-21
4.97956e-22
1.2726e-22
3.1761e-23
7.61049e-24
1.68374e-24
3.13247e-25
3.15748e-26
3.01232e-13
1.16729e-12
2.48926e-12
4.57833e-12
7.87643e-12
1.30635e-11
2.11821e-11
3.38155e-11
5.3331e-11
8.23065e-11
1.24727e-10
1.86356e-10
2.75044e-10
4.01009e-10
5.77126e-10
8.19033e-10
1.14492e-09
1.57516e-09
2.13175e-09
2.83823e-09
3.72196e-09
4.81416e-09
6.15854e-09
7.81702e-09
9.87495e-09
1.23697e-08
1.54515e-08
1.92578e-08
2.35971e-08
2.83981e-08
3.31628e-08
3.7386e-08
4.03775e-08
4.14393e-08
4.02761e-08
3.72886e-08
3.35982e-08
3.04787e-08
2.88803e-08
2.94242e-08
3.29331e-08
4.06064e-08
5.4675e-08
7.89911e-08
1.19105e-07
1.83557e-07
2.83247e-07
4.31511e-07
6.36677e-07
9.09684e-07
1.22232e-06
1.54762e-06
1.82792e-06
1.9903e-06
1.96571e-06
1.71756e-06
1.27674e-06
7.79333e-07
4.29549e-07
2.36432e-07
1.29316e-07
6.99518e-08
3.67307e-08
1.89937e-08
9.53309e-09
4.61486e-09
2.14939e-09
9.26903e-10
3.92611e-10
1.6447e-10
6.62218e-11
2.48427e-11
8.72353e-12
2.89514e-12
9.52561e-13
3.13636e-13
1.13861e-13
4.58073e-14
1.93697e-14
8.0744e-15
3.20088e-15
1.19196e-15
4.17654e-16
1.38747e-16
4.40807e-17
1.34965e-17
4.00687e-18
1.15891e-18
3.2775e-19
9.08955e-20
2.4779e-20
6.65351e-21
1.76108e-21
4.59088e-22
1.17515e-22
2.93489e-23
7.0333e-24
1.55582e-24
2.89407e-25
2.91692e-26
2.99704e-13
1.16135e-12
2.47644e-12
4.55427e-12
7.83384e-12
1.29903e-11
2.10579e-11
3.3606e-11
5.29889e-11
8.1753e-11
1.23782e-10
1.84844e-10
2.72704e-10
3.97479e-10
5.71926e-10
8.11561e-10
1.13448e-09
1.56096e-09
2.11301e-09
2.81429e-09
3.69135e-09
4.77648e-09
6.11396e-09
7.76451e-09
9.80845e-09
1.22837e-08
1.53504e-08
1.91415e-08
2.34727e-08
2.82817e-08
3.30912e-08
3.73725e-08
4.0449e-08
4.16052e-08
4.05277e-08
3.75888e-08
3.39049e-08
3.07799e-08
2.91651e-08
2.97141e-08
3.32566e-08
4.10621e-08
5.53834e-08
8.02196e-08
1.21178e-07
1.87043e-07
2.88978e-07
4.39748e-07
6.49307e-07
9.27642e-07
1.24529e-06
1.57329e-06
1.85155e-06
2.00508e-06
1.96465e-06
1.69668e-06
1.23999e-06
7.43315e-07
4.09536e-07
2.25197e-07
1.22953e-07
6.63476e-08
3.47641e-08
1.79141e-08
8.94692e-09
4.30837e-09
1.99331e-09
8.5064e-10
3.59264e-10
1.50212e-10
5.98367e-11
2.22399e-11
7.74472e-12
2.55896e-12
8.39531e-13
2.78749e-13
1.02651e-13
4.17852e-14
1.77264e-14
7.37826e-15
2.91639e-15
1.08337e-15
3.79111e-16
1.2592e-16
4.00318e-17
1.22717e-17
3.64875e-18
1.05707e-18
2.99443e-19
8.31732e-20
2.2703e-20
6.10047e-21
1.61545e-21
4.2155e-22
1.08167e-22
2.7069e-23
6.49461e-24
1.43747e-24
2.67475e-25
2.69617e-26
2.98343e-13
1.15608e-12
2.46517e-12
4.53336e-12
7.79738e-12
1.29286e-11
2.09554e-11
3.34377e-11
5.27164e-11
8.12763e-11
1.23037e-10
1.83708e-10
2.71011e-10
3.95002e-10
5.68362e-10
8.06523e-10
1.12752e-09
1.55157e-09
2.10067e-09
2.79899e-09
3.67151e-09
4.75244e-09
6.08232e-09
7.72176e-09
9.7573e-09
1.22236e-08
1.52774e-08
1.90541e-08
2.33797e-08
2.81881e-08
3.30672e-08
3.73849e-08
4.05235e-08
4.17533e-08
4.0744e-08
3.78439e-08
3.41683e-08
3.10274e-08
2.94037e-08
2.99733e-08
3.35817e-08
4.15341e-08
5.6147e-08
8.14975e-08
1.23353e-07
1.90682e-07
2.95016e-07
4.48985e-07
6.62925e-07
9.46167e-07
1.26779e-06
1.59759e-06
1.87316e-06
2.01788e-06
1.96237e-06
1.67616e-06
1.20571e-06
7.1131e-07
3.91748e-07
2.15221e-07
1.17336e-07
6.31693e-08
3.30946e-08
1.69921e-08
8.45009e-09
4.04731e-09
1.86228e-09
7.89143e-10
3.32319e-10
1.38435e-10
5.47458e-11
2.02107e-11
7.04662e-12
2.23628e-12
7.38582e-13
2.49095e-13
9.34739e-14
3.85693e-14
1.6443e-14
6.84339e-15
2.69942e-15
1.0005e-15
3.49497e-16
1.15959e-16
3.68485e-17
1.12957e-17
3.35961e-18
9.73834e-19
2.7605e-19
7.673e-20
2.09573e-20
5.63338e-21
1.49213e-21
3.89484e-22
9.99186e-23
2.50105e-23
6.00482e-24
1.33009e-24
2.4762e-25
2.49663e-26
2.9723e-13
1.15181e-12
2.45617e-12
4.51694e-12
7.7692e-12
1.28816e-11
2.08781e-11
3.33102e-11
5.25034e-11
8.09162e-11
1.22456e-10
1.82799e-10
2.69624e-10
3.9294e-10
5.6538e-10
8.02319e-10
1.12171e-09
1.54368e-09
2.09019e-09
2.78487e-09
3.65457e-09
4.72966e-09
6.05443e-09
7.69024e-09
9.71845e-09
1.21764e-08
1.52219e-08
1.89904e-08
2.33163e-08
2.81336e-08
3.30414e-08
3.73986e-08
4.05917e-08
4.18828e-08
4.09296e-08
3.80643e-08
3.43855e-08
3.1237e-08
2.96134e-08
3.02078e-08
3.38862e-08
4.19848e-08
5.68607e-08
8.26874e-08
1.25363e-07
1.94076e-07
3.00473e-07
4.57429e-07
6.7525e-07
9.62709e-07
1.28827e-06
1.61968e-06
1.89264e-06
2.02884e-06
1.95945e-06
1.65697e-06
1.17493e-06
6.83859e-07
3.76338e-07
2.06538e-07
1.12385e-07
6.03043e-08
3.16308e-08
1.61854e-08
8.01733e-09
3.82259e-09
1.74966e-09
7.39152e-10
3.11004e-10
1.29208e-10
5.07786e-11
1.86195e-11
6.44785e-12
2.03704e-12
6.74263e-13
2.29449e-13
8.7066e-14
3.61845e-14
1.5442e-14
6.41046e-15
2.51905e-15
9.30256e-16
3.24035e-16
1.07303e-16
3.40594e-17
1.04356e-17
3.10385e-18
9.00003e-19
2.55263e-19
7.09988e-20
1.94027e-20
5.21707e-21
1.38246e-21
3.6103e-22
9.27037e-23
2.32284e-23
5.58166e-24
1.23709e-24
2.30385e-25
2.32329e-26
2.96127e-13
1.14754e-12
2.44703e-12
4.50003e-12
7.74e-12
1.28332e-11
2.08004e-11
3.31896e-11
5.23241e-11
8.06311e-11
1.22014e-10
1.8212e-10
2.68562e-10
3.91315e-10
5.62956e-10
7.98839e-10
1.11691e-09
1.53727e-09
2.08202e-09
2.77408e-09
3.63998e-09
4.71191e-09
6.03306e-09
7.66349e-09
9.68725e-09
1.21397e-08
1.51799e-08
1.89433e-08
2.32709e-08
2.80965e-08
3.30264e-08
3.74165e-08
4.06537e-08
4.19926e-08
4.10805e-08
3.82365e-08
3.45611e-08
3.1411e-08
2.9792e-08
3.0412e-08
3.41564e-08
4.23874e-08
5.75123e-08
8.3784e-08
1.27222e-07
1.97171e-07
3.05486e-07
4.65185e-07
6.86548e-07
9.7785e-07
1.30671e-06
1.63923e-06
1.90942e-06
2.03798e-06
1.95625e-06
1.63971e-06
1.14858e-06
6.62411e-07
3.62049e-07
1.98617e-07
1.07992e-07
5.78525e-08
3.03674e-08
1.54434e-08
7.62796e-09
3.62371e-09
1.65019e-09
6.97392e-10
2.9331e-10
1.21512e-10
4.7493e-11
1.73362e-11
5.9722e-12
1.89399e-12
6.2846e-13
2.15333e-13
8.23337e-14
3.43454e-14
1.46393e-14
6.05416e-15
2.36854e-15
8.71229e-16
3.02555e-16
9.99807e-17
3.16941e-17
9.70467e-18
2.88592e-18
8.36936e-19
2.37471e-19
6.60972e-20
1.80879e-20
4.87473e-21
1.29502e-21
3.3889e-22
8.70688e-23
2.18107e-23
5.23885e-24
1.16074e-24
2.16122e-25
2.17934e-26
2.95164e-13
1.14382e-12
2.4391e-12
4.48541e-12
7.71472e-12
1.2791e-11
2.07313e-11
3.30779e-11
5.21338e-11
8.03191e-11
1.21538e-10
1.81434e-10
2.67635e-10
3.90023e-10
5.61107e-10
7.96097e-10
1.11299e-09
1.53194e-09
2.07476e-09
2.76518e-09
3.62887e-09
4.6984e-09
6.01704e-09
7.6442e-09
9.6639e-09
1.2112e-08
1.51486e-08
1.89088e-08
2.3239e-08
2.80722e-08
3.30211e-08
3.74387e-08
4.07122e-08
4.20885e-08
4.12078e-08
3.83824e-08
3.47103e-08
3.15602e-08
2.995e-08
3.06024e-08
3.44134e-08
4.27723e-08
5.81315e-08
8.48144e-08
1.28966e-07
2.00079e-07
3.10183e-07
4.72427e-07
6.97015e-07
9.9161e-07
1.32347e-06
1.65701e-06
1.92458e-06
2.04585e-06
1.95274e-06
1.62347e-06
1.12409e-06
6.42051e-07
3.51254e-07
1.92498e-07
1.04523e-07
5.58959e-08
2.92709e-08
1.48741e-08
7.32207e-09
3.46366e-09
1.56943e-09
6.63873e-10
2.79145e-10
1.15293e-10
4.48325e-11
1.62723e-11
5.56886e-12
1.77871e-12
5.92063e-13
2.04107e-13
7.85044e-14
3.28388e-14
1.39817e-14
5.76374e-15
2.24639e-15
8.23449e-16
2.85175e-16
9.40485e-17
2.97735e-17
9.10927e-18
2.70771e-18
7.85085e-19
2.22678e-19
6.19514e-20
1.69487e-20
4.57004e-21
1.21431e-21
3.17854e-22
8.1748e-23
2.05021e-23
4.92933e-24
1.09289e-24
2.03565e-25
2.05303e-26
2.94353e-13
1.14069e-12
2.43244e-12
4.47316e-12
7.69358e-12
1.27558e-11
2.0674e-11
3.29863e-11
5.19756e-11
8.00558e-11
1.21123e-10
1.80803e-10
2.6669e-10
3.88681e-10
5.59292e-10
7.93789e-10
1.10991e-09
1.52773e-09
2.06915e-09
2.75765e-09
3.61978e-09
4.68764e-09
6.0035e-09
7.62842e-09
9.64532e-09
1.20908e-08
1.51253e-08
1.88838e-08
2.32171e-08
2.80576e-08
3.30225e-08
3.74627e-08
4.0765e-08
4.21722e-08
4.13192e-08
3.85064e-08
3.48345e-08
3.16845e-08
3.00839e-08
3.07621e-08
3.46368e-08
4.31213e-08
5.87111e-08
8.57971e-08
1.30628e-07
2.02836e-07
3.14599e-07
4.79119e-07
7.0656e-07
1.00408e-06
1.33826e-06
1.67225e-06
1.93724e-06
2.05206e-06
1.94894e-06
1.60852e-06
1.10253e-06
6.24998e-07
3.42367e-07
1.87517e-07
1.01712e-07
5.4311e-08
2.83776e-08
1.441e-08
7.07317e-09
3.33462e-09
1.50423e-09
6.37137e-10
2.67726e-10
1.10251e-10
4.26375e-11
1.5399e-11
5.24292e-12
1.68674e-12
5.62451e-13
1.94897e-13
7.5346e-14
3.15818e-14
1.3428e-14
5.51808e-15
2.14297e-15
7.83012e-16
2.7048e-16
8.9038e-17
2.81534e-17
8.60776e-18
2.55816e-18
7.42026e-19
2.10784e-19
5.87663e-20
1.60971e-20
4.34144e-21
1.15377e-21
3.02008e-22
7.76406e-23
1.9466e-23
4.67926e-24
1.0373e-24
1.93191e-25
1.94832e-26
2.93686e-13
1.13812e-12
2.42697e-12
4.46311e-12
7.67632e-12
1.27272e-11
2.06277e-11
3.29129e-11
5.18468e-11
7.98403e-11
1.20785e-10
1.80291e-10
2.65934e-10
3.87589e-10
5.57741e-10
7.91616e-10
1.10708e-09
1.52417e-09
2.06465e-09
2.75197e-09
3.6127e-09
4.67891e-09
5.99349e-09
7.61658e-09
9.6317e-09
1.20753e-08
1.51085e-08
1.88663e-08
2.32027e-08
2.80498e-08
3.30283e-08
3.74873e-08
4.08134e-08
4.22439e-08
4.14078e-08
3.86035e-08
3.49328e-08
3.17845e-08
3.01928e-08
3.08997e-08
3.48309e-08
4.34206e-08
5.91969e-08
8.66078e-08
1.32023e-07
2.05225e-07
3.18606e-07
4.85224e-07
7.15241e-07
1.0151e-06
1.35119e-06
1.68552e-06
1.94802e-06
2.057e-06
1.94515e-06
1.59534e-06
1.08411e-06
6.1089e-07
3.34996e-07
1.83408e-07
9.9411e-08
5.29864e-08
2.76295e-08
1.40052e-08
6.85696e-09
3.22267e-09
1.44743e-09
6.14085e-10
2.58063e-10
1.05965e-10
4.08342e-11
1.46845e-11
4.9761e-12
1.61199e-12
5.38531e-13
1.87301e-13
7.26755e-14
3.04949e-14
1.29439e-14
5.30296e-15
2.0527e-15
7.479e-16
2.57788e-16
8.47305e-17
2.67651e-17
8.17867e-18
2.42997e-18
7.04752e-19
2.00145e-19
5.58005e-20
1.53093e-20
4.13418e-21
1.09952e-21
2.87802e-22
7.40032e-23
1.85578e-23
4.46168e-24
9.89178e-25
1.84239e-25
1.85808e-26
2.93143e-13
1.13603e-12
2.42252e-12
4.45495e-12
7.66231e-12
1.27041e-11
2.05904e-11
3.28538e-11
5.17427e-11
7.96662e-11
1.20512e-10
1.79881e-10
2.65332e-10
3.86724e-10
5.56522e-10
7.89937e-10
1.10483e-09
1.52111e-09
2.06081e-09
2.74749e-09
3.60733e-09
4.67248e-09
5.98578e-09
7.60758e-09
9.62143e-09
1.20638e-08
1.50963e-08
1.88538e-08
2.31935e-08
2.80465e-08
3.30359e-08
3.75093e-08
4.08526e-08
4.23006e-08
4.14771e-08
3.86794e-08
3.50091e-08
3.18629e-08
3.0281e-08
3.101e-08
3.49858e-08
4.36557e-08
5.95742e-08
8.72079e-08
1.32968e-07
2.0665e-07
3.23047e-07
4.91098e-07
7.23103e-07
1.02483e-06
1.36253e-06
1.69691e-06
1.9571e-06
2.06093e-06
1.94159e-06
1.58399e-06
1.06874e-06
5.99676e-07
3.29128e-07
1.80233e-07
9.7862e-08
5.15907e-08
2.68905e-08
1.36179e-08
6.65813e-09
3.12292e-09
1.39837e-09
5.94675e-10
2.49882e-10
1.02381e-10
3.93154e-11
1.40927e-11
4.75867e-12
1.55206e-12
5.18113e-13
1.80461e-13
7.01834e-14
2.9469e-14
1.24914e-14
5.10562e-15
1.97155e-15
7.16896e-16
2.46745e-16
8.10261e-17
2.55818e-17
7.8154e-18
2.32195e-18
6.73459e-19
1.91262e-19
5.33144e-20
1.46148e-20
3.94515e-21
1.04945e-21
2.74962e-22
7.07644e-23
1.77585e-23
4.27193e-24
9.47487e-25
1.76517e-25
1.78036e-26
2.92709e-13
1.13435e-12
2.41897e-12
4.44842e-12
7.65106e-12
1.26854e-11
2.056e-11
3.28053e-11
5.16591e-11
7.95273e-11
1.20295e-10
1.79556e-10
2.64857e-10
3.86044e-10
5.55567e-10
7.88628e-10
1.10303e-09
1.51881e-09
2.05785e-09
2.74378e-09
3.60299e-09
4.66738e-09
5.97986e-09
7.60083e-09
9.6139e-09
1.20557e-08
1.50882e-08
1.88461e-08
2.31888e-08
2.80467e-08
3.30454e-08
3.75309e-08
4.0888e-08
4.23484e-08
4.15345e-08
3.87414e-08
3.50725e-08
3.19289e-08
3.03556e-08
3.11063e-08
3.51261e-08
4.38785e-08
5.99427e-08
8.78283e-08
1.34035e-07
2.08471e-07
3.2601e-07
4.95554e-07
7.29334e-07
1.03264e-06
1.37165e-06
1.7061e-06
1.96439e-06
2.064e-06
1.93853e-06
1.5746e-06
1.05621e-06
5.90673e-07
3.24396e-07
1.77584e-07
9.63604e-08
5.07613e-08
2.64187e-08
1.33574e-08
6.51855e-09
3.05075e-09
1.36209e-09
5.80291e-10
2.43798e-10
9.96907e-11
3.81814e-11
1.3654e-11
4.60531e-12
1.51376e-12
4.88932e-13
1.71901e-13
6.74282e-14
2.84496e-14
1.20757e-14
4.93347e-15
1.90303e-15
6.91233e-16
2.37709e-16
7.80139e-17
2.46226e-17
7.52128e-18
2.2346e-18
6.48199e-19
1.84119e-19
5.13321e-20
1.40735e-20
3.79962e-21
1.01093e-21
2.64936e-22
6.82042e-23
1.7121e-23
4.11959e-24
9.13865e-25
1.7027e-25
1.71733e-26
2.92376e-13
1.13307e-12
2.41624e-12
4.44341e-12
7.64247e-12
1.26711e-11
2.05371e-11
3.2769e-11
5.15954e-11
7.94208e-11
1.20129e-10
1.79307e-10
2.64495e-10
3.85526e-10
5.54844e-10
7.87641e-10
1.1017e-09
1.51708e-09
2.05564e-09
2.74103e-09
3.59965e-09
4.66355e-09
5.97552e-09
7.59596e-09
9.60859e-09
1.20501e-08
1.50827e-08
1.88413e-08
2.31866e-08
2.80489e-08
3.30548e-08
3.75494e-08
4.09169e-08
4.23868e-08
4.15799e-08
3.87899e-08
3.5121e-08
3.19795e-08
3.04148e-08
3.11845e-08
3.52413e-08
4.40622e-08
6.02485e-08
8.83435e-08
1.34911e-07
2.09923e-07
3.2825e-07
4.9896e-07
7.34157e-07
1.03872e-06
1.37879e-06
1.71334e-06
1.97018e-06
2.06643e-06
1.9361e-06
1.56713e-06
1.04627e-06
5.83623e-07
3.20694e-07
1.75503e-07
9.51754e-08
5.01321e-08
2.60685e-08
1.31656e-08
6.41657e-09
2.99835e-09
1.33615e-09
5.69353e-10
2.39154e-10
9.76344e-11
3.73134e-11
1.33157e-11
4.48424e-12
1.47311e-12
4.75623e-13
1.6748e-13
6.58164e-14
2.7783e-14
1.17826e-14
4.80668e-15
1.85135e-15
6.71631e-16
2.30766e-16
7.56939e-17
2.38836e-17
7.29487e-18
2.1674e-18
6.28763e-19
1.7862e-19
4.98075e-20
1.36584e-20
3.6885e-21
9.81628e-22
2.57323e-22
6.62591e-23
1.66359e-23
4.00346e-24
8.88189e-25
1.65494e-25
1.66919e-26
2.92136e-13
1.13214e-12
2.41427e-12
4.4398e-12
7.63627e-12
1.26609e-11
2.05206e-11
3.27429e-11
5.15492e-11
7.93434e-11
1.20008e-10
1.79125e-10
2.64228e-10
3.85144e-10
5.54305e-10
7.86891e-10
1.10071e-09
1.51579e-09
2.05405e-09
2.7391e-09
3.59734e-09
4.66083e-09
5.97243e-09
7.59259e-09
9.60499e-09
1.20464e-08
1.50794e-08
1.88386e-08
2.31861e-08
2.80516e-08
3.3063e-08
3.75644e-08
4.09393e-08
4.24159e-08
4.16135e-08
3.88253e-08
3.51568e-08
3.20175e-08
3.04593e-08
3.12437e-08
3.53295e-08
4.42029e-08
6.04823e-08
8.87303e-08
1.35562e-07
2.10999e-07
3.29898e-07
5.01473e-07
7.37716e-07
1.04321e-06
1.38408e-06
1.71871e-06
1.97446e-06
2.06826e-06
1.9343e-06
1.56157e-06
1.03889e-06
5.78517e-07
3.17975e-07
1.73976e-07
9.43077e-08
4.96737e-08
2.58142e-08
1.30275e-08
6.34329e-09
2.96085e-09
1.31795e-09
5.61185e-10
2.35709e-10
9.61078e-11
3.66714e-11
1.30655e-11
4.39483e-12
1.44316e-12
4.66249e-13
1.64492e-13
6.47503e-14
2.73443e-14
1.15881e-14
4.72138e-15
1.81609e-15
6.58098e-16
2.25923e-16
7.40617e-17
2.336e-17
7.13359e-18
2.11937e-18
6.14885e-19
1.74715e-19
4.87305e-20
1.33658e-20
3.61e-21
9.60831e-22
2.51895e-22
6.48679e-23
1.6288e-23
3.92e-24
8.69712e-25
1.62055e-25
1.63451e-26
2.91983e-13
1.13155e-12
2.41302e-12
4.43751e-12
7.63234e-12
1.26544e-11
2.05101e-11
3.27264e-11
5.15198e-11
7.92938e-11
1.1993e-10
1.79009e-10
2.64059e-10
3.84902e-10
5.53967e-10
7.86429e-10
1.1001e-09
1.515e-09
2.05306e-09
2.7379e-09
3.59591e-09
4.65917e-09
5.97055e-09
7.59053e-09
9.60283e-09
1.20443e-08
1.50775e-08
1.88373e-08
2.31863e-08
2.80541e-08
3.30692e-08
3.75749e-08
4.09547e-08
4.24356e-08
4.1636e-08
3.88488e-08
3.51803e-08
3.20427e-08
3.04893e-08
3.12842e-08
3.53897e-08
4.42986e-08
6.06401e-08
8.89923e-08
1.36001e-07
2.11716e-07
3.30985e-07
5.03126e-07
7.40063e-07
1.04617e-06
1.38757e-06
1.72225e-06
1.9773e-06
2.06948e-06
1.93317e-06
1.55796e-06
1.03414e-06
5.75282e-07
3.16179e-07
1.72967e-07
9.37361e-08
4.93722e-08
2.56479e-08
1.29374e-08
6.29577e-09
2.93666e-09
1.30619e-09
5.55888e-10
2.33467e-10
9.51166e-11
3.62546e-11
1.29039e-11
4.33711e-12
1.42388e-12
4.60309e-13
1.62599e-13
6.40798e-14
2.70706e-14
1.14671e-14
4.66811e-15
1.79397e-15
6.49567e-16
2.22859e-16
7.30259e-17
2.30268e-17
7.03067e-18
2.08862e-18
6.05941e-19
1.7217e-19
4.80219e-20
1.31725e-20
3.55821e-21
9.47183e-22
2.48351e-22
6.39629e-23
1.60623e-23
3.86595e-24
8.57756e-25
1.5983e-25
1.61207e-26
2.91908e-13
1.13126e-12
2.41241e-12
4.43639e-12
7.63044e-12
1.26513e-11
2.05051e-11
3.27185e-11
5.15057e-11
7.927e-11
1.19893e-10
1.78953e-10
2.63978e-10
3.84786e-10
5.53805e-10
7.8621e-10
1.09981e-09
1.51462e-09
2.05258e-09
2.73731e-09
3.59521e-09
4.65837e-09
5.96966e-09
7.58955e-09
9.60181e-09
1.20433e-08
1.50767e-08
1.88367e-08
2.31865e-08
2.80556e-08
3.30725e-08
3.75804e-08
4.09626e-08
4.24456e-08
4.16472e-08
3.88604e-08
3.5192e-08
3.20552e-08
3.05042e-08
3.13042e-08
3.54194e-08
4.4346e-08
6.07184e-08
8.91224e-08
1.36219e-07
2.12075e-07
3.31528e-07
5.03952e-07
7.4123e-07
1.04764e-06
1.38929e-06
1.72401e-06
1.9787e-06
2.07008e-06
1.9326e-06
1.55619e-06
1.03182e-06
5.73715e-07
3.15305e-07
1.72475e-07
9.34567e-08
4.92241e-08
2.55662e-08
1.28931e-08
6.27243e-09
2.92481e-09
1.30045e-09
5.53299e-10
2.3237e-10
9.46318e-11
3.6051e-11
1.2825e-11
4.30906e-12
1.41456e-12
4.57458e-13
1.617e-13
6.37621e-14
2.69416e-14
1.14104e-14
4.64319e-15
1.78361e-15
6.45575e-16
2.21425e-16
7.25412e-17
2.28708e-17
6.98244e-18
2.07418e-18
6.01735e-19
1.70974e-19
4.76882e-20
1.30811e-20
3.53364e-21
9.40677e-22
2.46655e-22
6.35281e-23
1.59535e-23
3.83983e-24
8.51966e-25
1.58751e-25
1.60118e-26
2.91909e-13
1.13127e-12
2.41242e-12
4.43641e-12
7.63046e-12
1.26513e-11
2.05051e-11
3.27186e-11
5.15058e-11
7.92701e-11
1.19893e-10
1.78953e-10
2.63978e-10
3.84787e-10
5.53806e-10
7.86211e-10
1.09981e-09
1.51463e-09
2.05259e-09
2.73731e-09
3.59521e-09
4.65837e-09
5.96967e-09
7.58956e-09
9.60183e-09
1.20433e-08
1.50767e-08
1.88368e-08
2.31866e-08
2.80557e-08
3.30726e-08
3.75806e-08
4.09627e-08
4.24458e-08
4.16475e-08
3.88606e-08
3.51922e-08
3.20554e-08
3.05044e-08
3.13044e-08
3.54197e-08
4.43464e-08
6.07191e-08
8.91233e-08
1.36221e-07
2.12077e-07
3.31532e-07
5.03958e-07
7.41237e-07
1.04765e-06
1.3893e-06
1.72402e-06
1.97871e-06
2.07008e-06
1.9326e-06
1.55619e-06
1.03182e-06
5.73712e-07
3.15303e-07
1.72475e-07
9.34567e-08
4.92237e-08
2.5566e-08
1.2893e-08
6.27241e-09
2.9248e-09
1.30045e-09
5.533e-10
2.3237e-10
9.46321e-11
3.60512e-11
1.28251e-11
4.30911e-12
1.41457e-12
4.57462e-13
1.61701e-13
6.37623e-14
2.69417e-14
1.14104e-14
4.64321e-15
1.78362e-15
6.4558e-16
2.21427e-16
7.25419e-17
2.28711e-17
6.98251e-18
2.07421e-18
6.01743e-19
1.70976e-19
4.76889e-20
1.30813e-20
3.5337e-21
9.40692e-22
2.46659e-22
6.3529e-23
1.59538e-23
3.83989e-24
8.5198e-25
1.58753e-25
1.6012e-26
2.91985e-13
1.13156e-12
2.41304e-12
4.43754e-12
7.6324e-12
1.26545e-11
2.05103e-11
3.27267e-11
5.15202e-11
7.92943e-11
1.19931e-10
1.7901e-10
2.6406e-10
3.84903e-10
5.53969e-10
7.86432e-10
1.1001e-09
1.51501e-09
2.05307e-09
2.73791e-09
3.59592e-09
4.65919e-09
5.97058e-09
7.59057e-09
9.60288e-09
1.20443e-08
1.50776e-08
1.88374e-08
2.31865e-08
2.80544e-08
3.30695e-08
3.75753e-08
4.09552e-08
4.24361e-08
4.16366e-08
3.88494e-08
3.51809e-08
3.20433e-08
3.049e-08
3.12849e-08
3.53906e-08
4.42999e-08
6.06421e-08
8.89954e-08
1.36006e-07
2.11724e-07
3.30997e-07
5.03143e-07
7.40083e-07
1.04619e-06
1.38759e-06
1.72228e-06
1.97733e-06
2.06949e-06
1.93317e-06
1.55795e-06
1.03412e-06
5.75274e-07
3.16175e-07
1.72965e-07
9.37355e-08
4.93715e-08
2.56476e-08
1.29373e-08
6.29572e-09
2.93665e-09
1.30619e-09
5.5589e-10
2.33467e-10
9.51173e-11
3.62551e-11
1.29041e-11
4.33723e-12
1.42392e-12
4.6032e-13
1.62601e-13
6.40804e-14
2.70708e-14
1.14672e-14
4.66817e-15
1.794e-15
6.4958e-16
2.22864e-16
7.30278e-17
2.30275e-17
7.0309e-18
2.08869e-18
6.05964e-19
1.72177e-19
4.8024e-20
1.3173e-20
3.55836e-21
9.47222e-22
2.48361e-22
6.39654e-23
1.60629e-23
3.86611e-24
8.57791e-25
1.59836e-25
1.61214e-26
2.92139e-13
1.13215e-12
2.4143e-12
4.43985e-12
7.63635e-12
1.2661e-11
2.05208e-11
3.27432e-11
5.15496e-11
7.93438e-11
1.20008e-10
1.79126e-10
2.6423e-10
3.85146e-10
5.54309e-10
7.86896e-10
1.10072e-09
1.5158e-09
2.05406e-09
2.73912e-09
3.59736e-09
4.66086e-09
5.97247e-09
7.59265e-09
9.60508e-09
1.20465e-08
1.50795e-08
1.88388e-08
2.31863e-08
2.80519e-08
3.30634e-08
3.75648e-08
4.09398e-08
4.24165e-08
4.16141e-08
3.8826e-08
3.51575e-08
3.20184e-08
3.04603e-08
3.12451e-08
3.53312e-08
4.42053e-08
6.04856e-08
8.87363e-08
1.35571e-07
2.11009e-07
3.2991e-07
5.01486e-07
7.37741e-07
1.04324e-06
1.38412e-06
1.71875e-06
1.9745e-06
2.06828e-06
1.93429e-06
1.56154e-06
1.03886e-06
5.78499e-07
3.17965e-07
1.73971e-07
9.4305e-08
4.96726e-08
2.58137e-08
1.30273e-08
6.34324e-09
2.96085e-09
1.31796e-09
5.61192e-10
2.35712e-10
9.611e-11
3.66727e-11
1.3066e-11
4.39505e-12
1.44323e-12
4.6627e-13
1.64498e-13
6.47515e-14
2.73447e-14
1.15883e-14
4.7215e-15
1.81615e-15
6.58126e-16
2.25934e-16
7.40656e-17
2.33613e-17
7.13402e-18
2.1195e-18
6.14925e-19
1.74727e-19
4.87343e-20
1.33669e-20
3.61033e-21
9.60924e-22
2.51919e-22
6.4874e-23
1.62895e-23
3.92035e-24
8.69787e-25
1.62068e-25
1.63464e-26
2.9238e-13
1.13308e-12
2.41627e-12
4.44346e-12
7.64256e-12
1.26713e-11
2.05373e-11
3.27694e-11
5.15959e-11
7.94215e-11
1.2013e-10
1.79309e-10
2.64497e-10
3.8553e-10
5.54849e-10
7.87648e-10
1.10171e-09
1.5171e-09
2.05566e-09
2.74106e-09
3.59969e-09
4.6636e-09
5.97558e-09
7.59604e-09
9.6087e-09
1.20502e-08
1.50829e-08
1.88415e-08
2.31869e-08
2.80492e-08
3.30553e-08
3.75499e-08
4.09174e-08
4.23873e-08
4.15803e-08
3.87901e-08
3.51215e-08
3.19801e-08
3.04155e-08
3.11854e-08
3.52426e-08
4.40645e-08
6.02522e-08
8.83471e-08
1.34916e-07
2.09932e-07
3.28266e-07
4.98988e-07
7.34193e-07
1.03877e-06
1.37885e-06
1.7134e-06
1.97022e-06
2.06646e-06
1.9361e-06
1.5671e-06
1.04622e-06
5.83598e-07
3.20681e-07
1.75497e-07
9.51726e-08
5.0131e-08
2.60681e-08
1.31655e-08
6.41659e-09
2.99839e-09
1.33618e-09
5.6937e-10
2.39161e-10
9.76379e-11
3.73152e-11
1.33163e-11
4.48451e-12
1.47321e-12
4.7565e-13
1.67487e-13
6.58178e-14
2.77834e-14
1.17829e-14
4.80684e-15
1.85143e-15
6.71666e-16
2.3078e-16
7.56989e-17
2.38853e-17
7.29541e-18
2.16756e-18
6.28812e-19
1.78633e-19
4.98109e-20
1.36593e-20
3.68872e-21
9.81682e-22
2.57336e-22
6.62625e-23
1.66367e-23
4.00363e-24
8.88225e-25
1.65501e-25
1.66925e-26
2.92713e-13
1.13437e-12
2.419e-12
4.44847e-12
7.65116e-12
1.26855e-11
2.05603e-11
3.28058e-11
5.16597e-11
7.95282e-11
1.20296e-10
1.79558e-10
2.6486e-10
3.86048e-10
5.55573e-10
7.88636e-10
1.10304e-09
1.51883e-09
2.05788e-09
2.74381e-09
3.60303e-09
4.66743e-09
5.97993e-09
7.60092e-09
9.61402e-09
1.20559e-08
1.50884e-08
1.88464e-08
2.31891e-08
2.80472e-08
3.30459e-08
3.75315e-08
4.08887e-08
4.23492e-08
4.15355e-08
3.87424e-08
3.50732e-08
3.19294e-08
3.03561e-08
3.11067e-08
3.51265e-08
4.3879e-08
5.99435e-08
8.783e-08
1.34039e-07
2.08479e-07
3.26025e-07
4.95577e-07
7.29374e-07
1.0327e-06
1.37172e-06
1.70617e-06
1.96445e-06
2.06402e-06
1.93851e-06
1.57453e-06
1.05614e-06
5.90633e-07
3.24376e-07
1.77574e-07
9.63561e-08
5.07593e-08
2.64179e-08
1.33571e-08
6.51849e-09
3.05076e-09