/*--------------------------------*- C++ -*----------------------------------*\
  =========                 |
  \\      /  F ield         | OpenFOAM: The Open Source CFD Toolbox
   \\    /   O peration     | Website:  https://openfoam.org
    \\  /    A nd           | Version:  10
     \\/     M anipulation  |
\*---------------------------------------------------------------------------*/
FoamFile
{
    format      ascii;
    class       volScalarField;
    location    "1";
    object      C2H6;
}
// * * * * * * * * * * * * * * * * * * * * * * * * * * * * * * * * * * * * * //

dimensions      [0 0 0 0 0 0 0];

internalField   nonuniform List<scalar> 
4000
(
5.02878e-09
1.94836e-08
4.15353e-08
7.63586e-08
1.31307e-07
2.17717e-07
3.53032e-07
5.63852e-07
8.90357e-07
1.37587e-06
2.08859e-06
3.12803e-06
4.62916e-06
6.7676e-06
9.76322e-06
1.38786e-05
1.94051e-05
2.66405e-05
3.58561e-05
4.72619e-05
6.09747e-05
7.69981e-05
9.52203e-05
0.000115535
0.000137579
0.000160554
0.000184664
0.000209983
0.000235443
0.000261326
0.000286913
0.000312254
0.000337012
0.000360888
0.000383721
0.000405379
0.000425745
0.000444716
0.000462133
0.000477844
0.000491703
0.000503145
0.000511741
0.000516724
0.000517017
0.000511238
0.000498106
0.000475908
0.00044475
0.000403277
0.000354737
0.000300537
0.000243512
0.000187221
0.000135346
9.11228e-05
5.67121e-05
3.27659e-05
1.81821e-05
1.00127e-05
5.52283e-06
3.02138e-06
1.6308e-06
8.64117e-07
4.43735e-07
2.22083e-07
1.07194e-07
4.97355e-08
2.14912e-08
9.27938e-09
4.36584e-09
2.46774e-09
1.63616e-09
1.18946e-09
8.97245e-10
6.78449e-10
4.96816e-10
3.51644e-10
2.38716e-10
1.55002e-10
9.64291e-11
5.77583e-11
3.35166e-11
1.89563e-11
1.05021e-11
5.72147e-12
3.07418e-12
1.63288e-12
8.59143e-13
4.48354e-13
2.32313e-13
1.19602e-13
6.11985e-14
3.11071e-14
1.56769e-14
7.79469e-15
3.78016e-15
1.73999e-15
7.042e-16
1.62189e-16
5.03111e-09
1.94933e-08
4.15606e-08
7.64225e-08
1.31455e-07
2.18028e-07
3.53618e-07
5.64847e-07
8.91851e-07
1.37822e-06
2.09148e-06
3.13039e-06
4.62857e-06
6.75905e-06
9.73736e-06
1.38191e-05
1.92842e-05
2.64284e-05
3.55245e-05
4.67884e-05
6.03489e-05
7.62322e-05
9.43602e-05
0.000114445
0.000136327
0.000159165
0.000183168
0.000208494
0.000233958
0.00025994
0.000285672
0.000311186
0.000336083
0.00036015
0.000383162
0.000404995
0.000425533
0.000444684
0.000462268
0.000478144
0.000492171
0.000503777
0.000512536
0.000517687
0.000518119
0.0005124
0.000499226
0.000476933
0.000445548
0.000403753
0.000354932
0.000300325
0.000242928
0.00018636
0.000134336
9.01175e-05
5.58572e-05
3.21681e-05
1.78308e-05
9.82671e-06
5.41644e-06
2.95981e-06
1.59483e-06
8.42991e-07
4.31888e-07
2.15312e-07
1.03448e-07
4.78062e-08
2.05613e-08
8.8925e-09
4.24152e-09
2.43809e-09
1.63302e-09
1.19158e-09
8.9752e-10
6.76447e-10
4.93056e-10
3.47245e-10
2.34657e-10
1.51858e-10
9.43262e-11
5.65188e-11
3.28623e-11
1.86438e-11
1.03667e-11
5.66912e-12
3.05711e-12
1.62883e-12
8.58718e-13
4.48653e-13
2.32587e-13
1.19743e-13
6.12433e-14
3.11034e-14
1.56612e-14
7.77989e-15
3.76985e-15
1.73411e-15
7.01536e-16
1.61524e-16
5.04305e-09
1.95415e-08
4.16722e-08
7.6647e-08
1.31875e-07
2.18767e-07
3.54846e-07
5.66756e-07
8.94567e-07
1.38202e-06
2.09608e-06
3.13478e-06
4.6309e-06
6.75478e-06
9.71833e-06
1.3771e-05
1.91934e-05
2.62744e-05
3.52799e-05
4.64208e-05
5.98236e-05
7.5512e-05
9.34419e-05
0.000113413
0.000135182
0.000157937
0.000181923
0.0002072
0.000232663
0.000258722
0.000284469
0.000310031
0.000335012
0.000359279
0.00038251
0.000404572
0.000425346
0.00044475
0.000462577
0.000478697
0.000492971
0.000504809
0.000513798
0.000519178
0.000519722
0.000514076
0.000500883
0.00047841
0.000446728
0.000404443
0.000355096
0.00029985
0.000241873
0.000184874
0.000132639
8.84771e-05
5.45e-05
3.12154e-05
1.72717e-05
9.52868e-06
5.24543e-06
2.86089e-06
1.53629e-06
8.08658e-07
4.13101e-07
2.0489e-07
9.78513e-08
4.48932e-08
1.92148e-08
8.34161e-09
4.0757e-09
2.39893e-09
1.63082e-09
1.19866e-09
8.95022e-10
6.73793e-10
4.89173e-10
3.42903e-10
2.30719e-10
1.48815e-10
9.22529e-11
5.52379e-11
3.2128e-11
1.82462e-11
1.01608e-11
5.56608e-12
3.00683e-12
1.60486e-12
8.47611e-13
4.43561e-13
2.30238e-13
1.18641e-13
6.072e-14
3.08573e-14
1.55384e-14
7.71685e-15
3.73766e-15
1.71847e-15
6.94917e-16
1.59953e-16
5.04512e-09
1.95496e-08
4.16898e-08
7.66793e-08
1.31925e-07
2.18828e-07
3.54875e-07
5.66626e-07
8.9398e-07
1.3806e-06
2.09252e-06
3.12645e-06
4.6126e-06
6.72043e-06
9.6596e-06
1.36784e-05
1.90526e-05
2.60682e-05
3.49908e-05
4.60343e-05
5.93326e-05
7.49217e-05
9.27177e-05
0.000112583
0.000134284
0.000156957
0.000180877
0.000206135
0.000231545
0.000257594
0.000283367
0.000308995
0.000334086
0.000358509
0.000381979
0.000404286
0.000425317
0.000444994
0.000463092
0.000479488
0.000494045
0.000506162
0.000515393
0.000520954
0.000521665
0.000516101
0.000502856
0.000480173
0.000448057
0.000405153
0.000355099
0.000299117
0.000240473
0.000182979
0.000130552
8.64798e-05
5.28501e-05
3.00788e-05
1.66154e-05
9.17473e-06
5.04491e-06
2.75168e-06
1.4598e-06
7.65536e-07
3.90054e-07
1.92286e-07
9.11671e-08
4.14782e-08
1.77766e-08
7.77822e-09
3.90451e-09
2.3596e-09
1.62743e-09
1.20112e-09
8.99612e-10
6.72752e-10
4.8467e-10
3.37129e-10
2.2524e-10
1.44447e-10
8.91777e-11
5.3266e-11
3.09494e-11
1.75777e-11
9.79623e-12
5.3731e-12
2.90697e-12
1.55408e-12
8.22159e-13
4.30933e-13
2.24014e-13
1.15581e-13
5.92115e-14
3.0109e-14
1.51702e-14
7.53785e-15
3.6526e-15
1.68002e-15
6.7959e-16
1.56453e-16
5.039e-09
1.95259e-08
4.16389e-08
7.65832e-08
1.3175e-07
2.18508e-07
3.54281e-07
5.65499e-07
8.9182e-07
1.37643e-06
2.08508e-06
3.11379e-06
4.59231e-06
6.68805e-06
9.60866e-06
1.36001e-05
1.89358e-05
2.58999e-05
3.4758e-05
4.57259e-05
5.89427e-05
7.44519e-05
9.21801e-05
0.000111947
0.000133525
0.000156068
0.000179843
0.000205085
0.000230516
0.000256598
0.000282433
0.000308142
0.000333357
0.000357929
0.000381625
0.000404183
0.000425472
0.000445417
0.000463784
0.000480448
0.000495279
0.00050765
0.000517122
0.000522905
0.000523762
0.000518241
0.000504881
0.000481908
0.000449305
0.000405727
0.000354913
0.000298142
0.000238791
0.000180811
0.000128182
8.42501e-05
5.1051e-05
2.88728e-05
1.59352e-05
8.79028e-06
4.82414e-06
2.62186e-06
1.38466e-06
7.22094e-07
3.66178e-07
1.79355e-07
8.43591e-08
3.78837e-08
1.63103e-08
7.23307e-09
3.74563e-09
2.32206e-09
1.62277e-09
1.20178e-09
9.04619e-10
6.65682e-10
4.76985e-10
3.29793e-10
2.19109e-10
1.39885e-10
8.60941e-11
5.13339e-11
2.98066e-11
1.69303e-11
9.44104e-12
5.18286e-12
2.80691e-12
1.50218e-12
7.95513e-13
4.17359e-13
2.17136e-13
1.12108e-13
5.74628e-14
2.92319e-14
1.47331e-14
7.32266e-15
3.54918e-15
1.6328e-15
6.60591e-16
1.52084e-16
5.0251e-09
1.94722e-08
4.15242e-08
7.63697e-08
1.31374e-07
2.17858e-07
3.53159e-07
5.63538e-07
8.88474e-07
1.37093e-06
2.07643e-06
3.10075e-06
4.57255e-06
6.65791e-06
9.56308e-06
1.35322e-05
1.88367e-05
2.57582e-05
3.45592e-05
4.54528e-05
5.85747e-05
7.396e-05
9.15413e-05
0.000111204
0.00013273
0.000155246
0.000179027
0.000204269
0.000229696
0.000255805
0.000281708
0.0003075
0.000332858
0.000357585
0.000381497
0.00040428
0.000425808
0.000446003
0.000464631
0.000481561
0.000496644
0.000509258
0.000518956
0.000524933
0.000525913
0.000520416
0.000506924
0.000483697
0.000450555
0.000406216
0.000354552
0.000296931
0.000236872
0.000178422
0.000125648
8.19192e-05
4.92137e-05
2.76719e-05
1.52611e-05
8.41002e-06
4.608e-06
2.49908e-06
1.31602e-06
6.83531e-07
3.44638e-07
1.67659e-07
7.8185e-08
3.47874e-08
1.49447e-08
6.73445e-09
3.5981e-09
2.28353e-09
1.61475e-09
1.19977e-09
9.0152e-10
6.59746e-10
4.69619e-10
3.2252e-10
2.12967e-10
1.35282e-10
8.2954e-11
4.93432e-11
2.86133e-11
1.62448e-11
9.0599e-12
4.97626e-12
2.69715e-12
1.4448e-12
7.65898e-13
4.02227e-13
2.09456e-13
1.08217e-13
5.54973e-14
2.82462e-14
1.42433e-14
7.08311e-15
3.43498e-15
1.58098e-15
6.39809e-16
1.47308e-16
5.00386e-09
1.93895e-08
4.13459e-08
7.60369e-08
1.30793e-07
2.16887e-07
3.51592e-07
5.61117e-07
8.84617e-07
1.3646e-06
2.06663e-06
3.08527e-06
4.54856e-06
6.62156e-06
9.50913e-06
1.34538e-05
1.87258e-05
2.56048e-05
3.43527e-05
4.51815e-05
5.82412e-05
7.35609e-05
9.10891e-05
0.000110689
0.000132155
0.000154623
0.000178357
0.000203593
0.000229041
0.000255188
0.000281152
0.000307006
0.000332608
0.000357465
0.000381539
0.000404532
0.000426279
0.000446694
0.000465559
0.000482735
0.000498051
0.000510886
0.000520776
0.000526895
0.000527969
0.00052248
0.000508797
0.000485327
0.000451626
0.000406525
0.000354041
0.000295611
0.000234866
0.000175978
0.000123102
7.96199e-05
4.74388e-05
2.65397e-05
1.46305e-05
8.0541e-06
4.40572e-06
2.3835e-06
1.25167e-06
6.47334e-07
3.24937e-07
1.57336e-07
7.33278e-08
3.17167e-08
1.36395e-08
6.27874e-09
3.45905e-09
2.24263e-09
1.60255e-09
1.1937e-09
8.9525e-10
6.51979e-10
4.61366e-10
3.14967e-10
2.06868e-10
1.30842e-10
7.99828e-11
4.74824e-11
2.75054e-11
1.56099e-11
8.70641e-12
4.78384e-12
2.59427e-12
1.39059e-12
7.377e-13
3.87729e-13
2.021e-13
1.04557e-13
5.36991e-14
2.73603e-14
1.38028e-14
6.86503e-15
3.32913e-15
1.53214e-15
6.2001e-16
1.42746e-16
4.98034e-09
1.92981e-08
4.11485e-08
7.56661e-08
1.30137e-07
2.15758e-07
3.49678e-07
5.57891e-07
8.79357e-07
1.35609e-06
2.0521e-06
3.06209e-06
4.51284e-06
6.56799e-06
9.43087e-06
1.33426e-05
1.85725e-05
2.54006e-05
3.40906e-05
4.48593e-05
5.785e-05
7.31119e-05
9.06064e-05
0.000110189
0.000131613
0.000154025
0.000177757
0.000202996
0.000228466
0.000254659
0.000280766
0.000306726
0.000332478
0.000357481
0.000381716
0.00040491
0.00042687
0.000447532
0.000466619
0.000484019
0.000499438
0.000512484
0.000522554
0.000528829
0.000529923
0.00052436
0.000510435
0.000486702
0.000452434
0.000406618
0.000353365
0.000294183
0.00023282
0.000173561
0.000120639
7.74375e-05
4.57885e-05
2.55084e-05
1.4055e-05
7.72906e-06
4.22018e-06
2.27739e-06
1.19336e-06
6.14979e-07
3.07174e-07
1.47949e-07
6.8506e-08
2.93428e-08
1.26296e-08
5.93698e-09
3.35317e-09
2.2113e-09
1.59207e-09
1.1863e-09
8.87119e-10
6.43084e-10
4.52699e-10
3.07461e-10
2.01025e-10
1.26696e-10
7.72557e-11
4.57918e-11
2.65035e-11
1.5036e-11
8.38617e-12
4.60879e-12
2.50017e-12
1.3407e-12
7.11546e-13
3.74142e-13
1.95086e-13
1.00943e-13
5.18508e-14
2.64319e-14
1.33497e-14
6.64539e-15
3.2241e-15
1.48412e-15
6.0066e-16
1.38301e-16
4.95913e-09
1.9216e-08
4.09729e-08
7.53403e-08
1.29568e-07
2.14797e-07
3.48081e-07
5.55271e-07
8.7512e-07
1.34866e-06
2.04052e-06
3.04446e-06
4.48666e-06
6.52992e-06
9.3765e-06
1.32666e-05
1.84691e-05
2.52639e-05
3.3916e-05
4.46514e-05
5.75949e-05
7.28258e-05
9.02659e-05
0.00010978
0.00013119
0.000153604
0.000177328
0.000202553
0.00022804
0.000254232
0.000280641
0.000306641
0.00033249
0.00035761
0.000381984
0.00040535
0.000427514
0.0004483
0.000467578
0.000485201
0.000500808
0.000514036
0.000524294
0.000530665
0.000531783
0.000526113
0.000511977
0.000487869
0.000453023
0.000406505
0.000352519
0.000292658
0.00023077
0.000171223
0.000118315
7.54231e-05
4.42975e-05
2.4595e-05
1.35448e-05
7.44098e-06
4.0565e-06
2.18371e-06
1.144e-06
5.87382e-07
2.9212e-07
1.39947e-07
6.44509e-08
2.74311e-08
1.18251e-08
5.6661e-09
3.27082e-09
2.18801e-09
1.58788e-09
1.17154e-09
8.76182e-10
6.33717e-10
4.44677e-10
3.00977e-10
1.96161e-10
1.23301e-10
7.50295e-11
4.44048e-11
2.56736e-11
1.4555e-11
8.11441e-12
4.45834e-12
2.41831e-12
1.29683e-12
6.8833e-13
3.61983e-13
1.88767e-13
9.76762e-14
5.01742e-14
2.55798e-14
1.29184e-14
6.43195e-15
3.12179e-15
1.4376e-15
5.8197e-16
1.34018e-16
4.94165e-09
1.9149e-08
4.08315e-08
7.50823e-08
1.29125e-07
2.14059e-07
3.46866e-07
5.5327e-07
8.71783e-07
1.34301e-06
2.0314e-06
3.03023e-06
4.46504e-06
6.49798e-06
9.3307e-06
1.32027e-05
1.83823e-05
2.51485e-05
3.37671e-05
4.44584e-05
5.73756e-05
7.25508e-05
8.99584e-05
0.000109474
0.000130868
0.000153275
0.000177005
0.000202239
0.000227766
0.000254007
0.000280514
0.000306603
0.000332559
0.000357793
0.000382295
0.000405814
0.000428131
0.000449067
0.000468501
0.000486301
0.000502067
0.000515448
0.000525799
0.000532225
0.000533331
0.000527567
0.000513177
0.000488677
0.000453306
0.000406185
0.00035155
0.000291092
0.000228754
0.000169008
0.000116173
7.36074e-05
4.29833e-05
2.38041e-05
1.30978e-05
7.1872e-06
3.91045e-06
2.09815e-06
1.10045e-06
5.63069e-07
2.78913e-07
1.33008e-07
6.0939e-08
2.58739e-08
1.11945e-08
5.45776e-09
3.20608e-09
2.16748e-09
1.57975e-09
1.16533e-09
8.6983e-10
6.27095e-10
4.38403e-10
2.95615e-10
1.91992e-10
1.20315e-10
7.30328e-11
4.31419e-11
2.49093e-11
1.41082e-11
7.86041e-12
4.31717e-12
2.34134e-12
1.25553e-12
6.66459e-13
3.50528e-13
1.82812e-13
9.4595e-14
4.85966e-14
2.4779e-14
1.25186e-14
6.23538e-15
3.02734e-15
1.39441e-15
5.64562e-16
1.30024e-16
4.92427e-09
1.90817e-08
4.06874e-08
7.48159e-08
1.28665e-07
2.13296e-07
3.45642e-07
5.5137e-07
8.6896e-07
1.33851e-06
2.02443e-06
3.01955e-06
4.44842e-06
6.47269e-06
9.2933e-06
1.31496e-05
1.83101e-05
2.50541e-05
3.36502e-05
4.431e-05
5.71852e-05
7.23351e-05
8.9723e-05
0.000109214
0.000130609
0.00015302
0.000176766
0.000202014
0.000227582
0.000253869
0.00028045
0.000306619
0.00033267
0.000358003
0.000382613
0.000406252
0.000428709
0.000449779
0.000469344
0.000487273
0.000503153
0.000516629
0.000527056
0.000533519
0.000534604
0.000528716
0.000514087
0.000489226
0.000453377
0.000405723
0.000350519
0.000289562
0.000226875
0.00016698
0.000114248
7.20074e-05
4.18578e-05
2.31723e-05
1.26647e-05
6.94755e-06
3.77735e-06
2.0235e-06
1.06213e-06
5.40124e-07
2.66788e-07
1.26765e-07
5.77913e-08
2.45641e-08
1.06747e-08
5.28717e-09
3.15243e-09
2.14988e-09
1.57193e-09
1.16174e-09
8.6557e-10
6.22127e-10
4.33382e-10
2.91131e-10
1.88402e-10
1.17698e-10
7.12664e-11
4.20189e-11
2.42274e-11
1.37086e-11
7.63265e-12
4.19035e-12
2.27206e-12
1.21827e-12
6.46716e-13
3.40222e-13
1.77538e-13
9.19585e-14
4.72919e-14
2.41323e-14
1.21926e-14
6.07149e-15
2.94709e-15
1.35724e-15
5.4946e-16
1.26544e-16
4.90909e-09
1.90231e-08
4.05625e-08
7.45855e-08
1.28267e-07
2.1263e-07
3.44552e-07
5.4961e-07
8.65949e-07
1.33357e-06
2.01688e-06
3.00872e-06
4.43384e-06
6.4525e-06
9.26464e-06
1.31076e-05
1.8251e-05
2.49753e-05
3.35457e-05
4.41868e-05
5.70392e-05
7.21701e-05
8.95463e-05
0.000109028
0.000130419
0.000152833
0.000176594
0.000201859
0.000227466
0.000253795
0.000280441
0.000306681
0.000332816
0.000358236
0.000382938
0.000406686
0.000429265
0.00045045
0.00047013
0.00048819
0.000504164
0.000517709
0.00052818
0.000534646
0.000535686
0.000529668
0.000514805
0.000489596
0.0004533
0.000405173
0.000349455
0.00028805
0.000225063
0.000165083
0.000112481
7.05651e-05
4.08421e-05
2.25669e-05
1.23449e-05
6.76489e-06
3.67291e-06
1.96405e-06
1.02845e-06
5.22575e-07
2.57251e-07
1.21722e-07
5.52219e-08
2.35099e-08
1.02644e-08
5.15471e-09
3.11148e-09
2.13625e-09
1.56516e-09
1.15991e-09
8.62548e-10
6.18132e-10
4.29135e-10
2.87303e-10
1.85348e-10
1.15481e-10
6.97721e-11
4.1068e-11
2.36486e-11
1.33684e-11
7.43816e-12
4.08169e-12
2.21245e-12
1.18605e-12
6.29426e-13
3.31026e-13
1.72711e-13
8.94785e-14
4.60189e-14
2.34858e-14
1.1872e-14
5.91498e-15
2.87226e-15
1.32311e-15
5.35715e-16
1.23386e-16
4.89628e-09
1.89737e-08
4.04572e-08
7.43918e-08
1.27933e-07
2.12074e-07
3.43647e-07
5.48162e-07
8.63442e-07
1.32939e-06
2.01031e-06
2.99873e-06
4.41892e-06
6.43144e-06
9.23638e-06
1.30721e-05
1.82043e-05
2.49129e-05
3.3465e-05
4.40823e-05
5.69197e-05
7.20391e-05
8.93975e-05
0.000108876
0.000130268
0.000152693
0.000176472
0.000201756
0.000227398
0.000253766
0.000280471
0.000306773
0.000332981
0.000358481
0.000383275
0.000407113
0.000429785
0.000451059
0.000470829
0.000488962
0.000505013
0.00051863
0.000529155
0.00053564
0.000536627
0.00053047
0.000515368
0.000489821
0.000453111
0.000404563
0.000348413
0.000286654
0.000223439
0.0001634
0.000110927
6.92923e-05
3.99585e-05
2.20489e-05
1.20769e-05
6.614e-06
3.58721e-06
1.91529e-06
1.00067e-06
5.08106e-07
2.49407e-07
1.17613e-07
5.31267e-08
2.26636e-08
9.93757e-09
5.05105e-09
3.07963e-09
2.1256e-09
1.55958e-09
1.15844e-09
8.59807e-10
6.14501e-10
4.25323e-10
2.83883e-10
1.82624e-10
1.13507e-10
6.84438e-11
4.02242e-11
2.31359e-11
1.30675e-11
7.26655e-12
3.98608e-12
2.16033e-12
1.15829e-12
6.15105e-13
3.23777e-13
1.68995e-13
8.75506e-14
4.50275e-14
2.29784e-14
1.16128e-14
5.78503e-15
2.80894e-15
1.29387e-15
5.23857e-16
1.20654e-16
4.8857e-09
1.89329e-08
4.03705e-08
7.42326e-08
1.27659e-07
2.11621e-07
3.42915e-07
5.47001e-07
8.61398e-07
1.32596e-06
2.00492e-06
2.99061e-06
4.407e-06
6.4143e-06
9.21221e-06
1.30386e-05
1.81612e-05
2.48598e-05
3.33998e-05
4.40035e-05
5.68267e-05
7.19328e-05
8.92877e-05
0.000108764
0.000130161
0.000152594
0.00017639
0.000201692
0.000227367
0.00025377
0.000280525
0.000306884
0.000333159
0.000358726
0.000383587
0.000407497
0.00043025
0.000451601
0.00047144
0.000489658
0.000505772
0.000519434
0.000529972
0.000536435
0.000537364
0.000531079
0.000515745
0.000489894
0.000452817
0.000403918
0.000347401
0.000285345
0.000221958
0.0001619
0.00010956
6.81981e-05
3.92078e-05
2.16106e-05
1.18495e-05
6.48692e-06
3.51572e-06
1.87372e-06
9.76943e-07
4.95184e-07
2.42449e-07
1.13982e-07
5.12719e-08
2.19232e-08
9.65931e-09
4.9612e-09
3.05122e-09
2.11533e-09
1.55377e-09
1.1566e-09
8.56847e-10
6.10782e-10
4.2156e-10
2.80591e-10
1.80053e-10
1.11672e-10
6.72239e-11
3.9457e-11
2.26736e-11
1.2798e-11
7.11347e-12
3.90097e-12
2.11383e-12
1.13323e-12
6.01705e-13
3.16735e-13
1.65449e-13
8.5755e-14
4.4114e-14
2.25097e-14
1.13766e-14
5.66774e-15
2.75214e-15
1.26776e-15
5.13296e-16
1.18223e-16
4.87707e-09
1.88996e-08
4.02999e-08
7.4103e-08
1.27437e-07
2.11253e-07
3.42322e-07
5.46065e-07
8.59744e-07
1.32319e-06
2.00058e-06
2.98409e-06
4.39747e-06
6.40069e-06
9.19318e-06
1.30126e-05
1.8127e-05
2.4814e-05
3.3344e-05
4.39408e-05
5.67559e-05
7.18546e-05
8.92038e-05
0.000108679
0.000130081
0.000152525
0.000176336
0.000201654
0.000227358
0.000253792
0.00028059
0.000306994
0.00033332
0.000358944
0.000383862
0.000407834
0.000430654
0.000452068
0.000471975
0.000490251
0.000506411
0.000520104
0.000530668
0.000537124
0.000538011
0.000531648
0.000515881
0.000489809
0.000452438
0.00040326
0.000346439
0.00028415
0.000220637
0.000160583
0.000108392
6.72748e-05
3.85824e-05
2.12524e-05
1.16636e-05
6.38674e-06
3.46765e-06
1.82799e-06
9.52787e-07
4.82494e-07
2.35913e-07
1.10689e-07
4.96456e-08
2.1291e-08
9.42175e-09
4.8837e-09
3.02539e-09
2.10548e-09
1.54805e-09
1.15443e-09
8.52875e-10
6.06238e-10
4.17353e-10
2.7715e-10
1.77494e-10
1.09912e-10
6.60869e-11
3.8757e-11
2.22585e-11
1.25589e-11
6.97889e-12
3.82663e-12
2.07337e-12
1.11147e-12
5.90104e-13
3.10571e-13
1.62154e-13
8.4035e-14
4.32354e-14
2.20721e-14
1.11597e-14
5.56142e-15
2.70115e-15
1.24448e-15
5.03919e-16
1.16068e-16
4.87017e-09
1.8873e-08
4.02433e-08
7.3999e-08
1.27258e-07
2.10956e-07
3.4184e-07
5.45296e-07
8.58413e-07
1.32097e-06
1.99713e-06
2.97894e-06
4.38996e-06
6.38999e-06
9.17826e-06
1.29924e-05
1.80995e-05
2.47798e-05
3.3301e-05
4.38889e-05
5.66985e-05
7.17923e-05
8.91392e-05
0.000108616
0.000130024
0.000152477
0.000176303
0.000201637
0.000227366
0.000253827
0.000280661
0.000307104
0.000333473
0.000359141
0.000384107
0.00040813
0.000431008
0.000452473
0.000472422
0.000490741
0.000506937
0.000520659
0.000531231
0.00053767
0.000538505
0.000532035
0.000516092
0.000489789
0.000452149
0.00040273
0.000345656
0.000283175
0.00021956
0.000159512
0.000107434
6.65222e-05
3.80766e-05
2.09625e-05
1.15124e-05
6.30193e-06
3.41942e-06
1.80125e-06
9.37427e-07
4.73962e-07
2.31312e-07
1.08296e-07
4.84378e-08
2.08212e-08
9.24683e-09
4.82682e-09
3.00689e-09
2.09931e-09
1.54623e-09
1.15554e-09
8.42781e-10
5.99386e-10
4.12469e-10
2.737e-10
1.75134e-10
1.08364e-10
6.51132e-11
3.81667e-11
2.19113e-11
1.23597e-11
6.86701e-12
3.76487e-12
2.03982e-12
1.09347e-12
5.80555e-13
3.05551e-13
1.59536e-13
8.26811e-14
4.25416e-14
2.17202e-14
1.09833e-14
5.47418e-15
2.65907e-15
1.22518e-15
4.96128e-16
1.14272e-16
4.86487e-09
1.88526e-08
4.01999e-08
7.39194e-08
1.27121e-07
2.1073e-07
3.41475e-07
5.4472e-07
8.57399e-07
1.31928e-06
1.99448e-06
2.97498e-06
4.38422e-06
6.38184e-06
9.16697e-06
1.29771e-05
1.80793e-05
2.47539e-05
3.32688e-05
4.38505e-05
5.66543e-05
7.17455e-05
8.90918e-05
0.00010857
0.000129984
0.000152446
0.000176284
0.000201631
0.000227381
0.000253863
0.000280725
0.000307199
0.000333602
0.000359305
0.000384309
0.000408373
0.000431288
0.000452787
0.000472772
0.000491124
0.000507345
0.000521086
0.000531664
0.000538089
0.000538882
0.000532328
0.000516263
0.000489782
0.000451934
0.000402326
0.000345051
0.000282414
0.000218714
0.000158674
0.000106685
6.59331e-05
3.76804e-05
2.07347e-05
1.13928e-05
6.23461e-06
3.3809e-06
1.78077e-06
9.25974e-07
4.67652e-07
2.27938e-07
1.06553e-07
4.75716e-08
2.04619e-08
9.11424e-09
4.7843e-09
2.99317e-09
2.09432e-09
1.54354e-09
1.153e-09
8.39381e-10
5.95958e-10
4.09458e-10
2.713e-10
1.73384e-10
1.07178e-10
6.43544e-11
3.77028e-11
2.16375e-11
1.22026e-11
6.7788e-12
3.71626e-12
2.01342e-12
1.07932e-12
5.73052e-13
3.01614e-13
1.57491e-13
8.16288e-14
4.20045e-14
2.14481e-14
1.08467e-14
5.40651e-15
2.62635e-15
1.21016e-15
4.90053e-16
1.12874e-16
4.86105e-09
1.88378e-08
4.01686e-08
7.3862e-08
1.27023e-07
2.10568e-07
3.41213e-07
5.44307e-07
8.56664e-07
1.31804e-06
1.99255e-06
2.97209e-06
4.38001e-06
6.37582e-06
9.15854e-06
1.29655e-05
1.80642e-05
2.47346e-05
3.32457e-05
4.38235e-05
5.66237e-05
7.17122e-05
8.90579e-05
0.000108539
0.000129957
0.000152426
0.000176274
0.000201631
0.000227396
0.000253894
0.000280778
0.000307275
0.000333703
0.000359432
0.000384464
0.000408555
0.0004315
0.000453026
0.000473035
0.00049141
0.000507652
0.000521407
0.00053199
0.0005384
0.000539159
0.000532543
0.00051639
0.00048978
0.000451779
0.000402035
0.000344611
0.000281858
0.000218094
0.000158054
0.000106133
6.54989e-05
3.73888e-05
2.05688e-05
1.13049e-05
6.18509e-06
3.35266e-06
1.76585e-06
9.17647e-07
4.63102e-07
2.25509e-07
1.05303e-07
4.69636e-08
2.01925e-08
9.0161e-09
4.75312e-09
2.98313e-09
2.09061e-09
1.54147e-09
1.15108e-09
8.37268e-10
5.93844e-10
4.07555e-10
2.69746e-10
1.72222e-10
1.06372e-10
6.38294e-11
3.7377e-11
2.1443e-11
1.20899e-11
6.71509e-12
3.68097e-12
1.99423e-12
1.06905e-12
5.67642e-13
2.98793e-13
1.56028e-13
8.08741e-14
4.16173e-14
2.12511e-14
1.07475e-14
5.35726e-15
2.6025e-15
1.19919e-15
4.85615e-16
1.11852e-16
4.85861e-09
1.88284e-08
4.01487e-08
7.38256e-08
1.2696e-07
2.10465e-07
3.41048e-07
5.44046e-07
8.56197e-07
1.31725e-06
1.99131e-06
2.97024e-06
4.37732e-06
6.372e-06
9.15325e-06
1.29584e-05
1.80548e-05
2.47227e-05
3.32312e-05
4.38066e-05
5.66048e-05
7.1692e-05
8.90376e-05
0.00010852
0.000129942
0.000152415
0.00017627
0.000201634
0.000227409
0.000253918
0.000280816
0.000307328
0.000333772
0.000359519
0.000384569
0.000408679
0.000431643
0.000453187
0.000473213
0.000491606
0.000507862
0.000521626
0.000532209
0.000538611
0.000539346
0.000532686
0.000516474
0.00048978
0.000451679
0.000401846
0.000344324
0.000281495
0.00021769
0.00015765
0.000105773
6.52162e-05
3.72002e-05
2.04626e-05
1.1246e-05
6.15197e-06
3.33384e-06
1.75592e-06
9.12153e-07
4.60112e-07
2.23924e-07
1.04493e-07
4.65693e-08
2.00174e-08
8.95236e-09
4.73277e-09
2.97657e-09
2.0882e-09
1.54012e-09
1.14987e-09
8.35984e-10
5.92548e-10
4.0639e-10
2.68794e-10
1.71505e-10
1.05869e-10
6.34982e-11
3.71698e-11
2.13186e-11
1.20175e-11
6.67402e-12
3.65814e-12
1.98176e-12
1.06233e-12
5.64061e-13
2.96908e-13
1.55048e-13
8.03699e-14
4.13603e-14
2.11211e-14
1.06822e-14
5.32497e-15
2.58689e-15
1.19201e-15
4.82713e-16
1.11184e-16
4.85743e-09
1.88239e-08
4.01391e-08
7.38079e-08
1.2693e-07
2.10415e-07
3.40968e-07
5.43921e-07
8.55972e-07
1.31687e-06
1.99072e-06
2.96936e-06
4.37604e-06
6.37018e-06
9.15072e-06
1.2955e-05
1.80504e-05
2.47171e-05
3.32243e-05
4.37984e-05
5.65955e-05
7.16822e-05
8.90278e-05
0.000108511
0.000129934
0.00015241
0.000176269
0.000201636
0.000227417
0.000253931
0.000280836
0.000307355
0.000333808
0.000359564
0.000384623
0.000408741
0.000431715
0.000453268
0.000473303
0.000491704
0.000507966
0.000521734
0.000532318
0.000538714
0.000539438
0.000532758
0.000516517
0.00048978
0.000451629
0.000401752
0.000344182
0.000281315
0.00021749
0.000157451
0.000105595
6.50772e-05
3.71078e-05
2.04105e-05
1.1217e-05
6.13568e-06
3.32459e-06
1.75102e-06
9.09437e-07
4.58634e-07
2.23143e-07
1.04095e-07
4.63761e-08
1.99315e-08
8.92114e-09
4.72278e-09
2.97334e-09
2.087e-09
1.53946e-09
1.14928e-09
8.35378e-10
5.91945e-10
4.05845e-10
2.6835e-10
1.71171e-10
1.05634e-10
6.33426e-11
3.70723e-11
2.12599e-11
1.19833e-11
6.65461e-12
3.64734e-12
1.97584e-12
1.05914e-12
5.6236e-13
2.96011e-13
1.5458e-13
8.01283e-14
4.12366e-14
2.10583e-14
1.06506e-14
5.30926e-15
2.57928e-15
1.18851e-15
4.81294e-16
1.10857e-16
4.85745e-09
1.8824e-08
4.01393e-08
7.38083e-08
1.26931e-07
2.10416e-07
3.4097e-07
5.43923e-07
8.55975e-07
1.31688e-06
1.99072e-06
2.96936e-06
4.37604e-06
6.37019e-06
9.15073e-06
1.2955e-05
1.80504e-05
2.47171e-05
3.32243e-05
4.37984e-05
5.65956e-05
7.16822e-05
8.90279e-05
0.000108511
0.000129934
0.00015241
0.000176269
0.000201636
0.000227417
0.000253932
0.000280836
0.000307355
0.000333808
0.000359564
0.000384623
0.000408742
0.000431716
0.000453269
0.000473304
0.000491705
0.000507967
0.000521735
0.000532319
0.000538716
0.000539439
0.000532758
0.000516517
0.00048978
0.000451629
0.000401751
0.000344181
0.000281314
0.000217488
0.000157449
0.000105594
6.50766e-05
3.71075e-05
2.04104e-05
1.12169e-05
6.13564e-06
3.32457e-06
1.75101e-06
9.09433e-07
4.58633e-07
2.23142e-07
1.04095e-07
4.63761e-08
1.99315e-08
8.92112e-09
4.72273e-09
2.97329e-09
2.08696e-09
1.53943e-09
1.14926e-09
8.35364e-10
5.91936e-10
4.05839e-10
2.68347e-10
1.71169e-10
1.05633e-10
6.3342e-11
3.7072e-11
2.12598e-11
1.19833e-11
6.65457e-12
3.64732e-12
1.97584e-12
1.05914e-12
5.62359e-13
2.96011e-13
1.5458e-13
8.01284e-14
4.12367e-14
2.10583e-14
1.06506e-14
5.30928e-15
2.57929e-15
1.18852e-15
4.81296e-16
1.10857e-16
4.85868e-09
1.88287e-08
4.01492e-08
7.38265e-08
1.26962e-07
2.10467e-07
3.41052e-07
5.44053e-07
8.56206e-07
1.31726e-06
1.99132e-06
2.97026e-06
4.37734e-06
6.37203e-06
9.15328e-06
1.29584e-05
1.80549e-05
2.47228e-05
3.32313e-05
4.38067e-05
5.66049e-05
7.16921e-05
8.90377e-05
0.00010852
0.000129942
0.000152415
0.000176271
0.000201635
0.00022741
0.000253919
0.000280817
0.000307329
0.000333773
0.000359521
0.000384571
0.000408681
0.000431645
0.00045319
0.000473217
0.00049161
0.000507866
0.00052163
0.000532213
0.000538614
0.000539349
0.000532689
0.000516476
0.00048978
0.000451678
0.000401844
0.000344321
0.000281492
0.000217687
0.000157647
0.000105771
6.52145e-05
3.71992e-05
2.0462e-05
1.12457e-05
6.15185e-06
3.33378e-06
1.75589e-06
9.12138e-07
4.60106e-07
2.23922e-07
1.04492e-07
4.6569e-08
2.00173e-08
8.95222e-09
4.73261e-09
2.97644e-09
2.08809e-09
1.54004e-09
1.14981e-09
8.35943e-10
5.92521e-10
4.06373e-10
2.68784e-10
1.71499e-10
1.05866e-10
6.34964e-11
3.71689e-11
2.13181e-11
1.20173e-11
6.67391e-12
3.65809e-12
1.98174e-12
1.06233e-12
5.64059e-13
2.96907e-13
1.55048e-13
8.037e-14
4.13604e-14
2.11212e-14
1.06823e-14
5.325e-15
2.58691e-15
1.19203e-15
4.82718e-16
1.11185e-16
4.86115e-09
1.88382e-08
4.01694e-08
7.38634e-08
1.27025e-07
2.10571e-07
3.41219e-07
5.44316e-07
8.56675e-07
1.31805e-06
1.99256e-06
2.97211e-06
4.38004e-06
6.37586e-06
9.1586e-06
1.29656e-05
1.80643e-05
2.47347e-05
3.32458e-05
4.38237e-05
5.66239e-05
7.17124e-05
8.90582e-05
0.000108539
0.000129958
0.000152426
0.000176275
0.000201632
0.000227397
0.000253895
0.000280779
0.000307276
0.000333704
0.000359433
0.000384465
0.000408557
0.000431503
0.00045303
0.00047304
0.000491416
0.000507659
0.000521414
0.000531996
0.000538407
0.000539165
0.000532547
0.000516391
0.00048978
0.000451778
0.000402032
0.000344607
0.000281853
0.000218089
0.000158048
0.000106129
6.54958e-05
3.73869e-05
2.05678e-05
1.13044e-05
6.18483e-06
3.35253e-06
1.76578e-06
9.17616e-07
4.63089e-07
2.25503e-07
1.05301e-07
4.69631e-08
2.01924e-08
9.0159e-09
4.75288e-09
2.98292e-09
2.09044e-09
1.54134e-09
1.15098e-09
8.37202e-10
5.93801e-10
4.07528e-10
2.6973e-10
1.72213e-10
1.06367e-10
6.38269e-11
3.73757e-11
2.14424e-11
1.20896e-11
6.71494e-12
3.6809e-12
1.99419e-12
1.06904e-12
5.67639e-13
2.98793e-13
1.56029e-13
8.0875e-14
4.1618e-14
2.12515e-14
1.07477e-14
5.35737e-15
2.60256e-15
1.19922e-15
4.85626e-16
1.11855e-16
4.865e-09
1.8853e-08
4.02009e-08
7.39211e-08
1.27124e-07
2.10735e-07
3.41483e-07
5.44732e-07
8.57413e-07
1.3193e-06
1.99451e-06
2.97502e-06
4.38427e-06
6.3819e-06
9.16705e-06
1.29772e-05
1.80794e-05
2.47541e-05
3.3269e-05
4.38508e-05
5.66546e-05
7.17459e-05
8.90921e-05
0.000108571
0.000129985
0.000152446
0.000176285
0.000201632
0.000227381
0.000253863
0.000280726
0.0003072
0.000333603
0.000359305
0.000384309
0.000408372
0.000431289
0.000452788
0.000472774
0.000491126
0.000507348
0.000521092
0.00053167
0.000538094
0.000538886
0.000532331
0.000516264
0.000489782
0.000451932
0.000402322
0.000345045
0.000282407
0.000218707
0.000158668
0.000106682
6.593e-05
3.76784e-05
2.07336e-05
1.13922e-05
6.23428e-06
3.38073e-06
1.78069e-06
9.25937e-07
4.67636e-07
2.27932e-07
1.06551e-07
4.75713e-08
2.04619e-08
9.114e-09
4.78399e-09
2.99288e-09
2.09409e-09
1.54337e-09
1.15286e-09
8.3929e-10
5.95899e-10
4.09421e-10
2.71278e-10
1.73371e-10
1.07171e-10
6.43508e-11
3.77009e-11
2.16366e-11
1.22021e-11
6.77856e-12
3.71614e-12
2.01337e-12
1.0793e-12
5.7304e-13
3.01608e-13
1.57488e-13
8.16275e-14
4.20039e-14
2.14479e-14
1.08466e-14
5.40648e-15
2.62634e-15
1.21015e-15
4.90052e-16
1.12874e-16
4.87032e-09
1.88735e-08
4.02445e-08
7.40011e-08
1.27261e-07
2.10962e-07
3.41848e-07
5.4531e-07
8.58431e-07
1.321e-06
1.99716e-06
2.97898e-06
4.39002e-06
6.39006e-06
9.17836e-06
1.29925e-05
1.80997e-05
2.47799e-05
3.33012e-05
4.38892e-05
5.66989e-05
7.17927e-05
8.91397e-05
0.000108616
0.000130024
0.000152478
0.000176304
0.000201638
0.000227367
0.000253828
0.000280662
0.000307105
0.000333475
0.000359143
0.000384109
0.000408134
0.00043101
0.000452474
0.000472423
0.000490741
0.000506937
0.000520659
0.000531231
0.00053767
0.000538505
0.000532035
0.000516092
0.000489787
0.000452146
0.000402724
0.000345649
0.000283166
0.000219551
0.000159503
0.000107427
6.65167e-05
3.80731e-05
2.09607e-05
1.15114e-05
6.30143e-06
3.41918e-06
1.80113e-06
9.37369e-07
4.73935e-07
2.31301e-07
1.08293e-07
4.84369e-08
2.08206e-08
9.24637e-09