/*--------------------------------*- C++ -*----------------------------------*\
  =========                 |
  \\      /  F ield         | OpenFOAM: The Open Source CFD Toolbox
   \\    /   O peration     | Website:  https://openfoam.org
    \\  /    A nd           | Version:  10
     \\/     M anipulation  |
\*---------------------------------------------------------------------------*/
FoamFile
{
    format      ascii;
    class       volScalarField;
    location    "1";
    object      C3H7;
}
// * * * * * * * * * * * * * * * * * * * * * * * * * * * * * * * * * * * * * //

dimensions      [0 0 0 0 0 0 0];

internalField   nonuniform List<scalar> 
4000
(
1.9337e-13
7.49186e-13
1.59708e-12
2.93594e-12
5.04832e-12
8.36977e-12
1.35702e-11
2.1671e-11
3.42145e-11
5.28632e-11
8.02328e-11
1.20141e-10
1.77766e-10
2.59853e-10
3.74853e-10
5.32887e-10
7.45268e-10
1.02369e-09
1.37898e-09
1.81971e-09
2.3507e-09
2.97136e-09
3.67351e-09
4.44054e-09
5.2302e-09
5.95256e-09
6.49781e-09
6.66315e-09
6.18955e-09
4.97502e-09
3.42889e-09
2.16538e-09
1.36281e-09
8.86918e-10
6.04926e-10
4.35051e-10
3.30564e-10
2.65175e-10
2.24264e-10
1.99573e-10
1.86943e-10
1.84603e-10
1.92125e-10
2.10297e-10
2.40561e-10
2.8486e-10
3.4267e-10
4.1512e-10
4.97427e-10
5.89197e-10
6.78783e-10
7.57225e-10
8.09644e-10
8.18176e-10
7.67441e-10
6.52254e-10
4.8598e-10
3.06829e-10
1.70939e-10
9.41391e-11
5.19273e-11
2.84089e-11
1.53342e-11
8.12523e-12
4.17219e-12
2.08752e-12
1.00739e-12
4.66882e-13
2.00606e-13
8.4236e-14
3.54088e-14
1.71551e-14
1.31659e-14
1.63866e-14
1.78821e-14
1.37419e-14
8.87826e-15
5.35316e-15
3.11528e-15
1.78105e-15
1.00969e-15
5.68812e-16
3.17988e-16
1.76047e-16
9.63986e-17
5.21938e-17
2.79553e-17
1.48256e-17
7.79462e-18
4.0662e-18
2.10645e-18
1.08431e-18
5.54745e-19
2.8193e-19
1.42055e-19
7.06151e-20
3.42377e-20
1.5756e-20
6.37556e-21
1.46825e-21
1.93525e-13
7.49818e-13
1.59863e-12
2.9395e-12
5.05603e-12
8.38523e-12
1.35988e-11
2.17196e-11
3.42895e-11
5.29824e-11
8.03914e-11
1.20309e-10
1.77869e-10
2.59728e-10
3.74194e-10
5.31146e-10
7.41533e-10
1.01695e-09
1.36829e-09
1.80435e-09
2.33043e-09
2.94685e-09
3.64682e-09
4.40885e-09
5.19846e-09
5.92695e-09
6.48969e-09
6.68994e-09
6.26508e-09
5.08872e-09
3.53407e-09
2.23323e-09
1.40269e-09
9.09502e-10
6.18062e-10
4.42978e-10
3.3555e-10
2.6841e-10
2.26464e-10
2.0112e-10
1.88058e-10
1.85435e-10
1.92784e-10
2.10907e-10
2.41231e-10
2.85721e-10
3.43909e-10
4.16983e-10
5.00043e-10
5.92739e-10
6.8307e-10
7.6209e-10
8.14519e-10
8.22055e-10
7.69189e-10
6.50986e-10
4.81801e-10
3.01739e-10
1.67685e-10
9.24143e-11
5.09389e-11
2.78357e-11
1.49988e-11
7.92805e-12
4.06179e-12
2.02523e-12
9.72671e-13
4.4887e-13
1.91779e-13
8.03002e-14
3.38667e-14
1.69118e-14
1.37701e-14
1.75007e-14
1.81301e-14
1.35121e-14
8.6143e-15
5.16323e-15
2.99934e-15
1.71753e-15
9.77142e-16
5.52949e-16
3.10623e-16
1.72816e-16
9.50808e-17
5.17092e-17
2.78067e-17
1.47947e-17
7.79455e-18
4.07109e-18
2.11013e-18
1.08622e-18
5.55476e-19
2.82069e-19
1.42e-19
7.05237e-20
3.41648e-20
1.5712e-20
6.35511e-21
1.46306e-21
1.94084e-13
7.52067e-13
1.60377e-12
2.94975e-12
5.07503e-12
8.41861e-12
1.36544e-11
2.18071e-11
3.44174e-11
5.3167e-11
8.06298e-11
1.20576e-10
1.7811e-10
2.59806e-10
3.73858e-10
5.29963e-10
7.39034e-10
1.01247e-09
1.36094e-09
1.79315e-09
2.31439e-09
2.92508e-09
3.61982e-09
4.3805e-09
5.17143e-09
5.90664e-09
6.4861e-09
6.71735e-09
6.33535e-09
5.19453e-09
3.64306e-09
2.31205e-09
1.45255e-09
9.3911e-10
6.35869e-10
4.5401e-10
3.42639e-10
2.73109e-10
2.29718e-10
2.03451e-10
1.89772e-10
1.86741e-10
1.93848e-10
2.11904e-10
2.423e-10
2.87087e-10
3.45907e-10
4.19923e-10
5.04282e-10
5.98428e-10
6.8995e-10
7.70041e-10
8.22389e-10
8.28196e-10
7.71719e-10
6.48551e-10
4.74808e-10
2.93377e-10
1.62492e-10
8.96419e-11
4.93446e-11
2.69116e-11
1.44508e-11
7.60603e-12
3.88532e-12
1.92681e-12
9.19817e-13
4.21294e-13
1.78835e-13
7.4579e-14
3.18058e-14
1.66713e-14
1.47194e-14
1.89241e-14
1.83216e-14
1.32709e-14
8.36148e-15
4.99104e-15
2.89858e-15
1.66327e-15
9.48965e-16
5.38514e-16
3.03281e-16
1.69118e-16
9.3247e-17
5.08162e-17
2.73792e-17
1.45945e-17
7.70335e-18
4.02998e-18
2.09144e-18
1.07754e-18
5.51374e-19
2.8013e-19
1.41023e-19
7.00161e-20
3.39027e-20
1.55835e-20
6.30042e-21
1.45003e-21
1.94276e-13
7.52815e-13
1.60539e-12
2.95276e-12
5.0801e-12
8.42632e-12
1.36646e-11
2.18171e-11
3.44195e-11
5.31517e-11
8.05578e-11
1.20364e-10
1.77596e-10
2.58785e-10
3.72042e-10
5.27016e-10
7.34494e-10
1.00579e-09
1.35162e-09
1.7808e-09
2.29897e-09
2.90708e-09
3.5988e-09
4.35851e-09
5.15168e-09
5.89273e-09
6.48584e-09
6.74402e-09
6.40254e-09
5.3012e-09
3.75388e-09
2.39266e-09
1.50331e-09
9.70211e-10
6.54538e-10
4.65726e-10
3.50251e-10
2.78227e-10
2.33315e-10
2.06079e-10
1.91768e-10
1.88345e-10
1.95212e-10
2.13203e-10
2.43781e-10
2.89006e-10
3.48645e-10
4.2386e-10
5.09646e-10
6.05441e-10
6.98422e-10
7.79413e-10
8.31488e-10
8.35088e-10
7.73989e-10
6.44707e-10
4.6552e-10
2.82996e-10
1.56336e-10
8.63148e-11
4.74561e-11
2.58815e-11
1.37289e-11
7.19878e-12
3.66745e-12
1.80757e-12
8.56522e-13
3.88846e-13
1.64905e-13
6.85541e-14
2.96176e-14
1.6599e-14
1.60423e-14
2.05905e-14
1.85587e-14
1.30265e-14
8.08815e-15
4.79598e-15
2.77859e-15
1.59441e-15
9.10548e-16
5.17338e-16
2.91725e-16
1.62895e-16
8.99478e-17
4.9096e-17
2.64963e-17
1.41477e-17
7.48008e-18
3.91947e-18
2.0371e-18
1.05088e-18
5.38268e-19
2.73651e-19
1.37843e-19
6.84724e-20
3.31698e-20
1.52524e-20
6.16843e-21
1.4199e-21
1.94152e-13
7.52335e-13
1.60437e-12
2.9508e-12
5.07642e-12
8.41924e-12
1.36505e-11
2.17887e-11
3.43616e-11
5.30348e-11
8.034e-11
1.1998e-10
1.76962e-10
2.57754e-10
3.70403e-10
5.24482e-10
7.30712e-10
1.00037e-09
1.34417e-09
1.77107e-09
2.28693e-09
2.89306e-09
3.58371e-09
4.34257e-09
5.13653e-09
5.88227e-09
6.48787e-09
6.77175e-09
6.46693e-09
5.40162e-09
3.8583e-09
2.4694e-09
1.55163e-09
1.00016e-09
6.73113e-10
4.77216e-10
3.57675e-10
2.83237e-10
2.36863e-10
2.087e-10
1.938e-10
1.90011e-10
1.96705e-10
2.14736e-10
2.45581e-10
2.91334e-10
3.51855e-10
4.28284e-10
5.15566e-10
6.13129e-10
7.07757e-10
7.89691e-10
8.41227e-10
8.4192e-10
7.75473e-10
6.39312e-10
4.54414e-10
2.71533e-10
1.49825e-10
8.26305e-11
4.53394e-11
2.46369e-11
1.30091e-11
6.78316e-12
3.43922e-12
1.68409e-12
7.91541e-13
3.54443e-13
1.50546e-13
6.25802e-14
2.76701e-14
1.67963e-14
1.77446e-14
2.20154e-14
1.8723e-14
1.25909e-14
7.74664e-15
4.58133e-15
2.65518e-15
1.52613e-15
8.73194e-16
4.96939e-16
2.80617e-16
1.56889e-16
8.67354e-17
4.73984e-17
2.56097e-17
1.36895e-17
7.24536e-18
3.80006e-18
1.97665e-18
1.02039e-18
5.22933e-19
2.65969e-19
1.34019e-19
6.65926e-20
3.22673e-20
1.48405e-20
6.00283e-21
1.38182e-21
1.93722e-13
7.50674e-13
1.60081e-12
2.94416e-12
5.06466e-12
8.39879e-12
1.36149e-11
2.17257e-11
3.4253e-11
5.28533e-11
8.00521e-11
1.19544e-10
1.76299e-10
2.56741e-10
3.68873e-10
5.22212e-10
7.27423e-10
9.95706e-10
1.33773e-09
1.76239e-09
2.27556e-09
2.87846e-09
3.56584e-09
4.32374e-09
5.12005e-09
5.87185e-09
6.48983e-09
6.79597e-09
6.52323e-09
5.48956e-09
3.95068e-09
2.53814e-09
1.59451e-09
1.02639e-09
6.88888e-10
4.87207e-10
3.64254e-10
2.87762e-10
2.40139e-10
2.11203e-10
1.95795e-10
1.91721e-10
1.98319e-10
2.1647e-10
2.47692e-10
2.94095e-10
3.55725e-10
4.33322e-10
5.22428e-10
6.22029e-10
7.18314e-10
8.00918e-10
8.51283e-10
8.48383e-10
7.75816e-10
6.32311e-10
4.41915e-10
2.59662e-10
1.43176e-10
7.8888e-11
4.32178e-11
2.34353e-11
1.23396e-11
6.40832e-12
3.23059e-12
1.57116e-12
7.3204e-13
3.24533e-13
1.36987e-13
5.69357e-14
2.59241e-14
1.71686e-14
1.94365e-14
2.29777e-14
1.85535e-14
1.221e-14
7.44772e-15
4.38905e-15
2.54141e-15
1.46113e-15
8.36487e-16
4.76313e-16
2.69108e-16
1.50539e-16
8.32808e-17
4.55473e-17
2.46323e-17
1.31802e-17
6.98296e-18
3.66613e-18
1.90874e-18
9.86008e-19
5.05577e-19
2.57274e-19
1.29704e-19
6.44853e-20
3.12641e-20
1.43859e-20
5.82058e-21
1.33994e-21
1.93015e-13
7.47925e-13
1.59488e-12
2.93308e-12
5.0453e-12
8.36634e-12
1.35624e-11
2.16443e-11
3.4123e-11
5.26387e-11
7.97188e-11
1.19018e-10
1.75484e-10
2.55509e-10
3.67051e-10
5.19579e-10
7.23724e-10
9.90649e-10
1.33101e-09
1.75374e-09
2.26522e-09
2.8666e-09
3.55332e-09
4.31119e-09
5.10922e-09
5.86572e-09
6.49373e-09
6.81868e-09
6.5723e-09
5.56491e-09
4.0315e-09
2.60014e-09
1.63016e-09
1.04843e-09
7.02665e-10
4.95904e-10
3.69971e-10
2.9168e-10
2.43e-10
2.13423e-10
1.97641e-10
1.93372e-10
1.99948e-10
2.18291e-10
2.50019e-10
2.96869e-10
3.59669e-10
4.38334e-10
5.29192e-10
6.30655e-10
7.28396e-10
8.11524e-10
8.60648e-10
8.53938e-10
7.75042e-10
6.24205e-10
4.28876e-10
2.48207e-10
1.36823e-10
7.53182e-11
4.11989e-11
2.22878e-11
1.17038e-11
6.0526e-12
3.03799e-12
1.47062e-12
6.84736e-13
2.94811e-13
1.23976e-13
5.17929e-14
2.4473e-14
1.77172e-14
2.11872e-14
2.35176e-14
1.82537e-14
1.18171e-14
7.15836e-15
4.20499e-15
2.43359e-15
1.39995e-15
8.02144e-16
4.57115e-16
2.58434e-16
1.44657e-16
8.00765e-17
4.38233e-17
2.37162e-17
1.26991e-17
6.73305e-18
3.5377e-18
1.84356e-18
9.53553e-19
4.89617e-19
2.49406e-19
1.25791e-19
6.25487e-20
3.03248e-20
1.39529e-20
5.6452e-21
1.29955e-21
1.9221e-13
7.44793e-13
1.58811e-12
2.92036e-12
5.02277e-12
8.32758e-12
1.34967e-11
2.15337e-11
3.39426e-11
5.23455e-11
7.92184e-11
1.1822e-10
1.74258e-10
2.53678e-10
3.64389e-10
5.15821e-10
7.18595e-10
9.83893e-10
1.32248e-09
1.74347e-09
2.25311e-09
2.85331e-09
3.54005e-09
4.29923e-09
5.09952e-09
5.86066e-09
6.4987e-09
6.84107e-09
6.62038e-09
5.63789e-09
4.10181e-09
2.65171e-09
1.66157e-09
1.06746e-09
7.14468e-10
5.03347e-10
3.74889e-10
2.95262e-10
2.45648e-10
2.15396e-10
1.9936e-10
1.94912e-10
2.01487e-10
2.20076e-10
2.52238e-10
2.99808e-10
3.63636e-10
4.43195e-10
5.35631e-10
6.38785e-10
7.37918e-10
8.21453e-10
8.69158e-10
8.58546e-10
7.7345e-10
6.15726e-10
4.16187e-10
2.37777e-10
1.31024e-10
7.20567e-11
3.93461e-11
2.1234e-11
1.11271e-11
5.73425e-12
2.864e-12
1.37911e-12
6.37856e-13
2.71661e-13
1.13732e-13
4.78229e-14
2.34589e-14
1.84109e-14
2.28085e-14
2.38379e-14
1.78889e-14
1.14291e-14
6.88682e-15
4.03685e-15
2.33648e-15
1.34529e-15
7.71576e-16
4.40038e-16
2.48923e-16
1.39396e-16
7.71949e-17
4.22632e-17
2.28814e-17
1.22574e-17
6.50176e-18
3.41759e-18
1.78155e-18
9.21601e-19
4.73258e-19
2.41173e-19
1.21761e-19
6.05887e-20
2.93848e-20
1.35222e-20
5.47149e-21
1.25963e-21
1.91474e-13
7.41947e-13
1.58202e-12
2.90906e-12
5.00304e-12
8.29421e-12
1.34413e-11
2.14428e-11
3.37959e-11
5.20875e-11
7.88152e-11
1.17607e-10
1.73351e-10
2.52364e-10
3.62524e-10
5.13235e-10
7.15111e-10
9.79348e-10
1.31677e-09
1.73684e-09
2.24525e-09
2.84494e-09
3.5309e-09
4.28967e-09
5.09214e-09
5.85768e-09
6.50357e-09
6.85935e-09
6.6578e-09
5.6963e-09
4.15007e-09
2.68972e-09
1.68592e-09
1.08267e-09
7.24066e-10
5.09466e-10
3.79003e-10
2.98175e-10
2.47797e-10
2.17083e-10
2.00818e-10
1.96275e-10
2.02895e-10
2.21807e-10
2.54486e-10
3.02818e-10
3.67776e-10
4.48581e-10
5.42512e-10
6.47105e-10
7.47148e-10
8.30711e-10
8.76762e-10
8.62287e-10
7.71336e-10
6.07379e-10
4.0446e-10
2.28707e-10
1.25968e-10
6.92094e-11
3.77341e-11
2.03152e-11
1.06437e-11
5.46527e-12
2.71797e-12
1.30176e-12
5.98715e-13
2.53081e-13
1.05496e-13
4.46434e-14
2.27505e-14
1.90864e-14
2.40457e-14
2.38565e-14
1.74741e-14
1.10764e-14
6.65942e-15
3.9022e-15
2.26009e-15
1.30234e-15
7.47337e-16
4.26304e-16
2.41147e-16
1.35024e-16
7.47629e-17
4.09269e-17
2.21567e-17
1.18695e-17
6.29651e-18
3.31009e-18
1.72568e-18
8.92709e-19
4.58425e-19
2.33626e-19
1.17934e-19
5.86901e-20
2.84725e-20
1.31065e-20
5.30427e-21
1.22129e-21
1.90864e-13
7.39611e-13
1.57709e-12
2.90006e-12
4.98759e-12
8.26845e-12
1.33989e-11
2.13731e-11
3.36799e-11
5.18899e-11
7.84961e-11
1.1711e-10
1.72599e-10
2.51259e-10
3.60951e-10
5.11061e-10
7.12188e-10
9.75521e-10
1.31193e-09
1.73072e-09
2.23855e-09
2.83696e-09
3.52268e-09
4.28266e-09
5.08692e-09
5.85597e-09
6.50832e-09
6.87462e-09
6.68763e-09
5.7401e-09
4.19402e-09
2.72243e-09
1.70641e-09
1.0953e-09
7.32017e-10
5.14646e-10
3.82342e-10
3.00535e-10
2.49582e-10
2.18506e-10
2.02077e-10
1.97505e-10
2.04202e-10
2.23365e-10
2.56496e-10
3.05572e-10
3.71456e-10
4.53407e-10
5.48613e-10
6.54379e-10
7.55361e-10
8.38924e-10
8.83392e-10
8.65244e-10
7.68974e-10
5.99579e-10
3.93992e-10
2.21049e-10
1.21646e-10
6.67597e-11
3.63271e-11
1.94931e-11
1.02249e-11
5.2321e-12
2.59165e-12
1.23554e-12
5.65207e-13
2.38066e-13
9.90426e-14
4.22541e-14
2.23484e-14
1.98819e-14
2.52625e-14
2.39209e-14
1.71901e-14
1.08151e-14
6.48205e-15
3.79298e-15
2.19591e-15
1.26514e-15
7.25813e-16
4.13866e-16
2.34004e-16
1.30965e-16
7.24885e-17
3.96714e-17
2.14742e-17
1.15036e-17
6.10277e-18
3.2086e-18
1.67292e-18
8.65417e-19
4.44464e-19
2.26552e-19
1.14411e-19
5.69622e-20
2.76438e-20
1.2728e-20
5.15175e-21
1.1863e-21
1.90257e-13
7.37258e-13
1.57206e-12
2.89075e-12
4.97151e-12
8.24182e-12
1.33562e-11
2.13068e-11
3.35815e-11
5.17323e-11
7.82518e-11
1.16737e-10
1.7202e-10
2.50384e-10
3.59667e-10
5.09255e-10
7.09764e-10
9.72402e-10
1.30815e-09
1.72606e-09
2.2328e-09
2.83082e-09
3.5166e-09
4.27701e-09
5.08314e-09
5.85535e-09
6.51316e-09
6.88803e-09
6.71268e-09
5.77626e-09
4.23091e-09
2.74976e-09
1.72322e-09
1.10552e-09
7.38334e-10
5.18609e-10
3.84954e-10
3.02414e-10
2.51021e-10
2.19666e-10
2.03113e-10
1.98525e-10
2.05326e-10
2.24739e-10
2.58313e-10
3.08025e-10
3.7476e-10
4.57749e-10
5.54097e-10
6.60916e-10
7.62626e-10
8.46018e-10
8.88887e-10
8.67445e-10
7.66483e-10
5.92509e-10
3.85058e-10
2.1515e-10
1.17595e-10
6.45133e-11
3.50776e-11
1.87918e-11
9.86421e-12
5.01647e-12
2.47769e-12
1.17685e-12
5.35559e-13
2.25563e-13
9.37283e-14
4.03296e-14
2.21005e-14
2.06456e-14
2.62272e-14
2.39714e-14
1.69806e-14
1.06158e-14
6.34205e-15
3.70378e-15
2.14184e-15
1.23305e-15
7.06954e-16
4.02859e-16
2.27641e-16
1.27333e-16
7.04463e-17
3.85413e-17
2.08583e-17
1.11726e-17
5.92732e-18
3.11693e-18
1.62595e-18
8.41898e-19
4.3281e-19
2.20772e-19
1.11499e-19
5.55009e-20
2.69298e-20
1.23979e-20
5.01784e-21
1.15546e-21
1.89726e-13
7.35208e-13
1.56769e-12
2.8827e-12
4.95759e-12
8.21858e-12
1.33182e-11
2.12457e-11
3.34766e-11
5.15591e-11
7.79873e-11
1.16358e-10
1.71513e-10
2.49686e-10
3.58686e-10
5.07833e-10
7.0779e-10
9.69816e-10
1.3048e-09
1.72223e-09
2.22846e-09
2.82624e-09
3.51222e-09
4.27331e-09
5.0809e-09
5.85576e-09
6.51809e-09
6.89988e-09
6.7337e-09
5.80583e-09
4.26071e-09
2.77162e-09
1.73687e-09
1.11375e-09
7.43371e-10
5.21821e-10
3.87092e-10
3.03957e-10
2.52219e-10
2.20674e-10
2.04032e-10
1.99446e-10
2.06354e-10
2.26006e-10
2.59986e-10
3.10295e-10
3.77813e-10
4.61741e-10
5.59092e-10
6.6675e-10
7.69086e-10
8.52319e-10
8.93698e-10
8.69169e-10
7.63976e-10
5.85929e-10
3.76837e-10
2.09555e-10
1.14639e-10
6.28233e-11
3.41104e-11
1.82408e-11
9.55173e-12
4.85356e-12
2.3891e-12
1.12994e-12
5.11581e-13
2.15567e-13
8.95141e-14
3.88465e-14
2.20093e-14
2.14323e-14
2.70851e-14
2.40291e-14
1.68162e-14
1.04536e-14
6.22531e-15
3.62903e-15
2.09655e-15
1.20616e-15
6.91092e-16
3.93558e-16
2.22237e-16
1.24235e-16
6.86966e-17
3.75692e-17
2.03263e-17
1.08851e-17
5.77303e-18
3.03482e-18
1.58282e-18
8.19712e-19
4.21405e-19
2.14971e-19
1.08618e-19
5.40935e-20
2.6257e-20
1.20913e-20
4.89446e-21
1.12714e-21
1.89279e-13
7.33485e-13
1.56402e-12
2.87595e-12
4.94597e-12
8.19926e-12
1.32869e-11
2.11957e-11
3.33893e-11
5.14129e-11
7.77573e-11
1.1601e-10
1.70995e-10
2.48961e-10
3.5772e-10
5.06633e-10
7.06238e-10
9.67785e-10
1.30224e-09
1.71903e-09
2.22498e-09
2.82273e-09
3.50872e-09
4.27056e-09
5.07956e-09
5.85676e-09
6.52286e-09
6.91021e-09
6.75122e-09
5.82979e-09
4.28449e-09
2.78891e-09
1.74744e-09
1.1202e-09
7.47465e-10
5.24441e-10
3.88821e-10
3.052e-10
2.53192e-10
2.2147e-10
2.04775e-10
2.00227e-10
2.07269e-10
2.27175e-10
2.6155e-10
3.12417e-10
3.80651e-10
4.65388e-10
5.63589e-10
6.71962e-10
7.74679e-10
8.5759e-10
8.97551e-10
8.70293e-10
7.61389e-10
5.79802e-10
3.69563e-10
2.04831e-10
1.12196e-10
6.14465e-11
3.33273e-11
1.77946e-11
9.29717e-12
4.72072e-12
2.31695e-12
1.09206e-12
4.92176e-13
2.07586e-13
8.61375e-14
3.76956e-14
2.20148e-14
2.21799e-14
2.77623e-14
2.40559e-14
1.66628e-14
1.03088e-14
6.12289e-15
3.5636e-15
2.05672e-15
1.18237e-15
6.77013e-16
3.85287e-16
2.1743e-16
1.2148e-16
6.71437e-17
3.67085e-17
1.98577e-17
1.06355e-17
5.64407e-18
2.96945e-18
1.54927e-18
8.02313e-19
4.12468e-19
2.10404e-19
1.06289e-19
5.29276e-20
2.56893e-20
1.18293e-20
4.78827e-21
1.10268e-21
1.88912e-13
7.3207e-13
1.56102e-12
2.87044e-12
4.9365e-12
8.1836e-12
1.32616e-11
2.11558e-11
3.33185e-11
5.12935e-11
7.75696e-11
1.15728e-10
1.70583e-10
2.48373e-10
3.56899e-10
5.05508e-10
7.04816e-10
9.66067e-10
1.30019e-09
1.71665e-09
2.22235e-09
2.81997e-09
3.5063e-09
4.26877e-09
5.07903e-09
5.8582e-09
6.52738e-09
6.91911e-09
6.7657e-09
5.84906e-09
4.30333e-09
2.80258e-09
1.75597e-09
1.12538e-09
7.50613e-10
5.2643e-10
3.90144e-10
3.06163e-10
2.53942e-10
2.22115e-10
2.05389e-10
2.00873e-10
2.08016e-10
2.28119e-10
2.62834e-10
3.14216e-10
3.83179e-10
4.68671e-10
5.67632e-10
6.76507e-10
7.79498e-10
8.6207e-10
9.0069e-10
8.70979e-10
7.58858e-10
5.74356e-10
3.63312e-10
2.00872e-10
1.10144e-10
6.02983e-11
3.26805e-11
1.74175e-11
9.08165e-12
4.60308e-12
2.25344e-12
1.05881e-12
4.75097e-13
2.00643e-13
8.32743e-14
3.67285e-14
2.20426e-14
2.28377e-14
2.82756e-14
2.40489e-14
1.65155e-14
1.01721e-14
6.02659e-15
3.50228e-15
2.01953e-15
1.16029e-15
6.64029e-16
3.77715e-16
2.13061e-16
1.18993e-16
6.57483e-17
3.59373e-17
1.94373e-17
1.04089e-17
5.52277e-18
2.90559e-18
1.51706e-18
7.86e-19
4.04178e-19
2.06159e-19
1.04155e-19
5.18699e-20
2.5178e-20
1.15946e-20
4.69337e-21
1.08084e-21
1.88614e-13
7.30923e-13
1.55858e-12
2.86597e-12
4.92884e-12
8.17096e-12
1.32413e-11
2.11238e-11
3.32614e-11
5.11972e-11
7.74189e-11
1.15503e-10
1.70256e-10
2.47909e-10
3.56258e-10
5.04645e-10
7.03698e-10
9.64603e-10
1.29846e-09
1.7148e-09
2.22039e-09
2.81804e-09
3.50459e-09
4.26766e-09
5.07902e-09
5.85988e-09
6.53163e-09
6.92693e-09
6.7776e-09
5.86426e-09
4.31784e-09
2.81285e-09
1.76218e-09
1.12915e-09
7.52917e-10
5.27911e-10
3.91131e-10
3.06885e-10
2.54521e-10
2.22609e-10
2.05858e-10
2.01367e-10
2.08597e-10
2.28838e-10
2.63743e-10
3.15336e-10
3.85943e-10
4.7183e-10
5.71278e-10
6.80488e-10
7.83664e-10
8.65841e-10
9.03224e-10
8.71356e-10
7.56498e-10
5.69634e-10
3.58075e-10
1.97679e-10
1.08489e-10
5.94059e-11
3.2254e-11
1.70026e-11
8.86173e-12
4.48747e-12
2.19381e-12
1.02871e-12
4.60149e-13
1.94731e-13
8.08403e-14
3.59252e-14
2.20806e-14
2.33945e-14
2.86437e-14
2.40109e-14
1.63462e-14
1.00225e-14
5.92496e-15
3.43979e-15
1.98281e-15
1.13908e-15
6.51847e-16
3.70749e-16
2.09106e-16
1.1677e-16
6.45138e-17
3.52602e-17
1.90704e-17
1.02122e-17
5.41812e-18
2.85011e-18
1.48745e-18
7.70551e-19
3.96286e-19
2.02227e-19
1.02206e-19
5.09136e-20
2.47192e-20
1.1385e-20
4.60897e-21
1.06145e-21
1.88377e-13
7.30009e-13
1.55664e-12
2.86241e-12
4.92271e-12
8.16081e-12
1.32248e-11
2.10977e-11
3.32157e-11
5.11207e-11
7.72997e-11
1.15325e-10
1.69999e-10
2.47546e-10
3.55758e-10
5.03977e-10
7.02809e-10
9.63522e-10
1.29715e-09
1.71329e-09
2.21884e-09
2.81656e-09
3.50338e-09
4.267e-09
5.07929e-09
5.86152e-09
6.53528e-09
6.93329e-09
6.78724e-09
5.87651e-09
4.32927e-09
2.82099e-09
1.76713e-09
1.13206e-09
7.54696e-10
5.29052e-10
3.9191e-10
3.07464e-10
2.54986e-10
2.23014e-10
2.06257e-10
2.01808e-10
2.0913e-10
2.29532e-10
2.64701e-10
3.16683e-10
3.87785e-10
4.74191e-10
5.74131e-10
6.83655e-10
7.86993e-10
8.68857e-10
9.05234e-10
8.71604e-10
7.54512e-10
5.65736e-10
3.53808e-10
1.95103e-10
1.07146e-10
5.86519e-11
3.18241e-11
1.67638e-11
8.7242e-12
4.41072e-12
2.15226e-12
1.007e-12
4.49108e-13
1.90354e-13
7.90397e-14
3.53354e-14
2.21238e-14
2.3821e-14
2.89162e-14
2.40495e-14
1.6017e-14
9.82435e-15
5.81349e-15
3.37859e-15
1.9492e-15
1.12044e-15
6.41399e-16
3.6486e-16
2.05789e-16
1.14913e-16
6.34843e-17
3.4696e-17
1.87651e-17
1.00488e-17
5.33161e-18
2.8047e-18
1.4638e-18
7.58332e-19
3.90028e-19
1.99054e-19
1.00614e-19
5.01267e-20
2.43396e-20
1.12109e-20
4.53867e-21
1.04524e-21
1.88196e-13
7.29311e-13
1.55516e-12
2.85969e-12
4.91806e-12
8.15313e-12
1.32125e-11
2.10782e-11
3.31811e-11
5.10623e-11
7.72085e-11
1.1519e-10
1.69804e-10
2.47272e-10
3.55383e-10
5.03478e-10
7.0216e-10
9.62717e-10
1.29619e-09
1.71221e-09
2.2177e-09
2.81551e-09
3.50257e-09
4.26665e-09
5.07971e-09
5.86304e-09
6.53838e-09
6.93837e-09
6.79458e-09
5.88544e-09
4.33754e-09
2.82678e-09
1.77064e-09
1.13416e-09
7.55993e-10
5.29897e-10
3.92482e-10
3.0789e-10
2.55336e-10
2.23328e-10
2.06572e-10
2.02159e-10
2.09561e-10
2.301e-10
2.65481e-10
3.17756e-10
3.89172e-10
4.7598e-10
5.76323e-10
6.86107e-10
7.8959e-10
8.71232e-10
9.06838e-10
8.7182e-10
7.52957e-10
5.62658e-10
3.50441e-10
1.93079e-10
1.06087e-10
5.80543e-11
3.14813e-11
1.65814e-11
8.62187e-12
4.35414e-12
2.12188e-12
9.91235e-13
4.41213e-13
1.87004e-13
7.76655e-14
3.48987e-14
2.21869e-14
2.41971e-14
2.91207e-14
2.398e-14
1.58823e-14
9.71736e-15
5.74343e-15
3.33613e-15
1.92448e-15
1.10626e-15
6.33296e-16
3.60245e-16
2.03178e-16
1.13449e-16
6.2673e-17
3.4252e-17
1.85248e-17
9.92026e-18
5.26352e-18
2.769e-18
1.44527e-18
7.488e-19
3.85164e-19
1.9659e-19
9.93776e-20
4.95144e-20
2.40436e-20
1.1075e-20
4.48371e-21
1.03259e-21
1.88066e-13
7.2881e-13
1.5541e-12
2.85774e-12
4.91472e-12
8.14763e-12
1.32037e-11
2.10644e-11
3.31561e-11
5.10199e-11
7.71422e-11
1.15091e-10
1.69661e-10
2.4707e-10
3.55104e-10
5.03101e-10
7.0168e-10
9.62122e-10
1.2955e-09
1.71146e-09
2.21693e-09
2.8148e-09
3.50205e-09
4.2665e-09
5.08013e-09
5.86428e-09
6.54074e-09
6.94217e-09
6.79994e-09
5.89185e-09
4.34335e-09
2.8308e-09
1.77307e-09
1.13562e-09
7.56895e-10
5.30485e-10
3.92885e-10
3.08198e-10
2.55591e-10
2.23558e-10
2.06806e-10
2.02423e-10
2.09886e-10
2.30523e-10
2.66059e-10
3.18548e-10
3.90189e-10
4.77295e-10
5.77936e-10
6.87915e-10
7.91514e-10
8.72998e-10
9.08036e-10
8.71993e-10
7.51809e-10
5.60374e-10
3.4795e-10
1.91609e-10
1.0531e-10
5.76155e-11
3.12301e-11
1.64486e-11
8.54752e-12
4.31338e-12
2.10004e-12
9.79948e-13
4.35679e-13
1.84488e-13
7.66447e-14
3.4579e-14
2.22461e-14
2.44946e-14
2.92709e-14
2.39268e-14
1.5794e-14
9.64873e-15
5.69837e-15
3.30857e-15
1.90815e-15
1.0967e-15
6.27735e-16
3.57028e-16
2.01333e-16
1.12404e-16
6.20891e-17
3.39305e-17
1.83504e-17
9.82704e-18
5.21444e-18
2.7434e-18
1.43199e-18
7.41947e-19
3.81649e-19
1.94803e-19
9.84774e-20
4.90675e-20
2.38273e-20
1.09755e-20
4.44348e-21
1.02333e-21
1.87983e-13
7.28491e-13
1.55342e-12
2.85651e-12
4.91261e-12
8.14415e-12
1.31981e-11
2.10556e-11
3.31402e-11
5.09929e-11
7.71e-11
1.15028e-10
1.69571e-10
2.46943e-10
3.5493e-10
5.0287e-10
7.01385e-10
9.61761e-10
1.29508e-09
1.711e-09
2.21647e-09
2.81439e-09
3.50177e-09
4.26647e-09
5.08049e-09
5.86518e-09
6.54239e-09
6.94477e-09
6.80356e-09
5.89611e-09
4.34715e-09
2.83338e-09
1.77462e-09
1.13656e-09
7.57471e-10
5.3086e-10
3.93143e-10
3.08395e-10
2.55758e-10
2.23711e-10
2.06962e-10
2.02599e-10
2.10103e-10
2.30808e-10
2.66448e-10
3.19076e-10
3.9086e-10
4.7816e-10
5.78998e-10
6.89106e-10
7.92784e-10
8.74168e-10
9.08837e-10
8.72131e-10
7.51105e-10
5.58904e-10
3.46349e-10
1.90676e-10
1.04792e-10
5.73241e-11
3.10643e-11
1.63613e-11
8.49896e-12
4.28682e-12
2.0859e-12
9.72676e-13
4.32108e-13
1.82859e-13
7.59837e-14
3.43754e-14
2.2289e-14
2.46917e-14
2.93657e-14
2.38924e-14
1.57394e-14
9.60621e-15
5.67067e-15
3.29171e-15
1.89814e-15
1.09079e-15
6.24254e-16
3.54995e-16
2.00159e-16
1.11735e-16
6.17141e-17
3.37232e-17
1.82374e-17
9.76621e-18
5.18202e-18
2.72633e-18
1.42311e-18
7.37381e-19
3.79321e-19
1.93624e-19
9.78863e-20
4.87748e-20
2.36857e-20
1.09105e-20
4.41716e-21
1.01727e-21
1.87943e-13
7.28337e-13
1.55309e-12
2.85591e-12
4.91159e-12
8.14248e-12
1.31954e-11
2.10515e-11
3.31326e-11
5.098e-11
7.70797e-11
1.14998e-10
1.69527e-10
2.46882e-10
3.54847e-10
5.02761e-10
7.01246e-10
9.6159e-10
1.29489e-09
1.71078e-09
2.21625e-09
2.8142e-09
3.50166e-09
4.26647e-09
5.0807e-09
5.86566e-09
6.54325e-09
6.94608e-09
6.80534e-09
5.89817e-09
4.34897e-09
2.83463e-09
1.77538e-09
1.13701e-09
7.57749e-10
5.31042e-10
3.93269e-10
3.08492e-10
2.55839e-10
2.23786e-10
2.07038e-10
2.02685e-10
2.1021e-10
2.30949e-10
2.66641e-10
3.1934e-10
3.91195e-10
4.78593e-10
5.79527e-10
6.89698e-10
7.93415e-10
8.74748e-10
9.09231e-10
8.72188e-10
7.50733e-10
5.58152e-10
3.45563e-10
1.9022e-10
1.04537e-10
5.71806e-11
3.09824e-11
1.63178e-11
8.47483e-12
4.27365e-12
2.0789e-12
9.69095e-13
4.30357e-13
1.8206e-13
7.56596e-14
3.42761e-14
2.23106e-14
2.47883e-14
2.94104e-14
2.38757e-14
1.57137e-14
9.58646e-15
5.65776e-15
3.28388e-15
1.8935e-15
1.08803e-15
6.22628e-16
3.54043e-16
1.99608e-16
1.11421e-16
6.15373e-17
3.36253e-17
1.8184e-17
9.73738e-18
5.16665e-18
2.71822e-18
1.41888e-18
7.35195e-19
3.78201e-19
1.93055e-19
9.75996e-20
4.86324e-20
2.36167e-20
1.08787e-20
4.40429e-21
1.0143e-21
1.87943e-13
7.28339e-13
1.5531e-12
2.85592e-12
4.91161e-12
8.14251e-12
1.31955e-11
2.10515e-11
3.31327e-11
5.09801e-11
7.70798e-11
1.14998e-10
1.69528e-10
2.46883e-10
3.54847e-10
5.02761e-10
7.01247e-10
9.61591e-10
1.29489e-09
1.71078e-09
2.21625e-09
2.8142e-09
3.50166e-09
4.26648e-09
5.08071e-09
5.86567e-09
6.54325e-09
6.94609e-09
6.80535e-09
5.89818e-09
4.34897e-09
2.83463e-09
1.77538e-09
1.13701e-09
7.57751e-10
5.31044e-10
3.9327e-10
3.08493e-10
2.5584e-10
2.23786e-10
2.07039e-10
2.02686e-10
2.10211e-10
2.3095e-10
2.66643e-10
3.19342e-10
3.91198e-10
4.78596e-10
5.79531e-10
6.89703e-10
7.9342e-10
8.74753e-10
9.09237e-10
8.72195e-10
7.50745e-10
5.58177e-10
3.45572e-10
1.90223e-10
1.04539e-10
5.71811e-11
3.09826e-11
1.63179e-11
8.47485e-12
4.27365e-12
2.07891e-12
9.69097e-13
4.30358e-13
1.8206e-13
7.56597e-14
3.42759e-14
2.23101e-14
2.47875e-14
2.94097e-14
2.38754e-14
1.57136e-14
9.58637e-15
5.65771e-15
3.28386e-15
1.89348e-15
1.08803e-15
6.22624e-16
3.5404e-16
1.99606e-16
1.1142e-16
6.15369e-17
3.36251e-17
1.81839e-17
9.73733e-18
5.16663e-18
2.71821e-18
1.41888e-18
7.35192e-19
3.78199e-19
1.93054e-19
9.75992e-20
4.86321e-20
2.36166e-20
1.08787e-20
4.40427e-21
1.0143e-21
1.87984e-13
7.28498e-13
1.55343e-12
2.85653e-12
4.91266e-12
8.14423e-12
1.31982e-11
2.10558e-11
3.31405e-11
5.09932e-11
7.71004e-11
1.15029e-10
1.69571e-10
2.46944e-10
3.54931e-10
5.02871e-10
7.01387e-10
9.61763e-10
1.29509e-09
1.711e-09
2.21647e-09
2.81439e-09
3.50178e-09
4.26648e-09
5.08051e-09
5.8652e-09
6.54241e-09
6.94479e-09
6.80358e-09
5.89613e-09
4.34717e-09
2.8334e-09
1.77464e-09
1.13656e-09
7.57478e-10
5.30865e-10
3.93147e-10
3.08399e-10
2.55761e-10
2.23714e-10
2.06965e-10
2.02602e-10
2.10106e-10
2.30812e-10
2.66453e-10
3.19082e-10
3.90868e-10
4.7817e-10
5.79008e-10
6.89117e-10
7.92795e-10
8.74178e-10
9.08844e-10
8.72133e-10
7.51101e-10
5.58895e-10
3.46341e-10
1.90672e-10
1.0479e-10
5.73231e-11
3.10638e-11
1.6361e-11
8.49882e-12
4.28677e-12
2.08588e-12
9.72674e-13
4.32109e-13
1.82861e-13
7.5984e-14
3.43749e-14
2.22875e-14
2.46891e-14
2.93636e-14
2.38914e-14
1.5739e-14
9.60595e-15
5.67053e-15
3.29163e-15
1.89809e-15
1.09076e-15
6.24241e-16
3.54988e-16
2.00155e-16
1.11733e-16
6.1713e-17
3.37226e-17
1.82372e-17
9.76608e-18
5.18196e-18
2.7263e-18
1.42309e-18
7.37371e-19
3.79316e-19
1.93621e-19
9.78847e-20
4.87739e-20
2.36853e-20
1.09103e-20
4.41709e-21
1.01725e-21
1.88068e-13
7.28819e-13
1.55411e-12
2.85778e-12
4.91478e-12
8.14772e-12
1.32038e-11
2.10646e-11
3.31564e-11
5.10203e-11
7.71427e-11
1.15092e-10
1.69662e-10
2.47072e-10
3.55106e-10
5.03103e-10
7.01684e-10
9.62126e-10
1.29551e-09
1.71146e-09
2.21693e-09
2.81481e-09
3.50206e-09
4.26651e-09
5.08015e-09
5.8643e-09
6.54076e-09
6.9422e-09
6.79997e-09
5.89186e-09
4.34336e-09
2.83081e-09
1.77308e-09
1.13563e-09
7.56899e-10
5.3049e-10
3.92889e-10
3.08202e-10
2.55596e-10
2.23563e-10
2.0681e-10
2.02427e-10
2.09891e-10
2.3053e-10
2.66068e-10
3.18556e-10
3.90197e-10
4.77302e-10
5.77947e-10
6.87928e-10
7.91527e-10
8.7301e-10
9.08042e-10
8.71988e-10
7.51789e-10
5.60336e-10
3.47926e-10
1.91597e-10
1.05304e-10
5.76129e-11
3.12289e-11
1.6448e-11
8.54727e-12
4.31329e-12
2.10001e-12
9.79938e-13
4.35679e-13
1.84489e-13
7.66453e-14
3.45782e-14
2.22438e-14
2.44906e-14
2.92675e-14
2.39252e-14
1.57932e-14
9.64836e-15
5.69817e-15
3.30846e-15
1.90809e-15
1.09667e-15
6.27716e-16
3.57017e-16
2.01327e-16
1.12401e-16
6.20875e-17
3.39296e-17
1.835e-17
9.82682e-18
5.21433e-18
2.74335e-18
1.43197e-18
7.41937e-19
3.81645e-19
1.948e-19
9.8476e-20
4.90667e-20
2.38268e-20
1.09753e-20
4.44338e-21
1.0233e-21
1.88199e-13
7.29322e-13
1.55518e-12
2.85973e-12
4.91813e-12
8.15325e-12
1.32127e-11
2.10786e-11
3.31815e-11
5.10628e-11
7.72092e-11
1.15191e-10
1.69805e-10
2.47274e-10
3.55385e-10
5.03482e-10
7.02164e-10
9.62723e-10
1.29619e-09
1.71222e-09
2.21771e-09
2.81552e-09
3.50258e-09
4.26667e-09
5.07973e-09
5.86306e-09
6.53839e-09
6.93838e-09
6.79457e-09
5.88542e-09
4.33752e-09
2.82677e-09
1.77063e-09
1.13416e-09
7.55992e-10
5.29894e-10
3.92482e-10
3.07892e-10
2.55339e-10
2.23331e-10
2.06575e-10
2.02164e-10
2.09567e-10
2.30104e-10
2.65485e-10
3.17762e-10
3.89181e-10
4.75994e-10
5.76338e-10
6.86125e-10
7.8961e-10
8.71249e-10
9.06848e-10
8.71819e-10
7.52947e-10
5.62637e-10
3.50422e-10
1.93069e-10
1.06081e-10
5.80516e-11
3.148e-11
1.65808e-11
8.6216e-12
4.35402e-12
2.12185e-12
9.91228e-13
4.41215e-13
1.87006e-13
7.76658e-14
3.48976e-14
2.21839e-14
2.41918e-14
2.91158e-14
2.39776e-14
1.58812e-14
9.7168e-15
5.74313e-15
3.33597e-15
1.92438e-15
1.1062e-15
6.33266e-16
3.60229e-16
2.03169e-16
1.13444e-16
6.26706e-17
3.42507e-17
1.85242e-17
9.91989e-18
5.26332e-18
2.76889e-18
1.4452e-18
7.48764e-19
3.85145e-19
1.9658e-19
9.93722e-20
4.95115e-20
2.40422e-20
1.10743e-20
4.48343e-21
1.03252e-21
1.8838e-13
7.30021e-13
1.55667e-12
2.86245e-12
4.9228e-12
8.16094e-12
1.32251e-11
2.1098e-11
3.32162e-11
5.11214e-11
7.73005e-11
1.15326e-10
1.70001e-10
2.47549e-10
3.55761e-10
5.03982e-10
7.02814e-10
9.63529e-10
1.29716e-09
1.7133e-09
2.21886e-09
2.81658e-09
3.5034e-09
4.26702e-09
5.07932e-09
5.86155e-09
6.53529e-09
6.93328e-09
6.78718e-09
5.87636e-09
4.32919e-09
2.82096e-09
1.76712e-09
1.13206e-09
7.54701e-10
5.2906e-10
3.91914e-10
3.07466e-10
2.54987e-10
2.23015e-10
2.06258e-10
2.01809e-10
2.09131e-10
2.29534e-10
2.64703e-10
3.16688e-10
3.87793e-10
4.742e-10
5.74147e-10
6.83676e-10
7.87015e-10
8.68877e-10
9.05245e-10
8.716e-10
7.54488e-10
5.65694e-10
3.5378e-10
1.95088e-10
1.07139e-10
5.86482e-11
3.18224e-11
1.67629e-11
8.72383e-12
4.41057e-12
2.15221e-12
1.00699e-12