/*--------------------------------*- C++ -*----------------------------------*\
  =========                 |
  \\      /  F ield         | OpenFOAM: The Open Source CFD Toolbox
   \\    /   O peration     | Website:  https://openfoam.org
    \\  /    A nd           | Version:  10
     \\/     M anipulation  |
\*---------------------------------------------------------------------------*/
FoamFile
{
    format      ascii;
    class       volScalarField;
    location    "1";
    object      C3H8;
}
// * * * * * * * * * * * * * * * * * * * * * * * * * * * * * * * * * * * * * //

dimensions      [0 0 0 0 0 0 0];

internalField   nonuniform List<scalar> 
4000
(
6.30263e-12
2.44191e-11
5.20574e-11
9.57028e-11
1.64571e-10
2.72868e-10
4.42448e-10
7.06633e-10
1.11574e-09
1.72398e-09
2.61666e-09
3.91814e-09
5.79695e-09
8.47202e-09
1.22168e-08
1.73567e-08
2.42517e-08
3.32668e-08
4.47304e-08
5.8889e-08
7.58671e-08
9.5642e-08
1.1804e-07
1.42873e-07
1.69648e-07
1.97323e-07
2.26052e-07
2.55787e-07
2.85103e-07
3.1411e-07
3.41744e-07
3.67782e-07
3.91589e-07
4.12633e-07
4.30598e-07
4.45312e-07
4.56749e-07
4.64968e-07
4.69998e-07
4.71794e-07
4.70118e-07
4.64608e-07
4.54722e-07
4.39933e-07
4.20352e-07
3.96698e-07
3.72144e-07
3.49e-07
3.29666e-07
3.11379e-07
2.90338e-07
2.61627e-07
2.23447e-07
1.77941e-07
1.30339e-07
8.69669e-08
5.28346e-08
2.98815e-08
1.65385e-08
9.11153e-09
5.02778e-09
2.75161e-09
1.48573e-09
7.87508e-10
4.04498e-10
2.02461e-10
9.77558e-11
4.53742e-11
1.96201e-11
8.49138e-12
4.01158e-12
2.25713e-12
1.47895e-12
1.06298e-12
7.95683e-13
5.99088e-13
4.37873e-13
3.09822e-13
2.10447e-13
1.36796e-13
8.52181e-14
5.11167e-14
2.97048e-14
1.68231e-14
9.33175e-15
5.08954e-15
2.73737e-15
1.45538e-15
7.66303e-16
4.00117e-16
2.07397e-16
1.06801e-16
5.4655e-17
2.77818e-17
1.4e-17
6.95985e-18
3.37457e-18
1.55296e-18
6.28391e-19
1.44713e-19
6.307e-12
2.4437e-11
5.21017e-11
9.58073e-11
1.64801e-10
2.73335e-10
4.43316e-10
7.08106e-10
1.11799e-09
1.72755e-09
2.62131e-09
3.92275e-09
5.79888e-09
8.46563e-09
1.21915e-08
1.72937e-08
2.41196e-08
3.30314e-08
4.43597e-08
5.83587e-08
7.5168e-08
9.47919e-08
1.17097e-07
1.41697e-07
1.68326e-07
1.95893e-07
2.24564e-07
2.54378e-07
2.83784e-07
3.12999e-07
3.40879e-07
3.67197e-07
3.91272e-07
4.12637e-07
4.30905e-07
4.45904e-07
4.57601e-07
4.66061e-07
4.71306e-07
4.73301e-07
4.71811e-07
4.66475e-07
4.56755e-07
4.42104e-07
4.22606e-07
3.98882e-07
3.74118e-07
3.50798e-07
3.31249e-07
3.12746e-07
2.91469e-07
2.62332e-07
2.23642e-07
1.77636e-07
1.29668e-07
8.61564e-08
5.21165e-08
2.94008e-08
1.62643e-08
8.96631e-09
4.94373e-09
2.70231e-09
1.45651e-09
7.70098e-10
3.94664e-10
1.96849e-10
9.45989e-11
4.37279e-11
1.88189e-11
8.15994e-12
3.90638e-12
2.23266e-12
1.47741e-12
1.06613e-12
7.9722e-13
5.98616e-13
4.35635e-13
3.06783e-13
2.07478e-13
1.34438e-13
8.36271e-14
5.01824e-14
2.92194e-14
1.65984e-14
9.23983e-15
5.05769e-15
2.72941e-15
1.45488e-15
7.67329e-16
4.0104e-16
2.07955e-16
1.07078e-16
5.47691e-17
2.78161e-17
1.40044e-17
6.95547e-18
3.36955e-18
1.54958e-18
6.2675e-19
1.44285e-19
6.3242e-12
2.45063e-11
5.22607e-11
9.61247e-11
1.65391e-10
2.74372e-10
4.45042e-10
7.10811e-10
1.12191e-09
1.73316e-09
2.62841e-09
3.93037e-09
5.80504e-09
8.46543e-09
1.2176e-08
1.72475e-08
2.40267e-08
3.28688e-08
4.40971e-08
5.79612e-08
7.46e-08
9.40174e-08
1.16119e-07
1.40618e-07
1.6716e-07
1.9468e-07
2.23385e-07
2.53234e-07
2.82731e-07
3.12141e-07
3.40189e-07
3.66737e-07
3.91092e-07
4.12854e-07
4.3153e-07
4.46929e-07
4.59005e-07
4.67822e-07
4.73392e-07
4.75685e-07
4.74469e-07
4.69366e-07
4.59862e-07
4.45386e-07
4.25825e-07
4.01991e-07
3.77027e-07
3.53426e-07
3.33666e-07
3.14857e-07
2.93144e-07
2.6336e-07
2.23847e-07
1.77039e-07
1.28505e-07
8.48173e-08
5.09705e-08
2.86333e-08
1.58243e-08
8.73192e-09
4.80777e-09
2.62268e-09
1.40863e-09
7.41593e-10
3.78917e-10
1.87974e-10
8.97906e-11
4.12063e-11
1.76491e-11
7.68583e-12
3.76537e-12
2.20056e-12
1.47747e-12
1.07444e-12
7.96668e-13
5.97743e-13
4.33419e-13
3.03849e-13
2.04615e-13
1.3214e-13
8.20287e-14
4.91838e-14
2.86441e-14
1.62868e-14
9.07912e-15
4.97801e-15
2.69118e-15
1.43725e-15
7.59444e-16
3.97552e-16
2.06395e-16
1.0636e-16
5.44304e-17
2.7654e-17
1.39213e-17
6.91152e-18
3.34649e-18
1.53815e-18
6.21845e-19
1.43113e-19
6.32934e-12
2.45263e-11
5.23041e-11
9.62052e-11
1.65525e-10
2.74569e-10
4.45282e-10
7.10985e-10
1.12173e-09
1.73225e-09
2.62538e-09
3.92233e-09
5.78626e-09
8.42889e-09
1.2112e-08
1.71448e-08
2.38693e-08
3.26379e-08
4.37743e-08
5.75325e-08
7.40609e-08
9.33789e-08
1.15351e-07
1.39762e-07
1.66264e-07
1.93742e-07
2.22437e-07
2.5235e-07
2.81905e-07
3.11451e-07
3.39691e-07
3.66498e-07
3.91173e-07
4.13309e-07
4.32421e-07
4.48268e-07
4.60766e-07
4.69981e-07
4.75919e-07
4.78559e-07
4.77674e-07
4.72883e-07
4.6358e-07
4.49128e-07
4.29594e-07
4.05665e-07
3.80475e-07
3.56613e-07
3.36524e-07
3.17319e-07
2.95029e-07
2.64417e-07
2.23918e-07
1.76167e-07
1.2701e-07
8.31501e-08
4.9563e-08
2.77127e-08
1.53008e-08
8.44976e-09
4.64675e-09
2.53468e-09
1.34479e-09
7.05289e-10
3.59408e-10
1.77203e-10
8.40275e-11
3.82374e-11
1.63998e-11
7.20236e-12
3.62062e-12
2.169e-12
1.47711e-12
1.07919e-12
8.03239e-13
5.98715e-13
4.30869e-13
2.99748e-13
2.00427e-13
1.28681e-13
7.95441e-14
4.75711e-14
2.76726e-14
1.57331e-14
8.77622e-15
4.81735e-15
2.60795e-15
1.39493e-15
7.38238e-16
3.87044e-16
2.01227e-16
1.03826e-16
5.31855e-17
2.70399e-17
1.36203e-17
6.7655e-18
3.27718e-18
1.50683e-18
6.09364e-19
1.40263e-19
6.32421e-12
2.45065e-11
5.22617e-11
9.61245e-11
1.65375e-10
2.74288e-10
4.44738e-10
7.09911e-10
1.11959e-09
1.72801e-09
2.6176e-09
3.90877e-09
5.76411e-09
8.39311e-09
1.20553e-08
1.70573e-08
2.37387e-08
3.24504e-08
4.35163e-08
5.71939e-08
7.36382e-08
9.28783e-08
1.14792e-07
1.39121e-07
1.65533e-07
1.92926e-07
2.21547e-07
2.51535e-07
2.81214e-07
3.1093e-07
3.39396e-07
3.66474e-07
3.91485e-07
4.14003e-07
4.33577e-07
4.49834e-07
4.62736e-07
4.72338e-07
4.78634e-07
4.816e-07
4.81022e-07
4.76476e-07
4.67376e-07
4.53054e-07
4.33524e-07
4.09468e-07
3.84005e-07
3.59837e-07
3.39426e-07
3.1981e-07
2.96923e-07
2.65408e-07
2.23821e-07
1.75054e-07
1.25234e-07
8.12469e-08
4.80119e-08
2.67294e-08
1.47506e-08
8.13734e-09
4.46614e-09
2.42756e-09
1.28218e-09
6.68709e-10
3.39119e-10
1.6611e-10
7.81343e-11
3.50981e-11
1.51246e-11
6.73448e-12
3.48619e-12
2.1393e-12
1.47622e-12
1.08266e-12
8.102e-13
5.94488e-13
4.25552e-13
2.94262e-13
1.95639e-13
1.25025e-13
7.7032e-14
4.59799e-14
2.67246e-14
1.51932e-14
8.47886e-15
4.65764e-15
2.52377e-15
1.35119e-15
7.15759e-16
3.75584e-16
1.95417e-16
1.00892e-16
5.17088e-17
2.62998e-17
1.32519e-17
6.58435e-18
3.19022e-18
1.46716e-18
5.93417e-19
1.36596e-19
6.30925e-12
2.44487e-11
5.21379e-11
9.58937e-11
1.64967e-10
2.7358e-10
4.43509e-10
7.07745e-10
1.11587e-09
1.72181e-09
2.60779e-09
3.89394e-09
5.74158e-09
8.35871e-09
1.20033e-08
1.69801e-08
2.36266e-08
3.22911e-08
4.32952e-08
5.68941e-08
7.32412e-08
9.23593e-08
1.14136e-07
1.38384e-07
1.64779e-07
1.92191e-07
2.20877e-07
2.50951e-07
2.80736e-07
3.10609e-07
3.39298e-07
3.66635e-07
3.91979e-07
4.14847e-07
4.34817e-07
4.5149e-07
4.64786e-07
4.74763e-07
4.81418e-07
4.84727e-07
4.84423e-07
4.80115e-07
4.71195e-07
4.56964e-07
4.37422e-07
4.13267e-07
3.87585e-07
3.6323e-07
3.42548e-07
3.22518e-07
2.98929e-07
2.66367e-07
2.23565e-07
1.73724e-07
1.23262e-07
7.92148e-08
4.64115e-08
2.5743e-08
1.41977e-08
7.82427e-09
4.2872e-09
2.32519e-09
1.2245e-09
6.36016e-10
3.20696e-10
1.5602e-10
7.27667e-11
3.2385e-11
1.39292e-11
6.30389e-12
3.36038e-12
2.10852e-12
1.47226e-12
1.08385e-12
8.10129e-13
5.91257e-13
4.20456e-13
2.88762e-13
1.90781e-13
1.21289e-13
7.44409e-14
4.4319e-14
2.57212e-14
1.46135e-14
8.1552e-15
4.48165e-15
2.43005e-15
1.30211e-15
6.90393e-16
3.6261e-16
1.88829e-16
9.75537e-17
5.00221e-17
2.54544e-17
1.28322e-17
6.37934e-18
3.09262e-18
1.42293e-18
5.7569e-19
1.32524e-19
6.28525e-12
2.43553e-11
5.19366e-11
9.55177e-11
1.6431e-10
2.72479e-10
4.4173e-10
7.0499e-10
1.11147e-09
1.71457e-09
2.59654e-09
3.87617e-09
5.71403e-09
8.31704e-09
1.19416e-08
1.68908e-08
2.35009e-08
3.21188e-08
4.30656e-08
5.65967e-08
7.28823e-08
9.194e-08
1.13677e-07
1.37883e-07
1.64253e-07
1.91662e-07
2.20364e-07
2.50516e-07
2.80417e-07
3.10445e-07
3.39346e-07
3.66905e-07
3.92669e-07
4.15847e-07
4.36155e-07
4.53193e-07
4.66835e-07
4.77119e-07
4.84098e-07
4.87722e-07
4.87697e-07
4.83603e-07
4.74818e-07
4.60599e-07
4.41007e-07
4.16862e-07
3.90902e-07
3.66413e-07
3.4545e-07
3.24982e-07
3.00683e-07
2.67096e-07
2.23116e-07
1.72245e-07
1.21208e-07
7.71725e-08
4.48529e-08
2.48066e-08
1.36754e-08
7.52848e-09
4.11824e-09
2.22802e-09
1.17003e-09
6.05136e-10
3.03763e-10
1.47088e-10
6.85557e-11
2.96609e-11
1.27748e-11
5.90514e-12
3.23985e-12
2.07498e-12
1.4645e-12
1.08149e-12
8.06984e-13
5.86197e-13
4.14414e-13
2.82894e-13
1.8588e-13
1.17644e-13
7.19678e-14
4.27551e-14
2.47835e-14
1.40734e-14
7.85328e-15
4.31679e-15
2.34169e-15
1.25547e-15
6.66088e-16
3.50094e-16
1.82469e-16
9.43837e-17
4.84622e-17
2.46849e-17
1.24493e-17
6.1898e-18
3.00067e-18
1.38054e-18
5.58518e-19
1.28568e-19
6.25818e-12
2.42501e-11
5.17093e-11
9.50906e-11
1.63554e-10
2.71178e-10
4.39523e-10
7.01272e-10
1.10541e-09
1.70472e-09
2.57974e-09
3.84937e-09
5.67281e-09
8.25538e-09
1.18519e-08
1.67639e-08
2.33274e-08
3.18896e-08
4.2775e-08
5.6245e-08
7.24642e-08
9.14731e-08
1.13193e-07
1.37408e-07
1.63775e-07
1.9118e-07
2.19942e-07
2.50174e-07
2.80203e-07
3.10398e-07
3.39549e-07
3.67351e-07
3.93417e-07
4.169e-07
4.37529e-07
4.54914e-07
4.68901e-07
4.79597e-07
4.86853e-07
4.90669e-07
4.9084e-07
4.86917e-07
4.78247e-07
4.64107e-07
4.4438e-07
4.20043e-07
3.93803e-07
3.69207e-07
3.47968e-07
3.27107e-07
3.0215e-07
2.67589e-07
2.22497e-07
1.70686e-07
1.19164e-07
7.52089e-08
4.33975e-08
2.39495e-08
1.3196e-08
7.25671e-09
3.96228e-09
2.13821e-09
1.12044e-09
5.77399e-10
2.88402e-10
1.38911e-10
6.43277e-11
2.75634e-11
1.18864e-11
5.60787e-12
3.14925e-12
2.05027e-12
1.4583e-12
1.07761e-12
8.02039e-13
5.79979e-13
4.07866e-13
2.76961e-13
1.8113e-13
1.14211e-13
6.96813e-14
4.1325e-14
2.39304e-14
1.35823e-14
7.57822e-15
4.16599e-15
2.26044e-15
1.21231e-15
6.4344e-16
3.3832e-16
1.76386e-16
9.12479e-17
4.68564e-17
2.38766e-17
1.20536e-17
5.9973e-18
2.90833e-18
1.33823e-18
5.41447e-19
1.24645e-19
6.23358e-12
2.41549e-11
5.15057e-11
9.47128e-11
1.62894e-10
2.70063e-10
4.37672e-10
6.98237e-10
1.1005e-09
1.6961e-09
2.56628e-09
3.82889e-09
5.64248e-09
8.21143e-09
1.17894e-08
1.66771e-08
2.32103e-08
3.17365e-08
4.25822e-08
5.60198e-08
7.21946e-08
9.11808e-08
1.12861e-07
1.37031e-07
1.63415e-07
1.9086e-07
2.19667e-07
2.4995e-07
2.80072e-07
3.10356e-07
3.39972e-07
3.67931e-07
3.94226e-07
4.17963e-07
4.38867e-07
4.56543e-07
4.70857e-07
4.81727e-07
4.89226e-07
4.9331e-07
4.93704e-07
4.89966e-07
4.81474e-07
4.67335e-07
4.47519e-07
4.22971e-07
3.96555e-07
3.71792e-07
3.50316e-07
3.29054e-07
3.03382e-07
2.67858e-07
2.21733e-07
1.69091e-07
1.17193e-07
7.33794e-08
4.20796e-08
2.31863e-08
1.27688e-08
7.01448e-09
3.82388e-09
2.05839e-09
1.07833e-09
5.53662e-10
2.75352e-10
1.31917e-10
6.07588e-11
2.5871e-11
1.11794e-11
5.37262e-12
3.07937e-12
2.03272e-12
1.45778e-12
1.06675e-12
7.942e-13
5.73029e-13
4.01658e-13
2.71776e-13
1.77149e-13
1.11386e-13
6.78073e-14
4.01476e-14
2.32215e-14
1.31695e-14
7.3441e-15
4.03601e-15
2.18956e-15
1.17426e-15
6.23276e-16
3.2775e-16
1.70891e-16
8.8406e-17
4.53973e-17
2.31343e-17
1.16772e-17
5.81061e-18
2.81863e-18
1.29735e-18
5.25007e-19
1.20876e-19
6.21327e-12
2.40771e-11
5.13414e-11
9.44129e-11
1.6238e-10
2.69205e-10
4.3626e-10
6.95914e-10
1.09664e-09
1.68953e-09
2.55566e-09
3.81237e-09
5.61744e-09
8.17461e-09
1.17369e-08
1.66045e-08
2.31125e-08
3.16082e-08
4.24194e-08
5.58131e-08
7.19664e-08
9.09048e-08
1.12567e-07
1.36759e-07
1.63158e-07
1.90635e-07
2.19497e-07
2.49848e-07
2.80082e-07
3.105e-07
3.40315e-07
3.68476e-07
3.94999e-07
4.18974e-07
4.4013e-07
4.58079e-07
4.72598e-07
4.83679e-07
4.91385e-07
4.95667e-07
4.96237e-07
4.92649e-07
4.84188e-07
4.70015e-07
4.50083e-07
4.2538e-07
3.98743e-07
3.73798e-07
3.52128e-07
3.30524e-07
3.0425e-07
2.6788e-07
2.20845e-07
1.6751e-07
1.1534e-07
7.17183e-08
4.09158e-08
2.25218e-08
1.23917e-08
6.79941e-09
3.69935e-09
1.98484e-09
1.04101e-09
5.32642e-10
2.63837e-10
1.25819e-10
5.765e-11
2.44888e-11
1.06247e-11
5.19147e-12
3.02459e-12
2.01722e-12
1.45327e-12
1.06352e-12
7.90339e-13
5.68402e-13
3.96913e-13
2.67527e-13
1.73749e-13
1.08905e-13
6.61265e-14
3.90748e-14
2.25679e-14
1.27855e-14
7.12492e-15
3.9138e-15
2.12277e-15
1.13835e-15
6.04234e-16
3.17768e-16
1.65699e-16
8.57198e-17
4.40231e-17
2.2438e-17
1.13304e-17
5.64054e-18
2.73708e-18
1.26011e-18
5.10004e-19
1.17434e-19
6.19306e-12
2.39988e-11
5.11739e-11
9.41033e-11
1.61845e-10
2.68319e-10
4.34839e-10
6.9371e-10
1.09337e-09
1.6843e-09
2.54755e-09
3.79997e-09
5.59822e-09
8.14552e-09
1.16942e-08
1.65444e-08
2.30317e-08
3.1504e-08
4.22928e-08
5.56566e-08
7.17718e-08
9.06938e-08
1.1235e-07
1.3654e-07
1.62968e-07
1.90484e-07
2.19406e-07
2.49824e-07
2.80164e-07
3.10703e-07
3.40679e-07
3.69014e-07
3.95724e-07
4.19894e-07
4.41246e-07
4.59386e-07
4.74116e-07
4.85394e-07
4.93266e-07
4.97683e-07
4.98364e-07
4.94841e-07
4.86405e-07
4.72197e-07
4.52165e-07
4.27285e-07
4.00471e-07
3.75385e-07
3.53563e-07
3.31681e-07
3.04874e-07
2.67738e-07
2.19916e-07
1.66002e-07
1.13646e-07
7.02442e-08
3.99172e-08
2.19904e-08
1.20184e-08
6.59288e-09
3.58442e-09
1.92012e-09
1.00784e-09
5.12513e-10
2.53144e-10
1.20282e-10
5.48403e-11
2.33218e-11
1.01664e-11
5.0428e-12
2.9792e-12
2.00393e-12
1.44854e-12
1.06231e-12
7.88081e-13
5.65067e-13
3.93164e-13
2.63989e-13
1.70823e-13
1.06728e-13
6.46377e-14
3.81192e-14
2.19836e-14
1.24412e-14
6.9279e-15
3.80374e-15
2.06249e-15
1.10587e-15
5.86992e-16
3.08753e-16
1.61078e-16
8.34057e-17
4.28763e-17
2.18692e-17
1.10438e-17
5.49673e-18
2.66681e-18
1.22763e-18
4.96825e-19
1.144e-19
6.1754e-12
2.39306e-11
5.10287e-11
9.38355e-11
1.61382e-10
2.67547e-10
4.33577e-10
6.91677e-10
1.08988e-09
1.67855e-09
2.53878e-09
3.78741e-09
5.5814e-09
8.12236e-09
1.16616e-08
1.64971e-08
2.29659e-08
3.14178e-08
4.21809e-08
5.55281e-08
7.16252e-08
9.05367e-08
1.12194e-07
1.36394e-07
1.62843e-07
1.90396e-07
2.19373e-07
2.49856e-07
2.80291e-07
3.10936e-07
3.41053e-07
3.69537e-07
3.9642e-07
4.20751e-07
4.42265e-07
4.60585e-07
4.75496e-07
4.86937e-07
4.94958e-07
4.99533e-07
5.00301e-07
4.96809e-07
4.88354e-07
4.74074e-07
4.53916e-07
4.28869e-07
4.0189e-07
3.76678e-07
3.54714e-07
3.32572e-07
3.05272e-07
2.67455e-07
2.1894e-07
1.64548e-07
1.1207e-07
6.89089e-08
3.90136e-08
2.14736e-08
1.17465e-08
6.43673e-09
3.49461e-09
1.86865e-09
9.78459e-10
4.97169e-10
2.44739e-10
1.15802e-10
5.2541e-11
2.23811e-11
9.80466e-12
4.92745e-12
2.94486e-12
1.99398e-12
1.44458e-12
1.06255e-12
7.86779e-13
5.62474e-13
3.90018e-13
2.60971e-13
1.68331e-13
1.0488e-13
6.33743e-14
3.73073e-14
2.14859e-14
1.2147e-14
6.75903e-15
3.70908e-15
2.01043e-15
1.07767e-15
5.7184e-16
3.00684e-16
1.56838e-16
8.12251e-17
4.17557e-17
2.12994e-17
1.0761e-17
5.3586e-18
2.60079e-18
1.19753e-18
4.84716e-19
1.1162e-19
6.16056e-12
2.38734e-11
5.09069e-11
9.36115e-11
1.60996e-10
2.66906e-10
4.32535e-10
6.90016e-10
1.08699e-09
1.67371e-09
2.53117e-09
3.77587e-09
5.56424e-09
8.09828e-09
1.16295e-08
1.64572e-08
2.29143e-08
3.13502e-08
4.20955e-08
5.5421e-08
7.15081e-08
9.04162e-08
1.12069e-07
1.36283e-07
1.62758e-07
1.90349e-07
2.19379e-07
2.49922e-07
2.80443e-07
3.11183e-07
3.41421e-07
3.70035e-07
3.97057e-07
4.21544e-07
4.43232e-07
4.61695e-07
4.76735e-07
4.88294e-07
4.96427e-07
5.01058e-07
5.01894e-07
4.98457e-07
4.90021e-07
4.75712e-07
4.55433e-07
4.30213e-07
4.03062e-07
3.77715e-07
3.55617e-07
3.33243e-07
3.05483e-07
2.67087e-07
2.17998e-07
1.63219e-07
1.10662e-07
6.77203e-08
3.82233e-08
2.10268e-08
1.15166e-08
6.30689e-09
3.42051e-09
1.82623e-09
9.54105e-10
4.84446e-10
2.37788e-10
1.12134e-10
5.06566e-11
2.16231e-11
9.51578e-12
4.83698e-12
2.91823e-12
1.98635e-12
1.44132e-12
1.06283e-12
7.85539e-13
5.60064e-13
3.87153e-13
2.58245e-13
1.66088e-13
1.03223e-13
6.22441e-14
3.65828e-14
2.10427e-14
1.18857e-14
6.60935e-15
3.62541e-15
1.96467e-15
1.05322e-15
5.5919e-16
2.94265e-16
1.53541e-16
7.95138e-17
4.08761e-17
2.08497e-17
1.05316e-17
5.2437e-18
2.54484e-18
1.17172e-18
4.74252e-19
1.09209e-19
6.14837e-12
2.38264e-11
5.08071e-11
9.34284e-11
1.60682e-10
2.66386e-10
4.31697e-10
6.8869e-10
1.08464e-09
1.66975e-09
2.52495e-09
3.76653e-09
5.55059e-09
8.07879e-09
1.16023e-08
1.64198e-08
2.2867e-08
3.1293e-08
4.20273e-08
5.53416e-08
7.14192e-08
9.03217e-08
1.11982e-07
1.36209e-07
1.6271e-07
1.90335e-07
2.19412e-07
2.50008e-07
2.80606e-07
3.11429e-07
3.41774e-07
3.70504e-07
3.97659e-07
4.22271e-07
4.4407e-07
4.62645e-07
4.77801e-07
4.89464e-07
4.97677e-07
5.02407e-07
5.03302e-07
4.99886e-07
4.91417e-07
4.77033e-07
4.5664e-07
4.31269e-07
4.0394e-07
3.78486e-07
3.56289e-07
3.33715e-07
3.05565e-07
2.6666e-07
2.17086e-07
1.62001e-07
1.09407e-07
6.66904e-08
3.75484e-08
2.06452e-08
1.13196e-08
6.19661e-09
3.35826e-09
1.78975e-09
9.33155e-10
4.72971e-10
2.31568e-10
1.08866e-10
4.89767e-11
2.09557e-11
9.26797e-12
4.75768e-12
2.89399e-12
1.97857e-12
1.4375e-12
1.06247e-12
7.8386e-13
5.57409e-13
3.84219e-13
2.55563e-13
1.63939e-13
1.01664e-13
6.11971e-14
3.59195e-14
2.06408e-14
1.16504e-14
6.47526e-15
3.55065e-15
1.92372e-15
1.03109e-15
5.47322e-16
2.88009e-16
1.50384e-16
7.79135e-17
4.00623e-17
2.04328e-17
1.03218e-17
5.13974e-18
2.49458e-18
1.14864e-18
4.64921e-19
1.07062e-19
6.13849e-12
2.37884e-11
5.07263e-11
9.32803e-11
1.60428e-10
2.65966e-10
4.31022e-10
6.87629e-10
1.08275e-09
1.66657e-09
2.51996e-09
3.75907e-09
5.53975e-09
8.06341e-09
1.1581e-08
1.63912e-08
2.28299e-08
3.12443e-08
4.19696e-08
5.52794e-08
7.13531e-08
9.02551e-08
1.1192e-07
1.3616e-07
1.62684e-07
1.90341e-07
2.19462e-07
2.50106e-07
2.80766e-07
3.11658e-07
3.42088e-07
3.70906e-07
3.98157e-07
4.22875e-07
4.44771e-07
4.63447e-07
4.78697e-07
4.90446e-07
4.98748e-07
5.03538e-07
5.04473e-07
5.01068e-07
4.92603e-07
4.78186e-07
4.57731e-07
4.32305e-07
4.04391e-07
3.78954e-07
3.56729e-07
3.34018e-07
3.05545e-07
2.6621e-07
2.16233e-07
1.60907e-07
1.0832e-07
6.58147e-08
3.69826e-08
2.03303e-08
1.11572e-08
6.10929e-09
3.31691e-09
1.74846e-09
9.11283e-10
4.6147e-10
2.25631e-10
1.05866e-10
4.74892e-11
2.03808e-11
9.05434e-12
4.68838e-12
2.87154e-12
1.9708e-12
1.43344e-12
1.06157e-12
7.81062e-13
5.53859e-13
3.80783e-13
2.52681e-13
1.61762e-13
1.00151e-13
6.02121e-14
3.53098e-14
2.02778e-14
1.14406e-14
6.35694e-15
3.48519e-15
1.88807e-15
1.01192e-15
5.37107e-16
2.82588e-16
1.47488e-16
7.64022e-17
3.92901e-17
2.00479e-17
1.0131e-17
5.04614e-18
2.44967e-18
1.12813e-18
4.5666e-19
1.05164e-19
6.13063e-12
2.37581e-11
5.06619e-11
9.31621e-11
1.60225e-10
2.6563e-10
4.30477e-10
6.86762e-10
1.08123e-09
1.66404e-09
2.51602e-09
3.75319e-09
5.53124e-09
8.0514e-09
1.15644e-08
1.6369e-08
2.28004e-08
3.12084e-08
4.19259e-08
5.52291e-08
7.13011e-08
9.02041e-08
1.11875e-07
1.36129e-07
1.62674e-07
1.90359e-07
2.19516e-07
2.50201e-07
2.80918e-07
3.11871e-07
3.42374e-07
3.71272e-07
3.98603e-07
4.23395e-07
4.45372e-07
4.64129e-07
4.79465e-07
4.91281e-07
4.99629e-07
5.04457e-07
5.05419e-07
5.02027e-07
4.93538e-07
4.7907e-07
4.58524e-07
4.32977e-07
4.04941e-07
3.79417e-07
3.57115e-07
3.34266e-07
3.05518e-07
2.6583e-07
2.15529e-07
1.60013e-07
1.07426e-07
6.5101e-08
3.65254e-08
2.00748e-08
1.10246e-08
6.03476e-09
3.27439e-09
1.7248e-09
8.9762e-10
4.53826e-10
2.21482e-10
1.03696e-10
4.63866e-11
1.99549e-11
8.89756e-12
4.63769e-12
2.85556e-12
1.96614e-12
1.43276e-12
1.06347e-12
7.72395e-13
5.48018e-13
3.76612e-13
2.49718e-13
1.59722e-13
9.88061e-14
5.93624e-14
3.47928e-14
1.99729e-14
1.12653e-14
6.25828e-15
3.43066e-15
1.85841e-15
9.96006e-16
5.28666e-16
2.78153e-16
1.45177e-16
7.52078e-17
3.86783e-17
1.97378e-17
9.9755e-18
4.96924e-18
2.41257e-18
1.11112e-18
4.49792e-19
1.0358e-19
6.12462e-12
2.37349e-11
5.06128e-11
9.30721e-11
1.6007e-10
2.65375e-10
4.30067e-10
6.86117e-10
1.08008e-09
1.6621e-09
2.513e-09
3.74871e-09
5.52477e-09
8.0423e-09
1.1552e-08
1.63525e-08
2.27788e-08
3.11816e-08
4.18938e-08
5.51928e-08
7.12623e-08
9.01676e-08
1.11845e-07
1.3611e-07
1.62673e-07
1.90382e-07
2.19569e-07
2.50286e-07
2.81046e-07
3.12046e-07
3.42606e-07
3.71563e-07
3.98957e-07
4.23812e-07
4.45854e-07
4.64674e-07
4.80059e-07
4.91915e-07
5.00304e-07
5.05162e-07
5.0614e-07
5.02749e-07
4.94238e-07
4.79726e-07
4.59105e-07
4.33466e-07
4.05367e-07
3.79787e-07
3.57425e-07
3.34467e-07
3.05501e-07
2.65534e-07
2.14975e-07
1.59312e-07
1.06729e-07
6.45439e-08
3.61684e-08
1.98741e-08
1.09196e-08
5.97552e-09
3.24031e-09
1.70668e-09
8.87425e-10
4.48174e-10
2.18442e-10
1.02116e-10
4.55972e-11
1.96285e-11
8.77847e-12
4.59973e-12
2.84372e-12
1.96236e-12
1.43106e-12
1.0618e-12
7.69789e-13
5.45246e-13
3.74106e-13
2.47684e-13
1.58221e-13
9.77799e-14
5.8702e-14
3.43872e-14
1.97326e-14
1.11271e-14
6.18049e-15
3.38771e-15
1.83506e-15
9.83479e-16
5.22018e-16
2.74664e-16
1.43365e-16
7.42754e-17
3.82025e-17
1.94968e-17
9.85455e-18
4.90935e-18
2.38363e-18
1.09783e-18
4.4442e-19
1.02344e-19
6.12031e-12
2.37183e-11
5.05775e-11
9.30074e-11
1.5996e-10
2.65192e-10
4.29774e-10
6.85656e-10
1.07926e-09
1.6607e-09
2.51081e-09
3.74544e-09
5.52005e-09
8.03562e-09
1.15428e-08
1.63399e-08
2.27629e-08
3.11618e-08
4.18711e-08
5.51678e-08
7.12363e-08
9.01429e-08
1.11826e-07
1.361e-07
1.62677e-07
1.90403e-07
2.19613e-07
2.50355e-07
2.81147e-07
3.12181e-07
3.42783e-07
3.71784e-07
3.99224e-07
4.24126e-07
4.46214e-07
4.65077e-07
4.80501e-07
4.92392e-07
5.00805e-07
5.05682e-07
5.06672e-07
5.03281e-07
4.94753e-07
4.80201e-07
4.59519e-07
4.33813e-07
4.05678e-07
3.80061e-07
3.57657e-07
3.3462e-07
3.05494e-07
2.6532e-07
2.1457e-07
1.58794e-07
1.06214e-07
6.41332e-08
3.59058e-08
1.97279e-08
1.08424e-08
5.9319e-09
3.21533e-09
1.69347e-09
8.80014e-10
4.44102e-10
2.16254e-10
1.00984e-10
4.5044e-11
1.93835e-11
8.69018e-12
4.57184e-12
2.83505e-12
1.95953e-12
1.42972e-12
1.06053e-12
7.68239e-13
5.43585e-13
3.72549e-13
2.46381e-13
1.57231e-13
9.70859e-14
5.82462e-14
3.41028e-14
1.95621e-14
1.1028e-14
6.12432e-15
3.35653e-15
1.81807e-15
9.74374e-16
5.17217e-16
2.72157e-16
1.42064e-16
7.3604e-17
3.78581e-17
1.93216e-17
9.76636e-18
4.86558e-18
2.36244e-18
1.08809e-18
4.40479e-19
1.01437e-19
6.11756e-12
2.37077e-11
5.05551e-11
9.29664e-11
1.5989e-10
2.65077e-10
4.29589e-10
6.85366e-10
1.07873e-09
1.65981e-09
2.50941e-09
3.74336e-09
5.51704e-09
8.0314e-09
1.1537e-08
1.63323e-08
2.27531e-08
3.11498e-08
4.18571e-08
5.51524e-08
7.12206e-08
9.01286e-08
1.11815e-07
1.36096e-07
1.62682e-07
1.9042e-07
2.19646e-07
2.50405e-07
2.81219e-07
3.12277e-07
3.42906e-07
3.71935e-07
3.99405e-07
4.24338e-07
4.46456e-07
4.65345e-07
4.80794e-07
4.92707e-07
5.01139e-07
5.06032e-07
5.07031e-07
5.03637e-07
4.95094e-07
4.80516e-07
4.59791e-07
4.34039e-07
4.05879e-07
3.80239e-07
3.5781e-07
3.34721e-07
3.05491e-07
2.65182e-07
2.14307e-07
1.58459e-07
1.05881e-07
6.38675e-08
3.57369e-08
1.96346e-08
1.07907e-08
5.90273e-09
3.1987e-09
1.68469e-09
8.75127e-10
4.41426e-10
2.14828e-10
1.0025e-10
4.46851e-11
1.92242e-11
8.63283e-12
4.55363e-12
2.82939e-12
1.9577e-12
1.42886e-12
1.05974e-12
7.6731e-13
5.42578e-13
3.71604e-13
2.45587e-13
1.56623e-13
9.66536e-14
5.7959e-14
3.39221e-14
1.94531e-14
1.09643e-14
6.08811e-15
3.33636e-15
1.80703e-15
9.6842e-16
5.1404e-16
2.70484e-16
1.41193e-16
7.3156e-17
3.76296e-17
1.9206e-17
9.70835e-18
4.83685e-18
2.34855e-18
1.08171e-18
4.37898e-19
1.00843e-19
6.11622e-12
2.37026e-11
5.05443e-11
9.29466e-11
1.59856e-10
2.65021e-10
4.295e-10
6.85227e-10
1.07848e-09
1.65938e-09
2.50874e-09
3.74236e-09
5.51561e-09
8.02938e-09
1.15342e-08
1.63286e-08
2.27484e-08
3.11441e-08
4.18504e-08
5.51449e-08
7.12131e-08
9.01218e-08
1.1181e-07
1.36094e-07
1.62686e-07
1.9043e-07
2.19663e-07
2.5043e-07
2.81255e-07
3.12325e-07
3.42968e-07
3.72011e-07
3.99496e-07
4.24445e-07
4.46577e-07
4.65479e-07
4.80942e-07
4.92865e-07
5.01306e-07
5.06205e-07
5.07206e-07
5.03812e-07
4.95261e-07
4.8067e-07
4.59925e-07
4.3415e-07
4.05979e-07
3.80328e-07
3.57886e-07
3.34772e-07
3.05489e-07
2.65113e-07
2.14176e-07
1.58292e-07
1.05715e-07
6.37363e-08
3.5654e-08
1.95889e-08
1.07652e-08
5.88835e-09
3.19049e-09
1.68035e-09
8.72712e-10
4.40104e-10
2.14125e-10
9.98899e-11
4.45096e-11
1.91461e-11
8.60477e-12
4.5447e-12
2.8266e-12
1.95679e-12
1.42843e-12
1.05936e-12
7.66873e-13
5.42111e-13
3.71163e-13
2.45218e-13
1.56339e-13
9.64515e-14
5.78242e-14
3.3837e-14
1.94017e-14
1.09343e-14
6.071e-15
3.32682e-15
1.8018e-15
9.65591e-16
5.12531e-16
2.69688e-16
1.40778e-16
7.29412e-17
3.75196e-17
1.91501e-17
9.68019e-18
4.82287e-18
2.34177e-18
1.07859e-18
4.36634e-19
1.00552e-19
6.11624e-12
2.37027e-11
5.05444e-11
9.29468e-11
1.59856e-10
2.65022e-10
4.29501e-10
6.85229e-10
1.07848e-09
1.65938e-09
2.50874e-09
3.74237e-09
5.51562e-09
8.02939e-09
1.15342e-08
1.63286e-08
2.27484e-08
3.11441e-08
4.18504e-08
5.5145e-08
7.12131e-08
9.01218e-08
1.1181e-07
1.36094e-07
1.62686e-07
1.9043e-07
2.19663e-07
2.5043e-07
2.81255e-07
3.12325e-07
3.42968e-07
3.72012e-07
3.99497e-07
4.24446e-07
4.46578e-07
4.65481e-07
4.80943e-07
4.92867e-07
5.01308e-07
5.06208e-07
5.07209e-07
5.03814e-07
4.95263e-07
4.80671e-07
4.59926e-07
4.34151e-07
4.0598e-07
3.80329e-07
3.57886e-07
3.34772e-07
3.05489e-07
2.65112e-07
2.14174e-07
1.58289e-07
1.05714e-07
6.37354e-08
3.56535e-08
1.95887e-08
1.07651e-08
5.88829e-09
3.19045e-09
1.68035e-09
8.72711e-10
4.40104e-10
2.14125e-10
9.98902e-11
4.45098e-11
1.91461e-11
8.60476e-12
4.54467e-12
2.82656e-12
1.95675e-12
1.4284e-12
1.05934e-12
7.6686e-13
5.42103e-13
3.71158e-13
2.45215e-13
1.56338e-13
9.64505e-14
5.78236e-14
3.38367e-14
1.94015e-14
1.09342e-14
6.07096e-15
3.3268e-15
1.80179e-15
9.65586e-16
5.12528e-16
2.69686e-16
1.40777e-16
7.29408e-17
3.75194e-17
1.91499e-17
9.68013e-18
4.82284e-18
2.34176e-18
1.07858e-18
4.36631e-19
1.00551e-19
6.1176e-12
2.37079e-11
5.05555e-11
9.29671e-11
1.59891e-10
2.65079e-10
4.29592e-10
6.85372e-10
1.07874e-09
1.65981e-09
2.50942e-09
3.74337e-09
5.51706e-09
8.03142e-09
1.1537e-08
1.63323e-08
2.27531e-08
3.11498e-08
4.18571e-08
5.51525e-08
7.12207e-08
9.01287e-08
1.11815e-07
1.36096e-07
1.62683e-07
1.90421e-07
2.19646e-07
2.50405e-07
2.81219e-07
3.12278e-07
3.42908e-07
3.71937e-07
3.99407e-07
4.24341e-07
4.4646e-07
4.65349e-07
4.808e-07
4.92714e-07
5.01146e-07
5.06039e-07
5.07037e-07
5.03644e-07
4.951e-07
4.80522e-07
4.59796e-07
4.34043e-07
4.05882e-07
3.80242e-07
3.57811e-07
3.34721e-07
3.0549e-07
2.6518e-07
2.14304e-07
1.58455e-07
1.05878e-07
6.38655e-08
3.57358e-08
1.96341e-08
1.07904e-08
5.90259e-09
3.19862e-09
1.68466e-09
8.75115e-10
4.41421e-10
2.14826e-10
1.0025e-10
4.46852e-11
1.92242e-11
8.63274e-12
4.5535e-12
2.82927e-12
1.9576e-12
1.42878e-12
1.05969e-12
7.67271e-13
5.42553e-13
3.71589e-13
2.45578e-13
1.56617e-13
9.66507e-14
5.79575e-14
3.39213e-14
1.94527e-14
1.09641e-14
6.088e-15
3.3363e-15
1.807e-15
9.68405e-16
5.14032e-16
2.7048e-16
1.41191e-16
7.31548e-17
3.7629e-17
1.92056e-17
9.70815e-18
4.83675e-18
2.3485e-18
1.08169e-18
4.37889e-19
1.00841e-19
6.12037e-12
2.37185e-11
5.0578e-11
9.30083e-11
1.59961e-10
2.65195e-10
4.29778e-10
6.85663e-10
1.07926e-09
1.66071e-09
2.51082e-09
3.74545e-09
5.52007e-09
8.03565e-09
1.15428e-08
1.634e-08
2.27629e-08
3.11619e-08
4.18712e-08
5.51679e-08
7.12364e-08
9.01431e-08
1.11826e-07
1.361e-07
1.62678e-07
1.90404e-07
2.19614e-07
2.50356e-07
2.81148e-07
3.12182e-07
3.42784e-07
3.71786e-07
3.99226e-07
4.24128e-07
4.46216e-07
4.6508e-07
4.80506e-07
4.92399e-07
5.00813e-07
5.05693e-07
5.06684e-07
5.03292e-07
4.94763e-07
4.80212e-07
4.59528e-07
4.33819e-07
4.05681e-07
3.80062e-07
3.57658e-07
3.34619e-07
3.05492e-07
2.65317e-07
2.14565e-07
1.58789e-07
1.0621e-07
6.41304e-08
3.59042e-08
1.9727e-08
1.0842e-08
5.93168e-09
3.21523e-09
1.69342e-09
8.7999e-10
4.44091e-10
2.1625e-10
1.00982e-10
4.50436e-11
1.93833e-11
8.68998e-12
4.57161e-12
2.83485e-12
1.95937e-12
1.4296e-12
1.06044e-12
7.68176e-13
5.43544e-13
3.72524e-13
2.46366e-13
1.57223e-13
9.70814e-14
5.82438e-14
3.41015e-14
1.95614e-14
1.10276e-14
6.12414e-15
3.35643e-15
1.81802e-15
9.74349e-16
5.17205e-16
2.72152e-16
1.42061e-16
7.36028e-17
3.78575e-17
1.93212e-17
9.76615e-18
4.86547e-18
2.36238e-18
1.08806e-18
4.40466e-19
1.01434e-19
6.1247e-12
2.37352e-11
5.06134e-11
9.30731e-11
1.60072e-10
2.65378e-10
4.30072e-10
6.86125e-10
1.08009e-09
1.66212e-09
2.51302e-09
3.74873e-09
5.52481e-09
8.04235e-09
1.15521e-08
1.63525e-08
2.27789e-08
3.11817e-08
4.1894e-08
5.5193e-08
7.12625e-08
9.01679e-08
1.11846e-07
1.36111e-07
1.62674e-07
1.90382e-07
2.1957e-07
2.50286e-07
2.81046e-07
3.12046e-07
3.42607e-07
3.71564e-07
3.98958e-07
4.23813e-07
4.45854e-07
4.64672e-07
4.8006e-07
4.91918e-07
5.00308e-07
5.05167e-07
5.06146e-07
5.02759e-07
4.9425e-07
4.79736e-07
4.59112e-07
4.33471e-07
4.05372e-07
3.79791e-07
3.57427e-07
3.34467e-07
3.05499e-07
2.6553e-07
2.14969e-07
1.59306e-07
1.06725e-07
6.45401e-08
3.61661e-08
1.98729e-08
1.0919e-08
5.97519e-09
3.24014e-09
1.70659e-09
8.87383e-10
4.48155e-10
2.18435e-10
1.02113e-10
4.55965e-11
1.96283e-11
8.77814e-12
4.59939e-12
2.84343e-12
1.96212e-12
1.43089e-12
1.06167e-12
7.69702e-13
5.45189e-13
3.7407e-13
2.47663e-13
1.58209e-13
9.77733e-14
5.86984e-14
3.43853e-14
1.97316e-14
1.11265e-14
6.18021e-15
3.38756e-15
1.83498e-15
9.83437e-16
5.21995e-16
2.74651e-16
1.43358e-16
7.42715e-17
3.82004e-17
1.94957e-17
9.85396e-18
4.90904e-18
2.38347e-18
1.09775e-18
4.44388e-19
1.02337e-19
6.13071e-12
2.37584e-11
5.06625e-11
9.31632e-11
1.60227e-10
2.65633e-10
4.30483e-10
6.86772e-10
1.08124e-09
1.66405e-09
2.51604e-09
3.75322e-09
5.53128e-09
8.05145e-09
1.15645e-08
1.63691e-08
2.28005e-08
3.12085e-08
4.19261e-08
5.52294e-08
7.13014e-08
9.02045e-08
1.11876e-07
1.36129e-07
1.62675e-07
1.9036e-07
2.19517e-07
2.50201e-07
2.80918e-07
3.1187e-07
3.42375e-07
3.71273e-07
3.98605e-07
4.23399e-07
4.45377e-07
4.64137e-07
4.7947e-07
4.91285e-07
4.99632e-07
5.0446e-07
5.05421e-07
5.0203e-07
4.93541e-07
4.79073e-07
4.58528e-07
4.32982e-07
4.04944e-07
3.79419e-07
3.57116e-07
3.34265e-07
3.05515e-07
2.65824e-07
2.15521e-07
1.60004e-07
1.07419e-07
6.50952e-08
3.65219e-08
2.0073e-08
1.10236e-08
6.03427e-09
3.27414e-09
1.72468e-09
8.97561e-10
4.538e-10
2.21472e-10
1.03692e-10
4.63859e-11