/*--------------------------------*- C++ -*----------------------------------*\
  =========                 |
  \\      /  F ield         | OpenFOAM: The Open Source CFD Toolbox
   \\    /   O peration     | Website:  https://openfoam.org
    \\  /    A nd           | Version:  10
     \\/     M anipulation  |
\*---------------------------------------------------------------------------*/
FoamFile
{
    format      ascii;
    class       volScalarField;
    location    "1";
    object      CH2;
}
// * * * * * * * * * * * * * * * * * * * * * * * * * * * * * * * * * * * * * //

dimensions      [0 0 0 0 0 0 0];

internalField   nonuniform List<scalar> 
4000
(
4.49595e-20
1.74553e-19
3.73873e-19
6.92971e-19
1.20694e-18
2.03956e-18
3.39964e-18
5.64812e-18
9.42836e-18
1.57124e-17
2.63892e-17
4.51304e-17
7.91211e-17
1.42724e-16
2.65296e-16
5.07992e-16
9.9921e-16
2.00848e-15
4.09421e-15
8.37502e-15
1.69669e-14
3.35722e-14
6.41084e-14
1.17324e-13
2.03207e-13
3.27148e-13
4.91961e-13
6.92024e-13
9.06921e-13
1.13127e-12
1.36688e-12
1.65333e-12
2.09105e-12
2.91742e-12
4.66762e-12
8.52519e-12
1.70727e-11
3.58442e-11
7.6358e-11
1.62154e-10
3.41263e-10
7.02434e-10
1.41887e-09
2.81192e-09
5.45001e-09
1.04122e-08
1.93241e-08
3.53952e-08
6.27194e-08
1.09712e-07
1.84058e-07
2.99022e-07
4.6912e-07
7.0705e-07
1.01648e-06
1.37644e-06
1.71131e-06
1.84498e-06
1.5113e-06
8.31976e-07
4.58674e-07
2.5077e-07
1.35257e-07
7.16127e-08
3.67454e-08
1.83775e-08
8.87806e-09
4.14455e-09
1.8375e-09
8.04239e-10
3.27328e-10
1.21538e-10
4.0977e-11
1.24424e-11
3.36741e-12
8.11874e-13
1.65148e-13
2.98709e-14
5.06052e-15
8.7777e-16
1.7094e-16
3.8815e-17
9.93231e-18
2.70941e-18
7.56987e-19
2.11978e-19
5.88739e-20
1.61246e-20
4.37005e-21
1.17138e-21
3.10598e-22
8.14999e-23
2.11639e-23
5.43353e-24
1.37505e-24
3.40303e-25
8.08767e-26
1.76996e-26
3.22294e-27
3.04895e-28
4.48624e-20
1.74171e-19
3.73052e-19
6.91491e-19
1.20445e-18
2.03542e-18
3.39245e-18
5.63464e-18
9.40091e-18
1.56599e-17
2.62775e-17
4.48786e-17
7.85346e-17
1.41313e-16
2.61826e-16
4.99318e-16
9.77106e-16
1.95494e-15
3.97005e-15
8.09963e-15
1.6389e-14
3.24441e-14
6.2084e-14
1.13458e-13
1.96938e-13
3.18125e-13
4.80519e-13
6.79923e-13
8.95286e-13
1.12157e-12
1.35909e-12
1.64637e-12
2.08218e-12
2.90449e-12
4.64735e-12
8.49708e-12
1.70474e-11
3.58786e-11
7.65876e-11
1.62962e-10
3.43638e-10
7.08496e-10
1.43338e-09
2.84641e-09
5.52354e-09
1.05605e-08
1.96141e-08
3.59622e-08
6.37589e-08
1.11596e-07
1.8715e-07
3.04077e-07
4.76985e-07
7.18442e-07
1.03166e-06
1.39389e-06
1.72552e-06
1.84343e-06
1.48145e-06
8.1517e-07
4.48604e-07
2.44747e-07
1.31668e-07
6.94898e-08
3.55503e-08
1.77083e-08
8.51031e-09
3.95833e-09
1.7486e-09
7.60523e-10
3.05971e-10
1.126e-10
3.75445e-11
1.12595e-11
2.99517e-12
7.03747e-13
1.39896e-13
2.48077e-14
4.16057e-15
7.24034e-16
1.43341e-16
3.3252e-17
8.67575e-18
2.40581e-18
6.82041e-19
1.93658e-19
5.4571e-20
1.52275e-20
4.18012e-21
1.12986e-21
3.01158e-22
7.92637e-23
2.06104e-23
5.28713e-24
1.33714e-24
3.30712e-25
7.85259e-26
1.71763e-26
3.12726e-27
2.95806e-28
4.47991e-20
1.73935e-19
3.72589e-19
6.9071e-19
1.20317e-18
2.03319e-18
3.38808e-18
5.62509e-18
9.3785e-18
1.56125e-17
2.61723e-17
4.4643e-17
7.80172e-17
1.40087e-16
2.58829e-16
4.91793e-16
9.59678e-16
1.91394e-15
3.87285e-15
7.87251e-15
1.58773e-14
3.13507e-14
5.99554e-14
1.09869e-13
1.91242e-13
3.1011e-13
4.70786e-13
6.69013e-13
8.84673e-13
1.11264e-12
1.3514e-12
1.63929e-12
2.07349e-12
2.89309e-12
4.63248e-12
8.48576e-12
1.70708e-11
3.60456e-11
7.71595e-11
1.6461e-10
3.47997e-10
7.1901e-10
1.45769e-09
2.90146e-09
5.63698e-09
1.07898e-08
2.00727e-08
3.68504e-08
6.5433e-08
1.14612e-07
1.92159e-07
3.1241e-07
4.89813e-07
7.3684e-07
1.05565e-06
1.42019e-06
1.74414e-06
1.83319e-06
1.42134e-06
7.81709e-07
4.29042e-07
2.33346e-07
1.24979e-07
6.5625e-08
3.34497e-08
1.65627e-08
7.91118e-09
3.65737e-09
1.6104e-09
6.93299e-10
2.75897e-10
9.97728e-11
3.27858e-11
9.74013e-12
2.466e-12
5.71987e-13
1.11748e-13
1.96069e-14
3.3e-15
5.86221e-16
1.19837e-16
2.86573e-17
7.64373e-18
2.15172e-18
6.16616e-19
1.76504e-19
5.00144e-20
1.39769e-20
3.84815e-21
1.04414e-21
2.79464e-22
7.38628e-23
1.92955e-23
4.98443e-24
1.26636e-24
3.14046e-25
7.46814e-26
1.63443e-26
2.97579e-27
2.81426e-28
4.46418e-20
1.73319e-19
3.7125e-19
6.88154e-19
1.19849e-18
2.02466e-18
3.37234e-18
5.5955e-18
9.32183e-18
1.55067e-17
2.59593e-17
4.41904e-17
7.70097e-17
1.37987e-16
2.54491e-16
4.82845e-16
9.4021e-16
1.87084e-15
3.77774e-15
7.66699e-15
1.54503e-14
3.05108e-14
5.83259e-14
1.0703e-13
1.86781e-13
3.03645e-13
4.62502e-13
6.59881e-13
8.75387e-13
1.10445e-12
1.34492e-12
1.63447e-12
2.0696e-12
2.88981e-12
4.63664e-12
8.51855e-12
1.71953e-11
3.64376e-11
7.82352e-11
1.67363e-10
3.54734e-10
7.34557e-10
1.49187e-09
2.97522e-09
5.79009e-09
1.10948e-08
2.06705e-08
3.79925e-08
6.74997e-08
1.18285e-07
1.98314e-07
3.22307e-07
5.04977e-07
7.58476e-07
1.08288e-06
1.44856e-06
1.75983e-06
1.80685e-06
1.3282e-06
7.30205e-07
3.99948e-07
2.17456e-07
1.1502e-07
6.01527e-08
3.0564e-08
1.50385e-08
7.13452e-09
3.28048e-09
1.44901e-09
6.16474e-10
2.40626e-10
8.57961e-11
2.77743e-11
8.06242e-12
2.01742e-12
4.59645e-13
8.79455e-14
1.52255e-14
2.56715e-15
4.64989e-16
9.79425e-17
2.40688e-17
6.54457e-18
1.86665e-18
5.40195e-19
1.55892e-19
4.44934e-20
1.25158e-20
3.46645e-21
9.45568e-22
2.54245e-22
6.74481e-23
1.76645e-23
4.56507e-24
1.16087e-24
2.8826e-25
6.86531e-26
1.50477e-26
2.74324e-27
2.59598e-28
4.44318e-20
1.72502e-19
3.69487e-19
6.84823e-19
1.19248e-18
2.01395e-18
3.35305e-18
5.56005e-18
9.25492e-18
1.53762e-17
2.57181e-17
4.37469e-17
7.61957e-17
1.36377e-16
2.51154e-16
4.75709e-16
9.24647e-16
1.83658e-15
3.70265e-15
7.50565e-15
1.51164e-14
2.98553e-14
5.71177e-14
1.04816e-13
1.82952e-13
2.97705e-13
4.54244e-13
6.50893e-13
8.66959e-13
1.09756e-12
1.34028e-12
1.63236e-12
2.07072e-12
2.89668e-12
4.6631e-12
8.5994e-12
1.74256e-11
3.70574e-11
7.97984e-11
1.71129e-10
3.63547e-10
7.54174e-10
1.53431e-09
3.06571e-09
5.97276e-09
1.14507e-08
2.13493e-08
3.92584e-08
6.97822e-08
1.22347e-07
2.05173e-07
3.33317e-07
5.21613e-07
7.81501e-07
1.1113e-06
1.47578e-06
1.76789e-06
1.75983e-06
1.20032e-06
6.59749e-07
3.60948e-07
1.95576e-07
1.0303e-07
5.36278e-08
2.71699e-08
1.33068e-08
6.27829e-09
2.861e-09
1.27155e-09
5.35988e-10
2.06689e-10
7.26366e-11
2.2953e-11
6.52234e-12
1.657e-12
3.52932e-13
6.63202e-14
1.14062e-14
1.9476e-15
3.64302e-16
7.98398e-17
2.02638e-17
5.62866e-18
1.62771e-18
4.75626e-19
1.38284e-19
3.97102e-20
1.12287e-20
3.12402e-21
8.55482e-22
2.3078e-22
6.13879e-23
1.6111e-23
4.17011e-24
1.06166e-24
2.63856e-25
6.28835e-26
1.37902e-26
2.51485e-27
2.37997e-28
4.41801e-20
1.71529e-19
3.67403e-19
6.80941e-19
1.18562e-18
2.00202e-18
3.33226e-18
5.52302e-18
9.18946e-18
1.52631e-17
2.55204e-17
4.33971e-17
7.55398e-17
1.35076e-16
2.48469e-16
4.69976e-16
9.12079e-16
1.80842e-15
3.63883e-15
7.36126e-15
1.47954e-14
2.91634e-14
5.57201e-14
1.02361e-13
1.79144e-13
2.92438e-13
4.47893e-13
6.43986e-13
8.60396e-13
1.09246e-12
1.33765e-12
1.63295e-12
2.07668e-12
2.91335e-12
4.71e-12
8.72717e-12
1.7761e-11
3.7907e-11
8.18689e-11
1.75997e-10
3.74586e-10
7.78408e-10
1.58605e-09
3.17433e-09
6.19114e-09
1.18739e-08
2.21662e-08
4.07113e-08
7.24513e-08
1.27082e-07
2.12997e-07
3.45552e-07
5.39534e-07
8.05835e-07
1.1403e-06
1.50157e-06
1.76979e-06
1.69781e-06
1.05136e-06
5.80925e-07
3.19073e-07
1.73413e-07
9.14956e-08
4.76097e-08
2.40465e-08
1.17262e-08
5.49934e-09
2.50053e-09
1.1089e-09
4.61361e-10
1.75503e-10
6.0616e-11
1.89183e-11
5.29246e-12
1.31259e-12
2.74231e-13
5.0814e-14
8.71689e-15
1.51163e-15
2.91845e-16
6.62244e-17
1.7251e-17
4.87016e-18
1.42273e-18
4.18678e-19
1.22405e-19
3.53189e-20
1.00302e-20
2.80162e-21
7.69967e-22
2.08372e-22
5.55623e-23
1.46086e-23
3.78738e-24
9.65654e-25
2.40364e-25
5.73703e-26
1.25964e-26
2.2988e-27
2.17585e-28
4.38722e-20
1.70328e-19
3.64806e-19
6.76066e-19
1.17704e-18
1.98743e-18
3.30808e-18
5.48403e-18
9.12311e-18
1.51447e-17
2.5312e-17
4.30076e-17
7.47938e-17
1.33612e-16
2.45511e-16
4.63835e-16
8.99056e-16
1.78036e-15
3.5781e-15
7.23114e-15
1.45315e-14
2.86464e-14
5.47758e-14
1.00683e-13
1.7639e-13
2.88425e-13
4.42647e-13
6.38294e-13
8.55282e-13
1.08886e-12
1.33651e-12
1.63515e-12
2.08745e-12
2.93885e-12
4.77321e-12
8.89081e-12
1.81728e-11
3.89109e-11
8.4276e-11
1.8158e-10
3.87089e-10
8.05682e-10
1.64394e-09
3.29508e-09
6.43692e-09
1.23082e-08
2.30161e-08
4.21977e-08
7.5176e-08
1.31887e-07
2.2094e-07
3.58094e-07
5.5825e-07
8.31578e-07
1.17162e-06
1.53129e-06
1.7787e-06
1.65051e-06
9.43297e-07
5.23193e-07
2.8805e-07
1.56703e-07
8.26926e-08
4.29429e-08
2.16436e-08
1.05288e-08
4.95137e-09
2.20357e-09
9.75638e-10
4.01712e-10
1.51071e-10
5.14229e-11
1.57992e-11
4.32085e-12
1.05688e-12
2.17155e-13
3.97831e-14
6.8324e-15
1.20484e-15
2.39589e-16
5.60165e-17
1.49067e-17
4.26411e-18
1.2561e-18
3.71809e-19
1.09201e-19
3.16312e-20
9.0138e-21
2.52565e-21
6.96197e-22
1.88989e-22
5.05878e-23
1.33564e-23
3.47404e-24
8.87234e-25
2.2099e-25
5.27493e-26
1.15796e-26
2.11287e-27
1.99966e-28
4.35686e-20
1.69146e-19
3.62243e-19
6.71213e-19
1.16832e-18
1.97205e-18
3.28101e-18
5.43582e-18
9.03829e-18
1.49935e-17
2.50197e-17
4.24585e-17
7.37519e-17
1.31592e-16
2.41503e-16
4.5571e-16
8.82337e-16
1.74566e-15
3.50636e-15
7.08543e-15
1.42391e-14
2.80965e-14
5.38177e-14
9.9108e-14
1.73833e-13
2.84613e-13
4.38002e-13
6.33348e-13
8.50978e-13
1.08627e-12
1.33707e-12
1.63987e-12
2.1005e-12
2.9702e-12
4.85046e-12
9.08763e-12
1.86645e-11
4.01265e-11
8.70925e-11
1.88034e-10
3.99736e-10
8.33682e-10
1.70273e-09
3.41664e-09
6.67443e-09
1.27657e-08
2.38768e-08
4.36773e-08
7.78779e-08
1.3668e-07
2.29003e-07
3.70966e-07
5.7763e-07
8.5871e-07
1.2059e-06
1.56729e-06
1.80094e-06
1.63247e-06
9.05257e-07
4.99767e-07
2.73898e-07
1.48324e-07
7.79777e-08
4.03097e-08
2.01976e-08
9.76987e-09
4.56777e-09
2.01983e-09
8.87931e-10
3.61325e-10
1.33743e-10
4.49131e-11
1.35929e-11
3.66377e-12
8.77187e-13
1.76975e-13
3.20182e-14
5.49818e-15
9.83598e-16
2.00712e-16
4.81558e-17
1.30543e-17
3.778e-18
1.12123e-18
3.33607e-19
9.83646e-20
2.85826e-20
8.16696e-21
2.2937e-21
6.33522e-22
1.72247e-22
4.61469e-23
1.21907e-23
3.17438e-24
8.12809e-25
2.0288e-25
4.84825e-26
1.06482e-26
1.94343e-27
1.83947e-28
4.33159e-20
1.68166e-19
3.60138e-19
6.67275e-19
1.16134e-18
1.95996e-18
3.26015e-18
5.39967e-18
8.97511e-18
1.48729e-17
2.48075e-17
4.20765e-17
7.30482e-17
1.30258e-16
2.3889e-16
4.50453e-16
8.71568e-16
1.72336e-15
3.46027e-15
6.99344e-15
1.40501e-14
2.77403e-14
5.31271e-14
9.78331e-14
1.7189e-13
2.81969e-13
4.34672e-13
6.29657e-13
8.47785e-13
1.08407e-12
1.33953e-12
1.6459e-12
2.11469e-12
3.00336e-12
4.93086e-12
9.28825e-12
1.91665e-11
4.12518e-11
8.97578e-11
1.94268e-10
4.13375e-10
8.63034e-10
1.76478e-09
3.54224e-09
6.92289e-09
1.32425e-08
2.47851e-08
4.53105e-08
8.07771e-08
1.41668e-07
2.37105e-07
3.83735e-07
5.96762e-07
8.85628e-07
1.24028e-06
1.6044e-06
1.82684e-06
1.62464e-06
8.95208e-07
4.92116e-07
2.68495e-07
1.44656e-07
7.58585e-08
3.89989e-08
1.94272e-08
9.33652e-09
4.34182e-09
1.90996e-09
8.31102e-10
3.33681e-10
1.22004e-10
4.04893e-11
1.21896e-11
3.10252e-12
7.32436e-13
1.45988e-13
2.62555e-14
4.53419e-15
8.26291e-16
1.73099e-16
4.25078e-17
1.17e-17
3.4159e-18
1.01892e-18
3.04121e-19
8.98617e-20
2.61538e-20
7.48302e-21
2.10411e-21
5.81762e-22
1.58306e-22
4.24325e-23
1.1213e-23
2.92082e-24
7.47725e-25
1.86676e-25
4.46408e-26
9.8119e-27
1.79163e-27
1.69618e-28
4.31223e-20
1.67422e-19
3.58563e-19
6.64376e-19
1.15629e-18
1.95131e-18
3.2453e-18
5.37368e-18
8.92801e-18
1.47851e-17
2.46454e-17
4.1775e-17
7.24778e-17
1.29159e-16
2.36731e-16
4.46112e-16
8.62633e-16
1.70466e-15
3.42099e-15
6.91009e-15
1.38907e-14
2.74129e-14
5.25431e-14
9.69106e-14
1.70425e-13
2.79915e-13
4.32201e-13
6.27117e-13
8.45961e-13
1.08364e-12
1.34165e-12
1.65198e-12
2.12895e-12
3.0364e-12
5.01056e-12
9.48553e-12
1.96426e-11
4.23805e-11
9.2376e-11
2.00283e-10
4.26524e-10
8.91134e-10
1.82244e-09
3.65876e-09
7.15234e-09
1.3687e-08
2.56107e-08
4.68149e-08
8.34457e-08
1.4625e-07
2.44735e-07
3.95817e-07
6.14889e-07
9.10821e-07
1.27215e-06
1.63826e-06
1.8491e-06
1.61452e-06
8.87975e-07
4.87065e-07
2.64955e-07
1.42151e-07
7.45589e-08
3.81558e-08
1.89126e-08
9.04083e-09
4.18316e-09
1.83571e-09
7.91924e-10
3.14537e-10
1.13762e-10
3.73187e-11
1.10831e-11
2.77756e-12
6.46315e-13
1.27147e-13
2.2671e-14
3.91537e-15
7.20545e-16
1.53369e-16
3.82107e-17
1.06169e-17
3.11627e-18
9.32336e-19
2.78785e-19
8.24806e-20
2.40315e-20
6.88264e-21
1.93717e-21
5.36101e-22
1.45987e-22
3.91461e-23
1.03499e-23
2.69745e-24
6.91235e-25
1.72765e-25
4.13518e-26
9.09472e-27
1.66129e-27
1.57308e-28
4.29421e-20
1.66723e-19
3.57061e-19
6.6158e-19
1.15139e-18
1.94302e-18
3.23152e-18
5.35108e-18
8.89148e-18
1.47202e-17
2.45283e-17
4.15565e-17
7.20481e-17
1.28301e-16
2.34996e-16
4.42591e-16
8.55449e-16
1.68988e-15
3.39081e-15
6.84601e-15
1.37555e-14
2.71614e-14
5.20944e-14
9.61324e-14
1.69262e-13
2.7834e-13
4.30376e-13
6.25342e-13
8.44892e-13
1.08383e-12
1.34406e-12
1.65808e-12
2.14264e-12
3.0678e-12
5.0855e-12
9.66842e-12
2.00928e-11
4.34448e-11
9.48174e-11
2.05789e-10
4.38485e-10
9.16473e-10
1.87506e-09
3.76548e-09
7.36335e-09
1.40913e-08
2.63691e-08
4.8201e-08
8.59062e-08
1.50477e-07
2.51688e-07
4.06707e-07
6.31038e-07
9.33293e-07
1.30029e-06
1.6675e-06
1.86693e-06
1.60389e-06
8.75976e-07
4.80268e-07
2.60976e-07
1.39746e-07
7.33283e-08
3.72814e-08
1.84202e-08
8.77175e-09
4.04123e-09
1.77465e-09
7.59642e-10
2.98874e-10
1.07073e-10
3.47875e-11
1.02158e-11
2.54795e-12
5.86311e-13
1.14102e-13
2.01867e-14
3.48027e-15
6.44008e-16
1.38501e-16
3.48422e-17
9.74293e-18
2.87008e-18
8.60389e-19
2.57573e-19
7.62688e-20
2.22374e-20
6.37324e-21
1.79513e-21
4.97266e-22
1.35625e-22
3.64589e-23
9.66546e-24
2.52445e-24
6.47252e-25
1.61719e-25
3.86908e-26
8.50675e-27
1.55356e-27
1.47099e-28
4.27924e-20
1.66144e-19
3.55823e-19
6.59279e-19
1.14736e-18
1.93614e-18
3.21984e-18
5.33118e-18
8.85496e-18
1.4654e-17
2.44127e-17
4.13569e-17
7.1704e-17
1.27654e-16
2.33696e-16
4.39821e-16
8.49596e-16
1.67769e-15
3.365e-15
6.79559e-15
1.36556e-14
2.69738e-14
5.17642e-14
9.55774e-14
1.68401e-13
2.77173e-13
4.29057e-13
6.24131e-13
8.44339e-13
1.08442e-12
1.34665e-12
1.66411e-12
2.15604e-12
3.09816e-12
5.15793e-12
9.84678e-12
2.05294e-11
4.4474e-11
9.71859e-11
2.11179e-10
4.50061e-10
9.40721e-10
1.92477e-09
3.86504e-09
7.55934e-09
1.44676e-08
2.70735e-08
4.94854e-08
8.81743e-08
1.54322e-07
2.58038e-07
4.16684e-07
6.45755e-07
9.53308e-07
1.32466e-06
1.69112e-06
1.87707e-06
1.58307e-06
8.65541e-07
4.74062e-07
2.57253e-07
1.37502e-07
7.19732e-08
3.65622e-08
1.80041e-08
8.53969e-09
3.91872e-09
1.72257e-09
7.32289e-10
2.85738e-10
1.01517e-10
3.26738e-11
9.47791e-12
2.36308e-12
5.3888e-13
1.03915e-13
1.8255e-14
3.14285e-15
5.84644e-16
1.26912e-16
3.21954e-17
9.05082e-18
2.67381e-18
8.02695e-19
2.40476e-19
7.12373e-20
2.0777e-20
5.95603e-21
1.67742e-21
4.64504e-22
1.26666e-22
3.40714e-23
9.03468e-24
2.36039e-24
6.05845e-25
1.5156e-25
3.62967e-26
7.98575e-27
1.45897e-27
1.38165e-28
4.26709e-20
1.65675e-19
3.5482e-19
6.57419e-19
1.14411e-18
1.93059e-18
3.21047e-18
5.31532e-18
8.82533e-18
1.45993e-17
2.43138e-17
4.11771e-17
7.13684e-17
1.27032e-16
2.32536e-16
4.37652e-16
8.45154e-16
1.66823e-15
3.34507e-15
6.75346e-15
1.35754e-14
2.68255e-14
5.1489e-14
9.51313e-14
1.67727e-13
2.76296e-13
4.28112e-13
6.23334e-13
8.44146e-13
1.08523e-12
1.34924e-12
1.6698e-12
2.16844e-12
3.12671e-12
5.22696e-12
1.00126e-11
2.0927e-11
4.54045e-11
9.93181e-11
2.15921e-10
4.6043e-10
9.62923e-10
1.97108e-09
3.95872e-09
7.74272e-09
1.48168e-08
2.77206e-08
5.06469e-08
9.02051e-08
1.57747e-07
2.63573e-07
4.25219e-07
6.58237e-07
9.70231e-07
1.34494e-06
1.71002e-06
1.8823e-06
1.55969e-06
8.53901e-07
4.67439e-07
2.53417e-07
1.35254e-07
7.06419e-08
3.58638e-08
1.76111e-08
8.32697e-09
3.80825e-09
1.67616e-09
7.08063e-10
2.7435e-10
9.66982e-11
3.08716e-11
8.86509e-12
2.21237e-12
5.00082e-13
9.56588e-14
1.67098e-14
2.87457e-15
5.37329e-16
1.17576e-16
3.00347e-17
8.47952e-18
2.51058e-18
7.54497e-19
2.2616e-19
6.70214e-20
1.95561e-20
5.61065e-21
1.58306e-21
4.3941e-22
1.19982e-22
3.22815e-23
8.56162e-24
2.23683e-24
5.73888e-25
1.43521e-25
3.43646e-26
7.55958e-27
1.38097e-27
1.30772e-28
4.25742e-20
1.65302e-19
3.54023e-19
6.55945e-19
1.14154e-18
1.92622e-18
3.20313e-18
5.303e-18
8.80185e-18
1.45555e-17
2.42346e-17
4.10336e-17
7.11029e-17
1.26527e-16
2.31551e-16
4.35677e-16
8.41299e-16
1.66062e-15
3.32966e-15
6.72223e-15
1.35136e-14
2.67083e-14
5.12895e-14
9.48016e-14
1.67241e-13
2.75667e-13
4.27462e-13
6.22847e-13
8.44196e-13
1.08617e-12
1.35172e-12
1.67507e-12
2.17981e-12
3.15221e-12
5.28663e-12
1.01564e-11
2.12746e-11
4.62167e-11
1.01162e-10
2.20103e-10
4.69426e-10
9.81783e-10
2.00956e-09
4.03561e-09
7.8959e-09
1.51165e-08
2.82954e-08
5.16825e-08
9.20134e-08
1.60729e-07
2.68382e-07
4.32635e-07
6.68948e-07
9.84499e-07
1.36166e-06
1.72455e-06
1.8838e-06
1.53553e-06
8.41688e-07
4.6063e-07
2.49571e-07
1.32973e-07
6.93166e-08
3.51319e-08
1.72101e-08
8.11474e-09
3.69938e-09
1.63083e-09
6.85583e-10
2.64025e-10
9.2534e-11
2.93401e-11
8.35021e-12
2.08733e-12
4.68528e-13
8.89713e-14
1.54616e-14
2.65726e-15
4.9865e-16
1.09836e-16
2.82189e-17
7.99522e-18
2.37166e-18
7.13431e-19
2.13961e-19
6.34269e-20
1.8512e-20
5.31207e-21
1.49869e-21
4.16051e-22
1.13808e-22
3.06617e-23
8.1385e-24
2.12623e-24
5.45636e-25
1.36488e-25
3.2687e-26
7.19149e-27
1.31381e-27
1.24415e-28
4.24981e-20
1.65008e-19
3.53397e-19
6.54786e-19
1.13952e-18
1.9228e-18
3.1974e-18
5.29341e-18
8.78344e-18
1.45212e-17
2.41725e-17
4.09214e-17
7.08957e-17
1.26135e-16
2.30787e-16
4.3416e-16
8.38249e-16
1.65423e-15
3.31707e-15
6.69841e-15
1.34676e-14
2.66227e-14
5.11373e-14
9.45541e-14
1.6688e-13
2.75214e-13
4.27018e-13
6.22561e-13
8.44381e-13
1.0871e-12
1.35393e-12
1.67954e-12
2.18928e-12
3.17372e-12
5.33734e-12
1.02786e-11
2.1566e-11
4.68921e-11
1.02693e-10
2.23462e-10
4.76518e-10
9.96312e-10
2.03875e-09
4.09142e-09
7.99918e-09
1.52997e-08
2.88881e-08
5.26267e-08
9.35986e-08
1.63314e-07
2.72548e-07
4.38972e-07
6.78008e-07
9.964e-07
1.37512e-06
1.7356e-06
1.88311e-06
1.51317e-06
8.30223e-07
4.54495e-07
2.46706e-07
1.30022e-07
6.77573e-08
3.43133e-08
1.67881e-08
7.90229e-09
3.59539e-09
1.58842e-09
6.64994e-10
2.54899e-10
8.88741e-11
2.80276e-11
7.91993e-12
1.98499e-12
4.41952e-13
8.32339e-14
1.43788e-14
2.46734e-15
4.64662e-16
1.03018e-16
2.66232e-17
7.57243e-18
2.25138e-18
6.78173e-19
2.03565e-19
6.03829e-20
1.76321e-20
5.06152e-21
1.42833e-21
3.96495e-22
1.08371e-22
2.91881e-23
7.74959e-24
2.02681e-24
5.20619e-25
1.3033e-25
3.12305e-26
6.87386e-27
1.25609e-27
1.1896e-28
4.24393e-20
1.64781e-19
3.52912e-19
6.53888e-19
1.13795e-18
1.92014e-18
3.19291e-18
5.28583e-18
8.76914e-18
1.44945e-17
2.41245e-17
4.08346e-17
7.07356e-17
1.25831e-16
2.30196e-16
4.32989e-16
8.35843e-16
1.64948e-15
3.30733e-15
6.67895e-15
1.34313e-14
2.65561e-14
5.10225e-14
9.43711e-14
1.66619e-13
2.74901e-13
4.26742e-13
6.22446e-13
8.4467e-13
1.08803e-12
1.35597e-12
1.68363e-12
2.19784e-12
3.19283e-12
5.38283e-12
1.03884e-11
2.18309e-11
4.75053e-11
1.04074e-10
2.26535e-10
4.83146e-10
1.01032e-09
2.06751e-09
4.14895e-09
8.11335e-09
1.5522e-08
2.93046e-08
5.33683e-08
9.48776e-08
1.65407e-07
2.75914e-07
4.44095e-07
6.85312e-07
1.00595e-06
1.38592e-06
1.74402e-06
1.88112e-06
1.49241e-06
8.19454e-07
4.485e-07
2.43318e-07
1.28154e-07
6.66905e-08
3.37219e-08
1.64701e-08
7.73793e-09
3.51388e-09
1.55487e-09
6.48784e-10
2.47737e-10
8.60391e-11
2.7023e-11
7.60498e-12
1.91454e-12
4.0542e-13
7.60857e-14
1.31422e-14
2.26769e-15
4.31684e-16
9.68517e-17
2.52513e-17
7.21956e-18
2.15257e-18
6.49438e-19
1.95125e-19
5.79167e-20
1.69205e-20
4.85935e-21
1.3718e-21
3.80923e-22
1.04141e-22
2.80556e-23
7.45076e-24
1.94925e-24
5.00864e-25
1.25425e-25
3.0063e-26
6.61814e-27
1.20949e-27
1.14544e-28
4.23955e-20
1.64612e-19
3.52553e-19
6.53225e-19
1.1368e-18
1.91819e-18
3.18966e-18
5.28041e-18
8.75868e-18
1.44749e-17
2.4089e-17
4.07704e-17
7.06172e-17
1.25607e-16
2.29762e-16
4.32129e-16
8.341e-16
1.64595e-15
3.30015e-15
6.66467e-15
1.34038e-14
2.65072e-14
5.09397e-14
9.42409e-14
1.66438e-13
2.74691e-13
4.26572e-13
6.22417e-13
8.44969e-13
1.08884e-12
1.35767e-12
1.68698e-12
2.20487e-12
3.20873e-12
5.42075e-12
1.04797e-11
2.20476e-11
4.80073e-11
1.05221e-10
2.29088e-10
4.8864e-10
1.02189e-09
2.09127e-09
4.19636e-09
8.20627e-09
1.56989e-08
2.96237e-08
5.39437e-08
9.58793e-08
1.67049e-07
2.78563e-07
4.4814e-07
6.91091e-07
1.01344e-06
1.39426e-06
1.75023e-06
1.87852e-06
1.47412e-06
8.09937e-07
4.43207e-07
2.4033e-07
1.26581e-07
6.58208e-08
3.32481e-08
1.62194e-08
7.61012e-09
3.45178e-09
1.52746e-09
6.35652e-10
2.42004e-10
8.37881e-11
2.62267e-11
7.3537e-12
1.8438e-12
3.88213e-13
7.24769e-14
1.24761e-14
2.15223e-15
4.11088e-16
9.27028e-17
2.42741e-17
6.95938e-18
2.07836e-18
6.27657e-19
1.887e-19
5.60354e-20
1.63769e-20
4.70467e-21
1.32848e-21
3.68992e-22
1.00909e-22
2.71931e-23
7.22396e-24
1.89045e-24
4.85878e-25
1.21697e-25
2.9174e-26
6.42308e-27
1.1739e-27
1.11176e-28
4.23647e-20
1.64493e-19
3.523e-19
6.52759e-19
1.13599e-18
1.91683e-18
3.1874e-18
5.27666e-18
8.75134e-18
1.4461e-17
2.40638e-17
4.07248e-17
7.05326e-17
1.25446e-16
2.29446e-16
4.31493e-16
8.32837e-16
1.64339e-15
3.29512e-15
6.65479e-15
1.33848e-14
2.64726e-14
5.08813e-14
9.41516e-14
1.66317e-13
2.74556e-13
4.26479e-13
6.22437e-13
8.45239e-13
1.08949e-12
1.35899e-12
1.68956e-12
2.21028e-12
3.221e-12
5.44992e-12
1.05499e-11
2.22154e-11
4.83971e-11
1.061e-10
2.3104e-10
4.92845e-10
1.03071e-09
2.10931e-09
4.23178e-09
8.27529e-09
1.58301e-08
2.98595e-08
5.43703e-08
9.66215e-08
1.68264e-07
2.80524e-07
4.51133e-07
6.9536e-07
1.01899e-06
1.40036e-06
1.75461e-06
1.87608e-06
1.45984e-06
8.02375e-07
4.39004e-07
2.37971e-07
1.25344e-07
6.51422e-08
3.28833e-08
1.60278e-08
7.51332e-09
3.40586e-09
1.50584e-09
6.25485e-10
2.37618e-10
8.20813e-11
2.56258e-11
7.16527e-12
1.7911e-12
3.75813e-13
6.99607e-14
1.20228e-14
2.07504e-15
3.9743e-16
8.99442e-17
2.36175e-17
6.78225e-18
2.02722e-18
6.12487e-19
1.84186e-19
5.4705e-20
1.59909e-20
4.59483e-21
1.29787e-21
3.60601e-22
9.8638e-23
2.65857e-23
7.0634e-24
1.84863e-24
4.7518e-25
1.19028e-25
2.85363e-26
6.28295e-27
1.14831e-27
1.08753e-28
4.23451e-20
1.64418e-19
3.5214e-19
6.52465e-19
1.13548e-18
1.91598e-18
3.18599e-18
5.27432e-18
8.74676e-18
1.44523e-17
2.40481e-17
4.06965e-17
7.04805e-17
1.25347e-16
2.29254e-16
4.31111e-16
8.3207e-16
1.64184e-15
3.29201e-15
6.64869e-15
1.33733e-14
2.64517e-14
5.08462e-14
9.40977e-14
1.66245e-13
2.7448e-13
4.26435e-13
6.22474e-13
8.45448e-13
1.08997e-12
1.35991e-12
1.69133e-12
2.21399e-12
3.22939e-12
5.46986e-12
1.05976e-11
2.23293e-11
4.86617e-11
1.067e-10
2.32377e-10
4.95707e-10
1.03667e-09
2.12142e-09
4.25559e-09
8.32143e-09
1.5917e-08
3.00146e-08
5.46506e-08
9.71101e-08
1.69063e-07
2.81813e-07
4.53096e-07
6.98152e-07
1.0226e-06
1.40432e-06
1.75739e-06
1.87431e-06
1.45028e-06
7.97118e-07
4.36084e-07
2.36337e-07
1.24489e-07
6.46766e-08
3.26343e-08
1.58981e-08
7.44828e-09
3.37486e-09
1.49127e-09
6.18658e-10
2.34691e-10
8.09491e-11
2.5231e-11
7.04205e-12
1.75685e-12
3.67875e-13
6.83553e-14
1.17359e-14
2.02664e-15
3.88925e-16
8.82292e-17
2.3208e-17
6.6713e-18
1.99503e-18
6.02906e-19
1.81327e-19
5.38595e-20
1.57447e-20
4.52431e-21
1.27799e-21
3.55098e-22
9.71423e-23
2.61862e-23
6.95837e-24
1.82141e-24
4.68241e-25
1.17302e-25
2.81243e-26
6.19247e-27
1.13179e-27
1.07188e-28
4.2335e-20
1.64379e-19
3.52057e-19
6.52311e-19
1.13522e-18
1.91553e-18
3.18526e-18
5.27312e-18
8.74443e-18
1.4448e-17
2.40403e-17
4.06826e-17
7.04553e-17
1.25299e-16
2.29162e-16
4.3093e-16
8.31705e-16
1.6411e-15
3.29052e-15
6.64571e-15
1.33676e-14
2.64417e-14
5.08295e-14
9.40721e-14
1.66211e-13
2.74446e-13
4.26418e-13
6.22499e-13
8.45558e-13
1.09021e-12
1.36038e-12
1.69222e-12
2.21586e-12
3.23362e-12
5.47984e-12
1.06216e-11
2.23866e-11
4.87942e-11
1.06999e-10
2.33037e-10
4.97118e-10
1.03962e-09
2.12741e-09
4.26739e-09
8.34435e-09
1.59604e-08
3.00919e-08
5.47903e-08
9.73526e-08
1.69459e-07
2.82452e-07
4.5407e-07
6.99538e-07
1.02439e-06
1.40627e-06
1.75873e-06
1.87338e-06
1.44548e-06
7.94468e-07
4.34612e-07
2.35514e-07
1.24056e-07
6.4441e-08
3.25084e-08
1.58329e-08
7.41572e-09
3.35951e-09
1.48403e-09
6.15269e-10
2.33242e-10
8.03904e-11
2.50368e-11
6.98176e-12
1.7402e-12
3.64047e-13
6.75897e-14
1.15997e-14
2.00378e-15
3.84935e-16
8.74282e-17
2.30171e-17
6.61956e-18
1.98003e-18
5.98436e-19
1.79992e-19
5.34643e-20
1.56294e-20
4.49124e-21
1.26867e-21
3.52513e-22
9.64378e-23
2.59972e-23
6.90842e-24
1.80841e-24
4.64914e-25
1.16471e-25
2.79255e-26
6.14875e-27
1.12379e-27
1.06431e-28
4.23335e-20
1.64373e-19
3.52044e-19
6.52287e-19
1.13517e-18
1.91546e-18
3.18512e-18
5.2729e-18
8.74404e-18
1.44473e-17
2.40393e-17
4.06811e-17
7.04529e-17
1.25296e-16
2.29157e-16
4.30925e-16
8.31701e-16
1.6411e-15
3.29052e-15
6.64573e-15
1.33677e-14
2.64417e-14
5.08296e-14
9.40723e-14
1.66212e-13
2.74446e-13
4.26419e-13
6.22501e-13
8.45562e-13
1.09022e-12
1.36039e-12
1.69224e-12
2.21588e-12
3.23366e-12
5.47994e-12
1.06218e-11
2.2387e-11
4.87952e-11
1.07001e-10
2.33041e-10
4.97126e-10
1.03963e-09
2.12744e-09
4.26745e-09
8.34448e-09
1.59606e-08
3.00923e-08
5.47909e-08
9.73537e-08
1.69461e-07
2.82455e-07
4.54075e-07
6.99544e-07
1.0244e-06
1.40627e-06
1.75874e-06
1.87338e-06
1.44547e-06
7.94467e-07
4.34612e-07
2.35514e-07
1.24055e-07
6.44408e-08
3.25084e-08
1.58329e-08
7.4158e-09
3.3597e-09
1.4841e-09
6.15297e-10
2.33252e-10
8.03937e-11
2.50378e-11
6.98206e-12
1.74028e-12
3.64064e-13
6.75929e-14
1.16003e-14
2.00387e-15
3.8495e-16
8.74311e-17
2.30178e-17
6.61974e-18
1.98008e-18
5.98452e-19
1.79996e-19
5.34657e-20
1.56298e-20
4.49135e-21
1.2687e-21
3.52523e-22
9.64403e-23
2.59979e-23
6.9086e-24
1.80845e-24
4.64925e-25
1.16474e-25
2.79262e-26
6.14889e-27
1.12382e-27
1.06433e-28
4.23413e-20
1.64403e-19
3.52107e-19
6.52401e-19
1.13537e-18
1.91578e-18
3.18565e-18
5.27376e-18
8.74582e-18
1.44508e-17
2.40457e-17
4.06929e-17
7.04754e-17
1.2534e-16
2.29245e-16
4.31102e-16
8.32063e-16
1.64184e-15
3.29203e-15
6.64874e-15
1.33734e-14
2.6452e-14
5.08466e-14
9.40983e-14
1.66246e-13
2.74482e-13
4.26439e-13
6.22481e-13
8.45459e-13
1.08999e-12
1.35994e-12
1.69137e-12
2.21406e-12
3.22954e-12
5.47017e-12
1.05983e-11
2.2331e-11
4.86655e-11
1.06708e-10
2.32391e-10
4.95735e-10
1.03673e-09
2.12153e-09
4.25581e-09
8.32185e-09
1.59178e-08
3.0016e-08
5.46529e-08
9.71134e-08
1.69069e-07
2.81822e-07
4.5311e-07
6.98171e-07
1.02262e-06
1.40434e-06
1.75741e-06
1.87431e-06
1.45027e-06
7.97115e-07
4.36083e-07
2.36337e-07
1.24488e-07
6.46762e-08
3.26342e-08
1.58981e-08
7.44827e-09
3.37482e-09
1.49126e-09
6.18656e-10
2.34692e-10
8.09504e-11
2.52318e-11
7.04235e-12
1.75695e-12
3.67902e-13
6.83611e-14
1.17371e-14
2.02684e-15
3.88963e-16
8.82372e-17
2.32099e-17
6.67181e-18
1.99518e-18
6.0295e-19
1.8134e-19
5.38634e-20
1.57459e-20
4.52465e-21
1.27809e-21
3.55126e-22
9.71498e-23
2.61881e-23
6.95885e-24
1.82153e-24
4.68271e-25
1.17309e-25
2.8126e-26
6.19286e-27
1.13186e-27
1.07195e-28
4.23592e-20
1.64472e-19
3.52253e-19
6.5267e-19
1.13583e-18
1.91656e-18
3.18695e-18
5.27592e-18
8.75013e-18
1.44591e-17
2.40609e-17
4.07207e-17
7.05273e-17
1.25439e-16
2.29439e-16
4.31489e-16
8.32839e-16
1.64341e-15
3.29516e-15
6.65487e-15
1.3385e-14
2.64729e-14
5.0882e-14
9.41529e-14
1.66319e-13
2.74561e-13
4.26486e-13
6.22449e-13
8.45258e-13
1.08952e-12
1.35903e-12
1.68962e-12
2.21038e-12
3.22118e-12
5.4503e-12
1.05508e-11
2.22177e-11
4.84026e-11
1.06113e-10
2.31071e-10
4.92904e-10
1.03082e-09
2.1095e-09
4.2322e-09
8.27596e-09
1.58309e-08
2.98607e-08
5.43719e-08
9.66255e-08
1.68272e-07
2.80536e-07
4.51152e-07
6.95386e-07
1.01902e-06
1.4004e-06
1.75464e-06
1.87609e-06
1.4598e-06
8.02358e-07
4.38996e-07
2.37967e-07
1.25343e-07
6.51417e-08
3.28832e-08
1.60279e-08
7.5134e-09
3.40589e-09
1.50586e-09
6.25501e-10
2.37628e-10
8.2086e-11
2.56277e-11
7.16594e-12
1.79131e-12
3.75866e-13
6.99727e-14
1.20251e-14
2.07545e-15
3.97505e-16
8.99596e-17
2.36211e-17
6.78324e-18
2.0275e-18
6.12569e-19
1.84211e-19
5.47121e-20
1.5993e-20
4.59543e-21
1.29804e-21
3.60651e-22
9.86519e-23
2.65895e-23
7.06443e-24
1.84889e-24
4.75244e-25
1.19044e-25
2.85399e-26
6.28371e-27
1.14844e-27
1.08765e-28
4.23893e-20
1.64588e-19
3.525e-19
6.53126e-19
1.13663e-18
1.9179e-18
3.1892e-18
5.27967e-18
8.75752e-18
1.44732e-17
2.40865e-17
4.07673e-17
7.06137e-17
1.25604e-16
2.29761e-16
4.32133e-16
8.34115e-16
1.64598e-15
3.30022e-15
6.66481e-15
1.3404e-14
2.65077e-14
5.09406e-14
9.42427e-14
1.66442e-13
2.74697e-13
4.26582e-13
6.22433e-13
8.44992e-13
1.08887e-12
1.35771e-12
1.68704e-12
2.20495e-12
3.20885e-12
5.42092e-12
1.04799e-11
2.20489e-11
4.80104e-11
1.05228e-10
2.29106e-10
4.88684e-10
1.022e-09
2.0915e-09
4.19663e-09
8.20676e-09
1.56999e-08
2.96259e-08
5.39479e-08
9.58857e-08
1.6706e-07
2.78579e-07
4.48162e-07
6.91118e-07
1.01347e-06
1.39427e-06
1.75025e-06
1.87852e-06
1.47407e-06
8.09916e-07
4.43198e-07
2.40327e-07
1.26581e-07
6.58211e-08
3.32485e-08
1.62198e-08
7.61034e-09
3.45189e-09
1.52753e-09
6.35692e-10
2.42025e-10
8.37973e-11
2.62299e-11
7.35483e-12
1.84414e-12
3.883e-13
7.24955e-14
1.24796e-14
2.15284e-15
4.11198e-16
9.2725e-17
2.42793e-17
6.96075e-18
2.07875e-18
6.27771e-19
1.88734e-19
5.60452e-20
1.63797e-20
4.70546e-21
1.32869e-21
3.69047e-22
1.00923e-22
2.71967e-23
7.22484e-24
1.89067e-24
4.85931e-25
1.21709e-25
2.91768e-26
6.42365e-27
1.17399e-27
1.11185e-28
4.24329e-20
1.64756e-19
3.52858e-19
6.53789e-19
1.13778e-18
1.91985e-18
3.19246e-18
5.28514e-18
8.76809e-18
1.4493e-17
2.41225e-17
4.08322e-17
7.07331e-17
1.2583e-16
2.30198e-16
4.32997e-16
8.35863e-16
1.64952e-15
3.30742e-15
6.67912e-15
1.34316e-14
2.65567e-14
5.10237e-14
9.43733e-14
1.66624e-13
2.74909e-13
4.26754e-13
6.22465e-13
8.44696e-13
1.08807e-12
1.35602e-12
1.68372e-12
2.19796e-12
3.19305e-12
5.38324e-12
1.03893e-11
2.18317e-11
4.75066e-11
1.04077e-10
2.2654e-10
4.83158e-10
1.01035e-09
2.06757e-09
4.14913e-09
8.11378e-09
1.5523e-08
2.93067e-08
5.3372e-08
9.48853e-08
1.65421e-07
2.75936e-07
4.44128e-07
6.85357e-07
1.00601e-06
1.38597e-06
1.74405e-06
1.88111e-06
1.49236e-06
8.1943e-07
4.48491e-07
2.43315e-07
1.28153e-07
6.66905e-08
3.37223e-08
1.64704e-08
7.73809e-09