/*--------------------------------*- C++ -*----------------------------------*\
  =========                 |
  \\      /  F ield         | OpenFOAM: The Open Source CFD Toolbox
   \\    /   O peration     | Website:  https://openfoam.org
    \\  /    A nd           | Version:  10
     \\/     M anipulation  |
\*---------------------------------------------------------------------------*/
FoamFile
{
    format      ascii;
    class       volScalarField;
    location    "1";
    object      CH2CO;
}
// * * * * * * * * * * * * * * * * * * * * * * * * * * * * * * * * * * * * * //

dimensions      [0 0 0 0 0 0 0];

internalField   nonuniform List<scalar> 
4000
(
6.46194e-10
2.50357e-09
5.33688e-09
9.81061e-09
1.68687e-08
2.79663e-08
4.53412e-08
7.24056e-08
1.14311e-07
1.7661e-07
2.68033e-07
4.01321e-07
5.93736e-07
8.67721e-07
1.25133e-06
1.77802e-06
2.48486e-06
3.40967e-06
4.58675e-06
6.04243e-06
7.79105e-06
9.83243e-06
1.21517e-05
1.47335e-05
1.75319e-05
2.04449e-05
2.34974e-05
2.66982e-05
2.99122e-05
3.31749e-05
3.63958e-05
3.95801e-05
4.26834e-05
4.56672e-05
4.85119e-05
5.12031e-05
5.37296e-05
5.60842e-05
5.82562e-05
6.02407e-05
6.20442e-05
6.36336e-05
6.50163e-05
6.61918e-05
6.71674e-05
6.79803e-05
6.86708e-05
6.93661e-05
7.02332e-05
7.15427e-05
7.3443e-05
7.60264e-05
7.90813e-05
8.19305e-05
8.32944e-05
8.12719e-05
7.3704e-05
5.92729e-05
3.95257e-05
2.17403e-05
1.19769e-05
6.54434e-06
3.52844e-06
1.86819e-06
9.5973e-07
4.82517e-07
2.38082e-07
1.20937e-07
7.15703e-08
5.18705e-08
3.7284e-08
2.59094e-08
1.83208e-08
1.34057e-08
9.98283e-09
7.42728e-09
5.35413e-09
3.73934e-09
2.51007e-09
1.61418e-09
9.95764e-10
5.91995e-10
3.41259e-10
1.9188e-10
1.05755e-10
5.7351e-11
3.06877e-11
1.62346e-11
8.51411e-12
4.43105e-12
2.29049e-12
1.17675e-12
6.00981e-13
3.04951e-13
1.53449e-13
7.61949e-14
3.69121e-14
1.6976e-14
6.86637e-15
1.58095e-15
6.46623e-10
2.50532e-09
5.34126e-09
9.821e-09
1.68917e-08
2.80131e-08
4.54283e-08
7.25535e-08
1.14537e-07
1.76967e-07
2.68495e-07
4.01769e-07
5.93894e-07
8.67001e-07
1.24863e-06
1.77138e-06
2.47101e-06
3.38503e-06
4.54795e-06
5.98688e-06
7.71766e-06
9.7429e-06
1.20518e-05
1.46081e-05
1.73896e-05
2.0289e-05
2.33325e-05
2.65382e-05
2.97569e-05
3.30363e-05
3.62778e-05
3.94863e-05
4.26113e-05
4.56243e-05
4.84974e-05
5.12167e-05
5.37713e-05
5.61556e-05
5.8356e-05
6.03693e-05
6.22029e-05
6.3823e-05
6.52389e-05
6.64526e-05
6.74655e-05
6.83064e-05
6.90165e-05
6.97441e-05
7.06352e-05
7.19774e-05
7.39135e-05
7.65236e-05
7.95933e-05
8.24108e-05
8.36593e-05
8.13866e-05
7.34175e-05
5.85259e-05
3.84958e-05
2.11805e-05
1.16561e-05
6.35999e-06
3.42243e-06
1.80741e-06
9.26395e-07
4.64415e-07
2.28662e-07
1.16942e-07
7.06407e-08
5.14717e-08
3.67711e-08
2.55082e-08
1.80704e-08
1.32351e-08
9.83302e-09
7.28363e-09
5.22795e-09
3.63394e-09
2.42872e-09
1.55705e-09
9.59413e-10
5.70916e-10
3.30006e-10
1.86289e-10
1.03149e-10
5.62106e-11
3.02276e-11
1.6075e-11
8.45843e-12
4.41101e-12
2.28266e-12
1.17322e-12
5.99095e-13
3.0377e-13
1.52747e-13
7.57922e-14
3.66906e-14
1.68652e-14
6.8196e-15
1.5698e-15
6.48358e-10
2.51231e-09
5.35731e-09
9.85307e-09
1.69513e-08
2.81179e-08
4.56027e-08
7.28265e-08
1.14932e-07
1.7753e-07
2.69204e-07
4.0252e-07
5.94478e-07
8.66904e-07
1.24692e-06
1.76643e-06
2.46117e-06
3.36787e-06
4.5203e-06
5.94501e-06
7.65771e-06
9.66088e-06
1.19477e-05
1.44924e-05
1.72633e-05
2.01558e-05
2.32004e-05
2.64056e-05
2.96293e-05
3.29236e-05
3.61746e-05
3.93978e-05
4.25422e-05
4.55898e-05
4.85003e-05
5.1259e-05
5.38545e-05
5.62823e-05
5.85256e-05
6.05827e-05
6.24613e-05
6.41251e-05
6.5588e-05
6.68545e-05
6.79012e-05
6.87827e-05
6.9539e-05
7.03102e-05
7.12631e-05
7.26622e-05
7.46487e-05
7.73248e-05
8.04187e-05
8.31809e-05
8.42255e-05
8.15172e-05
7.28668e-05
5.71855e-05
3.66783e-05
2.01958e-05
1.10977e-05
6.04307e-06
3.24084e-06
1.70453e-06
8.71467e-07
4.35121e-07
2.14086e-07
1.1084e-07
6.9259e-08
5.07492e-08
3.60044e-08
2.49227e-08
1.77375e-08
1.30517e-08
9.61545e-09
7.125e-09
5.09797e-09
3.53089e-09
2.35248e-09
1.50511e-09
9.26765e-10
5.51782e-10
3.19407e-10
1.80668e-10
1.00264e-10
5.47638e-11
2.95088e-11
1.57153e-11
8.28419e-12
4.32793e-12
2.2432e-12
1.15444e-12
5.90212e-13
2.99709e-13
1.50801e-13
7.48358e-14
3.62222e-14
1.66448e-14
6.72827e-15
1.54838e-15
6.48852e-10
2.51424e-09
5.36148e-09
9.8608e-09
1.69641e-08
2.81365e-08
4.56246e-08
7.28399e-08
1.14905e-07
1.77425e-07
2.68874e-07
4.01664e-07
5.92499e-07
8.63073e-07
1.24023e-06
1.75573e-06
2.44476e-06
3.3438e-06
4.48659e-06
5.90013e-06
7.60107e-06
9.59345e-06
1.18661e-05
1.44005e-05
1.71659e-05
2.00521e-05
2.30931e-05
2.63016e-05
2.95262e-05
3.28281e-05
3.60915e-05
3.9333e-05
4.25019e-05
4.55804e-05
4.85324e-05
5.13359e-05
5.39778e-05
5.64546e-05
5.87478e-05
6.08566e-05
6.27901e-05
6.4511e-05
6.60254e-05
6.73356e-05
6.84375e-05
6.93739e-05
7.01869e-05
7.10205e-05
7.20248e-05
7.34834e-05
7.55296e-05
7.82612e-05
8.13825e-05
8.40799e-05
8.48513e-05
8.15873e-05
7.20688e-05
5.53917e-05
3.43009e-05
1.89108e-05
1.0385e-05
5.65945e-06
3.00047e-06
1.57334e-06
8.0292e-07
3.99359e-07
1.9664e-07
1.03837e-07
6.77181e-08
4.97574e-08
3.49943e-08
2.425e-08
1.73457e-08
1.27806e-08
9.44444e-09
6.97319e-09
4.96019e-09
3.41518e-09
2.26323e-09
1.44196e-09
8.85484e-10
5.26578e-10
3.0484e-10
1.72601e-10
9.5941e-11
5.25042e-11
2.83505e-11
1.51304e-11
7.99222e-12
4.18337e-12
2.17196e-12
1.11937e-12
5.72865e-13
2.91036e-13
1.46517e-13
7.27505e-14
3.52317e-14
1.61976e-14
6.55014e-15
1.50774e-15
6.48295e-10
2.51208e-09
5.35686e-09
9.85203e-09
1.6948e-08
2.81062e-08
4.55664e-08
7.27256e-08
1.1468e-07
1.76978e-07
2.68058e-07
4.00245e-07
5.90188e-07
8.59346e-07
1.23433e-06
1.74662e-06
2.43117e-06
3.32425e-06
4.45964e-06
5.86466e-06
7.55662e-06
9.54051e-06
1.18065e-05
1.43315e-05
1.70859e-05
1.99612e-05
2.29913e-05
2.62044e-05
2.9438e-05
3.27522e-05
3.60327e-05
3.92948e-05
4.24912e-05
4.5602e-05
4.85978e-05
5.14451e-05
5.41336e-05
5.66598e-05
5.90037e-05
6.1164e-05
6.31523e-05
6.49263e-05
6.64965e-05
6.78675e-05
6.90272e-05
7.00185e-05
7.08824e-05
7.17684e-05
7.28265e-05
7.43548e-05
7.64847e-05
7.92918e-05
8.24456e-05
8.50511e-05
8.55184e-05
8.16199e-05
7.11229e-05
5.33552e-05
3.1664e-05
1.74688e-05
9.58823e-06
5.21093e-06
2.75278e-06
1.43706e-06
7.31439e-07
3.62858e-07
1.7935e-07
9.71845e-08
6.629e-08
4.86544e-08
3.39953e-08
2.36042e-08
1.69498e-08
1.25202e-08
9.32107e-09
6.77246e-09
4.80213e-09
3.29333e-09
2.1743e-09
1.38129e-09
8.46765e-10
5.03249e-10
2.91418e-10
1.65147e-10
9.19115e-11
5.03698e-11
2.72373e-11
1.45566e-11
7.69916e-12
4.03467e-12
2.09687e-12
1.08155e-12
5.53862e-13
2.81518e-13
1.41779e-13
7.04191e-14
3.41114e-14
1.56858e-14
6.34416e-15
1.46036e-15
6.4673e-10
2.50604e-09
5.34393e-09
9.82792e-09
1.69053e-08
2.80323e-08
4.54383e-08
7.25001e-08
1.14292e-07
1.76335e-07
2.67041e-07
3.98708e-07
5.87853e-07
8.55781e-07
1.22894e-06
1.73861e-06
2.41952e-06
3.30767e-06
4.43657e-06
5.83327e-06
7.51486e-06
9.4856e-06
1.17366e-05
1.42521e-05
1.70036e-05
1.98793e-05
2.29145e-05
2.61337e-05
2.93746e-05
3.27006e-05
3.59991e-05
3.92822e-05
4.2508e-05
4.56506e-05
4.86864e-05
5.15776e-05
5.43125e-05
5.68875e-05
5.92831e-05
6.14983e-05
6.35393e-05
6.53681e-05
6.69952e-05
6.84264e-05
6.96478e-05
7.07023e-05
7.16352e-05
7.25847e-05
7.37243e-05
7.5344e-05
7.75612e-05
8.04353e-05
8.35972e-05
8.60946e-05
8.62277e-05
8.16661e-05
7.01858e-05
5.13872e-05
2.92626e-05
1.61667e-05
8.87795e-06
4.82452e-06
2.54576e-06
1.32573e-06
6.72022e-07
3.32399e-07
1.65061e-07
9.23827e-08
6.5121e-08
4.75015e-08
3.29941e-08
2.29855e-08
1.66037e-08
1.22906e-08
9.13573e-09
6.6145e-09
4.66842e-09
3.18568e-09
2.09345e-09
1.32488e-09
8.10012e-10
4.80648e-10
2.78151e-10
1.57639e-10
8.77814e-11
4.81486e-11
2.60641e-11
1.39459e-11
7.38497e-12
3.8745e-12
2.01571e-12
1.04049e-12
5.33141e-13
2.71137e-13
1.36625e-13
6.79005e-14
3.29113e-14
1.51413e-14
6.12574e-15
1.41016e-15
6.44239e-10
2.49635e-09
5.32303e-09
9.78888e-09
1.68372e-08
2.79182e-08
4.52538e-08
7.22145e-08
1.13836e-07
1.75584e-07
2.65876e-07
3.96868e-07
5.85001e-07
8.51466e-07
1.22255e-06
1.72935e-06
2.40648e-06
3.28976e-06
4.41264e-06
5.80217e-06
7.47716e-06
9.4413e-06
1.16876e-05
1.41982e-05
1.6946e-05
1.982e-05
2.28549e-05
2.60799e-05
2.93301e-05
3.26686e-05
3.59847e-05
3.9286e-05
4.25541e-05
4.57253e-05
4.87949e-05
5.17271e-05
5.45045e-05
5.71224e-05
5.95671e-05
6.18348e-05
6.39286e-05
6.58103e-05
6.74906e-05
6.89752e-05
7.026e-05
7.13677e-05
7.23627e-05
7.33748e-05
7.45893e-05
7.62911e-05
7.85927e-05
8.1544e-05
8.47387e-05
8.71443e-05
8.69618e-05
8.17791e-05
6.94199e-05
4.98195e-05
2.7693e-05
1.52835e-05
8.37947e-06
4.54297e-06
2.39096e-06
1.24017e-06
6.26464e-07
3.0943e-07
1.55446e-07
8.86709e-08
6.40012e-08
4.63551e-08
3.20961e-08
2.24622e-08
1.62993e-08
1.20749e-08
8.9693e-09
6.47057e-09
4.54579e-09
3.08697e-09
2.01965e-09
1.27366e-09
7.76772e-10
4.60253e-10
2.66179e-10
1.50847e-10
8.40276e-11
4.61165e-11
2.49821e-11
1.33776e-11
7.08999e-12
3.72305e-12
1.93892e-12
1.00228e-12
5.14363e-13
2.61882e-13
1.32023e-13
6.56218e-14
3.18054e-14
1.46312e-14
5.91898e-15
1.36252e-15
6.41435e-10
2.48545e-09
5.2995e-09
9.74467e-09
1.67589e-08
2.77835e-08
4.50254e-08
7.18297e-08
1.13209e-07
1.74566e-07
2.64138e-07
3.94096e-07
5.80737e-07
8.45085e-07
1.21325e-06
1.7162e-06
2.38847e-06
3.26594e-06
4.38236e-06
5.76541e-06
7.43326e-06
9.39197e-06
1.16361e-05
1.41469e-05
1.68933e-05
1.97656e-05
2.28052e-05
2.60366e-05
2.92974e-05
3.26503e-05
3.59905e-05
3.9314e-05
4.26115e-05
4.5813e-05
4.89163e-05
5.18887e-05
5.47099e-05
5.73825e-05
5.98728e-05
6.21845e-05
6.43105e-05
6.62431e-05
6.79741e-05
6.95198e-05
7.08483e-05
7.20045e-05
7.30443e-05
7.41061e-05
7.53826e-05
7.71655e-05
7.9564e-05
8.26014e-05
8.58313e-05
8.81509e-05
8.767e-05
8.1913e-05
6.87821e-05
4.85847e-05
2.68016e-05
1.47509e-05
8.06137e-06
4.35448e-06
2.28471e-06
1.18015e-06
5.93279e-07
2.92329e-07
1.47887e-07
8.68864e-08
6.3407e-08
4.55101e-08
3.14029e-08
2.20751e-08
1.60716e-08
1.19029e-08
8.8164e-09
6.33609e-09
4.4317e-09
2.99613e-09
1.9525e-09
1.22754e-09
7.47077e-10
4.42108e-10
2.55534e-10
1.44793e-10
8.06678e-11
4.42873e-11
2.40019e-11
1.28592e-11
6.81878e-12
3.58239e-12
1.86638e-12
9.64934e-13
4.9525e-13
2.52264e-13
1.27315e-13
6.33323e-14
3.07071e-14
1.41279e-14
5.71585e-15
1.31582e-15
6.38891e-10
2.47561e-09
5.27843e-09
9.70559e-09
1.66907e-08
2.76682e-08
4.4834e-08
7.15159e-08
1.12702e-07
1.73675e-07
2.62747e-07
3.91981e-07
5.77602e-07
8.40541e-07
1.20679e-06
1.70721e-06
2.37632e-06
3.25003e-06
4.36228e-06
5.74185e-06
7.40493e-06
9.36103e-06
1.16006e-05
1.41061e-05
1.68536e-05
1.97292e-05
2.27722e-05
2.60072e-05
2.92758e-05
3.26353e-05
3.60239e-05
3.9361e-05
4.26807e-05
4.59081e-05
4.90411e-05
5.20485e-05
5.49123e-05
5.76116e-05
6.01429e-05
6.25042e-05
6.46769e-05
6.66591e-05
6.84493e-05
7.00432e-05
7.14224e-05
7.26238e-05
7.37264e-05
7.4845e-05
7.61817e-05
7.8032e-05
8.04899e-05
8.35872e-05
8.68328e-05
8.90581e-05
8.8283e-05
8.19802e-05
6.8145e-05
4.74546e-05
2.61294e-05
1.4353e-05
7.82452e-06
4.21261e-06
2.20814e-06
1.13593e-06
5.68723e-07
2.79538e-07
1.42494e-07
8.59618e-08
6.30034e-08
4.48333e-08
3.08972e-08
2.18165e-08
1.59557e-08
1.1684e-08
8.65755e-09
6.21128e-09
4.33277e-09
2.92047e-09
1.8978e-09
1.19028e-09
7.23044e-10
4.27304e-10
2.46747e-10
1.39731e-10
7.78203e-11
4.27167e-11
2.31499e-11
1.24037e-11
6.57821e-12
3.45662e-12
1.80113e-12
9.31237e-13
4.77968e-13
2.43479e-13
1.22862e-13
6.11235e-14
2.96458e-14
1.36443e-14
5.52133e-15
1.27121e-15
6.3679e-10
2.46755e-09
5.26145e-09
9.67458e-09
1.66375e-08
2.75795e-08
4.4688e-08
7.12758e-08
1.12302e-07
1.72996e-07
2.61651e-07
3.90273e-07
5.75014e-07
8.36732e-07
1.20136e-06
1.69968e-06
2.36617e-06
3.23668e-06
4.34529e-06
5.72021e-06
7.3809e-06
9.33177e-06
1.15691e-05
1.40764e-05
1.6825e-05
1.97031e-05
2.27509e-05
2.59917e-05
2.92707e-05
3.26425e-05
3.60504e-05
3.94072e-05
4.27498e-05
4.6002e-05
4.91629e-05
5.22031e-05
5.50964e-05
5.78282e-05
6.03947e-05
6.27961e-05
6.50093e-05
6.70353e-05
6.88614e-05
7.04934e-05
7.19117e-05
7.31598e-05
7.42996e-05
7.54617e-05
7.68498e-05
7.87593e-05
8.12921e-05
8.44512e-05
8.77104e-05
8.98301e-05
8.87659e-05
8.19491e-05
6.74699e-05
4.63508e-05
2.54946e-05
1.39849e-05
7.60712e-06
4.08125e-06
2.14133e-06
1.0976e-06
5.47614e-07
2.68749e-07
1.38053e-07
8.52886e-08
6.25737e-08
4.42332e-08
3.04665e-08
2.15778e-08
1.58051e-08
1.15639e-08
8.55273e-09
6.11834e-09
4.25355e-09
2.85705e-09
1.85046e-09
1.15725e-09
7.01336e-10
4.13739e-10
2.38608e-10
1.35005e-10
7.51472e-11
4.12371e-11
2.23459e-11
1.19735e-11
6.35097e-12
3.33787e-12
1.73952e-12
8.99421e-13
4.61715e-13
2.35252e-13
1.18767e-13
5.91164e-14
2.86837e-14
1.32049e-14
5.34432e-15
1.23059e-15
6.347e-10
2.45946e-09
5.24412e-09
9.64256e-09
1.65822e-08
2.74879e-08
4.45411e-08
7.10478e-08
1.11964e-07
1.72455e-07
2.60813e-07
3.88992e-07
5.73026e-07
8.33722e-07
1.19693e-06
1.69345e-06
2.35778e-06
3.22583e-06
4.33207e-06
5.70379e-06
7.36036e-06
9.30931e-06
1.15458e-05
1.40524e-05
1.68035e-05
1.96851e-05
2.27383e-05
2.59852e-05
2.92742e-05
3.26573e-05
3.60809e-05
3.94548e-05
4.28168e-05
4.60899e-05
4.92732e-05
5.23377e-05
5.52603e-05
5.80219e-05
6.06179e-05
6.30495e-05
6.52928e-05
6.73481e-05
6.92059e-05
7.08708e-05
7.23243e-05
7.36043e-05
7.47786e-05
7.59797e-05
7.74142e-05
7.93807e-05
8.19721e-05
8.51739e-05
8.84275e-05
9.04436e-05
8.91073e-05
8.18274e-05
6.68003e-05
4.53891e-05
2.47942e-05
1.35955e-05
7.38897e-06
3.95748e-06
2.07785e-06
1.05866e-06
5.27071e-07
2.58596e-07
1.33949e-07
8.464e-08
6.2074e-08
4.36481e-08
3.00665e-08
2.13522e-08
1.56594e-08
1.1475e-08
8.47192e-09
6.04343e-09
4.18743e-09
2.80249e-09
1.80883e-09
1.12782e-09
6.81876e-10
4.01543e-10
2.3128e-10
1.30745e-10
7.2735e-11
3.99008e-11
2.16189e-11
1.15839e-11
6.1451e-12
3.23061e-12
1.6847e-12
8.72028e-13
4.48164e-13
2.28539e-13
1.15388e-13
5.74214e-14
2.78556e-14
1.28221e-14
5.18903e-15
1.19483e-15
6.32873e-10
2.4524e-09
5.22909e-09
9.61485e-09
1.65343e-08
2.7408e-08
4.44105e-08
7.08374e-08
1.11604e-07
1.71861e-07
2.59906e-07
3.87693e-07
5.71286e-07
8.31324e-07
1.19355e-06
1.68854e-06
2.35094e-06
3.21684e-06
4.32036e-06
5.69028e-06
7.34485e-06
9.29253e-06
1.15289e-05
1.40362e-05
1.6789e-05
1.96738e-05
2.27322e-05
2.5985e-05
2.92831e-05
3.26764e-05
3.61138e-05
3.95027e-05
4.28824e-05
4.61732e-05
4.93756e-05
5.2463e-05
5.54113e-05
5.81983e-05
6.08209e-05
6.32839e-05
6.5553e-05
6.76316e-05
6.95124e-05
7.12008e-05
7.26801e-05
7.39868e-05
7.51892e-05
7.64223e-05
7.78938e-05
7.99027e-05
8.25438e-05
8.57822e-05
8.90223e-05
9.09216e-05
8.93128e-05
8.15807e-05
6.60115e-05
4.42666e-05
2.42068e-05
1.32607e-05
7.19771e-06
3.84845e-06
2.01595e-06
1.02656e-06
5.09812e-07
2.49939e-07
1.30493e-07
8.40676e-08
6.15791e-08
4.31107e-08
2.97059e-08
2.1139e-08
1.55111e-08
1.13968e-08
8.40088e-09
5.97695e-09
4.12826e-09
2.75417e-09
1.7725e-09
1.10243e-09
6.65189e-10
3.91111e-10
2.25013e-10
1.27096e-10
7.0665e-11
3.87512e-11
2.09915e-11
1.12461e-11
5.96443e-12
3.13477e-12
1.63449e-12
8.46264e-13
4.34944e-13
2.21824e-13
1.12057e-13
5.57951e-14
2.70783e-14
1.24678e-14
5.04645e-15
1.1621e-15
6.31336e-10
2.44648e-09
5.21648e-09
9.59165e-09
1.64943e-08
2.73415e-08
4.43026e-08
7.06653e-08
1.11304e-07
1.7136e-07
2.59118e-07
3.86499e-07
5.69509e-07
8.2883e-07
1.19023e-06
1.6844e-06
2.34557e-06
3.20978e-06
4.3114e-06
5.67899e-06
7.3324e-06
9.27956e-06
1.15152e-05
1.40237e-05
1.67788e-05
1.96672e-05
2.27305e-05
2.59889e-05
2.92952e-05
3.26976e-05
3.61471e-05
3.95491e-05
4.29437e-05
4.62515e-05
4.9474e-05
5.25799e-05
5.55473e-05
5.83539e-05
6.09974e-05
6.34777e-05
6.57679e-05
6.78704e-05
6.97767e-05
7.14912e-05
7.29926e-05
7.43194e-05
7.55414e-05
7.67943e-05
7.82912e-05
8.03337e-05
8.30035e-05
8.62566e-05
8.94702e-05
9.12559e-05
8.93933e-05
8.12513e-05
6.52091e-05
4.31987e-05
2.36556e-05
1.29522e-05
7.02368e-06
3.75009e-06
1.96032e-06
9.97801e-07
4.94526e-07
2.42432e-07
1.27566e-07
8.35335e-08
6.1086e-08
4.26133e-08
2.9371e-08
2.09382e-08
1.53712e-08
1.13219e-08
8.33177e-09
5.91398e-09
4.07376e-09
2.71029e-09
1.73975e-09
1.07966e-09
6.50277e-10
3.81818e-10
2.19444e-10
1.23862e-10
6.88348e-11
3.77377e-11
2.04413e-11
1.09539e-11
5.81401e-12
3.05875e-12
1.59558e-12
8.26117e-13
4.24609e-13
2.16548e-13
1.09367e-13
5.4449e-14
2.64231e-14
1.21656e-14
4.92391e-15
1.13386e-15
6.30072e-10
2.44161e-09
5.20614e-09
9.57267e-09
1.64617e-08
2.72876e-08
4.42156e-08
7.05278e-08
1.11061e-07
1.7095e-07
2.58475e-07
3.85532e-07
5.68095e-07
8.26808e-07
1.1874e-06
1.68051e-06
2.34064e-06
3.2038e-06
4.30423e-06
5.67058e-06
7.3229e-06
9.26932e-06
1.15055e-05
1.40151e-05
1.67725e-05
1.96641e-05
2.27319e-05
2.59953e-05
2.9309e-05
3.27195e-05
3.61796e-05
3.95934e-05
4.30019e-05
4.63237e-05
4.95596e-05
5.26804e-05
5.56648e-05
5.84883e-05
6.11479e-05
6.36488e-05
6.59567e-05
6.80755e-05
6.99948e-05
7.17213e-05
7.32377e-05
7.4581e-05
7.5821e-05
7.70928e-05
7.86125e-05
8.06758e-05
8.33673e-05
8.66297e-05
8.98104e-05
9.14843e-05
8.93902e-05
8.08866e-05
6.44416e-05
4.22138e-05
2.31442e-05
1.26689e-05
6.86584e-06
3.65964e-06
1.90946e-06
9.70469e-07
4.80172e-07
2.35449e-07
1.24844e-07
8.29355e-08
6.05593e-08
4.21285e-08
2.90616e-08
2.07487e-08
1.52366e-08
1.12483e-08
8.26462e-09
5.85259e-09
4.02132e-09
2.66868e-09
1.70913e-09
1.05861e-09
6.36645e-10
3.73397e-10
2.14436e-10
1.20971e-10
6.72052e-11
3.68369e-11
1.99513e-11
1.06906e-11
5.6734e-12
2.98489e-12
1.5584e-12
8.0732e-13
4.15068e-13
2.11666e-13
1.06914e-13
5.32337e-14
2.58358e-14
1.18959e-14
4.81492e-15
1.10878e-15
6.29048e-10
2.43766e-09
5.19776e-09
9.55731e-09
1.64354e-08
2.72441e-08
4.41456e-08
7.04176e-08
1.10864e-07
1.7062e-07
2.57957e-07
3.84758e-07
5.6697e-07
8.25211e-07
1.18519e-06
1.67752e-06
2.33675e-06
3.19869e-06
4.29815e-06
5.66398e-06
7.3158e-06
9.26203e-06
1.14985e-05
1.40092e-05
1.67688e-05
1.96633e-05
2.27352e-05
2.60031e-05
2.93229e-05
3.274e-05
3.62087e-05
3.96316e-05
4.30504e-05
4.63839e-05
4.96316e-05
5.27656e-05
5.57637e-05
5.86013e-05
6.12764e-05
6.37915e-05
6.61125e-05
6.8243e-05
7.01761e-05
7.19132e-05
7.34375e-05
7.47855e-05
7.60544e-05
7.73349e-05
7.88676e-05
8.09471e-05
8.36567e-05
8.69212e-05
9.00678e-05
9.16393e-05
8.93413e-05
8.05329e-05
6.37553e-05
4.13694e-05
2.27023e-05
1.24305e-05
6.74905e-06
3.5584e-06
1.85609e-06
9.42712e-07
4.66185e-07
2.28864e-07
1.22356e-07
8.22823e-08
6.00083e-08
4.16678e-08
2.87691e-08
2.05719e-08
1.51124e-08
1.11781e-08
8.19202e-09
5.78612e-09
3.96649e-09
2.62685e-09
1.67938e-09
1.03876e-09
6.24073e-10
3.6577e-10
2.09962e-10
1.18416e-10
6.57771e-11
3.60526e-11
1.95266e-11
1.04633e-11
5.5528e-12
2.92108e-12
1.5244e-12
7.89602e-13
4.06027e-13
2.07165e-13
1.04685e-13
5.21405e-14
2.53114e-14
1.16564e-14
4.71848e-15
1.08662e-15
6.28231e-10
2.43451e-09
5.19107e-09
9.54502e-09
1.64143e-08
2.72091e-08
4.40889e-08
7.03274e-08
1.10707e-07
1.70358e-07
2.57548e-07
3.84148e-07
5.66087e-07
8.23961e-07
1.18346e-06
1.67521e-06
2.33366e-06
3.19491e-06
4.29352e-06
5.65861e-06
7.31017e-06
9.25639e-06
1.14933e-05
1.40053e-05
1.67668e-05
1.96639e-05
2.27393e-05
2.6011e-05
2.93362e-05
3.27594e-05
3.62353e-05
3.96664e-05
4.30937e-05
4.64358e-05
4.96932e-05
5.28377e-05
5.58481e-05
5.86967e-05
6.13816e-05
6.39069e-05
6.62382e-05
6.83795e-05
7.03217e-05
7.20674e-05
7.36006e-05
7.49577e-05
7.6235e-05
7.75233e-05
7.9066e-05
8.11571e-05
8.38789e-05
8.7144e-05
9.0261e-05
9.17467e-05
8.92793e-05
8.02156e-05
6.31625e-05
4.06401e-05
2.23189e-05
1.22176e-05
6.62971e-06
3.49322e-06
1.81957e-06
9.22882e-07
4.55833e-07
2.23875e-07
1.20412e-07
8.1754e-08
5.95616e-08
4.1302e-08
2.85432e-08
2.04418e-08
1.50368e-08
1.11479e-08
8.06479e-09
5.70138e-09
3.90791e-09
2.58669e-09
1.65258e-09
1.02152e-09
6.13392e-10
3.59368e-10
2.06231e-10
1.16292e-10
6.45905e-11
3.54009e-11
1.91741e-11
1.0275e-11
5.45327e-12
2.86894e-12
1.49729e-12
7.75617e-13
3.98873e-13
2.03541e-13
1.02868e-13
5.12429e-14
2.48785e-14
1.1458e-14
4.63834e-15
1.06815e-15
6.27606e-10
2.43211e-09
5.18596e-09
9.53566e-09
1.63982e-08
2.71826e-08
4.40463e-08
7.02603e-08
1.10588e-07
1.70157e-07
2.57235e-07
3.83682e-07
5.65414e-07
8.23014e-07
1.18216e-06
1.67347e-06
2.33139e-06
3.19208e-06
4.29011e-06
5.6547e-06
7.30593e-06
9.2523e-06
1.14898e-05
1.40027e-05
1.67659e-05
1.96652e-05
2.27435e-05
2.60182e-05
2.93476e-05
3.27753e-05
3.62569e-05
3.9694e-05
4.31281e-05
4.64772e-05
4.97424e-05
5.28951e-05
5.59131e-05
5.87689e-05
6.14619e-05
6.39952e-05
6.63339e-05
6.84826e-05
7.0432e-05
7.21847e-05
7.37248e-05
7.50881e-05
7.63705e-05
7.76654e-05
7.92168e-05
8.13173e-05
8.40489e-05
8.73153e-05
9.04097e-05
9.18261e-05
8.92219e-05
7.99507e-05
6.26701e-05
4.00318e-05
2.19973e-05
1.2039e-05
6.52943e-06
3.4403e-06
1.79066e-06
9.07381e-07
4.47856e-07
2.20095e-07
1.19009e-07
8.1339e-08
5.92017e-08
4.10084e-08
2.8359e-08
2.0329e-08
1.49589e-08
1.10857e-08
8.00681e-09
5.65208e-09
3.8687e-09
2.55738e-09
1.63209e-09
1.00802e-09
6.04935e-10
3.54276e-10
2.0326e-10
1.14602e-10
6.36488e-11
3.4885e-11
1.88954e-11
1.01262e-11
5.37465e-12
2.82783e-12
1.47599e-12
7.64681e-13
3.93301e-13
2.00722e-13
1.01455e-13
5.05432e-14
2.45404e-14
1.13027e-14
4.57559e-15
1.05371e-15
6.27157e-10
2.43038e-09
5.18229e-09
9.52893e-09
1.63867e-08
2.71636e-08
4.40157e-08
7.02122e-08
1.10502e-07
1.70011e-07
2.57007e-07
3.83342e-07
5.64922e-07
8.22317e-07
1.18119e-06
1.67216e-06
2.32972e-06
3.18999e-06
4.28768e-06
5.652e-06
7.30306e-06
9.24948e-06
1.14874e-05
1.40012e-05
1.67657e-05
1.96666e-05
2.2747e-05
2.60241e-05
2.93566e-05
3.27876e-05
3.62734e-05
3.9715e-05
4.3154e-05
4.65083e-05
4.9779e-05
5.29374e-05
5.59613e-05
5.8823e-05
6.15212e-05
6.40601e-05
6.64045e-05
6.85588e-05
7.05136e-05
7.22703e-05
7.38145e-05
7.51822e-05
7.64684e-05
7.77685e-05
7.93263e-05
8.14338e-05
8.41728e-05
8.74398e-05
9.05168e-05
9.18815e-05
8.91736e-05
7.9746e-05
6.22949e-05
3.95742e-05
2.17535e-05
1.19034e-05
6.45345e-06
3.40033e-06
1.76888e-06
8.95812e-07
4.41914e-07
2.17283e-07
1.17969e-07
8.09999e-08
5.89172e-08
4.07816e-08
2.82169e-08
2.02406e-08
1.48972e-08
1.10371e-08
7.9661e-09
5.61866e-09
3.84226e-09
2.53753e-09
1.61805e-09
9.98653e-10
5.98987e-10
3.50655e-10
2.01129e-10
1.1338e-10
6.29642e-11
3.45084e-11
1.86916e-11
1.00177e-11
5.31769e-12
2.7982e-12
1.46067e-12
7.56792e-13
3.89261e-13
1.9867e-13
1.00422e-13
5.00312e-14
2.42927e-14
1.11889e-14
4.52953e-15
1.04311e-15
6.26871e-10
2.42927e-09
5.17995e-09
9.52466e-09
1.63794e-08
2.71516e-08
4.39964e-08
7.01819e-08
1.10447e-07
1.69918e-07
2.56862e-07
3.83126e-07
5.64609e-07
8.21876e-07
1.18059e-06
1.67136e-06
2.32868e-06
3.18871e-06
4.28618e-06
5.65033e-06
7.30132e-06
9.24782e-06
1.1486e-05
1.40004e-05
1.67657e-05
1.96678e-05
2.27496e-05
2.60284e-05
2.9363e-05
3.27962e-05
3.62848e-05
3.97292e-05
4.31714e-05
4.65292e-05
4.98036e-05
5.29655e-05
5.59932e-05
5.88586e-05
6.15608e-05
6.41039e-05
6.64522e-05
6.861e-05
7.05679e-05
7.23273e-05
7.38741e-05
7.52439e-05
7.65321e-05
7.78353e-05
7.93974e-05
8.15095e-05
8.42533e-05
8.75206e-05
9.05858e-05
9.19159e-05
8.91398e-05
7.96093e-05
6.20475e-05
3.92744e-05
2.15882e-05
1.18116e-05
6.40232e-06
3.3735e-06
1.75434e-06
8.88106e-07
4.37989e-07
2.15452e-07
1.17328e-07
8.07858e-08
5.87295e-08
4.0631e-08
2.81223e-08
2.01817e-08
1.48561e-08
1.10052e-08
7.94005e-09
5.59724e-09
3.82549e-09
2.52503e-09
1.60922e-09
9.92718e-10
5.95195e-10
3.48335e-10
1.99757e-10
1.12592e-10
6.25213e-11
3.42641e-11
1.8559e-11
9.94659e-12
5.27994e-12
2.7784e-12
1.4504e-12
7.5152e-13
3.86578e-13
1.97315e-13
9.9743e-14
4.9695e-14
2.41302e-14
1.11142e-14
4.49934e-15
1.03615e-15
6.26733e-10
2.42874e-09
5.17882e-09
9.5226e-09
1.63758e-08
2.71458e-08
4.39872e-08
7.01674e-08
1.10421e-07
1.69873e-07
2.56792e-07
3.83022e-07
5.64459e-07
8.21665e-07
1.1803e-06
1.67097e-06
2.32819e-06
3.1881e-06
4.28546e-06
5.64951e-06
7.30048e-06
9.24703e-06
1.14854e-05
1.4e-05
1.67658e-05
1.96685e-05
2.27511e-05
2.60306e-05
2.93662e-05
3.28006e-05
3.62905e-05
3.97364e-05
4.31802e-05
4.65397e-05
4.98158e-05
5.29794e-05
5.60092e-05
5.88765e-05
6.15805e-05
6.41255e-05
6.64755e-05
6.8635e-05
7.05944e-05
7.23552e-05
7.39034e-05
7.52745e-05
7.65636e-05
7.78684e-05
7.94324e-05
8.15467e-05
8.42928e-05
8.75602e-05
9.06196e-05
9.19324e-05
8.91223e-05
7.95411e-05
6.19246e-05
3.91257e-05
2.15059e-05
1.17658e-05
6.37674e-06
3.36003e-06
1.74706e-06
8.84248e-07
4.36026e-07
2.14533e-07
1.16992e-07
8.06704e-08
5.86321e-08
4.05545e-08
2.80747e-08
2.01521e-08
1.48357e-08
1.09896e-08
7.92749e-09
5.58707e-09
3.81751e-09
2.51912e-09
1.60506e-09
9.89924e-10
5.93408e-10
3.4724e-10
1.9911e-10
1.1222e-10
6.23119e-11
3.41485e-11
1.84961e-11
9.91282e-12
5.26201e-12
2.76898e-12
1.4455e-12
7.48993e-13
3.85286e-13
1.96659e-13
9.94133e-14
4.95313e-14
2.40509e-14
1.10777e-14
4.48456e-15
1.03275e-15
6.26735e-10
2.42875e-09
5.17884e-09
9.52263e-09
1.63759e-08
2.71459e-08
4.39873e-08
7.01677e-08
1.10421e-07
1.69874e-07
2.56792e-07
3.83022e-07
5.6446e-07
8.21666e-07
1.1803e-06
1.67097e-06
2.32819e-06
3.1881e-06
4.28546e-06
5.64951e-06
7.30048e-06
9.24702e-06
1.14854e-05
1.4e-05
1.67658e-05
1.96685e-05
2.2751e-05
2.60306e-05
2.93662e-05
3.28006e-05
3.62905e-05
3.97364e-05
4.31802e-05
4.65397e-05
4.98158e-05
5.29795e-05
5.60093e-05
5.88766e-05
6.15807e-05
6.41256e-05
6.64757e-05
6.86351e-05
7.05946e-05
7.23554e-05
7.39035e-05
7.52746e-05
7.65637e-05
7.78684e-05
7.94324e-05
8.15467e-05
8.42927e-05
8.75601e-05
9.06194e-05
9.1932e-05
8.91219e-05
7.95406e-05
6.19242e-05
3.91254e-05
2.15058e-05
1.17657e-05
6.3767e-06
3.36002e-06
1.74705e-06
8.84244e-07
4.36023e-07
2.14529e-07
1.16987e-07
8.06669e-08
5.86296e-08
4.05529e-08
2.80737e-08
2.01516e-08
1.48354e-08
1.09894e-08
7.92739e-09
5.58701e-09
3.81747e-09
2.5191e-09
1.60505e-09
9.89918e-10
5.93405e-10
3.47238e-10
1.99109e-10
1.12219e-10
6.23116e-11
3.41484e-11
1.8496e-11
9.91279e-12
5.262e-12
2.76897e-12
1.44549e-12
7.48991e-13
3.85285e-13
1.96658e-13
9.94129e-14
4.95311e-14
2.40508e-14
1.10777e-14
4.48454e-15
1.03274e-15
6.26876e-10
2.42929e-09
5.18e-09
9.52474e-09
1.63795e-08
2.71518e-08
4.39968e-08
7.01826e-08
1.10448e-07
1.69919e-07
2.56863e-07
3.83127e-07
5.6461e-07
8.21878e-07
1.18059e-06
1.67136e-06
2.32868e-06
3.18871e-06
4.28618e-06
5.65033e-06
7.30132e-06
9.24782e-06
1.1486e-05
1.40004e-05
1.67657e-05
1.96678e-05
2.27496e-05
2.60283e-05
2.93629e-05
3.27962e-05
3.62848e-05
3.97292e-05
4.31715e-05
4.65293e-05
4.98037e-05
5.29657e-05
5.59935e-05
5.88591e-05
6.15614e-05
6.41045e-05
6.64528e-05
6.86105e-05
7.05684e-05
7.23279e-05
7.38747e-05
7.52445e-05
7.65325e-05
7.78356e-05
7.93975e-05
8.15095e-05
8.42531e-05
8.75203e-05
9.05853e-05
9.1915e-05
8.91381e-05
7.96066e-05
6.20456e-05
3.92732e-05
2.15876e-05
1.18113e-05
6.40215e-06
3.37343e-06
1.75431e-06
8.88089e-07
4.37972e-07
2.15425e-07
1.17274e-07
8.07632e-08
5.87196e-08
4.06263e-08
2.812e-08
2.01804e-08
1.48553e-08
1.10047e-08
7.93975e-09
5.59705e-09
3.82538e-09
2.52497e-09
1.60918e-09
9.927e-10
5.95185e-10
3.4833e-10
1.99755e-10
1.12591e-10
6.25206e-11
3.42638e-11
1.85588e-11
9.94652e-12
5.27991e-12
2.77838e-12
1.45038e-12
7.51513e-13
3.86574e-13
1.97312e-13
9.97416e-14
4.96942e-14
2.41298e-14
1.11141e-14
4.49927e-15
1.03614e-15
6.27165e-10
2.4304e-09
5.18235e-09
9.52904e-09
1.63868e-08
2.71639e-08
4.40162e-08
7.0213e-08
1.10503e-07
1.70012e-07
2.57008e-07
3.83344e-07
5.64924e-07
8.22319e-07
1.1812e-06
1.67217e-06
2.32972e-06
3.18999e-06
4.28769e-06
5.652e-06
7.30306e-06
9.24947e-06
1.14873e-05
1.40012e-05
1.67656e-05
1.96666e-05
2.27469e-05
2.6024e-05
2.93565e-05
3.27875e-05
3.62733e-05
3.97148e-05
4.31538e-05
4.65082e-05
4.97789e-05
5.29373e-05
5.59614e-05
5.88232e-05
6.15218e-05
6.4061e-05
6.64055e-05
6.85598e-05
7.05146e-05
7.22714e-05
7.38156e-05
7.51828e-05
7.64686e-05
7.77683e-05
7.93261e-05
8.14336e-05
8.41724e-05
8.74394e-05
9.05162e-05
9.18805e-05
8.9172e-05
7.97438e-05
6.22925e-05
3.95723e-05
2.17525e-05
1.19029e-05
6.45326e-06
3.40025e-06
1.76885e-06
8.95797e-07
4.41905e-07
2.17275e-07
1.17957e-07
8.0991e-08
5.8912e-08
4.07786e-08
2.82149e-08
2.02391e-08
1.48962e-08
1.10365e-08
7.96565e-09
5.61838e-09
3.84209e-09
2.53743e-09
1.618e-09
9.98626e-10
5.98973e-10
3.50648e-10
2.01125e-10
1.13379e-10
6.29634e-11
3.4508e-11
1.86914e-11
1.00176e-11
5.31765e-12
2.79818e-12
1.46066e-12
7.56789e-13
3.89259e-13
1.98669e-13
1.00422e-13
5.00306e-14
2.42923e-14
1.11887e-14
4.52943e-15
1.04308e-15
6.27616e-10
2.43214e-09
5.18603e-09
9.53579e-09
1.63984e-08
2.7183e-08
4.40469e-08
7.02612e-08
1.10589e-07
1.70158e-07
2.57237e-07
3.83685e-07
5.65417e-07
8.23018e-07
1.18216e-06
1.67348e-06
2.3314e-06
3.19209e-06
4.29012e-06
5.65471e-06
7.30593e-06
9.25228e-06
1.14897e-05
1.40027e-05
1.67658e-05
1.96651e-05
2.27433e-05
2.60181e-05
2.93474e-05
3.2775e-05
3.62567e-05
3.96938e-05
4.31278e-05
4.64768e-05
4.97419e-05
5.28944e-05
5.59127e-05
5.87685e-05
6.14616e-05
6.39951e-05
6.63339e-05
6.84832e-05
7.04328e-05
7.21852e-05
7.3725e-05
7.50882e-05
7.63706e-05
7.76656e-05
7.92168e-05
8.13172e-05
8.40487e-05
8.73148e-05
9.04088e-05
9.18247e-05
8.92198e-05
7.9948e-05
6.26673e-05
4.00296e-05
2.19961e-05
1.20384e-05
6.52913e-06
3.44015e-06
1.79059e-06
9.07349e-07
4.47841e-07
2.20082e-07
1.18988e-07
8.13245e-08
5.91937e-08
4.10041e-08
2.83564e-08
2.03271e-08
1.49576e-08
1.10847e-08
8.00619e-09
5.65168e-09
3.86847e-09
2.55724e-09
1.63202e-09
1.00799e-09
6.04915e-10
3.54266e-10
2.03255e-10
1.14599e-10
6.36474e-11
3.48843e-11
1.8895e-11
1.0126e-11
5.37452e-12
2.82774e-12
1.47594e-12
7.64652e-13
3.93284e-13
2.00713e-13
1.0145e-13
5.05406e-14
2.4539e-14
1.13021e-14
4.5753e-15
1.05364e-15
6.28241e-10
2.43455e-09
5.19115e-09
9.54517e-09
1.64145e-08
2.72095e-08
4.40896e-08
7.03285e-08
1.10709e-07
1.70359e-07
2.57551e-07
3.84151e-07
5.66091e-07
8.23966e-07
1.18347e-06
1.67522e-06
2.33367e-06
3.19491e-06
4.29353e-06
5.65861e-06
7.31016e-06
9.25638e-06
1.14933e-05
1.40052e-05
1.67667e-05
1.96638e-05
2.27392e-05
2.60108e-05
2.9336e-05
3.2759e-05
3.6235e-05
3.9666e-05
4.30935e-05
4.64356e-05
4.96931e-05
5.28378e-05
5.58479e-05
5.86962e-05
6.13809e-05
6.39062e-05
6.62374e-05
6.83786e-05
7.03208e-05
7.20666e-05
7.35999e-05
7.49572e-05
7.62346e-05
7.75228e-05
7.90657e-05
8.11569e-05
8.38786e-05
8.71435e-05
9.02599e-05
9.17447e-05
8.92759e-05
8.02107e-05
6.3158e-05
4.06371e-05
2.23173e-05
1.22168e-05
6.62932e-06
3.49303e-06
1.81948e-06
9.22846e-07
4.55822e-07