/*--------------------------------*- C++ -*----------------------------------*\
  =========                 |
  \\      /  F ield         | OpenFOAM: The Open Source CFD Toolbox
   \\    /   O peration     | Website:  https://openfoam.org
    \\  /    A nd           | Version:  10
     \\/     M anipulation  |
\*---------------------------------------------------------------------------*/
FoamFile
{
    format      ascii;
    class       volScalarField;
    location    "1";
    object      CH2OH;
}
// * * * * * * * * * * * * * * * * * * * * * * * * * * * * * * * * * * * * * //

dimensions      [0 0 0 0 0 0 0];

internalField   nonuniform List<scalar> 
4000
(
1.91158e-21
7.40964e-21
1.58364e-20
2.93138e-20
5.11401e-20
8.7081e-20
1.4769e-19
2.5313e-19
4.43355e-19
7.87577e-19
1.42549e-18
2.63027e-18
4.91239e-18
9.1786e-18
1.69479e-17
3.06321e-17
5.39776e-17
9.32512e-17
1.6108e-16
2.87985e-16
5.54324e-16
1.17315e-15
2.68912e-15
6.42319e-15
1.5233e-14
3.4364e-14
7.39989e-14
1.52468e-13
2.95998e-13
5.54096e-13
9.97544e-13
1.74809e-12
2.98037e-12
4.93743e-12
7.94371e-12
1.24062e-11
1.88609e-11
2.81465e-11
4.17689e-11
6.26611e-11
9.67066e-11
1.53916e-10
2.53485e-10
4.29516e-10
7.40037e-10
1.29257e-09
2.24097e-09
3.88895e-09
6.60633e-09
1.11665e-08
1.82359e-08
2.89724e-08
4.45699e-08
6.59409e-08
9.30626e-08
1.23672e-07
1.50819e-07
1.59287e-07
1.27684e-07
7.0284e-08
3.87454e-08
2.11823e-08
1.14249e-08
6.04925e-09
3.10459e-09
1.55387e-09
7.52881e-10
3.55809e-10
1.65402e-10
7.74075e-11
3.32192e-11
1.29703e-11
4.64863e-12
1.53574e-12
4.7152e-13
1.38517e-13
3.88521e-14
1.14307e-14
3.65592e-15
1.24276e-15
4.27483e-16
1.43763e-16
4.65792e-17
1.45108e-17
4.36237e-18
1.27195e-18
3.61308e-19
1.00249e-19
2.73732e-20
7.36996e-21
1.95957e-21
5.15111e-22
1.3393e-22
3.44158e-23
8.71527e-24
2.15793e-24
5.1302e-25
1.12297e-25
2.04508e-26
1.93477e-27
1.90901e-21
7.39963e-21
1.58157e-20
2.92794e-20
5.10894e-20
8.70093e-20
1.47583e-19
2.52936e-19
4.42903e-19
7.86686e-19
1.42301e-18
2.62271e-18
4.89017e-18
9.11676e-18
1.67875e-17
3.02444e-17
5.30871e-17
9.13863e-17
1.5728e-16
2.79862e-16
5.35431e-16
1.12642e-15
2.57177e-15
6.10069e-15
1.44559e-14
3.26485e-14
7.04923e-14
1.46008e-13
2.84569e-13
5.3539e-13
9.68408e-13
1.7041e-12
2.91403e-12
4.84594e-12
7.8234e-12
1.22588e-11
1.86952e-11
2.79851e-11
4.1635e-11
6.26057e-11
9.68428e-11
1.54463e-10
2.5493e-10
4.33065e-10
7.47561e-10
1.30758e-09
2.26998e-09
3.9449e-09
6.70746e-09
1.13472e-08
1.85287e-08
2.94448e-08
4.52946e-08
6.69732e-08
9.44112e-08
1.25185e-07
1.51995e-07
1.59049e-07
1.25062e-07
6.88198e-08
3.7876e-08
2.06661e-08
1.11191e-08
5.86923e-09
3.00362e-09
1.49757e-09
7.22157e-10
3.406e-10
1.58368e-10
7.36003e-11
3.11935e-11
1.20759e-11
4.28638e-12
1.40224e-12
4.25111e-13
1.22816e-13
3.41992e-14
1.00662e-14
3.23511e-15
1.10302e-15
3.80126e-16
1.28203e-16
4.1755e-17
1.31086e-17
3.97894e-18
1.17295e-18
3.37398e-19
9.51951e-20
2.62956e-20
7.13349e-21
1.90563e-21
5.02277e-22
1.30733e-22
3.35625e-23
8.49258e-24
2.10119e-24
4.99035e-25
1.0917e-25
1.98774e-26
1.88022e-27
1.90838e-21
7.39773e-21
1.58142e-20
2.92819e-20
5.11027e-20
8.70431e-20
1.47644e-19
2.53006e-19
4.42854e-19
7.86344e-19
1.42134e-18
2.61668e-18
4.87231e-18
9.06513e-18
1.66508e-17
2.99085e-17
5.23899e-17
8.99822e-17
1.5436e-16
2.73263e-16
5.18898e-16
1.08193e-15
2.45323e-15
5.81151e-15
1.37709e-14
3.11659e-14
6.75447e-14
1.40228e-13
2.74151e-13
5.17643e-13
9.37478e-13
1.65251e-12
2.83214e-12
4.72974e-12
7.66855e-12
1.20684e-11
1.8484e-11
2.77876e-11
4.14956e-11
6.26131e-11
9.7185e-11
1.55499e-10
2.5745e-10
4.38816e-10
7.59285e-10
1.33093e-09
2.31603e-09
4.03275e-09
6.87071e-09
1.16373e-08
1.90042e-08
3.02259e-08
4.6481e-08
6.86479e-08
9.65553e-08
1.27483e-07
1.53557e-07
1.58062e-07
1.19937e-07
6.59842e-08
3.62265e-08
1.97085e-08
1.05588e-08
5.54605e-09
2.82828e-09
1.40213e-09
6.72547e-10
3.16265e-10
1.47408e-10
6.77326e-11
2.83619e-11
1.08004e-11
3.78771e-12
1.23257e-12
3.59475e-13
1.04045e-13
2.91201e-14
8.69022e-15
2.83692e-15
9.77759e-16
3.39306e-16
1.15061e-16
3.76768e-17
1.18956e-17
3.63177e-18
1.07646e-18
3.10946e-19
8.78269e-20
2.43255e-20
6.62277e-21
1.77607e-21
4.69958e-22
1.22849e-22
3.17432e-23
8.06598e-24
2.00044e-24
4.75726e-25
1.04114e-25
1.89555e-26
1.79263e-27
1.90353e-21
7.3788e-21
1.57731e-20
2.92038e-20
5.09595e-20
8.67791e-20
1.47144e-19
2.5202e-19
4.40831e-19
7.82252e-19
1.41218e-18
2.59501e-18
4.81988e-18
8.95102e-18
1.64192e-17
2.94724e-17
5.15779e-17
8.84796e-17
1.51492e-16
2.67332e-16
5.05302e-16
1.0482e-15
2.36348e-15
5.58576e-15
1.32387e-14
2.99761e-14
6.50637e-14
1.35384e-13
2.64868e-13
5.00811e-13
9.08481e-13
1.60463e-12
2.75708e-12
4.61927e-12
7.52427e-12
1.18938e-11
1.83002e-11
2.76385e-11
4.14489e-11
6.27978e-11
9.78651e-11
1.57186e-10
2.61162e-10
4.46717e-10
7.75343e-10
1.36228e-09
2.37642e-09
4.14626e-09
7.07293e-09
1.19916e-08
1.95902e-08
3.1157e-08
4.78894e-08
7.06285e-08
9.90079e-08
1.29996e-07
1.5492e-07
1.55805e-07
1.1228e-07
6.17604e-08
3.38427e-08
1.84074e-08
9.73986e-09
5.09568e-09
2.5908e-09
1.27671e-09
6.08922e-10
2.86107e-10
1.34544e-10
6.09931e-11
2.50406e-11
9.41521e-12
3.26272e-12
1.04326e-12
3.03508e-13
8.7663e-14
2.45981e-14
7.42056e-15
2.45078e-15
8.50314e-16
2.95994e-16
1.00588e-16
3.3028e-17
1.04678e-17
3.2111e-18
9.56895e-19
2.77971e-19
7.89554e-20
2.19858e-20
6.01528e-21
1.62015e-21
4.30228e-22
1.12739e-22
2.91445e-23
7.41233e-24
1.84066e-24
4.38366e-25
9.60766e-26
1.75138e-26
1.6573e-27
1.89593e-21
7.34927e-21
1.57095e-20
2.90838e-20
5.07423e-20
8.63869e-20
1.4642e-19
2.50636e-19
4.38061e-19
7.76447e-19
1.40049e-18
2.57162e-18
4.77425e-18
8.85985e-18
1.62392e-17
2.91268e-17
5.09344e-17
8.72942e-17
1.49244e-16
2.62714e-16
4.94772e-16
1.02215e-15
2.2968e-15
5.40767e-15
1.27779e-14
2.88806e-14
6.26325e-14
1.30751e-13
2.56544e-13
4.86123e-13
8.83662e-13
1.56382e-12
2.6935e-12
4.52501e-12
7.40086e-12
1.17547e-11
1.81695e-11
2.75671e-11
4.15233e-11
6.31792e-11
9.88793e-11
1.59447e-10
2.65921e-10
4.56575e-10
7.947e-10
1.39907e-09
2.44521e-09
4.27218e-09
7.29631e-09
1.23834e-08
2.02439e-08
3.21941e-08
4.94374e-08
7.27424e-08
1.01582e-07
1.32439e-07
1.55687e-07
1.5193e-07
1.02075e-07
5.61212e-08
3.07114e-08
1.66448e-08
8.77055e-09
4.56632e-09
2.31464e-09
1.13557e-09
5.39421e-10
2.52931e-10
1.20327e-10
5.39302e-11
2.18624e-11
8.1143e-12
2.75588e-12
8.68618e-13
2.58715e-13
7.15091e-14
2.0285e-14
6.24401e-15
2.10082e-15
7.37243e-16
2.58285e-16
8.81631e-17
2.90677e-17
9.2528e-18
2.85142e-18
8.53668e-19
2.49112e-19
7.10617e-20
1.98657e-20
5.45439e-21
1.47356e-21
3.92289e-22
1.03001e-22
2.66668e-23
6.78973e-24
1.68749e-24
4.02156e-25
8.81855e-26
1.60808e-26
1.52178e-27
1.88601e-21
7.31096e-21
1.56276e-20
2.8931e-20
5.04707e-20
8.5908e-20
1.45561e-19
2.49034e-19
4.35044e-19
7.70786e-19
1.38976e-18
2.55133e-18
4.73483e-18
8.7826e-18
1.60901e-17
2.8846e-17
5.0416e-17
8.63307e-17
1.47357e-16
2.58613e-16
4.84686e-16
9.94865e-16
2.22189e-15
5.21927e-15
1.2343e-14
2.79537e-14
6.07929e-14
1.27156e-13
2.49869e-13
4.74291e-13
8.63891e-13
1.53174e-12
2.64526e-12
4.45588e-12
7.31569e-12
1.16634e-11
1.81026e-11
2.75832e-11
4.17287e-11
6.37722e-11
1.00243e-10
1.62335e-10
2.71824e-10
4.68502e-10
8.17919e-10
1.44284e-09
2.52789e-09
4.41621e-09
7.55666e-09
1.28386e-08
2.09869e-08
3.33419e-08
5.10965e-08
7.49615e-08
1.04185e-07
1.34722e-07
1.55879e-07
1.46759e-07
9.02112e-08
4.98184e-08
2.735e-08
1.48588e-08
7.83744e-09
4.07763e-09
2.06015e-09
1.00656e-09
4.76159e-10
2.24439e-10
1.06984e-10
4.72325e-11
1.8889e-11
6.90637e-12
2.32555e-12
7.26588e-13
2.13988e-13
5.92292e-14
1.70209e-14
5.3382e-15
1.82281e-15
6.44662e-16
2.26627e-16
7.75064e-17
2.56036e-17
8.17005e-18
2.52529e-18
7.58595e-19
2.22167e-19
6.36076e-20
1.78456e-20
4.91632e-21
1.33223e-21
3.55494e-22
9.35042e-23
2.42465e-23
6.18252e-24
1.53891e-24
3.67288e-25
8.06361e-26
1.47148e-26
1.39272e-27
1.8733e-21
7.26146e-21
1.55207e-20
2.873e-20
5.01144e-20
8.52931e-20
1.44513e-19
2.47262e-19
4.31822e-19
7.64572e-19
1.37796e-18
2.52786e-18
4.68843e-18
8.69271e-18
1.59207e-17
2.85368e-17
4.98673e-17
8.53579e-17
1.45556e-16
2.54945e-16
4.76528e-16
9.74859e-16
2.17154e-15
5.08965e-15
1.20252e-14
2.72393e-14
5.92718e-14
1.24197e-13
2.44531e-13
4.64925e-13
8.48108e-13
1.50575e-12
2.61225e-12
4.40861e-12
7.25732e-12
1.16119e-11
1.80904e-11
2.76719e-11
4.20364e-11
6.45181e-11
1.01843e-10
1.65637e-10
2.78477e-10
4.81806e-10
8.44092e-10
1.48749e-09
2.61342e-09
4.56252e-09
7.82037e-09
1.32967e-08
2.17337e-08
3.45049e-08
5.28046e-08
7.72652e-08
1.06919e-07
1.37222e-07
1.56464e-07
1.42513e-07
8.12992e-08
4.50574e-08
2.47904e-08
1.34786e-08
7.10943e-09
3.69105e-09
1.86085e-09
9.073e-10
4.31183e-10
2.00706e-10
9.56795e-11
4.1713e-11
1.64952e-11
5.95662e-12
1.98245e-12
6.10426e-13
1.79501e-13
4.98475e-14
1.45153e-14
4.63368e-15
1.60116e-15
5.69543e-16
2.00708e-16
6.87437e-17
2.27464e-17
7.27374e-18
2.25394e-18
6.78967e-19
1.99419e-19
5.72583e-20
1.61092e-20
4.45021e-21
1.20944e-21
3.23925e-22
8.55475e-23
2.22539e-23
5.68369e-24
1.41566e-24
3.37893e-25
7.41688e-26
1.35322e-26
1.28066e-27
1.86043e-21
7.21133e-21
1.5412e-20
2.85236e-20
4.97402e-20
8.46219e-20
1.43295e-19
2.44992e-19
4.27567e-19
7.56386e-19
1.36091e-18
2.49382e-18
4.62173e-18
8.56507e-18
1.56846e-17
2.81172e-17
4.9148e-17
8.41389e-17
1.4342e-16
2.50866e-16
4.67612e-16
9.53963e-16
2.12153e-15
4.96974e-15
1.17331e-14
2.65732e-14
5.79397e-14
1.21617e-13
2.39873e-13
4.57026e-13
8.36585e-13
1.48795e-12
2.58767e-12
4.37667e-12
7.22287e-12
1.15947e-11
1.81273e-11
2.78345e-11
4.24517e-11
6.54498e-11
1.03463e-10
1.69024e-10
2.85188e-10
4.95156e-10
8.69262e-10
1.53453e-09
2.69971e-09
4.70727e-09
8.07995e-09
1.37498e-08
2.24846e-08
3.56852e-08
5.45495e-08
7.96523e-08
1.09846e-07
1.40156e-07
1.58019e-07
1.40491e-07
7.78818e-08
4.29833e-08
2.35499e-08
1.27495e-08
6.70119e-09
3.46394e-09
1.73661e-09
8.42483e-10
3.99002e-10
1.85898e-10
8.79434e-11
3.7812e-11
1.47229e-11
5.25489e-12
1.72907e-12
5.27902e-13
1.53681e-13
4.26939e-14
1.25616e-14
4.06982e-15
1.42042e-15
5.07922e-16
1.7948e-16
6.15893e-17
2.04168e-17
6.542e-18
2.03159e-18
6.13346e-19
1.80542e-19
5.19481e-20
1.46442e-20
4.0527e-21
1.10299e-21
2.95648e-22
7.8117e-23
2.0342e-23
5.20839e-24
1.29991e-24
3.10609e-25
6.82122e-26
1.24485e-26
1.17822e-27
1.8496e-21
7.1694e-21
1.53219e-20
2.83547e-20
4.94386e-20
8.40896e-20
1.42347e-19
2.43268e-19
4.2435e-19
7.49769e-19
1.34834e-18
2.46973e-18
4.57597e-18
8.47979e-18
1.553e-17
2.78462e-17
4.8688e-17
8.33636e-17
1.42065e-16
2.48318e-16
4.61893e-16
9.40375e-16
2.08533e-15
4.87425e-15
1.15155e-14
2.61101e-14
5.69702e-14
1.19664e-13
2.36326e-13
4.50553e-13
8.29941e-13
1.47647e-12
2.57148e-12
4.35676e-12
7.20518e-12
1.15982e-11
1.81904e-11
2.79978e-11
4.28547e-11
6.635e-11
1.05268e-10
1.72624e-10
2.92344e-10
5.08959e-10
8.95543e-10
1.58342e-09
2.79047e-09
4.86678e-09
8.3577e-09
1.42193e-08
2.32355e-08
3.68493e-08
5.62601e-08
8.20018e-08
1.12755e-07
1.43152e-07
1.59846e-07
1.39296e-07
7.67513e-08
4.21896e-08
2.30169e-08
1.24002e-08
6.5027e-09
3.34353e-09
1.66693e-09
8.03947e-10
3.79549e-10
1.76838e-10
8.26456e-11
3.49963e-11
1.34641e-11
4.75688e-12
1.56117e-12
4.54101e-13
1.31963e-13
3.69288e-14
1.10401e-14
3.63974e-15
1.28473e-15
4.62013e-16
1.63658e-16
5.62208e-17
1.86491e-17
5.97915e-18
1.85805e-18
5.61378e-19
1.65383e-19
4.76293e-20
1.34393e-20
3.72258e-21
1.01391e-21
2.71888e-22
7.18599e-23
1.87183e-23
4.79137e-24
1.19604e-24
2.85976e-25
6.28496e-26
1.14753e-26
1.08636e-27
1.84131e-21
7.1376e-21
1.52546e-20
2.82307e-20
4.92209e-20
8.37104e-20
1.41675e-19
2.42032e-19
4.21958e-19
7.44958e-19
1.33876e-18
2.45081e-18
4.53913e-18
8.41011e-18
1.54032e-17
2.76245e-17
4.83109e-17
8.27229e-17
1.40927e-16
2.46039e-16
4.5711e-16
9.28133e-16
2.05548e-15
4.80537e-15
1.13509e-14
2.57516e-14
5.62486e-14
1.18271e-13
2.33936e-13
4.46604e-13
8.24194e-13
1.46808e-12
2.56068e-12
4.34513e-12
7.19892e-12
1.16146e-11
1.8265e-11
2.81871e-11
4.32739e-11
6.72391e-11
1.07033e-10
1.76099e-10
2.99017e-10
5.21765e-10
9.19781e-10
1.62894e-09
2.87282e-09
5.01344e-09
8.61275e-09
1.46496e-08
2.39407e-08
3.7948e-08
5.78769e-08
8.41954e-08
1.15446e-07
1.45877e-07
1.61388e-07
1.37962e-07
7.58806e-08
4.16228e-08
2.26424e-08
1.21481e-08
6.37223e-09
3.26189e-09
1.61846e-09
7.76841e-10
3.6567e-10
1.70547e-10
7.88311e-11
3.29737e-11
1.2551e-11
4.38841e-12
1.42421e-12
4.09885e-13
1.18458e-13
3.31931e-14
1.00018e-14
3.32806e-15
1.18097e-15
4.25425e-16
1.50661e-16
5.17115e-17
1.71398e-17
5.49269e-18
1.70672e-18
5.1577e-19
1.52024e-19
4.38129e-20
1.23726e-20
3.43005e-21
9.34886e-22
2.50799e-22
6.6322e-23
1.7286e-23
4.42942e-24
1.10697e-24
2.64928e-25
5.82608e-26
1.06414e-26
1.0076e-27
1.83357e-21
7.10764e-21
1.51904e-20
2.81112e-20
4.90109e-20
8.33498e-20
1.41059e-19
2.40973e-19
4.20125e-19
7.41417e-19
1.33185e-18
2.43714e-18
4.51157e-18
8.35623e-18
1.53024e-17
2.74461e-17
4.80106e-17
8.22241e-17
1.40074e-16
2.44329e-16
4.53149e-16
9.18848e-16
2.03256e-15
4.74791e-15
1.12214e-14
2.54767e-14
5.57064e-14
1.17241e-13
2.32199e-13
4.43757e-13
8.20043e-13
1.46243e-12
2.55432e-12
4.34026e-12
7.20206e-12
1.16418e-11
1.83492e-11
2.83816e-11
4.36818e-11
6.80677e-11
1.08654e-10
1.79245e-10
3.0512e-10
5.33513e-10
9.421e-10
1.67037e-09
2.94849e-09
5.14859e-09
8.84798e-09
1.50466e-08
2.45838e-08
3.89389e-08
5.93183e-08
8.61539e-08
1.17826e-07
1.48233e-07
1.62609e-07
1.3668e-07
7.46514e-08
4.093e-08
2.22421e-08
1.19106e-08
6.25046e-09
3.1789e-09
1.57247e-09
7.52264e-10
3.53323e-10
1.65282e-10
7.56284e-11
3.12989e-11
1.18028e-11
4.09181e-12
1.316e-12
3.78332e-13
1.08902e-13
3.05323e-14
9.24475e-15
3.09162e-15
1.09911e-15
3.95729e-16
1.39936e-16
4.79553e-17
1.58754e-17
5.08353e-18
1.57901e-18
4.77182e-19
1.4069e-19
4.05658e-20
1.14631e-20
3.18081e-21
8.68312e-22
2.33525e-22
6.19215e-23
1.61741e-23
4.1469e-24
1.03606e-24
2.47857e-25
5.44905e-26
9.95076e-27
9.4217e-28
1.82702e-21
7.08236e-21
1.51364e-20
2.80105e-20
4.88329e-20
8.30396e-20
1.40514e-19
2.39995e-19
4.18207e-19
7.3767e-19
1.3248e-18
2.42425e-18
4.48894e-18
8.31513e-18
1.52271e-17
2.73074e-17
4.77686e-17
8.18165e-17
1.39346e-16
2.42996e-16
4.50256e-16
9.11994e-16
2.01582e-15
4.70679e-15
1.1125e-14
2.52709e-14
5.53042e-14
1.16485e-13
2.30954e-13
4.41771e-13
8.173e-13
1.45905e-12
2.55133e-12
4.34037e-12
7.21192e-12
1.16769e-11
1.84405e-11
2.85803e-11
4.40888e-11
6.8891e-11
1.10238e-10
1.82274e-10
3.10909e-10
5.44503e-10
9.62881e-10
1.70901e-09
3.01891e-09
5.27408e-09
9.06525e-09
1.54085e-08
2.51724e-08
3.98491e-08
6.06358e-08
8.79042e-08
1.19893e-07
1.50135e-07
1.63222e-07
1.346e-07
7.35959e-08
4.03109e-08
2.18761e-08
1.16936e-08
6.12162e-09
3.11093e-09
1.53387e-09
7.31241e-10
3.42801e-10
1.6078e-10
7.29138e-11
2.98989e-11
1.11833e-11
3.84422e-12
1.22377e-12
3.528e-13
1.01295e-13
2.84223e-14
8.63798e-15
2.90063e-15
1.03304e-15
3.71856e-16
1.31336e-16
4.4945e-17
1.48608e-17
4.7544e-18
1.47595e-18
4.45921e-19
1.31467e-19
3.79086e-20
1.07101e-20
2.97084e-21
8.10838e-22
2.182e-22
5.78717e-23
1.51205e-23
3.88103e-24
9.70856e-25
2.32495e-25
5.11486e-26
9.34422e-27
8.84879e-28
1.82163e-21
7.06152e-21
1.50918e-20
2.79276e-20
4.86862e-20
8.2784e-20
1.40066e-19
2.39193e-19
4.16605e-19
7.34472e-19
1.31856e-18
2.41222e-18
4.46596e-18
8.27376e-18
1.51569e-17
2.71965e-17
4.7586e-17
8.15053e-17
1.38795e-16
2.41896e-16
4.47951e-16
9.06588e-16
2.00196e-15
4.67394e-15
1.10498e-14
2.51156e-14
5.50077e-14
1.15939e-13
2.30085e-13
4.40439e-13
8.15613e-13
1.45732e-12
2.55081e-12
4.34382e-12
7.22599e-12
1.17153e-11
1.85301e-11
2.8767e-11
4.44623e-11
6.96198e-11
1.11658e-10
1.85053e-10
3.16319e-10
5.54884e-10
9.8241e-10
1.74503e-09
3.08388e-09
5.38801e-09
9.2605e-09
1.57322e-08
2.56872e-08
4.06303e-08
6.17569e-08
8.93896e-08
1.2162e-07
1.51662e-07
1.63471e-07
1.32389e-07
7.24847e-08
3.96814e-08
2.15141e-08
1.14833e-08
5.99852e-09
3.04657e-09
1.49812e-09
7.12278e-10
3.33438e-10
1.56771e-10
7.0528e-11
2.86991e-11
1.06521e-11
3.63524e-12
1.14781e-12
3.32137e-13
9.50691e-14
2.66959e-14
8.14314e-15
2.74406e-15
9.78447e-16
3.52006e-16
1.24157e-16
4.24271e-17
1.40112e-17
4.47862e-18
1.38959e-18
4.19746e-19
1.23769e-19
3.57124e-20
1.01075e-20
2.8102e-21
7.68014e-22
2.0673e-22
5.48404e-23
1.4329e-23
3.67633e-24
9.19372e-25
2.20122e-25
4.84199e-26
8.84478e-27
8.37549e-28
1.81732e-21
7.04489e-21
1.50563e-20
2.78617e-20
4.85702e-20
8.25831e-20
1.39716e-19
2.38573e-19
4.15343e-19
7.31938e-19
1.31362e-18
2.40273e-18
4.44801e-18
8.2406e-18
1.50977e-17
2.70943e-17
4.74242e-17
8.1253e-17
1.38372e-16
2.41093e-16
4.46199e-16
9.02382e-16
1.99196e-15
4.6497e-15
1.09952e-14
2.50025e-14
5.47948e-14
1.15556e-13
2.29496e-13
4.39584e-13
8.14667e-13
1.4567e-12
2.55175e-12
4.34903e-12
7.24129e-12
1.17526e-11
1.86134e-11
2.8936e-11
4.47922e-11
7.02724e-11
1.12905e-10
1.87432e-10
3.20834e-10
5.63424e-10
9.98748e-10
1.776e-09
3.14182e-09
5.49e-09
9.43501e-09
1.60148e-08
2.61361e-08
4.13114e-08
6.27226e-08
9.06471e-08
1.23052e-07
1.5284e-07
1.63451e-07
1.30184e-07
7.13632e-08
3.90568e-08
2.11623e-08
1.12763e-08
5.87901e-09
2.98093e-09
1.46246e-09
6.93689e-10
3.243e-10
1.52858e-10
6.83447e-11
2.76292e-11
1.02e-11
3.46e-12
1.08465e-12
3.15158e-13
9.00291e-14
2.52855e-14
7.73302e-15
2.61208e-15
9.31888e-16
3.34986e-16
1.17999e-16
4.02704e-17
1.32854e-17
4.24368e-18
1.31617e-18
3.97502e-19
1.17209e-19
3.38209e-20
9.57049e-21
2.66109e-21
7.28543e-22
1.9637e-22
5.21345e-23
1.36218e-23
3.49574e-24
8.74423e-25
2.09401e-25
4.60678e-26
8.41568e-27
7.96934e-28
1.81393e-21
7.03183e-21
1.50285e-20
2.78101e-20
4.84795e-20
8.24265e-20
1.39444e-19
2.38093e-19
4.1436e-19
7.29959e-19
1.30976e-18
2.39535e-18
4.4341e-18
8.21508e-18
1.50525e-17
2.7018e-17
4.73002e-17
8.10455e-17
1.38033e-16
2.40493e-16
4.44919e-16
8.99332e-16
1.98437e-15
4.63153e-15
1.09546e-14
2.49195e-14
5.46412e-14
1.15282e-13
2.29107e-13
4.39073e-13
8.14241e-13
1.45681e-12
2.5536e-12
4.3551e-12
7.25667e-12
1.17876e-11
1.86875e-11
2.90822e-11
4.50744e-11
7.08078e-11
1.13905e-10
1.89289e-10
3.24298e-10
5.69677e-10
1.00982e-09
1.79493e-09
3.20213e-09
5.58363e-09
9.58869e-09
1.62608e-08
2.65262e-08
4.18955e-08
6.35425e-08
9.17005e-08
1.24209e-07
1.5374e-07
1.63287e-07
1.28192e-07
7.03375e-08
3.8507e-08
2.0903e-08
1.10173e-08
5.74222e-09
2.90923e-09
1.42563e-09
6.75361e-10
3.15667e-10
1.4921e-10
6.63698e-11
2.66984e-11
9.80858e-12
3.31193e-12
1.03253e-12
3.01422e-13
8.57643e-14
2.40477e-14
7.36393e-15
2.49208e-15
8.89735e-16
3.19762e-16
1.12567e-16
3.83941e-17
1.26612e-17
4.04354e-18
1.25409e-18
3.78801e-19
1.11717e-19
3.22436e-20
9.1255e-21
2.53711e-21
6.94014e-22
1.87e-22
4.96592e-23
1.29887e-23
3.33635e-24
8.35175e-25
2.00116e-25
4.40425e-26
8.0476e-27
7.62142e-28
1.81133e-21
7.02179e-21
1.50071e-20
2.77704e-20
4.84096e-20
8.23053e-20
1.39233e-19
2.37716e-19
4.13597e-19
7.28423e-19
1.30677e-18
2.38963e-18
4.42333e-18
8.19534e-18
1.50177e-17
2.69593e-17
4.72029e-17
8.08944e-17
1.37777e-16
2.40015e-16
4.43927e-16
8.96994e-16
1.9787e-15
4.61816e-15
1.09252e-14
2.48615e-14
5.45386e-14
1.1511e-13
2.28875e-13
4.3881e-13
8.14181e-13
1.45743e-12
2.55604e-12
4.36166e-12
7.27211e-12
1.18211e-11
1.8757e-11
2.92169e-11
4.53295e-11
7.12953e-11
1.14833e-10
1.91071e-10
3.27697e-10
5.76113e-10
1.02208e-09
1.81807e-09
3.24434e-09
5.65707e-09
9.71279e-09
1.64603e-08
2.68423e-08
4.23691e-08
6.42058e-08
9.25496e-08
1.25143e-07
1.54431e-07
1.63043e-07
1.26378e-07
6.93936e-08
3.79814e-08
2.06063e-08
1.08539e-08
5.6491e-09
2.85776e-09
1.3981e-09
6.61316e-10
3.09011e-10
1.46358e-10
6.48347e-11
2.59773e-11
9.50918e-12
3.20005e-12
9.95031e-13
2.92315e-13
7.99186e-14
2.25557e-14
6.96983e-15
2.37663e-15
8.5207e-16
3.0677e-16
1.08056e-16
3.68598e-17
1.21551e-17
3.88191e-18
1.20403e-18
3.63726e-19
1.07293e-19
3.09744e-20
8.76862e-21
2.4385e-21
6.67177e-22
1.79805e-22
4.7759e-23
1.24951e-23
3.21059e-24
8.03936e-25
1.92679e-25
4.24133e-26
7.75065e-27
7.34005e-28
1.80941e-21
7.01441e-21
1.49914e-20
2.77414e-20
4.83589e-20
8.2218e-20
1.39082e-19
2.37449e-19
4.13045e-19
7.27299e-19
1.30457e-18
2.38541e-18
4.41539e-18
8.18084e-18
1.49923e-17
2.69167e-17
4.71338e-17
8.07845e-17
1.37593e-16
2.3967e-16
4.43187e-16
8.95295e-16
1.97462e-15
4.60863e-15
1.09046e-14
2.48214e-14
5.44694e-14
1.14999e-13
2.28749e-13
4.38716e-13
8.14334e-13
1.45827e-12
2.55858e-12
4.36788e-12
7.28606e-12
1.18503e-11
1.88153e-11
2.93284e-11
4.55423e-11
7.17016e-11
1.15604e-10
1.92545e-10
3.30512e-10
5.81432e-10
1.03209e-09
1.83652e-09
3.27669e-09
5.71406e-09
9.81006e-09
1.66171e-08
2.70915e-08
4.2744e-08
6.47322e-08
9.32179e-08
1.25869e-07
1.54946e-07
1.62773e-07
1.24801e-07
6.85722e-08
3.75243e-08
2.03483e-08
1.0718e-08
5.57401e-09
2.81692e-09
1.37657e-09
6.50464e-10
3.03943e-10
1.44025e-10
6.35966e-11
2.54037e-11
9.27292e-12
3.11175e-12
9.65042e-13
2.82894e-13
7.71526e-14
2.17696e-14
6.73751e-15
2.30096e-15
8.25476e-16
2.97189e-16
1.04651e-16
3.56874e-17
1.17662e-17
3.75746e-18
1.16549e-18
3.52128e-19
1.03891e-19
2.99983e-20
8.49399e-21
2.36266e-21
6.46599e-22
1.74311e-22
4.63134e-23
1.21203e-23
3.11502e-24
7.80161e-25
1.87009e-25
4.11691e-26
7.52364e-27
7.1252e-28
1.80805e-21
7.0092e-21
1.49804e-20
2.7721e-20
4.83234e-20
8.21573e-20
1.38977e-19
2.37266e-19
4.12661e-19
7.26512e-19
1.30302e-18
2.38244e-18
4.40977e-18
8.17047e-18
1.49739e-17
2.68853e-17
4.7084e-17
8.07054e-17
1.37465e-16
2.39435e-16
4.42683e-16
8.94101e-16
1.97177e-15
4.60211e-15
1.08907e-14
2.47951e-14
5.44265e-14
1.14935e-13
2.28688e-13
4.38709e-13
8.14562e-13
1.4591e-12
2.56082e-12
4.37313e-12
7.29741e-12
1.18735e-11
1.88615e-11
2.94164e-11
4.57072e-11
7.20141e-11
1.16197e-10
1.93673e-10
3.32658e-10
5.85416e-10
1.03954e-09
1.85021e-09
3.30062e-09
5.75635e-09
9.88222e-09
1.67333e-08
2.72763e-08
4.3022e-08
6.51221e-08
9.37148e-08
1.26402e-07
1.55312e-07
1.62534e-07
1.23584e-07
6.79265e-08
3.71652e-08
2.01466e-08
1.06121e-08
5.51595e-09
2.78573e-09
1.36023e-09
6.42294e-10
3.00206e-10
1.42181e-10
6.26418e-11
2.49679e-11
9.09498e-12
3.04552e-12
9.42665e-13
2.75906e-13
7.51811e-14
2.12304e-14
6.58178e-15
2.2507e-15
8.07737e-16
2.90726e-16
1.02325e-16
3.48774e-17
1.14948e-17
3.66987e-18
1.13817e-18
3.43865e-19
1.01459e-19
2.93012e-20
8.29894e-21
2.30908e-21
6.32086e-22
1.70426e-22
4.52865e-23
1.18528e-23
3.04661e-24
7.63098e-25
1.82932e-25
4.02733e-26
7.36007e-27
6.97033e-28
1.80716e-21
7.00578e-21
1.49731e-20
2.77077e-20
4.83003e-20
8.21181e-20
1.38911e-19
2.37151e-19
4.1242e-19
7.26019e-19
1.30206e-18
2.3806e-18
4.40631e-18
8.16416e-18
1.49628e-17
2.68668e-17
4.70543e-17
8.06586e-17
1.37389e-16
2.39294e-16
4.42381e-16
8.93388e-16
1.97005e-15
4.59815e-15
1.08824e-14
2.47797e-14
5.4402e-14
1.149e-13
2.28663e-13
4.38734e-13
8.14771e-13
1.45975e-12
2.56249e-12
4.37692e-12
7.3055e-12
1.18898e-11
1.88934e-11
2.94768e-11
4.58208e-11
7.22298e-11
1.16603e-10
1.94439e-10
3.34101e-10
5.88101e-10
1.04453e-09
1.85929e-09
3.31636e-09
5.78416e-09
9.92976e-09
1.68098e-08
2.7398e-08
4.32046e-08
6.53777e-08
9.40391e-08
1.2675e-07
1.55546e-07
1.62367e-07
1.22775e-07
6.74812e-08
3.69176e-08
2.00079e-08
1.05395e-08
5.47638e-09
2.76457e-09
1.34923e-09
6.36824e-10
2.97674e-10
1.40937e-10
6.20017e-11
2.46775e-11
8.97723e-12
3.00214e-12
9.28076e-13
2.7138e-13
7.39262e-14
2.08879e-14
6.48372e-15
2.21933e-15
7.967e-16
2.86694e-16
1.00867e-16
3.43672e-17
1.13232e-17
3.61431e-18
1.12079e-18
3.38595e-19
9.99032e-20
2.88522e-20
8.17193e-21
2.27386e-21
6.22505e-22
1.67866e-22
4.46134e-23
1.16784e-23
3.00215e-24
7.52037e-25
1.80293e-25
3.9694e-26
7.2543e-27
6.87017e-28
1.80664e-21
7.00376e-21
1.49688e-20
2.76998e-20
4.82866e-20
8.20949e-20
1.38871e-19
2.37083e-19
4.12285e-19
7.25753e-19
1.30156e-18
2.37965e-18
4.40458e-18
8.16104e-18
1.49574e-17
2.68579e-17
4.70402e-17
8.06364e-17
1.37352e-16
2.39225e-16
4.42235e-16
8.93046e-16
1.96924e-15
4.59627e-15
1.08784e-14
2.47724e-14
5.43909e-14
1.14885e-13
2.28656e-13
4.38756e-13
8.14892e-13
1.46011e-12
2.56337e-12
4.37891e-12
7.30965e-12
1.18981e-11
1.89097e-11
2.95074e-11
4.58779e-11
7.23366e-11
1.16803e-10
1.94817e-10
3.34817e-10
5.89432e-10
1.04701e-09
1.86383e-09
3.32422e-09
5.79803e-09
9.95338e-09
1.68477e-08
2.74583e-08
4.32954e-08
6.55047e-08
9.41999e-08
1.26922e-07
1.5566e-07
1.62281e-07
1.22371e-07
6.72578e-08
3.67934e-08
1.99383e-08
1.05029e-08
5.45644e-09
2.75391e-09
1.34371e-09
6.34099e-10
2.96433e-10
1.40323e-10
6.16855e-11
2.45343e-11
8.91933e-12
2.98085e-12
9.20957e-13
2.69186e-13
7.33234e-14
2.07255e-14
6.43735e-15
2.20457e-15
7.91539e-16
2.84813e-16
1.00186e-16
3.41291e-17
1.12431e-17
3.58837e-18
1.11267e-18
3.36129e-19
9.91738e-20
2.86415e-20
8.11227e-21
2.25729e-21
6.17986e-22
1.66654e-22
4.42929e-23
1.1595e-23
2.98081e-24
7.46709e-25
1.79018e-25
3.94136e-26
7.20303e-27
6.82158e-28
1.80645e-21
7.00303e-21
1.49672e-20
2.76968e-20
4.82812e-20
8.20853e-20
1.38855e-19
2.37055e-19
4.12236e-19
7.25671e-19
1.30142e-18
2.37944e-18
4.40425e-18
8.16056e-18
1.49567e-17
2.68571e-17
4.70393e-17
8.06358e-17
1.37352e-16
2.39226e-16
4.42236e-16
8.93049e-16
1.96924e-15
4.59628e-15
1.08784e-14
2.47725e-14
5.43909e-14
1.14885e-13
2.28656e-13
4.38757e-13
8.14894e-13
1.46011e-12
2.56339e-12
4.37893e-12
7.30971e-12
1.18982e-11
1.89099e-11
2.95077e-11
4.58784e-11
7.23375e-11
1.16805e-10
1.9482e-10
3.34821e-10
5.8944e-10
1.04702e-09
1.86386e-09
3.32427e-09
5.7981e-09
9.95349e-09
1.68479e-08
2.74586e-08
4.32958e-08
6.55053e-08
9.42006e-08
1.26922e-07
1.55661e-07
1.62282e-07
1.2237e-07
6.72577e-08
3.67933e-08
1.99383e-08
1.05028e-08
5.45642e-09
2.75391e-09
1.34372e-09
6.34112e-10
2.96468e-10
1.40335e-10
6.16901e-11
2.4536e-11
8.91985e-12
2.98102e-12
9.21004e-13
2.69199e-13
7.33265e-14
2.07263e-14
6.43755e-15
2.20463e-15
7.91559e-16
2.8482e-16
1.00189e-16
3.413e-17
1.12434e-17
3.58847e-18
1.1127e-18
3.36138e-19
9.91764e-20
2.86422e-20
8.11248e-21
2.25735e-21
6.18001e-22
1.66658e-22
4.4294e-23
1.15952e-23
2.98087e-24
7.46725e-25
1.79022e-25
3.94143e-26
7.20317e-27
6.82171e-28
1.80666e-21
7.00379e-21
1.49688e-20
2.76996e-20
4.82858e-20
8.2093e-20
1.38868e-19
2.37079e-19
4.12299e-19
7.2582e-19
1.30174e-18
2.3801e-18
4.40556e-18
8.16307e-18
1.49613e-17
2.6865e-17
4.70524e-17
8.06571e-17
1.37388e-16
2.39294e-16
4.42384e-16
8.93396e-16
1.97007e-15
4.59818e-15
1.08824e-14
2.47797e-14
5.44022e-14
1.149e-13
2.28665e-13
4.38737e-13
8.14778e-13
1.45977e-12
2.56252e-12
4.377e-12
7.30565e-12
1.18901e-11
1.8894e-11
2.94779e-11
4.58227e-11
7.22325e-11
1.16607e-10
1.94447e-10
3.34115e-10
5.88126e-10
1.04457e-09
1.85938e-09
3.31651e-09
5.78439e-09
9.93008e-09
1.68103e-08
2.73987e-08
4.32059e-08
6.53794e-08
9.40412e-08
1.26752e-07
1.55547e-07
1.62367e-07
1.22774e-07
6.74808e-08
3.69174e-08
2.00079e-08
1.05394e-08
5.47634e-09
2.76455e-09
1.34922e-09
6.36817e-10
2.97659e-10
1.40931e-10
6.19997e-11
2.46771e-11
8.9772e-12
3.00218e-12
9.28104e-13
2.71393e-13
7.39309e-14
2.08894e-14
6.48421e-15
2.2195e-15
7.96759e-16
2.86716e-16
1.00874e-16
3.43698e-17
1.13241e-17
3.61458e-18
1.12088e-18
3.3862e-19
9.99109e-20
2.88545e-20
8.17256e-21
2.27403e-21
6.22551e-22
1.67878e-22
4.46164e-23
1.16791e-23
3.00232e-24
7.52078e-25
1.80302e-25
3.9696e-26
7.25467e-27
6.87052e-28
1.80733e-21
7.00636e-21
1.49742e-20
2.77095e-20
4.83031e-20
8.21227e-20
1.3892e-19
2.37171e-19
4.12505e-19
7.26262e-19
1.30264e-18
2.38185e-18
4.40893e-18
8.16933e-18
1.49725e-17
2.68837e-17
4.70825e-17
8.07043e-17
1.37465e-16
2.39437e-16
4.42687e-16
8.9411e-16
1.97179e-15
4.60215e-15
1.08908e-14
2.47952e-14
5.44268e-14
1.14935e-13
2.28689e-13
4.38711e-13
8.14568e-13
1.45911e-12
2.56085e-12
4.37319e-12
7.29756e-12
1.18738e-11
1.88622e-11
2.94178e-11
4.571e-11
7.20197e-11
1.16206e-10
1.93688e-10
3.32682e-10
5.85466e-10
1.03961e-09
1.8503e-09
3.30074e-09
5.75651e-09
9.8826e-09
1.6734e-08
2.72774e-08
4.30237e-08
6.51244e-08
9.37177e-08
1.26406e-07
1.55314e-07
1.62534e-07
1.23581e-07
6.79249e-08
3.71644e-08
2.01461e-08
1.0612e-08
5.51589e-09
2.78571e-09
1.36023e-09
6.42297e-10
3.00205e-10
1.42179e-10
6.2642e-11
2.49684e-11
9.09534e-12
3.0457e-12
9.42743e-13
2.75935e-13
7.51908e-14
2.12335e-14
6.58273e-15
2.25102e-15
8.07846e-16
2.90766e-16
1.02339e-16
3.48822e-17
1.14964e-17
3.67037e-18
1.13832e-18
3.43911e-19
1.01473e-19
2.9305e-20
8.30005e-21
2.3094e-21
6.32174e-22
1.7045e-22
4.52929e-23
1.18544e-23
3.047e-24
7.6319e-25
1.82953e-25
4.02776e-26
7.36081e-27
6.97102e-28
1.80857e-21
7.01116e-21
1.49844e-20
2.77284e-20
4.83363e-20
8.21802e-20
1.3902e-19
2.37351e-19
4.12889e-19
7.27061e-19
1.30422e-18
2.38491e-18
4.41472e-18
8.18e-18
1.49913e-17
2.69158e-17
4.7133e-17
8.07841e-17
1.37593e-16
2.39671e-16
4.4319e-16
8.95303e-16
1.97464e-15
4.60868e-15
1.09047e-14
2.48216e-14
5.44697e-14
1.15e-13
2.2875e-13
4.38718e-13
8.14336e-13
1.45827e-12
2.55858e-12
4.36789e-12
7.28606e-12
1.18502e-11
1.88156e-11
2.9329e-11
4.55437e-11
7.17045e-11
1.1561e-10
1.9256e-10
3.30541e-10
5.81464e-10
1.03214e-09
1.83662e-09
3.27691e-09
5.71448e-09
9.81068e-09
1.66181e-08
2.7093e-08
4.27461e-08
6.47347e-08
9.32203e-08
1.2587e-07
1.54947e-07
1.62771e-07
1.24797e-07
6.85701e-08
3.75234e-08
2.03479e-08
1.07179e-08
5.57401e-09
2.81694e-09
1.37659e-09
6.50478e-10
3.03948e-10
1.44029e-10
6.35999e-11
2.54058e-11
9.27392e-12
3.11214e-12
9.65192e-13
2.82946e-13
7.71686e-14
2.17743e-14
6.73891e-15
2.30141e-15
8.25633e-16
2.97245e-16
1.0467e-16
3.56941e-17
1.17684e-17
3.75815e-18
1.1657e-18
3.52191e-19
1.03909e-19
3.00034e-20
8.49535e-21
2.36301e-21
6.46688e-22
1.74333e-22
4.63188e-23
1.21216e-23
3.11533e-24
7.80231e-25
1.87024e-25
4.11721e-26
7.52413e-27
7.12565e-28
1.81046e-21
7.01842e-21
1.49999e-20
2.77571e-20
4.83867e-20
8.22675e-20
1.39172e-19
2.3762e-19
4.1345e-19
7.28203e-19
1.30645e-18
2.38919e-18
4.42277e-18
8.19466e-18
1.5017e-17
2.69586e-17
4.72024e-17
8.08941e-17
1.37777e-16
2.40016e-16
4.4393e-16
8.97002e-16
1.97872e-15
4.6182e-15
1.09253e-14
2.48617e-14
5.4539e-14
1.15111e-13
2.28877e-13
4.38815e-13
8.14187e-13
1.45744e-12
2.55607e-12
4.36171e-12
7.27222e-12
1.18213e-11
1.87572e-11
2.92171e-11
4.53297e-11
7.12958e-11
1.14834e-10
1.91073e-10
3.27703e-10
5.76131e-10
1.02213e-09
1.81817e-09
3.24456e-09
5.65744e-09
9.71353e-09
1.64616e-08
2.68444e-08
4.23722e-08
6.42098e-08
9.25542e-08
1.25147e-07
1.54433e-07
1.6304e-07
1.26373e-07
6.93912e-08
3.79804e-08
2.06059e-08
1.08538e-08
5.64907e-09
2.85777e-09
1.39811e-09
6.61314e-10