/*--------------------------------*- C++ -*----------------------------------*\
  =========                 |
  \\      /  F ield         | OpenFOAM: The Open Source CFD Toolbox
   \\    /   O peration     | Website:  https://openfoam.org
    \\  /    A nd           | Version:  10
     \\/     M anipulation  |
\*---------------------------------------------------------------------------*/
FoamFile
{
    format      ascii;
    class       volScalarField;
    location    "1";
    object      CH2O;
}
// * * * * * * * * * * * * * * * * * * * * * * * * * * * * * * * * * * * * * //

dimensions      [0 0 0 0 0 0 0];

internalField   nonuniform List<scalar> 
4000
(
1.85647e-10
7.19284e-10
1.53341e-09
2.8191e-09
4.84784e-09
8.03819e-09
1.3034e-08
2.08168e-08
3.2869e-08
5.07877e-08
7.70853e-08
1.15426e-07
1.70773e-07
2.4958e-07
3.59906e-07
5.11352e-07
7.14557e-07
9.80357e-07
1.31856e-06
1.73666e-06
2.23867e-06
2.82442e-06
3.4895e-06
4.22914e-06
5.03014e-06
5.86294e-06
6.73434e-06
7.6462e-06
8.55935e-06
9.48304e-06
1.03907e-05
1.12826e-05
1.21457e-05
1.29689e-05
1.37466e-05
1.44744e-05
1.51494e-05
1.57703e-05
1.63358e-05
1.68475e-05
1.73114e-05
1.77262e-05
1.81045e-05
1.84619e-05
1.88229e-05
1.92295e-05
1.97273e-05
2.04097e-05
2.13643e-05
2.27586e-05
2.46219e-05
2.69824e-05
2.96881e-05
3.23612e-05
3.44027e-05
3.50169e-05
3.32057e-05
2.79026e-05
1.89832e-05
1.04416e-05
5.75284e-06
3.14414e-06
1.69635e-06
9.00144e-07
4.65969e-07
2.40714e-07
1.30883e-07
8.97743e-08
9.74859e-08
1.21657e-07
1.21658e-07
9.98401e-08
7.39125e-08
5.20022e-08
3.56011e-08
2.40294e-08
1.57325e-08
1.01332e-08
6.39484e-09
3.93933e-09
2.36434e-09
1.38317e-09
7.90444e-10
4.42569e-10
2.43499e-10
1.31994e-10
7.06446e-11
3.73956e-11
1.96236e-11
1.02185e-11
5.28472e-12
2.71622e-12
1.38774e-12
7.04405e-13
3.5455e-13
1.76093e-13
8.53216e-14
3.92447e-14
1.58749e-14
3.65529e-15
1.85793e-10
7.19878e-10
1.53487e-09
2.82246e-09
4.85514e-09
8.05284e-09
1.3061e-08
2.08628e-08
3.29396e-08
5.08998e-08
7.72333e-08
1.15579e-07
1.70858e-07
2.49435e-07
3.59227e-07
5.09602e-07
7.10835e-07
9.73676e-07
1.30799e-06
1.72149e-06
2.21863e-06
2.80001e-06
3.46236e-06
4.19529e-06
4.99203e-06
5.82158e-06
6.69113e-06
7.60507e-06
8.52036e-06
9.44959e-06
1.03636e-05
1.12629e-05
1.2133e-05
1.29654e-05
1.3752e-05
1.44888e-05
1.51728e-05
1.58032e-05
1.63778e-05
1.68987e-05
1.73723e-05
1.77971e-05
1.81865e-05
1.85571e-05
1.89316e-05
1.93493e-05
1.98566e-05
2.05554e-05
2.15258e-05
2.29425e-05
2.48298e-05
2.7213e-05
2.99346e-05
3.26002e-05
3.45977e-05
3.51128e-05
3.31309e-05
2.75939e-05
1.84861e-05
1.01722e-05
5.59886e-06
3.05583e-06
1.6457e-06
8.71266e-07
4.50406e-07
2.3278e-07
1.27781e-07
9.06046e-08
1.021e-07
1.2589e-07
1.2313e-07
9.95727e-08
7.31112e-08
5.11591e-08
3.48281e-08
2.33783e-08
1.52588e-08
9.8035e-09
6.17509e-09
3.80056e-09
2.28207e-09
1.33759e-09
7.66841e-10
4.31109e-10
2.3827e-10
1.29759e-10
6.97699e-11
3.71037e-11
1.95276e-11
1.01865e-11
5.27305e-12
2.71101e-12
1.38474e-12
7.02333e-13
3.53238e-13
1.75305e-13
8.48759e-14
3.90178e-14
1.57781e-14
3.63203e-15
1.86327e-10
7.22024e-10
1.53978e-09
2.83225e-09
4.87327e-09
8.08469e-09
1.31141e-08
2.09461e-08
3.3061e-08
5.10745e-08
7.74575e-08
1.15827e-07
1.71074e-07
2.49482e-07
3.58857e-07
5.08379e-07
7.08298e-07
9.69161e-07
1.30063e-06
1.71028e-06
2.20255e-06
2.77804e-06
3.43458e-06
4.16463e-06
4.95889e-06
5.78706e-06
6.65746e-06
7.57223e-06
8.48983e-06
9.42422e-06
1.03423e-05
1.12474e-05
1.21245e-05
1.29683e-05
1.37672e-05
1.45168e-05
1.52141e-05
1.58585e-05
1.64471e-05
1.69821e-05
1.74702e-05
1.79091e-05
1.83141e-05
1.87028e-05
1.90894e-05
1.95232e-05
2.00509e-05
2.07726e-05
2.17772e-05
2.32314e-05
2.51553e-05
2.75849e-05
3.03314e-05
3.29825e-05
3.49015e-05
3.52439e-05
3.29724e-05
2.70367e-05
1.76206e-05
9.70387e-06
5.3333e-06
2.90514e-06
1.55942e-06
8.22579e-07
4.24847e-07
2.20002e-07
1.23136e-07
9.23582e-08
1.09415e-07
1.31919e-07
1.24808e-07
9.90207e-08
7.20533e-08
5.02821e-08
3.37418e-08
2.2673e-08
1.47818e-08
9.48819e-09
5.97271e-09
3.67557e-09
2.20814e-09
1.29573e-09
7.44049e-10
4.19116e-10
2.32136e-10
1.26688e-10
6.8249e-11
3.63487e-11
1.91641e-11
1.00139e-11
5.1913e-12
2.6721e-12
1.36629e-12
6.93845e-13
3.49138e-13
1.73274e-13
8.38734e-14
3.85433e-14
1.55807e-14
3.58562e-15
1.86509e-10
7.22736e-10
1.54132e-09
2.83511e-09
4.87808e-09
8.09196e-09
1.31236e-08
2.09552e-08
3.3062e-08
5.10579e-08
7.73846e-08
1.15617e-07
1.70567e-07
2.48477e-07
3.57073e-07
5.05491e-07
7.03851e-07
9.62621e-07
1.29148e-06
1.69812e-06
2.18727e-06
2.75995e-06
3.41287e-06
4.14046e-06
4.93368e-06
5.76068e-06
6.6308e-06
7.54745e-06
8.46656e-06
9.40464e-06
1.03278e-05
1.12398e-05
1.21257e-05
1.29801e-05
1.37925e-05
1.4557e-05
1.52695e-05
1.59298e-05
1.65345e-05
1.70863e-05
1.75922e-05
1.80499e-05
1.84718e-05
1.88752e-05
1.92818e-05
1.97373e-05
2.02902e-05
2.10431e-05
2.20798e-05
2.3575e-05
2.55435e-05
2.80162e-05
3.07901e-05
3.34232e-05
3.52344e-05
3.53565e-05
3.27154e-05
2.62775e-05
1.65049e-05
9.09893e-06
4.99658e-06
2.72345e-06
1.44522e-06
7.60418e-07
3.9293e-07
2.04481e-07
1.17858e-07
9.51563e-08
1.17929e-07
1.38062e-07
1.2614e-07
9.80895e-08
7.06295e-08
4.89035e-08
3.28509e-08
2.20062e-08
1.42899e-08
9.14095e-09
5.73682e-09
3.52193e-09
2.11251e-09
1.23883e-09
7.1155e-10
4.01193e-10
2.22532e-10
1.21661e-10
6.56663e-11
3.50417e-11
1.85105e-11
9.68992e-12
5.03151e-12
2.59341e-12
1.32738e-12
6.74421e-13
3.39552e-13
1.68609e-13
8.16577e-14
3.75427e-14
1.51821e-14
3.49469e-15
1.86391e-10
7.22278e-10
1.54034e-09
2.83323e-09
4.87456e-09
8.08517e-09
1.31101e-08
2.09277e-08
3.30062e-08
5.09448e-08
7.71739e-08
1.15245e-07
1.69952e-07
2.47478e-07
3.55483e-07
5.03031e-07
7.00173e-07
9.57334e-07
1.2842e-06
1.68858e-06
2.17537e-06
2.7459e-06
3.39722e-06
4.12262e-06
4.91341e-06
5.73819e-06
6.60642e-06
7.5254e-06
8.44813e-06
9.39105e-06
1.03206e-05
1.12402e-05
1.21359e-05
1.30015e-05
1.38286e-05
1.46072e-05
1.53348e-05
1.60111e-05
1.66321e-05
1.72005e-05
1.77241e-05
1.81989e-05
1.86392e-05
1.90633e-05
1.94909e-05
1.9968e-05
2.05442e-05
2.13249e-05
2.2395e-05
2.39358e-05
2.5959e-05
2.84825e-05
3.12826e-05
3.38806e-05
3.55677e-05
3.54328e-05
3.23687e-05
2.53732e-05
1.52556e-05
8.41082e-06
4.61423e-06
2.50734e-06
1.3257e-06
6.94928e-07
3.59278e-07
1.88765e-07
1.13432e-07
1.00127e-07
1.27799e-07
1.43786e-07
1.26824e-07
9.68044e-08
6.89357e-08
4.74918e-08
3.2171e-08
2.11386e-08
1.37171e-08
8.76589e-09
5.49515e-09
3.37029e-09
2.02049e-09
1.1849e-09
6.80948e-10
3.84299e-10
2.13415e-10
1.16831e-10
6.31449e-11
3.37407e-11
1.78453e-11
9.3521e-12
4.86078e-12
2.50739e-12
1.28416e-12
6.5277e-13
3.28775e-13
1.63308e-13
7.91115e-14
3.638e-14
1.47143e-14
3.38709e-15
1.85982e-10
7.20697e-10
1.53696e-09
2.82691e-09
4.86335e-09
8.06568e-09
1.30761e-08
2.08677e-08
3.29024e-08
5.07711e-08
7.68981e-08
1.14827e-07
1.69316e-07
2.46505e-07
3.54012e-07
5.00844e-07
6.97002e-07
9.52833e-07
1.27797e-06
1.68015e-06
2.16425e-06
2.73142e-06
3.37904e-06
4.10233e-06
4.89288e-06
5.71841e-06
6.58871e-06
7.51048e-06
8.4365e-06
9.38416e-06
1.03204e-05
1.12477e-05
1.21534e-05
1.30299e-05
1.38701e-05
1.46632e-05
1.5406e-05
1.60982e-05
1.67361e-05
1.73222e-05
1.78626e-05
1.83551e-05
1.88141e-05
1.92587e-05
1.97085e-05
2.02104e-05
2.08166e-05
2.16281e-05
2.27425e-05
2.43379e-05
2.64164e-05
2.89839e-05
3.17937e-05
3.43423e-05
3.58839e-05
3.54709e-05
3.19661e-05
2.44166e-05
1.40348e-05
7.74905e-06
4.25367e-06
2.31161e-06
1.22131e-06
6.3939e-07
3.30556e-07
1.75674e-07
1.10572e-07
1.06286e-07
1.37653e-07
1.48564e-07
1.26805e-07
9.51956e-08
6.72813e-08
4.61577e-08
3.11537e-08
2.04233e-08
1.32248e-08
8.43209e-09
5.27369e-09
3.22775e-09
1.93197e-09
1.13189e-09
6.50257e-10
3.67041e-10
2.03948e-10
1.11744e-10
6.04587e-11
3.23423e-11
1.71258e-11
8.98524e-12
4.67492e-12
2.41337e-12
1.23672e-12
6.2901e-13
3.16983e-13
1.57547e-13
7.63672e-14
3.51354e-14
1.42151e-14
3.27239e-15
1.8531e-10
7.18086e-10
1.53132e-09
2.81638e-09
4.84495e-09
8.03482e-09
1.30262e-08
2.07902e-08
3.27785e-08
5.05665e-08
7.65799e-08
1.14324e-07
1.68536e-07
2.45326e-07
3.52266e-07
4.9832e-07
6.93454e-07
9.47979e-07
1.27152e-06
1.67183e-06
2.15425e-06
2.71983e-06
3.36645e-06
4.0888e-06
4.87893e-06
5.70466e-06
6.57581e-06
7.50026e-06
8.43e-06
9.38245e-06
1.03253e-05
1.12593e-05
1.21788e-05
1.30651e-05
1.39168e-05
1.47234e-05
1.548e-05
1.6186e-05
1.68397e-05
1.74428e-05
1.80003e-05
1.85098e-05
1.89862e-05
1.94488e-05
1.99215e-05
2.04437e-05
2.10773e-05
2.19178e-05
2.30729e-05
2.47168e-05
2.68457e-05
2.94566e-05
3.2281e-05
3.47803e-05
3.61779e-05
3.54974e-05
3.15865e-05
2.3576e-05
1.31494e-05
7.25916e-06
3.98137e-06
2.16003e-06
1.1392e-06
5.94944e-07
3.07896e-07
1.65838e-07
1.09551e-07
1.13489e-07
1.46139e-07
1.51538e-07
1.25974e-07
9.33387e-08
6.55354e-08
4.47581e-08
3.01877e-08
1.97515e-08
1.27636e-08
8.11981e-09
5.06747e-09
3.09579e-09
1.85049e-09
1.08332e-09
6.22202e-10
3.51263e-10
1.95271e-10
1.07059e-10
5.79683e-11
3.10357e-11
1.64481e-11
8.63752e-12
4.4987e-12
2.32573e-12
1.19366e-12
6.078e-13
3.06439e-13
1.52328e-13
7.38351e-14
3.39675e-14
1.37418e-14
3.16334e-15
1.84545e-10
7.15114e-10
1.5249e-09
2.80432e-09
4.82357e-09
7.99802e-09
1.29638e-08
2.0685e-08
3.26071e-08
5.02875e-08
7.61034e-08
1.13564e-07
1.67368e-07
2.43579e-07
3.49728e-07
4.94736e-07
6.88563e-07
9.4154e-07
1.26338e-06
1.66204e-06
2.14269e-06
2.70703e-06
3.35337e-06
4.07619e-06
4.86659e-06
5.69269e-06
6.56598e-06
7.49321e-06
8.42726e-06
9.38517e-06
1.03358e-05
1.12775e-05
1.22068e-05
1.31035e-05
1.39665e-05
1.47863e-05
1.55573e-05
1.62815e-05
1.69498e-05
1.75664e-05
1.81348e-05
1.86605e-05
1.91533e-05
1.96365e-05
2.0125e-05
2.06665e-05
2.13209e-05
2.2185e-05
2.33752e-05
2.50658e-05
2.72472e-05
2.99019e-05
3.27383e-05
3.51889e-05
3.64506e-05
3.55258e-05
3.12601e-05
2.28961e-05
1.2639e-05
6.95883e-06
3.80484e-06
2.05718e-06
1.08212e-06
5.63573e-07
2.91597e-07
1.59143e-07
1.10068e-07
1.21334e-07
1.53714e-07
1.53673e-07
1.24983e-07
9.16647e-08
6.40225e-08
4.35668e-08
2.92814e-08
1.91181e-08
1.23311e-08
7.82985e-09
4.87804e-09
2.97593e-09
1.77716e-09
1.03986e-09
5.97154e-10
3.37167e-10
1.87494e-10
1.02841e-10
5.57131e-11
2.98448e-11
1.58257e-11
8.31503e-12
4.33251e-12
2.2402e-12
1.14991e-12
5.85791e-13
2.9567e-13
1.47091e-13
7.1323e-14
3.28164e-14
1.32773e-14
3.05656e-15
1.83849e-10
7.12419e-10
1.51914e-09
2.79361e-09
4.80489e-09
7.96643e-09
1.29113e-08
2.05991e-08
3.24682e-08
5.00432e-08
7.57214e-08
1.12983e-07
1.66508e-07
2.42335e-07
3.47963e-07
4.92291e-07
6.85275e-07
9.37258e-07
1.25802e-06
1.65582e-06
2.13532e-06
2.69914e-06
3.34455e-06
4.06645e-06
4.85764e-06
5.68521e-06
6.56022e-06
7.48937e-06
8.42657e-06
9.38746e-06
1.03534e-05
1.13004e-05
1.22375e-05
1.3143e-05
1.40161e-05
1.48475e-05
1.56326e-05
1.63655e-05
1.7047e-05
1.76795e-05
1.82631e-05
1.88049e-05
1.93174e-05
1.98171e-05
2.0324e-05
2.08839e-05
2.15655e-05
2.24577e-05
2.36824e-05
2.54135e-05
2.76323e-05
3.03195e-05
3.31597e-05
3.55604e-05
3.66928e-05
3.55413e-05
3.09526e-05
2.2289e-05
1.22749e-05
6.74416e-06
3.67806e-06
1.98212e-06
1.04191e-06
5.41004e-07
2.79959e-07
1.54671e-07
1.11496e-07
1.28761e-07
1.6005e-07
1.55158e-07
1.24058e-07
9.03544e-08
6.30332e-08
4.21479e-08
2.8363e-08
1.85316e-08
1.19545e-08
7.58752e-09
4.72361e-09
2.87922e-09
1.71798e-09
1.00455e-09
5.76578e-10
3.25438e-10
1.80937e-10
9.92376e-11
5.37624e-11
2.88032e-11
1.52762e-11
8.0279e-12
4.1836e-12
2.16333e-12
1.1105e-12
5.65754e-13
2.85514e-13
1.42054e-13
6.89028e-14
3.17135e-14
1.28337e-14
2.95482e-15
1.83273e-10
7.10213e-10
1.51448e-09
2.78512e-09
4.79031e-09
7.94213e-09
1.28713e-08
2.05333e-08
3.23588e-08
4.98567e-08
7.54203e-08
1.12514e-07
1.658e-07
2.41295e-07
3.46484e-07
4.90251e-07
6.82539e-07
9.33691e-07
1.25352e-06
1.65016e-06
2.12915e-06
2.69181e-06
3.33693e-06
4.05965e-06
4.85164e-06
5.68052e-06
6.55761e-06
7.4892e-06
8.43026e-06
9.39572e-06
1.03683e-05
1.13222e-05
1.22672e-05
1.31813e-05
1.4064e-05
1.49065e-05
1.57011e-05
1.64446e-05
1.71376e-05
1.77832e-05
1.838e-05
1.89364e-05
1.94609e-05
1.99741e-05
2.04958e-05
2.1075e-05
2.17751e-05
2.26908e-05
2.39457e-05
2.57126e-05
2.79738e-05
3.06943e-05
3.35388e-05
3.58877e-05
3.68972e-05
3.55344e-05
3.06469e-05
2.1713e-05
1.19446e-05
6.55344e-06
3.5661e-06
1.91511e-06
1.0079e-06
5.22034e-07
2.70303e-07
1.51187e-07
1.13145e-07
1.35086e-07
1.64643e-07
1.55774e-07
1.22933e-07
8.89723e-08
6.18449e-08
4.12488e-08
2.77252e-08
1.8096e-08
1.16598e-08
7.38982e-09
4.59319e-09
2.79521e-09
1.66541e-09
9.72619e-10
5.5773e-10
3.14591e-10
1.74832e-10
9.58667e-11
5.19333e-11
2.78251e-11
1.47597e-11
7.75806e-12
4.04361e-12
2.09105e-12
1.07357e-12
5.47063e-13
2.76209e-13
1.37493e-13
6.6716e-14
3.07147e-14
1.24312e-14
2.86247e-15
1.82701e-10
7.07998e-10
1.50974e-09
2.77636e-09
4.77518e-09
7.91707e-09
1.28311e-08
2.0471e-08
3.22664e-08
4.97085e-08
7.51905e-08
1.12163e-07
1.65256e-07
2.40475e-07
3.45284e-07
4.88569e-07
6.8029e-07
9.30811e-07
1.25006e-06
1.64593e-06
2.12397e-06
2.68632e-06
3.33151e-06
4.05446e-06
4.84759e-06
5.678e-06
6.55726e-06
7.49136e-06
8.4361e-06
9.40574e-06
1.03839e-05
1.13438e-05
1.22955e-05
1.32169e-05
1.41071e-05
1.49578e-05
1.57622e-05
1.65157e-05
1.72186e-05
1.7874e-05
1.84808e-05
1.90471e-05
1.95827e-05
2.01079e-05
2.06436e-05
2.12372e-05
2.19549e-05
2.2893e-05
2.41762e-05
2.59779e-05
2.8275e-05
3.10209e-05
3.38631e-05
3.61649e-05
3.70622e-05
3.55098e-05
3.03631e-05
2.12239e-05
1.15953e-05
6.35929e-06
3.45757e-06
1.85383e-06
9.76611e-07
5.03371e-07
2.61174e-07
1.48063e-07
1.14878e-07
1.40578e-07
1.68191e-07
1.55935e-07
1.21765e-07
8.76979e-08
6.07881e-08
4.05888e-08
2.72489e-08
1.77603e-08
1.14246e-08
7.22632e-09
4.48202e-09
2.72213e-09
1.61913e-09
9.4432e-10
5.40953e-10
3.04905e-10
1.69366e-10
9.28435e-11
5.02894e-11
2.69444e-11
1.42942e-11
7.51545e-12
3.91959e-12
2.02906e-12
1.0429e-12
5.31868e-13
2.6856e-13
1.33655e-13
6.48409e-14
2.98479e-14
1.20796e-14
2.78149e-15
1.82203e-10
7.06074e-10
1.50564e-09
2.7688e-09
4.76212e-09
7.89528e-09
1.27955e-08
2.04137e-08
3.21681e-08
4.9546e-08
7.49424e-08
1.11808e-07
1.64782e-07
2.39824e-07
3.44372e-07
4.87252e-07
6.78472e-07
9.28446e-07
1.24702e-06
1.64249e-06
2.12014e-06
2.68234e-06
3.32774e-06
4.05124e-06
4.84535e-06
5.6772e-06
6.55853e-06
7.495e-06
8.44313e-06
9.41655e-06
1.03996e-05
1.13649e-05
1.23229e-05
1.32504e-05
1.41472e-05
1.50057e-05
1.58189e-05
1.65811e-05
1.7293e-05
1.79592e-05
1.85748e-05
1.91492e-05
1.96932e-05
2.02276e-05
2.07745e-05
2.13811e-05
2.21146e-05
2.30728e-05
2.4381e-05
2.62117e-05
2.85418e-05
3.13117e-05
3.41506e-05
3.64022e-05
3.71891e-05
3.54507e-05
3.00436e-05
2.06766e-05
1.13083e-05
6.19601e-06
3.36452e-06
1.80101e-06
9.46899e-07
4.88317e-07
2.53757e-07
1.45677e-07
1.1682e-07
1.45453e-07
1.7106e-07
1.5591e-07
1.20661e-07
8.64939e-08
5.97702e-08
4.00242e-08
2.68482e-08
1.74761e-08
1.12226e-08
7.08589e-09
4.3872e-09
2.66016e-09
1.57998e-09
9.20371e-10
5.26729e-10
2.96671e-10
1.64705e-10
9.02568e-11
4.88773e-11
2.61837e-11
1.38872e-11
7.29943e-12
3.80636e-12
1.97093e-12
1.01307e-12
5.16711e-13
2.61041e-13
1.29984e-13
6.30868e-14
2.90484e-14
1.17578e-14
2.70761e-15
1.81785e-10
7.04462e-10
1.50221e-09
2.76249e-09
4.75126e-09
7.87725e-09
1.27663e-08
2.03672e-08
3.20867e-08
4.94094e-08
7.47275e-08
1.11483e-07
1.643e-07
2.3915e-07
3.43477e-07
4.86147e-07
6.77052e-07
9.26605e-07
1.24473e-06
1.63967e-06
2.11713e-06
2.67938e-06
3.32488e-06
4.04905e-06
4.84421e-06
5.67751e-06
6.56081e-06
7.4995e-06
8.4507e-06
9.42754e-06
1.0415e-05
1.1385e-05
1.23482e-05
1.32817e-05
1.41857e-05
1.50507e-05
1.58704e-05
1.66394e-05
1.73587e-05
1.80307e-05
1.86539e-05
1.92371e-05
1.97908e-05
2.03359e-05
2.0893e-05
2.15107e-05
2.22571e-05
2.32309e-05
2.45596e-05
2.64157e-05
2.87697e-05
3.15543e-05
3.43857e-05
3.65914e-05
3.72781e-05
3.53716e-05
2.97311e-05
2.01707e-05
1.10468e-05
6.04964e-06
3.28199e-06
1.75447e-06
9.20763e-07
4.7512e-07
2.47345e-07
1.43736e-07
1.18719e-07
1.49655e-07
1.73384e-07
1.55773e-07
1.19634e-07
8.5423e-08
5.88885e-08
3.9543e-08
2.64944e-08
1.72248e-08
1.10453e-08
6.96267e-09
4.30379e-09
2.60553e-09
1.54543e-09
8.99237e-10
5.14182e-10
2.89414e-10
1.60603e-10
8.79849e-11
4.76432e-11
2.55277e-11
1.35491e-11
7.12839e-12
3.71873e-12
1.92553e-12
9.89757e-13
5.04804e-13
2.54969e-13
1.26944e-13
6.16065e-14
2.83654e-14
1.14809e-14
2.64381e-15
1.81442e-10
7.03144e-10
1.49942e-09
2.75736e-09
4.74246e-09
7.86269e-09
1.27428e-08
2.03301e-08
3.20208e-08
4.92981e-08
7.45527e-08
1.11221e-07
1.63917e-07
2.38606e-07
3.42721e-07
4.85116e-07
6.75759e-07
9.2506e-07
1.24291e-06
1.63761e-06
2.11491e-06
2.67714e-06
3.32302e-06
4.04779e-06
4.84397e-06
5.67861e-06
6.56368e-06
7.50435e-06
8.45833e-06
9.43823e-06
1.04295e-05
1.14039e-05
1.23721e-05
1.33107e-05
1.42195e-05
1.50897e-05
1.59155e-05
1.66905e-05
1.74155e-05
1.8095e-05
1.87247e-05
1.93141e-05
1.98733e-05
2.04241e-05
2.09891e-05
2.16166e-05
2.23757e-05
2.33647e-05
2.47123e-05
2.65875e-05
2.89615e-05
3.17587e-05
3.45806e-05
3.67425e-05
3.73394e-05
3.52842e-05
2.944e-05
1.97153e-05
1.08101e-05
5.91837e-06
3.20881e-06
1.71257e-06
8.9732e-07
4.62789e-07
2.41405e-07
1.41946e-07
1.20438e-07
1.53213e-07
1.75096e-07
1.55466e-07
1.18691e-07
8.4473e-08
5.81096e-08
3.91233e-08
2.61844e-08
1.69979e-08
1.08832e-08
6.84957e-09
4.22732e-09
2.55567e-09
1.51408e-09
8.80178e-10
5.02932e-10
2.82939e-10
1.56956e-10
8.59684e-11
4.65452e-11
2.4937e-11
1.32333e-11
6.96239e-12
3.6351e-12
1.88321e-12
9.68262e-13
4.93799e-13
2.49435e-13
1.24202e-13
6.02808e-14
2.77566e-14
1.12348e-14
2.58717e-15
1.81166e-10
7.02081e-10
1.49716e-09
2.75322e-09
4.73537e-09
7.85099e-09
1.2724e-08
2.03006e-08
3.19679e-08
4.92088e-08
7.44128e-08
1.11012e-07
1.63615e-07
2.38179e-07
3.42133e-07
4.84331e-07
6.74752e-07
9.23755e-07
1.2414e-06
1.63602e-06
2.11329e-06
2.67564e-06
3.32181e-06
4.04718e-06
4.8443e-06
5.68016e-06
6.56684e-06
7.50935e-06
8.46559e-06
9.44798e-06
1.04425e-05
1.14201e-05
1.23921e-05
1.3335e-05
1.4248e-05
1.51231e-05
1.59538e-05
1.6734e-05
1.74647e-05
1.81495e-05
1.87843e-05
1.93784e-05
1.99434e-05
2.04994e-05
2.10691e-05
2.17009e-05
2.24805e-05
2.34789e-05
2.48404e-05
2.67316e-05
2.91232e-05
3.19288e-05
3.47405e-05
3.68627e-05
3.738e-05
3.51977e-05
2.91836e-05
1.93315e-05
1.06092e-05
5.80994e-06
3.1558e-06
1.66614e-06
8.72962e-07
4.5036e-07
2.35619e-07
1.40196e-07
1.21893e-07
1.55965e-07
1.76257e-07
1.55022e-07
1.17793e-07
8.36394e-08
5.74476e-08
3.87685e-08
2.58826e-08
1.67674e-08
1.07189e-08
6.73719e-09
4.15326e-09
2.50855e-09
1.48509e-09
8.62868e-10
4.92859e-10
2.77208e-10
1.53756e-10
8.42109e-11
4.55932e-11
2.44272e-11
1.29626e-11
6.81902e-12
3.55866e-12
1.84336e-12
9.47917e-13
4.83668e-13
2.44415e-13
1.2174e-13
5.90995e-14
2.7217e-14
1.10174e-14
2.53723e-15
1.80947e-10
7.01236e-10
1.49536e-09
2.74993e-09
4.72971e-09
7.84163e-09
1.27089e-08
2.02766e-08
3.19257e-08
4.91381e-08
7.43026e-08
1.10848e-07
1.63379e-07
2.37847e-07
3.41678e-07
4.83727e-07
6.73956e-07
9.22804e-07
1.24027e-06
1.63476e-06
2.11206e-06
2.67454e-06
3.32104e-06
4.04696e-06
4.84491e-06
5.68183e-06
6.56986e-06
7.51391e-06
8.47224e-06
9.45697e-06
1.04541e-05
1.14348e-05
1.24099e-05
1.33559e-05
1.42726e-05
1.51515e-05
1.59868e-05
1.67711e-05
1.75056e-05
1.81943e-05
1.88332e-05
1.94318e-05
2.0001e-05
2.05616e-05
2.11367e-05
2.17752e-05
2.25626e-05
2.35702e-05
2.49433e-05
2.68473e-05
2.92525e-05
3.20649e-05
3.48678e-05
3.69569e-05
3.74085e-05
3.51198e-05
2.89625e-05
1.90025e-05
1.04361e-05
5.71366e-06
3.10175e-06
1.63661e-06
8.56489e-07
4.4161e-07
2.31464e-07
1.39058e-07
1.23353e-07
1.58262e-07
1.7718e-07
1.54696e-07
1.17143e-07
8.30707e-08
5.70689e-08
3.86275e-08
2.53742e-08
1.647e-08
1.05389e-08
6.62678e-09
4.08534e-09
2.46716e-09
1.46027e-09
8.48267e-10
4.84435e-10
2.72434e-10
1.51096e-10
8.27509e-11
4.48033e-11
2.4005e-11
1.27393e-11
6.702e-12
3.49778e-12
1.81194e-12
9.31839e-13
4.75522e-13
2.40331e-13
1.19721e-13
5.81258e-14
2.67706e-14
1.08372e-14
2.49566e-15
1.8078e-10
7.00594e-10
1.494e-09
2.74743e-09
4.72543e-09
7.83458e-09
1.26976e-08
2.02588e-08
3.18938e-08
4.90842e-08
7.42186e-08
1.10724e-07
1.632e-07
2.37597e-07
3.41338e-07
4.83279e-07
6.73381e-07
9.22102e-07
1.23945e-06
1.63387e-06
2.11117e-06
2.6738e-06
3.32059e-06
4.04699e-06
4.84564e-06
5.68343e-06
6.5726e-06
7.51786e-06
8.47776e-06
9.46421e-06
1.04635e-05
1.14465e-05
1.24241e-05
1.33728e-05
1.42924e-05
1.51744e-05
1.60125e-05
1.67996e-05
1.75372e-05
1.82291e-05
1.8871e-05
1.94729e-05
2.00455e-05
2.06099e-05
2.11893e-05
2.18328e-05
2.26256e-05
2.36407e-05
2.50234e-05
2.69377e-05
2.93539e-05
3.21721e-05
3.49685e-05
3.70306e-05
3.74288e-05
3.50534e-05
2.87787e-05
1.87302e-05
1.02929e-05
5.63397e-06
3.05694e-06
1.61301e-06
8.43635e-07
4.34861e-07
2.28302e-07
1.38214e-07
1.24476e-07
1.60107e-07
1.77909e-07
1.54433e-07
1.16613e-07
8.25797e-08
5.66897e-08
3.83462e-08
2.51503e-08
1.63067e-08
1.04251e-08
6.54986e-09
4.03519e-09
2.43557e-09
1.44098e-09
8.36816e-10
4.778e-10
2.6867e-10
1.49e-10
8.16017e-11
4.41819e-11
2.36729e-11
1.25636e-11
6.61002e-12
3.45009e-12
1.78744e-12
9.19349e-13
4.692e-13
2.37159e-13
1.18151e-13
5.7367e-14
2.64222e-14
1.06963e-14
2.46325e-15
1.80661e-10
7.00133e-10
1.49302e-09
2.74565e-09
4.72237e-09
7.82953e-09
1.26895e-08
2.02462e-08
3.18709e-08
4.90452e-08
7.41576e-08
1.10633e-07
1.6307e-07
2.37414e-07
3.41087e-07
4.82943e-07
6.72959e-07
9.21588e-07
1.23888e-06
1.63327e-06
2.11059e-06
2.67333e-06
3.32035e-06
4.04714e-06
4.84632e-06
5.68479e-06
6.57478e-06
7.52097e-06
8.48204e-06
9.46979e-06
1.04707e-05
1.14553e-05
1.24348e-05
1.33854e-05
1.43071e-05
1.51913e-05
1.60317e-05
1.6821e-05
1.75607e-05
1.82548e-05
1.88992e-05
1.95035e-05
2.00788e-05
2.06455e-05
2.12279e-05
2.1875e-05
2.26719e-05
2.36927e-05
2.50826e-05
2.70045e-05
2.94289e-05
3.22514e-05
3.50429e-05
3.7085e-05
3.74429e-05
3.50018e-05
2.86388e-05
1.85262e-05
1.01841e-05
5.57342e-06
3.02301e-06
1.5952e-06
8.33976e-07
4.29839e-07
2.25957e-07
1.37595e-07
1.25315e-07
1.61518e-07
1.78442e-07
1.54224e-07
1.16207e-07
8.22007e-08
5.63953e-08
3.81298e-08
2.49942e-08
1.61976e-08
1.03497e-08
6.49879e-09
4.00146e-09
2.41398e-09
1.4276e-09
8.28764e-10
4.73084e-10
2.65971e-10
1.47486e-10
8.07677e-11
4.37298e-11
2.34317e-11
1.24368e-11
6.54399e-12
3.4159e-12
1.76981e-12
9.10316e-13
4.64609e-13
2.34849e-13
1.17005e-13
5.68121e-14
2.61671e-14
1.05931e-14
2.4395e-15
1.80584e-10
6.9984e-10
1.4924e-09
2.74451e-09
4.72043e-09
7.82635e-09
1.26844e-08
2.02382e-08
3.18564e-08
4.90204e-08
7.41187e-08
1.10576e-07
1.62987e-07
2.37298e-07
3.40931e-07
4.82737e-07
6.727e-07
9.21278e-07
1.23853e-06
1.6329e-06
2.11025e-06
2.67308e-06
3.32026e-06
4.0473e-06
4.84684e-06
5.68576e-06
6.57633e-06
7.52316e-06
8.48506e-06
9.47368e-06
1.04756e-05
1.14613e-05
1.2442e-05
1.3394e-05
1.4317e-05
1.52026e-05
1.60444e-05
1.68353e-05
1.75765e-05
1.82723e-05
1.89183e-05
1.95242e-05
2.0101e-05
2.06695e-05
2.12538e-05
2.19029e-05
2.27024e-05
2.37268e-05
2.51215e-05
2.70485e-05
2.94783e-05
3.23035e-05
3.50914e-05
3.71203e-05
3.74516e-05
3.49675e-05
2.85469e-05
1.83935e-05
1.01108e-05
5.53261e-06
3.00018e-06
1.58324e-06
8.27523e-07
4.26488e-07
2.24394e-07
1.37162e-07
1.25804e-07
1.62413e-07
1.78774e-07
1.5408e-07
1.15939e-07
8.19538e-08
5.62037e-08
3.79902e-08
2.4896e-08
1.61287e-08
1.03026e-08
6.46702e-09
3.98046e-09
2.40043e-09
1.41913e-09
8.2364e-10
4.70067e-10
2.64237e-10
1.46511e-10
8.02288e-11
4.34366e-11
2.32741e-11
1.23531e-11
6.49996e-12
3.39303e-12
1.75806e-12
9.04333e-13
4.61583e-13
2.33332e-13
1.16253e-13
5.64489e-14
2.60002e-14
1.05256e-14
2.42395e-15
1.80548e-10
6.99698e-10
1.4921e-09
2.74396e-09
4.7195e-09
7.82482e-09
1.2682e-08
2.02344e-08
3.18494e-08
4.90084e-08
7.41001e-08
1.10548e-07
1.62947e-07
2.37243e-07
3.40856e-07
4.8264e-07
6.72578e-07
9.21131e-07
1.23836e-06
1.63273e-06
2.11009e-06
2.67296e-06
3.32023e-06
4.0474e-06
4.84713e-06
5.68628e-06
6.57713e-06
7.52428e-06
8.48657e-06
9.47562e-06
1.0478e-05
1.14643e-05
1.24457e-05
1.33983e-05
1.4322e-05
1.52082e-05
1.60508e-05
1.68424e-05
1.75844e-05
1.8281e-05
1.89277e-05
1.95344e-05
2.0112e-05
2.06813e-05
2.12665e-05
2.19168e-05
2.27175e-05
2.37438e-05
2.51407e-05
2.70702e-05
2.95027e-05
3.23292e-05
3.51154e-05
3.71376e-05
3.74557e-05
3.49503e-05
2.85013e-05
1.83278e-05
1.00744e-05
5.51237e-06
2.98885e-06
1.57727e-06
8.24308e-07
4.24823e-07
2.23626e-07
1.36967e-07
1.26083e-07
1.62863e-07
1.78936e-07
1.54009e-07
1.15807e-07
8.18334e-08
5.61111e-08
3.79233e-08
2.48494e-08
1.60964e-08
1.02804e-08
6.45215e-09
3.97066e-09
2.3941e-09
1.41516e-09
8.21232e-10
4.68648e-10
2.63421e-10
1.46051e-10
7.99744e-11
4.32979e-11
2.31995e-11
1.23134e-11
6.47907e-12
3.38215e-12
1.75245e-12
9.01457e-13
4.60123e-13
2.32597e-13
1.15888e-13
5.6272e-14
2.59188e-14
1.04926e-14
2.41635e-15
1.80548e-10
6.99699e-10
1.49211e-09
2.74397e-09
4.7195e-09
7.82483e-09
1.2682e-08
2.02344e-08
3.18494e-08
4.90084e-08
7.41001e-08
1.10548e-07
1.62947e-07
2.37243e-07
3.40855e-07
4.82639e-07
6.72578e-07
9.2113e-07
1.23836e-06
1.63273e-06
2.11009e-06
2.67296e-06
3.32023e-06
4.0474e-06
4.84712e-06
5.68627e-06
6.57712e-06
7.52427e-06
8.48656e-06
9.47562e-06
1.0478e-05
1.14643e-05
1.24457e-05
1.33983e-05
1.4322e-05
1.52082e-05
1.60508e-05
1.68424e-05
1.75844e-05
1.8281e-05
1.89277e-05
1.95344e-05
2.0112e-05
2.06813e-05
2.12665e-05
2.19169e-05
2.27175e-05
2.37438e-05
2.51407e-05
2.70701e-05
2.95026e-05
3.23291e-05
3.51153e-05
3.71374e-05
3.74555e-05
3.49501e-05
2.85011e-05
1.83277e-05
1.00744e-05
5.51234e-06
2.98885e-06
1.57726e-06
8.24302e-07
4.24824e-07
2.23635e-07
1.36993e-07
1.26149e-07
1.62883e-07
1.7894e-07
1.54009e-07
1.15807e-07
8.18331e-08
5.6111e-08
3.79232e-08
2.48494e-08
1.60964e-08
1.02804e-08
6.45216e-09
3.97067e-09
2.39411e-09
1.41517e-09
8.21236e-10
4.6865e-10
2.63423e-10
1.46052e-10
7.99749e-11
4.32982e-11
2.31997e-11
1.23135e-11
6.47912e-12
3.38217e-12
1.75246e-12
9.01463e-13
4.60126e-13
2.32598e-13
1.15889e-13
5.62723e-14
2.59189e-14
1.04927e-14
2.41636e-15
1.80585e-10
6.99842e-10
1.49241e-09
2.74452e-09
4.72045e-09
7.82639e-09
1.26845e-08
2.02383e-08
3.18565e-08
4.90204e-08
7.41188e-08
1.10576e-07
1.62987e-07
2.37298e-07
3.4093e-07
4.82736e-07
6.72699e-07
9.21275e-07
1.23852e-06
1.6329e-06
2.11025e-06
2.67307e-06
3.32025e-06
4.04729e-06
4.84683e-06
5.68574e-06
6.5763e-06
7.52313e-06
8.48502e-06
9.47366e-06
1.04756e-05
1.14613e-05
1.2442e-05
1.3394e-05
1.43171e-05
1.52026e-05
1.60445e-05
1.68354e-05
1.75767e-05
1.82725e-05
1.89184e-05
1.95244e-05
2.01012e-05
2.06697e-05
2.12539e-05
2.19031e-05
2.27024e-05
2.37268e-05
2.51214e-05
2.70483e-05
2.94781e-05
3.23033e-05
3.50911e-05
3.71199e-05
3.74511e-05
3.49669e-05
2.85463e-05
1.83931e-05
1.01106e-05
5.5325e-06
3.00013e-06
1.5832e-06
8.27503e-07
4.26478e-07
2.24385e-07
1.37149e-07
1.25775e-07
1.62389e-07
1.78759e-07
1.54074e-07
1.15936e-07
8.19529e-08
5.62035e-08
3.79901e-08
2.4896e-08
1.61287e-08
1.03026e-08
6.46708e-09
3.98051e-09
2.40047e-09
1.41915e-09
8.23653e-10
4.70075e-10
2.64242e-10
1.46514e-10
8.02304e-11
4.34375e-11
2.32747e-11
1.23533e-11
6.5001e-12
3.39311e-12
1.7581e-12
9.04349e-13
4.6159e-13
2.33335e-13
1.16255e-13
5.64496e-14
2.60005e-14
1.05258e-14
2.42398e-15
1.80661e-10
7.00135e-10
1.49303e-09
2.74565e-09
4.72238e-09
7.82956e-09
1.26895e-08
2.02462e-08
3.18709e-08
4.90451e-08
7.41575e-08
1.10633e-07
1.63069e-07
2.37413e-07
3.41086e-07
4.82941e-07
6.72957e-07
9.21584e-07
1.23887e-06
1.63326e-06
2.11058e-06
2.67331e-06
3.32033e-06
4.04711e-06
4.84629e-06
5.68475e-06
6.57473e-06
7.52091e-06
8.48199e-06
9.46971e-06
1.04706e-05
1.14552e-05
1.24347e-05
1.33853e-05
1.4307e-05
1.51912e-05
1.60316e-05
1.68211e-05
1.75608e-05
1.82551e-05
1.88994e-05
1.95038e-05
2.0079e-05
2.06459e-05
2.12282e-05
2.18751e-05
2.26718e-05
2.36924e-05
2.50823e-05
2.70042e-05
2.94286e-05
3.2251e-05
3.50423e-05
3.70843e-05
3.74421e-05
3.50008e-05
2.86377e-05
1.85253e-05
1.01836e-05
5.57316e-06
3.02287e-06
1.59514e-06
8.33947e-07
4.29826e-07
2.2595e-07
1.37587e-07
1.25295e-07
1.61491e-07
1.78424e-07
1.54216e-07
1.16205e-07
8.22005e-08
5.63957e-08
3.81302e-08
2.49946e-08
1.61979e-08
1.035e-08
6.49896e-09
4.00158e-09
2.41405e-09
1.42764e-09
8.28795e-10
4.73101e-10
2.65981e-10
1.47492e-10
8.07708e-11
4.37315e-11
2.34326e-11
1.24374e-11
6.54427e-12
3.41605e-12
1.76989e-12
9.10358e-13
4.64629e-13
2.34858e-13
1.17009e-13
5.6814e-14
2.61679e-14
1.05934e-14
2.43956e-15
1.80781e-10
7.00596e-10
1.49401e-09
2.74744e-09
4.72545e-09
7.8346e-09
1.26976e-08
2.02589e-08
3.18939e-08
4.90841e-08
7.42184e-08
1.10724e-07
1.63199e-07
2.37596e-07
3.41337e-07
4.83277e-07
6.73378e-07
9.22097e-07
1.23944e-06
1.63386e-06
2.11115e-06
2.67378e-06
3.32056e-06
4.04696e-06
4.84559e-06
5.68337e-06
6.57252e-06
7.51776e-06
8.47765e-06
9.46408e-06
1.04634e-05
1.14463e-05
1.24239e-05
1.33726e-05
1.42921e-05
1.5174e-05
1.60122e-05
1.67993e-05
1.7537e-05
1.82289e-05
1.88709e-05
1.94729e-05
2.00456e-05
2.06099e-05
2.11892e-05
2.18326e-05
2.26254e-05
2.36405e-05
2.50232e-05
2.69374e-05
2.93535e-05
3.21716e-05
3.49678e-05
3.70296e-05
3.74276e-05
3.5052e-05
2.87772e-05
1.8729e-05
1.02923e-05
5.63368e-06
3.05681e-06
1.61295e-06
8.43611e-07
4.3485e-07
2.28293e-07
1.38201e-07
1.24453e-07
1.60081e-07
1.77892e-07
1.54428e-07
1.16614e-07
8.25814e-08
5.66916e-08
3.83477e-08
2.51513e-08
1.63074e-08
1.04255e-08
6.55018e-09
4.03539e-09
2.43569e-09
1.44106e-09
8.36862e-10
4.77826e-10
2.68685e-10
1.49008e-10
8.16061e-11
4.41842e-11
2.36741e-11
1.25642e-11
6.6103e-12
3.45022e-12
1.7875e-12
9.19375e-13
4.69212e-13
2.37165e-13
1.18153e-13
5.73678e-14
2.64224e-14
1.06964e-14
2.46327e-15
1.80948e-10
7.01237e-10
1.49537e-09
2.74994e-09
4.72972e-09
7.84165e-09
1.2709e-08
2.02767e-08
3.19258e-08
4.9138e-08
7.43024e-08
1.10848e-07
1.63378e-07
2.37846e-07
3.41677e-07
4.83725e-07
6.73952e-07
9.22797e-07
1.24026e-06
1.63475e-06
2.11204e-06
2.67451e-06
3.321e-06
4.04692e-06
4.84485e-06
5.68175e-06
6.56976e-06
7.51379e-06
8.47207e-06
9.45673e-06
1.04539e-05
1.14346e-05
1.24098e-05
1.33558e-05
1.42725e-05
1.51515e-05
1.59866e-05
1.67709e-05
1.75052e-05
1.81939e-05
1.88327e-05
1.94313e-05
2.00005e-05
2.05611e-05
2.11362e-05
2.17748e-05
2.25622e-05
2.35698e-05
2.4943e-05
2.68469e-05
2.92521e-05
3.20644e-05
3.48671e-05
3.69558e-05
3.74071e-05
3.5118e-05
2.89606e-05
1.90011e-05
1.04354e-05
5.71332e-06
3.10159e-06
1.63654e-06
8.56452e-07
4.41588e-07
2.3144e-07