/*--------------------------------*- C++ -*----------------------------------*\
  =========                 |
  \\      /  F ield         | OpenFOAM: The Open Source CFD Toolbox
   \\    /   O peration     | Website:  https://openfoam.org
    \\  /    A nd           | Version:  10
     \\/     M anipulation  |
\*---------------------------------------------------------------------------*/
FoamFile
{
    format      ascii;
    class       volScalarField;
    location    "1";
    object      CH3;
}
// * * * * * * * * * * * * * * * * * * * * * * * * * * * * * * * * * * * * * //

dimensions      [0 0 0 0 0 0 0];

internalField   nonuniform List<scalar> 
4000
(
2.26611e-12
8.78021e-12
1.87194e-11
3.4419e-11
5.92004e-11
9.81912e-11
1.59293e-10
2.5459e-10
4.02407e-10
6.22717e-10
9.47224e-10
1.42287e-09
2.11493e-09
3.11162e-09
4.53015e-09
6.52365e-09
9.28675e-09
1.3063e-08
1.81543e-08
2.49326e-08
3.38545e-08
4.54784e-08
6.04897e-08
7.98394e-08
1.04539e-07
1.35367e-07
1.74792e-07
2.26206e-07
2.91733e-07
3.77741e-07
4.89442e-07
6.3705e-07
8.32636e-07
1.09283e-06
1.44223e-06
1.91626e-06
2.5668e-06
3.47199e-06
4.74824e-06
6.5765e-06
9.26529e-06
1.32188e-05
1.91263e-05
2.79853e-05
4.10966e-05
6.03734e-05
8.70622e-05
0.000123441
0.000168782
0.000224334
0.000284536
0.000345734
0.000401512
0.000443637
0.000462916
0.00045019
0.000398225
0.000306404
0.000192583
0.000105888
5.83174e-05
3.1857e-05
1.71709e-05
9.08666e-06
4.66118e-06
2.33158e-06
1.12828e-06
5.30866e-07
2.4473e-07
1.21768e-07
6.21694e-08
3.11794e-08
1.51647e-08
7.12596e-09
3.23926e-09
1.41506e-09
5.73763e-10
2.26136e-10
8.9477e-11
3.68702e-11
1.62154e-11
7.63569e-12
3.79772e-12
1.9562e-12
1.02568e-12
5.40967e-13
2.85004e-13
1.49424e-13
7.79605e-14
4.04473e-14
2.08663e-14
1.07055e-14
5.46194e-15
2.76936e-15
1.39268e-15
6.91219e-16
3.34749e-16
1.53917e-16
6.2247e-17
1.43312e-17
2.26677e-12
8.78303e-12
1.87274e-11
3.44409e-11
5.92542e-11
9.83067e-11
1.59512e-10
2.54955e-10
4.02926e-10
6.23496e-10
9.48025e-10
1.42303e-09
2.11301e-09
3.10468e-09
4.51262e-09
6.48553e-09
9.20996e-09
1.29261e-08
1.79324e-08
2.4598e-08
3.33783e-08
4.48377e-08
5.96771e-08
7.86626e-08
1.02978e-07
1.3334e-07
1.72188e-07
2.23033e-07
2.87775e-07
3.73015e-07
4.83861e-07
6.30485e-07
8.24602e-07
1.08352e-06
1.43129e-06
1.90336e-06
2.55159e-06
3.45468e-06
4.72809e-06
6.55354e-06
9.24073e-06
1.3194e-05
1.91067e-05
2.79923e-05
4.11481e-05
6.05096e-05
8.73547e-05
0.000123986
0.00016966
0.000225625
0.000286113
0.000347573
0.000403382
0.000445137
0.000463534
0.000449317
0.000395324
0.000301488
0.000187025
0.000102913
5.66426e-05
3.09092e-05
1.66331e-05
8.78153e-06
4.49475e-06
2.24103e-06
1.07976e-06
5.07053e-07
2.34367e-07
1.17087e-07
5.95947e-08
2.97854e-08
1.44028e-08
6.71968e-09
3.01951e-09
1.29791e-09
5.21265e-10
2.04662e-10
8.12391e-11
3.37972e-11
1.50533e-11
7.17869e-12
3.60997e-12
1.87664e-12
9.91601e-13
5.26534e-13
2.79161e-13
1.47341e-13
7.71939e-14
4.01514e-14
2.07435e-14
1.06493e-14
5.43331e-15
2.75292e-15
1.38355e-15
6.86256e-16
3.32124e-16
1.5264e-16
6.17161e-17
1.42061e-17
2.27165e-12
8.80281e-12
1.87733e-11
3.45336e-11
5.94274e-11
9.86109e-11
1.60013e-10
2.55721e-10
4.0398e-10
6.24908e-10
9.49561e-10
1.42407e-09
2.11244e-09
3.09983e-09
4.49861e-09
6.45333e-09
9.15071e-09
1.28246e-08
1.77655e-08
2.43326e-08
3.29699e-08
4.4226e-08
5.88115e-08
7.75591e-08
1.0156e-07
1.31547e-07
1.69985e-07
2.2019e-07
2.84178e-07
3.68597e-07
4.78056e-07
6.2293e-07
8.14855e-07
1.07195e-06
1.41756e-06
1.88712e-06
2.53254e-06
3.43307e-06
4.70346e-06
6.52645e-06
9.21367e-06
1.31708e-05
1.90976e-05
2.80252e-05
4.12576e-05
6.07537e-05
8.78544e-05
0.00012488
0.000171106
0.000227707
0.000288688
0.000350613
0.000406427
0.000447534
0.000464426
0.000447724
0.000390417
0.000293198
0.000177849
9.79942e-05
5.38813e-05
2.93553e-05
1.57485e-05
8.28248e-06
4.22862e-06
2.09809e-06
1.00608e-06
4.70914e-07
2.19211e-07
1.1012e-07
5.60101e-08
2.77823e-08
1.33629e-08
6.22782e-09
2.72173e-09
1.17007e-09
4.68651e-10
1.84512e-10
7.38968e-11
3.11518e-11
1.40705e-11
6.79152e-12
3.447e-12
1.80401e-12
9.5793e-13
5.10532e-13
2.71389e-13
1.43444e-13
7.52911e-14
3.9235e-14
2.03043e-14
1.04391e-14
5.33375e-15
2.70765e-15
1.36206e-15
6.75811e-16
3.27069e-16
1.50284e-16
6.07467e-17
1.39795e-17
2.27218e-12
8.80485e-12
1.87777e-11
3.45413e-11
5.94377e-11
9.86159e-11
1.59986e-10
2.55589e-10
4.0358e-10
6.24025e-10
9.4751e-10
1.41946e-09
2.10251e-09
3.08132e-09
4.46693e-09
6.40299e-09
9.07195e-09
1.27043e-08
1.75868e-08
2.40757e-08
3.26127e-08
4.37466e-08
5.81455e-08
7.66837e-08
1.00449e-07
1.30107e-07
1.68126e-07
2.17829e-07
2.8103e-07
3.64472e-07
4.72721e-07
6.16108e-07
8.06263e-07
1.06133e-06
1.40537e-06
1.87301e-06
2.51655e-06
3.41579e-06
4.68541e-06
6.50943e-06
9.20204e-06
1.31718e-05
1.9127e-05
2.81214e-05
4.14682e-05
6.11544e-05
8.85905e-05
0.000126116
0.000172969
0.000230302
0.000291924
0.000354247
0.000409993
0.000450266
0.000465225
0.000445421
0.000383993
0.000282774
0.000166867
9.20784e-05
5.06022e-05
2.75909e-05
1.46325e-05
7.67133e-06
3.90809e-06
1.92856e-06
9.1962e-07
4.29456e-07
2.02997e-07
1.02504e-07
5.18424e-08
2.55964e-08
1.22451e-08
5.63476e-09
2.45785e-09
1.05099e-09
4.18331e-10
1.64779e-10
6.64898e-11
2.83701e-11
1.29809e-11
6.33551e-12
3.24257e-12
1.70727e-12
9.10597e-13
4.87008e-13
2.59651e-13
1.37599e-13
7.23931e-14
3.78043e-14
1.95997e-14
1.00921e-14
5.16182e-15
2.62138e-15
1.31937e-15
6.55019e-16
3.17194e-16
1.45827e-16
5.89723e-17
1.35749e-17
2.26921e-12
8.79333e-12
1.8753e-11
3.44946e-11
5.93525e-11
9.84602e-11
1.59696e-10
2.5504e-10
4.02528e-10
6.2199e-10
9.43877e-10
1.41328e-09
2.09256e-09
3.06525e-09
4.44113e-09
6.36217e-09
9.00872e-09
1.26086e-08
1.7446e-08
2.38745e-08
3.23339e-08
4.33718e-08
5.76569e-08
7.60132e-08
9.95115e-08
1.28808e-07
1.66321e-07
2.15585e-07
2.78249e-07
3.6096e-07
4.68317e-07
6.10548e-07
7.99395e-07
1.05287e-06
1.39579e-06
1.86278e-06
2.506e-06
3.40595e-06
4.67789e-06
6.50753e-06
9.21251e-06
1.32056e-05
1.92049e-05
2.82879e-05
4.17799e-05
6.16945e-05
8.95018e-05
0.000127549
0.000175068
0.000233189
0.000295528
0.000358269
0.000413855
0.000453044
0.00046579
0.000442492
0.000376569
0.00027129
0.000155649
8.58809e-05
4.71408e-05
2.56203e-05
1.35316e-05
7.05838e-06
3.58227e-06
1.75846e-06
8.33897e-07
3.87545e-07
1.8684e-07
9.48896e-08
4.78813e-08
2.34899e-08
1.10967e-08
5.06695e-09
2.2489e-09
9.23151e-10
3.67323e-10
1.45674e-10
5.95297e-11
2.57953e-11
1.19778e-11
5.91578e-12
3.05395e-12
1.6176e-12
8.66393e-13
4.648e-13
2.4841e-13
1.31903e-13
6.95127e-14
3.63518e-14
1.88691e-14
9.72511e-15
4.97782e-15
2.52935e-15
1.2736e-15
6.3251e-16
3.06381e-16
1.40888e-16
5.69841e-17
1.31175e-17
2.26294e-12
8.76913e-12
1.87012e-11
3.43982e-11
5.91826e-11
9.81665e-11
1.59189e-10
2.54152e-10
4.0101e-10
6.19488e-10
9.3992e-10
1.40727e-09
2.08334e-09
3.05095e-09
4.419e-09
6.32817e-09
8.95704e-09
1.25306e-08
1.7329e-08
2.37e-08
3.2075e-08
4.29865e-08
5.70957e-08
7.52721e-08
9.85933e-08
1.27688e-07
1.64978e-07
2.13906e-07
2.76109e-07
3.58257e-07
4.65005e-07
6.06469e-07
7.94656e-07
1.04735e-06
1.39013e-06
1.8573e-06
2.50161e-06
3.40427e-06
4.68173e-06
6.52176e-06
9.24588e-06
1.32734e-05
1.93341e-05
2.85306e-05
4.22066e-05
6.23959e-05
9.06673e-05
0.000129201
0.00017753
0.000236558
0.000299624
0.000362685
0.000417894
0.000455787
0.000466078
0.000439094
0.000368651
0.000259727
0.000145529
8.02966e-05
4.40439e-05
2.39091e-05
1.26015e-05
6.55106e-06
3.30715e-06
1.61359e-06
7.60316e-07
3.5351e-07
1.72472e-07
8.76888e-08
4.40506e-08
2.14439e-08
1.00841e-08
4.57829e-09
2.01136e-09
8.21577e-10
3.26866e-10
1.30367e-10
5.38418e-11
2.3631e-11
1.11054e-11
5.53714e-12
2.87766e-12
1.5311e-12
8.22614e-13
4.42336e-13
2.36852e-13
1.25975e-13
6.64892e-14
3.48186e-14
1.80951e-14
9.33453e-15
4.78108e-15
2.43093e-15
1.22479e-15
6.08673e-16
2.95026e-16
1.35736e-16
5.49173e-17
1.26425e-17
2.25356e-12
8.73262e-12
1.86225e-11
3.42513e-11
5.89261e-11
9.77371e-11
1.58495e-10
2.53078e-10
3.99295e-10
6.16663e-10
9.35515e-10
1.40025e-09
2.07235e-09
3.03404e-09
4.39339e-09
6.28994e-09
8.9009e-09
1.24492e-08
1.72127e-08
2.35356e-08
3.18538e-08
4.26923e-08
5.67189e-08
7.47772e-08
9.79477e-08
1.2686e-07
1.63905e-07
2.12574e-07
2.7448e-07
3.56245e-07
4.62556e-07
6.03396e-07
7.92099e-07
1.04447e-06
1.38734e-06
1.85575e-06
2.50249e-06
3.40954e-06
4.69508e-06
6.54918e-06
9.29667e-06
1.33669e-05
1.95029e-05
2.88349e-05
4.27409e-05
6.31205e-05
9.18929e-05
0.000130872
0.000179987
0.000239856
0.000303568
0.000366895
0.000421719
0.000458271
0.000466075
0.000435474
0.000360821
0.000249071
0.000137814
7.59473e-05
4.15846e-05
2.2517e-05
1.18345e-05
6.12577e-06
3.0792e-06
1.49616e-06
7.06188e-07
3.22875e-07
1.59425e-07
8.11838e-08
4.06522e-08
1.96611e-08
9.18947e-09
4.157e-09
1.81732e-09
7.38571e-10
2.93732e-10
1.17723e-10
4.90898e-11
2.17943e-11
1.0352e-11
5.20483e-12
2.72093e-12
1.45346e-12
7.83026e-13
4.21883e-13
2.26255e-13
1.20499e-13
6.36757e-14
3.33838e-14
1.73709e-14
8.97545e-15
4.60509e-15
2.34437e-15
1.18181e-15
5.87415e-16
2.84714e-16
1.3098e-16
5.29894e-17
1.21982e-17
2.24329e-12
8.69271e-12
1.85363e-11
3.40895e-11
5.86395e-11
9.72437e-11
1.57658e-10
2.51663e-10
3.96982e-10
6.12899e-10
9.29061e-10
1.38988e-09
2.05622e-09
3.00956e-09
4.35699e-09
6.23696e-09
8.82557e-09
1.23445e-08
1.70706e-08
2.33481e-08
3.16058e-08
4.23775e-08
5.63372e-08
7.43207e-08
9.73671e-08
1.26106e-07
1.63002e-07
2.11469e-07
2.73153e-07
3.54691e-07
4.61047e-07
6.01762e-07
7.9066e-07
1.04335e-06
1.387e-06
1.85747e-06
2.50788e-06
3.42146e-06
4.71789e-06
6.59234e-06
9.35062e-06
1.34681e-05
1.96776e-05
2.91463e-05
4.32551e-05
6.39449e-05
9.3172e-05
0.000132542
0.000182377
0.000243013
0.000307347
0.000370899
0.000425281
0.000460476
0.000465851
0.000431809
0.000353315
0.000239414
0.000131964
7.25863e-05
3.96436e-05
2.13999e-05
1.12175e-05
5.78376e-06
2.89222e-06
1.39829e-06
6.57176e-07
3.00661e-07
1.49532e-07
7.60556e-08
3.78246e-08
1.81918e-08
8.45405e-09
3.80336e-09
1.64814e-09
6.67105e-10
2.65519e-10
1.07021e-10
4.50619e-11
2.0228e-11
9.70431e-12
4.91682e-12
2.58416e-12
1.38533e-12
7.48098e-13
4.03738e-13
2.16797e-13
1.1558e-13
6.11289e-14
3.20719e-14
1.66975e-14
8.62978e-15
4.42854e-15
2.25566e-15
1.13843e-15
5.66332e-16
2.74604e-16
1.26347e-16
5.112e-17
1.17685e-17
2.23412e-12
8.65726e-12
1.84605e-11
3.39488e-11
5.8394e-11
9.68285e-11
1.56967e-10
2.5053e-10
3.95146e-10
6.09668e-10
9.24e-10
1.38213e-09
2.04464e-09
2.99253e-09
4.3323e-09
6.20168e-09
8.77608e-09
1.22763e-08
1.69787e-08
2.32306e-08
3.14486e-08
4.21813e-08
5.60734e-08
7.39616e-08
9.69393e-08
1.25604e-07
1.62381e-07
2.10669e-07
2.72177e-07
3.53405e-07
4.60628e-07
6.01187e-07
7.90309e-07
1.04353e-06
1.38829e-06
1.86112e-06
2.51593e-06
3.43398e-06
4.7408e-06
6.63456e-06
9.42046e-06
1.35862e-05
1.98792e-05
2.94824e-05
4.38064e-05
6.4819e-05
9.45313e-05
0.000134464
0.000184999
0.000246305
0.000311077
0.000374714
0.000428569
0.000462413
0.000465464
0.000428198
0.000346185
0.000230529
0.000126935
6.97248e-05
3.80083e-05
2.04606e-05
1.07196e-05
5.50537e-06
2.74078e-06
1.31842e-06
6.17748e-07
2.83525e-07
1.41594e-07
7.18083e-08
3.55624e-08
1.70457e-08
7.9337e-09
3.44875e-09
1.49524e-09
6.06749e-10
2.42812e-10
9.86688e-11
4.19628e-11
1.90241e-11
9.20247e-12
4.69069e-12
2.47506e-12
1.33006e-12
7.19296e-13
3.8854e-13
2.0876e-13
1.11346e-13
5.89129e-14
3.09197e-14
1.61018e-14
8.32285e-15
4.27135e-15
2.1758e-15
1.09797e-15
5.46262e-16
2.6496e-16
1.21953e-16
4.93518e-17
1.13629e-17
2.22666e-12
8.62865e-12
1.84002e-11
3.38386e-11
5.82049e-11
9.65133e-11
1.56448e-10
2.49675e-10
3.93719e-10
6.0724e-10
9.20065e-10
1.37597e-09
2.0352e-09
2.97846e-09
4.31184e-09
6.17256e-09
8.7353e-09
1.222e-08
1.6902e-08
2.31246e-08
3.1318e-08
4.20015e-08
5.58512e-08
7.37117e-08
9.6637e-08
1.25244e-07
1.61966e-07
2.10178e-07
2.71658e-07
3.52872e-07
4.60261e-07
6.01015e-07
7.9057e-07
1.04452e-06
1.39056e-06
1.86583e-06
2.52477e-06
3.44903e-06
4.76622e-06
6.67872e-06
9.49313e-06
1.37067e-05
2.00756e-05
2.98034e-05
4.43246e-05
6.56464e-05
9.57731e-05
0.000136242
0.00018739
0.000249256
0.000314482
0.000378196
0.000431548
0.000464091
0.000464976
0.000424755
0.000339565
0.00022243
0.000122373
6.71425e-05
3.65265e-05
1.95963e-05
1.02777e-05
5.25991e-06
2.60828e-06
1.24956e-06
5.83935e-07
2.69609e-07
1.35137e-07
6.8386e-08
3.37316e-08
1.60919e-08
7.44876e-09
3.21962e-09
1.39127e-09
5.63886e-10
2.26065e-10
9.22955e-11
3.95179e-11
1.80432e-11
8.78087e-12
4.49545e-12
2.37869e-12
1.28037e-12
6.93067e-13
3.74576e-13
2.01336e-13
1.07422e-13
5.68539e-14
2.98479e-14
1.5547e-14
8.03677e-15
4.12533e-15
2.10192e-15
1.06119e-15
5.2823e-16
2.56314e-16
1.18002e-16
4.77599e-17
1.09975e-17
2.21931e-12
8.60021e-12
1.83393e-11
3.37261e-11
5.80107e-11
9.61915e-11
1.55932e-10
2.48873e-10
3.92527e-10
6.05329e-10
9.17093e-10
1.3714e-09
2.02805e-09
2.96748e-09
4.2954e-09
6.1488e-09
8.70217e-09
1.2175e-08
1.68436e-08
2.30456e-08
3.12091e-08
4.18677e-08
5.569e-08
7.3513e-08
9.64146e-08
1.24996e-07
1.61698e-07
2.09882e-07
2.71383e-07
3.52635e-07
4.6019e-07
6.01214e-07
7.9128e-07
1.04605e-06
1.39346e-06
1.87112e-06
2.53428e-06
3.46486e-06
4.79209e-06
6.72164e-06
9.56262e-06
1.38197e-05
2.02607e-05
3.01056e-05
4.48128e-05
6.64102e-05
9.69247e-05
0.000137887
0.000189595
0.000251969
0.000317564
0.000381294
0.000434134
0.000465499
0.00046444
0.000421612
0.000333749
0.000215758
0.000117891
6.46568e-05
3.51466e-05
1.88248e-05
9.8803e-06
5.02549e-06
2.48525e-06
1.18701e-06
5.53461e-07
2.57712e-07
1.29544e-07
6.54261e-08
3.21693e-08
1.53158e-08
7.05686e-09
3.05365e-09
1.31551e-09
5.32115e-10
2.1338e-10
8.7336e-11
3.75599e-11
1.72364e-11
8.42633e-12
4.3283e-12
2.29507e-12
1.23683e-12
6.69918e-13
3.62193e-13
1.94725e-13
1.03915e-13
5.50108e-14
2.88904e-14
1.50583e-14
7.79279e-15
4.00467e-15
2.04215e-15
1.0311e-15
5.13135e-16
2.48937e-16
1.14592e-16
4.63758e-17
1.06787e-17
2.21296e-12
8.57569e-12
1.82871e-11
3.36299e-11
5.78444e-11
9.59139e-11
1.55478e-10
2.48141e-10
3.91272e-10
6.03255e-10
9.13917e-10
1.36682e-09
2.02187e-09
2.95886e-09
4.28302e-09
6.13036e-09
8.67561e-09
1.21385e-08
1.67931e-08
2.29828e-08
3.11296e-08
4.17707e-08
5.55762e-08
7.33811e-08
9.62653e-08
1.24835e-07
1.61538e-07
2.09722e-07
2.71274e-07
3.52602e-07
4.60358e-07
6.01703e-07
7.92338e-07
1.04798e-06
1.39682e-06
1.87696e-06
2.5443e-06
3.48119e-06
4.81857e-06
6.76561e-06
9.63272e-06
1.39318e-05
2.04411e-05
3.03946e-05
4.52765e-05
6.7135e-05
9.80122e-05
0.000139433
0.000191649
0.000254445
0.000320373
0.00038412
0.000436472
0.0004667
0.000463803
0.000418518
0.000328037
0.000208941
0.000114285
6.26201e-05
3.39957e-05
1.81775e-05
9.51848e-06
4.83807e-06
2.38497e-06
1.13507e-06
5.28145e-07
2.47918e-07
1.24882e-07
6.29407e-08
3.08472e-08
1.46256e-08
6.70376e-09
2.914e-09
1.25332e-09
5.06172e-10
2.02948e-10
8.32561e-11
3.59507e-11
1.65725e-11
8.13313e-12
4.18917e-12
2.225e-12
1.20013e-12
6.50309e-13
3.51655e-13
1.89072e-13
1.00899e-13
5.34054e-14
2.80407e-14
1.46137e-14
7.56467e-15
3.88764e-15
1.9827e-15
1.00161e-15
4.98738e-16
2.42056e-16
1.11455e-16
4.51134e-17
1.03888e-17
2.20767e-12
8.55528e-12
1.82437e-11
3.35501e-11
5.77069e-11
9.56854e-11
1.55107e-10
2.4755e-10
3.9024e-10
6.01524e-10
9.11184e-10
1.36266e-09
2.01564e-09
2.95002e-09
4.27107e-09
6.11512e-09
8.65513e-09
1.21103e-08
1.67552e-08
2.29313e-08
3.10674e-08
4.16975e-08
5.54865e-08
7.3283e-08
9.61618e-08
1.24734e-07
1.61453e-07
2.09659e-07
2.7128e-07
3.52708e-07
4.60684e-07
6.02369e-07
7.93576e-07
1.05013e-06
1.40048e-06
1.88295e-06
2.55407e-06
3.49672e-06
4.84334e-06
6.80514e-06
9.69647e-06
1.40361e-05
2.06127e-05
3.06733e-05
4.57229e-05
6.78289e-05
9.90443e-05
0.000140874
0.000193536
0.000256704
0.000322868
0.000386557
0.000438437
0.000467648
0.000463109
0.000415616
0.000322864
0.00020295
0.00011116
6.08763e-05
3.30168e-05
1.76286e-05
9.21119e-06
4.67903e-06
2.30036e-06
1.09182e-06
5.07192e-07
2.39872e-07
1.20967e-07
6.08515e-08
2.97194e-08
1.40414e-08
6.4106e-09
2.79954e-09
1.20101e-09
4.84337e-10
1.94237e-10
7.98487e-11
3.45985e-11
1.60094e-11
7.88207e-12
4.06904e-12
2.16412e-12
1.16811e-12
6.33168e-13
3.42442e-13
1.84148e-13
9.83044e-14
5.20743e-14
2.7369e-14
1.427e-14
7.38673e-15
3.79633e-15
1.93607e-15
9.77829e-16
4.86831e-16
2.36258e-16
1.0878e-16
4.40286e-17
1.01389e-17
2.20336e-12
8.53868e-12
1.82084e-11
3.34854e-11
5.75959e-11
9.55019e-11
1.54811e-10
2.47082e-10
3.89409e-10
6.00121e-10
9.08974e-10
1.35933e-09
2.01073e-09
2.94295e-09
4.26103e-09
6.10104e-09
8.63676e-09
1.20871e-08
1.67256e-08
2.28941e-08
3.10212e-08
4.16417e-08
5.54257e-08
7.32177e-08
9.60989e-08
1.2468e-07
1.61423e-07
2.0966e-07
2.7136e-07
3.52902e-07
4.61101e-07
6.03132e-07
7.94911e-07
1.05232e-06
1.40396e-06
1.88851e-06
2.56307e-06
3.51091e-06
4.86557e-06
6.84127e-06
9.75368e-06
1.41272e-05
2.07576e-05
3.09035e-05
4.60971e-05
6.84303e-05
9.99892e-05
0.000142202
0.000195268
0.000258715
0.000325066
0.000388695
0.000440129
0.000468419
0.000462432
0.000413032
0.00031834
0.000197783
0.000108455
5.93763e-05
3.21821e-05
1.71531e-05
8.94521e-06
4.53625e-06
2.2249e-06
1.0534e-06
4.88559e-07
2.32713e-07
1.17535e-07
5.90285e-08
2.87729e-08
1.35537e-08
6.16524e-09
2.70444e-09
1.15777e-09
4.65944e-10
1.86813e-10
7.69181e-11
3.34256e-11
1.55171e-11
7.66108e-12
3.9628e-12
2.11016e-12
1.13973e-12
6.17981e-13
3.34278e-13
1.79771e-13
9.5969e-14
5.08316e-14
2.67172e-14
1.3942e-14
7.22091e-15
3.71214e-15
1.89298e-15
9.56167e-16
4.76097e-16
2.31069e-16
1.06396e-16
4.30652e-17
9.91717e-18
2.19989e-12
8.52533e-12
1.81801e-11
3.34335e-11
5.75069e-11
9.5355e-11
1.54575e-10
2.4671e-10
3.88745e-10
5.98999e-10
9.07212e-10
1.35668e-09
2.00687e-09
2.93742e-09
4.25326e-09
6.09037e-09
8.62251e-09
1.20676e-08
1.67013e-08
2.28658e-08
3.09879e-08
4.16033e-08
5.53832e-08
7.3175e-08
9.60625e-08
1.24658e-07
1.61428e-07
2.09703e-07
2.7148e-07
3.53134e-07
4.61538e-07
6.03875e-07
7.96147e-07
1.05433e-06
1.40714e-06
1.89354e-06
2.57106e-06
3.52334e-06
4.88503e-06
6.87165e-06
9.8006e-06
1.41996e-05
2.08703e-05
3.10721e-05
4.63431e-05
6.8767e-05
0.000101081
0.000143514
0.000196861
0.000260509
0.000327007
0.000390548
0.000441572
0.000469053
0.00046182
0.000410812
0.000314529
0.000193571
0.000106237
5.81752e-05
3.15873e-05
1.66525e-05
8.68082e-06
4.39831e-06
2.15463e-06
1.0187e-06
4.72248e-07
2.26508e-07
1.14534e-07
5.74683e-08
2.7961e-08
1.31457e-08
5.96393e-09
2.62721e-09
1.11966e-09
4.49101e-10
1.79932e-10
7.42022e-11
3.23432e-11
1.50654e-11
7.45965e-12
3.86673e-12
2.06179e-12
1.11451e-12
6.04596e-13
3.27133e-13
1.75962e-13
9.39474e-14
4.97633e-14
2.61533e-14
1.3642e-14
7.06465e-15
3.63243e-15
1.8533e-15
9.36514e-16
4.6646e-16
2.26446e-16
1.04285e-16
4.22149e-17
9.72178e-18
2.19715e-12
8.51476e-12
1.81576e-11
3.33923e-11
5.74361e-11
9.52379e-11
1.54386e-10
2.46409e-10
3.88217e-10
5.98113e-10
9.05828e-10
1.35462e-09
2.00386e-09
2.93313e-09
4.24728e-09
6.0822e-09
8.61131e-09
1.20534e-08
1.66831e-08
2.28434e-08
3.09624e-08
4.15751e-08
5.53541e-08
7.31485e-08
9.60446e-08
1.24656e-07
1.61455e-07
2.09771e-07
2.71626e-07
3.53393e-07
4.61991e-07
6.04625e-07
7.97354e-07
1.05622e-06
1.4101e-06
1.89819e-06
2.57846e-06
3.53477e-06
4.90263e-06
6.89936e-06
9.84434e-06
1.42697e-05
2.09828e-05
3.12512e-05
4.66332e-05
6.92312e-05
0.000101784
0.000144488
0.00019811
0.000261941
0.000328564
0.000392038
0.000442725
0.00046954
0.000461281
0.000408946
0.000311355
0.000190067
0.000104386
5.71446e-05
3.10087e-05
1.6336e-05
8.50343e-06
4.30178e-06
2.10369e-06
9.92961e-07
4.60033e-07
2.21838e-07
1.12261e-07
5.62824e-08
2.73529e-08
1.28481e-08
5.8298e-09
2.58365e-09
1.06655e-09
4.29218e-10
1.72686e-10
7.15624e-11
3.13455e-11
1.46635e-11
7.28475e-12
3.78468e-12
2.02095e-12
1.09336e-12
5.93418e-13
3.21182e-13
1.72797e-13
9.22726e-14
4.88828e-14
2.56934e-14
1.34032e-14
6.94161e-15
3.56952e-15
1.82145e-15
9.20553e-16
4.58573e-16
2.22643e-16
1.02542e-16
4.15108e-17
9.55945e-18
2.19507e-12
8.50674e-12
1.81406e-11
3.33611e-11
5.73827e-11
9.51497e-11
1.54244e-10
2.46187e-10
3.87819e-10
5.9744e-10
9.04777e-10
1.35305e-09
2.00159e-09
2.92991e-09
4.24282e-09
6.07616e-09
8.60324e-09
1.2043e-08
1.667e-08
2.28275e-08
3.09439e-08
4.15556e-08
5.53353e-08
7.31336e-08
9.60387e-08
1.24666e-07
1.61492e-07
2.09844e-07
2.71766e-07
3.5363e-07
4.62394e-07
6.05278e-07
7.98393e-07
1.05784e-06
1.41264e-06
1.90215e-06
2.5846e-06
3.5442e-06
4.91738e-06
6.92265e-06
9.88112e-06
1.43285e-05
2.10774e-05
3.14019e-05
4.68739e-05
6.96038e-05
0.000102312
0.000145227
0.00019907
0.000263048
0.000329776
0.000393206
0.000443634
0.000469918
0.000460838
0.000407435
0.000308784
0.000187237
0.000102892
5.63123e-05
3.05403e-05
1.60882e-05
8.36756e-06
4.22852e-06
2.06544e-06
9.73801e-07
4.51094e-07
2.18222e-07
1.10493e-07
5.53598e-08
2.68766e-08
1.26089e-08
5.71437e-09
2.52873e-09
1.04083e-09
4.18185e-10
1.68246e-10
6.9817e-11
3.06503e-11
1.4373e-11
7.15501e-12
3.7227e-12
1.9897e-12
1.07706e-12
5.84764e-13
3.16563e-13
1.70336e-13
9.09677e-14
4.81955e-14
2.53344e-14
1.32173e-14
6.84617e-15
3.52088e-15
1.79684e-15
9.08205e-16
4.5246e-16
2.19688e-16
1.01185e-16
4.09623e-17
9.43323e-18
2.19358e-12
8.501e-12
1.81284e-11
3.33388e-11
5.73446e-11
9.50869e-11
1.54143e-10
2.46029e-10
3.87533e-10
5.96955e-10
9.04016e-10
1.35191e-09
1.99994e-09
2.92756e-09
4.23954e-09
6.07164e-09
8.59735e-09
1.20354e-08
1.66609e-08
2.28167e-08
3.09318e-08
4.15428e-08
5.53236e-08
7.31259e-08
9.60391e-08
1.24679e-07
1.61528e-07
2.09911e-07
2.71887e-07
3.53828e-07
4.62724e-07
6.05805e-07
7.99225e-07
1.05914e-06
1.41465e-06
1.90525e-06
2.58943e-06
3.55167e-06
4.92888e-06
6.94073e-06
9.90971e-06
1.43741e-05
2.11504e-05
3.15158e-05
4.70538e-05
6.98801e-05
0.000102699
0.00014577
0.000199775
0.000263862
0.000330669
0.000394067
0.000444303
0.000470195
0.000460502
0.0004063
0.000306859
0.000185153
0.000101776
5.56908e-05
3.01914e-05
1.59044e-05
8.26707e-06
4.17482e-06
2.03746e-06
9.59858e-07
4.4472e-07
2.15497e-07
1.0917e-07
5.46726e-08
2.65217e-08
1.24297e-08
5.62761e-09
2.48761e-09
1.02262e-09
4.10663e-10
1.65268e-10
6.86539e-11
3.01857e-11
1.41772e-11
7.06655e-12
3.67991e-12
1.96788e-12
1.06555e-12
5.78602e-13
3.13252e-13
1.68565e-13
9.00289e-14
4.77036e-14
2.50786e-14
1.3085e-14
6.77794e-15
3.48591e-15
1.77906e-15
8.99254e-16
4.48017e-16
2.17537e-16
1.00196e-16
4.0562e-17
9.34107e-18
2.19263e-12
8.49737e-12
1.81207e-11
3.33247e-11
5.73205e-11
9.50474e-11
1.5408e-10
2.45929e-10
3.87352e-10
5.96646e-10
9.03532e-10
1.35119e-09
1.99889e-09
2.92609e-09
4.2375e-09
6.0689e-09
8.59376e-09
1.20309e-08
1.66553e-08
2.28103e-08
3.09247e-08
4.15356e-08
5.53175e-08
7.31228e-08
9.6042e-08
1.24692e-07
1.61557e-07
2.09962e-07
2.71978e-07
3.53975e-07
4.62962e-07
6.06177e-07
7.99807e-07
1.06004e-06
1.41604e-06
1.90739e-06
2.59276e-06
3.55679e-06
4.93684e-06
6.9533e-06
9.92948e-06
1.44054e-05
2.12e-05
3.15932e-05
4.71753e-05
7.00644e-05
0.000102954
0.000146126
0.000200239
0.000264397
0.000331256
0.000394632
0.000444742
0.000470375
0.000460281
0.000405557
0.000305609
0.000183811
0.000101034
5.5277e-05
2.99596e-05
1.57824e-05
8.20072e-06
4.13944e-06
2.01914e-06
9.50767e-07
4.4054e-07
2.137e-07
1.08295e-07
5.4219e-08
2.62889e-08
1.23133e-08
5.57143e-09
2.46118e-09
1.01116e-09
4.05919e-10
1.63403e-10
6.79298e-11
2.98969e-11
1.40551e-11
7.01106e-12
3.65291e-12
1.95404e-12
1.05822e-12
5.74661e-13
3.11127e-13
1.67423e-13
8.94194e-14
4.73804e-14
2.49089e-14
1.29969e-14
6.73267e-15
3.46284e-15
1.76738e-15
8.93398e-16
4.45116e-16
2.16134e-16
9.95506e-17
4.0301e-17
9.28097e-18
2.19217e-12
8.49561e-12
1.8117e-11
3.3318e-11
5.7309e-11
9.50284e-11
1.5405e-10
2.45882e-10
3.87266e-10
5.96499e-10
9.033e-10
1.35085e-09
1.9984e-09
2.92539e-09
4.23653e-09
6.0676e-09
8.59207e-09
1.20288e-08
1.66527e-08
2.28072e-08
3.09213e-08
4.15323e-08
5.5315e-08
7.31219e-08
9.60443e-08
1.247e-07
1.61572e-07
2.09989e-07
2.72025e-07
3.5405e-07
4.63084e-07
6.06369e-07
8.00107e-07
1.0605e-06
1.41675e-06
1.90848e-06
2.59445e-06
3.55939e-06
4.94086e-06
6.95956e-06
9.93929e-06
1.44209e-05
2.12246e-05
3.16317e-05
4.72358e-05
7.01568e-05
0.000103082
0.000146305
0.00020047
0.000264662
0.000331547
0.000394913
0.00044496
0.000470466
0.000460172
0.000405191
0.000304993
0.000183153
0.000100669
5.50733e-05
2.98454e-05
1.5722e-05
8.16789e-06
4.12192e-06
2.01009e-06
9.46296e-07
4.38503e-07
2.12819e-07
1.07865e-07
5.39963e-08
2.6175e-08
1.22565e-08
5.54424e-09
2.44851e-09
1.00572e-09
4.03697e-10
1.62528e-10
6.75914e-11
2.97624e-11
1.39982e-11
6.98515e-12
3.64028e-12
1.94755e-12
1.05478e-12
5.7281e-13
3.10128e-13
1.66885e-13
8.91316e-14
4.72278e-14
2.48287e-14
1.29551e-14
6.71109e-15
3.45179e-15
1.76177e-15
8.90569e-16
4.4371e-16
2.15452e-16
9.92368e-17
4.01738e-17
9.25164e-18
2.19218e-12
8.49563e-12
1.81171e-11
3.3318e-11
5.73091e-11
9.50287e-11
1.5405e-10
2.45883e-10
3.87267e-10
5.965e-10
9.03302e-10
1.35085e-09
1.9984e-09
2.92539e-09
4.23653e-09
6.06761e-09
8.59208e-09
1.20288e-08
1.66527e-08
2.28072e-08
3.09213e-08
4.15324e-08
5.5315e-08
7.3122e-08
9.60444e-08
1.247e-07
1.61573e-07
2.0999e-07
2.72025e-07
3.54051e-07
4.63086e-07
6.06371e-07
8.00111e-07
1.06051e-06
1.41676e-06
1.90849e-06
2.59447e-06
3.55941e-06
4.9409e-06
6.95962e-06
9.93937e-06
1.4421e-05
2.12248e-05
3.1632e-05
4.72362e-05
7.01574e-05
0.000103083
0.000146306
0.000200471
0.000264664
0.000331549
0.000394915
0.000444962
0.000470467
0.000460173
0.000405191
0.000304993
0.000183153
0.000100669
5.50733e-05
2.98454e-05
1.57219e-05
8.16785e-06
4.12191e-06
2.01009e-06
9.46305e-07
4.38526e-07
2.12827e-07
1.07868e-07
5.39973e-08
2.61754e-08
1.22567e-08
5.54434e-09
2.44855e-09
1.00574e-09
4.03705e-10
1.62531e-10
6.75926e-11
2.97628e-11
1.39984e-11
6.98523e-12
3.64032e-12
1.94757e-12
1.05479e-12
5.72815e-13
3.1013e-13
1.66886e-13
8.91324e-14
4.72282e-14
2.48289e-14
1.29552e-14
6.71115e-15
3.45182e-15
1.76178e-15
8.90576e-16
4.43714e-16
2.15454e-16
9.92374e-17
4.01741e-17
9.25171e-18
2.19265e-12
8.49743e-12
1.81209e-11
3.3325e-11
5.7321e-11
9.50482e-11
1.54081e-10
2.45932e-10
3.87355e-10
5.9665e-10
9.03536e-10
1.3512e-09
1.9989e-09
2.9261e-09
4.23751e-09
6.06891e-09
8.59378e-09
1.20309e-08
1.66554e-08
2.28103e-08
3.09248e-08
4.15357e-08
5.53177e-08
7.3123e-08
9.60423e-08
1.24693e-07
1.61557e-07
2.09963e-07
2.71979e-07
3.53977e-07
4.62966e-07
6.06183e-07
7.99817e-07
1.06006e-06
1.41607e-06
1.90743e-06
2.59282e-06
3.55688e-06
4.93698e-06
6.95348e-06
9.92974e-06
1.44057e-05
2.12006e-05
3.15941e-05
4.71767e-05
7.00667e-05
0.000102958
0.00014613
0.000200243
0.000264402
0.000331261
0.000394638
0.000444748
0.00047038
0.000460283
0.000405557
0.000305607
0.00018381
0.000101034
5.52767e-05
2.99595e-05
1.57823e-05
8.20066e-06
4.13941e-06
2.01913e-06
9.50762e-07
4.40529e-07
2.13694e-07
1.08293e-07
5.42187e-08
2.62893e-08
1.23136e-08
5.57168e-09
2.46132e-09
1.01122e-09
4.05943e-10
1.63412e-10
6.79333e-11
2.98983e-11
1.40557e-11
7.01129e-12
3.65302e-12
1.95409e-12
1.05825e-12
5.74676e-13
3.11136e-13
1.67428e-13
8.94219e-14
4.73817e-14
2.49096e-14
1.29972e-14
6.73284e-15
3.46292e-15
1.76742e-15
8.93416e-16
4.45124e-16
2.16138e-16
9.95525e-17
4.03018e-17
9.28114e-18
2.1936e-12
8.50109e-12
1.81286e-11
3.33391e-11
5.73451e-11
9.50879e-11
1.54145e-10
2.46031e-10
3.87536e-10
5.96958e-10
9.0402e-10
1.35192e-09
1.99995e-09
2.92758e-09
4.23956e-09
6.07167e-09
8.59739e-09
1.20355e-08
1.6661e-08
2.28168e-08
3.09319e-08
4.1543e-08
5.53238e-08
7.31262e-08
9.60395e-08
1.2468e-07
1.61529e-07
2.09912e-07
2.71889e-07
3.53831e-07
4.62728e-07
6.0581e-07
7.99232e-07
1.05915e-06
1.41467e-06
1.90529e-06
2.5895e-06
3.55178e-06
4.92908e-06
6.94107e-06
9.91021e-06
1.43748e-05
2.11514e-05
3.15175e-05
4.70562e-05
6.98827e-05
0.000102702
0.000145773
0.00019978
0.000263869
0.000330677
0.000394075
0.000444311
0.000470201
0.000460505
0.000406298
0.000306855
0.000185148
0.000101774
5.56896e-05
3.01908e-05
1.59042e-05
8.26698e-06
4.1748e-06
2.03746e-06
9.59864e-07
4.44721e-07
2.15495e-07
1.09169e-07
5.46736e-08
2.6523e-08
1.24306e-08
5.62815e-09
2.48788e-09
1.02274e-09
4.10714e-10
1.65287e-10
6.86611e-11
3.01884e-11
1.41783e-11
7.06702e-12
3.68013e-12
1.96799e-12
1.06561e-12
5.78631e-13
3.13268e-13
1.68573e-13
9.00333e-14
4.7706e-14
2.50799e-14
1.30857e-14
6.7783e-15
3.4861e-15
1.77915e-15
8.99298e-16
4.48037e-16
2.17546e-16
1.002e-16
4.05635e-17
9.3414e-18
2.19509e-12
8.50684e-12
1.81408e-11
3.33615e-11
5.73834e-11
9.51509e-11
1.54246e-10
2.4619e-10
3.87822e-10
5.97445e-10
9.04783e-10
1.35306e-09
2.0016e-09
2.92993e-09
4.24285e-09
6.0762e-09
8.6033e-09
1.20431e-08
1.66701e-08
2.28276e-08
3.09441e-08
4.15558e-08
5.53356e-08
7.31339e-08
9.60391e-08
1.24666e-07
1.61493e-07
2.09845e-07
2.71768e-07
3.53631e-07
4.62397e-07
6.05281e-07
7.98397e-07
1.05785e-06
1.41264e-06
1.90215e-06
2.58462e-06
3.54425e-06
4.91746e-06
6.9228e-06
9.8814e-06
1.43291e-05
2.10784e-05
3.14028e-05
4.68752e-05
6.96058e-05
0.000102315
0.000145233
0.000199077
0.000263058
0.000329787
0.000393217
0.000443645
0.000469926
0.000460842
0.000407433
0.000308778
0.000187232
0.000102889
5.63111e-05
3.05398e-05
1.60881e-05
8.36759e-06
4.22857e-06
2.06548e-06
9.73828e-07
4.51105e-07
2.18226e-07
1.10496e-07
5.53627e-08
2.68791e-08
1.26105e-08
5.71529e-09
2.52919e-09
1.04102e-09
4.18263e-10
1.68275e-10
6.98277e-11
3.06544e-11
1.43746e-11
7.1557e-12
3.72301e-12
1.98986e-12
1.07714e-12
5.84805e-13
3.16585e-13
1.70347e-13
9.09735e-14
4.81983e-14
2.53358e-14
1.3218e-14
6.84647e-15
3.52102e-15
1.7969e-15
9.08235e-16
4.52473e-16
2.19694e-16
1.01187e-16
4.0963e-17
9.43339e-18
2.19718e-12
8.51486e-12
1.81578e-11
3.33927e-11
5.74368e-11
9.52391e-11
1.54388e-10
2.46413e-10
3.88221e-10
5.98119e-10
9.05837e-10
1.35463e-09
2.00388e-09
2.93316e-09
4.24731e-09
6.08225e-09
8.61137e-09
1.20535e-08
1.66832e-08
2.28435e-08
3.09626e-08
4.15753e-08
5.53544e-08
7.3149e-08
9.60451e-08
1.24656e-07
1.61456e-07
2.09771e-07
2.71627e-07
3.53393e-07
4.61993e-07
6.0463e-07
7.97362e-07
1.05623e-06
1.41012e-06
1.89823e-06
2.57848e-06
3.53479e-06
4.90264e-06
6.89937e-06
9.84435e-06
1.42697e-05
2.09828e-05
3.12514e-05
4.66339e-05
6.92328e-05
0.000101787
0.000144493
0.000198118
0.000261952
0.000328578
0.000392053
0.000442739
0.00046955
0.000461284
0.000408941
0.000311345
0.00019006
0.000104382
5.71431e-05
3.10082e-05
1.63357e-05
8.50339e-06
4.3018e-06
2.10372e-06
9.92976e-07
4.60023e-07
2.21832e-07