/*--------------------------------*- C++ -*----------------------------------*\
  =========                 |
  \\      /  F ield         | OpenFOAM: The Open Source CFD Toolbox
   \\    /   O peration     | Website:  https://openfoam.org
    \\  /    A nd           | Version:  10
     \\/     M anipulation  |
\*---------------------------------------------------------------------------*/
FoamFile
{
    format      ascii;
    class       volScalarField;
    location    "1";
    object      CH3OH;
}
// * * * * * * * * * * * * * * * * * * * * * * * * * * * * * * * * * * * * * //

dimensions      [0 0 0 0 0 0 0];

internalField   nonuniform List<scalar> 
4000
(
3.92069e-11
1.51907e-10
3.23853e-10
5.95408e-10
1.02394e-09
1.69792e-09
2.75344e-09
4.39808e-09
6.94535e-09
1.07334e-08
1.62941e-08
2.44036e-08
3.61143e-08
5.27949e-08
7.61579e-08
1.08246e-07
1.51326e-07
2.07711e-07
2.79504e-07
3.68322e-07
4.75055e-07
5.99702e-07
7.41356e-07
8.99093e-07
1.07006e-06
1.24795e-06
1.43421e-06
1.62923e-06
1.8246e-06
2.0223e-06
2.2167e-06
2.4081e-06
2.59392e-06
2.77202e-06
2.94146e-06
3.10158e-06
3.25202e-06
3.39275e-06
3.52364e-06
3.64512e-06
3.75859e-06
3.86336e-06
3.96185e-06
4.05673e-06
4.15165e-06
4.25412e-06
4.37051e-06
4.51635e-06
4.70043e-06
4.93925e-06
5.21154e-06
5.48403e-06
5.6895e-06
5.74042e-06
5.55333e-06
5.06994e-06
4.26474e-06
3.17017e-06
1.96871e-06
1.08284e-06
5.96681e-07
3.26305e-07
1.76396e-07
9.42001e-08
4.98301e-08
2.76653e-08
1.85616e-08
1.88655e-08
2.93523e-08
4.61937e-08
5.76128e-08
6.09704e-08
5.81679e-08
5.14988e-08
4.29801e-08
3.41177e-08
2.54832e-08
1.81011e-08
1.22359e-08
7.8868e-09
4.86687e-09
2.89227e-09
1.6662e-09
9.3618e-10
5.1559e-10
2.79396e-10
1.49387e-10
7.89659e-11
4.13837e-11
2.15238e-11
1.11197e-11
5.70983e-12
2.91474e-12
1.47839e-12
7.43654e-13
3.69159e-13
1.78801e-13
8.22188e-14
3.32525e-14
7.65593e-15
3.92301e-11
1.52003e-10
3.24094e-10
5.95992e-10
1.02526e-09
1.70061e-09
2.75848e-09
4.40663e-09
6.95834e-09
1.07539e-08
1.63202e-08
2.44277e-08
3.61189e-08
5.2743e-08
7.59801e-08
1.07821e-07
1.50447e-07
2.06156e-07
2.77061e-07
3.64828e-07
4.70438e-07
5.94061e-07
7.35046e-07
8.91149e-07
1.061e-06
1.23799e-06
1.42362e-06
1.61888e-06
1.81447e-06
2.01313e-06
2.20877e-06
2.4016e-06
2.58866e-06
2.76842e-06
2.93942e-06
3.10107e-06
3.25302e-06
3.39532e-06
3.5277e-06
3.65066e-06
3.76567e-06
3.87199e-06
3.97215e-06
4.06901e-06
4.16587e-06
4.26991e-06
4.38761e-06
4.53558e-06
4.72149e-06
4.96263e-06
5.23655e-06
5.50927e-06
5.71221e-06
5.75606e-06
5.55699e-06
5.05697e-06
4.23204e-06
3.12012e-06
1.91508e-06
1.05415e-06
5.80497e-07
3.17137e-07
1.71208e-07
9.13054e-08
4.83621e-08
2.70798e-08
1.86733e-08
1.97813e-08
3.14958e-08
4.87177e-08
5.96437e-08
6.22338e-08
5.87941e-08
5.16329e-08
4.27425e-08
3.36588e-08
2.49627e-08
1.76172e-08
1.18454e-08
7.60713e-09
4.687e-09
2.78709e-09
1.60954e-09
9.0772e-10
5.02137e-10
2.73396e-10
1.46905e-10
7.80753e-11
4.10569e-11
2.13983e-11
1.10674e-11
5.68552e-12
2.90193e-12
1.47076e-12
7.39298e-13
3.66741e-13
1.77503e-13
8.15815e-14
3.29862e-14
7.59293e-15
3.93311e-11
1.5241e-10
3.25032e-10
5.9787e-10
1.02875e-09
1.70677e-09
2.76872e-09
4.42263e-09
6.98136e-09
1.07865e-08
1.63608e-08
2.44694e-08
3.61484e-08
5.27275e-08
7.58605e-08
1.07493e-07
1.4981e-07
2.05056e-07
2.75297e-07
3.62165e-07
4.66626e-07
5.88843e-07
7.28414e-07
8.83743e-07
1.05287e-06
1.22937e-06
1.41501e-06
1.61013e-06
1.80594e-06
2.00543e-06
2.20152e-06
2.39509e-06
2.58314e-06
2.76477e-06
2.93778e-06
3.10153e-06
3.25563e-06
3.4002e-06
3.53479e-06
3.65998e-06
3.77727e-06
3.8858e-06
3.98833e-06
4.0879e-06
4.18662e-06
4.29291e-06
4.41339e-06
4.56428e-06
4.75434e-06
4.99936e-06
5.27572e-06
5.5498e-06
5.74838e-06
5.78038e-06
5.56133e-06
5.03398e-06
4.17715e-06
3.03601e-06
1.82655e-06
1.0067e-06
5.53803e-07
3.02096e-07
1.62664e-07
8.6567e-08
4.60185e-08
2.61754e-08
1.89108e-08
2.13567e-08
3.49363e-08
5.24845e-08
6.2396e-08
6.40441e-08
5.97084e-08
5.19507e-08
4.23693e-08
3.31662e-08
2.44306e-08
1.71433e-08
1.14768e-08
7.35021e-09
4.52347e-09
2.6904e-09
1.55555e-09
8.78854e-10
4.87197e-10
2.65833e-10
1.43107e-10
7.61492e-11
4.01114e-11
2.09418e-11
1.08482e-11
5.58034e-12
2.85196e-12
1.44793e-12
7.28404e-13
3.6142e-13
1.74916e-13
8.03718e-14
3.24872e-14
7.47618e-15
3.93562e-11
1.52508e-10
3.25245e-10
5.98264e-10
1.0294e-09
1.70768e-09
2.76967e-09
4.42281e-09
6.97873e-09
1.07785e-08
1.63381e-08
2.44129e-08
3.60202e-08
5.24823e-08
7.54355e-08
1.06817e-07
1.48776e-07
2.03539e-07
2.73173e-07
3.59331e-07
4.63042e-07
5.84559e-07
7.23202e-07
8.77838e-07
1.04656e-06
1.22259e-06
1.40792e-06
1.60313e-06
1.79886e-06
1.99864e-06
2.19531e-06
2.38979e-06
2.57911e-06
2.76235e-06
2.93757e-06
3.10364e-06
3.26013e-06
3.40723e-06
3.54434e-06
3.67213e-06
3.79215e-06
3.90352e-06
4.00865e-06
4.11053e-06
4.21218e-06
4.32149e-06
4.44539e-06
4.60031e-06
4.79415e-06
5.04331e-06
5.32263e-06
5.59667e-06
5.78953e-06
5.80702e-06
5.56301e-06
5.00201e-06
4.10573e-06
2.93045e-06
1.72025e-06
9.49421e-07
5.22001e-07
2.85002e-07
1.51812e-07
8.07429e-08
4.32118e-08
2.51631e-08
1.93295e-08
2.34771e-08
3.90763e-08
5.6742e-08
6.55972e-08
6.59028e-08
6.05068e-08
5.20233e-08
4.21306e-08
3.26641e-08
2.38333e-08
1.65901e-08
1.10339e-08
7.03225e-09
4.31437e-09
2.56229e-09
1.48133e-09
8.3766e-10
4.65072e-10
2.54245e-10
1.37155e-10
7.31369e-11
3.86045e-11
2.0194e-11
1.04789e-11
5.39809e-12
2.7616e-12
1.4026e-12
7.05971e-13
3.5049e-13
1.69723e-13
7.8027e-14
3.15535e-14
7.26323e-15
3.93176e-11
1.52359e-10
3.24925e-10
5.97658e-10
1.02829e-09
1.70561e-09
2.76576e-09
4.41524e-09
6.96394e-09
1.07495e-08
1.62856e-08
2.43223e-08
3.58735e-08
5.22466e-08
7.50632e-08
1.06243e-07
1.47919e-07
2.02306e-07
2.7147e-07
3.57085e-07
4.60216e-07
5.81179e-07
7.19372e-07
8.73368e-07
1.04133e-06
1.21657e-06
1.40108e-06
1.59644e-06
1.79259e-06
1.99297e-06
2.19049e-06
2.38601e-06
2.57672e-06
2.76159e-06
2.93906e-06
3.10743e-06
3.26632e-06
3.41592e-06
3.55557e-06
3.68592e-06
3.80865e-06
3.92265e-06
4.03055e-06
4.13553e-06
4.24022e-06
4.35258e-06
4.47964e-06
4.63812e-06
4.83591e-06
5.0897e-06
5.37295e-06
5.64721e-06
5.83313e-06
5.83315e-06
5.56106e-06
4.9626e-06
4.02374e-06
2.81428e-06
1.61078e-06
8.88846e-07
4.88121e-07
2.65714e-07
1.41099e-07
7.49263e-08
4.04218e-08
2.43039e-08
2.01067e-08
2.64074e-08
4.39405e-08
6.10798e-08
6.85276e-08
6.75634e-08
6.11952e-08
5.20037e-08
4.19512e-08
3.18849e-08
2.31054e-08
1.59872e-08
1.05817e-08
6.72087e-09
4.11507e-09
2.44212e-09
1.41217e-09
7.99249e-10
4.44306e-10
2.43245e-10
1.31418e-10
7.01808e-11
3.70949e-11
1.94283e-11
1.00923e-11
5.20349e-12
2.66386e-12
1.35366e-12
6.81612e-13
3.38507e-13
1.63965e-13
7.53968e-14
3.04948e-14
7.0197e-15
3.92181e-11
1.51975e-10
3.24102e-10
5.96126e-10
1.02558e-09
1.70093e-09
2.75765e-09
4.401e-09
6.93954e-09
1.07091e-08
1.62218e-08
2.42261e-08
3.57274e-08
5.20235e-08
7.47258e-08
1.05741e-07
1.47188e-07
2.01264e-07
2.70015e-07
3.55097e-07
4.57558e-07
5.77661e-07
7.14859e-07
8.68194e-07
1.0359e-06
1.21109e-06
1.39581e-06
1.59143e-06
1.78787e-06
1.98879e-06
2.18721e-06
2.38378e-06
2.576e-06
2.76248e-06
2.94202e-06
3.11261e-06
3.27382e-06
3.42585e-06
3.56805e-06
3.70107e-06
3.82638e-06
3.94304e-06
4.05375e-06
4.16179e-06
4.26971e-06
4.38551e-06
4.5167e-06
4.67901e-06
4.88223e-06
5.14175e-06
5.42867e-06
5.70167e-06
5.87792e-06
5.85804e-06
5.55541e-06
4.91794e-06
3.93676e-06
2.69727e-06
1.51055e-06
8.33514e-07
4.57431e-07
2.48782e-07
1.31975e-07
7.01154e-08
3.81408e-08
2.37502e-08
2.11481e-08
2.96399e-08
4.90428e-08
6.53698e-08
7.1286e-08
6.90154e-08
6.16368e-08
5.18268e-08
4.14235e-08
3.12123e-08
2.24473e-08
1.54307e-08
1.01586e-08
6.42578e-09
3.92353e-09
2.32483e-09
1.34358e-09
7.60556e-10
4.23079e-10
2.31855e-10
1.25414e-10
6.70604e-11
3.54918e-11
1.8612e-11
9.67913e-12
4.99464e-12
2.55854e-12
1.30092e-12
6.55442e-13
3.2572e-13
1.57873e-13
7.26328e-14
2.93859e-14
6.76486e-15
3.90621e-11
1.51368e-10
3.22793e-10
5.93681e-10
1.02131e-09
1.69378e-09
2.74611e-09
4.38314e-09
6.91106e-09
1.06623e-08
1.61491e-08
2.41112e-08
3.55494e-08
5.17539e-08
7.43261e-08
1.05161e-07
1.4637e-07
2.00137e-07
2.68505e-07
3.53126e-07
4.55157e-07
5.74819e-07
7.11688e-07
8.64653e-07
1.03205e-06
1.20705e-06
1.39163e-06
1.58746e-06
1.78434e-06
1.98586e-06
2.18514e-06
2.38257e-06
2.57707e-06
2.76498e-06
2.9462e-06
3.11884e-06
3.28217e-06
3.43632e-06
3.5809e-06
3.71645e-06
3.84428e-06
3.96351e-06
4.07682e-06
4.1876e-06
4.29888e-06
4.41727e-06
4.55231e-06
4.71818e-06
4.92636e-06
5.1908e-06
5.48073e-06
5.75227e-06
5.91918e-06
5.87923e-06
5.54632e-06
4.87114e-06
3.85112e-06
2.58952e-06
1.43293e-06
7.89823e-07
4.32765e-07
2.34868e-07
1.24401e-07
6.60829e-08
3.62945e-08
2.34117e-08
2.22369e-08
3.31391e-08
5.37113e-08
6.89288e-08
7.34366e-08
7.00275e-08
6.18171e-08
5.1466e-08
4.08336e-08
3.05323e-08
2.18085e-08
1.49034e-08
9.7644e-09
6.15426e-09
3.74884e-09
2.21846e-09
1.28153e-09
7.25533e-10
4.03808e-10
2.21461e-10
1.19896e-10
6.41703e-11
3.3995e-11
1.78449e-11
9.29083e-12
4.80168e-12
2.46382e-12
1.25428e-12
6.32265e-13
3.1425e-13
1.52307e-13
7.00652e-14
2.83451e-14
6.525e-15
3.88876e-11
1.50689e-10
3.21328e-10
5.90929e-10
1.01644e-09
1.6854e-09
2.73189e-09
4.35918e-09
6.87198e-09
1.05989e-08
1.6041e-08
2.39386e-08
3.52836e-08
5.13559e-08
7.37456e-08
1.04338e-07
1.4524e-07
1.98638e-07
2.66593e-07
3.50794e-07
4.52354e-07
5.71644e-07
7.08334e-07
8.61262e-07
1.02849e-06
1.20327e-06
1.38804e-06
1.58413e-06
1.78149e-06
1.9837e-06
2.18431e-06
2.38289e-06
2.57891e-06
2.76833e-06
2.95122e-06
3.12587e-06
3.29135e-06
3.44812e-06
3.59491e-06
3.73265e-06
3.86185e-06
3.98354e-06
4.09935e-06
4.21311e-06
4.32669e-06
4.44779e-06
4.5857e-06
4.75435e-06
4.96673e-06
5.23582e-06
5.52892e-06
5.79899e-06
5.95633e-06
5.89661e-06
5.53463e-06
4.82415e-06
3.7694e-06
2.49236e-06
1.37396e-06
7.55963e-07
4.13235e-07
2.23673e-07
1.18314e-07
6.28844e-08
3.48853e-08
2.33438e-08
2.35912e-08
3.66864e-08
5.79888e-08
7.20209e-08
7.53015e-08
7.08288e-08
6.18859e-08
5.10619e-08
4.01919e-08
2.98453e-08
2.11907e-08
1.44082e-08
9.40204e-09
5.90873e-09
3.59269e-09
2.124e-09
1.22656e-09
6.94476e-10
3.86662e-10
2.12166e-10
1.14933e-10
6.15534e-11
3.26293e-11
1.71381e-11
8.92691e-12
4.61454e-12
2.36813e-12
1.20616e-12
6.08724e-13
3.02804e-13
1.46817e-13
6.75492e-14
2.73297e-14
6.2916e-15
3.87296e-11
1.50078e-10
3.2002e-10
5.88501e-10
1.0122e-09
1.67824e-09
2.71999e-09
4.33967e-09
6.84045e-09
1.05436e-08
1.59545e-08
2.38071e-08
3.50885e-08
5.10727e-08
7.33422e-08
1.03776e-07
1.44479e-07
1.97637e-07
2.65324e-07
3.49297e-07
4.50539e-07
5.69642e-07
7.06002e-07
8.58538e-07
1.02577e-06
1.20069e-06
1.38558e-06
1.58178e-06
1.7795e-06
1.98197e-06
2.18528e-06
2.38448e-06
2.5816e-06
2.7723e-06
2.95665e-06
3.13303e-06
3.3006e-06
3.45863e-06
3.60738e-06
3.74749e-06
3.87888e-06
4.00291e-06
4.12154e-06
4.23768e-06
4.35387e-06
4.47753e-06
4.61912e-06
4.7913e-06
5.00772e-06
5.2805e-06
5.57478e-06
5.84203e-06
5.98913e-06
5.91026e-06
5.52097e-06
4.77797e-06
3.69204e-06
2.40338e-06
1.32353e-06
7.27247e-07
3.96826e-07
2.14279e-07
1.13427e-07
6.0317e-08
3.38098e-08
2.34158e-08
2.49478e-08
4.00109e-08
6.17616e-08
7.46825e-08
7.6802e-08
7.14657e-08
6.20007e-08
5.04011e-08
3.94968e-08
2.92019e-08
2.06541e-08
1.39964e-08
9.1079e-09
5.7113e-09
3.467e-09
2.0474e-09
1.18148e-09
6.68677e-10
3.72229e-10
2.04241e-10
1.1065e-10
5.927e-11
3.14264e-11
1.65105e-11
8.60184e-12
4.44689e-12
2.28223e-12
1.16252e-12
5.86608e-13
2.91837e-13
1.41548e-13
6.51484e-14
2.63639e-14
6.07007e-15
3.85993e-11
1.49578e-10
3.18966e-10
5.86578e-10
1.0089e-09
1.67273e-09
2.71093e-09
4.32476e-09
6.81561e-09
1.05014e-08
1.58864e-08
2.3701e-08
3.49276e-08
5.08355e-08
7.30032e-08
1.03305e-07
1.43842e-07
1.96796e-07
2.64248e-07
3.47917e-07
4.48995e-07
5.6774e-07
7.03926e-07
8.5654e-07
1.02377e-06
1.19877e-06
1.38388e-06
1.58033e-06
1.77857e-06
1.98167e-06
2.186e-06
2.3862e-06
2.58447e-06
2.7764e-06
2.96212e-06
3.14011e-06
3.30914e-06
3.46872e-06
3.61915e-06
3.76118e-06
3.89447e-06
4.02058e-06
4.14095e-06
4.259e-06
4.37728e-06
4.50359e-06
4.64764e-06
4.82276e-06
5.04259e-06
5.31843e-06
5.61464e-06
5.87946e-06
6.01707e-06
5.92017e-06
5.50595e-06
4.73373e-06
3.62024e-06
2.32247e-06
1.27789e-06
7.0138e-07
3.81979e-07
2.05643e-07
1.09105e-07
5.80664e-08
3.28899e-08
2.3525e-08
2.62184e-08
4.28865e-08
6.47246e-08
7.66691e-08
7.7863e-08
7.18271e-08
6.19003e-08
5.0008e-08
3.89968e-08
2.87004e-08
2.02164e-08
1.36495e-08
8.85372e-09
5.53708e-09
3.35416e-09
1.97768e-09
1.14001e-09
6.44764e-10
3.58777e-10
1.96828e-10
1.06636e-10
5.71284e-11
3.0298e-11
1.59219e-11
8.29695e-12
4.28967e-12
2.202e-12
1.12193e-12
5.66414e-13
2.8194e-13
1.36804e-13
6.29817e-14
2.54909e-14
5.86973e-15
3.84696e-11
1.49076e-10
3.17891e-10
5.84591e-10
1.00547e-09
1.66705e-09
2.70182e-09
4.31061e-09
6.79461e-09
1.04678e-08
1.58345e-08
2.36214e-08
3.4804e-08
5.0648e-08
7.27269e-08
1.02915e-07
1.43314e-07
1.96112e-07
2.63409e-07
3.46868e-07
4.4767e-07
5.66272e-07
7.02373e-07
8.54895e-07
1.02223e-06
1.19739e-06
1.38275e-06
1.5795e-06
1.77824e-06
1.98191e-06
2.18706e-06
2.38813e-06
2.5874e-06
2.78038e-06
2.96722e-06
3.14641e-06
3.31689e-06
3.47791e-06
3.62975e-06
3.77323e-06
3.90795e-06
4.03547e-06
4.15739e-06
4.27712e-06
4.39733e-06
4.52557e-06
4.67191e-06
4.84983e-06
5.07286e-06
5.35169e-06
5.64923e-06
5.91124e-06
6.03969e-06
5.92669e-06
5.49045e-06
4.69292e-06
3.55691e-06
2.25591e-06
1.23281e-06
6.76398e-07
3.68126e-07
1.97933e-07
1.05215e-07
5.59099e-08
3.20407e-08
2.36566e-08
2.74549e-08
4.54548e-08
6.72215e-08
7.82928e-08
7.86817e-08
7.20364e-08
6.17449e-08
4.97195e-08
3.86113e-08
2.82993e-08
1.98556e-08
1.33554e-08
8.63342e-09
5.38394e-09
3.25426e-09
1.91572e-09
1.10308e-09
6.23427e-10
3.46754e-10
1.90193e-10
1.03038e-10
5.52055e-11
2.92838e-11
1.53945e-11
8.02777e-12
4.15532e-12
2.13559e-12
1.08906e-12
5.49874e-13
2.73645e-13
1.32752e-13
6.11085e-14
2.47309e-14
5.69468e-15
3.83563e-11
1.48639e-10
3.16959e-10
5.82872e-10
1.0025e-09
1.66209e-09
2.6937e-09
4.29754e-09
6.77223e-09
1.0431e-08
1.57782e-08
2.35408e-08
3.46958e-08
5.04987e-08
7.2516e-08
1.02608e-07
1.42885e-07
1.95545e-07
2.62665e-07
3.46003e-07
4.46665e-07
5.65168e-07
7.01235e-07
8.53762e-07
1.02116e-06
1.19646e-06
1.38208e-06
1.57911e-06
1.77832e-06
1.98251e-06
2.18838e-06
2.39023e-06
2.59041e-06
2.78429e-06
2.97209e-06
3.15242e-06
3.32417e-06
3.48643e-06
3.63956e-06
3.78456e-06
3.92053e-06
4.0492e-06
4.1723e-06
4.2933e-06
4.41502e-06
4.54501e-06
4.69339e-06
4.87378e-06
5.09957e-06
5.38069e-06
5.67936e-06
5.93876e-06
6.05862e-06
5.93044e-06
5.4738e-06
4.65282e-06
3.49483e-06
2.18778e-06
1.19681e-06
6.56041e-07
3.56622e-07
1.91488e-07
1.01679e-07
5.42176e-08
3.14005e-08
2.38582e-08
2.86618e-08
4.77667e-08
6.93646e-08
7.96673e-08
7.93563e-08
7.21921e-08
6.15608e-08
4.94801e-08
3.82866e-08
2.79559e-08
1.95425e-08
1.31016e-08
8.44538e-09
5.25435e-09
3.17003e-09
1.86352e-09
1.07192e-09
6.05381e-10
3.36555e-10
1.84547e-10
9.99635e-11
5.35532e-11
2.84017e-11
1.49272e-11
7.78319e-12
4.02989e-12
2.07127e-12
1.0564e-12
5.33681e-13
2.65742e-13
1.28976e-13
5.93875e-14
2.40384e-14
5.53566e-15
3.82609e-11
1.48271e-10
3.16176e-10
5.81431e-10
1.00002e-09
1.65796e-09
2.687e-09
4.28684e-09
6.75364e-09
1.03999e-08
1.57294e-08
2.34667e-08
3.45854e-08
5.03433e-08
7.23084e-08
1.02348e-07
1.42546e-07
1.95098e-07
2.62095e-07
3.45277e-07
4.45855e-07
5.64309e-07
7.00302e-07
8.52875e-07
1.02038e-06
1.19585e-06
1.38172e-06
1.57903e-06
1.77867e-06
1.98334e-06
2.18984e-06
2.39237e-06
2.59332e-06
2.78807e-06
2.97688e-06
3.15815e-06
3.33085e-06
3.49408e-06
3.64824e-06
3.7941e-06
3.93112e-06
4.061e-06
4.18545e-06
4.30789e-06
4.431e-06
4.56246e-06
4.71252e-06
4.89481e-06
5.1228e-06
5.40589e-06
5.70486e-06
5.96119e-06
6.07309e-06
5.93151e-06
5.4569e-06
4.61502e-06
3.43838e-06
2.12773e-06
1.16556e-06
6.38592e-07
3.46832e-07
1.86025e-07
9.86813e-08
5.27921e-08
3.08832e-08
2.40789e-08
2.97861e-08
4.98018e-08
7.12118e-08
8.08299e-08
7.99168e-08
7.22984e-08
6.13764e-08
4.92618e-08
3.79878e-08
2.76461e-08
1.92654e-08
1.28783e-08
8.28014e-09
5.14051e-09
3.09609e-09
1.81772e-09
1.04461e-09
5.89576e-10
3.27635e-10
1.79617e-10
9.7292e-11
5.21363e-11
2.76729e-11
1.45591e-11
7.59491e-12
3.93242e-12
2.02127e-12
1.03088e-12
5.20666e-13
2.59227e-13
1.25804e-13
5.79239e-14
2.34449e-14
5.39892e-15
3.81824e-11
1.47968e-10
3.15534e-10
5.80253e-10
9.97991e-10
1.65461e-09
2.68159e-09
4.27828e-09
6.73852e-09
1.03745e-08
1.56894e-08
2.34066e-08
3.44973e-08
5.02173e-08
7.21315e-08
1.02105e-07
1.42236e-07
1.94719e-07
2.61638e-07
3.44736e-07
4.45234e-07
5.63626e-07
6.99636e-07
8.52249e-07
1.01986e-06
1.19549e-06
1.38159e-06
1.57916e-06
1.77919e-06
1.98428e-06
2.19134e-06
2.3945e-06
2.59617e-06
2.79164e-06
2.98114e-06
3.16317e-06
3.33674e-06
3.50082e-06
3.65578e-06
3.80268e-06
3.9406e-06
4.07133e-06
4.19652e-06
4.31973e-06
4.4439e-06
4.57669e-06
4.72847e-06
4.91265e-06
5.14269e-06
5.42705e-06
5.72612e-06
5.97965e-06
6.08428e-06
5.93083e-06
5.44063e-06
4.58108e-06
3.38882e-06
2.07582e-06
1.13844e-06
6.2355e-07
3.38469e-07
1.81282e-07
9.60825e-08
5.1509e-08
3.04252e-08
2.42912e-08
3.08231e-08
5.15806e-08
7.2719e-08
8.1753e-08
8.03192e-08
7.23323e-08
6.11746e-08
4.90511e-08
3.77105e-08
2.73571e-08
1.90085e-08
1.26729e-08
8.1293e-09
5.03738e-09
3.02959e-09
1.7768e-09
1.02034e-09
5.75595e-10
3.19768e-10
1.75274e-10
9.49319e-11
5.08689e-11
2.69964e-11
1.42038e-11
7.41608e-12
3.842e-12
1.97537e-12
1.00739e-12
5.08858e-13
2.53376e-13
1.22975e-13
5.66247e-14
2.29197e-14
5.27804e-15
3.81188e-11
1.47723e-10
3.15013e-10
5.79298e-10
9.96354e-10
1.6519e-09
2.67723e-09
4.27141e-09
6.72632e-09
1.0354e-08
1.56573e-08
2.33585e-08
3.44273e-08
5.01176e-08
7.1993e-08
1.01917e-07
1.41992e-07
1.94396e-07
2.61249e-07
3.4431e-07
4.44768e-07
5.63136e-07
6.99145e-07
8.51807e-07
1.01953e-06
1.1953e-06
1.38162e-06
1.57942e-06
1.77978e-06
1.98522e-06
2.19275e-06
2.39639e-06
2.5986e-06
2.79469e-06
2.9848e-06
3.1675e-06
3.34178e-06
3.50658e-06
3.66233e-06
3.80996e-06
3.94856e-06
4.07992e-06
4.20588e-06
4.32972e-06
4.45444e-06
4.58765e-06
4.74291e-06
4.92806e-06
5.15946e-06
5.44479e-06
5.74392e-06
5.99474e-06
6.09289e-06
5.92917e-06
5.42582e-06
4.55161e-06
3.34685e-06
2.03332e-06
1.11611e-06
6.11482e-07
3.32536e-07
1.76229e-07
9.34685e-08
5.02466e-08
2.99774e-08
2.4462e-08
3.17193e-08
5.30213e-08
7.39146e-08
8.24526e-08
8.06071e-08
7.23243e-08
6.0978e-08
4.88514e-08
3.74168e-08
2.70547e-08
1.87482e-08
1.24716e-08
7.98585e-09
4.94172e-09
2.96913e-09
1.74018e-09
9.98886e-10
5.63356e-10
3.12931e-10
1.71521e-10
9.29007e-11
4.97821e-11
2.64197e-11
1.38987e-11
7.25344e-12
3.75724e-12
1.93211e-12
9.85847e-13
4.98186e-13
2.48142e-13
1.20463e-13
5.54775e-14
2.24575e-14
5.17182e-15
3.80681e-11
1.47527e-10
3.14597e-10
5.78534e-10
9.9504e-10
1.64973e-09
2.6737e-09
4.2658e-09
6.71654e-09
1.03377e-08
1.56319e-08
2.33206e-08
3.43722e-08
5.00396e-08
7.18849e-08
1.01772e-07
1.41796e-07
1.94155e-07
2.60953e-07
3.43961e-07
4.44397e-07
5.62754e-07
6.98781e-07
8.51498e-07
1.01932e-06
1.19523e-06
1.38173e-06
1.57974e-06
1.7804e-06
1.98616e-06
2.19408e-06
2.39815e-06
2.60083e-06
2.79736e-06
2.98799e-06
3.17124e-06
3.34616e-06
3.51152e-06
3.66779e-06
3.81596e-06
3.95512e-06
4.0871e-06
4.21362e-06
4.33805e-06
4.46351e-06
4.59762e-06
4.75393e-06
4.9402e-06
5.17281e-06
5.45893e-06
5.75803e-06
6.00663e-06
6.09952e-06
5.92735e-06
5.41314e-06
4.52691e-06
3.31193e-06
1.99798e-06
1.09747e-06
6.01106e-07
3.26717e-07
1.73067e-07
9.17369e-08
4.93869e-08
2.96882e-08
2.46508e-08
3.25138e-08
5.42065e-08
7.48646e-08
8.30072e-08
8.08432e-08
7.23549e-08
6.09133e-08
4.88032e-08
3.6905e-08
2.66819e-08
1.84782e-08
1.22827e-08
7.85881e-09
4.85979e-09
2.91833e-09
1.70973e-09
9.81139e-10
5.5325e-10
3.07287e-10
1.68421e-10
9.12236e-11
4.88861e-11
2.59461e-11
1.36505e-11
7.12438e-12
3.69065e-12
1.89803e-12
9.68581e-13
4.8953e-13
2.43863e-13
1.18399e-13
5.45309e-14
2.20752e-14
5.08368e-15
3.80292e-11
1.47378e-10
3.1428e-10
5.77952e-10
9.94041e-10
1.64808e-09
2.67105e-09
4.26161e-09
6.70911e-09
1.03252e-08
1.56124e-08
2.32916e-08
3.43303e-08
4.99803e-08
7.18034e-08
1.01663e-07
1.41653e-07
1.93975e-07
2.60734e-07
3.43707e-07
4.44117e-07
5.62474e-07
6.98524e-07
8.51292e-07
1.0192e-06
1.19523e-06
1.38188e-06
1.58005e-06
1.78094e-06
1.98695e-06
2.19518e-06
2.39959e-06
2.60262e-06
2.79953e-06
2.99057e-06
3.17426e-06
3.34958e-06
3.51533e-06
3.67202e-06
3.82063e-06
3.96021e-06
4.09263e-06
4.21961e-06
4.34455e-06
4.47058e-06
4.60536e-06
4.76232e-06
4.9495e-06
5.18313e-06
5.46989e-06
5.769e-06
6.0159e-06
6.10464e-06
5.92579e-06
5.40295e-06
4.50702e-06
3.28373e-06
1.96946e-06
1.08244e-06
5.9273e-07
3.22006e-07
1.70595e-07
9.04142e-08
4.87392e-08
2.94783e-08
2.48062e-08
3.31326e-08
5.51716e-08
7.56319e-08
8.34506e-08
8.10223e-08
7.23521e-08
6.07985e-08
4.86238e-08
3.66792e-08
2.64665e-08
1.82985e-08
1.21457e-08
7.7623e-09
4.79607e-09
2.87836e-09
1.68564e-09
9.67082e-10
5.45251e-10
3.02828e-10
1.65978e-10
8.99031e-11
4.8181e-11
2.55734e-11
1.34555e-11
7.02334e-12
3.63875e-12
1.87158e-12
9.55197e-13
4.82816e-13
2.40538e-13
1.16792e-13
5.37931e-14
2.17769e-14
5.01503e-15
3.80013e-11
1.4727e-10
3.14051e-10
5.77532e-10
9.93322e-10
1.64689e-09
2.66914e-09
4.2586e-09
6.70374e-09
1.03161e-08
1.55982e-08
2.32704e-08
3.42996e-08
4.99367e-08
7.17428e-08
1.0158e-07
1.41547e-07
1.93842e-07
2.60578e-07
3.43531e-07
4.43925e-07
5.6228e-07
6.98348e-07
8.5116e-07
1.01913e-06
1.19526e-06
1.38203e-06
1.58032e-06
1.78138e-06
1.98757e-06
2.19603e-06
2.40069e-06
2.60398e-06
2.80118e-06
2.99252e-06
3.1765e-06
3.35214e-06
3.51821e-06
3.67519e-06
3.82411e-06
3.96401e-06
4.09676e-06
4.2241e-06
4.34935e-06
4.47577e-06
4.61101e-06
4.76847e-06
4.95635e-06
5.19073e-06
5.47797e-06
5.77709e-06
6.02272e-06
6.10837e-06
5.92456e-06
5.39526e-06
4.49208e-06
3.26263e-06
1.94843e-06
1.0712e-06
5.86468e-07
3.18494e-07
1.6876e-07
8.94358e-08
4.82651e-08
2.93274e-08
2.49253e-08
3.35936e-08
5.59143e-08
7.62086e-08
8.37805e-08
8.1153e-08
7.23446e-08
6.07064e-08
4.84878e-08
3.65265e-08
2.63241e-08
1.81793e-08
1.2054e-08
7.69684e-09
4.75217e-09
2.85043e-09
1.66861e-09
9.57048e-10
5.39496e-10
2.996e-10
1.64201e-10
8.8941e-11
4.76683e-11
2.53042e-11
1.33155e-11
6.95086e-12
3.60142e-12
1.85246e-12
9.45479e-13
4.77926e-13
2.38112e-13
1.15618e-13
5.32532e-14
2.15585e-14
4.96475e-15
3.79834e-11
1.47201e-10
3.13905e-10
5.77266e-10
9.92867e-10
1.64614e-09
2.66793e-09
4.25671e-09
6.70032e-09
1.03103e-08
1.55891e-08
2.32569e-08
3.428e-08
4.99091e-08
7.17049e-08
1.01529e-07
1.41481e-07
1.9376e-07
2.60481e-07
3.43421e-07
4.43809e-07
5.62165e-07
6.98246e-07
8.51087e-07
1.01911e-06
1.19529e-06
1.38214e-06
1.58053e-06
1.7817e-06
1.98802e-06
2.19663e-06
2.40144e-06
2.60491e-06
2.8023e-06
2.99383e-06
3.17801e-06
3.35385e-06
3.52012e-06
3.67732e-06
3.82647e-06
3.9666e-06
4.09956e-06
4.22711e-06
4.35258e-06
4.47924e-06
4.61476e-06
4.77251e-06
4.96082e-06
5.19571e-06
5.48327e-06
5.78239e-06
6.02717e-06
6.11077e-06
5.9237e-06
5.39017e-06
4.48227e-06
3.24889e-06
1.93488e-06
1.06371e-06
5.8229e-07
3.16157e-07
1.67539e-07
8.87885e-08
4.79518e-08
2.92272e-08
2.50011e-08
3.38898e-08
5.6402e-08
7.65885e-08
8.39984e-08
8.12389e-08
7.23397e-08
6.06469e-08
4.84011e-08
3.64315e-08
2.62346e-08
1.81049e-08
1.19971e-08
7.65604e-09
4.72459e-09
2.83274e-09
1.65776e-09
9.50622e-10
5.35797e-10
2.97519e-10
1.63052e-10
8.83166e-11
4.73333e-11
2.51262e-11
1.3222e-11
6.90238e-12
3.57652e-12
1.83979e-12
9.39072e-13
4.74714e-13
2.36522e-13
1.1485e-13
5.29001e-14
2.14157e-14
4.93186e-15
3.79748e-11
1.47168e-10
3.13835e-10
5.77137e-10
9.92646e-10
1.64578e-09
2.66735e-09
4.2558e-09
6.69868e-09
1.03076e-08
1.55848e-08
2.32504e-08
3.42706e-08
4.98959e-08
7.16866e-08
1.01505e-07
1.4145e-07
1.93721e-07
2.60434e-07
3.43368e-07
4.43752e-07
5.62109e-07
6.98198e-07
8.51054e-07
1.0191e-06
1.19531e-06
1.3822e-06
1.58063e-06
1.78187e-06
1.98825e-06
2.19693e-06
2.40182e-06
2.60538e-06
2.80286e-06
2.99449e-06
3.17876e-06
3.35471e-06
3.52108e-06
3.67838e-06
3.82764e-06
3.96787e-06
4.10094e-06
4.22859e-06
4.35416e-06
4.48096e-06
4.61662e-06
4.77452e-06
4.96305e-06
5.19818e-06
5.48588e-06
5.78501e-06
6.02937e-06
6.11196e-06
5.92325e-06
5.38764e-06
4.47742e-06
3.24211e-06
1.92823e-06
1.06002e-06
5.80231e-07
3.15003e-07
1.66935e-07
8.84683e-08
4.77975e-08
2.91797e-08
2.50426e-08
3.40436e-08
5.66451e-08
7.67759e-08
8.41054e-08
8.12809e-08
7.23375e-08
6.06183e-08
4.83598e-08
3.63868e-08
2.61929e-08
1.807e-08
1.19704e-08
7.637e-09
4.71169e-09
2.82445e-09
1.65267e-09
9.47602e-10
5.34057e-10
2.96539e-10
1.6251e-10
8.80215e-11
4.71746e-11
2.50419e-11
1.31777e-11
6.87931e-12
3.56463e-12
1.8337e-12
9.35982e-13
4.73159e-13
2.3575e-13
1.14475e-13
5.27278e-14
2.13459e-14
4.91577e-15
3.79748e-11
1.47168e-10
3.13835e-10
5.77138e-10
9.92648e-10
1.64578e-09
2.66736e-09
4.25581e-09
6.69869e-09
1.03076e-08
1.55848e-08
2.32504e-08
3.42706e-08
4.98959e-08
7.16866e-08
1.01505e-07
1.4145e-07
1.93721e-07
2.60434e-07
3.43368e-07
4.43752e-07
5.62109e-07
6.98198e-07
8.51053e-07
1.0191e-06
1.19531e-06
1.3822e-06
1.58063e-06
1.78187e-06
1.98824e-06
2.19693e-06
2.40182e-06
2.60538e-06
2.80286e-06
2.99449e-06
3.17877e-06
3.35472e-06
3.52109e-06
3.67839e-06
3.82765e-06
3.96788e-06
4.10094e-06
4.2286e-06
4.35417e-06
4.48096e-06
4.61663e-06
4.77452e-06
4.96305e-06
5.19818e-06
5.48588e-06
5.785e-06
6.02936e-06
6.11193e-06
5.92322e-06
5.38761e-06
4.47739e-06
3.24209e-06
1.92821e-06
1.06001e-06
5.80228e-07
3.15002e-07
1.66933e-07
8.84676e-08
4.77977e-08
2.91813e-08
2.5047e-08
3.40552e-08
5.66478e-08
7.67753e-08
8.41043e-08
8.12801e-08
7.2337e-08
6.06181e-08
4.83598e-08
3.63868e-08
2.6193e-08
1.80701e-08
1.19705e-08
7.63706e-09
4.71173e-09
2.82447e-09
1.65268e-09
9.47611e-10
5.34062e-10
2.96542e-10
1.62511e-10
8.80224e-11
4.71751e-11
2.50422e-11
1.31779e-11
6.87938e-12
3.56466e-12
1.83372e-12
9.35991e-13
4.73163e-13
2.35752e-13
1.14476e-13
5.27282e-14
2.13461e-14
4.91581e-15
3.79836e-11
1.47202e-10
3.13907e-10
5.77269e-10
9.92872e-10
1.64615e-09
2.66795e-09
4.25673e-09
6.70035e-09
1.03104e-08
1.55892e-08
2.32569e-08
3.428e-08
4.99091e-08
7.17048e-08
1.01529e-07
1.41481e-07
1.9376e-07
2.6048e-07
3.43421e-07
4.43808e-07
5.62164e-07
6.98245e-07
8.51085e-07
1.0191e-06
1.19529e-06
1.38214e-06
1.58052e-06
1.7817e-06
1.98802e-06
2.19663e-06
2.40144e-06
2.60491e-06
2.8023e-06
2.99383e-06
3.17802e-06
3.35387e-06
3.52014e-06
3.67734e-06
3.82649e-06
3.96662e-06
4.09959e-06
4.22713e-06
4.3526e-06
4.47927e-06
4.61479e-06
4.77253e-06
4.96083e-06
5.19571e-06
5.48326e-06
5.78237e-06
6.02715e-06
6.11073e-06
5.92364e-06
5.3901e-06
4.48219e-06
3.24881e-06
1.93483e-06
1.06369e-06
5.82277e-07
3.1615e-07
1.67535e-07
8.87859e-08
4.79499e-08
2.92249e-08
2.49966e-08
3.38795e-08
5.63933e-08
7.6582e-08
8.39943e-08
8.12366e-08
7.23386e-08
6.06465e-08
4.84011e-08
3.64317e-08
2.62349e-08
1.81052e-08
1.19973e-08
7.65621e-09
4.7247e-09
2.83281e-09
1.65781e-09
9.50648e-10
5.35812e-10
2.97527e-10
1.63057e-10
8.83192e-11
4.73347e-11
2.5127e-11
1.32224e-11
6.90258e-12
3.57662e-12
1.83983e-12
9.39094e-13
4.74724e-13
2.36527e-13
1.14852e-13
5.29011e-14
2.14161e-14
4.93195e-15
3.80015e-11
1.47271e-10
3.14052e-10
5.77535e-10
9.93327e-10
1.6469e-09
2.66915e-09
4.25863e-09
6.70376e-09
1.03161e-08
1.55982e-08
2.32704e-08
3.42995e-08
4.99367e-08
7.17428e-08
1.0158e-07
1.41546e-07
1.93841e-07
2.60577e-07
3.4353e-07
4.43924e-07
5.62278e-07
6.98346e-07
8.51157e-07
1.01913e-06
1.19525e-06
1.38202e-06
1.58032e-06
1.78137e-06
1.98756e-06
2.19602e-06
2.40067e-06
2.60397e-06
2.80117e-06
2.9925e-06
3.17649e-06
3.35214e-06
3.51821e-06
3.67521e-06
3.82414e-06
3.96405e-06
4.0968e-06
4.22413e-06
4.3494e-06
4.47581e-06
4.61103e-06
4.76847e-06
4.95632e-06
5.1907e-06
5.47794e-06
5.77706e-06
6.02267e-06
6.1083e-06
5.92446e-06
5.39513e-06
4.49193e-06
3.26248e-06
1.94833e-06
1.07115e-06
5.86439e-07
3.18479e-07
1.68753e-07
8.94323e-08
4.82633e-08
2.93258e-08
2.49227e-08
3.35875e-08
5.59047e-08
7.62001e-08
8.37752e-08
8.11503e-08
7.23437e-08
6.07065e-08
4.84883e-08
3.65273e-08
2.63248e-08
1.81799e-08
1.20545e-08
7.69718e-09
4.7524e-09
2.85057e-09
1.6687e-09
9.57098e-10
5.39524e-10
2.99616e-10
1.64209e-10
8.89457e-11
4.76708e-11
2.53056e-11
1.33162e-11
6.95126e-12
3.60162e-12
1.85256e-12
9.4553e-13
4.7795e-13
2.38124e-13
1.15623e-13
5.32554e-14
2.15594e-14
4.96494e-15
3.80294e-11
1.47379e-10
3.14281e-10
5.77954e-10
9.94046e-10
1.64808e-09
2.67106e-09
4.26163e-09
6.70913e-09
1.03252e-08
1.56124e-08
2.32916e-08
3.43303e-08
4.99803e-08
7.18034e-08
1.01662e-07
1.41653e-07
1.93975e-07
2.60733e-07
3.43706e-07
4.44115e-07
5.62472e-07
6.98521e-07
8.51288e-07
1.01919e-06
1.19522e-06
1.38187e-06
1.58004e-06
1.78093e-06
1.98693e-06
2.19516e-06
2.39957e-06
2.60259e-06
2.79951e-06
2.99054e-06
3.17421e-06
3.34954e-06
3.51529e-06
3.67199e-06
3.82061e-06
3.9602e-06
4.09264e-06
4.21963e-06
4.34455e-06
4.47057e-06
4.60534e-06
4.76231e-06
4.94949e-06
5.18311e-06
5.46987e-06
5.76897e-06
6.01584e-06
6.10455e-06
5.92567e-06
5.4028e-06
4.50683e-06
3.28355e-06
1.96933e-06
1.08237e-06
5.92697e-07
3.2199e-07
1.70588e-07
9.04109e-08
4.8737e-08
2.9476e-08
2.48024e-08
3.31255e-08
5.51614e-08
7.56229e-08
8.34454e-08
8.10205e-08
7.23524e-08
6.07997e-08
4.86254e-08
3.66807e-08
2.64678e-08
1.82995e-08
1.21464e-08
7.76282e-09
4.79641e-09
2.87856e-09
1.68576e-09
9.67154e-10
5.45291e-10
3.0285e-10
1.6599e-10
8.99095e-11
4.81843e-11
2.5575e-11
1.34563e-11
7.02371e-12
3.63893e-12
1.87166e-12
9.55236e-13
4.82833e-13
2.40546e-13
1.16796e-13
5.37944e-14
2.17774e-14
5.01513e-15
3.80682e-11
1.47528e-10
3.14598e-10
5.78537e-10
9.95045e-10
1.64973e-09
2.67372e-09
4.26582e-09
6.71657e-09
1.03377e-08
1.56319e-08
2.33206e-08
3.43722e-08
5.00395e-08
7.18848e-08
1.01771e-07
1.41796e-07
1.94155e-07
2.60952e-07
3.4396e-07
4.44395e-07
5.62751e-07
6.98777e-07
8.51493e-07
1.01931e-06
1.19522e-06
1.38172e-06
1.57972e-06
1.78038e-06
1.98613e-06
2.19405e-06
2.39813e-06
2.6008e-06
2.79734e-06
2.98797e-06
3.17123e-06
3.34613e-06
3.51148e-06
3.66773e-06
3.8159e-06
3.95506e-06
4.08703e-06
4.21355e-06
4.33798e-06
4.46344e-06
4.59757e-06
4.75388e-06
4.94015e-06
5.17277e-06
5.4589e-06
5.75799e-06
6.00657e-06
6.09941e-06
5.92718e-06
5.41292e-06
4.52664e-06
3.31167e-06
1.99781e-06
1.09738e-06
6.01064e-07
3.26697e-07
1.73057e-07
9.17315e-08
4.93829e-08
2.96828e-08