/*--------------------------------*- C++ -*----------------------------------*\
  =========                 |
  \\      /  F ield         | OpenFOAM: The Open Source CFD Toolbox
   \\    /   O peration     | Website:  https://openfoam.org
    \\  /    A nd           | Version:  10
     \\/     M anipulation  |
\*---------------------------------------------------------------------------*/
FoamFile
{
    format      ascii;
    class       volScalarField;
    location    "1";
    object      CH3O;
}
// * * * * * * * * * * * * * * * * * * * * * * * * * * * * * * * * * * * * * //

dimensions      [0 0 0 0 0 0 0];

internalField   nonuniform List<scalar> 
4000
(
1.69789e-14
6.57842e-14
1.4024e-13
2.5781e-13
4.43289e-13
7.34865e-13
1.19118e-12
1.90147e-12
2.99997e-12
4.63007e-12
7.01566e-12
1.04792e-11
1.54483e-11
2.24586e-11
3.21389e-11
4.51562e-11
6.20932e-11
8.32473e-11
1.08347e-10
1.36254e-10
1.64774e-10
1.90799e-10
2.10981e-10
2.22829e-10
2.25519e-10
2.19875e-10
2.06874e-10
1.86998e-10
1.627e-10
1.36475e-10
1.11735e-10
9.001e-11
7.20461e-11
5.77575e-11
4.66797e-11
3.84309e-11
3.28273e-11
2.98669e-11
2.98009e-11
3.33391e-11
4.20674e-11
5.87314e-11
8.83212e-11
1.39025e-10
2.2324e-10
3.61339e-10
5.75267e-10
9.04061e-10
1.37337e-09
2.04364e-09
2.91284e-09
4.00544e-09
5.30366e-09
6.72841e-09
8.11053e-09
9.15469e-09
9.41968e-09
8.40326e-09
5.96715e-09
3.28588e-09
1.81262e-09
9.92437e-10
5.37414e-10
2.88042e-10
1.53971e-10
8.81952e-11
6.3725e-11
7.11562e-11
1.15257e-10
1.72176e-10
2.0637e-10
2.21415e-10
2.19551e-10
1.93815e-10
1.42262e-10
8.28422e-11
3.81322e-11
1.47085e-11
4.91122e-12
1.4786e-12
4.2015e-13
1.17042e-13
3.26802e-14
9.19477e-15
2.59509e-15
7.29685e-16
2.03267e-16
5.58568e-17
1.51859e-17
4.08262e-18
1.08552e-18
2.85564e-19
7.43307e-20
1.91267e-20
4.85158e-21
1.20405e-21
2.8737e-22
6.34188e-23
1.17959e-23
1.19573e-24
1.70055e-14
6.58908e-14
1.40488e-13
2.58336e-13
4.44347e-13
7.36878e-13
1.1948e-12
1.90756e-12
3.00951e-12
4.64524e-12
7.03689e-12
1.05051e-11
1.54743e-11
2.24743e-11
3.21234e-11
4.50729e-11
6.18889e-11
8.28728e-11
1.07784e-10
1.35546e-10
1.64047e-10
1.90256e-10
2.1085e-10
2.23276e-10
2.26657e-10
2.21698e-10
2.09347e-10
1.89881e-10
1.65759e-10
1.3934e-10
1.1413e-10
9.1889e-11
7.35276e-11
5.88982e-11
4.75613e-11
3.91104e-11
3.33483e-11
3.02666e-11
3.01196e-11
3.36182e-11
4.23641e-11
5.91351e-11
8.90012e-11
1.40356e-10
2.25748e-10
3.6592e-10
5.83394e-10
9.18394e-10
1.39674e-09
2.08063e-09
2.96607e-09
4.07894e-09
5.3991e-09
6.84161e-09
8.23043e-09
9.25782e-09
9.47017e-09
8.36526e-09
5.85106e-09
3.2222e-09
1.77522e-09
9.7043e-10
5.24545e-10
2.80712e-10
1.50341e-10
8.70665e-11
6.4892e-11
7.5346e-11
1.23904e-10
1.81437e-10
2.14688e-10
2.28289e-10
2.24198e-10
1.94393e-10
1.38758e-10
7.82279e-11
3.5033e-11
1.31967e-11
4.32488e-12
1.28921e-12
3.6595e-13
1.02595e-13
2.89613e-14
8.25415e-15
2.36082e-15
6.72634e-16
1.89952e-16
5.30935e-17
1.46055e-17
3.95699e-18
1.0572e-18
2.78882e-19
7.26739e-20
1.86849e-20
4.73593e-21
1.17443e-21
2.8002e-22
6.17569e-23
1.14839e-23
1.16388e-24
1.70753e-14
6.61693e-14
1.41115e-13
2.59564e-13
4.46593e-13
7.40788e-13
1.20131e-12
1.91788e-12
3.02498e-12
4.66808e-12
7.06806e-12
1.0544e-11
1.5518e-11
2.25153e-11
3.21478e-11
4.5059e-11
6.18072e-11
8.2694e-11
1.0749e-10
1.35153e-10
1.63636e-10
1.89989e-10
2.10954e-10
2.2395e-10
2.27976e-10
2.23598e-10
2.11684e-10
1.92682e-10
1.68731e-10
1.42147e-10
1.16735e-10
9.419e-11
7.54807e-11
6.04725e-11
4.88151e-11
4.0101e-11
3.41256e-11
3.08794e-11
3.06245e-11
3.40781e-11
4.28682e-11
5.98238e-11
9.0144e-11
1.42492e-10
2.29623e-10
3.73004e-10
5.96257e-10
9.4081e-10
1.43438e-09
2.13995e-09
3.05161e-09
4.19982e-09
5.5551e-09
7.0255e-09
8.42175e-09
9.415e-09
9.53382e-09
8.27958e-09
5.63773e-09
3.10547e-09
1.70753e-09
9.31223e-10
5.0171e-10
2.67879e-10
1.44157e-10
8.51876e-11
6.68821e-11
8.24794e-11
1.37565e-10
1.95231e-10
2.262e-10
2.38316e-10
2.30322e-10
1.94759e-10
1.32659e-10
7.26387e-11
3.1667e-11
1.16936e-11
3.78512e-12
1.12468e-12
3.20675e-13
9.07398e-14
2.58949e-14
7.45707e-15
2.15212e-15
6.17735e-16
1.75394e-16
4.91177e-17
1.35533e-17
3.68567e-18
9.88544e-19
2.61771e-19
6.84965e-20
1.77183e-20
4.50888e-21
1.1207e-21
2.67538e-22
5.90269e-23
1.09753e-23
1.11211e-24
1.71169e-14
6.6331e-14
1.41464e-13
2.60214e-13
4.47711e-13
7.42602e-13
1.20408e-12
1.92183e-12
3.03006e-12
4.67429e-12
7.07375e-12
1.05452e-11
1.55064e-11
2.24774e-11
3.2065e-11
4.49097e-11
6.15724e-11
8.23613e-11
1.07068e-10
1.34691e-10
1.63234e-10
1.89797e-10
2.1112e-10
2.24603e-10
2.29149e-10
2.25288e-10
2.13854e-10
1.95249e-10
1.71615e-10
1.45096e-10
1.19503e-10
9.66356e-11
7.75574e-11
6.21904e-11
5.01863e-11
4.12058e-11
3.50097e-11
3.1596e-11
3.12391e-11
3.46705e-11
4.35572e-11
6.08041e-11
9.17457e-11
1.45358e-10
2.34876e-10
3.82466e-10
6.13073e-10
9.69757e-10
1.48092e-09
2.21216e-09
3.15604e-09
4.34269e-09
5.7389e-09
7.24198e-09
8.63958e-09
9.58491e-09
9.58115e-09
8.13429e-09
5.33889e-09
2.94133e-09
1.61467e-09
8.80664e-10
4.69143e-10
2.504e-10
1.35977e-10
8.28536e-11
6.96744e-11
9.19623e-11
1.53726e-10
2.11026e-10
2.40211e-10
2.4921e-10
2.36163e-10
1.93082e-10
1.26713e-10
6.70544e-11
2.83329e-11
1.02132e-11
3.25305e-12
9.60082e-13
2.74108e-13
7.80764e-14
2.24764e-14
6.52996e-15
1.89994e-15
5.49377e-16
1.57034e-16
4.42472e-17
1.22779e-17
3.3556e-18
9.03958e-19
2.40235e-19
6.30206e-20
1.63122e-20
4.15509e-21
1.03407e-21
2.47208e-22
5.46178e-23
1.01675e-23
1.03086e-24
1.71322e-14
6.6391e-14
1.41593e-13
2.60447e-13
4.48096e-13
7.43181e-13
1.20485e-12
1.92267e-12
3.03056e-12
4.67346e-12
7.06929e-12
1.05332e-11
1.54816e-11
2.2432e-11
3.19883e-11
4.47888e-11
6.13958e-11
8.21239e-11
1.06783e-10
1.34399e-10
1.63015e-10
1.89758e-10
2.11378e-10
2.25276e-10
2.30351e-10
2.27081e-10
2.16337e-10
1.98149e-10
1.74667e-10
1.481e-10
1.2227e-10
9.90697e-11
7.96253e-11
6.39269e-11
5.16232e-11
4.23464e-11
3.59247e-11
3.23508e-11
3.19075e-11
3.53422e-11
4.43724e-11
6.19835e-11
9.3697e-11
1.4886e-10
2.41132e-10
3.9346e-10
6.32035e-10
1.00148e-09
1.5316e-09
2.29083e-09
3.27092e-09
4.49998e-09
5.93878e-09
7.47016e-09
8.86499e-09
9.74616e-09
9.5917e-09
7.92055e-09
4.95873e-09
2.72975e-09
1.4962e-09
8.13431e-10
4.32088e-10
2.30588e-10
1.26837e-10
8.0698e-11
7.37985e-11
1.04796e-10
1.72312e-10
2.27197e-10
2.53573e-10
2.59478e-10
2.40838e-10
1.89827e-10
1.21427e-10
6.03028e-11
2.47837e-11
8.76292e-12
2.76293e-12
8.14686e-13
2.3403e-13
6.73193e-14
1.9583e-14
5.74291e-15
1.68419e-15
4.90215e-16
1.4091e-16
3.98961e-17
1.1117e-17
3.04939e-18
8.24011e-19
2.19545e-19
5.77084e-20
1.49598e-20
3.81493e-21
9.50242e-22
2.27323e-22
5.02506e-23
9.35787e-24
9.48827e-25
1.71213e-14
6.63485e-14
1.415e-13
2.60266e-13
4.47755e-13
7.42538e-13
1.20362e-12
1.92027e-12
3.02603e-12
4.66503e-12
7.05508e-12
1.05109e-11
1.54468e-11
2.23786e-11
3.19085e-11
4.4674e-11
6.12399e-11
8.19262e-11
1.06557e-10
1.34185e-10
1.62892e-10
1.89859e-10
2.11886e-10
2.26308e-10
2.31901e-10
2.2906e-10
2.18638e-10
2.00779e-10
1.77503e-10
1.50916e-10
1.24868e-10
1.01355e-10
8.15473e-11
6.55206e-11
5.29092e-11
4.34038e-11
3.67975e-11
3.30951e-11
3.25972e-11
3.60783e-11
4.53009e-11
6.33677e-11
9.60065e-11
1.5297e-10
2.48451e-10
4.06243e-10
6.54302e-10
1.03722e-09
1.58974e-09
2.38086e-09
3.39944e-09
4.67076e-09
6.14766e-09
7.70178e-09
9.08206e-09
9.88288e-09
9.55831e-09
7.64772e-09
4.51936e-09
2.49383e-09
1.36897e-09
7.45142e-10
3.9632e-10
2.12327e-10
1.18614e-10
7.92611e-11
7.87631e-11
1.18599e-10
1.91366e-10
2.43421e-10
2.6673e-10
2.6874e-10
2.43246e-10
1.85148e-10
1.13691e-10
5.45924e-11
2.18726e-11
7.59645e-12
2.37196e-12
6.9813e-13
2.01374e-13
5.83404e-14
1.71011e-14
5.04968e-15
1.48962e-15
4.35789e-16
1.25832e-16
3.57738e-17
1.00062e-17
2.75421e-18
7.46531e-19
1.99373e-19
5.24994e-20
1.36312e-20
3.48122e-21
8.68429e-22
2.08055e-22
4.60463e-23
8.58117e-24
8.70218e-25
1.70898e-14
6.62264e-14
1.41236e-13
2.59769e-13
4.46875e-13
7.41039e-13
1.20115e-12
1.91632e-12
3.01958e-12
4.65391e-12
7.03743e-12
1.04828e-11
1.54034e-11
2.23138e-11
3.18151e-11
4.45454e-11
6.10734e-11
8.1727e-11
1.06347e-10
1.34009e-10
1.62835e-10
1.90023e-10
2.12374e-10
2.27212e-10
2.33257e-10
2.30826e-10
2.20837e-10
2.03306e-10
1.80152e-10
1.53502e-10
1.27281e-10
1.03502e-10
8.32756e-11
6.69672e-11
5.41092e-11
4.43882e-11
3.76142e-11
3.37971e-11
3.32681e-11
3.68234e-11
4.62801e-11
6.48617e-11
9.8517e-11
1.57426e-10
2.56479e-10
4.19054e-10
6.76804e-10
1.07265e-09
1.64693e-09
2.46836e-09
3.52342e-09
4.83564e-09
6.35071e-09
7.92514e-09
9.28686e-09
1.00048e-08
9.51562e-09
7.39361e-09
4.16619e-09
2.3036e-09
1.26585e-09
6.89156e-10
3.66883e-10
1.97246e-10
1.12116e-10
7.86271e-11
8.37922e-11
1.33344e-10
2.08411e-10
2.57022e-10
2.7755e-10
2.75769e-10
2.44249e-10
1.8099e-10
1.06759e-10
4.96484e-11
1.94281e-11
6.63303e-12
2.05428e-12
6.04073e-13
1.74997e-13
5.10446e-14
1.50685e-14
4.47725e-15
1.32765e-15
3.90107e-16
1.13066e-16
3.22519e-17
9.04849e-18
2.49775e-18
6.79006e-19
1.82002e-19
4.81169e-20
1.25329e-20
3.2061e-21
8.00367e-22
1.91773e-22
4.24371e-23
7.90735e-24
8.01814e-25
1.70485e-14
6.60659e-14
1.40888e-13
2.59113e-13
4.45706e-13
7.39016e-13
1.1977e-12
1.91052e-12
3.01011e-12
4.63807e-12
7.0101e-12
1.04394e-11
1.53376e-11
2.22179e-11
3.16813e-11
4.43682e-11
6.08549e-11
8.14829e-11
1.06116e-10
1.33861e-10
1.6286e-10
1.90334e-10
2.13049e-10
2.28276e-10
2.34785e-10
2.32843e-10
2.23164e-10
2.05878e-10
1.82898e-10
1.56198e-10
1.29563e-10
1.05444e-10
8.48762e-11
6.82906e-11
5.52055e-11
4.52937e-11
3.83791e-11
3.45055e-11
3.39614e-11
3.75999e-11
4.725e-11
6.63665e-11
1.01031e-10
1.61892e-10
2.64191e-10
4.32329e-10
6.99115e-10
1.10691e-09
1.70157e-09
2.55188e-09
3.64304e-09
4.99514e-09
6.54627e-09
8.13943e-09
9.48357e-09
1.01257e-08
9.49401e-09
7.21339e-09
3.99062e-09
2.20033e-09
1.20545e-09
6.54341e-10
3.4799e-10
1.87541e-10
1.08277e-10
7.94904e-11
9.01598e-11
1.48157e-10
2.24067e-10
2.69286e-10
2.87307e-10
2.81208e-10
2.43381e-10
1.74668e-10
9.9665e-11
4.51337e-11
1.73104e-11
5.82681e-12
1.79399e-12
5.2796e-13
1.53764e-13
4.51716e-14
1.34266e-14
4.01243e-15
1.19529e-15
3.52503e-16
1.02476e-16
2.93061e-17
8.24025e-18
2.27897e-18
6.20466e-19
1.66452e-19
4.40285e-20
1.14796e-20
2.94374e-21
7.36337e-22
1.76629e-22
3.91054e-23
7.28852e-24
7.39138e-25
1.70095e-14
6.59154e-14
1.40566e-13
2.58513e-13
4.44658e-13
7.37243e-13
1.19476e-12
1.90573e-12
3.00242e-12
4.62418e-12
6.98828e-12
1.04066e-11
1.52902e-11
2.21519e-11
3.1593e-11
4.42559e-11
6.07228e-11
8.1345e-11
1.06002e-10
1.33822e-10
1.62962e-10
1.9065e-10
2.13692e-10
2.29358e-10
2.36206e-10
2.34511e-10
2.25099e-10
2.08033e-10
1.85117e-10
1.584e-10
1.31398e-10
1.0707e-10
8.62558e-11
6.9449e-11
5.61738e-11
4.60983e-11
3.90751e-11
3.51167e-11
3.45681e-11
3.83163e-11
4.82333e-11
6.79086e-11
1.0367e-10
1.66472e-10
2.72207e-10
4.46078e-10
7.22549e-10
1.14432e-09
1.75958e-09
2.63755e-09
3.76054e-09
5.14836e-09
6.73134e-09
8.34096e-09
9.6676e-09
1.02396e-08
9.48063e-09
7.07167e-09
3.89645e-09
2.1424e-09
1.17014e-09
6.33005e-10
3.36707e-10
1.81683e-10
1.06347e-10
8.11456e-11
9.65758e-11
1.61759e-10
2.37764e-10
2.79925e-10
2.95183e-10
2.85207e-10
2.42224e-10
1.66432e-10
9.26102e-11
4.11414e-11
1.55773e-11
5.20401e-12
1.59987e-12
4.7217e-13
1.38239e-13
4.08413e-14
1.21983e-14
3.65868e-15
1.09278e-15
3.22888e-16
9.40055e-17
2.69171e-17
7.57688e-18
2.09754e-18
5.71524e-19
1.53393e-19
4.05864e-20
1.05854e-20
2.71376e-21
6.78917e-22
1.62955e-22
3.61041e-23
6.73227e-24
6.82881e-25
1.69775e-14
6.57927e-14
1.40307e-13
2.5804e-13
4.43844e-13
7.35888e-13
1.19254e-12
1.90211e-12
2.99651e-12
4.61376e-12
6.97141e-12
1.03808e-11
1.52527e-11
2.20996e-11
3.15241e-11
4.41712e-11
6.06284e-11
8.12557e-11
1.05947e-10
1.33847e-10
1.63135e-10
1.91072e-10
2.14418e-10
2.30353e-10
2.37531e-10
2.36111e-10
2.26914e-10
2.09998e-10
1.87109e-10
1.60298e-10
1.33067e-10
1.08514e-10
8.74714e-11
7.0467e-11
5.70286e-11
4.68241e-11
3.96772e-11
3.56621e-11
3.51228e-11
3.89798e-11
4.91602e-11
6.93732e-11
1.0611e-10
1.70699e-10
2.79558e-10
4.58815e-10
7.43645e-10
1.17827e-09
1.81202e-09
2.71464e-09
3.86889e-09
5.29038e-09
6.90311e-09
8.52519e-09
9.83341e-09
1.03391e-08
9.4627e-09
6.94056e-09
3.81881e-09
2.09616e-09
1.14216e-09
6.1582e-10
3.28268e-10
1.77377e-10
1.05157e-10
8.29792e-11
1.02642e-10
1.73356e-10
2.48513e-10
2.88179e-10
3.01308e-10
2.88015e-10
2.40201e-10
1.60875e-10
8.76339e-11
3.82791e-11
1.43153e-11
4.74285e-12
1.45286e-12
4.28814e-13
1.25836e-13
3.72898e-14
1.11679e-14
3.35664e-15
1.00409e-15
2.97031e-16
8.65655e-17
2.48103e-17
6.99026e-18
1.93686e-18
5.28112e-19
1.41798e-19
3.75377e-20
9.79572e-21
2.51383e-21
6.29599e-22
1.51256e-22
3.35328e-23
6.25506e-24
6.34592e-25
1.69465e-14
6.56731e-14
1.40051e-13
2.57568e-13
4.43032e-13
7.34546e-13
1.1904e-12
1.89881e-12
2.99166e-12
4.60568e-12
6.95886e-12
1.03622e-11
1.52251e-11
2.20609e-11
3.14728e-11
4.41091e-11
6.05629e-11
8.12027e-11
1.05935e-10
1.3392e-10
1.6336e-10
1.91511e-10
2.15124e-10
2.31388e-10
2.38823e-10
2.37619e-10
2.28585e-10
2.11776e-10
1.88887e-10
1.6198e-10
1.34557e-10
1.09792e-10
8.85254e-11
7.13382e-11
5.77468e-11
4.74151e-11
4.01847e-11
3.61339e-11
3.56118e-11
3.95687e-11
4.99881e-11
7.06778e-11
1.0832e-10
1.74558e-10
2.86298e-10
4.70344e-10
7.62911e-10
1.20934e-09
1.86005e-09
2.78535e-09
3.96704e-09
5.41745e-09
7.05457e-09
8.68757e-09
9.97759e-09
1.04224e-08
9.4433e-09
6.83236e-09
3.73325e-09
2.04838e-09
1.1152e-09
6.00473e-10
3.20734e-10
1.73186e-10
1.04099e-10
8.48247e-11
1.08548e-10
1.83584e-10
2.57626e-10
2.95214e-10
3.06451e-10
2.90182e-10
2.37973e-10
1.56582e-10
8.38778e-11
3.61338e-11
1.3366e-11
4.39145e-12
1.33866e-12
3.94456e-13
1.15834e-13
3.43837e-14
1.03152e-14
3.10449e-15
9.29575e-16
2.75201e-16
8.0258e-17
2.30178e-17
6.48983e-18
1.79981e-18
4.91471e-19
1.32274e-19
3.51076e-20
9.18092e-21
2.35748e-21
5.90299e-22
1.41761e-22
3.14188e-23
5.85961e-24
5.94447e-25
1.69207e-14
6.55741e-14
1.39841e-13
2.57182e-13
4.42368e-13
7.33447e-13
1.18863e-12
1.89601e-12
2.98666e-12
4.59708e-12
6.94572e-12
1.03439e-11
1.5202e-11
2.20318e-11
3.1437e-11
4.40669e-11
6.05216e-11
8.11779e-11
1.05952e-10
1.34016e-10
1.63591e-10
1.9193e-10
2.15763e-10
2.32282e-10
2.39971e-10
2.38972e-10
2.3008e-10
2.13351e-10
1.90449e-10
1.63446e-10
1.35849e-10
1.10892e-10
8.94457e-11
7.20909e-11
5.83629e-11
4.79318e-11
4.06333e-11
3.6555e-11
3.60581e-11
4.01283e-11
5.07807e-11
7.19237e-11
1.10411e-10
1.78164e-10
2.92573e-10
4.81098e-10
7.8084e-10
1.23817e-09
1.90433e-09
2.84961e-09
4.0565e-09
5.53375e-09
7.19281e-09
8.8325e-09
1.01021e-08
1.04855e-08
9.40429e-09
6.70067e-09
3.66518e-09
2.00909e-09
1.09248e-09
5.8745e-10
3.13502e-10
1.70003e-10
1.03474e-10
8.67762e-11
1.14266e-10
1.92729e-10
2.65566e-10
3.01423e-10
3.10899e-10
2.91701e-10
2.35539e-10
1.52851e-10
8.07439e-11
3.43717e-11
1.25886e-11
4.10662e-12
1.24712e-12
3.67129e-13
1.07896e-13
3.2073e-14
9.63427e-15
2.90214e-15
8.69469e-16
2.57505e-16
7.5119e-17
2.15484e-17
6.07483e-18
1.68418e-18
4.59802e-19
1.23819e-19
3.28704e-20
8.59803e-21
2.21008e-21
5.54052e-22
1.33188e-22
2.95389e-23
5.51118e-24
5.59187e-25
1.69004e-14
6.54963e-14
1.39676e-13
2.56881e-13
4.41854e-13
7.32606e-13
1.18729e-12
1.89395e-12
2.98277e-12
4.59024e-12
6.93498e-12
1.03282e-11
1.518e-11
2.20036e-11
3.14045e-11
4.40356e-11
6.0497e-11
8.11729e-11
1.05991e-10
1.34139e-10
1.63837e-10
1.92341e-10
2.16413e-10
2.3315e-10
2.41053e-10
2.40203e-10
2.31412e-10
2.14734e-10
1.91806e-10
1.6471e-10
1.36957e-10
1.1183e-10
9.02166e-11
7.27329e-11
5.89101e-11
4.83891e-11
4.10249e-11
3.6921e-11
3.64486e-11
4.06066e-11
5.14755e-11
7.3054e-11
1.12359e-10
1.81578e-10
2.98499e-10
4.91182e-10
7.97482e-10
1.26448e-09
1.94424e-09
2.90721e-09
4.13467e-09
5.63305e-09
7.30926e-09
8.95371e-09
1.02035e-08
1.05311e-08
9.35806e-09
6.57562e-09
3.60157e-09
1.9732e-09
1.07204e-09
5.7585e-10
3.07086e-10
1.67208e-10
1.02983e-10
8.8609e-11
1.1954e-10
2.00743e-10
2.72539e-10
3.06934e-10
3.14883e-10
2.92873e-10
2.33211e-10
1.49647e-10
7.8044e-11
3.28785e-11
1.19425e-11
3.87234e-12
1.17203e-12
3.44669e-13
1.01343e-13
3.01556e-14
9.06664e-15
2.73287e-15
8.19094e-16
2.42664e-16
7.08181e-17
2.03299e-17
5.74119e-18
1.59527e-18
4.36098e-19
1.17469e-19
3.11908e-20
8.159e-21
2.0964e-21
5.25398e-22
1.26275e-22
2.80017e-23
5.22386e-24
5.30012e-25
1.68849e-14
6.54371e-14
1.39552e-13
2.56654e-13
4.41469e-13
7.3198e-13
1.18631e-12
1.89246e-12
2.97984e-12
4.58502e-12
6.92683e-12
1.03165e-11
1.51642e-11
2.19836e-11
3.13813e-11
4.4012e-11
6.0482e-11
8.11793e-11
1.0604e-10
1.34262e-10
1.64075e-10
1.92739e-10
2.16978e-10
2.3391e-10
2.41985e-10
2.41271e-10
2.32565e-10
2.15919e-10
1.92967e-10
1.65787e-10
1.37901e-10
1.12633e-10
9.0891e-11
7.32897e-11
5.93619e-11
4.87635e-11
4.13502e-11
3.72296e-11
3.67786e-11
4.10291e-11
5.2088e-11
7.40311e-11
1.13998e-10
1.84399e-10
3.03462e-10
4.99846e-10
8.12298e-10
1.28802e-09
1.97989e-09
2.95732e-09
4.20231e-09
5.71876e-09
7.4083e-09
9.05449e-09
1.0285e-08
1.05617e-08
9.30889e-09
6.46026e-09
3.54248e-09
1.94028e-09
1.05358e-09
5.65173e-10
3.01213e-10
1.64486e-10
1.02465e-10
9.02606e-11
1.24346e-10
2.07665e-10
2.78234e-10
3.114e-10
3.17853e-10
2.93488e-10
2.30907e-10
1.46851e-10
7.57711e-11
3.16167e-11
1.1396e-11
3.67408e-12
1.10839e-12
3.25597e-13
9.57669e-14
2.85213e-14
8.5825e-15
2.58855e-15
7.7616e-16
2.30012e-16
6.71415e-17
1.92775e-17
5.44335e-18
1.51261e-18
4.14192e-19
1.11714e-19
2.96864e-20
7.76555e-21
1.99578e-21
5.00299e-22
1.20265e-22
2.66727e-23
4.97626e-24
5.04903e-25
1.68734e-14
6.53932e-14
1.39459e-13
2.56487e-13
4.41186e-13
7.31522e-13
1.1856e-12
1.8914e-12
2.97769e-12
4.58114e-12
6.9208e-12
1.0308e-11
1.5153e-11
2.19701e-11
3.13667e-11
4.39999e-11
6.04792e-11
8.11976e-11
1.06098e-10
1.34382e-10
1.6429e-10
1.93084e-10
2.17486e-10
2.34584e-10
2.42807e-10
2.42203e-10
2.3357e-10
2.1696e-10
1.93955e-10
1.66683e-10
1.38676e-10
1.13278e-10
9.14176e-11
7.37264e-11
5.97209e-11
4.90664e-11
4.16142e-11
3.74822e-11
3.70556e-11
4.13776e-11
5.25884e-11
7.48166e-11
1.15308e-10
1.86575e-10
3.07039e-10
5.05533e-10
8.2767e-10
1.30982e-09
2.01136e-09
3.00081e-09
4.26075e-09
5.7916e-09
7.4913e-09
9.13733e-09
1.03484e-08
1.05809e-08
9.2612e-09
6.36097e-09
3.49128e-09
1.91281e-09
1.04065e-09
5.52433e-10
2.94716e-10
1.61523e-10
1.01795e-10
9.16312e-11
1.28502e-10
2.13211e-10
2.8275e-10
3.14885e-10
3.2014e-10
2.93731e-10
2.28766e-10
1.44483e-10
7.37071e-11
3.04482e-11
1.08896e-11
3.49205e-12
1.05071e-12
3.08544e-13
9.08436e-14
2.70947e-14
8.16412e-15
2.4649e-15
7.39645e-16
2.19316e-16
6.40478e-17
1.83957e-17
5.19548e-18
1.44365e-18
3.94998e-19
1.06501e-19
2.83076e-20
7.41219e-21
1.90667e-21
4.78312e-22
1.15045e-22
2.55251e-23
4.76329e-24
4.83335e-25
1.68651e-14
6.53613e-14
1.39392e-13
2.56365e-13
4.40982e-13
7.31194e-13
1.18509e-12
1.89065e-12
2.97613e-12
4.57831e-12
6.91644e-12
1.0302e-11
1.51453e-11
2.19612e-11
3.13582e-11
4.39951e-11
6.04842e-11
8.12233e-11
1.06161e-10
1.34505e-10
1.64495e-10
1.93401e-10
2.17934e-10
2.35168e-10
2.43508e-10
2.42985e-10
2.34394e-10
2.17796e-10
1.94769e-10
1.67438e-10
1.39327e-10
1.13828e-10
9.18674e-11
7.40881e-11
6.00182e-11
4.93167e-11
4.18372e-11
3.76975e-11
3.72902e-11
4.16781e-11
5.30314e-11
7.55382e-11
1.16536e-10
1.88701e-10
3.10771e-10
5.12016e-10
8.38492e-10
1.32676e-09
2.03661e-09
3.03601e-09
4.30803e-09
5.85068e-09
7.5586e-09
9.20425e-09
1.03998e-08
1.05948e-08
9.21872e-09
6.27482e-09
3.44646e-09
1.8878e-09
1.02653e-09
5.44738e-10
2.90508e-10
1.59559e-10
1.01462e-10
9.29264e-11
1.32173e-10
2.17777e-10
2.86359e-10
3.17633e-10
3.2186e-10
2.93877e-10
2.27403e-10
1.43259e-10
7.05854e-11
2.90184e-11
1.03469e-11
3.31501e-12
9.98311e-13
2.9376e-13
8.67036e-14
2.59172e-14
7.82248e-15
2.3645e-15
7.1007e-16
2.10662e-16
6.15472e-17
1.76841e-17
4.99614e-18
1.38866e-18
3.80035e-19
1.02488e-19
2.72468e-20
7.13641e-21
1.8363e-21
4.60794e-22
1.10859e-22
2.46008e-23
4.59127e-24
4.65872e-25
1.68593e-14
6.53393e-14
1.39346e-13
2.56283e-13
4.40843e-13
7.30975e-13
1.18476e-12
1.89018e-12
2.97508e-12
4.57634e-12
6.9134e-12
1.02978e-11
1.51403e-11
2.19558e-11
3.13539e-11
4.39948e-11
6.04932e-11
8.12507e-11
1.0622e-10
1.34615e-10
1.64678e-10
1.93671e-10
2.18307e-10
2.35647e-10
2.44079e-10
2.43621e-10
2.35071e-10
2.1847e-10
1.95409e-10
1.68015e-10
1.39826e-10
1.14246e-10
9.22095e-11
7.43679e-11
6.02503e-11
4.95139e-11
4.20098e-11
3.78634e-11
3.74756e-11
4.19197e-11
5.33906e-11
7.61245e-11
1.1754e-10
1.90443e-10
3.13802e-10
5.17171e-10
8.46771e-10
1.33987e-09
2.05637e-09
3.06367e-09
4.3454e-09
5.89767e-09
7.61245e-09
9.2576e-09
1.04404e-08
1.06049e-08
9.18243e-09
6.20272e-09
3.40892e-09
1.86683e-09
1.01467e-09
5.38557e-10
2.87227e-10
1.58053e-10
1.01225e-10
9.39397e-11
1.34989e-10
2.21477e-10
2.8931e-10
3.19898e-10
3.23295e-10
2.93986e-10
2.26078e-10
1.41423e-10
6.91338e-11
2.8241e-11
1.00207e-11
3.19989e-12
9.62256e-13
2.8317e-13
8.36545e-14
2.5034e-14
7.56334e-15
2.28787e-15
6.87435e-16
2.04031e-16
5.96301e-17
1.7138e-17
4.843e-18
1.34641e-18
3.6857e-19
9.94243e-20
2.644e-20
6.92695e-21
1.78282e-21
4.47462e-22
1.07668e-22
2.38949e-23
4.45974e-24
4.52535e-25
1.68555e-14
6.5325e-14
1.39316e-13
2.56229e-13
4.40755e-13
7.30837e-13
1.18456e-12
1.88989e-12
2.9744e-12
4.57503e-12
6.91139e-12
1.02951e-11
1.51371e-11
2.19527e-11
3.1352e-11
4.39966e-11
6.05032e-11
8.12758e-11
1.0627e-10
1.34704e-10
1.64822e-10
1.93888e-10
2.18605e-10
2.3602e-10
2.44517e-10
2.44105e-10
2.35571e-10
2.18971e-10
1.95883e-10
1.68442e-10
1.40192e-10
1.14552e-10
9.24605e-11
7.45738e-11
6.04204e-11
4.96578e-11
4.21372e-11
3.79884e-11
3.76148e-11
4.21018e-11
5.36636e-11
7.65706e-11
1.18303e-10
1.91746e-10
3.16055e-10
5.20994e-10
8.5289e-10
1.34959e-09
2.07102e-09
3.0842e-09
4.37322e-09
5.93268e-09
7.65255e-09
9.29755e-09
1.04704e-08
1.06117e-08
9.15426e-09
6.14832e-09
3.38011e-09
1.85074e-09
1.0056e-09
5.33855e-10
2.84744e-10
1.56925e-10
1.01045e-10
9.46854e-11
1.37051e-10
2.24259e-10
2.91534e-10
3.21631e-10
3.24397e-10
2.94065e-10
2.25053e-10
1.40027e-10
6.81093e-11
2.77131e-11
9.80308e-12
3.12378e-12
9.38387e-13
2.76102e-13
8.15956e-14
2.44301e-14
7.38406e-15
2.23431e-15
6.71482e-16
1.99328e-16
5.82647e-17
1.6749e-17
4.73444e-18
1.31661e-18
3.60494e-19
9.72611e-20
2.58675e-20
6.77765e-21
1.74457e-21
4.379e-22
1.05374e-22
2.3387e-23
4.36501e-24
4.42924e-25
1.68533e-14
6.53166e-14
1.39299e-13
2.56198e-13
4.40704e-13
7.30759e-13
1.18444e-12
1.88974e-12
2.974e-12
4.57425e-12
6.91019e-12
1.02936e-11
1.51353e-11
2.19511e-11
3.13515e-11
4.39988e-11
6.0511e-11
8.12937e-11
1.06305e-10
1.34764e-10
1.64919e-10
1.94031e-10
2.18802e-10
2.3627e-10
2.4481e-10
2.44426e-10
2.35908e-10
2.1931e-10
1.96205e-10
1.68732e-10
1.4044e-10
1.14756e-10
9.26269e-11
7.47104e-11
6.05335e-11
4.97528e-11
4.22213e-11
3.8071e-11
3.77083e-11
4.2226e-11
5.38498e-11
7.68737e-11
1.18817e-10
1.92628e-10
3.1757e-10
5.23538e-10
8.56929e-10
1.356e-09
2.0807e-09
3.09777e-09
4.39158e-09
5.95578e-09
7.679e-09
9.3239e-09
1.04905e-08
1.06162e-08
9.13569e-09
6.11283e-09
3.36051e-09
1.8398e-09
9.99464e-10
5.30673e-10
2.83072e-10
1.56163e-10
1.00913e-10
9.51561e-11
1.38364e-10
2.2611e-10
2.93012e-10
3.22778e-10
3.25119e-10
2.94102e-10
2.24369e-10
1.39117e-10
6.74589e-11
2.73779e-11
9.66625e-12
3.07637e-12
9.23588e-13
2.71715e-13
8.03121e-14
2.40517e-14
7.27117e-15
2.20046e-15
6.61362e-16
1.96335e-16
5.73926e-17
1.6499e-17
4.66388e-18
1.29704e-18
3.55169e-19
9.58369e-20
2.54925e-20
6.68032e-21
1.71972e-21
4.31705e-22
1.0389e-22
2.30585e-23
4.30377e-24
4.36711e-25
1.68523e-14
6.53129e-14
1.39291e-13
2.56184e-13
4.40682e-13
7.30724e-13
1.18439e-12
1.88968e-12
2.97383e-12
4.57389e-12
6.90964e-12
1.02928e-11
1.51345e-11
2.19504e-11
3.13514e-11
4.40001e-11
6.05152e-11
8.13032e-11
1.06323e-10
1.34796e-10
1.64969e-10
1.94105e-10
2.18902e-10
2.36397e-10
2.4496e-10
2.4459e-10
2.36079e-10
2.19479e-10
1.96364e-10
1.68875e-10
1.40561e-10
1.14857e-10
9.27096e-11
7.47781e-11
6.05891e-11
4.97998e-11
4.22631e-11
3.81122e-11
3.77549e-11
4.22872e-11
5.39414e-11
7.70231e-11
1.19072e-10
1.93064e-10
3.18323e-10
5.2481e-10
8.58945e-10
1.3592e-09
2.08551e-09
3.10449e-09
4.40069e-09
5.96724e-09
7.69212e-09
9.3369e-09
1.05003e-08
1.06184e-08
9.12672e-09
6.09533e-09
3.3508e-09
1.83438e-09
9.96412e-10
5.29085e-10
2.8224e-10
1.55788e-10
1.00859e-10
9.54119e-11
1.39056e-10
2.27037e-10
2.93743e-10
3.23343e-10
3.2547e-10
2.94115e-10
2.24031e-10
1.38675e-10
6.71477e-11
2.72199e-11
9.60175e-12
3.05414e-12
9.16683e-13
2.69672e-13
7.97144e-14
2.38754e-14
7.21854e-15
2.18466e-15
6.56635e-16
1.94935e-16
5.6984e-17
1.63816e-17
4.63075e-18
1.28785e-18
3.52659e-19
9.51625e-20
2.53141e-20
6.6338e-21
1.7078e-21
4.28722e-22
1.03174e-22
2.28996e-23
4.2741e-24
4.33698e-25
1.68523e-14
6.5313e-14
1.39291e-13
2.56185e-13
4.40683e-13
7.30726e-13
1.1844e-12
1.88968e-12
2.97383e-12
4.5739e-12
6.90964e-12
1.02929e-11
1.51345e-11
2.19504e-11
3.13514e-11
4.40001e-11
6.05152e-11
8.13032e-11
1.06323e-10
1.34796e-10
1.64969e-10
1.94105e-10
2.18902e-10
2.36397e-10
2.4496e-10
2.4459e-10
2.36079e-10
2.1948e-10
1.96364e-10
1.68876e-10
1.40562e-10
1.14857e-10
9.27101e-11
7.47786e-11
6.05895e-11
4.98002e-11
4.22634e-11
3.81125e-11
3.77552e-11
4.22876e-11
5.39419e-11
7.70238e-11
1.19073e-10
1.93066e-10
3.18326e-10
5.24815e-10
8.58952e-10
1.35921e-09
2.08552e-09
3.1045e-09
4.4007e-09
5.96724e-09
7.69211e-09
9.33687e-09
1.05002e-08
1.06184e-08
9.12666e-09
6.09529e-09
3.35078e-09
1.83437e-09
9.96408e-10
5.29079e-10
2.82239e-10
1.55791e-10
1.00869e-10
9.544e-11
1.39128e-10
2.27057e-10
2.93744e-10
3.23339e-10
3.25466e-10
2.94113e-10
2.24031e-10
1.38676e-10
6.71487e-11
2.72204e-11
9.60197e-12
3.05422e-12
9.16708e-13
2.69679e-13
7.97164e-14
2.3876e-14
7.21872e-15
2.18471e-15
6.56651e-16
1.9494e-16
5.69853e-17
1.6382e-17
4.63086e-18
1.28788e-18
3.52667e-19
9.51647e-20
2.53146e-20
6.63394e-21
1.70783e-21
4.2873e-22
1.03176e-22
2.29e-23
4.27418e-24
4.33706e-25
1.68534e-14
6.5317e-14
1.393e-13
2.562e-13
4.40707e-13
7.30763e-13
1.18445e-12
1.88975e-12
2.97402e-12
4.57426e-12
6.91021e-12
1.02936e-11
1.51353e-11
2.19511e-11
3.13515e-11
4.39988e-11
6.0511e-11
8.12938e-11
1.06305e-10
1.34764e-10
1.64919e-10
1.94031e-10
2.18801e-10
2.3627e-10
2.44811e-10
2.44427e-10
2.35909e-10
2.1931e-10
1.96205e-10
1.68734e-10
1.40442e-10
1.14758e-10
9.26285e-11
7.47118e-11
6.05347e-11
4.97539e-11
4.22224e-11
3.80722e-11
3.77097e-11
4.22274e-11
5.38515e-11
7.68762e-11
1.18821e-10
1.92634e-10
3.17581e-10
5.23556e-10
8.56954e-10
1.35603e-09
2.08073e-09
3.09779e-09
4.3916e-09
5.9558e-09
7.67899e-09
9.32383e-09
1.04904e-08
1.0616e-08
9.13548e-09
6.11267e-09
3.36043e-09
1.83976e-09
9.99444e-10
5.30658e-10
2.83064e-10
1.56156e-10
1.00904e-10
9.51377e-11
1.38321e-10
2.26073e-10
2.92984e-10
3.22758e-10
3.25106e-10
2.94097e-10
2.2437e-10
1.3912e-10
6.7462e-11
2.73795e-11
9.66691e-12
3.0766e-12
9.2366e-13
2.71736e-13
8.03181e-14
2.40534e-14
7.27168e-15
2.20061e-15
6.61407e-16
1.96349e-16
5.73965e-17
1.65001e-17
4.6642e-18
1.29713e-18
3.55194e-19
9.58431e-20
2.5494e-20
6.68069e-21
1.71981e-21
4.31726e-22
1.03895e-22
2.30596e-23
4.30397e-24
4.36731e-25
1.68557e-14
6.53255e-14
1.39317e-13
2.56231e-13
4.40758e-13
7.30842e-13
1.18456e-12
1.88991e-12
2.97441e-12
4.57505e-12
6.91141e-12
1.02952e-11
1.51371e-11
2.19527e-11
3.13521e-11
4.39967e-11
6.05033e-11
8.12758e-11
1.0627e-10
1.34703e-10
1.64822e-10
1.93888e-10
2.18604e-10
2.3602e-10
2.44517e-10
2.44104e-10
2.35572e-10
2.18972e-10
1.95884e-10
1.68443e-10
1.40193e-10
1.14553e-10
9.24615e-11
7.45748e-11
6.04214e-11
4.96588e-11
4.21383e-11
3.79897e-11
3.76166e-11
4.21046e-11
5.36674e-11
7.65758e-11
1.1831e-10
1.91761e-10
3.16074e-10
5.2101e-10
8.52903e-10
1.34959e-09
2.07104e-09
3.08423e-09
4.37323e-09
5.93267e-09
7.65249e-09
9.29741e-09
1.04702e-08
1.06114e-08
9.15386e-09
6.14799e-09
3.37993e-09
1.85065e-09
1.00556e-09
5.33833e-10
2.84733e-10
1.56918e-10
1.01039e-10
9.46737e-11
1.37023e-10
2.24218e-10
2.91498e-10
3.21605e-10
3.24382e-10
2.94061e-10
2.25058e-10
1.40035e-10
6.81153e-11
2.77163e-11
9.80439e-12
3.12423e-12
9.38526e-13
2.76142e-13
8.16072e-14
2.44335e-14
7.38503e-15
2.2346e-15
6.71566e-16
1.99353e-16
5.82717e-17
1.6751e-17
4.73502e-18
1.31677e-18
3.6054e-19
9.72736e-20
2.58709e-20
6.77849e-21
1.74477e-21
4.37949e-22
1.05385e-22
2.33892e-23
4.36541e-24
4.42964e-25
1.68594e-14
6.53398e-14
1.39347e-13
2.56285e-13
4.40847e-13
7.30981e-13
1.18477e-12
1.89019e-12
2.9751e-12
4.57636e-12
6.91342e-12
1.02979e-11
1.51403e-11
2.19558e-11
3.13539e-11
4.39948e-11
6.04932e-11
8.12506e-11
1.0622e-10
1.34615e-10
1.64677e-10
1.9367e-10
2.18306e-10
2.35646e-10
2.44077e-10
2.43618e-10
2.35069e-10
2.18468e-10
1.95407e-10
1.68014e-10
1.39825e-10
1.14246e-10
9.22098e-11
7.43682e-11
6.02503e-11
4.95131e-11
4.20099e-11
3.78639e-11
3.74763e-11
4.19208e-11
5.33924e-11
7.61288e-11
1.17547e-10
1.90448e-10
3.13807e-10
5.17181e-10
8.46796e-10
1.33992e-09
2.05641e-09
3.06372e-09
4.34545e-09
5.89767e-09
7.61233e-09
9.25731e-09
1.04399e-08
1.06043e-08
9.18185e-09
6.20227e-09
3.40869e-09
1.86671e-09
1.01461e-09
5.3853e-10
2.87213e-10
1.58044e-10
1.01214e-10
9.39212e-11
1.34956e-10
2.21435e-10
2.89274e-10
3.19874e-10
3.23286e-10
2.93991e-10
2.26093e-10
1.41437e-10
6.91437e-11
2.82459e-11
1.00226e-11
3.20055e-12
9.62457e-13
2.83228e-13
8.36709e-14
2.50387e-14
7.5647e-15
2.28827e-15
6.87551e-16
2.04065e-16
5.96396e-17
1.71406e-17
4.8437e-18
1.34659e-18
3.68615e-19
9.94356e-20
2.64427e-20
6.92761e-21
1.78298e-21
4.47497e-22
1.07675e-22
2.38964e-23
4.45999e-24
4.52558e-25
1.68652e-14
6.53618e-14
1.39393e-13
2.56367e-13
4.40985e-13
7.31201e-13
1.1851e-12
1.89067e-12
2.97615e-12
4.57833e-12
6.91646e-12
1.0302e-11
1.51454e-11
2.19613e-11
3.13583e-11
4.39951e-11
6.04841e-11
8.12232e-11
1.0616e-10
1.34504e-10
1.64494e-10
1.93399e-10
2.17932e-10
2.35166e-10
2.43506e-10
2.42983e-10
2.34391e-10
2.17792e-10
1.94764e-10
1.6743e-10
1.39323e-10
1.13827e-10
9.18678e-11
7.40893e-11
6.00198e-11
4.9319e-11
4.18384e-11
3.76981e-11
3.72904e-11
4.1678e-11
5.3031e-11
7.55371e-11
1.16534e-10
1.887e-10
3.10772e-10
5.12023e-10
8.38512e-10
1.32679e-09
2.03668e-09
3.03609e-09
4.30812e-09
5.85074e-09
7.55855e-09
9.20401e-09
1.03993e-08
1.0594e-08
9.21786e-09
6.27422e-09
3.44615e-09
1.88765e-09
1.02646e-09
5.44698e-10
2.90485e-10
1.59539e-10
1.01434e-10
9.28723e-11
1.32061e-10
2.17702e-10
2.86308e-10