/*--------------------------------*- C++ -*----------------------------------*\
  =========                 |
  \\      /  F ield         | OpenFOAM: The Open Source CFD Toolbox
   \\    /   O peration     | Website:  https://openfoam.org
    \\  /    A nd           | Version:  10
     \\/     M anipulation  |
\*---------------------------------------------------------------------------*/
FoamFile
{
    format      ascii;
    class       volScalarField;
    location    "1";
    object      CH4;
}
// * * * * * * * * * * * * * * * * * * * * * * * * * * * * * * * * * * * * * //

dimensions      [0 0 0 0 0 0 0];

internalField   nonuniform List<scalar> 
4000
(
0.999993
0.999971
0.999939
0.999888
0.999807
0.99968
0.999481
0.999171
0.998691
0.997978
0.996932
0.995407
0.993208
0.990077
0.985694
0.979675
0.971592
0.961008
0.947519
0.930812
0.910704
0.887178
0.860386
0.830458
0.797924
0.763948
0.728212
0.690577
0.65262
0.6139
0.575471
0.537218
0.499609
0.463062
0.427774
0.393886
0.361492
0.330636
0.301393
0.273752
0.247511
0.223028
0.20006
0.178499
0.158417
0.13944
0.122005
0.105504
0.090463
0.0761588
0.0632921
0.0515519
0.0409106
0.0314198
0.0231516
0.0161871
0.0105984
0.00642338
0.00362617
0.00199534
0.00109978
0.00060124
0.000324316
0.000171755
8.81776e-05
4.41594e-05
2.13996e-05
1.01103e-05
4.74742e-06
2.60073e-06
1.71676e-06
1.28461e-06
1.01593e-06
8.13709e-07
6.44966e-07
4.99552e-07
3.69654e-07
2.62366e-07
1.77881e-07
1.15112e-07
7.13011e-08
4.25059e-08
2.45498e-08
1.38227e-08
7.62628e-09
4.13934e-09
2.21687e-09
1.17418e-09
6.16863e-10
3.21912e-10
1.67094e-10
8.63548e-11
4.44487e-11
2.27701e-11
1.15789e-11
5.81013e-12
2.841e-12
1.31617e-12
5.34966e-13
1.23482e-13
0.999993
0.999971
0.999939
0.999888
0.999807
0.999679
0.99948
0.99917
0.998689
0.997975
0.996928
0.995405
0.993211
0.990093
0.985737
0.97977
0.971784
0.961344
0.948044
0.931561
0.911695
0.888396
0.861763
0.832218
0.799969
0.766243
0.730719
0.693128
0.655224
0.616412
0.577802
0.539329
0.501571
0.464808
0.42933
0.395266
0.362708
0.331676
0.302287
0.274506
0.24813
0.22353
0.200458
0.178785
0.158618
0.139563
0.122048
0.105479
0.0903782
0.0760206
0.0631342
0.0513609
0.0406963
0.0311953
0.0229284
0.0159787
0.0104194
0.00628829
0.00353801
0.00194861
0.00107343
0.000586252
0.000315731
0.00016682
8.54508e-05
4.26338e-05
2.05777e-05
9.7086e-06
4.58561e-06
2.55382e-06
1.70875e-06
1.28598e-06
1.0176e-06
8.13128e-07
6.41355e-07
4.93878e-07
3.63344e-07
2.56412e-07
1.7297e-07
1.11529e-07
6.89681e-08
4.1134e-08
2.38111e-08
1.34539e-08
7.45412e-09
4.06408e-09
2.18666e-09
1.1638e-09
6.13305e-10
3.20673e-10
1.66633e-10
8.61554e-11
4.43425e-11
2.27049e-11
1.15389e-11
5.78515e-12
2.82598e-12
1.30801e-12
5.31301e-13
1.22578e-13
0.999993
0.999971
0.999939
0.999887
0.999806
0.999678
0.999478
0.999167
0.998686
0.99797
0.996923
0.995401
0.99321
0.990104
0.985774
0.979857
0.971941
0.961603
0.94845
0.932166
0.912557
0.889578
0.863273
0.83393
0.801889
0.768329
0.732873
0.695427
0.657592
0.618736
0.580202
0.541772
0.504008
0.46707
0.431398
0.397133
0.364372
0.333121
0.303535
0.275564
0.248997
0.224224
0.200997
0.179169
0.158861
0.139698
0.122076
0.105409
0.09022
0.075787
0.0628595
0.0510319
0.0403348
0.0308206
0.0225603
0.0156426
0.0101369
0.00607314
0.00339825
0.00187406
0.00103127
0.000562269
0.000301851
0.000158854
8.11594e-05
4.03027e-05
1.93589e-05
9.10986e-06
4.35712e-06
2.48761e-06
1.69716e-06
1.28811e-06
1.02087e-06
8.14976e-07
6.35386e-07
4.87699e-07
3.56916e-07
2.50597e-07
1.68329e-07
1.08217e-07
6.68206e-08
3.98471e-08
2.3086e-08
1.30643e-08
7.25225e-09
3.96223e-09
2.13602e-09
1.13863e-09
6.01284e-10
3.15081e-10
1.64081e-10
8.50116e-11
4.38412e-11
2.24848e-11
1.14349e-11
5.73362e-12
2.80005e-12
1.29542e-12
5.25942e-13
1.213e-13
0.999993
0.999971
0.999939
0.999887
0.999806
0.999678
0.999479
0.999168
0.998687
0.997973
0.99693
0.995416
0.993242
0.990162
0.985872
0.980009
0.972171
0.961938
0.948918
0.932791
0.913353
0.89054
0.864467
0.835317
0.80342
0.770031
0.734729
0.697384
0.659723
0.620994
0.582541
0.544142
0.506352
0.469328
0.433447
0.398997
0.366037
0.334571
0.304784
0.276618
0.249858
0.224913
0.201512
0.179494
0.159044
0.139768
0.12203
0.105261
0.0899842
0.0754742
0.0624892
0.0506172
0.0398887
0.0303604
0.022118
0.0152395
0.00979663
0.00581788
0.00323661
0.00178693
0.000982455
0.000535839
0.000284256
0.000149072
7.59795e-05
3.75201e-05
1.79213e-05
8.42026e-06
4.12029e-06
2.42162e-06
1.68567e-06
1.2893e-06
1.02212e-06
8.12763e-07
6.32454e-07
4.81818e-07
3.49713e-07
2.43677e-07
1.62603e-07
1.03995e-07
6.39885e-08
3.8087e-08
2.20559e-08
1.24887e-08
6.94188e-09
3.7995e-09
2.05266e-09
1.0968e-09
5.80672e-10
3.05085e-10
1.59286e-10
8.27191e-11
4.27378e-11
2.19495e-11
1.11761e-11
5.60905e-12
2.74106e-12
1.26874e-12
5.15294e-13
1.18866e-13
0.999993
0.999971
0.999939
0.999887
0.999806
0.999679
0.99948
0.999169
0.998691
0.99798
0.996942
0.995437
0.993276
0.990216
0.985955
0.980136
0.97236
0.962211
0.949296
0.933294
0.913992
0.891318
0.865367
0.8364
0.804737
0.771611
0.736617
0.699373
0.661761
0.623085
0.584657
0.546273
0.50845
0.471374
0.435351
0.400682
0.367516
0.335847
0.305866
0.277511
0.250566
0.225445
0.201884
0.179702
0.159119
0.139738
0.121895
0.10504
0.0896848
0.0751009
0.0620552
0.0501375
0.0393809
0.0298504
0.0216269
0.0147965
0.00942961
0.00554932
0.00307339
0.00169542
0.000930462
0.000505663
0.000267049
0.000139284
7.06791e-05
3.47018e-05
1.64806e-05
7.71672e-06
3.89149e-06
2.35879e-06
1.67386e-06
1.2893e-06
1.02185e-06
8.09369e-07
6.30483e-07
4.71776e-07
3.40438e-07
2.35848e-07
1.56586e-07
9.97637e-08
6.12369e-08
3.64092e-08
2.1083e-08
1.19456e-08
6.64732e-09
3.64325e-09
1.97121e-09
1.05493e-09
5.59381e-10
2.94344e-10
1.53893e-10
8.00172e-11
4.13886e-11
2.128e-11
1.08471e-11
5.44943e-12
2.66529e-12
1.23443e-12
5.01557e-13
1.15712e-13
0.999993
0.999971
0.999939
0.999888
0.999807
0.99968
0.999481
0.999173
0.998696
0.997989
0.996955
0.995457
0.993306
0.990262
0.986025
0.980241
0.972515
0.962434
0.949612
0.933733
0.914593
0.892131
0.866442
0.837674
0.806135
0.773095
0.738141
0.700977
0.663463
0.624854
0.586445
0.548067
0.510175
0.47302
0.436832
0.40202
0.368697
0.336863
0.306717
0.278203
0.251092
0.225815
0.202105
0.179771
0.159062
0.139591
0.121637
0.104755
0.0893093
0.0746438
0.0615417
0.0495905
0.0388245
0.0293036
0.0211126
0.0143411
0.00905949
0.0052851
0.00291797
0.00160821
0.000881262
0.000477986
0.000251742
0.00013079
6.59978e-05
3.22021e-05
1.52006e-05
7.13257e-06
3.68978e-06
2.30154e-06
1.66045e-06
1.28607e-06
1.01875e-06
8.04099e-07
6.22956e-07
4.62989e-07
3.31798e-07
2.28362e-07
1.50756e-07
9.56257e-08
5.85205e-08
3.47347e-08
2.00998e-08
1.13895e-08
6.34164e-09
3.479e-09
1.88453e-09
1.00984e-09
5.36181e-10
2.825e-10
1.47871e-10
7.695e-11
3.98356e-11
2.05022e-11
1.04636e-11
5.26382e-12
2.57762e-12
1.19487e-12
4.85725e-13
1.12077e-13
0.999993
0.999972
0.999939
0.999888
0.999808
0.999681
0.999484
0.999176
0.998701
0.997998
0.99697
0.995479
0.993341
0.990316
0.986106
0.98036
0.972685
0.962673
0.949938
0.934168
0.915134
0.892792
0.867207
0.83857
0.807166
0.77425
0.739437
0.702362
0.664898
0.626327
0.587949
0.549607
0.511487
0.474287
0.438019
0.403065
0.369594
0.337614
0.307319
0.278665
0.251434
0.226024
0.202182
0.179708
0.15886
0.139402
0.12133
0.104445
0.0889146
0.0741787
0.0610306
0.0490503
0.0382725
0.0287624
0.0206076
0.0138988
0.00870558
0.0050384
0.00277802
0.00152939
0.000836657
0.000452666
0.000237744
0.00012299
6.17981e-05
3.00306e-05
1.42043e-05
6.57296e-06
3.49647e-06
2.24256e-06
1.64272e-06
1.27884e-06
1.01265e-06
7.96409e-07
6.14341e-07
4.53842e-07
3.23248e-07
2.21196e-07
1.45305e-07
9.18168e-08
5.6044e-08
3.32153e-08
1.92086e-08
1.08844e-08
6.06286e-09
3.32829e-09
1.80443e-09
9.67888e-10
5.1452e-10
2.71476e-10
1.42358e-10
7.42597e-11
3.85188e-11
1.98393e-11
1.0126e-11
5.09256e-12
2.49311e-12
1.15551e-12
4.69686e-13
1.08372e-13
0.999993
0.999972
0.99994
0.999889
0.999809
0.999683
0.999486
0.999181
0.998709
0.99801
0.99699
0.995513
0.993393
0.990395
0.986223
0.980528
0.972919
0.962987
0.950347
0.934679
0.915768
0.893536
0.868028
0.839448
0.808157
0.77539
0.74064
0.703634
0.666237
0.6277
0.589181
0.550787
0.512567
0.475288
0.438932
0.403845
0.370233
0.338142
0.307719
0.278878
0.251689
0.226129
0.202158
0.179571
0.158631
0.139116
0.120971
0.104108
0.0885098
0.0737184
0.0605271
0.0485217
0.0377381
0.028244
0.0201287
0.0134841
0.00837824
0.00481424
0.00265261
0.00145871
0.000796477
0.000429831
0.000225252
0.000116116
5.80611e-05
2.80857e-05
1.3239e-05
6.15388e-06
3.3542e-06
2.19985e-06
1.62918e-06
1.27249e-06
1.00649e-06
7.88359e-07
6.04922e-07
4.44435e-07
3.14846e-07
2.14383e-07
1.40246e-07
8.83451e-08
5.38146e-08
3.1857e-08
1.84139e-08
1.04336e-08
5.81325e-09
3.19271e-09
1.73194e-09
9.29642e-10
4.94551e-10
2.61129e-10
1.37017e-10
7.15023e-11
3.71158e-11
1.91461e-11
9.7843e-12
4.92428e-12
2.41128e-12
1.11731e-12
4.54062e-13
1.04756e-13
0.999993
0.999972
0.99994
0.999889
0.99981
0.999684
0.999489
0.999184
0.998715
0.998021
0.997008
0.995539
0.993433
0.990453
0.986307
0.980647
0.973082
0.963205
0.950629
0.935019
0.916193
0.894022
0.868621
0.84018
0.808945
0.776213
0.741531
0.704609
0.667252
0.628798
0.589949
0.551599
0.513353
0.47603
0.439611
0.404422
0.370693
0.338534
0.307985
0.27901
0.25174
0.226092
0.202032
0.179361
0.158351
0.138777
0.120568
0.103671
0.0880323
0.0732163
0.0600139
0.0480042
0.037229
0.0277579
0.0196858
0.0131055
0.00808351
0.00461545
0.00254179
0.00139637
0.000761263
0.000409834
0.000214732
0.000110291
5.49198e-05
2.64427e-05
1.24374e-05
5.82577e-06
3.24408e-06
2.16617e-06
1.61834e-06
1.26769e-06
1.0033e-06
7.76163e-07
5.9444e-07
4.35395e-07
3.07403e-07
2.08628e-07
1.36085e-07
8.5521e-08
5.2001e-08
3.07445e-08
1.77561e-08
1.00559e-08
5.60145e-09
3.07623e-09
1.66895e-09
8.96068e-10
4.76872e-10
2.51911e-10
1.32245e-10
6.90461e-11
3.58661e-11
1.85194e-11
9.47069e-12
4.767e-12
2.33318e-12
1.081e-12
4.39281e-13
1.01348e-13
0.999993
0.999972
0.99994
0.99989
0.99981
0.999686
0.99949
0.999187
0.99872
0.998029
0.997022
0.995561
0.993467
0.990503
0.98638
0.980749
0.973222
0.963392
0.950873
0.93534
0.916565
0.8945
0.869171
0.840751
0.809575
0.776894
0.742248
0.705369
0.668014
0.629559
0.590646
0.552262
0.513966
0.476592
0.440112
0.404842
0.370994
0.338748
0.308118
0.279038
0.251694
0.225973
0.201846
0.179116
0.158052
0.138425
0.120177
0.103247
0.0875806
0.0727554
0.0595364
0.0475222
0.0367554
0.0273128
0.0192857
0.012768
0.00782463
0.00444317
0.00244488
0.00134166
0.000729994
0.000391696
0.000205468
0.000105176
5.21752e-05
2.50257e-05
1.17492e-05
5.56121e-06
3.15557e-06
2.13764e-06
1.60758e-06
1.26129e-06
9.97098e-07
7.69011e-07
5.87046e-07
4.28373e-07
3.01301e-07
2.03742e-07
1.32459e-07
8.30098e-08
5.03618e-08
2.97262e-08
1.71482e-08
9.70431e-09
5.40328e-09
2.96688e-09
1.6097e-09
8.64435e-10
4.60197e-10
2.43204e-10
1.27717e-10
6.6691e-11
3.46448e-11
1.78855e-11
9.14959e-12
4.60946e-12
2.25872e-12
1.04732e-12
4.25783e-13
9.82566e-14
0.999993
0.999972
0.99994
0.99989
0.999811
0.999687
0.999493
0.999191
0.998725
0.998037
0.997033
0.995578
0.993493
0.990544
0.98644
0.980835
0.973341
0.963551
0.951073
0.935596
0.916897
0.894882
0.869601
0.841246
0.810096
0.777443
0.742817
0.705965
0.668607
0.630148
0.591198
0.552776
0.514422
0.476994
0.440453
0.405103
0.371169
0.338854
0.308157
0.278996
0.251591
0.225813
0.201633
0.178858
0.157748
0.138084
0.119803
0.102846
0.0871571
0.0723256
0.0590983
0.0470869
0.0363351
0.0269184
0.0189337
0.0124745
0.00760434
0.00430515
0.002353
0.00129081
0.000701823
0.000375979
0.000197376
0.00010042
4.96841e-05
2.37633e-05
1.11397e-05
5.3414e-06
3.08176e-06
2.11293e-06
1.59751e-06
1.2549e-06
9.91012e-07
7.63855e-07
5.81411e-07
4.22772e-07
2.96263e-07
1.99584e-07
1.29303e-07
8.07923e-08
4.89039e-08
2.88169e-08
1.6604e-08
9.38912e-09
5.22532e-09
2.86851e-09
1.55622e-09
8.35758e-10
4.45005e-10
2.35266e-10
1.23653e-10
6.46533e-11
3.36207e-11
1.73713e-11
8.88745e-12
4.47683e-12
2.19369e-12
1.01723e-12
4.13581e-13
9.54486e-14
0.999993
0.999972
0.99994
0.99989
0.999812
0.999688
0.999494
0.999193
0.99873
0.998045
0.997045
0.995596
0.993517
0.990577
0.986486
0.980903
0.973437
0.96368
0.951247
0.935807
0.917154
0.895183
0.869936
0.841615
0.810499
0.777872
0.74326
0.706427
0.669061
0.630596
0.591613
0.553155
0.514756
0.477275
0.440679
0.405266
0.371259
0.338884
0.308128
0.278899
0.251443
0.225618
0.201397
0.17859
0.157445
0.137749
0.119441
0.102461
0.0867566
0.0719295
0.058695
0.0466849
0.0359467
0.0265588
0.018616
0.0122128
0.0074065
0.00417434
0.00228359
0.00125143
0.000679491
0.000363377
0.000190309
9.67531e-05
4.77178e-05
2.27443e-05
1.06465e-05
5.16828e-06
3.02457e-06
2.09388e-06
1.58947e-06
1.24925e-06
9.85126e-07
7.59783e-07
5.76797e-07
4.18032e-07
2.91899e-07
1.95981e-07
1.26588e-07
7.88966e-08
4.76605e-08
2.80417e-08
1.61397e-08
9.11961e-09
5.07279e-09
2.78392e-09
1.51003e-09
8.1079e-10
4.31558e-10
2.28075e-10
1.19875e-10
6.27024e-11
3.26198e-11
1.68559e-11
8.62919e-12
4.34921e-12
2.13199e-12
9.88867e-13
4.02107e-13
9.28079e-14
0.999993
0.999972
0.999941
0.999891
0.999812
0.999689
0.999496
0.999196
0.998734
0.998051
0.997055
0.995612
0.993541
0.990611
0.986532
0.980962
0.973515
0.963785
0.951383
0.935985
0.917362
0.895419
0.870216
0.841918
0.810825
0.77821
0.743605
0.706782
0.669406
0.630933
0.59192
0.553428
0.514985
0.477463
0.440824
0.405358
0.371289
0.338864
0.30806
0.278779
0.251281
0.225417
0.201157
0.17832
0.157144
0.137421
0.119091
0.102097
0.0863832
0.0715629
0.0583322
0.0463329
0.0356115
0.0262489
0.0183422
0.0119848
0.00723596
0.00406344
0.00222582
0.00121906
0.000661221
0.000353075
0.000184507
9.37401e-05
4.61067e-05
2.19185e-05
1.02488e-05
5.03241e-06
2.98009e-06
2.0792e-06
1.58303e-06
1.24444e-06
9.80008e-07
7.56301e-07
5.7267e-07
4.13812e-07
2.88056e-07
1.92813e-07
1.24198e-07
7.72256e-08
4.6565e-08
2.73595e-08
1.57318e-08
8.88347e-09
4.93964e-09
2.71052e-09
1.47042e-09
7.89921e-10
4.20855e-10
2.22571e-10
1.16997e-10
6.11693e-11
3.18069e-11
1.64308e-11
8.40689e-12
4.23593e-12
2.07613e-12
9.62859e-13
3.91502e-13
9.03573e-14
0.999993
0.999972
0.999941
0.999891
0.999813
0.999689
0.999497
0.999198
0.998737
0.998057
0.997064
0.995625
0.99356
0.990638
0.986571
0.981016
0.973584
0.963872
0.951492
0.93612
0.917526
0.895614
0.870428
0.842153
0.811073
0.77847
0.743868
0.707051
0.669665
0.631183
0.592143
0.553623
0.515145
0.477586
0.440904
0.405393
0.371275
0.338809
0.307967
0.278642
0.251112
0.225221
0.20094
0.178091
0.156894
0.137143
0.118768
0.101755
0.0860339
0.0712312
0.0580078
0.0460192
0.0353162
0.0259796
0.0181062
0.0117917
0.0070925
0.00397053
0.00217726
0.00119201
0.000646089
0.000344378
0.000179601
9.10911e-05
4.46975e-05
2.11982e-05
9.90153e-06
4.91466e-06
2.94123e-06
2.06559e-06
1.57679e-06
1.23975e-06
9.75146e-07
7.53089e-07
5.68901e-07
4.09915e-07
2.84528e-07
1.89928e-07
1.22039e-07
7.57296e-08
4.55915e-08
2.67573e-08
1.53737e-08
8.67697e-09
4.82341e-09
2.64633e-09
1.43551e-09
7.71146e-10
4.10869e-10
2.17446e-10
1.14344e-10
5.97842e-11
3.10784e-11
1.60439e-11
8.20552e-12
4.13278e-12
2.02481e-12
9.38765e-13
3.81617e-13
8.80648e-14
0.999993
0.999972
0.999941
0.999891
0.999813
0.99969
0.999498
0.999199
0.99874
0.998061
0.997071
0.995636
0.993576
0.990661
0.986603
0.98106
0.973643
0.96395
0.951588
0.93623
0.917654
0.895762
0.870597
0.842337
0.811267
0.778671
0.74407
0.707259
0.669859
0.631364
0.5923
0.553752
0.515243
0.477653
0.440938
0.405392
0.371234
0.338736
0.307863
0.278507
0.250955
0.225048
0.200757
0.177914
0.156733
0.137023
0.118346
0.101387
0.0856964
0.0709273
0.057717
0.0457442
0.0350606
0.0257482
0.0179076
0.0116309
0.00697426
0.00389563
0.00213807
0.00117083
0.000635736
0.000335162
0.000174726
8.85405e-05
4.33934e-05
2.05524e-05
9.59998e-06
4.81353e-06
2.90663e-06
2.05285e-06
1.57063e-06
1.23529e-06
9.70728e-07
7.50136e-07
5.64902e-07
4.05841e-07
2.8099e-07
1.87155e-07
1.20036e-07
7.438e-08
4.47321e-08
2.62339e-08
1.5066e-08
8.50087e-09
4.72481e-09
2.59208e-09
1.40606e-09
7.55328e-10
4.02402e-10
2.12876e-10
1.11928e-10
5.85242e-11
3.04269e-11
1.57115e-11
8.03527e-12
4.04619e-12
1.98184e-12
9.1859e-13
3.73331e-13
8.61408e-14
0.999993
0.999972
0.999941
0.999891
0.999813
0.999691
0.999499
0.9992
0.998742
0.998065
0.997077
0.995644
0.993588
0.990679
0.986628
0.981093
0.973689
0.964009
0.951663
0.936324
0.917762
0.895884
0.870731
0.84248
0.811417
0.778822
0.744218
0.707406
0.669997
0.631494
0.592409
0.553841
0.515305
0.477687
0.440943
0.405369
0.371179
0.338654
0.307758
0.278377
0.250806
0.224882
0.200576
0.177727
0.156531
0.136801
0.118105
0.101136
0.0854439
0.0706905
0.0574863
0.0455235
0.0348546
0.0255617
0.0177457
0.0115001
0.00687862
0.00383505
0.00210626
0.00115304
0.000625681
0.000329623
0.000171584
8.6812e-05
4.24724e-05
2.00837e-05
9.37826e-06
4.74017e-06
2.88184e-06
2.04381e-06
1.56644e-06
1.23264e-06
9.68879e-07
7.49657e-07
5.57453e-07
4.00642e-07
2.77284e-07
1.84567e-07
1.18291e-07
7.32507e-08
4.40294e-08
2.58112e-08
1.48186e-08
8.35945e-09
4.64554e-09
2.5484e-09
1.38237e-09
7.4263e-10
3.95662e-10
2.09321e-10
1.10065e-10
5.75523e-11
2.99229e-11
1.54522e-11
7.90315e-12
3.9798e-12
1.94931e-12
9.0347e-13
3.67164e-13
8.47111e-14
0.999993
0.999972
0.999941
0.999892
0.999814
0.999691
0.999499
0.999201
0.998744
0.998068
0.997082
0.995651
0.993598
0.990693
0.986648
0.98112
0.973724
0.964054
0.95172
0.936393
0.917844
0.895975
0.870831
0.842587
0.811526
0.778933
0.744327
0.707513
0.670094
0.631582
0.59248
0.553894
0.515337
0.477698
0.440933
0.405336
0.371122
0.338578
0.307663
0.278262
0.250676
0.224738
0.20042
0.177564
0.156356
0.136615
0.117924
0.100948
0.0852531
0.0705105
0.0573089
0.0453522
0.0346932
0.0254156
0.0176189
0.0113975
0.00680339
0.00378728
0.00208105
0.0011389
0.000617645
0.000325357
0.000169221
8.55239e-05
4.17929e-05
1.97408e-05
9.21948e-06
4.68502e-06
2.86351e-06
2.03722e-06
1.56323e-06
1.2302e-06
9.66432e-07
7.46984e-07
5.54349e-07
3.97743e-07
2.7487e-07
1.8272e-07
1.16986e-07
7.23867e-08
4.34862e-08
2.54831e-08
1.46264e-08
8.24965e-09
4.58402e-09
2.51449e-09
1.36391e-09
7.32681e-10
3.90346e-10
2.06508e-10
1.08592e-10
5.67894e-11
2.95327e-11
1.52552e-11
7.80508e-12
3.93175e-12
1.92632e-12
8.92988e-13
3.62943e-13
8.37413e-14
0.999993
0.999972
0.999941
0.999892
0.999814
0.999691
0.9995
0.999202
0.998745
0.99807
0.997085
0.995656
0.993606
0.990704
0.986663
0.98114
0.973751
0.964088
0.951761
0.936441
0.917901
0.896041
0.870904
0.842663
0.811604
0.77901
0.744401
0.707586
0.670158
0.631639
0.592525
0.553925
0.515353
0.477699
0.440917
0.405304
0.371072
0.338514
0.307585
0.278171
0.250574
0.224625
0.200298
0.177438
0.156224
0.136476
0.117792
0.100812
0.0851147
0.0703798
0.0571798
0.0452271
0.034575
0.0253076
0.0175255
0.0113217
0.00674794
0.0037525
0.00206256
0.00112853
0.000611769
0.000322256
0.000167505
8.4596e-05
4.13036e-05
1.9495e-05
9.10831e-06
4.64412e-06
2.85004e-06
2.0324e-06
1.56085e-06
1.22833e-06
9.64531e-07
7.44962e-07
5.52282e-07
3.95852e-07
2.73284e-07
1.81491e-07
1.16101e-07
7.17893e-08
4.31043e-08
2.52493e-08
1.44882e-08
8.17005e-09
4.53919e-09
2.4897e-09
1.35041e-09
7.25442e-10
3.86508e-10
2.04482e-10
1.07525e-10
5.62304e-11
2.92432e-11
1.51081e-11
7.73183e-12
3.89604e-12
1.90936e-12
8.8531e-13
3.59866e-13
8.30363e-14
0.999993
0.999972
0.999941
0.999892
0.999814
0.999691
0.9995
0.999203
0.998746
0.998072
0.997087
0.99566
0.993611
0.990711
0.986673
0.981154
0.973768
0.964109
0.951788
0.936473
0.917938
0.896082
0.870949
0.842711
0.811653
0.779058
0.744447
0.707631
0.670198
0.631674
0.592552
0.553942
0.51536
0.477695
0.440903
0.40528
0.371036
0.338468
0.30753
0.278106
0.250501
0.224546
0.200213
0.177352
0.156133
0.136383
0.117704
0.100722
0.0850239
0.0702944
0.0570955
0.0451455
0.0344981
0.0252375
0.0174646
0.0112725
0.00671211
0.00373026
0.00205023
0.00112162
0.000607871
0.000320199
0.000166376
8.39871e-05
4.09851e-05
1.93361e-05
9.03679e-06
4.61782e-06
2.84139e-06
2.0293e-06
1.55933e-06
1.22713e-06
9.63313e-07
7.43682e-07
5.51001e-07
3.94667e-07
2.72292e-07
1.80722e-07
1.15544e-07
7.14095e-08
4.28592e-08
2.50982e-08
1.43984e-08
8.11822e-09
4.50993e-09
2.47347e-09
1.34154e-09
7.20643e-10
3.8394e-10
2.03128e-10
1.06822e-10
5.58708e-11
2.90618e-11
1.50175e-11
7.68695e-12
3.87407e-12
1.8988e-12
8.80459e-13
3.57899e-13
8.25819e-14
0.999993
0.999972
0.999941
0.999892
0.999814
0.999691
0.9995
0.999203
0.998746
0.998072
0.997088
0.995661
0.993613
0.990714
0.986677
0.98116
0.973776
0.964119
0.9518
0.936489
0.917956
0.896103
0.870971
0.842734
0.811677
0.779082
0.74447
0.707652
0.670217
0.63169
0.592563
0.55395
0.515363
0.477692
0.440895
0.405266
0.371017
0.338444
0.307502
0.278074
0.250465
0.224507
0.20017
0.177309
0.156088
0.136336
0.117661
0.100678
0.0849791
0.0702523
0.0570539
0.0451052
0.03446
0.0252029
0.0174346
0.0112483
0.00669455
0.00371938
0.00204418
0.00111823
0.000605955
0.000319186
0.000165819
8.36866e-05
4.08282e-05
1.9258e-05
9.00169e-06
4.60492e-06
2.83716e-06
2.0278e-06
1.55859e-06
1.22656e-06
9.62733e-07
7.43076e-07
5.504e-07
3.94116e-07
2.71827e-07
1.80363e-07
1.15284e-07
7.12309e-08
4.27434e-08
2.50266e-08
1.43558e-08
8.09355e-09
4.49596e-09
2.4657e-09
1.33728e-09
7.1834e-10
3.82712e-10
2.02484e-10
1.06491e-10
5.57045e-11
2.898e-11
1.49779e-11
7.66795e-12
3.86493e-12
1.89443e-12
8.78435e-13
3.57067e-13
8.23881e-14
0.999993
0.999972
0.999941
0.999892
0.999814
0.999691
0.9995
0.999203
0.998746
0.998072
0.997088
0.995661
0.993613
0.990713
0.986676
0.981159
0.973775
0.964119
0.9518
0.936489
0.917956
0.896103
0.870971
0.842735
0.811677
0.779082
0.74447
0.707652
0.670217
0.63169
0.592563
0.55395
0.515363
0.477692
0.440895
0.405266
0.371017
0.338444
0.307502
0.278074
0.250465
0.224507
0.20017
0.177309
0.156088
0.136336
0.117661
0.100678
0.0849791
0.0702523
0.0570539
0.0451051
0.0344599
0.0252028
0.0174346
0.0112483
0.00669453
0.00371936
0.00204418
0.00111823
0.000605951
0.000319187
0.00016582
8.3687e-05
4.08283e-05
1.9258e-05
9.0014e-06
4.60479e-06
2.83711e-06
2.02778e-06
1.55858e-06
1.22656e-06
9.62732e-07
7.43077e-07
5.50401e-07
3.94117e-07
2.71828e-07
1.80364e-07
1.15284e-07
7.12315e-08
4.27437e-08
2.50268e-08
1.43559e-08
8.09359e-09
4.49597e-09
2.4657e-09
1.33728e-09
7.18358e-10
3.82744e-10
2.02526e-10
1.06535e-10
5.57431e-11
2.90096e-11
1.49981e-11
7.68033e-12
3.87185e-12
1.89795e-12
8.8006e-13
3.57712e-13
8.25336e-14
0.999993
0.999972
0.999941
0.999892
0.999814
0.999691
0.9995
0.999202
0.998745
0.998071
0.997086
0.995659
0.99361
0.990709
0.986671
0.981152
0.973766
0.964108
0.951787
0.936473
0.917938
0.896083
0.870949
0.842712
0.811653
0.779059
0.744448
0.707631
0.670199
0.631674
0.592552
0.553942
0.515361
0.477695
0.440903
0.40528
0.371036
0.338468
0.30753
0.278106
0.250501
0.224546
0.200213
0.177352
0.156133
0.136383
0.117704
0.100722
0.085024
0.0702944
0.0570954
0.0451453
0.0344979
0.0252374
0.0174644
0.0112724
0.00671202
0.00373021
0.00205021
0.00112161
0.000607864
0.000320196
0.000166375
8.39865e-05
4.09848e-05
1.93359e-05
9.03639e-06
4.61763e-06
2.8413e-06
2.02926e-06
1.55931e-06
1.22713e-06
9.63317e-07
7.43686e-07
5.51004e-07
3.9467e-07
2.72295e-07
1.80725e-07
1.15547e-07
7.14111e-08
4.28602e-08
2.50988e-08
1.43987e-08
8.11837e-09
4.51001e-09
2.47353e-09
1.3416e-09
7.20719e-10
3.84025e-10
2.03214e-10
1.06901e-10
5.59358e-11
2.91102e-11
1.50501e-11
7.70703e-12
3.88533e-12
1.90459e-12
8.83153e-13
3.58975e-13
8.28261e-14
0.999993
0.999972
0.999941
0.999892
0.999814
0.999691
0.9995
0.999202
0.998744
0.998069
0.997084
0.995655
0.993604
0.990702
0.986661
0.981139
0.973749
0.964087
0.951761
0.936441
0.917901
0.896041
0.870904
0.842663
0.811604
0.779011
0.744401
0.707586
0.670159
0.631639
0.592525
0.553925
0.515354
0.477699
0.440917
0.405305
0.371073
0.338514
0.307585
0.278171
0.250573
0.224625
0.200297
0.177438
0.156223
0.136476
0.117792
0.100812
0.0851148
0.0703798
0.0571796
0.0452269
0.0345747
0.0253073
0.0175251
0.0113214
0.00674769
0.00375236
0.00206248
0.00112849
0.00061175
0.000322244
0.0001675
8.45938e-05
4.13028e-05
1.94947e-05
9.10817e-06
4.64399e-06
2.84995e-06
2.03237e-06
1.56086e-06
1.22836e-06
9.64558e-07
7.44982e-07
5.52295e-07
3.95861e-07
2.73291e-07
1.81496e-07
1.16105e-07
7.1792e-08
4.3106e-08
2.52503e-08
1.44887e-08
8.17034e-09
4.53938e-09
2.48986e-09
1.35058e-09
7.25615e-10
3.86667e-10
2.04614e-10
1.07625e-10
5.63015e-11
2.92911e-11
1.51385e-11
7.74989e-12
3.90608e-12
1.91453e-12
8.87737e-13
3.60846e-13
8.32599e-14
0.999993
0.999972
0.999941
0.999891
0.999813
0.999691
0.999499
0.999201
0.998743
0.998067
0.997081
0.99565
0.993597
0.990692
0.986646
0.981119
0.973723
0.964053
0.951719
0.936392
0.917843
0.895975
0.870831
0.842587
0.811526
0.778933
0.744327
0.707513
0.670094
0.631582
0.59248
0.553894
0.515338
0.477699
0.440933
0.405337
0.371123
0.338579
0.307664
0.278263
0.250677
0.224739
0.20042
0.177565
0.156358
0.136617
0.117925
0.100949
0.0852536
0.0705105
0.0573088
0.0453519
0.0346928
0.0254152
0.0176187
0.0113971
0.0068031
0.00378709
0.00208095
0.00113885
0.000617618
0.000325342
0.000169214
8.55211e-05
4.17919e-05
1.97405e-05
9.21936e-06
4.68488e-06
2.86341e-06
2.03721e-06
1.5633e-06
1.23029e-06
9.66516e-07
7.47041e-07
5.54381e-07
3.9776e-07
2.7488e-07
1.82727e-07
1.16991e-07
7.23902e-08
4.34884e-08
2.54844e-08
1.46272e-08
8.25006e-09
4.58428e-09
2.51469e-09
1.3641e-09
7.32846e-10
3.9048e-10
2.06607e-10
1.08661e-10
5.68357e-11
2.95638e-11
1.52759e-11
7.8182e-12
3.93953e-12
1.93057e-12
8.95077e-13
3.63813e-13
8.39436e-14
0.999993
0.999972
0.999941
0.999891
0.999813
0.99969
0.999498
0.9992
0.998741
0.998064
0.997076
0.995643
0.993587
0.990678
0.986627
0.981092
0.973688
0.964008
0.951663
0.936323
0.917761
0.895883
0.87073
0.84248
0.811416
0.778821
0.744217
0.707406
0.669996
0.631493
0.592409
0.553841
0.515305
0.477687
0.440944
0.405369
0.371179
0.338655
0.307759
0.278378
0.250807
0.224883
0.200578
0.177729
0.156533
0.136803
0.118106
0.101137
0.0854442
0.0706905
0.0574859
0.0455229
0.0348539
0.0255609
0.0177451
0.0114995
0.00687817
0.00383477
0.00210611
0.00115296
0.000625643
0.000329604
0.000171575
8.68085e-05
4.24712e-05
2.00834e-05
9.37851e-06
4.74006e-06
2.88177e-06
2.04386e-06
1.5666e-06
1.23284e-06
9.69045e-07
7.49765e-07
5.57509e-07
4.00668e-07
2.77296e-07
1.84574e-07
1.18296e-07
7.32539e-08
4.40315e-08
2.58125e-08
1.48194e-08
8.35991e-09
4.64582e-09
2.5486e-09
1.38252e-09
7.42745e-10
3.95743e-10
2.09376e-10
1.10103e-10
5.75798e-11
2.99444e-11
1.54686e-11
7.91464e-12
3.98705e-12
1.9534e-12
9.05516e-13
3.68021e-13
8.49104e-14
0.999993
0.999972
0.999941
0.999891
0.999813
0.99969
0.999498
0.999199
0.998739
0.998061
0.99707
0.995634
0.993575
0.99066
0.986602
0.981058
0.973642
0.963949
0.951587
0.936229
0.917653
0.895761
0.870596
0.842335
0.811266
0.77867
0.744069
0.707258
0.669858
0.631365
0.5923
0.553753
0.515243
0.477653
0.440938
0.405392
0.371235
0.338737
0.307864
0.278508
0.250956
0.22505
0.200759
0.177916
0.156735
0.137026
0.118348
0.101389
0.085697
0.0709273
0.0577165
0.0457433
0.0350595
0.0257469
0.0179061
0.0116299
0.00697361
0.00389527
0.00213789
0.00117073
0.00063569
0.000335139
0.000174716
8.85365e-05
4.33921e-05
2.05521e-05
9.60005e-06
4.81338e-06
2.90654e-06
2.05292e-06
1.57082e-06
1.23552e-06
9.70925e-07
7.50256e-07
5.64968e-07
4.05872e-07
2.81006e-07
1.87164e-07
1.20042e-07
7.43842e-08
4.47348e-08
2.62357e-08
1.5067e-08
8.50153e-09
4.72523e-09
2.59236e-09
1.40627e-09
7.55474e-10
4.02497e-10
2.12931e-10
1.11962e-10
5.85453e-11
3.04417e-11
1.57223e-11
8.0425e-12
4.05051e-12
1.98411e-12
9.19622e-13
3.73726e-13
8.62271e-14
0.999993
0.999972
0.999941
0.999891
0.999813
0.999689
0.999497
0.999197
0.998736
0.998056
0.997063
0.995624
0.993559
0.990637
0.98657
0.981014
0.973583
0.963871
0.951491
0.936119
0.917524
0.895612
0.870427
0.84215
0.811071
0.778468
0.743866
0.707049
0.669664
0.631182
0.592143
0.553623
0.515146
0.477587
0.440905
0.405394
0.371276
0.33881
0.307968
0.278643
0.251113
0.225222
0.200942
0.178094
0.156896
0.137145
0.11877
0.101756
0.0860347
0.0712315
0.0580077
0.0460187
0.0353155
0.0259787
0.0181052
0.0117909
0.00709195
0.00397022
0.0021771
0.00119193
0.000646048
0.000344359
0.000179593
9.10883e-05
4.46968e-05
2.11983e-05
9.90207e-06
4.91462e-06
2.94115e-06
2.0656e-06
1.57689e-06
1.23989e-06
9.75274e-07
7.53166e-07
5.68945e-07
4.09938e-07
2.8454e-07
1.89936e-07
1.22045e-07
7.57334e-08
4.55941e-08
2.67588e-08
1.53746e-08
8.67749e-09
4.82372e-09
2.64655e-09
1.43569e-09
7.71299e-10
4.10979e-10
2.17479e-10
1.14409e-10
5.98331e-11
3.11069e-11
1.60577e-11
8.21075e-12
4.13402e-12
2.02464e-12
9.38335e-13
3.8133e-13
8.79836e-14
0.999993
0.999972
0.999941
0.999891
0.999812
0.999689
0.999495
0.999195
0.998733
0.998051
0.997055
0.995611
0.99354
0.99061
0.986532
0.980961
0.973514
0.963784
0.951382
0.935984
0.91736
0.895417
0.870213
0.841915
0.81082
0.778207
0.743602
0.70678
0.669405
0.630932
0.591919
0.553428
0.514985
0.477464
0.440825
0.405359
0.37129
0.338865
0.308061
0.278781
0.251283
0.225418
0.201159
0.178322
0.157146
0.137423
0.119093
0.102098
0.0863844
0.0715635
0.0583324
0.0463328
0.0356111
0.0262484
0.0183417
0.0119843
0.00723559
0.00406324
0.00222571
0.001219
0.000661198
0.000353066
0.000184505
9.37392e-05
4.61069e-05
2.19189e-05
1.02488e-05
5.03219e-06
2.97989e-06
2.07909e-06
1.58301e-06
1.24447e-06
9.8006e-07
7.56333e-07
5.72692e-07
4.13828e-07
2.88066e-07
1.9282e-07
1.24202e-07
7.7229e-08
4.65672e-08
2.73609e-08
1.57326e-08
8.88383e-09
4.93979e-09
2.71056e-09
1.47041e-09
7.89891e-10
4.20837e-10
2.22614e-10
1.17024e-10
6.11841e-11
3.18114e-11
1.64273e-11
8.40239e-12
4.23172e-12
2.07308e-12
9.61057e-13
3.90656e-13
9.01479e-14
0.999993
0.999972
0.99994
0.99989
0.999812
0.999688
0.999494
0.999193
0.998729
0.998045
0.997045
0.995596
0.993518
0.990578
0.986487
0.980904
0.973438
0.96368
0.951247
0.935807
0.917152
0.89518
0.869932
0.841611
0.810497
0.777869
0.743258
0.706425
0.669059
0.630595
0.591613
0.553155
0.514756
0.477276
0.440679
0.405267
0.37126
0.338885
0.30813
0.278901
0.251444
0.22562
0.201399
0.178592
0.157447
0.137751
0.119443
0.102463
0.0867576
0.0719301
0.0586954
0.046685
0.0359466
0.0265586
0.0186158
0.0122125
0.00740634
0.00417427
0.00228356
0.00125143
0.000679494
0.000363382
0.000190314
9.67558e-05
4.77197e-05
2.27454e-05