/*--------------------------------*- C++ -*----------------------------------*\
  =========                 |
  \\      /  F ield         | OpenFOAM: The Open Source CFD Toolbox
   \\    /   O peration     | Website:  https://openfoam.org
    \\  /    A nd           | Version:  10
     \\/     M anipulation  |
\*---------------------------------------------------------------------------*/
FoamFile
{
    format      ascii;
    class       volScalarField;
    location    "1";
    object      CN;
}
// * * * * * * * * * * * * * * * * * * * * * * * * * * * * * * * * * * * * * //

dimensions      [0 0 0 0 0 0 0];

internalField   nonuniform List<scalar> 
4000
(
3.33726e-30
1.29501e-29
2.78796e-29
5.26282e-29
9.55659e-29
1.74387e-28
3.28556e-28
6.49792e-28
1.35895e-27
2.95155e-27
6.66894e-27
1.57743e-26
3.93882e-26
1.05156e-25
3.05226e-25
9.78552e-25
3.48129e-24
1.35553e-23
5.60129e-23
2.36408e-22
9.83921e-22
3.93247e-21
1.48505e-20
5.2782e-20
1.76174e-19
5.50635e-19
1.67099e-18
5.01773e-18
1.46631e-17
4.25453e-17
1.20288e-16
3.32538e-16
8.90535e-16
2.30043e-15
5.73732e-15
1.38376e-14
3.23418e-14
7.34376e-14
1.62198e-13
3.4931e-13
7.37492e-13
1.51548e-12
3.05166e-12
6.03091e-12
1.16705e-11
2.22857e-11
4.13774e-11
7.58767e-11
1.3486e-10
2.37511e-10
4.03787e-10
6.71457e-10
1.09339e-09
1.74233e-09
2.71369e-09
4.11754e-09
6.03737e-09
8.38012e-09
1.03181e-08
7.49161e-09
4.12986e-09
2.25955e-09
1.22212e-09
6.51992e-10
3.41651e-10
1.79272e-10
9.28364e-11
4.59669e-11
2.06096e-11
8.69517e-12
3.38147e-12
1.2052e-12
3.90206e-13
1.13248e-13
2.90296e-14
6.52897e-15
1.20641e-15
1.88768e-16
2.5137e-17
2.89948e-18
2.97663e-19
2.80291e-20
2.48706e-21
2.12298e-22
1.76839e-23
1.45077e-24
1.17935e-25
9.52144e-27
7.72411e-28
6.42653e-29
5.79543e-30
6.36074e-31
9.56024e-32
1.90709e-32
4.39492e-33
1.0536e-33
2.47714e-34
5.40029e-35
9.81925e-36
9.28554e-37
3.3295e-30
1.29197e-29
2.7815e-29
5.25128e-29
9.53746e-29
1.74074e-28
3.28018e-28
6.48722e-28
1.35627e-27
2.94485e-27
6.64597e-27
1.56849e-26
3.90254e-26
1.0362e-25
2.98403e-25
9.46631e-25
3.32514e-24
1.28042e-23
5.24963e-23
2.2067e-22
9.17917e-22
3.67747e-21
1.39478e-20
4.95875e-20
1.66479e-19
5.23484e-19
1.59883e-18
4.83925e-18
1.42195e-17
4.1517e-17
1.17911e-16
3.2734e-16
8.79682e-16
2.28354e-15
5.71839e-15
1.38425e-14
3.24616e-14
7.39611e-14
1.63802e-13
3.53683e-13
7.48641e-13
1.54185e-12
3.11151e-12
6.16539e-12
1.19519e-11
2.28483e-11
4.24683e-11
7.8013e-11
1.38811e-10
2.44832e-10
4.16546e-10
6.93469e-10
1.13077e-09
1.80392e-09
2.81301e-09
4.27189e-09
6.26442e-09
8.67879e-09
1.06177e-08
7.22311e-09
4.00518e-09
2.20154e-09
1.19464e-09
6.38671e-10
3.3551e-10
1.76238e-10
9.10396e-11
4.48471e-11
1.99494e-11
8.35408e-12
3.21823e-12
1.13794e-12
3.64691e-13
1.04595e-13
2.63611e-14
5.7836e-15
1.04282e-15
1.59207e-16
2.07267e-17
2.34646e-18
2.37584e-19
2.21684e-20
1.95649e-21
1.66555e-22
1.38603e-23
1.1373e-24
9.25635e-26
7.54159e-27
6.17978e-28
5.21623e-29
4.83113e-30
5.55405e-31
8.79064e-32
1.80886e-32
4.22198e-33
1.01631e-33
2.39109e-34
5.21325e-35
9.48076e-36
8.96534e-37
3.32313e-30
1.28959e-29
2.77685e-29
5.24373e-29
9.5265e-29
1.73928e-28
3.27821e-28
6.48355e-28
1.35498e-27
2.9406e-27
6.62791e-27
1.56092e-26
3.87225e-26
1.0232e-25
2.92632e-25
9.19819e-25
3.20284e-24
1.22218e-23
4.9693e-23
2.0753e-22
8.5975e-22
3.43978e-21
1.30795e-20
4.68295e-20
1.58218e-19
5.00844e-19
1.54026e-18
4.68775e-18
1.38444e-17
4.06364e-17
1.15773e-16
3.22574e-16
8.69943e-16
2.27157e-15
5.71781e-15
1.3907e-14
3.27573e-14
7.49675e-14
1.66655e-13
3.61121e-13
7.67034e-13
1.58448e-12
3.20724e-12
6.37632e-12
1.23832e-11
2.37255e-11
4.42282e-11
8.14625e-11
1.45454e-10
2.57239e-10
4.38512e-10
7.32793e-10
1.19826e-09
1.91711e-09
2.99888e-09
4.56662e-09
6.71424e-09
9.3276e-09
1.13953e-08
7.14557e-09
3.97735e-09
2.19133e-09
1.18931e-09
6.3533e-10
3.34067e-10
1.75111e-10
8.98356e-11
4.37482e-11
1.9234e-11
7.95358e-12
3.0303e-12
1.05512e-12
3.33239e-13
9.46179e-14
2.26252e-14
4.8841e-15
8.6108e-16
1.28676e-16
1.64497e-17
1.83712e-18
1.8439e-19
1.7125e-20
1.50876e-21
1.28456e-22
1.07026e-23
8.79781e-25
7.17545e-26
5.83874e-27
4.78948e-28
4.07228e-29
3.8582e-30
4.64447e-31
7.75305e-32
1.65763e-32
3.93978e-33
9.55748e-34
2.25636e-34
4.92605e-35
8.96137e-36
8.47335e-37
3.308e-30
1.28368e-29
2.76395e-29
5.21887e-29
9.47984e-29
1.73032e-28
3.26005e-28
6.44375e-28
1.34546e-27
2.91691e-27
6.56049e-27
1.5399e-26
3.80166e-26
9.99712e-26
2.84393e-25
8.88944e-25
3.07471e-24
1.16598e-23
4.7188e-23
1.96582e-22
8.14193e-22
3.26294e-21
1.24288e-20
4.47073e-20
1.51925e-19
4.83294e-19
1.49399e-18
4.57254e-18
1.35574e-17
3.99756e-17
1.1435e-16
3.19867e-16
8.66101e-16
2.2711e-15
5.74802e-15
1.40492e-14
3.32426e-14
7.64194e-14
1.7056e-13
3.70989e-13
7.90942e-13
1.63947e-12
3.3281e-12
6.63626e-12
1.29295e-11
2.48379e-11
4.64523e-11
8.58412e-11
1.53692e-10
2.72692e-10
4.66409e-10
7.82515e-10
1.28592e-09
2.06905e-09
3.2532e-09
4.98745e-09
7.39162e-09
1.03609e-08
1.27754e-08
7.52263e-09
4.17687e-09
2.29631e-09
1.22912e-09
6.53385e-10
3.4273e-10
1.78275e-10
9.02082e-11
4.314e-11
1.8773e-11
7.63881e-12
2.85859e-12
9.79273e-13
3.03746e-13
8.4119e-14
1.98877e-14
4.19206e-15
7.18967e-16
1.04652e-16
1.30772e-17
1.43467e-18
1.42191e-19
1.30987e-20
1.14847e-21
9.7525e-23
8.11543e-24
6.66843e-25
5.44009e-26
4.43181e-27
3.64813e-28
3.13404e-29
3.05002e-30
3.85386e-31
6.75407e-32
1.48242e-32
3.56286e-33
8.68576e-34
2.05639e-34
4.4988e-35
8.19696e-36
7.75637e-37
3.28781e-30
1.27582e-29
2.7469e-29
5.18607e-29
9.41826e-29
1.71848e-28
3.236e-28
6.39115e-28
1.33298e-27
2.88506e-27
6.47942e-27
1.51837e-26
3.74174e-26
9.81021e-26
2.77945e-25
8.64436e-25
2.97372e-24
1.12208e-23
4.52464e-23
1.88149e-22
7.79261e-22
3.12762e-21
1.19432e-20
4.30338e-20
1.46589e-19
4.67885e-19
1.45255e-18
4.47633e-18
1.33442e-17
3.95264e-17
1.13534e-16
3.18709e-16
8.66242e-16
2.27971e-15
5.79893e-15
1.42339e-14
3.38163e-14
7.80425e-14
1.748e-13
3.81477e-13
8.15979e-13
1.69626e-12
3.45344e-12
6.9087e-12
1.34939e-11
2.59756e-11
4.8702e-11
9.02293e-11
1.62052e-10
2.88652e-10
4.95948e-10
8.36135e-10
1.38171e-09
2.23673e-09
3.54444e-09
5.48259e-09
8.21395e-09
1.16735e-08
1.46591e-08
8.28452e-09
4.55877e-09
2.48586e-09
1.31832e-09
6.93595e-10
3.59789e-10
1.8445e-10
9.14883e-11
4.27057e-11
1.84086e-11
7.35601e-12
2.70491e-12
9.09444e-13
2.75078e-13
7.42063e-14
1.76838e-14
3.46792e-15
5.77988e-16
8.1984e-17
1.00278e-17
1.08265e-18
1.06148e-19
9.71415e-21
8.48686e-22
7.19519e-23
5.98493e-24
4.91947e-25
4.01716e-26
3.27931e-27
2.71326e-28
2.364e-29
2.38142e-30
3.18537e-31
5.87848e-32
1.32613e-32
3.22262e-33
7.88976e-34
1.87133e-34
4.09767e-35
7.46964e-36
7.06867e-37
3.26384e-30
1.26656e-29
2.72696e-29
5.14813e-29
9.3479e-29
1.70513e-28
3.20926e-28
6.33353e-28
1.31999e-27
2.85501e-27
6.40683e-27
1.50004e-26
3.69101e-26
9.65496e-26
2.7268e-25
8.44576e-25
2.89136e-24
1.08544e-23
4.35632e-23
1.8046e-22
7.4546e-22
2.98827e-21
1.14232e-20
4.13644e-20
1.41833e-19
4.55553e-19
1.42279e-18
4.40723e-18
1.31941e-17
3.92323e-17
1.13112e-16
3.18486e-16
8.68662e-16
2.29284e-15
5.85564e-15
1.4426e-14
3.43881e-14
7.96143e-14
1.78855e-13
3.91431e-13
8.39371e-13
1.74919e-12
3.56965e-12
7.15943e-12
1.40129e-11
2.7017e-11
5.07896e-11
9.41395e-11
1.6964e-10
3.03084e-10
5.22121e-10
8.82692e-10
1.46339e-09
2.37974e-09
3.79293e-09
5.90974e-09
8.93673e-09
1.28574e-08
1.64001e-08
9.03063e-09
4.90671e-09
2.64215e-09
1.38472e-09
7.20278e-10
3.69457e-10
1.8672e-10
9.09097e-11
4.15195e-11
1.75968e-11
6.90135e-12
2.49234e-12
8.21233e-13
2.43727e-13
6.4401e-14
1.49254e-14
2.8483e-15
4.62247e-16
6.40007e-17
7.67198e-18
8.15683e-19
7.91196e-20
7.19041e-21
6.25529e-22
5.29017e-23
4.39444e-24
3.60999e-25
2.94822e-26
2.41023e-27
2.00476e-28
1.77527e-29
1.86012e-30
2.64144e-31
5.11989e-32
1.18383e-32
2.90594e-33
7.14643e-34
1.69928e-34
3.72675e-35
6.7992e-36
6.43535e-37
3.23434e-30
1.25505e-29
2.70191e-29
5.10009e-29
9.25898e-29
1.68859e-28
3.17762e-28
6.27073e-28
1.30614e-27
2.82201e-27
6.32699e-27
1.47902e-26
3.63245e-26
9.47973e-26
2.66945e-25
8.23896e-25
2.8099e-24
1.05117e-23
4.20778e-23
1.74081e-22
7.19582e-22
2.88899e-21
1.10738e-20
4.02052e-20
1.38337e-19
4.46037e-19
1.39844e-18
4.35118e-18
1.30749e-17
3.8992e-17
1.12729e-16
3.17998e-16
8.7274e-16
2.30711e-15
5.90471e-15
1.45881e-14
3.48585e-14
8.08729e-14
1.82063e-13
3.99198e-13
8.57373e-13
1.78973e-12
3.65794e-12
7.34831e-12
1.44033e-11
2.76861e-11
5.214e-11
9.64843e-11
1.74077e-10
3.11219e-10
5.36314e-10
9.07025e-10
1.50439e-09
2.44702e-09
3.90101e-09
6.07921e-09
9.19174e-09
1.32002e-08
1.66259e-08
9.04687e-09
4.88204e-09
2.61045e-09
1.35919e-09
7.01952e-10
3.57672e-10
1.79207e-10
8.66264e-11
3.81736e-11
1.59669e-11
6.17548e-12
2.20137e-12
7.13016e-13
2.07723e-13
5.34856e-14
1.21575e-14
2.2643e-15
3.58771e-16
4.8604e-17
5.7218e-18
6.00008e-19
5.76387e-20
5.20503e-21
4.51017e-22
3.80521e-23
3.1566e-24
2.59148e-25
2.11684e-26
1.73404e-27
1.45292e-28
1.31532e-29
1.4496e-30
2.20843e-31
4.51391e-32
1.0706e-32
2.65345e-33
6.54732e-34
1.55831e-34
3.41793e-35
6.23518e-36
5.90097e-37
3.20463e-30
1.24346e-29
2.67651e-29
5.05056e-29
9.16456e-29
1.67018e-28
3.13999e-28
6.18903e-28
1.2877e-27
2.77819e-27
6.21212e-27
1.44891e-26
3.54972e-26
9.23699e-26
2.59227e-25
7.97094e-25
2.7089e-24
1.01069e-23
4.04095e-23
1.67255e-22
6.92407e-22
2.78897e-21
1.07376e-20
3.91575e-20
1.35207e-19
4.37557e-19
1.37847e-18
4.30574e-18
1.29869e-17
3.88507e-17
1.12698e-16
3.18433e-16
8.7606e-16
2.31978e-15
5.94687e-15
1.47235e-14
3.5245e-14
8.19061e-14
1.8461e-13
4.05437e-13
8.67829e-13
1.81424e-12
3.70966e-12
7.45345e-12
1.46022e-11
2.80517e-11
5.27965e-11
9.7354e-11
1.75527e-10
3.13325e-10
5.38757e-10
9.0848e-10
1.50098e-09
2.42922e-09
3.84748e-09
5.94366e-09
8.87359e-09
1.24666e-08
1.48028e-08
8.07488e-09
4.36802e-09
2.33867e-09
1.21891e-09
6.29604e-10
3.20561e-10
1.60238e-10
7.68939e-11
3.34398e-11
1.38562e-11
5.30602e-12
1.86328e-12
5.95136e-13
1.70677e-13
4.32721e-14
9.60072e-15
1.74613e-15
2.70415e-16
3.58936e-17
4.15528e-18
4.3032e-19
4.09841e-20
3.68071e-21
3.17876e-22
2.67689e-23
2.21857e-24
1.82108e-25
1.48881e-26
1.22366e-27
1.03635e-28
9.67104e-30
1.13506e-30
1.86337e-31
3.99503e-32
9.67407e-33
2.42035e-33
5.99834e-34
1.43043e-34
3.13995e-35
5.73025e-36
5.42378e-37
3.17993e-30
1.23387e-29
2.65568e-29
5.01045e-29
9.08908e-29
1.65567e-28
3.11079e-28
6.12689e-28
1.27371e-27
2.74313e-27
6.12815e-27
1.42771e-26
3.49329e-26
9.07559e-26
2.54186e-25
7.79789e-25
2.64412e-24
9.84802e-24
3.93414e-23
1.62906e-22
6.74591e-22
2.72218e-21
1.0492e-20
3.83347e-20
1.3289e-19
4.31503e-19
1.3629e-18
4.26532e-18
1.28915e-17
3.86072e-17
1.13051e-16
3.19278e-16
8.79518e-16
2.33137e-15
5.98252e-15
1.48307e-14
3.55479e-14
8.2545e-14
1.86197e-13
4.0934e-13
8.75948e-13
1.83096e-12
3.74282e-12
7.51483e-12
1.47101e-11
2.82246e-11
5.30456e-11
9.75704e-11
1.7553e-10
3.1235e-10
5.35149e-10
8.98218e-10
1.47536e-09
2.37005e-09
3.7181e-09
5.67084e-09
8.30933e-09
1.12928e-08
1.2164e-08
6.68298e-09
3.63914e-09
1.95907e-09
1.02833e-09
5.328e-10
2.72334e-10
1.3634e-10
6.53279e-11
2.82279e-11
1.15978e-11
4.39895e-12
1.53072e-12
4.84083e-13
1.38417e-13
3.31044e-14
7.23161e-15
1.29386e-15
1.97336e-16
2.58518e-17
2.96243e-18
3.04613e-19
2.88846e-20
2.58816e-21
2.23336e-22
1.88096e-23
1.56003e-24
1.28211e-25
1.05052e-26
8.68006e-28
7.45973e-29
7.23086e-30
9.10571e-31
1.60713e-31
3.58998e-32
8.83497e-33
2.22157e-33
5.51616e-34
1.31707e-34
2.89391e-35
5.28422e-36
5.00285e-37
3.16131e-30
1.22672e-29
2.6404e-29
4.98151e-29
9.03538e-29
1.64542e-28
3.09007e-28
6.08196e-28
1.26321e-27
2.71727e-27
6.06333e-27
1.41091e-26
3.44757e-26
8.94326e-26
2.50044e-25
7.65575e-25
2.5907e-24
9.63268e-24
3.84439e-23
1.59141e-22
6.60155e-22
2.66618e-21
1.03075e-20
3.78032e-20
1.31423e-19
4.28045e-19
1.35613e-18
4.25454e-18
1.28915e-17
3.86755e-17
1.13474e-16
3.20815e-16
8.84736e-16
2.34703e-15
6.02687e-15
1.49536e-14
3.58699e-14
8.33159e-14
1.87982e-13
4.13501e-13
8.84654e-13
1.84862e-12
3.77664e-12
7.57678e-12
1.4818e-11
2.8401e-11
5.32984e-11
9.78601e-11
1.75666e-10
3.11633e-10
5.32132e-10
8.89358e-10
1.45303e-09
2.31877e-09
3.60654e-09
5.43693e-09
7.82768e-09
1.02872e-08
9.83042e-09
5.42547e-09
2.96395e-09
1.59718e-09
8.43737e-10
4.3924e-10
2.26012e-10
1.13769e-10
5.45874e-11
2.35811e-11
9.65166e-12
3.64183e-12
1.25887e-12
3.94524e-13
1.11361e-13
2.62438e-14
5.6503e-15
9.95984e-16
1.49797e-16
1.93864e-17
2.20003e-18
2.24617e-19
2.11984e-20
1.89406e-21
1.63196e-22
1.37362e-23
1.13926e-24
9.36863e-26
7.69024e-27
6.38744e-28
5.57486e-29
5.61988e-30
7.55998e-31
1.41645e-31
3.26366e-32
8.12801e-33
2.05353e-33
5.11062e-34
1.22178e-34
2.68644e-35
4.90717e-36
4.64672e-37
3.1442e-30
1.22008e-29
2.62606e-29
4.95416e-29
8.9848e-29
1.63594e-28
3.07167e-28
6.04455e-28
1.25528e-27
2.69826e-27
6.0162e-27
1.3986e-26
3.41288e-26
8.83983e-26
2.46736e-25
7.54199e-25
2.54858e-24
9.4666e-24
3.777e-23
1.56325e-22
6.48808e-22
2.62634e-21
1.0179e-20
3.74304e-20
1.30577e-19
4.26636e-19
1.35578e-18
4.26359e-18
1.29491e-17
3.89083e-17
1.14336e-16
3.2359e-16
8.93228e-16
2.37132e-15
6.09295e-15
1.51281e-14
3.63191e-14
8.43858e-14
1.9043e-13
4.19015e-13
8.9639e-13
1.87286e-12
3.82524e-12
7.67076e-12
1.49943e-11
2.87181e-11
5.3845e-11
9.87504e-11
1.77007e-10
3.13321e-10
5.3383e-10
8.89631e-10
1.44823e-09
2.30044e-09
3.55628e-09
5.31541e-09
7.54833e-09
9.64094e-09
8.10344e-09
4.48294e-09
2.45688e-09
1.32646e-09
7.04135e-10
3.66723e-10
1.89975e-10
9.6166e-11
4.61626e-11
1.99849e-11
8.14713e-12
3.05814e-12
1.05051e-12
3.26888e-13
9.14727e-14
2.14979e-14
4.57917e-15
7.97675e-16
1.18591e-16
1.51833e-17
1.70747e-18
1.73138e-19
1.62644e-20
1.44903e-21
1.24651e-22
1.04839e-23
8.69374e-25
7.15258e-26
5.8811e-27
4.91044e-28
4.35292e-29
4.55714e-30
6.49952e-31
1.27867e-31
3.01987e-32
7.59668e-33
1.9253e-33
4.79397e-34
1.14589e-34
2.51896e-35
4.60034e-36
4.35595e-37
3.12957e-30
1.21442e-29
2.61381e-29
4.93066e-29
8.94082e-29
1.62753e-28
3.05482e-28
6.00884e-28
1.24688e-27
2.67824e-27
5.96886e-27
1.38726e-26
3.38478e-26
8.7608e-26
2.44231e-25
7.45264e-25
2.5148e-24
9.33362e-24
3.72286e-23
1.54254e-22
6.41025e-22
2.59982e-21
1.01003e-20
3.72389e-20
1.30286e-19
4.26981e-19
1.36096e-18
4.29031e-18
1.30607e-17
3.93064e-17
1.15685e-16
3.2776e-16
9.05648e-16
2.40582e-15
6.1855e-15
1.53714e-14
3.69359e-14
8.58586e-14
1.93833e-13
4.2678e-13
9.1296e-13
1.90726e-12
3.89495e-12
7.80824e-12
1.52617e-11
2.92246e-11
5.4778e-11
1.0042e-10
1.7989e-10
3.18035e-10
5.41473e-10
9.01363e-10
1.46507e-09
2.32238e-09
3.58049e-09
5.33032e-09
7.51803e-09
9.43968e-09
7.13659e-09
3.93911e-09
2.15405e-09
1.16106e-09
6.15656e-10
3.21435e-10
1.67003e-10
8.46401e-11
4.05579e-11
1.75759e-11
7.13279e-12
2.66216e-12
9.08732e-13
2.80468e-13
7.75577e-14
1.82284e-14
3.85029e-15
6.63988e-16
9.76802e-17
1.23922e-17
1.38358e-18
1.39569e-19
1.30664e-20
1.16179e-21
9.98391e-23
8.39403e-24
6.96149e-25
5.73105e-26
4.72049e-27
3.96136e-28
3.56195e-29
3.85313e-30
5.75422e-31
1.17189e-31
2.81066e-32
7.10976e-33
1.80683e-33
4.50676e-34
1.07847e-34
2.37243e-35
4.33442e-36
4.10475e-37
3.11736e-30
1.20969e-29
2.60358e-29
4.91104e-29
8.90407e-29
1.6205e-28
3.04076e-28
5.97914e-28
1.23979e-27
2.66098e-27
5.92663e-27
1.37662e-26
3.35664e-26
8.684e-26
2.42e-25
7.38254e-25
2.48919e-24
9.23199e-24
3.68198e-23
1.52631e-22
6.35322e-22
2.58163e-21
1.00504e-20
3.71595e-20
1.30397e-19
4.28647e-19
1.37036e-18
4.33058e-18
1.32139e-17
3.98319e-17
1.17407e-16
3.32993e-16
9.20957e-16
2.44867e-15
6.3014e-15
1.56673e-14
3.76688e-14
8.76022e-14
1.97865e-13
4.35796e-13
9.3271e-13
1.9496e-12
3.98343e-12
7.98772e-12
1.56147e-11
2.9901e-11
5.60417e-11
1.02714e-10
1.83967e-10
3.25106e-10
5.53414e-10
9.2104e-10
1.4968e-09
2.372e-09
3.65499e-09
5.43539e-09
7.64415e-09
9.50916e-09
6.6397e-09
3.65533e-09
1.99294e-09
1.07126e-09
5.66545e-10
2.95987e-10
1.53902e-10
7.7985e-11
3.72269e-11
1.61271e-11
6.50594e-12
2.41419e-12
8.17692e-13
2.5045e-13
6.85925e-14
1.61425e-14
3.37734e-15
5.76983e-16
8.41346e-17
1.05905e-17
1.17498e-18
1.17981e-19
1.10114e-20
9.7724e-22
8.38948e-23
7.05036e-24
5.84697e-25
4.81547e-26
3.97174e-27
3.34717e-28
3.04857e-29
3.39349e-30
5.25713e-31
1.09732e-31
2.65972e-32
6.75181e-33
1.71706e-33
4.28298e-34
1.0248e-34
2.25408e-35
4.11774e-36
3.89938e-37
3.10754e-30
1.20589e-29
2.59538e-29
4.89538e-29
8.87489e-29
1.61496e-28
3.02974e-28
5.95598e-28
1.23417e-27
2.64723e-27
5.89296e-27
1.36816e-26
3.33432e-26
8.62127e-26
2.40094e-25
7.3197e-25
2.46759e-24
9.15311e-24
3.65188e-23
1.51503e-22
6.31414e-22
2.57018e-21
1.00288e-20
3.7171e-20
1.30801e-19
4.31201e-19
1.38241e-18
4.379e-18
1.33921e-17
4.04336e-17
1.19351e-16
3.38864e-16
9.38064e-16
2.49552e-15
6.4245e-15
1.59819e-14
3.84527e-14
8.94673e-14
2.02148e-13
4.45569e-13
9.53875e-13
1.99429e-12
4.07528e-12
8.17326e-12
1.59879e-11
3.06393e-11
5.74757e-11
1.05358e-10
1.88735e-10
3.33385e-10
5.67635e-10
9.45072e-10
1.53638e-09
2.43572e-09
3.75506e-09
5.5851e-09
7.84958e-09
9.72236e-09
6.40954e-09
3.52082e-09
1.9152e-09
1.0263e-09
5.41285e-10
2.82502e-10
1.46832e-10
7.42456e-11
3.52568e-11
1.52616e-11
6.12881e-12
2.26114e-12
7.61911e-13
2.31756e-13
6.28948e-14
1.48234e-14
3.07817e-15
5.21344e-16
7.54054e-17
9.42311e-18
1.03932e-18
1.03903e-19
9.6685e-21
8.56416e-22
7.34369e-23
6.16745e-24
5.11319e-25
4.21141e-26
3.47642e-27
2.93878e-28
2.70057e-29
3.06569e-30
4.87551e-31
1.03583e-31
2.52996e-32
6.43737e-33
1.63864e-33
4.0891e-34
9.78632e-35
2.15278e-35
3.93285e-36
3.72435e-37
3.09977e-30
1.20288e-29
2.5889e-29
4.883e-29
8.85186e-29
1.61059e-28
3.02107e-28
5.93785e-28
1.22974e-27
2.63639e-27
5.86647e-27
1.36152e-26
3.31689e-26
8.57252e-26
2.38623e-25
7.27155e-25
2.45067e-24
9.08926e-24
3.62881e-23
1.50717e-22
6.2893e-22
2.56413e-21
1.00243e-20
3.72388e-20
1.31372e-19
4.34214e-19
1.39565e-18
4.43055e-18
1.35745e-17
4.10396e-17
1.21288e-16
3.44638e-16
9.5476e-16
2.54179e-15
6.5464e-15
1.62937e-14
3.92211e-14
9.1289e-14
2.06344e-13
4.54894e-13
9.7385e-13
2.03584e-12
4.16038e-12
8.34055e-12
1.63078e-11
3.12327e-11
5.9126e-11
1.08157e-10
1.93674e-10
3.41999e-10
5.82562e-10
9.70284e-10
1.57813e-09
2.50345e-09
3.86152e-09
5.74793e-09
8.08164e-09
9.99192e-09
6.33918e-09
3.4778e-09
1.89265e-09
1.00209e-09
5.2799e-10
2.7545e-10
1.43127e-10
7.22138e-11
3.41414e-11
1.47779e-11
5.90807e-12
2.16995e-12
7.27282e-13
2.19977e-13
5.92496e-14
1.39967e-14
2.88131e-15
4.83457e-16
6.93175e-17
8.59669e-18
9.42415e-19
9.37913e-20
8.70014e-21
7.69026e-22
6.58531e-23
5.52566e-24
4.57866e-25
3.77046e-26
3.11403e-27
2.63898e-28
2.44388e-29
2.82041e-30
4.57173e-31
9.83086e-32
2.41375e-32
6.15784e-33
1.56963e-33
3.92018e-34
9.38731e-35
2.06577e-35
3.77471e-36
3.57485e-37
3.09374e-30
1.20055e-29
2.58387e-29
4.87338e-29
8.83391e-29
1.60716e-28
3.01424e-28
5.92342e-28
1.22627e-27
2.6279e-27
5.84575e-27
1.35634e-26
3.30331e-26
8.53463e-26
2.37483e-25
7.23447e-25
2.43755e-24
9.04258e-24
3.61164e-23
1.50131e-22
6.27296e-22
2.56129e-21
1.00311e-20
3.73406e-20
1.32031e-19
4.37411e-19
1.40917e-18
4.48253e-18
1.37596e-17
4.16555e-17
1.23233e-16
3.50458e-16
9.71421e-16
2.58716e-15
6.6668e-15
1.66016e-14
3.99872e-14
9.30992e-14
2.10479e-13
4.64179e-13
9.94057e-13
2.07893e-12
4.24967e-12
8.52168e-12
1.66708e-11
3.19473e-11
6.04949e-11
1.10673e-10
1.98209e-10
3.49971e-10
5.96419e-10
9.93858e-10
1.61745e-09
2.56792e-09
3.96488e-09
5.90735e-09
8.31361e-09
1.02781e-08
6.34476e-09
3.47706e-09
1.88965e-09
9.99098e-10
5.25434e-10
2.73745e-10
1.42028e-10
7.14499e-11
3.36318e-11
1.45521e-11
5.79701e-12
2.12123e-12
7.08092e-13
2.13232e-13
5.71714e-14
1.35562e-14
2.64839e-15
4.41574e-16
6.29494e-17
7.77069e-18
8.48918e-19
8.42923e-20
7.80872e-21
6.89823e-22
5.90648e-23
4.9571e-24
4.10931e-25
3.38638e-26
2.80078e-27
2.38188e-28
2.22588e-29
2.61541e-30
4.32661e-31
9.41931e-32
2.32427e-32
5.94036e-33
1.51534e-33
3.78613e-34
9.06865e-35
1.99598e-35
3.64749e-36
3.45429e-37
3.08927e-30
1.19883e-29
2.58016e-29
4.86632e-29
8.82079e-29
1.60468e-28
3.00931e-28
5.91308e-28
1.22373e-27
2.62161e-27
5.83033e-27
1.35247e-26
3.29319e-26
8.50648e-26
2.36642e-25
7.20729e-25
2.4281e-24
9.00872e-24
3.59958e-23
1.49739e-22
6.26295e-22
2.56057e-21
1.00434e-20
3.74509e-20
1.32672e-19
4.40401e-19
1.42157e-18
4.52913e-18
1.39232e-17
4.21957e-17
1.24947e-16
3.55564e-16
9.86085e-16
2.62735e-15
6.77332e-15
1.6873e-14
4.06513e-14
9.46683e-14
2.14109e-13
4.72338e-13
1.01179e-12
2.11663e-12
4.32797e-12
8.68072e-12
1.69872e-11
3.25619e-11
6.16484e-11
1.12817e-10
2.0211e-10
3.56868e-10
6.08477e-10
1.01453e-09
1.65219e-09
2.62496e-09
4.05692e-09
6.05131e-09
8.52714e-09
1.05528e-08
6.39616e-09
3.50109e-09
1.90023e-09
1.00399e-09
5.27321e-10
2.74424e-10
1.42174e-10
7.13393e-11
3.34658e-11
1.44563e-11
5.74203e-12
2.09491e-12
6.97056e-13
2.09148e-13
5.58548e-14
1.31858e-14
2.55983e-15
4.24084e-16
6.00986e-17
7.38046e-18
8.02992e-19
7.94935e-20
7.34899e-21
6.48323e-22
5.54619e-23
4.65202e-24
3.85502e-25
3.17636e-26
2.62778e-27
2.23794e-28
2.10069e-29
2.49127e-30
4.16497e-31
9.12614e-32
2.25804e-32
5.77712e-33
1.47436e-33
3.68462e-34
8.82679e-35
1.9429e-35
3.55063e-36
3.36261e-37
3.08609e-30
1.1976e-29
2.57752e-29
4.8613e-29
8.81153e-29
1.60293e-28
3.00585e-28
5.90584e-28
1.22193e-27
2.61715e-27
5.81934e-27
1.34971e-26
3.28591e-26
8.48607e-26
2.36026e-25
7.18724e-25
2.42132e-24
8.98481e-24
3.59152e-23
1.49493e-22
6.2576e-22
2.5609e-21
1.00566e-20
3.75499e-20
1.33218e-19
4.42882e-19
1.43166e-18
4.56717e-18
1.4056e-17
4.26335e-17
1.26331e-16
3.59684e-16
9.97909e-16
2.65975e-15
6.8588e-15
1.70906e-14
4.11872e-14
9.59385e-14
2.17014e-13
4.78852e-13
1.02598e-12
2.14674e-12
4.39039e-12
8.8058e-12
1.72354e-11
3.30443e-11
6.25557e-11
1.1451e-10
2.05189e-10
3.62322e-10
6.18033e-10
1.03094e-09
1.67984e-09
2.67069e-09
4.13065e-09
6.16698e-09
8.69961e-09
1.07758e-08
6.44908e-09
3.52798e-09
1.91343e-09
1.01062e-09
5.30399e-10
2.75817e-10
1.42737e-10
7.14821e-11
3.34541e-11
1.4419e-11
5.71505e-12
2.08051e-12
6.90606e-13
2.06646e-13
5.50207e-14
1.29455e-14
2.50332e-15
4.13111e-16
5.83283e-17
7.13995e-18
7.74806e-19
7.6555e-20
7.06782e-21
6.22961e-22
5.32615e-23
4.4658e-24
3.69987e-25
3.04824e-26
2.52219e-27
2.14986e-28
2.02342e-29
2.41283e-30
4.0586e-31
8.92556e-32
2.21166e-32
5.66146e-33
1.44517e-33
3.61206e-34
8.65351e-35
1.90483e-35
3.48108e-36
3.29675e-37
3.08398e-30
1.19679e-29
2.57578e-29
4.85802e-29
8.8055e-29
1.6018e-28
3.00365e-28
5.90127e-28
1.2208e-27
2.61435e-27
5.81248e-27
1.34799e-26
3.28141e-26
8.47353e-26
2.35651e-25
7.1752e-25
2.41724e-24
8.97064e-24
3.5868e-23
1.49358e-22
6.25534e-22
2.56169e-21
1.00676e-20
3.76253e-20
1.33619e-19
4.44675e-19
1.43894e-18
4.59444e-18
1.4151e-17
4.29453e-17
1.27311e-16
3.6258e-16
1.00622e-15
2.68253e-15
6.91889e-15
1.72427e-14
4.15616e-14
9.68261e-14
2.19057e-13
4.83452e-13
1.03594e-12
2.16775e-12
4.43364e-12
8.89278e-12
1.7407e-11
3.33752e-11
6.31747e-11
1.15664e-10
2.07293e-10
3.66053e-10
6.2457e-10
1.04216e-09
1.69874e-09
2.70193e-09
4.18122e-09
6.24647e-09
8.81836e-09
1.09311e-08
6.49115e-09
3.55002e-09
1.92452e-09
1.01629e-09
5.33105e-10
2.77092e-10
1.43287e-10
7.16629e-11
3.34866e-11
1.44111e-11
5.70372e-12
2.07337e-12
6.87144e-13
2.05247e-13
5.454e-14
1.28044e-14
2.47006e-15
4.06588e-16
5.72734e-17
6.99674e-18
7.58039e-19
7.48076e-20
6.90058e-21
6.07874e-22
5.19524e-23
4.35503e-24
3.60759e-25
2.97206e-26
2.45939e-27
2.09737e-28
1.97699e-29
2.36471e-30
3.99129e-31
8.79581e-32
2.18147e-32
5.58628e-33
1.42623e-33
3.5651e-34
8.54155e-35
1.88024e-35
3.43619e-36
3.25424e-37
3.08273e-30
1.19631e-29
2.57474e-29
4.85607e-29
8.80193e-29
1.60115e-28
3.00239e-28
5.89874e-28
1.2202e-27
2.6129e-27
5.80902e-27
1.34714e-26
3.27922e-26
8.46749e-26
2.35472e-25
7.16952e-25
2.41532e-24
8.96399e-24
3.5846e-23
1.49296e-22
6.25452e-22
2.56224e-21
1.00738e-20
3.76658e-20
1.3383e-19
4.45609e-19
1.44269e-18
4.60842e-18
1.41994e-17
4.31044e-17
1.27811e-16
3.64067e-16
1.01048e-15
2.69416e-15
6.94947e-15
1.73204e-14
4.17529e-14
9.72782e-14
2.20093e-13
4.85762e-13
1.04094e-12
2.17832e-12
4.45548e-12
8.93672e-12
1.7494e-11
3.35439e-11
6.34901e-11
1.16251e-10
2.08362e-10
3.67945e-10
6.27889e-10
1.04786e-09
1.70836e-09
2.71782e-09
4.20688e-09
6.28682e-09
8.87878e-09
1.10106e-08
6.51469e-09
3.56254e-09
1.93083e-09
1.01951e-09
5.34663e-10
2.77831e-10
1.43611e-10
7.17767e-11
3.35136e-11
1.44118e-11
5.69997e-12
2.07051e-12
6.85662e-13
2.04626e-13
5.43229e-14
1.274e-14
2.45483e-15
4.03609e-16
5.67905e-17
6.93118e-18
7.50374e-19
7.40096e-20
6.82423e-21
6.00987e-22
5.13551e-23
4.30449e-24
3.5655e-25
2.93732e-26
2.43076e-27
2.07342e-28
1.95577e-29
2.34259e-30
3.96001e-31
8.73476e-32
2.16714e-32
5.55037e-33
1.41715e-33
3.54251e-34
8.48753e-35
1.86836e-35
3.41445e-36
3.23364e-37
3.08228e-30
1.19613e-29
2.57435e-29
4.85532e-29
8.80056e-29
1.6009e-28
3.00194e-28
5.89791e-28
1.22004e-27
2.61259e-27
5.80843e-27
1.34703e-26
3.279e-26
8.46709e-26
2.35465e-25
7.16943e-25
2.41532e-24
8.96405e-24
3.58463e-23
1.49298e-22
6.2546e-22
2.56227e-21
1.0074e-20
3.76664e-20
1.33833e-19
4.45619e-19
1.44273e-18
4.60855e-18
1.41998e-17
4.31058e-17
1.27816e-16
3.6408e-16
1.01052e-15
2.69426e-15
6.94972e-15
1.7321e-14
4.17544e-14
9.72814e-14
2.201e-13
4.85776e-13
1.04097e-12
2.17838e-12
4.4556e-12
8.93694e-12
1.74945e-11
3.35447e-11
6.34915e-11
1.16254e-10
2.08366e-10
3.67952e-10
6.279e-10
1.04788e-09
1.70839e-09
2.71786e-09
4.20695e-09
6.28691e-09
8.87888e-09
1.10106e-08
6.51459e-09
3.56221e-09
1.9307e-09
1.01945e-09
5.34638e-10
2.77821e-10
1.43607e-10
7.1775e-11
3.35131e-11
1.44116e-11
5.69992e-12
2.0705e-12
6.85661e-13
2.04627e-13
5.43232e-14
1.27401e-14
2.45486e-15
4.03617e-16
5.67919e-17
6.93138e-18
7.50398e-19
7.4012e-20
6.82447e-21
6.01009e-22
5.13569e-23
4.30465e-24
3.56563e-25
2.93743e-26
2.43085e-27
2.0735e-28
1.95584e-29
2.34266e-30
3.96012e-31
8.73499e-32
2.16719e-32
5.5505e-33
1.41718e-33
3.54258e-34
8.48769e-35
1.86839e-35
3.41451e-36
3.2337e-37
3.08275e-30
1.19631e-29
2.57473e-29
4.85603e-29
8.8019e-29
1.60117e-28
3.00252e-28
5.89923e-28
1.22042e-27
2.61363e-27
5.81112e-27
1.34773e-26
3.28093e-26
8.47267e-26
2.35638e-25
7.17505e-25
2.41725e-24
8.97082e-24
3.5869e-23
1.49363e-22
6.25556e-22
2.56179e-21
1.0068e-20
3.76271e-20
1.33626e-19
4.44703e-19
1.43903e-18
4.59478e-18
1.41521e-17
4.29497e-17
1.27325e-16
3.62621e-16
1.00633e-15
2.68283e-15
6.91969e-15
1.72447e-14
4.15668e-14
9.68381e-14
2.19082e-13
4.83496e-13
1.03603e-12
2.16793e-12
4.434e-12
8.89349e-12
1.74084e-11
3.3378e-11
6.31795e-11
1.15672e-10
2.07305e-10
3.66072e-10
6.24602e-10
1.04221e-09
1.69883e-09
2.70207e-09
4.18141e-09
6.24675e-09
8.81874e-09
1.09314e-08
6.49131e-09
3.55008e-09
1.92454e-09
1.01628e-09
5.33105e-10
2.77089e-10
1.43285e-10
7.16621e-11
3.34864e-11
1.44111e-11
5.70376e-12
2.0734e-12
6.8716e-13
2.05253e-13
5.45424e-14
1.28051e-14
2.47023e-15
4.0662e-16
5.72788e-17
6.99746e-18
7.58124e-19
7.48165e-20
6.90143e-21
6.07949e-22
5.19589e-23
4.35558e-24
3.60804e-25
2.97243e-26
2.4597e-27
2.09763e-28
1.97723e-29
2.36496e-30
3.99164e-31
8.79647e-32
2.18162e-32
5.58662e-33
1.42631e-33
3.5653e-34
8.542e-35
1.88034e-35
3.43636e-36
3.25441e-37
3.08435e-30
1.19692e-29
2.57604e-29
4.85853e-29
8.80657e-29
1.60206e-28
3.00434e-28
5.90318e-28
1.22145e-27
2.61627e-27
5.81775e-27
1.34942e-26
3.28543e-26
8.48532e-26
2.36018e-25
7.18727e-25
2.42139e-24
8.98517e-24
3.59169e-23
1.495e-22
6.2579e-22
2.56103e-21
1.00571e-20
3.75521e-20
1.33227e-19
4.42914e-19
1.43178e-18
4.56758e-18
1.40573e-17
4.26375e-17
1.26344e-16
3.59723e-16
9.98021e-16
2.66007e-15
6.8597e-15
1.70931e-14
4.11937e-14
9.59548e-14
2.17053e-13
4.78947e-13
1.02616e-12
2.14706e-12
4.39096e-12
8.80712e-12
1.72374e-11
3.30465e-11
6.25582e-11
1.14513e-10
2.05199e-10
3.62343e-10
6.18068e-10
1.031e-09
1.67994e-09
2.67086e-09
4.13093e-09
6.16742e-09
8.70024e-09
1.07765e-08
6.44941e-09
3.52817e-09
1.91355e-09
1.0107e-09
5.30435e-10
2.75838e-10
1.42748e-10
7.14883e-11
3.34574e-11
1.44206e-11
5.71576e-12
2.0808e-12
6.90712e-13
2.0668e-13
5.50309e-14
1.29482e-14
2.50389e-15
4.13217e-16
5.83446e-17
7.14208e-18
7.75049e-19
7.65797e-20
7.07015e-21
6.23169e-22
5.32794e-23
4.46731e-24
3.70111e-25
3.04926e-26
2.52302e-27
2.15055e-28
2.02402e-29
2.41341e-30
4.05935e-31
8.92691e-32
2.21196e-32
5.66219e-33
1.44534e-33
3.61247e-34
8.65443e-35
1.90502e-35
3.48141e-36
3.29706e-37
3.08729e-30
1.19806e-29
2.5785e-29
4.86323e-29
8.81539e-29
1.60376e-28
3.00775e-28
5.91043e-28
1.22327e-27
2.62083e-27
5.82901e-27
1.35226e-26
3.29289e-26
8.50619e-26
2.36644e-25
7.20757e-25
2.42824e-24
9.00926e-24
3.5998e-23
1.49748e-22
6.26329e-22
2.56071e-21
1.0044e-20
3.74528e-20
1.32679e-19
4.40422e-19
1.42164e-18
4.52937e-18
1.39239e-17
4.21978e-17
1.24954e-16
3.5558e-16
9.86125e-16
2.62744e-15
6.77346e-15
1.68731e-14
4.06543e-14
9.46761e-14
2.14129e-13
4.72387e-13
1.01191e-12
2.11696e-12
4.32864e-12
8.68144e-12
1.69885e-11
3.25646e-11
6.16547e-11
1.1283e-10
2.02128e-10
3.56899e-10
6.08525e-10
1.01459e-09
1.65228e-09
2.62506e-09
4.057e-09
6.05173e-09
8.52784e-09
1.05537e-08
6.39657e-09
3.50134e-09
1.90039e-09
1.00408e-09
5.27374e-10
2.74453e-10
1.4219e-10
7.13483e-11
3.34707e-11
1.44587e-11
5.74308e-12
2.09533e-12
6.97213e-13
2.09199e-13
5.58699e-14
1.31898e-14
2.56069e-15
4.24243e-16
6.01232e-17
7.38369e-18
8.03361e-19
7.95312e-20
7.35255e-21
6.48641e-22
5.54893e-23
4.65433e-24
3.85693e-25
3.17793e-26
2.62907e-27
2.23901e-28
2.10159e-29
2.4921e-30
4.16591e-31
9.12754e-32
2.25831e-32
5.77771e-33
1.4745e-33
3.68493e-34
8.82743e-35
1.94303e-35
3.55084e-36
3.3628e-37
3.09169e-30
1.19976e-29
2.58217e-29
4.87025e-29
8.82849e-29
1.60626e-28
3.01274e-28
5.92095e-28
1.22586e-27
2.62722e-27
5.84465e-27
1.35617e-26
3.30312e-26
8.53456e-26
2.37491e-25
7.23487e-25
2.43771e-24
9.04321e-24
3.6119e-23
1.50142e-22
6.27338e-22
2.56145e-21
1.00317e-20
3.73426e-20
1.32037e-19
4.37431e-19
1.40923e-18
4.48268e-18
1.37599e-17
4.16561e-17
1.23243e-16
3.5049e-16
9.71517e-16
2.58744e-15
6.66753e-15
1.66036e-14
3.99888e-14
9.31016e-14
2.10483e-13
4.64189e-13
9.94083e-13
2.07898e-12
4.24981e-12
8.52215e-12
1.6672e-11
3.19502e-11
6.05011e-11
1.10684e-10
1.98233e-10
3.50014e-10
5.96492e-10
9.93977e-10
1.61763e-09
2.56821e-09
3.96527e-09
5.90798e-09
8.31446e-09
1.02791e-08
6.34529e-09
3.47739e-09
1.88985e-09
9.99211e-10
5.25499e-10
2.73781e-10
1.42048e-10
7.14612e-11
3.3638e-11