/*--------------------------------*- C++ -*----------------------------------*\
  =========                 |
  \\      /  F ield         | OpenFOAM: The Open Source CFD Toolbox
   \\    /   O peration     | Website:  https://openfoam.org
    \\  /    A nd           | Version:  10
     \\/     M anipulation  |
\*---------------------------------------------------------------------------*/
FoamFile
{
    format      ascii;
    class       volScalarField;
    location    "1";
    object      CO;
}
// * * * * * * * * * * * * * * * * * * * * * * * * * * * * * * * * * * * * * //

dimensions      [0 0 0 0 0 0 0];

internalField   nonuniform List<scalar> 
4000
(
3.73729e-07
1.44791e-06
3.08641e-06
5.67344e-06
9.75486e-06
1.61722e-05
2.62202e-05
4.18736e-05
6.61149e-05
0.00010216
0.000155078
0.000232269
0.000343778
0.000502694
0.000725429
0.00103164
0.00144317
0.00198243
0.00266996
0.00352187
0.00454742
0.00574752
0.00711446
0.00864188
0.0103027
0.0120378
0.0138633
0.0157867
0.0177275
0.0197085
0.0216758
0.0236356
0.0255641
0.0274401
0.0292535
0.0309972
0.0326663
0.0342587
0.0357705
0.0372024
0.0385648
0.0398392
0.0410379
0.0421666
0.0432215
0.044222
0.045144
0.0460196
0.046819
0.047578
0.0482546
0.0488562
0.0493662
0.0497478
0.0499325
0.049796
0.0491088
0.0474353
0.0439312
0.0369952
0.0282048
0.0199419
0.0132859
0.00846396
0.00522368
0.00323981
0.00208778
0.00144394
0.00106982
0.000847865
0.000691678
0.000567992
0.00046353
0.000372716
0.000293365
0.000224932
0.000164462
0.000115307
7.7237e-05
4.93993e-05
3.02569e-05
1.7848e-05
1.02077e-05
5.69592e-06
3.11692e-06
1.67916e-06
8.92971e-07
4.69516e-07
2.45024e-07
1.27008e-07
6.5438e-08
3.35309e-08
1.709e-08
8.65899e-09
4.35322e-09
2.16082e-09
1.04689e-09
4.8161e-10
1.94867e-10
4.48786e-11
3.73826e-07
1.44833e-06
3.08762e-06
5.67688e-06
9.76348e-06
1.6191e-05
2.62563e-05
4.19345e-05
6.62035e-05
0.000102297
0.000155231
0.000232342
0.00034357
0.000501789
0.000723066
0.0010265
0.00143299
0.00196479
0.00264257
0.00348285
0.00449582
0.00568412
0.00704275
0.0085501
0.0101958
0.0119175
0.0137315
0.0156521
0.0175896
0.0195746
0.0215509
0.0235217
0.0254574
0.0273437
0.029166
0.0309178
0.0325944
0.0341948
0.0357131
0.037151
0.0385192
0.0397984
0.0410014
0.0421352
0.0431925
0.044195
0.0451201
0.0459979
0.0467997
0.0475606
0.0482371
0.0488397
0.0493496
0.049729
0.0499076
0.0497575
0.049042
0.0473117
0.0436891
0.0365527
0.0277207
0.0195104
0.0129459
0.00821974
0.00506642
0.00314498
0.00203372
0.00141538
0.00105421
0.000837814
0.000683414
0.000560732
0.000456569
0.000365906
0.000286416
0.000217931
0.00015837
0.000110346
7.35039e-05
4.68234e-05
2.86279e-05
1.68976e-05
9.69053e-06
5.43037e-06
2.98705e-06
1.61847e-06
8.6628e-07
4.59232e-07
2.40891e-07
1.25266e-07
6.46652e-08
3.31691e-08
1.69105e-08
8.56275e-09
4.30306e-09
2.13506e-09
1.03392e-09
4.75545e-10
1.92412e-10
4.43109e-11
3.74598e-07
1.45146e-06
3.09491e-06
5.69165e-06
9.79118e-06
1.62398e-05
2.6337e-05
4.20584e-05
6.63751e-05
0.00010253
0.000155491
0.000232538
0.000343541
0.000501149
0.000721126
0.00102204
0.00142492
0.00195144
0.00262166
0.00345164
0.00445128
0.0056229
0.00696424
0.00846076
0.0100953
0.0118078
0.0136178
0.0155302
0.0174635
0.0194501
0.0214214
0.0233887
0.0253234
0.0272174
0.0290483
0.0308088
0.0324942
0.0341041
0.0356307
0.0370764
0.0384524
0.0397385
0.0409471
0.0420857
0.0431491
0.0441557
0.0450844
0.0459653
0.0467689
0.0475317
0.0482087
0.0488115
0.0493202
0.0496955
0.0498638
0.0496916
0.0489299
0.0471022
0.0432801
0.0358258
0.0269342
0.0188158
0.0123981
0.00783033
0.00482192
0.00299937
0.0019535
0.00137236
0.00103114
0.000822759
0.000671833
0.000550147
0.000447153
0.000357875
0.000277162
0.000210426
0.000152105
0.000105479
7.00105e-05
4.45085e-05
2.72029e-05
1.60734e-05
9.23658e-06
5.18936e-06
2.86238e-06
1.55496e-06
8.33902e-07
4.42297e-07
2.32361e-07
1.21062e-07
6.26179e-08
3.21815e-08
1.64427e-08
8.35231e-09
4.20489e-09
2.0884e-09
1.01184e-09
4.65444e-10
1.88311e-10
4.33596e-11
3.74625e-07
1.45156e-06
3.09514e-06
5.692e-06
9.79125e-06
1.62379e-05
2.63281e-05
4.203e-05
6.63001e-05
0.000102373
0.000155142
0.000231775
0.000341929
0.000498198
0.00071617
0.00101434
0.00141328
0.00193442
0.00259775
0.00341952
0.00441016
0.00557292
0.00690207
0.00838837
0.0100151
0.0117183
0.0135198
0.0154262
0.0173494
0.0193282
0.0212941
0.0232584
0.0251929
0.0270897
0.0289297
0.0306976
0.0323911
0.0340099
0.0355444
0.0369977
0.0383809
0.0396728
0.0408876
0.0420339
0.0431015
0.0441108
0.0450422
0.0459249
0.0467305
0.0474946
0.0481723
0.0487744
0.0492801
0.0496482
0.0498027
0.0496014
0.04878
0.0468299
0.042758
0.0349454
0.0260126
0.0180438
0.0117223
0.00736609
0.00453568
0.0028313
0.00186122
0.00132296
0.00100589
0.000805633
0.000657583
0.000537824
0.00043585
0.000346976
0.000268064
0.000202565
0.000145356
0.000100142
6.611e-05
4.18665e-05
2.55334e-05
1.50793e-05
8.67242e-06
4.88099e-06
2.69862e-06
1.46991e-06
7.90479e-07
4.20415e-07
2.21438e-07
1.15643e-07
5.99382e-08
3.08556e-08
1.57826e-08
8.01846e-09
4.03911e-09
2.0076e-09
9.73511e-10
4.48178e-10
1.8145e-10
4.17972e-11
3.74046e-07
1.44932e-06
3.09031e-06
5.68286e-06
9.77467e-06
1.6208e-05
2.62731e-05
4.19275e-05
6.61072e-05
0.000102007
0.000154498
0.000230697
0.000340223
0.000495497
0.000711944
0.00100786
0.00140361
0.00192046
0.00257834
0.00339364
0.00437713
0.00553264
0.0068552
0.00833172
0.00994579
0.0116349
0.0134195
0.0153197
0.0172396
0.0192145
0.0211778
0.0231398
0.0250744
0.026972
0.028817
0.0305945
0.0322964
0.0339233
0.0354652
0.0369256
0.0383152
0.0396132
0.040833
0.041984
0.0430546
0.0440655
0.0449989
0.0458824
0.0466886
0.0474524
0.0481281
0.0487267
0.0492263
0.049584
0.0497188
0.0494805
0.0485867
0.0464903
0.0421221
0.0339334
0.0249677
0.0171337
0.0110311
0.00688941
0.0042422
0.0026625
0.00176942
0.00127158
0.0009795
0.000787767
0.000643253
0.000524973
0.000423489
0.000336054
0.000260493
0.000193149
0.000138019
9.46999e-05
6.23082e-05
3.93732e-05
2.39926e-05
1.41742e-05
8.16182e-06
4.60177e-06
2.54949e-06
1.39167e-06
7.49998e-07
3.99687e-07
2.10909e-07
1.10324e-07
5.72614e-08
2.95108e-08
1.51079e-08
7.68075e-09
3.871e-09
1.92488e-09
9.33765e-10
4.30022e-10
1.74141e-10
4.01165e-11
3.72894e-07
1.44486e-06
3.08078e-06
5.66512e-06
9.7434e-06
1.6154e-05
2.61802e-05
4.17655e-05
6.58319e-05
0.000101557
0.000153793
0.000229636
0.000338618
0.00049305
0.000708238
0.00100232
0.0013955
0.00190878
0.00256183
0.0033707
0.00434581
0.0054901
0.0067989
0.00826473
0.00987202
0.0115561
0.0133382
0.0152335
0.0171472
0.0191176
0.0210786
0.0230389
0.0249755
0.0268754
0.028727
0.0305095
0.0322172
0.03385
0.0353975
0.0368629
0.038258
0.0395605
0.0407842
0.0419389
0.0430115
0.0440217
0.0449551
0.0458347
0.0466392
0.0474003
0.0480719
0.048665
0.0491561
0.049499
0.0496079
0.0493227
0.0483403
0.0460695
0.0413546
0.0328853
0.0239506
0.0163015
0.0104264
0.00648366
0.00398844
0.00251594
0.00168884
0.00122761
0.000953738
0.000769257
0.000628207
0.000511661
0.000411926
0.000325665
0.00025094
0.000185123
0.000131612
8.9876e-05
5.88984e-05
3.71102e-05
2.2575e-05
1.33288e-05
7.67738e-06
4.33273e-06
2.40371e-06
1.31421e-06
7.09482e-07
3.78762e-07
2.00211e-07
1.04898e-07
5.45218e-08
2.81276e-08
1.44105e-08
7.33134e-09
3.69742e-09
1.84001e-09
8.93321e-10
4.11675e-10
1.66781e-10
3.84254e-11
3.71184e-07
1.4382e-06
3.0664e-06
5.63826e-06
9.69648e-06
1.60754e-05
2.60534e-05
4.15696e-05
6.55197e-05
0.000101046
0.000153002
0.000228387
0.000336679
0.000490107
0.000703858
0.000995936
0.00138641
0.00189613
0.00254464
0.00334787
0.00431734
0.00545541
0.00675867
0.00821751
0.00981748
0.0114947
0.0132689
0.0151587
0.017069
0.0190364
0.0209945
0.0229516
0.0248982
0.0267986
0.0286525
0.0304401
0.0321532
0.0337915
0.0353437
0.036813
0.0382109
0.0395167
0.0407437
0.0419018
0.0429765
0.04398
0.0449142
0.045788
0.0465902
0.0473475
0.0480135
0.0485981
0.0490763
0.0493994
0.0494759
0.0491346
0.0480491
0.0455788
0.0404734
0.0318316
0.0229745
0.0155171
0.00986753
0.00611239
0.00376401
0.00239056
0.00162568
0.00118466
0.000928394
0.000751316
0.000613832
0.000499019
0.000400561
0.000315203
0.000242267
0.000177854
0.000125831
8.55467e-05
5.58566e-05
3.51021e-05
2.1322e-05
1.25832e-05
7.25005e-06
4.09489e-06
2.27431e-06
1.24505e-06
6.73045e-07
3.59795e-07
1.90442e-07
9.99189e-08
5.20171e-08
2.68927e-08
1.38083e-08
7.03546e-09
3.54992e-09
1.7668e-09
8.57746e-10
3.9526e-10
1.60127e-10
3.68919e-11
3.69312e-07
1.43092e-06
3.05067e-06
5.60869e-06
9.64408e-06
1.59852e-05
2.59002e-05
4.13109e-05
6.50972e-05
0.000100363
0.000151837
0.000226524
0.000333803
0.000485781
0.000697515
0.000986877
0.00137386
0.00187927
0.00252277
0.00332062
0.00428372
0.00541603
0.00671525
0.00817102
0.00976485
0.0114339
0.0132043
0.01509
0.0169959
0.0189605
0.0209248
0.0228833
0.0248335
0.0267362
0.0285925
0.0303846
0.0321018
0.0337422
0.0352992
0.0367762
0.0381691
0.0394794
0.0407092
0.0418684
0.0429441
0.0439471
0.0448806
0.0457476
0.046547
0.0472993
0.0479577
0.0485321
0.0489958
0.0492971
0.0493389
0.0489383
0.0477449
0.0450663
0.0395553
0.0308132
0.0220571
0.0147948
0.00936412
0.00578572
0.00356584
0.00227954
0.00156523
0.00115042
0.000907087
0.000735705
0.000600674
0.000487725
0.000390563
0.000306288
0.000234171
0.000171139
0.000120566
8.16587e-05
5.31585e-05
3.33404e-05
2.02316e-05
1.19371e-05
6.88008e-06
3.88853e-06
2.16154e-06
1.18443e-06
6.40888e-07
3.42928e-07
1.81676e-07
9.53956e-08
4.96934e-08
2.57e-08
1.32011e-08
6.73288e-09
3.40372e-09
1.69634e-09
8.2409e-10
3.79844e-10
1.539e-10
3.54591e-11
3.67625e-07
1.42439e-06
3.03669e-06
5.58274e-06
9.59876e-06
1.59085e-05
2.57725e-05
4.11011e-05
6.47572e-05
9.97681e-05
0.000150909
0.000225109
0.000331697
0.000482708
0.000693107
0.000980681
0.00136537
0.00186794
0.00250815
0.00330295
0.00426164
0.00539066
0.00668411
0.00813227
0.0097229
0.0113899
0.0131563
0.015037
0.0169401
0.0188994
0.0208794
0.0228345
0.0247847
0.0266884
0.0285464
0.030342
0.032063
0.0337053
0.0352658
0.0367467
0.0381407
0.0394522
0.0406823
0.0418421
0.0429173
0.0439193
0.0448503
0.045713
0.0465085
0.0472555
0.0479081
0.0484736
0.0489242
0.0492054
0.0492148
0.0487588
0.0474641
0.0445894
0.0386994
0.02989
0.0212438
0.0141628
0.00894214
0.00551135
0.00340156
0.00218707
0.00151525
0.00112246
0.000888897
0.000722047
0.000589644
0.000478532
0.000383112
0.000296708
0.00022663
0.000165307
0.000116199
7.85279e-05
5.1023e-05
3.19534e-05
1.937e-05
1.14217e-05
6.58122e-06
3.71948e-06
2.06786e-06
1.13337e-06
6.13458e-07
3.28376e-07
1.74038e-07
9.14206e-08
4.76375e-08
2.46409e-08
1.266e-08
6.45972e-09
3.26692e-09
1.62909e-09
7.9185e-10
3.65132e-10
1.4797e-10
3.40968e-11
3.66218e-07
1.41899e-06
3.0253e-06
5.56194e-06
9.56308e-06
1.5849e-05
2.56746e-05
4.09398e-05
6.44877e-05
9.93138e-05
0.000150177
0.000223967
0.000329955
0.000480126
0.000689387
0.000975462
0.00135821
0.00185834
0.00249559
0.00328644
0.00424249
0.00536602
0.00665563
0.00810261
0.00968989
0.0113538
0.0131178
0.0149956
0.0168979
0.0188565
0.0208388
0.0227946
0.0247462
0.0266511
0.0285106
0.0303086
0.0320342
0.033679
0.0352417
0.0367259
0.0381213
0.0394337
0.0406649
0.0418249
0.0428997
0.0439005
0.0448299
0.0456901
0.0464824
0.0472246
0.0478711
0.0484286
0.0488677
0.049132
0.0491135
0.0486086
0.0472225
0.0441675
0.0379284
0.0290638
0.0205129
0.0135885
0.00857103
0.00527324
0.00326052
0.00210868
0.0014726
0.00109932
0.000873851
0.000710696
0.000580204
0.000470235
0.000375621
0.000290072
0.000220982
0.000160721
0.000112643
7.59079e-05
4.91933e-05
3.07407e-05
1.86037e-05
1.0957e-05
6.30886e-06
3.56421e-06
1.98132e-06
1.08603e-06
5.8798e-07
3.14844e-07
1.66931e-07
8.7721e-08
4.57217e-08
2.36515e-08
1.21527e-08
6.20116e-09
3.13683e-09
1.56489e-09
7.61044e-10
3.51092e-10
1.42326e-10
3.28033e-11
3.64798e-07
1.41349e-06
3.01352e-06
5.54015e-06
9.52542e-06
1.57866e-05
2.55744e-05
4.07842e-05
6.42568e-05
9.8949e-05
0.000149614
0.000223105
0.000328613
0.000478075
0.000686338
0.000971101
0.00135222
0.00185041
0.00248562
0.00327353
0.00422552
0.0053462
0.00663316
0.0080766
0.00966228
0.0113244
0.013087
0.0149629
0.0168648
0.0188229
0.0208063
0.0227631
0.0247168
0.0266234
0.028485
0.0302859
0.0320146
0.0336614
0.0352261
0.0367129
0.0381097
0.0394234
0.0406553
0.0418154
0.04289
0.0438901
0.0448184
0.045677
0.0464669
0.0472051
0.0478475
0.0483992
0.04883
0.0490807
0.0490394
0.0484938
0.0470309
0.043826
0.0372075
0.0283182
0.0198787
0.0131084
0.00825953
0.00506214
0.00313776
0.00204117
0.00143554
0.00107989
0.000860956
0.000700816
0.000571945
0.000463059
0.000369314
0.000285095
0.00021663
0.00015708
0.000109743
7.37117e-05
4.76253e-05
2.96867e-05
1.79328e-05
1.05487e-05
6.06896e-06
3.42721e-06
1.90483e-06
1.04414e-06
5.65389e-07
3.02825e-07
1.60615e-07
8.4447e-08
4.40581e-08
2.28246e-08
1.1744e-08
5.99798e-09
3.03394e-09
1.51292e-09
7.35507e-10
3.39235e-10
1.37501e-10
3.16902e-11
3.63559e-07
1.40871e-06
3.00333e-06
5.52138e-06
9.49303e-06
1.57326e-05
2.54862e-05
4.06416e-05
6.40128e-05
9.85499e-05
0.000149006
0.000222232
0.000327433
0.000476434
0.000683994
0.000967636
0.0013473
0.00184376
0.00247666
0.00326273
0.00421238
0.00533082
0.00661595
0.00805737
0.00964099
0.0113014
0.0130628
0.0149374
0.0168392
0.018797
0.0207815
0.0227394
0.0246945
0.0266031
0.0284667
0.0302698
0.0320012
0.03365
0.0352164
0.0367052
0.0381035
0.0394183
0.0406512
0.0418115
0.0428864
0.0438865
0.0448143
0.045672
0.0464606
0.0471962
0.0478359
0.0483837
0.0488081
0.0490483
0.0489882
0.0484072
0.0468741
0.0435262
0.0366577
0.027727
0.0193645
0.0127163
0.0079878
0.00489743
0.00304061
0.0019869
0.00140556
0.0010642
0.000850355
0.000692494
0.000564833
0.000456673
0.000363491
0.000280826
0.000212959
0.000153992
0.000107256
7.18404e-05
4.63048e-05
2.8807e-05
1.73751e-05
1.02094e-05
5.8694e-06
3.31295e-06
1.84084e-06
1.00896e-06
5.46339e-07
2.92623e-07
1.55176e-07
8.1567e-08
4.25558e-08
2.20573e-08
1.13527e-08
5.79941e-09
2.93513e-09
1.46446e-09
7.12235e-10
3.2858e-10
1.33199e-10
3.07003e-11
3.62509e-07
1.40466e-06
2.99471e-06
5.50554e-06
9.46575e-06
1.56872e-05
2.54123e-05
4.05233e-05
6.38092e-05
9.8212e-05
0.000148475
0.000221423
0.000326222
0.000474718
0.000681675
0.000964694
0.00134339
0.00183846
0.00246967
0.00325347
0.00420146
0.00531837
0.00660107
0.00804116
0.00962341
0.011283
0.0130439
0.0149176
0.0168195
0.0187773
0.0207628
0.0227219
0.0246787
0.0265886
0.0284535
0.0302588
0.0319927
0.0336433
0.0352114
0.0367022
0.0381018
0.0394177
0.0406514
0.0418122
0.0428877
0.0438883
0.0448165
0.0456742
0.0464623
0.0471965
0.047835
0.0483805
0.0488009
0.0490334
0.0489585
0.0483483
0.0467573
0.0432908
0.0362211
0.027254
0.0189509
0.0123993
0.0077669
0.00476374
0.00296218
0.00194362
0.0013816
0.00105169
0.000841632
0.000685521
0.000558686
0.000451188
0.000358554
0.000277236
0.000209752
0.000151303
0.000105118
7.02359e-05
4.5171e-05
2.80504e-05
1.68949e-05
9.91717e-06
5.69746e-06
3.21453e-06
1.78578e-06
9.78762e-07
5.30089e-07
2.84066e-07
1.50804e-07
7.93664e-08
4.14288e-08
2.14715e-08
1.10506e-08
5.64487e-09
2.85622e-09
1.42488e-09
6.9291e-10
3.19637e-10
1.29564e-10
2.98615e-11
3.61638e-07
1.4013e-06
2.98758e-06
5.49245e-06
9.44325e-06
1.56499e-05
2.53521e-05
4.04278e-05
6.36424e-05
9.79339e-05
0.000148038
0.000220764
0.00032525
0.000473313
0.000679681
0.000961906
0.00133976
0.00183392
0.00246398
0.00324641
0.00419284
0.00530808
0.0065898
0.00802866
0.00961007
0.0112689
0.0130294
0.0149025
0.0168046
0.0187626
0.020749
0.0227091
0.0246672
0.0265785
0.0284452
0.0302523
0.0319881
0.0336403
0.0352098
0.0367023
0.0381029
0.0394198
0.0406543
0.0418155
0.0428918
0.0438936
0.0448238
0.0456823
0.0464707
0.047204
0.0478419
0.0483862
0.048804
0.0490308
0.0489443
0.0483103
0.0466704
0.0431024
0.0358664
0.026871
0.0186167
0.0121369
0.00758376
0.00464942
0.00289549
0.00190682
0.00136101
0.00104097
0.00083427
0.00067959
0.000553607
0.000446574
0.000354334
0.000274189
0.000207015
0.000148948
0.00010323
6.88154e-05
4.41684e-05
2.73833e-05
1.64731e-05
9.66146e-06
5.54755e-06
3.12897e-06
1.738e-06
9.5255e-07
5.15922e-07
2.76504e-07
1.46807e-07
7.72975e-08
4.03885e-08
2.09426e-08
1.07802e-08
5.50559e-09
2.7859e-09
1.38991e-09
6.75945e-10
3.11822e-10
1.26397e-10
2.91315e-11
3.60923e-07
1.39854e-06
2.98172e-06
5.4817e-06
9.42481e-06
1.56195e-05
2.53029e-05
4.035e-05
6.35064e-05
9.77074e-05
0.000147684
0.000220231
0.000324469
0.000472191
0.000678101
0.00095973
0.00133686
0.00182997
0.00245907
0.00324073
0.00418616
0.00530034
0.00658091
0.00801887
0.00959963
0.0112579
0.0130182
0.0148908
0.0167934
0.0187518
0.0207392
0.0227004
0.0246598
0.0265724
0.0284404
0.0302489
0.0319865
0.0336399
0.0352107
0.0367044
0.038106
0.0394235
0.0406584
0.0418192
0.0428948
0.0438948
0.0448408
0.0456969
0.0464842
0.0472163
0.0478539
0.0483976
0.0488135
0.0490362
0.0489405
0.0482876
0.0466082
0.0429597
0.0355961
0.0265911
0.0183988
0.0118746
0.00741222
0.00454525
0.00283656
0.00187493
0.00134344
0.00103195
0.000827984
0.000674592
0.000549274
0.000442725
0.00035083
0.000271627
0.000204458
0.000146696
0.000101436
6.74885e-05
4.32493e-05
2.67822e-05
1.60988e-05
9.43727e-06
5.41742e-06
3.05527e-06
1.69708e-06
9.30189e-07
5.03855e-07
2.7005e-07
1.43368e-07
7.5464e-08
3.94134e-08
2.04367e-08
1.0523e-08
5.37779e-09
2.7226e-09
1.35883e-09
6.61013e-10
3.04989e-10
1.2364e-10
2.84972e-11
3.60345e-07
1.39631e-06
2.97698e-06
5.47301e-06
9.40985e-06
1.55946e-05
2.52626e-05
4.02856e-05
6.33961e-05
9.75255e-05
0.000147401
0.000219807
0.00032385
0.000471302
0.000676853
0.000958019
0.00133451
0.00182698
0.00245523
0.00323596
0.00418067
0.00529404
0.00657389
0.00801124
0.00959159
0.0112497
0.0130099
0.0148824
0.0167853
0.0187439
0.0207322
0.0226943
0.0246548
0.0265686
0.0284379
0.0302477
0.0319866
0.0336412
0.0352131
0.036708
0.0381105
0.0394289
0.0406647
0.0418259
0.0429026
0.043904
0.0448515
0.0457088
0.0464968
0.0472288
0.0478667
0.04841
0.0488247
0.049044
0.0489407
0.0482714
0.046558
0.0428389
0.0353643
0.0263397
0.0181784
0.0117082
0.00729598
0.00447185
0.00279384
0.0018514
0.00133029
0.00102517
0.000823247
0.000670817
0.000546085
0.000440025
0.000348664
0.000270281
0.000200891
0.000144217
9.96969e-05
6.62972e-05
4.24599e-05
2.62791e-05
1.57898e-05
9.25357e-06
5.31111e-06
2.99511e-06
1.66365e-06
9.11915e-07
4.94003e-07
2.64799e-07
1.40595e-07
7.40107e-08
3.86573e-08
2.00465e-08
1.03232e-08
5.27652e-09
2.67179e-09
1.33369e-09
6.48863e-10
2.99409e-10
1.21383e-10
2.79765e-11
3.59899e-07
1.39459e-06
2.97333e-06
5.46631e-06
9.39836e-06
1.55756e-05
2.52319e-05
4.02371e-05
6.33117e-05
9.73853e-05
0.000147183
0.000219481
0.000323373
0.000470622
0.000675903
0.000956721
0.00133276
0.00182471
0.00245233
0.00323239
0.00417638
0.00528922
0.00656859
0.00800555
0.00958566
0.0112436
0.0130039
0.0148764
0.0167797
0.0187386
0.0207276
0.0226905
0.0246519
0.0265667
0.028437
0.0302477
0.0319878
0.0336434
0.0352162
0.0367121
0.0381154
0.0394346
0.0406712
0.0418331
0.0429107
0.0439131
0.0448609
0.0457191
0.0465079
0.0472399
0.0478782
0.0484215
0.0488352
0.0490517
0.048942
0.0482592
0.0465175
0.0427395
0.035175
0.0261353
0.0180005
0.0115801
0.00720848
0.00441703
0.00276226
0.00183418
0.00132082
0.00101993
0.000819555
0.000667844
0.000543509
0.00043772
0.000346583
0.000268373
0.000199087
0.000142691
9.84997e-05
6.54167e-05
4.18539e-05
2.58854e-05
1.55459e-05
9.10812e-06
5.22694e-06
2.94756e-06
1.63732e-06
8.9756e-07
4.86281e-07
2.6069e-07
1.38429e-07
7.28797e-08
3.80721e-08
1.97462e-08
1.01702e-08
5.19903e-09
2.63287e-09
1.31439e-09
6.39524e-10
2.95113e-10
1.19644e-10
2.7576e-11
3.59577e-07
1.39335e-06
2.9707e-06
5.46148e-06
9.39007e-06
1.55619e-05
2.52098e-05
4.02022e-05
6.32506e-05
9.72834e-05
0.000147024
0.000219242
0.000323024
0.00047012
0.000675193
0.000955731
0.00133145
0.001823
0.00245023
0.00322985
0.00417336
0.00528572
0.00656471
0.00800145
0.00958144
0.0112394
0.0129997
0.0148723
0.0167759
0.0187351
0.0207247
0.0226882
0.0246503
0.0265658
0.0284369
0.0302484
0.0319894
0.0336457
0.0352192
0.0367159
0.0381198
0.0394397
0.040677
0.0418393
0.0429176
0.0439207
0.0448686
0.0457274
0.0465168
0.047249
0.0478876
0.0484309
0.0488439
0.0490582
0.0489437
0.0482508
0.0464878
0.042666
0.0350345
0.025984
0.0178698
0.0114868
0.00714498
0.00437762
0.00273958
0.00182185
0.00131416
0.00101599
0.000816791
0.000665614
0.000541562
0.000435962
0.000344994
0.000266941
0.000197824
0.000141651
9.76878e-05
6.48185e-05
4.14384e-05
2.56123e-05
1.53747e-05
9.00499e-06
5.16677e-06
2.91334e-06
1.61826e-06
8.87135e-07
4.8067e-07
2.57717e-07
1.36876e-07
7.20744e-08
3.76564e-08
1.95323e-08
1.00606e-08
5.14335e-09
2.60483e-09
1.30046e-09
6.32772e-10
2.92005e-10
1.18385e-10
2.7286e-11
3.59374e-07
1.39257e-06
2.96904e-06
5.45844e-06
9.38487e-06
1.55533e-05
2.5196e-05
4.01803e-05
6.32119e-05
9.72186e-05
0.000146922
0.00021909
0.000322802
0.000469802
0.000674747
0.000955121
0.00133064
0.00182195
0.00244891
0.00322824
0.00417148
0.00528356
0.00656231
0.00799889
0.0095788
0.0112367
0.0129972
0.0148697
0.0167736
0.018733
0.020723
0.0226869
0.0246495
0.0265655
0.0284371
0.0302492
0.0319908
0.0336476
0.0352216
0.0367188
0.0381233
0.0394436
0.0406813
0.0418439
0.0429227
0.0439261
0.0448741
0.0457333
0.0465231
0.0472553
0.0478942
0.0484375
0.04885
0.0490629
0.0489452
0.0482455
0.0464685
0.0426178
0.0349393
0.0258829
0.0177835
0.0114256
0.00710364
0.00435202
0.00272494
0.00181392
0.00130986
0.00101343
0.000814979
0.000664148
0.000540286
0.000434817
0.000343961
0.00026602
0.000197029
0.00014099
9.71758e-05
6.44434e-05
4.11777e-05
2.54399e-05
1.5266e-05
8.93918e-06
5.12821e-06
2.89134e-06
1.60597e-06
8.80394e-07
4.77026e-07
2.5577e-07
1.35845e-07
7.15352e-08
3.73774e-08
1.93894e-08
9.98804e-09
5.1067e-09
2.58648e-09
1.29138e-09
6.28383e-10
2.89988e-10
1.17569e-10
2.70982e-11
3.5928e-07
1.39221e-06
2.96827e-06
5.45703e-06
9.38244e-06
1.55493e-05
2.51895e-05
4.01701e-05
6.31937e-05
9.71879e-05
0.000146874
0.000219018
0.000322696
0.00046965
0.000674534
0.000954831
0.00133025
0.00182144
0.00244828
0.00322745
0.00417054
0.00528249
0.00656114
0.00799763
0.0095775
0.0112354
0.0129959
0.0148685
0.0167725
0.018732
0.0207222
0.0226864
0.0246492
0.0265655
0.0284373
0.0302497
0.0319916
0.0336486
0.0352229
0.0367204
0.0381251
0.0394457
0.0406837
0.0418464
0.0429254
0.0439291
0.044877
0.0457365
0.0465265
0.0472587
0.0478977
0.048441
0.0488532
0.0490655
0.0489462
0.0482431
0.046459
0.0425939
0.0348921
0.025833
0.0177408
0.0113953
0.00708325
0.00433941
0.00271774
0.00181004
0.00130775
0.00101216
0.000814088
0.000663428
0.000539661
0.000434258
0.000343461
0.000265579
0.000196651
0.000140679
9.69342e-05
6.42672e-05
4.10557e-05
2.53592e-05
1.5215e-05
8.90828e-06
5.11009e-06
2.88099e-06
1.60019e-06
8.77217e-07
4.75305e-07
2.54849e-07
1.35358e-07
7.12798e-08
3.7245e-08
1.93213e-08
9.95332e-09
5.08914e-09
2.57767e-09
1.28702e-09
6.26277e-10
2.89021e-10
1.17179e-10
2.70082e-11
3.59291e-07
1.39225e-06
2.96835e-06
5.45718e-06
9.38268e-06
1.55497e-05
2.51901e-05
4.01708e-05
6.31947e-05
9.71892e-05
0.000146876
0.00021902
0.000322698
0.000469653
0.000674537
0.000954834
0.00133025
0.00182145
0.00244828
0.00322746
0.00417054
0.0052825
0.00656115
0.00799763
0.0095775
0.0112354
0.0129959
0.0148685
0.0167725
0.018732
0.0207222
0.0226864
0.0246493
0.0265655
0.0284374
0.0302497
0.0319917
0.0336487
0.035223
0.0367205
0.0381253
0.0394459
0.0406838
0.0418466
0.0429256
0.0439293
0.0448773
0.0457367
0.0465267
0.047259
0.047898
0.0484413
0.0488535
0.0490658
0.0489465
0.0482434
0.0464593
0.0425942
0.0348924
0.0258331
0.0177409
0.0113954
0.00708332
0.00433945
0.00271776
0.00181005
0.00130776
0.00101217
0.000814088
0.000663429
0.000539661
0.000434259
0.000343461
0.000265579
0.000196652
0.00014068
9.69349e-05
6.42677e-05
4.10561e-05
2.53594e-05
1.52152e-05
8.90839e-06
5.11016e-06
2.88103e-06
1.60021e-06
8.77229e-07
4.75312e-07
2.54853e-07
1.35361e-07
7.12815e-08
3.7246e-08
1.9322e-08
9.95374e-09
5.0894e-09
2.57783e-09
1.28712e-09
6.26334e-10
2.89051e-10
1.17192e-10
2.70113e-11
3.59405e-07
1.39269e-06
2.96928e-06
5.45886e-06
9.38555e-06
1.55544e-05
2.51975e-05
4.01825e-05
6.32148e-05
9.72223e-05
0.000146927
0.000219096
0.000322808
0.00046981
0.000674756
0.00095513
0.00133065
0.00182196
0.00244892
0.00322825
0.00417149
0.00528357
0.00656232
0.00799889
0.0095788
0.0112367
0.0129972
0.0148697
0.0167736
0.018733
0.020723
0.022687
0.0246496
0.0265657
0.0284373
0.0302493
0.031991
0.0336478
0.0352219
0.0367192
0.0381237
0.0394441
0.0406819
0.0418445
0.0429233
0.0439268
0.0448748
0.0457341
0.0465239
0.0472562
0.0478951
0.0484384
0.0488509
0.0490639
0.0489462
0.0482465
0.0464694
0.0426186
0.03494
0.0258835
0.0177839
0.0114259
0.00710383
0.00435214
0.002725
0.00181396
0.00130987
0.00101343
0.000814981
0.000664149
0.000540287
0.000434818
0.000343962
0.000266022
0.000197031
0.000140992
9.71776e-05
6.44449e-05
4.11788e-05
2.54407e-05
1.52665e-05
8.93949e-06
5.12839e-06
2.89145e-06
1.60604e-06
8.80431e-07
4.77047e-07
2.55783e-07
1.35853e-07
7.15398e-08
3.73803e-08
1.93912e-08
9.98916e-09
5.10741e-09
2.58691e-09
1.29164e-09
6.28533e-10
2.90067e-10
1.17604e-10
2.71066e-11
3.59626e-07
1.39353e-06
2.97107e-06
5.46213e-06
9.39111e-06
1.55635e-05
2.52121e-05
4.02055e-05
6.32549e-05
9.72889e-05
0.000147031
0.000219251
0.000323034
0.000470132
0.000675208
0.000955748
0.00133147
0.00182302
0.00245025
0.00322986
0.00417338
0.00528574
0.00656473
0.00800147
0.00958146
0.0112394
0.0129998
0.0148723
0.0167759
0.0187352
0.0207248
0.0226883
0.0246505
0.026566
0.0284371
0.0302487
0.0319898
0.0336461
0.0352197
0.0367165
0.0381205
0.0394405
0.0406778
0.0418403
0.0429186
0.0439217
0.0448697
0.0457286
0.0465181
0.0472503
0.047889
0.0484323
0.0488454
0.0490598
0.0489453
0.0482523
0.0464891
0.0426671
0.0350354
0.0259848
0.0178705
0.0114873
0.00714532
0.00437782
0.00273968
0.0018219
0.00131418
0.001016
0.000816795
0.000665616
0.000541564
0.000435964
0.000344997
0.000266945
0.000197829
0.000141655
9.76916e-05
6.48215e-05
4.14406e-05
2.56138e-05
1.53757e-05
9.00559e-06
5.16712e-06
2.91354e-06
1.61837e-06
8.87199e-07
4.80706e-07
2.57737e-07
1.36888e-07
7.20819e-08
3.76611e-08
1.95352e-08
1.00624e-08
5.14443e-09
2.60549e-09
1.30085e-09
6.32987e-10
2.92116e-10
1.18434e-10
2.72978e-11
3.5996e-07
1.39482e-06
2.9738e-06
5.46713e-06
9.39967e-06
1.55776e-05
2.52348e-05
4.02412e-05
6.33173e-05
9.73925e-05
0.000147192
0.000219492
0.000323388
0.000470639
0.000675923
0.000956744
0.00133278
0.00182473
0.00245236
0.00323241
0.00417641
0.00528925
0.00656861
0.00800557
0.00958569
0.0112437
0.0130039
0.0148764
0.0167798
0.0187387
0.0207277
0.0226906
0.0246521
0.0265669
0.0284373
0.0302481
0.0319883
0.0336439
0.0352168
0.0367128
0.0381162
0.0394356
0.0406723
0.0418343
0.042912
0.0439145
0.0448624
0.0457207
0.0465096
0.0472418
0.0478801
0.0484235
0.0488372
0.0490537
0.048944
0.0482612
0.0465194
0.0427411
0.0351763
0.0261363
0.0180014
0.0115807
0.00720891
0.0044173
0.00276241
0.00183425
0.00132085
0.00101995
0.000819559
0.000667847
0.000543512
0.000437723
0.000346588
0.000268379
0.000199094
0.000142697
9.8505e-05
6.54209e-05
4.1857e-05
2.58875e-05
1.55472e-05
9.10893e-06
5.22742e-06
2.94784e-06
1.63747e-06
8.97645e-07
4.86328e-07
2.60716e-07
1.38444e-07
7.28877e-08
3.80768e-08
1.9749e-08
1.01719e-08
5.2001e-09
2.63353e-09
1.31478e-09
6.39742e-10
2.95226e-10
1.19694e-10
2.7588e-11
3.60413e-07
1.39657e-06
2.97751e-06
5.47392e-06
9.41132e-06
1.55969e-05
2.52659e-05
4.02903e-05
6.34024e-05
9.75336e-05
0.000147412
0.000219821
0.000323866
0.000471322
0.000676875
0.000958044
0.00133453
0.00182701
0.00245527
0.003236
0.00418071
0.00529407
0.00657392
0.00801128
0.00959163
0.0112497
0.01301
0.0148825
0.0167855
0.0187441
0.0207324
0.0226945
0.024655
0.0265689
0.0284383
0.0302481
0.0319872
0.0336419
0.0352138
0.0367089
0.0381114
0.03943
0.0406659
0.0418273
0.0429041
0.0439056
0.0448534
0.0457107
0.0464989
0.047231
0.047869
0.0484124
0.0488272
0.0490465
0.0489431
0.0482738
0.0465602
0.0428408
0.0353658
0.026341
0.0181795
0.0117091
0.00729655
0.00447222
0.00279405
0.00185151
0.00133035
0.00102518
0.000823257
0.000670824
0.000546093
0.000440035
0.000348674
0.00027029
0.0002009
0.000144225
9.97033e-05
6.63022e-05
4.24636e-05
2.62816e-05
1.57914e-05
9.25455e-06
5.31169e-06
2.99544e-06
1.66384e-06
9.12016e-07
4.94057e-07
2.64828e-07
1.40611e-07
7.40187e-08
3.86617e-08
2.0049e-08
1.03246e-08
5.27738e-09
2.67231e-09
1.334e-09
6.49043e-10
2.99503e-10
1.21425e-10
2.79867e-11
3.60992e-07
1.3988e-06
2.98226e-06
5.48265e-06
9.42633e-06
1.56218e-05
2.53063e-05
4.03549e-05
6.35129e-05
9.77159e-05
0.000147695
0.000220245
0.000324486
0.000472211
0.000678124
0.000959757
0.00133689
0.00183
0.00245911
0.00324077
0.0041862
0.00530038
0.00658096
0.00801891
0.00959967
0.011258
0.0130182
0.0148908
0.0167935
0.0187518
0.0207393
0.0227006
0.02466
0.0265727
0.0284408
0.0302494
0.0319871
0.0336406
0.0352115
0.0367054
0.0381071
0.0394247
0.0406598
0.0418207
0.0428965
0.0438967
0.0448429
0.0456991
0.0464866
0.0472188
0.0478566
0.0484003
0.0488163
0.049039
0.0489433
0.0482902
0.0466107
0.0429618
0.0355979
0.0265927
0.0184001
0.0118756
0.00741292
0.00454568
0.00283681
0.00187505
0.0013435
0.00103197
0.000827996
0.000674601
0.000549284
0.000442736
0.000350842
0.000271635
0.000204467
0.000146704
0.000101443
6.74944e-05
4.32537e-05
2.67853e-05
1.61008e-05
9.43852e-06
5.41816e-06
3.05569e-06
1.69731e-06
9.30309e-07
5.03914e-07
2.70076e-07
1.43377e-07
7.54651e-08
3.94127e-08
2.04362e-08
1.05227e-08
5.37777e-09
2.72271e-09
1.35896e-09
6.6111e-10
3.05047e-10
1.23668e-10
2.85041e-11
3.61705e-07
1.40155e-06
2.9881e-06
5.49337e-06
9.44473e-06
1.56522e-05
2.53554e-05
4.04325e-05
6.36488e-05
9.79423e-05
0.000148049
0.000220777
0.000325267
0.000473333
0.000679705
0.000961933
0.00133979
0.00183395
0.00246402
0.00324645
0.00419288
0.00530812
0.00658985
0.00802872
0.00961014
0.011269
0.0130294
0.0149026
0.0168047
0.0187627
0.0207492
0.0227094
0.0246675
0.0265789
0.0284456
0.0302528
0.0319888
0.033641
0.0352108
0.0367034
0.0381042
0.0394212
0.0406559
0.0418172
0.0428937
0.0438957
0.0448261
0.0456847
0.0464733
0.0472067
0.0478447
0.0483892
0.048807
0.0490338
0.0489472
0.0483131
0.046673
0.0431047
0.0358685
0.0268729
0.0186182
0.0121381
0.00758455
0.00464991
0.00289577
0.00190696
0.00136107
0.00104099
0.000834282
0.000679601