/*--------------------------------*- C++ -*----------------------------------*\
  =========                 |
  \\      /  F ield         | OpenFOAM: The Open Source CFD Toolbox
   \\    /   O peration     | Website:  https://openfoam.org
    \\  /    A nd           | Version:  10
     \\/     M anipulation  |
\*---------------------------------------------------------------------------*/
FoamFile
{
    format      ascii;
    class       volScalarField;
    location    "1";
    object      CO2;
}
// * * * * * * * * * * * * * * * * * * * * * * * * * * * * * * * * * * * * * //

dimensions      [0 0 0 0 0 0 0];

internalField   nonuniform List<scalar> 
4000
(
7.03122e-07
2.72397e-06
5.80624e-06
1.06723e-05
1.83481e-05
3.04152e-05
4.93058e-05
7.87286e-05
0.000124284
0.000192003
0.000291397
0.000436345
0.000645681
0.000943934
0.00136185
0.00193622
0.00270795
0.0037189
0.00500744
0.00660354
0.00852434
0.0107712
0.0133295
0.0161866
0.0192917
0.0225339
0.0259431
0.0295326
0.0331519
0.036843
0.0405055
0.0441501
0.0477322
0.0512119
0.0545704
0.0577943
0.0608745
0.0638071
0.0665845
0.0692082
0.071697
0.0740171
0.0761914
0.0782302
0.0801272
0.0819174
0.0835601
0.0851128
0.0865283
0.0878779
0.0891024
0.0902433
0.0913245
0.0923763
0.093449
0.0946263
0.0960494
0.0979586
0.100759
0.105063
0.109126
0.110936
0.109737
0.105663
0.0992531
0.0913757
0.0826595
0.0736314
0.0643777
0.0557932
0.0476853
0.0400964
0.0331077
0.0267604
0.0210976
0.0161733
0.0118064
0.0082569
0.00551374
0.00351443
0.0021449
0.00126075
0.000718593
0.000399694
0.000218078
0.00011717
6.21593e-05
3.26057e-05
1.69845e-05
8.79139e-06
4.52476e-06
2.31683e-06
1.18035e-06
5.97987e-07
3.00692e-07
1.49325e-07
7.23924e-08
3.33256e-08
1.34917e-08
3.10826e-09
7.03343e-07
2.72492e-06
5.80885e-06
1.06794e-05
1.83656e-05
3.04527e-05
4.93773e-05
7.88496e-05
0.000124462
0.000192279
0.000291714
0.000436532
0.000645367
0.000942361
0.00135762
0.00192691
0.00268938
0.00368664
0.00495727
0.00653205
0.00842981
0.0106552
0.0131985
0.0160193
0.0190974
0.0223159
0.0257052
0.0292909
0.0329056
0.036606
0.0402861
0.0439522
0.047549
0.0510498
0.0544271
0.0576684
0.060765
0.0637148
0.0665069
0.0691444
0.0716468
0.0739789
0.076164
0.0782145
0.0801206
0.081919
0.0835696
0.0851296
0.0865512
0.0879066
0.0891338
0.0902786
0.0913635
0.0924189
0.0934965
0.0946818
0.0961188
0.0980529
0.100901
0.105264
0.109237
0.110871
0.109467
0.1052
0.0986372
0.0906468
0.0818508
0.0728099
0.0635489
0.0549783
0.0468736
0.0393536
0.0324089
0.0261047
0.0204628
0.0155562
0.0112844
0.00784099
0.00520576
0.00330427
0.0020129
0.00118396
0.000676791
0.000378157
0.00020748
0.000112176
5.99387e-05
3.17402e-05
1.66323e-05
8.64138e-06
4.45789e-06
2.28565e-06
1.1651e-06
5.89981e-07
2.96603e-07
1.47263e-07
7.13706e-08
3.28535e-08
1.33021e-08
3.06463e-09
7.04862e-07
2.73107e-06
5.82316e-06
1.07083e-05
1.84197e-05
3.0548e-05
4.95351e-05
7.90925e-05
0.000124801
0.000192742
0.000292244
0.000436963
0.00064541
0.000941309
0.00135422
0.00191893
0.00267483
0.00366243
0.00491923
0.0064752
0.00834866
0.0105438
0.0130557
0.0158573
0.0189157
0.0221185
0.0255015
0.0290738
0.0326826
0.0363878
0.0400615
0.0437242
0.0473226
0.050841
0.0542378
0.0574992
0.0606162
0.063588
0.0664
0.0690567
0.0715783
0.0739279
0.0761291
0.0781958
0.080116
0.0819258
0.0835879
0.0851585
0.0865902
0.0879541
0.0891866
0.0903388
0.0914295
0.0924907
0.0935762
0.0947733
0.0962321
0.0982098
0.101139
0.105585
0.109404
0.110745
0.109008
0.104441
0.0976646
0.0895141
0.0806332
0.0715517
0.0623143
0.0537777
0.0457614
0.0382796
0.0314577
0.0253056
0.019635
0.0148991
0.0107498
0.00743499
0.00491973
0.00311754
0.00189929
0.00111883
0.000641146
0.000359313
0.000197755
0.000107222
5.74078e-05
3.04076e-05
1.59579e-05
8.308e-06
4.29546e-06
2.20745e-06
1.12822e-06
5.73506e-07
2.88984e-07
1.43674e-07
6.96858e-08
3.20877e-08
1.29925e-08
2.993e-09
7.05002e-07
2.73161e-06
5.82434e-06
1.07104e-05
1.84223e-05
3.05488e-05
4.95257e-05
7.90513e-05
0.000124679
0.000192478
0.000291636
0.000435608
0.000642512
0.000935966
0.0013452
0.00190487
0.00265352
0.00363125
0.00487545
0.00641644
0.00827356
0.0104527
0.0129428
0.0157262
0.0187712
0.021958
0.0253267
0.0288899
0.0324826
0.0361764
0.0398432
0.0435041
0.0471059
0.0506338
0.0540516
0.057332
0.0604693
0.063463
0.0662955
0.0689723
0.0715139
0.0738815
0.0761006
0.0781865
0.0801219
0.0819441
0.0836192
0.0852017
0.0866433
0.0880163
0.0892559
0.0904147
0.0915124
0.0925817
0.093676
0.0948887
0.0963765
0.0984083
0.101437
0.105962
0.109578
0.110568
0.108403
0.10349
0.0964677
0.0881369
0.0791639
0.0700655
0.0609378
0.0524151
0.0444231
0.0370752
0.0303673
0.024293
0.0187998
0.0142112
0.0101815
0.00699859
0.0046081
0.00291023
0.0017701
0.00104272
0.000598312
0.000336049
0.000185463
0.000100863
5.41715e-05
2.87808e-05
1.51472e-05
7.90622e-06
4.09684e-06
2.10916e-06
1.07926e-06
5.48717e-07
2.76679e-07
1.37685e-07
6.68511e-08
3.08136e-08
1.24871e-08
2.87804e-09
7.04017e-07
2.72779e-06
5.81612e-06
1.06949e-05
1.8394e-05
3.04973e-05
4.94305e-05
7.88721e-05
0.000124339
0.000191827
0.000290483
0.000433663
0.000639419
0.000931052
0.00133749
0.00189302
0.00263583
0.00360571
0.00483997
0.00636919
0.00821337
0.0103794
0.0128579
0.0156241
0.018647
0.0218091
0.025149
0.028703
0.0322915
0.0359811
0.0396464
0.0433069
0.0469132
0.0504474
0.0538802
0.0571828
0.060341
0.0633556
0.0662081
0.0689045
0.0714654
0.0738513
0.0760875
0.0781909
0.0801409
0.0819751
0.0836621
0.0852549
0.0867061
0.0880886
0.0893374
0.0905046
0.0916106
0.0926884
0.0937949
0.0950266
0.096548
0.0986428
0.101785
0.106371
0.109733
0.110312
0.107701
0.102416
0.0951452
0.0866405
0.0775642
0.0683849
0.0594471
0.0510215
0.0431319
0.0358695
0.0292188
0.0233063
0.0181063
0.0134254
0.00958311
0.00656416
0.00431019
0.00271783
0.00165266
0.000974409
0.000560073
0.000315269
0.00017442
9.50942e-05
5.11963e-05
2.72616e-05
1.43772e-05
7.51805e-06
3.90179e-06
2.01129e-06
1.03019e-06
5.24172e-07
2.64466e-07
1.3168e-07
6.39674e-08
2.94971e-08
1.19574e-08
2.75626e-09
7.0196e-07
2.71984e-06
5.7991e-06
1.06631e-05
1.8338e-05
3.04004e-05
4.92631e-05
7.85794e-05
0.00012384
0.000191008
0.000289196
0.000431724
0.00063648
0.000926563
0.00133068
0.00188286
0.00262095
0.00358431
0.00480976
0.00632731
0.00815633
0.0103022
0.0127561
0.0155035
0.0185149
0.0216691
0.0250055
0.0285524
0.0321323
0.0358163
0.0394807
0.0431417
0.0467558
0.0502988
0.0537486
0.0570663
0.0602413
0.0632732
0.0661432
0.0688567
0.0714351
0.0738378
0.0760901
0.0782102
0.0801746
0.0820197
0.08372
0.0853186
0.0867824
0.088177
0.0894354
0.0906108
0.0917242
0.0928117
0.0939324
0.0951876
0.0967508
0.0989233
0.102205
0.106791
0.109877
0.11006
0.107044
0.101425
0.0938954
0.0852253
0.0760514
0.0668557
0.0579717
0.049609
0.0418298
0.0346715
0.0281832
0.022395
0.0172905
0.0127621
0.00906855
0.00618587
0.00404792
0.00254643
0.00154658
0.00091175
0.000524433
0.000295594
0.00016381
8.94784e-05
4.8268e-05
2.57531e-05
1.36075e-05
7.12822e-06
3.70517e-06
1.91202e-06
9.8014e-07
4.99091e-07
2.52004e-07
1.25588e-07
6.10648e-08
2.81805e-08
1.14292e-08
2.63488e-09
6.98874e-07
2.70782e-06
5.77313e-06
1.06146e-05
1.82531e-05
3.02579e-05
4.90327e-05
7.82225e-05
0.00012327
0.000190073
0.000287747
0.000429432
0.000632919
0.000921157
0.00132264
0.00187113
0.00260427
0.00356112
0.00477831
0.00628561
0.0081045
0.0102393
0.0126835
0.0154187
0.0184177
0.0215605
0.024884
0.0284229
0.0319986
0.0356797
0.0393422
0.0430008
0.0466376
0.0501859
0.0536446
0.0569772
0.0601676
0.0632155
0.066101
0.0688297
0.0714218
0.0738392
0.0761065
0.0782423
0.0802224
0.0820676
0.0837826
0.0853854
0.0868613
0.088267
0.0895349
0.0907195
0.0918433
0.0929433
0.0940818
0.0953653
0.0969784
0.0992421
0.102685
0.107205
0.109995
0.109792
0.1064
0.100482
0.0927673
0.0840103
0.0748584
0.0653914
0.0566163
0.0483418
0.0406683
0.0335988
0.027213
0.0215147
0.0165774
0.0121799
0.00861619
0.00585369
0.00381823
0.00239671
0.00145409
0.000857143
0.000493336
0.000278374
0.00015448
8.4509e-05
4.56575e-05
2.43974e-05
1.29107e-05
6.77366e-06
3.52712e-06
1.82447e-06
9.37499e-07
4.78122e-07
2.41511e-07
1.20375e-07
5.85319e-08
2.70115e-08
1.09551e-08
2.52559e-09
6.95475e-07
2.6946e-06
5.74455e-06
1.05608e-05
1.81576e-05
3.00933e-05
4.87527e-05
7.77492e-05
0.000122496
0.000188818
0.000285603
0.000426004
0.000627625
0.000913194
0.00131097
0.00185447
0.00258121
0.0035302
0.00473829
0.00623588
0.00804332
0.0101679
0.0126052
0.0153354
0.0183242
0.0214533
0.0247714
0.0283045
0.0318746
0.0355533
0.0392296
0.0428937
0.0465408
0.0500976
0.0535657
0.0569117
0.0601159
0.0631759
0.0660767
0.0688254
0.0714152
0.0738489
0.0761304
0.0782796
0.0802707
0.0821257
0.0838502
0.0854538
0.0869393
0.0883548
0.0896326
0.0908271
0.0919616
0.0930749
0.0942323
0.0955464
0.0972127
0.0995738
0.103187
0.107595
0.110082
0.109508
0.105769
0.0995825
0.0916753
0.0828172
0.0736118
0.0641177
0.0554197
0.0472279
0.0396185
0.0326621
0.0263815
0.0207886
0.0159313
0.0116553
0.00821257
0.00556038
0.00361736
0.00226694
0.00137445
0.000810272
0.000466641
0.00026355
0.000146409
8.01828e-05
4.33684e-05
2.31992e-05
1.2289e-05
6.45332e-06
3.36271e-06
1.74012e-06
8.94623e-07
4.5681e-07
2.31253e-07
1.15429e-07
5.61634e-08
2.59235e-08
1.05148e-08
2.42418e-09
6.92394e-07
2.68267e-06
5.71899e-06
1.05133e-05
1.80746e-05
2.99526e-05
4.85185e-05
7.73638e-05
0.00012187
0.000187722
0.00028389
0.00042339
0.000623732
0.000907516
0.00130283
0.00184304
0.00256557
0.00350936
0.00471143
0.00620353
0.00800303
0.0101219
0.012549
0.015266
0.0182497
0.0213759
0.0246879
0.0282134
0.0317801
0.0354511
0.0391598
0.0428205
0.0464711
0.0500331
0.0535084
0.0568656
0.0600828
0.0631503
0.0660636
0.0688268
0.0714264
0.0738708
0.0761635
0.0783231
0.0803238
0.0821874
0.0839214
0.0855313
0.0870241
0.0884458
0.0897287
0.0909297
0.0920724
0.0931973
0.0943719
0.0957144
0.0974307
0.0998833
0.103653
0.107934
0.110135
0.109227
0.105199
0.0987707
0.0907047
0.0817571
0.0725308
0.0630392
0.0543794
0.0462589
0.0387526
0.031908
0.0257576
0.0200443
0.0153482
0.0112094
0.00788291
0.00532694
0.00345983
0.00216553
0.0013119
0.000773076
0.000445169
0.00025145
0.000139724
7.65491e-05
4.14208e-05
2.21679e-05
1.17485e-05
6.17241e-06
3.21757e-06
1.66539e-06
8.56493e-07
4.37603e-07
2.21684e-07
1.10717e-07
5.38969e-08
2.48868e-08
1.00963e-08
2.32796e-09
6.89799e-07
2.67271e-06
5.69797e-06
1.04749e-05
1.80087e-05
2.98428e-05
4.83375e-05
7.70657e-05
0.000121372
0.000186881
0.000282535
0.000421273
0.000620508
0.000902736
0.00129595
0.0018334
0.00255236
0.00349167
0.00468835
0.00617324
0.00796806
0.0100771
0.0124976
0.0152129
0.0181912
0.0213127
0.0246214
0.028143
0.0317097
0.0353814
0.0390965
0.0427612
0.0464173
0.0499849
0.0534668
0.0568326
0.0600618
0.0631385
0.066061
0.0688359
0.0714445
0.0738978
0.0761986
0.0783657
0.0803737
0.0822448
0.0839846
0.0856
0.0870982
0.088524
0.089813
0.0910202
0.0921702
0.0933038
0.0944925
0.0958591
0.0976192
0.100154
0.104063
0.108217
0.110151
0.108933
0.104663
0.0980298
0.0898354
0.0808266
0.071591
0.0621505
0.0535367
0.0454745
0.0380317
0.031249
0.0251583
0.0195198
0.0149083
0.0108581
0.00761469
0.00513193
0.00332513
0.00207704
0.00125637
0.000739584
0.000425626
0.000240349
0.000133555
7.31832e-05
3.96129e-05
2.12094e-05
1.12458e-05
5.91097e-06
3.08222e-06
1.59549e-06
8.20589e-07
4.19274e-07
2.12418e-07
1.06149e-07
5.17096e-08
2.38912e-08
9.6963e-09
2.23628e-09
6.87162e-07
2.66249e-06
5.67606e-06
1.04343e-05
1.79385e-05
2.97262e-05
4.81502e-05
7.67745e-05
0.00012094
0.0001862
0.000281487
0.000419672
0.000618015
0.000898936
0.0012903
0.00182534
0.00254133
0.0034771
0.00467008
0.0061497
0.00793725
0.0100413
0.0124573
0.0151666
0.0181425
0.0212616
0.0245686
0.0280879
0.0316552
0.0353275
0.0390466
0.0427152
0.0463772
0.0499506
0.0534389
0.0568129
0.0600514
0.0631356
0.0660657
0.0688493
0.071465
0.073925
0.0762322
0.0784052
0.0804191
0.0822953
0.08404
0.08566
0.0871625
0.0885916
0.0898845
0.0910955
0.0922499
0.0933905
0.09459
0.0959756
0.0977706
0.100369
0.104443
0.108465
0.110151
0.108667
0.104184
0.0973372
0.0890428
0.0799876
0.0707424
0.0613855
0.0528069
0.0447924
0.0374059
0.0306857
0.0246607
0.0191245
0.0145682
0.0105788
0.00739592
0.00496857
0.00320982
0.00200021
0.0012078
0.000710182
0.000408428
0.000230561
0.000128107
7.02059e-05
3.80106e-05
2.03582e-05
1.07991e-05
5.6796e-06
2.96478e-06
1.53714e-06
7.91698e-07
4.0488e-07
2.05116e-07
1.02455e-07
4.98926e-08
2.30471e-08
9.35265e-09
2.15699e-09
6.84852e-07
2.65357e-06
5.65707e-06
1.03994e-05
1.78782e-05
2.96258e-05
4.79863e-05
7.65104e-05
0.000120486
0.000185457
0.000280355
0.000418046
0.000615824
0.000895891
0.00128596
0.00181894
0.00253225
0.00346487
0.00465368
0.00613
0.00791338
0.0100136
0.0124264
0.0151325
0.0181051
0.0212217
0.0245274
0.0280451
0.0316134
0.0352864
0.039009
0.0426813
0.046348
0.0499268
0.0534209
0.0568016
0.0600478
0.0631386
0.0660751
0.0688662
0.0714877
0.073953
0.0762651
0.0784422
0.0804606
0.082341
0.0840895
0.0857129
0.0872184
0.0886487
0.0899445
0.0911584
0.0923161
0.093461
0.0946687
0.09607
0.0978967
0.100557
0.104715
0.108634
0.110116
0.108404
0.103721
0.0967461
0.0883532
0.0792473
0.0699976
0.0607252
0.0521771
0.0441998
0.0368576
0.0301808
0.0242011
0.0187814
0.0142794
0.010341
0.007208
0.00482932
0.00311273
0.00193614
0.00116747
0.000685786
0.00039414
0.000222409
0.000123554
6.77088e-05
3.66607e-05
1.96362e-05
1.04143e-05
5.47572e-06
2.85866e-06
1.48297e-06
7.64145e-07
3.90846e-07
1.98109e-07
9.90106e-08
4.82352e-08
2.2287e-08
9.04537e-09
2.08624e-09
6.82899e-07
2.64603e-06
5.64104e-06
1.03699e-05
1.78274e-05
2.95414e-05
4.7849e-05
7.62906e-05
0.000120107
0.000184829
0.000279366
0.000416543
0.000613574
0.000892706
0.00128167
0.0018135
0.00252503
0.00345512
0.00464086
0.0061131
0.00789357
0.00999109
0.0123998
0.0151037
0.0180744
0.0211899
0.0244953
0.0280121
0.0315815
0.0352556
0.0389813
0.0426571
0.0463282
0.0499112
0.0534098
0.0567962
0.0600487
0.0631448
0.0660865
0.0688831
0.0715091
0.073979
0.0762956
0.0784764
0.0804986
0.0823824
0.0841338
0.0857592
0.0872662
0.0886967
0.0899932
0.0912076
0.0923666
0.0935145
0.0947283
0.0961425
0.0979939
0.100703
0.104922
0.108752
0.110063
0.10816
0.10331
0.0962316
0.0877591
0.0786166
0.0693598
0.0601622
0.051631
0.043686
0.036374
0.0297423
0.0238094
0.0184915
0.0140266
0.0101341
0.0070467
0.0047102
0.00302961
0.0018812
0.00113287
0.000664842
0.000381871
0.00021541
0.000119648
6.55716e-05
3.55128e-05
1.90329e-05
1.01067e-05
5.32078e-06
2.77924e-06
1.44166e-06
7.42782e-07
3.79931e-07
1.92529e-07
9.62048e-08
4.68616e-08
2.16497e-08
8.7858e-09
2.02626e-09
6.81277e-07
2.63978e-06
5.62775e-06
1.03455e-05
1.77856e-05
2.9472e-05
4.7737e-05
7.61129e-05
0.000119797
0.000184311
0.000278554
0.000415317
0.000611769
0.000890101
0.00127798
0.00180835
0.00251835
0.00344678
0.00463045
0.00610022
0.00787792
0.00997253
0.0123796
0.0150816
0.018051
0.0211656
0.0244708
0.0279872
0.0315577
0.0352328
0.0389612
0.0426399
0.0463145
0.0499013
0.0534043
0.0567952
0.0600527
0.0631531
0.0660987
0.0689
0.0715295
0.0740024
0.0763214
0.0785037
0.0805284
0.0824154
0.0841715
0.0857991
0.0873071
0.0887362
0.0900324
0.0912467
0.0924059
0.0935552
0.0947734
0.0961972
0.0980693
0.10082
0.105086
0.108837
0.110001
0.107936
0.102945
0.0957701
0.0872325
0.0780579
0.0687923
0.0596713
0.0511676
0.0432482
0.0359745
0.0293739
0.0234755
0.0182456
0.013812
0.00995402
0.00690523
0.00460548
0.0029566
0.00183307
0.00110265
0.000646618
0.000371231
0.000209357
0.000116277
6.37253e-05
3.45163e-05
1.85015e-05
9.82632e-06
5.17703e-06
2.7065e-06
1.40454e-06
7.23764e-07
3.70118e-07
1.87567e-07
9.37311e-08
4.56582e-08
2.10938e-08
8.56e-09
1.97415e-09
6.79942e-07
2.63463e-06
5.61682e-06
1.03255e-05
1.77511e-05
2.94151e-05
4.76452e-05
7.59678e-05
0.000119543
0.000183888
0.000277894
0.000414326
0.000610317
0.000888018
0.00127505
0.00180433
0.002513
0.00343951
0.00462143
0.00608985
0.0078658
0.00995857
0.0123637
0.0150643
0.0180328
0.0211468
0.0244519
0.0279678
0.0315399
0.0352163
0.0389471
0.0426285
0.0463063
0.0498963
0.0534025
0.0567969
0.0600584
0.0631621
0.0661109
0.0689154
0.0715472
0.0740217
0.0763421
0.0785241
0.0805475
0.0824307
0.0842161
0.0858386
0.0873437
0.0887695
0.0900645
0.0912777
0.0924364
0.0935863
0.0948072
0.0962386
0.0981273
0.10091
0.105211
0.108898
0.109949
0.107712
0.102614
0.0953603
0.0867775
0.0775838
0.0683185
0.0592682
0.050779
0.0428838
0.0356359
0.0290675
0.0231989
0.0180396
0.013615
0.00978492
0.00677291
0.00450888
0.00289034
0.00179008
0.00107603
0.000630749
0.000362053
0.000204174
0.000113405
6.2159e-05
3.36721e-05
1.80503e-05
9.5857e-06
5.04792e-06
2.63815e-06
1.36914e-06
7.05754e-07
3.61156e-07
1.83119e-07
9.15425e-08
4.46037e-08
2.06099e-08
8.36436e-09
1.92909e-09
6.78861e-07
2.63046e-06
5.60795e-06
1.03092e-05
1.77231e-05
2.93686e-05
4.75697e-05
7.58473e-05
0.000119337
0.000183548
0.000277365
0.000413535
0.000609162
0.000886366
0.00127273
0.00180116
0.00250865
0.00343401
0.00461439
0.00608114
0.00785584
0.00994722
0.0123512
0.0150508
0.0180188
0.0211327
0.0244381
0.0279541
0.0315271
0.0352043
0.0389372
0.0426208
0.0463013
0.049894
0.053403
0.0568003
0.060065
0.0631713
0.0661225
0.0689293
0.0715631
0.0740395
0.0763613
0.078544
0.080569
0.0824543
0.0842415
0.085865
0.08737
0.088794
0.0900883
0.0913009
0.0924591
0.0936096
0.0948331
0.0962709
0.0981736
0.100984
0.105314
0.108946
0.109898
0.107552
0.102361
0.0950415
0.0864178
0.0772063
0.0679404
0.0589491
0.0504763
0.0426023
0.0353813
0.028846
0.0230183
0.0179207
0.0133571
0.00960562
0.00664755
0.00442346
0.00283405
0.00175437
0.00105419
0.000617815
0.000354591
0.000199961
0.00011107
6.08842e-05
3.29857e-05
1.76847e-05
9.39268e-06
4.94673e-06
2.58548e-06
1.34193e-06
6.91807e-07
3.54074e-07
1.79559e-07
8.97769e-08
4.37488e-08
2.02166e-08
8.20503e-09
1.8923e-09
6.78022e-07
2.62723e-06
5.60108e-06
1.02966e-05
1.77015e-05
2.93329e-05
4.7512e-05
7.57561e-05
0.000119178
0.000183285
0.000276956
0.000412924
0.000608272
0.000885097
0.00127096
0.00179875
0.00250542
0.00342982
0.00460908
0.00607462
0.00784805
0.00993854
0.0123417
0.0150407
0.0180085
0.0211223
0.0244279
0.0279442
0.0315182
0.0351964
0.0389309
0.0426163
0.0462988
0.0498936
0.0534048
0.0568042
0.0600713
0.0631794
0.0661324
0.0689412
0.0715764
0.0740541
0.0763772
0.0785607
0.0805869
0.0824732
0.08426
0.085884
0.0873891
0.0888119
0.0901059
0.0913181
0.0924762
0.0936273
0.094853
0.0962964
0.098211
0.101045
0.105398
0.108986
0.109859
0.10743
0.102169
0.0947978
0.0861444
0.0769208
0.0676558
0.0586934
0.0502335
0.0423765
0.035174
0.0286581
0.0228503
0.0177701
0.0132198
0.00949202
0.00655983
0.0043597
0.00279058
0.00172633
0.00103692
0.000607564
0.000348681
0.000196634
0.000109231
5.9884e-05
3.24484e-05
1.73991e-05
9.24216e-06
4.86812e-06
2.54479e-06
1.32102e-06
6.8114e-07
3.48665e-07
1.76838e-07
8.84252e-08
4.30933e-08
1.99146e-08
8.08263e-09
1.86409e-09
6.77415e-07
2.62489e-06
5.59611e-06
1.02874e-05
1.76859e-05
2.93071e-05
4.74705e-05
7.56905e-05
0.000119064
0.000183094
0.000276658
0.000412478
0.000607621
0.000884164
0.00126965
0.00179692
0.002503
0.00342669
0.00460523
0.00606999
0.00784258
0.00993224
0.0123348
0.0150335
0.0180011
0.021115
0.024421
0.0279375
0.0315123
0.0351912
0.038927
0.0426137
0.0462977
0.049894
0.0534068
0.0568078
0.0600766
0.0631862
0.0661404
0.0689505
0.0715868
0.0740656
0.0763895
0.0785733
0.0806001
0.0824871
0.0842731
0.0858974
0.0874025
0.0888245
0.0901183
0.0913303
0.0924885
0.0936401
0.0948677
0.0963153
0.0982391
0.101091
0.105461
0.109016
0.109831
0.107342
0.102029
0.0946215
0.0859459
0.0767139
0.0674518
0.0584988
0.0500505
0.042206
0.035017
0.0285149
0.0227223
0.0176572
0.0131227
0.00941368
0.00649975
0.00431606
0.0027606
0.0017068
0.00102476
0.00060028
0.00034445
0.000194236
0.0001079
5.91573e-05
3.20579e-05
1.71924e-05
9.13427e-06
4.81221e-06
2.51591e-06
1.30615e-06
6.73511e-07
3.44781e-07
1.74879e-07
8.74505e-08
4.26202e-08
1.96965e-08
7.99424e-09
1.84372e-09
6.77034e-07
2.62342e-06
5.593e-06
1.02817e-05
1.76761e-05
2.9291e-05
4.74445e-05
7.56495e-05
0.000118991
0.000182973
0.000276469
0.000412195
0.000607209
0.000883574
0.00126882
0.00179579
0.00250151
0.00342475
0.00460282
0.00606707
0.00783916
0.00992835
0.0123305
0.015029
0.0179965
0.0211104
0.0244167
0.0279333
0.0315086
0.0351881
0.0389247
0.0426123
0.0462973
0.0498946
0.0534085
0.0568105
0.0600804
0.0631909
0.0661461
0.0689571
0.0715942
0.0740736
0.0763981
0.078582
0.0806092
0.0824963
0.0842817
0.0859061
0.0874113
0.0888326
0.0901262
0.0913382
0.0924964
0.0936485
0.0948772
0.0963277
0.0982575
0.101121
0.105503
0.109036
0.109813
0.107285
0.101938
0.094507
0.0858175
0.0765798
0.0673182
0.0583706
0.0499296
0.0420937
0.0349138
0.0284215
0.022639
0.0175844
0.0130612
0.00936369
0.00646171
0.00428859
0.00274174
0.00169445
0.00101703
0.000595626
0.000341736
0.000192692
0.00010704
5.8687e-05
3.18041e-05
1.70569e-05
9.06259e-06
4.7747e-06
2.4965e-06
1.2962e-06
6.68457e-07
3.42228e-07
1.73599e-07
8.68171e-08
4.2314e-08
1.95558e-08
7.93732e-09
1.8306e-09
6.76864e-07
2.62276e-06
5.5916e-06
1.02792e-05
1.76717e-05
2.92836e-05
4.74327e-05
7.56308e-05
0.000118958
0.000182917
0.00027638
0.000412062
0.000607013
0.000883294
0.00126843
0.00179526
0.0025008
0.00342383
0.00460165
0.00606564
0.00783747
0.00992643
0.0123284
0.0150268
0.0179943
0.0211082
0.0244146
0.0279313
0.0315069
0.0351866
0.0389237
0.0426118
0.0462972
0.0498951
0.0534094
0.056812
0.0600825
0.0631934
0.066149
0.0689605
0.0715979
0.0740776
0.0764023
0.0785863
0.0806137
0.0825009
0.084286
0.0859104
0.0874156
0.0888366
0.0901302
0.0913421
0.0925002
0.0936526
0.094882
0.0963339
0.0982667
0.101136
0.105525
0.109047
0.109804
0.107256
0.101894
0.0944507
0.0857544
0.076514
0.0672527
0.0583073
0.04987
0.0420384
0.0348633
0.0283759
0.0225987
0.0175495
0.013032
0.00934019
0.00644373
0.00427567
0.0027329
0.00168866
0.00101341
0.000593441
0.00034046
0.000191967
0.000106636
5.84651e-05
3.16841e-05
1.69928e-05
9.02869e-06
4.75695e-06
2.4873e-06
1.29148e-06
6.66051e-07
3.41013e-07
1.72991e-07
8.6517e-08
4.21694e-08
1.94896e-08
7.91063e-09
1.82447e-09
6.76898e-07
2.62289e-06
5.59187e-06
1.02796e-05
1.76724e-05
2.92848e-05
4.74344e-05
7.56332e-05
0.000118961
0.000182921
0.000276386
0.000412068
0.000607021
0.000883303
0.00126844
0.00179527
0.00250081
0.00342384
0.00460167
0.00606565
0.00783748
0.00992645
0.0123284
0.0150268
0.0179943
0.0211082
0.0244146
0.0279313
0.0315069
0.0351866
0.0389237
0.0426118
0.0462973
0.0498951
0.0534095
0.056812
0.0600825
0.0631935
0.0661491
0.0689605
0.0715979
0.0740776
0.0764024
0.0785864
0.0806137
0.082501
0.084286
0.0859105
0.0874156
0.0888366
0.0901302
0.0913421
0.0925003
0.0936526
0.094882
0.0963339
0.0982667
0.101136
0.105525
0.109047
0.109805
0.107257
0.101894
0.094451
0.0857547
0.0765143
0.067253
0.0583076
0.0498703
0.0420387
0.0348636
0.0283761
0.0225989
0.0175497
0.0130321
0.0093403
0.00644381
0.00427573
0.00273294
0.00168868
0.00101342
0.000593449
0.000340465
0.000191969
0.000106637
5.84661e-05
3.16847e-05
1.69932e-05
9.02893e-06
4.75712e-06
2.48742e-06
1.29156e-06
6.66105e-07
3.41049e-07
1.73014e-07
8.65312e-08
4.21776e-08
1.94939e-08
7.91256e-09
1.82493e-09
6.77129e-07
2.62378e-06
5.59374e-06
1.0283e-05
1.76782e-05
2.92942e-05
4.74493e-05
7.56563e-05
0.000119
0.000182985
0.000276484
0.000412213
0.00060723
0.000883598
0.00126885
0.00179582
0.00250154
0.00342479
0.00460285
0.00606711
0.0078392
0.00992838
0.0123305
0.015029
0.0179965
0.0211105
0.0244167
0.0279334
0.0315086
0.0351881
0.0389247
0.0426124
0.0462974
0.0498947
0.0534086
0.0568106
0.0600805
0.0631911
0.0661462
0.0689573
0.0715944
0.0740737
0.0763982
0.0785822
0.0806093
0.0824965
0.0842819
0.0859062
0.0874114
0.0888327
0.0901263
0.0913382
0.0924964
0.0936485
0.0948773
0.0963278
0.0982576
0.101121
0.105504
0.109037
0.109814
0.107285
0.101939
0.0945079
0.0858184
0.0765807
0.0673191
0.0583715
0.0499304
0.0420944
0.0349146
0.0284221
0.0226396
0.0175849
0.0130616
0.00936398
0.00646193
0.00428875
0.00274184
0.00169451
0.00101707
0.000595649
0.000341749
0.0001927
0.000107045
5.86896e-05
3.18057e-05
1.70579e-05
9.06326e-06
4.77515e-06
2.49681e-06
1.29641e-06
6.68597e-07
3.4232e-07
1.73658e-07
8.68531e-08
4.23348e-08
1.95668e-08
7.94221e-09
1.83179e-09
6.7756e-07
2.62544e-06
5.59724e-06
1.02894e-05
1.7689e-05
2.93119e-05
4.74775e-05
7.57005e-05
0.000119077
0.000183112
0.00027668
0.000412505
0.000607653
0.000884202
0.00126969
0.00179697
0.00250306
0.00342674
0.00460529
0.00607004
0.00784263
0.00993229
0.0123348
0.0150336
0.0180012
0.021115
0.0244211
0.0279376
0.0315123
0.0351913
0.0389271
0.0426138
0.0462978
0.0498941
0.0534069
0.0568079
0.0600767
0.0631863
0.0661406
0.0689508
0.0715871
0.0740659
0.0763898
0.0785736
0.0806004
0.0824873
0.0842733
0.0858975
0.0874027
0.0888246
0.0901183
0.0913304
0.0924885
0.0936402
0.0948678
0.0963154
0.0982393
0.101091
0.105461
0.109017
0.109832
0.107343
0.10203
0.094623
0.0859475
0.0767155
0.0674534
0.0585003
0.0500519
0.0422074
0.0350182
0.0285159
0.0227233
0.017658
0.0131234
0.00941426
0.00650019
0.00431637
0.0027608
0.00170692
0.00102484
0.000600324
0.000344474
0.000194249
0.000107907
5.91617e-05
3.20605e-05
1.7194e-05
9.1353e-06
4.8129e-06
2.51637e-06
1.30645e-06
6.73712e-07
3.44909e-07
1.74959e-07
8.74987e-08
4.26476e-08
1.97108e-08
8.00057e-09
1.84524e-09
6.78199e-07
2.6279e-06
5.60247e-06
1.0299e-05
1.77054e-05
2.93388e-05
4.75207e-05
7.57684e-05
0.000119195
0.000183307
0.000276984
0.000412958
0.000608314
0.000885146
0.00127102
0.00179881
0.00250548
0.0034299
0.00460916
0.0060747
0.00784813
0.00993862
0.0123418
0.0150408
0.0180086
0.0211224
0.024428
0.0279443
0.0315183
0.0351965
0.0389311
0.0426164
0.0462989
0.0498937
0.0534049
0.0568043
0.0600714
0.0631795
0.0661325
0.0689413
0.0715765
0.0740543
0.0763774
0.0785608
0.080587
0.0824733
0.0842601
0.0858841
0.0873892
0.088812
0.0901059
0.0913181
0.0924762
0.0936273
0.094853
0.0962965
0.0982113
0.101046
0.105399
0.108987
0.10986
0.107431
0.102171
0.0947997
0.0861465
0.0769229
0.0676579
0.0586953
0.0502353
0.0423782
0.0351756
0.0286594
0.0228515
0.0177712
0.0132208
0.00949279
0.0065604
0.00436011
0.00279085
0.0017265
0.00103702
0.000607621
0.000348713
0.000196651
0.000109241
5.98896e-05
3.24516e-05
1.74009e-05
9.24329e-06
4.86883e-06
2.54524e-06
1.32132e-06
6.81333e-07
3.48789e-07
1.76915e-07
8.8472e-08
4.31199e-08
1.99284e-08
8.08873e-09
1.86556e-09
6.79054e-07
2.6312e-06
5.60946e-06
1.03118e-05
1.77273e-05
2.93751e-05
4.75791e-05
7.58607e-05
0.000119355
0.000183572
0.000277395
0.000413572
0.000609207
0.000886419
0.00127279
0.00180122
0.00250872
0.00343409
0.00461448
0.00608124
0.00785594
0.00994732
0.0123513
0.0150509
0.0180189
0.0211328
0.0244382
0.0279543
0.0315273
0.0352046
0.0389374
0.042621
0.0463014
0.0498941
0.0534032
0.0568004
0.0600652
0.0631714
0.0661225
0.0689294
0.0715631
0.0740395
0.0763613
0.078544
0.080569
0.0824543
0.0842416
0.0858651
0.0873701
0.0887941
0.0900884
0.0913009
0.0924591
0.0936096
0.0948331
0.096271
0.0981739
0.100985
0.105315
0.108947
0.109899
0.107553
0.102363
0.0950438
0.0864204
0.077209
0.0679431
0.0589515
0.0504787
0.0426046
0.0353834
0.028848
0.02302
0.0179221
0.0133583
0.00960656
0.00664824
0.00442394
0.00283437
0.00175457
0.00105431
0.000617882
0.000354628
0.000199982
0.000111081
6.08906e-05
3.29892e-05
1.76867e-05
9.39385e-06
4.94742e-06
2.5859e-06
1.34219e-06
6.9197e-07
3.54177e-07
1.79623e-07
8.98152e-08
4.37706e-08
2.02279e-08
8.21004e-09
1.8935e-09
6.80139e-07
2.63538e-06
5.61836e-06
1.03281e-05
1.77554e-05
2.94217e-05
4.76547e-05
7.59814e-05
0.000119562
0.000183912
0.000277924
0.000414363
0.000610362
0.000888071
0.00127511
0.0018044
0.00251307
0.0034396
0.00462153
0.00608995
0.00786592
0.00995869
0.0123639
0.0150644
0.018033
0.0211469
0.024452
0.0279679
0.03154
0.0352163
0.0389472
0.0426287
0.0463065
0.0498964
0.0534027
0.0567971
0.0600586
0.0631622
0.066111
0.0689154
0.0715472
0.0740218
0.0763421
0.0785241
0.0805475
0.0824308
0.0842161
0.0858387
0.0873438
0.0887695
0.0900645
0.0912778
0.0924364
0.0935863
0.0948072
0.0962387
0.0981275
0.10091
0.105212
0.108899
0.10995
0.107713
0.102616
0.095363
0.0867804
0.0775868
0.0683217
0.0592709
0.0507816
0.0428863
0.0356383
0.0290697
0.0232009
0.0180411
0.0136162
0.00978593
0.00677368
0.00450944
0.00289073
0.00179032
0.00107617
0.000630835
0.000362101
0.0002042
0.00011342
6.21666e-05
3.3676e-05
1.80521e-05
9.58643e-06
5.04814e-06
2.63825e-06
1.3692e-06
7.05801e-07
3.61197e-07
1.83152e-07
9.1566e-08
4.46183e-08
2.06179e-08
8.36795e-09
1.92996e-09
6.81464e-07
2.64049e-06
5.62922e-06
1.03481e-05
1.77897e-05
2.94783e-05
4.77461e-05
7.61257e-05
0.000119814
0.000184334
0.000278583
0.000415353
0.000611813
0.000890154
0.00127804
0.00180842
0.00251843
0.00344687
0.00463055
0.00610033
0.00787804
0.00997267
0.0123798
0.0150818
0.0180512
0.0211658
0.0244709
0.0279873
0.0315579
0.0352329
0.0389613
0.0426401
0.0463148
0.0499016
0.0534044
0.0567953
0.0600529
0.0631532
0.0660988
0.0689
0.0715296
0.0740024
0.0763214
0.0785037
0.0805285
0.0824154
0.0841716
0.0857992
0.0873072
0.0887363
0.0900324
0.0912467
0.0924059
0.0935552
0.0947734
0.0961972
0.0980694
0.10082
0.105086
0.108837
0.110003
0.107937
0.102948
0.095773
0.0872357
0.0780612
0.0687956
0.0596741
0.0511704
0.0432508
0.035977
0.0293762
0.0234776
0.0182472
0.0138134
0.00995512
0.00690608
0.0046061
0.00295702
0.00183334
0.00110281
0.000646715
0.000371286
0.000209386
0.000116292
6.37324e-05
3.45188e-05
1.85011e-05
9.82393e-06
5.17351e-06
2.70478e-06
1.40405e-06
7.23649e-07
3.70108e-07
1.87581e-07
9.37462e-08
4.56685e-08
2.10995e-08
8.56258e-09
1.97477e-09
6.83065e-07
2.64666e-06
5.64234e-06
1.03722e-05
1.78311e-05
2.95469e-05
4.78571e-05
7.63021e-05
0.000120123
0.000184849
0.000279392
0.000416575
0.000613614
0.000892753
0.00128172
0.00181356
0.0025251
0.0034552
0.00464094
0.00611319
0.00789367
0.00999123
0.0123999
0.015104
0.0180748
0.0211902
0.0244955
0.0280122
0.0315817
0.0352557
0.0389814
0.0426572
0.0463283
0.0499114
0.05341
0.0567964
0.0600489
0.063145
0.0660867
0.0688833
0.0715093
0.0739792
0.0762958
0.0784766
0.0804987
0.0823824
0.0841338
0.0857592
0.0872662
0.0886967
0.0899932
0.0912076
0.0923666
0.0935145
0.0947283
0.0961424
0.097994
0.100703
0.104922
0.108753
0.110064
0.108162
0.103312
0.0962346
0.0877624