/*--------------------------------*- C++ -*----------------------------------*\
  =========                 |
  \\      /  F ield         | OpenFOAM: The Open Source CFD Toolbox
   \\    /   O peration     | Website:  https://openfoam.org
    \\  /    A nd           | Version:  10
     \\/     M anipulation  |
\*---------------------------------------------------------------------------*/
FoamFile
{
    format      ascii;
    class       volScalarField;
    location    "1";
    object      H;
}
// * * * * * * * * * * * * * * * * * * * * * * * * * * * * * * * * * * * * * //

dimensions      [0 0 0 0 0 0 0];

internalField   nonuniform List<scalar> 
4000
(
3.20707e-19
1.24339e-18
2.65526e-18
4.89769e-18
8.47052e-18
1.41775e-17
2.33358e-17
3.81502e-17
6.24198e-17
1.01575e-16
1.65929e-16
2.74934e-16
4.6533e-16
8.07671e-16
1.44031e-15
2.64453e-15
5.00604e-15
9.76377e-15
1.96593e-14
4.09427e-14
8.80483e-14
1.94119e-13
4.32731e-13
9.59129e-13
2.05971e-12
4.16375e-12
7.97846e-12
1.45369e-11
2.48833e-11
4.09272e-11
6.4863e-11
1.00696e-10
1.54407e-10
2.35965e-10
3.62583e-10
5.63828e-10
8.9168e-10
1.4394e-09
2.37363e-09
3.99692e-09
6.87881e-09
1.19658e-08
2.10208e-08
3.71205e-08
6.53766e-08
1.15063e-07
1.98915e-07
3.41818e-07
5.73157e-07
9.57278e-07
1.55639e-06
2.49668e-06
3.96282e-06
6.23192e-06
9.7224e-06
1.50575e-05
2.3142e-05
3.5226e-05
5.2874e-05
7.7325e-05
8.16447e-05
6.88771e-05
5.06092e-05
3.38255e-05
2.08969e-05
1.21511e-05
6.6406e-06
3.40741e-06
1.58899e-06
6.99003e-07
2.82959e-07
1.04769e-07
3.5288e-08
1.06872e-08
2.87084e-09
6.83493e-10
1.36229e-10
2.38605e-11
3.81093e-12
6.00431e-13
1.05419e-13
2.21675e-14
5.44124e-15
1.45438e-15
4.01773e-16
1.11662e-16
3.08372e-17
8.4063e-18
2.27023e-18
6.06913e-19
1.60606e-19
4.20811e-20
1.09167e-20
2.80105e-21
7.08712e-22
1.75423e-22
4.17092e-23
9.13275e-24
1.66377e-24
1.57424e-25
3.20912e-19
1.24423e-18
2.65736e-18
4.90268e-18
8.48159e-18
1.42001e-17
2.33778e-17
3.82211e-17
6.25252e-17
1.01739e-16
1.66107e-16
2.74947e-16
4.64628e-16
8.04659e-16
1.43058e-15
2.61599e-15
4.92566e-15
9.55314e-15
1.9129e-14
3.96326e-14
8.48616e-14
1.8657e-13
4.15524e-13
9.16714e-13
1.96907e-12
3.9876e-12
7.66436e-12
1.40387e-11
2.41271e-11
3.98692e-11
6.34436e-11
9.88172e-11
1.51826e-10
2.32562e-10
3.58026e-10
5.57735e-10
8.83657e-10
1.42955e-09
2.3622e-09
3.98632e-09
6.87664e-09
1.19882e-08
2.11057e-08
3.73658e-08
6.59338e-08
1.16222e-07
2.01223e-07
3.46347e-07
5.81447e-07
9.7229e-07
1.58123e-06
2.53834e-06
4.03126e-06
6.34109e-06
9.89358e-06
1.53187e-05
2.35263e-05
3.57589e-05
5.35689e-05
7.78553e-05
8.10876e-05
6.77704e-05
4.945e-05
3.2857e-05
2.01986e-05
1.16818e-05
6.34155e-06
3.23556e-06
1.49728e-06
6.53439e-07
2.61535e-07
9.60635e-08
3.201e-08
9.57433e-09
2.52726e-09
5.85768e-10
1.13943e-10
1.95206e-11
3.06523e-12
4.82777e-13
8.62519e-14
1.86241e-14
4.6843e-15
1.27662e-15
3.58439e-16
1.01113e-16
2.83577e-17
7.88749e-18
2.15963e-18
5.82542e-19
1.55029e-19
4.07562e-20
1.05894e-20
2.71506e-21
6.86613e-22
1.69874e-22
4.03592e-23
8.8342e-24
1.60945e-24
1.52277e-25
3.21774e-19
1.24771e-18
2.66535e-18
4.91865e-18
8.51136e-18
1.42526e-17
2.34659e-17
3.83603e-17
6.27278e-17
1.02029e-16
1.66455e-16
2.75208e-16
4.64393e-16
8.02585e-16
1.42297e-15
2.59271e-15
4.86512e-15
9.39833e-15
1.8729e-14
3.85849e-14
8.21038e-14
1.79389e-13
3.97917e-13
8.78288e-13
1.88858e-12
3.83461e-12
7.4007e-12
1.35944e-11
2.34417e-11
3.88773e-11
6.19553e-11
9.66347e-11
1.48668e-10
2.28296e-10
3.52274e-10
5.5007e-10
8.73743e-10
1.41781e-09
2.34988e-09
3.97839e-09
6.88669e-09
1.20448e-08
2.12735e-08
3.77919e-08
6.68532e-08
1.18115e-07
2.05044e-07
3.5375e-07
5.95357e-07
9.97346e-07
1.62331e-06
2.61037e-06
4.14885e-06
6.52823e-06
1.0185e-05
1.57572e-05
2.41647e-05
3.66541e-05
5.47177e-05
7.85098e-05
8.00398e-05
6.5915e-05
4.75465e-05
3.12974e-05
1.91084e-05
1.09604e-05
5.8996e-06
2.98005e-06
1.36514e-06
5.88182e-07
2.33036e-07
8.41441e-08
2.76344e-08
8.18513e-09
2.05482e-09
4.69748e-10
8.96266e-11
1.51449e-11
2.37003e-12
3.79947e-13
7.03545e-14
1.57769e-14
4.07869e-15
1.13133e-15
3.21438e-16
9.14521e-17
2.57932e-17
7.18201e-18
1.97193e-18
5.33967e-19
1.42715e-19
3.76879e-20
9.84248e-21
2.54339e-21
6.46585e-22
1.60483e-22
3.82014e-23
8.36883e-24
1.52493e-24
1.44262e-25
3.22035e-19
1.24872e-18
2.66753e-18
4.92264e-18
8.51782e-18
1.42615e-17
2.34746e-17
3.83589e-17
6.26882e-17
1.01901e-16
1.66064e-16
2.74112e-16
4.61461e-16
7.95611e-16
1.40717e-15
2.55793e-15
4.78698e-15
9.21994e-15
1.8315e-14
3.76089e-14
7.97845e-14
1.73895e-13
3.84554e-13
8.48246e-13
1.82609e-12
3.71202e-12
7.17864e-12
1.32231e-11
2.28339e-11
3.79382e-11
6.05644e-11
9.46266e-11
1.45824e-10
2.24332e-10
3.47109e-10
5.43415e-10
8.65713e-10
1.40961e-09
2.34469e-09
3.98481e-09
6.92558e-09
1.21595e-08
2.15535e-08
3.84306e-08
6.82028e-08
1.20819e-07
2.10353e-07
3.63875e-07
6.13643e-07
1.02995e-06
1.67888e-06
2.7034e-06
4.30221e-06
6.77574e-06
1.05688e-05
1.6343e-05
2.50306e-05
3.78678e-05
5.62735e-05
7.90804e-05
7.86809e-05
6.37907e-05
4.51685e-05
2.94246e-05
1.78228e-05
1.01217e-05
5.39037e-06
2.69146e-06
1.22586e-06
5.20281e-07
2.02109e-07
7.19526e-08
2.32662e-08
6.72514e-09
1.66572e-09
3.73383e-10
6.9583e-11
1.15544e-11
1.79743e-12
2.92807e-13
5.60685e-14
1.30111e-14
3.4463e-15
9.71102e-16
2.79016e-16
8.00976e-17
2.27673e-17
6.38395e-18
1.76385e-18
4.80286e-19
1.28983e-19
3.41935e-20
8.95315e-21
2.3143e-21
5.88886e-22
1.46371e-22
3.49012e-23
7.659e-24
1.39763e-24
1.32314e-25
3.218e-19
1.24781e-18
2.66557e-18
4.91884e-18
8.5105e-18
1.4247e-17
2.34445e-17
3.82942e-17
6.25461e-17
1.01583e-16
1.65393e-16
2.72717e-16
4.58632e-16
7.89661e-16
1.39439e-15
2.52986e-15
4.72464e-15
9.0792e-15
1.79915e-14
3.68513e-14
7.79916e-14
1.69656e-13
3.74694e-13
8.24767e-13
1.77232e-12
3.59936e-12
6.95981e-12
1.28646e-11
2.22854e-11
3.71176e-11
5.93808e-11
9.29373e-11
1.43473e-10
2.21073e-10
3.42953e-10
5.38591e-10
8.60829e-10
1.40679e-09
2.34911e-09
4.00871e-09
6.99682e-09
1.23338e-08
2.1946e-08
3.92836e-08
6.99328e-08
1.24188e-07
2.16776e-07
3.75844e-07
6.35264e-07
1.06885e-06
1.74643e-06
2.818e-06
4.49261e-06
7.08361e-06
1.10593e-05
1.71032e-05
2.61729e-05
3.9511e-05
5.84672e-05
7.96106e-05
7.70189e-05
6.12282e-05
4.27081e-05
2.74873e-05
1.6497e-05
9.27373e-06
4.88149e-06
2.39424e-06
1.08539e-06
4.54555e-07
1.74243e-07
6.10626e-08
1.92411e-08
5.43292e-09
1.36352e-09
2.84782e-10
5.19156e-11
8.51619e-12
1.33007e-12
2.2309e-13
4.46813e-14
1.07885e-14
2.93215e-15
8.39309e-16
2.43696e-16
7.05141e-17
2.01731e-17
5.68776e-18
1.579e-18
4.31723e-19
1.16346e-19
3.09311e-20
8.11688e-21
2.10161e-21
5.35427e-22
1.33212e-22
3.17882e-23
6.98014e-24
1.27428e-24
1.20647e-25
3.21093e-19
1.24508e-18
2.65969e-18
4.90779e-18
8.49066e-18
1.42116e-17
2.33806e-17
3.81749e-17
6.23238e-17
1.01171e-16
1.64639e-16
2.71339e-16
4.55991e-16
7.84371e-16
1.38347e-15
2.50654e-15
4.67365e-15
8.96368e-15
1.7719e-14
3.61812e-14
7.62854e-14
1.6522e-13
3.63482e-13
7.99448e-13
1.7206e-12
3.5027e-12
6.79378e-12
1.25874e-11
2.18469e-11
3.64599e-11
5.84482e-11
9.16354e-11
1.41755e-10
2.18825e-10
3.40373e-10
5.3601e-10
8.59482e-10
1.4098e-09
2.36376e-09
4.05116e-09
7.10154e-09
1.25713e-08
2.24587e-08
4.03625e-08
7.20958e-08
1.28366e-07
2.24823e-07
3.90232e-07
6.61851e-07
1.11686e-06
1.82893e-06
2.95647e-06
4.72072e-06
7.45684e-06
1.16625e-05
1.80629e-05
2.76704e-05
4.17875e-05
6.17838e-05
8.03872e-05
7.55502e-05
5.89894e-05
4.06138e-05
2.58618e-05
1.53549e-05
8.53695e-06
4.43667e-06
2.14702e-06
9.60483e-07
3.95345e-07
1.49192e-07
5.12903e-08
1.59237e-08
4.41475e-09
1.07849e-09
2.20174e-10
3.93952e-11
6.40478e-12
1.00729e-12
1.73979e-13
3.62688e-14
9.04564e-15
2.50796e-15
7.26513e-16
2.12655e-16
6.19184e-17
1.78087e-17
5.04509e-18
1.40667e-18
3.86116e-19
1.04412e-19
2.78308e-20
7.31737e-21
1.89785e-21
4.84274e-22
1.20683e-22
2.88456e-23
6.3425e-24
1.15883e-24
1.09738e-25
3.1996e-19
1.24067e-18
2.65016e-18
4.88986e-18
8.45896e-18
1.41574e-17
2.32897e-17
3.80259e-17
6.20654e-17
1.00695e-16
1.63783e-16
2.69715e-16
4.52845e-16
7.78173e-16
1.37099e-15
2.48074e-15
4.61922e-15
8.84557e-15
1.74544e-14
3.55691e-14
7.48769e-14
1.61923e-13
3.55938e-13
7.82135e-13
1.68309e-12
3.42865e-12
6.65666e-12
1.23589e-11
2.14973e-11
3.59437e-11
5.77153e-11
9.06011e-11
1.40675e-10
2.17465e-10
3.38923e-10
5.35265e-10
8.6106e-10
1.41744e-09
2.38615e-09
4.10684e-09
7.22852e-09
1.28497e-08
2.30473e-08
4.15825e-08
7.45597e-08
1.32691e-07
2.33267e-07
4.05125e-07
6.89371e-07
1.16648e-06
1.91466e-06
3.1026e-06
4.96704e-06
7.86604e-06
1.2334e-05
1.91519e-05
2.94129e-05
4.45281e-05
6.59755e-05
8.13751e-05
7.42721e-05
5.69583e-05
3.87235e-05
2.4398e-05
1.4358e-05
7.91721e-06
4.0979e-06
1.92132e-06
8.50208e-07
3.45296e-07
1.28651e-07
4.3517e-08
1.32722e-08
3.5859e-09
8.61876e-10
1.72501e-10
3.03851e-11
4.90065e-12
7.79086e-13
1.38766e-13
3.00318e-14
7.70473e-15
2.1726e-15
6.35768e-16
1.8737e-16
5.48423e-17
1.58424e-17
4.50523e-18
1.26051e-18
3.47138e-19
9.41935e-20
2.52147e-20
6.66016e-21
1.73351e-21
4.43099e-22
1.10494e-22
2.64117e-23
5.80644e-24
1.06073e-24
1.00439e-25
3.18684e-19
1.2357e-18
2.6394e-18
4.8695e-18
8.42239e-18
1.4093e-17
2.31767e-17
3.78251e-17
6.17111e-17
1.00051e-16
1.62521e-16
2.67317e-16
4.48265e-16
7.69295e-16
1.3535e-15
2.44555e-15
4.54747e-15
8.69646e-15
1.71376e-14
3.48804e-14
7.3319e-14
1.58441e-13
3.48377e-13
7.66056e-13
1.64854e-12
3.3593e-12
6.53635e-12
1.21597e-11
2.11923e-11
3.55095e-11
5.71957e-11
8.99386e-11
1.39937e-10
2.16713e-10
3.38451e-10
5.36054e-10
8.65155e-10
1.4296e-09
2.4161e-09
4.17701e-09
7.35673e-09
1.31343e-08
2.36376e-08
4.27921e-08
7.68971e-08
1.3715e-07
2.41604e-07
4.195e-07
7.15751e-07
1.21418e-06
1.99813e-06
3.24546e-06
5.20735e-06
8.26444e-06
1.29864e-05
2.02071e-05
3.10955e-05
4.71605e-05
6.99565e-05
8.21584e-05
7.30139e-05
5.50759e-05
3.70237e-05
2.31105e-05
1.34743e-05
7.36435e-06
3.77327e-06
1.74332e-06
7.62529e-07
3.06043e-07
1.12246e-07
3.74451e-08
1.12415e-08
2.99136e-09
7.02782e-10
1.3787e-10
2.3919e-11
3.83002e-12
6.16365e-13
1.13188e-13
2.53603e-14
6.67079e-15
1.90889e-15
5.63496e-16
1.67033e-16
4.90994e-17
1.42322e-17
4.05904e-18
1.13851e-18
3.14207e-19
8.54016e-20
2.28833e-20
6.04869e-21
1.57667e-21
4.04276e-22
1.01072e-22
2.41944e-23
5.32237e-24
9.72607e-25
9.21036e-26
3.17544e-19
1.23129e-18
2.62993e-18
4.85181e-18
8.39115e-18
1.40391e-17
2.30841e-17
3.76653e-17
6.14326e-17
9.95096e-17
1.61554e-16
2.65567e-16
4.45042e-16
7.6323e-16
1.34182e-15
2.4224e-15
4.5008e-15
8.60022e-15
1.69342e-14
3.44482e-14
7.23217e-14
1.56199e-13
3.42944e-13
7.53209e-13
1.62271e-12
3.31132e-12
6.44949e-12
1.20099e-11
2.09623e-11
3.51548e-11
5.69334e-11
8.95628e-11
1.39537e-10
2.16417e-10
3.38614e-10
5.37669e-10
8.70458e-10
1.44145e-09
2.44475e-09
4.24379e-09
7.49806e-09
1.34303e-08
2.42486e-08
4.40038e-08
7.92523e-08
1.41603e-07
2.49984e-07
4.34447e-07
7.4225e-07
1.26031e-06
2.07548e-06
3.37494e-06
5.42152e-06
8.61507e-06
1.35518e-05
2.11048e-05
3.2493e-05
4.92771e-05
7.29852e-05
8.24742e-05
7.171e-05
5.33448e-05
3.55666e-05
2.20112e-05
1.27309e-05
6.89879e-06
3.5054e-06
1.60191e-06
6.92363e-07
2.74531e-07
9.95951e-08
3.28591e-08
9.81908e-09
2.4666e-09
5.71321e-10
1.1068e-10
1.90712e-11
3.06034e-12
5.02359e-13
9.54039e-14
2.2073e-14
5.92601e-15
1.71418e-15
5.08942e-16
1.51381e-16
4.46015e-17
1.29512e-17
3.6992e-18
1.03894e-18
2.87058e-19
7.80941e-20
2.09368e-20
5.53662e-21
1.44405e-21
3.70336e-22
9.26423e-23
2.21971e-23
4.88722e-24
8.93546e-25
8.46361e-26
3.16628e-19
1.22778e-18
2.6225e-18
4.83816e-18
8.36743e-18
1.39987e-17
2.30154e-17
3.75463e-17
6.12192e-17
9.91051e-17
1.60804e-16
2.64176e-16
4.42426e-16
7.5825e-16
1.33221e-15
2.40342e-15
4.46252e-15
8.52063e-15
1.67633e-14
3.40601e-14
7.14846e-14
1.54156e-13
3.38412e-13
7.43953e-13
1.60327e-12
3.27427e-12
6.38513e-12
1.19042e-11
2.08113e-11
3.4951e-11
5.67042e-11
8.93135e-11
1.3934e-10
2.16412e-10
3.39166e-10
5.39714e-10
8.76007e-10
1.45442e-09
2.47381e-09
4.30843e-09
7.63315e-09
1.37081e-08
2.47998e-08
4.50862e-08
8.1334e-08
1.45556e-07
2.57192e-07
4.4739e-07
7.6503e-07
1.2996e-06
2.14246e-06
3.48644e-06
5.60398e-06
8.90677e-06
1.40125e-05
2.182e-05
3.35773e-05
5.08661e-05
7.512e-05
8.23617e-05
7.0314e-05
5.16538e-05
3.42365e-05
2.10334e-05
1.20815e-05
6.50065e-06
3.27831e-06
1.48841e-06
6.37793e-07
2.50668e-07
9.01025e-08
2.94127e-08
8.67328e-09
2.14629e-09
4.90228e-10
9.37762e-11
1.6026e-11
2.56858e-12
4.26886e-13
8.29067e-14
1.95901e-14
5.32899e-15
1.55212e-15
4.62519e-16
1.37879e-16
4.06884e-17
1.1831e-17
3.3834e-18
9.51357e-19
2.63144e-19
7.16475e-20
1.92167e-20
5.0842e-21
1.32662e-21
3.40503e-22
8.52678e-23
2.04502e-23
4.50609e-24
8.24279e-25
7.80955e-26
3.15743e-19
1.22435e-18
2.61516e-18
4.82454e-18
8.3437e-18
1.39587e-17
2.29493e-17
3.74388e-17
6.10471e-17
9.87954e-17
1.60249e-16
2.63154e-16
4.4045e-16
7.54372e-16
1.32452e-15
2.38805e-15
4.43172e-15
8.45782e-15
1.66331e-14
3.37656e-14
7.07849e-14
1.52606e-13
3.34957e-13
7.36245e-13
1.58802e-12
3.24604e-12
6.33733e-12
1.18274e-11
2.0705e-11
3.48115e-11
5.65524e-11
8.91764e-11
1.39301e-10
2.16624e-10
3.39995e-10
5.42027e-10
8.81772e-10
1.4673e-09
2.50155e-09
4.36768e-09
7.75486e-09
1.39539e-08
2.52904e-08
4.60476e-08
8.31814e-08
1.49006e-07
2.63514e-07
4.58709e-07
7.84836e-07
1.33349e-06
2.19907e-06
3.57885e-06
5.75205e-06
9.14105e-06
1.43743e-05
2.23645e-05
3.43661e-05
5.19389e-05
7.67241e-05
8.20193e-05
6.89842e-05
5.01816e-05
3.30878e-05
2.01449e-05
1.15054e-05
6.15329e-06
3.08074e-06
1.39443e-06
5.92969e-07
2.3122e-07
8.24345e-08
2.66814e-08
7.7862e-09
1.9191e-09
4.33733e-10
8.21277e-11
1.39351e-11
2.22853e-12
3.73359e-13
7.36494e-14
1.76612e-14
4.84883e-15
1.4192e-15
4.24032e-16
1.26612e-16
3.74086e-17
1.08884e-17
3.11683e-18
8.77252e-19
2.42931e-19
6.62665e-20
1.78238e-20
4.72952e-21
1.23684e-21
3.17616e-22
7.95003e-23
1.90562e-23
4.19723e-24
7.6758e-25
7.27187e-26
3.14992e-19
1.22146e-18
2.60898e-18
4.8131e-18
8.32374e-18
1.39249e-17
2.28923e-17
3.73426e-17
6.08679e-17
9.84663e-17
1.59674e-16
2.62174e-16
4.38805e-16
7.51391e-16
1.31876e-15
2.37611e-15
4.40698e-15
8.40657e-15
1.65219e-14
3.35343e-14
7.02708e-14
1.51459e-13
3.32438e-13
7.30775e-13
1.57676e-12
3.22515e-12
6.30243e-12
1.17725e-11
2.0632e-11
3.47211e-11
5.6468e-11
8.91325e-11
1.39384e-10
2.16997e-10
3.41028e-10
5.44586e-10
8.8773e-10
1.4802e-09
2.52893e-09
4.4259e-09
7.87216e-09
1.41867e-08
2.57466e-08
4.69264e-08
8.48567e-08
1.52131e-07
2.69208e-07
4.68844e-07
8.02413e-07
1.36303e-06
2.24846e-06
3.6595e-06
5.88052e-06
9.34065e-06
1.4679e-05
2.28174e-05
3.50215e-05
5.2835e-05
7.76132e-05
8.14921e-05
6.77554e-05
4.88964e-05
3.20385e-05
1.94296e-05
1.10356e-05
5.86581e-06
2.91728e-06
1.31772e-06
5.56681e-07
2.15559e-07
7.62966e-08
2.44798e-08
7.05905e-09
1.74012e-09
3.90032e-10
7.32275e-11
1.23453e-11
1.97146e-12
3.32884e-13
6.65947e-14
1.61724e-14
4.4739e-15
1.3145e-15
3.93509e-16
1.17625e-16
3.47785e-17
1.01285e-17
2.90049e-18
8.16353e-19
2.26006e-19
6.16458e-20
1.65943e-20
4.40523e-21
1.1525e-21
2.96294e-22
7.4256e-23
1.78168e-23
3.92679e-24
7.18382e-25
6.80673e-26
3.14378e-19
1.21909e-18
2.60394e-18
4.80379e-18
8.30755e-18
1.38975e-17
2.28466e-17
3.7266e-17
6.07213e-17
9.81916e-17
1.59177e-16
2.61279e-16
4.37158e-16
7.48411e-16
1.3134e-15
2.3665e-15
4.38811e-15
8.36711e-15
1.64374e-14
3.33439e-14
6.98638e-14
1.50564e-13
3.30366e-13
7.26434e-13
1.56806e-12
3.20957e-12
6.2772e-12
1.1734e-11
2.05839e-11
3.46672e-11
5.64327e-11
8.91533e-11
1.39547e-10
2.1747e-10
3.42184e-10
5.47185e-10
8.93419e-10
1.49217e-09
2.55389e-09
4.47719e-09
7.97673e-09
1.43982e-08
2.61675e-08
4.77436e-08
8.64038e-08
1.54988e-07
2.74351e-07
4.7783e-07
8.17795e-07
1.38868e-06
2.29034e-06
3.72668e-06
5.98683e-06
9.50601e-06
1.49302e-05
2.31896e-05
3.5544e-05
5.35174e-05
7.81665e-05
8.0941e-05
6.66851e-05
4.78098e-05
3.11581e-05
1.88338e-05
1.06473e-05
5.6315e-06
2.78423e-06
1.2559e-06
5.27219e-07
2.02921e-07
7.129e-08
2.27001e-08
6.48272e-09
1.60033e-09
3.55661e-10
6.62674e-11
1.11147e-11
1.77349e-12
3.01539e-13
6.10419e-14
1.49773e-14
4.16839e-15
1.22842e-15
3.68294e-16
1.10184e-16
3.26e-17
9.50098e-18
2.72379e-18
7.68268e-19
2.1325e-19
5.82504e-20
1.5684e-20
4.16413e-21
1.08942e-21
2.79954e-22
7.01383e-23
1.6825e-23
3.70757e-24
6.78188e-25
6.42554e-26
3.13889e-19
1.21721e-18
2.59994e-18
4.79643e-18
8.2948e-18
1.3876e-17
2.28109e-17
3.7207e-17
6.06058e-17
9.79732e-17
1.58783e-16
2.60571e-16
4.35871e-16
7.46024e-16
1.30888e-15
2.35771e-15
4.3715e-15
8.33515e-15
1.63722e-14
3.32044e-14
6.95542e-14
1.49867e-13
3.28881e-13
7.2326e-13
1.56183e-12
3.19843e-12
6.2596e-12
1.17082e-11
2.05543e-11
3.46396e-11
5.64311e-11
8.92151e-11
1.39755e-10
2.17975e-10
3.43301e-10
5.49596e-10
8.98599e-10
1.50289e-09
2.57577e-09
4.52271e-09
8.06753e-09
1.45771e-08
2.65142e-08
4.84064e-08
8.76801e-08
1.57414e-07
2.78889e-07
4.8577e-07
8.31331e-07
1.41067e-06
2.32619e-06
3.78416e-06
6.07685e-06
9.64442e-06
1.5139e-05
2.34935e-05
3.59673e-05
5.40616e-05
7.85334e-05
8.0429e-05
6.57752e-05
4.68812e-05
3.0412e-05
1.83153e-05
1.03123e-05
5.42993e-06
2.66935e-06
1.20306e-06
5.02708e-07
1.92429e-07
6.72681e-08
2.12789e-08
6.02379e-09
1.48989e-09
3.28899e-10
6.08481e-11
1.01556e-11
1.61846e-12
2.76668e-13
5.65461e-14
1.39909e-14
3.91331e-15
1.1562e-15
3.47109e-16
1.03929e-16
3.07668e-17
8.97081e-18
2.57277e-18
7.25778e-19
2.01547e-19
5.51617e-20
1.48726e-20
3.95158e-21
1.03369e-21
2.6568e-22
6.65757e-23
1.59731e-23
3.52023e-24
6.43949e-25
6.10122e-26
3.13506e-19
1.21574e-18
2.59682e-18
4.79067e-18
8.28485e-18
1.38594e-17
2.27833e-17
3.71615e-17
6.05157e-17
9.78023e-17
1.58474e-16
2.60021e-16
4.34874e-16
7.44185e-16
1.30542e-15
2.35105e-15
4.35855e-15
8.3084e-15
1.6319e-14
3.30985e-14
6.93267e-14
1.49364e-13
3.27764e-13
7.20909e-13
1.55726e-12
3.19044e-12
6.24735e-12
1.16908e-11
2.05372e-11
3.46294e-11
5.64494e-11
8.92957e-11
1.3997e-10
2.18464e-10
3.44338e-10
5.51771e-10
9.03121e-10
1.51205e-09
2.59427e-09
4.55957e-09
8.13911e-09
1.47137e-08
2.67727e-08
4.88734e-08
8.85019e-08
1.58797e-07
2.83694e-07
4.93056e-07
8.43168e-07
1.42961e-06
2.35699e-06
3.83292e-06
6.15265e-06
9.76001e-06
1.53101e-05
2.37415e-05
3.63097e-05
5.44932e-05
7.87878e-05
8.0046e-05
6.51677e-05
4.59434e-05
2.97106e-05
1.78421e-05
1.00168e-05
5.25677e-06
2.57322e-06
1.15989e-06
4.82584e-07
1.83938e-07
6.39812e-08
2.01325e-08
5.65911e-09
1.40353e-09
3.07354e-10
5.63957e-11
9.35652e-12
1.4881e-12
2.55569e-13
5.2706e-14
1.31473e-14
3.69598e-15
1.09505e-15
3.2928e-16
9.86932e-17
2.92386e-17
8.53008e-18
2.44738e-18
6.90531e-19
1.91724e-19
5.24289e-20
1.41323e-20
3.75629e-21
9.83761e-22
2.53106e-22
6.34761e-23
1.52387e-23
3.35978e-24
6.14747e-25
5.82504e-26
3.13212e-19
1.2146e-18
2.59441e-18
4.78624e-18
8.27719e-18
1.38465e-17
2.27619e-17
3.71259e-17
6.04461e-17
9.76703e-17
1.58237e-16
2.59597e-16
4.34109e-16
7.42778e-16
1.30278e-15
2.34599e-15
4.34848e-15
8.28893e-15
1.62787e-14
3.30134e-14
6.91493e-14
1.48978e-13
3.26934e-13
7.19196e-13
1.55401e-12
3.185e-12
6.23956e-12
1.16808e-11
2.05299e-11
3.46318e-11
5.64818e-11
8.93912e-11
1.40194e-10
2.18939e-10
3.45326e-10
5.53804e-10
9.07345e-10
1.52054e-09
2.61121e-09
4.59372e-09
8.20695e-09
1.4848e-08
2.70337e-08
4.93719e-08
8.94568e-08
1.60601e-07
2.86972e-07
4.9872e-07
8.52693e-07
1.44495e-06
2.38193e-06
3.87251e-06
6.21419e-06
9.85407e-06
1.54508e-05
2.39439e-05
3.65875e-05
5.48413e-05
7.89432e-05
7.96435e-05
6.45292e-05
4.53309e-05
2.92233e-05
1.75012e-05
9.79768e-06
5.12609e-06
2.49991e-06
1.12692e-06
4.67326e-07
1.77506e-07
6.15166e-08
1.92798e-08
5.3972e-09
1.34461e-09
2.79941e-10
5.11742e-11
8.48626e-12
1.35622e-12
2.3573e-13
4.93366e-14
1.24436e-14
3.51949e-15
1.04592e-15
3.15006e-16
9.45032e-17
2.80151e-17
8.1773e-18
2.34719e-18
6.6251e-19
1.84e-19
5.03289e-20
1.35693e-20
3.60757e-21
9.45105e-22
2.43244e-22
6.10229e-23
1.46537e-23
3.23142e-24
5.91323e-25
5.60298e-26
3.12995e-19
1.21377e-18
2.59265e-18
4.78301e-18
8.27161e-18
1.38372e-17
2.27466e-17
3.71007e-17
6.03953e-17
9.75728e-17
1.58061e-16
2.59283e-16
4.33543e-16
7.41739e-16
1.30084e-15
2.3423e-15
4.34127e-15
8.27468e-15
1.62495e-14
3.29522e-14
6.90176e-14
1.487e-13
3.26344e-13
7.17995e-13
1.55178e-12
3.18136e-12
6.2346e-12
1.16752e-11
2.05282e-11
3.46405e-11
5.65182e-11
8.94831e-11
1.40398e-10
2.19362e-10
3.46189e-10
5.55553e-10
9.10876e-10
1.5276e-09
2.62548e-09
4.62248e-09
8.26396e-09
1.49603e-08
2.72522e-08
4.97877e-08
9.02419e-08
1.62046e-07
2.8948e-07
5.03115e-07
8.60171e-07
1.45704e-06
2.40168e-06
3.90402e-06
6.26343e-06
9.92906e-06
1.55628e-05
2.41061e-05
3.68108e-05
5.5122e-05
7.90421e-05
7.9297e-05
6.40058e-05
4.48573e-05
2.88548e-05
1.72451e-05
9.63448e-06
5.02952e-06
2.44648e-06
1.10154e-06
4.5557e-07
1.72569e-07
5.96296e-08
1.86256e-08
5.19483e-09
1.2889e-09
2.668e-10
4.85116e-11
8.0155e-12
1.28e-12
2.23349e-13
4.70535e-14
1.19346e-14
3.38705e-15
1.00846e-15
3.04061e-16
9.12866e-17
2.70764e-17
7.90681e-18
2.27038e-18
6.41033e-19
1.78089e-19
4.87279e-20
1.31421e-20
3.49516e-21
9.15936e-22
2.35799e-22
5.91678e-23
1.42105e-23
3.13402e-24
5.73528e-25
5.43447e-26
3.12845e-19
1.21319e-18
2.59142e-18
4.78076e-18
8.26775e-18
1.38307e-17
2.27361e-17
3.70835e-17
6.036e-17
9.75043e-17
1.57936e-16
2.59061e-16
4.3314e-16
7.40994e-16
1.29944e-15
2.33958e-15
4.33607e-15
8.26442e-15
1.62294e-14
3.29107e-14
6.89285e-14
1.48506e-13
3.25935e-13
7.17185e-13
1.55031e-12
3.17905e-12
6.23175e-12
1.16726e-11
2.05294e-11
3.4651e-11
5.65515e-11
8.95616e-11
1.40566e-10
2.19703e-10
3.46875e-10
5.5693e-10
9.13662e-10
1.53318e-09
2.63656e-09
4.64471e-09
8.30801e-09
1.50466e-08
2.74193e-08
5.01001e-08
9.08274e-08
1.6312e-07
2.91336e-07
5.06379e-07
8.65727e-07
1.46601e-06
2.41637e-06
3.92748e-06
6.3001e-06
9.98523e-06
1.56465e-05
2.42269e-05
3.69768e-05
5.5328e-05
7.91013e-05
7.90301e-05
6.3616e-05
4.451e-05
2.85862e-05
1.70602e-05
9.5168e-06
4.96016e-06
2.40878e-06
1.08263e-06
4.46888e-07
1.68936e-07
5.82452e-08
1.81458e-08
5.04682e-09
1.24832e-09
2.57481e-10
4.66767e-11
7.69774e-12
1.22931e-12
2.15153e-13
4.55315e-14
1.15902e-14
3.29607e-15
9.82405e-16
2.96374e-16
8.90107e-17
2.64087e-17
7.71385e-18
2.21567e-18
6.25828e-19
1.7393e-19
4.76039e-20
1.28416e-20
3.41572e-21
8.95231e-22
2.30497e-22
5.78435e-23
1.38936e-23
3.06427e-24
5.60777e-25
5.31368e-26
3.12751e-19
1.21283e-18
2.59066e-18
4.77937e-18
8.26538e-18
1.38268e-17
2.27296e-17
3.70731e-17
6.03382e-17
9.74617e-17
1.57859e-16
2.58923e-16
4.3289e-16
7.40535e-16
1.29858e-15
2.33794e-15
4.33293e-15
8.25827e-15
1.62171e-14
3.28853e-14
6.8875e-14
1.48391e-13
3.25693e-13
7.16702e-13
1.54945e-12
3.17775e-12
6.23027e-12
1.16715e-11
2.05314e-11
3.46601e-11
5.65771e-11
8.96189e-11
1.40686e-10
2.19944e-10
3.47356e-10
5.57881e-10
9.15579e-10
1.537e-09
2.64421e-09
4.66008e-09
8.33824e-09
1.51053e-08
2.7532e-08
5.0311e-08
9.12202e-08
1.63833e-07
2.92558e-07
5.08526e-07
8.69387e-07
1.47192e-06
2.42603e-06
3.94288e-06
6.32412e-06
1.00219e-05
1.5701e-05
2.43054e-05
3.70839e-05
5.54594e-05
7.91377e-05
7.88504e-05
6.33572e-05
4.42812e-05
2.84109e-05
1.69399e-05
9.44075e-06
4.91552e-06
2.3844e-06
1.07037e-06
4.4125e-07
1.6658e-07
5.73489e-08
1.78371e-08
4.95175e-09
1.22235e-09
2.51593e-10
4.55187e-11
7.49844e-12
1.19775e-12
2.10073e-13
4.45875e-14
1.13754e-14
3.23898e-15
9.65971e-16
2.91506e-16
8.75646e-17
2.59831e-17
7.59041e-18
2.18043e-18
6.1592e-19
1.71193e-19
4.6861e-20
1.26434e-20
3.36364e-21
8.81737e-22
2.27057e-22
5.6987e-23
1.36891e-23
3.01933e-24
5.52567e-25
5.23591e-26
3.12705e-19
1.21266e-18
2.59029e-18
4.77869e-18
8.26421e-18
1.38249e-17
2.27265e-17
3.70681e-17
6.03277e-17
9.74412e-17
1.57822e-16
2.58857e-16
4.32772e-16
7.40319e-16
1.29818e-15
2.33718e-15
4.33145e-15
8.25537e-15
1.62112e-14
3.28731e-14
6.88492e-14
1.48336e-13
3.25578e-13
7.16474e-13
1.54905e-12
3.17716e-12
6.22964e-12
1.16712e-11
2.05328e-11
3.46652e-11
5.65907e-11
8.9649e-11
1.40748e-10
2.20068e-10
3.476e-10
5.58366e-10
9.16554e-10
1.53894e-09
2.64805e-09
4.6677e-09
8.35318e-09
1.51344e-08
2.75879e-08
5.04157e-08
9.14156e-08
1.6419e-07
2.93168e-07
5.09597e-07
8.71205e-07
1.47485e-06
2.43083e-06
3.95052e-06
6.33604e-06
1.004e-05
1.5728e-05
2.43441e-05
3.71365e-05
5.55241e-05
7.91535e-05
7.87595e-05
6.32285e-05
4.41677e-05
2.83242e-05
1.68806e-05
9.40336e-06
4.89368e-06
2.37254e-06
1.06439e-06
4.38497e-07
1.65431e-07
5.69125e-08
1.7687e-08
4.90572e-09
1.20984e-09
2.48775e-10
4.49698e-11
7.40425e-12
1.18291e-12
2.07697e-13
4.41475e-14
1.12754e-14
3.21239e-15
9.58311e-16
2.89235e-16
8.68894e-17
2.57841e-17
7.53258e-18
2.16389e-18
6.11268e-19
1.69906e-19
4.6511e-20
1.25496e-20
3.33889e-21
8.753e-22
2.25411e-22
5.65765e-23
1.35909e-23
2.99774e-24
5.4862e-25
5.1985e-26
3.12703e-19
1.21265e-18
2.59027e-18
4.77866e-18
8.26414e-18
1.38248e-17
2.27263e-17
3.70677e-17
6.03271e-17
9.74402e-17
1.5782e-16
2.58855e-16
4.3277e-16
7.40317e-16
1.29818e-15
2.33718e-15
4.33147e-15
8.25541e-15
1.62113e-14
3.28732e-14
6.88494e-14
1.48337e-13
3.25579e-13
7.16476e-13
1.54905e-12
3.17717e-12
6.22965e-12
1.16713e-11
2.05329e-11
3.46654e-11
5.6591e-11
8.96495e-11
1.40749e-10
2.2007e-10
3.47604e-10
5.58372e-10
9.16565e-10
1.53896e-09
2.64809e-09
4.66776e-09
8.3533e-09
1.51347e-08
2.75883e-08
5.04164e-08
9.14169e-08
1.64192e-07
2.93172e-07
5.09603e-07
8.71215e-07
1.47487e-06
2.43085e-06
3.95056e-06
6.3361e-06
1.00401e-05
1.57281e-05
2.43443e-05
3.71369e-05
5.55247e-05
7.91543e-05
7.87608e-05
6.32293e-05
4.4168e-05
2.83244e-05
1.68807e-05
9.40347e-06
4.89375e-06
2.3726e-06
1.06442e-06
4.3851e-07
1.65436e-07
5.69144e-08
1.76877e-08
4.90591e-09
1.20989e-09
2.48786e-10
4.49721e-11
7.40463e-12
1.18297e-12
2.07707e-13
4.41493e-14
1.12758e-14
3.21249e-15
9.5834e-16
2.89244e-16
8.68921e-17
2.57849e-17
7.53282e-18
2.16396e-18
6.1129e-19
1.69913e-19
4.65129e-20
1.25502e-20
3.33907e-21
8.75354e-22
2.25427e-22
5.65813e-23
1.35922e-23
2.99806e-24
5.48683e-25
5.19912e-26
3.12745e-19
1.21281e-18
2.59061e-18
4.77928e-18
8.26521e-18
1.38265e-17
2.27292e-17
3.70723e-17
6.03369e-17
9.74596e-17
1.57856e-16
2.58919e-16
4.32887e-16
7.40534e-16
1.29859e-15
2.33796e-15
4.33297e-15
8.25835e-15
1.62172e-14
3.28856e-14
6.88756e-14
1.48392e-13
3.25695e-13
7.16706e-13
1.54946e-12
3.17777e-12
6.23031e-12
1.16716e-11
2.05316e-11
3.46605e-11
5.65779e-11
8.96204e-11
1.40689e-10
2.19949e-10
3.47365e-10
5.579e-10
9.15617e-10
1.53707e-09
2.64434e-09
4.66029e-09
8.33861e-09
1.5106e-08
2.75332e-08
5.03133e-08
9.12244e-08
1.63841e-07
2.92571e-07
5.08547e-07
8.69416e-07
1.47197e-06
2.42611e-06
3.94299e-06
6.32429e-06
1.00221e-05
1.57014e-05
2.43059e-05
3.70845e-05
5.54602e-05
7.91386e-05
7.88515e-05
6.33584e-05
4.4282e-05
2.84115e-05
1.69404e-05
9.44103e-06
4.9157e-06
2.38451e-06
1.07043e-06
4.41275e-07
1.66591e-07
5.73531e-08
1.78386e-08
4.95223e-09
1.22248e-09
2.51624e-10
4.55246e-11
7.49948e-12
1.19792e-12
2.101e-13
4.45925e-14
1.13766e-14
3.23928e-15
9.66056e-16
2.91531e-16
8.75722e-17
2.59854e-17
7.5911e-18
2.18064e-18
6.15982e-19
1.71211e-19
4.68665e-20
1.2645e-20
3.36412e-21
8.81882e-22
2.271e-22
5.69996e-23
1.36926e-23
3.02019e-24
5.52737e-25
5.23756e-26
3.12838e-19
1.21316e-18
2.59136e-18
4.78065e-18
8.26755e-18
1.38304e-17
2.27355e-17
3.70827e-17
6.03586e-17
9.75021e-17
1.57934e-16
2.59059e-16
4.3314e-16
7.41e-16
1.29946e-15
2.33962e-15
4.33615e-15
8.26457e-15
1.62296e-14
3.29111e-14
6.89295e-14
1.48508e-13
3.25939e-13
7.17194e-13
1.55033e-12
3.17909e-12
6.23182e-12
1.16727e-11
2.05296e-11
3.46515e-11
5.65524e-11
8.95633e-11
1.40569e-10
2.19709e-10
3.46886e-10
5.56953e-10
9.1371e-10
1.53328e-09
2.63677e-09
4.64514e-09
8.30877e-09
1.50479e-08
2.74214e-08
5.01045e-08
9.08343e-08
1.63128e-07
2.91348e-07
5.06396e-07
8.65764e-07
1.46608e-06
2.41647e-06
3.92764e-06
6.30035e-06
9.98559e-06
1.5647e-05
2.42277e-05
3.69779e-05
5.53293e-05
7.91026e-05
7.90315e-05
6.36173e-05
4.45109e-05
2.85871e-05
1.7061e-05
9.51731e-06
4.96047e-06
2.40896e-06
1.08272e-06
4.46935e-07
1.68956e-07
5.8253e-08
1.81485e-08
5.04767e-09
1.24856e-09
2.57535e-10
4.66878e-11
7.69968e-12
1.22962e-12
2.15203e-13
4.55407e-14
1.15923e-14
3.29662e-15
9.82563e-16
2.96421e-16
8.90245e-17
2.64127e-17
7.71504e-18
2.21602e-18
6.25933e-19
1.73962e-19
4.76134e-20
1.28444e-20
3.41656e-21
8.95478e-22
2.30568e-22
5.78635e-23
1.38989e-23
3.06556e-24
5.61028e-25
5.31611e-26
3.12989e-19
1.21374e-18
2.59259e-18
4.7829e-18
8.27143e-18
1.38369e-17
2.27461e-17
3.71002e-17
6.03945e-17
9.75718e-17
1.5806e-16
2.59285e-16
4.33549e-16
7.41756e-16
1.30088e-15
2.34237e-15
4.34139e-15
8.2749e-15
1.62499e-14
3.2953e-14
6.9019e-14
1.48703e-13
3.2635e-13
7.18008e-13
1.55181e-12
3.18141e-12
6.2347e-12
1.16754e-11
2.05285e-11
3.46411e-11
5.65192e-11
8.94848e-11
1.40401e-10
2.19366e-10
3.46195e-10
5.55562e-10
9.10907e-10
1.52767e-09
2.6256e-09
4.62275e-09
8.26453e-09
1.49616e-08
2.72547e-08
4.97908e-08
9.02471e-08
1.62056e-07
2.895e-07
5.03153e-07
8.60227e-07
1.45713e-06
2.40182e-06
3.90421e-06
6.26369e-06
9.92937e-06
1.55632e-05
2.41068e-05
3.6812e-05
5.51234e-05
7.90437e-05
7.92989e-05
6.40079e-05
4.48593e-05
2.88564e-05
1.72463e-05
9.63525e-06
5.02999e-06
2.44675e-06
1.10168e-06
4.55635e-07
1.72597e-07
5.96405e-08
1.86291e-08
5.19598e-09
1.28922e-09
2.66876e-10
4.85269e-11
8.01819e-12
1.28043e-12
2.23419e-13
4.70665e-14
1.19375e-14
3.38781e-15
1.00867e-15
3.04125e-16
9.13054e-17
2.70819e-17
7.9084e-18
2.27084e-18
6.41158e-19
1.78124e-19
4.87376e-20
1.31449e-20
3.49597e-21
9.16173e-22
2.35868e-22
5.91874e-23
1.42158e-23
3.13529e-24
5.73775e-25
5.43687e-26
3.13207e-19
1.21458e-18
2.59436e-18
4.78616e-18
8.27705e-18
1.38463e-17
2.27617e-17
3.71257e-17
6.04458e-17
9.76703e-17
1.58238e-16
2.59601e-16
4.34119e-16
7.428e-16
1.30282e-15
2.34607e-15
4.34862e-15
8.28917e-15
1.62791e-14
3.30143e-14
6.91511e-14
1.48982e-13
3.26941e-13
7.19211e-13
1.55404e-12
3.18506e-12
6.23968e-12
1.16811e-11
2.05303e-11
3.46325e-11
5.64831e-11
8.93935e-11
1.40198e-10
2.18947e-10
3.4534e-10
5.53831e-10
9.07373e-10
1.52058e-09
2.61127e-09
4.59384e-09
8.20719e-09
1.48484e-08
2.70346e-08
4.9374e-08
8.94615e-08
1.60611e-07
2.86993e-07
4.98755e-07
8.5276e-07
1.44506e-06
2.38211e-06
3.87278e-06
6.21458e-06
9.85461e-06
1.54514e-05
2.39449e-05
3.65887e-05
5.48428e-05
7.89448e-05
7.96458e-05
6.45319e-05
4.53335e-05
2.92254e-05
1.75028e-05
9.79871e-06
5.12671e-06
2.50024e-06
1.12708e-06