/*--------------------------------*- C++ -*----------------------------------*\
  =========                 |
  \\      /  F ield         | OpenFOAM: The Open Source CFD Toolbox
   \\    /   O peration     | Website:  https://openfoam.org
    \\  /    A nd           | Version:  10
     \\/     M anipulation  |
\*---------------------------------------------------------------------------*/
FoamFile
{
    format      ascii;
    class       volScalarField;
    location    "1";
    object      H2O;
}
// * * * * * * * * * * * * * * * * * * * * * * * * * * * * * * * * * * * * * //

dimensions      [0 0 0 0 0 0 0];

internalField   nonuniform List<scalar> 
4000
(
9.18716e-07
3.55921e-06
7.58653e-06
1.39444e-05
2.39733e-05
3.97387e-05
6.44173e-05
0.000102852
0.000162355
0.0002508
0.000380601
0.000569873
0.000843204
0.00123261
0.00177823
0.00252812
0.00353569
0.00485564
0.00653813
0.00862239
0.0111309
0.0140657
0.0174076
0.0211405
0.0251982
0.0294357
0.0338927
0.0385863
0.0433202
0.0481494
0.0529426
0.0577142
0.0624059
0.0669657
0.071369
0.0755983
0.0796417
0.0834941
0.0871456
0.0905982
0.0938767
0.0969367
0.0998082
0.102505
0.105017
0.107392
0.109575
0.111641
0.113524
0.115314
0.116921
0.118383
0.119695
0.120836
0.121766
0.122415
0.122658
0.122277
0.120906
0.118003
0.113475
0.107591
0.10072
0.0932129
0.0852775
0.0772936
0.0693537
0.0615652
0.0537725
0.0465991
0.0398326
0.0334972
0.0276605
0.0223586
0.0176281
0.0135142
0.00986581
0.00690019
0.00460808
0.00293738
0.00179285
0.00105389
0.000600728
0.000334156
0.000182331
9.79703e-05
5.19777e-05
2.72681e-05
1.42064e-05
7.35502e-06
3.78668e-06
1.93975e-06
9.88801e-07
5.01303e-07
2.52288e-07
1.25403e-07
6.08519e-08
2.80367e-08
1.13579e-08
2.61764e-09
9.18984e-07
3.56035e-06
7.58976e-06
1.39534e-05
2.39954e-05
3.97865e-05
6.45088e-05
0.000103007
0.000162582
0.000251151
0.000380999
0.000570094
0.000842757
0.0012305
0.00177262
0.00251581
0.0035112
0.00481314
0.00647207
0.00852829
0.0110065
0.0139129
0.0172349
0.0209199
0.0249418
0.0291478
0.0335779
0.0382659
0.0429931
0.0478337
0.0526496
0.0574488
0.0621592
0.0667458
0.0711727
0.0754237
0.0794875
0.0833614
0.087031
0.0905005
0.0937956
0.0968696
0.0997535
0.102464
0.104986
0.10737
0.109562
0.111635
0.113525
0.11532
0.116929
0.118393
0.119705
0.120843
0.121767
0.122403
0.122622
0.122201
0.120761
0.117757
0.113126
0.10715
0.1002
0.0926272
0.0846493
0.0766308
0.0686611
0.0608806
0.0530882
0.0459266
0.0391613
0.0328811
0.0270805
0.0218138
0.0171001
0.0130006
0.00943113
0.00655373
0.00435146
0.00276224
0.00168283
0.000989895
0.00056589
0.000316209
0.000173501
9.38099e-05
5.0129e-05
2.65481e-05
1.39137e-05
7.23062e-06
3.73137e-06
1.91404e-06
9.76267e-07
4.94744e-07
2.48945e-07
1.23721e-07
6.0019e-08
2.76521e-08
1.12034e-08
2.58207e-09
9.20936e-07
3.56827e-06
7.60818e-06
1.39907e-05
2.40652e-05
3.99095e-05
6.47123e-05
0.00010332
0.000163017
0.000251745
0.000381674
0.000570631
0.000842772
0.00122906
0.00176807
0.00250522
0.00349194
0.00478116
0.00642188
0.0084533
0.0108994
0.0137658
0.0170465
0.0207058
0.0247013
0.0288862
0.0333076
0.0379773
0.0426958
0.0475419
0.0523481
0.0571416
0.0618525
0.0664608
0.0709117
0.0751874
0.0792761
0.0831769
0.0868705
0.0903632
0.0936813
0.0967762
0.0996787
0.102407
0.104946
0.107343
0.109547
0.111631
0.11353
0.115333
0.116944
0.118411
0.119723
0.120857
0.121769
0.122383
0.122563
0.122072
0.120514
0.117346
0.112547
0.106422
0.0993431
0.0916782
0.0836625
0.0756038
0.0676197
0.0598324
0.0520687
0.0449355
0.0382416
0.0319922
0.0262914
0.0211502
0.0164114
0.0124536
0.00898596
0.00621548
0.0041131
0.00260659
0.00158812
0.000935588
0.00053617
0.000300498
0.000165394
8.96816e-05
4.80205e-05
2.54387e-05
1.33528e-05
6.9537e-06
3.59669e-06
1.84934e-06
9.45833e-07
4.81185e-07
2.42692e-07
1.20782e-07
5.86424e-08
2.70272e-08
1.0951e-08
2.5237e-09
9.2109e-07
3.56887e-06
7.60949e-06
1.3993e-05
2.4068e-05
3.99095e-05
6.46983e-05
0.000103263
0.000162854
0.000251393
0.000380867
0.000568838
0.000838947
0.00122202
0.00175619
0.00248672
0.00346392
0.00474015
0.00636427
0.00837593
0.0108005
0.0136457
0.0168974
0.0205325
0.02451
0.0286733
0.0330752
0.037732
0.0424284
0.0472582
0.052054
0.0568434
0.0615572
0.0661759
0.0706526
0.0749509
0.079064
0.082991
0.0867092
0.0902254
0.0935667
0.0966821
0.0996052
0.102356
0.104912
0.107321
0.109539
0.111634
0.113542
0.115353
0.116969
0.118438
0.119749
0.120876
0.121773
0.122359
0.122489
0.121911
0.120204
0.116839
0.111853
0.105585
0.0982569
0.0905108
0.0824612
0.0743624
0.066366
0.0585943
0.0509312
0.0438094
0.0371334
0.0309927
0.0253857
0.0203083
0.0157166
0.0118809
0.00851252
0.00585176
0.00385326
0.00243367
0.00148034
0.000872081
0.000500423
0.000281082
0.000155135
8.43749e-05
4.53201e-05
2.40816e-05
1.26767e-05
6.61887e-06
3.43131e-06
1.7676e-06
9.05177e-07
4.6064e-07
2.32515e-07
1.15839e-07
5.63071e-08
2.59793e-08
1.05359e-08
2.42931e-09
9.19788e-07
3.56382e-06
7.59865e-06
1.39725e-05
2.40308e-05
3.98418e-05
6.45733e-05
0.000103028
0.000162408
0.000250538
0.000379355
0.000566287
0.00083489
0.00121557
0.00174607
0.00247115
0.00344066
0.00470655
0.00631756
0.00831367
0.0107211
0.013549
0.0167851
0.0203973
0.0243451
0.0284754
0.0328384
0.0374822
0.0421721
0.046995
0.0517873
0.0565746
0.0612924
0.0659173
0.0704111
0.0747366
0.0788748
0.0828267
0.0865684
0.0901076
0.0934711
0.0966074
0.0995496
0.10232
0.104891
0.107312
0.109541
0.111646
0.113563
0.11538
0.117001
0.118473
0.119782
0.120901
0.121782
0.122336
0.122408
0.121729
0.119852
0.11625
0.111038
0.104564
0.0970815
0.0892369
0.0811547
0.0730254
0.0650075
0.0571963
0.0496992
0.0426568
0.0360634
0.029992
0.0244313
0.0194876
0.0151399
0.0112263
0.00801379
0.00548952
0.00360475
0.00227314
0.00138232
0.000815054
0.000468497
0.000263731
0.000145914
7.95578e-05
4.28361e-05
2.28133e-05
1.2034e-05
6.29492e-06
3.26856e-06
1.68595e-06
8.64266e-07
4.40184e-07
2.22344e-07
1.10842e-07
5.3909e-08
2.48853e-08
1.0096e-08
2.32823e-09
9.17107e-07
3.55346e-06
7.57646e-06
1.39311e-05
2.39578e-05
3.97155e-05
6.43552e-05
0.000102647
0.000161756
0.000249469
0.000377674
0.000563752
0.000831044
0.00120969
0.00173715
0.00245782
0.00342112
0.00467842
0.00627781
0.0082585
0.0106459
0.013447
0.0166505
0.0202375
0.0241698
0.028289
0.0326469
0.0372804
0.0419578
0.0467721
0.0515618
0.0563481
0.0610742
0.0657087
0.0702228
0.0745656
0.078723
0.0826951
0.0864565
0.0900148
0.0933982
0.0965531
0.0995128
0.102301
0.104886
0.107317
0.109557
0.111665
0.113591
0.115417
0.117043
0.118516
0.119822
0.120932
0.121795
0.122315
0.122328
0.121543
0.119489
0.115662
0.110251
0.103623
0.0960234
0.0880934
0.0799414
0.0717717
0.0637264
0.0559252
0.0484784
0.041487
0.0349831
0.0289967
0.0235701
0.0187293
0.0144605
0.0106736
0.00758478
0.00517399
0.00338592
0.00213008
0.00129377
0.000762739
0.000438739
0.000247302
0.000137054
7.48682e-05
4.03908e-05
2.15536e-05
1.13914e-05
5.96941e-06
3.10438e-06
1.60306e-06
8.22465e-07
4.19237e-07
2.11934e-07
1.05751e-07
5.14832e-08
2.37847e-08
9.65435e-09
2.22675e-09
9.13099e-07
3.53785e-06
7.54274e-06
1.3868e-05
2.38474e-05
3.95303e-05
6.40554e-05
0.000102182
0.000161014
0.00024825
0.000375782
0.000560756
0.000826385
0.00120261
0.0017266
0.00244243
0.00339921
0.00464794
0.00623641
0.00820357
0.0105775
0.0133639
0.0165543
0.020125
0.0240404
0.0281442
0.0324842
0.0371063
0.0417772
0.0465865
0.0513721
0.0561536
0.0609077
0.0655473
0.0700709
0.0744309
0.0786062
0.0825966
0.0863756
0.0899505
0.0933483
0.096519
0.0994945
0.1023
0.104901
0.107326
0.109581
0.111688
0.113624
0.115457
0.117087
0.118561
0.119864
0.120966
0.12181
0.122297
0.122248
0.121355
0.119124
0.115085
0.109491
0.102717
0.0950197
0.0870209
0.0788511
0.070696
0.0627162
0.0547051
0.0473537
0.0404353
0.034018
0.0281046
0.0227627
0.0179962
0.0138664
0.0101882
0.00720748
0.00489683
0.00319422
0.0020051
0.00121655
0.000717148
0.000412775
0.000232925
0.000129265
7.07194e-05
3.82114e-05
2.04219e-05
1.08096e-05
5.67341e-06
2.95574e-06
1.52997e-06
7.86859e-07
4.01721e-07
2.03166e-07
1.01392e-07
4.93634e-08
2.28057e-08
9.2571e-09
2.13513e-09
9.08687e-07
3.52068e-06
7.50562e-06
1.37982e-05
2.37233e-05
3.93161e-05
6.36909e-05
0.000101565
0.000160004
0.000246611
0.000372979
0.00055627
0.000819451
0.00119217
0.00171129
0.00242057
0.00336891
0.00460726
0.00618373
0.00813802
0.0104968
0.0132696
0.0164506
0.0200144
0.0239158
0.0280009
0.0323331
0.0369467
0.0416091
0.0464139
0.0512166
0.056004
0.06077
0.0654189
0.0699526
0.074328
0.0785188
0.0825215
0.0863177
0.0899164
0.0933083
0.096497
0.0994875
0.102305
0.104917
0.107351
0.109615
0.111717
0.11366
0.115498
0.117131
0.118605
0.119905
0.120997
0.121823
0.122275
0.122165
0.121162
0.118752
0.114522
0.108758
0.101855
0.094077
0.0860225
0.0778127
0.0696495
0.0616642
0.0536457
0.0463611
0.0395103
0.0331453
0.0273251
0.0220703
0.0173911
0.0133277
0.00975063
0.00687068
0.00465199
0.00302651
0.00189673
0.00115004
0.000678
0.000390478
0.000220543
0.000122523
6.71061e-05
3.62996e-05
1.94212e-05
1.02904e-05
5.40586e-06
2.81841e-06
1.4595e-06
7.51031e-07
3.83905e-07
1.94582e-07
9.72515e-08
4.73791e-08
2.18935e-08
8.88764e-09
2.05e-09
9.04675e-07
3.50514e-06
7.47232e-06
1.37362e-05
2.3615e-05
3.91325e-05
6.33849e-05
0.000101061
0.000159185
0.000245175
0.000370734
0.000552841
0.000814342
0.00118471
0.0017006
0.00240553
0.00334832
0.00457982
0.00614831
0.00809532
0.0104435
0.0132086
0.016376
0.0199221
0.0238164
0.0278972
0.0322209
0.0368236
0.0414807
0.0462746
0.0511181
0.0558997
0.0606687
0.0653227
0.0698641
0.0742521
0.0784572
0.0824681
0.086278
0.0898927
0.0932941
0.0964932
0.099494
0.102322
0.104942
0.107383
0.109653
0.111758
0.113704
0.115544
0.117177
0.118649
0.119943
0.121026
0.121832
0.12225
0.122079
0.12097
0.118391
0.113994
0.108087
0.101075
0.0932533
0.0851393
0.0768996
0.0687245
0.0607532
0.0527484
0.0454975
0.0387052
0.032425
0.0266974
0.0215508
0.0167703
0.0128412
0.00937852
0.00659546
0.00445704
0.00289492
0.001812
0.00109777
0.000646912
0.000372531
0.000210429
0.000116936
6.4069e-05
3.46718e-05
1.85593e-05
9.83874e-06
5.1711e-06
2.69711e-06
1.39704e-06
7.1915e-07
3.67841e-07
1.86576e-07
9.33061e-08
4.54799e-08
2.10241e-08
8.53644e-09
1.96923e-09
9.01279e-07
3.49211e-06
7.44481e-06
1.3686e-05
2.35287e-05
3.89885e-05
6.31476e-05
0.00010067
0.000158532
0.000244071
0.000368953
0.000550059
0.000810101
0.00117843
0.00169154
0.00239283
0.00333092
0.00455648
0.00611785
0.0080553
0.0103972
0.0131492
0.0163077
0.0198513
0.0237382
0.0278124
0.0321311
0.0367281
0.0413844
0.0461781
0.0510292
0.0558147
0.0605895
0.0652493
0.0697975
0.0741947
0.0784141
0.082435
0.0862548
0.0898822
0.0932925
0.0965002
0.0995088
0.102343
0.10497
0.107416
0.10969
0.111798
0.113747
0.115587
0.117219
0.118689
0.119978
0.12105
0.121838
0.122223
0.121995
0.120785
0.118046
0.113497
0.107454
0.100334
0.0925013
0.0843439
0.0760869
0.0679144
0.0599613
0.0520084
0.0447971
0.0380528
0.0318249
0.0261485
0.0210513
0.0163329
0.0124742
0.0090852
0.00637146
0.00429412
0.00278234
0.00173802
0.00105133
0.0006189
0.000356183
0.000201142
0.000111775
6.12531e-05
3.31593e-05
1.77574e-05
9.41818e-06
4.95237e-06
2.58385e-06
1.33854e-06
6.89099e-07
3.52489e-07
1.78812e-07
8.9476e-08
4.3645e-08
2.01884e-08
8.20058e-09
1.89224e-09
8.97816e-07
3.47868e-06
7.41603e-06
1.36327e-05
2.34365e-05
3.88353e-05
6.29013e-05
0.000100287
0.000157963
0.000243175
0.000367575
0.000547953
0.000806822
0.00117342
0.00168411
0.00238222
0.00331638
0.00453727
0.00609374
0.00802417
0.0103564
0.0131017
0.0162541
0.0197895
0.023673
0.0277435
0.0320596
0.0366529
0.0413094
0.0461031
0.0509583
0.055748
0.0605295
0.0651956
0.069751
0.0741576
0.0783874
0.0824163
0.0862442
0.0898812
0.0932988
0.0965131
0.0995279
0.102367
0.104999
0.107449
0.109726
0.111837
0.113787
0.115626
0.117258
0.118725
0.120009
0.12107
0.121841
0.122197
0.121918
0.120624
0.117714
0.113038
0.106893
0.0996963
0.0918473
0.0836102
0.0753508
0.0671864
0.059247
0.0513714
0.0441903
0.0374853
0.0313037
0.0256791
0.0206364
0.0160031
0.0121904
0.00885203
0.00618869
0.00415758
0.00268592
0.00167375
0.00101069
0.000594286
0.000341782
0.000192945
0.000107211
5.8759e-05
3.1817e-05
1.70443e-05
9.04385e-06
4.75848e-06
2.48539e-06
1.28956e-06
6.64829e-07
3.40395e-07
1.72672e-07
8.63676e-08
4.21146e-08
1.9477e-08
7.91085e-09
1.82537e-09
8.94781e-07
3.46696e-06
7.39106e-06
1.35867e-05
2.33571e-05
3.87032e-05
6.26856e-05
9.99389e-05
0.000157366
0.000242198
0.000366085
0.000545813
0.000803938
0.00116942
0.00167839
0.00237379
0.00330441
0.00452114
0.00607207
0.00799813
0.0103248
0.0130649
0.016213
0.0197439
0.0236228
0.0276897
0.0320036
0.0365943
0.0412514
0.0460455
0.0509044
0.0556981
0.0604848
0.0651569
0.0697189
0.074133
0.0783715
0.0824075
0.0862422
0.0898871
0.0933106
0.0965303
0.0995499
0.102393
0.105028
0.107482
0.109762
0.111874
0.113825
0.115662
0.117293
0.118758
0.120036
0.121088
0.121842
0.122171
0.121844
0.120467
0.117438
0.112647
0.106406
0.0991382
0.0912397
0.0829972
0.0747184
0.0665482
0.0586219
0.0508222
0.0436669
0.0369922
0.0308471
0.0252582
0.020253
0.015717
0.0119494
0.00865349
0.00603167
0.00404115
0.0026047
0.00162012
0.000976913
0.000573847
0.000329807
0.00018611
0.000103393
5.66648e-05
3.06848e-05
1.64387e-05
8.72107e-06
4.58745e-06
2.39631e-06
1.24409e-06
6.41662e-07
3.28574e-07
1.6676e-07
8.3457e-08
4.07121e-08
1.88331e-08
7.65029e-09
1.76535e-09
8.92213e-07
3.45706e-06
7.36999e-06
1.3548e-05
2.32904e-05
3.85921e-05
6.25048e-05
9.96495e-05
0.000156867
0.00024137
0.000364785
0.000543835
0.000800977
0.00116522
0.00167274
0.00236662
0.00329489
0.00450827
0.00605514
0.00797578
0.0102985
0.013035
0.0161775
0.0197054
0.0235814
0.0276466
0.0319597
0.0365489
0.041207
0.0460018
0.0508642
0.0556617
0.0604534
0.0651302
0.0696969
0.0741173
0.0783632
0.0824051
0.0862453
0.0898964
0.0933247
0.0965488
0.0995726
0.102419
0.105057
0.107514
0.109796
0.11191
0.113861
0.115696
0.117325
0.118786
0.120059
0.121103
0.121843
0.122147
0.121779
0.120331
0.117206
0.112317
0.105993
0.0986614
0.0907178
0.0824718
0.0741778
0.0660067
0.0580877
0.0503546
0.0432134
0.036565
0.0304444
0.0248928
0.0199265
0.0154753
0.0117384
0.0084807
0.00589691
0.00394158
0.00253518
0.00157415
0.00094794
0.000556304
0.000319526
0.000180243
0.000100119
5.48727e-05
2.97222e-05
1.59327e-05
8.46302e-06
4.45731e-06
2.32961e-06
1.20935e-06
6.23681e-07
3.1937e-07
1.62044e-07
8.10793e-08
3.95451e-08
1.82904e-08
7.42892e-09
1.71415e-09
8.9008e-07
3.44883e-06
7.3525e-06
1.35159e-05
2.32352e-05
3.85008e-05
6.23572e-05
9.94152e-05
0.000156458
0.000240688
0.000363715
0.000542221
0.000798599
0.00116179
0.00166787
0.00235983
0.00328609
0.00449726
0.00604138
0.00795872
0.0102778
0.0130103
0.0161506
0.0196757
0.0235499
0.0276136
0.0319261
0.0365144
0.0411735
0.0459691
0.0508345
0.0556352
0.0604307
0.0651118
0.0696835
0.0741092
0.0783608
0.0824073
0.0862519
0.089908
0.0933397
0.0965669
0.0995931
0.10244
0.105081
0.107541
0.109828
0.111944
0.113895
0.115727
0.117354
0.118813
0.12008
0.121116
0.121843
0.122127
0.121723
0.120216
0.11701
0.112039
0.105643
0.0982483
0.0902666
0.0820054
0.0737012
0.0655282
0.0576128
0.0499468
0.0428285
0.0362008
0.0301118
0.0245858
0.019648
0.0152703
0.0115593
0.00833037
0.00577876
0.00385409
0.00247416
0.00153391
0.00092267
0.000541061
0.000310625
0.000175178
9.72965e-05
5.3327e-05
2.88877e-05
1.54876e-05
8.22808e-06
4.33685e-06
2.26859e-06
1.17818e-06
6.07686e-07
3.111e-07
1.57852e-07
7.89841e-08
3.85231e-08
1.7817e-08
7.23623e-09
1.66963e-09
8.88322e-07
3.44205e-06
7.33809e-06
1.34894e-05
2.31898e-05
3.84256e-05
6.22359e-05
9.92235e-05
0.000156123
0.000240131
0.000362844
0.000540913
0.000796684
0.00115904
0.00166401
0.00235452
0.00327902
0.00448766
0.00602946
0.00794498
0.0102617
0.0129917
0.0161294
0.0196525
0.0235253
0.027588
0.0319001
0.0364875
0.0411482
0.0459452
0.0508134
0.0556172
0.0604164
0.065101
0.0696765
0.0741061
0.0783622
0.0824124
0.0862603
0.0899199
0.093354
0.0965828
0.09961
0.102456
0.105095
0.10755
0.109874
0.111983
0.11393
0.115757
0.117381
0.118836
0.120099
0.121128
0.121845
0.122112
0.121679
0.120125
0.116858
0.111833
0.105403
0.0978351
0.0898506
0.0815885
0.0732878
0.0651213
0.0572159
0.0496116
0.0425055
0.0358977
0.0298299
0.0243305
0.0194174
0.0150985
0.0113949
0.00818924
0.00566829
0.00377344
0.00241884
0.00149802
0.000900445
0.000527813
0.000302962
0.000170851
9.48989e-05
5.20188e-05
2.81825e-05
1.51105e-05
8.02691e-06
4.22885e-06
2.21136e-06
1.14851e-06
5.92575e-07
3.0357e-07
1.54108e-07
7.71376e-08
3.76312e-08
1.74069e-08
7.07013e-09
1.63133e-09
8.86893e-07
3.43654e-06
7.32637e-06
1.34679e-05
2.31527e-05
3.8364e-05
6.21358e-05
9.90636e-05
0.00015585
0.000239681
0.000362145
0.000539868
0.000795158
0.00115686
0.00166095
0.00235033
0.00327327
0.00448039
0.00602014
0.00793344
0.0102485
0.0129766
0.0161126
0.0196343
0.0235063
0.0275686
0.031881
0.0364683
0.0411299
0.0459277
0.0507983
0.0556045
0.0604068
0.0650946
0.0696733
0.0741062
0.078366
0.0824191
0.0862697
0.089932
0.0933682
0.0965988
0.0996275
0.102474
0.105115
0.107572
0.109899
0.112008
0.113955
0.11578
0.117403
0.118855
0.120115
0.121138
0.121846
0.122098
0.121641
0.120046
0.116724
0.111642
0.105163
0.0975584
0.0895471
0.0812711
0.0729645
0.0647989
0.0568995
0.0493464
0.042254
0.0356636
0.0296179
0.024146
0.019267
0.0149996
0.0111796
0.00803952
0.00556364
0.00370213
0.00237187
0.00146824
0.000882238
0.000517032
0.000296744
0.000167341
9.29531e-05
5.09566e-05
2.76104e-05
1.48057e-05
7.86589e-06
4.14437e-06
2.16736e-06
1.12575e-06
5.80896e-07
2.97632e-07
1.51118e-07
7.56526e-08
3.69111e-08
1.7075e-08
6.93555e-09
1.60023e-09
8.85779e-07
3.43224e-06
7.31724e-06
1.34511e-05
2.31239e-05
3.83164e-05
6.2059e-05
9.89422e-05
0.000155639
0.000239332
0.000361603
0.000539059
0.00079398
0.00115518
0.00165861
0.00234715
0.003269
0.00447484
0.0060131
0.00792478
0.0102381
0.012965
0.0160999
0.0196208
0.0234923
0.0275544
0.0318669
0.0364543
0.0411171
0.0459159
0.0507883
0.0555966
0.0604012
0.0650915
0.0696727
0.074108
0.0783706
0.0824259
0.0862786
0.089943
0.0933809
0.0966131
0.0996432
0.102491
0.105132
0.107591
0.109917
0.112027
0.113974
0.115797
0.117419
0.11887
0.120127
0.121146
0.121847
0.122087
0.12161
0.11998
0.116614
0.111487
0.104971
0.0973468
0.0893168
0.0810297
0.0727195
0.0645556
0.056662
0.0491342
0.0420524
0.0354758
0.0294454
0.0239896
0.019127
0.0148741
0.0110651
0.00794475
0.00549046
0.00364896
0.00233562
0.00144487
0.000867851
0.000508496
0.000291825
0.000164572
9.14235e-05
5.01245e-05
2.71633e-05
1.45679e-05
7.74047e-06
4.07882e-06
2.13339e-06
1.10828e-06
5.71969e-07
2.93099e-07
1.48835e-07
7.45173e-08
3.63599e-08
1.68209e-08
6.8325e-09
1.57648e-09
8.84971e-07
3.42912e-06
7.31061e-06
1.3439e-05
2.31031e-05
3.8282e-05
6.20036e-05
9.88546e-05
0.000155486
0.000239078
0.000361207
0.000538467
0.000793117
0.00115395
0.00165687
0.00234473
0.0032658
0.00447069
0.006008
0.00791863
0.0102308
0.0129566
0.0160906
0.019611
0.0234823
0.0275443
0.0318573
0.0364448
0.0411085
0.0459081
0.050782
0.0555919
0.0603982
0.0650902
0.0696733
0.0741105
0.0783751
0.082432
0.0862862
0.0899522
0.0933913
0.0966246
0.0996557
0.102504
0.105146
0.107605
0.10993
0.112041
0.113988
0.115809
0.117431
0.11888
0.120135
0.121151
0.121847
0.122078
0.121587
0.119932
0.116531
0.111372
0.10483
0.0971926
0.0891493
0.0808551
0.0725418
0.0643793
0.0564917
0.0489727
0.0419004
0.0353341
0.0293147
0.0238703
0.0190204
0.01478
0.0109841
0.00787942
0.00544036
0.00361257
0.00231063
0.00142859
0.000857726
0.000502433
0.000288304
0.000162577
9.03159e-05
4.95199e-05
2.68383e-05
1.43958e-05
7.65057e-06
4.03219e-06
2.10928e-06
1.09584e-06
5.65584e-07
2.89845e-07
1.47192e-07
7.36991e-08
3.59626e-08
1.66378e-08
6.75825e-09
1.55937e-09
8.84466e-07
3.42718e-06
7.30648e-06
1.34314e-05
2.30901e-05
3.82605e-05
6.1969e-05
9.87999e-05
0.00015539
0.000238917
0.000360956
0.000538092
0.00079257
0.00115316
0.00165578
0.00234323
0.00326382
0.00446812
0.0060048
0.00791475
0.0102263
0.0129514
0.0160849
0.0196049
0.023476
0.0275381
0.0318512
0.0364389
0.0411031
0.0459033
0.0507782
0.0555891
0.0603967
0.0650899
0.0696742
0.0741126
0.0783786
0.0824365
0.0862917
0.0899588
0.0933988
0.0966329
0.0996646
0.102513
0.105155
0.107615
0.109939
0.11205
0.113997
0.115817
0.117438
0.118887
0.120141
0.121155
0.121848
0.122073
0.121572
0.1199
0.116476
0.111297
0.104737
0.0970921
0.0890406
0.0807416
0.0724267
0.064265
0.0563801
0.0488662
0.0418
0.0352406
0.0292289
0.0237925
0.018951
0.0147193
0.0109328
0.00783773
0.00540864
0.00358967
0.00229491
0.0014183
0.000851285
0.000498556
0.000286044
0.000161292
8.96005e-05
4.91283e-05
2.66269e-05
1.42829e-05
7.5908e-06
4.00088e-06
2.09306e-06
1.08753e-06
5.61357e-07
2.87709e-07
1.46121e-07
7.31692e-08
3.57066e-08
1.65202e-08
6.7107e-09
1.54842e-09
8.84247e-07
3.42633e-06
7.30468e-06
1.34281e-05
2.30844e-05
3.8251e-05
6.19535e-05
9.87754e-05
0.000155346
0.000238843
0.000360839
0.000537916
0.000792313
0.0011528
0.00165526
0.00234253
0.00326288
0.0044669
0.00600325
0.00791284
0.010224
0.0129488
0.016082
0.0196019
0.0234729
0.0275351
0.0318483
0.036436
0.0411006
0.0459011
0.0507764
0.0555879
0.0603961
0.0650899
0.0696748
0.0741138
0.0783804
0.082439
0.0862947
0.0899623
0.0934026
0.0966371
0.0996691
0.102517
0.10516
0.10762
0.109944
0.112054
0.114001
0.115821
0.117442
0.118891
0.120144
0.121157
0.121848
0.122071
0.121564
0.119884
0.116449
0.111259
0.104692
0.0970424
0.088987
0.0806858
0.0723702
0.064209
0.0563255
0.0488137
0.0417505
0.0351947
0.0291868
0.0237546
0.0189174
0.0146902
0.0109085
0.00781814
0.00539365
0.00357889
0.00228754
0.00141347
0.000848262
0.000496735
0.000284981
0.000160688
8.92634e-05
4.89434e-05
2.65269e-05
1.42294e-05
7.56252e-06
3.98608e-06
2.08539e-06
1.08359e-06
5.59354e-07
2.867e-07
1.45618e-07
7.29217e-08
3.55878e-08
1.6466e-08
6.68892e-09
1.54342e-09
8.84304e-07
3.42655e-06
7.30513e-06
1.34289e-05
2.30857e-05
3.8253e-05
6.19565e-05
9.87796e-05
0.000155352
0.00023885
0.000360849
0.000537928
0.000792327
0.00115281
0.00165528
0.00234255
0.0032629
0.00446692
0.00600327
0.00791286
0.010224
0.0129489
0.0160821
0.0196019
0.0234729
0.0275351
0.0318483
0.036436
0.0411006
0.0459011
0.0507764
0.055588
0.0603961
0.0650899
0.0696748
0.0741138
0.0783805
0.082439
0.0862947
0.0899623
0.0934027
0.0966372
0.0996692
0.102517
0.10516
0.10762
0.109944
0.112055
0.114001
0.115822
0.117443
0.118891
0.120144
0.121157
0.121848
0.122071
0.121565
0.119885
0.11645
0.111259
0.104692
0.0970426
0.0889872
0.0806861
0.0723705
0.0642093
0.0563257
0.0488139
0.0417507
0.0351949
0.029187
0.0237547
0.0189175
0.0146903
0.0109086
0.00781822
0.00539371
0.00357894
0.00228757
0.00141349
0.000848272
0.000496741
0.000284985
0.00016069
8.92646e-05
4.89441e-05
2.65274e-05
1.42298e-05
7.56277e-06
3.98626e-06
2.08553e-06
1.08369e-06
5.59423e-07
2.86746e-07
1.45648e-07
7.29402e-08
3.55985e-08
1.64717e-08
6.69143e-09
1.54403e-09
8.84628e-07
3.42779e-06
7.30776e-06
1.34336e-05
2.30937e-05
3.82661e-05
6.19772e-05
9.88117e-05
0.000155406
0.000238938
0.000360982
0.000538124
0.000792608
0.00115321
0.00165583
0.00234328
0.00326387
0.00446818
0.00600485
0.0079148
0.0102263
0.0129515
0.0160849
0.0196049
0.023476
0.0275381
0.0318513
0.0364389
0.0411031
0.0459033
0.0507782
0.0555892
0.0603967
0.06509
0.0696743
0.0741127
0.0783787
0.0824367
0.0862919
0.0899591
0.093399
0.0966332
0.0996649
0.102513
0.105156
0.107615
0.10994
0.11205
0.113997
0.115818
0.117439
0.118888
0.120142
0.121156
0.121848
0.122074
0.121572
0.119901
0.116477
0.111297
0.104738
0.0970928
0.0890413
0.0807424
0.0724275
0.0642658
0.0563809
0.0488669
0.0418007
0.0352412
0.0292294
0.023793
0.0189514
0.0147197
0.0109331
0.00783796
0.00540881
0.00358979
0.00229499
0.00141835
0.000851315
0.000498573
0.000286054
0.000161298
8.96039e-05
4.91304e-05
2.66283e-05
1.42838e-05
7.59147e-06
4.00137e-06
2.09341e-06
1.08778e-06
5.61527e-07
2.87823e-07
1.46195e-07
7.32146e-08
3.57328e-08
1.6534e-08
6.71685e-09
1.54991e-09
8.85213e-07
3.43005e-06
7.31252e-06
1.34423e-05
2.31084e-05
3.82902e-05
6.20156e-05
9.88718e-05
0.00015551
0.000239108
0.000361245
0.000538514
0.000793174
0.00115401
0.00165694
0.00234481
0.00326589
0.00447077
0.00600808
0.0079187
0.0102309
0.0129567
0.0160907
0.0196111
0.0234823
0.0275444
0.0318573
0.0364448
0.0411085
0.0459081
0.050782
0.0555919
0.0603983
0.0650903
0.0696734
0.0741106
0.0783752
0.0824322
0.0862864
0.0899525
0.0933917
0.0966251
0.0996563
0.102504
0.105147
0.107606
0.109931
0.112041
0.113989
0.11581
0.117432
0.118881
0.120136
0.121152
0.121848
0.12208
0.121588
0.119933
0.116533
0.111374
0.104831
0.0971938
0.0891505
0.0808563
0.072543
0.0643805
0.0564929
0.0489739
0.0419016
0.0353351
0.0293157
0.0238711
0.0190212
0.0147807
0.0109846
0.00787988
0.0054407
0.00361281
0.00231079
0.00142869
0.000857783
0.000502465
0.000288322
0.000162587
9.03218e-05
4.95234e-05
2.68405e-05
1.43972e-05
7.65157e-06
4.03289e-06
2.10977e-06
1.09618e-06
5.65814e-07
2.89995e-07
1.47287e-07
7.37565e-08
3.59954e-08
1.66549e-08
6.76579e-09
1.56118e-09
8.86071e-07
3.43335e-06
7.31953e-06
1.34551e-05
2.31304e-05
3.83263e-05
6.20735e-05
9.89628e-05
0.000155667
0.000239369
0.000361649
0.000539116
0.00079405
0.00115526
0.0016587
0.00234725
0.0032691
0.00447495
0.00601321
0.00792489
0.0102382
0.0129651
0.0161
0.0196209
0.0234923
0.0275545
0.031867
0.0364544
0.0411172
0.045916
0.0507884
0.0555967
0.0604013
0.0650915
0.0696727
0.0741081
0.0783707
0.082426
0.0862788
0.0899433
0.0933812
0.0966135
0.0996437
0.102491
0.105133
0.107591
0.109918
0.112028
0.113975
0.115798
0.11742
0.118871
0.120128
0.121147
0.121848
0.122088
0.121612
0.119982
0.116615
0.111489
0.104972
0.0973484
0.0893184
0.0810313
0.0727212
0.0645572
0.0566636
0.0491357
0.0420538
0.0354771
0.0294466
0.0239906
0.019128
0.014875
0.0110658
0.00794535
0.00549091
0.00364927
0.00233582
0.00144499
0.000867925
0.000508538
0.000291849
0.000164585
9.14311e-05
5.01289e-05
2.71659e-05
1.45695e-05
7.74154e-06
4.07953e-06
2.13387e-06
1.1086e-06
5.72185e-07
2.9324e-07
1.48924e-07
7.45708e-08
3.63904e-08
1.68368e-08
6.8395e-09
1.57816e-09
8.87208e-07
3.43773e-06
7.32883e-06
1.34722e-05
2.31596e-05
3.83746e-05
6.21513e-05
9.90856e-05
0.00015588
0.00023972
0.000362194
0.000539928
0.000795231
0.00115694
0.00166105
0.00235044
0.00327338
0.0044805
0.00602026
0.00793356
0.0102486
0.0129767
0.0161127
0.0196344
0.0235064
0.0275688
0.0318812
0.0364684
0.0411301
0.0459279
0.0507984
0.0556046
0.0604069
0.0650947
0.0696734
0.0741063
0.0783661
0.0824192
0.0862698
0.0899322
0.0933685
0.0965992
0.099628
0.102475
0.105115
0.107573
0.1099
0.112009
0.113956
0.115781
0.117404
0.118857
0.120117
0.12114
0.121848
0.1221
0.121643
0.120047
0.116725
0.111644
0.105165
0.0975603
0.0895491
0.0812732
0.0729666
0.0648011
0.0569017
0.0493483
0.0422559
0.0356653
0.0296196
0.0241477
0.0192684
0.0150008
0.0111805
0.00804025
0.00556417
0.0037025
0.00237211
0.00146838
0.000882324
0.000517081
0.000296771
0.000167356
9.29617e-05
5.09615e-05
2.76133e-05
1.48074e-05
7.86694e-06
4.14503e-06
2.16778e-06
1.12602e-06
5.81073e-07
2.97745e-07
1.51189e-07
7.56954e-08
3.69354e-08
1.70877e-08
6.94114e-09
1.60158e-09
8.88642e-07
3.44327e-06
7.3406e-06
1.34938e-05
2.31968e-05
3.84363e-05
6.22514e-05
9.92454e-05
0.000156153
0.000240169
0.000362892
0.000540973
0.000796755
0.00115913
0.0016641
0.00235462
0.00327913
0.00448778
0.00602959
0.00794512
0.0102618
0.0129919
0.0161295
0.0196526
0.0235254
0.0275881
0.0319002
0.0364876
0.0411482
0.0459451
0.0508134
0.0556173
0.0604165
0.065101
0.0696765
0.0741061
0.0783623
0.0824125
0.0862605
0.0899201
0.0933543
0.0965832
0.0996105
0.102457
0.105096
0.10755
0.109875
0.111984
0.113931
0.115758
0.117383
0.118838
0.120101
0.12113
0.121847
0.122114
0.121681
0.120127
0.11686
0.111835
0.105405
0.0978372
0.0898528
0.0815908
0.0732902
0.0651237
0.0572183
0.0496137
0.0425075
0.0358996
0.0298317
0.0243322
0.019419
0.0150997
0.0113959
0.00819003
0.0056689
0.00377387
0.00241913
0.0014982
0.000900555
0.000527877
0.000302998
0.000170871
9.49097e-05
5.20246e-05
2.81856e-05
1.5112e-05
8.0276e-06
4.22912e-06
2.21152e-06
1.14862e-06
5.92653e-07
3.03628e-07
1.5415e-07
7.71654e-08
3.76478e-08
1.74157e-08
7.07401e-09
1.63227e-09
8.90387e-07
3.45e-06
7.3549e-06
1.352e-05
2.32419e-05
3.85109e-05
6.23719e-05
9.94358e-05
0.000156486
0.000240725
0.000363761
0.000542277
0.000798667
0.00116187
0.00166797
0.00235993
0.0032862
0.00449739
0.00604152
0.00795887
0.0102779
0.0130105
0.0161508
0.019676
0.0235501
0.0276138
0.0319262
0.0365145
0.0411736
0.0459692
0.0508346
0.0556353
0.060431
0.0651119
0.0696836
0.0741093
0.0783609
0.0824074
0.086252
0.0899082
0.0933401
0.0965674
0.0995937
0.102441
0.105082
0.107542
0.10983
0.111945
0.113897
0.115729
0.117356
0.118815
0.120082
0.121118
0.121846
0.122129
0.121725
0.120218
0.117012
0.112041
0.105645
0.0982506
0.090269
0.0820079
0.0737037
0.0655308
0.0576154
0.049949
0.0428306
0.0362029
0.0301137
0.0245876
0.0196497
0.0152715
0.0115604
0.00833123
0.00577942
0.00385456
0.00247448
0.00153412
0.000922792
0.000541132
0.000310664
0.000175199
9.73075e-05
5.33322e-05
2.88896e-05
1.54872e-05
8.22619e-06
4.33403e-06
2.26725e-06
1.17784e-06
6.07632e-07
3.11117e-07
1.57877e-07
7.90027e-08
3.85342e-08
1.78227e-08
7.23868e-09
1.6702e-09
8.92487e-07
3.45809e-06
7.37212e-06
1.35517e-05
2.32963e-05
3.8601e-05
6.25177e-05
9.96676e-05
0.000156892
0.000241401
0.000364824
0.000543883
0.000801034
0.00116529
0.00167281
0.00236671
0.00329499
0.00450837
0.00605524
0.00797588
0.0102987
0.0130352
0.0161777
0.0197058
0.0235819
0.0276469
0.0319599
0.036549
0.0412071
0.0460019
0.0508642
0.0556617
0.0604533
0.0651302
0.0696969
0.0741174
0.0783633
0.0824053
0.0862456
0.0898968
0.0933251
0.0965494
0.0995733
0.10242
0.105058
0.107515
0.109797
0.111911
0.113862
0.115698
0.117327
0.118788
0.120061
0.121105
0.121845
0.122149
0.121781
0.120333
0.117208
0.112319
0.105995
0.0986639
0.0907205
0.0824744
0.0741805
0.0660094
0.0580904
0.0503569
0.0432156
0.0365671
0.0304465
0.0248947
0.0199282
0.0154765
0.0117395
0.0084816
0.00589761
0.00394209
0.00253552
0.00157437
0.000948071
0.000556379
0.000319567
0.000180265
0.00010013
5.48775e-05
2.97238e-05
1.59325e-05
8.46194e-06
4.45705e-06
2.3298e-06
1.20934e-06
6.2364e-07
3.19312e-07
1.62032e-07
8.108e-08
3.95473e-08
1.82917e-08
7.42939e-09