/*--------------------------------*- C++ -*----------------------------------*\
  =========                 |
  \\      /  F ield         | OpenFOAM: The Open Source CFD Toolbox
   \\    /   O peration     | Website:  https://openfoam.org
    \\  /    A nd           | Version:  10
     \\/     M anipulation  |
\*---------------------------------------------------------------------------*/
FoamFile
{
    format      ascii;
    class       volScalarField;
    location    "1";
    object      H2O2;
}
// * * * * * * * * * * * * * * * * * * * * * * * * * * * * * * * * * * * * * //

dimensions      [0 0 0 0 0 0 0];

internalField   nonuniform List<scalar> 
4000
(
2.9377e-13
1.1382e-12
2.42644e-12
4.46078e-12
7.67069e-12
1.27182e-11
2.06214e-11
3.29325e-11
5.19948e-11
8.03321e-11
1.21914e-10
1.82526e-10
2.70008e-10
3.94539e-10
5.68829e-10
8.07999e-10
1.1288e-09
1.54826e-09
2.08177e-09
2.74102e-09
3.5322e-09
4.45489e-09
5.50198e-09
6.66552e-09
7.92482e-09
9.2333e-09
1.06017e-08
1.20328e-08
1.34653e-08
1.49132e-08
1.63311e-08
1.7707e-08
1.89876e-08
2.00839e-08
2.08537e-08
2.10861e-08
2.05344e-08
1.90182e-08
1.65893e-08
1.36392e-08
1.07504e-08
8.44012e-09
6.80238e-09
5.72534e-09
5.07712e-09
4.73733e-09
4.64697e-09
4.77715e-09
5.13596e-09
5.78545e-09
6.76967e-09
8.20854e-09
1.02624e-08
1.31536e-08
1.72026e-08
2.28932e-08
3.10378e-08
4.32683e-08
6.33697e-08
9.95384e-08
1.43247e-07
1.85152e-07
2.25379e-07
2.69004e-07
3.24612e-07
4.01871e-07
5.15676e-07
6.87277e-07
9.55015e-07
1.33651e-06
1.78867e-06
1.90882e-06
1.74301e-06
1.47871e-06
1.20311e-06
9.46817e-07
7.09078e-07
5.07982e-07
3.46549e-07
2.24744e-07
1.38906e-07
8.23375e-08
4.71769e-08
2.6323e-08
1.43883e-08
7.73854e-09
4.1075e-09
2.15504e-09
1.12246e-09
5.80775e-10
2.98709e-10
1.52795e-10
7.7737e-11
3.9314e-11
1.97271e-11
9.77357e-12
4.72695e-12
2.17131e-12
8.77571e-13
2.01983e-13
2.94036e-13
1.13928e-12
2.42905e-12
4.4667e-12
7.6833e-12
1.27432e-11
2.06674e-11
3.30106e-11
5.21156e-11
8.05243e-11
1.22172e-10
1.82807e-10
2.70203e-10
3.94408e-10
5.67915e-10
8.05489e-10
1.12334e-09
1.53836e-09
2.06602e-09
2.71836e-09
3.50227e-09
4.41849e-09
5.46168e-09
6.61557e-09
7.86908e-09
9.17337e-09
1.05398e-08
1.19751e-08
1.34119e-08
1.48693e-08
1.62977e-08
1.76867e-08
1.89822e-08
2.01006e-08
2.08984e-08
2.11655e-08
2.06523e-08
1.91694e-08
1.67582e-08
1.38008e-08
1.08834e-08
8.54044e-09
6.87682e-09
5.78248e-09
5.12538e-09
4.7814e-09
4.69089e-09
4.82742e-09
5.19681e-09
5.86487e-09
6.875e-09
8.35072e-09
1.04574e-08
1.34198e-08
1.75671e-08
2.3391e-08
3.17237e-08
4.42499e-08
6.4958e-08
1.02188e-07
1.46195e-07
1.88287e-07
2.29018e-07
2.7378e-07
3.31423e-07
4.12044e-07
5.3125e-07
7.10507e-07
9.90775e-07
1.38846e-06
1.82861e-06
1.90999e-06
1.72493e-06
1.45399e-06
1.1752e-06
9.17218e-07
6.82296e-07
4.85344e-07
3.28911e-07
2.12202e-07
1.30788e-07
7.75192e-08
4.45205e-08
2.49437e-08
1.37063e-08
7.41616e-09
3.96386e-09
2.09892e-09
1.09954e-09
5.70962e-10
2.94301e-10
1.50719e-10
7.67097e-11
3.87687e-11
1.9446e-11
9.63086e-12
4.65559e-12
2.13804e-12
8.64111e-13
1.98875e-13
2.94936e-13
1.14289e-12
2.43729e-12
4.48306e-12
7.71356e-12
1.27963e-11
2.07559e-11
3.31499e-11
5.232e-11
8.08205e-11
1.22558e-10
1.83249e-10
2.7062e-10
3.94603e-10
5.67521e-10
8.03874e-10
1.1198e-09
1.53189e-09
2.05534e-09
2.702e-09
3.47874e-09
4.38639e-09
5.42123e-09
6.57131e-09
7.82182e-09
9.12483e-09
1.04934e-08
1.19313e-08
1.33729e-08
1.48397e-08
1.62766e-08
1.7678e-08
1.89907e-08
2.01379e-08
2.09737e-08
2.12891e-08
2.08302e-08
1.93952e-08
1.70096e-08
1.40421e-08
1.10832e-08
8.69112e-09
6.98841e-09
5.86851e-09
5.19476e-09
4.84496e-09
4.7569e-09
4.903e-09
5.2926e-09
5.99109e-09
7.04271e-09
8.5843e-09
1.07779e-08
1.38579e-08
1.81639e-08
2.41965e-08
3.28261e-08
4.58634e-08
6.75886e-08
1.06493e-07
1.50969e-07
1.93363e-07
2.34939e-07
2.81483e-07
3.42172e-07
4.28032e-07
5.55353e-07
7.47369e-07
1.04636e-06
1.46828e-06
1.87504e-06
1.90501e-06
1.69793e-06
1.42326e-06
1.1374e-06
8.84793e-07
6.54102e-07
4.62689e-07
3.12169e-07
2.00846e-07
1.23684e-07
7.33691e-08
4.22221e-08
2.37196e-08
1.30716e-08
7.0919e-09
3.79784e-09
2.0114e-09
1.05516e-09
5.48959e-10
2.83536e-10
1.45506e-10
7.42344e-11
3.76544e-11
1.89261e-11
9.38376e-12
4.53881e-12
2.08471e-12
8.42479e-13
1.93862e-13
2.95287e-13
1.14426e-12
2.44026e-12
4.48857e-12
7.7229e-12
1.28108e-11
2.07758e-11
3.31725e-11
5.23349e-11
8.08151e-11
1.22477e-10
1.82973e-10
2.69916e-10
3.93165e-10
5.64924e-10
7.99615e-10
1.1132e-09
1.52217e-09
2.04174e-09
2.68398e-09
3.45621e-09
4.35992e-09
5.38978e-09
6.53678e-09
7.78647e-09
9.08867e-09
1.0458e-08
1.19002e-08
1.33461e-08
1.48208e-08
1.62684e-08
1.76844e-08
1.90171e-08
2.01923e-08
2.10677e-08
2.14342e-08
2.10318e-08
1.96467e-08
1.72874e-08
1.43089e-08
1.13068e-08
8.86399e-09
7.11736e-09
5.96473e-09
5.27573e-09
4.92134e-09
4.83745e-09
4.99719e-09
5.40869e-09
6.14305e-09
7.24592e-09
8.86171e-09
1.11622e-08
1.43905e-08
1.88846e-08
2.51788e-08
3.41863e-08
4.78514e-08
7.08378e-08
1.11629e-07
1.56563e-07
1.99168e-07
2.42389e-07
2.91076e-07
3.55611e-07
4.48033e-07
5.85459e-07
7.9263e-07
1.11163e-06
1.56212e-06
1.92107e-06
1.89325e-06
1.66286e-06
1.38104e-06
1.09866e-06
8.50196e-07
6.23566e-07
4.3793e-07
2.93664e-07
1.88089e-07
1.15529e-07
6.84838e-08
3.94434e-08
2.22007e-08
1.22659e-08
6.67402e-09
3.58479e-09
1.90417e-09
1.00167e-09
5.22432e-10
2.70416e-10
1.39011e-10
7.09959e-11
3.60112e-11
1.81082e-11
8.98435e-12
4.34903e-12
1.99909e-12
8.08417e-13
1.861e-13
2.95163e-13
1.14378e-12
2.43924e-12
4.48659e-12
7.71905e-12
1.28029e-11
2.07594e-11
3.31374e-11
5.22605e-11
8.06601e-11
1.22181e-10
1.82441e-10
2.69023e-10
3.917e-10
5.62579e-10
7.95974e-10
1.10775e-09
1.51435e-09
2.031e-09
2.66996e-09
3.43885e-09
4.33959e-09
5.36744e-09
6.51179e-09
7.75883e-09
9.05899e-09
1.04272e-08
1.18748e-08
1.33279e-08
1.48123e-08
1.62726e-08
1.77044e-08
1.90584e-08
2.02621e-08
2.1178e-08
2.15896e-08
2.12379e-08
1.98974e-08
1.756e-08
1.45681e-08
1.15232e-08
9.02931e-09
7.24191e-09
6.06231e-09
5.35962e-09
5.00173e-09
4.92245e-09
5.09591e-09
5.53141e-09
6.30592e-09
7.46876e-09
9.17026e-09
1.1591e-08
1.49798e-08
1.9696e-08
2.62884e-08
3.57267e-08
5.01289e-08
7.46116e-08
1.17417e-07
1.6291e-07
2.06103e-07
2.50634e-07
3.0195e-07
3.70907e-07
4.70871e-07
6.20299e-07
8.46587e-07
1.18456e-06
1.6562e-06
1.95147e-06
1.87225e-06
1.62182e-06
1.33804e-06
1.06586e-06
8.09341e-07
5.90739e-07
4.12896e-07
2.75758e-07
1.76137e-07
1.08061e-07
6.4073e-08
3.6951e-08
2.08384e-08
1.15395e-08
6.29376e-09
3.38844e-09
1.80383e-09
9.50794e-10
4.96776e-10
2.57527e-10
1.32548e-10
6.77595e-11
3.43936e-11
1.73037e-11
8.58858e-12
4.15875e-12
1.91208e-12
7.73358e-13
1.78033e-13
2.94577e-13
1.14152e-12
2.43438e-12
4.4775e-12
7.70291e-12
1.27748e-11
2.071e-11
3.30496e-11
5.21078e-11
8.04028e-11
1.2177e-10
1.81816e-10
2.68071e-10
3.90243e-10
5.60376e-10
7.92703e-10
1.10302e-09
1.50765e-09
2.02178e-09
2.65759e-09
3.42269e-09
4.31883e-09
5.3418e-09
6.48382e-09
7.73145e-09
9.03375e-09
1.04063e-08
1.18598e-08
1.332e-08
1.48141e-08
1.62874e-08
1.77347e-08
1.91099e-08
2.03392e-08
2.1289e-08
2.17429e-08
2.14358e-08
2.01334e-08
1.78139e-08
1.48102e-08
1.17246e-08
9.18468e-09
7.36052e-09
6.15662e-09
5.44272e-09
5.0842e-09
5.01309e-09
5.2031e-09
5.66867e-09
6.49013e-09
7.71797e-09
9.50925e-09
1.20521e-08
1.56119e-08
2.05631e-08
2.74825e-08
3.74113e-08
5.26834e-08
7.89289e-08
1.23236e-07
1.68993e-07
2.12495e-07
2.5822e-07
3.12181e-07
3.85958e-07
4.93657e-07
6.5536e-07
8.99534e-07
1.26145e-06
1.7469e-06
1.97086e-06
1.84558e-06
1.58209e-06
1.2964e-06
1.02517e-06
7.74037e-07
5.61834e-07
3.9064e-07
2.59725e-07
1.6535e-07
1.0125e-07
5.99976e-08
3.46151e-08
1.95432e-08
1.08394e-08
5.92271e-09
3.19484e-09
1.70406e-09
8.99882e-10
4.70993e-10
2.44533e-10
1.26003e-10
6.44675e-11
3.27482e-11
1.6488e-11
8.19009e-12
3.96878e-12
1.82582e-12
7.38715e-13
1.70069e-13
2.93581e-13
1.13764e-12
2.42603e-12
4.46188e-12
7.67558e-12
1.27289e-11
2.06357e-11
3.2934e-11
5.19228e-11
8.0096e-11
1.21293e-10
1.81061e-10
2.669e-10
3.88472e-10
5.57758e-10
7.88927e-10
1.09773e-09
1.50045e-09
2.01226e-09
2.64541e-09
3.40821e-09
4.3023e-09
5.32427e-09
6.46559e-09
7.71356e-09
9.01729e-09
1.03926e-08
1.1852e-08
1.33197e-08
1.48233e-08
1.63097e-08
1.7771e-08
1.91722e-08
2.04243e-08
2.1403e-08
2.1892e-08
2.16205e-08
2.03449e-08
1.80368e-08
1.50199e-08
1.19021e-08
9.3231e-09
7.46704e-09
6.24189e-09
5.51917e-09
5.16314e-09
5.09985e-09
5.3064e-09
5.80109e-09
6.66759e-09
7.95914e-09
9.84209e-09
1.25153e-08
1.6255e-08
2.14559e-08
2.87323e-08
3.92192e-08
5.55138e-08
8.38215e-08
1.29023e-07
1.74825e-07
2.18598e-07
2.65416e-07
3.21807e-07
3.99576e-07
5.13536e-07
6.84322e-07
9.52143e-07
1.33429e-06
1.81748e-06
1.97631e-06
1.81532e-06
1.54141e-06
1.25387e-06
9.88298e-07
7.42202e-07
5.35911e-07
3.70815e-07
2.45543e-07
1.55865e-07
9.52862e-08
5.64377e-08
3.25747e-08
1.84094e-08
1.0224e-08
5.59464e-09
3.02243e-09
1.61451e-09
8.53827e-10
4.47528e-10
2.32709e-10
1.20149e-10
6.16029e-11
3.1341e-11
1.57898e-11
7.84481e-12
3.80122e-12
1.74848e-12
7.07342e-13
1.62835e-13
2.92433e-13
1.13318e-12
2.41638e-12
4.44375e-12
7.64343e-12
1.26735e-11
2.05418e-11
3.27758e-11
5.16649e-11
7.96756e-11
1.20574e-10
1.79915e-10
2.6514e-10
3.85846e-10
5.53948e-10
7.83564e-10
1.09044e-09
1.49091e-09
2.0003e-09
2.63116e-09
3.39161e-09
4.28427e-09
5.30634e-09
6.44903e-09
7.69846e-09
9.00419e-09
1.03842e-08
1.18494e-08
1.3326e-08
1.48402e-08
1.63405e-08
1.78166e-08
1.92373e-08
2.05114e-08
2.15166e-08
2.20367e-08
2.17968e-08
2.05519e-08
1.82462e-08
1.51998e-08
1.20668e-08
9.44762e-09
7.56084e-09
6.3211e-09
5.59078e-09
5.23577e-09
5.18016e-09
5.40224e-09
5.92406e-09
6.83436e-09
8.19062e-09
1.01654e-08
1.29673e-08
1.68859e-08
2.23378e-08
2.99801e-08
4.10526e-08
5.84426e-08
8.8947e-08
1.34637e-07
1.80395e-07
2.24447e-07
2.72397e-07
3.31284e-07
4.13494e-07
5.34397e-07
7.16299e-07
1.00169e-06
1.40363e-06
1.87069e-06
1.97324e-06
1.78553e-06
1.50505e-06
1.21803e-06
9.54219e-07
7.13081e-07
5.12509e-07
3.53156e-07
2.33066e-07
1.47615e-07
9.01434e-08
5.3382e-08
3.0825e-08
1.74352e-08
9.69288e-09
5.30989e-09
2.87179e-09
1.53568e-09
8.12953e-10
4.26481e-10
2.21917e-10
1.14616e-10
5.8779e-11
2.99227e-11
1.50967e-11
7.50799e-12
3.63971e-12
1.67446e-12
6.77462e-13
1.55963e-13
2.91382e-13
1.12911e-12
2.40768e-12
4.4276e-12
7.61524e-12
1.26259e-11
2.04627e-11
3.26461e-11
5.14556e-11
7.93064e-11
1.19996e-10
1.79038e-10
2.63843e-10
3.83974e-10
5.51301e-10
7.7991e-10
1.08555e-09
1.48458e-09
1.99246e-09
2.62217e-09
3.38114e-09
4.27334e-09
5.29457e-09
6.43672e-09
7.68818e-09
8.99702e-09
1.03809e-08
1.18506e-08
1.33335e-08
1.48542e-08
1.63813e-08
1.78681e-08
1.93046e-08
2.05976e-08
2.16251e-08
2.21704e-08
2.19572e-08
2.07245e-08
1.84195e-08
1.53553e-08
1.21972e-08
9.55087e-09
7.64499e-09
6.39258e-09
5.6583e-09
5.30555e-09
5.26084e-09
5.50063e-09
6.05012e-09
7.00198e-09
8.41474e-09
1.04731e-08
1.33932e-08
1.74789e-08
2.31643e-08
3.11464e-08
4.27655e-08
6.11869e-08
9.37353e-08
1.39745e-07
1.8541e-07
2.29745e-07
2.78651e-07
3.40006e-07
4.26332e-07
5.53802e-07
7.45673e-07
1.04705e-06
1.4691e-06
1.91192e-06
1.96682e-06
1.75992e-06
1.4772e-06
1.18019e-06
9.22946e-07
6.88045e-07
4.93239e-07
3.39025e-07
2.23254e-07
1.41164e-07
8.61092e-08
5.09627e-08
2.94221e-08
1.66429e-08
9.2548e-09
5.07175e-09
2.74419e-09
1.46816e-09
7.77595e-10
4.08125e-10
2.12447e-10
1.09747e-10
5.62897e-11
2.86598e-11
1.44571e-11
7.19092e-12
3.4874e-12
1.60505e-12
6.49534e-13
1.49555e-13
2.90513e-13
1.12578e-12
2.40065e-12
4.41476e-12
7.59321e-12
1.25891e-11
2.04022e-11
3.25469e-11
5.12907e-11
7.90246e-11
1.19541e-10
1.7833e-10
2.62775e-10
3.8241e-10
5.49086e-10
7.7687e-10
1.0815e-09
1.47935e-09
1.98593e-09
2.61408e-09
3.37252e-09
4.26339e-09
5.28469e-09
6.42859e-09
7.6821e-09
8.99392e-09
1.03821e-08
1.18569e-08
1.33472e-08
1.48768e-08
1.64162e-08
1.79164e-08
1.93684e-08
2.0679e-08
2.17268e-08
2.2295e-08
2.20972e-08
2.08753e-08
1.85686e-08
1.54859e-08
1.23045e-08
9.63648e-09
7.7134e-09
6.45173e-09
5.71477e-09
5.36611e-09
5.33004e-09
5.58568e-09
6.16018e-09
7.14941e-09
8.61814e-09
1.0755e-08
1.37846e-08
1.80173e-08
2.39087e-08
3.21906e-08
4.42952e-08
6.36542e-08
9.80634e-08
1.44345e-07
1.9e-07
2.34712e-07
2.84395e-07
3.47976e-07
4.37982e-07
5.71216e-07
7.71897e-07
1.08585e-06
1.52415e-06
1.9398e-06
1.95737e-06
1.73539e-06
1.44937e-06
1.15351e-06
8.99339e-07
6.68328e-07
4.77587e-07
3.27251e-07
2.14891e-07
1.35556e-07
8.25413e-08
4.87932e-08
2.81503e-08
1.59188e-08
8.85209e-09
4.852e-09
2.6262e-09
1.40565e-09
7.44855e-10
3.91133e-10
2.0368e-10
1.05241e-10
5.39959e-11
2.75014e-11
1.38813e-11
6.90883e-12
3.35219e-12
1.54329e-12
6.24645e-13
1.43841e-13
2.89649e-13
1.12244e-12
2.3935e-12
4.40154e-12
7.57039e-12
1.25513e-11
2.03416e-11
3.24529e-11
5.11514e-11
7.88006e-11
1.19194e-10
1.778e-10
2.61957e-10
3.81181e-10
5.47295e-10
7.74374e-10
1.07819e-09
1.47515e-09
1.98095e-09
2.60811e-09
3.36541e-09
4.25616e-09
5.27801e-09
6.42294e-09
7.6789e-09
8.99391e-09
1.03865e-08
1.18663e-08
1.33637e-08
1.49013e-08
1.64512e-08
1.79629e-08
1.94278e-08
2.07528e-08
2.18161e-08
2.23998e-08
2.22166e-08
2.10029e-08
1.86924e-08
1.5592e-08
1.23898e-08
9.70302e-09
7.76762e-09
6.50009e-09
5.7623e-09
5.41723e-09
5.38988e-09
5.66037e-09
6.25793e-09
7.28172e-09
8.7992e-09
1.10035e-08
1.41255e-08
1.84865e-08
2.45516e-08
3.30807e-08
4.55806e-08
6.56945e-08
1.02103e-07
1.48491e-07
1.94018e-07
2.38996e-07
2.8947e-07
3.55459e-07
4.48803e-07
5.87368e-07
7.96335e-07
1.12052e-06
1.57315e-06
1.96069e-06
1.94717e-06
1.71341e-06
1.42597e-06
1.13342e-06
8.81119e-07
6.52687e-07
4.64847e-07
3.17408e-07
2.07748e-07
1.30699e-07
7.94296e-08
4.68935e-08
2.7034e-08
1.5282e-08
8.4972e-09
4.65804e-09
2.52186e-09
1.35028e-09
7.15818e-10
3.76102e-10
1.96038e-10
1.01439e-10
5.2121e-11
2.65748e-11
1.34155e-11
6.67534e-12
3.23814e-12
1.49056e-12
6.03247e-13
1.38911e-13
2.88898e-13
1.11954e-12
2.38733e-12
4.39017e-12
7.55074e-12
1.25186e-11
2.02882e-11
3.2367e-11
5.10035e-11
7.85554e-11
1.18819e-10
1.77265e-10
2.61244e-10
3.80206e-10
5.45936e-10
7.72428e-10
1.07553e-09
1.47173e-09
1.97662e-09
2.60333e-09
3.36025e-09
4.2511e-09
5.27367e-09
6.41998e-09
7.67813e-09
8.99618e-09
1.03929e-08
1.18775e-08
1.33814e-08
1.49262e-08
1.64854e-08
1.80072e-08
1.94842e-08
2.08212e-08
2.18973e-08
2.24949e-08
2.23232e-08
2.11141e-08
1.87983e-08
1.56837e-08
1.24627e-08
9.75972e-09
7.81373e-09
6.54146e-09
5.8034e-09
5.46222e-09
5.44311e-09
5.72734e-09
6.34572e-09
7.39974e-09
8.96181e-09
1.12283e-08
1.44341e-08
1.89057e-08
2.51219e-08
3.38652e-08
4.67255e-08
6.75624e-08
1.05264e-07
1.51889e-07
1.97461e-07
2.42805e-07
2.94305e-07
3.62054e-07
4.58634e-07
6.0223e-07
8.18622e-07
1.1515e-06
1.61613e-06
1.97671e-06
1.93744e-06
1.69423e-06
1.40471e-06
1.11633e-06
8.65835e-07
6.39471e-07
4.53958e-07
3.0905e-07
2.01753e-07
1.2666e-07
7.68516e-08
4.53206e-08
2.61081e-08
1.47523e-08
8.20099e-09
4.49551e-09
2.43404e-09
1.30338e-09
6.90912e-10
3.62964e-10
1.89185e-10
9.79323e-11
5.0326e-11
2.56644e-11
1.29644e-11
6.45533e-12
3.13303e-12
1.44265e-12
5.83965e-13
1.34482e-13
2.8827e-13
1.11712e-12
2.38218e-12
4.38071e-12
7.53446e-12
1.24916e-11
2.02444e-11
3.22974e-11
5.08813e-11
7.83498e-11
1.18496e-10
1.76777e-10
2.60522e-10
3.792e-10
5.44609e-10
7.70801e-10
1.07346e-09
1.46909e-09
1.9734e-09
2.59948e-09
3.35633e-09
4.24752e-09
5.27069e-09
6.4185e-09
7.67891e-09
8.99989e-09
1.04004e-08
1.18894e-08
1.33992e-08
1.49506e-08
1.65179e-08
1.80487e-08
1.95357e-08
2.08844e-08
2.19742e-08
2.25826e-08
2.24178e-08
2.12099e-08
1.88874e-08
1.57558e-08
1.25193e-08
9.80467e-09
7.85182e-09
6.57736e-09
5.83986e-09
5.50243e-09
5.49064e-09
5.78652e-09
6.42278e-09
7.50329e-09
9.10151e-09
1.1418e-08
1.4693e-08
1.92583e-08
2.56008e-08
3.45258e-08
4.7676e-08
6.91037e-08
1.07837e-07
1.54693e-07
2.00371e-07
2.46108e-07
2.98573e-07
3.67902e-07
4.67351e-07
6.1535e-07
8.38433e-07
1.17881e-06
1.65372e-06
1.98899e-06
1.92811e-06
1.67753e-06
1.38669e-06
1.10198e-06
8.52515e-07
6.28005e-07
4.44629e-07
3.01906e-07
1.96621e-07
1.23195e-07
7.46366e-08
4.39678e-08
2.53112e-08
1.42961e-08
7.94597e-09
4.35571e-09
2.35879e-09
1.26369e-09
6.70591e-10
3.52741e-10
1.83972e-10
9.52391e-11
4.89464e-11
2.49607e-11
1.26059e-11
6.27587e-12
3.04566e-12
1.40233e-12
5.67612e-13
1.30713e-13
2.87759e-13
1.11515e-12
2.378e-12
4.37304e-12
7.5213e-12
1.24698e-11
2.02095e-11
3.22424e-11
5.07827e-11
7.81829e-11
1.18234e-10
1.76384e-10
2.59952e-10
3.78393e-10
5.43494e-10
7.69293e-10
1.07159e-09
1.46689e-09
1.97088e-09
2.59672e-09
3.35352e-09
4.24497e-09
5.26903e-09
6.41821e-09
7.68072e-09
9.00439e-09
1.04084e-08
1.19013e-08
1.34164e-08
1.49736e-08
1.65483e-08
1.80873e-08
1.9584e-08
2.09423e-08
2.20406e-08
2.2657e-08
2.24979e-08
2.12901e-08
1.89598e-08
1.58159e-08
1.25663e-08
9.84171e-09
7.8827e-09
6.60606e-09
5.86924e-09
5.5354e-09
5.5303e-09
5.83692e-09
6.48923e-09
7.59115e-09
9.22008e-09
1.15794e-08
1.4911e-08
1.9552e-08
2.59971e-08
3.50652e-08
4.84559e-08
7.03845e-08
1.09965e-07
1.5702e-07
2.02822e-07
2.48984e-07
3.02318e-07
3.73163e-07
4.75174e-07
6.27161e-07
8.56278e-07
1.2027e-06
1.68487e-06
1.9978e-06
1.91963e-06
1.66308e-06
1.3711e-06
1.08973e-06
8.41146e-07
6.1798e-07
4.36415e-07
2.956e-07
1.92095e-07
1.20146e-07
7.26944e-08
4.27853e-08
2.46167e-08
1.38996e-08
7.72456e-09
4.2343e-09
2.29318e-09
1.22861e-09
6.5194e-10
3.42973e-10
1.79066e-10
9.27628e-11
4.7691e-11
2.43188e-11
1.22834e-11
6.11611e-12
2.96841e-12
1.36685e-12
5.53263e-13
1.2741e-13
2.87347e-13
1.11357e-12
2.37464e-12
4.36688e-12
7.51076e-12
1.24524e-11
2.01816e-11
3.21987e-11
5.0704e-11
7.80494e-11
1.18025e-10
1.76073e-10
2.59503e-10
3.77762e-10
5.42633e-10
7.68154e-10
1.07015e-09
1.46506e-09
1.96881e-09
2.59464e-09
3.35156e-09
4.24341e-09
5.26823e-09
6.41872e-09
7.68315e-09
9.00927e-09
1.04164e-08
1.1913e-08
1.34323e-08
1.49943e-08
1.65749e-08
1.81201e-08
1.96238e-08
2.09902e-08
2.2096e-08
2.27194e-08
2.25641e-08
2.13556e-08
1.90193e-08
1.58636e-08
1.2603e-08
9.87063e-09
7.90788e-09
6.63037e-09
5.89444e-09
5.56345e-09
5.56397e-09
5.87978e-09
6.54529e-09
7.66533e-09
9.3205e-09
1.17144e-08
1.50919e-08
1.97927e-08
2.63142e-08
3.54929e-08
4.90695e-08
7.13835e-08
1.11603e-07
1.58749e-07
2.04515e-07
2.51758e-07
3.05661e-07
3.77756e-07
4.81867e-07
6.37166e-07
8.71248e-07
1.22243e-06
1.71044e-06
2.00382e-06
1.91167e-06
1.6507e-06
1.35796e-06
1.07931e-06
8.30538e-07
6.08449e-07
4.28658e-07
2.89739e-07
1.8796e-07
1.17407e-07
7.09732e-08
4.17494e-08
2.40139e-08
1.35578e-08
7.53476e-09
4.13065e-09
2.23733e-09
1.19885e-09
6.36191e-10
3.3466e-10
1.74642e-10
9.04599e-11
4.65166e-11
2.37346e-11
1.1994e-11
5.97418e-12
2.90031e-12
1.33573e-12
5.40726e-13
1.24528e-13
2.87022e-13
1.11231e-12
2.37198e-12
4.36201e-12
7.50238e-12
1.24386e-11
2.01592e-11
3.21633e-11
5.06414e-11
7.7944e-11
1.1786e-10
1.7583e-10
2.59154e-10
3.77275e-10
5.41971e-10
7.67286e-10
1.06902e-09
1.46374e-09
1.96729e-09
2.59303e-09
3.35013e-09
4.24239e-09
5.26796e-09
6.41964e-09
7.68574e-09
9.01394e-09
1.04237e-08
1.19232e-08
1.34466e-08
1.50131e-08
1.65987e-08
1.81497e-08
1.96593e-08
2.10314e-08
2.21434e-08
2.27722e-08
2.26204e-08
2.14104e-08
1.90669e-08
1.59008e-08
1.2631e-08
9.89287e-09
7.92704e-09
6.64913e-09
5.91426e-09
5.58612e-09
5.5915e-09
5.91452e-09
6.5907e-09
7.72539e-09
9.40165e-09
1.18239e-08
1.52389e-08
1.99896e-08
2.65777e-08
3.58491e-08
4.95852e-08
7.22399e-08
1.1302e-07
1.60313e-07
2.06191e-07
2.53713e-07
3.08246e-07
3.81438e-07
4.87322e-07
6.45346e-07
8.83467e-07
1.23822e-06
1.72998e-06
2.00782e-06
1.90538e-06
1.64166e-06
1.34942e-06
1.07337e-06
8.16214e-07
5.98174e-07
4.21228e-07
2.84513e-07
1.84424e-07
1.15119e-07
6.95546e-08
4.09011e-08
2.35214e-08
1.32786e-08
7.37953e-09
4.04575e-09
2.19157e-09
1.17448e-09
6.23342e-10
3.27941e-10
1.71153e-10
8.86618e-11
4.55972e-11
2.32689e-11
1.17606e-11
5.8588e-12
2.84464e-12
1.3102e-12
5.30412e-13
1.2215e-13
2.86775e-13
1.11136e-12
2.36996e-12
4.35832e-12
7.49607e-12
1.24282e-11
2.01426e-11
3.21372e-11
5.05943e-11
7.78641e-11
1.17736e-10
1.75646e-10
2.58891e-10
3.7691e-10
5.41479e-10
7.66647e-10
1.06822e-09
1.46278e-09
1.96622e-09
2.59194e-09
3.34917e-09
4.2418e-09
5.26804e-09
6.42071e-09
7.6882e-09
9.01814e-09
1.04301e-08
1.1932e-08
1.34583e-08
1.50281e-08
1.66178e-08
1.81731e-08
1.96875e-08
2.10644e-08
2.21814e-08
2.28143e-08
2.26637e-08
2.14513e-08
1.91022e-08
1.5928e-08
1.26511e-08
9.90864e-09
7.94077e-09
6.66292e-09
5.92912e-09
5.60335e-09
5.61266e-09
5.94154e-09
6.62635e-09
7.77278e-09
9.46606e-09
1.19115e-08
1.53574e-08
2.01478e-08
2.67896e-08
3.61371e-08
5.00041e-08
7.29394e-08
1.14165e-07
1.61572e-07
2.0753e-07
2.55228e-07
3.10247e-07
3.84303e-07
4.91553e-07
6.51682e-07
8.92903e-07
1.25114e-06
1.74553e-06
2.01074e-06
1.90014e-06
1.63394e-06
1.3414e-06
1.06563e-06
8.08756e-07
5.91729e-07
4.16057e-07
2.80626e-07
1.81699e-07
1.13325e-07
6.84331e-08
4.02286e-08
2.3131e-08
1.30577e-08
7.257e-09
3.97891e-09
2.1556e-09
1.15534e-09
6.13253e-10
3.22675e-10
1.68429e-10
8.72646e-11
4.48857e-11
2.29091e-11
1.15801e-11
5.76945e-12
2.80145e-12
1.29036e-12
5.2239e-13
1.20304e-13
2.86598e-13
1.11069e-12
2.36853e-12
4.35569e-12
7.49157e-12
1.24208e-11
2.01308e-11
3.21188e-11
5.05606e-11
7.78065e-11
1.17646e-10
1.75513e-10
2.587e-10
3.76644e-10
5.41119e-10
7.66171e-10
1.06763e-09
1.46209e-09
1.96549e-09
2.59123e-09
3.34859e-09
4.24152e-09
5.26828e-09
6.42173e-09
7.69029e-09
9.02153e-09
1.04351e-08
1.19388e-08
1.34673e-08
1.50396e-08
1.66322e-08
1.81908e-08
1.97086e-08
2.10892e-08
2.22097e-08
2.28453e-08
2.26956e-08
2.14816e-08
1.91277e-08
1.59471e-08
1.26651e-08
9.91958e-09
7.95043e-09
6.67268e-09
5.93975e-09
5.61582e-09
5.62818e-09
5.96152e-09
6.6528e-09
7.80802e-09
9.51411e-09
1.19769e-08
1.54459e-08
2.02668e-08
2.6948e-08
3.63519e-08
5.0316e-08
7.34579e-08
1.15014e-07
1.625e-07
2.08509e-07
2.56331e-07
3.11713e-07
3.864e-07
4.94666e-07
6.56339e-07
8.99806e-07
1.26111e-06
1.75712e-06
2.01272e-06
1.8961e-06
1.62807e-06
1.33533e-06
1.05988e-06
8.03525e-07
5.87319e-07
4.12536e-07
2.77976e-07
1.79826e-07
1.12078e-07
6.76451e-08
3.97515e-08
2.28517e-08
1.28985e-08
7.16825e-09
3.93031e-09
2.1294e-09
1.14143e-09
6.05973e-10
3.18897e-10
1.66478e-10
8.62609e-11
4.43721e-11
2.26483e-11
1.14489e-11
5.70437e-12
2.76995e-12
1.27588e-12
5.1653e-13
1.18955e-13
2.86487e-13
1.11026e-12
2.36762e-12
4.35403e-12
7.48874e-12
1.24162e-11
2.01233e-11
3.21072e-11
5.05393e-11
7.77699e-11
1.17589e-10
1.75428e-10
2.58579e-10
3.76477e-10
5.40895e-10
7.65881e-10
1.06728e-09
1.46168e-09
1.96504e-09
2.59081e-09
3.34827e-09
4.24142e-09
5.26853e-09
6.42252e-09
7.69179e-09
9.02392e-09
1.04386e-08
1.19435e-08
1.34736e-08
1.50476e-08
1.66422e-08
1.82027e-08
1.97229e-08
2.11059e-08
2.22286e-08
2.28657e-08
2.27165e-08
2.15012e-08
1.91442e-08
1.59595e-08
1.26741e-08
9.92657e-09
7.9566e-09
6.67906e-09
5.94677e-09
5.62405e-09
5.63838e-09
5.97466e-09
6.67024e-09
7.83125e-09
9.54577e-09
1.20199e-08
1.5504e-08
2.03444e-08
2.70516e-08
3.64917e-08
5.05183e-08
7.37949e-08
1.15584e-07
1.63115e-07
2.09151e-07
2.57052e-07
3.12668e-07
3.87772e-07
4.96704e-07
6.59403e-07
9.04394e-07
1.26776e-06
1.76475e-06
2.014e-06
1.89345e-06
1.62425e-06
1.33139e-06
1.05617e-06
8.00225e-07
5.8451e-07
4.10309e-07
2.76311e-07
1.78649e-07
1.1129e-07
6.71443e-08
3.94468e-08
2.26727e-08
1.27962e-08
7.11105e-09
3.8989e-09
2.11241e-09
1.13235e-09
6.01165e-10
3.16379e-10
1.65174e-10
8.55925e-11
4.40322e-11
2.24766e-11
1.13629e-11
5.66178e-12
2.74936e-12
1.26642e-12
5.12703e-13
1.18073e-13
2.86433e-13
1.11005e-12
2.36718e-12
4.35323e-12
7.48738e-12
1.24139e-11
2.01198e-11
3.21017e-11
5.05291e-11
7.77524e-11
1.17561e-10
1.75388e-10
2.58522e-10
3.76398e-10
5.40789e-10
7.65746e-10
1.06711e-09
1.46148e-09
1.96484e-09
2.59062e-09
3.34813e-09
4.24139e-09
5.26869e-09
6.42295e-09
7.6926e-09
9.02517e-09
1.04404e-08
1.19459e-08
1.34768e-08
1.50515e-08
1.66472e-08
1.82088e-08
1.97301e-08
2.11143e-08
2.2238e-08
2.28759e-08
2.27269e-08
2.15109e-08
1.91523e-08
1.59655e-08
1.26784e-08
9.92987e-09
7.95955e-09
6.68214e-09
5.95019e-09
5.62812e-09
5.64345e-09
5.98119e-09
6.67888e-09
7.84276e-09
9.56145e-09
1.20413e-08
1.55328e-08
2.03828e-08
2.71025e-08
3.65605e-08
5.0618e-08
7.3961e-08
1.15864e-07
1.63417e-07
2.09467e-07
2.57408e-07
3.13139e-07
3.88449e-07
4.97709e-07
6.60916e-07
9.06661e-07
1.27106e-06
1.7685e-06
2.01461e-06
1.89215e-06
1.62239e-06
1.32948e-06
1.0544e-06
7.98657e-07
5.83188e-07
4.09257e-07
2.75527e-07
1.78097e-07
1.1092e-07
6.69094e-08
3.93038e-08
2.25887e-08
1.27481e-08
7.08415e-09
3.88411e-09
2.10439e-09
1.12805e-09
5.98891e-10
3.15186e-10
1.64555e-10
8.52733e-11
4.38691e-11
2.23938e-11
1.13213e-11
5.64112e-12
2.73935e-12
1.26181e-12
5.10835e-13
1.17643e-13
2.86434e-13
1.11005e-12
2.36718e-12
4.35324e-12
7.4874e-12
1.2414e-11
2.01199e-11
3.21018e-11
5.05293e-11
7.77525e-11
1.17561e-10
1.75388e-10
2.58522e-10
3.76398e-10
5.40789e-10
7.65746e-10
1.06711e-09
1.46149e-09
1.96484e-09
2.59062e-09
3.34814e-09
4.2414e-09
5.2687e-09
6.42296e-09
7.6926e-09
9.02518e-09
1.04404e-08
1.19459e-08
1.34768e-08
1.50516e-08
1.66472e-08
1.82088e-08
1.97301e-08
2.11143e-08
2.22381e-08
2.2876e-08
2.2727e-08
2.1511e-08
1.91524e-08
1.59656e-08
1.26784e-08
9.92989e-09
7.95956e-09
6.68215e-09
5.95021e-09
5.62813e-09
5.64346e-09
5.9812e-09
6.67889e-09
7.84276e-09
9.56145e-09
1.20412e-08
1.55327e-08
2.03828e-08
2.71024e-08
3.65604e-08
5.06178e-08
7.39609e-08
1.15864e-07
1.63417e-07
2.09466e-07
2.57407e-07
3.13138e-07
3.88446e-07
4.97705e-07
6.6091e-07
9.06654e-07
1.27105e-06
1.76848e-06
2.0146e-06
1.89215e-06
1.62239e-06
1.32949e-06
1.0544e-06
7.98662e-07
5.83192e-07
4.0926e-07
2.75529e-07
1.78099e-07
1.10922e-07
6.69102e-08
3.93043e-08
2.25889e-08
1.27483e-08
7.08423e-09
3.88415e-09
2.10442e-09
1.12807e-09
5.98898e-10
3.1519e-10
1.64556e-10
8.52743e-11
4.38696e-11
2.2394e-11
1.13214e-11
5.64117e-12
2.73937e-12
1.26182e-12
5.10839e-13
1.17644e-13
2.86489e-13
1.11026e-12
2.36763e-12
4.35406e-12
7.4888e-12
1.24163e-11
2.01235e-11
3.21075e-11
5.05397e-11
7.77703e-11
1.17589e-10
1.75429e-10
2.5858e-10
3.76478e-10
5.40896e-10
7.65883e-10
1.06728e-09
1.46168e-09
1.96505e-09
2.59082e-09
3.34828e-09
4.24143e-09
5.26854e-09
6.42253e-09
7.69181e-09
9.02394e-09
1.04386e-08
1.19435e-08
1.34736e-08
1.50476e-08
1.66423e-08
1.82029e-08
1.9723e-08
2.11061e-08
2.22288e-08
2.2866e-08
2.27168e-08
2.15015e-08
1.91445e-08
1.59597e-08
1.26742e-08
9.92663e-09
7.95664e-09
6.67911e-09
5.94682e-09
5.62411e-09
5.63844e-09
5.97471e-09
6.67027e-09
7.83126e-09
9.54575e-09
1.20199e-08
1.55039e-08
2.03442e-08
2.70511e-08
3.64911e-08
5.05174e-08
7.37936e-08
1.15582e-07
1.63113e-07
2.09148e-07
2.57048e-07
3.12661e-07
3.87761e-07
4.96687e-07
6.59377e-07
9.0435e-07
1.26771e-06
1.76469e-06
2.01398e-06
1.89346e-06
1.62426e-06
1.3314e-06
1.05619e-06
8.00238e-07
5.84521e-07
4.10319e-07
2.76318e-07
1.78654e-07
1.11293e-07
6.71465e-08
3.94481e-08
2.26735e-08
1.27966e-08
7.11129e-09
3.89904e-09
2.11248e-09
1.13239e-09
6.01186e-10
3.1639e-10
1.6518e-10
8.55951e-11
4.40335e-11
2.24771e-11
1.13632e-11
5.66191e-12
2.74942e-12
1.26645e-12
5.12714e-13
1.18076e-13
2.86601e-13
1.1107e-12
2.36855e-12
4.35573e-12
7.49164e-12
1.24209e-11
2.01309e-11
3.21191e-11
5.0561e-11
7.78069e-11
1.17646e-10
1.75513e-10
2.58701e-10
3.76645e-10
5.41121e-10
7.66174e-10
1.06764e-09
1.46209e-09
1.96549e-09
2.59124e-09
3.3486e-09
4.24153e-09
5.26829e-09
6.42175e-09
7.69031e-09
9.02156e-09
1.04351e-08
1.19388e-08
1.34674e-08
1.50396e-08
1.66323e-08
1.81908e-08
1.97087e-08
2.10893e-08
2.22098e-08
2.28454e-08
2.26958e-08
2.14818e-08
1.9128e-08
1.59474e-08
1.26654e-08
9.91973e-09
7.95053e-09
6.67281e-09
5.93988e-09
5.61591e-09
5.62821e-09
5.96151e-09
6.6528e-09
7.808e-09
9.51405e-09
1.19768e-08
1.54456e-08
2.02663e-08
2.69473e-08
3.63508e-08
5.03146e-08
7.34563e-08
1.15012e-07
1.62497e-07
2.08504e-07
2.56323e-07
3.11702e-07
3.86383e-07
4.94641e-07
6.56302e-07
8.99749e-07
1.26102e-06
1.75701e-06
2.01268e-06
1.89611e-06
1.62809e-06
1.33535e-06
1.0599e-06
8.03549e-07
5.87341e-07
4.12553e-07
2.7799e-07
1.79836e-07
1.12084e-07
6.76491e-08
3.97539e-08
2.28531e-08
1.28993e-08
7.16869e-09
3.93054e-09
2.12953e-09
1.14149e-09
6.0601e-10
3.18916e-10
1.66489e-10
8.62664e-11
4.4375e-11
2.26496e-11
1.14496e-11
5.70467e-12
2.77009e-12
1.27594e-12
5.16552e-13
1.1896e-13
2.86778e-13
1.11138e-12
2.36999e-12
4.35836e-12
7.49615e-12
1.24284e-11
2.01428e-11
3.21376e-11
5.05948e-11
7.78647e-11
1.17737e-10
1.75647e-10
2.58892e-10
3.76912e-10
5.41483e-10
7.66652e-10
1.06822e-09
1.46279e-09
1.96623e-09
2.59195e-09
3.34918e-09
4.24182e-09
5.26806e-09
6.42074e-09
7.68823e-09
9.01816e-09
1.04301e-08
1.1932e-08
1.34583e-08
1.50281e-08
1.66178e-08
1.81732e-08
1.96875e-08
2.10645e-08
2.21814e-08
2.28141e-08
2.26638e-08
2.14514e-08
1.91024e-08
1.59281e-08
1.26513e-08
9.90879e-09
7.94093e-09
6.66301e-09
5.92918e-09
5.60339e-09
5.61271e-09
5.94162e-09
6.6264e-09
7.7728e-09
9.46604e-09
1.19113e-08
1.5357e-08
2.0147e-08
2.6788e-08
3.61355e-08
5.00022e-08
7.29373e-08
1.14161e-07
1.61567e-07
2.07522e-07
2.55217e-07
3.10232e-07
3.84281e-07
4.91521e-07
6.51634e-07
8.92831e-07
1.25103e-06
1.74541e-06
2.01069e-06
1.90014e-06
1.63396e-06
1.34143e-06
1.06567e-06
8.08787e-07
5.91758e-07
4.1608e-07
2.80644e-07
1.81712e-07
1.13333e-07
6.84384e-08
4.02318e-08
2.31329e-08
1.30587e-08
7.25757e-09
3.97922e-09
2.15576e-09
1.15542e-09
6.13295e-10
3.22695e-10
1.68439e-10
8.72691e-11
4.48878e-11
2.29101e-11
1.15806e-11
5.76964e-12
2.80153e-12
1.29039e-12
5.22401e-13
1.20306e-13
2.87025e-13
1.11233e-12
2.37201e-12
4.36206e-12
7.50247e-12
1.24388e-11
2.01595e-11
3.21638e-11
5.0642e-11
7.79448e-11
1.17861e-10
1.75831e-10
2.59156e-10
3.77278e-10
5.41975e-10
7.67292e-10
1.06903e-09
1.46375e-09
1.96731e-09
2.59305e-09
3.35015e-09
4.24241e-09
5.26799e-09
6.41968e-09
7.68578e-09
9.01398e-09
1.04238e-08
1.19233e-08
1.34465e-08
1.5013e-08
1.65988e-08
1.81498e-08
1.96596e-08
2.10318e-08
2.21439e-08
2.27729e-08
2.26209e-08
2.14108e-08
1.90671e-08
1.59009e-08
1.26311e-08
9.89294e-09
7.9271e-09
6.64917e-09
5.91431e-09
5.58617e-09
5.59157e-09
5.91458e-09
6.59079e-09
7.72547e-09
9.40168e-09
1.18238e-08
1.52386e-08
1.99888e-08
2.65763e-08
3.58471e-08
4.95825e-08
7.22366e-08
1.13015e-07
1.60306e-07
2.06181e-07
2.537e-07
3.08227e-07
3.8141e-07
4.8728e-07
6.45282e-07
8.83369e-07