/*--------------------------------*- C++ -*----------------------------------*\
  =========                 |
  \\      /  F ield         | OpenFOAM: The Open Source CFD Toolbox
   \\    /   O peration     | Website:  https://openfoam.org
    \\  /    A nd           | Version:  10
     \\/     M anipulation  |
\*---------------------------------------------------------------------------*/
FoamFile
{
    format      ascii;
    class       volScalarField;
    location    "1";
    object      HCCOH;
}
// * * * * * * * * * * * * * * * * * * * * * * * * * * * * * * * * * * * * * //

dimensions      [0 0 0 0 0 0 0];

internalField   nonuniform List<scalar> 
4000
(
4.27e-11
1.65437e-10
3.52678e-10
6.48361e-10
1.11492e-09
1.84864e-09
2.99763e-09
4.78784e-09
7.56054e-09
1.16839e-08
1.77375e-08
2.65671e-08
3.93205e-08
5.74915e-08
8.29516e-08
1.17938e-07
1.64935e-07
2.26482e-07
3.04902e-07
4.01997e-07
5.18784e-07
6.5532e-07
8.1068e-07
9.84022e-07
1.17227e-06
1.36864e-06
1.57492e-06
1.79186e-06
2.01033e-06
2.23286e-06
2.45338e-06
2.67251e-06
2.88754e-06
3.09616e-06
3.29733e-06
3.4904e-06
3.6751e-06
3.85161e-06
4.02014e-06
4.18187e-06
4.33977e-06
4.49456e-06
4.65239e-06
4.82163e-06
5.0143e-06
5.25413e-06
5.56597e-06
6.00383e-06
6.60842e-06
7.46757e-06
8.58294e-06
9.97581e-06
1.15998e-05
1.33283e-05
1.49323e-05
1.60347e-05
1.60518e-05
1.42125e-05
1.00246e-05
5.50667e-06
3.02995e-06
1.6538e-06
8.91008e-07
4.71917e-07
2.4341e-07
1.24499e-07
6.56193e-08
4.13862e-08
3.43059e-08
2.96186e-08
2.49279e-08
2.07828e-08
1.7136e-08
1.38788e-08
1.09784e-08
8.44655e-09
6.19164e-09
4.34971e-09
2.91859e-09
1.86971e-09
1.14708e-09
6.77813e-10
3.88359e-10
2.17112e-10
1.19035e-10
6.42495e-11
3.42333e-11
1.80358e-11
9.42873e-12
4.89481e-12
2.52523e-12
1.29532e-12
6.60731e-13
3.34955e-13
1.68436e-13
8.36043e-14
4.04953e-14
1.86233e-14
7.53291e-15
1.7345e-15
4.27149e-11
1.655e-10
3.52852e-10
6.48825e-10
1.11604e-09
1.85103e-09
3.00218e-09
4.79557e-09
7.57204e-09
1.17019e-08
1.77589e-08
2.65822e-08
3.93077e-08
5.74064e-08
8.27122e-08
1.17401e-07
1.63856e-07
2.24601e-07
3.0197e-07
3.97818e-07
5.13263e-07
6.48557e-07
8.03071e-07
9.74354e-07
1.16111e-06
1.35621e-06
1.56147e-06
1.77834e-06
1.99673e-06
2.22e-06
2.4417e-06
2.66224e-06
2.87836e-06
3.08847e-06
3.29102e-06
3.48541e-06
3.67138e-06
3.84922e-06
4.01895e-06
4.18183e-06
4.34087e-06
4.49673e-06
4.65558e-06
4.82602e-06
5.01973e-06
5.26041e-06
5.57324e-06
6.01284e-06
6.61997e-06
7.48335e-06
8.60219e-06
1.00006e-05
1.16281e-05
1.33533e-05
1.49409e-05
1.60035e-05
1.59445e-05
1.39881e-05
9.68171e-06
5.32042e-06
2.92469e-06
1.5943e-06
8.5745e-07
4.53099e-07
2.33306e-07
1.19221e-07
6.31228e-08
4.06968e-08
3.40731e-08
2.93057e-08
2.46026e-08
2.04895e-08
1.68575e-08
1.36106e-08
1.07098e-08
8.17942e-09
5.96144e-09
4.1639e-09
2.7799e-09
1.77477e-09
1.08754e-09
6.43399e-10
3.69836e-10
2.07725e-10
1.14516e-10
6.2177e-11
3.33416e-11
1.77008e-11
9.29827e-12
4.84157e-12
2.50219e-12
1.28466e-12
6.55416e-13
3.3205e-13
1.66892e-13
8.27954e-14
4.00798e-14
1.84254e-14
7.45174e-15
1.71556e-15
4.28088e-11
1.65881e-10
3.53736e-10
6.50611e-10
1.11939e-09
1.85694e-09
3.012e-09
4.81077e-09
7.59346e-09
1.17316e-08
1.77938e-08
2.6613e-08
3.93177e-08
5.73549e-08
8.25263e-08
1.16952e-07
1.63026e-07
2.2321e-07
2.99776e-07
3.94532e-07
5.08575e-07
6.4213e-07
7.94864e-07
9.65091e-07
1.15079e-06
1.34508e-06
1.5501e-06
1.76641e-06
1.98466e-06
2.20845e-06
2.43009e-06
2.65081e-06
2.8674e-06
3.07898e-06
3.28314e-06
3.47921e-06
3.6669e-06
3.84657e-06
4.01801e-06
4.18257e-06
4.34331e-06
4.50073e-06
4.66112e-06
4.83326e-06
5.0282e-06
5.2702e-06
5.585e-06
6.02744e-06
6.63943e-06
7.50982e-06
8.63584e-06
1.00444e-05
1.16773e-05
1.33963e-05
1.49549e-05
1.5948e-05
1.57574e-05
1.35923e-05
9.08014e-06
4.99558e-06
2.74317e-06
1.493e-06
8.00638e-07
4.21632e-07
2.16836e-07
1.10762e-07
5.93112e-08
3.96561e-08
3.36545e-08
2.88068e-08
2.41467e-08
2.00661e-08
1.6485e-08
1.32971e-08
1.03592e-08
7.89841e-09
5.72933e-09
3.9853e-09
2.65282e-09
1.69125e-09
1.03654e-09
6.14143e-10
3.53861e-10
1.99319e-10
1.10208e-10
6.00047e-11
3.22464e-11
1.71352e-11
9.0167e-12
4.70417e-12
2.43579e-12
1.25277e-12
6.40321e-13
3.25229e-13
1.63684e-13
8.12539e-14
3.93423e-14
1.80849e-14
7.31253e-15
1.68315e-15
4.28178e-11
1.65915e-10
3.53812e-10
6.50749e-10
1.11958e-09
1.85705e-09
3.01158e-09
4.80856e-09
7.58668e-09
1.17167e-08
1.77591e-08
2.65347e-08
3.91494e-08
5.70433e-08
8.19985e-08
1.16127e-07
1.61775e-07
2.21381e-07
2.97212e-07
3.91101e-07
5.04206e-07
6.36859e-07
7.88371e-07
9.57617e-07
1.14263e-06
1.33612e-06
1.54046e-06
1.75645e-06
1.97404e-06
2.19752e-06
2.41913e-06
2.64015e-06
2.85742e-06
3.07005e-06
3.27598e-06
3.47379e-06
3.66332e-06
3.84495e-06
4.0183e-06
4.18479e-06
4.3475e-06
4.50684e-06
4.66903e-06
4.84294e-06
5.03979e-06
5.28377e-06
5.6014e-06
6.048e-06
6.66589e-06
7.54526e-06
8.68228e-06
1.01022e-05
1.1742e-05
1.34538e-05
1.49745e-05
1.58782e-05
1.55161e-05
1.30823e-05
8.31551e-06
4.58501e-06
2.51837e-06
1.37303e-06
7.28577e-07
3.8293e-07
1.96936e-07
1.00752e-07
5.4931e-08
3.8499e-08
3.31083e-08
2.82099e-08
2.35967e-08
1.95952e-08
1.60606e-08
1.28944e-08
1.00265e-08
7.61321e-09
5.48653e-09
3.79441e-09
2.51387e-09
1.5974e-09
9.77374e-10
5.78984e-10
3.33947e-10
1.88455e-10
1.0445e-10
5.70195e-11
3.0725e-11
1.63698e-11
8.63529e-12
4.51531e-12
2.34257e-12
1.20672e-12
6.17435e-13
3.13683e-13
1.57952e-13
7.84569e-14
3.80127e-14
1.74845e-14
7.0735e-15
1.62864e-15
4.27569e-11
1.65679e-10
3.53306e-10
6.49796e-10
1.11785e-09
1.85393e-09
3.00584e-09
4.79784e-09
7.5664e-09
1.1678e-08
1.76907e-08
2.64196e-08
3.89664e-08
5.67528e-08
8.15434e-08
1.15429e-07
1.60735e-07
2.19882e-07
2.95137e-07
3.88347e-07
5.00716e-07
6.32638e-07
7.83513e-07
9.51828e-07
1.13567e-06
1.32788e-06
1.53077e-06
1.74646e-06
1.96405e-06
2.18761e-06
2.40952e-06
2.63097e-06
2.849e-06
3.06258e-06
3.27007e-06
3.46976e-06
3.66117e-06
3.84474e-06
4.02003e-06
4.18846e-06
4.35318e-06
4.51446e-06
4.67865e-06
4.85481e-06
5.05391e-06
5.30031e-06
5.62122e-06
6.07257e-06
6.69774e-06
7.58837e-06
8.7398e-06
1.01748e-05
1.18244e-05
1.35296e-05
1.50121e-05
1.58195e-05
1.52699e-05
1.25433e-05
7.52502e-06
4.15683e-06
2.28422e-06
1.24271e-06
6.57504e-07
3.44401e-07
1.77093e-07
9.10092e-08
5.09158e-08
3.75606e-08
3.25871e-08
2.766e-08
2.31179e-08
1.91622e-08
1.56443e-08
1.25258e-08
9.77491e-09
7.28967e-09
5.23445e-09
3.60711e-09
2.38271e-09
1.51117e-09
9.23966e-10
5.47552e-10
3.16187e-10
1.78728e-10
9.92473e-11
5.42862e-11
2.93084e-11
1.56433e-11
8.26558e-12
4.32825e-12
2.24829e-12
1.15931e-12
5.93622e-13
3.01752e-13
1.52007e-13
7.55278e-14
3.66031e-14
1.68397e-14
6.81366e-15
1.56884e-15
4.26301e-11
1.6519e-10
3.5226e-10
6.4785e-10
1.11443e-09
1.84803e-09
2.99569e-09
4.78015e-09
7.53634e-09
1.16288e-08
1.76136e-08
2.63037e-08
3.8791e-08
5.64857e-08
8.11395e-08
1.14827e-07
1.59856e-07
2.18623e-07
2.93366e-07
3.85906e-07
4.9741e-07
6.28195e-07
7.77705e-07
9.45016e-07
1.12831e-06
1.32018e-06
1.52301e-06
1.73852e-06
1.95589e-06
2.17944e-06
2.40168e-06
2.62359e-06
2.84256e-06
3.05719e-06
3.26623e-06
3.4675e-06
3.66062e-06
3.846e-06
4.02317e-06
4.19356e-06
4.36023e-06
4.52354e-06
4.68988e-06
4.86851e-06
5.07033e-06
5.31985e-06
5.64559e-06
6.10202e-06
6.73748e-06
7.64304e-06
8.81221e-06
1.02653e-05
1.19274e-05
1.36309e-05
1.50813e-05
1.58013e-05
1.50769e-05
1.20816e-05
6.89068e-06
3.81214e-06
2.09612e-06
1.1406e-06
6.02996e-07
3.1528e-07
1.61767e-07
8.34875e-08
4.80204e-08
3.70368e-08
3.2186e-08
2.72075e-08
2.27152e-08
1.87907e-08
1.53101e-08
1.22133e-08
9.47933e-09
7.03481e-09
5.02665e-09
3.44786e-09
2.26847e-09
1.43442e-09
8.7541e-10
5.18356e-10
2.99338e-10
1.69314e-10
9.41198e-11
5.15491e-11
2.78709e-11
1.48982e-11
7.88342e-12
4.13387e-12
2.14996e-12
1.10961e-12
5.68552e-13
2.89191e-13
1.45765e-13
7.24737e-14
3.51455e-14
1.61774e-14
6.54765e-15
1.50767e-15
4.24399e-11
1.6445e-10
3.50664e-10
6.44873e-10
1.10924e-09
1.83935e-09
2.98171e-09
4.75858e-09
7.50202e-09
1.15727e-08
1.75267e-08
2.61666e-08
3.85786e-08
5.61637e-08
8.06614e-08
1.14132e-07
1.5887e-07
2.17257e-07
2.91521e-07
3.83473e-07
4.94404e-07
6.24573e-07
7.73563e-07
9.40241e-07
1.12291e-06
1.31424e-06
1.5165e-06
1.73177e-06
1.94914e-06
2.17282e-06
2.39532e-06
2.61748e-06
2.83828e-06
3.05373e-06
3.26386e-06
3.46663e-06
3.66132e-06
3.84833e-06
4.02725e-06
4.19949e-06
4.368e-06
4.53331e-06
4.70181e-06
4.88298e-06
5.0881e-06
5.33975e-06
5.67097e-06
6.13269e-06
6.77918e-06
7.70034e-06
8.88836e-06
1.03622e-05
1.20419e-05
1.37505e-05
1.51797e-05
1.58302e-05
1.49619e-05
1.17569e-05
6.53327e-06
3.60705e-06
1.97857e-06
1.07345e-06
5.65789e-07
2.94671e-07
1.50898e-07
7.82855e-08
4.64305e-08
3.68661e-08
3.19633e-08
2.69268e-08
2.24466e-08
1.85223e-08
1.50385e-08
1.19391e-08
9.23613e-09
6.81914e-09
4.84762e-09
3.30929e-09
2.16858e-09
1.36715e-09
8.32765e-10
4.92656e-10
2.84457e-10
1.6096e-10
8.95407e-11
4.9086e-11
2.65659e-11
1.42155e-11
7.53017e-12
3.95296e-12
2.05843e-12
1.06416e-12
5.46257e-13
2.78219e-13
1.40315e-13
6.97758e-14
3.38357e-14
1.55727e-14
6.30232e-15
1.45111e-15
4.2231e-11
1.63638e-10
3.48911e-10
6.41581e-10
1.10341e-09
1.82934e-09
2.96473e-09
4.72996e-09
7.45537e-09
1.14973e-08
1.73982e-08
2.59616e-08
3.82625e-08
5.56894e-08
7.99676e-08
1.13144e-07
1.57507e-07
2.15435e-07
2.89173e-07
3.80569e-07
4.90857e-07
6.20467e-07
7.69103e-07
9.35559e-07
1.11774e-06
1.30842e-06
1.51052e-06
1.72565e-06
1.94296e-06
2.1668e-06
2.39038e-06
2.61322e-06
2.83504e-06
3.05145e-06
3.26267e-06
3.46683e-06
3.66303e-06
3.85171e-06
4.03231e-06
4.20645e-06
4.37563e-06
4.54297e-06
4.71357e-06
4.89731e-06
5.10497e-06
5.36005e-06
5.69614e-06
6.16275e-06
6.82e-06
7.75676e-06
8.96464e-06
1.04601e-05
1.21584e-05
1.38745e-05
1.52872e-05
1.58776e-05
1.48835e-05
1.15068e-05
6.34582e-06
3.4921e-06
1.90843e-06
1.03116e-06
5.41684e-07
2.80993e-07
1.43445e-07
7.47786e-08
4.56227e-08
3.708e-08
3.19571e-08
2.68171e-08
2.22994e-08
1.83502e-08
1.48439e-08
1.17296e-08
9.02257e-09
6.62716e-09
4.68805e-09
3.18618e-09
2.08027e-09
1.30801e-09
7.95436e-10
4.70193e-10
2.71434e-10
1.53622e-10
8.5497e-11
4.68968e-11
2.53979e-11
1.35997e-11
7.20881e-12
3.78657e-12
1.97273e-12
1.02007e-12
5.23719e-13
2.66897e-13
1.34787e-13
6.70949e-14
3.25529e-14
1.49859e-14
6.06579e-15
1.39676e-15
4.2043e-11
1.6291e-10
3.47354e-10
6.38693e-10
1.09837e-09
1.82082e-09
2.95058e-09
4.70675e-09
7.41782e-09
1.14316e-08
1.72958e-08
2.58055e-08
3.80307e-08
5.53518e-08
7.94847e-08
1.12467e-07
1.56583e-07
2.14209e-07
2.87599e-07
3.78683e-07
4.88523e-07
6.17823e-07
7.65914e-07
9.31669e-07
1.11363e-06
1.30423e-06
1.50612e-06
1.72096e-06
1.93826e-06
2.16187e-06
2.38775e-06
2.6107e-06
2.83308e-06
3.05022e-06
3.26233e-06
3.46768e-06
3.66527e-06
3.85483e-06
4.03684e-06
4.2127e-06
4.38338e-06
4.55243e-06
4.72513e-06
4.911e-06
5.12134e-06
5.3798e-06
5.72126e-06
6.19478e-06
6.86279e-06
7.8142e-06
9.03922e-06
1.05536e-05
1.22676e-05
1.39886e-05
1.53826e-05
1.59116e-05
1.4794e-05
1.12567e-05
6.19638e-06
3.40289e-06
1.85486e-06
9.98824e-07
5.24183e-07
2.70904e-07
1.37988e-07
7.22839e-08
4.52956e-08
3.73738e-08
3.20199e-08
2.67825e-08
2.22253e-08
1.82495e-08
1.47362e-08
1.14908e-08
8.82006e-09
6.45903e-09
4.55465e-09
3.08609e-09
2.00955e-09
1.26081e-09
7.65504e-10
4.52001e-10
2.60749e-10
1.47517e-10
8.2086e-11
4.50253e-11
2.43869e-11
1.3061e-11
6.92499e-12
3.63844e-12
1.89595e-12
9.8044e-13
5.03399e-13
2.56568e-13
1.29554e-13
6.45018e-14
3.13087e-14
1.44197e-14
5.83831e-15
1.34462e-15
4.1888e-11
1.62316e-10
3.461e-10
6.36406e-10
1.09445e-09
1.81428e-09
2.93981e-09
4.68901e-09
7.38821e-09
1.13816e-08
1.72151e-08
2.56796e-08
3.7839e-08
5.5068e-08
7.90768e-08
1.11897e-07
1.55804e-07
2.13168e-07
2.86246e-07
3.76918e-07
4.86497e-07
6.15251e-07
7.62993e-07
9.28696e-07
1.11042e-06
1.30084e-06
1.50264e-06
1.71739e-06
1.93486e-06
2.15871e-06
2.38521e-06
2.60866e-06
2.8317e-06
3.04952e-06
3.26242e-06
3.46874e-06
3.66743e-06
3.85802e-06
4.04114e-06
4.21835e-06
4.39032e-06
4.5608e-06
4.7349e-06
4.92247e-06
5.13499e-06
5.39663e-06
5.74229e-06
6.22223e-06
6.89976e-06
7.86385e-06
9.1054e-06
1.06369e-05
1.23638e-05
1.40849e-05
1.54556e-05
1.59201e-05
1.46789e-05
1.0987e-05
6.0418e-06
3.31354e-06
1.80222e-06
9.67125e-07
5.08097e-07
2.61781e-07
1.33142e-07
7.01565e-08
4.50903e-08
3.75921e-08
3.20464e-08
2.67376e-08
2.21436e-08
1.8136e-08
1.45982e-08
1.13385e-08
8.67223e-09
6.32671e-09
4.44468e-09
3.00086e-09
1.94778e-09
1.21874e-09
7.38371e-10
4.35291e-10
2.50838e-10
1.41814e-10
7.88833e-11
4.32629e-11
2.34337e-11
1.25528e-11
6.65732e-12
3.49885e-12
1.82362e-12
9.43116e-13
4.84328e-13
2.46906e-13
1.24736e-13
6.21354e-14
3.01721e-14
1.38999e-14
5.6287e-15
1.29649e-15
4.17336e-11
1.61718e-10
3.4482e-10
6.34039e-10
1.09036e-09
1.8075e-09
2.92893e-09
4.67212e-09
7.36311e-09
1.13417e-08
1.71534e-08
2.55848e-08
3.76912e-08
5.48427e-08
7.87424e-08
1.1142e-07
1.55153e-07
2.12311e-07
2.85178e-07
3.75548e-07
4.84718e-07
6.13203e-07
7.60711e-07
9.26113e-07
1.10775e-06
1.29811e-06
1.49991e-06
1.71463e-06
1.93228e-06
2.15632e-06
2.38325e-06
2.60715e-06
2.83077e-06
3.04919e-06
3.26274e-06
3.46985e-06
3.66946e-06
3.86091e-06
4.04491e-06
4.2231e-06
4.396e-06
4.56747e-06
4.74273e-06
4.9317e-06
5.14612e-06
5.41029e-06
5.75977e-06
6.24552e-06
6.93164e-06
7.90711e-06
9.16265e-06
1.07071e-05
1.2442e-05
1.416e-05
1.55048e-05
1.59059e-05
1.45512e-05
1.07334e-05
5.86178e-06
3.21356e-06
1.7464e-06
9.35624e-07
4.91967e-07
2.52099e-07
1.28223e-07
6.80656e-08
4.48414e-08
3.7687e-08
3.20011e-08
2.66511e-08
2.2036e-08
1.80097e-08
1.44599e-08
1.1217e-08
8.55173e-09
6.21631e-09
4.35096e-09
2.92658e-09
1.89298e-09
1.18102e-09
7.13941e-10
4.20223e-10
2.41897e-10
1.36667e-10
7.59922e-11
4.16717e-11
2.25725e-11
1.20933e-11
6.4153e-12
3.37313e-12
1.75953e-12
9.11176e-13
4.68562e-13
2.39105e-13
1.20809e-13
6.01631e-14
2.92068e-14
1.34529e-14
5.44703e-15
1.25461e-15
4.15984e-11
1.61195e-10
3.43706e-10
6.31984e-10
1.08681e-09
1.80156e-09
2.91921e-09
4.6564e-09
7.33631e-09
1.12977e-08
1.70863e-08
2.54885e-08
3.75614e-08
5.46623e-08
7.84854e-08
1.11042e-07
1.54617e-07
2.11592e-07
2.84216e-07
3.744e-07
4.83337e-07
6.11611e-07
7.58964e-07
9.24208e-07
1.10571e-06
1.29598e-06
1.49778e-06
1.71251e-06
1.93032e-06
2.15453e-06
2.38181e-06
2.6061e-06
2.83019e-06
3.04912e-06
3.26323e-06
3.47098e-06
3.67133e-06
3.86348e-06
4.0482e-06
4.22726e-06
4.40091e-06
4.57313e-06
4.74926e-06
4.93927e-06
5.1552e-06
5.42157e-06
5.77438e-06
6.26524e-06
6.95882e-06
7.94356e-06
9.21095e-06
1.07662e-05
1.25059e-05
1.42155e-05
1.55289e-05
1.586e-05
1.43832e-05
1.04238e-05
5.69924e-06
3.12172e-06
1.69445e-06
9.06341e-07
4.75576e-07
2.43713e-07
1.2391e-07
6.62188e-08
4.45991e-08
3.76854e-08
3.18956e-08
2.65244e-08
2.19002e-08
1.78625e-08
1.43052e-08
1.10991e-08
8.44013e-09
6.11546e-09
4.2656e-09
2.86004e-09
1.84482e-09
1.14835e-09
6.92943e-10
4.07322e-10
2.34251e-10
1.32264e-10
7.35156e-11
4.03058e-11
2.18312e-11
1.16959e-11
6.20354e-12
3.26111e-12
1.70098e-12
8.81185e-13
4.53201e-13
2.31316e-13
1.16951e-13
5.82813e-14
2.83075e-14
1.30428e-14
5.28191e-15
1.21668e-15
4.14838e-11
1.60753e-10
3.42765e-10
6.30251e-10
1.08382e-09
1.79658e-09
2.9111e-09
4.64341e-09
7.3139e-09
1.12605e-08
1.70277e-08
2.53994e-08
3.7428e-08
5.44735e-08
7.82309e-08
1.1072e-07
1.54191e-07
2.11018e-07
2.83465e-07
3.73414e-07
4.82189e-07
6.10322e-07
7.57453e-07
9.22604e-07
1.10403e-06
1.29429e-06
1.49613e-06
1.71087e-06
1.92884e-06
2.15321e-06
2.38078e-06
2.6054e-06
2.82989e-06
3.04923e-06
3.2638e-06
3.47206e-06
3.67296e-06
3.86562e-06
4.05086e-06
4.23043e-06
4.40463e-06
4.57751e-06
4.75442e-06
4.94538e-06
5.16259e-06
5.43081e-06
5.78644e-06
6.28156e-06
6.98137e-06
7.97378e-06
9.2498e-06
1.08124e-05
1.25536e-05
1.42525e-05
1.55332e-05
1.57962e-05
1.42051e-05
1.01204e-05
5.54158e-06
3.03413e-06
1.6455e-06
8.79015e-07
4.60373e-07
2.35951e-07
1.19958e-07
6.45401e-08
4.43014e-08
3.75844e-08
3.17297e-08
2.63595e-08
2.17373e-08
1.77024e-08
1.41491e-08
1.0983e-08
8.33042e-09
6.01954e-09
4.18691e-09
2.79968e-09
1.8015e-09
1.11911e-09
6.74234e-10
3.95866e-10
2.2748e-10
1.28375e-10
7.13338e-11
3.91063e-11
2.11842e-11
1.13542e-11
6.0285e-12
3.17303e-12
1.65605e-12
8.57958e-13
4.41289e-13
2.25231e-13
1.13845e-13
5.67251e-14
2.75492e-14
1.26926e-14
5.13987e-15
1.18394e-15
4.13888e-11
1.60387e-10
3.41986e-10
6.28821e-10
1.08136e-09
1.79251e-09
2.90451e-09
4.63295e-09
7.29557e-09
1.12298e-08
1.69796e-08
2.53267e-08
3.73209e-08
5.43189e-08
7.8012e-08
1.10415e-07
1.53796e-07
2.10525e-07
2.82853e-07
3.72661e-07
4.8128e-07
6.09254e-07
7.56308e-07
9.21367e-07
1.10275e-06
1.29299e-06
1.49486e-06
1.70964e-06
1.92773e-06
2.15224e-06
2.38006e-06
2.60494e-06
2.82974e-06
3.04942e-06
3.26434e-06
3.47297e-06
3.6743e-06
3.86733e-06
4.05294e-06
4.23296e-06
4.40754e-06
4.5808e-06
4.75812e-06
4.9496e-06
5.16775e-06
5.43758e-06
5.79605e-06
6.295e-06
7.00032e-06
7.99878e-06
9.28209e-06
1.08502e-05
1.25909e-05
1.42778e-05
1.55267e-05
1.57261e-05
1.40315e-05
9.83585e-06
5.39274e-06
2.95211e-06
1.60018e-06
8.5346e-07
4.46243e-07
2.28493e-07
1.16188e-07
6.29244e-08
4.3919e-08
3.73952e-08
3.15194e-08
2.61678e-08
2.15646e-08
1.75388e-08
1.39945e-08
1.08695e-08
8.2261e-09
5.92815e-09
4.11271e-09
2.74338e-09
1.76152e-09
1.09239e-09
6.57289e-10
3.85568e-10
2.21431e-10
1.24918e-10
6.94009e-11
3.80451e-11
2.06102e-11
1.10473e-11
5.86545e-12
3.08775e-12
1.61327e-12
8.36371e-13
4.30336e-13
2.19621e-13
1.11022e-13
5.53237e-14
2.68708e-14
1.23807e-14
5.01369e-15
1.15489e-15
4.13112e-11
1.60087e-10
3.4135e-10
6.27654e-10
1.07935e-09
1.78919e-09
2.89915e-09
4.62448e-09
7.28067e-09
1.12049e-08
1.69406e-08
2.5268e-08
3.72349e-08
5.41956e-08
7.78387e-08
1.10177e-07
1.5348e-07
2.10098e-07
2.82324e-07
3.72055e-07
4.80577e-07
6.08452e-07
7.55405e-07
9.20397e-07
1.10175e-06
1.29198e-06
1.49389e-06
1.70868e-06
1.9269e-06
2.15153e-06
2.37955e-06
2.60465e-06
2.8297e-06
3.04963e-06
3.26481e-06
3.47373e-06
3.67536e-06
3.86866e-06
4.05453e-06
4.23481e-06
4.40959e-06
4.58303e-06
4.76055e-06
4.95215e-06
5.17044e-06
5.4403e-06
5.80604e-06
6.30691e-06
7.01631e-06
8.01959e-06
9.30898e-06
1.08809e-05
1.26201e-05
1.42953e-05
1.5515e-05
1.56586e-05
1.38751e-05
9.58997e-06
5.26285e-06
2.88187e-06
1.56503e-06
8.25727e-07
4.31679e-07
2.20998e-07
1.1252e-07
6.13805e-08
4.35108e-08
3.71551e-08
3.12813e-08
2.59637e-08
2.13858e-08
1.73796e-08
1.38497e-08
1.07624e-08
8.12011e-09
5.83505e-09
4.0387e-09
2.68871e-09
1.72368e-09
1.06766e-09
6.41887e-10
3.76345e-10
2.16077e-10
1.21885e-10
6.77165e-11
3.71246e-11
2.01137e-11
1.07823e-11
5.72495e-12
3.01346e-12
1.57369e-12
8.1576e-13
4.19826e-13
2.14393e-13
1.08433e-13
5.40553e-14
2.62626e-14
1.21031e-14
4.90185e-15
1.12919e-15
4.12488e-11
1.59847e-10
3.40838e-10
6.26712e-10
1.07773e-09
1.7865e-09
2.89478e-09
4.61749e-09
7.26864e-09
1.1185e-08
1.69095e-08
2.52215e-08
3.71668e-08
5.40981e-08
7.77019e-08
1.0999e-07
1.53223e-07
2.09774e-07
2.81911e-07
3.71547e-07
4.79998e-07
6.07797e-07
7.54689e-07
9.1964e-07
1.10098e-06
1.29123e-06
1.49317e-06
1.70799e-06
1.9263e-06
2.15102e-06
2.3792e-06
2.60447e-06
2.82972e-06
3.04984e-06
3.26523e-06
3.47435e-06
3.67623e-06
3.86972e-06
4.05575e-06
4.2362e-06
4.41114e-06
4.58476e-06
4.7625e-06
4.95439e-06
5.17327e-06
5.44423e-06
5.81171e-06
6.31514e-06
7.02817e-06
8.03531e-06
9.32933e-06
1.0904e-05
1.26413e-05
1.4306e-05
1.55005e-05
1.55961e-05
1.37368e-05
9.37464e-06
5.14884e-06
2.81887e-06
1.53006e-06
8.06806e-07
4.21264e-07
2.15461e-07
1.09737e-07
6.01942e-08
4.31813e-08
3.69398e-08
3.10717e-08
2.57847e-08
2.12341e-08
1.72518e-08
1.37472e-08
1.06962e-08
7.96977e-09
5.73039e-09
3.96535e-09
2.63857e-09
1.69054e-09
1.04657e-09
6.28959e-10
3.68667e-10
2.11636e-10
1.19373e-10
6.63214e-11
3.63619e-11
1.97025e-11
1.05633e-11
5.60938e-12
2.95297e-12
1.54226e-12
7.99548e-13
4.11534e-13
2.10193e-13
1.06329e-13
5.30156e-14
2.57612e-14
1.18732e-14
4.80905e-15
1.1078e-15
4.12007e-11
1.59661e-10
3.40444e-10
6.2599e-10
1.07649e-09
1.78444e-09
2.89146e-09
4.61224e-09
7.25943e-09
1.11696e-08
1.68855e-08
2.51856e-08
3.71146e-08
5.40235e-08
7.75979e-08
1.09848e-07
1.53033e-07
2.09527e-07
2.81598e-07
3.71165e-07
4.79545e-07
6.07296e-07
7.54148e-07
9.19072e-07
1.10041e-06
1.29066e-06
1.49264e-06
1.70749e-06
1.92588e-06
2.15068e-06
2.37898e-06
2.60438e-06
2.82976e-06
3.05004e-06
3.26558e-06
3.47485e-06
3.67687e-06
3.87048e-06
4.05663e-06
4.23721e-06
4.41226e-06
4.58601e-06
4.76393e-06
4.95605e-06
5.17538e-06
5.4471e-06
5.81558e-06
6.32096e-06
7.03679e-06
8.04682e-06
9.34435e-06
1.09211e-05
1.26566e-05
1.43122e-05
1.54857e-05
1.55416e-05
1.36194e-05
9.19332e-06
5.05233e-06
2.7656e-06
1.50042e-06
7.91211e-07
4.12869e-07
2.11049e-07
1.07549e-07
5.9277e-08
4.29043e-08
3.67424e-08
3.08852e-08
2.56264e-08
2.10985e-08
1.71337e-08
1.36438e-08
1.06047e-08
7.8871e-09
5.66217e-09
3.91272e-09
2.60032e-09
1.66444e-09
1.02973e-09
6.18566e-10
3.62488e-10
2.08069e-10
1.17361e-10
6.5208e-11
3.57555e-11
1.93765e-11
1.03899e-11
5.51804e-12
2.9053e-12
1.5176e-12
7.86903e-13
4.05096e-13
2.06938e-13
1.04697e-13
5.22077e-14
2.53708e-14
1.1694e-14
4.73659e-15
1.09112e-15
4.11659e-11
1.59527e-10
3.40159e-10
6.25467e-10
1.0756e-09
1.78296e-09
2.88906e-09
4.60845e-09
7.25275e-09
1.11584e-08
1.6868e-08
2.51593e-08
3.7076e-08
5.39681e-08
7.75198e-08
1.09739e-07
1.5289e-07
2.09341e-07
2.81371e-07
3.70893e-07
4.79225e-07
6.0693e-07
7.5375e-07
9.18663e-07
1.1e-06
1.29027e-06
1.49228e-06
1.70715e-06
1.9256e-06
2.15045e-06
2.37884e-06
2.60433e-06
2.82982e-06
3.05019e-06
3.26584e-06
3.47521e-06
3.67733e-06
3.87103e-06
4.05726e-06
4.23792e-06
4.41305e-06
4.58688e-06
4.76491e-06
4.95717e-06
5.1768e-06
5.44904e-06
5.8182e-06
6.32499e-06
7.04285e-06
8.05492e-06
9.35495e-06
1.0933e-05
1.2667e-05
1.43158e-05
1.54733e-05
1.5499e-05
1.35294e-05
9.05654e-06
4.9791e-06
2.7251e-06
1.47794e-06
7.79412e-07
4.06522e-07
2.07737e-07
1.05903e-07
5.85743e-08
4.2678e-08
3.65725e-08
3.07309e-08
2.54968e-08
2.09879e-08
1.70376e-08
1.35605e-08
1.05328e-08
7.8262e-09
5.61362e-09
3.87575e-09
2.57359e-09
1.64613e-09
1.01781e-09
6.11155e-10
3.58047e-10
2.05488e-10
1.15897e-10
6.43944e-11
3.5311e-11
1.91374e-11
1.02631e-11
5.45177e-12
2.87095e-12
1.49988e-12
7.77795e-13
4.00438e-13
2.04574e-13
1.03508e-13
5.16183e-14
2.50856e-14
1.15629e-14
4.68354e-15
1.07891e-15
4.11437e-11
1.59442e-10
3.39978e-10
6.25134e-10
1.07502e-09
1.78202e-09
2.88754e-09
4.60604e-09
7.24848e-09
1.11512e-08
1.68567e-08
2.51424e-08
3.70514e-08
5.39329e-08
7.74706e-08
1.09672e-07
1.52801e-07
2.09227e-07
2.81228e-07
3.70721e-07
4.79025e-07
6.06704e-07
7.53504e-07
9.18406e-07
1.09974e-06
1.29002e-06
1.49205e-06
1.70694e-06
1.92543e-06
2.15031e-06
2.37876e-06
2.60431e-06
2.82987e-06
3.05031e-06
3.26601e-06
3.47544e-06
3.67764e-06
3.87139e-06
4.05766e-06
4.23837e-06
4.41355e-06
4.58743e-06
4.76552e-06
4.95786e-06
5.17768e-06
5.45024e-06
5.81982e-06
6.32752e-06
7.0467e-06
8.06009e-06
9.36174e-06
1.09407e-05
1.26735e-05
1.43177e-05
1.54647e-05
1.54705e-05
1.34699e-05
8.96677e-06
4.92967e-06
2.69777e-06
1.46283e-06
7.71493e-07
4.02282e-07
2.05526e-07
1.04812e-07
5.81134e-08
4.25359e-08
3.64572e-08
3.0624e-08
2.54067e-08
2.09115e-08
1.69719e-08
1.3504e-08
1.04847e-08
7.78651e-09
5.58186e-09
3.85186e-09
2.55647e-09
1.63444e-09
1.01019e-09
6.06395e-10
3.55186e-10
2.0382e-10
1.14949e-10
6.38664e-11
3.50219e-11
1.89814e-11
1.01799e-11
5.40777e-12
2.84793e-12
1.48798e-12
7.71698e-13
3.97341e-13
2.0301e-13
1.02725e-13
5.12311e-14
2.48986e-14
1.1477e-14
4.64882e-15
1.07091e-15
4.11329e-11
1.594e-10
3.3989e-10
6.24973e-10
1.07475e-09
1.78156e-09
2.88681e-09
4.60489e-09
7.24643e-09
1.11478e-08
1.68513e-08
2.51343e-08
3.70396e-08
5.39161e-08
7.7447e-08
1.0964e-07
1.52758e-07
2.09172e-07
2.81159e-07
3.70636e-07
4.78926e-07
6.06593e-07
7.53385e-07
9.1828e-07
1.09962e-06
1.2899e-06
1.49194e-06
1.70683e-06
1.92534e-06
2.15025e-06
2.37873e-06
2.60431e-06
2.82989e-06
3.05037e-06
3.2661e-06
3.47556e-06
3.67779e-06
3.87157e-06
4.05786e-06
4.23859e-06
4.41378e-06
4.58769e-06
4.76581e-06
4.95819e-06
5.1781e-06
5.45082e-06
5.82061e-06
6.32876e-06
7.04858e-06
8.06262e-06
9.36507e-06
1.09444e-05
1.26768e-05
1.43187e-05
1.54603e-05
1.54564e-05
1.34404e-05
8.92228e-06
4.90512e-06
2.68417e-06
1.45529e-06
7.67525e-07
4.00158e-07
2.04419e-07
1.04264e-07
5.78783e-08
4.24544e-08
3.63951e-08
3.05687e-08
2.53607e-08
2.08727e-08
1.69388e-08
1.34759e-08
1.04612e-08
7.76729e-09
5.56668e-09
3.84041e-09
2.54833e-09
1.62891e-09
1.00659e-09
6.04147e-10
3.53835e-10
2.03033e-10
1.14501e-10
6.36169e-11
3.48852e-11
1.89074e-11
1.01404e-11
5.38688e-12
2.83699e-12
1.4823e-12
7.68777e-13
3.9585e-13
2.02255e-13
1.02346e-13
5.10428e-14
2.48074e-14
1.1435e-14
4.63183e-15
1.067e-15
4.11332e-11
1.59401e-10
3.39892e-10
6.24977e-10
1.07475e-09
1.78157e-09
2.88683e-09
4.60491e-09
7.24646e-09
1.11478e-08
1.68514e-08
2.51344e-08
3.70397e-08
5.39162e-08
7.74471e-08
1.0964e-07
1.52758e-07
2.09172e-07
2.81159e-07
3.70636e-07
4.78926e-07
6.06593e-07
7.53385e-07
9.18281e-07
1.09962e-06
1.2899e-06
1.49194e-06
1.70684e-06
1.92535e-06
2.15025e-06
2.37873e-06
2.60431e-06
2.8299e-06
3.05037e-06
3.26611e-06
3.47557e-06
3.6778e-06
3.87157e-06
4.05787e-06
4.2386e-06
4.41379e-06
4.5877e-06
4.76582e-06
4.9582e-06
5.17811e-06
5.45084e-06
5.82063e-06
6.32878e-06
7.04861e-06
8.06266e-06
9.36513e-06
1.09445e-05
1.26768e-05
1.43188e-05
1.54604e-05
1.54565e-05
1.34405e-05
8.92229e-06
4.90513e-06
2.68418e-06
1.45529e-06
7.67528e-07
4.00159e-07
2.04419e-07
1.04261e-07
5.78713e-08
4.24372e-08
3.63891e-08
3.05667e-08
2.53601e-08
2.08725e-08
1.69388e-08
1.34759e-08
1.04611e-08
7.76727e-09
5.56667e-09
3.84041e-09
2.54833e-09
1.62892e-09
1.00659e-09
6.0415e-10
3.53837e-10
2.03034e-10
1.14502e-10
6.36173e-11
3.48854e-11
1.89076e-11
1.01404e-11
5.38692e-12
2.83702e-12
1.48231e-12
7.68784e-13
3.95853e-13
2.02257e-13
1.02347e-13
5.10433e-14
2.48077e-14
1.14352e-14
4.63188e-15
1.06701e-15
4.11444e-11
1.59444e-10
3.39983e-10
6.25144e-10
1.07504e-09
1.78204e-09
2.88759e-09
4.60611e-09
7.24856e-09
1.11513e-08
1.68569e-08
2.51426e-08
3.70516e-08
5.39332e-08
7.74709e-08
1.09672e-07
1.52801e-07
2.09227e-07
2.81229e-07
3.70722e-07
4.79026e-07
6.06706e-07
7.53506e-07
9.18408e-07
1.09975e-06
1.29002e-06
1.49205e-06
1.70694e-06
1.92543e-06
2.15032e-06
2.37877e-06
2.60432e-06
2.82988e-06
3.05032e-06
3.26603e-06
3.47546e-06
3.67766e-06
3.87141e-06
4.05768e-06
4.2384e-06
4.41357e-06
4.58746e-06
4.76555e-06
4.95789e-06
5.17772e-06
5.45029e-06
5.81988e-06
6.32759e-06
7.04679e-06
8.06021e-06
9.3619e-06
1.09409e-05
1.26738e-05
1.4318e-05
1.54649e-05
1.54708e-05
1.347e-05
8.96679e-06
4.9297e-06
2.69778e-06
1.46284e-06
7.71498e-07
4.02285e-07
2.05527e-07
1.04809e-07
5.81064e-08
4.25206e-08
3.6453e-08
3.06231e-08
2.54066e-08
2.09114e-08
1.69718e-08
1.35039e-08
1.04847e-08
7.78647e-09
5.58184e-09
3.85186e-09
2.55649e-09
1.63445e-09
1.0102e-09
6.06401e-10
3.5519e-10
2.03823e-10
1.14951e-10
6.38674e-11
3.50225e-11
1.89817e-11
1.01801e-11
5.40789e-12
2.848e-12
1.48801e-12
7.71717e-13
3.9735e-13
2.03015e-13
1.02728e-13
5.12324e-14
2.48992e-14
1.14773e-14
4.64894e-15
1.07094e-15
4.11669e-11
1.59531e-10
3.40167e-10
6.25481e-10
1.07562e-09
1.783e-09
2.88912e-09
4.60853e-09
7.25285e-09
1.11585e-08
1.68681e-08
2.51595e-08
3.70763e-08
5.39685e-08
7.75204e-08
1.0974e-07
1.52891e-07
2.09342e-07
2.81372e-07
3.70894e-07
4.79227e-07
6.06933e-07
7.53754e-07
9.18667e-07
1.1e-06
1.29027e-06
1.49228e-06
1.70716e-06
1.92561e-06
2.15046e-06
2.37885e-06
2.60435e-06
2.82983e-06
3.05021e-06
3.26585e-06
3.47523e-06
3.67736e-06
3.87106e-06
4.05729e-06
4.23796e-06
4.41309e-06
4.58693e-06
4.76496e-06
4.95723e-06
5.17686e-06
5.44911e-06
5.81828e-06
6.32509e-06
7.04298e-06
8.05511e-06
9.3552e-06
1.09333e-05
1.26674e-05
1.43162e-05
1.54737e-05
1.54993e-05
1.35295e-05
9.05647e-06
4.97907e-06
2.72511e-06
1.47796e-06
7.79422e-07
4.0653e-07
2.07741e-07
1.05905e-07
5.85745e-08
4.26768e-08
3.65723e-08
3.07308e-08
2.54966e-08
2.09876e-08
1.70373e-08
1.35603e-08
1.05327e-08
7.82614e-09
5.61362e-09
3.87578e-09
2.57362e-09
1.64615e-09
1.01783e-09
6.11169e-10
3.58057e-10
2.05494e-10
1.159e-10
6.43963e-11
3.53121e-11
1.9138e-11
1.02635e-11
5.45199e-12
2.87108e-12
1.49995e-12
7.77835e-13
4.00459e-13
2.04585e-13
1.03514e-13
5.16209e-14
2.50869e-14
1.15634e-14
4.68377e-15
1.07896e-15
4.1202e-11
1.59666e-10
3.40454e-10
6.26007e-10
1.07652e-09
1.78449e-09
2.89153e-09
4.61235e-09
7.25958e-09
1.11698e-08
1.68858e-08
2.51859e-08
3.7115e-08
5.40241e-08
7.75987e-08
1.09849e-07
1.53034e-07
2.09529e-07
2.816e-07
3.71167e-07
4.79548e-07
6.073e-07
7.54153e-07
9.19078e-07
1.10042e-06
1.29067e-06
1.49265e-06
1.7075e-06
1.9259e-06
2.15069e-06
2.37899e-06
2.6044e-06
2.82978e-06
3.05006e-06
3.2656e-06
3.47487e-06
3.6769e-06
3.87051e-06
4.05667e-06
4.23725e-06
4.41231e-06
4.58607e-06
4.76399e-06
4.95612e-06
5.17546e-06
5.44718e-06
5.81569e-06
6.32111e-06
7.03698e-06
8.04708e-06
9.34469e-06
1.09215e-05
1.26571e-05
1.43128e-05
1.54863e-05
1.5542e-05
1.36196e-05
9.1933e-06
5.05233e-06
2.7656e-06
1.50042e-06
7.91211e-07
4.1287e-07
2.1105e-07
1.07551e-07
5.92769e-08
4.29028e-08
3.67403e-08
3.08836e-08
2.56253e-08
2.10976e-08
1.7133e-08
1.36434e-08
1.06045e-08
7.88698e-09
5.66214e-09
3.91273e-09
2.60035e-09
1.66447e-09
1.02975e-09
6.18584e-10
3.625e-10
2.08076e-10
1.17365e-10
6.52106e-11
3.57569e-11
1.93773e-11
1.03903e-11
5.51825e-12
2.9054e-12
1.51765e-12
7.86926e-13
4.05107e-13
2.06943e-13
1.047e-13
5.2209e-14
2.53715e-14
1.16943e-14
4.73669e-15
1.09115e-15
4.12503e-11
1.59852e-10
3.4085e-10
6.26733e-10
1.07777e-09
1.78656e-09
2.89486e-09
4.61763e-09
7.26881e-09
1.11852e-08
1.69098e-08
2.52219e-08
3.71674e-08
5.40989e-08
7.7703e-08
1.09991e-07
1.53225e-07
2.09776e-07
2.81913e-07
3.7155e-07
4.80003e-07
6.07802e-07
7.54695e-07
9.19648e-07
1.10099e-06
1.29124e-06
1.49319e-06
1.70801e-06
1.92632e-06
2.15104e-06
2.37922e-06
2.6045e-06
2.82974e-06
3.04987e-06
3.26526e-06
3.47439e-06
3.67626e-06
3.86975e-06
4.05579e-06
4.23625e-06
4.41119e-06
4.58482e-06
4.76256e-06
4.95446e-06
5.17336e-06
5.44433e-06
5.81184e-06
6.3153e-06
7.02838e-06
8.0356e-06
9.32973e-06
1.09046e-05
1.26419e-05
1.43067e-05
1.55012e-05
1.55966e-05
1.37371e-05
9.37467e-06
5.14887e-06
2.81889e-06
1.53007e-06
8.06818e-07
4.21272e-07
2.15467e-07
1.09742e-07
6.02009e-08
4.31958e-08
3.69423e-08
3.10708e-08