/*--------------------------------*- C++ -*----------------------------------*\
  =========                 |
  \\      /  F ield         | OpenFOAM: The Open Source CFD Toolbox
   \\    /   O peration     | Website:  https://openfoam.org
    \\  /    A nd           | Version:  10
     \\/     M anipulation  |
\*---------------------------------------------------------------------------*/
FoamFile
{
    format      ascii;
    class       volScalarField;
    location    "1";
    object      HCCO;
}
// * * * * * * * * * * * * * * * * * * * * * * * * * * * * * * * * * * * * * //

dimensions      [0 0 0 0 0 0 0];

internalField   nonuniform List<scalar> 
4000
(
8.00149e-19
3.101e-18
6.61795e-18
1.21978e-17
2.10821e-17
3.5275e-17
5.80807e-17
9.50771e-17
1.55985e-16
2.55017e-16
4.19669e-16
7.03172e-16
1.20962e-15
2.14795e-15
3.94923e-15
7.52645e-15
1.48503e-14
3.02455e-14
6.32677e-14
1.34777e-13
2.88748e-13
6.12499e-13
1.26542e-12
2.51359e-12
4.71592e-12
8.19197e-12
1.32792e-11
2.01605e-11
2.85168e-11
3.84346e-11
4.99518e-11
6.39864e-11
8.22749e-11
1.08169e-10
1.47688e-10
2.11317e-10
3.17747e-10
5.01017e-10
8.22979e-10
1.39751e-09
2.43467e-09
4.29102e-09
7.62856e-09
1.35988e-08
2.41199e-08
4.26135e-08
7.36567e-08
1.25931e-07
2.08803e-07
3.41975e-07
5.39573e-07
8.28285e-07
1.23492e-06
1.77891e-06
2.45433e-06
3.19329e-06
3.80886e-06
3.94938e-06
3.22236e-06
1.77569e-06
9.79852e-07
5.36172e-07
2.89421e-07
1.53351e-07
7.87464e-08
3.94259e-08
1.90928e-08
8.98835e-09
4.1139e-09
1.98845e-09
9.08372e-10
3.67778e-10
1.32364e-10
4.2471e-11
1.20672e-11
3.03472e-12
6.39615e-13
1.1914e-13
2.07777e-14
3.71974e-15
7.46265e-16
1.73387e-16
4.49985e-17
1.23636e-17
3.46521e-18
9.71563e-19
2.6997e-19
7.39646e-20
2.00505e-20
5.3757e-21
1.42571e-21
3.74188e-22
9.7191e-23
2.49578e-23
6.31725e-24
1.56369e-24
3.71681e-25
8.13502e-26
1.48142e-26
1.40149e-27
7.98004e-19
3.09256e-18
6.59975e-18
1.21645e-17
2.10253e-17
3.51791e-17
5.79139e-17
9.47707e-17
1.55386e-16
2.53896e-16
4.17396e-16
6.98313e-16
1.19885e-15
2.12307e-15
3.88992e-15
7.38119e-15
1.4483e-14
2.93499e-14
6.11383e-14
1.29833e-13
2.77659e-13
5.8895e-13
1.21887e-12
2.41625e-12
4.54339e-12
7.91906e-12
1.28931e-11
1.96918e-11
2.79839e-11
3.78846e-11
4.93986e-11
6.34117e-11
8.15996e-11
1.07353e-10
1.46633e-10
2.0994e-10
3.16023e-10
4.99213e-10
8.21646e-10
1.39842e-09
2.4422e-09
4.3141e-09
7.6867e-09
1.37384e-08
2.44139e-08
4.31954e-08
7.47658e-08
1.28033e-07
2.12514e-07
3.48421e-07
5.49803e-07
8.44267e-07
1.2588e-06
1.8122e-06
2.49703e-06
3.24046e-06
3.84651e-06
3.95357e-06
3.17978e-06
1.75083e-06
9.64078e-07
5.26252e-07
2.83245e-07
1.49555e-07
7.65521e-08
3.81653e-08
1.83868e-08
8.62804e-09
3.94795e-09
1.90274e-09
8.56731e-10
3.42649e-10
1.21746e-10
3.85387e-11
1.075e-11
2.63125e-12
5.41476e-13
9.88498e-14
1.70922e-14
3.07353e-15
6.27413e-16
1.48971e-16
3.94187e-17
1.10081e-17
3.13003e-18
8.89637e-19
2.50742e-19
6.99587e-20
1.92028e-20
5.19043e-21
1.38359e-21
3.64206e-22
9.47172e-23
2.43023e-23
6.14722e-24
1.52061e-24
3.61106e-25
7.89934e-26
1.4383e-26
1.36051e-27
7.96271e-19
3.08597e-18
6.5863e-18
1.21407e-17
2.09845e-17
3.51076e-17
5.77811e-17
9.45069e-17
1.54831e-16
2.52798e-16
4.15133e-16
6.93575e-16
1.189e-15
2.10088e-15
3.83764e-15
7.25288e-15
1.41887e-14
2.86529e-14
5.94435e-14
1.25692e-13
2.67719e-13
5.65997e-13
1.17018e-12
2.32637e-12
4.38709e-12
7.67709e-12
1.25641e-11
1.92678e-11
2.74951e-11
3.73692e-11
4.88247e-11
6.27557e-11
8.0795e-11
1.06371e-10
1.45376e-10
2.08341e-10
3.14141e-10
4.97549e-10
8.21349e-10
1.4026e-09
2.45812e-09
4.3563e-09
7.78655e-09
1.39635e-08
2.48703e-08
4.40985e-08
7.65237e-08
1.31327e-07
2.18495e-07
3.58754e-07
5.663e-07
8.70549e-07
1.29768e-06
1.86589e-06
2.56435e-06
3.31113e-06
3.8955e-06
3.94095e-06
3.0827e-06
1.69531e-06
9.30379e-07
5.05954e-07
2.70956e-07
1.42264e-07
7.25167e-08
3.5925e-08
1.72e-08
8.02918e-09
3.68458e-09
1.76615e-09
7.82895e-10
3.06372e-10
1.07077e-10
3.35421e-11
8.90093e-12
2.14903e-12
4.34235e-13
7.83743e-14
1.36038e-14
2.49655e-15
5.25893e-16
1.28611e-16
3.47684e-17
9.85343e-18
2.83178e-18
8.11405e-19
2.29985e-19
6.42746e-20
1.76971e-20
4.80222e-21
1.28546e-21
3.39794e-22
8.87769e-23
2.2935e-23
5.82748e-24
1.44529e-24
3.43724e-25
7.52304e-26
1.36977e-26
1.29544e-27
7.9287e-19
3.0727e-18
6.55753e-18
1.20861e-17
2.08857e-17
3.49305e-17
5.74612e-17
9.39208e-17
1.53742e-16
2.5082e-16
4.11277e-16
6.8564e-16
1.17183e-15
2.06599e-15
3.76705e-15
7.10934e-15
1.3876e-14
2.79491e-14
5.78375e-14
1.22035e-13
2.59564e-13
5.48508e-13
1.13299e-12
2.25533e-12
4.26448e-12
7.4813e-12
1.22835e-11
1.89104e-11
2.706e-11
3.68794e-11
4.82916e-11
6.21684e-11
8.01114e-11
1.05521e-10
1.44367e-10
2.07183e-10
3.13077e-10
4.97423e-10
8.241e-10
1.41286e-09
2.48612e-09
4.4225e-09
7.93119e-09
1.427e-08
2.54918e-08
4.53059e-08
7.88217e-08
1.35574e-07
2.25888e-07
3.71334e-07
5.86486e-07
9.0166e-07
1.34347e-06
1.92875e-06
2.64012e-06
3.38582e-06
3.93419e-06
3.88738e-06
2.90731e-06
1.59674e-06
8.73765e-07
4.74685e-07
2.50894e-07
1.31131e-07
6.66025e-08
3.27777e-08
1.55893e-08
7.24837e-09
3.36546e-09
1.60144e-09
6.93152e-10
2.66421e-10
9.15709e-11
2.79901e-11
7.33104e-12
1.73686e-12
3.43287e-13
6.10653e-14
1.06145e-14
1.98485e-15
4.30473e-16
1.08111e-16
2.97848e-17
8.55248e-18
2.48243e-18
7.17219e-19
2.04783e-19
5.76124e-20
1.5958e-20
4.35342e-21
1.17069e-21
3.1061e-22
8.13583e-23
2.10281e-23
5.34784e-24
1.32806e-24
3.16316e-25
6.93348e-26
1.26403e-26
1.19618e-27
7.88606e-19
3.05614e-18
6.52192e-18
1.20193e-17
2.07663e-17
3.47201e-17
5.70885e-17
9.32489e-17
1.52501e-16
2.48456e-16
4.07018e-16
6.78025e-16
1.15823e-15
2.03968e-15
3.71332e-15
6.99511e-15
1.36257e-14
2.73881e-14
5.65653e-14
1.19157e-13
2.53177e-13
5.34847e-13
1.10528e-12
2.19942e-12
4.15828e-12
7.29991e-12
1.20021e-11
1.8557e-11
2.66592e-11
3.6448e-11
4.78439e-11
6.16953e-11
7.95932e-11
1.04909e-10
1.43717e-10
2.06649e-10
3.13098e-10
4.99184e-10
8.30266e-10
1.42934e-09
2.52554e-09
4.50926e-09
8.11456e-09
1.46504e-08
2.62384e-08
4.67193e-08
8.14345e-08
1.40277e-07
2.34035e-07
3.85214e-07
6.08947e-07
9.36242e-07
1.39368e-06
1.99546e-06
2.71857e-06
3.45552e-06
3.94906e-06
3.77626e-06
2.62979e-06
1.44357e-06
7.88879e-07
4.27029e-07
2.2477e-07
1.16914e-07
5.92087e-08
2.90083e-08
1.37314e-08
6.34523e-09
3.00092e-09
1.42118e-09
6.05122e-10
2.28497e-10
7.65516e-11
2.28887e-11
6.08059e-12
1.34532e-12
2.60805e-13
4.60337e-14
8.09867e-15
1.56263e-15
3.52229e-16
9.12633e-17
2.56666e-17
7.46959e-18
2.18882e-18
6.37064e-19
1.83005e-19
5.17527e-20
1.43991e-20
3.94325e-21
1.06383e-21
2.83004e-22
7.42796e-23
1.92277e-23
4.89545e-24
1.21674e-24
2.89994e-25
6.35971e-26
1.15981e-26
1.09761e-27
7.83697e-19
3.03719e-18
6.48153e-18
1.19445e-17
2.06353e-17
3.44952e-17
5.67021e-17
9.25732e-17
1.51332e-16
2.46485e-16
4.0366e-16
6.72227e-16
1.14759e-15
2.0189e-15
3.67079e-15
6.9043e-15
1.34246e-14
2.69268e-14
5.54791e-14
1.16562e-13
2.46988e-13
5.2036e-13
1.07332e-12
2.138e-12
4.05372e-12
7.14025e-12
1.17852e-11
1.82813e-11
2.63373e-11
3.61033e-11
4.75007e-11
6.13554e-11
7.92697e-11
1.0459e-10
1.43515e-10
2.06801e-10
3.14256e-10
5.02895e-10
8.3997e-10
1.4524e-09
2.57681e-09
4.61843e-09
8.33997e-09
1.5108e-08
2.71301e-08
4.83952e-08
8.4564e-08
1.45673e-07
2.43557e-07
4.01398e-07
6.34594e-07
9.74725e-07
1.44783e-06
2.06597e-06
2.79831e-06
3.52028e-06
3.94563e-06
3.62406e-06
2.27929e-06
1.25923e-06
6.91533e-07
3.7579e-07
1.9825e-07
1.03155e-07
5.21098e-08
2.54373e-08
1.19854e-08
5.54926e-09
2.65803e-09
1.24755e-09
5.22165e-10
1.93388e-10
6.39295e-11
1.88028e-11
4.87209e-12
1.05614e-12
2.01628e-13
3.54486e-14
6.32683e-15
1.25831e-15
2.93243e-16
7.78878e-17
2.22471e-17
6.5383e-18
1.92926e-18
5.64622e-19
1.62967e-19
4.62835e-20
1.29278e-20
3.55292e-21
9.61516e-22
2.56393e-22
6.74134e-23
1.74778e-23
4.45634e-24
1.10926e-24
2.64764e-25
5.8133e-26
1.06092e-26
1.00418e-27
7.77829e-19
3.01434e-18
6.4323e-18
1.18527e-17
2.04749e-17
3.42256e-17
5.62619e-17
9.18766e-17
1.50172e-16
2.44466e-16
4.00186e-16
6.6587e-16
1.13564e-15
1.99579e-15
3.62452e-15
6.80835e-15
1.32192e-14
2.64746e-14
5.4463e-14
1.14263e-13
2.41975e-13
5.09649e-13
1.05177e-12
2.09576e-12
3.9774e-12
7.01722e-12
1.16041e-11
1.80508e-11
2.6078e-11
3.58345e-11
4.72407e-11
6.11042e-11
7.91451e-11
1.04534e-10
1.43649e-10
2.07504e-10
3.16315e-10
5.08054e-10
8.52189e-10
1.4799e-09
2.63577e-09
4.74186e-09
8.59198e-09
1.56154e-08
2.81286e-08
5.01098e-08
8.78027e-08
1.5117e-07
2.53226e-07
4.17739e-07
6.60505e-07
1.01402e-06
1.50424e-06
2.14049e-06
2.88453e-06
3.59569e-06
3.96152e-06
3.51255e-06
2.02036e-06
1.1218e-06
6.18183e-07
3.36557e-07
1.77723e-07
9.23499e-08
4.65846e-08
2.27035e-08
1.07444e-08
4.89777e-09
2.37651e-09
1.10564e-09
4.55945e-10
1.66114e-10
5.40128e-11
1.55267e-11
3.96448e-12
8.44267e-13
1.59177e-13
2.80299e-14
5.08375e-15
1.04e-15
2.49297e-16
6.7544e-17
1.95294e-17
5.78427e-18
1.7162e-18
5.04458e-19
1.46142e-19
4.1642e-20
1.16665e-20
3.21552e-21
8.72811e-22
2.33617e-22
6.16777e-23
1.60419e-23
4.09679e-24
1.02039e-24
2.43562e-25
5.34675e-26
9.756e-27
9.23327e-28
7.72137e-19
2.99222e-18
6.38454e-18
1.17629e-17
2.0315e-17
3.39471e-17
5.57785e-17
9.10296e-17
1.4871e-16
2.41923e-16
3.95375e-16
6.57012e-16
1.11913e-15
1.96425e-15
3.5625e-15
6.68286e-15
1.29588e-14
2.59221e-14
5.32757e-14
1.11711e-13
2.36463e-13
4.98328e-13
1.03e-12
2.05614e-12
3.90625e-12
6.89987e-12
1.14422e-11
1.7847e-11
2.58493e-11
3.56074e-11
4.70693e-11
6.0983e-11
7.9119e-11
1.0465e-10
1.44065e-10
2.08678e-10
3.19209e-10
5.14894e-10
8.67233e-10
1.51271e-09
2.69502e-09
4.86701e-09
8.84241e-09
1.61259e-08
2.90956e-08
5.19101e-08
9.10693e-08
1.56611e-07
2.62748e-07
4.33924e-07
6.86643e-07
1.05414e-06
1.56241e-06
2.21878e-06
2.97878e-06
3.6883e-06
4.01424e-06
3.48124e-06
1.9335e-06
1.06841e-06
5.86036e-07
3.17602e-07
1.67091e-07
8.64402e-08
4.3355e-08
2.1019e-08
9.90309e-09
4.51231e-09
2.19799e-09
1.00902e-09
4.08002e-10
1.46391e-10
4.68477e-11
1.32594e-11
3.31063e-12
6.91625e-13
1.28684e-13
2.2683e-14
4.17413e-15
8.75865e-16
2.15235e-16
5.9339e-17
1.7343e-17
5.17209e-18
1.54192e-18
4.54883e-19
1.32172e-19
3.77571e-20
1.06015e-20
2.92751e-21
7.95823e-22
2.13186e-22
5.63129e-23
1.46629e-23
3.75435e-24
9.37084e-25
2.23937e-25
4.91838e-26
8.97669e-27
8.4965e-28
7.67429e-19
2.974e-18
6.34557e-18
1.16904e-17
2.01879e-17
3.37294e-17
5.54083e-17
9.03989e-17
1.47629e-16
2.39904e-16
3.91902e-16
6.50893e-16
1.10807e-15
1.94356e-15
3.52234e-15
6.60211e-15
1.27917e-14
2.55677e-14
5.25128e-14
1.10094e-13
2.32878e-13
4.90912e-13
1.01414e-12
2.02396e-12
3.85218e-12
6.81788e-12
1.13246e-11
1.76926e-11
2.56764e-11
3.542e-11
4.70112e-11
6.09577e-11
7.9184e-11
1.04879e-10
1.44639e-10
2.10058e-10
3.22447e-10
5.21443e-10
8.81772e-10
1.54488e-09
2.76119e-09
5.00207e-09
9.11511e-09
1.66571e-08
3.01094e-08
5.37884e-08
9.45225e-08
1.62598e-07
2.72945e-07
4.50736e-07
7.12832e-07
1.09381e-06
1.61964e-06
2.29624e-06
3.07323e-06
3.78442e-06
4.07923e-06
3.48282e-06
1.91994e-06
1.05588e-06
5.76315e-07
3.1062e-07
1.6296e-07
8.38226e-08
4.17932e-08
2.01336e-08
9.44446e-09
4.30428e-09
2.08855e-09
9.42445e-10
3.7497e-10
1.32739e-10
4.2216e-11
1.12779e-11
2.77448e-12
5.72311e-13
1.05821e-13
1.87764e-14
3.52094e-15
7.58287e-16
1.9057e-16
5.32942e-17
1.57019e-17
4.7042e-18
1.40642e-18
4.15715e-19
1.20971e-19
3.46005e-20
9.726e-21
2.68841e-21
7.31404e-22
1.96016e-22
5.17933e-23
1.34907e-23
3.45359e-24
8.62236e-25
2.06195e-25
4.53217e-26
8.27575e-27
7.83483e-28
7.63827e-19
2.96019e-18
6.31644e-18
1.16372e-17
2.00959e-17
3.35738e-17
5.51452e-17
8.99467e-17
1.46826e-16
2.38444e-16
3.89267e-16
6.46088e-16
1.09913e-15
1.92656e-15
3.48915e-15
6.53529e-15
1.26525e-14
2.5269e-14
5.18595e-14
1.08626e-13
2.29844e-13
4.84112e-13
1.00079e-12
2.00058e-12
3.81093e-12
6.75329e-12
1.12353e-11
1.75812e-11
2.55617e-11
3.53188e-11
4.69567e-11
6.09642e-11
7.92941e-11
1.05167e-10
1.45287e-10
2.11515e-10
3.25635e-10
5.28276e-10
8.96364e-10
1.57627e-09
2.82546e-09
5.13195e-09
9.36897e-09
1.7149e-08
3.10422e-08
5.55329e-08
9.76461e-08
1.68071e-07
2.82257e-07
4.6607e-07
7.37336e-07
1.13115e-06
1.67365e-06
2.3685e-06
3.16063e-06
3.87236e-06
4.13726e-06
3.48381e-06
1.91635e-06
1.05129e-06
5.71992e-07
3.06941e-07
1.6103e-07
8.24359e-08
4.08916e-08
1.95954e-08
9.15227e-09
4.1803e-09
2.01639e-09
8.95998e-10
3.51342e-10
1.22719e-10
3.84584e-11
1.01068e-11
2.4491e-12
4.98416e-13
9.13628e-14
1.62279e-14
3.07518e-15
6.73089e-16
1.71559e-16
4.84039e-17
1.43304e-17
4.30484e-18
1.28914e-18
3.81499e-19
1.11128e-19
3.18157e-20
8.95165e-21
2.4766e-21
6.74255e-22
1.80768e-22
4.77875e-23
1.24538e-23
3.19124e-24
7.97611e-25
1.90916e-25
4.19903e-26
7.67037e-27
7.26316e-28
7.60471e-19
2.94719e-18
6.28862e-18
1.15857e-17
2.00065e-17
3.34239e-17
5.48994e-17
8.95505e-17
1.46199e-16
2.3736e-16
3.87362e-16
6.42612e-16
1.09241e-15
1.91331e-15
3.46253e-15
6.48121e-15
1.25409e-14
2.50334e-14
5.13571e-14
1.07494e-13
2.27273e-13
4.78871e-13
9.90437e-13
1.98068e-12
3.77789e-12
6.70299e-12
1.11675e-11
1.74987e-11
2.54809e-11
3.52531e-11
4.69316e-11
6.10004e-11
7.94328e-11
1.05484e-10
1.45956e-10
2.12943e-10
3.28757e-10
5.34886e-10
9.10196e-10
1.60521e-09
2.88413e-09
5.24901e-09
9.60002e-09
1.75978e-08
3.18961e-08
5.71104e-08
1.00496e-07
1.73076e-07
2.90778e-07
4.80108e-07
7.59495e-07
1.16453e-06
1.72134e-06
2.43231e-06
3.23692e-06
3.94743e-06
4.18431e-06
3.48358e-06
1.90273e-06
1.04331e-06
5.66985e-07
3.03642e-07
1.59353e-07
8.10378e-08
4.00672e-08
1.91285e-08
8.9016e-09
4.08524e-09
1.95702e-09
8.57498e-10
3.31965e-10
1.14669e-10
3.5495e-11
9.27515e-12
2.22126e-12
4.46988e-13
8.12859e-14
1.4422e-14
2.74941e-15
6.08174e-16
1.56494e-16
4.44205e-17
1.31947e-17
3.97085e-18
1.19042e-18
3.52568e-19
1.02773e-19
2.94441e-20
8.29063e-21
2.29592e-21
6.2606e-22
1.68273e-22
4.46057e-23
1.16495e-23
2.98674e-24
7.46243e-25
1.78539e-25
3.92552e-26
7.1692e-27
6.78826e-28
7.57682e-19
2.93642e-18
6.26567e-18
1.15433e-17
1.99329e-17
3.32995e-17
5.46915e-17
8.92022e-17
1.45575e-16
2.36257e-16
3.85479e-16
6.39429e-16
1.08703e-15
1.90331e-15
3.44256e-15
6.43861e-15
1.24499e-14
2.48392e-14
5.09294e-14
1.06607e-13
2.25371e-13
4.74944e-13
9.82763e-13
1.96632e-12
3.753e-12
6.66488e-12
1.11167e-11
1.74383e-11
2.54248e-11
3.52134e-11
4.69307e-11
6.10594e-11
7.9594e-11
1.0582e-10
1.46642e-10
2.14389e-10
3.31851e-10
5.41361e-10
9.23715e-10
1.63367e-09
2.94099e-09
5.36098e-09
9.81773e-09
1.80149e-08
3.26854e-08
5.857e-08
1.03126e-07
1.77679e-07
2.98566e-07
4.92762e-07
7.79532e-07
1.1948e-06
1.76434e-06
2.48853e-06
3.3022e-06
4.00731e-06
4.21263e-06
3.46098e-06
1.89234e-06
1.03647e-06
5.62452e-07
3.00643e-07
1.57377e-07
7.99619e-08
3.94015e-08
1.87388e-08
8.69037e-09
4.00631e-09
1.90578e-09
8.24706e-10
3.15706e-10
1.0786e-10
3.29449e-11
8.59868e-12
2.03981e-12
4.06593e-13
7.34104e-14
1.30137e-14
2.49544e-15
5.57345e-16
1.44609e-16
4.12545e-17
1.22863e-17
3.7022e-18
1.11061e-18
3.29071e-19
9.59545e-20
2.74973e-20
7.74157e-21
2.14317e-21
5.84306e-22
1.5715e-22
4.1668e-23
1.08856e-23
2.79397e-24
6.98947e-25
1.67391e-25
3.68291e-26
6.72873e-27
6.37216e-28
7.55422e-19
2.92771e-18
6.24712e-18
1.15091e-17
1.98736e-17
3.31996e-17
5.45251e-17
8.89257e-17
1.45072e-16
2.35352e-16
3.8388e-16
6.36582e-16
1.0818e-15
1.89375e-15
3.42484e-15
6.40534e-15
1.23808e-14
2.46879e-14
5.05968e-14
1.05861e-13
2.23833e-13
4.71808e-13
9.76303e-13
1.95465e-12
3.73326e-12
6.63562e-12
1.10787e-11
1.73945e-11
2.53873e-11
3.51924e-11
4.6946e-11
6.1131e-11
7.9761e-11
1.0616e-10
1.4733e-10
2.15779e-10
3.34722e-10
5.47277e-10
9.3594e-10
1.65866e-09
2.99173e-09
5.46308e-09
1.00198e-08
1.84059e-08
3.34213e-08
5.99188e-08
1.05528e-07
1.81814e-07
3.05479e-07
5.03919e-07
7.96773e-07
1.2203e-06
1.80018e-06
2.5351e-06
3.35516e-06
4.05363e-06
4.2277e-06
3.43005e-06
1.87782e-06
1.02791e-06
5.5725e-07
2.97411e-07
1.55338e-07
7.88748e-08
3.87574e-08
1.83762e-08
8.49746e-09
3.93409e-09
1.85864e-09
7.95786e-10
3.01489e-10
1.02034e-10
3.08247e-11
8.04709e-12
1.89125e-12
3.73823e-13
6.71057e-14
1.18916e-14
2.29232e-15
5.16209e-16
1.34857e-16
3.86285e-17
1.15277e-17
3.47703e-18
1.04362e-18
3.09342e-19
9.02454e-20
2.58837e-20
7.30114e-21
2.02613e-21
5.53148e-22
1.48808e-22
3.94637e-23
1.031e-23
2.6451e-24
6.61505e-25
1.58393e-25
3.48443e-26
6.36541e-27
6.02785e-28
7.53623e-19
2.92077e-18
6.23237e-18
1.1482e-17
1.98267e-17
3.31209e-17
5.43949e-17
8.87111e-17
1.44674e-16
2.34629e-16
3.82604e-16
6.34317e-16
1.07768e-15
1.88602e-15
3.40983e-15
6.37521e-15
1.23211e-14
2.45668e-14
5.03397e-14
1.05306e-13
2.22639e-13
4.69318e-13
9.71575e-13
1.9459e-12
3.71871e-12
6.61397e-12
1.10511e-11
1.73639e-11
2.53634e-11
3.51845e-11
4.69713e-11
6.12083e-11
7.99276e-11
1.06482e-10
1.47949e-10
2.17017e-10
3.37281e-10
5.52515e-10
9.46619e-10
1.68088e-09
3.03601e-09
5.55005e-09
1.01876e-08
1.87255e-08
3.4032e-08
6.10673e-08
1.07645e-07
1.85468e-07
3.11569e-07
5.13502e-07
8.1153e-07
1.24208e-06
1.83034e-06
2.57346e-06
3.39757e-06
4.08771e-06
4.2326e-06
3.39431e-06
1.8604e-06
1.01806e-06
5.5155e-07
2.93853e-07
1.53178e-07
7.76454e-08
3.80617e-08
1.79984e-08
8.30028e-09
3.85927e-09
1.81301e-09
7.69195e-10
2.89203e-10
9.70948e-11
2.90484e-11
7.59094e-12
1.77079e-12
3.47328e-13
6.20153e-14
1.09813e-14
2.12572e-15
4.81954e-16
1.26626e-16
3.63952e-17
1.08806e-17
3.2849e-18
9.86467e-19
2.92508e-19
8.53598e-20
2.4488e-20
6.9072e-21
1.91718e-21
5.24368e-22
1.41261e-22
3.74922e-23
9.79461e-24
2.51347e-24
6.28735e-25
1.50576e-25
3.31294e-26
6.05255e-27
5.73172e-28
7.52205e-19
2.91531e-18
6.22077e-18
1.14606e-17
1.97898e-17
3.30592e-17
5.42931e-17
8.85437e-17
1.44361e-16
2.34061e-16
3.81601e-16
6.32544e-16
1.07447e-15
1.88e-15
3.3982e-15
6.35206e-15
1.2274e-14
2.44654e-14
5.01307e-14
1.04882e-13
2.21747e-13
4.67478e-13
9.67923e-13
1.93923e-12
3.70767e-12
6.5978e-12
1.10309e-11
1.73419e-11
2.53488e-11
3.51847e-11
4.69999e-11
6.12807e-11
8.00745e-11
1.06765e-10
1.48492e-10
2.18097e-10
3.39475e-10
5.56957e-10
9.55649e-10
1.69901e-09
3.07143e-09
5.618e-09
1.03168e-08
1.89616e-08
3.44516e-08
6.17844e-08
1.09817e-07
1.88789e-07
3.16867e-07
5.2172e-07
8.24137e-07
1.2604e-06
1.85536e-06
2.60471e-06
3.43061e-06
4.1121e-06
4.23093e-06
3.35858e-06
1.84261e-06
1.00865e-06
5.47474e-07
2.88521e-07
1.50354e-07
7.61523e-08
3.72839e-08
1.76027e-08
8.10508e-09
3.78497e-09
1.76945e-09
7.45366e-10
2.78362e-10
9.28685e-11
2.75693e-11
7.21921e-12
1.66951e-12
3.24607e-13
5.75995e-14
1.01852e-14
1.97927e-15
4.51794e-16
1.19406e-16
3.44503e-17
1.03219e-17
3.12035e-18
9.3787e-19
2.78276e-19
8.12475e-20
2.33175e-20
6.57856e-21
1.82584e-21
4.9898e-22
1.34382e-22
3.56775e-23
9.33081e-24
2.39679e-24
6.00017e-25
1.43785e-25
3.16483e-26
5.78341e-27
5.47733e-28
7.51106e-19
2.91107e-18
6.21176e-18
1.1444e-17
1.97611e-17
3.3011e-17
5.42131e-17
8.8411e-17
1.44118e-16
2.3362e-16
3.80825e-16
6.3117e-16
1.07198e-15
1.87534e-15
3.38917e-15
6.33411e-15
1.22366e-14
2.43895e-14
4.99678e-14
1.04535e-13
2.2104e-13
4.66038e-13
9.65138e-13
1.93422e-12
3.69951e-12
6.58622e-12
1.10171e-11
1.73281e-11
2.53417e-11
3.51909e-11
4.70314e-11
6.1352e-11
8.02124e-11
1.0702e-10
1.48982e-10
2.19067e-10
3.41459e-10
5.60952e-10
9.63676e-10
1.7153e-09
3.10388e-09
5.68218e-09
1.04413e-08
1.91988e-08
3.49026e-08
6.26276e-08
1.11333e-07
1.91368e-07
3.21101e-07
5.28318e-07
8.34241e-07
1.27509e-06
1.87536e-06
2.62956e-06
3.45681e-06
4.13024e-06
4.22611e-06
3.32393e-06
1.82496e-06
9.98758e-07
5.41803e-07
2.85348e-07
1.48491e-07
7.50947e-08
3.67032e-08
1.72976e-08
7.95249e-09
3.72584e-09
1.73473e-09
7.26567e-10
2.6997e-10
8.96463e-11
2.64955e-11
6.96766e-12
1.53228e-12
2.96791e-13
5.26522e-14
9.36465e-15
1.83985e-15
4.24961e-16
1.13274e-16
3.28407e-17
9.86546e-18
2.98671e-18
8.98498e-19
2.66757e-19
7.7923e-20
2.2373e-20
6.3145e-21
1.75312e-21
4.7923e-22
1.29094e-22
3.42823e-23
8.96875e-24
2.30457e-24
5.77121e-25
1.38335e-25
3.04548e-26
5.56591e-27
5.27126e-28
7.50286e-19
2.90791e-18
6.20506e-18
1.14317e-17
1.974e-17
3.29756e-17
5.41548e-17
8.83156e-17
1.43939e-16
2.33294e-16
3.80249e-16
6.30153e-16
1.07013e-15
1.87189e-15
3.38253e-15
6.32091e-15
1.22095e-14
2.43328e-14
4.98469e-14
1.04278e-13
2.205e-13
4.64971e-13
9.63103e-13
1.93059e-12
3.69368e-12
6.57804e-12
1.10076e-11
1.73193e-11
2.5339e-11
3.51995e-11
4.70606e-11
6.14134e-11
8.03285e-11
1.07235e-10
1.49393e-10
2.19875e-10
3.43074e-10
5.64197e-10
9.7029e-10
1.72874e-09
3.1306e-09
5.73481e-09
1.05435e-08
1.93932e-08
3.52679e-08
6.32954e-08
1.12488e-07
1.93357e-07
3.24399e-07
5.33471e-07
8.42162e-07
1.28665e-06
1.89115e-06
2.64899e-06
3.47694e-06
4.14334e-06
4.21974e-06
3.29228e-06
1.80874e-06
9.89675e-07
5.36612e-07
2.82614e-07
1.46953e-07
7.42407e-08
3.6243e-08
1.70596e-08
7.83584e-09
3.67644e-09
1.70611e-09
7.11409e-10
2.63282e-10
8.70827e-11
2.56331e-11
6.7112e-12
1.46687e-12
2.82549e-13
4.99442e-14
8.88116e-15
1.75097e-15
4.06537e-16
1.08828e-16
3.16367e-17
9.51871e-18
2.88449e-18
8.68305e-19
2.57918e-19
7.53709e-20
2.16475e-20
6.11149e-21
1.69724e-21
4.64097e-22
1.25059e-22
3.32216e-23
8.69384e-24
2.23452e-24
5.59698e-25
1.34181e-25
2.95433e-26
5.39961e-27
5.11387e-28
7.49707e-19
2.90569e-18
6.20033e-18
1.14231e-17
1.97251e-17
3.29508e-17
5.41142e-17
8.82494e-17
1.43814e-16
2.33064e-16
3.79842e-16
6.2943e-16
1.06882e-15
1.86941e-15
3.37769e-15
6.31115e-15
1.21898e-14
2.42916e-14
4.97619e-14
1.04099e-13
2.20124e-13
4.64207e-13
9.61651e-13
1.92806e-12
3.68967e-12
6.57254e-12
1.10015e-11
1.73142e-11
2.53388e-11
3.52081e-11
4.70849e-11
6.14625e-11
8.04197e-11
1.07403e-10
1.49711e-10
2.20497e-10
3.44325e-10
5.6672e-10
9.75359e-10
1.739e-09
3.15103e-09
5.7749e-09
1.0621e-08
1.95382e-08
3.55386e-08
6.37888e-08
1.13338e-07
1.94825e-07
3.26834e-07
5.37272e-07
8.4801e-07
1.29518e-06
1.90277e-06
2.66331e-06
3.49152e-06
4.15226e-06
4.21356e-06
3.26683e-06
1.7954e-06
9.82231e-07
5.32395e-07
2.80406e-07
1.45726e-07
7.35717e-08
3.58864e-08
1.68772e-08
7.74883e-09
3.63618e-09
1.68353e-09
6.99701e-10
2.5819e-10
8.51445e-11
2.49857e-11
6.52011e-12
1.41981e-12
2.72642e-13
4.81052e-14
8.55824e-15
1.69196e-15
3.94236e-16
1.05822e-16
3.08113e-17
9.27805e-18
2.81283e-18
8.46972e-19
2.51636e-19
7.35507e-20
2.11303e-20
5.96754e-21
1.65782e-21
4.53442e-22
1.2221e-22
3.24691e-23
8.49793e-24
2.18442e-24
5.47204e-25
1.31196e-25
2.88875e-26
5.27986e-27
5.00049e-28
7.49337e-19
2.90426e-18
6.19732e-18
1.14176e-17
1.97156e-17
3.29352e-17
5.40887e-17
8.82079e-17
1.43735e-16
2.32919e-16
3.79588e-16
6.28982e-16
1.06801e-15
1.86789e-15
3.37475e-15
6.30528e-15
1.21778e-14
2.42667e-14
4.97093e-14
1.03988e-13
2.19894e-13
4.63743e-13
9.60766e-13
1.9265e-12
3.68723e-12
6.56927e-12
1.0998e-11
1.73115e-11
2.53396e-11
3.5215e-11
4.71027e-11
6.14969e-11
8.0483e-11
1.07519e-10
1.4993e-10
2.20921e-10
3.45176e-10
5.68434e-10
9.78828e-10
1.74605e-09
3.16496e-09
5.80205e-09
1.0673e-08
1.96357e-08
3.57195e-08
6.41154e-08
1.13896e-07
1.95788e-07
3.28433e-07
5.39764e-07
8.5184e-07
1.30074e-06
1.91033e-06
2.67255e-06
3.50082e-06
4.15773e-06
4.20893e-06
3.24947e-06
1.78586e-06
9.76922e-07
5.29408e-07
2.78845e-07
1.44868e-07
7.31074e-08
3.56417e-08
1.67531e-08
7.68921e-09
3.60881e-09
1.66825e-09
6.91889e-10
2.54818e-10
8.3874e-11
2.45633e-11
6.39624e-12
1.38977e-12
2.66338e-13
4.69439e-14
8.35597e-15
1.65521e-15
3.86575e-16
1.03941e-16
3.02923e-17
9.12607e-18
2.76742e-18
8.33412e-19
2.47631e-19
7.23863e-20
2.07973e-20
5.87382e-21
1.63191e-21
4.46406e-22
1.20333e-22
3.19758e-23
8.37017e-24
2.15187e-24
5.39108e-25
1.29265e-25
2.84635e-26
5.20246e-27
4.9272e-28
7.49143e-19
2.90352e-18
6.19574e-18
1.14147e-17
1.97107e-17
3.2927e-17
5.40753e-17
8.81863e-17
1.43695e-16
2.32846e-16
3.7946e-16
6.2876e-16
1.06761e-15
1.86716e-15
3.37334e-15
6.30248e-15
1.21721e-14
2.42547e-14
4.96838e-14
1.03934e-13
2.19781e-13
4.63518e-13
9.6034e-13
1.92575e-12
3.68606e-12
6.56771e-12
1.09964e-11
1.73103e-11
2.53403e-11
3.52188e-11
4.71119e-11
6.15147e-11
8.05154e-11
1.07578e-10
1.5004e-10
2.21135e-10
3.45606e-10
5.69296e-10
9.80562e-10
1.74953e-09
3.17183e-09
5.81544e-09
1.06988e-08
1.96839e-08
3.58092e-08
6.42783e-08
1.14174e-07
1.96267e-07
3.29225e-07
5.40995e-07
8.53733e-07
1.3035e-06
1.91406e-06
2.6771e-06
3.50537e-06
4.16031e-06
4.20644e-06
3.2406e-06
1.78098e-06
9.74206e-07
5.2788e-07
2.78044e-07
1.44429e-07
7.28703e-08
3.55174e-08
1.66906e-08
7.65966e-09
3.59513e-09
1.66063e-09
6.88015e-10
2.53154e-10
8.32494e-11
2.43569e-11
6.33613e-12
1.37532e-12
2.63336e-13
4.6393e-14
8.26051e-15
1.63796e-15
3.82991e-16
1.03063e-16
3.00498e-17
9.05506e-18
2.7462e-18
8.2707e-19
2.45756e-19
7.18401e-20
2.06409e-20
5.82978e-21
1.61972e-21
4.43087e-22
1.19443e-22
3.17409e-23
8.30905e-24
2.13624e-24
5.35208e-25
1.28332e-25
2.82583e-26
5.16495e-27
4.89165e-28
7.49114e-19
2.9034e-18
6.19549e-18
1.14142e-17
1.97098e-17
3.29255e-17
5.40727e-17
8.8182e-17
1.43687e-16
2.32834e-16
3.7944e-16
6.2873e-16
1.06756e-15
1.86709e-15
3.37325e-15
6.30239e-15
1.2172e-14
2.42547e-14
4.96839e-14
1.03934e-13
2.19782e-13
4.6352e-13
9.60344e-13
1.92576e-12
3.68607e-12
6.56773e-12
1.09964e-11
1.73104e-11
2.53404e-11
3.5219e-11
4.71122e-11
6.15151e-11
8.0516e-11
1.07579e-10
1.50042e-10
2.21137e-10
3.4561e-10
5.69303e-10
9.80574e-10
1.74955e-09
3.17187e-09
5.8155e-09
1.06989e-08
1.96841e-08
3.58096e-08
6.42789e-08
1.14175e-07
1.96268e-07
3.29226e-07
5.40998e-07
8.53736e-07
1.3035e-06
1.91407e-06
2.6771e-06
3.50536e-06
4.1603e-06
4.20642e-06
3.24058e-06
1.78096e-06
9.742e-07
5.27878e-07
2.78041e-07
1.44427e-07
7.28697e-08
3.55173e-08
1.66908e-08
7.66037e-09
3.5954e-09
1.66073e-09
6.88049e-10
2.53166e-10
8.32529e-11
2.4358e-11
6.3364e-12
1.37538e-12
2.63348e-13
4.6395e-14
8.26083e-15
1.63801e-15
3.83001e-16
1.03065e-16
3.00503e-17
9.05521e-18
2.74624e-18
8.27084e-19
2.4576e-19
7.18414e-20
2.06413e-20
5.82989e-21
1.61975e-21
4.43095e-22
1.19445e-22
3.17415e-23
8.3092e-24
2.13628e-24
5.35218e-25
1.28334e-25
2.82588e-26
5.16505e-27
4.89174e-28
7.49258e-19
2.90395e-18
6.19664e-18
1.14163e-17
1.97133e-17
3.29313e-17
5.4082e-17
8.81969e-17
1.43717e-16
2.32889e-16
3.79541e-16
6.28912e-16
1.0679e-15
1.86775e-15
3.37458e-15
6.30508e-15
1.21776e-14
2.42666e-14
4.97096e-14
1.03989e-13
2.19896e-13
4.63748e-13
9.60775e-13
1.92652e-12
3.68726e-12
6.56932e-12
1.09981e-11
1.73116e-11
2.534e-11
3.52155e-11
4.71035e-11
6.14981e-11
8.04847e-11
1.07522e-10
1.49934e-10
2.20928e-10
3.4519e-10
5.68461e-10
9.78876e-10
1.74612e-09
3.16509e-09
5.80227e-09
1.06734e-08
1.96364e-08
3.57208e-08
6.41177e-08
1.13899e-07
1.95793e-07
3.28438e-07
5.39771e-07
8.51848e-07
1.30076e-06
1.91034e-06
2.67255e-06
3.5008e-06
4.15769e-06
4.20885e-06
3.24939e-06
1.78582e-06
9.76903e-07
5.29399e-07
2.78839e-07
1.44865e-07
7.31061e-08
3.56411e-08
1.67528e-08
7.68888e-09
3.60866e-09
1.6682e-09
6.9188e-10
2.54819e-10
8.38754e-11
2.45641e-11
6.39654e-12
1.38986e-12
2.66357e-13
4.69478e-14
8.35667e-15
1.65533e-15
3.866e-16
1.03947e-16
3.02938e-17
9.12652e-18
2.76755e-18
8.33452e-19
2.47643e-19
7.239e-20
2.07985e-20
5.87414e-21
1.632e-21
4.46431e-22
1.20339e-22
3.19774e-23
8.37056e-24
2.15196e-24
5.39132e-25
1.2927e-25
2.84648e-26
5.20271e-27
4.92744e-28
7.49594e-19
2.90524e-18
6.19937e-18
1.14213e-17
1.97219e-17
3.29454e-17
5.41052e-17
8.82346e-17
1.4379e-16
2.33026e-16
3.79785e-16
6.29349e-16
1.06871e-15
1.86927e-15
3.37754e-15
6.31102e-15
1.21897e-14
2.42918e-14
4.97626e-14
1.04101e-13
2.20128e-13
4.64215e-13
9.61666e-13
1.92809e-12
3.68973e-12
6.57265e-12
1.10017e-11
1.73145e-11
2.53393e-11
3.52088e-11
4.7086e-11
6.1464e-11
8.04219e-11
1.07406e-10
1.49716e-10
2.20506e-10
3.44342e-10
5.66755e-10
9.75433e-10
1.73916e-09
3.1513e-09
5.77534e-09
1.06217e-08
1.95397e-08
3.55407e-08
6.37908e-08
1.1334e-07
1.94826e-07
3.26839e-07
5.3728e-07
8.4802e-07
1.29519e-06
1.90278e-06
2.6633e-06
3.49148e-06
4.15218e-06
4.21342e-06
3.26668e-06
1.79532e-06
9.8219e-07
5.32374e-07
2.80397e-07
1.45722e-07
7.35699e-08
3.58858e-08
1.6877e-08
7.74873e-09
3.63611e-09
1.68352e-09
6.99713e-10
2.582e-10
8.51489e-11
2.49875e-11
6.52074e-12
1.41998e-12
2.72683e-13
4.81131e-14
8.55962e-15
1.69221e-15
3.94285e-16
1.05833e-16
3.08143e-17
9.27892e-18
2.81309e-18
8.47049e-19
2.51659e-19
7.35573e-20
2.11323e-20
5.96812e-21
1.65799e-21
4.5349e-22
1.22224e-22
3.24727e-23
8.49886e-24
2.18465e-24
5.4726e-25
1.31209e-25
2.88902e-26
5.28034e-27
5.00094e-28
7.50157e-19
2.90741e-18
6.20397e-18
1.14297e-17
1.97364e-17
3.29698e-17
5.41453e-17
8.83006e-17
1.43916e-16
2.33259e-16
3.80199e-16
6.30086e-16
1.07005e-15
1.87181e-15
3.38247e-15
6.32091e-15
1.22096e-14
2.43332e-14
4.9848e-14
1.0428e-13
2.20505e-13
4.64981e-13
9.63124e-13
1.93063e-12
3.69376e-12
6.57819e-12
1.10078e-11
1.73197e-11
2.53397e-11
3.52004e-11
4.70619e-11
6.14151e-11
8.03308e-11
1.07238e-10
1.49396e-10
2.19877e-10
3.43082e-10
5.64214e-10
9.70323e-10
1.72881e-09
3.13076e-09
5.73522e-09
1.05442e-08
1.93939e-08
3.52689e-08
6.32972e-08
1.12492e-07
1.93365e-07
3.24409e-07
5.33486e-07
8.4218e-07
1.28666e-06
1.89115e-06
2.64895e-06
3.47681e-06
4.14319e-06
4.21954e-06
3.29208e-06
1.80864e-06
9.89624e-07
5.36588e-07
2.82604e-07
1.46949e-07
7.42391e-08
3.62426e-08
1.70595e-08
7.83582e-09
3.67644e-09
1.70615e-09
7.11445e-10
2.63302e-10
8.70904e-11
2.56361e-11
6.71221e-12
1.46714e-12
2.82609e-13
4.99557e-14
8.88315e-15
1.75132e-15
4.06604e-16
1.08843e-16
3.16408e-17
9.51986e-18
2.88483e-18
8.68408e-19
2.57949e-19
7.53796e-20
2.165e-20
6.11214e-21
1.6974e-21
4.64138e-22
1.25069e-22
3.3224e-23
8.69443e-24
2.23466e-24
5.59729e-25
1.34188e-25
2.95446e-26
5.39984e-27
5.11408e-28
7.50973e-19
2.91055e-18
6.21065e-18
1.1442e-17
1.97576e-17
3.30052e-17
5.42038e-17
8.83967e-17
1.44096e-16
2.33588e-16
3.80781e-16
6.31115e-16
1.07191e-15
1.87528e-15
3.38915e-15
6.33418e-15
1.22369e-14
2.43901e-14
4.99691e-14
1.04538e-13
2.21046e-13
4.6605e-13
9.65163e-13
1.93427e-12
3.69961e-12
6.5864e-12
1.10174e-11
1.73286e-11
2.53425e-11
3.51921e-11
4.70331e-11
6.13543e-11
8.02156e-11
1.07025e-10
1.48989e-10
2.19078e-10
3.41466e-10
5.60958e-10
9.63677e-10
1.71529e-09
3.10386e-09
5.68212e-09
1.04412e-08
1.91988e-08
3.49031e-08
6.26291e-08
1.11337e-07
1.91374e-07
3.21114e-07
5.28338e-07
8.34268e-07
1.27512e-06
1.87538e-06
2.62955e-06
3.45673e-06
4.13007e-06
4.22584e-06
3.32369e-06
1.82484e-06
9.98698e-07
5.41774e-07
2.85335e-07
1.48486e-07
7.50925e-08
3.67023e-08
1.72972e-08
7.95185e-09
3.72558e-09
1.73468e-09