/*--------------------------------*- C++ -*----------------------------------*\
  =========                 |
  \\      /  F ield         | OpenFOAM: The Open Source CFD Toolbox
   \\    /   O peration     | Website:  https://openfoam.org
    \\  /    A nd           | Version:  10
     \\/     M anipulation  |
\*---------------------------------------------------------------------------*/
FoamFile
{
    format      ascii;
    class       volScalarField;
    location    "1";
    object      HCN;
}
// * * * * * * * * * * * * * * * * * * * * * * * * * * * * * * * * * * * * * //

dimensions      [0 0 0 0 0 0 0];

internalField   nonuniform List<scalar> 
4000
(
5.10746e-10
1.9789e-09
4.2189e-09
7.7568e-09
1.33404e-08
2.21232e-08
3.58804e-08
5.73209e-08
9.05385e-08
1.39953e-07
2.12525e-07
3.18416e-07
4.7143e-07
6.89547e-07
9.9533e-07
1.4158e-06
1.98101e-06
2.72176e-06
3.66636e-06
4.83701e-06
6.24659e-06
7.89646e-06
9.77625e-06
1.18778e-05
1.41638e-05
1.65534e-05
1.90693e-05
2.17223e-05
2.4402e-05
2.71403e-05
2.98633e-05
3.25806e-05
3.52606e-05
3.78739e-05
4.04074e-05
4.28517e-05
4.52005e-05
4.74516e-05
4.95999e-05
5.1647e-05
5.3608e-05
5.54564e-05
5.72103e-05
5.88772e-05
6.04461e-05
6.19427e-05
6.33248e-05
6.46296e-05
6.57866e-05
6.68088e-05
6.75793e-05
6.80251e-05
6.80117e-05
6.73533e-05
6.58062e-05
6.30512e-05
5.865e-05
5.19074e-05
4.13622e-05
2.34501e-05
1.2954e-05
7.09961e-06
3.84391e-06
2.05219e-06
1.07853e-06
5.80344e-07
3.39267e-07
2.28718e-07
1.74798e-07
1.44968e-07
1.22947e-07
1.03877e-07
8.64296e-08
7.04014e-08
5.58909e-08
4.30916e-08
3.16296e-08
2.22329e-08
1.49157e-08
9.5473e-09
5.84872e-09
3.44906e-09
1.97137e-09
1.09909e-09
6.00851e-10
3.23348e-10
1.71762e-10
9.02001e-11
4.7019e-11
2.43457e-11
1.253e-11
6.41323e-12
3.26476e-12
1.65202e-12
8.29384e-13
4.11099e-13
1.98905e-13
9.13956e-14
3.69472e-14
8.50483e-15
5.10852e-10
1.97937e-09
4.22035e-09
7.76112e-09
1.33515e-08
2.21478e-08
3.59279e-08
5.74015e-08
9.06555e-08
1.40134e-07
2.12723e-07
3.185e-07
4.71114e-07
6.88256e-07
9.92e-07
1.40859e-06
1.96675e-06
2.69707e-06
3.62799e-06
4.78231e-06
6.1741e-06
7.80717e-06
9.67488e-06
1.17474e-05
1.40111e-05
1.63805e-05
1.88784e-05
2.15253e-05
2.41979e-05
2.69392e-05
2.96727e-05
3.24031e-05
3.50898e-05
3.77137e-05
4.02553e-05
4.27062e-05
4.50605e-05
4.73173e-05
4.94691e-05
5.15187e-05
5.34816e-05
5.53302e-05
5.70825e-05
5.87474e-05
6.03128e-05
6.18102e-05
6.3198e-05
6.45056e-05
6.56707e-05
6.67019e-05
6.7481e-05
6.79425e-05
6.7946e-05
6.73062e-05
6.57766e-05
6.30365e-05
5.86428e-05
5.18863e-05
4.12487e-05
2.32046e-05
1.28065e-05
7.00903e-06
3.78769e-06
2.01769e-06
1.05978e-06
5.71443e-07
3.36498e-07
2.28951e-07
1.75857e-07
1.45847e-07
1.23339e-07
1.03768e-07
8.59344e-08
6.96335e-08
5.48991e-08
4.19719e-08
3.0588e-08
2.13463e-08
1.42278e-08
9.06197e-09
5.53647e-09
3.26425e-09
1.86948e-09
1.04612e-09
5.74613e-10
3.10926e-10
1.66224e-10
8.80355e-11
4.61351e-11
2.39674e-11
1.23601e-11
6.33314e-12
3.22501e-12
1.63082e-12
8.18415e-13
4.0551e-13
1.961e-13
9.00845e-14
3.64159e-14
8.38197e-15
5.11869e-10
1.98351e-09
4.23001e-09
7.78077e-09
1.33885e-08
2.22132e-08
3.60363e-08
5.75678e-08
9.08854e-08
1.40445e-07
2.13067e-07
3.1875e-07
4.71047e-07
6.87331e-07
9.89257e-07
1.40232e-06
1.95543e-06
2.67836e-06
3.59866e-06
4.73845e-06
6.11137e-06
7.7207e-06
9.56355e-06
1.16201e-05
1.38668e-05
1.6222e-05
1.87126e-05
2.13453e-05
2.40092e-05
2.67495e-05
2.94716e-05
3.21918e-05
3.48713e-05
3.74994e-05
4.00459e-05
4.25011e-05
4.48592e-05
4.71203e-05
4.92741e-05
5.13246e-05
5.3288e-05
5.51362e-05
5.68853e-05
5.85452e-05
6.01128e-05
6.1608e-05
6.29932e-05
6.43015e-05
6.54639e-05
6.64994e-05
6.72868e-05
6.77579e-05
6.7777e-05
6.71555e-05
6.56427e-05
6.29184e-05
5.8532e-05
5.17494e-05
4.09562e-05
2.2837e-05
1.25725e-05
6.86045e-06
3.69173e-06
1.95822e-06
1.02796e-06
5.56329e-07
3.31586e-07
2.28757e-07
1.77081e-07
1.46811e-07
1.236e-07
1.03395e-07
8.51596e-08
6.87073e-08
5.34698e-08
4.07055e-08
2.94648e-08
2.04374e-08
1.35566e-08
8.60793e-09
5.25266e-09
3.09815e-09
1.77716e-09
9.96748e-10
5.48929e-10
2.97781e-10
1.59498e-10
8.45037e-11
4.43502e-11
2.30854e-11
1.19298e-11
6.1254e-12
3.1266e-12
1.58658e-12
7.97797e-13
3.95714e-13
1.9147e-13
8.79685e-14
3.55572e-14
8.18289e-15
5.11863e-10
1.98348e-09
4.22998e-09
7.78064e-09
1.33876e-08
2.22091e-08
3.60218e-08
5.75257e-08
9.0778e-08
1.40224e-07
2.1258e-07
3.17688e-07
4.68809e-07
6.8324e-07
9.82391e-07
1.39166e-06
1.9393e-06
2.65472e-06
3.5654e-06
4.69366e-06
6.05383e-06
7.65047e-06
9.47572e-06
1.15171e-05
1.37519e-05
1.60926e-05
1.85693e-05
2.11911e-05
2.38374e-05
2.65622e-05
2.92715e-05
3.19816e-05
3.4654e-05
3.72786e-05
3.98295e-05
4.22852e-05
4.4644e-05
4.69059e-05
4.90583e-05
5.11057e-05
5.30642e-05
5.49041e-05
5.66472e-05
5.8306e-05
5.9863e-05
6.13453e-05
6.27181e-05
6.40119e-05
6.51664e-05
6.61952e-05
6.69786e-05
6.74445e-05
6.74555e-05
6.68218e-05
6.52999e-05
6.25577e-05
5.81377e-05
5.12755e-05
4.02251e-05
2.22742e-05
1.22243e-05
6.65936e-06
3.53583e-06
1.86835e-06
9.81466e-07
5.3446e-07
3.23636e-07
2.2695e-07
1.77434e-07
1.46958e-07
1.23097e-07
1.02337e-07
8.37341e-08
6.70136e-08
5.19122e-08
3.92605e-08
2.81645e-08
1.93815e-08
1.2773e-08
8.07252e-09
4.91274e-09
2.89533e-09
1.66202e-09
9.3387e-10
5.156e-10
2.80515e-10
1.50709e-10
8.00903e-11
4.2155e-11
2.20003e-11
1.13951e-11
5.8617e-12
2.99562e-12
1.52038e-12
7.6494e-13
3.79703e-13
1.83874e-13
8.45455e-14
3.41963e-14
7.87283e-15
5.11032e-10
1.98026e-09
4.22307e-09
7.76763e-09
1.33642e-08
2.21669e-08
3.59449e-08
5.73832e-08
9.05109e-08
1.39718e-07
2.11693e-07
3.16204e-07
4.66465e-07
6.7953e-07
9.7658e-07
1.38273e-06
1.92596e-06
2.63543e-06
3.53852e-06
4.65771e-06
6.00779e-06
7.59405e-06
9.4097e-06
1.14367e-05
1.36527e-05
1.59719e-05
1.84227e-05
2.10331e-05
2.36716e-05
2.63869e-05
2.90875e-05
3.17884e-05
3.44538e-05
3.70711e-05
3.96189e-05
4.20787e-05
4.44384e-05
4.66993e-05
4.88484e-05
5.08909e-05
5.28418e-05
5.46729e-05
5.64037e-05
5.80472e-05
5.95859e-05
6.10471e-05
6.23999e-05
6.36708e-05
6.48025e-05
6.58027e-05
6.65499e-05
6.69732e-05
6.69316e-05
6.62374e-05
6.46365e-05
6.17938e-05
5.72377e-05
5.01581e-05
3.86363e-05
2.12655e-05
1.16255e-05
6.30007e-06
3.32647e-06
1.74885e-06
9.19044e-07
5.05101e-07
3.11776e-07
2.22387e-07
1.7586e-07
1.45563e-07
1.21391e-07
1.00368e-07
8.15352e-08
6.49133e-08
5.03748e-08
3.73351e-08
2.66417e-08
1.82446e-08
1.19778e-08
7.5521e-09
4.59242e-09
2.70814e-09
1.55706e-09
8.76849e-10
4.85356e-10
2.64762e-10
1.42616e-10
7.5975e-11
4.00786e-11
2.09584e-11
1.08741e-11
5.60152e-12
2.86581e-12
1.4557e-12
7.32848e-13
3.63944e-13
1.76306e-13
8.10874e-14
3.28033e-14
7.55228e-15
5.09431e-10
1.97408e-09
4.20985e-09
7.74308e-09
1.3321e-08
2.20926e-08
3.58173e-08
5.71613e-08
9.01344e-08
1.39103e-07
2.1073e-07
3.14758e-07
4.64274e-07
6.76186e-07
9.71512e-07
1.37516e-06
1.91484e-06
2.61939e-06
3.51578e-06
4.62602e-06
5.96434e-06
7.53475e-06
9.3308e-06
1.13423e-05
1.35479e-05
1.58589e-05
1.83045e-05
2.09057e-05
2.35325e-05
2.62376e-05
2.89305e-05
3.16236e-05
3.42853e-05
3.68984e-05
3.94472e-05
4.19035e-05
4.42596e-05
4.65158e-05
4.8658e-05
5.06906e-05
5.26316e-05
5.44496e-05
5.61635e-05
5.77869e-05
5.92996e-05
6.07272e-05
6.20426e-05
6.32681e-05
6.43495e-05
6.52907e-05
6.59737e-05
6.63241e-05
6.61949e-05
6.5381e-05
6.36193e-05
6.05613e-05
5.57074e-05
4.81728e-05
3.57926e-05
1.96541e-05
1.07275e-05
5.80277e-06
3.05749e-06
1.60478e-06
8.44472e-07
4.69335e-07
2.95483e-07
2.14582e-07
1.71254e-07
1.41932e-07
1.18138e-07
9.733e-08
7.88261e-08
6.24914e-08
4.81683e-08
3.55108e-08
2.52114e-08
1.71872e-08
1.12434e-08
7.07268e-09
4.29663e-09
2.5342e-09
1.45865e-09
8.22835e-10
4.56406e-10
2.49533e-10
1.34723e-10
7.19331e-11
3.80282e-11
1.99256e-11
1.03562e-11
5.3419e-12
2.73577e-12
1.39092e-12
7.00817e-13
3.48323e-13
1.68867e-13
7.77102e-14
3.14471e-14
7.24043e-15
5.0708e-10
1.96493e-09
4.19013e-09
7.70627e-09
1.32568e-08
2.19853e-08
3.56445e-08
5.68947e-08
8.97103e-08
1.3841e-07
2.09656e-07
3.1306e-07
4.61638e-07
6.72182e-07
9.65546e-07
1.36645e-06
1.90243e-06
2.60209e-06
3.49224e-06
4.59467e-06
5.92515e-06
7.48683e-06
9.27497e-06
1.12763e-05
1.3471e-05
1.57716e-05
1.82047e-05
2.07964e-05
2.34161e-05
2.6114e-05
2.87989e-05
3.14827e-05
3.41526e-05
3.67598e-05
3.93039e-05
4.17584e-05
4.41119e-05
4.63647e-05
4.84996e-05
5.0522e-05
5.24489e-05
5.42519e-05
5.59486e-05
5.75525e-05
5.9038e-05
6.04225e-05
6.17014e-05
6.2874e-05
6.38999e-05
6.47749e-05
6.53794e-05
6.56298e-05
6.53689e-05
6.43844e-05
6.23977e-05
5.90373e-05
5.37623e-05
4.55843e-05
3.20247e-05
1.76096e-05
9.62221e-06
5.20498e-06
2.74274e-06
1.43905e-06
7.61244e-07
4.2948e-07
2.77145e-07
2.03648e-07
1.64441e-07
1.36818e-07
1.13976e-07
9.37283e-08
7.57201e-08
5.97651e-08
4.6008e-08
3.37809e-08
2.38897e-08
1.62309e-08
1.0591e-08
6.6526e-09
4.04005e-09
2.3843e-09
1.37413e-09
7.76466e-10
4.31497e-10
2.3637e-10
1.27858e-10
6.83908e-11
3.62172e-11
1.90078e-11
9.89594e-12
5.11501e-12
2.62517e-12
1.33679e-12
6.74047e-13
3.35116e-13
1.62467e-13
7.4759e-14
3.02503e-14
6.96447e-15
5.04526e-10
1.955e-09
4.1687e-09
7.66604e-09
1.31856e-08
2.18629e-08
3.54369e-08
5.65444e-08
8.91386e-08
1.37485e-07
2.08079e-07
3.10539e-07
4.57743e-07
6.66321e-07
9.56947e-07
1.35415e-06
1.88538e-06
2.57917e-06
3.46248e-06
4.55756e-06
5.87927e-06
7.43297e-06
9.21535e-06
1.12121e-05
1.33979e-05
1.56863e-05
1.81132e-05
2.06977e-05
2.33093e-05
2.60007e-05
2.86918e-05
3.1374e-05
3.40444e-05
3.66494e-05
3.91904e-05
4.1643e-05
4.39927e-05
4.62358e-05
4.83662e-05
5.03878e-05
5.22935e-05
5.40855e-05
5.57665e-05
5.73469e-05
5.8811e-05
6.0167e-05
6.14142e-05
6.25396e-05
6.35172e-05
6.43271e-05
6.48475e-05
6.49934e-05
6.46002e-05
6.34458e-05
6.1237e-05
5.75805e-05
5.18947e-05
4.30846e-05
2.83454e-05
1.56235e-05
8.54792e-06
4.62695e-06
2.44045e-06
1.2827e-06
6.82251e-07
3.91202e-07
2.5794e-07
1.92907e-07
1.57441e-07
1.31577e-07
1.09665e-07
9.02261e-08
7.28428e-08
5.74072e-08
4.40071e-08
3.22156e-08
2.27207e-08
1.54017e-08
1.00344e-08
6.29898e-09
3.82614e-09
2.25999e-09
1.30411e-09
7.37962e-10
4.10713e-10
2.25314e-10
1.22047e-10
6.53669e-11
3.46564e-11
1.82073e-11
9.48693e-12
4.90591e-12
2.51876e-12
1.28349e-12
6.48077e-13
3.22535e-13
1.56452e-13
7.20082e-14
2.91415e-14
6.70966e-15
5.02247e-10
1.94618e-09
4.14983e-09
7.63104e-09
1.31246e-08
2.17596e-08
3.52652e-08
5.62627e-08
8.86824e-08
1.36687e-07
2.06834e-07
3.0864e-07
4.54916e-07
6.62195e-07
9.51027e-07
1.34583e-06
1.87397e-06
2.56394e-06
3.44279e-06
4.53374e-06
5.84946e-06
7.39865e-06
9.17315e-06
1.11595e-05
1.33407e-05
1.5626e-05
1.8047e-05
2.06238e-05
2.32307e-05
2.59136e-05
2.86238e-05
3.1299e-05
3.39665e-05
3.6569e-05
3.91078e-05
4.15599e-05
4.39081e-05
4.61481e-05
4.82746e-05
5.02905e-05
5.21853e-05
5.39645e-05
5.56281e-05
5.71919e-05
5.86344e-05
5.99662e-05
6.11795e-05
6.22669e-05
6.32035e-05
6.39641e-05
6.44312e-05
6.45037e-05
6.40145e-05
6.2734e-05
6.03627e-05
5.64939e-05
5.0518e-05
4.12517e-05
2.56145e-05
1.41238e-05
7.72842e-06
4.1808e-06
2.21005e-06
1.16192e-06
6.21463e-07
3.61416e-07
2.42986e-07
1.84484e-07
1.51694e-07
1.27206e-07
1.06238e-07
8.75117e-08
7.07521e-08
5.51606e-08
4.23161e-08
3.09683e-08
2.18252e-08
1.47823e-08
9.62423e-09
6.03892e-09
3.66772e-09
2.16675e-09
1.25075e-09
7.08109e-10
3.9432e-10
2.16448e-10
1.17316e-10
6.28709e-11
3.33528e-11
1.75319e-11
9.13907e-12
4.72733e-12
2.42758e-12
1.23727e-12
6.24684e-13
3.10948e-13
1.50892e-13
6.94771e-14
2.81239e-14
6.47632e-15
5.00383e-10
1.93903e-09
4.13475e-09
7.60353e-09
1.30773e-08
2.16809e-08
3.51356e-08
5.60489e-08
8.83254e-08
1.36084e-07
2.0586e-07
3.07119e-07
4.52597e-07
6.58756e-07
9.46072e-07
1.33888e-06
1.86443e-06
2.55114e-06
3.42605e-06
4.5117e-06
5.82389e-06
7.36576e-06
9.13522e-06
1.11201e-05
1.32969e-05
1.55781e-05
1.79958e-05
2.05686e-05
2.31739e-05
2.58553e-05
2.85679e-05
3.12429e-05
3.39107e-05
3.6513e-05
3.90514e-05
4.15037e-05
4.38551e-05
4.60941e-05
4.82185e-05
5.02327e-05
5.21223e-05
5.38946e-05
5.55518e-05
5.7106e-05
5.85363e-05
5.98522e-05
6.10501e-05
6.21179e-05
6.30305e-05
6.3761e-05
6.41887e-05
6.42138e-05
6.36652e-05
6.23133e-05
5.985e-05
5.58615e-05
4.97189e-05
4.0162e-05
2.38814e-05
1.31481e-05
7.17859e-06
3.86977e-06
2.04927e-06
1.07702e-06
5.78832e-07
3.40987e-07
2.32954e-07
1.79098e-07
1.48097e-07
1.24461e-07
1.04003e-07
8.56315e-08
6.9137e-08
5.38108e-08
4.12188e-08
3.01103e-08
2.11793e-08
1.4317e-08
9.30476e-09
5.83e-09
3.5371e-09
2.08821e-09
1.20503e-09
6.82197e-10
3.79945e-10
2.08616e-10
1.13114e-10
6.0646e-11
3.21877e-11
1.69273e-11
8.82721e-12
4.5671e-12
2.346e-12
1.19604e-12
6.04158e-13
3.00875e-13
1.46055e-13
6.72647e-14
2.72314e-14
6.27133e-15
4.98537e-10
1.93188e-09
4.11945e-09
7.57523e-09
1.30285e-08
2.15998e-08
3.50055e-08
5.58468e-08
8.80249e-08
1.35606e-07
2.0512e-07
3.05982e-07
4.50823e-07
6.56046e-07
9.42045e-07
1.33313e-06
1.85655e-06
2.54073e-06
3.41299e-06
4.49485e-06
5.80181e-06
7.3401e-06
9.10623e-06
1.10866e-05
1.32616e-05
1.55407e-05
1.79568e-05
2.05274e-05
2.31325e-05
2.58134e-05
2.85277e-05
3.12041e-05
3.38745e-05
3.64789e-05
3.90196e-05
4.14754e-05
4.383e-05
4.60703e-05
4.81956e-05
5.02113e-05
5.21009e-05
5.3873e-05
5.55286e-05
5.70798e-05
5.8506e-05
5.98176e-05
6.10099e-05
6.20708e-05
6.29747e-05
6.36926e-05
6.41063e-05
6.41138e-05
6.35429e-05
6.21606e-05
5.96589e-05
5.5621e-05
4.94061e-05
3.96984e-05
2.27895e-05
1.25339e-05
6.83502e-06
3.67771e-06
1.94956e-06
1.02077e-06
5.51225e-07
3.28467e-07
2.27313e-07
1.76512e-07
1.46425e-07
1.23124e-07
1.02834e-07
8.45875e-08
6.8205e-08
5.30855e-08
4.05799e-08
2.95686e-08
2.07422e-08
1.39826e-08
9.06419e-09
5.6673e-09
3.43305e-09
2.02464e-09
1.16758e-09
6.60756e-10
3.67949e-10
2.02034e-10
1.0956e-10
5.87535e-11
3.11924e-11
1.6411e-11
8.56426e-12
4.43612e-12
2.28134e-12
1.16405e-12
5.88056e-13
2.92791e-13
1.42099e-13
6.54324e-14
2.64866e-14
6.09964e-15
4.96928e-10
1.92567e-09
4.1062e-09
7.55078e-09
1.29862e-08
2.15292e-08
3.48898e-08
5.56598e-08
8.77058e-08
1.35083e-07
2.04321e-07
3.04835e-07
4.49275e-07
6.53894e-07
9.38975e-07
1.3286e-06
1.85013e-06
2.53209e-06
3.4014e-06
4.48095e-06
5.78502e-06
7.32062e-06
9.08462e-06
1.10628e-05
1.32355e-05
1.5513e-05
1.79282e-05
2.04977e-05
2.31035e-05
2.5785e-05
2.85017e-05
3.11806e-05
3.38541e-05
3.6462e-05
3.90064e-05
4.14664e-05
4.38261e-05
4.60702e-05
4.81992e-05
5.02194e-05
5.21124e-05
5.38876e-05
5.55462e-05
5.70997e-05
5.85289e-05
5.98436e-05
6.10393e-05
6.21038e-05
6.30112e-05
6.37315e-05
6.41487e-05
6.4158e-05
6.35857e-05
6.21973e-05
5.96836e-05
5.56233e-05
4.9363e-05
3.95216e-05
2.23253e-05
1.22532e-05
6.66654e-06
3.57854e-06
1.8924e-06
9.91651e-07
5.37133e-07
3.22824e-07
2.25522e-07
1.76309e-07
1.46413e-07
1.23006e-07
1.02568e-07
8.42047e-08
6.7742e-08
5.27525e-08
4.02347e-08
2.92361e-08
2.04486e-08
1.3747e-08
8.88999e-09
5.54719e-09
3.35491e-09
1.97616e-09
1.13862e-09
6.43962e-10
3.58448e-10
1.96768e-10
1.0669e-10
5.72089e-11
3.0367e-11
1.59733e-11
8.33486e-12
4.3182e-12
2.22073e-12
1.13322e-12
5.72759e-13
2.85323e-13
1.38529e-13
6.38049e-14
2.58313e-14
5.94911e-15
4.95572e-10
1.92043e-09
4.09506e-09
7.53028e-09
1.29508e-08
2.14703e-08
3.47939e-08
5.55064e-08
8.74409e-08
1.34642e-07
2.03628e-07
3.03779e-07
4.47695e-07
6.51658e-07
9.35962e-07
1.32479e-06
1.84509e-06
2.52528e-06
3.39249e-06
4.46925e-06
5.77138e-06
7.30526e-06
9.06655e-06
1.10435e-05
1.32151e-05
1.54922e-05
1.79077e-05
2.04771e-05
2.30844e-05
2.57673e-05
2.8487e-05
3.11692e-05
3.38468e-05
3.64587e-05
3.90078e-05
4.14732e-05
4.38387e-05
4.60882e-05
4.82228e-05
5.02487e-05
5.21477e-05
5.39295e-05
5.55954e-05
5.71567e-05
5.85941e-05
5.99176e-05
6.11227e-05
6.21968e-05
6.31145e-05
6.38467e-05
6.4275e-05
6.42946e-05
6.37317e-05
6.23495e-05
5.98368e-05
5.57693e-05
4.94788e-05
3.95305e-05
2.21331e-05
1.21318e-05
6.5893e-06
3.53006e-06
1.86264e-06
9.76856e-07
5.30597e-07
3.2123e-07
2.26036e-07
1.77583e-07
1.47489e-07
1.23716e-07
1.02953e-07
8.43243e-08
6.76698e-08
5.27017e-08
4.00893e-08
2.90469e-08
2.0258e-08
1.3581e-08
8.76037e-09
5.45452e-09
3.29313e-09
1.93717e-09
1.11503e-09
6.30166e-10
3.50594e-10
1.92397e-10
1.04308e-10
5.59403e-11
2.97123e-11
1.56417e-11
8.16486e-12
4.22997e-12
2.17536e-12
1.11e-12
5.60888e-13
2.79365e-13
1.35622e-13
6.24609e-14
2.52856e-14
5.82329e-15
4.94455e-10
1.91613e-09
4.08591e-09
7.51348e-09
1.29219e-08
2.14225e-08
3.47165e-08
5.53837e-08
8.72255e-08
1.34281e-07
2.03061e-07
3.02924e-07
4.46436e-07
6.49843e-07
9.33392e-07
1.32121e-06
1.84046e-06
2.51953e-06
3.38535e-06
4.4605e-06
5.76086e-06
7.29294e-06
9.0534e-06
1.10294e-05
1.32006e-05
1.54777e-05
1.78938e-05
2.04637e-05
2.30728e-05
2.57576e-05
2.84807e-05
3.11666e-05
3.38487e-05
3.64655e-05
3.90198e-05
4.14908e-05
4.38628e-05
4.61187e-05
4.82598e-05
5.02939e-05
5.22004e-05
5.399e-05
5.56634e-05
5.72327e-05
5.86806e-05
6.00167e-05
6.12368e-05
6.23256e-05
6.32591e-05
6.40055e-05
6.44479e-05
6.44821e-05
6.39314e-05
6.25581e-05
6.00501e-05
5.5977e-05
4.96594e-05
3.96144e-05
2.20658e-05
1.20849e-05
6.55656e-06
3.50524e-06
1.84611e-06
9.68049e-07
5.27316e-07
3.21387e-07
2.27602e-07
1.79571e-07
1.49085e-07
1.24864e-07
1.03682e-07
8.47302e-08
6.78253e-08
5.28187e-08
4.00675e-08
2.89431e-08
2.01254e-08
1.34539e-08
8.65647e-09
5.3784e-09
3.24171e-09
1.90447e-09
1.09517e-09
6.1851e-10
3.43941e-10
1.88682e-10
1.0227e-10
5.48377e-11
2.91202e-11
1.53292e-11
8.00692e-12
4.14984e-12
2.13457e-12
1.08907e-12
5.50344e-13
2.74128e-13
1.33085e-13
6.12931e-14
2.48129e-14
5.71441e-15
4.93548e-10
1.91263e-09
4.07848e-09
7.49985e-09
1.28985e-08
2.13838e-08
3.46541e-08
5.52851e-08
8.70517e-08
1.33991e-07
2.02606e-07
3.0224e-07
4.45435e-07
6.48407e-07
9.31379e-07
1.31845e-06
1.83681e-06
2.5146e-06
3.37929e-06
4.4536e-06
5.75293e-06
7.28399e-06
9.04348e-06
1.10189e-05
1.31902e-05
1.54676e-05
1.78845e-05
2.04553e-05
2.30666e-05
2.57537e-05
2.84802e-05
3.11699e-05
3.38565e-05
3.64782e-05
3.90378e-05
4.15147e-05
4.38933e-05
4.61561e-05
4.83048e-05
5.0347e-05
5.22614e-05
5.40588e-05
5.57418e-05
5.73199e-05
5.87766e-05
6.01208e-05
6.13743e-05
6.24745e-05
6.34214e-05
6.41822e-05
6.46401e-05
6.46878e-05
6.41482e-05
6.27826e-05
6.02747e-05
5.61943e-05
4.98494e-05
3.97149e-05
2.20598e-05
1.20816e-05
6.56511e-06
3.47142e-06
1.82828e-06
9.59497e-07
5.24588e-07
3.21863e-07
2.29293e-07
1.81615e-07
1.50801e-07
1.26151e-07
1.04577e-07
8.52873e-08
6.81101e-08
5.30245e-08
4.00741e-08
2.88514e-08
2.00027e-08
1.33373e-08
8.56273e-09
5.31083e-09
3.19669e-09
1.87617e-09
1.07812e-09
6.08579e-10
3.383e-10
1.85543e-10
1.00552e-10
5.39092e-11
2.86232e-11
1.50643e-11
7.86484e-12
4.07543e-12
2.09644e-12
1.07004e-12
5.40893e-13
2.69485e-13
1.30854e-13
6.02735e-14
2.44019e-14
5.61993e-15
4.92823e-10
1.90984e-09
4.07253e-09
7.48893e-09
1.28797e-08
2.13526e-08
3.46035e-08
5.52042e-08
8.69123e-08
1.33759e-07
2.02245e-07
3.017e-07
4.44648e-07
6.47283e-07
9.29807e-07
1.31631e-06
1.83388e-06
2.51093e-06
3.37465e-06
4.44795e-06
5.74658e-06
7.27696e-06
9.03599e-06
1.10113e-05
1.31828e-05
1.54609e-05
1.7879e-05
2.0451e-05
2.30644e-05
2.57538e-05
2.84836e-05
3.11771e-05
3.38679e-05
3.64942e-05
3.90589e-05
4.15414e-05
4.39269e-05
4.61963e-05
4.83516e-05
5.04011e-05
5.23233e-05
5.41296e-05
5.58215e-05
5.74094e-05
5.88774e-05
6.02346e-05
6.1502e-05
6.26155e-05
6.35758e-05
6.43498e-05
6.48208e-05
6.48801e-05
6.43494e-05
6.29896e-05
6.04825e-05
5.63924e-05
5.00191e-05
3.98016e-05
2.2069e-05
1.20816e-05
6.5603e-06
3.4664e-06
1.82351e-06
9.56805e-07
5.24292e-07
3.23206e-07
2.31221e-07
1.83662e-07
1.52468e-07
1.27423e-07
1.05503e-07
8.59413e-08
6.85781e-08
5.34026e-08
3.98268e-08
2.86627e-08
1.98527e-08
1.32219e-08
8.47878e-09
5.25335e-09
3.1594e-09
1.85303e-09
1.06428e-09
6.00527e-10
3.33725e-10
1.82995e-10
9.91563e-11
5.31561e-11
2.82216e-11
1.48523e-11
7.75381e-12
4.01782e-12
2.06683e-12
1.05499e-12
5.33326e-13
2.65737e-13
1.29043e-13
5.94423e-14
2.40659e-14
5.54242e-15
4.92268e-10
1.9077e-09
4.06799e-09
7.48059e-09
1.28654e-08
2.13289e-08
3.45653e-08
5.51438e-08
8.68062e-08
1.33582e-07
2.01969e-07
3.01288e-07
4.44047e-07
6.46429e-07
9.28621e-07
1.3147e-06
1.83174e-06
2.50818e-06
3.37121e-06
4.4438e-06
5.74176e-06
7.27177e-06
9.03061e-06
1.1006e-05
1.31779e-05
1.54567e-05
1.78759e-05
2.0449e-05
2.30644e-05
2.57559e-05
2.84886e-05
3.11854e-05
3.38799e-05
3.65102e-05
3.90795e-05
4.1567e-05
4.39577e-05
4.62323e-05
4.83937e-05
5.04497e-05
5.23786e-05
5.41923e-05
5.58923e-05
5.74891e-05
5.89672e-05
6.03349e-05
6.16125e-05
6.27373e-05
6.37093e-05
6.44946e-05
6.49766e-05
6.50458e-05
6.45226e-05
6.31657e-05
6.06571e-05
5.65569e-05
5.0157e-05
3.98656e-05
2.20777e-05
1.20823e-05
6.55688e-06
3.46447e-06
1.82145e-06
9.5579e-07
5.24725e-07
3.2467e-07
2.33018e-07
1.8542e-07
1.5391e-07
1.28522e-07
1.063e-07
8.64875e-08
6.89221e-08
5.35849e-08
3.98574e-08
2.86215e-08
1.97854e-08
1.31539e-08
8.42264e-09
5.21236e-09
3.13187e-09
1.83562e-09
1.05374e-09
5.94361e-10
3.30211e-10
1.81034e-10
9.80812e-11
5.2575e-11
2.79113e-11
1.46885e-11
7.66837e-12
3.97367e-12
2.04422e-12
1.0435e-12
5.27545e-13
2.62868e-13
1.27655e-13
5.88036e-14
2.38075e-14
5.48293e-15
4.91868e-10
1.90615e-09
4.06471e-09
7.47459e-09
1.28551e-08
2.13119e-08
3.45379e-08
5.51006e-08
8.67296e-08
1.33454e-07
2.01768e-07
3.00986e-07
4.43608e-07
6.45801e-07
9.2774e-07
1.31348e-06
1.83015e-06
2.50614e-06
3.36875e-06
4.44091e-06
5.73845e-06
7.26812e-06
9.02685e-06
1.10024e-05
1.31748e-05
1.54542e-05
1.78743e-05
2.04485e-05
2.30654e-05
2.57587e-05
2.84937e-05
3.11931e-05
3.38906e-05
3.65242e-05
3.9097e-05
4.15884e-05
4.39835e-05
4.62625e-05
4.84285e-05
5.04896e-05
5.24241e-05
5.42439e-05
5.59505e-05
5.75536e-05
5.90389e-05
6.04148e-05
6.17004e-05
6.28342e-05
6.3815e-05
6.46088e-05
6.50991e-05
6.51754e-05
6.46575e-05
6.33031e-05
6.07919e-05
5.66828e-05
5.02611e-05
3.99109e-05
2.20874e-05
1.20843e-05
6.55513e-06
3.46357e-06
1.82032e-06
9.55324e-07
5.25245e-07
3.25896e-07
2.34461e-07
1.8676e-07
1.55012e-07
1.29368e-07
1.06916e-07
8.6912e-08
6.9189e-08
5.37307e-08
3.99116e-08
2.86191e-08
1.97559e-08
1.31169e-08
8.389e-09
5.18634e-09
3.11372e-09
1.82383e-09
1.04647e-09
5.90043e-10
3.27723e-10
1.79636e-10
9.7311e-11
5.21589e-11
2.76903e-11
1.45725e-11
7.60786e-12
3.94231e-12
2.02808e-12
1.03526e-12
5.23387e-13
2.608e-13
1.26651e-13
5.83418e-14
2.36205e-14
5.43986e-15
4.91613e-10
1.90517e-09
4.06263e-09
7.47077e-09
1.28486e-08
2.13011e-08
3.45206e-08
5.50732e-08
8.66809e-08
1.33371e-07
2.01639e-07
3.00794e-07
4.43328e-07
6.45404e-07
9.27188e-07
1.31274e-06
1.82917e-06
2.5049e-06
3.36723e-06
4.43912e-06
5.73643e-06
7.26594e-06
9.02462e-06
1.10003e-05
1.3173e-05
1.54529e-05
1.78737e-05
2.04486e-05
2.30667e-05
2.57612e-05
2.84979e-05
3.1199e-05
3.38986e-05
3.65345e-05
3.91098e-05
4.16039e-05
4.40019e-05
4.62842e-05
4.84536e-05
5.05186e-05
5.24571e-05
5.4281e-05
5.5992e-05
5.75996e-05
5.90899e-05
6.04707e-05
6.17612e-05
6.29007e-05
6.38875e-05
6.46869e-05
6.51826e-05
6.52634e-05
6.47486e-05
6.33953e-05
6.08823e-05
5.67666e-05
5.03295e-05
3.99395e-05
2.20887e-05
1.20835e-05
6.55315e-06
3.46268e-06
1.81949e-06
9.55011e-07
5.25605e-07
3.26723e-07
2.35437e-07
1.87662e-07
1.55754e-07
1.29938e-07
1.07332e-07
8.71976e-08
6.9371e-08
5.38334e-08
3.99549e-08
2.86251e-08
1.97426e-08
1.30971e-08
8.36975e-09
5.17084e-09
3.10262e-09
1.8165e-09
1.0419e-09
5.87309e-10
3.2614e-10
1.78741e-10
9.68157e-11
5.18891e-11
2.75453e-11
1.44956e-11
7.56766e-12
3.92154e-12
2.01745e-12
1.02987e-12
5.20673e-13
2.59453e-13
1.25999e-13
5.80418e-14
2.34991e-14
5.41189e-15
4.9149e-10
1.9047e-09
4.06162e-09
7.46893e-09
1.28455e-08
2.12959e-08
3.45122e-08
5.50602e-08
8.66576e-08
1.33332e-07
2.01578e-07
3.00703e-07
4.43195e-07
6.45214e-07
9.26924e-07
1.31238e-06
1.82871e-06
2.50431e-06
3.3665e-06
4.43825e-06
5.73545e-06
7.2649e-06
9.02358e-06
1.09993e-05
1.31722e-05
1.54523e-05
1.78735e-05
2.04489e-05
2.30675e-05
2.57627e-05
2.85002e-05
3.12023e-05
3.39029e-05
3.654e-05
3.91166e-05
4.16121e-05
4.40117e-05
4.62955e-05
4.84667e-05
5.05336e-05
5.2474e-05
5.43e-05
5.60132e-05
5.76231e-05
5.91159e-05
6.04995e-05
6.17925e-05
6.29349e-05
6.39245e-05
6.47266e-05
6.52249e-05
6.53079e-05
6.47947e-05
6.34418e-05
6.09275e-05
5.68082e-05
5.0363e-05
3.99525e-05
2.20891e-05
1.2083e-05
6.55205e-06
3.46215e-06
1.81905e-06
9.54845e-07
5.25782e-07
3.27133e-07
2.35921e-07
1.88112e-07
1.56124e-07
1.30222e-07
1.07539e-07
8.73406e-08
6.94624e-08
5.38856e-08
3.99779e-08
2.86298e-08
1.97377e-08
1.30886e-08
8.36122e-09
5.16379e-09
3.0975e-09
1.8131e-09
1.03976e-09
5.86029e-10
3.25396e-10
1.7832e-10
9.65821e-11
5.17617e-11
2.74768e-11
1.44592e-11
7.54857e-12
3.91163e-12
2.01235e-12
1.02727e-12
5.19363e-13
2.58801e-13
1.25683e-13
5.7896e-14
2.344e-14
5.39827e-15
4.91492e-10
1.9047e-09
4.06164e-09
7.46896e-09
1.28455e-08
2.1296e-08
3.45124e-08
5.50604e-08
8.66579e-08
1.33333e-07
2.01579e-07
3.00703e-07
4.43196e-07
6.45216e-07
9.26926e-07
1.31238e-06
1.82871e-06
2.50431e-06
3.3665e-06
4.43826e-06
5.73547e-06
7.26492e-06
9.02361e-06
1.09993e-05
1.31722e-05
1.54524e-05
1.78736e-05
2.04489e-05
2.30676e-05
2.57628e-05
2.85003e-05
3.12024e-05
3.39031e-05
3.65402e-05
3.91168e-05
4.16123e-05
4.40119e-05
4.62958e-05
4.8467e-05
5.05339e-05
5.24744e-05
5.43004e-05
5.60136e-05
5.76236e-05
5.91164e-05
6.04999e-05
6.1793e-05
6.29353e-05
6.39249e-05
6.4727e-05
6.52254e-05
6.53084e-05
6.47951e-05
6.34422e-05
6.09279e-05
5.68086e-05
5.03634e-05
3.99528e-05
2.20892e-05
1.20831e-05
6.5521e-06
3.46218e-06
1.81907e-06
9.54854e-07
5.25785e-07
3.27134e-07
2.3592e-07
1.88112e-07
1.56123e-07
1.30222e-07
1.07539e-07
8.73405e-08
6.94624e-08
5.38857e-08
3.9978e-08
2.86299e-08
1.97378e-08
1.30886e-08
8.36127e-09
5.16383e-09
3.09753e-09
1.81311e-09
1.03977e-09
5.86034e-10
3.25399e-10
1.78321e-10
9.6583e-11
5.17622e-11
2.74771e-11
1.44594e-11
7.54864e-12
3.91167e-12
2.01237e-12
1.02728e-12
5.19368e-13
2.58803e-13
1.25684e-13
5.78965e-14
2.34402e-14
5.3983e-15
4.91619e-10
1.90519e-09
4.06268e-09
7.47086e-09
1.28487e-08
2.13014e-08
3.4521e-08
5.50739e-08
8.66818e-08
1.33373e-07
2.01641e-07
3.00797e-07
4.43332e-07
6.45408e-07
9.27193e-07
1.31274e-06
1.82918e-06
2.50491e-06
3.36725e-06
4.43915e-06
5.73647e-06
7.266e-06
9.02469e-06
1.10004e-05
1.31731e-05
1.5453e-05
1.78738e-05
2.04488e-05
2.30669e-05
2.57615e-05
2.84982e-05
3.11994e-05
3.3899e-05
3.6535e-05
3.91104e-05
4.16046e-05
4.40027e-05
4.62851e-05
4.84546e-05
5.05197e-05
5.24582e-05
5.42822e-05
5.59932e-05
5.76009e-05
5.90912e-05
6.04722e-05
6.17627e-05
6.29021e-05
6.38888e-05
6.46882e-05
6.51838e-05
6.52646e-05
6.47498e-05
6.33965e-05
6.08834e-05
5.67676e-05
5.03305e-05
3.99401e-05
2.20891e-05
1.20838e-05
6.55329e-06
3.46276e-06
1.81954e-06
9.55035e-07
5.25615e-07
3.26726e-07
2.35436e-07
1.87661e-07
1.55752e-07
1.29937e-07
1.07331e-07
8.71973e-08
6.93709e-08
5.38335e-08
3.99551e-08
2.86253e-08
1.97428e-08
1.30973e-08
8.36991e-09
5.17094e-09
3.10269e-09
1.81654e-09
1.04192e-09
5.87324e-10
3.26148e-10
1.78745e-10
9.68183e-11
5.18905e-11
2.75461e-11
1.4496e-11
7.56786e-12
3.92164e-12
2.0175e-12
1.02989e-12
5.20684e-13
2.59458e-13
1.26002e-13
5.8043e-14
2.34995e-14
5.41199e-15
4.91876e-10
1.90618e-09
4.06478e-09
7.4747e-09
1.28553e-08
2.13122e-08
3.45384e-08
5.51014e-08
8.67307e-08
1.33455e-07
2.0177e-07
3.00989e-07
4.43612e-07
6.45808e-07
9.2775e-07
1.3135e-06
1.83017e-06
2.50617e-06
3.36878e-06
4.44096e-06
5.73852e-06
7.26821e-06
9.02695e-06
1.10025e-05
1.31749e-05
1.54544e-05
1.78746e-05
2.04488e-05
2.30658e-05
2.57591e-05
2.84942e-05
3.11936e-05
3.38912e-05
3.65248e-05
3.90977e-05
4.15893e-05
4.39844e-05
4.62637e-05
4.84299e-05
5.04913e-05
5.2426e-05
5.42458e-05
5.59525e-05
5.75559e-05
5.90413e-05
6.04169e-05
6.17022e-05
6.28358e-05
6.38167e-05
6.46106e-05
6.51009e-05
6.51772e-05
6.46593e-05
6.33049e-05
6.07937e-05
5.66844e-05
5.02626e-05
3.99119e-05
2.2088e-05
1.20847e-05
6.55541e-06
3.46374e-06
1.82042e-06
9.55373e-07
5.25266e-07
3.25901e-07
2.3446e-07
1.86757e-07
1.55009e-07
1.29366e-07
1.06915e-07
8.69115e-08
6.91889e-08
5.37309e-08
3.9912e-08
2.86195e-08
1.97563e-08
1.31173e-08
8.38926e-09
5.18652e-09
3.11384e-09
1.82391e-09
1.04651e-09
5.90069e-10
3.27738e-10
1.79644e-10
9.73154e-11
5.21613e-11
2.76916e-11
1.45732e-11
7.60824e-12
3.94251e-12
2.02818e-12
1.03531e-12
5.2341e-13
2.6081e-13
1.26656e-13
5.83439e-14
2.36213e-14
5.44004e-15
4.92278e-10
1.90773e-09
4.06807e-09
7.48073e-09
1.28657e-08
2.13293e-08
3.4566e-08
5.5145e-08
8.68078e-08
1.33584e-07
2.01972e-07
3.01292e-07
4.44054e-07
6.46439e-07
9.28636e-07
1.31472e-06
1.83177e-06
2.50822e-06
3.37126e-06
4.44387e-06
5.74185e-06
7.27189e-06
9.03076e-06
1.10062e-05
1.31782e-05
1.5457e-05
1.78762e-05
2.04494e-05
2.30648e-05
2.57564e-05
2.84892e-05
3.1186e-05
3.38806e-05
3.6511e-05
3.90803e-05
4.15678e-05
4.39587e-05
4.62334e-05
4.8395e-05
5.04511e-05
5.23802e-05
5.41943e-05
5.58946e-05
5.74912e-05
5.89692e-05
6.0337e-05
6.16149e-05
6.27399e-05
6.37119e-05
6.44972e-05
6.49793e-05
6.50483e-05
6.4525e-05
6.31679e-05
6.06588e-05
5.65589e-05
5.01589e-05
3.9867e-05
2.20785e-05
1.20827e-05
6.55711e-06
3.46459e-06
1.82152e-06
9.55825e-07
5.24739e-07
3.24672e-07
2.33015e-07
1.85416e-07
1.53906e-07
1.28519e-07
1.06298e-07
8.6487e-08
6.89219e-08
5.3585e-08
3.98578e-08
2.8622e-08
1.97859e-08
1.31544e-08
8.42299e-09
5.2126e-09
3.13203e-09
1.83572e-09
1.0538e-09
5.94395e-10
3.3023e-10
1.81045e-10
9.80868e-11
5.25779e-11
2.79128e-11
1.46892e-11
7.66871e-12
3.97383e-12
2.0443e-12
1.04353e-12
5.2756e-13
2.62874e-13
1.27657e-13
5.88046e-14
2.38079e-14
5.483e-15
4.92834e-10
1.90988e-09
4.07262e-09
7.48909e-09
1.288e-08
2.13531e-08
3.46043e-08
5.52055e-08
8.69141e-08
1.33762e-07
2.02249e-07
3.01706e-07
4.44656e-07
6.47295e-07
9.29825e-07
1.31633e-06
1.83392e-06
2.51098e-06
3.37472e-06
4.44804e-06
5.74671e-06
7.27711e-06
9.03619e-06
1.10115e-05
1.31831e-05
1.54613e-05
1.78794e-05
2.04515e-05
2.30649e-05
2.57544e-05
2.84843e-05
3.11779e-05
3.38689e-05
3.64953e-05
3.90601e-05
4.15428e-05
4.39283e-05
4.61976e-05
4.8353e-05
5.04025e-05
5.23248e-05
5.41311e-05
5.58231e-05
5.74111e-05
5.88794e-05
6.02368e-05
6.15044e-05
6.26181e-05
6.35786e-05
6.43529e-05
6.4824e-05
6.48834e-05
6.43527e-05
6.29929e-05
6.04855e-05
5.63953e-05
5.00217e-05
3.98035e-05
2.207e-05
1.20821e-05
6.5606e-06
3.46655e-06
1.8236e-06
9.56851e-07
5.2431e-07
3.23209e-07
2.31218e-07
1.83655e-07
1.52463e-07