/*--------------------------------*- C++ -*----------------------------------*\
  =========                 |
  \\      /  F ield         | OpenFOAM: The Open Source CFD Toolbox
   \\    /   O peration     | Website:  https://openfoam.org
    \\  /    A nd           | Version:  10
     \\/     M anipulation  |
\*---------------------------------------------------------------------------*/
FoamFile
{
    format      ascii;
    class       volScalarField;
    location    "1";
    object      HCNN;
}
// * * * * * * * * * * * * * * * * * * * * * * * * * * * * * * * * * * * * * //

dimensions      [0 0 0 0 0 0 0];

internalField   nonuniform List<scalar> 
4000
(
3.18396e-32
1.23555e-31
2.65858e-31
5.01082e-31
9.07319e-31
1.64993e-30
3.10352e-30
6.16887e-30
1.31409e-29
2.96546e-29
7.13275e-29
1.841e-28
5.11581e-28
1.53188e-27
4.93698e-27
1.7063e-26
6.26862e-26
2.41228e-25
9.54778e-25
3.80314e-24
1.4897e-23
5.61705e-23
2.0036e-22
6.68897e-22
2.05855e-21
5.7444e-21
1.49829e-20
3.76473e-20
9.24555e-20
2.33318e-19
6.03361e-19
1.59461e-18
4.21074e-18
1.09257e-17
2.76448e-17
6.79819e-17
1.62387e-16
3.77269e-16
8.5307e-16
1.88239e-15
4.07013e-15
8.5764e-15
1.76548e-14
3.56658e-14
7.09497e-14
1.39833e-13
2.69094e-13
5.14594e-13
9.59765e-13
1.78768e-12
3.23164e-12
5.7392e-12
9.99019e-12
1.69528e-11
2.78331e-11
4.36568e-11
6.38414e-11
8.23226e-11
8.10205e-11
4.47632e-11
2.47621e-11
1.35813e-11
7.34698e-12
3.90042e-12
2.00605e-12
1.00517e-12
4.857e-13
2.25515e-13
9.70866e-14
4.01391e-14
1.54452e-14
5.47032e-15
1.76383e-15
5.10452e-16
1.30598e-16
2.93393e-17
5.41678e-18
8.46984e-19
1.12718e-19
1.29941e-20
1.33323e-21
1.25473e-22
1.11273e-23
9.49303e-25
7.90255e-26
6.47775e-27
5.25744e-28
4.22577e-29
3.38372e-30
2.70291e-31
2.15604e-32
1.71889e-33
1.37081e-34
1.09461e-35
8.76275e-37
7.0424e-38
5.68937e-39
4.61169e-40
3.73067e-41
2.53119e-42
3.16697e-32
1.22883e-31
2.64379e-31
4.98246e-31
9.02097e-31
1.64022e-30
3.08457e-30
6.12872e-30
1.30457e-29
2.94191e-29
7.06465e-29
1.81851e-28
5.03325e-28
1.49874e-27
4.79469e-27
1.64208e-26
5.96898e-26
2.27631e-25
8.94932e-25
3.55044e-24
1.38896e-23
5.24441e-23
1.87698e-22
6.26061e-22
1.93762e-21
5.4457e-21
1.43286e-20
3.64007e-20
9.01468e-20
2.29332e-19
5.9613e-19
1.58202e-18
4.19069e-18
1.09213e-17
2.77298e-17
6.83983e-17
1.63823e-16
3.81658e-16
8.64809e-16
1.91203e-15
4.14253e-15
8.74339e-15
1.8026e-14
3.64951e-14
7.26828e-14
1.4331e-13
2.75896e-13
5.28091e-13
9.85216e-13
1.83601e-12
3.31768e-12
5.89306e-12
1.02601e-11
1.74093e-11
2.85756e-11
4.47816e-11
6.53338e-11
8.3737e-11
8.12827e-11
4.48525e-11
2.47471e-11
1.35331e-11
7.29591e-12
3.85783e-12
1.97698e-12
9.85827e-13
4.7358e-13
2.18692e-13
9.34592e-14
3.83417e-14
1.45988e-14
5.12495e-15
1.63371e-15
4.6668e-16
1.17278e-16
2.56638e-17
4.61964e-18
7.04198e-19
9.15432e-20
1.03488e-20
1.04637e-21
9.75013e-23
8.59348e-24
7.30584e-25
6.07146e-26
4.97408e-27
4.03854e-28
3.27394e-29
2.64208e-30
2.12542e-31
1.7062e-32
1.36808e-33
1.09676e-34
8.7848e-36
7.05705e-37
5.69466e-38
4.61845e-39
3.76087e-40
3.05514e-41
2.07691e-42
3.14756e-32
1.22131e-31
2.62771e-31
4.95234e-31
8.9667e-31
1.63035e-30
3.06577e-30
6.08972e-30
1.29543e-29
2.91922e-29
6.99992e-29
1.79784e-28
4.96141e-28
1.47032e-27
4.67392e-27
1.58803e-26
5.7337e-26
2.17045e-25
8.46964e-25
3.33798e-24
1.29943e-23
4.89342e-23
1.75354e-22
5.88622e-22
1.8334e-21
5.19468e-21
1.38014e-20
3.53699e-20
8.83383e-20
2.26506e-19
5.91634e-19
1.57674e-18
4.19057e-18
1.09778e-17
2.79924e-17
6.93057e-17
1.66554e-16
3.89318e-16
8.84478e-16
1.9602e-15
4.2571e-15
9.00202e-15
1.85903e-14
3.77255e-14
7.51842e-14
1.48385e-13
2.86104e-13
5.48232e-13
1.02443e-12
1.91038e-12
3.45118e-12
6.13716e-12
1.0686e-11
1.81274e-11
2.97311e-11
4.64949e-11
6.75293e-11
8.56641e-11
8.10459e-11
4.46234e-11
2.45112e-11
1.33382e-11
7.14601e-12
3.75273e-12
1.91264e-12
9.46483e-13
4.50984e-13
2.06349e-13
8.73755e-14
3.54096e-14
1.3338e-14
4.60275e-15
1.44444e-15
4.08089e-16
9.7286e-17
2.09285e-17
3.6792e-18
5.4833e-19
6.99171e-20
7.78899e-21
7.79888e-22
7.22619e-23
6.35211e-24
5.39635e-25
4.48634e-26
3.67915e-27
2.99078e-28
2.41711e-29
1.9458e-30
1.56226e-31
1.25233e-32
1.00327e-33
8.04205e-35
6.4761e-36
5.23123e-37
4.24689e-38
3.46914e-39
2.8454e-40
2.32414e-41
1.58227e-42
3.12031e-32
1.21065e-31
2.60443e-31
4.90738e-31
8.88233e-31
1.61424e-30
3.03351e-30
6.02035e-30
1.27917e-29
2.87876e-29
6.88504e-29
1.7616e-28
4.83651e-28
1.42725e-27
4.51824e-27
1.52916e-26
5.49389e-26
2.0697e-25
8.04446e-25
3.16206e-24
1.2297e-23
4.63378e-23
1.66151e-22
5.59939e-22
1.75437e-21
5.00084e-21
1.33875e-20
3.46223e-20
8.71477e-20
2.25222e-19
5.9193e-19
1.58516e-18
4.22931e-18
1.11177e-17
2.84735e-17
7.0765e-17
1.70606e-16
4.00012e-16
9.11051e-16
2.02369e-15
4.40504e-15
9.33207e-15
1.92856e-14
3.91931e-14
7.82227e-14
1.54489e-13
2.98199e-13
5.71884e-13
1.06879e-12
1.99365e-12
3.60177e-12
6.40515e-12
1.11541e-11
1.89169e-11
3.09737e-11
4.83024e-11
6.97121e-11
8.70293e-11
7.91077e-11
4.33847e-11
2.37003e-11
1.28509e-11
6.77886e-12
3.53603e-12
1.79215e-12
8.79212e-13
4.15005e-13
1.87988e-13
7.92877e-14
3.168e-14
1.17078e-14
3.97922e-15
1.22807e-15
3.3835e-16
7.95433e-17
1.67361e-17
2.86052e-18
4.14997e-19
5.16896e-20
5.65277e-21
5.58521e-22
5.12979e-23
4.48485e-24
3.79795e-25
3.15193e-26
2.58252e-27
2.09857e-28
1.69603e-29
1.36567e-30
1.09701e-31
8.79996e-33
7.05697e-34
5.66459e-35
4.55873e-36
3.68587e-37
3.00086e-38
2.46341e-39
2.03332e-40
1.66975e-41
1.13827e-42
3.09066e-32
1.19912e-31
2.57944e-31
4.85947e-31
8.793e-31
1.59725e-30
2.99946e-30
5.94681e-30
1.26179e-29
2.83396e-29
6.76751e-29
1.72872e-28
4.73839e-28
1.39436e-27
4.39878e-27
1.48287e-26
5.30602e-26
1.99134e-25
7.71616e-25
3.02708e-24
1.17648e-23
4.43622e-23
1.59344e-22
5.37556e-22
1.68794e-21
4.83176e-21
1.30199e-20
3.40421e-20
8.65557e-20
2.25641e-19
5.97124e-19
1.60683e-18
4.30408e-18
1.13491e-17
2.91846e-17
7.27278e-17
1.75797e-16
4.13176e-16
9.42879e-16
2.09785e-15
4.57435e-15
9.70171e-15
2.0055e-14
4.08151e-14
8.14929e-14
1.60904e-13
3.10576e-13
5.95462e-13
1.11274e-12
2.07585e-12
3.7505e-12
6.66695e-12
1.16003e-11
1.96388e-11
3.20712e-11
4.9753e-11
7.10371e-11
8.64397e-11
7.34369e-11
4.00352e-11
2.17433e-11
1.17059e-11
6.13071e-12
3.17445e-12
1.60046e-12
7.79899e-13
3.65231e-13
1.63018e-13
6.86851e-14
2.71422e-14
9.90668e-15
3.31743e-15
9.97509e-16
2.68356e-16
6.38736e-17
1.24875e-17
2.0749e-18
2.93404e-19
3.57762e-20
3.85066e-21
3.76397e-22
3.43464e-23
2.99244e-24
2.53038e-25
2.09944e-26
1.72098e-27
1.39973e-28
1.13254e-29
9.13147e-31
7.34604e-32
5.90297e-33
4.74362e-34
3.81779e-35
3.0834e-36
2.50528e-37
2.05345e-38
1.70037e-39
1.41706e-40
1.17236e-41
8.00342e-43
3.0601e-32
1.18732e-31
2.55413e-31
4.81164e-31
8.70528e-31
1.58086e-30
2.96715e-30
5.87796e-30
1.24623e-29
2.79715e-29
6.67348e-29
1.70291e-28
4.65983e-28
1.36808e-27
4.30368e-27
1.44593e-26
5.15424e-26
1.92638e-25
7.43296e-25
2.90448e-24
1.12512e-23
4.23304e-23
1.52043e-22
5.15165e-22
1.62895e-21
4.70041e-21
1.27841e-20
3.37485e-20
8.66166e-20
2.27737e-19
6.06906e-19
1.64088e-18
4.41261e-18
1.16657e-17
3.00952e-17
7.52098e-17
1.82211e-16
4.29104e-16
9.80963e-16
2.18592e-15
4.77169e-15
1.01303e-14
2.0937e-14
4.26513e-14
8.51771e-14
1.68076e-13
3.24493e-13
6.20655e-13
1.15998e-12
2.16255e-12
3.90127e-12
6.91998e-12
1.2006e-11
2.02521e-11
3.28934e-11
5.0562e-11
7.09144e-11
8.26911e-11
6.16926e-11
3.38199e-11
1.84545e-11
9.97522e-12
5.23864e-12
2.71543e-12
1.36632e-12
6.63422e-13
3.08616e-13
1.36896e-13
5.72178e-14
2.23176e-14
8.04536e-15
2.64689e-15
7.85709e-16
2.07996e-16
4.81414e-17
9.1765e-18
1.48719e-18
2.05584e-19
2.46015e-20
2.61096e-21
2.52811e-22
2.29367e-23
1.99222e-24
1.68237e-25
1.3955e-26
1.14438e-27
9.3148e-29
7.54431e-30
6.09012e-31
4.90619e-32
3.94901e-33
3.17919e-34
2.5643e-35
2.07798e-36
1.6971e-37
1.40186e-38
1.17301e-39
9.89018e-41
8.2547e-42
5.64371e-43
3.0254e-32
1.1738e-31
2.52477e-31
4.75568e-31
8.6027e-31
1.562e-30
2.93149e-30
5.80742e-30
1.23045e-29
2.75827e-29
6.57329e-29
1.67426e-28
4.57216e-28
1.33935e-27
4.20279e-27
1.40819e-26
5.00602e-26
1.86612e-25
7.18497e-25
2.80374e-24
1.08635e-23
4.09124e-23
1.4729e-22
5.00323e-22
1.58846e-21
4.6097e-21
1.26286e-20
3.3653e-20
8.71812e-20
2.31112e-19
6.20164e-19
1.68355e-18
4.55944e-18
1.20735e-17
3.12023e-17
7.81478e-17
1.89632e-16
4.47103e-16
1.02375e-15
2.28433e-15
4.99121e-15
1.06061e-14
2.19265e-14
4.47159e-14
8.93868e-14
1.75676e-13
3.39421e-13
6.4732e-13
1.20984e-12
2.2535e-12
4.05913e-12
7.18611e-12
1.24363e-11
2.0899e-11
3.37453e-11
5.13536e-11
7.05996e-11
7.8292e-11
4.88385e-11
2.72768e-11
1.51001e-11
8.24901e-12
4.36775e-12
2.27321e-12
1.14782e-12
5.58405e-13
2.61317e-13
1.13162e-13
4.71418e-14
1.82379e-14
6.51731e-15
2.11474e-15
6.1807e-16
1.59442e-16
3.63281e-17
6.77431e-18
1.0743e-18
1.45622e-19
1.71491e-20
1.79874e-21
1.72827e-22
1.56101e-23
1.35293e-24
1.14173e-25
9.47262e-27
7.77381e-28
6.33416e-29
5.1365e-30
4.15214e-31
3.35021e-32
2.70172e-33
2.18207e-34
1.76898e-35
1.44288e-36
1.18767e-37
9.9064e-39
8.38651e-40
7.15775e-41
6.02735e-42
4.12584e-43
2.99211e-32
1.16081e-31
2.4964e-31
4.70067e-31
8.49864e-31
1.5419e-30
2.89063e-30
5.71846e-30
1.21001e-29
2.70781e-29
6.4331e-29
1.63444e-28
4.45197e-28
1.30064e-27
4.07019e-27
1.36018e-26
4.82463e-26
1.79562e-25
6.9085e-25
2.69676e-24
1.04598e-23
3.95002e-23
1.42792e-22
4.87305e-22
1.55415e-21
4.5372e-21
1.25408e-20
3.37429e-20
8.83248e-20
2.36262e-19
6.38365e-19
1.74081e-18
4.73299e-18
1.25629e-17
3.2529e-17
8.16485e-17
1.98476e-16
4.68985e-16
1.07412e-15
2.39822e-15
5.22028e-15
1.11049e-14
2.29617e-14
4.69506e-14
9.38207e-14
1.84344e-13
3.56012e-13
6.77017e-13
1.26587e-12
2.3579e-12
4.24694e-12
7.51348e-12
1.29873e-11
2.17835e-11
3.50647e-11
5.30638e-11
7.20875e-11
7.74827e-11
4.38175e-11
2.44114e-11
1.34838e-11
7.35206e-12
3.88752e-12
2.01972e-12
1.01585e-12
4.92373e-13
2.29112e-13
9.82221e-14
4.06164e-14
1.55812e-14
5.48875e-15
1.75949e-15
5.06738e-16
1.28923e-16
2.86966e-17
5.23478e-18
8.12861e-19
1.08157e-19
1.2549e-20
1.30229e-21
1.24279e-22
1.11825e-23
9.67521e-25
8.16164e-26
6.77408e-27
5.56384e-28
4.53837e-29
3.6848e-30
2.9827e-31
2.4103e-32
1.94724e-33
1.57558e-34
1.27999e-35
1.04763e-36
8.68209e-38
7.3099e-39
6.25872e-40
5.40398e-41
4.58848e-42
3.14457e-43
2.96523e-32
1.15039e-31
2.47383e-31
4.65742e-31
8.41794e-31
1.52654e-30
2.85996e-30
5.6531e-30
1.19504e-29
2.66904e-29
6.33436e-29
1.60724e-28
4.37178e-28
1.2753e-27
3.98449e-27
1.32941e-26
4.70902e-26
1.7508e-25
6.73282e-25
2.62929e-24
1.01989e-23
3.85772e-23
1.39604e-22
4.77508e-22
1.53092e-21
4.496e-21
1.25097e-20
3.39119e-20
8.94953e-20
2.41061e-19
6.60471e-19
1.80517e-18
4.92299e-18
1.30945e-17
3.39605e-17
8.5388e-17
2.08005e-16
4.90893e-16
1.12607e-15
2.51921e-15
5.48735e-15
1.16829e-14
2.41907e-14
4.94681e-14
9.88694e-14
1.94215e-13
3.75288e-13
7.13012e-13
1.33265e-12
2.48025e-12
4.46257e-12
7.89106e-12
1.36325e-11
2.28509e-11
3.67333e-11
5.54346e-11
7.48127e-11
7.90177e-11
4.36951e-11
2.41001e-11
1.31932e-11
7.13105e-12
3.75142e-12
1.93438e-12
9.65891e-13
4.6446e-13
2.14592e-13
9.11244e-14
3.72565e-14
1.41243e-14
4.92187e-15
1.55981e-15
4.46768e-16
1.07148e-16
2.34753e-17
4.21255e-18
6.44331e-19
8.46441e-20
9.7256e-21
1.00262e-21
9.53099e-23
8.56055e-24
7.40382e-25
6.2486e-26
5.1913e-27
4.26884e-28
3.48642e-29
2.83438e-30
2.2974e-31
1.85916e-32
1.50439e-33
1.21949e-34
9.93078e-36
8.15578e-37
6.78625e-38
5.74751e-39
4.9599e-40
4.31875e-41
3.68874e-42
2.52974e-43
2.94543e-32
1.14278e-31
2.4576e-31
4.62681e-31
8.3615e-31
1.51584e-30
2.83843e-30
5.60615e-30
1.18384e-29
2.64036e-29
6.25759e-29
1.58553e-28
4.30652e-28
1.25448e-27
3.914e-27
1.3041e-26
4.61343e-26
1.71339e-25
6.58447e-25
2.57046e-24
9.98562e-24
3.77915e-23
1.37163e-22
4.71118e-22
1.51642e-21
4.47706e-21
1.25415e-20
3.42565e-20
9.11609e-20
2.47334e-19
6.81843e-19
1.8712e-18
5.11822e-18
1.364e-17
3.54283e-17
8.92162e-17
2.17454e-16
5.13642e-16
1.17928e-15
2.64159e-15
5.75763e-15
1.22656e-14
2.53961e-14
5.19362e-14
1.03811e-13
2.03999e-13
3.94009e-13
7.48452e-13
1.39873e-12
2.60187e-12
4.68279e-12
8.2797e-12
1.43002e-11
2.3949e-11
3.84525e-11
5.78921e-11
7.76886e-11
8.08724e-11
4.45078e-11
2.44313e-11
1.33041e-11
7.14572e-12
3.75235e-12
1.92238e-12
9.53496e-13
4.55291e-13
2.08803e-13
8.81033e-14
3.57021e-14
1.34093e-14
4.62618e-15
1.44957e-15
4.0954e-16
9.66816e-17
2.08557e-17
3.68357e-18
5.55145e-19
7.19966e-20
8.18784e-21
8.37755e-22
7.9234e-23
7.09427e-24
6.1247e-25
5.16438e-26
4.28894e-27
3.52658e-28
2.88061e-29
2.34242e-30
1.89923e-31
1.53756e-32
1.24474e-33
1.00954e-34
8.22839e-36
6.76688e-37
5.64452e-38
4.79831e-39
4.1603e-40
3.64013e-41
3.11953e-42
2.14001e-43
2.92777e-32
1.13593e-31
2.44282e-31
4.5987e-31
8.3098e-31
1.50621e-30
2.81976e-30
5.56788e-30
1.17549e-29
2.61941e-29
6.20176e-29
1.56952e-28
4.25667e-28
1.23811e-27
3.85753e-27
1.28379e-26
4.53767e-26
1.68427e-25
6.47152e-25
2.52561e-24
9.81349e-24
3.72127e-23
1.35376e-22
4.6627e-22
1.50725e-21
4.47217e-21
1.26048e-20
3.46634e-20
9.29221e-20
2.53689e-19
7.0295e-19
1.9356e-18
5.30585e-18
1.41617e-17
3.68203e-17
9.2806e-17
2.2651e-16
5.35413e-16
1.22975e-15
2.75594e-15
6.00891e-15
1.28036e-14
2.65233e-14
5.42562e-14
1.08482e-13
2.13166e-13
4.11732e-13
7.82135e-13
1.46165e-12
2.7179e-12
4.89077e-12
8.64368e-12
1.49206e-11
2.49743e-11
4.00513e-11
6.01619e-11
8.03108e-11
8.25494e-11
4.50963e-11
2.47341e-11
1.34451e-11
7.20267e-12
3.78106e-12
1.92284e-12
9.49841e-13
4.51313e-13
2.05695e-13
8.65971e-14
3.48319e-14
1.29784e-14
4.43841e-15
1.37714e-15
3.84681e-16
9.03496e-17
1.92586e-17
3.35809e-18
4.99835e-19
6.40913e-20
7.21985e-21
7.33379e-22
6.90116e-23
6.15853e-24
5.30585e-25
4.46836e-26
3.70818e-27
3.04787e-28
2.48909e-29
2.02389e-30
1.64097e-31
1.32858e-32
1.07589e-33
8.73377e-35
7.12863e-36
5.87379e-37
4.90903e-38
4.18205e-39
3.63514e-40
3.18871e-41
2.73724e-42
1.87782e-43
2.91323e-32
1.13031e-31
2.4307e-31
4.57561e-31
8.26699e-31
1.49811e-30
2.80363e-30
5.53352e-30
1.16724e-29
2.59879e-29
6.14915e-29
1.55554e-28
4.21749e-28
1.22576e-27
3.81484e-27
1.26784e-26
4.47687e-26
1.66085e-25
6.37972e-25
2.49186e-24
9.69048e-24
3.68004e-23
1.34154e-22
4.63238e-22
1.50244e-21
4.47703e-21
1.26865e-20
3.50967e-20
9.46903e-20
2.59932e-19
7.23467e-19
1.99797e-18
5.48854e-18
1.46646e-17
3.81616e-17
9.62979e-17
2.35288e-16
5.56484e-16
1.27881e-15
2.86837e-15
6.25283e-15
1.332e-14
2.75922e-14
5.64327e-14
1.12847e-13
2.21749e-13
4.28302e-13
8.13575e-13
1.52015e-12
2.82473e-12
5.08324e-12
8.98182e-12
1.54949e-11
2.59077e-11
4.14867e-11
6.21475e-11
8.24948e-11
8.36127e-11
4.57192e-11
2.50426e-11
1.35899e-11
7.26449e-12
3.80265e-12
1.93149e-12
9.50526e-13
4.49627e-13
2.03783e-13
8.56895e-14
3.42518e-14
1.26751e-14
4.30189e-15
1.32289e-15
3.65106e-16
8.5728e-17
1.80919e-17
3.1201e-18
4.59312e-19
5.83192e-20
6.51729e-21
6.58063e-22
6.16662e-23
5.48795e-24
4.71997e-25
3.97075e-26
3.29313e-27
2.70578e-28
2.20928e-29
1.7962e-30
1.45609e-31
1.17854e-32
9.54021e-34
7.74388e-35
6.31962e-36
5.20702e-37
4.35476e-38
3.71471e-39
3.23455e-40
2.84251e-41
2.44322e-42
1.67643e-43
2.90143e-32
1.12574e-31
2.42084e-31
4.55681e-31
8.23205e-31
1.49148e-30
2.79044e-30
5.50547e-30
1.16038e-29
2.58132e-29
6.10314e-29
1.54278e-28
4.17988e-28
1.21428e-27
3.77806e-27
1.25545e-26
4.43051e-26
1.64268e-25
6.30871e-25
2.4644e-24
9.59465e-24
3.64861e-23
1.33208e-22
4.61131e-22
1.50016e-21
4.48735e-21
1.27753e-20
3.55243e-20
9.63726e-20
2.65781e-19
7.42523e-19
2.05562e-18
5.65628e-18
1.51329e-17
3.94239e-17
9.95093e-17
2.43218e-16
5.75399e-16
1.32269e-15
2.96667e-15
6.46997e-15
1.37897e-14
2.85809e-14
5.84645e-14
1.16894e-13
2.29636e-13
4.43369e-13
8.41754e-13
1.57216e-12
2.91945e-12
5.25082e-12
9.27254e-12
1.59878e-11
2.67124e-11
4.27213e-11
6.38495e-11
8.4276e-11
8.42792e-11
4.61362e-11
2.5253e-11
1.36892e-11
7.30552e-12
3.81506e-12
1.93631e-12
9.50039e-13
4.47766e-13
2.01975e-13
8.48993e-14
3.37527e-14
1.24181e-14
4.18534e-15
1.27714e-15
3.48943e-16
8.20019e-17
1.71449e-17
2.92821e-18
4.2704e-19
5.37681e-20
5.96744e-21
5.99421e-22
5.59669e-23
4.96877e-24
4.26688e-25
3.58616e-26
2.97248e-27
2.44146e-28
1.99304e-29
1.6202e-30
1.31378e-31
1.06412e-32
8.61928e-34
6.99863e-35
5.71411e-36
4.71108e-37
3.94247e-38
3.36598e-39
2.93406e-40
2.58122e-41
2.22018e-42
1.52341e-43
2.89206e-32
1.12212e-31
2.41305e-31
4.54197e-31
8.20457e-31
1.48629e-30
2.78013e-30
5.48363e-30
1.15494e-29
2.56737e-29
6.06636e-29
1.53259e-28
4.14988e-28
1.20488e-27
3.74679e-27
1.2445e-26
4.39175e-26
1.62848e-25
6.25502e-25
2.44429e-24
9.52275e-24
3.62518e-23
1.32578e-22
4.59842e-22
1.49982e-21
4.50055e-21
1.2863e-20
3.59218e-20
9.79044e-20
2.71054e-19
7.59616e-19
2.10727e-18
5.80653e-18
1.55442e-17
4.05026e-17
1.0227e-16
2.50094e-16
5.91787e-16
1.3604e-15
3.05289e-15
6.65738e-15
1.41868e-14
2.93987e-14
6.01244e-14
1.20251e-13
2.36325e-13
4.56493e-13
8.66426e-13
1.61775e-12
3.00096e-12
5.39538e-12
9.52405e-12
1.64109e-11
2.73963e-11
4.37618e-11
6.52481e-11
8.5679e-11
8.4642e-11
4.6384e-11
2.53785e-11
1.37472e-11
7.32287e-12
3.81625e-12
1.93342e-12
9.46212e-13
4.44584e-13
1.99684e-13
8.39654e-14
3.32385e-14
1.21682e-14
4.07949e-15
1.23673e-15
3.34912e-16
7.88307e-17
1.63561e-17
2.76939e-18
4.00506e-19
5.00484e-20
5.52025e-21
5.51906e-22
5.13603e-23
4.54967e-24
3.90132e-25
3.27584e-26
2.71356e-27
2.22785e-28
1.81811e-29
1.47767e-30
1.19781e-31
9.69734e-33
7.85665e-34
6.38127e-35
5.21202e-36
4.29808e-37
3.59891e-38
3.07528e-39
2.68357e-40
2.36349e-41
2.03446e-42
1.39607e-43
2.88473e-32
1.11929e-31
2.40695e-31
4.53038e-31
8.18312e-31
1.48224e-30
2.77211e-30
5.46667e-30
1.15069e-29
2.55642e-29
6.03751e-29
1.52461e-28
4.1264e-28
1.19753e-27
3.72242e-27
1.23598e-26
4.36086e-26
1.61676e-25
6.21248e-25
2.42932e-24
9.4707e-24
3.60869e-23
1.32136e-22
4.5907e-22
1.50051e-21
4.51443e-21
1.29442e-20
3.62753e-20
9.92203e-20
2.75519e-19
7.73975e-19
2.15018e-18
5.93059e-18
1.5888e-17
4.14101e-17
1.04594e-16
2.5582e-16
6.05356e-16
1.39165e-15
3.12231e-15
6.80624e-15
1.4497e-14
3.0033e-14
6.13714e-14
1.22635e-13
2.40745e-13
4.69187e-13
8.88149e-13
1.65682e-12
3.07056e-12
5.51905e-12
9.7371e-12
1.6767e-11
2.79672e-11
4.46116e-11
6.63723e-11
8.67543e-11
8.47871e-11
4.65096e-11
2.54555e-11
1.38145e-11
7.27895e-12
3.79228e-12
1.91968e-12
9.3821e-13
4.3994e-13
1.9698e-13
8.29162e-14
3.27091e-14
1.19279e-14
3.98033e-15
1.20034e-15
3.22711e-16
7.61522e-17
1.56657e-17
2.62778e-18
3.76695e-19
4.67113e-20
5.12025e-21
5.0954e-22
4.72623e-23
4.17732e-24
3.57667e-25
3.00018e-26
2.48347e-27
2.03792e-28
1.66249e-29
1.35082e-30
1.09476e-31
8.86181e-33
7.17649e-34
5.82712e-35
4.75909e-36
3.92656e-37
3.29062e-38
2.81535e-39
2.4607e-40
2.17082e-41
1.87083e-42
1.28402e-43
2.87911e-32
1.11712e-31
2.40228e-31
4.52148e-31
8.1666e-31
1.47911e-30
2.76587e-30
5.45335e-30
1.1474e-29
2.54794e-29
6.01513e-29
1.51842e-28
4.10822e-28
1.19185e-27
3.70361e-27
1.22943e-26
4.33678e-26
1.60801e-25
6.17954e-25
2.41738e-24
9.43101e-24
3.5966e-23
1.3184e-22
4.58689e-22
1.50195e-21
4.52868e-21
1.30197e-20
3.6594e-20
1.00407e-19
2.79543e-19
7.86785e-19
2.18865e-18
6.04092e-18
1.61889e-17
4.221e-17
1.06641e-16
2.60914e-16
6.17391e-16
1.41914e-15
3.18408e-15
6.94087e-15
1.47847e-14
3.06291e-14
6.25831e-14
1.25075e-13
2.45582e-13
4.78519e-13
9.05488e-13
1.68853e-12
3.12704e-12
5.61916e-12
9.90981e-12
1.70557e-11
2.84303e-11
4.53062e-11
6.72784e-11
8.75858e-11
8.47979e-11
4.65489e-11
2.54704e-11
1.38144e-11
7.27397e-12
3.7842e-12
1.91258e-12
9.33056e-13
4.36589e-13
1.94906e-13
8.21077e-14
3.22955e-14
1.17387e-14
3.90293e-15
1.17227e-15
3.13842e-16
7.43519e-17
1.45182e-17
2.4199e-18
3.44903e-19
4.25696e-20
4.65e-21
4.61667e-22
4.27643e-23
3.77743e-24
3.23387e-25
2.71311e-26
2.24664e-27
1.84441e-28
1.50542e-29
1.2239e-30
9.92517e-32
8.03962e-33
6.51568e-34
5.29543e-35
4.32983e-36
3.57781e-37
3.00438e-38
2.57706e-39
2.25916e-40
1.99889e-41
1.72621e-42
1.18528e-43
2.87499e-32
1.11553e-31
2.39886e-31
4.51499e-31
8.15463e-31
1.47686e-30
2.76139e-30
5.44384e-30
1.14499e-29
2.54167e-29
5.9985e-29
1.51381e-28
4.09469e-28
1.18763e-27
3.68969e-27
1.22459e-26
4.31925e-26
1.60154e-25
6.15559e-25
2.40878e-24
9.40217e-24
3.58829e-23
1.31654e-22
4.58558e-22
1.50365e-21
4.54169e-21
1.30848e-20
3.68597e-20
1.01379e-19
2.82807e-19
7.97234e-19
2.2199e-18
6.13094e-18
1.64363e-17
4.2867e-17
1.08317e-16
2.65018e-16
6.27094e-16
1.4416e-15
3.23463e-15
7.05085e-15
1.50189e-14
3.11154e-14
6.35712e-14
1.27048e-13
2.4943e-13
4.85747e-13
9.19065e-13
1.71354e-12
3.17163e-12
5.69835e-12
1.00469e-11
1.72853e-11
2.87965e-11
4.58527e-11
6.79876e-11
8.82153e-11
8.47258e-11
4.65359e-11
2.54568e-11
1.37998e-11
7.26606e-12
3.77692e-12
1.90687e-12
9.29076e-13
4.34054e-13
1.9339e-13
8.14153e-14
3.19486e-14
1.15829e-14
3.83988e-15
1.14948e-15
3.06586e-16
7.23284e-17
1.40367e-17
2.32498e-18
3.29441e-19
4.04536e-20
4.40099e-21
4.35651e-22
4.02723e-23
3.55252e-24
3.03866e-25
2.54789e-26
2.10903e-27
1.731e-28
1.41259e-29
1.14826e-30
9.31072e-32
7.54132e-33
6.11177e-34
4.96762e-35
4.06277e-36
3.35865e-37
2.82239e-38
2.42351e-39
2.12735e-40
1.88479e-41
1.62914e-42
1.11872e-43
2.87208e-32
1.1144e-31
2.39645e-31
4.51044e-31
8.14626e-31
1.47528e-30
2.75828e-30
5.43723e-30
1.1433e-29
2.53723e-29
5.9867e-29
1.51053e-28
4.085e-28
1.18459e-27
3.6796e-27
1.22106e-26
4.30671e-26
1.59694e-25
6.13904e-25
2.40292e-24
9.38276e-24
3.58271e-23
1.31539e-22
4.58555e-22
1.50524e-21
4.55239e-21
1.3136e-20
3.70671e-20
1.0213e-19
2.85323e-19
8.0525e-19
2.24387e-18
6.19997e-18
1.6626e-17
4.33685e-17
1.09596e-16
2.6817e-16
6.34571e-16
1.4587e-15
3.27303e-15
7.13454e-15
1.51966e-14
3.14836e-14
6.43082e-14
1.28513e-13
2.52288e-13
4.91113e-13
9.29172e-13
1.73214e-12
3.20473e-12
5.75716e-12
1.01485e-11
1.74555e-11
2.90689e-11
4.62563e-11
6.85067e-11
8.86607e-11
8.4627e-11
4.64969e-11
2.54308e-11
1.37806e-11
7.25608e-12
3.76963e-12
1.90184e-12
9.25805e-13
4.3207e-13
1.92277e-13
8.08288e-14
3.16656e-14
1.14586e-14
3.79044e-15
1.1318e-15
3.0104e-16
7.07906e-17
1.36857e-17
2.25826e-18
3.1883e-19
3.90263e-20
4.23486e-21
4.18412e-22
3.8628e-23
3.40455e-24
2.9105e-25
2.43959e-26
2.01895e-27
1.65683e-28
1.35195e-29
1.09892e-30
8.91068e-32
7.21765e-33
5.84987e-34
4.7552e-35
3.88963e-36
3.21634e-37
2.70391e-38
2.32312e-39
2.0407e-40
1.80933e-41
1.56468e-42
1.07449e-43
2.87018e-32
1.11367e-31
2.39488e-31
4.50749e-31
8.14087e-31
1.47428e-30
2.75632e-30
5.43312e-30
1.14225e-29
2.53448e-29
5.97938e-29
1.5085e-28
4.07903e-28
1.18273e-27
3.67344e-27
1.21892e-26
4.29904e-26
1.59414e-25
6.12885e-25
2.39935e-24
9.37126e-24
3.57956e-23
1.31482e-22
4.58613e-22
1.50649e-21
4.56013e-21
1.31721e-20
3.72117e-20
1.02651e-19
2.87058e-19
8.10742e-19
2.26017e-18
6.24693e-18
1.67551e-17
4.37098e-17
1.10461e-16
2.70301e-16
6.39623e-16
1.47034e-15
3.29923e-15
7.19131e-15
1.53164e-14
3.17298e-14
6.48026e-14
1.29491e-13
2.54179e-13
4.94637e-13
9.35807e-13
1.74437e-12
3.22647e-12
5.79575e-12
1.02151e-11
1.75667e-11
2.92462e-11
4.65191e-11
6.88425e-11
8.89413e-11
8.45453e-11
4.64519e-11
2.54038e-11
1.3763e-11
7.24699e-12
3.76363e-12
1.89797e-12
9.23412e-13
4.30667e-13
1.91503e-13
8.04246e-14
3.14718e-14
1.13742e-14
3.7571e-15
1.12001e-15
2.97375e-16
6.97813e-17
1.34589e-17
2.2153e-18
3.12051e-19
3.81212e-20
4.13012e-21
4.07582e-22
3.75972e-23
3.31189e-24
2.83033e-25
2.37189e-26
1.96268e-27
1.61053e-28
1.31411e-29
1.06814e-30
8.66093e-32
7.01528e-33
5.68594e-34
4.62221e-35
3.78128e-36
3.12732e-37
2.6298e-38
2.26032e-39
1.98646e-40
1.76205e-41
1.52427e-42
1.04678e-43
2.86907e-32
1.11324e-31
2.39396e-31
4.50576e-31
8.13773e-31
1.4737e-30
2.75521e-30
5.43087e-30
1.14169e-29
2.53307e-29
5.97573e-29
1.50751e-28
4.07614e-28
1.18183e-27
3.67048e-27
1.21791e-26
4.29538e-26
1.5928e-25
6.12395e-25
2.39763e-24
9.36576e-24
3.57809e-23
1.31458e-22
4.58656e-22
1.50717e-21
4.56413e-21
1.31905e-20
3.72846e-20
1.02911e-19
2.87925e-19
8.13491e-19
2.26838e-18
6.27052e-18
1.68197e-17
4.388e-17
1.10894e-16
2.71368e-16
6.42144e-16
1.47611e-15
3.31212e-15
7.21919e-15
1.53753e-14
3.18514e-14
6.50469e-14
1.29975e-13
2.55121e-13
4.9639e-13
9.39105e-13
1.75042e-12
3.23722e-12
5.81484e-12
1.02481e-11
1.76218e-11
2.93339e-11
4.66484e-11
6.9007e-11
8.90771e-11
8.44978e-11
4.64254e-11
2.5388e-11
1.37528e-11
7.24173e-12
3.76028e-12
1.89587e-12
9.22143e-13
4.29939e-13
1.91108e-13
8.02193e-14
3.1374e-14
1.13318e-14
3.74047e-15
1.11415e-15
2.95568e-16
6.92874e-17
1.33488e-17
2.19467e-18
3.08809e-19
3.76904e-20
4.08047e-21
4.02465e-22
3.7111e-23
3.26825e-24
2.7926e-25
2.34007e-26
1.93624e-27
1.58879e-28
1.29636e-29
1.0537e-30
8.54387e-32
6.92051e-33
5.60922e-34
4.55998e-35
3.73056e-36
3.08561e-37
2.59504e-38
2.23081e-39
1.96092e-40
1.73974e-41
1.50517e-42
1.03367e-43
2.86868e-32
1.11309e-31
2.39364e-31
4.50513e-31
8.13658e-31
1.4735e-30
2.75484e-30
5.4302e-30
1.14157e-29
2.53283e-29
5.97525e-29
1.50741e-28
4.07595e-28
1.1818e-27
3.67042e-27
1.2179e-26
4.29539e-26
1.59281e-25
6.124e-25
2.39765e-24
9.36582e-24
3.57811e-23
1.31459e-22
4.5866e-22
1.50718e-21
4.56418e-21
1.31907e-20
3.72852e-20
1.02913e-19
2.87931e-19
8.1351e-19
2.26844e-18
6.27067e-18
1.68201e-17
4.3881e-17
1.10896e-16
2.71374e-16
6.42157e-16
1.47614e-15
3.31217e-15
7.21929e-15
1.53756e-14
3.18518e-14
6.50476e-14
1.29977e-13
2.55123e-13
4.96395e-13
9.39113e-13
1.75044e-12
3.23724e-12
5.81488e-12
1.02482e-11
1.76219e-11
2.9334e-11
4.66486e-11
6.90071e-11
8.9077e-11
8.44975e-11
4.64252e-11
2.53879e-11
1.37528e-11
7.24166e-12
3.76024e-12
1.89586e-12
9.22138e-13
4.29938e-13
1.91109e-13
8.022e-14
3.13743e-14
1.1332e-14
3.74053e-15
1.11417e-15
2.95574e-16
6.92892e-17
1.33492e-17
2.19475e-18
3.08821e-19
3.7692e-20
4.08066e-21
4.02484e-22
3.71128e-23
3.26841e-24
2.79274e-25
2.34018e-26
1.93634e-27
1.58887e-28
1.29642e-29
1.05375e-30
8.5443e-32
6.92086e-33
5.6095e-34
4.56021e-35
3.73074e-36
3.08576e-37
2.59516e-38
2.23091e-39
1.96101e-40
1.73982e-41
1.50524e-42
1.03371e-43
2.86914e-32
1.11327e-31
2.394e-31
4.50582e-31
8.13787e-31
1.47375e-30
2.75539e-30
5.43147e-30
1.14194e-29
2.53391e-29
5.9783e-29
1.50829e-28
4.07863e-28
1.18266e-27
3.67333e-27
1.21892e-26
4.29907e-26
1.59416e-25
6.12897e-25
2.3994e-24
9.37142e-24
3.57962e-23
1.31484e-22
4.58622e-22
1.50653e-21
4.56026e-21
1.31726e-20
3.72133e-20
1.02656e-19
2.87077e-19
8.10803e-19
2.26036e-18
6.24743e-18
1.67564e-17
4.37134e-17
1.1047e-16
2.70324e-16
6.39677e-16
1.47045e-15
3.29941e-15
7.19165e-15
1.53171e-14
3.17311e-14
6.48052e-14
1.29496e-13
2.54189e-13
4.94654e-13
9.35834e-13
1.7444e-12
3.22652e-12
5.79583e-12
1.02153e-11
1.7567e-11
2.92466e-11
4.65193e-11
6.88424e-11
8.89404e-11
8.4543e-11
4.64507e-11
2.54032e-11
1.37627e-11
7.24681e-12
3.76355e-12
1.89794e-12
9.23398e-13
4.30662e-13
1.915e-13
8.04238e-14
3.14717e-14
1.13742e-14
3.75716e-15
1.12004e-15
2.97386e-16
6.97849e-17
1.34598e-17
2.21547e-18
3.1208e-19
3.81251e-20
4.13058e-21
4.0763e-22
3.76017e-23
3.3123e-24
2.83068e-25
2.37219e-26
1.96292e-27
1.61073e-28
1.31428e-29
1.06827e-30
8.66204e-32
7.01618e-33
5.68667e-34
4.6228e-35
3.78176e-36
3.1277e-37
2.63012e-38
2.26058e-39
1.98669e-40
1.76226e-41
1.52445e-42
1.0469e-43
2.87062e-32
1.11384e-31
2.39522e-31
4.50812e-31
8.14215e-31
1.47457e-30
2.75706e-30
5.43513e-30
1.14293e-29
2.53657e-29
5.98552e-29
1.51032e-28
4.08466e-28
1.18455e-27
3.67959e-27
1.22109e-26
4.30683e-26
1.59699e-25
6.1392e-25
2.40298e-24
9.38298e-24
3.5828e-23
1.31543e-22
4.58568e-22
1.50529e-21
4.55255e-21
1.31365e-20
3.7069e-20
1.02136e-19
2.8534e-19
8.05303e-19
2.24403e-18
6.20044e-18
1.66273e-17
4.33724e-17
1.09607e-16
2.682e-16
6.34647e-16
1.45889e-15
3.27349e-15
7.13539e-15
1.51981e-14
3.14859e-14
6.4314e-14
1.28521e-13
2.52294e-13
4.91115e-13
9.29167e-13
1.73216e-12
3.20478e-12
5.75725e-12
1.01487e-11
1.74558e-11
2.90693e-11
4.62568e-11
6.85068e-11
8.86592e-11
8.4623e-11
4.64948e-11
2.54298e-11
1.37801e-11
7.25586e-12
3.76953e-12
1.9018e-12
9.25789e-13
4.32065e-13
1.92276e-13
8.08291e-14
3.16662e-14
1.1459e-14
3.79061e-15
1.13186e-15
3.01063e-16
7.07976e-17
1.36874e-17
2.2586e-18
3.18886e-19
3.90339e-20
4.23575e-21
4.18504e-22
3.86369e-23
3.40534e-24
2.91119e-25
2.44017e-26
2.01943e-27
1.65723e-28
1.35227e-29
1.09918e-30
8.91281e-32
7.21939e-33
5.85129e-34
4.75637e-35
3.89059e-36
3.21713e-37
2.70457e-38
2.32368e-39
2.04119e-40
1.80975e-41
1.56503e-42
1.07473e-43
2.87334e-32
1.11488e-31
2.39748e-31
4.51243e-31
8.15017e-31
1.4761e-30
2.76014e-30
5.44177e-30
1.14464e-29
2.5411e-29
5.99759e-29
1.51368e-28
4.09457e-28
1.18765e-27
3.68984e-27
1.22465e-26
4.31949e-26
1.60163e-25
6.15586e-25
2.40887e-24
9.40249e-24
3.58841e-23
1.31658e-22
4.58572e-22
1.50369e-21
4.54182e-21
1.30851e-20
3.68607e-20
1.01381e-19
2.82813e-19
7.97246e-19
2.21992e-18
6.13096e-18
1.64362e-17
4.28662e-17
1.08314e-16
2.65027e-16
6.2712e-16
1.44167e-15
3.23482e-15
7.05136e-15
1.50204e-14
3.11185e-14
6.35736e-14
1.27051e-13
2.49438e-13
4.8577e-13
9.19113e-13
1.7136e-12
3.17172e-12
5.69848e-12
1.0047e-11
1.72853e-11
2.87962e-11
4.58513e-11
6.79866e-11
8.82127e-11
8.47205e-11
4.65332e-11
2.54554e-11
1.37991e-11
7.26573e-12
3.77677e-12
1.90681e-12
9.29054e-13
4.34048e-13
1.9339e-13
8.14161e-14
3.19494e-14
1.15834e-14
3.84012e-15
1.14957e-15
3.06618e-16
7.23381e-17
1.4039e-17
2.32546e-18
3.29519e-19
4.04643e-20
4.40225e-21
4.35782e-22
4.02848e-23
3.55365e-24
3.03964e-25
2.54872e-26
2.10972e-27
1.73156e-28
1.41305e-29
1.14864e-30
9.31373e-32
7.54374e-33
6.11371e-34
4.96918e-35
4.06404e-36
3.35968e-37
2.82324e-38
2.42421e-39
2.12794e-40
1.88528e-41
1.62955e-42
1.11899e-43
2.87741e-32
1.11646e-31
2.40086e-31
4.51888e-31
8.16212e-31
1.47837e-30
2.76466e-30
5.4514e-30
1.14708e-29
2.54743e-29
6.01436e-29
1.51832e-28
4.10816e-28
1.19188e-27
3.70378e-27
1.22949e-26
4.33701e-26
1.60809e-25
6.17986e-25
2.41749e-24
9.43143e-24
3.59674e-23
1.31845e-22
4.58705e-22
1.50199e-21
4.5288e-21
1.302e-20
3.65943e-20
1.00406e-19
2.79536e-19
7.86815e-19
2.18876e-18
6.04126e-18
1.61899e-17
4.22127e-17
1.06649e-16
2.60913e-16
6.1738e-16
1.4191e-15
3.18402e-15
6.94076e-15
1.47845e-14
3.06288e-14
6.25837e-14
1.25078e-13
2.45591e-13
4.78538e-13
9.05519e-13
1.68861e-12
3.12719e-12
5.6194e-12
9.91019e-12
1.70562e-11
2.84309e-11
4.53062e-11
6.72776e-11
8.75821e-11
8.47915e-11
4.65456e-11
2.54687e-11
1.38136e-11
7.27357e-12
3.78402e-12
1.91251e-12
9.33029e-13
4.36581e-13
1.94904e-13