/*--------------------------------*- C++ -*----------------------------------*\
  =========                 |
  \\      /  F ield         | OpenFOAM: The Open Source CFD Toolbox
   \\    /   O peration     | Website:  https://openfoam.org
    \\  /    A nd           | Version:  10
     \\/     M anipulation  |
\*---------------------------------------------------------------------------*/
FoamFile
{
    format      ascii;
    class       volScalarField;
    location    "1";
    object      HCNO;
}
// * * * * * * * * * * * * * * * * * * * * * * * * * * * * * * * * * * * * * //

dimensions      [0 0 0 0 0 0 0];

internalField   nonuniform List<scalar> 
4000
(
2.18561e-11
8.46822e-11
1.80536e-10
3.31925e-10
5.70838e-10
9.46606e-10
1.53514e-09
2.45222e-09
3.87277e-09
5.98548e-09
9.08725e-09
1.36114e-08
2.01456e-08
2.94546e-08
4.24956e-08
6.04112e-08
8.44699e-08
1.15967e-07
1.56082e-07
2.05725e-07
2.65402e-07
3.35124e-07
4.14398e-07
5.02739e-07
5.98576e-07
6.98423e-07
8.03153e-07
9.1308e-07
1.02356e-06
1.13581e-06
1.24672e-06
1.35652e-06
1.46377e-06
1.56725e-06
1.66635e-06
1.76067e-06
1.84991e-06
1.93394e-06
2.01254e-06
2.08579e-06
2.15426e-06
2.21712e-06
2.27515e-06
2.32891e-06
2.37894e-06
2.42687e-06
2.47278e-06
2.51971e-06
2.56908e-06
2.6266e-06
2.69316e-06
2.77262e-06
2.86465e-06
2.96066e-06
3.03586e-06
3.03634e-06
2.86685e-06
2.41153e-06
1.66244e-06
9.14994e-07
5.05111e-07
2.77768e-07
1.52814e-07
8.62625e-08
5.39482e-08
4.30981e-08
4.1959e-08
4.16002e-08
3.90245e-08
3.48153e-08
3.00302e-08
2.5366e-08
2.103e-08
1.70667e-08
1.35077e-08
1.03923e-08
7.61566e-09
5.3476e-09
3.586e-09
2.2956e-09
1.40718e-09
8.30727e-10
4.75491e-10
2.65539e-10
1.45425e-10
7.84052e-11
4.1727e-11
2.19563e-11
1.14647e-11
5.94498e-12
3.06358e-12
1.56974e-12
7.99837e-13
4.05041e-13
2.03472e-13
1.009e-13
4.88325e-14
2.24423e-14
9.07326e-15
2.08863e-15
2.18666e-11
8.47259e-11
1.8065e-10
3.3221e-10
5.71498e-10
9.47984e-10
1.53774e-09
2.45664e-09
3.87944e-09
5.99598e-09
9.10035e-09
1.36226e-08
2.01446e-08
2.94202e-08
4.23878e-08
6.01606e-08
8.39583e-08
1.15067e-07
1.54674e-07
2.03717e-07
2.62752e-07
3.31887e-07
4.10777e-07
4.98176e-07
5.93366e-07
6.92683e-07
7.97031e-07
9.07066e-07
1.01765e-06
1.13042e-06
1.24203e-06
1.35265e-06
1.46062e-06
1.56506e-06
1.6651e-06
1.76034e-06
1.85051e-06
1.93553e-06
2.01509e-06
2.08932e-06
2.15881e-06
2.22273e-06
2.28191e-06
2.33702e-06
2.38839e-06
2.4374e-06
2.48417e-06
2.5324e-06
2.58275e-06
2.64145e-06
2.70915e-06
2.78929e-06
2.88164e-06
2.97668e-06
3.04858e-06
3.04115e-06
2.85675e-06
2.38104e-06
1.61886e-06
8.91356e-07
4.91616e-07
2.70084e-07
1.48517e-07
8.40191e-08
5.31087e-08
4.31049e-08
4.21806e-08
4.16636e-08
3.8878e-08
3.45371e-08
2.9694e-08
2.50322e-08
2.0698e-08
1.67401e-08
1.3177e-08
1.00616e-08
7.32974e-09
5.11618e-09
3.41284e-09
2.17675e-09
1.33243e-09
7.87364e-10
4.52047e-10
2.53591e-10
1.39633e-10
7.57257e-11
4.05621e-11
2.15133e-11
1.12895e-11
5.87225e-12
3.03166e-12
1.55485e-12
7.92421e-13
4.01022e-13
2.01355e-13
9.98016e-14
4.82733e-14
2.21777e-14
8.96523e-15
2.06351e-15
2.19191e-11
8.49379e-11
1.8114e-10
3.33196e-10
5.7334e-10
9.51232e-10
1.54314e-09
2.46506e-09
3.89146e-09
6.0129e-09
9.12097e-09
1.36427e-08
2.01565e-08
2.94046e-08
4.23102e-08
5.99603e-08
8.35773e-08
1.14419e-07
1.53643e-07
2.02167e-07
2.6054e-07
3.28863e-07
4.06934e-07
4.93879e-07
5.88638e-07
6.87658e-07
7.91993e-07
9.01924e-07
1.01261e-06
1.12583e-06
1.23767e-06
1.3487e-06
1.45724e-06
1.56277e-06
1.66401e-06
1.76053e-06
1.85203e-06
1.93849e-06
2.01949e-06
2.09519e-06
2.16623e-06
2.23167e-06
2.29251e-06
2.34951e-06
2.40222e-06
2.45285e-06
2.5015e-06
2.55158e-06
2.60436e-06
2.6652e-06
2.73458e-06
2.81679e-06
2.90989e-06
3.00354e-06
3.06979e-06
3.04856e-06
2.83846e-06
2.32742e-06
1.54261e-06
8.49991e-07
4.68169e-07
2.56868e-07
1.4114e-07
8.02035e-08
5.17058e-08
4.30593e-08
4.24412e-08
4.16945e-08
3.86217e-08
3.41114e-08
2.92318e-08
2.45554e-08
2.02567e-08
1.6359e-08
1.27446e-08
9.71233e-09
7.03978e-09
4.89226e-09
3.25303e-09
2.07144e-09
1.26796e-09
7.50278e-10
4.31734e-10
2.42867e-10
1.34117e-10
7.29321e-11
3.91467e-11
2.07778e-11
1.09212e-11
5.69159e-12
2.94398e-12
1.51261e-12
7.72397e-13
3.91981e-13
1.97112e-13
9.7769e-14
4.73043e-14
2.17317e-14
8.78335e-15
2.02122e-15
2.19286e-11
8.4975e-11
1.81221e-10
3.33346e-10
5.73576e-10
9.51529e-10
1.54332e-09
2.4646e-09
3.88909e-09
6.00704e-09
9.10607e-09
1.36075e-08
2.00788e-08
2.92582e-08
4.20594e-08
5.95647e-08
8.29753e-08
1.13538e-07
1.5241e-07
2.00523e-07
2.58459e-07
3.26372e-07
4.03897e-07
4.90428e-07
5.84935e-07
6.83664e-07
7.87797e-07
8.97746e-07
1.00834e-06
1.12169e-06
1.23383e-06
1.34536e-06
1.45461e-06
1.56109e-06
1.66365e-06
1.76158e-06
1.85458e-06
1.94265e-06
2.0253e-06
2.10273e-06
2.17564e-06
2.24305e-06
2.30574e-06
2.36444e-06
2.41928e-06
2.4721e-06
2.52312e-06
2.57585e-06
2.63088e-06
2.69413e-06
2.76569e-06
2.84985e-06
2.94422e-06
3.03683e-06
3.09586e-06
3.0572e-06
2.81374e-06
2.25676e-06
1.44232e-06
7.95516e-07
4.37898e-07
2.40657e-07
1.31261e-07
7.52909e-08
4.99689e-08
4.29877e-08
4.26739e-08
4.16462e-08
3.82924e-08
3.36076e-08
2.86712e-08
2.40199e-08
1.97465e-08
1.58617e-08
1.23279e-08
9.35331e-09
6.73312e-09
4.65078e-09
3.07714e-09
1.9526e-09
1.19302e-09
7.05744e-10
4.06505e-10
2.291e-10
1.26817e-10
6.91464e-11
3.72165e-11
1.98064e-11
1.04369e-11
5.45164e-12
2.82547e-12
1.45405e-12
7.43272e-13
3.77268e-13
1.89805e-13
9.42038e-14
4.56102e-14
2.09672e-14
8.47904e-15
1.95185e-15
2.19023e-11
8.48733e-11
1.81003e-10
3.32934e-10
5.72828e-10
9.50162e-10
1.54078e-09
2.45977e-09
3.87983e-09
5.98916e-09
9.07414e-09
1.35531e-08
1.99916e-08
2.9119e-08
4.18406e-08
5.92284e-08
8.24744e-08
1.12818e-07
1.51416e-07
1.9921e-07
2.56805e-07
3.2439e-07
4.01644e-07
4.87786e-07
5.81821e-07
6.80061e-07
7.83671e-07
8.93661e-07
1.00446e-06
1.11811e-06
1.2307e-06
1.34279e-06
1.45283e-06
1.56025e-06
1.66414e-06
1.76348e-06
1.85797e-06
1.94764e-06
2.03195e-06
2.11111e-06
2.18588e-06
2.25515e-06
2.31985e-06
2.3808e-06
2.43789e-06
2.49297e-06
2.54627e-06
2.6014e-06
2.6589e-06
2.72506e-06
2.79988e-06
2.88699e-06
2.98329e-06
3.07462e-06
3.12621e-06
3.06765e-06
2.78555e-06
2.17554e-06
1.32637e-06
7.31953e-07
4.0282e-07
2.21086e-07
1.20787e-07
7.01124e-08
4.81893e-08
4.29309e-08
4.2875e-08
4.15434e-08
3.79331e-08
3.31086e-08
2.81494e-08
2.34989e-08
1.9223e-08
1.53904e-08
1.20009e-08
8.93872e-09
6.40981e-09
4.41071e-09
2.90925e-09
1.8424e-09
1.12487e-09
6.65684e-10
3.83896e-10
2.16731e-10
1.20208e-10
6.56777e-11
3.54207e-11
1.88863e-11
9.96917e-12
5.21527e-12
2.70647e-12
1.39427e-12
7.13291e-13
3.62266e-13
1.82339e-13
9.05294e-14
4.38434e-14
2.01594e-14
8.15364e-15
1.87697e-15
2.18421e-11
8.46406e-11
1.80506e-10
3.32008e-10
5.71196e-10
9.47346e-10
1.53592e-09
2.45128e-09
3.86534e-09
5.96532e-09
9.03666e-09
1.34967e-08
1.99061e-08
2.89887e-08
4.16437e-08
5.89356e-08
8.2048e-08
1.12209e-07
1.50564e-07
1.98044e-07
2.55241e-07
3.22311e-07
3.98961e-07
4.84691e-07
5.78545e-07
6.7672e-07
7.80421e-07
8.905e-07
1.00141e-06
1.11531e-06
1.22836e-06
1.34101e-06
1.45189e-06
1.56023e-06
1.66534e-06
1.76601e-06
1.86194e-06
1.95314e-06
2.0391e-06
2.12004e-06
2.19658e-06
2.26773e-06
2.33446e-06
2.39765e-06
2.45712e-06
2.51475e-06
2.57097e-06
2.62887e-06
2.68989e-06
2.75987e-06
2.83821e-06
2.92823e-06
3.02602e-06
3.11614e-06
3.15999e-06
3.08065e-06
2.75835e-06
2.0947e-06
1.21289e-06
6.70841e-07
3.69802e-07
2.03429e-07
1.11729e-07
6.58773e-08
4.69078e-08
4.3072e-08
4.31468e-08
4.14885e-08
3.75941e-08
3.26338e-08
2.76547e-08
2.30082e-08
1.8771e-08
1.49684e-08
1.16043e-08
8.6001e-09
6.13625e-09
4.20279e-09
2.76115e-09
1.7435e-09
1.0626e-09
6.28402e-10
3.62458e-10
2.0479e-10
1.13722e-10
6.22237e-11
3.36105e-11
1.79498e-11
9.48967e-12
4.97173e-12
2.58344e-12
1.33216e-12
6.81998e-13
3.46605e-13
1.74567e-13
8.67311e-14
4.20326e-14
1.93372e-14
7.82354e-15
1.80109e-15
2.17497e-11
8.4281e-11
1.7973e-10
3.30561e-10
5.68672e-10
9.43124e-10
1.52911e-09
2.44076e-09
3.84859e-09
5.93785e-09
8.99411e-09
1.34296e-08
1.98021e-08
2.88313e-08
4.14102e-08
5.85968e-08
8.15689e-08
1.11548e-07
1.49677e-07
1.96881e-07
2.53817e-07
3.20615e-07
3.97052e-07
4.82535e-07
5.7617e-07
6.74186e-07
7.77748e-07
8.87883e-07
9.98974e-07
1.11316e-06
1.22663e-06
1.33971e-06
1.45185e-06
1.56098e-06
1.66705e-06
1.76894e-06
1.86615e-06
1.95868e-06
2.04615e-06
2.12871e-06
2.20694e-06
2.27986e-06
2.34845e-06
2.41362e-06
2.47546e-06
2.5351e-06
2.59395e-06
2.65445e-06
2.71863e-06
2.79196e-06
2.87362e-06
2.96689e-06
3.06715e-06
3.15689e-06
3.19384e-06
3.09528e-06
2.73658e-06
2.02934e-06
1.13472e-06
6.27588e-07
3.4585e-07
1.90283e-07
1.04945e-07
6.28099e-08
4.6259e-08
4.34763e-08
4.35325e-08
4.14877e-08
3.7332e-08
3.22601e-08
2.72549e-08
2.25991e-08
1.83666e-08
1.45728e-08
1.1263e-08
8.30494e-09
5.896e-09
4.01966e-09
2.63072e-09
1.65648e-09
1.00785e-09
5.95603e-10
3.43561e-10
1.94226e-10
1.07952e-10
5.91301e-11
3.19761e-11
1.70968e-11
9.04915e-12
4.74649e-12
2.4696e-12
1.27566e-12
6.5429e-13
3.32971e-13
1.67794e-13
8.33786e-14
4.04052e-14
1.85861e-14
7.51892e-15
1.73086e-15
2.16472e-11
8.38825e-11
1.7887e-10
3.28946e-10
5.65811e-10
9.38205e-10
1.52078e-09
2.42671e-09
3.82569e-09
5.90078e-09
8.93094e-09
1.33288e-08
1.96469e-08
2.85986e-08
4.10706e-08
5.81145e-08
8.09055e-08
1.10665e-07
1.48546e-07
1.95494e-07
2.52139e-07
3.18697e-07
3.95003e-07
4.80431e-07
5.73915e-07
6.71734e-07
7.75339e-07
8.85553e-07
9.96824e-07
1.11132e-06
1.22549e-06
1.33916e-06
1.45212e-06
1.56207e-06
1.66906e-06
1.77208e-06
1.87054e-06
1.96458e-06
2.0534e-06
2.13737e-06
2.21653e-06
2.29109e-06
2.36136e-06
2.42855e-06
2.49202e-06
2.55352e-06
2.61425e-06
2.67665e-06
2.74328e-06
2.81956e-06
2.90456e-06
3.00097e-06
3.10339e-06
3.19255e-06
3.22291e-06
3.10678e-06
2.71673e-06
1.97837e-06
1.09287e-06
6.02686e-07
3.31169e-07
1.81853e-07
1.0059e-07
6.10392e-08
4.62779e-08
4.41992e-08
4.41095e-08
4.16637e-08
3.72161e-08
3.20144e-08
2.69525e-08
2.22809e-08
1.80433e-08
1.42543e-08
1.09552e-08
8.03838e-09
5.68034e-09
3.85659e-09
2.5155e-09
1.58019e-09
9.60132e-10
5.67091e-10
3.27124e-10
1.85009e-10
1.02893e-10
5.64006e-11
3.0524e-11
1.63333e-11
8.65161e-12
4.54108e-12
2.36398e-12
1.22139e-12
6.2655e-13
3.19022e-13
1.60971e-13
8.0061e-14
3.88137e-14
1.78566e-14
7.22445e-15
1.66316e-15
2.15545e-11
8.35241e-11
1.78103e-10
3.27523e-10
5.63329e-10
9.34008e-10
1.5138e-09
2.41528e-09
3.8072e-09
5.8684e-09
8.88039e-09
1.32518e-08
1.95327e-08
2.84326e-08
4.08336e-08
5.77834e-08
8.04554e-08
1.10071e-07
1.47788e-07
1.94594e-07
2.51037e-07
3.17467e-07
3.93547e-07
4.78695e-07
5.72135e-07
6.69985e-07
7.73587e-07
8.83785e-07
9.95182e-07
1.10973e-06
1.22533e-06
1.33927e-06
1.45276e-06
1.56335e-06
1.67112e-06
1.77507e-06
1.87467e-06
1.96944e-06
2.0594e-06
2.14476e-06
2.22522e-06
2.3012e-06
2.37317e-06
2.44185e-06
2.50696e-06
2.57003e-06
2.63287e-06
2.6972e-06
2.76582e-06
2.84415e-06
2.93083e-06
3.02896e-06
3.13218e-06
3.21967e-06
3.2427e-06
3.10945e-06
2.69128e-06
1.92986e-06
1.06318e-06
5.85056e-07
3.20766e-07
1.7583e-07
9.76861e-08
6.00112e-08
4.66116e-08
4.49956e-08
4.46899e-08
4.18678e-08
3.71604e-08
3.18419e-08
2.67371e-08
2.20535e-08
1.78318e-08
1.39043e-08
1.06676e-08
7.80693e-09
5.50131e-09
3.72492e-09
2.42389e-09
1.51978e-09
9.22164e-10
5.44177e-10
3.13742e-10
1.77397e-10
9.86566e-11
5.40834e-11
2.92758e-11
1.56697e-11
8.3028e-12
4.3594e-12
2.27e-12
1.17297e-12
6.01754e-13
3.06429e-13
1.5459e-13
7.68964e-14
3.72932e-14
1.71637e-14
6.94566e-15
1.5992e-15
2.14781e-11
8.32309e-11
1.77485e-10
3.26394e-10
5.61392e-10
9.30779e-10
1.50849e-09
2.40652e-09
3.7926e-09
5.84368e-09
8.84051e-09
1.31896e-08
1.94381e-08
2.82929e-08
4.06334e-08
5.75043e-08
8.00759e-08
1.09567e-07
1.47138e-07
1.93753e-07
2.50084e-07
3.16274e-07
3.92218e-07
4.77378e-07
5.70761e-07
6.68594e-07
7.72245e-07
8.82505e-07
9.94108e-07
1.10891e-06
1.22499e-06
1.33938e-06
1.45342e-06
1.5646e-06
1.67303e-06
1.77779e-06
1.87816e-06
1.97375e-06
2.06461e-06
2.15102e-06
2.23251e-06
2.3096e-06
2.38253e-06
2.45226e-06
2.51848e-06
2.58289e-06
2.64683e-06
2.71239e-06
2.78235e-06
2.86202e-06
2.95027e-06
3.04951e-06
3.15272e-06
3.23738e-06
3.2524e-06
3.10244e-06
2.65899e-06
1.87975e-06
1.0345e-06
5.6857e-07
3.11198e-07
1.70292e-07
9.52059e-08
5.92166e-08
4.69946e-08
4.57046e-08
4.51669e-08
4.20218e-08
3.71018e-08
3.16896e-08
2.65416e-08
2.18336e-08
1.75993e-08
1.36728e-08
1.04558e-08
7.62535e-09
5.35488e-09
3.61385e-09
2.34464e-09
1.46642e-09
8.88043e-10
5.23301e-10
3.01424e-10
1.70338e-10
9.47059e-11
5.19156e-11
2.81062e-11
1.50475e-11
7.97572e-12
4.18914e-12
2.18193e-12
1.12761e-12
5.78627e-13
2.94737e-13
1.48774e-13
7.40468e-14
3.59273e-14
1.65398e-14
6.69427e-15
1.54149e-15
2.14018e-11
8.29353e-11
1.76852e-10
3.25224e-10
5.59372e-10
9.27432e-10
1.50312e-09
2.39818e-09
3.78022e-09
5.82396e-09
8.80997e-09
1.31428e-08
1.93652e-08
2.8182e-08
4.04693e-08
5.72714e-08
7.97593e-08
1.09153e-07
1.46625e-07
1.93103e-07
2.4925e-07
3.1533e-07
3.91189e-07
4.76245e-07
5.69637e-07
6.67496e-07
7.71219e-07
8.81558e-07
9.93354e-07
1.10838e-06
1.2248e-06
1.33957e-06
1.45406e-06
1.56572e-06
1.67466e-06
1.78e-06
1.88106e-06
1.97734e-06
2.06888e-06
2.15601e-06
2.23819e-06
2.31595e-06
2.38961e-06
2.4601e-06
2.52716e-06
2.59233e-06
2.65707e-06
2.72348e-06
2.79433e-06
2.87489e-06
2.96386e-06
3.0633e-06
3.16553e-06
3.24684e-06
3.25377e-06
3.08844e-06
2.62389e-06
1.83414e-06
1.00266e-06
5.51e-07
3.01516e-07
1.65018e-07
9.28153e-08
5.83573e-08
4.72709e-08
4.62456e-08
4.54938e-08
4.20922e-08
3.7004e-08
3.15227e-08
2.63451e-08
2.16239e-08
1.73884e-08
1.34946e-08
1.02882e-08
7.47751e-09
5.2326e-09
3.51871e-09
2.27537e-09
1.41919e-09
8.57669e-10
5.04668e-10
2.90413e-10
1.64021e-10
9.11676e-11
4.99726e-11
2.70567e-11
1.44885e-11
7.68172e-12
4.03657e-12
2.10421e-12
1.08887e-12
5.59501e-13
2.85277e-13
1.44017e-13
7.16615e-14
3.47621e-14
1.60012e-14
6.47574e-15
1.49115e-15
2.13348e-11
8.26767e-11
1.76301e-10
3.24207e-10
5.57614e-10
9.24495e-10
1.49831e-09
2.39043e-09
3.76699e-09
5.80224e-09
8.77683e-09
1.30952e-08
1.93012e-08
2.80932e-08
4.03433e-08
5.70865e-08
7.94989e-08
1.08806e-07
1.46165e-07
1.92559e-07
2.48605e-07
3.146e-07
3.90406e-07
4.75419e-07
5.68789e-07
6.66662e-07
7.70451e-07
8.80863e-07
9.92828e-07
1.10804e-06
1.22475e-06
1.33984e-06
1.4547e-06
1.56675e-06
1.6761e-06
1.78193e-06
1.88355e-06
1.98037e-06
2.07246e-06
2.16023e-06
2.24293e-06
2.32117e-06
2.39529e-06
2.46623e-06
2.5338e-06
2.59948e-06
2.66473e-06
2.73165e-06
2.80298e-06
2.88389e-06
2.97317e-06
3.07243e-06
3.17329e-06
3.25081e-06
3.24956e-06
3.06938e-06
2.58439e-06
1.783e-06
9.75839e-07
5.35871e-07
2.93029e-07
1.60378e-07
9.04891e-08
5.76536e-08
4.74788e-08
4.6642e-08
4.56934e-08
4.20863e-08
3.6868e-08
3.13374e-08
2.61409e-08
2.14099e-08
1.71728e-08
1.33315e-08
1.01394e-08
7.34672e-09
5.12401e-09
3.43521e-09
2.21553e-09
1.37888e-09
8.31898e-10
4.88898e-10
2.81095e-10
1.58668e-10
8.81624e-11
4.83178e-11
2.61597e-11
1.40082e-11
7.42609e-12
3.90147e-12
2.03364e-12
1.05274e-12
5.40991e-13
2.75886e-13
1.39363e-13
6.9391e-14
3.36775e-14
1.55069e-14
6.27681e-15
1.44547e-15
2.12782e-11
8.24582e-11
1.75835e-10
3.23351e-10
5.56137e-10
9.22038e-10
1.49432e-09
2.38404e-09
3.75593e-09
5.78383e-09
8.74787e-09
1.30512e-08
1.92355e-08
2.80004e-08
4.02186e-08
5.69295e-08
7.92922e-08
1.08529e-07
1.45806e-07
1.92094e-07
2.48071e-07
3.14013e-07
3.89736e-07
4.74731e-07
5.68101e-07
6.66011e-07
7.69872e-07
8.80356e-07
9.9247e-07
1.10784e-06
1.22479e-06
1.34014e-06
1.45531e-06
1.56769e-06
1.67743e-06
1.78363e-06
1.88564e-06
1.98284e-06
2.07532e-06
2.16342e-06
2.24649e-06
2.32514e-06
2.39968e-06
2.47104e-06
2.53896e-06
2.60495e-06
2.67047e-06
2.73759e-06
2.80912e-06
2.89013e-06
2.97931e-06
3.07801e-06
3.17735e-06
3.25126e-06
3.24249e-06
3.04884e-06
2.5461e-06
1.7357e-06
9.51339e-07
5.22247e-07
2.85452e-07
1.56254e-07
8.84147e-08
5.69994e-08
4.75906e-08
4.68884e-08
4.57755e-08
4.20115e-08
3.66954e-08
3.11355e-08
2.59284e-08
2.11999e-08
1.6971e-08
1.31813e-08
1.00002e-08
7.22675e-09
5.02667e-09
3.36112e-09
2.16265e-09
1.34334e-09
8.09228e-10
4.75047e-10
2.72923e-10
1.5398e-10
8.55345e-11
4.68738e-11
2.53808e-11
1.35967e-11
7.21506e-12
3.79518e-12
1.97938e-12
1.02469e-12
5.2662e-13
2.68555e-13
1.35627e-13
6.75214e-14
3.27674e-14
1.5087e-14
6.10654e-15
1.40623e-15
2.12314e-11
8.22776e-11
1.75452e-10
3.22647e-10
5.54926e-10
9.20032e-10
1.49107e-09
2.3789e-09
3.7469e-09
5.7687e-09
8.72409e-09
1.30154e-08
1.91827e-08
2.79246e-08
4.01115e-08
5.67808e-08
7.91009e-08
1.08293e-07
1.45515e-07
1.9174e-07
2.47651e-07
3.13529e-07
3.89232e-07
4.74207e-07
5.67589e-07
6.65528e-07
7.6945e-07
8.79999e-07
9.92238e-07
1.10774e-06
1.22489e-06
1.34046e-06
1.45588e-06
1.56852e-06
1.67852e-06
1.785e-06
1.88734e-06
1.98482e-06
2.07757e-06
2.16601e-06
2.24935e-06
2.32823e-06
2.40295e-06
2.47444e-06
2.54255e-06
2.60875e-06
2.67453e-06
2.74181e-06
2.81345e-06
2.89436e-06
2.98337e-06
3.08154e-06
3.17945e-06
3.25014e-06
3.23481e-06
3.02951e-06
2.5114e-06
1.69342e-06
9.29312e-07
5.10084e-07
2.78751e-07
1.52546e-07
8.65422e-08
5.63519e-08
4.76193e-08
4.70215e-08
4.5764e-08
4.18812e-08
3.64999e-08
3.09261e-08
2.57247e-08
2.10019e-08
1.67826e-08
1.30429e-08
9.87345e-09
7.11618e-09
4.9372e-09
3.2934e-09
2.11464e-09
1.3113e-09
7.88922e-10
4.62715e-10
2.65683e-10
1.49844e-10
8.32225e-11
4.56044e-11
2.46939e-11
1.32291e-11
7.01947e-12
3.69269e-12
1.92788e-12
9.98694e-13
5.13438e-13
2.61813e-13
1.3224e-13
6.58437e-14
3.19563e-14
1.47145e-14
5.95595e-15
1.37157e-15
2.11932e-11
8.21305e-11
1.75139e-10
3.22073e-10
5.53941e-10
9.18403e-10
1.48845e-09
2.37475e-09
3.73957e-09
5.75642e-09
8.70486e-09
1.29865e-08
1.91405e-08
2.78641e-08
4.00269e-08
5.66652e-08
7.89482e-08
1.08087e-07
1.45264e-07
1.91456e-07
2.47328e-07
3.13169e-07
3.88839e-07
4.73803e-07
5.67197e-07
6.65164e-07
7.6914e-07
8.79741e-07
9.92088e-07
1.1077e-06
1.22501e-06
1.34075e-06
1.45636e-06
1.56921e-06
1.67941e-06
1.78612e-06
1.88869e-06
1.98639e-06
2.07937e-06
2.16802e-06
2.25153e-06
2.33053e-06
2.40539e-06
2.47693e-06
2.54502e-06
2.6111e-06
2.67798e-06
2.7451e-06
2.81664e-06
2.89739e-06
2.98624e-06
3.08389e-06
3.18053e-06
3.24841e-06
3.22743e-06
3.01224e-06
2.4815e-06
1.65798e-06
9.10713e-07
5.0006e-07
2.73851e-07
1.48492e-07
8.45797e-08
5.56335e-08
4.7555e-08
4.70553e-08
4.56837e-08
4.17179e-08
3.62936e-08
3.07206e-08
2.55294e-08
2.08208e-08
1.66147e-08
1.29181e-08
9.74883e-09
7.00628e-09
4.84962e-09
3.2286e-09
2.06974e-09
1.28193e-09
7.70623e-10
4.51752e-10
2.59317e-10
1.46237e-10
8.12193e-11
4.45099e-11
2.41039e-11
1.29145e-11
6.85294e-12
3.60477e-12
1.8811e-12
9.74341e-13
5.0102e-13
2.55635e-13
1.2918e-13
6.43432e-14
3.12365e-14
1.43857e-14
5.82348e-15
1.34113e-15
2.11626e-11
8.20124e-11
1.74888e-10
3.21612e-10
5.53147e-10
9.17084e-10
1.4863e-09
2.37133e-09
3.73366e-09
5.7466e-09
8.68955e-09
1.29636e-08
1.91071e-08
2.78164e-08
3.99602e-08
5.65745e-08
7.88247e-08
1.07933e-07
1.45069e-07
1.91219e-07
2.47063e-07
3.12877e-07
3.8853e-07
4.73491e-07
5.66899e-07
6.64898e-07
7.68924e-07
8.79574e-07
9.92008e-07
1.10771e-06
1.22515e-06
1.34103e-06
1.45679e-06
1.56979e-06
1.68016e-06
1.78703e-06
1.8898e-06
1.98766e-06
2.08078e-06
2.16956e-06
2.25319e-06
2.33233e-06
2.40727e-06
2.47888e-06
2.54707e-06
2.61325e-06
2.68022e-06
2.74739e-06
2.81895e-06
2.89963e-06
2.98838e-06
3.08568e-06
3.18135e-06
3.24695e-06
3.22129e-06
2.99787e-06
2.45645e-06
1.62784e-06
8.94851e-07
4.91267e-07
2.68967e-07
1.45901e-07
8.32652e-08
5.51528e-08
4.75159e-08
4.70665e-08
4.55966e-08
4.15684e-08
3.61152e-08
3.05473e-08
2.53713e-08
2.06826e-08
1.65019e-08
1.28455e-08
9.57309e-09
6.88374e-09
4.76357e-09
3.16967e-09
2.03071e-09
1.25706e-09
7.55356e-10
4.42676e-10
2.54064e-10
1.43263e-10
7.95669e-11
4.36064e-11
2.36169e-11
1.26551e-11
6.71616e-12
3.53325e-12
1.84397e-12
9.55205e-13
4.91237e-13
2.50682e-13
1.26698e-13
6.31166e-14
3.06447e-14
1.41144e-14
5.71391e-15
1.31587e-15
2.1139e-11
8.19216e-11
1.74695e-10
3.21258e-10
5.52539e-10
9.16078e-10
1.48468e-09
2.36876e-09
3.72915e-09
5.73905e-09
8.67777e-09
1.2946e-08
1.90815e-08
2.778e-08
3.99096e-08
5.65059e-08
7.87332e-08
1.07815e-07
1.44922e-07
1.91042e-07
2.46856e-07
3.12654e-07
3.88298e-07
4.7326e-07
5.66683e-07
6.64707e-07
7.68771e-07
8.79462e-07
9.91965e-07
1.10774e-06
1.22528e-06
1.34126e-06
1.45714e-06
1.57025e-06
1.68074e-06
1.78775e-06
1.89063e-06
1.9886e-06
2.08183e-06
2.17071e-06
2.25443e-06
2.33365e-06
2.40867e-06
2.48035e-06
2.54861e-06
2.61486e-06
2.68185e-06
2.74909e-06
2.8207e-06
2.90137e-06
2.99011e-06
3.0872e-06
3.18217e-06
3.24602e-06
3.21662e-06
2.98646e-06
2.43614e-06
1.60303e-06
8.81717e-07
4.83989e-07
2.64912e-07
1.43817e-07
8.2231e-08
5.47737e-08
4.74712e-08
4.70573e-08
4.55128e-08
4.14316e-08
3.59589e-08
3.03974e-08
2.52335e-08
2.05577e-08
1.63896e-08
1.2744e-08
9.47941e-09
6.80553e-09
4.70276e-09
3.12522e-09
2.00026e-09
1.23734e-09
7.43164e-10
4.35414e-10
2.49864e-10
1.40892e-10
7.82535e-11
4.28904e-11
2.32317e-11
1.24502e-11
6.60818e-12
3.4769e-12
1.81482e-12
9.40261e-13
4.8363e-13
2.46835e-13
1.2477e-13
6.21621e-14
3.01836e-14
1.39026e-14
5.6283e-15
1.29617e-15
2.1122e-11
8.18559e-11
1.74556e-10
3.21002e-10
5.521e-10
9.15352e-10
1.48351e-09
2.36691e-09
3.72587e-09
5.73354e-09
8.66914e-09
1.2933e-08
1.90626e-08
2.7753e-08
3.98717e-08
5.64534e-08
7.86646e-08
1.07727e-07
1.44815e-07
1.90916e-07
2.46712e-07
3.12493e-07
3.8813e-07
4.73095e-07
5.66531e-07
6.64575e-07
7.68672e-07
8.79393e-07
9.91947e-07
1.10777e-06
1.22538e-06
1.34144e-06
1.4574e-06
1.57059e-06
1.68118e-06
1.78827e-06
1.89124e-06
1.98929e-06
2.08259e-06
2.17155e-06
2.25534e-06
2.33462e-06
2.4097e-06
2.48141e-06
2.54973e-06
2.61603e-06
2.68304e-06
2.75034e-06
2.82202e-06
2.90271e-06
2.99147e-06
3.08843e-06
3.18291e-06
3.24545e-06
3.21321e-06
2.97787e-06
2.42087e-06
1.58448e-06
8.71832e-07
4.78504e-07
2.61866e-07
1.42255e-07
8.14545e-08
5.44858e-08
4.74255e-08
4.70341e-08
4.5438e-08
4.13152e-08
3.58321e-08
3.02773e-08
2.51236e-08
2.04579e-08
1.63006e-08
1.26655e-08
9.41166e-09
6.75075e-09
4.6606e-09
3.09449e-09
1.97908e-09
1.22349e-09
7.3452e-10
4.30221e-10
2.46839e-10
1.39173e-10
7.72966e-11
4.2367e-11
2.29498e-11
1.23006e-11
6.52992e-12
3.4363e-12
1.79386e-12
9.29484e-13
4.78117e-13
2.44037e-13
1.23363e-13
6.14645e-14
2.9846e-14
1.37474e-14
5.56553e-15
1.28172e-15
2.11111e-11
8.18139e-11
1.74466e-10
3.20838e-10
5.5182e-10
9.1489e-10
1.48277e-09
2.36574e-09
3.72377e-09
5.73001e-09
8.66361e-09
1.29248e-08
1.90505e-08
2.77358e-08
3.98478e-08
5.6421e-08
7.86219e-08
1.07673e-07
1.44748e-07
1.90837e-07
2.46621e-07
3.12394e-07
3.88026e-07
4.72993e-07
5.66437e-07
6.64495e-07
7.68612e-07
8.79354e-07
9.91942e-07
1.1078e-06
1.22546e-06
1.34156e-06
1.45757e-06
1.57083e-06
1.68146e-06
1.78861e-06
1.89164e-06
1.98974e-06
2.08309e-06
2.17211e-06
2.25594e-06
2.33526e-06
2.41039e-06
2.48212e-06
2.55047e-06
2.61681e-06
2.68383e-06
2.75117e-06
2.82291e-06
2.90363e-06
2.99242e-06
3.08932e-06
3.1835e-06
3.2452e-06
3.21111e-06
2.97238e-06
2.41096e-06
1.57239e-06
8.6517e-07
4.74808e-07
2.59818e-07
1.41206e-07
8.09352e-08
5.42903e-08
4.73878e-08
4.70106e-08
4.53814e-08
4.12325e-08
3.57437e-08
3.01947e-08
2.50487e-08
2.03907e-08
1.62411e-08
1.26137e-08
9.36804e-09
6.71529e-09
4.63359e-09
3.07496e-09
1.96565e-09
1.21468e-09
7.28992e-10
4.26886e-10
2.4489e-10
1.38063e-10
7.66773e-11
4.20274e-11
2.27663e-11
1.22026e-11
6.47806e-12
3.40915e-12
1.77982e-12
9.22285e-13
4.74458e-13
2.4219e-13
1.22437e-13
6.10066e-14
2.96248e-14
1.36458e-14
5.52443e-15
1.27225e-15
2.11058e-11
8.17935e-11
1.74423e-10
3.20759e-10
5.51684e-10
9.14666e-10
1.48241e-09
2.36517e-09
3.72276e-09
5.72831e-09
8.66094e-09
1.29208e-08
1.90447e-08
2.77275e-08
3.98363e-08
5.64055e-08
7.86015e-08
1.07646e-07
1.44716e-07
1.90797e-07
2.46576e-07
3.12345e-07
3.87975e-07
4.72943e-07
5.66391e-07
6.64456e-07
7.68584e-07
8.79336e-07
9.9194e-07
1.10782e-06
1.2255e-06
1.34162e-06
1.45766e-06
1.57094e-06
1.68161e-06
1.78878e-06
1.89184e-06
1.98997e-06
2.08334e-06
2.17238e-06
2.25623e-06
2.33558e-06
2.41072e-06
2.48247e-06
2.55083e-06
2.61719e-06
2.68422e-06
2.75159e-06
2.82336e-06
2.9041e-06
2.99291e-06
3.0898e-06
3.18385e-06
3.24517e-06
3.21016e-06
2.96982e-06
2.40612e-06
1.56644e-06
8.61877e-07
4.72979e-07
2.58803e-07
1.40684e-07
8.06759e-08
5.4192e-08
4.73672e-08
4.69966e-08
4.53511e-08
4.11896e-08
3.56986e-08
3.01528e-08
2.50111e-08
2.03573e-08
1.62118e-08
1.25885e-08
9.34707e-09
6.69845e-09
4.62072e-09
3.06571e-09
1.95932e-09
1.21053e-09
7.26389e-10
4.25315e-10
2.43972e-10
1.37539e-10
7.63851e-11
4.18669e-11
2.26794e-11
1.21561e-11
6.45347e-12
3.39627e-12
1.77313e-12
9.18841e-13
4.72699e-13
2.41298e-13
1.21989e-13
6.0784e-14
2.95169e-14
1.35962e-14
5.50433e-15
1.26762e-15
2.11058e-11
8.17936e-11
1.74423e-10
3.2076e-10
5.51685e-10
9.14668e-10
1.48241e-09
2.36518e-09
3.72277e-09
5.72831e-09
8.66095e-09
1.29208e-08
1.90447e-08
2.77275e-08
3.98363e-08
5.64054e-08
7.86015e-08
1.07646e-07
1.44715e-07
1.90797e-07
2.46576e-07
3.12345e-07
3.87975e-07
4.72942e-07
5.6639e-07
6.64455e-07
7.68583e-07
8.79335e-07
9.91939e-07
1.10782e-06
1.22549e-06
1.34162e-06
1.45766e-06
1.57094e-06
1.6816e-06
1.78877e-06
1.89184e-06
1.98997e-06
2.08334e-06
2.17238e-06
2.25623e-06
2.33557e-06
2.41071e-06
2.48246e-06
2.55083e-06
2.61719e-06
2.68421e-06
2.75158e-06
2.82335e-06
2.90409e-06
2.9929e-06
3.08978e-06
3.18381e-06
3.2451e-06
3.21008e-06
2.96967e-06
2.40605e-06
1.56641e-06
8.61862e-07
4.72972e-07
2.58798e-07
1.40683e-07
8.06738e-08
5.41909e-08
4.73667e-08
4.6996e-08
4.53504e-08
4.11892e-08
3.56984e-08
3.01527e-08
2.50109e-08
2.03572e-08
1.62117e-08
1.25885e-08
9.34706e-09
6.69844e-09
4.62073e-09
3.06572e-09
1.95932e-09
1.21053e-09
7.26392e-10
4.25317e-10
2.43973e-10
1.3754e-10
7.63855e-11
4.18672e-11
2.26796e-11
1.21562e-11
6.45351e-12
3.39629e-12
1.77314e-12
9.18846e-13
4.72701e-13
2.41299e-13
1.21989e-13
6.07842e-14
2.9517e-14
1.35962e-14
5.50434e-15
1.26762e-15
2.11112e-11
8.18142e-11
1.74467e-10
3.2084e-10
5.51823e-10
9.14894e-10
1.48277e-09
2.36575e-09
3.72379e-09
5.73002e-09
8.66362e-09
1.29248e-08
1.90505e-08
2.77358e-08
3.98477e-08
5.64208e-08
7.86217e-08
1.07672e-07
1.44748e-07
1.90836e-07
2.4662e-07
3.12393e-07
3.88025e-07
4.72991e-07
5.66435e-07
6.64492e-07
7.68609e-07
8.79351e-07
9.91937e-07
1.1078e-06
1.22545e-06
1.34155e-06
1.45757e-06
1.57082e-06
1.68146e-06
1.7886e-06
1.89163e-06
1.98974e-06
2.08308e-06
2.1721e-06
2.25593e-06
2.33525e-06
2.41037e-06
2.48211e-06
2.55045e-06
2.61679e-06
2.68381e-06
2.75115e-06
2.82288e-06
2.9036e-06
2.99239e-06
3.08929e-06
3.18346e-06
3.24515e-06
3.21105e-06
2.97231e-06
2.41089e-06
1.57235e-06
8.65152e-07
4.74798e-07
2.59813e-07
1.41203e-07
8.09323e-08
5.42884e-08
4.73861e-08
4.70091e-08
4.53799e-08
4.12316e-08
3.57431e-08
3.01942e-08
2.50484e-08
2.03905e-08
1.62409e-08
1.26136e-08
9.368e-09
6.71527e-09
4.6336e-09
3.07498e-09
1.96566e-09
1.21469e-09
7.29001e-10
4.26892e-10
2.44894e-10
1.38065e-10
7.66785e-11
4.20281e-11
2.27667e-11
1.22028e-11
6.47818e-12
3.40922e-12
1.77985e-12
9.223e-13
4.74465e-13
2.42193e-13
1.22438e-13
6.10071e-14
2.9625e-14
1.36459e-14
5.52447e-15
1.27226e-15
2.11221e-11
8.18562e-11
1.74556e-10
3.21003e-10
5.52102e-10
9.15355e-10
1.48352e-09
2.36692e-09
3.72587e-09
5.73353e-09
8.66912e-09
1.2933e-08
1.90625e-08
2.77529e-08
3.98716e-08
5.64533e-08
7.86643e-08
1.07727e-07
1.44814e-07
1.90915e-07
2.4671e-07
3.12491e-07
3.88127e-07
4.73092e-07
5.66527e-07
6.6457e-07
7.68666e-07
8.79387e-07
9.91939e-07
1.10777e-06
1.22537e-06
1.34142e-06
1.45738e-06
1.57058e-06
1.68116e-06
1.78825e-06
1.89122e-06
1.98928e-06
2.08257e-06
2.17154e-06
2.25532e-06
2.3346e-06
2.40968e-06
2.48139e-06
2.5497e-06
2.616e-06
2.683e-06
2.75029e-06
2.82197e-06
2.90266e-06
2.99141e-06
3.08837e-06
3.18285e-06
3.24538e-06
3.21313e-06
2.97777e-06
2.42076e-06
1.58439e-06
8.7179e-07
4.78483e-07
2.61855e-07
1.42251e-07
8.14528e-08
5.44839e-08
4.74231e-08
4.70319e-08
4.54361e-08
4.13139e-08
3.58312e-08
3.02766e-08
2.51231e-08
2.04575e-08
1.63003e-08
1.26653e-08
9.41162e-09
6.75077e-09
4.66064e-09
3.09453e-09
1.97912e-09
1.22352e-09
7.34539e-10
4.30233e-10
2.46847e-10
1.39177e-10
7.7299e-11
4.23683e-11
2.29505e-11
1.2301e-11
6.53014e-12
3.43642e-12
1.79393e-12
9.2952e-13
4.78136e-13
2.44046e-13
1.23367e-13
6.14663e-14
2.98468e-14
1.37477e-14
5.56564e-15
1.28174e-15
2.11391e-11
8.19219e-11
1.74696e-10
3.21258e-10
5.52541e-10
9.16081e-10
1.48469e-09
2.36877e-09
3.72915e-09
5.73905e-09
8.67775e-09
1.29459e-08
1.90814e-08
2.77799e-08
3.99095e-08
5.65057e-08
7.87329e-08
1.07815e-07
1.44921e-07
1.91041e-07
2.46855e-07
3.12652e-07
3.88295e-07
4.73256e-07
5.66678e-07
6.64701e-07
7.68764e-07
8.79454e-07
9.91954e-07
1.10773e-06
1.22526e-06
1.34124e-06
1.45712e-06
1.57023e-06
1.68072e-06
1.78771e-06
1.8906e-06
1.98857e-06
2.08179e-06
2.17068e-06
2.2544e-06
2.33362e-06
2.40864e-06
2.48031e-06
2.54856e-06
2.61481e-06
2.6818e-06
2.74903e-06
2.82064e-06
2.90131e-06
2.99004e-06
3.08712e-06
3.18209e-06
3.24593e-06
3.21652e-06
2.98634e-06
2.43601e-06
1.60293e-06
8.81667e-07
4.83963e-07
2.649e-07
1.4381e-07
8.22274e-08
5.47706e-08
4.74678e-08
4.70539e-08
4.551e-08
4.14295e-08
3.59573e-08
3.03962e-08
2.52327e-08
2.0557e-08
1.63892e-08
1.27438e-08
9.47933e-09
6.80554e-09
4.7028e-09
3.12528e-09
2.00031e-09
1.23738e-09
7.43188e-10
4.35429e-10
2.49874e-10
1.40897e-10
7.82565e-11
4.28921e-11
2.32326e-11
1.24506e-11
6.6084e-12
3.47699e-12
1.81486e-12
9.40277e-13
4.83636e-13
2.46838e-13
1.2477e-13
6.21622e-14
3.01835e-14
1.39025e-14
5.62824e-15
1.29615e-15
2.11626e-11
8.20125e-11
1.74888e-10
3.21612e-10
5.53148e-10
9.17086e-10
1.48631e-09
2.37134e-09
3.73367e-09
5.7466e-09
8.68954e-09
1.29636e-08
1.9107e-08
2.78163e-08
3.99601e-08
5.65742e-08
7.88243e-08
1.07932e-07
1.45068e-07
1.91218e-07
2.47061e-07
3.12874e-07
3.88526e-07
4.73486e-07
5.66893e-07
6.6489e-07
7.68914e-07
8.79563e-07
9.91994e-07
1.1077e-06
1.22513e-06
1.34101e-06
1.45677e-06
1.56976e-06
1.68013e-06
1.78701e-06
1.88976e-06
1.98762e-06
2.08073e-06
2.16951e-06
2.25314e-06
2.33227e-06
2.40721e-06
2.47882e-06
2.547e-06
2.61318e-06
2.68015e-06
2.74732e-06
2.81887e-06
2.89955e-06
2.98829e-06
3.08558e-06
3.18125e-06
3.24684e-06
3.22116e-06
2.99772e-06
2.45631e-06
1.62774e-06
8.94799e-07
4.9124e-07
2.68954e-07
1.45894e-07
8.3261e-08
5.5149e-08
4.75116e-08
4.70624e-08