/*--------------------------------*- C++ -*----------------------------------*\
  =========                 |
  \\      /  F ield         | OpenFOAM: The Open Source CFD Toolbox
   \\    /   O peration     | Website:  https://openfoam.org
    \\  /    A nd           | Version:  10
     \\/     M anipulation  |
\*---------------------------------------------------------------------------*/
FoamFile
{
    format      ascii;
    class       volScalarField;
    location    "1";
    object      HCO;
}
// * * * * * * * * * * * * * * * * * * * * * * * * * * * * * * * * * * * * * //

dimensions      [0 0 0 0 0 0 0];

internalField   nonuniform List<scalar> 
4000
(
2.6745e-16
1.03631e-15
2.20966e-15
4.06363e-15
6.99142e-15
1.16007e-14
1.88298e-14
3.01165e-14
4.7649e-14
7.3833e-14
1.12513e-13
1.69449e-13
2.52805e-13
3.73963e-13
5.48767e-13
7.99297e-13
1.15616e-12
1.66275e-12
2.38201e-12
3.40768e-12
4.88361e-12
7.03645e-12
1.02275e-11
1.50382e-11
2.22057e-11
3.22564e-11
4.55603e-11
6.13496e-11
7.65924e-11
8.84277e-11
9.46283e-11
9.59103e-11
9.51449e-11
9.53776e-11
9.8364e-11
1.0527e-10
1.17577e-10
1.37621e-10
1.69226e-10
2.18951e-10
2.98972e-10
4.27926e-10
6.39741e-10
9.90513e-10
1.56828e-09
2.52582e-09
4.05261e-09
6.51639e-09
1.02984e-08
1.62563e-08
2.50311e-08
3.78899e-08
5.61892e-08
8.10825e-08
1.12884e-07
1.49783e-07
1.85233e-07
2.03331e-07
1.7737e-07
1.09576e-07
6.67113e-08
3.89277e-08
2.18487e-08
1.18565e-08
6.19159e-09
3.15277e-09
1.57473e-09
8.12074e-10
4.86415e-10
2.99625e-10
1.50927e-10
6.43867e-11
2.44577e-11
8.40425e-12
2.63146e-12
7.68133e-13
2.05866e-13
5.53676e-14
1.57715e-14
4.80643e-15
1.52038e-15
4.82907e-16
1.50912e-16
4.60176e-17
1.36706e-17
3.96184e-18
1.1224e-18
3.11223e-19
8.49991e-20
2.28993e-20
6.09331e-21
1.60303e-21
4.17117e-22
1.07262e-22
2.71797e-23
6.73327e-24
1.60138e-24
3.50635e-25
6.38677e-26
6.04272e-27
2.67286e-16
1.03568e-15
2.20847e-15
4.06209e-15
6.9902e-15
1.16009e-14
1.8832e-14
3.01185e-14
4.76393e-14
7.38042e-14
1.12404e-13
1.69126e-13
2.52004e-13
3.72167e-13
5.45019e-13
7.91893e-13
1.14193e-12
1.63787e-12
2.34158e-12
3.34509e-12
4.78951e-12
6.89788e-12
1.00271e-11
1.4701e-11
2.16896e-11
3.15207e-11
4.46227e-11
6.03924e-11
7.58213e-11
8.80827e-11
9.47303e-11
9.62944e-11
9.56052e-11
9.57944e-11
9.87128e-11
1.05557e-10
1.17819e-10
1.37863e-10
1.69521e-10
2.19423e-10
2.99891e-10
4.29777e-10
6.43548e-10
9.98677e-10
1.58426e-09
2.55576e-09
4.10717e-09
6.61595e-09
1.04687e-08
1.65449e-08
2.54819e-08
3.85889e-08
5.72337e-08
8.25538e-08
1.14825e-07
1.52075e-07
1.87396e-07
2.04199e-07
1.7559e-07
1.08367e-07
6.56628e-08
3.81471e-08
2.13259e-08
1.15284e-08
6.00189e-09
3.04598e-09
1.51792e-09
7.8826e-10
4.78655e-10
2.90238e-10
1.43072e-10
6.02853e-11
2.2641e-11
7.69345e-12
2.37432e-12
6.79691e-13
1.80115e-13
4.82834e-14
1.38122e-14
4.2334e-15
1.34664e-15
4.30345e-16
1.35504e-16
4.16994e-17
1.25175e-17
3.66885e-18
1.05245e-18
2.96573e-19
8.19029e-20
2.22254e-20
5.94052e-21
1.56677e-21
4.08068e-22
1.04835e-22
2.65423e-23
6.56991e-24
1.5609e-24
3.41546e-25
6.21963e-26
5.88343e-27
2.67502e-16
1.0366e-15
2.21081e-15
4.06717e-15
7.00013e-15
1.16185e-14
1.88597e-14
3.01555e-14
4.76733e-14
7.38206e-14
1.12338e-13
1.68847e-13
2.51302e-13
3.70553e-13
5.41613e-13
7.85049e-13
1.13019e-12
1.61848e-12
2.30993e-12
3.29379e-12
4.70669e-12
6.76359e-12
9.81425e-12
1.43879e-11
2.12246e-11
3.08756e-11
4.38382e-11
5.95451e-11
7.51319e-11
8.77853e-11
9.48732e-11
9.67843e-11
9.62279e-11
9.63949e-11
9.92509e-11
1.06039e-10
1.18272e-10
1.38354e-10
1.70148e-10
2.20395e-10
3.01644e-10
4.33088e-10
6.5005e-10
1.0118e-09
1.60893e-09
2.60193e-09
4.1932e-09
6.7712e-09
1.07422e-08
1.70061e-08
2.62073e-08
3.97372e-08
5.89358e-08
8.49332e-08
1.17909e-07
1.55589e-07
1.90472e-07
2.04902e-07
1.71625e-07
1.05752e-07
6.36213e-08
3.6715e-08
2.03891e-08
1.09537e-08
5.68046e-09
2.86891e-09
1.42824e-09
7.51756e-10
4.65546e-10
2.75125e-10
1.3225e-10
5.45242e-11
2.01818e-11
6.80765e-12
2.01515e-12
5.75384e-13
1.52355e-13
4.12228e-14
1.19797e-14
3.72504e-15
1.198e-15
3.86111e-16
1.2247e-16
3.79461e-17
1.14639e-17
3.37943e-18
9.73716e-19
2.74775e-19
7.6099e-20
2.07252e-20
5.5607e-21
1.47213e-21
3.84987e-22
9.95036e-23
2.52902e-23
6.27359e-24
1.49219e-24
3.2661e-25
5.94686e-26
5.6241e-27
2.67178e-16
1.03534e-15
2.20807e-15
4.06196e-15
6.99049e-15
1.16004e-14
1.88247e-14
3.00864e-14
4.75371e-14
7.35718e-14
1.11854e-13
1.67888e-13
2.49393e-13
3.67189e-13
5.36086e-13
7.76542e-13
1.11698e-12
1.59809e-12
2.27885e-12
3.24708e-12
4.63721e-12
6.66084e-12
9.65257e-12
1.41419e-11
2.08634e-11
3.03603e-11
4.31767e-11
5.88433e-11
7.45366e-11
8.75226e-11
9.50476e-11
9.73176e-11
9.6917e-11
9.70871e-11
9.99024e-11
1.06674e-10
1.18928e-10
1.39121e-10
1.71178e-10
2.21988e-10
3.04401e-10
4.38109e-10
6.59361e-10
1.02951e-09
1.64232e-09
2.66332e-09
4.30498e-09
6.97015e-09
1.10778e-08
1.75639e-08
2.70894e-08
4.10891e-08
6.0933e-08
8.77169e-08
1.21406e-07
1.59433e-07
1.93456e-07
2.04312e-07
1.64712e-07
1.01306e-07
6.0527e-08
3.4772e-08
1.90214e-08
1.01612e-08
5.25062e-09
2.63902e-09
1.31478e-09
7.0778e-10
4.47946e-10
2.56498e-10
1.19317e-10
4.83014e-11
1.76085e-11
5.81787e-12
1.71159e-12
4.85076e-13
1.27923e-13
3.48225e-14
1.02398e-14
3.21653e-15
1.0417e-15
3.37451e-16
1.07538e-16
3.34849e-17
1.01704e-17
3.01495e-18
8.7365e-19
2.47913e-19
6.90223e-20
1.88888e-20
5.08951e-21
1.35211e-21
3.54461e-22
9.1665e-23
2.33198e-23
5.79207e-24
1.3796e-24
3.02389e-25
5.51234e-26
5.21621e-27
2.66465e-16
1.03257e-15
2.20213e-15
4.05081e-15
6.97052e-15
1.1565e-14
1.87616e-14
2.99725e-14
4.73288e-14
7.31856e-14
1.11193e-13
1.66806e-13
2.47714e-13
3.64527e-13
5.31849e-13
7.69835e-13
1.10648e-12
1.58188e-12
2.25423e-12
3.21017e-12
4.58246e-12
6.57989e-12
9.53264e-12
1.39506e-11
2.05539e-11
2.98866e-11
4.25138e-11
5.81402e-11
7.39769e-11
8.72944e-11
9.52424e-11
9.7862e-11
9.76289e-11
9.78326e-11
1.00658e-10
1.07432e-10
1.19752e-10
1.40128e-10
1.72565e-10
2.2412e-10
3.08007e-10
4.44464e-10
6.70954e-10
1.05128e-09
1.6821e-09
2.7345e-09
4.43068e-09
7.18763e-09
1.14427e-08
1.81703e-08
2.8056e-08
4.25672e-08
6.30819e-08
9.06113e-08
1.24955e-07
1.63019e-07
1.95418e-07
2.01216e-07
1.53521e-07
9.43004e-08
5.6012e-08
3.19415e-08
1.73533e-08
9.21056e-09
4.74219e-09
2.37702e-09
1.19065e-09
6.61299e-10
4.26164e-10
2.36212e-10
1.07054e-10
4.25109e-11
1.513e-11
4.90805e-12
1.47153e-12
3.96112e-13
1.04711e-13
2.89321e-14
8.67494e-15
2.76791e-15
9.0594e-16
2.95658e-16
9.47855e-17
2.96739e-17
9.05904e-18
2.69861e-18
7.85573e-19
2.23868e-19
6.25683e-20
1.71813e-20
4.64315e-21
1.23654e-21
3.24787e-22
8.4113e-23
2.14218e-23
5.32509e-24
1.26921e-24
2.78332e-25
5.07554e-26
4.80312e-27
2.65408e-16
1.02849e-15
2.19342e-15
4.03465e-15
6.9422e-15
1.15165e-14
1.86788e-14
2.98297e-14
4.70885e-14
7.27984e-14
1.10588e-13
1.65892e-13
2.46314e-13
3.62347e-13
5.28443e-13
7.64517e-13
1.0982e-12
1.56895e-12
2.23394e-12
3.17807e-12
4.53098e-12
6.49528e-12
9.39313e-12
1.37367e-11
2.02446e-11
2.94656e-11
4.20025e-11
5.75968e-11
7.35361e-11
8.71337e-11
9.54566e-11
9.83928e-11
9.83188e-11
9.85624e-11
1.01403e-10
1.08239e-10
1.2069e-10
1.41329e-10
1.74275e-10
2.26789e-10
3.12451e-10
4.5223e-10
6.84946e-10
1.07709e-09
1.72895e-09
2.81769e-09
4.57901e-09
7.43311e-09
1.18617e-08
1.88639e-08
2.91352e-08
4.41677e-08
6.53201e-08
9.35296e-08
1.28323e-07
1.65992e-07
1.95878e-07
1.94956e-07
1.37006e-07
8.48254e-08
5.04637e-08
2.87772e-08
1.56198e-08
8.27548e-09
4.24704e-09
2.12582e-09
1.07335e-09
6.20247e-10
4.01237e-10
2.14779e-10
9.49646e-11
3.69651e-11
1.29901e-11
4.15968e-12
1.22683e-12
3.28248e-13
8.72107e-14
2.44533e-14
7.4526e-15
2.40577e-15
7.92929e-16
2.59924e-16
8.36204e-17
2.62657e-17
8.04613e-18
2.40543e-18
7.02775e-19
2.00997e-19
5.6373e-20
1.55311e-20
4.20958e-21
1.12363e-21
2.95634e-22
7.66814e-23
1.9557e-23
4.86875e-24
1.16212e-24
2.55147e-25
4.65606e-26
4.40682e-27
2.63984e-16
1.02295e-15
2.18148e-15
4.0124e-15
6.90345e-15
1.14518e-14
1.85748e-14
2.96694e-14
4.68337e-14
7.23823e-14
1.09941e-13
1.6486e-13
2.44688e-13
3.59827e-13
5.24581e-13
7.58655e-13
1.08938e-12
1.55574e-12
2.21418e-12
3.14845e-12
4.48784e-12
6.43148e-12
9.29924e-12
1.35915e-11
2.0022e-11
2.91452e-11
4.15788e-11
5.71428e-11
7.31838e-11
8.70278e-11
9.56808e-11
9.89007e-11
9.89746e-11
9.92737e-11
1.02158e-10
1.09081e-10
1.21696e-10
1.42636e-10
1.7617e-10
2.29768e-10
3.17398e-10
4.60859e-10
7.00412e-10
1.10542e-09
1.78095e-09
2.90185e-09
4.73077e-09
7.67994e-09
1.22812e-08
1.95534e-08
3.02061e-08
4.57669e-08
6.75876e-08
9.64948e-08
1.31741e-07
1.69007e-07
1.9636e-07
1.888e-07
1.21725e-07
7.62032e-08
4.54998e-08
2.59668e-08
1.40941e-08
7.45368e-09
3.82195e-09
1.91645e-09
9.84634e-10
5.85029e-10
3.76137e-10
1.95251e-10
8.46211e-11
3.23933e-11
1.12143e-11
3.52581e-12
1.03336e-12
2.75594e-13
7.37188e-14
2.09883e-14
6.48744e-15
2.11412e-15
7.00709e-16
2.30537e-16
7.43904e-17
2.34344e-17
7.19982e-18
2.15877e-18
6.32553e-19
1.81427e-19
5.10238e-20
1.40952e-20
3.83121e-21
1.02632e-21
2.711e-22
7.05358e-23
1.80181e-23
4.48847e-24
1.07142e-24
2.35193e-25
4.2912e-26
4.06112e-27
2.62506e-16
1.0172e-15
2.16908e-15
3.98915e-15
6.8623e-15
1.1381e-14
1.84546e-14
2.94661e-14
4.65009e-14
7.18432e-14
1.09017e-13
1.6337e-13
2.42357e-13
3.56254e-13
5.192e-13
7.50683e-13
1.07775e-12
1.53901e-12
2.1904e-12
3.11501e-12
4.43972e-12
6.36319e-12
9.20353e-12
1.34553e-11
1.98153e-11
2.88402e-11
4.12008e-11
5.67418e-11
7.28751e-11
8.69505e-11
9.59127e-11
9.93818e-11
9.95938e-11
9.99556e-11
1.02902e-10
1.0994e-10
1.22768e-10
1.44134e-10
1.78341e-10
2.33178e-10
3.22364e-10
4.69647e-10
7.1597e-10
1.13395e-09
1.8312e-09
2.99012e-09
4.88337e-09
7.9233e-09
1.26928e-08
2.02341e-08
3.12842e-08
4.73994e-08
6.99321e-08
9.96367e-08
1.3556e-07
1.72904e-07
1.98748e-07
1.86782e-07
1.15975e-07
7.21671e-08
4.2794e-08
2.42815e-08
1.31256e-08
6.91379e-09
3.53003e-09
1.76887e-09
9.19273e-10
5.63962e-10
3.56291e-10
1.7977e-10
7.62635e-11
2.8782e-11
9.83364e-12
3.05858e-12
8.84505e-13
2.34826e-13
6.3173e-14
1.82347e-14
5.70763e-15
1.87636e-15
6.25366e-16
2.06538e-16
6.68499e-17
2.11162e-17
6.504e-18
1.95479e-18
5.74072e-19
1.65001e-19
4.64946e-20
1.28662e-20
3.50205e-21
9.38857e-22
2.48113e-22
6.462e-23
1.65472e-23
4.13023e-24
9.86969e-25
2.16755e-25
3.95577e-26
3.74403e-27
2.6122e-16
1.01223e-15
2.15845e-15
3.96943e-15
6.82792e-15
1.13229e-14
1.83578e-14
2.93071e-14
4.62425e-14
7.1391e-14
1.08309e-13
1.62283e-13
2.40721e-13
3.53825e-13
5.15623e-13
7.45464e-13
1.07022e-12
1.52822e-12
2.17507e-12
3.09394e-12
4.40877e-12
6.31949e-12
9.13516e-12
1.3345e-11
1.96583e-11
2.8629e-11
4.09301e-11
5.64422e-11
7.26477e-11
8.68833e-11
9.61667e-11
9.98181e-11
1.00148e-10
1.00578e-10
1.03597e-10
1.10758e-10
1.23823e-10
1.45479e-10
1.8033e-10
2.36409e-10
3.27698e-10
4.78895e-10
7.32562e-10
1.16348e-09
1.88374e-09
3.08211e-09
5.04473e-09
8.19186e-09
1.31353e-08
2.09449e-08
3.23723e-08
4.90302e-08
7.22745e-08
1.0282e-07
1.39538e-07
1.77237e-07
2.02148e-07
1.86999e-07
1.15285e-07
7.08964e-08
4.16182e-08
2.3421e-08
1.26104e-08
6.60347e-09
3.355e-09
1.67716e-09
8.80508e-10
5.51551e-10
3.40207e-10
1.67196e-10
6.98246e-11
2.60598e-11
8.87668e-12
2.62712e-12
7.56456e-13
2.01516e-13
5.49117e-14
1.61355e-14
5.12413e-15
1.69982e-15
5.69347e-16
1.88551e-16
6.11296e-17
1.93321e-17
5.9604e-18
1.79303e-18
5.27032e-19
1.51617e-19
4.27621e-20
1.18435e-20
3.226e-21
8.65203e-22
2.28709e-22
5.95835e-23
1.52534e-23
3.80793e-24
9.10532e-25
2.00114e-25
3.65379e-26
3.459e-27
2.60189e-16
1.00828e-15
2.15012e-15
3.95423e-15
6.80186e-15
1.12794e-14
1.82862e-14
2.91888e-14
4.60444e-14
7.10562e-14
1.07767e-13
1.61429e-13
2.39402e-13
3.51832e-13
5.12673e-13
7.41164e-13
1.06399e-12
1.51923e-12
2.16213e-12
3.07472e-12
4.38266e-12
6.27894e-12
9.07674e-12
1.32653e-11
1.95403e-11
2.84645e-11
4.07264e-11
5.62289e-11
7.25077e-11
8.68945e-11
9.63827e-11
1.00206e-10
1.00644e-10
1.0114e-10
1.04236e-10
1.11528e-10
1.24783e-10
1.46788e-10
1.82263e-10
2.39513e-10
3.32844e-10
4.87781e-10
7.47996e-10
1.19082e-09
1.93214e-09
3.16781e-09
5.19114e-09
8.4383e-09
1.35412e-08
2.15967e-08
3.33978e-08
5.05803e-08
7.45125e-08
1.0584e-07
1.43308e-07
1.81345e-07
2.05365e-07
1.87257e-07
1.15235e-07
7.02048e-08
4.08661e-08
2.28256e-08
1.22699e-08
6.39236e-09
3.23356e-09
1.61375e-09
8.55118e-10
5.4289e-10
3.27283e-10
1.57533e-10
6.4918e-11
2.39617e-11
8.06873e-12
2.36167e-12
6.75513e-13
1.79827e-13
4.93157e-14
1.46384e-14
4.68538e-15
1.56095e-15
5.23729e-16
1.73523e-16
5.62596e-17
1.77923e-17
5.48644e-18
1.65099e-18
4.85541e-19
1.39775e-19
3.94527e-20
1.09357e-20
2.98067e-21
7.99698e-22
2.115e-22
5.51309e-23
1.4128e-23
3.53093e-24
8.45067e-25
1.85841e-25
3.39438e-26
3.21402e-27
2.59185e-16
1.00438e-15
2.14179e-15
3.93884e-15
6.77528e-15
1.12354e-14
1.82154e-14
2.90788e-14
4.58805e-14
7.07955e-14
1.07361e-13
1.60801e-13
2.38408e-13
3.50284e-13
5.1031e-13
7.37663e-13
1.05895e-12
1.51207e-12
2.15221e-12
3.06021e-12
4.36057e-12
6.248e-12
9.03245e-12
1.31985e-11
1.94468e-11
2.83383e-11
4.05748e-11
5.60766e-11
7.24216e-11
8.6935e-11
9.65911e-11
1.00556e-10
1.0108e-10
1.01632e-10
1.04794e-10
1.12192e-10
1.25651e-10
1.47996e-10
1.84052e-10
2.42345e-10
3.37511e-10
4.95758e-10
7.62034e-10
1.21581e-09
1.97661e-09
3.24559e-09
5.32533e-09
8.665e-09
1.39152e-08
2.21988e-08
3.43348e-08
5.19824e-08
7.65159e-08
1.08552e-07
1.46672e-07
1.84962e-07
2.08104e-07
1.87367e-07
1.14589e-07
6.93687e-08
4.01558e-08
2.23251e-08
1.19876e-08
6.20124e-09
3.12839e-09
1.56079e-09
8.35159e-10
5.35319e-10
3.15873e-10
1.49369e-10
6.08536e-11
2.22632e-11
7.42797e-12
2.17136e-12
6.1816e-13
1.64429e-13
4.52741e-14
1.35183e-14
4.34381e-15
1.44932e-15
4.86301e-16
1.61042e-16
5.21839e-17
1.64967e-17
5.08606e-18
1.53063e-18
4.50269e-19
1.29679e-19
3.66248e-20
1.01605e-20
2.7735e-21
7.45917e-22
1.97794e-22
5.16662e-23
1.32474e-23
3.30988e-24
7.91842e-25
1.74086e-25
3.17906e-26
3.01001e-27
2.58319e-16
1.00104e-15
2.13467e-15
3.92571e-15
6.75258e-15
1.11974e-14
1.81534e-14
2.89784e-14
4.57094e-14
7.05145e-14
1.06931e-13
1.60178e-13
2.37556e-13
3.49075e-13
5.08532e-13
7.34936e-13
1.05488e-12
1.5062e-12
2.1436e-12
3.0486e-12
4.34423e-12
6.225e-12
9e-12
1.31512e-11
1.9378e-11
2.8245e-11
4.04646e-11
5.59702e-11
7.23731e-11
8.69919e-11
9.67853e-11
1.00867e-10
1.01469e-10
1.0207e-10
1.05294e-10
1.12806e-10
1.26463e-10
1.49136e-10
1.85762e-10
2.45107e-10
3.42035e-10
5.03414e-10
7.75327e-10
1.23918e-09
2.01797e-09
3.31806e-09
5.4501e-09
8.87527e-09
1.42603e-08
2.27472e-08
3.51922e-08
5.3271e-08
7.8351e-08
1.10988e-07
1.49628e-07
1.87986e-07
2.10042e-07
1.86426e-07
1.14014e-07
6.86383e-08
3.95431e-08
2.1899e-08
1.17169e-08
6.0535e-09
3.04528e-09
1.51859e-09
8.2043e-10
5.28885e-10
3.06131e-10
1.42588e-10
5.75123e-11
2.08491e-11
6.88317e-12
2.0173e-12
5.72541e-13
1.52256e-13
4.2054e-14
1.26197e-14
4.06947e-15
1.35981e-15
4.56312e-16
1.51033e-16
4.89082e-17
1.54522e-17
4.76208e-18
1.43284e-18
4.21484e-19
1.21392e-19
3.42766e-20
9.5055e-21
2.59413e-21
6.98071e-22
1.85145e-22
4.83749e-23
1.24167e-23
3.1061e-24
7.4383e-25
1.63641e-25
2.98948e-26
2.83095e-27
2.57599e-16
9.98263e-16
2.12875e-15
3.91483e-15
6.73382e-15
1.11662e-14
1.81025e-14
2.8897e-14
4.55689e-14
7.02806e-14
1.06562e-13
1.59612e-13
2.36701e-13
3.47845e-13
5.06832e-13
7.32701e-13
1.05174e-12
1.50164e-12
2.13703e-12
3.0389e-12
4.33107e-12
6.2069e-12
8.97299e-12
1.31133e-11
1.93244e-11
2.81749e-11
4.0385e-11
5.58976e-11
7.23511e-11
8.7057e-11
9.69619e-11
1.01137e-10
1.01802e-10
1.02455e-10
1.05755e-10
1.13369e-10
1.27196e-10
1.5016e-10
1.87294e-10
2.4751e-10
3.46045e-10
5.10386e-10
7.87708e-10
1.26124e-09
2.05688e-09
3.38569e-09
5.5653e-09
9.06615e-09
1.45701e-08
2.32371e-08
3.5941e-08
5.43756e-08
7.99119e-08
1.13058e-07
1.52116e-07
1.9048e-07
2.1141e-07
1.85117e-07
1.1324e-07
6.78968e-08
3.89742e-08
2.1517e-08
1.14772e-08
5.92399e-09
2.97349e-09
1.48299e-09
8.08402e-10
5.2293e-10
2.97599e-10
1.36882e-10
5.46985e-11
1.96742e-11
6.44033e-12
1.89404e-12
5.35547e-13
1.42376e-13
3.94468e-14
1.18879e-14
3.84389e-15
1.28557e-15
4.31291e-16
1.42651e-16
4.61592e-17
1.45746e-17
4.4898e-18
1.35069e-18
3.97377e-19
1.1452e-19
3.23912e-20
9.00284e-21
2.46008e-21
6.62153e-22
1.75651e-22
4.5895e-23
1.17753e-23
2.94477e-24
7.05056e-25
1.55089e-25
2.83297e-26
2.68264e-27
2.57012e-16
9.95999e-16
2.12394e-15
3.906e-15
6.71865e-15
1.11411e-14
1.80619e-14
2.88326e-14
4.54558e-14
7.00909e-14
1.06263e-13
1.59158e-13
2.36026e-13
3.46856e-13
5.05399e-13
7.30634e-13
1.04893e-12
1.49788e-12
2.13188e-12
3.03174e-12
4.32099e-12
6.19258e-12
8.95353e-12
1.30855e-11
1.9286e-11
2.81248e-11
4.03296e-11
5.58511e-11
7.23475e-11
8.71251e-11
9.71208e-11
1.01374e-10
1.02096e-10
1.02792e-10
1.06143e-10
1.13846e-10
1.27831e-10
1.51056e-10
1.88628e-10
2.49665e-10
3.49591e-10
5.16404e-10
7.98094e-10
1.2794e-09
2.08936e-09
3.44364e-09
5.66758e-09
9.23645e-09
1.4846e-08
2.36631e-08
3.65909e-08
5.53345e-08
8.12516e-08
1.14808e-07
1.54185e-07
1.92459e-07
2.1231e-07
1.83621e-07
1.12353e-07
6.71639e-08
3.84493e-08
2.11629e-08
1.12585e-08
5.80007e-09
2.90593e-09
1.44977e-09
7.96744e-10
5.16649e-10
2.89942e-10
1.31947e-10
5.23717e-11
1.87116e-11
6.07866e-12
1.79431e-12
5.05967e-13
1.34389e-13
3.73069e-14
1.12757e-14
3.65234e-15
1.22199e-15
4.09798e-16
1.35453e-16
4.3803e-17
1.38242e-17
4.25741e-18
1.28062e-18
3.7676e-19
1.08582e-19
3.07058e-20
8.53484e-21
2.33618e-21
6.29628e-22
1.67153e-22
4.3674e-23
1.1208e-23
2.80356e-24
6.71378e-25
1.477e-25
2.69818e-26
2.55506e-27
2.56539e-16
9.94175e-16
2.12007e-15
3.8989e-15
6.70647e-15
1.1121e-14
1.80294e-14
2.87812e-14
4.53652e-14
6.99391e-14
1.06024e-13
1.58797e-13
2.35493e-13
3.4608e-13
5.04286e-13
7.29057e-13
1.04673e-12
1.49471e-12
2.12763e-12
3.02625e-12
4.31354e-12
6.18224e-12
8.93884e-12
1.30648e-11
1.92578e-11
2.80889e-11
4.02913e-11
5.58213e-11
7.23545e-11
8.71895e-11
9.72557e-11
1.01567e-10
1.02328e-10
1.03063e-10
1.06462e-10
1.14247e-10
1.28366e-10
1.51813e-10
1.89769e-10
2.51454e-10
3.52488e-10
5.21215e-10
8.06308e-10
1.2932e-09
2.1123e-09
3.48071e-09
5.77315e-09
9.39268e-09
1.50883e-08
2.40325e-08
3.71531e-08
5.61529e-08
8.23838e-08
1.16268e-07
1.55859e-07
1.94003e-07
2.12875e-07
1.82159e-07
1.11491e-07
6.65409e-08
3.81022e-08
2.07284e-08
1.10171e-08
5.66998e-09
2.83882e-09
1.41816e-09
7.86049e-10
5.10475e-10
2.83115e-10
1.27772e-10
5.04062e-11
1.79157e-11
5.78544e-12
1.71497e-12
4.81261e-13
1.27453e-13
3.53957e-14
1.07208e-14
3.47867e-15
1.16488e-15
3.90743e-16
1.29156e-16
4.17656e-17
1.31816e-17
4.05997e-18
1.22146e-18
3.59434e-19
1.03612e-19
2.93045e-20
8.14449e-21
2.22747e-21
6.00129e-22
1.59361e-22
4.16806e-23
1.07062e-23
2.68e-24
6.42146e-25
1.41325e-25
2.58231e-26
2.44554e-27
2.56163e-16
9.92728e-16
2.11699e-15
3.89325e-15
6.69674e-15
1.11048e-14
1.80032e-14
2.87394e-14
4.5293e-14
6.98189e-14
1.05836e-13
1.58514e-13
2.35076e-13
3.45476e-13
5.0342e-13
7.27835e-13
1.04499e-12
1.49237e-12
2.12436e-12
3.02177e-12
4.30765e-12
6.17422e-12
8.92784e-12
1.30497e-11
1.92376e-11
2.80642e-11
4.02672e-11
5.58068e-11
7.23704e-11
8.72526e-11
9.73752e-11
1.01735e-10
1.02529e-10
1.03292e-10
1.06735e-10
1.14592e-10
1.28836e-10
1.5248e-10
1.90762e-10
2.53029e-10
3.5509e-10
5.25684e-10
8.14091e-10
1.30685e-09
2.13664e-09
3.52391e-09
5.84756e-09
9.51492e-09
1.52836e-08
2.43319e-08
3.76087e-08
5.68172e-08
8.33016e-08
1.1745e-07
1.57221e-07
1.95224e-07
2.13224e-07
1.80755e-07
1.10648e-07
6.59163e-08
3.76774e-08
2.04678e-08
1.08589e-08
5.57972e-09
2.79031e-09
1.3951e-09
7.7904e-10
5.05962e-10
2.77964e-10
1.24622e-10
4.8938e-11
1.7327e-11
5.57886e-12
1.66377e-12
4.47716e-13
1.19085e-13
3.33312e-14
1.01781e-14
3.32121e-15
1.11561e-15
3.74792e-16
1.23975e-16
4.01054e-17
1.26606e-17
3.90022e-18
1.17362e-18
3.45437e-19
9.96029e-20
2.81781e-20
7.83337e-21
2.14282e-21
5.77435e-22
1.53367e-22
4.01241e-23
1.03095e-23
2.58148e-24
6.18694e-25
1.36188e-25
2.48868e-26
2.35683e-27
2.55877e-16
9.91625e-16
2.11465e-15
3.88895e-15
6.68937e-15
1.10926e-14
1.79836e-14
2.87084e-14
4.52383e-14
6.97274e-14
1.05693e-13
1.58299e-13
2.3476e-13
3.45019e-13
5.02771e-13
7.26925e-13
1.04371e-12
1.49061e-12
2.12195e-12
3.01848e-12
4.30318e-12
6.16834e-12
8.91995e-12
1.3039e-11
1.92236e-11
2.80476e-11
4.02518e-11
5.57999e-11
7.23878e-11
8.73057e-11
9.74707e-11
1.01865e-10
1.02686e-10
1.03473e-10
1.06954e-10
1.14872e-10
1.2921e-10
1.5301e-10
1.91567e-10
2.54315e-10
3.57221e-10
5.29338e-10
8.20482e-10
1.31808e-09
2.15645e-09
3.55832e-09
5.90459e-09
9.60972e-09
1.54368e-08
2.45676e-08
3.79687e-08
5.73446e-08
8.40331e-08
1.18385e-07
1.58288e-07
1.96163e-07
2.13425e-07
1.7949e-07
1.09888e-07
6.53673e-08
3.73098e-08
2.02558e-08
1.07348e-08
5.50998e-09
2.75331e-09
1.37762e-09
7.735e-10
5.02061e-10
2.73801e-10
1.22135e-10
4.7789e-11
1.68651e-11
5.41391e-12
1.61032e-12
4.31892e-13
1.14719e-13
3.21365e-14
9.83024e-15
3.21206e-15
1.07973e-15
3.62845e-16
1.20036e-16
3.88337e-17
1.22602e-17
3.77734e-18
1.13684e-18
3.34676e-19
9.65196e-20
2.73112e-20
7.59403e-21
2.07788e-21
5.60094e-22
1.48805e-22
3.8941e-23
1.00079e-23
2.50644e-24
6.00799e-25
1.32261e-25
2.41705e-26
2.28903e-27
2.55671e-16
9.90832e-16
2.11297e-15
3.88587e-15
6.68409e-15
1.10839e-14
1.79695e-14
2.86862e-14
4.5199e-14
6.96612e-14
1.05589e-13
1.58143e-13
2.34529e-13
3.44685e-13
5.02291e-13
7.26239e-13
1.04277e-12
1.48932e-12
2.12024e-12
3.0162e-12
4.30011e-12
6.16418e-12
8.9144e-12
1.30317e-11
1.92144e-11
2.8037e-11
4.02431e-11
5.57982e-11
7.24041e-11
8.73479e-11
9.75432e-11
1.01963e-10
1.02802e-10
1.03609e-10
1.07119e-10
1.15082e-10
1.29495e-10
1.53419e-10
1.92182e-10
2.55296e-10
3.58852e-10
5.32129e-10
8.25353e-10
1.3265e-09
2.1712e-09
3.58387e-09
5.9468e-09
9.6801e-09
1.55505e-08
2.47425e-08
3.82363e-08
5.77366e-08
8.45763e-08
1.19083e-07
1.59077e-07
1.96845e-07
2.13533e-07
1.78489e-07
1.09274e-07
6.49331e-08
3.70242e-08
2.00931e-08
1.06404e-08
5.45768e-09
2.7257e-09
1.36461e-09
7.69364e-10
4.9877e-10
2.70583e-10
1.20263e-10
4.69316e-11
1.65212e-11
5.29148e-12
1.57078e-12
4.20633e-13
1.11726e-13
3.13365e-14
9.59979e-15
3.13954e-15
1.05563e-15
3.54715e-16
1.17323e-16
3.79482e-17
1.19788e-17
3.69037e-18
1.11066e-18
3.26991e-19
9.43188e-20
2.66956e-20
7.42496e-21
2.03208e-21
5.47833e-22
1.45563e-22
3.80966e-23
9.79192e-24
2.45257e-24
5.87927e-25
1.29433e-25
2.3654e-26
2.24014e-27
2.5554e-16
9.90327e-16
2.1119e-15
3.88391e-15
6.68073e-15
1.10784e-14
1.79607e-14
2.86722e-14
4.51739e-14
6.9619e-14
1.05523e-13
1.58043e-13
2.34384e-13
3.44475e-13
5.01992e-13
7.25821e-13
1.04219e-12
1.48853e-12
2.11918e-12
3.01479e-12
4.29823e-12
6.16169e-12
8.91109e-12
1.30274e-11
1.9209e-11
2.80311e-11
4.02388e-11
5.57989e-11
7.24171e-11
8.73782e-11
9.75933e-11
1.02029e-10
1.0288e-10
1.03701e-10
1.0723e-10
1.15223e-10
1.29687e-10
1.53694e-10
1.92601e-10
2.5597e-10
3.59968e-10
5.34027e-10
8.28636e-10
1.33218e-09
2.1811e-09
3.60084e-09
5.97461e-09
9.72643e-09
1.56254e-08
2.48578e-08
3.84126e-08
5.79944e-08
8.49325e-08
1.19539e-07
1.59592e-07
1.97284e-07
2.13589e-07
1.77816e-07
1.08841e-07
6.46313e-08
3.68281e-08
1.9982e-08
1.05767e-08
5.42251e-09
2.70724e-09
1.35586e-09
7.66236e-10
4.96468e-10
2.68413e-10
1.19017e-10
4.6366e-11
1.62968e-11
5.21193e-12
1.54524e-12
4.1348e-13
1.09827e-13
3.0833e-14
9.45598e-15
3.09447e-15
1.04061e-15
3.49625e-16
1.15615e-16
3.73887e-17
1.18004e-17
3.63506e-18
1.09396e-18
3.22073e-19
9.29014e-20
2.62948e-20
7.31379e-21
2.00184e-21
5.39753e-22
1.43438e-22
3.75458e-23
9.65153e-24
2.41764e-24
5.79593e-25
1.27603e-25
2.332e-26
2.20851e-27
2.55476e-16
9.90079e-16
2.11137e-15
3.88295e-15
6.67909e-15
1.10757e-14
1.79563e-14
2.86654e-14
4.51618e-14
6.95985e-14
1.0549e-13
1.57995e-13
2.34313e-13
3.44373e-13
5.01849e-13
7.25621e-13
1.04192e-12
1.48816e-12
2.11867e-12
3.0141e-12
4.29732e-12
6.1605e-12
8.90953e-12
1.30253e-11
1.92064e-11
2.80284e-11
4.02369e-11
5.57997e-11
7.24241e-11
8.73937e-11
9.76183e-11
1.02062e-10
1.0292e-10
1.03747e-10
1.07285e-10
1.15294e-10
1.29783e-10
1.53833e-10
1.92811e-10
2.56304e-10
3.60519e-10
5.34965e-10
8.30262e-10
1.33499e-09
2.18602e-09
3.60933e-09
5.98849e-09
9.74953e-09
1.56627e-08
2.4915e-08
3.85001e-08
5.81224e-08
8.51096e-08
1.19765e-07
1.59846e-07
1.975e-07
2.13614e-07
1.77475e-07
1.08621e-07
6.44789e-08
3.67295e-08
1.9926e-08
1.05446e-08
5.4049e-09
2.69807e-09
1.35161e-09
7.6488e-10
4.95368e-10
2.67353e-10
1.18406e-10
4.60892e-11
1.61872e-11
5.17324e-12
1.5329e-12
4.10051e-13
1.08928e-13
3.0595e-14
9.38837e-15
3.07339e-15
1.0336e-15
3.47249e-16
1.14818e-16
3.71274e-17
1.17171e-17
3.60921e-18
1.08614e-18
3.19767e-19
9.22357e-20
2.61065e-20
7.2615e-21
1.98757e-21
5.35924e-22
1.42426e-22
3.72824e-23
9.58412e-24
2.40082e-24
5.75567e-25
1.26718e-25
2.31581e-26
2.19316e-27
2.55475e-16
9.90076e-16
2.11136e-15
3.88294e-15
6.67907e-15
1.10756e-14
1.79563e-14
2.86652e-14
4.51616e-14
6.9598e-14
1.0549e-13
1.57994e-13
2.34312e-13
3.44371e-13
5.01846e-13
7.25618e-13
1.04192e-12
1.48815e-12
2.11867e-12
3.0141e-12
4.29733e-12
6.16051e-12
8.90955e-12
1.30254e-11
1.92065e-11
2.80284e-11
4.0237e-11
5.57998e-11
7.24243e-11
8.7394e-11
9.76188e-11
1.02062e-10
1.0292e-10
1.03747e-10
1.07286e-10
1.15295e-10
1.29784e-10
1.53834e-10
1.92813e-10
2.56307e-10
3.60522e-10
5.34971e-10
8.30271e-10
1.33501e-09
2.18605e-09
3.60936e-09
5.98855e-09
9.74961e-09
1.56628e-08
2.49152e-08
3.85003e-08
5.81227e-08
8.51101e-08
1.19765e-07
1.59847e-07
1.97501e-07
2.13614e-07
1.77476e-07
1.08621e-07
6.44792e-08
3.67298e-08
1.9926e-08
1.05447e-08
5.40493e-09
2.69813e-09
1.35176e-09
7.65256e-10
4.95504e-10
2.67401e-10
1.18423e-10
4.60943e-11
1.61887e-11
5.17364e-12
1.533e-12
4.10074e-13
1.08933e-13
3.05961e-14
9.38863e-15
3.07346e-15
1.03363e-15
3.47256e-16
1.14821e-16
3.71282e-17
1.17174e-17
3.60929e-18
1.08617e-18
3.19774e-19
9.22378e-20
2.61071e-20
7.26167e-21
1.98761e-21
5.35936e-22
1.42429e-22
3.72831e-23
9.58431e-24
2.40086e-24
5.75578e-25
1.2672e-25
2.31585e-26
2.1932e-27
2.55538e-16
9.90318e-16
2.11188e-15
3.88388e-15
6.68067e-15
1.10783e-14
1.79605e-14
2.86719e-14
4.51734e-14
6.96179e-14
1.05521e-13
1.5804e-13
2.3438e-13
3.4447e-13
5.01986e-13
7.25814e-13
1.04219e-12
1.48853e-12
2.11919e-12
3.0148e-12
4.29826e-12
6.16174e-12
8.91115e-12
1.30275e-11
1.92091e-11
2.80313e-11
4.0239e-11
5.57993e-11
7.24178e-11
8.73792e-11
9.75945e-11
1.0203e-10
1.02882e-10
1.03703e-10
1.07232e-10
1.15226e-10
1.2969e-10
1.53699e-10
1.92608e-10
2.55979e-10
3.5998e-10
5.34046e-10
8.28664e-10
1.33223e-09
2.18118e-09
3.60098e-09
5.97481e-09
9.72671e-09
1.56258e-08
2.48583e-08
3.84133e-08
5.79954e-08
8.49338e-08
1.1954e-07
1.59594e-07
1.97285e-07
2.13588e-07
1.77814e-07
1.0884e-07
6.46311e-08
3.68282e-08
1.99819e-08
1.05767e-08
5.42252e-09
2.70723e-09
1.35581e-09
7.66087e-10
4.96394e-10
2.68387e-10
1.19009e-10
4.63641e-11
1.62966e-11
5.21197e-12
1.54529e-12
4.13501e-13
1.09834e-13
3.08351e-14
9.45663e-15
3.09467e-15
1.04068e-15
3.49647e-16
1.15623e-16
3.73911e-17
1.18012e-17
3.6353e-18
1.09403e-18
3.22094e-19
9.29077e-20
2.62966e-20
7.31429e-21
2.00197e-21
5.39787e-22
1.43447e-22
3.75479e-23
9.65202e-24
2.41776e-24
5.7962e-25
1.27609e-25
2.33211e-26
2.20861e-27
2.55668e-16
9.90819e-16
2.11294e-15
3.88582e-15
6.68399e-15
1.10837e-14
1.79693e-14
2.86857e-14
4.51981e-14
6.96597e-14
1.05586e-13
1.58139e-13
2.34525e-13
3.44679e-13
5.02285e-13
7.26234e-13
1.04277e-12
1.48932e-12
2.12025e-12
3.01622e-12
4.30014e-12
6.16424e-12
8.91449e-12
1.30319e-11
1.92146e-11
2.80373e-11
4.02436e-11
5.57989e-11
7.24051e-11
8.73491e-11
9.75447e-11
1.01965e-10
1.02804e-10
1.03612e-10
1.07121e-10
1.15085e-10
1.29499e-10
1.53425e-10
1.92192e-10
2.55313e-10
3.58876e-10
5.32164e-10
8.25403e-10
1.32659e-09
2.17133e-09
3.58399e-09
5.94692e-09
9.6802e-09
1.55508e-08
2.47431e-08
3.82372e-08
5.77378e-08
8.45778e-08
1.19085e-07
1.59079e-07
1.96845e-07
2.13531e-07
1.78484e-07
1.09272e-07
6.4932e-08
3.70237e-08
2.00928e-08
1.06404e-08
5.45769e-09
2.72572e-09
1.36462e-09
7.69321e-10
4.98727e-10
2.7057e-10
1.20261e-10
4.69319e-11
1.65217e-11
5.29179e-12
1.57092e-12
4.2068e-13
1.11741e-13
3.13408e-14
9.60106e-15
3.13994e-15
1.05576e-15
3.54759e-16
1.17337e-16
3.79528e-17
1.19803e-17
3.69081e-18
1.11079e-18
3.27029e-19
9.43299e-20
2.66988e-20
7.42587e-21
2.03233e-21
5.47903e-22
1.45582e-22
3.81013e-23
9.79306e-24
2.45284e-24
5.87987e-25
1.29446e-25
2.36562e-26
2.24033e-27
2.55873e-16
9.91609e-16
2.11462e-15
3.88889e-15
6.68926e-15
1.10924e-14
1.79833e-14
2.87079e-14
4.52375e-14
6.9726e-14
1.05691e-13
1.58296e-13
2.34756e-13
3.45015e-13
5.02767e-13
7.26922e-13
1.04371e-12
1.49062e-12
2.12197e-12
3.01851e-12
4.30322e-12
6.16841e-12
8.92005e-12
1.30392e-11
1.92239e-11
2.8048e-11
4.02524e-11
5.58007e-11
7.23889e-11
8.7307e-11
9.74723e-11
1.01867e-10
1.02688e-10
1.03475e-10
1.06956e-10
1.14873e-10
1.29212e-10
1.53013e-10
1.91572e-10
2.54323e-10
3.57235e-10
5.29369e-10
8.20537e-10
1.31813e-09
2.15652e-09
3.55844e-09
5.90485e-09
9.6102e-09
1.54374e-08
2.45685e-08
3.797e-08
5.7346e-08
8.40343e-08
1.18386e-07
1.58286e-07
1.96162e-07
2.13421e-07
1.79483e-07
1.09885e-07
6.5366e-08
3.73095e-08
2.02558e-08
1.07349e-08
5.51008e-09
2.75336e-09
1.37763e-09
7.73461e-10
5.0205e-10
2.73811e-10
1.22145e-10
4.77946e-11
1.68673e-11
5.4148e-12
1.61062e-12
4.31983e-13
1.14744e-13
3.21433e-14
9.83216e-15
3.21265e-15
1.07992e-15
3.62907e-16
1.20057e-16
3.88403e-17
1.22622e-17
3.77796e-18
1.13702e-18
3.34729e-19
9.65343e-20
2.73151e-20
7.59504e-21
2.07813e-21
5.60156e-22
1.4882e-22
3.89446e-23
1.00088e-23
2.50663e-24
6.00839e-25
1.32269e-25
2.41717e-26
2.28914e-27
2.56159e-16
9.92712e-16
2.11696e-15
3.89319e-15
6.69663e-15
1.11046e-14
1.8003e-14
2.8739e-14
4.52922e-14
6.98177e-14
1.05834e-13
1.58512e-13
2.35073e-13
3.45473e-13
5.03418e-13
7.27835e-13
1.04499e-12
1.49238e-12
2.12438e-12
3.0218e-12
4.3077e-12
6.1743e-12
8.92796e-12
1.30499e-11
1.92378e-11
2.80646e-11
4.02678e-11
5.58076e-11
7.23715e-11
8.72537e-11
9.7377e-11
1.01737e-10
1.02532e-10
1.03295e-10
1.06739e-10
1.14597e-10
1.28839e-10
1.52482e-10
1.90763e-10
2.53029e-10
3.5509e-10
5.2568e-10
8.14086e-10
1.30686e-09
2.13667e-09
3.524e-09
5.84777e-09
9.51525e-09
1.52844e-08
2.43332e-08
3.76105e-08
5.68196e-08
8.33044e-08
1.17453e-07
1.57221e-07
1.95222e-07
2.13217e-07
1.80747e-07
1.10644e-07
6.5915e-08
3.76771e-08
2.04678e-08
1.0859e-08
5.57981e-09
2.79031e-09
1.39495e-09
7.78625e-10
5.05813e-10