/*--------------------------------*- C++ -*----------------------------------*\
  =========                 |
  \\      /  F ield         | OpenFOAM: The Open Source CFD Toolbox
   \\    /   O peration     | Website:  https://openfoam.org
    \\  /    A nd           | Version:  10
     \\/     M anipulation  |
\*---------------------------------------------------------------------------*/
FoamFile
{
    format      ascii;
    class       volScalarField;
    location    "1";
    object      HNO;
}
// * * * * * * * * * * * * * * * * * * * * * * * * * * * * * * * * * * * * * //

dimensions      [0 0 0 0 0 0 0];

internalField   nonuniform List<scalar> 
4000
(
9.36741e-16
3.62938e-15
7.73737e-15
1.42248e-14
2.44618e-14
4.05606e-14
6.57701e-14
1.05045e-13
1.65865e-13
2.56294e-13
3.89013e-13
5.82514e-13
8.61859e-13
1.2596e-12
1.8164e-12
2.58062e-12
3.60566e-12
4.94547e-12
6.64793e-12
8.74771e-12
1.12597e-11
1.41748e-11
1.74584e-11
2.10667e-11
2.48931e-11
2.8712e-11
3.24042e-11
3.57599e-11
3.84649e-11
4.05758e-11
4.23492e-11
4.43433e-11
4.71835e-11
5.14451e-11
5.75733e-11
6.58875e-11
7.67027e-11
9.04945e-11
1.08036e-10
1.30673e-10
1.60789e-10
2.0141e-10
2.57877e-10
3.37619e-10
4.50383e-10
6.11126e-10
8.31799e-10
1.14012e-09
1.55219e-09
2.12846e-09
2.90427e-09
3.98591e-09
5.51872e-09
7.70112e-09
1.07833e-08
1.50164e-08
2.04626e-08
2.6396e-08
2.96581e-08
2.30943e-08
1.74361e-08
1.33252e-08
1.02985e-08
8.09067e-09
6.49709e-09
5.35674e-09
4.42321e-09
3.57361e-09
2.77462e-09
2.05189e-09
1.41102e-09
9.20424e-10
5.86604e-10
3.78162e-10
2.56013e-10
1.81861e-10
1.27395e-10
8.63338e-11
5.61563e-11
3.51086e-11
2.11645e-11
1.23562e-11
7.02152e-12
3.90264e-12
2.13038e-12
1.14585e-12
6.0867e-13
3.19736e-13
1.66731e-13
8.63621e-14
4.44626e-14
2.27637e-14
1.15908e-14
5.86602e-15
2.94527e-15
1.45992e-15
7.06339e-16
3.24542e-16
1.31191e-16
3.01975e-17
9.37447e-16
3.63226e-15
7.74445e-15
1.42413e-14
2.44977e-14
4.06328e-14
6.59039e-14
1.05272e-13
1.66213e-13
2.56846e-13
3.89736e-13
5.83249e-13
8.62217e-13
1.25876e-12
1.81279e-12
2.57147e-12
3.58634e-12
4.91091e-12
6.59341e-12
8.66971e-12
1.1157e-11
1.40504e-11
1.73215e-11
2.0899e-11
2.47112e-11
2.85299e-11
3.22433e-11
3.56539e-11
3.8422e-11
4.05949e-11
4.23977e-11
4.43876e-11
4.71977e-11
5.14251e-11
5.75209e-11
6.58144e-11
7.66233e-11
9.04297e-11
1.07987e-10
1.30649e-10
1.60802e-10
2.01474e-10
2.5805e-10
3.3812e-10
4.51413e-10
6.13134e-10
8.35594e-10
1.14706e-09
1.56395e-09
2.14805e-09
2.93431e-09
4.03338e-09
5.59323e-09
7.81589e-09
1.09575e-08
1.52712e-08
2.08082e-08
2.67818e-08
2.98733e-08
2.29251e-08
1.72796e-08
1.31855e-08
1.01804e-08
7.99724e-09
6.42983e-09
5.30493e-09
4.37357e-09
3.52514e-09
2.72524e-09
2.00074e-09
1.36469e-09
8.87433e-10
5.65029e-10
3.65448e-10
2.48275e-10
1.75865e-10
1.22479e-10
8.24278e-11
5.33076e-11
3.32018e-11
1.99848e-11
1.16771e-11
6.65464e-12
3.71486e-12
2.03862e-12
1.10295e-12
5.89779e-13
3.12448e-13
1.63799e-13
8.51251e-14
4.39132e-14
2.25064e-14
1.14632e-14
5.79774e-15
2.90975e-15
1.44172e-15
6.97163e-16
3.20235e-16
1.29441e-16
2.9792e-17
9.40096e-16
3.64291e-15
7.76886e-15
1.42899e-14
2.45879e-14
4.07913e-14
6.61678e-14
1.05686e-13
1.66815e-13
2.57709e-13
3.90837e-13
5.8445e-13
8.63232e-13
1.25887e-12
1.81071e-12
2.56494e-12
3.57299e-12
4.88733e-12
6.55514e-12
8.61166e-12
1.10741e-11
1.39375e-11
1.71798e-11
2.07447e-11
2.45496e-11
2.83735e-11
3.21142e-11
3.55675e-11
3.83911e-11
4.06206e-11
4.24577e-11
4.4452e-11
4.7233e-11
5.14229e-11
5.74823e-11
6.57549e-11
7.65636e-11
9.03982e-11
1.07994e-10
1.30708e-10
1.6094e-10
2.01721e-10
2.58509e-10
3.39074e-10
4.5321e-10
6.16461e-10
8.41844e-10
1.15821e-09
1.58314e-09
2.17967e-09
2.98328e-09
4.11209e-09
5.71559e-09
8.00325e-09
1.12387e-08
1.56752e-08
2.13465e-08
2.73818e-08
3.01637e-08
2.27077e-08
1.70475e-08
1.29665e-08
9.98932e-09
7.84534e-09
6.32201e-09
5.22061e-09
4.29422e-09
3.44688e-09
2.64781e-09
1.9221e-09
1.30004e-09
8.39213e-10
5.34454e-10
3.48572e-10
2.36404e-10
1.68287e-10
1.16809e-10
7.83035e-11
5.05101e-11
3.14298e-11
1.89287e-11
1.10794e-11
6.33018e-12
3.54425e-12
1.95097e-12
1.05852e-12
5.67208e-13
3.00664e-13
1.57871e-13
8.22069e-14
4.24935e-14
2.18218e-14
1.11389e-14
5.65173e-15
2.84152e-15
1.4092e-15
6.81739e-16
3.13167e-16
1.26567e-16
2.9125e-17
9.40967e-16
3.64631e-15
7.77621e-15
1.43036e-14
2.46108e-14
4.08256e-14
6.62116e-14
1.05725e-13
1.66809e-13
2.57607e-13
3.9044e-13
5.8334e-13
8.60584e-13
1.25366e-12
1.8015e-12
2.55008e-12
3.55013e-12
4.85375e-12
6.50816e-12
8.54927e-12
1.09958e-11
1.38452e-11
1.70695e-11
2.06232e-11
2.44265e-11
2.82538e-11
3.2012e-11
3.55054e-11
3.83786e-11
4.06636e-11
4.25394e-11
4.45444e-11
4.7307e-11
5.14606e-11
5.74951e-11
6.57607e-11
7.65871e-11
9.04706e-11
1.08136e-10
1.30947e-10
1.61319e-10
2.02303e-10
2.59428e-10
3.40683e-10
4.56025e-10
6.21342e-10
8.50472e-10
1.17301e-09
1.60719e-09
2.21837e-09
3.04355e-09
4.2055e-09
5.86018e-09
8.22438e-09
1.15637e-08
1.61378e-08
2.1951e-08
2.79969e-08
3.02778e-08
2.24226e-08
1.67538e-08
1.27095e-08
9.73435e-09
7.65222e-09
6.1869e-09
5.1127e-09
4.19152e-09
3.34787e-09
2.55628e-09
1.83013e-09
1.22227e-09
7.8596e-10
5.0095e-10
3.28443e-10
2.25214e-10
1.60575e-10
1.10817e-10
7.38638e-11
4.74446e-11
2.94445e-11
1.77137e-11
1.03713e-11
5.93398e-12
3.32973e-12
1.8378e-12
1.00003e-12
5.37463e-13
2.85723e-13
1.50434e-13
7.85265e-14
4.06773e-14
2.09248e-14
1.06928e-14
5.42613e-15
2.72946e-15
1.35454e-15
6.55781e-16
3.01459e-16
1.21909e-16
2.80635e-17
9.4032e-16
3.64381e-15
7.77086e-15
1.42934e-14
2.45917e-14
4.07891e-14
6.61396e-14
1.0558e-13
1.66516e-13
2.57018e-13
3.89347e-13
5.81419e-13
8.57423e-13
1.24853e-12
1.79334e-12
2.53746e-12
3.53128e-12
4.82664e-12
6.47087e-12
8.50041e-12
1.09349e-11
1.37735e-11
1.69901e-11
2.05338e-11
2.43282e-11
2.81528e-11
3.19206e-11
3.54548e-11
3.83816e-11
4.07224e-11
4.26395e-11
4.46604e-11
4.74149e-11
5.15449e-11
5.75706e-11
6.58437e-11
7.67058e-11
9.06589e-11
1.08424e-10
1.31371e-10
1.6194e-10
2.03205e-10
2.60794e-10
3.42929e-10
4.59716e-10
6.27401e-10
8.60577e-10
1.18951e-09
1.63357e-09
2.26056e-09
3.10947e-09
4.30705e-09
6.01459e-09
8.45313e-09
1.18947e-08
1.65877e-08
2.2486e-08
2.83993e-08
2.98532e-08
2.18897e-08
1.63039e-08
1.2335e-08
9.43985e-09
7.43233e-09
6.03179e-09
4.98732e-09
4.07176e-09
3.22903e-09
2.45036e-09
1.73194e-09
1.14662e-09
7.33912e-10
4.66762e-10
3.08679e-10
2.1561e-10
1.5149e-10
1.04318e-10
6.9347e-11
4.44674e-11
2.75796e-11
1.65986e-11
9.73092e-12
5.57815e-12
3.13715e-12
1.73569e-12
9.46754e-13
5.10009e-13
2.71712e-13
1.43336e-13
7.49496e-14
3.88812e-14
2.00246e-14
1.02421e-14
5.20096e-15
2.61751e-15
1.29948e-15
6.2932e-16
2.89363e-16
1.17036e-16
2.69422e-17
9.38212e-16
3.63567e-15
7.75341e-15
1.42608e-14
2.4534e-14
4.06888e-14
6.59651e-14
1.05272e-13
1.65984e-13
2.56129e-13
3.87937e-13
5.79283e-13
8.54172e-13
1.24356e-12
1.78583e-12
2.52629e-12
3.51507e-12
4.80364e-12
6.43902e-12
8.45736e-12
1.08782e-11
1.36998e-11
1.6898e-11
2.04322e-11
2.42282e-11
2.80634e-11
3.18554e-11
3.54274e-11
3.84015e-11
4.07932e-11
4.27514e-11
4.47922e-11
4.75485e-11
5.16675e-11
5.76953e-11
6.59934e-11
7.69098e-11
9.09522e-11
1.08847e-10
1.31973e-10
1.62788e-10
2.04421e-10
2.62605e-10
3.45799e-10
4.64325e-10
6.34744e-10
8.72789e-10
1.20796e-09
1.66354e-09
2.30815e-09
3.18179e-09
4.41471e-09
6.17164e-09
8.67825e-09
1.22039e-08
1.69749e-08
2.28651e-08
2.84311e-08
2.86103e-08
2.1007e-08
1.56904e-08
1.18986e-08
9.13156e-09
7.21582e-09
5.87636e-09
4.85768e-09
3.94829e-09
3.11328e-09
2.33875e-09
1.63054e-09
1.07082e-09
6.82496e-10
4.36294e-10
2.91348e-10
2.04603e-10
1.43786e-10
9.87043e-11
6.54096e-11
4.1847e-11
2.59182e-11
1.55906e-11
9.14248e-12
5.24556e-12
2.95409e-12
1.6371e-12
8.94591e-13
4.82808e-13
2.57696e-13
1.36184e-13
7.13273e-14
3.70556e-14
1.91049e-14
9.77956e-15
4.96977e-15
2.5029e-15
1.2435e-15
6.02637e-16
2.77249e-16
1.12172e-16
2.5824e-17
9.34776e-16
3.6223e-15
7.72459e-15
1.42069e-14
2.44399e-14
4.05311e-14
6.57099e-14
1.04876e-13
1.65352e-13
2.55085e-13
3.86314e-13
5.76717e-13
8.50195e-13
1.23754e-12
1.77692e-12
2.51341e-12
3.49696e-12
4.77886e-12
6.4061e-12
8.41491e-12
1.08273e-11
1.3641e-11
1.68346e-11
2.03648e-11
2.41609e-11
2.80026e-11
3.18107e-11
3.54157e-11
3.84326e-11
4.08697e-11
4.28676e-11
4.49285e-11
4.77043e-11
5.18225e-11
5.78584e-11
6.61941e-11
7.71763e-11
9.13153e-11
1.09354e-10
1.32681e-10
1.63763e-10
2.05814e-10
2.64677e-10
3.49069e-10
4.69654e-10
6.41997e-10
8.85092e-10
1.226e-09
1.6927e-09
2.35408e-09
3.25139e-09
4.51891e-09
6.32528e-09
8.89745e-09
1.24996e-08
1.73304e-08
2.3167e-08
2.82692e-08
2.69454e-08
1.99478e-08
1.49969e-08
1.14271e-08
8.81139e-09
6.99488e-09
5.72101e-09
4.73102e-09
3.8402e-09
2.99332e-09
2.22917e-09
1.53749e-09
1.00394e-09
6.38362e-10
4.09639e-10
2.75189e-10
1.95004e-10
1.37017e-10
9.37853e-11
6.19727e-11
3.95681e-11
2.44759e-11
1.47162e-11
8.63167e-12
4.95626e-12
2.79429e-12
1.55057e-12
8.48493e-13
4.58576e-13
2.45101e-13
1.29701e-13
6.80216e-14
3.53887e-14
1.82791e-14
9.37519e-15
4.77103e-15
2.40426e-15
1.19471e-15
5.78959e-16
2.6632e-16
1.0774e-16
2.48021e-17
9.30875e-16
3.60714e-15
7.69184e-15
1.41454e-14
2.43309e-14
4.03434e-14
6.53916e-14
1.0434e-13
1.64478e-13
2.53663e-13
3.83886e-13
5.72844e-13
8.44239e-13
1.22864e-12
1.76397e-12
2.49512e-12
3.47201e-12
4.74601e-12
6.36461e-12
8.36504e-12
1.07685e-11
1.35762e-11
1.67687e-11
2.03021e-11
2.41014e-11
2.79499e-11
3.17786e-11
3.54154e-11
3.84765e-11
4.09601e-11
4.2992e-11
4.50739e-11
4.78634e-11
5.19917e-11
5.80476e-11
6.64321e-11
7.74943e-11
9.17624e-11
1.09961e-10
1.33525e-10
1.64689e-10
2.07155e-10
2.66589e-10
3.52188e-10
4.74526e-10
6.49674e-10
8.9726e-10
1.24323e-09
1.72025e-09
2.39761e-09
3.31866e-09
4.62111e-09
6.47754e-09
9.11779e-09
1.2803e-08
1.77074e-08
2.35161e-08
2.81945e-08
2.54945e-08
1.90019e-08
1.4361e-08
1.09905e-08
8.51495e-09
6.79179e-09
5.57303e-09
4.60574e-09
3.72615e-09
2.88857e-09
2.1328e-09
1.45808e-09
9.45883e-10
6.01237e-10
3.87842e-10
2.62961e-10
1.86889e-10
1.31145e-10
8.95037e-11
5.89933e-11
3.76014e-11
2.32376e-11
1.39683e-11
8.1955e-12
4.70891e-12
2.65714e-12
1.4759e-12
8.08443e-13
4.37365e-13
2.33987e-13
1.2393e-13
6.50463e-14
3.38614e-14
1.74953e-14
8.97495e-15
4.56992e-15
2.30594e-15
1.14692e-15
5.56038e-16
2.55815e-16
1.03499e-16
2.38269e-17
9.27324e-16
3.59341e-15
7.66244e-15
1.40908e-14
2.42357e-14
4.01824e-14
6.51243e-14
1.03901e-13
1.6377e-13
2.52418e-13
3.8194e-13
5.69885e-13
8.3986e-13
1.2223e-12
1.75498e-12
2.48266e-12
3.45523e-12
4.72417e-12
6.33727e-12
8.33334e-12
1.07311e-11
1.35362e-11
1.67242e-11
2.02534e-11
2.4058e-11
2.7917e-11
3.17613e-11
3.54207e-11
3.85132e-11
4.10285e-11
4.31123e-11
4.52112e-11
4.80156e-11
5.21594e-11
5.82408e-11
6.66754e-11
7.78248e-11
9.21598e-11
1.10499e-10
1.34285e-10
1.65707e-10
2.08577e-10
2.68679e-10
3.55343e-10
4.79436e-10
6.57355e-10
9.09516e-10
1.26182e-09
1.74889e-09
2.4413e-09
3.38405e-09
4.71982e-09
6.62536e-09
9.33508e-09
1.31084e-08
1.80991e-08
2.3907e-08
2.82172e-08
2.43293e-08
1.82283e-08
1.38327e-08
1.06225e-08
8.26939e-09
6.62029e-09
5.44652e-09
4.49611e-09
3.6285e-09
2.80063e-09
2.04983e-09
1.3903e-09
8.9888e-10
5.71849e-10
3.72057e-10
2.50902e-10
1.79518e-10
1.26109e-10
8.60038e-11
5.66347e-11
3.60707e-11
2.2278e-11
1.33859e-11
7.852e-12
4.51132e-12
2.54588e-12
1.41439e-12
7.74959e-13
4.19389e-13
2.24455e-13
1.18928e-13
6.2445e-14
3.25173e-14
1.68034e-14
8.62085e-15
4.39014e-15
2.21485e-15
1.10174e-15
5.34334e-16
2.45923e-16
9.95188e-17
2.29137e-17
9.24392e-16
3.58216e-15
7.63872e-15
1.40475e-14
2.41613e-14
4.00585e-14
6.49204e-14
1.03566e-13
1.63212e-13
2.51468e-13
3.80406e-13
5.67499e-13
8.36248e-13
1.217e-12
1.74744e-12
2.47225e-12
3.44128e-12
4.70595e-12
6.31432e-12
8.3045e-12
1.06997e-11
1.34989e-11
1.66857e-11
2.02193e-11
2.40287e-11
2.78965e-11
3.17561e-11
3.54366e-11
3.85583e-11
4.11037e-11
4.32158e-11
4.53357e-11
4.81573e-11
5.2319e-11
5.84283e-11
6.69128e-11
7.81304e-11
9.25573e-11
1.11025e-10
1.35006e-10
1.66678e-10
2.09926e-10
2.70591e-10
3.58181e-10
4.8379e-10
6.64249e-10
9.20197e-10
1.27833e-09
1.77429e-09
2.48009e-09
3.44414e-09
4.81214e-09
6.76576e-09
9.54249e-09
1.34036e-08
1.84858e-08
2.43104e-08
2.83045e-08
2.34259e-08
1.76133e-08
1.33987e-08
1.03091e-08
8.06179e-09
6.47545e-09
5.33898e-09
4.40306e-09
3.5458e-09
2.72879e-09
1.98327e-09
1.33732e-09
8.62264e-10
5.48795e-10
3.58572e-10
2.43287e-10
1.74487e-10
1.22429e-10
8.33119e-11
5.47461e-11
3.48022e-11
2.14597e-11
1.28773e-11
7.54649e-12
4.33309e-12
2.44446e-12
1.35789e-12
7.44047e-13
4.02744e-13
2.15612e-13
1.14285e-13
6.00296e-14
3.12687e-14
1.61606e-14
8.29319e-15
4.22451e-15
2.13246e-15
1.06137e-15
5.14978e-16
2.37081e-16
9.59554e-17
2.20956e-17
9.21474e-16
3.57087e-15
7.61456e-15
1.40029e-14
2.40842e-14
3.99307e-14
6.47155e-14
1.03248e-13
1.62741e-13
2.50713e-13
3.79235e-13
5.6571e-13
8.33479e-13
1.21282e-12
1.74131e-12
2.46366e-12
3.42978e-12
4.69122e-12
6.29659e-12
8.28284e-12
1.06732e-11
1.34709e-11
1.6658e-11
2.0193e-11
2.40085e-11
2.78853e-11
3.1759e-11
3.54582e-11
3.86049e-11
4.1176e-11
4.3312e-11
4.54504e-11
4.82867e-11
5.24657e-11
5.86006e-11
6.7127e-11
7.84143e-11
9.29298e-11
1.11513e-10
1.35658e-10
1.67547e-10
2.11118e-10
2.723e-10
3.60733e-10
4.87718e-10
6.70358e-10
9.29754e-10
1.29315e-09
1.79718e-09
2.51527e-09
3.49852e-09
4.89579e-09
6.89341e-09
9.73465e-09
1.36809e-08
1.88554e-08
2.47103e-08
2.84471e-08
2.27369e-08
1.71386e-08
1.30622e-08
1.00675e-08
7.89914e-09
6.35488e-09
5.24959e-09
4.3249e-09
3.4752e-09
2.66882e-09
1.92692e-09
1.29268e-09
8.31556e-10
5.29606e-10
3.47656e-10
2.37709e-10
1.70727e-10
1.19594e-10
8.11737e-11
5.31968e-11
3.37325e-11
2.07562e-11
1.24353e-11
7.27912e-12
4.1764e-12
2.355e-12
1.30791e-12
7.16644e-13
3.87954e-13
2.07738e-13
1.10144e-13
5.78811e-14
3.01742e-14
1.56151e-14
8.02384e-15
4.09126e-15
2.06544e-15
1.02776e-15
4.98558e-16
2.29489e-16
9.28745e-17
2.13859e-17
9.1893e-16
3.56105e-15
7.59363e-15
1.39643e-14
2.40175e-14
3.98195e-14
6.45339e-14
1.02956e-13
1.62239e-13
2.49884e-13
3.7797e-13
5.63899e-13
8.31058e-13
1.20949e-12
1.73665e-12
2.45692e-12
3.42046e-12
4.6791e-12
6.28099e-12
8.26518e-12
1.06535e-11
1.34504e-11
1.66385e-11
2.01762e-11
2.39967e-11
2.78814e-11
3.17675e-11
3.54825e-11
3.86502e-11
4.12426e-11
4.33988e-11
4.55534e-11
4.84059e-11
5.26016e-11
5.87619e-11
6.73317e-11
7.86849e-11
9.32831e-11
1.11976e-10
1.36286e-10
1.68377e-10
2.12245e-10
2.73894e-10
3.63074e-10
4.91317e-10
6.75977e-10
9.38537e-10
1.30678e-09
1.81821e-09
2.54733e-09
3.54877e-09
4.97434e-09
7.01463e-09
9.91725e-09
1.39471e-08
1.92156e-08
2.51203e-08
2.86584e-08
2.23815e-08
1.68556e-08
1.28385e-08
9.89598e-09
7.77233e-09
6.26863e-09
5.18317e-09
4.26412e-09
3.41908e-09
2.62015e-09
1.88034e-09
1.25571e-09
8.06177e-10
5.13665e-10
3.3829e-10
2.33127e-10
1.67627e-10
1.17221e-10
7.93563e-11
5.1883e-11
3.28327e-11
2.01684e-11
1.20667e-11
7.05605e-12
4.04539e-12
2.27997e-12
1.26584e-12
6.93485e-13
3.754e-13
2.01014e-13
1.06564e-13
5.59884e-14
2.91851e-14
1.51084e-14
7.7642e-15
3.9595e-15
2.00013e-15
9.9589e-16
4.83329e-16
2.22548e-16
9.00809e-17
2.07444e-17
9.16795e-16
3.55281e-15
7.57612e-15
1.39321e-14
2.39621e-14
3.97274e-14
6.43844e-14
1.02718e-13
1.61823e-13
2.49187e-13
3.76872e-13
5.62239e-13
8.28592e-13
1.20604e-12
1.73207e-12
2.45125e-12
3.41317e-12
4.66962e-12
6.26916e-12
8.25059e-12
1.06379e-11
1.3435e-11
1.66234e-11
2.01642e-11
2.39898e-11
2.7882e-11
3.17789e-11
3.55074e-11
3.86924e-11
4.13025e-11
4.34756e-11
4.56442e-11
4.85104e-11
5.27251e-11
5.8915e-11
6.75234e-11
7.8931e-11
9.35999e-11
1.12388e-10
1.36823e-10
1.69098e-10
2.13251e-10
2.75357e-10
3.65263e-10
4.94691e-10
6.81227e-10
9.46691e-10
1.31924e-09
1.83725e-09
2.57631e-09
3.59348e-09
5.04359e-09
7.12198e-09
1.00813e-08
1.41892e-08
1.95504e-08
2.55061e-08
2.88828e-08
2.2196e-08
1.66852e-08
1.26905e-08
9.77522e-09
7.67953e-09
6.2052e-09
5.13348e-09
4.21769e-09
3.37472e-09
2.58075e-09
1.84144e-09
1.22493e-09
7.84765e-10
5.00354e-10
3.30585e-10
2.29367e-10
1.64959e-10
1.15162e-10
7.77912e-11
5.07512e-11
3.2055e-11
1.96588e-11
1.17465e-11
6.86204e-12
3.93137e-12
2.21465e-12
1.22923e-12
6.73365e-13
3.6454e-13
1.95272e-13
1.03617e-13
5.45032e-14
2.84265e-14
1.47161e-14
7.5631e-15
3.85687e-15
1.94782e-15
9.69708e-16
4.70582e-16
2.16665e-16
8.76955e-17
2.01946e-17
9.15045e-16
3.54607e-15
7.5618e-15
1.39058e-14
2.3917e-14
3.96529e-14
6.42643e-14
1.02528e-13
1.61486e-13
2.48618e-13
3.75979e-13
5.60898e-13
8.26636e-13
1.20325e-12
1.72819e-12
2.44595e-12
3.40651e-12
4.66164e-12
6.25976e-12
8.23986e-12
1.06262e-11
1.3423e-11
1.66132e-11
2.01567e-11
2.39871e-11
2.78858e-11
3.17918e-11
3.55314e-11
3.87309e-11
4.13554e-11
4.35427e-11
4.57241e-11
4.86047e-11
5.28356e-11
5.90469e-11
6.7688e-11
7.91446e-11
9.38744e-11
1.1274e-10
1.37294e-10
1.69721e-10
2.141e-10
2.76556e-10
3.67024e-10
4.97462e-10
6.85717e-10
9.54095e-10
1.33062e-09
1.85455e-09
2.60199e-09
3.63307e-09
5.10515e-09
7.2169e-09
1.02256e-08
1.4402e-08
1.98422e-08
2.58446e-08
2.90865e-08
2.20977e-08
1.65779e-08
1.25888e-08
9.68537e-09
7.6086e-09
6.15438e-09
5.09333e-09
4.179e-09
3.33644e-09
2.54665e-09
1.80847e-09
1.19876e-09
7.671e-10
4.8936e-10
3.24168e-10
2.26218e-10
1.62686e-10
1.13348e-10
7.6395e-11
4.97369e-11
3.13579e-11
1.9203e-11
1.14612e-11
6.68987e-12
3.8306e-12
2.15712e-12
1.19707e-12
6.55696e-13
3.54972e-13
1.90148e-13
1.00889e-13
5.30724e-14
2.77073e-14
1.43528e-14
7.37883e-15
3.76262e-15
1.90046e-15
9.46243e-16
4.59238e-16
2.11455e-16
8.5589e-17
1.97098e-17
9.13632e-16
3.54063e-15
7.55025e-15
1.38847e-14
2.38807e-14
3.9593e-14
6.4168e-14
1.02377e-13
1.61215e-13
2.48161e-13
3.75263e-13
5.59829e-13
8.25086e-13
1.20106e-12
1.72516e-12
2.44191e-12
3.40131e-12
4.65488e-12
6.25187e-12
8.23154e-12
1.06176e-11
1.34149e-11
1.66063e-11
2.01525e-11
2.39871e-11
2.78915e-11
3.18054e-11
3.55545e-11
3.87651e-11
4.14007e-11
4.3599e-11
4.57898e-11
4.86808e-11
5.29268e-11
5.9158e-11
6.78286e-11
7.93254e-11
9.41053e-11
1.13037e-10
1.37676e-10
1.70213e-10
2.14749e-10
2.77448e-10
3.68243e-10
4.99153e-10
6.87991e-10
9.62697e-10
1.34171e-09
1.87027e-09
2.62474e-09
3.66794e-09
5.15867e-09
7.29887e-09
1.03493e-08
1.45815e-08
2.00875e-08
2.6127e-08
2.92533e-08
2.20522e-08
1.6519e-08
1.25381e-08
9.59559e-09
7.54388e-09
6.1099e-09
5.05893e-09
4.14626e-09
3.30451e-09
2.51821e-09
1.78055e-09
1.17698e-09
7.52168e-10
4.80187e-10
3.1884e-10
2.23568e-10
1.60549e-10
1.11579e-10
7.50364e-11
4.8766e-11
3.07038e-11
1.87835e-11
1.1203e-11
6.53629e-12
3.74172e-12
2.10685e-12
1.16916e-12
6.40444e-13
3.46747e-13
1.8576e-13
9.85652e-14
5.18452e-14
2.70541e-14
1.40127e-14
7.20536e-15
3.6763e-15
1.8577e-15
9.25276e-16
4.49179e-16
2.06861e-16
8.37379e-17
1.92843e-17
9.12509e-16
3.53631e-15
7.54106e-15
1.38678e-14
2.38517e-14
3.9545e-14
6.40903e-14
1.02254e-13
1.60999e-13
2.47799e-13
3.74699e-13
5.58989e-13
8.23875e-13
1.19936e-12
1.72282e-12
2.43879e-12
3.39719e-12
4.64993e-12
6.24596e-12
8.22489e-12
1.0611e-11
1.34088e-11
1.66016e-11
2.01503e-11
2.39887e-11
2.78979e-11
3.18182e-11
3.55748e-11
3.87951e-11
4.14406e-11
4.3648e-11
4.58478e-11
4.87484e-11
5.30063e-11
5.9256e-11
6.79532e-11
7.94885e-11
9.43138e-11
1.13302e-10
1.38022e-10
1.70674e-10
2.15388e-10
2.78366e-10
3.69605e-10
5.01299e-10
6.91463e-10
9.68211e-10
1.3501e-09
1.88288e-09
2.64332e-09
3.69656e-09
5.20276e-09
7.36645e-09
1.04516e-08
1.47315e-08
2.02915e-08
2.63604e-08
2.93862e-08
2.20229e-08
1.64697e-08
1.24836e-08
9.54663e-09
7.50399e-09
6.08085e-09
5.03522e-09
4.12253e-09
3.28063e-09
2.49635e-09
1.75904e-09
1.16013e-09
7.40675e-10
4.73127e-10
3.14922e-10
2.21816e-10
1.57373e-10
1.09506e-10
7.36524e-11
4.78607e-11
3.01257e-11
1.84245e-11
1.09862e-11
6.40862e-12
3.66822e-12
2.06535e-12
1.14613e-12
6.27855e-13
3.3996e-13
1.82144e-13
9.66583e-14
5.08479e-14
2.6536e-14
1.37457e-14
7.06885e-15
3.60717e-15
1.82306e-15
9.08154e-16
4.4092e-16
2.03073e-16
8.22083e-17
1.89317e-17
9.11654e-16
3.53301e-15
7.53407e-15
1.3855e-14
2.38297e-14
3.95087e-14
6.40322e-14
1.02162e-13
1.60835e-13
2.47523e-13
3.74268e-13
5.5835e-13
8.22956e-13
1.19807e-12
1.72107e-12
2.43648e-12
3.39421e-12
4.64628e-12
6.24167e-12
8.22016e-12
1.06062e-11
1.34047e-11
1.65988e-11
2.01496e-11
2.3991e-11
2.79043e-11
3.18299e-11
3.55922e-11
3.88197e-11
4.14722e-11
4.36869e-11
4.58937e-11
4.88025e-11
5.30714e-11
5.93375e-11
6.80574e-11
7.96219e-11
9.44841e-11
1.13524e-10
1.38314e-10
1.71064e-10
2.1593e-10
2.79151e-10
3.70772e-10
5.03112e-10
6.94294e-10
9.72413e-10
1.35659e-09
1.8928e-09
2.65805e-09
3.71939e-09
5.23815e-09
7.42091e-09
1.05336e-08
1.48515e-08
2.0455e-08
2.65468e-08
2.94887e-08
2.20084e-08
1.64348e-08
1.24428e-08
9.5117e-09
7.47593e-09
6.06053e-09
5.01858e-09
4.10565e-09
3.26327e-09
2.47904e-09
1.74205e-09
1.14695e-09
7.31745e-10
4.67656e-10
3.1181e-10
2.19882e-10
1.55843e-10
1.0828e-10
7.27273e-11
4.7205e-11
2.96877e-11
1.81458e-11
1.08157e-11
6.30769e-12
3.61002e-12
2.03251e-12
1.12794e-12
6.1793e-13
3.34617e-13
1.79299e-13
9.51579e-14
5.00642e-14
2.61306e-14
1.35377e-14
6.96291e-15
3.5536e-15
1.79619e-15
8.94856e-16
4.34493e-16
2.00122e-16
8.10152e-17
1.86571e-17
9.1104e-16
3.53065e-15
7.52905e-15
1.38458e-14
2.3814e-14
3.94829e-14
6.39907e-14
1.02097e-13
1.60718e-13
2.47323e-13
3.73956e-13
5.57886e-13
8.22286e-13
1.19713e-12
1.71978e-12
2.43474e-12
3.39201e-12
4.64359e-12
6.23865e-12
8.21696e-12
1.06031e-11
1.3402e-11
1.65971e-11
2.01496e-11
2.39935e-11
2.79098e-11
3.18392e-11
3.5606e-11
3.88386e-11
4.14963e-11
4.37163e-11
4.59285e-11
4.88437e-11
5.31215e-11
5.94002e-11
6.81375e-11
7.97259e-11
9.46182e-11
1.13696e-10
1.38541e-10
1.71368e-10
2.16353e-10
2.79762e-10
3.71662e-10
5.0448e-10
6.96417e-10
9.75537e-10
1.36143e-09
1.9002e-09
2.66906e-09
3.73648e-09
5.26462e-09
7.4616e-09
1.05951e-08
1.4941e-08
2.05763e-08
2.66835e-08
2.95579e-08
2.19949e-08
1.64083e-08
1.24129e-08
9.4867e-09
7.45608e-09
6.04636e-09
5.0069e-09
4.09368e-09
3.25109e-09
2.46589e-09
1.72937e-09
1.13721e-09
7.25145e-10
4.63607e-10
3.09508e-10
2.18452e-10
1.54772e-10
1.07446e-10
7.21018e-11
4.67611e-11
2.93883e-11
1.79529e-11
1.06963e-11
6.23622e-12
3.56843e-12
2.00887e-12
1.11476e-12
6.10712e-13
3.30723e-13
1.7723e-13
9.40741e-14
4.95014e-14
2.58398e-14
1.3388e-14
6.88633e-15
3.5147e-15
1.77663e-15
8.85153e-16
4.29797e-16
1.97963e-16
8.01419e-17
1.84561e-17
9.1065e-16
3.52915e-15
7.52588e-15
1.384e-14
2.38041e-14
3.94665e-14
6.39645e-14
1.02056e-13
1.60643e-13
2.47196e-13
3.73757e-13
5.5759e-13
8.21862e-13
1.19653e-12
1.71897e-12
2.43367e-12
3.39067e-12
4.64197e-12
6.23681e-12
8.21502e-12
1.06012e-11
1.34005e-11
1.65964e-11
2.015e-11
2.39956e-11
2.79139e-11
3.18459e-11
3.56157e-11
3.88519e-11
4.15131e-11
4.37366e-11
4.59522e-11
4.88718e-11
5.31558e-11
5.94434e-11
6.81923e-11
7.97968e-11
9.47097e-11
1.13815e-10
1.38698e-10
1.71579e-10
2.16644e-10
2.80178e-10
3.7227e-10
5.0541e-10
6.97842e-10
9.77612e-10
1.36463e-09
1.90512e-09
2.67635e-09
3.7478e-09
5.28211e-09
7.4884e-09
1.06355e-08
1.49997e-08
2.06557e-08
2.67723e-08
2.96012e-08
2.19844e-08
1.63903e-08
1.23931e-08
9.47023e-09
7.44305e-09
6.03714e-09
4.99933e-09
4.08586e-09
3.24287e-09
2.45706e-09
1.72091e-09
1.13073e-09
7.2079e-10
4.60958e-10
3.07996e-10
2.17514e-10
1.54083e-10
1.06907e-10
7.17031e-11
4.64806e-11
2.91995e-11
1.78307e-11
1.06203e-11
6.19052e-12
3.54174e-12
1.99365e-12
1.10626e-12
6.06041e-13
3.28195e-13
1.75878e-13
9.33576e-14
4.9126e-14
2.56453e-14
1.32883e-14
6.83559e-15
3.48907e-15
1.76378e-15
8.78794e-16
4.26724e-16
1.96551e-16
7.95708e-17
1.83246e-17
9.10461e-16
3.52842e-15
7.52434e-15
1.38372e-14
2.37993e-14
3.94587e-14
6.3952e-14
1.02037e-13
1.60608e-13
2.47135e-13
3.73662e-13
5.57449e-13
8.21659e-13
1.19625e-12
1.71858e-12
2.43317e-12
3.39004e-12
4.64122e-12
6.23595e-12
8.2141e-12
1.06004e-11
1.33998e-11
1.65961e-11
2.01504e-11
2.39967e-11
2.79161e-11
3.18495e-11
3.56207e-11
3.88586e-11
4.15215e-11
4.37467e-11
4.59641e-11
4.8886e-11
5.31732e-11
5.94651e-11
6.822e-11
7.98328e-11
9.4756e-11
1.13874e-10
1.38776e-10
1.71683e-10
2.16788e-10
2.80385e-10
3.72573e-10
5.05874e-10
6.98558e-10
9.78653e-10
1.36624e-09
1.90757e-09
2.67998e-09
3.75343e-09
5.2908e-09
7.50173e-09
1.06555e-08
1.50287e-08
2.06947e-08
2.68157e-08
2.96216e-08
2.19793e-08
1.63818e-08
1.23834e-08
9.46219e-09
7.43675e-09
6.03267e-09
4.99565e-09
4.08209e-09
3.23896e-09
2.45272e-09
1.71675e-09
1.12753e-09
7.18647e-10
4.59654e-10
3.07253e-10
2.17053e-10
1.53748e-10
1.0665e-10
7.15127e-11
4.63477e-11
2.91105e-11
1.77733e-11
1.05845e-11
6.16901e-12
3.52917e-12
1.98648e-12
1.10225e-12
6.03837e-13
3.27e-13
1.75238e-13
9.30182e-14
4.89479e-14
2.55527e-14
1.32406e-14
6.81121e-15
3.4767e-15
1.75756e-15
8.75706e-16
4.25228e-16
1.95863e-16
7.92917e-17
1.82602e-17
9.10464e-16
3.52843e-15
7.52437e-15
1.38372e-14
2.37994e-14
3.94588e-14
6.39522e-14
1.02037e-13
1.60608e-13
2.47135e-13
3.73662e-13
5.5745e-13
8.21661e-13
1.19625e-12
1.71859e-12
2.43318e-12
3.39005e-12
4.64122e-12
6.23596e-12
8.21411e-12
1.06004e-11
1.33999e-11
1.65961e-11
2.01504e-11
2.39968e-11
2.79162e-11
3.18495e-11
3.56208e-11
3.88587e-11
4.15217e-11
4.37469e-11
4.59643e-11
4.88862e-11
5.31734e-11
5.94653e-11
6.82203e-11
7.98332e-11
9.47565e-11
1.13875e-10
1.38777e-10
1.71684e-10
2.16789e-10
2.80386e-10
3.72575e-10
5.05877e-10
6.98563e-10
9.7866e-10
1.36625e-09
1.90758e-09
2.68e-09
3.75346e-09
5.29084e-09
7.50178e-09
1.06555e-08
1.50288e-08
2.06948e-08
2.68157e-08
2.96216e-08
2.19792e-08
1.63814e-08
1.23833e-08
9.46213e-09
7.43674e-09
6.03268e-09
4.99569e-09
4.08219e-09
3.2392e-09
2.45281e-09
1.71679e-09
1.12755e-09
7.18655e-10
4.59657e-10
3.07254e-10
2.17054e-10
1.53749e-10
1.06651e-10
7.15129e-11
4.63479e-11
2.91107e-11
1.77734e-11
1.05846e-11
6.16904e-12
3.52919e-12
1.98649e-12
1.10226e-12
6.03841e-13
3.27002e-13
1.75239e-13
9.30189e-14
4.89482e-14
2.55529e-14
1.32407e-14
6.81125e-15
3.47672e-15
1.75757e-15
8.7571e-16
4.2523e-16
1.95863e-16
7.92921e-17
1.82603e-17
9.10658e-16
3.52918e-15
7.52594e-15
1.38401e-14
2.38043e-14
3.94669e-14
6.39652e-14
1.02057e-13
1.60645e-13
2.47197e-13
3.73759e-13
5.57593e-13
8.21866e-13
1.19654e-12
1.71898e-12
2.43369e-12
3.39069e-12
4.64199e-12
6.23684e-12
8.21506e-12
1.06013e-11
1.34006e-11
1.65965e-11
2.01502e-11
2.39957e-11
2.79141e-11
3.18461e-11
3.56159e-11
3.88522e-11
4.15135e-11
4.3737e-11
4.59527e-11
4.88724e-11
5.31565e-11
5.94441e-11
6.81933e-11
7.97981e-11
9.47114e-11
1.13817e-10
1.387e-10
1.71581e-10
2.16647e-10
2.80182e-10
3.72276e-10
5.05419e-10
6.97857e-10
9.77634e-10
1.36466e-09
1.90516e-09
2.67641e-09
3.74788e-09
5.28222e-09
7.48857e-09
1.06357e-08
1.5e-08
2.0656e-08
2.67726e-08
2.96013e-08
2.19845e-08
1.63904e-08
1.23931e-08
9.47027e-09
7.44316e-09
6.03718e-09
4.99934e-09
4.08587e-09
3.24287e-09
2.45707e-09
1.72093e-09
1.13075e-09
7.20804e-10
4.60967e-10
3.08e-10
2.17516e-10
1.54084e-10
1.06908e-10
7.17038e-11
4.64812e-11
2.91999e-11
1.7831e-11
1.06205e-11
6.19063e-12
3.5418e-12
1.99369e-12
1.10628e-12
6.06053e-13
3.28202e-13
1.75882e-13
9.33596e-14
4.9127e-14
2.56458e-14
1.32885e-14
6.83569e-15
3.48912e-15
1.7638e-15
8.78804e-16
4.26728e-16
1.96553e-16
7.95716e-17
1.83247e-17
9.11051e-16
3.53069e-15
7.52914e-15
1.3846e-14
2.38143e-14
3.94833e-14
6.39914e-14
1.02098e-13
1.60719e-13
2.47325e-13
3.73958e-13
5.5789e-13
8.22292e-13
1.19714e-12
1.71979e-12
2.43476e-12
3.39204e-12
4.64363e-12
6.2387e-12
8.21702e-12
1.06032e-11
1.34021e-11
1.65973e-11
2.01498e-11
2.39937e-11
2.79101e-11
3.18395e-11
3.56063e-11
3.88391e-11
4.14968e-11
4.37168e-11
4.5929e-11
4.88443e-11
5.31222e-11
5.94011e-11
6.81386e-11
7.97273e-11
9.46202e-11
1.13699e-10
1.38545e-10
1.71373e-10
2.16359e-10
2.79769e-10
3.71674e-10
5.04497e-10
6.96435e-10
9.7556e-10
1.36145e-09
1.90025e-09
2.66914e-09
3.7366e-09
5.26479e-09
7.46184e-09
1.05954e-08
1.49415e-08
2.05769e-08
2.66842e-08
2.95582e-08
2.1995e-08
1.64083e-08
1.24128e-08
9.48666e-09
7.45599e-09
6.04632e-09
5.0069e-09
4.09371e-09
3.25111e-09
2.46593e-09
1.72941e-09
1.13725e-09
7.25173e-10
4.63623e-10
3.09514e-10
2.18455e-10
1.54774e-10
1.07447e-10
7.21032e-11
4.67622e-11
2.93891e-11
1.79534e-11
1.06967e-11
6.23643e-12
3.56855e-12
2.00894e-12
1.1148e-12
6.10733e-13
3.30735e-13
1.77237e-13
9.40777e-14
4.95034e-14
2.58408e-14
1.33886e-14
6.88662e-15
3.51484e-15
1.77669e-15
8.85181e-16
4.29809e-16
1.97968e-16
8.01437e-17
1.84565e-17
9.11667e-16
3.53306e-15
7.53417e-15
1.38552e-14
2.38301e-14
3.95093e-14
6.40331e-14
1.02164e-13
1.60838e-13
2.47525e-13
3.74272e-13
5.58356e-13
8.22964e-13
1.19808e-12
1.72109e-12
2.4365e-12
3.39424e-12
4.64632e-12
6.24173e-12
8.22025e-12
1.06063e-11
1.34048e-11
1.65989e-11
2.01498e-11
2.39913e-11
2.79046e-11
3.18302e-11
3.55927e-11
3.88201e-11
4.14726e-11
4.36874e-11
4.58943e-11
4.8803e-11
5.30719e-11
5.93379e-11
6.80575e-11
7.96226e-11
9.4485e-11
1.13525e-10
1.38316e-10
1.71067e-10
2.15936e-10
2.79159e-10
3.70778e-10
5.03121e-10
6.9431e-10
9.72444e-10
1.35664e-09
1.89287e-09
2.65816e-09
3.71954e-09
5.23833e-09
7.42113e-09
1.05338e-08
1.48516e-08
2.04554e-08
2.65472e-08
2.94887e-08
2.20086e-08
1.64351e-08
1.24431e-08
9.51193e-09
7.47608e-09
6.06062e-09
5.01864e-09
4.1057e-09
3.26332e-09
2.47911e-09
1.74213e-09
1.14701e-09
7.31782e-10
4.67673e-10
3.11817e-10
2.19885e-10
1.55845e-10
1.08282e-10
7.27291e-11
4.72064e-11
2.96887e-11
1.81465e-11
1.08162e-11
6.30797e-12
3.61018e-12
2.0326e-12
1.12799e-12
6.17958e-13
3.34632e-13
1.79307e-13
9.51615e-14
5.00659e-14
2.61313e-14
1.3538e-14
6.96304e-15
3.55365e-15
1.79621e-15
8.94861e-16
4.34494e-16
2.00122e-16
8.10148e-17
1.8657e-17
9.12524e-16
3.53636e-15
7.54117e-15
1.3868e-14
2.38521e-14
3.95456e-14
6.40915e-14
1.02256e-13
1.61002e-13
2.47802e-13
3.74704e-13
5.58996e-13
8.23885e-13
1.19937e-12
1.72285e-12
2.43883e-12
3.39723e-12
4.64999e-12
6.24604e-12
8.22499e-12
1.06112e-11
1.3409e-11
1.66018e-11
2.01506e-11
2.3989e-11
2.78983e-11
3.18186e-11
3.55753e-11
3.87955e-11
4.14408e-11
4.36485e-11
4.58485e-11
4.87492e-11
5.30072e-11
5.92572e-11
6.79547e-11
7.94894e-11
9.43144e-11
1.13302e-10
1.38022e-10
1.70674e-10
2.15388e-10
2.78366e-10
3.69607e-10
5.01305e-10
6.91478e-10
9.68242e-10
1.35015e-09
1.88297e-09
2.64345e-09
3.69675e-09
5.20304e-09
7.36681e-09
1.0452e-08
1.4732e-08
2.0292e-08
2.63608e-08
2.93861e-08
2.20232e-08
1.64702e-08
1.2484e-08
9.54697e-09
7.50424e-09
6.081e-09
5.0353e-09
4.12253e-09