/*--------------------------------*- C++ -*----------------------------------*\
  =========                 |
  \\      /  F ield         | OpenFOAM: The Open Source CFD Toolbox
   \\    /   O peration     | Website:  https://openfoam.org
    \\  /    A nd           | Version:  10
     \\/     M anipulation  |
\*---------------------------------------------------------------------------*/
FoamFile
{
    format      ascii;
    class       volScalarField;
    location    "1";
    object      HO2;
}
// * * * * * * * * * * * * * * * * * * * * * * * * * * * * * * * * * * * * * //

dimensions      [0 0 0 0 0 0 0];

internalField   nonuniform List<scalar> 
4000
(
2.38556e-14
9.24318e-14
1.9708e-13
3.62435e-13
6.23627e-13
1.0351e-12
1.68133e-12
2.69285e-12
4.27097e-12
6.64483e-12
1.01915e-11
1.5503e-11
2.34792e-11
3.55014e-11
5.37346e-11
8.16489e-11
1.2485e-10
1.92457e-10
2.99235e-10
4.68668e-10
7.36949e-10
1.15751e-09
1.80501e-09
2.78097e-09
4.19553e-09
6.11783e-09
8.65197e-09
1.1836e-08
1.5444e-08
1.93079e-08
2.30414e-08
2.63503e-08
2.88988e-08
3.0427e-08
3.08476e-08
3.03359e-08
2.93182e-08
2.83033e-08
2.77195e-08
2.78701e-08
2.89845e-08
3.12454e-08
3.48355e-08
3.99118e-08
4.65978e-08
5.50799e-08
6.5196e-08
7.73863e-08
9.15542e-08
1.0895e-07
1.29639e-07
1.55303e-07
1.88008e-07
2.30725e-07
2.88127e-07
3.68108e-07
4.85277e-07
6.69587e-07
9.85699e-07
1.56466e-06
2.41972e-06
3.37371e-06
4.29686e-06
5.15493e-06
5.98153e-06
6.79247e-06
7.59684e-06
8.36577e-06
9.05235e-06
9.39933e-06
9.08315e-06
7.88171e-06
5.97223e-06
3.97304e-06
2.39246e-06
1.3451e-06
6.98064e-07
3.47734e-07
1.68707e-07
8.19213e-08
4.07757e-08
2.08564e-08
1.08922e-08
5.75326e-09
3.04833e-09
1.61133e-09
8.47054e-10
4.41947e-10
2.29453e-10
1.18493e-10
6.08688e-11
3.11088e-11
1.58172e-11
7.99537e-12
4.01041e-12
1.98633e-12
9.60478e-13
4.41128e-13
1.78272e-13
4.10294e-14
2.38576e-14
9.24418e-14
1.97118e-13
3.62571e-13
6.24005e-13
1.03595e-12
1.68292e-12
2.6953e-12
4.27374e-12
6.64793e-12
1.01903e-11
1.54862e-11
2.34227e-11
3.53542e-11
5.33934e-11
8.09073e-11
1.23287e-10
1.89438e-10
2.93773e-10
4.59244e-10
7.21345e-10
1.13285e-09
1.76812e-09
2.71964e-09
4.10537e-09
5.99356e-09
8.49253e-09
1.16573e-08
1.52581e-08
1.91462e-08
2.29256e-08
2.6298e-08
2.89171e-08
3.05223e-08
3.10079e-08
3.05379e-08
2.95349e-08
2.85142e-08
2.79161e-08
2.80523e-08
2.91589e-08
3.14242e-08
3.50382e-08
4.01717e-08
4.69426e-08
5.55393e-08
6.58078e-08
7.82289e-08
9.2674e-08
1.10457e-07
1.31614e-07
1.57893e-07
1.91433e-07
2.35247e-07
2.94186e-07
3.76362e-07
4.96901e-07
6.8688e-07
1.01438e-06
1.61344e-06
2.48323e-06
3.44387e-06
4.37048e-06
5.23375e-06
6.06848e-06
6.8899e-06
7.70378e-06
8.47321e-06
9.15107e-06
9.45673e-06
9.05793e-06
7.76365e-06
5.79853e-06
3.80923e-06
2.26434e-06
1.25417e-06
6.45033e-07
3.19308e-07
1.54277e-07
7.51499e-08
3.76187e-08
1.93715e-08
1.01872e-08
5.41807e-09
2.89036e-09
1.5384e-09
8.14872e-10
4.29409e-10
2.2433e-10
1.16296e-10
5.9881e-11
3.06443e-11
1.55882e-11
7.87458e-12
3.94851e-12
1.95508e-12
9.44925e-13
4.33901e-13
1.75356e-13
4.03573e-14
2.39039e-14
9.26293e-14
1.97554e-13
3.63449e-13
6.25636e-13
1.03878e-12
1.68748e-12
2.70198e-12
4.28218e-12
6.65781e-12
1.01972e-11
1.54799e-11
2.33846e-11
3.52395e-11
5.31131e-11
8.02793e-11
1.22086e-10
1.872e-10
2.8964e-10
4.51707e-10
7.07892e-10
1.10947e-09
1.72998e-09
2.66429e-09
4.02647e-09
5.88813e-09
8.36434e-09
1.15079e-08
1.51051e-08
1.90183e-08
2.28357e-08
2.6271e-08
2.89729e-08
3.06776e-08
3.1252e-08
3.08425e-08
2.98639e-08
2.88385e-08
2.82232e-08
2.83418e-08
2.94395e-08
3.17123e-08
3.53631e-08
4.05784e-08
4.74585e-08
5.62275e-08
6.6753e-08
7.95184e-08
9.44514e-08
1.12855e-07
1.34756e-07
1.62135e-07
1.97045e-07
2.42673e-07
3.041e-07
3.89754e-07
5.15722e-07
7.15636e-07
1.06251e-06
1.69475e-06
2.58756e-06
3.55782e-06
4.48963e-06
5.35916e-06
6.20231e-06
7.03713e-06
7.86054e-06
8.63325e-06
9.29181e-06
9.52805e-06
9.00198e-06
7.56985e-06
5.5492e-06
3.60294e-06
2.08701e-06
1.15154e-06
5.88776e-07
2.90893e-07
1.40764e-07
6.90556e-08
3.48565e-08
1.80914e-08
9.57859e-09
5.12285e-09
2.74536e-09
1.4665e-09
7.7862e-10
4.10404e-10
2.14711e-10
1.11528e-10
5.75481e-11
2.95148e-11
1.50522e-11
7.63363e-12
3.83633e-12
1.90189e-12
9.19851e-13
4.22473e-13
1.70727e-13
3.92857e-14
2.39075e-14
9.26429e-14
1.97582e-13
3.63491e-13
6.25659e-13
1.03865e-12
1.6868e-12
2.69976e-12
4.27623e-12
6.64492e-12
1.01682e-11
1.54154e-11
2.3245e-11
3.49736e-11
5.26393e-11
7.94792e-11
1.2071e-10
1.8483e-10
2.85593e-10
4.44907e-10
6.96736e-10
1.09174e-09
1.70124e-09
2.62114e-09
3.96586e-09
5.80537e-09
8.2593e-09
1.13895e-08
1.49805e-08
1.89113e-08
2.27706e-08
2.62729e-08
2.90625e-08
3.08663e-08
3.1533e-08
3.1192e-08
3.0243e-08
2.9217e-08
2.8588e-08
2.86939e-08
2.97913e-08
3.20865e-08
3.57856e-08
4.10896e-08
4.81245e-08
5.71157e-08
6.79585e-08
8.11593e-08
9.6623e-08
1.15745e-07
1.38551e-07
1.67138e-07
2.03715e-07
2.51616e-07
3.15976e-07
4.05988e-07
5.38888e-07
7.51097e-07
1.12207e-06
1.79428e-06
2.71138e-06
3.68755e-06
4.63763e-06
5.51155e-06
6.36411e-06
7.21355e-06
8.04593e-06
8.81576e-06
9.43805e-06
9.58444e-06
8.90491e-06
7.32594e-06
5.24899e-06
3.34065e-06
1.91848e-06
1.05131e-06
5.33233e-07
2.62526e-07
1.27122e-07
6.27203e-08
3.18806e-08
1.6658e-08
8.87085e-09
4.76759e-09
2.56585e-09
1.37586e-09
7.33068e-10
3.87652e-10
2.03408e-10
1.05935e-10
5.47848e-11
2.81475e-11
1.43706e-11
7.28758e-12
3.66407e-12
1.81778e-12
8.79901e-13
4.04457e-13
1.63562e-13
3.76531e-14
2.3879e-14
9.25324e-14
1.97344e-13
3.63037e-13
6.2482e-13
1.03709e-12
1.68383e-12
2.69399e-12
4.26487e-12
6.62241e-12
1.0127e-11
1.53433e-11
2.31249e-11
3.47682e-11
5.22842e-11
7.88629e-11
1.19642e-10
1.82991e-10
2.82458e-10
4.39651e-10
6.88127e-10
1.07806e-09
1.68029e-09
2.58817e-09
3.91496e-09
5.73134e-09
8.15818e-09
1.12778e-08
1.4873e-08
1.88269e-08
2.27325e-08
2.63017e-08
2.91783e-08
3.108e-08
3.18436e-08
3.15609e-08
3.06389e-08
2.9614e-08
2.89747e-08
2.9072e-08
3.01753e-08
3.24973e-08
3.62592e-08
4.16805e-08
4.88878e-08
5.81177e-08
6.92846e-08
8.29159e-08
9.89376e-08
1.18839e-07
1.42682e-07
1.72638e-07
2.11041e-07
2.61329e-07
3.29059e-07
4.23896e-07
5.64467e-07
7.9066e-07
1.18941e-06
1.90854e-06
2.85334e-06
3.84191e-06
4.79689e-06
5.67808e-06
6.54046e-06
7.40428e-06
8.24709e-06
9.01965e-06
9.58647e-06
9.61592e-06
8.77368e-06
7.0506e-06
4.92505e-06
3.08374e-06
1.78251e-06
9.42288e-07
4.76347e-07
2.34796e-07
1.14296e-07
5.68826e-08
2.91727e-08
1.53634e-08
8.23379e-09
4.44769e-09
2.40353e-09
1.29326e-09
6.91104e-10
3.66409e-10
1.92697e-10
1.00554e-10
5.20887e-11
2.67984e-11
1.3696e-11
6.95083e-12
3.49674e-12
1.73552e-12
8.40368e-13
3.86385e-13
1.5628e-13
3.59774e-14
2.38205e-14
9.23065e-14
1.9686e-13
3.62135e-13
6.23222e-13
1.03431e-12
1.67898e-12
2.68541e-12
4.25001e-12
6.59747e-12
1.00865e-11
1.52795e-11
2.30222e-11
3.45985e-11
5.19991e-11
7.83774e-11
1.18807e-10
1.81532e-10
2.79888e-10
4.35104e-10
6.80105e-10
1.064e-09
1.65656e-09
2.55251e-09
3.86605e-09
5.66844e-09
8.08428e-09
1.11971e-08
1.47958e-08
1.87717e-08
2.27217e-08
2.63523e-08
2.93087e-08
3.12952e-08
3.21374e-08
3.1916e-08
3.1024e-08
3.00058e-08
2.93648e-08
2.94654e-08
3.05814e-08
3.29419e-08
3.67797e-08
4.23315e-08
4.97328e-08
5.92286e-08
7.07779e-08
8.48514e-08
1.0154e-07
1.22328e-07
1.4726e-07
1.78591e-07
2.18752e-07
2.71443e-07
3.42513e-07
4.42239e-07
5.90761e-07
8.31787e-07
1.26008e-06
2.02241e-06
2.9886e-06
3.98175e-06
4.93834e-06
5.82712e-06
6.70467e-06
7.58319e-06
8.43526e-06
9.19974e-06
9.71425e-06
9.61568e-06
8.60513e-06
6.74979e-06
4.62576e-06
2.85289e-06
1.62564e-06
8.53007e-07
4.29756e-07
2.11935e-07
1.03622e-07
5.19285e-08
2.68201e-08
1.42105e-08
7.65288e-09
4.14974e-09
2.24959e-09
1.21374e-09
6.50214e-10
3.45516e-10
1.82093e-10
9.52028e-11
4.93991e-11
2.54464e-11
1.30172e-11
6.612e-12
3.32893e-12
1.6536e-12
8.01333e-13
3.68663e-13
1.49163e-13
3.43414e-14
2.37343e-14
9.19716e-14
1.96138e-13
3.60786e-13
6.20863e-13
1.03035e-12
1.67254e-12
2.67536e-12
4.23378e-12
6.5702e-12
1.00429e-11
1.52078e-11
2.29047e-11
3.4407e-11
5.16861e-11
7.78622e-11
1.17953e-10
1.80106e-10
2.77495e-10
4.31095e-10
6.73664e-10
1.05379e-09
1.64113e-09
2.5291e-09
3.83212e-09
5.62261e-09
8.02645e-09
1.11352e-08
1.47414e-08
1.87401e-08
2.27319e-08
2.64164e-08
2.94578e-08
3.15172e-08
3.2428e-08
3.22572e-08
3.13899e-08
3.0375e-08
2.97363e-08
2.98463e-08
3.09855e-08
3.33924e-08
3.73119e-08
4.29992e-08
5.06131e-08
6.03202e-08
7.22479e-08
8.67357e-08
1.04056e-07
1.25673e-07
1.51639e-07
1.84333e-07
2.26318e-07
2.81435e-07
3.55852e-07
4.60536e-07
6.17295e-07
8.74e-07
1.33344e-06
2.13348e-06
3.11687e-06
4.11332e-06
5.06981e-06
5.96407e-06
6.84849e-06
7.73178e-06
8.57956e-06
9.35718e-06
9.80602e-06
9.57867e-06
8.41766e-06
6.45945e-06
4.3423e-06
2.63316e-06
1.49143e-06
7.77612e-07
3.90478e-07
1.92169e-07
9.44651e-08
4.76703e-08
2.47881e-08
1.32097e-08
7.14643e-09
3.88905e-09
2.11439e-09
1.14359e-09
6.13945e-10
3.26868e-10
1.72567e-10
9.0372e-11
4.69732e-11
2.42486e-11
1.24322e-11
6.32513e-12
3.1868e-12
1.58337e-12
7.67267e-13
3.52941e-13
1.42786e-13
3.2871e-14
2.36411e-14
9.16095e-14
1.95356e-13
3.59316e-13
6.18256e-13
1.02585e-12
1.66487e-12
2.66233e-12
4.21227e-12
6.53448e-12
9.98028e-12
1.51044e-11
2.2738e-11
3.41405e-11
5.12612e-11
7.71843e-11
1.16871e-10
1.78376e-10
2.7474e-10
4.26757e-10
6.66779e-10
1.04333e-09
1.62605e-09
2.50807e-09
3.8022e-09
5.58171e-09
7.97906e-09
1.10857e-08
1.47016e-08
1.87253e-08
2.27645e-08
2.65028e-08
2.96106e-08
3.17364e-08
3.27079e-08
3.25824e-08
3.17406e-08
3.07499e-08
3.01142e-08
3.02256e-08
3.13784e-08
3.38298e-08
3.78202e-08
4.36599e-08
5.14572e-08
6.14161e-08
7.36721e-08
8.85209e-08
1.06413e-07
1.28814e-07
1.55818e-07
1.89863e-07
2.33626e-07
2.91122e-07
3.68864e-07
4.78565e-07
6.43842e-07
9.1702e-07
1.40908e-06
2.24102e-06
3.23828e-06
4.23653e-06
5.1924e-06
6.09197e-06
6.98673e-06
7.8772e-06
8.72775e-06
9.49378e-06
9.87687e-06
9.52542e-06
8.22387e-06
6.1915e-06
4.09735e-06
2.45685e-06
1.37576e-06
7.12865e-07
3.56957e-07
1.75442e-07
8.67313e-08
4.40728e-08
2.30706e-08
1.23631e-08
6.71749e-09
3.66773e-09
1.99918e-09
1.08351e-09
5.82689e-10
3.10684e-10
1.64231e-10
8.60992e-11
4.47892e-11
2.31311e-11
1.18628e-11
6.03941e-12
3.04726e-12
1.5156e-12
7.34782e-13
3.38055e-13
1.36777e-13
3.14891e-14
2.35593e-14
9.12935e-14
1.94681e-13
3.58062e-13
6.16066e-13
1.02214e-12
1.65869e-12
2.65213e-12
4.19563e-12
6.50465e-12
9.93268e-12
1.50298e-11
2.26224e-11
3.39618e-11
5.09835e-11
7.67491e-11
1.16185e-10
1.77288e-10
2.73012e-10
4.24097e-10
6.62479e-10
1.03684e-09
1.61568e-09
2.49188e-09
3.78087e-09
5.55557e-09
7.94833e-09
1.10529e-08
1.46769e-08
1.87158e-08
2.28311e-08
2.66083e-08
2.97681e-08
3.19487e-08
3.29708e-08
3.28823e-08
3.20669e-08
3.10748e-08
3.04433e-08
3.05715e-08
3.17553e-08
3.42625e-08
3.83506e-08
4.43239e-08
5.23139e-08
6.25244e-08
7.51422e-08
9.04181e-08
1.08872e-07
1.31999e-07
1.59882e-07
1.9514e-07
2.40536e-07
3.00287e-07
3.81208e-07
4.95756e-07
6.69356e-07
9.58723e-07
1.48241e-06
2.34081e-06
3.34786e-06
4.34652e-06
5.29884e-06
6.20507e-06
7.10829e-06
8.00478e-06
8.85359e-06
9.60387e-06
9.92527e-06
9.4609e-06
8.04551e-06
5.9655e-06
3.914e-06
2.27677e-06
1.27077e-06
6.57754e-07
3.29775e-07
1.62473e-07
8.08343e-08
4.13441e-08
2.17632e-08
1.17124e-08
6.38325e-09
3.49255e-09
1.90652e-09
1.03441e-09
5.56772e-10
2.97087e-10
1.57148e-10
8.2433e-11
4.29013e-11
2.21615e-11
1.13674e-11
5.78815e-12
2.92e-12
1.45251e-12
7.04466e-13
3.24238e-13
1.31217e-13
3.02129e-14
2.34943e-14
9.10445e-14
1.94155e-13
3.57104e-13
6.14419e-13
1.01938e-12
1.65414e-12
2.64462e-12
4.18304e-12
6.48273e-12
9.89643e-12
1.49716e-11
2.25304e-11
3.38177e-11
5.07592e-11
7.63992e-11
1.15633e-10
1.76408e-10
2.716e-10
4.21771e-10
6.59018e-10
1.03114e-09
1.60741e-09
2.48111e-09
3.7664e-09
5.53781e-09
7.92961e-09
1.10367e-08
1.46734e-08
1.87345e-08
2.28877e-08
2.67082e-08
2.99172e-08
3.21466e-08
3.32134e-08
3.31599e-08
3.23529e-08
3.13668e-08
3.07421e-08
3.08856e-08
3.21007e-08
3.46634e-08
3.88288e-08
4.49212e-08
5.30794e-08
6.35305e-08
7.64387e-08
9.20954e-08
1.11046e-07
1.34815e-07
1.63586e-07
2.00004e-07
2.46948e-07
3.08737e-07
3.92585e-07
5.1166e-07
6.93139e-07
9.98061e-07
1.55209e-06
2.43336e-06
3.44917e-06
4.44908e-06
5.39501e-06
6.30585e-06
7.21475e-06
8.11367e-06
8.95855e-06
9.68757e-06
9.9515e-06
9.39278e-06
7.88427e-06
5.76576e-06
3.73968e-06
2.15618e-06
1.19724e-06
6.17903e-07
3.09587e-07
1.52637e-07
7.62256e-08
3.91463e-08
2.06795e-08
1.1159e-08
6.09295e-09
3.33788e-09
1.82368e-09
9.90145e-10
5.33268e-10
2.84707e-10
1.50682e-10
7.90819e-11
4.11732e-11
2.12735e-11
1.09153e-11
5.55973e-12
2.8064e-12
1.39683e-12
6.77765e-13
3.12036e-13
1.26298e-13
2.90834e-14
2.34323e-14
9.08048e-14
1.93643e-13
3.56157e-13
6.12784e-13
1.01667e-12
1.64978e-12
2.63782e-12
4.17288e-12
6.46599e-12
9.8698e-12
1.49296e-11
2.24624e-11
3.37086e-11
5.0585e-11
7.61243e-11
1.15204e-10
1.75737e-10
2.70566e-10
4.20098e-10
6.56261e-10
1.0271e-09
1.60166e-09
2.47296e-09
3.75643e-09
5.52664e-09
7.91965e-09
1.10312e-08
1.46812e-08
1.87631e-08
2.29482e-08
2.6806e-08
3.0055e-08
3.23238e-08
3.34235e-08
3.33913e-08
3.25981e-08
3.16208e-08
3.10034e-08
3.11595e-08
3.24012e-08
3.50088e-08
3.92477e-08
4.54503e-08
5.37635e-08
6.44167e-08
7.75916e-08
9.35945e-08
1.12996e-07
1.37361e-07
1.66904e-07
2.04323e-07
2.52592e-07
3.16218e-07
4.02639e-07
5.25661e-07
7.13953e-07
1.03204e-06
1.61968e-06
2.51852e-06
3.53837e-06
4.53668e-06
5.47832e-06
6.39817e-06
7.31056e-06
8.21038e-06
9.05099e-06
9.75554e-06
9.96578e-06
9.32311e-06
7.73429e-06
5.58627e-06
3.59359e-06
2.06687e-06
1.14272e-06
5.88016e-07
2.94205e-07
1.44995e-07
7.25473e-08
3.73491e-08
1.97764e-08
1.06912e-08
5.84485e-09
3.20461e-09
1.75186e-09
9.51578e-10
5.12703e-10
2.73837e-10
1.44991e-10
7.61366e-11
3.96754e-11
2.05278e-11
1.05473e-11
5.37773e-12
2.71486e-12
1.35091e-12
6.55326e-13
3.01659e-13
1.22085e-13
2.81127e-14
2.33807e-14
9.0606e-14
1.9322e-13
3.55378e-13
6.11441e-13
1.01444e-12
1.64614e-12
2.63196e-12
4.16258e-12
6.44852e-12
9.84251e-12
1.48895e-11
2.24065e-11
3.36268e-11
5.04595e-11
7.59206e-11
1.14876e-10
1.7522e-10
2.69731e-10
4.1886e-10
6.54385e-10
1.02437e-09
1.59786e-09
2.46795e-09
3.7504e-09
5.52056e-09
7.91599e-09
1.10331e-08
1.46959e-08
1.8797e-08
2.30103e-08
2.69004e-08
3.01853e-08
3.24857e-08
3.36114e-08
3.35996e-08
3.28184e-08
3.18483e-08
3.12396e-08
3.14151e-08
3.26829e-08
3.5332e-08
3.96359e-08
4.59347e-08
5.43867e-08
6.5226e-08
7.86431e-08
9.49601e-08
1.14765e-07
1.39643e-07
1.69898e-07
2.08256e-07
2.57751e-07
3.22999e-07
4.11749e-07
5.38373e-07
7.33201e-07
1.06438e-06
1.67519e-06
2.59022e-06
3.61504e-06
4.61339e-06
5.55627e-06
6.47778e-06
7.39587e-06
8.29823e-06
9.13454e-06
9.81464e-06
9.97519e-06
9.25864e-06
7.60175e-06
5.43273e-06
3.46313e-06
1.99175e-06
1.09787e-06
5.63518e-07
2.81513e-07
1.38728e-07
6.9544e-08
3.58856e-08
1.90401e-08
1.03084e-08
5.64084e-09
3.09444e-09
1.69217e-09
9.19356e-10
4.95428e-10
2.64643e-10
1.40113e-10
7.35635e-11
3.83323e-11
1.98401e-11
1.01949e-11
5.19891e-12
2.62621e-12
1.30765e-12
6.3465e-13
2.92232e-13
1.1829e-13
2.7241e-14
2.33395e-14
9.04472e-14
1.92883e-13
3.54761e-13
6.10382e-13
1.01269e-12
1.64331e-12
2.62748e-12
4.15449e-12
6.43454e-12
9.82006e-12
1.48547e-11
2.23532e-11
3.35483e-11
5.0347e-11
7.57641e-11
1.1464e-10
1.74846e-10
2.69141e-10
4.17916e-10
6.53027e-10
1.02246e-09
1.59514e-09
2.46465e-09
3.74692e-09
5.518e-09
7.91662e-09
1.10397e-08
1.47149e-08
1.88334e-08
2.30715e-08
2.69894e-08
3.03035e-08
3.26333e-08
3.37868e-08
3.37897e-08
3.3014e-08
3.20475e-08
3.14457e-08
3.16295e-08
3.29221e-08
3.56152e-08
3.9987e-08
4.63836e-08
5.49653e-08
6.59728e-08
7.96041e-08
9.61864e-08
1.16334e-07
1.41661e-07
1.72483e-07
2.1159e-07
2.62103e-07
3.28756e-07
4.19511e-07
5.49306e-07
7.49623e-07
1.09184e-06
1.72182e-06
2.65041e-06
3.67992e-06
4.67919e-06
5.62416e-06
6.5475e-06
7.4705e-06
8.37451e-06
9.20738e-06
9.86525e-06
9.98128e-06
9.1995e-06
7.48251e-06
5.30006e-06
3.35382e-06
1.93002e-06
1.06001e-06
5.42888e-07
2.70944e-07
1.33531e-07
6.70412e-08
3.46569e-08
1.84173e-08
9.98241e-09
5.46621e-09
2.99977e-09
1.64077e-09
8.91594e-10
4.80587e-10
2.56837e-10
1.36119e-10
7.15535e-11
3.73065e-11
1.93098e-11
9.92313e-12
5.06021e-12
2.55551e-12
1.27225e-12
6.17412e-13
2.84275e-13
1.15063e-13
2.64972e-14
2.33072e-14
9.03234e-14
1.92621e-13
3.54282e-13
6.09564e-13
1.01134e-12
1.64116e-12
2.62412e-12
4.14824e-12
6.42365e-12
9.8026e-12
1.4828e-11
2.23131e-11
3.34886e-11
5.02578e-11
7.56295e-11
1.14446e-10
1.74564e-10
2.68722e-10
4.1729e-10
6.52105e-10
1.02115e-09
1.59353e-09
2.46284e-09
3.74549e-09
5.51798e-09
7.92012e-09
1.10493e-08
1.4736e-08
1.88703e-08
2.31304e-08
2.7073e-08
3.04141e-08
3.27671e-08
3.39365e-08
3.39496e-08
3.31799e-08
3.22174e-08
3.16203e-08
3.18194e-08
3.31344e-08
3.58623e-08
4.02836e-08
4.67512e-08
5.54396e-08
6.6596e-08
8.04322e-08
9.72554e-08
1.17706e-07
1.43384e-07
1.74685e-07
2.14431e-07
2.65779e-07
3.33573e-07
4.2599e-07
5.58364e-07
7.63366e-07
1.1151e-06
1.76127e-06
2.70093e-06
3.73454e-06
4.73609e-06
5.68312e-06
6.6095e-06
7.53644e-06
8.4418e-06
9.27136e-06
9.9077e-06
9.98253e-06
9.14448e-06
7.38046e-06
5.18772e-06
3.26159e-06
1.87872e-06
1.02885e-06
5.25601e-07
2.61996e-07
1.291e-07
6.48895e-08
3.35929e-08
1.7875e-08
9.69759e-09
5.31339e-09
2.91691e-09
1.59578e-09
8.67278e-10
4.67538e-10
2.49883e-10
1.32426e-10
6.96196e-11
3.63352e-11
1.88194e-11
9.67445e-12
4.93304e-12
2.49161e-12
1.24059e-12
6.02104e-13
2.77244e-13
1.1222e-13
2.58427e-14
2.32823e-14
9.02279e-14
1.92419e-13
3.53913e-13
6.08935e-13
1.01031e-12
1.63952e-12
2.62157e-12
4.14345e-12
6.41525e-12
9.78919e-12
1.48077e-11
2.22829e-11
3.34443e-11
5.01927e-11
7.55336e-11
1.14304e-10
1.74346e-10
2.68409e-10
4.16864e-10
6.51514e-10
1.02037e-09
1.5926e-09
2.46202e-09
3.74537e-09
5.51956e-09
7.92532e-09
1.10604e-08
1.4757e-08
1.89047e-08
2.31827e-08
2.71442e-08
3.0505e-08
3.28771e-08
3.40601e-08
3.40827e-08
3.33172e-08
3.23584e-08
3.17684e-08
3.19776e-08
3.33104e-08
3.60656e-08
4.05306e-08
4.70532e-08
5.58088e-08
6.70396e-08
8.12484e-08
9.82224e-08
1.18893e-07
1.44853e-07
1.76555e-07
2.16811e-07
2.68829e-07
3.37528e-07
4.31197e-07
5.65606e-07
7.743e-07
1.13342e-06
1.79201e-06
2.73861e-06
3.77207e-06
4.79161e-06
5.73628e-06
6.66348e-06
7.59188e-06
8.49709e-06
9.32274e-06
9.9394e-06
9.97936e-06
9.09429e-06
7.29082e-06
5.09325e-06
3.18569e-06
1.837e-06
1.00137e-06
5.0981e-07
2.53727e-07
1.2501e-07
6.29127e-08
3.26227e-08
1.73849e-08
9.44263e-09
5.17787e-09
2.84408e-09
1.55653e-09
8.46195e-10
4.56279e-10
2.43911e-10
1.29274e-10
6.79589e-11
3.54524e-11
1.83602e-11
9.44041e-12
4.81663e-12
2.43396e-12
1.21233e-12
5.88547e-13
2.71051e-13
1.09725e-13
2.52694e-14
2.32634e-14
9.01553e-14
1.92266e-13
3.53633e-13
6.08457e-13
1.00953e-12
1.63827e-12
2.61961e-12
4.1398e-12
6.40886e-12
9.77905e-12
1.47924e-11
2.22605e-11
3.34117e-11
5.01454e-11
7.5465e-11
1.14202e-10
1.74202e-10
2.68197e-10
4.16561e-10
6.51124e-10
1.0199e-09
1.59215e-09
2.46184e-09
3.74602e-09
5.52195e-09
7.93108e-09
1.10715e-08
1.47773e-08
1.89371e-08
2.32304e-08
2.72089e-08
3.05859e-08
3.2971e-08
3.41648e-08
3.41945e-08
3.3434e-08
3.24779e-08
3.18913e-08
3.21089e-08
3.34579e-08
3.62404e-08
4.0744e-08
4.73212e-08
5.61552e-08
6.74934e-08
8.18389e-08
9.89728e-08
1.1984e-07
1.46036e-07
1.78065e-07
2.18744e-07
2.71318e-07
3.40783e-07
4.35569e-07
5.71727e-07
7.83652e-07
1.1494e-06
1.81921e-06
2.77323e-06
3.80958e-06
4.82987e-06
5.77636e-06
6.70617e-06
7.63704e-06
8.54267e-06
9.36543e-06
9.96521e-06
9.97617e-06
9.05387e-06
7.2214e-06
5.02293e-06
3.13423e-06
1.81254e-06
9.63552e-07
4.91489e-07
2.45131e-07
1.21087e-07
6.11144e-08
3.17712e-08
1.69649e-08
9.2275e-09
5.06462e-09
2.78354e-09
1.52401e-09
8.28749e-10
4.46979e-10
2.3899e-10
1.2669e-10
6.66107e-11
3.47534e-11
1.80004e-11
9.25657e-12
4.72358e-12
2.38735e-12
1.1893e-12
5.77438e-13
2.65958e-13
1.07668e-13
2.47952e-14
2.32496e-14
9.01023e-14
1.92154e-13
3.53429e-13
6.08111e-13
1.00896e-12
1.63737e-12
2.61824e-12
4.13715e-12
6.40416e-12
9.77159e-12
1.47813e-11
2.22443e-11
3.33883e-11
5.01121e-11
7.54176e-11
1.14134e-10
1.74105e-10
2.6806e-10
4.16375e-10
6.50888e-10
1.01966e-09
1.592e-09
2.46203e-09
3.74704e-09
5.5246e-09
7.93672e-09
1.10815e-08
1.47946e-08
1.89637e-08
2.32691e-08
2.72604e-08
3.06499e-08
3.30459e-08
3.42485e-08
3.42835e-08
3.35243e-08
3.2569e-08
3.19863e-08
3.22114e-08
3.35737e-08
3.63777e-08
4.09132e-08
4.75357e-08
5.64325e-08
6.78522e-08
8.22908e-08
9.95517e-08
1.2058e-07
1.46967e-07
1.79263e-07
2.20292e-07
2.7333e-07
3.43415e-07
4.39113e-07
5.76725e-07
7.91329e-07
1.16258e-06
1.84149e-06
2.80138e-06
3.83968e-06
4.85941e-06
5.80711e-06
6.73914e-06
7.67185e-06
8.57782e-06
9.39808e-06
9.98609e-06
9.97357e-06
9.02129e-06
7.16548e-06
4.96536e-06
3.08951e-06
1.78266e-06
9.44855e-07
4.81069e-07
2.39753e-07
1.18445e-07
5.9839e-08
3.11456e-08
1.66489e-08
9.06314e-09
4.97727e-09
2.73661e-09
1.49873e-09
8.1518e-10
4.39739e-10
2.35154e-10
1.24673e-10
6.5559e-11
3.42098e-11
1.77216e-11
9.11463e-12
4.6518e-12
2.35136e-12
1.17148e-12
5.68828e-13
2.62003e-13
1.06069e-13
2.44272e-14
2.32401e-14
9.00658e-14
1.92077e-13
3.53289e-13
6.07873e-13
1.00857e-12
1.63676e-12
2.61731e-12
4.13531e-12
6.40087e-12
9.76634e-12
1.47734e-11
2.22329e-11
3.3372e-11
5.00889e-11
7.53845e-11
1.14088e-10
1.74042e-10
2.67977e-10
4.1627e-10
6.50768e-10
1.01956e-09
1.59202e-09
2.46238e-09
3.74811e-09
5.52699e-09
7.94143e-09
1.10898e-08
1.48083e-08
1.89845e-08
2.32988e-08
2.72995e-08
3.06982e-08
3.31021e-08
3.43105e-08
3.43488e-08
3.3591e-08
3.26372e-08
3.20568e-08
3.22874e-08
3.36601e-08
3.64806e-08
4.10407e-08
4.76952e-08
5.66375e-08
6.81168e-08
8.26233e-08
9.99794e-08
1.21128e-07
1.47658e-07
1.80156e-07
2.21449e-07
2.74837e-07
3.454e-07
4.41774e-07
5.80474e-07
7.97085e-07
1.1724e-06
1.85817e-06
2.82221e-06
3.86171e-06
4.88083e-06
5.82944e-06
6.76299e-06
7.69717e-06
8.60339e-06
9.42184e-06
1.00023e-05
9.97158e-06
8.99672e-06
7.12321e-06
4.92185e-06
3.05579e-06
1.76029e-06
9.31614e-07
4.73945e-07
2.36134e-07
1.16679e-07
5.8984e-08
3.07224e-08
1.64327e-08
8.94928e-09
4.91608e-09
2.7034e-09
1.4807e-09
8.05442e-10
4.34524e-10
2.32393e-10
1.23229e-10
6.48099e-11
3.38228e-11
1.75224e-11
9.01267e-12
4.6e-12
2.32529e-12
1.15855e-12
5.62565e-13
2.59124e-13
1.04904e-13
2.41589e-14
2.32343e-14
9.00436e-14
1.9203e-13
3.53205e-13
6.0773e-13
1.00834e-12
1.6364e-12
2.61676e-12
4.13419e-12
6.39884e-12
9.76309e-12
1.47686e-11
2.22259e-11
3.33621e-11
5.00751e-11
7.53654e-11
1.14062e-10
1.74007e-10
2.67932e-10
4.16216e-10
6.50716e-10
1.01954e-09
1.5921e-09
2.46271e-09
3.74897e-09
5.5288e-09
7.94491e-09
1.10957e-08
1.48181e-08
1.89991e-08
2.33193e-08
2.7326e-08
3.07308e-08
3.314e-08
3.43521e-08
3.43921e-08
3.3635e-08
3.26821e-08
3.21037e-08
3.23388e-08
3.37187e-08
3.65502e-08
4.11263e-08
4.78029e-08
5.67754e-08
6.8293e-08
8.28428e-08
1.00261e-07
1.21489e-07
1.48114e-07
1.80744e-07
2.2221e-07
2.75826e-07
3.46699e-07
4.43519e-07
5.82926e-07
8.00841e-07
1.17882e-06
1.86938e-06
2.83605e-06
3.87617e-06
4.89478e-06
5.84386e-06
6.77839e-06
7.71345e-06
8.6198e-06
9.43705e-06
1.00125e-05
9.9699e-06
8.98002e-06
7.09518e-06
4.8934e-06
3.03381e-06
1.74583e-06
9.23216e-07
4.69405e-07
2.33845e-07
1.15571e-07
5.84492e-08
3.0457e-08
1.62964e-08
8.87722e-09
4.8772e-09
2.68223e-09
1.46917e-09
7.99193e-10
4.31165e-10
2.30602e-10
1.22281e-10
6.43133e-11
3.35654e-11
1.73904e-11
8.94546e-12
4.56603e-12
2.30825e-12
1.15011e-12
5.58484e-13
2.57248e-13
1.04145e-13
2.3984e-14
2.32317e-14
9.00337e-14
1.92009e-13
3.53167e-13
6.07666e-13
1.00824e-12
1.63624e-12
2.61652e-12
4.13369e-12
6.39792e-12
9.76163e-12
1.47664e-11
2.22228e-11
3.33577e-11
5.00689e-11
7.53569e-11
1.14051e-10
1.73992e-10
2.67913e-10
4.16194e-10
6.50697e-10
1.01954e-09
1.59217e-09
2.46291e-09
3.74946e-09
5.52979e-09
7.94675e-09
1.10988e-08
1.48231e-08
1.90065e-08
2.33296e-08
2.73394e-08
3.07472e-08
3.31589e-08
3.43726e-08
3.44136e-08
3.36569e-08
3.27044e-08
3.21271e-08
3.23641e-08
3.37474e-08
3.65843e-08
4.11685e-08
4.7856e-08
5.68437e-08
6.83808e-08
8.29521e-08
1.00401e-07
1.21668e-07
1.48339e-07
1.81036e-07
2.22587e-07
2.76316e-07
3.47341e-07
4.44379e-07
5.84134e-07
8.02695e-07
1.18199e-06
1.87492e-06
2.84284e-06
3.88328e-06
4.90164e-06
5.85094e-06
6.78595e-06
7.72144e-06
8.62787e-06
9.44459e-06
1.00175e-05
9.96899e-06
8.97169e-06
7.08136e-06
4.87946e-06
3.02312e-06
1.73885e-06
9.19203e-07
4.67261e-07
2.32761e-07
1.15049e-07
5.81982e-08
3.03326e-08
1.62326e-08
8.84343e-09
4.85896e-09
2.6723e-09
1.46376e-09
7.96255e-10
4.29583e-10
2.29757e-10
1.21834e-10
6.40786e-11
3.34434e-11
1.73275e-11
8.91329e-12
4.54969e-12
2.30003e-12
1.14602e-12
5.56504e-13
2.56335e-13
1.03775e-13
2.38988e-14
2.3232e-14
9.00349e-14
1.92012e-13
3.53172e-13
6.07675e-13
1.00826e-12
1.63627e-12
2.61656e-12
4.13376e-12
6.39803e-12
9.76179e-12
1.47666e-11
2.22231e-11
3.33582e-11
5.00695e-11
7.53576e-11
1.14052e-10
1.73992e-10
2.67913e-10
4.16194e-10
6.50698e-10
1.01954e-09
1.59217e-09
2.46291e-09
3.74946e-09
5.5298e-09
7.94676e-09
1.10988e-08
1.48231e-08
1.90065e-08
2.33297e-08
2.73395e-08
3.07473e-08
3.3159e-08
3.43728e-08
3.44137e-08
3.3657e-08
3.27046e-08
3.21272e-08
3.23642e-08
3.37476e-08
3.65845e-08
4.11687e-08
4.78563e-08
5.68439e-08
6.8381e-08
8.29524e-08
1.00401e-07
1.21668e-07
1.48339e-07
1.81035e-07
2.22587e-07
2.76315e-07
3.47339e-07
4.44376e-07
5.84131e-07
8.02692e-07
1.18199e-06
1.87492e-06
2.84285e-06
3.88326e-06
4.90163e-06
5.85092e-06
6.78592e-06
7.72143e-06
8.62793e-06
9.44479e-06
1.00176e-05
9.96898e-06
8.9717e-06
7.08139e-06
4.8795e-06
3.02316e-06
1.73887e-06
9.19216e-07
4.67269e-07
2.32765e-07
1.15051e-07
5.8199e-08
3.0333e-08
1.62328e-08
8.84353e-09
4.85902e-09
2.67233e-09
1.46377e-09
7.96265e-10
4.29588e-10
2.2976e-10
1.21835e-10
6.40794e-11
3.34438e-11
1.73277e-11
8.91338e-12
4.54973e-12
2.30005e-12
1.14603e-12
5.56508e-13
2.56337e-13
1.03776e-13
2.3899e-14
2.32352e-14
9.0047e-14
1.92037e-13
3.53218e-13
6.07754e-13
1.00838e-12
1.63647e-12
2.61687e-12
4.13437e-12
6.39911e-12
9.76351e-12
1.47692e-11
2.22268e-11
3.33633e-11
5.00765e-11
7.53671e-11
1.14064e-10
1.74009e-10
2.67934e-10
4.16218e-10
6.50717e-10
1.01954e-09
1.59211e-09
2.46272e-09
3.74898e-09
5.52883e-09
7.94494e-09
1.10958e-08
1.48182e-08
1.89993e-08
2.33196e-08
2.73264e-08
3.07312e-08
3.31404e-08
3.43525e-08
3.43926e-08
3.36356e-08
3.26827e-08
3.21044e-08
3.23394e-08
3.37193e-08
3.65508e-08
4.1127e-08
4.78037e-08
5.67764e-08
6.82942e-08
8.28439e-08
1.00262e-07
1.21489e-07
1.48113e-07
1.80743e-07
2.22208e-07
2.75822e-07
3.46692e-07
4.43509e-07
5.82912e-07
8.00824e-07
1.1788e-06
1.86935e-06
2.836e-06
3.87611e-06
4.89471e-06
5.84376e-06
6.77826e-06
7.71329e-06
8.6196e-06
9.43677e-06
1.00123e-05
9.96979e-06
8.98002e-06
7.09528e-06
4.89353e-06
3.03391e-06
1.7459e-06
9.23257e-07
4.69426e-07
2.33855e-07
1.15576e-07
5.84516e-08
3.04582e-08
1.6297e-08
8.87752e-09
4.87736e-09
2.68232e-09
1.46922e-09
7.99219e-10
4.31179e-10
2.3061e-10
1.22285e-10
6.43154e-11
3.35665e-11
1.73909e-11
8.94571e-12
4.56614e-12
2.30831e-12
1.15013e-12
5.58497e-13
2.57253e-13
1.04147e-13
2.39845e-14
2.32413e-14
9.00707e-14
1.92087e-13
3.53309e-13
6.07907e-13
1.00863e-12
1.63686e-12
2.61747e-12
4.13555e-12
6.40123e-12
9.76688e-12
1.47742e-11
2.2234e-11
3.33734e-11
5.00906e-11
7.53865e-11
1.1409e-10
1.74044e-10
2.67979e-10
4.16272e-10
6.50771e-10
1.01956e-09
1.59203e-09
2.46239e-09
3.74812e-09
5.52702e-09
7.94148e-09
1.10899e-08
1.48084e-08
1.89846e-08
2.3299e-08
2.72998e-08
3.06986e-08
3.31025e-08
3.43109e-08
3.43493e-08
3.35916e-08
3.26379e-08
3.20577e-08
3.22887e-08
3.36615e-08
3.6482e-08
4.10421e-08
4.76972e-08
5.66396e-08
6.81182e-08
8.26239e-08
9.99788e-08
1.21127e-07
1.47657e-07
1.80153e-07
2.21444e-07
2.74829e-07
3.45388e-07
4.41758e-07
5.80452e-07
7.97059e-07
1.17237e-06
1.85813e-06
2.82215e-06
3.86162e-06
4.8807e-06
5.82927e-06
6.76279e-06
7.69694e-06
8.60313e-06
9.42156e-06
1.0002e-05
9.97144e-06
8.99676e-06
7.12339e-06
4.92205e-06
3.05596e-06
1.76041e-06
9.31686e-07
4.73985e-07
2.36154e-07
1.16689e-07
5.89886e-08
3.07246e-08
1.64338e-08
8.94986e-09
4.91639e-09
2.70357e-09
1.48079e-09
8.05489e-10
4.34549e-10
2.32407e-10
1.23236e-10
6.48138e-11
3.38249e-11
1.75235e-11
9.01323e-12
4.60027e-12
2.32542e-12
1.15861e-12
5.62592e-13
2.59135e-13
1.04908e-13
2.41598e-14
2.32511e-14
9.0108e-14
1.92166e-13
3.53452e-13
6.0815e-13
1.00903e-12
1.63748e-12
2.61841e-12
4.13741e-12
6.40455e-12
9.77215e-12
1.4782e-11
2.22453e-11
3.33896e-11
5.01137e-11
7.54194e-11
1.14136e-10
1.74107e-10
2.68063e-10
4.16378e-10
6.50892e-10
1.01967e-09
1.59201e-09
2.46204e-09
3.74706e-09
5.52462e-09
7.93676e-09
1.10816e-08
1.47946e-08
1.89638e-08
2.32693e-08
2.72607e-08
3.06502e-08
3.30462e-08
3.42486e-08
3.42833e-08
3.35245e-08
3.25693e-08
3.19867e-08
3.22119e-08
3.35743e-08
3.63787e-08
4.09147e-08
4.75365e-08
5.64329e-08
6.78525e-08
8.22913e-08
9.95526e-08
1.2058e-07
1.46966e-07
1.7926e-07
2.20286e-07
2.73319e-07
3.43396e-07
4.39082e-07
5.76693e-07
7.91294e-07
1.16254e-06
1.84143e-06
2.80128e-06
3.83953e-06
4.85922e-06
5.80688e-06
6.73886e-06
7.67152e-06
8.57746e-06
9.39771e-06
9.98579e-06
9.97342e-06
9.02135e-06
7.16571e-06
4.96561e-06
3.08974e-06
1.78282e-06
9.44953e-07
4.81123e-07
2.3978e-07
1.18458e-07
5.98452e-08
3.11486e-08
1.66505e-08
9.06393e-09
4.97769e-09
2.73683e-09
1.49885e-09
8.15243e-10
4.39772e-10
2.35171e-10
1.24681e-10
6.5563e-11
3.42117e-11
1.77225e-11
9.11505e-12
4.652e-12
2.35144e-12
1.17152e-12
5.68843e-13
2.6201e-13
1.06071e-13
2.44276e-14
2.3265e-14
9.01612e-14
1.92278e-13
3.53657e-13
6.08498e-13
1.00959e-12
1.63838e-12
2.61979e-12
4.14007e-12
6.40925e-12
9.7796e-12
1.47932e-11
2.22615e-11
3.34129e-11
5.01469e-11
7.54667e-11
1.14204e-10
1.74204e-10
2.682e-10
4.16565e-10
6.51129e-10
1.01991e-09
1.59216e-09
2.46185e-09
3.74604e-09
5.52198e-09
7.93111e-09
1.10715e-08
1.47773e-08
1.8937e-08
2.32305e-08
2.72092e-08
3.05863e-08
3.29717e-08
3.41658e-08
3.41958e-08
3.34348e-08
3.24785e-08
3.18916e-08
3.21091e-08
3.3458e-08
3.62403e-08
4.07438e-08
4.73209e-08
5.6155e-08
6.74935e-08
8.18393e-08
9.89731e-08
1.19841e-07
1.46036e-07
1.78064e-07
2.1874e-07
2.71308e-07
3.40765e-07
4.35539e-07
5.71687e-07
7.83602e-07
1.14934e-06
1.81912e-06
2.77309e-06
3.80938e-06
4.82963e-06
5.77605e-06
6.7058e-06
7.63659e-06