/*--------------------------------*- C++ -*----------------------------------*\
  =========                 |
  \\      /  F ield         | OpenFOAM: The Open Source CFD Toolbox
   \\    /   O peration     | Website:  https://openfoam.org
    \\  /    A nd           | Version:  10
     \\/     M anipulation  |
\*---------------------------------------------------------------------------*/
FoamFile
{
    format      ascii;
    class       volScalarField;
    location    "1";
    object      HOCN;
}
// * * * * * * * * * * * * * * * * * * * * * * * * * * * * * * * * * * * * * //

dimensions      [0 0 0 0 0 0 0];

internalField   nonuniform List<scalar> 
4000
(
1.30523e-13
5.05715e-13
1.07815e-12
1.98225e-12
3.40907e-12
5.65326e-12
9.16822e-12
1.46456e-11
2.31304e-11
3.57501e-11
5.4279e-11
8.13072e-11
1.20349e-10
1.75978e-10
2.53925e-10
3.61038e-10
5.04925e-10
6.93366e-10
9.33471e-10
1.23076e-09
1.58837e-09
2.00648e-09
2.48226e-09
3.01319e-09
3.58987e-09
4.19157e-09
4.82382e-09
5.48895e-09
6.15908e-09
6.84196e-09
7.51902e-09
8.19222e-09
8.85337e-09
9.49527e-09
1.01147e-08
1.07097e-08
1.1279e-08
1.18232e-08
1.23423e-08
1.28395e-08
1.33228e-08
1.37931e-08
1.42669e-08
1.47665e-08
1.53233e-08
1.60018e-08
1.68692e-08
1.80765e-08
1.97464e-08
2.21502e-08
2.53568e-08
2.95525e-08
3.4837e-08
4.12291e-08
4.86384e-08
5.6728e-08
6.45493e-08
6.96542e-08
6.59632e-08
3.8787e-08
2.15168e-08
1.19243e-08
6.67184e-09
3.93178e-09
2.71812e-09
2.53207e-09
2.84658e-09
2.97909e-09
2.6972e-09
2.31409e-09
1.96281e-09
1.64981e-09
1.36534e-09
1.10645e-09
8.74225e-10
6.71204e-10
4.90569e-10
3.4337e-10
2.29398e-10
1.46229e-10
8.9222e-11
5.24146e-11
2.98512e-11
1.65878e-11
9.04074e-12
4.85185e-12
2.57073e-12
1.34659e-12
7.00482e-13
3.62058e-13
1.86055e-13
9.51001e-14
4.83537e-14
2.4441e-14
1.22587e-14
6.07137e-15
2.93567e-15
1.34826e-15
5.44858e-16
1.25399e-16
1.30583e-13
5.05965e-13
1.07881e-12
1.98391e-12
3.41291e-12
5.66129e-12
9.18335e-12
1.46712e-11
2.31687e-11
3.581e-11
5.4352e-11
8.13644e-11
1.20326e-10
1.75741e-10
2.53225e-10
3.59439e-10
5.01685e-10
6.87685e-10
9.24584e-10
1.21806e-09
1.57154e-09
1.98579e-09
2.45891e-09
2.98341e-09
3.55535e-09
4.15292e-09
4.78175e-09
5.44636e-09
6.11583e-09
6.80056e-09
7.48088e-09
8.15803e-09
8.82198e-09
9.4679e-09
1.0091e-08
1.06893e-08
1.1262e-08
1.18096e-08
1.2332e-08
1.28324e-08
1.33191e-08
1.37928e-08
1.42703e-08
1.47746e-08
1.53363e-08
1.60203e-08
1.68947e-08
1.81132e-08
1.97987e-08
2.22278e-08
2.54659e-08
2.97135e-08
3.50716e-08
4.15617e-08
4.91003e-08
5.73479e-08
6.53327e-08
7.05148e-08
6.65974e-08
3.8525e-08
2.13668e-08
1.18377e-08
6.62715e-09
3.92311e-09
2.75135e-09
2.60623e-09
2.92854e-09
3.01815e-09
2.70075e-09
2.30602e-09
1.94952e-09
1.6335e-09
1.34644e-09
1.08598e-09
8.52263e-10
6.48519e-10
4.70602e-10
3.26994e-10
2.17008e-10
1.37634e-10
8.37513e-11
4.91956e-11
2.80802e-11
1.5666e-11
8.58247e-12
4.63359e-12
2.47264e-12
1.30792e-12
6.84541e-13
3.5518e-13
1.82952e-13
9.36396e-14
4.76347e-14
2.40629e-14
1.20656e-14
5.97417e-15
2.88742e-15
1.32588e-15
5.3584e-16
1.23322e-16
1.30894e-13
5.07221e-13
1.08171e-12
1.98975e-12
3.42381e-12
5.68048e-12
9.21522e-12
1.47207e-11
2.32389e-11
3.59081e-11
5.44697e-11
8.14748e-11
1.20379e-10
1.75616e-10
2.52703e-10
3.58137e-10
4.99238e-10
6.83541e-10
9.17999e-10
1.20814e-09
1.55732e-09
1.96623e-09
2.43383e-09
2.95499e-09
3.52353e-09
4.11841e-09
4.74621e-09
5.40868e-09
6.07725e-09
6.76305e-09
7.44245e-09
8.11928e-09
8.78375e-09
9.43315e-09
1.006e-08
1.06624e-08
1.12391e-08
1.17912e-08
1.23177e-08
1.28223e-08
1.33135e-08
1.37917e-08
1.4274e-08
1.4784e-08
1.53514e-08
1.60423e-08
1.69271e-08
1.81606e-08
1.98705e-08
2.23366e-08
2.56238e-08
2.99544e-08
3.54236e-08
4.2063e-08
4.97957e-08
5.8277e-08
6.65086e-08
7.18488e-08
6.75825e-08
3.83533e-08
2.12275e-08
1.17378e-08
6.56622e-09
3.91184e-09
2.80544e-09
2.72106e-09
3.04355e-09
3.06507e-09
2.69994e-09
2.29041e-09
1.92821e-09
1.60715e-09
1.31896e-09
1.06028e-09
8.2213e-10
6.23382e-10
4.4938e-10
3.10432e-10
2.05102e-10
1.29741e-10
7.8891e-11
4.63824e-11
2.6529e-11
1.4841e-11
8.15464e-12
4.41482e-12
2.36048e-12
1.24867e-12
6.54451e-13
3.40257e-13
1.75656e-13
9.01139e-14
4.59656e-14
2.33148e-14
1.17184e-14
5.81002e-15
2.81024e-15
1.29077e-15
5.21639e-16
1.20035e-16
1.3095e-13
5.07442e-13
1.08219e-12
1.99063e-12
3.42519e-12
5.68218e-12
9.21612e-12
1.47175e-11
2.32238e-11
3.58711e-11
5.43766e-11
8.12564e-11
1.19898e-10
1.74713e-10
2.51158e-10
3.557e-10
4.95523e-10
6.78086e-10
9.10327e-10
1.19784e-09
1.54417e-09
1.95031e-09
2.41414e-09
2.93221e-09
3.49853e-09
4.09073e-09
4.71618e-09
5.37728e-09
6.0433e-09
6.72741e-09
7.40589e-09
8.08268e-09
8.74804e-09
9.39939e-09
1.00303e-08
1.06363e-08
1.12169e-08
1.17732e-08
1.23037e-08
1.28123e-08
1.33077e-08
1.379e-08
1.42765e-08
1.47915e-08
1.53644e-08
1.60618e-08
1.69563e-08
1.82047e-08
1.99371e-08
2.24402e-08
2.57812e-08
3.01892e-08
3.57683e-08
4.25562e-08
5.04706e-08
5.91792e-08
6.76447e-08
7.30629e-08
6.82058e-08
3.81339e-08
2.10306e-08
1.16144e-08
6.43951e-09
3.87445e-09
2.86181e-09
2.85027e-09
3.15743e-09
3.09227e-09
2.68362e-09
2.26058e-09
1.89249e-09
1.56986e-09
1.28128e-09
1.02223e-09
7.89193e-10
5.95276e-10
4.2552e-10
2.91799e-10
1.91655e-10
1.20738e-10
7.32609e-11
4.30606e-11
2.46591e-11
1.38262e-11
7.61933e-12
4.1385e-12
2.22022e-12
1.17837e-12
6.19526e-13
3.23003e-13
1.67154e-13
8.59188e-14
4.38798e-14
2.22581e-14
1.11934e-14
5.55418e-15
2.68889e-15
1.23611e-15
4.99914e-16
1.15087e-16
1.30797e-13
5.06848e-13
1.08092e-12
1.98822e-12
3.4208e-12
5.67412e-12
9.20106e-12
1.46888e-11
2.31685e-11
3.57639e-11
5.41847e-11
8.0929e-11
1.19373e-10
1.73871e-10
2.49831e-10
3.53653e-10
4.9246e-10
6.73659e-10
9.04176e-10
1.18966e-09
1.53376e-09
1.93768e-09
2.39955e-09
2.91474e-09
3.47739e-09
4.06554e-09
4.68627e-09
5.34608e-09
6.01165e-09
6.69534e-09
7.37389e-09
8.05093e-09
8.71739e-09
9.37013e-09
1.0004e-08
1.0614e-08
1.11984e-08
1.17583e-08
1.22922e-08
1.28041e-08
1.33026e-08
1.37878e-08
1.42772e-08
1.47955e-08
1.53718e-08
1.60729e-08
1.69738e-08
1.82323e-08
1.99826e-08
2.25161e-08
2.59016e-08
3.03699e-08
3.60248e-08
4.29001e-08
5.09146e-08
5.97086e-08
6.81781e-08
7.33129e-08
6.72613e-08
3.71837e-08
2.04126e-08
1.12254e-08
6.22198e-09
3.78789e-09
2.89144e-09
2.95459e-09
3.22632e-09
3.06968e-09
2.63477e-09
2.20933e-09
1.84239e-09
1.52105e-09
1.23284e-09
9.79546e-10
7.5854e-10
5.60614e-10
3.98916e-10
2.7242e-10
1.78365e-10
1.12173e-10
6.80516e-11
4.00441e-11
2.29794e-11
1.29187e-11
7.13996e-12
3.88963e-12
2.09269e-12
1.11365e-12
5.86925e-13
3.06665e-13
1.58992e-13
8.18474e-14
4.18501e-14
2.12473e-14
1.06922e-14
5.30813e-15
2.57077e-15
1.18214e-15
4.78174e-16
1.10085e-16
1.30445e-13
5.05487e-13
1.07801e-12
1.9828e-12
3.41124e-12
5.65759e-12
9.17251e-12
1.46388e-11
2.3083e-11
3.56229e-11
5.39626e-11
8.05936e-11
1.18863e-10
1.73093e-10
2.4865e-10
3.5189e-10
4.89881e-10
6.69955e-10
8.98961e-10
1.18246e-09
1.52399e-09
1.92452e-09
2.38231e-09
2.89448e-09
3.4554e-09
4.04241e-09
4.6628e-09
5.32177e-09
5.98624e-09
6.66936e-09
7.3482e-09
8.02572e-09
8.69392e-09
9.34844e-09
9.98547e-09
1.05982e-08
1.11854e-08
1.17481e-08
1.22847e-08
1.27988e-08
1.32995e-08
1.37864e-08
1.42773e-08
1.47971e-08
1.53747e-08
1.60767e-08
1.69814e-08
1.82424e-08
2.00058e-08
2.25608e-08
2.59734e-08
3.047e-08
3.61443e-08
4.30133e-08
5.09656e-08
5.95819e-08
6.76274e-08
7.17826e-08
6.33929e-08
3.48586e-08
1.90955e-08
1.04923e-08
5.83932e-09
3.61768e-09
2.86453e-09
2.99521e-09
3.21918e-09
2.98959e-09
2.54359e-09
2.12861e-09
1.77254e-09
1.45908e-09
1.18029e-09
9.34371e-10
7.18755e-10
5.28782e-10
3.74613e-10
2.54833e-10
1.66356e-10
1.04437e-10
6.33272e-11
3.72877e-11
2.14295e-11
1.2072e-11
6.68786e-12
3.65249e-12
1.97007e-12
1.05096e-12
5.55168e-13
2.90686e-13
1.50986e-13
7.78352e-14
3.98412e-14
2.0247e-14
1.01977e-14
5.06704e-15
2.45598e-15
1.13005e-15
4.57257e-16
1.05276e-16
1.29906e-13
5.0339e-13
1.07348e-12
1.97435e-12
3.39649e-12
5.63291e-12
9.13265e-12
1.45771e-11
2.29847e-11
3.54614e-11
5.37118e-11
8.01969e-11
1.18247e-10
1.72158e-10
2.47259e-10
3.49865e-10
4.87007e-10
6.65972e-10
8.9358e-10
1.17536e-09
1.51523e-09
1.91397e-09
2.37026e-09
2.88059e-09
3.43967e-09
4.02506e-09
4.64367e-09
5.30179e-09
5.96599e-09
6.64909e-09
7.32821e-09
8.00578e-09
8.67858e-09
9.33438e-09
9.97318e-09
1.05886e-08
1.11784e-08
1.17435e-08
1.22822e-08
1.27982e-08
1.32999e-08
1.37878e-08
1.42793e-08
1.47998e-08
1.53781e-08
1.60758e-08
1.69829e-08
1.82415e-08
2.00123e-08
2.25789e-08
2.6002e-08
3.04996e-08
3.61458e-08
4.29246e-08
5.06697e-08
5.88633e-08
6.60724e-08
6.85542e-08
5.665e-08
3.11739e-08
1.7111e-08
9.42916e-09
5.29627e-09
3.36011e-09
2.77569e-09
2.96695e-09
3.14632e-09
2.86474e-09
2.43055e-09
2.03588e-09
1.69633e-09
1.39387e-09
1.12492e-09
8.8666e-10
6.81695e-10
4.99709e-10
3.52795e-10
2.39286e-10
1.5588e-10
9.77581e-11
5.92795e-11
3.49374e-11
2.01105e-11
1.13511e-11
6.30179e-12
3.44898e-12
1.86414e-12
9.96392e-13
5.27301e-13
2.76576e-13
1.43913e-13
7.435e-14
3.81422e-14
1.94151e-14
9.78608e-15
4.86384e-15
2.35746e-15
1.08459e-15
4.38821e-16
1.01024e-16
1.2931e-13
5.01073e-13
1.06848e-12
1.96495e-12
3.37985e-12
5.60427e-12
9.08407e-12
1.44952e-11
2.2851e-11
3.52444e-11
5.33412e-11
7.96046e-11
1.17333e-10
1.70785e-10
2.45252e-10
3.47007e-10
4.83064e-10
6.60709e-10
8.8681e-10
1.16702e-09
1.50506e-09
1.90224e-09
2.35757e-09
2.86732e-09
3.42509e-09
4.00869e-09
4.62688e-09
5.28456e-09
5.94858e-09
6.63201e-09
7.31403e-09
7.99318e-09
8.66842e-09
9.32623e-09
9.9671e-09
1.05852e-08
1.11776e-08
1.17451e-08
1.22861e-08
1.28047e-08
1.33046e-08
1.37937e-08
1.42856e-08
1.48061e-08
1.5384e-08
1.60815e-08
1.69899e-08
1.82454e-08
2.00232e-08
2.25993e-08
2.603e-08
3.05216e-08
3.61263e-08
4.27923e-08
5.0293e-08
5.80014e-08
6.42677e-08
6.48896e-08
4.91198e-08
2.71327e-08
1.49474e-08
8.28215e-09
4.71354e-09
3.08374e-09
2.66597e-09
2.90577e-09
3.03871e-09
2.72946e-09
2.3165e-09
1.94542e-09
1.62134e-09
1.33319e-09
1.07549e-09
8.4677e-10
6.48316e-10
4.7397e-10
3.33824e-10
2.25983e-10
1.47037e-10
9.2186e-11
5.59307e-11
3.30013e-11
1.90245e-11
1.07559e-11
5.98136e-12
3.27891e-12
1.77492e-12
9.50036e-13
5.03407e-13
2.64334e-13
1.37663e-13
7.11557e-14
3.65163e-14
1.86002e-14
9.38849e-15
4.6709e-15
2.26503e-15
1.04225e-15
4.2173e-16
9.70938e-17
1.28774e-13
4.99001e-13
1.06405e-12
1.95673e-12
3.3655e-12
5.58e-12
9.04374e-12
1.4429e-11
2.27439e-11
3.50565e-11
5.30477e-11
7.91574e-11
1.16669e-10
1.69819e-10
2.43871e-10
3.45076e-10
4.80435e-10
6.57231e-10
8.82364e-10
1.16171e-09
1.49854e-09
1.89491e-09
2.34881e-09
2.85673e-09
3.41405e-09
3.99759e-09
4.61534e-09
5.27236e-09
5.93647e-09
6.61933e-09
7.30844e-09
7.98776e-09
8.66445e-09
9.32402e-09
9.96694e-09
1.05877e-08
1.11831e-08
1.17519e-08
1.22952e-08
1.28163e-08
1.33174e-08
1.38077e-08
1.43007e-08
1.48219e-08
1.54004e-08
1.6099e-08
1.70106e-08
1.82709e-08
2.00598e-08
2.26511e-08
2.60976e-08
3.0597e-08
3.61853e-08
4.27828e-08
5.01162e-08
5.74715e-08
6.30195e-08
6.21549e-08
4.31261e-08
2.38712e-08
1.31878e-08
7.34234e-09
4.24277e-09
2.86019e-09
2.57877e-09
2.85221e-09
2.94508e-09
2.61942e-09
2.22262e-09
1.87066e-09
1.56232e-09
1.2864e-09
1.03942e-09
8.09641e-10
6.20529e-10
4.53658e-10
3.19383e-10
2.16092e-10
1.40543e-10
8.80983e-11
5.34555e-11
3.15514e-11
1.8198e-11
1.0295e-11
5.72895e-12
3.14272e-12
1.70237e-12
9.11826e-13
4.83479e-13
2.54022e-13
1.32358e-13
6.84349e-14
3.5128e-14
1.78967e-14
9.03238e-15
4.49442e-15
2.18028e-15
1.00363e-15
4.06189e-16
9.35276e-17
1.28335e-13
4.97319e-13
1.0605e-12
1.95025e-12
3.35438e-12
5.56147e-12
9.01323e-12
1.43788e-11
2.26602e-11
3.49144e-11
5.28182e-11
7.87994e-11
1.16125e-10
1.69015e-10
2.42719e-10
3.43471e-10
4.78253e-10
6.54334e-10
8.78628e-10
1.15687e-09
1.49305e-09
1.88802e-09
2.34111e-09
2.84908e-09
3.406e-09
3.98933e-09
4.6072e-09
5.26433e-09
5.9293e-09
6.6132e-09
7.30451e-09
7.98566e-09
8.66453e-09
9.3263e-09
9.97163e-09
1.05953e-08
1.11936e-08
1.17648e-08
1.23105e-08
1.28344e-08
1.33379e-08
1.38305e-08
1.43255e-08
1.48487e-08
1.54298e-08
1.61326e-08
1.70506e-08
1.83217e-08
2.0128e-08
2.27429e-08
2.62212e-08
3.07548e-08
3.63692e-08
4.29669e-08
5.02485e-08
5.74411e-08
6.2579e-08
6.07163e-08
3.91902e-08
2.16786e-08
1.19726e-08
6.67375e-09
3.91091e-09
2.71221e-09
2.53598e-09
2.83092e-09
2.88684e-09
2.5492e-09
2.16325e-09
1.82297e-09
1.52317e-09
1.25353e-09
1.01143e-09
7.86603e-10
6.02067e-10
4.39447e-10
3.08841e-10
2.08595e-10
1.35453e-10
8.47989e-11
5.14071e-11
3.03268e-11
1.74884e-11
9.89426e-12
5.50731e-12
3.02227e-12
1.6379e-12
8.77752e-13
4.65664e-13
2.44791e-13
1.27602e-13
6.59941e-14
3.38867e-14
1.72701e-14
8.72089e-15
4.34179e-15
2.10709e-15
9.70188e-16
3.92706e-16
9.04317e-17
1.27901e-13
4.95637e-13
1.0569e-12
1.9436e-12
3.3429e-12
5.54244e-12
8.98269e-12
1.43314e-11
2.25898e-11
3.4802e-11
5.2644e-11
7.85325e-11
1.1571e-10
1.68385e-10
2.41788e-10
3.42152e-10
4.76464e-10
6.52e-10
8.75748e-10
1.15323e-09
1.4884e-09
1.88279e-09
2.33546e-09
2.84289e-09
3.39992e-09
3.98344e-09
4.60177e-09
5.25936e-09
5.92543e-09
6.61052e-09
7.30372e-09
7.98685e-09
8.66802e-09
9.33219e-09
9.98006e-09
1.06065e-08
1.12081e-08
1.17823e-08
1.23308e-08
1.28578e-08
1.33642e-08
1.38598e-08
1.43581e-08
1.48851e-08
1.54711e-08
1.61806e-08
1.71087e-08
1.83955e-08
2.02258e-08
2.28743e-08
2.63983e-08
3.09868e-08
3.66626e-08
4.3324e-08
5.06547e-08
5.78465e-08
6.28302e-08
6.03781e-08
3.67454e-08
2.03157e-08
1.12237e-08
6.27008e-09
3.71795e-09
2.63817e-09
2.5404e-09
2.84672e-09
2.86564e-09
2.51492e-09
2.13219e-09
1.79667e-09
1.5004e-09
1.2337e-09
9.94236e-10
7.73334e-10
5.90748e-10
4.30145e-10
3.01528e-10
2.03114e-10
1.31571e-10
8.22053e-11
4.97639e-11
2.93301e-11
1.69046e-11
9.56161e-12
5.32193e-12
2.92088e-12
1.5833e-12
8.48742e-13
4.50436e-13
2.36901e-13
1.23588e-13
6.39956e-14
3.29004e-14
1.67822e-14
8.47547e-15
4.21868e-15
2.04691e-15
9.42353e-16
3.81404e-16
8.78274e-17
1.27524e-13
4.9418e-13
1.05379e-12
1.93787e-12
3.333e-12
5.52591e-12
8.95568e-12
1.42878e-11
2.25153e-11
3.46792e-11
5.24565e-11
7.82637e-11
1.15349e-10
1.67886e-10
2.41082e-10
3.41121e-10
4.7502e-10
6.50086e-10
8.73226e-10
1.15028e-09
1.48494e-09
1.87895e-09
2.33142e-09
2.83875e-09
3.39582e-09
3.97962e-09
4.59854e-09
5.25677e-09
5.92406e-09
6.61047e-09
7.3056e-09
7.99082e-09
8.67444e-09
9.34105e-09
9.99153e-09
1.06212e-08
1.12262e-08
1.18039e-08
1.23559e-08
1.28872e-08
1.33971e-08
1.38963e-08
1.43986e-08
1.49302e-08
1.55227e-08
1.6241e-08
1.7182e-08
1.84881e-08
2.03468e-08
2.30346e-08
2.6616e-08
3.12787e-08
3.70446e-08
4.38092e-08
5.12545e-08
5.85446e-08
6.35376e-08
6.0735e-08
3.57654e-08
1.973e-08
1.08815e-08
6.08224e-09
3.63108e-09
2.62855e-09
2.58366e-09
2.89435e-09
2.87669e-09
2.51017e-09
2.12439e-09
1.78805e-09
1.49094e-09
1.22367e-09
9.84012e-10
7.65899e-10
5.83875e-10
4.24028e-10
2.964e-10
1.99143e-10
1.28708e-10
8.02666e-11
4.85193e-11
2.85656e-11
1.64513e-11
9.30038e-12
5.17484e-12
2.83966e-12
1.53917e-12
8.2506e-13
4.37808e-13
2.30217e-13
1.20091e-13
6.22009e-14
3.19792e-14
1.63141e-14
8.24321e-15
4.10526e-15
1.99269e-15
9.17618e-16
3.71443e-16
8.55393e-17
1.27207e-13
4.92961e-13
1.0512e-12
1.9331e-12
3.32478e-12
5.51225e-12
8.93347e-12
1.42524e-11
2.24537e-11
3.45763e-11
5.22945e-11
7.80179e-11
1.14983e-10
1.6737e-10
2.40393e-10
3.4026e-10
4.73896e-10
6.48597e-10
8.71321e-10
1.14785e-09
1.48222e-09
1.87603e-09
2.32822e-09
2.83565e-09
3.39298e-09
3.97727e-09
4.59693e-09
5.25596e-09
5.92454e-09
6.61235e-09
7.30943e-09
7.99676e-09
8.68278e-09
9.3521e-09
1.00058e-08
1.06385e-08
1.12468e-08
1.18277e-08
1.23833e-08
1.29179e-08
1.34318e-08
1.39359e-08
1.44439e-08
1.49823e-08
1.55826e-08
1.6311e-08
1.72659e-08
1.85918e-08
2.048e-08
2.32102e-08
2.68489e-08
3.15871e-08
3.74515e-08
4.434e-08
5.19327e-08
5.93803e-08
6.44577e-08
6.14411e-08
3.54701e-08
1.95391e-08
1.07626e-08
6.01731e-09
3.61073e-09
2.65502e-09
2.6476e-09
2.95822e-09
2.90667e-09
2.52411e-09
2.13207e-09
1.79162e-09
1.49114e-09
1.22125e-09
9.79831e-10
7.62855e-10
5.80079e-10
4.20132e-10
2.92881e-10
1.96261e-10
1.26543e-10
7.87569e-11
4.753e-11
2.79488e-11
1.60816e-11
9.0856e-12
5.05321e-12
2.77225e-12
1.50254e-12
8.0559e-13
4.27773e-13
2.25139e-13
1.17489e-13
6.08507e-14
3.12853e-14
1.59593e-14
8.06205e-15
4.01447e-15
1.94843e-15
8.97178e-16
3.63149e-16
8.36274e-17
1.26949e-13
4.91964e-13
1.04908e-12
1.92922e-12
3.31811e-12
5.50122e-12
8.91568e-12
1.42243e-11
2.24039e-11
3.44925e-11
5.21629e-11
7.78199e-11
1.14693e-10
1.66955e-10
2.39811e-10
3.39457e-10
4.72875e-10
6.47353e-10
8.69818e-10
1.14607e-09
1.48018e-09
1.8738e-09
2.32604e-09
2.8336e-09
3.3913e-09
3.97611e-09
4.59654e-09
5.25642e-09
5.92631e-09
6.61555e-09
7.31456e-09
8.00404e-09
8.69262e-09
9.36455e-09
1.00208e-08
1.06564e-08
1.1268e-08
1.18524e-08
1.24114e-08
1.29504e-08
1.34686e-08
1.3977e-08
1.44894e-08
1.50331e-08
1.56409e-08
1.638e-08
1.73505e-08
1.86974e-08
2.06161e-08
2.33858e-08
2.70809e-08
3.18951e-08
3.78562e-08
4.48672e-08
5.26115e-08
6.02193e-08
6.5407e-08
6.22459e-08
3.54923e-08
1.95337e-08
1.07522e-08
6.01068e-09
3.62226e-09
2.69689e-09
2.72058e-09
3.02871e-09
2.94607e-09
2.54857e-09
2.14858e-09
1.8026e-09
1.49729e-09
1.22367e-09
9.79436e-10
7.62591e-10
5.78355e-10
4.17657e-10
2.90325e-10
1.94023e-10
1.24799e-10
7.75158e-11
4.67072e-11
2.74323e-11
1.57708e-11
8.90451e-12
4.95039e-12
2.71508e-12
1.47128e-12
7.88715e-13
4.18724e-13
2.20368e-13
1.15078e-13
5.96284e-14
3.06633e-14
1.56405e-14
7.90159e-15
3.93486e-15
1.9099e-15
8.79465e-16
3.55983e-16
8.19775e-17
1.2674e-13
4.91161e-13
1.04738e-12
1.92609e-12
3.31275e-12
5.49236e-12
8.90142e-12
1.42018e-11
2.2364e-11
3.44254e-11
5.20578e-11
7.76625e-11
1.14464e-10
1.6663e-10
2.39359e-10
3.38847e-10
4.7208e-10
6.46303e-10
8.68564e-10
1.14471e-09
1.4787e-09
1.87226e-09
2.32453e-09
2.83229e-09
3.39039e-09
3.97576e-09
4.59697e-09
5.25772e-09
5.92881e-09
6.61938e-09
7.32012e-09
8.01144e-09
8.70216e-09
9.37659e-09
1.00354e-08
1.06738e-08
1.12886e-08
1.18762e-08
1.24391e-08
1.29819e-08
1.35039e-08
1.40162e-08
1.45336e-08
1.50823e-08
1.56954e-08
1.64403e-08
1.74384e-08
1.88014e-08
2.07462e-08
2.35526e-08
2.73011e-08
3.21841e-08
3.82337e-08
4.53565e-08
5.32319e-08
6.09872e-08
6.62797e-08
6.29988e-08
3.56577e-08
1.96244e-08
1.08221e-08
5.99861e-09
3.63597e-09
2.74071e-09
2.7917e-09
3.09592e-09
2.98589e-09
2.5758e-09
2.16862e-09
1.81692e-09
1.50668e-09
1.22892e-09
9.81406e-10
7.63955e-10
5.77284e-10
4.15528e-10
2.88027e-10
1.92009e-10
1.23246e-10
7.64248e-11
4.59921e-11
2.69879e-11
1.55054e-11
8.7508e-12
4.86352e-12
2.66693e-12
1.44502e-12
7.7457e-13
4.11175e-13
2.16354e-13
1.1293e-13
5.85047e-14
3.00883e-14
1.53536e-14
7.75924e-15
3.86495e-15
1.87632e-15
8.64111e-16
3.49793e-16
8.05544e-17
1.26575e-13
4.90523e-13
1.04602e-12
1.9236e-12
3.30847e-12
5.48527e-12
8.88995e-12
1.41836e-11
2.23322e-11
3.43722e-11
5.1975e-11
7.75391e-11
1.14285e-10
1.66377e-10
2.3901e-10
3.38378e-10
4.71453e-10
6.45537e-10
8.67628e-10
1.14362e-09
1.47756e-09
1.87111e-09
2.32349e-09
2.8315e-09
3.38999e-09
3.97591e-09
4.59785e-09
5.25943e-09
5.93169e-09
6.62357e-09
7.3259e-09
8.01904e-09
8.71172e-09
9.38813e-09
1.00493e-08
1.06903e-08
1.13082e-08
1.18988e-08
1.24646e-08
1.30106e-08
1.35362e-08
1.40526e-08
1.45743e-08
1.51281e-08
1.5748e-08
1.65019e-08
1.75121e-08
1.88913e-08
2.08594e-08
2.36971e-08
2.74905e-08
3.24324e-08
3.85575e-08
4.57771e-08
5.37712e-08
6.16515e-08
6.70325e-08
6.36514e-08
3.58484e-08
1.97217e-08
1.08718e-08
6.03018e-09
3.66638e-09
2.78631e-09
2.85631e-09
3.1559e-09
3.02317e-09
2.60262e-09
2.18864e-09
1.83177e-09
1.5172e-09
1.23609e-09
9.86386e-10
7.68097e-10
5.72794e-10
4.12191e-10
2.85463e-10
1.90095e-10
1.21885e-10
7.55076e-11
4.54042e-11
2.66264e-11
1.52905e-11
8.62649e-12
4.7932e-12
2.6279e-12
1.42371e-12
7.63105e-13
4.05077e-13
2.13142e-13
1.11251e-13
5.76356e-14
2.96423e-14
1.51271e-14
7.64543e-15
3.8086e-15
1.8491e-15
8.51619e-16
3.44745e-16
7.93895e-17
1.26449e-13
4.90038e-13
1.04499e-12
1.92172e-12
3.30523e-12
5.47993e-12
8.88136e-12
1.417e-11
2.23081e-11
3.43318e-11
5.19119e-11
7.74454e-11
1.1415e-10
1.66186e-10
2.38749e-10
3.38031e-10
4.71e-10
6.44973e-10
8.6695e-10
1.14285e-09
1.47673e-09
1.87032e-09
2.32282e-09
2.83107e-09
3.38993e-09
3.97633e-09
4.59892e-09
5.26119e-09
5.9344e-09
6.62734e-09
7.33101e-09
8.02562e-09
8.71994e-09
9.39814e-09
1.00613e-08
1.07045e-08
1.13246e-08
1.19174e-08
1.24858e-08
1.30346e-08
1.35631e-08
1.40829e-08
1.46083e-08
1.51667e-08
1.57922e-08
1.65533e-08
1.75725e-08
1.89651e-08
2.09523e-08
2.38157e-08
2.76458e-08
3.26365e-08
3.88247e-08
4.61221e-08
5.42125e-08
6.21968e-08
6.76521e-08
6.41892e-08
3.60373e-08
1.98187e-08
1.09218e-08
6.06399e-09
3.6965e-09
2.82664e-09
2.91022e-09
3.20536e-09
3.05486e-09
2.62526e-09
2.2059e-09
1.84465e-09
1.52632e-09
1.2421e-09
9.8991e-10
7.69646e-10
5.7248e-10
4.11083e-10
2.84157e-10
1.88903e-10
1.20948e-10
7.48424e-11
4.49654e-11
2.63522e-11
1.5126e-11
8.53092e-12
4.73902e-12
2.5978e-12
1.40727e-12
7.54241e-13
4.00355e-13
2.10656e-13
1.09956e-13
5.69676e-14
2.93006e-14
1.49537e-14
7.55826e-15
3.76536e-15
1.82818e-15
8.42e-16
3.40853e-16
7.84938e-17
1.26358e-13
4.8969e-13
1.04425e-12
1.92036e-12
3.30292e-12
5.47611e-12
8.87523e-12
1.41604e-11
2.22908e-11
3.43026e-11
5.18663e-11
7.73774e-11
1.14051e-10
1.66047e-10
2.38556e-10
3.3777e-10
4.70667e-10
6.4456e-10
8.66475e-10
1.14232e-09
1.47619e-09
1.86981e-09
2.32241e-09
2.83086e-09
3.39003e-09
3.97683e-09
4.59991e-09
5.26275e-09
5.93671e-09
6.63046e-09
7.33517e-09
8.03092e-09
8.72651e-09
9.40611e-09
1.00708e-08
1.07157e-08
1.13375e-08
1.19322e-08
1.25025e-08
1.30534e-08
1.35843e-08
1.41067e-08
1.46352e-08
1.51967e-08
1.58263e-08
1.65928e-08
1.76188e-08
1.90217e-08
2.10234e-08
2.3906e-08
2.77641e-08
3.27916e-08
3.90274e-08
4.63853e-08
5.45474e-08
6.26095e-08
6.81193e-08
6.45866e-08
3.61835e-08
1.98946e-08
1.09617e-08
6.09108e-09
3.72063e-09
2.85805e-09
2.95163e-09
3.24321e-09
3.0795e-09
2.64245e-09
2.21909e-09
1.85459e-09
1.53339e-09
1.24679e-09
9.92669e-10
7.70936e-10
5.7268e-10
4.10657e-10
2.83477e-10
1.88212e-10
1.20368e-10
7.44123e-11
4.46727e-11
2.61651e-11
1.50119e-11
8.46373e-12
4.70056e-12
2.57628e-12
1.39546e-12
7.47881e-13
3.96986e-13
2.0889e-13
1.09037e-13
5.64918e-14
2.9056e-14
1.4829e-14
7.49536e-15
3.7341e-15
1.81302e-15
8.35026e-16
3.3803e-16
7.78437e-17
1.26301e-13
4.89469e-13
1.04379e-12
1.91951e-12
3.30145e-12
5.47371e-12
8.87137e-12
1.41544e-11
2.22799e-11
3.4284e-11
5.18372e-11
7.73341e-11
1.13989e-10
1.6596e-10
2.38437e-10
3.37611e-10
4.70464e-10
6.44311e-10
8.66186e-10
1.14201e-09
1.47587e-09
1.86952e-09
2.32221e-09
2.8308e-09
3.39018e-09
3.97725e-09
4.60069e-09
5.26394e-09
5.93842e-09
6.63276e-09
7.33816e-09
8.03466e-09
8.73112e-09
9.41169e-09
1.00774e-08
1.07234e-08
1.13464e-08
1.19425e-08
1.25141e-08
1.30667e-08
1.35992e-08
1.41234e-08
1.46538e-08
1.52176e-08
1.58499e-08
1.66198e-08
1.76501e-08
1.90597e-08
2.10711e-08
2.39665e-08
2.78431e-08
3.2895e-08
3.91623e-08
4.65597e-08
5.47697e-08
6.2883e-08
6.84273e-08
6.48471e-08
3.62749e-08
1.99437e-08
1.09878e-08
6.10902e-09
3.73655e-09
2.87898e-09
2.97904e-09
3.26814e-09
3.09589e-09
2.65396e-09
2.22796e-09
1.86128e-09
1.53817e-09
1.24997e-09
9.94572e-10
7.71881e-10
5.72924e-10
4.10483e-10
2.83118e-10
1.87821e-10
1.20028e-10
7.41528e-11
4.44925e-11
2.60484e-11
1.494e-11
8.42111e-12
4.67603e-12
2.5625e-12
1.38786e-12
7.43756e-13
3.94775e-13
2.0772e-13
1.08426e-13
5.61766e-14
2.88949e-14
1.47473e-14
7.4543e-15
3.71373e-15
1.80317e-15
8.30492e-16
3.36195e-16
7.7421e-17
1.26273e-13
4.89362e-13
1.04356e-12
1.91909e-12
3.30075e-12
5.47255e-12
8.86952e-12
1.41515e-11
2.22746e-11
3.42751e-11
5.18233e-11
7.73135e-11
1.13959e-10
1.65918e-10
2.38379e-10
3.37536e-10
4.70369e-10
6.44194e-10
8.66049e-10
1.14186e-09
1.47572e-09
1.86939e-09
2.32212e-09
2.83078e-09
3.39028e-09
3.97749e-09
4.60111e-09
5.26456e-09
5.93931e-09
6.63394e-09
7.3397e-09
8.03659e-09
8.7335e-09
9.41455e-09
1.00808e-08
1.07273e-08
1.1351e-08
1.19477e-08
1.25201e-08
1.30734e-08
1.36067e-08
1.41318e-08
1.46632e-08
1.5228e-08
1.58617e-08
1.66334e-08
1.76659e-08
1.90789e-08
2.10951e-08
2.39968e-08
2.78826e-08
3.29467e-08
3.92298e-08
4.66468e-08
5.48802e-08
6.30184e-08
6.85791e-08
6.49744e-08
3.63206e-08
1.99684e-08
1.1001e-08
6.11808e-09
3.74466e-09
2.8895e-09
2.99269e-09
3.28049e-09
3.10401e-09
2.65971e-09
2.23239e-09
1.86463e-09
1.54056e-09
1.25156e-09
9.95537e-10
7.72373e-10
5.73073e-10
4.10427e-10
2.82966e-10
1.87648e-10
1.19875e-10
7.40342e-11
4.44091e-11
2.5994e-11
1.49064e-11
8.40115e-12
4.66452e-12
2.55602e-12
1.38428e-12
7.41809e-13
3.9373e-13
2.07167e-13
1.08137e-13
5.60264e-14
2.88177e-14
1.4708e-14
7.43448e-15
3.70388e-15
1.79838e-15
8.28288e-16
3.35302e-16
7.72151e-17
1.26274e-13
4.89363e-13
1.04356e-12
1.9191e-12
3.30076e-12
5.47256e-12
8.86954e-12
1.41515e-11
2.22747e-11
3.42751e-11
5.18233e-11
7.73136e-11
1.13959e-10
1.65918e-10
2.3838e-10
3.37536e-10
4.70369e-10
6.44195e-10
8.6605e-10
1.14186e-09
1.47572e-09
1.86939e-09
2.32212e-09
2.83078e-09
3.39028e-09
3.97749e-09
4.60112e-09
5.26457e-09
5.93931e-09
6.63395e-09
7.33971e-09
8.0366e-09
8.73352e-09
9.41457e-09
1.00808e-08
1.07274e-08
1.1351e-08
1.19478e-08
1.25201e-08
1.30734e-08
1.36068e-08
1.41319e-08
1.46633e-08
1.52281e-08
1.58618e-08
1.66335e-08
1.7666e-08
1.9079e-08
2.10952e-08
2.3997e-08
2.78828e-08
3.29469e-08
3.92301e-08
4.66472e-08
5.48806e-08
6.30188e-08
6.85796e-08
6.49748e-08
3.63206e-08
1.99679e-08
1.10008e-08
6.11802e-09
3.74465e-09
2.88949e-09
2.99267e-09
3.2805e-09
3.10406e-09
2.65974e-09
2.23241e-09
1.86463e-09
1.54057e-09
1.25157e-09
9.95542e-10
7.72377e-10
5.73077e-10
4.1043e-10
2.82968e-10
1.8765e-10
1.19877e-10
7.40349e-11
4.44096e-11
2.59943e-11
1.49066e-11
8.40124e-12
4.66457e-12
2.55605e-12
1.3843e-12
7.41817e-13
3.93734e-13
2.07169e-13
1.08138e-13
5.6027e-14
2.8818e-14
1.47081e-14
7.43455e-15
3.70391e-15
1.7984e-15
8.28295e-16
3.35304e-16
7.72157e-17
1.26302e-13
4.89472e-13
1.04379e-12
1.91952e-12
3.30148e-12
5.47374e-12
8.87144e-12
1.41545e-11
2.228e-11
3.42842e-11
5.18374e-11
7.73344e-11
1.13989e-10
1.6596e-10
2.38437e-10
3.37611e-10
4.70465e-10
6.44312e-10
8.66187e-10
1.14201e-09
1.47587e-09
1.86952e-09
2.32221e-09
2.8308e-09
3.39018e-09
3.97725e-09
4.6007e-09
5.26394e-09
5.93843e-09
6.63278e-09
7.33819e-09
8.0347e-09
8.73117e-09
9.41175e-09
1.00775e-08
1.07235e-08
1.13466e-08
1.19427e-08
1.25144e-08
1.30669e-08
1.35995e-08
1.41237e-08
1.46541e-08
1.52178e-08
1.58502e-08
1.66201e-08
1.76504e-08
1.906e-08
2.10714e-08
2.39669e-08
2.78435e-08
3.28956e-08
3.91631e-08
4.65607e-08
5.47709e-08
6.28845e-08
6.8429e-08
6.48487e-08
3.62757e-08
1.99441e-08
1.09881e-08
6.10919e-09
3.73675e-09
2.87904e-09
2.97902e-09
3.26813e-09
3.0959e-09
2.65399e-09
2.22798e-09
1.8613e-09
1.53819e-09
1.24998e-09
9.94587e-10
7.71893e-10
5.72935e-10
4.10492e-10
2.83125e-10
1.87826e-10
1.20032e-10
7.4155e-11
4.44938e-11
2.60491e-11
1.49405e-11
8.42137e-12
4.67618e-12
2.56258e-12
1.3879e-12
7.43779e-13
3.94787e-13
2.07726e-13
1.0843e-13
5.61782e-14
2.88956e-14
1.47477e-14
7.45447e-15
3.71382e-15
1.8032e-15
8.30509e-16
3.36202e-16
7.74226e-17
1.2636e-13
4.89694e-13
1.04426e-12
1.92038e-12
3.30294e-12
5.47615e-12
8.8753e-12
1.41605e-11
2.2291e-11
3.43027e-11
5.18664e-11
7.73776e-11
1.14051e-10
1.66048e-10
2.38557e-10
3.37771e-10
4.70668e-10
6.44561e-10
8.66477e-10
1.14233e-09
1.47619e-09
1.86981e-09
2.32242e-09
2.83087e-09
3.39004e-09
3.97683e-09
4.59992e-09
5.26276e-09
5.93672e-09
6.63048e-09
7.33518e-09
8.03093e-09
8.72654e-09
9.40614e-09
1.00708e-08
1.07158e-08
1.13376e-08
1.19324e-08
1.25027e-08
1.30538e-08
1.35847e-08
1.41071e-08
1.46356e-08
1.51972e-08
1.58268e-08
1.65932e-08
1.76191e-08
1.90218e-08
2.10237e-08
2.39065e-08
2.77647e-08
3.27924e-08
3.90286e-08
4.63868e-08
5.45494e-08
6.26121e-08
6.81224e-08
6.45895e-08
3.6185e-08
1.98952e-08
1.09619e-08
6.09116e-09
3.7205e-09
2.85794e-09
2.95151e-09
3.24315e-09
3.07951e-09
2.64248e-09
2.21911e-09
1.85461e-09
1.53342e-09
1.24682e-09
9.92691e-10
7.70955e-10
5.72697e-10
4.10671e-10
2.83489e-10
1.8822e-10
1.20374e-10
7.4416e-11
4.4675e-11
2.61665e-11
1.50127e-11
8.46418e-12
4.70081e-12
2.57642e-12
1.39553e-12
7.4792e-13
3.97007e-13
2.08901e-13
1.09043e-13
5.6495e-14
2.90576e-14
1.48298e-14
7.49573e-15
3.73427e-15
1.8131e-15
8.3506e-16
3.38043e-16
7.78466e-17
1.2645e-13
4.90042e-13
1.045e-12
1.92173e-12
3.30526e-12
5.47998e-12
8.88145e-12
1.41702e-11
2.23083e-11
3.4332e-11
5.19122e-11
7.74458e-11
1.1415e-10
1.66187e-10
2.3875e-10
3.38032e-10
4.71001e-10
6.44975e-10
8.66953e-10
1.14285e-09
1.47673e-09
1.87033e-09
2.32283e-09
2.83107e-09
3.38994e-09
3.97634e-09
4.59892e-09
5.2612e-09
5.9344e-09
6.62734e-09
7.33101e-09
8.02562e-09
8.71994e-09
9.39813e-09
1.00613e-08
1.07045e-08
1.13245e-08
1.19174e-08
1.24859e-08
1.30347e-08
1.35633e-08
1.40832e-08
1.46088e-08
1.5167e-08
1.57925e-08
1.65536e-08
1.75728e-08
1.89656e-08
2.09529e-08
2.38164e-08
2.76468e-08
3.26376e-08
3.88259e-08
4.61233e-08
5.42134e-08
6.21991e-08
6.76552e-08
6.41922e-08
3.60391e-08
1.982e-08
1.09226e-08
6.06444e-09
3.6967e-09
2.82665e-09
2.91011e-09
3.20527e-09
3.05486e-09
2.62529e-09
2.20593e-09
1.84468e-09
1.52634e-09
1.24213e-09
9.89937e-10
7.6967e-10
5.72501e-10
4.11101e-10
2.84171e-10
1.88914e-10
1.20955e-10
7.48473e-11
4.49684e-11
2.6354e-11
1.51271e-11
8.53152e-12
4.73936e-12
2.59798e-12
1.40736e-12
7.5429e-13
4.0038e-13
2.10668e-13
1.09962e-13
5.69704e-14
2.93019e-14
1.49543e-14
7.55855e-15
3.76549e-15
1.82823e-15
8.42023e-16
3.40862e-16
7.84956e-17
1.26576e-13
4.90528e-13
1.04603e-12
1.92362e-12
3.3085e-12
5.48533e-12
8.89005e-12
1.41837e-11
2.23324e-11
3.43725e-11
5.19753e-11
7.75396e-11
1.14286e-10
1.66378e-10
2.39011e-10
3.3838e-10
4.71455e-10
6.45539e-10
8.67631e-10
1.14362e-09
1.47756e-09
1.87112e-09
2.32349e-09
2.8315e-09
3.39e-09
3.97591e-09
4.59785e-09
5.25942e-09
5.93167e-09
6.62353e-09
7.32589e-09
8.01905e-09
8.71175e-09
9.38819e-09
1.00494e-08
1.06905e-08
1.13082e-08
1.18988e-08
1.24646e-08
1.30106e-08
1.35361e-08
1.40526e-08
1.45743e-08
1.51281e-08
1.57481e-08
1.65021e-08
1.75124e-08
1.88917e-08
2.086e-08
2.3698e-08
2.74918e-08
3.2434e-08
3.85596e-08
4.57797e-08
5.37741e-08
6.16553e-08
6.70367e-08
6.36551e-08
3.58507e-08
1.97233e-08
1.08728e-08
6.03074e-09
3.66662e-09
2.78631e-09
2.85614e-09
3.15574e-09
3.02311e-09
2.60261e-09
2.18865e-09