/*--------------------------------*- C++ -*----------------------------------*\
  =========                 |
  \\      /  F ield         | OpenFOAM: The Open Source CFD Toolbox
   \\    /   O peration     | Website:  https://openfoam.org
    \\  /    A nd           | Version:  10
     \\/     M anipulation  |
\*---------------------------------------------------------------------------*/
FoamFile
{
    format      ascii;
    class       volScalarField;
    location    "1";
    object      N;
}
// * * * * * * * * * * * * * * * * * * * * * * * * * * * * * * * * * * * * * //

dimensions      [0 0 0 0 0 0 0];

internalField   nonuniform List<scalar> 
4000
(
1.59531e-25
6.18365e-25
1.31991e-24
2.43279e-24
4.20287e-24
7.02303e-24
1.15316e-23
1.87852e-23
3.05847e-23
4.94779e-23
8.0379e-23
1.32908e-22
2.2654e-22
4.03003e-22
7.57254e-22
1.51849e-21
3.2681e-21
7.55968e-21
1.87395e-20
4.93795e-20
1.36625e-19
3.91096e-19
1.14066e-18
3.35e-18
9.74561e-18
2.75008e-17
7.6377e-17
2.09705e-16
5.56692e-16
1.45593e-15
3.69352e-15
9.13038e-15
2.17578e-14
4.95517e-14
1.0741e-13
2.21066e-13
4.31935e-13
8.0304e-13
1.42262e-12
2.4123e-12
3.94209e-12
6.21338e-12
9.56973e-12
1.45771e-11
2.21946e-11
3.44751e-11
5.46992e-11
9.01737e-11
1.51752e-10
2.63888e-10
4.5841e-10
7.9916e-10
1.39146e-09
2.40812e-09
4.12696e-09
6.973e-09
1.15246e-08
1.82514e-08
2.5633e-08
1.93736e-08
1.22665e-08
7.64609e-09
4.5589e-09
2.57274e-09
1.37277e-09
7.06694e-10
3.49013e-10
1.6445e-10
7.12439e-11
2.95172e-11
1.13769e-11
4.03593e-12
1.30393e-12
3.78623e-13
9.69991e-14
2.18383e-14
4.10244e-15
7.17647e-16
1.40195e-16
3.47253e-17
1.03484e-17
3.36128e-18
1.12872e-18
3.84921e-19
1.32563e-19
4.59496e-20
1.59726e-20
5.53629e-21
1.92149e-21
6.66653e-22
2.3101e-22
7.99265e-23
2.76086e-23
9.52101e-24
3.27923e-24
1.12795e-24
3.86833e-25
1.30902e-25
4.16835e-26
8.34736e-27
1.58502e-25
6.14277e-25
1.31085e-24
2.41535e-24
4.17095e-24
6.9654e-24
1.14268e-23
1.85912e-23
3.0217e-23
4.87931e-23
7.90684e-23
1.30326e-22
2.21284e-22
3.918e-22
7.32195e-22
1.45946e-21
3.11902e-21
7.17961e-21
1.77399e-20
4.66437e-20
1.28883e-19
3.68787e-19
1.07617e-18
3.14834e-18
9.16806e-18
2.58982e-17
7.20398e-17
1.98585e-16
5.2841e-16
1.38758e-15
3.53373e-15
8.7688e-15
2.09595e-14
4.79607e-14
1.04413e-13
2.158e-13
4.23358e-13
7.90445e-13
1.40568e-12
2.3929e-12
3.92687e-12
6.21682e-12
9.62333e-12
1.47502e-11
2.26051e-11
3.5344e-11
5.64291e-11
9.36246e-11
1.58252e-10
2.76227e-10
4.80793e-10
8.3931e-10
1.46309e-09
2.53347e-09
4.34398e-09
7.34033e-09
1.21255e-08
1.91624e-08
2.67574e-08
1.92542e-08
1.21832e-08
7.56928e-09
4.49129e-09
2.52228e-09
1.34148e-09
6.8813e-10
3.38212e-10
1.58636e-10
6.82755e-11
2.80997e-11
1.0727e-11
3.77521e-12
1.20693e-12
3.46222e-13
8.71609e-14
1.91256e-14
3.51794e-15
6.11997e-16
1.2129e-16
3.04775e-17
9.13296e-18
2.97278e-18
1.00095e-18
3.42652e-19
1.18535e-19
4.12909e-20
1.44492e-20
5.08593e-21
1.78467e-21
6.24028e-22
2.17428e-22
7.55103e-23
2.61411e-23
9.00932e-24
3.10301e-24
1.06757e-24
3.66007e-25
1.23892e-25
3.94797e-26
7.91079e-27
1.57363e-25
6.0983e-25
1.30121e-24
2.397e-24
4.13744e-24
6.90463e-24
1.13154e-23
1.83834e-23
2.98215e-23
4.80542e-23
7.76683e-23
1.27643e-22
2.16115e-22
3.81039e-22
7.08322e-22
1.40258e-21
2.98769e-21
6.85232e-21
1.68611e-20
4.41478e-20
1.21524e-19
3.46639e-19
1.01042e-18
2.96173e-18
8.63068e-18
2.44113e-17
6.80415e-17
1.87661e-16
5.00146e-16
1.31652e-15
3.35307e-15
8.33196e-15
1.9963e-14
4.59253e-14
1.00511e-13
2.0884e-13
4.1189e-13
7.73378e-13
1.38267e-12
2.36674e-12
3.90724e-12
6.22522e-12
9.70596e-12
1.50043e-11
2.31951e-11
3.66154e-11
5.90502e-11
9.88617e-11
1.68539e-10
2.95933e-10
5.1693e-10
9.06569e-10
1.58416e-09
2.74832e-09
4.72005e-09
7.98299e-09
1.31959e-08
2.08668e-08
2.89765e-08
1.95522e-08
1.22762e-08
7.54865e-09
4.42732e-09
2.4615e-09
1.30137e-09
6.63037e-10
3.23484e-10
1.50384e-10
6.41581e-11
2.61118e-11
9.86928e-12
3.41836e-12
1.07686e-12
3.05803e-13
7.30399e-14
1.57704e-14
2.8521e-15
4.97825e-16
1.01209e-16
2.60967e-17
7.94642e-18
2.61229e-18
8.86164e-19
3.05261e-19
1.06156e-19
3.71333e-20
1.30248e-20
4.56938e-21
1.60063e-21
5.59343e-22
1.94933e-22
6.77616e-23
2.35133e-23
8.16584e-24
2.82767e-24
9.7655e-25
3.35798e-25
1.13876e-25
3.63229e-26
7.28023e-27
1.56017e-25
6.04562e-25
1.28972e-24
2.37499e-24
4.09721e-24
6.83202e-24
1.11841e-23
1.8144e-23
2.93813e-23
4.72582e-23
7.61553e-23
1.24636e-22
2.09834e-22
3.6871e-22
6.83987e-22
1.3532e-21
2.87446e-21
6.57139e-21
1.61198e-20
4.20934e-20
1.15626e-19
3.29371e-19
9.57958e-19
2.80825e-18
8.19086e-18
2.31643e-17
6.45785e-17
1.78217e-16
4.74518e-16
1.24952e-15
3.18561e-15
7.92981e-15
1.90503e-14
4.39882e-14
9.68117e-14
2.0217e-13
4.00858e-13
7.56898e-13
1.36065e-12
2.3424e-12
3.89114e-12
6.24121e-12
9.80484e-12
1.52913e-11
2.3869e-11
3.80579e-11
6.20076e-11
1.04794e-10
1.79918e-10
3.17839e-10
5.57773e-10
9.82181e-10
1.72361e-09
3.00267e-09
5.17118e-09
8.77872e-09
1.45676e-08
2.30979e-08
3.19371e-08
2.03812e-08
1.25962e-08
7.62921e-09
4.36742e-09
2.3975e-09
1.25781e-09
6.34873e-10
3.06554e-10
1.40855e-10
5.97967e-11
2.40049e-11
8.9119e-12
3.04059e-12
9.42233e-13
2.61053e-13
6.15426e-14
1.29937e-14
2.30421e-15
4.03623e-16
8.40659e-17
2.21459e-17
6.8194e-18
2.25541e-18
7.68663e-19
2.65914e-19
9.28343e-20
3.25875e-20
1.14666e-20
4.03453e-21
1.4171e-21
4.96427e-22
1.73383e-22
6.03782e-23
2.09705e-23
7.26785e-24
2.51437e-24
8.68299e-25
2.98763e-25
1.0143e-25
3.23959e-26
6.49984e-27
1.54782e-25
5.99755e-25
1.27933e-24
2.35534e-24
4.06174e-24
6.76875e-24
1.10706e-23
1.7937e-23
2.89946e-23
4.65168e-23
7.48264e-23
1.22294e-22
2.05724e-22
3.60721e-22
6.67292e-22
1.31605e-21
2.78674e-21
6.3519e-21
1.55404e-20
4.0491e-20
1.11033e-19
3.15877e-19
9.17736e-19
2.68358e-18
7.80809e-18
2.20402e-17
6.13587e-17
1.69735e-16
4.52606e-16
1.19283e-15
3.04464e-15
7.58887e-15
1.82726e-14
4.23101e-14
9.35529e-14
1.96448e-13
3.91468e-13
7.42919e-13
1.34222e-12
2.3227e-12
3.87984e-12
6.25989e-12
9.89868e-12
1.55554e-11
2.44707e-11
3.93201e-11
6.45524e-11
1.09822e-10
1.89646e-10
3.36775e-10
5.93676e-10
1.04919e-09
1.84727e-09
3.22742e-09
5.57861e-09
9.50226e-09
1.58192e-08
2.51253e-08
3.44021e-08
2.10934e-08
1.27991e-08
7.60864e-09
4.27966e-09
2.31537e-09
1.20224e-09
6.00568e-10
2.86642e-10
1.2949e-10
5.47945e-11
2.17068e-11
7.94512e-12
2.66672e-12
8.05766e-13
2.17817e-13
5.18784e-14
1.01953e-14
1.77915e-15
3.1551e-16
6.79404e-17
1.84319e-17
5.77811e-18
1.93208e-18
6.63691e-19
2.31055e-19
8.10849e-20
2.85861e-20
1.00949e-20
3.56274e-21
1.25466e-21
4.40514e-22
1.54152e-22
5.37663e-23
1.86972e-23
6.48555e-24
2.24498e-24
7.75538e-25
2.66903e-25
9.06256e-26
2.89471e-26
5.80765e-27
1.53738e-25
5.95728e-25
1.27074e-24
2.33939e-24
4.03367e-24
6.72028e-24
1.09869e-23
1.77909e-23
2.8742e-23
4.60953e-23
7.40992e-23
1.21008e-22
2.03282e-22
3.55721e-22
6.56369e-22
1.2906e-21
2.72359e-21
6.185e-21
1.50735e-20
3.91217e-20
1.06876e-19
3.02995e-19
8.78264e-19
2.56951e-18
7.48843e-18
2.11667e-17
5.90109e-17
1.63301e-16
4.3551e-16
1.14847e-15
2.93498e-15
7.32472e-15
1.76791e-14
4.10405e-14
9.11163e-14
1.9203e-13
3.84181e-13
7.32059e-13
1.32804e-12
2.30785e-12
3.8725e-12
6.27772e-12
9.97769e-12
1.57692e-11
2.49466e-11
4.0291e-11
6.65048e-11
1.13435e-10
1.96626e-10
3.49984e-10
6.17512e-10
1.09136e-09
1.92071e-09
3.35428e-09
5.79377e-09
9.85558e-09
1.63613e-08
2.57772e-08
3.40462e-08
2.05739e-08
1.23893e-08
7.29307e-09
4.06108e-09
2.17795e-09
1.1217e-09
5.55493e-10
2.62259e-10
1.17037e-10
4.89752e-11
1.91082e-11
6.88977e-12
2.2694e-12
6.74956e-13
1.79082e-13
4.14781e-14
7.95572e-15
1.37351e-15
2.47898e-16
5.53127e-17
1.54537e-17
4.92825e-18
1.66428e-18
5.75513e-19
2.01376e-19
7.0959e-20
2.5101e-20
8.8897e-21
3.14532e-21
1.11018e-21
3.9059e-22
1.36929e-22
4.78181e-23
1.6641e-23
5.77643e-24
2.00097e-24
6.91901e-25
2.38382e-25
8.10224e-26
2.58964e-26
5.19672e-27
1.52805e-25
5.92104e-25
1.26295e-24
2.32488e-24
4.0083e-24
6.67752e-24
1.09168e-23
1.76791e-23
2.85546e-23
4.57638e-23
7.3509e-23
1.19887e-22
2.01089e-22
3.51265e-22
6.46834e-22
1.26896e-21
2.67143e-21
6.0514e-21
1.4712e-20
3.80984e-20
1.03929e-19
2.94266e-19
8.52409e-19
2.49106e-18
7.25558e-18
2.05037e-17
5.7145e-17
1.58251e-16
4.22329e-16
1.11409e-15
2.84845e-15
7.1122e-15
1.7255e-14
4.01087e-14
8.92586e-14
1.88756e-13
3.78897e-13
7.24375e-13
1.31835e-12
2.29839e-12
3.86875e-12
6.29399e-12
1.00407e-11
1.59311e-11
2.52987e-11
4.08636e-11
6.76553e-11
1.15321e-10
2.00078e-10
3.5602e-10
6.27376e-10
1.10676e-09
1.94304e-09
3.38196e-09
5.81611e-09
9.83457e-09
1.61743e-08
2.49843e-08
3.06658e-08
1.86912e-08
1.13299e-08
6.67201e-09
3.70599e-09
1.979e-09
1.01602e-09
5.01211e-10
2.36603e-10
1.02506e-10
4.25561e-11
1.64229e-11
5.85675e-12
1.8993e-12
5.552e-13
1.43095e-13
3.25717e-14
6.12521e-15
1.05314e-15
1.94934e-16
4.52733e-17
1.30487e-17
4.23582e-18
1.4449e-18
5.02943e-19
1.76842e-19
6.25554e-20
2.21988e-20
7.88314e-21
2.79579e-21
9.88906e-22
3.48607e-22
1.22456e-22
4.28858e-23
1.49765e-23
5.21372e-24
1.80889e-24
6.25928e-25
2.15678e-25
7.32931e-26
2.34211e-26
4.69917e-27
1.52125e-25
5.89475e-25
1.25731e-24
2.3143e-24
3.98946e-24
6.64448e-24
1.08586e-23
1.75749e-23
2.83708e-23
4.54301e-23
7.28558e-23
1.18645e-22
1.98688e-22
3.46448e-22
6.36692e-22
1.24639e-21
2.61819e-21
5.91825e-21
1.4361e-20
3.71325e-20
1.01149e-19
2.86239e-19
8.29324e-19
2.42435e-18
7.05801e-18
1.994e-17
5.56462e-17
1.542e-16
4.11855e-16
1.08769e-15
2.78808e-15
6.96631e-15
1.69335e-14
3.94269e-14
8.79182e-14
1.86441e-13
3.75262e-13
7.19199e-13
1.31292e-12
2.29721e-12
3.86558e-12
6.31088e-12
1.00984e-11
1.60523e-11
2.55372e-11
4.13108e-11
6.84699e-11
1.16487e-10
2.0214e-10
3.5941e-10
6.32499e-10
1.11366e-09
1.95047e-09
3.38508e-09
5.80085e-09
9.76267e-09
1.5934e-08
2.41652e-08
2.72744e-08
1.67395e-08
1.01951e-08
6.00491e-09
3.32891e-09
1.77287e-09
9.06644e-10
4.45374e-10
2.08818e-10
8.94194e-11
3.68208e-11
1.40801e-11
4.94811e-12
1.58367e-12
4.55974e-13
1.15776e-13
2.57337e-14
4.7505e-15
8.16228e-16
1.55377e-16
3.75392e-17
1.1143e-17
3.67912e-18
1.26756e-18
4.44168e-19
1.56961e-19
5.57455e-20
1.98477e-20
7.06794e-21
2.51272e-21
8.90656e-22
3.1455e-22
1.10659e-22
3.87838e-23
1.3547e-23
4.71854e-24
1.64042e-24
5.68587e-25
1.96102e-25
6.66674e-26
2.13087e-26
4.27572e-27
1.51735e-25
5.87983e-25
1.25415e-24
2.30849e-24
3.9793e-24
6.62704e-24
1.08287e-23
1.75229e-23
2.8279e-23
4.52455e-23
7.25253e-23
1.1803e-22
1.97495e-22
3.44005e-22
6.31378e-22
1.23411e-21
2.58818e-21
5.84065e-21
1.41502e-20
3.65425e-20
9.93789e-20
2.81016e-19
8.13021e-19
2.37421e-18
6.91695e-18
1.95481e-17
5.45366e-17
1.51057e-16
4.03538e-16
1.06519e-15
2.75048e-15
6.86642e-15
1.67082e-14
3.89512e-14
8.69969e-14
1.84897e-13
3.73027e-13
7.15813e-13
1.30968e-12
2.29741e-12
3.87276e-12
6.33573e-12
1.01602e-11
1.61828e-11
2.57929e-11
4.1786e-11
6.93406e-11
1.17955e-10
2.04664e-10
3.63552e-10
6.38975e-10
1.12339e-09
1.96405e-09
3.40176e-09
5.81483e-09
9.75217e-09
1.58181e-08
2.35788e-08
2.42303e-08
1.49846e-08
9.1717e-09
5.40377e-09
2.99696e-09
1.59075e-09
8.10864e-10
3.96376e-10
1.84885e-10
7.85332e-11
3.20309e-11
1.2121e-11
4.21798e-12
1.33589e-12
3.83168e-13
9.17499e-14
2.00853e-14
3.66913e-15
6.35845e-16
1.25408e-16
3.16513e-17
9.69528e-18
3.25909e-18
1.13439e-18
4.00083e-19
1.42024e-19
5.06116e-20
1.80668e-20
6.44698e-21
2.29581e-21
8.14911e-22
2.88138e-22
1.01462e-22
3.55808e-23
1.24324e-23
4.33132e-24
1.50495e-24
5.21508e-25
1.79904e-25
6.11835e-26
1.95597e-26
3.92508e-27
1.51582e-25
5.87407e-25
1.25296e-24
2.30633e-24
3.97558e-24
6.62069e-24
1.08177e-23
1.75035e-23
2.82437e-23
4.51685e-23
7.23686e-23
1.17712e-22
1.96825e-22
3.42535e-22
6.28009e-22
1.226e-21
2.56765e-21
5.78599e-21
1.39983e-20
3.60978e-20
9.81228e-20
2.77106e-19
8.01731e-19
2.34252e-18
6.82324e-18
1.92861e-17
5.38272e-17
1.49117e-16
3.9863e-16
1.05269e-15
2.72112e-15
6.79638e-15
1.65534e-14
3.86291e-14
8.6385e-14
1.83905e-13
3.71822e-13
7.14608e-13
1.30971e-12
2.30249e-12
3.88819e-12
6.37362e-12
1.02421e-11
1.63483e-11
2.6114e-11
4.23954e-11
7.04578e-11
1.19973e-10
2.08243e-10
3.69714e-10
6.49493e-10
1.1408e-09
1.992e-09
3.44443e-09
5.87562e-09
9.82502e-09
1.58478e-08
2.32366e-08
2.15549e-08
1.34599e-08
8.27985e-09
4.87398e-09
2.70763e-09
1.43418e-09
7.29432e-10
3.55397e-10
1.65029e-10
6.98465e-11
2.83151e-11
1.06402e-11
3.67289e-12
1.15177e-12
3.26094e-13
7.69173e-14
1.66026e-14
3.00466e-15
5.24703e-16
1.06552e-16
2.77865e-17
8.69372e-18
2.95441e-18
1.03424e-18
3.66038e-19
1.30262e-19
4.65086e-20
1.66273e-20
5.9408e-21
2.11781e-21
7.52421e-22
2.66254e-22
9.3809e-23
3.29035e-23
1.14993e-23
4.00682e-24
1.39294e-24
4.83006e-25
1.66709e-25
5.67151e-26
1.81342e-26
3.63933e-27
1.51591e-25
5.87454e-25
1.25309e-24
2.30661e-24
3.9761e-24
6.62155e-24
1.08189e-23
1.75047e-23
2.82432e-23
4.51524e-23
7.23213e-23
1.17596e-22
1.96541e-22
3.41824e-22
6.26197e-22
1.22131e-21
2.5552e-21
5.75185e-21
1.3902e-20
3.58105e-20
9.72416e-20
2.74556e-19
7.9417e-19
2.31992e-18
6.76036e-18
1.91135e-17
5.33657e-17
1.47854e-16
3.95457e-16
1.04454e-15
2.70183e-15
6.75198e-15
1.64599e-14
3.84456e-14
8.60696e-14
1.83497e-13
3.71595e-13
7.15133e-13
1.31263e-12
2.31192e-12
3.91102e-12
6.42418e-12
1.0348e-11
1.6561e-11
2.65308e-11
4.31928e-11
7.19624e-11
1.22769e-10
2.1335e-10
3.78864e-10
6.65575e-10
1.16844e-09
2.03859e-09
3.52136e-09
5.99749e-09
1.0005e-08
1.60618e-08
2.32096e-08
1.94875e-08
1.22821e-08
7.59471e-09
4.47225e-09
2.48714e-09
1.3104e-09
6.6536e-10
3.23269e-10
1.49392e-10
6.31895e-11
2.54707e-11
9.50917e-12
3.25844e-12
1.0139e-12
2.84291e-13
6.681e-14
1.42716e-14
2.56571e-15
4.51538e-16
9.39292e-17
2.5098e-17
7.96437e-18
2.72435e-18
9.56771e-19
3.39293e-19
1.20924e-19
4.32267e-20
1.54695e-20
5.53174e-21
1.97338e-21
7.01531e-22
2.48391e-22
8.75933e-23
3.07729e-23
1.07745e-23
3.76023e-24
1.30773e-24
4.53336e-25
1.5641e-25
5.3194e-26
1.70036e-26
3.41191e-27
1.51736e-25
5.88032e-25
1.25436e-24
2.30904e-24
3.98045e-24
6.62908e-24
1.08317e-23
1.75261e-23
2.82715e-23
4.5183e-23
7.23518e-23
1.17615e-22
1.96511e-22
3.41629e-22
6.25498e-22
1.21909e-21
2.54849e-21
5.73196e-21
1.38418e-20
3.56364e-20
9.67165e-20
2.72977e-19
7.89473e-19
2.30611e-18
6.72069e-18
1.90053e-17
5.30809e-17
1.47078e-16
3.93551e-16
1.03968e-15
2.69074e-15
6.72751e-15
1.64115e-14
3.83628e-14
8.59645e-14
1.8349e-13
3.72109e-13
7.17037e-13
1.31806e-12
2.32587e-12
3.94197e-12
6.48945e-12
1.04813e-11
1.68259e-11
2.7053e-11
4.4207e-11
7.39055e-11
1.26443e-10
2.20183e-10
3.91356e-10
6.88305e-10
1.20905e-09
2.1097e-09
3.64326e-09
6.20303e-09
1.034e-08
1.65707e-08
2.37382e-08
1.84286e-08
1.16358e-08
7.18866e-09
4.2206e-09
2.33852e-09
1.23043e-09
6.22739e-10
3.01231e-10
1.38478e-10
5.85428e-11
2.34716e-11
8.70848e-12
2.96373e-12
9.14495e-13
2.53435e-13
5.95605e-14
1.26181e-14
2.25663e-15
3.99899e-16
8.4877e-17
2.31152e-17
7.41271e-18
2.54755e-18
8.96692e-19
3.18432e-19
1.13608e-19
4.06457e-20
1.45557e-20
5.20769e-21
1.85846e-21
6.6067e-22
2.3385e-22
8.24345e-23
2.89648e-23
1.01391e-23
3.53769e-24
1.23092e-24
4.27002e-25
1.4741e-25
5.0154e-26
1.60358e-26
3.21807e-27
1.51972e-25
5.88962e-25
1.25638e-24
2.31286e-24
3.98725e-24
6.64083e-24
1.08517e-23
1.756e-23
2.832e-23
4.52505e-23
7.24487e-23
1.17755e-22
1.96697e-22
3.41833e-22
6.25579e-22
1.21858e-21
2.54589e-21
5.72226e-21
1.38097e-20
3.55322e-20
9.64018e-20
2.72013e-19
7.86497e-19
2.2977e-18
6.69732e-18
1.89439e-17
5.2925e-17
1.4666e-16
3.92575e-16
1.03726e-15
2.68568e-15
6.7176e-15
1.63967e-14
3.83521e-14
8.60079e-14
1.83765e-13
3.7311e-13
7.19794e-13
1.32493e-12
2.34194e-12
3.97715e-12
6.56422e-12
1.06361e-11
1.71381e-11
2.76683e-11
4.54e-11
7.61858e-11
1.3073e-10
2.28167e-10
4.06136e-10
7.14997e-10
1.25678e-09
2.19439e-09
3.79149e-09
6.45763e-09
1.07668e-08
1.72377e-08
2.45504e-08
1.79937e-08
1.13408e-08
6.98127e-09
4.08005e-09
2.25019e-09
1.18167e-09
5.96055e-10
2.87217e-10
1.3135e-10
5.55035e-11
2.2128e-11
8.16324e-12
2.75778e-12
8.44551e-13
2.31808e-13
5.45424e-14
1.14543e-14
2.03861e-15
3.63454e-16
7.83671e-17
2.16359e-17
6.98589e-18
2.40734e-18
8.48348e-19
3.01491e-19
1.07632e-19
3.85278e-20
1.38031e-20
4.94022e-21
1.76377e-21
6.27705e-22
2.22535e-22
7.8518e-23
2.75926e-23
9.66031e-24
3.37079e-24
1.17244e-24
4.06594e-25
1.40329e-25
4.77335e-26
1.52587e-26
3.0617e-27
1.52256e-25
5.90077e-25
1.25879e-24
2.31738e-24
3.99523e-24
6.65451e-24
1.08748e-23
1.75988e-23
2.83787e-23
4.53378e-23
7.25824e-23
1.17963e-22
1.97018e-22
3.42313e-22
6.26247e-22
1.21935e-21
2.5462e-21
5.71999e-21
1.37976e-20
3.54872e-20
9.6248e-20
2.71519e-19
7.85056e-19
2.29354e-18
6.68634e-18
1.89162e-17
5.2861e-17
1.46494e-16
3.92254e-16
1.03655e-15
2.68482e-15
6.7177e-15
1.64046e-14
3.83909e-14
8.61515e-14
1.84219e-13
3.74411e-13
7.23033e-13
1.33249e-12
2.35925e-12
4.01386e-12
6.64006e-12
1.07892e-11
1.74437e-11
2.8281e-11
4.66175e-11
7.85768e-11
1.35266e-10
2.36658e-10
4.21674e-10
7.43166e-10
1.30748e-09
2.28411e-09
3.94824e-09
6.72783e-09
1.12188e-08
1.79547e-08
2.5477e-08
1.79118e-08
1.12499e-08
6.89403e-09
4.00689e-09
2.19956e-09
1.15151e-09
5.79002e-10
2.77945e-10
1.26451e-10
5.34246e-11
2.1209e-11
7.78272e-12
2.61586e-12
7.95807e-13
2.16503e-13
5.10209e-14
1.06395e-14
1.88486e-15
3.37537e-16
7.36167e-17
2.05065e-17
6.6459e-18
2.29261e-18
8.08182e-19
2.87294e-19
1.02594e-19
3.67356e-20
1.31644e-20
4.71251e-21
1.68264e-21
5.98695e-22
2.12192e-22
7.49461e-23
2.63577e-23
9.23238e-24
3.22104e-24
1.12048e-24
3.88613e-25
1.34133e-25
4.56278e-26
1.45856e-26
2.92661e-27
1.52557e-25
5.91252e-25
1.26133e-24
2.32212e-24
4.00356e-24
6.66875e-24
1.08988e-23
1.76389e-23
2.84408e-23
4.54326e-23
7.27313e-23
1.18201e-22
1.97401e-22
3.42927e-22
6.27224e-22
1.22087e-21
2.54839e-21
5.72276e-21
1.37991e-20
3.54797e-20
9.62047e-20
2.71358e-19
7.8455e-19
2.29221e-18
6.68346e-18
1.89113e-17
5.28586e-17
1.46498e-16
3.92368e-16
1.03697e-15
2.68671e-15
6.72428e-15
1.64269e-14
3.846e-14
8.63507e-14
1.84763e-13
3.75827e-13
7.26385e-13
1.34009e-12
2.37585e-12
4.0483e-12
6.70981e-12
1.09296e-11
1.77176e-11
2.8808e-11
4.76142e-11
8.11314e-11
1.39799e-10
2.44979e-10
4.36905e-10
7.70851e-10
1.35688e-09
2.37117e-09
4.0996e-09
6.98518e-09
1.16496e-08
1.86385e-08
2.63697e-08
1.8024e-08
1.12827e-08
6.89705e-09
3.95378e-09
2.16395e-09
1.13039e-09
5.67181e-10
2.71521e-10
1.23051e-10
5.20243e-11
2.05736e-11
7.51852e-12
2.51453e-12
7.6088e-13
2.05501e-13
4.85447e-14
1.00402e-14
1.76845e-15
3.17428e-16
6.97778e-17
1.95479e-17
6.34824e-18
2.19104e-18
7.72578e-19
2.74736e-19
9.81539e-20
3.51615e-20
1.26055e-20
4.51409e-21
1.6123e-21
5.73806e-22
2.03385e-22
7.17906e-23
2.5239e-23
8.84023e-24
3.08596e-24
1.07401e-24
3.72647e-25
1.28666e-25
4.37796e-26
1.39973e-26
2.80881e-27
1.5285e-25
5.92394e-25
1.26379e-24
2.32673e-24
4.0117e-24
6.68271e-24
1.09225e-23
1.76789e-23
2.8502e-23
4.55265e-23
7.28801e-23
1.18442e-22
1.97797e-22
3.43583e-22
6.28326e-22
1.22274e-21
2.55166e-21
5.72837e-21
1.38088e-20
3.54959e-20
9.62313e-20
2.71406e-19
7.84681e-19
2.29274e-18
6.68591e-18
1.89211e-17
5.28958e-17
1.46613e-16
3.92763e-16
1.03813e-15
2.69034e-15
6.73493e-15
1.64578e-14
3.85457e-14
8.65817e-14
1.85359e-13
3.77315e-13
7.29803e-13
1.34762e-12
2.39217e-12
4.0824e-12
6.78006e-12
1.10715e-11
1.80004e-11
2.93705e-11
4.87227e-11
8.32798e-11
1.43833e-10
2.52471e-10
4.50637e-10
7.95762e-10
1.40143e-09
2.44978e-09
4.23684e-09
7.22112e-09
1.20437e-08
1.92665e-08
2.72067e-08
1.82134e-08
1.13584e-08
6.91343e-09
3.94752e-09
2.15296e-09
1.12174e-09
5.61484e-10
2.68052e-10
1.2105e-10
5.12014e-11
2.01854e-11
7.35144e-12
2.44932e-12
7.38064e-13
1.98476e-13
4.7064e-14
9.24426e-15
1.62536e-15
2.93816e-16
6.54441e-17
1.85322e-17
6.05441e-18
2.09616e-18
7.40521e-19
2.63698e-19
9.43125e-20
3.3815e-20
1.21313e-20
4.34685e-21
1.55335e-21
5.53063e-22
1.96105e-22
6.92412e-23
2.43486e-23
8.53005e-24
2.97829e-24
1.03675e-24
3.59788e-25
1.24247e-25
4.22812e-26
1.35193e-26
2.71289e-27
1.5311e-25
5.9341e-25
1.26598e-24
2.33083e-24
4.01891e-24
6.69505e-24
1.09433e-23
1.7714e-23
2.85566e-23
4.56113e-23
7.30157e-23
1.18664e-22
1.98165e-22
3.44204e-22
6.29393e-22
1.22463e-21
2.55516e-21
5.73503e-21
1.38222e-20
3.55243e-20
9.62959e-20
2.71569e-19
7.85148e-19
2.29424e-18
6.69102e-18
1.89379e-17
5.2951e-17
1.46774e-16
3.93261e-16
1.03954e-15
2.69449e-15
6.74656e-15
1.64901e-14
3.8632e-14
8.68063e-14
1.85919e-13
3.78656e-13
7.32835e-13
1.35431e-12
2.40657e-12
4.11227e-12
6.8412e-12
1.11949e-11
1.82464e-11
2.98561e-11
4.96678e-11
8.50817e-11
1.47246e-10
2.58849e-10
4.62353e-10
8.17062e-10
1.43966e-09
2.51747e-09
4.35457e-09
7.4237e-09
1.23842e-08
1.98129e-08
2.79464e-08
1.84399e-08
1.14569e-08
6.94634e-09
3.95501e-09
2.15147e-09
1.11878e-09
5.58967e-10
2.66297e-10
1.19958e-10
5.06924e-11
1.99348e-11
7.24052e-12
2.40504e-12
7.2222e-13
1.93474e-13
4.56768e-14
8.91823e-15
1.56207e-15
2.82774e-16
6.32563e-17
1.79615e-17
5.87251e-18
2.03343e-18
7.18454e-19
2.55907e-19
9.15565e-20
3.2838e-20
1.17845e-20
4.22366e-21
1.50965e-21
5.37592e-22
1.90647e-22
6.7325e-23
2.36788e-23
8.29682e-24
2.89731e-24
1.00869e-24
3.50089e-25
1.20907e-25
4.11469e-26
1.31569e-26
2.64018e-27
1.53321e-25
5.94231e-25
1.26775e-24
2.33413e-24
4.02473e-24
6.70502e-24
1.09602e-23
1.77424e-23
2.86011e-23
4.56812e-23
7.31286e-23
1.1885e-22
1.98479e-22
3.44743e-22
6.30345e-22
1.22637e-21
2.55843e-21
5.74152e-21
1.38357e-20
3.55545e-20
9.63695e-20
2.71766e-19
7.85715e-19
2.29599e-18
6.69664e-18
1.89556e-17
5.30061e-17
1.46934e-16
3.93743e-16
1.04088e-15
2.69835e-15
6.75713e-15
1.65187e-14
3.87071e-14
8.69975e-14
1.86388e-13
3.7977e-13
7.35338e-13
1.35973e-12
2.41813e-12
4.13624e-12
6.89003e-12
1.12932e-11
1.84392e-11
3.02354e-11
5.04061e-11
8.64913e-11
1.4992e-10
2.6384e-10
4.71513e-10
8.33715e-10
1.46951e-09
2.57027e-09
4.44675e-09
7.58144e-09
1.26488e-08
2.02366e-08
2.85138e-08
1.86194e-08
1.15392e-08
6.9771e-09
3.9647e-09
2.15292e-09
1.11805e-09
5.57885e-10
2.65398e-10
1.19367e-10
5.03592e-11
1.97683e-11
7.1657e-12
2.3748e-12
7.11267e-13
1.89986e-13
4.4703e-14
8.69565e-15
1.51997e-15
2.7554e-16
6.18339e-17
1.75897e-17
5.75296e-18
1.99179e-18
7.03676e-19
2.50649e-19
8.96847e-20
3.21706e-20
1.15463e-20
4.1387e-21
1.47945e-21
5.26925e-22
1.86894e-22
6.60074e-23
2.32169e-23
8.13518e-24
2.84092e-24
9.89076e-25
3.43287e-25
1.18559e-25
4.03473e-26
1.2901e-26
2.58877e-27
1.53466e-25
5.94799e-25
1.26897e-24
2.33641e-24
4.02874e-24
6.71187e-24
1.09717e-23
1.77619e-23
2.86319e-23
4.57297e-23
7.32071e-23
1.18981e-22
1.98699e-22
3.45122e-22
6.31015e-22
1.22761e-21
2.5608e-21
5.74633e-21
1.38461e-20
3.55786e-20
9.64301e-20
2.7193e-19
7.86196e-19
2.29747e-18
6.70132e-18
1.897e-17
5.30506e-17
1.47063e-16
3.94122e-16
1.04193e-15
2.7013e-15
6.76509e-15
1.65401e-14
3.87625e-14
8.71372e-14
1.86725e-13
3.80564e-13
7.37113e-13
1.36358e-12
2.42636e-12
4.15314e-12
6.92417e-12
1.13612e-11
1.8573e-11
3.04967e-11
5.091e-11
8.74474e-11
1.51733e-10
2.67226e-10
4.77722e-10
8.44985e-10
1.48967e-09
2.60587e-09
4.50873e-09
7.68774e-09
1.28269e-08
2.05212e-08
2.88961e-08
1.87487e-08
1.15997e-08
7.00083e-09
3.973e-09
2.15493e-09
1.11814e-09
5.57474e-10
2.64959e-10
1.19047e-10
5.01683e-11
1.96695e-11
7.12042e-12
2.35626e-12
7.04518e-13
1.87823e-13
4.40969e-14
8.55816e-15
1.49389e-15
2.71055e-16
6.09487e-17
1.73576e-17
5.67817e-18
1.96568e-18
6.94397e-19
2.47345e-19
8.85074e-20
3.17506e-20
1.13963e-20
4.0852e-21
1.46038e-21
5.20134e-22
1.84486e-22
6.51584e-23
2.29192e-23
8.03135e-24
2.80481e-24
9.76545e-25
3.38948e-25
1.17062e-25
3.98381e-26
1.2738e-26
2.55603e-27
1.53541e-25
5.95089e-25
1.2696e-24
2.33758e-24
4.03078e-24
6.71536e-24
1.09776e-23
1.77718e-23
2.86474e-23
4.57542e-23
7.32467e-23
1.19046e-22
1.9881e-22
3.45315e-22
6.31361e-22
1.22824e-21
2.56205e-21
5.74891e-21
1.38518e-20
3.55922e-20
9.64646e-20
2.72024e-19
7.86469e-19
2.2983e-18
6.70394e-18
1.89781e-17
5.3075e-17
1.47133e-16
3.94326e-16
1.04249e-15
2.70288e-15
6.76934e-15
1.65514e-14
3.87917e-14
8.72101e-14
1.869e-13
3.80976e-13
7.38027e-13
1.36555e-12
2.4305e-12
4.16164e-12
6.94135e-12
1.13955e-11
1.86404e-11
3.06288e-11
5.11661e-11
8.79326e-11
1.52651e-10
2.68935e-10
4.80853e-10
8.50669e-10
1.49985e-09
2.62383e-09
4.53995e-09
7.7411e-09
1.29162e-08
2.06639e-08
2.9088e-08
1.88163e-08
1.1632e-08
7.01374e-09
3.97772e-09
2.15626e-09
1.11835e-09
5.57355e-10
2.64783e-10
1.1891e-10
5.00822e-11
1.9624e-11
7.09928e-12
2.34753e-12
7.01325e-13
1.86798e-13
4.381e-14
8.49329e-15
1.48166e-15
2.68947e-16
6.05316e-17
1.72482e-17
5.64298e-18
1.95342e-18
6.90043e-19
2.45797e-19
8.79564e-20
3.15543e-20
1.13263e-20
4.0602e-21
1.45147e-21
5.16966e-22
1.83364e-22
6.47622e-23
2.278e-23
7.9826e-24
2.78779e-24
9.7062e-25
3.3689e-25
1.1635e-25
3.95953e-26
1.26601e-26
2.54037e-27
1.53541e-25
5.9509e-25
1.2696e-24
2.33758e-24
4.03079e-24
6.71537e-24
1.09777e-23
1.77718e-23
2.86475e-23
4.57542e-23
7.32468e-23
1.19046e-22
1.98811e-22
3.45316e-22
6.31362e-22
1.22825e-21
2.56205e-21
5.74892e-21
1.38518e-20
3.55923e-20
9.6465e-20
2.72026e-19
7.86473e-19
2.29832e-18
6.70398e-18
1.89782e-17
5.30753e-17
1.47134e-16
3.94329e-16
1.0425e-15
2.7029e-15
6.76941e-15
1.65515e-14
3.87921e-14
8.7211e-14
1.86902e-13
3.80981e-13
7.38037e-13
1.36557e-12
2.43054e-12
4.1617e-12
6.94145e-12
1.13957e-11
1.86407e-11
3.06293e-11
5.1167e-11
8.79342e-11
1.52654e-10
2.68939e-10
4.80861e-10
8.50682e-10
1.49987e-09
2.62387e-09
4.54001e-09
7.74119e-09
1.29163e-08
2.06641e-08
2.90882e-08
1.88161e-08
1.16314e-08
7.01354e-09
3.97762e-09
2.15622e-09
1.11834e-09
5.57351e-10
2.64782e-10
1.1891e-10
5.00825e-11
1.96241e-11
7.09934e-12
2.34756e-12
7.01335e-13
1.86801e-13
4.3811e-14
8.49351e-15
1.4817e-15
2.68955e-16
6.05332e-17
1.72487e-17
5.64311e-18
1.95346e-18
6.90058e-19
2.45802e-19
8.79582e-20
3.15549e-20
1.13265e-20
4.06027e-21
1.45149e-21
5.16976e-22
1.83367e-22
6.47634e-23
2.27804e-23
7.98274e-24
2.78784e-24
9.70637e-25
3.36896e-25
1.16352e-25
3.95959e-26
1.26604e-26
2.54041e-27
1.53467e-25
5.94801e-25
1.26898e-24
2.33642e-24
4.02875e-24
6.71188e-24
1.09718e-23
1.77619e-23
2.86319e-23
4.57297e-23
7.32072e-23
1.18981e-22
1.987e-22
3.45123e-22
6.31019e-22
1.22761e-21
2.56082e-21
5.74638e-21
1.38462e-20
3.5579e-20
9.64311e-20
2.71933e-19
7.86205e-19
2.2975e-18
6.70141e-18
1.89703e-17
5.30515e-17
1.47066e-16
3.9413e-16
1.04195e-15
2.70137e-15
6.76527e-15
1.65405e-14
3.87637e-14
8.714e-14
1.86731e-13
3.8058e-13
7.37145e-13
1.36364e-12
2.42646e-12
4.15332e-12
6.92448e-12
1.13618e-11
1.85739e-11
3.04985e-11
5.09135e-11
8.74528e-11
1.51741e-10
2.67237e-10
4.77741e-10
8.45018e-10
1.48974e-09
2.60598e-09
4.50891e-09
7.68799e-09
1.28273e-08
2.05217e-08
2.88966e-08
1.87489e-08
1.15999e-08
7.00093e-09
3.97304e-09
2.15497e-09
1.11815e-09
5.57481e-10
2.64963e-10
1.19049e-10
5.01694e-11
1.96701e-11
7.12066e-12
2.35636e-12
7.04555e-13
1.87834e-13
4.41002e-14
8.5589e-15
1.49402e-15
2.71079e-16
6.09536e-17
1.73589e-17
5.67855e-18
1.9658e-18
6.94437e-19
2.47359e-19
8.85123e-20
3.17524e-20
1.1397e-20
4.08542e-21
1.46046e-21
5.20162e-22
1.84496e-22
6.51619e-23
2.29204e-23
8.03175e-24
2.80494e-24
9.7659e-25
3.38963e-25
1.17067e-25
3.98398e-26
1.27386e-26
2.55615e-27
1.53322e-25
5.94235e-25
1.26776e-24
2.33415e-24
4.02476e-24
6.70507e-24
1.09603e-23
1.77425e-23
2.86013e-23
4.56814e-23
7.31289e-23
1.18851e-22
1.9848e-22
3.44745e-22
6.30349e-22
1.22638e-21
2.55845e-21
5.74157e-21
1.38358e-20
3.55549e-20
9.63708e-20
2.71769e-19
7.85726e-19
2.29603e-18
6.69676e-18
1.89559e-17
5.30072e-17
1.46938e-16
3.93752e-16
1.04091e-15
2.69842e-15
6.75733e-15
1.65192e-14
3.87084e-14
8.70008e-14
1.86396e-13
3.79789e-13
7.35381e-13
1.35982e-12
2.41833e-12
4.13659e-12
6.89059e-12
1.1294e-11
1.8441e-11
3.02378e-11
5.04079e-11
8.64917e-11
1.49918e-10
2.63844e-10
4.71525e-10
8.33735e-10
1.46955e-09
2.57036e-09
4.44691e-09
7.58179e-09
1.26494e-08
2.02375e-08
2.85148e-08
1.862e-08
1.15396e-08
6.97742e-09
3.96493e-09
2.15305e-09
1.11812e-09
5.57925e-10
2.65419e-10
1.19377e-10
5.03642e-11
1.97705e-11
7.16659e-12
2.37513e-12
7.11376e-13
1.90019e-13
4.47116e-14
8.6975e-15
1.5203e-15
2.75595e-16
6.18435e-17
1.75919e-17
5.7536e-18
1.992e-18
7.03748e-19
2.50674e-19
8.96934e-20
3.21736e-20
1.15473e-20
4.13909e-21
1.47959e-21
5.26974e-22
1.86912e-22
6.6014e-23
2.32192e-23
8.13604e-24
2.84122e-24
9.89179e-25
3.43322e-25
1.1857e-25
4.03513e-26
1.29022e-26
2.58901e-27
1.53111e-25
5.93413e-25
1.26599e-24
2.33084e-24
4.01893e-24
6.69508e-24
1.09434e-23
1.77141e-23
2.85567e-23
4.56114e-23
7.30158e-23
1.18664e-22
1.98166e-22
3.44205e-22
6.29395e-22
1.22463e-21
2.55517e-21
5.73507e-21
1.38223e-20
3.55246e-20
9.62969e-20
2.71572e-19
7.85157e-19
2.29427e-18
6.69111e-18
1.89382e-17
5.29519e-17
1.46776e-16
3.93269e-16
1.03956e-15
2.69455e-15
6.74672e-15
1.64905e-14
3.86328e-14
8.68081e-14
1.85923e-13
3.78668e-13
7.3286e-13
1.35436e-12
2.40668e-12
4.11249e-12
6.84173e-12
1.11959e-11
1.82471e-11
2.98572e-11
4.96698e-11
8.50868e-11
1.47256e-10
2.5886e-10
4.6237e-10
8.17087e-10
1.43968e-09
2.51747e-09
4.35453e-09
7.4235e-09
1.23847e-08
1.98139e-08
2.79474e-08
1.84405e-08
1.14574e-08
6.94675e-09
3.9553e-09
2.15165e-09
1.11888e-09
5.59026e-10
2.66328e-10
1.19974e-10
5.06998e-11
1.9938e-11
7.24182e-12
2.40552e-12
7.22374e-13
1.9352e-13
4.56892e-14
8.92094e-15
1.56256e-15
2.82853e-16
6.327e-17
1.79646e-17
5.87338e-18
2.03371e-18
7.1855e-19
2.5594e-19
9.15681e-20
3.28421e-20
1.17859e-20
4.22418e-21
1.50983e-21
5.37654e-22
1.90669e-22
6.73323e-23
2.36813e-23
8.29768e-24
2.89761e-24
1.00879e-24
3.50125e-25
1.20919e-25
4.1151e-26
1.31582e-26
2.64043e-27
1.5285e-25
5.92395e-25
1.2638e-24
2.32674e-24
4.01171e-24
6.68272e-24
1.09225e-23
1.7679e-23
2.8502e-23
4.55264e-23
7.28799e-23
1.18442e-22
1.97797e-22
3.43583e-22
6.28326e-22
1.22274e-21
2.55167e-21
5.7284e-21
1.38088e-20
3.54962e-20
9.62321e-20
2.71409e-19
7.8469e-19
2.29277e-18
6.68601e-18
1.89214e-17
5.28967e-17
1.46616e-16
3.92771e-16
1.03815e-15
2.69042e-15
6.73515e-15
1.64584e-14
3.85471e-14
8.65851e-14
1.85367e-13
3.77326e-13
7.29821e-13
1.34764e-12
2.39222e-12
4.08247e-12
6.78014e-12
1.10716e-11
1.80007e-11
2.93713e-11
4.87246e-11
8.32839e-11
1.43839e-10
2.52488e-10
4.50668e-10
7.95816e-10
1.40152e-09
2.44993e-09
4.23708e-09
7.22144e-09
1.20444e-08
1.92675e-08
2.72076e-08
1.82142e-08
1.1359e-08
6.91392e-09
3.94786e-09
2.15318e-09
1.12188e-09
5.61557e-10
2.68092e-10
1.21069e-10
5.12101e-11
2.01894e-11