/*--------------------------------*- C++ -*----------------------------------*\
  =========                 |
  \\      /  F ield         | OpenFOAM: The Open Source CFD Toolbox
   \\    /   O peration     | Website:  https://openfoam.org
    \\  /    A nd           | Version:  10
     \\/     M anipulation  |
\*---------------------------------------------------------------------------*/
FoamFile
{
    format      ascii;
    class       volScalarField;
    location    "1";
    object      N2;
}
// * * * * * * * * * * * * * * * * * * * * * * * * * * * * * * * * * * * * * //

dimensions      [0 0 0 0 0 0 0];

internalField   nonuniform List<scalar> 
4000
(
5.24929e-06
2.03376e-05
4.33564e-05
7.97092e-05
0.000137073
0.000227284
0.000368541
0.000588591
0.000929301
0.00143557
0.00217808
0.00325971
0.0048198
0.00703951
0.0101457
0.0144099
0.0201345
0.0276295
0.0371799
0.0490089
0.0632455
0.0799022
0.0988722
0.120063
0.143099
0.167157
0.192461
0.219111
0.245988
0.273406
0.300616
0.327702
0.354332
0.380208
0.405192
0.429184
0.452116
0.473959
0.494658
0.514222
0.532793
0.550119
0.56637
0.581625
0.595832
0.609256
0.621591
0.633272
0.643934
0.654106
0.663317
0.671828
0.679719
0.687028
0.693793
0.700049
0.705831
0.711174
0.716111
0.720735
0.724997
0.728986
0.732735
0.736271
0.73965
0.742823
0.745815
0.748654
0.751429
0.753943
0.756293
0.758481
0.760491
0.762314
0.76394
0.765355
0.766609
0.767629
0.768417
0.768991
0.769384
0.769638
0.769794
0.769885
0.769937
0.769966
0.769982
0.769991
0.769995
0.769998
0.769999
0.769999
0.77
0.77
0.77
0.77
0.77
0.77
0.77
0.77
5.2509e-06
2.03445e-05
4.33757e-05
7.97624e-05
0.000137204
0.000227567
0.000369084
0.000589517
0.00093068
0.00143773
0.00218064
0.00326146
0.00481805
0.00702873
0.0101157
0.014343
0.0199994
0.0273929
0.0368099
0.0484802
0.0625452
0.0790415
0.0978988
0.118819
0.141654
0.165536
0.190691
0.217309
0.244149
0.271631
0.298971
0.326212
0.352946
0.378975
0.404094
0.42821
0.45126
0.473227
0.494031
0.513694
0.532362
0.549771
0.566097
0.581431
0.5957
0.609182
0.621575
0.633306
0.644012
0.654225
0.663453
0.671992
0.679907
0.687234
0.694014
0.700282
0.706071
0.711413
0.716351
0.720966
0.725232
0.729224
0.732977
0.736516
0.739891
0.743053
0.746061
0.748897
0.751669
0.754178
0.756525
0.758693
0.760689
0.7625
0.764121
0.76553
0.766758
0.767748
0.768505
0.769051
0.769422
0.76966
0.769805
0.769891
0.76994
0.769968
0.769983
0.769991
0.769995
0.769998
0.769999
0.769999
0.77
0.77
0.77
0.77
0.77
0.77
0.77
0.77
5.26215e-06
2.03901e-05
4.34818e-05
7.9977e-05
0.000137607
0.000228277
0.000370261
0.000591328
0.000933202
0.00144118
0.00218458
0.00326463
0.00481824
0.0070205
0.0100894
0.0142814
0.0198877
0.027208
0.0365211
0.0480502
0.0619334
0.0782037
0.096829
0.117607
0.140296
0.164061
0.189169
0.215684
0.242476
0.26999
0.297275
0.324486
0.351225
0.377378
0.402635
0.426894
0.450088
0.472211
0.493156
0.512955
0.531759
0.549292
0.56573
0.581176
0.595546
0.609106
0.621578
0.63338
0.644152
0.654422
0.663685
0.672272
0.680222
0.687577
0.694378
0.700659
0.706454
0.711804
0.716747
0.721348
0.725618
0.729615
0.733377
0.73692
0.740285
0.743451
0.746445
0.749272
0.752028
0.754524
0.756845
0.759001
0.760963
0.76273
0.764358
0.765719
0.766912
0.767865
0.768587
0.769105
0.769454
0.769678
0.769816
0.769897
0.769943
0.769969
0.769984
0.769991
0.769995
0.769998
0.769999
0.769999
0.77
0.77
0.77
0.77
0.77
0.77
0.77
0.77
5.26312e-06
2.03939e-05
4.349e-05
7.9991e-05
0.000137623
0.000228275
0.000370172
0.000590975
0.00093219
0.001439
0.0021797
0.00325389
0.00479544
0.00697869
0.0100192
0.0141726
0.0197237
0.0269696
0.0361883
0.0476063
0.0613692
0.0775222
0.095984
0.116626
0.139212
0.162857
0.187855
0.2143
0.24097
0.268394
0.295623
0.322813
0.34957
0.375785
0.40119
0.425581
0.448917
0.471193
0.492281
0.51222
0.531163
0.54882
0.565382
0.580966
0.595438
0.60908
0.621637
0.633515
0.644353
0.654682
0.663991
0.672619
0.680606
0.687995
0.694816
0.701113
0.706922
0.712279
0.717226
0.721811
0.726076
0.73006
0.733881
0.737412
0.740759
0.743918
0.746903
0.749714
0.752428
0.754917
0.757231
0.759349
0.761272
0.763023
0.764605
0.765923
0.76708
0.767994
0.768679
0.769165
0.769492
0.7697
0.769828
0.769903
0.769947
0.769971
0.769984
0.769992
0.769996
0.769998
0.769999
0.769999
0.77
0.77
0.77
0.77
0.77
0.77
0.77
0.77
5.25593e-06
2.03659e-05
4.34297e-05
7.98764e-05
0.000137413
0.00022789
0.000369458
0.000589635
0.000929658
0.00143413
0.00217084
0.00323877
0.00477137
0.00694056
0.00995962
0.0140815
0.0195885
0.0267753
0.0359194
0.0472493
0.0609155
0.0769709
0.0953461
0.115859
0.13828
0.161739
0.186521
0.212895
0.23953
0.266918
0.294129
0.321308
0.34809
0.374342
0.399848
0.424395
0.447876
0.470298
0.491524
0.511599
0.530674
0.548458
0.565137
0.580838
0.595408
0.609127
0.621761
0.633703
0.644599
0.654985
0.664344
0.673015
0.68104
0.688455
0.6953
0.701613
0.707431
0.712793
0.717741
0.722328
0.726599
0.730595
0.734418
0.737945
0.741272
0.744419
0.747394
0.750208
0.752854
0.755306
0.757586
0.75968
0.761604
0.763304
0.7648
0.766148
0.767254
0.768121
0.768766
0.769222
0.769526
0.76972
0.769839
0.769909
0.76995
0.769973
0.769985
0.769992
0.769996
0.769998
0.769999
0.769999
0.77
0.77
0.77
0.77
0.77
0.77
0.77
0.77
5.2413e-06
2.03093e-05
4.33083e-05
7.96492e-05
0.00013701
0.000227189
0.000368241
0.000587497
0.000925992
0.00142811
0.00216148
0.00322477
0.00475017
0.00690815
0.00991035
0.0140076
0.0194797
0.026618
0.0356963
0.0469388
0.0604913
0.0763954
0.0945866
0.114958
0.137293
0.160691
0.185443
0.211762
0.238328
0.265669
0.292867
0.320042
0.346874
0.373182
0.398805
0.423454
0.447048
0.469587
0.490931
0.51112
0.530315
0.548211
0.564997
0.580808
0.595471
0.609258
0.621974
0.633937
0.644901
0.65535
0.664757
0.673462
0.68151
0.688944
0.695803
0.702125
0.707948
0.713311
0.718257
0.722838
0.727101
0.731087
0.734901
0.738421
0.741747
0.74489
0.747862
0.750663
0.753286
0.755719
0.757968
0.760032
0.761901
0.763567
0.765036
0.766338
0.767399
0.768226
0.768838
0.769269
0.769555
0.769738
0.769849
0.769915
0.769953
0.769974
0.769986
0.769993
0.769996
0.769998
0.769999
0.769999
0.77
0.77
0.77
0.77
0.77
0.77
0.77
0.77
5.2201e-06
2.02267e-05
4.313e-05
7.93157e-05
0.000136427
0.000226213
0.000366665
0.000585063
0.000922121
0.00142176
0.00215161
0.00320908
0.00472567
0.00687066
0.00985403
0.0139247
0.0193605
0.0264506
0.0354671
0.046633
0.0601094
0.0759297
0.0940465
0.114325
0.136564
0.159874
0.184528
0.210783
0.237314
0.264628
0.291805
0.318956
0.345949
0.37229
0.397971
0.422722
0.446421
0.469062
0.490514
0.510804
0.530085
0.548076
0.564957
0.580869
0.595632
0.609418
0.62222
0.634187
0.645214
0.655717
0.665163
0.6739
0.681972
0.689424
0.696295
0.702623
0.708447
0.713806
0.718747
0.723322
0.727577
0.731555
0.735356
0.738867
0.742174
0.745295
0.748232
0.7511
0.753685
0.75609
0.758308
0.760346
0.762184
0.763822
0.76524
0.766503
0.767527
0.76832
0.768904
0.769312
0.769582
0.769754
0.769858
0.76992
0.769956
0.769976
0.769987
0.769993
0.769996
0.769998
0.769999
0.77
0.77
0.77
0.77
0.77
0.77
0.77
0.77
0.77
5.19715e-06
2.01376e-05
4.29378e-05
7.89557e-05
0.000135792
0.000225124
0.000364822
0.000581953
0.000917033
0.00141344
0.00213733
0.00318612
0.00468992
0.00681637
0.00977359
0.0138087
0.0191982
0.0262311
0.0351811
0.0462752
0.0596648
0.0754062
0.0934675
0.113705
0.135864
0.159068
0.183677
0.209884
0.236367
0.263658
0.290936
0.318124
0.345188
0.371587
0.397332
0.422179
0.445983
0.468707
0.490246
0.510666
0.529918
0.548018
0.564991
0.580987
0.595816
0.609639
0.622494
0.634449
0.645528
0.656076
0.665559
0.674325
0.682418
0.689884
0.696762
0.703093
0.708915
0.71427
0.719205
0.723774
0.728024
0.731993
0.735779
0.739278
0.742578
0.745686
0.748615
0.751479
0.754036
0.756415
0.758613
0.760617
0.762424
0.764033
0.765428
0.766657
0.767645
0.768406
0.768963
0.76935
0.769606
0.769768
0.769866
0.769924
0.769958
0.769977
0.769988
0.769993
0.769997
0.769998
0.769999
0.77
0.77
0.77
0.77
0.77
0.77
0.77
0.77
0.77
5.17612e-06
2.00564e-05
4.27644e-05
7.86347e-05
0.000135232
0.000224177
0.000363246
0.000579357
0.000912803
0.00140595
0.00212544
0.00316767
0.00466205
0.00677523
0.00971414
0.0137247
0.0190828
0.026077
0.0349819
0.0460343
0.0593642
0.0750627
0.0930489
0.113189
0.135308
0.158487
0.183048
0.209196
0.235652
0.262885
0.290397
0.317554
0.344638
0.371067
0.396857
0.421776
0.445664
0.468435
0.490068
0.510585
0.529895
0.548058
0.565096
0.581152
0.596032
0.609897
0.622799
0.634782
0.645893
0.656463
0.66596
0.674738
0.682841
0.690314
0.697195
0.703526
0.709344
0.714694
0.719623
0.724185
0.728426
0.732386
0.736146
0.739642
0.742933
0.746033
0.748947
0.7518
0.754342
0.756699
0.758867
0.760839
0.762608
0.76425
0.765599
0.766787
0.767742
0.768475
0.76901
0.76938
0.769624
0.769779
0.769873
0.769928
0.76996
0.769978
0.769988
0.769994
0.769997
0.769998
0.769999
0.77
0.77
0.77
0.77
0.77
0.77
0.77
0.77
0.77
5.15691e-06
1.99826e-05
4.26083e-05
7.83492e-05
0.000134743
0.000223364
0.00036192
0.000577212
0.000909291
0.00139996
0.00211569
0.00315232
0.00463842
0.00673986
0.00966281
0.0136524
0.0189839
0.0259447
0.0348094
0.0458064
0.0590997
0.0747229
0.0926577
0.112783
0.13486
0.158005
0.182541
0.208659
0.235114
0.262348
0.289905
0.317088
0.344208
0.370675
0.396508
0.421486
0.445459
0.468295
0.489985
0.510576
0.52994
0.548155
0.565241
0.581339
0.596259
0.610163
0.623095
0.635103
0.646236
0.656816
0.666331
0.675122
0.683234
0.690709
0.697589
0.703916
0.70973
0.715075
0.720003
0.72456
0.728797
0.732755
0.73648
0.739968
0.74325
0.746337
0.749237
0.752066
0.754591
0.75693
0.759079
0.761032
0.762783
0.764402
0.765726
0.766888
0.767818
0.76853
0.769048
0.769406
0.76964
0.769788
0.769878
0.769931
0.769962
0.769979
0.769989
0.769994
0.769997
0.769998
0.769999
0.77
0.77
0.77
0.77
0.77
0.77
0.77
0.77
0.77
5.13726e-06
1.99062e-05
4.24436e-05
7.80414e-05
0.000134203
0.000222453
0.000360425
0.000574827
0.000905651
0.00139442
0.00210742
0.00314
0.00461957
0.00671114
0.00961989
0.0135905
0.0188981
0.0258304
0.0346656
0.0456232
0.0588634
0.0744514
0.0923536
0.112432
0.134491
0.157616
0.182138
0.208238
0.234696
0.261933
0.289518
0.316728
0.34389
0.370396
0.396274
0.421309
0.445344
0.468229
0.489967
0.510616
0.530023
0.548279
0.565404
0.581535
0.596487
0.610419
0.623376
0.635405
0.646557
0.657145
0.666672
0.675469
0.683584
0.69106
0.697938
0.704258
0.710061
0.715389
0.720367
0.724906
0.729128
0.733073
0.73677
0.740269
0.743536
0.74661
0.749498
0.752296
0.754807
0.757131
0.759263
0.761197
0.762927
0.764515
0.765821
0.766966
0.76788
0.768576
0.769081
0.769427
0.769654
0.769797
0.769883
0.769934
0.769963
0.76998
0.769989
0.769994
0.769997
0.769998
0.769999
0.77
0.77
0.77
0.77
0.77
0.77
0.77
0.77
0.77
5.12013e-06
1.984e-05
4.23026e-05
7.77817e-05
0.000133755
0.000221708
0.000359217
0.000572909
0.000902371
0.00138888
0.00209874
0.00312723
0.00460219
0.00668738
0.00958676
0.0135425
0.0188306
0.0257396
0.0345424
0.0454736
0.0586803
0.0742369
0.0921143
0.11217
0.134206
0.157312
0.181825
0.207912
0.234376
0.261618
0.289227
0.316464
0.343658
0.370202
0.396121
0.421201
0.445287
0.468216
0.489996
0.510694
0.530138
0.548427
0.565582
0.581736
0.596714
0.610669
0.623646
0.635693
0.646859
0.657447
0.666984
0.675789
0.683907
0.691381
0.698255
0.704568
0.710367
0.715693
0.720654
0.72519
0.729407
0.733346
0.737038
0.74052
0.743782
0.746849
0.749727
0.752492
0.754992
0.757303
0.759421
0.761341
0.763057
0.76461
0.7659
0.76703
0.76793
0.768613
0.769106
0.769444
0.769664
0.769803
0.769887
0.769936
0.769965
0.769981
0.76999
0.769994
0.769997
0.769999
0.769999
0.77
0.77
0.77
0.77
0.77
0.77
0.77
0.77
0.77
5.10559e-06
1.9784e-05
4.21838e-05
7.75642e-05
0.000133383
0.000221093
0.000358225
0.000571333
0.00089966
0.00138436
0.00209157
0.00311625
0.00458555
0.00666343
0.00955403
0.0135007
0.018775
0.0256649
0.0344457
0.0453474
0.0585332
0.0740704
0.091917
0.111956
0.133976
0.157074
0.181583
0.207662
0.234134
0.261382
0.289013
0.316274
0.343501
0.370075
0.396024
0.421143
0.445273
0.468238
0.490052
0.510787
0.530261
0.548579
0.565762
0.581938
0.596939
0.610914
0.623908
0.635966
0.647139
0.657725
0.667264
0.676068
0.684186
0.691659
0.69853
0.704841
0.710633
0.715952
0.720893
0.725425
0.72964
0.733576
0.737265
0.740733
0.743991
0.747051
0.74992
0.752658
0.75515
0.75745
0.759558
0.761464
0.763165
0.764688
0.765966
0.767083
0.76797
0.768642
0.769126
0.769457
0.769673
0.769808
0.76989
0.769938
0.769966
0.769981
0.76999
0.769995
0.769997
0.769999
0.769999
0.77
0.77
0.77
0.77
0.77
0.77
0.77
0.77
0.77
5.09313e-06
1.9736e-05
4.20819e-05
7.73778e-05
0.000133064
0.000220567
0.000357378
0.000569992
0.000897316
0.00138044
0.00208541
0.00310693
0.00457183
0.00664369
0.00952625
0.0134623
0.0187258
0.0256035
0.034369
0.0452527
0.058418
0.0739333
0.0917673
0.111791
0.133801
0.156891
0.181398
0.207474
0.233953
0.261208
0.288858
0.31614
0.343392
0.369992
0.395972
0.421124
0.44529
0.468283
0.490126
0.510893
0.53039
0.548728
0.565925
0.582109
0.597126
0.611121
0.624147
0.636218
0.647399
0.657975
0.667512
0.676316
0.68443
0.691899
0.698766
0.705071
0.710857
0.716171
0.721093
0.725621
0.729835
0.733774
0.737461
0.740921
0.744173
0.747228
0.750091
0.752802
0.755283
0.757575
0.75967
0.761566
0.763257
0.764754
0.766024
0.767131
0.768007
0.768669
0.769144
0.769469
0.76968
0.769813
0.769892
0.769939
0.769966
0.769982
0.76999
0.769995
0.769997
0.769999
0.769999
0.77
0.77
0.77
0.77
0.77
0.77
0.77
0.77
0.77
5.08332e-06
1.96982e-05
4.20016e-05
7.72302e-05
0.000132809
0.000220144
0.000356689
0.000568892
0.00089537
0.00137717
0.00208028
0.00309921
0.0045605
0.00662742
0.00950339
0.0134309
0.0186842
0.0255477
0.0343005
0.0451744
0.058327
0.0738285
0.0916481
0.111661
0.133664
0.15675
0.181255
0.207328
0.233817
0.261082
0.28875
0.316051
0.343326
0.369949
0.395953
0.42113
0.445324
0.468342
0.490206
0.510996
0.530509
0.548858
0.566064
0.582244
0.597249
0.611214
0.624453
0.636487
0.647647
0.658201
0.667733
0.67653
0.684639
0.692103
0.698963
0.705261
0.71104
0.716345
0.721249
0.725767
0.729965
0.733969
0.737638
0.741087
0.74433
0.747376
0.750232
0.752919
0.755394
0.757678
0.759766
0.761653
0.763336
0.764813
0.766081
0.76718
0.768046
0.768697
0.769164
0.769482
0.769688
0.769817
0.769895
0.769941
0.769967
0.769982
0.76999
0.769995
0.769997
0.769999
0.769999
0.77
0.77
0.77
0.77
0.77
0.77
0.77
0.77
0.77
5.07523e-06
1.9667e-05
4.19353e-05
7.71082e-05
0.000132599
0.000219794
0.000356117
0.000567969
0.000893777
0.00137453
0.00207615
0.00309303
0.0045515
0.00661463
0.00948561
0.0134068
0.0186512
0.025506
0.0342467
0.0451074
0.05825
0.0737417
0.091553
0.111559
0.133559
0.156643
0.181152
0.207225
0.233721
0.260992
0.288675
0.315992
0.343285
0.369929
0.395953
0.42115
0.445368
0.468404
0.490286
0.511094
0.530621
0.548983
0.566198
0.582383
0.597398
0.611377
0.62463
0.636671
0.647833
0.658377
0.667907
0.676702
0.684807
0.692267
0.699123
0.705416
0.711189
0.716488
0.72138
0.725895
0.730093
0.734095
0.737763
0.741208
0.744447
0.747489
0.75034
0.753008
0.755478
0.757756
0.759837
0.761716
0.763389
0.764851
0.76616
0.767237
0.768086
0.768725
0.769182
0.769493
0.769695
0.769821
0.769897
0.769942
0.769968
0.769983
0.769991
0.769995
0.769997
0.769999
0.769999
0.77
0.77
0.77
0.77
0.77
0.77
0.77
0.77
0.77
5.06891e-06
1.96424e-05
4.18826e-05
7.70101e-05
0.000132428
0.000219506
0.000355645
0.000567211
0.000892458
0.00137235
0.00207277
0.003088
0.00454424
0.00660435
0.00947133
0.0133875
0.0186257
0.0254734
0.0342064
0.0450588
0.0581925
0.0736776
0.0914828
0.111485
0.133482
0.156566
0.181075
0.20715
0.233654
0.260931
0.288626
0.315956
0.343264
0.369923
0.395964
0.421177
0.445412
0.468462
0.490358
0.51118
0.530718
0.549089
0.566314
0.582504
0.597527
0.611514
0.624763
0.636809
0.647973
0.658511
0.668042
0.676835
0.684939
0.692395
0.699248
0.705537
0.711306
0.716602
0.721483
0.725996
0.730192
0.734188
0.737854
0.741297
0.744533
0.747572
0.750419
0.753077
0.755544
0.757818
0.759894
0.761769
0.763438
0.764897
0.766203
0.767273
0.768114
0.768746
0.769197
0.769503
0.769701
0.769825
0.7699
0.769943
0.769969
0.769983
0.769991
0.769995
0.769997
0.769999
0.769999
0.77
0.77
0.77
0.77
0.77
0.77
0.77
0.77
0.77
5.06457e-06
1.96256e-05
4.18461e-05
7.69416e-05
0.000132307
0.000219299
0.000355301
0.000566651
0.000891467
0.00137069
0.00207018
0.00308413
0.00453864
0.00659647
0.00946054
0.0133729
0.0186069
0.0254496
0.0341776
0.0450246
0.0581523
0.0736313
0.0914318
0.111431
0.133427
0.156511
0.181024
0.2071
0.233609
0.260892
0.288595
0.315935
0.343254
0.369925
0.395977
0.421202
0.445449
0.468511
0.490416
0.511248
0.530794
0.549172
0.566404
0.582596
0.597624
0.611616
0.62486
0.636909
0.648075
0.658608
0.668139
0.676932
0.685035
0.69249
0.699339
0.705626
0.711392
0.716685
0.72156
0.72607
0.730264
0.734255
0.737919
0.74136
0.744594
0.74763
0.750475
0.75313
0.755594
0.757864
0.759938
0.76181
0.763475
0.764931
0.766233
0.767298
0.768134
0.768761
0.769207
0.76951
0.769705
0.769827
0.769901
0.769944
0.769969
0.769983
0.769991
0.769995
0.769997
0.769999
0.769999
0.77
0.77
0.77
0.77
0.77
0.77
0.77
0.77
0.77
5.06191e-06
1.96152e-05
4.18237e-05
7.68993e-05
0.000132232
0.000219171
0.000355087
0.000566299
0.000890832
0.00136961
0.00206847
0.00308157
0.00453491
0.00659123
0.00945336
0.0133633
0.0185945
0.0254339
0.0341584
0.0450017
0.0581261
0.0736019
0.0913999
0.111397
0.133393
0.156478
0.180992
0.207068
0.233581
0.260868
0.288577
0.315924
0.34325
0.369928
0.395988
0.42122
0.445476
0.468545
0.490456
0.511295
0.530847
0.54923
0.566466
0.582659
0.59769
0.611684
0.624923
0.636975
0.648141
0.658671
0.668202
0.676995
0.685097
0.69255
0.699399
0.705684
0.711448
0.716738
0.72161
0.726119
0.730311
0.734297
0.737961
0.7414
0.744633
0.747668
0.750511
0.753164
0.755626
0.757895
0.759967
0.761836
0.7635
0.764952
0.766252
0.767313
0.768146
0.768769
0.769213
0.769514
0.769708
0.769829
0.769902
0.769945
0.769969
0.769983
0.769991
0.769995
0.769998
0.769999
0.769999
0.77
0.77
0.77
0.77
0.77
0.77
0.77
0.77
0.77
5.06105e-06
1.96118e-05
4.18163e-05
7.68852e-05
0.000132206
0.000219126
0.00035501
0.000566169
0.000890584
0.00136917
0.00206776
0.00308046
0.00453326
0.00658883
0.00944999
0.0133588
0.0185887
0.0254265
0.0341492
0.0449906
0.0581132
0.0735874
0.0913841
0.111381
0.133376
0.156461
0.180976
0.207053
0.233568
0.260856
0.288569
0.315919
0.343249
0.369931
0.395994
0.42123
0.44549
0.468562
0.490477
0.511319
0.530873
0.549259
0.566496
0.58269
0.597723
0.611717
0.624955
0.637007
0.648174
0.658702
0.668233
0.677026
0.685127
0.69258
0.699428
0.705711
0.711474
0.716763
0.721635
0.726143
0.730334
0.734319
0.737981
0.74142
0.744652
0.747686
0.750529
0.753181
0.755642
0.75791
0.759981
0.761849
0.763511
0.764962
0.76626
0.76732
0.768151
0.768773
0.769216
0.769515
0.769709
0.76983
0.769902
0.769945
0.769969
0.769983
0.769991
0.769995
0.769998
0.769999
0.769999
0.77
0.77
0.77
0.77
0.77
0.77
0.77
0.77
0.77
5.06193e-06
1.96152e-05
4.18236e-05
7.68986e-05
0.00013223
0.000219165
0.000355074
0.000566274
0.000890749
0.00136942
0.00206811
0.00308094
0.00453386
0.00658953
0.00945075
0.0133596
0.0185893
0.025427
0.0341495
0.0449907
0.0581131
0.0735872
0.0913839
0.11138
0.133376
0.156461
0.180976
0.207053
0.233568
0.260856
0.288569
0.315919
0.343249
0.36993
0.395994
0.42123
0.44549
0.468562
0.490477
0.511318
0.530873
0.549259
0.566496
0.58269
0.597722
0.611717
0.624954
0.637006
0.648173
0.658702
0.668232
0.677025
0.685126
0.692579
0.699427
0.705711
0.711474
0.716763
0.721634
0.726142
0.730333
0.734318
0.737981
0.74142
0.744652
0.747686
0.750528
0.753181
0.755642
0.75791
0.759981
0.761849
0.763511
0.764962
0.76626
0.76732
0.768151
0.768773
0.769216
0.769515
0.769709
0.76983
0.769902
0.769945
0.769969
0.769983
0.769991
0.769995
0.769998
0.769999
0.769999
0.77
0.77
0.77
0.77
0.77
0.77
0.77
0.77
0.77
5.06427e-06
1.96243e-05
4.1843e-05
7.69348e-05
0.000132293
0.000219272
0.00035525
0.000566559
0.000891234
0.0013702
0.00206931
0.00308269
0.00453631
0.00659283
0.00945506
0.013365
0.0185959
0.025435
0.034159
0.045002
0.058126
0.0736015
0.0913993
0.111397
0.133392
0.156477
0.180991
0.207068
0.233581
0.260867
0.288577
0.315923
0.34325
0.369928
0.395987
0.42122
0.445476
0.468544
0.490456
0.511294
0.530846
0.549229
0.566465
0.582658
0.597689
0.611682
0.624922
0.636973
0.64814
0.65867
0.6682
0.676994
0.685095
0.692549
0.699397
0.705682
0.711446
0.716736
0.721609
0.726117
0.730309
0.734296
0.737959
0.741399
0.744632
0.747667
0.75051
0.753163
0.755626
0.757895
0.759966
0.761836
0.763499
0.764952
0.766251
0.767313
0.768146
0.768769
0.769213
0.769514
0.769708
0.769829
0.769902
0.769945
0.769969
0.769983
0.769991
0.769995
0.769998
0.769999
0.769999
0.77
0.77
0.77
0.77
0.77
0.77
0.77
0.77
0.77
5.06795e-06
1.96386e-05
4.18738e-05
7.6992e-05
0.000132393
0.00021944
0.000355525
0.000567
0.000891992
0.00137144
0.00207121
0.00308546
0.00454024
0.00659826
0.00946235
0.0133746
0.0186082
0.0254504
0.0341779
0.0450244
0.0581519
0.0736307
0.0914312
0.11143
0.133427
0.156511
0.181023
0.207099
0.233608
0.260891
0.288595
0.315934
0.343254
0.369924
0.395976
0.421201
0.445448
0.468509
0.490415
0.511246
0.530793
0.549171
0.566402
0.582594
0.597622
0.611613
0.624857
0.636906
0.648072
0.658606
0.668136
0.67693
0.685032
0.692487
0.699337
0.705623
0.71139
0.716682
0.721557
0.726068
0.730262
0.734252
0.737917
0.741358
0.744592
0.747629
0.750473
0.753128
0.755592
0.757863
0.759937
0.761809
0.763475
0.76493
0.766232
0.767297
0.768134
0.76876
0.769207
0.769509
0.769705
0.769827
0.769901
0.769944
0.769969
0.769983
0.769991
0.769995
0.769997
0.769999
0.769999
0.77
0.77
0.77
0.77
0.77
0.77
0.77
0.77
0.77
5.07282e-06
1.96575e-05
4.19142e-05
7.7067e-05
0.000132523
0.000219658
0.000355881
0.000567569
0.00089298
0.00137307
0.00207371
0.00308916
0.00454557
0.00660575
0.0094727
0.0133887
0.0186267
0.0254743
0.0342069
0.0450591
0.0581926
0.0736776
0.0914828
0.111484
0.133482
0.156566
0.181075
0.20715
0.233653
0.260931
0.288626
0.315955
0.343263
0.369922
0.395963
0.421176
0.44541
0.468461
0.490356
0.511178
0.530715
0.549087
0.566311
0.5825
0.597523
0.61151
0.624759
0.636805
0.647969
0.658508
0.668038
0.676832
0.684935
0.692392
0.699244
0.705534
0.711303
0.716599
0.72148
0.725993
0.730189
0.734185
0.737852
0.741295
0.744531
0.74757
0.750417
0.753075
0.755542
0.757816
0.759892
0.761767
0.763436
0.764896
0.766202
0.767272
0.768114
0.768746
0.769197
0.769503
0.769701
0.769825
0.7699
0.769943
0.769969
0.769983
0.769991
0.769995
0.769997
0.769999
0.769999
0.77
0.77
0.77
0.77
0.77
0.77
0.77
0.77
0.77
5.0794e-06
1.96829e-05
4.19682e-05
7.71666e-05
0.000132695
0.000219943
0.000356344
0.000568305
0.000894255
0.00137518
0.00207698
0.00309402
0.00455261
0.00661576
0.00948666
0.0134077
0.0186518
0.0255063
0.0342471
0.0451078
0.0582506
0.0737423
0.0915536
0.11156
0.133559
0.156644
0.181152
0.207225
0.233721
0.260992
0.288675
0.315991
0.343284
0.369928
0.395952
0.421149
0.445367
0.468403
0.490284
0.511092
0.530618
0.548979
0.566195
0.582379
0.597394
0.611373
0.624625
0.636667
0.647828
0.658373
0.667903
0.676698
0.684803
0.692263
0.699119
0.705412
0.711185
0.716485
0.721376
0.725892
0.73009
0.734093
0.737761
0.741207
0.744446
0.747488
0.750339
0.753006
0.755476
0.757754
0.759835
0.761714
0.763387
0.76485
0.766159
0.767236
0.768085
0.768724
0.769182
0.769493
0.769695
0.769821
0.769897
0.769942
0.769968
0.769982
0.769991
0.769995
0.769997
0.769999
0.769999
0.77
0.77
0.77
0.77
0.77
0.77
0.77
0.77
0.77
5.08792e-06
1.97158e-05
4.20381e-05
7.72946e-05
0.000132914
0.000220306
0.000356933
0.000569249
0.000895876
0.00137786
0.00208117
0.0031003
0.00456175
0.00662874
0.00950462
0.0134319
0.0186849
0.0255484
0.0343012
0.0451751
0.0583278
0.0738294
0.0916491
0.111662
0.133665
0.15675
0.181256
0.207328
0.233817
0.261081
0.28875
0.316051
0.343325
0.369948
0.395952
0.421128
0.445322
0.468339
0.490204
0.510993
0.530506
0.548854
0.566059
0.582239
0.597243
0.611208
0.624447
0.636481
0.647642
0.658196
0.667728
0.676526
0.684635
0.692099
0.698959
0.705258
0.711037
0.716342
0.721246
0.725764
0.729963
0.733967
0.737637
0.741086
0.744329
0.747375
0.75023
0.752917
0.755392
0.757676
0.759763
0.761651
0.763334
0.764812
0.76608
0.767179
0.768045
0.768697
0.769163
0.769481
0.769688
0.769817
0.769895
0.769941
0.769967
0.769982
0.76999
0.769995
0.769997
0.769999
0.769999
0.77
0.77
0.77
0.77
0.77
0.77
0.77
0.77
0.77
5.098e-06
1.97545e-05
4.21201e-05
7.74445e-05
0.000133171
0.000220731
0.000357619
0.000570339
0.000897798
0.00138109
0.00208625
0.00310798
0.00457306
0.00664502
0.00952757
0.0134635
0.0187269
0.0256043
0.0343697
0.0452535
0.058419
0.0739345
0.0917687
0.111792
0.133803
0.156892
0.181399
0.207475
0.233953
0.261208
0.288858
0.316139
0.34339
0.369991
0.395971
0.421122
0.445288
0.468281
0.490123
0.51089
0.530387
0.548724
0.565921
0.582104
0.59712
0.611114
0.62414
0.636212
0.647393
0.657969
0.667507
0.676311
0.684425
0.691894
0.698762
0.705067
0.710853
0.716167
0.72109
0.725619
0.729832
0.733772
0.737459
0.740919
0.744172
0.747226
0.750088
0.752799
0.75528
0.757571
0.759667
0.761563
0.763255
0.764752
0.766022
0.767129
0.768006
0.768668
0.769144
0.769469
0.76968
0.769812
0.769892
0.769939
0.769966
0.769982
0.76999
0.769995
0.769997
0.769999
0.769999
0.77
0.77
0.77
0.77
0.77
0.77
0.77
0.77
0.77
5.10997e-06
1.98007e-05
4.22181e-05
7.76241e-05
0.000133479
0.000221239
0.000358436
0.000571624
0.000900034
0.0013848
0.00209207
0.00311676
0.00458601
0.00666377
0.00955419
0.0135007
0.018775
0.025665
0.034446
0.0453481
0.0585345
0.0740723
0.0919193
0.111959
0.13398
0.157076
0.181585
0.207664
0.234135
0.261383
0.289013
0.316274
0.343501
0.370073
0.396022
0.421141
0.445271
0.468235
0.490049
0.510784
0.530257
0.548575
0.565757
0.581933
0.596933
0.610907
0.623901
0.635959
0.647133
0.657719
0.667258
0.676063
0.68418
0.691653
0.698525
0.704836
0.710629
0.715948
0.720889
0.725422
0.729637
0.733574
0.737263
0.74073
0.743987
0.747048
0.749917
0.752655
0.755146
0.757447
0.759555
0.761461
0.763163
0.764686
0.765965
0.767082
0.767969
0.768641
0.769125
0.769457
0.769673
0.769808
0.76989
0.769938
0.769966
0.769981
0.76999
0.769995
0.769997
0.769999
0.769999
0.77
0.77
0.77
0.77
0.77
0.77
0.77
0.77
0.77
5.12421e-06
1.98555e-05
4.23347e-05
7.78376e-05
0.000133844
0.000221841
0.000359402
0.000573147
0.000902638
0.00138912
0.00209886
0.00312714
0.00460176
0.00668653
0.00958556
0.0135412
0.0188296
0.025739
0.0345422
0.0454733
0.0586819
0.0742396
0.0921176
0.112173
0.134208
0.157315
0.181827
0.207914
0.234377
0.261619
0.289227
0.316463
0.343658
0.370201
0.396119
0.421199
0.445285
0.468212
0.489992
0.51069
0.530134
0.548422
0.565577
0.581731
0.596709
0.610663
0.62364
0.635687
0.646853
0.657441
0.666978
0.675783
0.683901
0.691376
0.698249
0.704563
0.710362
0.715689
0.72065
0.725186
0.729403
0.733342
0.737034
0.740516
0.743778
0.746845
0.749723
0.752489
0.754988
0.7573
0.759418
0.761338
0.763055
0.764607
0.765898
0.767028
0.767928
0.768612
0.769105
0.769443
0.769664
0.769803
0.769887
0.769936
0.769964
0.769981
0.76999
0.769994
0.769997
0.769999
0.769999
0.77
0.77
0.77
0.77
0.77
0.77
0.77
0.77
0.77
5.13996e-06
1.99165e-05
4.2465e-05
7.80793e-05
0.000134265
0.000222547
0.000360559
0.000575
0.000905816
0.00139451
0.00210729
0.00313948
0.00461852
0.00670954
0.00961782
0.0135882
0.0188961
0.0258291
0.0346658
0.0456261
0.058867
0.0744558
0.0923584
0.112437
0.134496
0.15762
0.182141
0.20824
0.234697
0.261934
0.289518
0.316727
0.343888
0.370394
0.396272
0.421306
0.445341
0.468225
0.489963
0.510611
0.530018
0.548274
0.565399
0.581529
0.596482
0.610414
0.62337
0.635399
0.646551
0.657139
0.666666
0.675463
0.683578
0.691054
0.697932
0.704253
0.710056
0.715384
0.720362
0.724901
0.729123
0.733068
0.736766
0.740265
0.743532
0.746606
0.749495
0.752292
0.754803
0.757127
0.759259
0.761194
0.762924
0.764512
0.765819
0.766965
0.767879
0.768576
0.76908
0.769427
0.769654
0.769796
0.769883
0.769934
0.769963
0.76998
0.769989
0.769994
0.769997
0.769998
0.769999
0.77
0.77
0.77
0.77
0.77
0.77
0.77
0.77
0.77
5.15855e-06
1.99887e-05
4.26204e-05
7.83692e-05
0.000134772
0.000223402
0.000361959
0.000577227
0.000909244
0.00139973
0.00211515
0.00315127
0.00463665
0.00673726
0.00965945
0.0136487
0.0189805
0.0259426
0.0348094
0.0458084
0.0591034
0.074728
0.0926633
0.112788
0.134865
0.158009
0.182544
0.208661
0.235115
0.262349
0.289905
0.317087
0.344207
0.370673
0.396506
0.421484
0.445456
0.468291
0.48998
0.510571
0.529935
0.54815
0.565236
0.581334
0.596254
0.610158
0.62309
0.635098
0.646231
0.656811
0.666326
0.675116
0.683228
0.690703
0.697584
0.70391
0.709724
0.71507
0.719998
0.724555
0.728793
0.732751
0.736476
0.739964
0.743246
0.746333
0.749233
0.752063
0.754588
0.756927
0.759076
0.76103
0.762781
0.7644
0.765724
0.766886
0.767817
0.76853
0.769048
0.769405
0.76964
0.769788
0.769878
0.769931
0.769962
0.769979
0.769989
0.769994
0.769997
0.769998
0.769999
0.77
0.77
0.77
0.77
0.77
0.77
0.77
0.77
0.77
5.17731e-06
2.00608e-05
4.27731e-05
7.86486e-05
0.000135252
0.000224199
0.000363261
0.000579339
0.000912694
0.00140564
0.00212477
0.00316646
0.00466011
0.00677249
0.00971072
0.013721
0.0190795
0.0260748
0.0349814
0.0460357
0.0593673
0.0750668
0.0930536
0.113193
0.135312
0.158491
0.183051
0.209198
0.235653
0.262885
0.290396
0.317553
0.344636
0.371065
0.396854
0.421773
0.445661
0.468432
0.490063
0.510579
0.52989
0.548053
0.565092
0.581147
0.596027
0.609892
0.622795
0.634777
0.645888
0.656457
0.665954
0.674732
0.682835
0.690308
0.69719
0.70352
0.709339
0.714689
0.719619
0.72418
0.728421
0.732382
0.736142
0.739638
0.74293
0.746029
0.748944
0.751797
0.754339
0.756696
0.758864
0.760836
0.762606
0.764248
0.765597
0.766786
0.767741
0.768474
0.769009
0.76938
0.769624
0.769779
0.769872
0.769928
0.76996
0.769978
0.769988
0.769994
0.769997
0.769998
0.769999
0.77
0.77
0.77
0.77
0.77
0.77
0.77
0.77
0.77
5.19841e-06
2.01425e-05
4.29481e-05
7.89739e-05
0.000135821
0.000225165
0.000364874
0.000582006
0.000917061
0.00141339
0.0021371
0.00318561
0.00468905
0.00681516
0.00977223
0.0138074
0.0191974
0.026231
0.0351819
0.0462772
0.0596678
0.0754098
0.0934711
0.113709
0.135867
0.15907
0.183678
0.209884
0.236368
0.263658
0.290935
0.318122
0.345186
0.371584
0.397329
0.422177
0.44598
0.468703
0.49024
0.510661
0.529914
0.548013
0.564987
0.580982
0.59581
0.609632
0.62249
0.634446