/*--------------------------------*- C++ -*----------------------------------*\
  =========                 |
  \\      /  F ield         | OpenFOAM: The Open Source CFD Toolbox
   \\    /   O peration     | Website:  https://openfoam.org
    \\  /    A nd           | Version:  10
     \\/     M anipulation  |
\*---------------------------------------------------------------------------*/
FoamFile
{
    format      ascii;
    class       volScalarField;
    location    "1";
    object      NCO;
}
// * * * * * * * * * * * * * * * * * * * * * * * * * * * * * * * * * * * * * //

dimensions      [0 0 0 0 0 0 0];

internalField   nonuniform List<scalar> 
4000
(
2.35466e-22
9.12492e-22
1.94692e-21
3.58661e-21
6.19326e-21
1.03473e-20
1.69988e-20
2.774e-20
4.53266e-20
7.37512e-20
1.20738e-19
2.0121e-19
3.4412e-19
6.06363e-19
1.10039e-18
2.04842e-18
3.88847e-18
7.49629e-18
1.46887e-17
2.93945e-17
6.0324e-17
1.26712e-16
2.69592e-16
5.72352e-16
1.18353e-15
2.31598e-15
4.29497e-15
7.51708e-15
1.22091e-14
1.87938e-14
2.77557e-14
4.06586e-14
6.08684e-14
9.53562e-14
1.57801e-13
2.742e-13
4.93536e-13
9.078e-13
1.69026e-12
3.16573e-12
5.9379e-12
1.10545e-11
2.04775e-11
3.76727e-11
6.84975e-11
1.23589e-10
2.17699e-10
3.7928e-10
6.41419e-10
1.0747e-09
1.74178e-09
2.76547e-09
4.30836e-09
6.58205e-09
9.84037e-09
1.43129e-08
1.99658e-08
2.57782e-08
2.81372e-08
2.0644e-08
1.15307e-08
6.59703e-09
4.08971e-09
3.10473e-09
3.24614e-09
4.12077e-09
4.73238e-09
4.45401e-09
3.47792e-09
2.35862e-09
1.42384e-09
7.84974e-10
3.93489e-10
1.75617e-10
6.91264e-11
2.41186e-11
7.19144e-12
1.9447e-12
5.01413e-13
1.32017e-13
3.80872e-14
1.26187e-14
4.83566e-15
2.08906e-15
9.79511e-16
4.81872e-16
2.42837e-16
1.23417e-16
6.30466e-17
3.22138e-17
1.64249e-17
8.34754e-18
4.22552e-18
2.12816e-18
1.06432e-18
5.25928e-19
2.5388e-19
1.16459e-19
4.70274e-20
1.08194e-20
2.35095e-22
9.11032e-22
1.94382e-21
3.58117e-21
6.18441e-21
1.03329e-20
1.69737e-20
2.76913e-20
4.52225e-20
7.3547e-20
1.20292e-19
2.00187e-19
3.41732e-19
6.00656e-19
1.08656e-18
2.01466e-18
3.80529e-18
7.30221e-18
1.42501e-17
2.84143e-17
5.81408e-17
1.21906e-16
2.59282e-16
5.48387e-16
1.13495e-15
2.2258e-15
4.14254e-15
7.29376e-15
1.19053e-14
1.84235e-14
2.7314e-14
4.00986e-14
6.00501e-14
9.41376e-14
1.55921e-13
2.7137e-13
4.89585e-13
9.03233e-13
1.68647e-12
3.16751e-12
5.95772e-12
1.11184e-11
2.06432e-11
3.80785e-11
6.93667e-11
1.25335e-10
2.21075e-10
3.85781e-10
6.5312e-10
1.09555e-09
1.77596e-09
2.82124e-09
4.39684e-09
6.71643e-09
1.00363e-08
1.45778e-08
2.02737e-08
2.59957e-08
2.79264e-08
1.94525e-08
1.0929e-08
6.30675e-09
3.97095e-09
3.09702e-09
3.33075e-09
4.25082e-09
4.82139e-09
4.46767e-09
3.43413e-09
2.29657e-09
1.36866e-09
7.47458e-10
3.69943e-10
1.62666e-10
6.28035e-11
2.1353e-11
6.24414e-12
1.66506e-12
4.27084e-13
1.13036e-13
3.3071e-14
1.11564e-14
4.35012e-15
1.90648e-15
9.04206e-16
4.4922e-16
2.287e-16
1.17891e-16
6.07552e-17
3.1215e-17
1.59712e-17
8.13426e-18
4.12175e-18
2.07479e-18
1.03764e-18
5.12791e-19
2.47483e-19
1.13538e-19
4.58627e-20
1.05533e-20
2.34986e-22
9.10662e-22
1.94327e-21
3.58056e-21
6.18376e-21
1.03314e-20
1.69678e-20
2.76694e-20
4.51535e-20
7.33825e-20
1.19897e-19
1.99266e-19
3.39675e-19
5.95769e-19
1.07471e-18
1.98549e-18
3.73977e-18
7.15314e-18
1.39039e-17
2.75971e-17
5.61956e-17
1.17293e-16
2.48842e-16
5.2698e-16
1.09222e-15
2.14805e-15
4.01546e-15
7.09603e-15
1.16329e-14
1.80823e-14
2.68612e-14
3.94666e-14
5.90838e-14
9.26762e-14
1.53671e-13
2.68049e-13
4.85192e-13
8.98873e-13
1.68519e-12
3.17805e-12
6.00136e-12
1.12391e-11
2.09373e-11
3.87562e-11
7.07668e-11
1.28156e-10
2.26665e-10
3.96481e-10
6.73051e-10
1.13116e-09
1.83544e-09
2.92153e-09
4.55732e-09
6.96431e-09
1.0405e-08
1.50908e-08
2.09123e-08
2.66013e-08
2.80186e-08
1.81796e-08
1.02851e-08
5.99866e-09
3.85748e-09
3.12479e-09
3.48579e-09
4.45533e-09
4.94068e-09
4.46984e-09
3.35796e-09
2.19997e-09
1.29191e-09
6.93132e-10
3.3748e-10
1.46517e-10
5.41146e-11
1.81822e-11
5.23858e-12
1.38627e-12
3.56458e-13
9.55772e-14
2.85406e-14
9.84752e-15
3.91719e-15
1.74337e-15
8.35992e-16
4.18438e-16
2.13928e-16
1.10277e-16
5.69171e-17
2.9311e-17
1.50381e-17
7.68259e-18
3.90799e-18
1.97942e-18
9.93708e-19
4.92216e-19
2.3791e-19
1.09223e-19
4.4129e-20
1.01537e-20
2.34444e-22
9.08544e-22
1.93865e-21
3.57172e-21
6.16738e-21
1.03009e-20
1.69101e-20
2.75581e-20
4.49351e-20
7.29685e-20
1.19054e-19
1.97467e-19
3.35673e-19
5.87491e-19
1.05789e-18
1.95178e-18
3.66916e-18
7.00281e-18
1.35799e-17
2.68888e-17
5.46279e-17
1.13816e-16
2.40912e-16
5.10156e-16
1.05892e-15
2.08571e-15
3.90886e-15
6.93261e-15
1.13953e-14
1.77665e-14
2.64533e-14
3.89164e-14
5.8276e-14
9.1418e-14
1.51844e-13
2.65562e-13
4.82517e-13
8.98054e-13
1.6915e-12
3.20479e-12
6.07901e-12
1.14307e-11
2.137e-11
3.96978e-11
7.27221e-11
1.32048e-10
2.34259e-10
4.10934e-10
6.99133e-10
1.17765e-09
1.91457e-09
3.05358e-09
4.77361e-09
7.30954e-09
1.09295e-08
1.58599e-08
2.19561e-08
2.77855e-08
2.88912e-08
1.76047e-08
9.99617e-09
5.88286e-09
3.83144e-09
3.21902e-09
3.70432e-09
4.69232e-09
5.04795e-09
4.43496e-09
3.25303e-09
2.08099e-09
1.19669e-09
6.31971e-10
3.01976e-10
1.27558e-10
4.6369e-11
1.53239e-11
4.33639e-12
1.1363e-12
2.92581e-13
7.94626e-14
2.42273e-14
8.55298e-15
3.47132e-15
1.56883e-15
7.60655e-16
3.83802e-16
1.97434e-16
1.02286e-16
5.30142e-17
2.73977e-17
1.40975e-17
7.21818e-18
3.67641e-18
1.86132e-18
9.3483e-19
4.63477e-19
2.24276e-19
1.03084e-19
4.16901e-20
9.5985e-21
2.33661e-22
9.05501e-22
1.9321e-21
3.55935e-21
6.14505e-21
1.02609e-20
1.68375e-20
2.74235e-20
4.46786e-20
7.24647e-20
1.18118e-19
1.95742e-19
3.32511e-19
5.81267e-19
1.04516e-18
1.92521e-18
3.61319e-18
6.88402e-18
1.33253e-17
2.63353e-17
5.34082e-17
1.11117e-16
2.34998e-16
4.96858e-16
1.03012e-15
2.02854e-15
3.80456e-15
6.7764e-15
1.11844e-14
1.74981e-14
2.61237e-14
3.84878e-14
5.76733e-14
9.0502e-14
1.50608e-13
2.64239e-13
4.82061e-13
9.014e-13
1.70584e-12
3.24689e-12
6.18616e-12
1.16777e-11
2.19115e-11
4.08567e-11
7.5064e-11
1.36618e-10
2.42983e-10
4.27251e-10
7.28728e-10
1.23107e-09
2.0076e-09
3.21156e-09
5.0359e-09
7.73242e-09
1.1598e-08
1.68757e-08
2.34071e-08
2.962e-08
3.08191e-08
1.79471e-08
1.01672e-08
5.99113e-09
3.94111e-09
3.38515e-09
3.95105e-09
4.90381e-09
5.09346e-09
4.33031e-09
3.1041e-09
1.94347e-09
1.09948e-09
5.70317e-10
2.65043e-10
1.0938e-10
4.01586e-11
1.24797e-11
3.48078e-12
9.08162e-13
2.35669e-13
6.52374e-14
2.04117e-14
7.39963e-15
3.07157e-15
1.41188e-15
6.92854e-16
3.52599e-16
1.82528e-16
9.50229e-17
4.94414e-17
2.56325e-17
1.32236e-17
6.78475e-18
3.46117e-18
1.75439e-18
8.81873e-19
4.37497e-19
2.11803e-19
9.73831e-20
3.93925e-20
9.06971e-21
2.32679e-22
9.01712e-22
1.92401e-21
3.54432e-21
6.11856e-21
1.0215e-20
1.67578e-20
2.72819e-20
4.44289e-20
7.20335e-20
1.17365e-19
1.94412e-19
3.3002e-19
5.76348e-19
1.03512e-18
1.90426e-18
3.56874e-18
6.78766e-18
1.31107e-17
2.58418e-17
5.22413e-17
1.08314e-16
2.2844e-16
4.83007e-16
1.0033e-15
1.98075e-15
3.72718e-15
6.65842e-15
1.1021e-14
1.72928e-14
2.58836e-14
3.81955e-14
5.73068e-14
9.00052e-14
1.50109e-13
2.64158e-13
4.83815e-13
9.08722e-13
1.72762e-12
3.30313e-12
6.31899e-12
1.19739e-11
2.25467e-11
4.21896e-11
7.77409e-11
1.41811e-10
2.53012e-10
4.45292e-10
7.62107e-10
1.29134e-09
2.11091e-09
3.3841e-09
5.31801e-09
8.18916e-09
1.23242e-08
1.79981e-08
2.50573e-08
3.18251e-08
3.35194e-08
1.89478e-08
1.06469e-08
6.23428e-09
4.10069e-09
3.5546e-09
4.16028e-09
5.02997e-09
5.04995e-09
4.16631e-09
2.91186e-09
1.78536e-09
9.95153e-10
5.06997e-10
2.31841e-10
9.38871e-11
3.3619e-11
1.02632e-11
2.82988e-12
7.36677e-13
1.92849e-13
5.439e-14
1.74343e-14
6.47375e-15
2.74099e-15
1.27838e-15
6.33734e-16
3.24819e-16
1.69035e-16
8.83635e-17
4.61344e-17
2.39879e-17
1.24055e-17
6.37682e-18
3.25762e-18
1.65328e-18
8.31966e-19
4.13184e-19
2.00228e-19
9.21276e-20
3.72811e-20
8.58418e-21
2.31464e-22
8.96986e-22
1.91383e-21
3.5253e-21
6.08526e-21
1.01588e-20
1.66654e-20
2.71342e-20
4.41801e-20
7.15912e-20
1.16589e-19
1.92964e-19
3.27252e-19
5.70946e-19
1.02435e-18
1.88246e-18
3.5242e-18
6.69545e-18
1.29161e-17
2.54209e-17
5.13331e-17
1.06315e-16
2.24119e-16
4.73606e-16
9.83974e-16
1.94451e-15
3.66431e-15
6.56351e-15
1.08953e-14
1.71408e-14
2.57132e-14
3.79925e-14
5.71711e-14
8.98654e-14
1.50123e-13
2.64993e-13
4.87111e-13
9.185e-13
1.75339e-12
3.36556e-12
6.46045e-12
1.22833e-11
2.32012e-11
4.3548e-11
8.04836e-11
1.4661e-10
2.62361e-10
4.61647e-10
7.92086e-10
1.34472e-09
2.20156e-09
3.53513e-09
5.56524e-09
8.58435e-09
1.29404e-08
1.89255e-08
2.63656e-08
3.3441e-08
3.5323e-08
1.9603e-08
1.09278e-08
6.36418e-09
4.19196e-09
3.66952e-09
4.29391e-09
5.05931e-09
4.93952e-09
3.94761e-09
2.70406e-09
1.63209e-09
8.99566e-10
4.51242e-10
2.02689e-10
8.03732e-11
2.83873e-11
8.53576e-12
2.33184e-12
6.06714e-13
1.60345e-13
4.6053e-14
1.50994e-14
5.73072e-15
2.46999e-15
1.1671e-15
5.83878e-16
3.01205e-16
1.57497e-16
8.26401e-17
4.32796e-17
2.25643e-17
1.16995e-17
6.03154e-18
3.09031e-18
1.57173e-18
7.91763e-19
3.93379e-19
1.90635e-19
8.77022e-20
3.54856e-20
8.16998e-21
2.30263e-22
8.92319e-22
1.90375e-21
3.50633e-21
6.05145e-21
1.00998e-20
1.65626e-20
2.69533e-20
4.38655e-20
7.10327e-20
1.15514e-19
1.90953e-19
3.2345e-19
5.63624e-19
1.01004e-18
1.85426e-18
3.46853e-18
6.58507e-18
1.26949e-17
2.49691e-17
5.03727e-17
1.04286e-16
2.19927e-16
4.65094e-16
9.66567e-16
1.91142e-15
3.61076e-15
6.4835e-15
1.07913e-14
1.70244e-14
2.56192e-14
3.79174e-14
5.71533e-14
8.996e-14
1.50563e-13
2.66567e-13
4.9171e-13
9.30787e-13
1.78299e-12
3.43496e-12
6.5876e-12
1.25647e-11
2.37819e-11
4.47519e-11
8.28004e-11
1.50988e-10
2.70447e-10
4.75127e-10
8.16242e-10
1.38686e-09
2.2718e-09
3.64799e-09
5.73989e-09
8.84311e-09
1.3302e-08
1.93803e-08
2.67982e-08
3.34423e-08
3.42335e-08
1.89066e-08
1.05372e-08
6.15985e-09
4.11773e-09
3.69279e-09
4.35519e-09
5.02087e-09
4.77798e-09
3.72895e-09
2.51162e-09
1.4979e-09
8.15338e-10
4.04145e-10
1.78873e-10
6.9927e-11
2.42121e-11
7.17617e-12
1.94456e-12
5.0624e-13
1.35147e-13
3.9524e-14
1.32443e-14
5.1319e-15
2.24927e-15
1.07591e-15
5.429e-16
2.81758e-16
1.47972e-16
7.78982e-17
4.09014e-17
2.13679e-17
1.10962e-17
5.72583e-18
2.93557e-18
1.49448e-18
7.54176e-19
3.75174e-19
1.81924e-19
8.37138e-20
3.38757e-20
7.79965e-21
2.29267e-22
8.88471e-22
1.89552e-21
3.49103e-21
6.02456e-21
1.00537e-20
1.6484e-20
2.68189e-20
4.36339e-20
7.0591e-20
1.1474e-19
1.89565e-19
3.20902e-19
5.58821e-19
1.00078e-18
1.83616e-18
3.43302e-18
6.51488e-18
1.25543e-17
2.46861e-17
4.9755e-17
1.02971e-16
2.1693e-16
4.58447e-16
9.53955e-16
1.88922e-15
3.57331e-15
6.42525e-15
1.07157e-14
1.69304e-14
2.56146e-14
3.79324e-14
5.72398e-14
9.02056e-14
1.51227e-13
2.68417e-13
4.96668e-13
9.41655e-13
1.80914e-12
3.49644e-12
6.71805e-12
1.28376e-11
2.43418e-11
4.58526e-11
8.4912e-11
1.54905e-10
2.77628e-10
4.87416e-10
8.37014e-10
1.42054e-09
2.32323e-09
3.72354e-09
5.84364e-09
8.9708e-09
1.3424e-08
1.94008e-08
2.64488e-08
3.20544e-08
3.07398e-08
1.70406e-08
9.56394e-09
5.66855e-09
3.90697e-09
3.64616e-09
4.37255e-09
4.96423e-09
4.63057e-09
3.54528e-09
2.35044e-09
1.38675e-09
7.49156e-10
3.68088e-10
1.62124e-10
6.03579e-11
2.0689e-11
6.08877e-12
1.64744e-12
4.3134e-13
1.16673e-13
3.47638e-14
1.18894e-14
4.69223e-15
2.08606e-15
1.00789e-15
5.12e-16
2.66906e-16
1.40597e-16
7.41766e-17
3.90107e-17
2.04056e-17
1.06063e-17
5.47631e-18
2.80879e-18
1.43038e-18
7.21746e-19
3.59104e-19
1.74204e-19
8.01946e-20
3.24587e-20
7.47427e-21
2.28513e-22
8.85582e-22
1.88943e-21
3.47987e-21
6.00526e-21
1.0021e-20
1.64286e-20
2.67234e-20
4.34636e-20
7.02734e-20
1.14156e-19
1.88483e-19
3.18863e-19
5.54919e-19
9.93233e-19
1.82143e-18
3.40401e-18
6.45709e-18
1.24371e-17
2.44373e-17
4.92519e-17
1.01825e-16
2.14552e-16
4.53864e-16
9.44853e-16
1.87295e-15
3.54746e-15
6.38818e-15
1.06748e-14
1.68962e-14
2.56136e-14
3.79811e-14
5.73836e-14
9.05394e-14
1.52016e-13
2.70388e-13
5.01492e-13
9.52881e-13
1.83461e-12
3.55397e-12
6.83868e-12
1.30848e-11
2.48278e-11
4.67935e-11
8.6688e-11
1.58192e-10
2.83413e-10
4.97314e-10
8.53324e-10
1.44599e-09
2.36142e-09
3.77616e-09
5.9077e-09
9.02961e-09
1.34302e-08
1.92323e-08
2.58031e-08
3.02331e-08
2.66761e-08
1.48572e-08
8.41089e-09
5.07588e-09
3.64827e-09
3.5841e-09
4.38981e-09
4.92741e-09
4.52137e-09
3.41113e-09
2.23425e-09
1.30729e-09
7.00987e-10
3.41013e-10
1.48273e-10
5.44467e-11
1.84571e-11
5.38689e-12
1.45231e-12
3.81219e-13
1.04038e-13
3.14262e-14
1.09132e-14
4.36644e-15
1.9617e-15
9.54672e-16
4.87242e-16
2.54765e-16
1.34473e-16
7.10464e-17
3.74049e-17
1.95824e-17
1.01847e-17
5.26066e-18
2.69928e-18
1.3751e-18
6.94247e-19
3.45612e-19
1.67726e-19
7.72299e-20
3.12621e-20
7.19926e-21
2.27827e-22
8.82927e-22
1.88375e-21
3.46936e-21
5.987e-21
9.99031e-21
1.63782e-20
2.66418e-20
4.33334e-20
7.00407e-20
1.13738e-19
1.87709e-19
3.17351e-19
5.51924e-19
9.87277e-19
1.8097e-18
3.38115e-18
6.41244e-18
1.23495e-17
2.42523e-17
4.88441e-17
1.00984e-16
2.12797e-16
4.50202e-16
9.38098e-16
1.86137e-15
3.52998e-15
6.36473e-15
1.0653e-14
1.6886e-14
2.56371e-14
3.80612e-14
5.75681e-14
9.09324e-14
1.52884e-13
2.72414e-13
5.0635e-13
9.63909e-13
1.85893e-12
3.60695e-12
6.9483e-12
1.33061e-11
2.52663e-11
4.76421e-11
8.82907e-11
1.61115e-10
2.88596e-10
5.06183e-10
8.67892e-10
1.4686e-09
2.39473e-09
3.8212e-09
5.96109e-09
9.07676e-09
1.34278e-08
1.90707e-08
2.52125e-08
2.86109e-08
2.3052e-08
1.29053e-08
7.38399e-09
4.55735e-09
3.42939e-09
3.55327e-09
4.43519e-09
4.92576e-09
4.45351e-09
3.31982e-09
2.15061e-09
1.24857e-09
6.64651e-10
3.20673e-10
1.37921e-10
5.04144e-11
1.69383e-11
4.90746e-12
1.318e-12
3.46233e-13
9.50557e-14
2.90044e-14
1.01903e-14
4.12035e-15
1.86597e-15
9.1297e-16
4.67527e-16
2.44964e-16
1.29468e-16
6.84625e-17
3.60688e-17
1.88953e-17
9.83632e-18
5.0874e-18
2.61376e-18
1.33277e-18
6.72922e-19
3.34898e-19
1.6248e-19
7.48001e-20
3.02744e-20
6.97149e-21
2.27277e-22
8.8081e-22
1.87925e-21
3.46106e-21
5.97262e-21
9.96606e-21
1.63377e-20
2.65741e-20
4.32081e-20
6.98115e-20
1.13337e-19
1.87018e-19
3.16165e-19
5.49715e-19
9.82927e-19
1.80075e-18
3.36316e-18
6.37703e-18
1.22777e-17
2.41135e-17
4.85569e-17
1.00386e-16
2.11571e-16
4.47732e-16
9.33418e-16
1.85351e-15
3.51877e-15
6.35115e-15
1.06447e-14
1.6893e-14
2.56804e-14
3.81659e-14
5.77883e-14
9.1377e-14
1.53834e-13
2.74584e-13
5.11393e-13
9.75172e-13
1.88362e-12
3.66085e-12
7.05835e-12
1.35256e-11
2.56957e-11
4.84634e-11
8.98405e-11
1.63961e-10
2.93668e-10
5.14927e-10
8.82385e-10
1.49126e-09
2.42945e-09
3.87122e-09
6.02725e-09
9.1526e-09
1.3489e-08
1.90453e-08
2.49068e-08
2.75636e-08
2.06146e-08
1.15633e-08
6.6637e-09
4.19706e-09
3.29065e-09
3.56575e-09
4.51081e-09
4.96061e-09
4.42601e-09
3.2651e-09
2.09416e-09
1.20673e-09
6.3762e-10
3.04665e-10
1.29451e-10
4.72765e-11
1.57745e-11
4.54214e-12
1.21539e-12
3.19539e-13
8.8213e-14
2.71582e-14
9.63706e-15
3.93084e-15
1.79168e-15
8.80323e-16
4.51949e-16
2.37146e-16
1.25438e-16
6.63598e-17
3.49635e-17
1.83143e-17
9.53317e-18
4.93194e-18
2.53395e-18
1.29218e-18
6.52766e-19
3.25044e-19
1.57763e-19
7.26464e-20
2.94063e-20
6.77199e-21
2.26851e-22
8.79174e-22
1.87577e-21
3.45468e-21
5.9616e-21
9.94759e-21
1.63071e-20
2.65235e-20
4.31113e-20
6.963e-20
1.13008e-19
1.8642e-19
3.15047e-19
5.47651e-19
9.79137e-19
1.79391e-18
3.34988e-18
6.35045e-18
1.22245e-17
2.40028e-17
4.83381e-17
9.99392e-17
2.10617e-16
4.45904e-16
9.30114e-16
1.84834e-15
3.51214e-15
6.34472e-15
1.06459e-14
1.69116e-14
2.57363e-14
3.82844e-14
5.80228e-14
9.18485e-14
1.5484e-13
2.76778e-13
5.16302e-13
9.8596e-13
1.90704e-12
3.71061e-12
7.1618e-12
1.37371e-11
2.61189e-11
4.92859e-11
9.13944e-11
1.66814e-10
2.98747e-10
5.23646e-10
8.96907e-10
1.51445e-09
2.46534e-09
3.92453e-09
6.10292e-09
9.25261e-09
1.36042e-08
1.91334e-08
2.48288e-08
2.69737e-08
1.90407e-08
1.06943e-08
6.19754e-09
3.9713e-09
3.22155e-09
3.61289e-09
4.60536e-09
5.01685e-09
4.4244e-09
3.2352e-09
2.05633e-09
1.17687e-09
6.17138e-10
2.92299e-10
1.22925e-10
4.48944e-11
1.48684e-11
4.25686e-12
1.13574e-12
2.98834e-13
8.28864e-14
2.57107e-14
9.1992e-15
3.77922e-15
1.73154e-15
8.53586e-16
4.39061e-16
2.30627e-16
1.22067e-16
6.46131e-17
3.40747e-17
1.78673e-17
9.30473e-18
4.81356e-18
2.47312e-18
1.26107e-18
6.36874e-19
3.17074e-19
1.53877e-19
7.08502e-20
2.86772e-20
6.60387e-21
2.26528e-22
8.77932e-22
1.87314e-21
3.44987e-21
5.95331e-21
9.93376e-21
1.62844e-20
2.64861e-20
4.30376e-20
6.94897e-20
1.12753e-19
1.85958e-19
3.14191e-19
5.46031e-19
9.76022e-19
1.78788e-18
3.33876e-18
6.32994e-18
1.21852e-17
2.3925e-17
4.81792e-17
9.9611e-17
2.0998e-16
4.44679e-16
9.28016e-16
1.84524e-15
3.50887e-15
6.34335e-15
1.06534e-14
1.69375e-14
2.5799e-14
3.84092e-14
5.82638e-14
9.23147e-14
1.55788e-13
2.78827e-13
5.20877e-13
9.95942e-13
1.92844e-12
3.75686e-12
7.25643e-12
1.39267e-11
2.64905e-11
5.00014e-11
9.27777e-11
1.69446e-10
3.03664e-10
5.32186e-10
9.11278e-10
1.53727e-09
2.50134e-09
3.97966e-09
6.18385e-09
9.3656e-09
1.37498e-08
1.92867e-08
2.48898e-08
2.66787e-08
1.8021e-08
1.01297e-08
5.89958e-09
3.83412e-09
3.19684e-09
3.67865e-09
4.70845e-09
5.08176e-09
4.43505e-09
3.21908e-09
2.0307e-09
1.1551e-09
6.02043e-10
2.82885e-10
1.17841e-10
4.30572e-11
1.41722e-11
4.03473e-12
1.07315e-12
2.82431e-13
7.86269e-14
2.45402e-14
8.8404e-15
3.65316e-15
1.68082e-15
8.30754e-16
4.27947e-16
2.24961e-16
1.19112e-16
6.30583e-17
3.32524e-17
1.74369e-17
9.08823e-18
4.70404e-18
2.41747e-18
1.23256e-18
6.22527e-19
3.09958e-19
1.50433e-19
6.92673e-20
2.80369e-20
6.45645e-21
2.26286e-22
8.77002e-22
1.87118e-21
3.44627e-21
5.94713e-21
9.92347e-21
1.62675e-20
2.64586e-20
4.29823e-20
6.93833e-20
1.12559e-19
1.85607e-19
3.13543e-19
5.44807e-19
9.73684e-19
1.78341e-18
3.3303e-18
6.31343e-18
1.21548e-17
2.38692e-17
4.80689e-17
9.93888e-17
2.09538e-16
4.43866e-16
9.26708e-16
1.84357e-15
3.50783e-15
6.34515e-15
1.06643e-14
1.69658e-14
2.58606e-14
3.85256e-14
5.84818e-14
9.27396e-14
1.56653e-13
2.80686e-13
5.24952e-13
1.00473e-12
1.94721e-12
3.79601e-12
7.33493e-12
1.40801e-11
2.67857e-11
5.05433e-11
9.37442e-11
1.71096e-10
3.09212e-10
5.40663e-10
9.25028e-10
1.5591e-09
2.53622e-09
4.03345e-09
6.26423e-09
9.48105e-09
1.39042e-08
1.94692e-08
2.50297e-08
2.65806e-08
1.74011e-08
9.78928e-09
5.73276e-09
3.74531e-09
3.19776e-09
3.75547e-09
4.8091e-09
5.14419e-09
4.44917e-09
3.21041e-09
2.01242e-09
1.13901e-09
5.9034e-10
2.75573e-10
1.13899e-10
4.16634e-11
1.36043e-11
3.8462e-12
1.01891e-12
2.68038e-13
7.4853e-14
2.3493e-14
8.5163e-15
3.53844e-15
1.63453e-15
8.09966e-16
4.17893e-16
2.1988e-16
1.16486e-16
6.16881e-17
3.25354e-17
1.70606e-17
8.88863e-18
4.6003e-18
2.36461e-18
1.20627e-18
6.09509e-19
3.03576e-19
1.47372e-19
6.78694e-20
2.74738e-20
6.32705e-21
2.26107e-22
8.76318e-22
1.86973e-21
3.44362e-21
5.94258e-21
9.9159e-21
1.62551e-20
2.64381e-20
4.29412e-20
6.93039e-20
1.12415e-19
1.85345e-19
3.13059e-19
5.43894e-19
9.71939e-19
1.78008e-18
3.32388e-18
6.30174e-18
1.21325e-17
2.38265e-17
4.79884e-17
9.92318e-17
2.09242e-16
4.43354e-16
9.25973e-16
1.84289e-15
3.50831e-15
6.34905e-15
1.06773e-14
1.69958e-14
2.59216e-14
3.86392e-14
5.86908e-14
9.31367e-14
1.57467e-13
2.82433e-13
5.28817e-13
1.01305e-12
1.96487e-12
3.83339e-12
7.41177e-12
1.42358e-11
2.7094e-11
5.11411e-11
9.49008e-11
1.73296e-10
3.13241e-10
5.47668e-10
9.3685e-10
1.5782e-09
2.56703e-09
4.08169e-09
6.33756e-09
9.58901e-09
1.40551e-08
1.96575e-08
2.52042e-08
2.659e-08
1.70012e-08
9.56986e-09
5.62151e-09
3.70685e-09
3.21618e-09
3.82771e-09
4.89829e-09
5.20164e-09
4.46618e-09
3.20798e-09
2.00087e-09
1.12798e-09
5.82152e-10
2.70464e-10
1.11334e-10
4.08876e-11
1.27892e-11
3.60936e-12
9.56829e-13
2.52651e-13
7.10079e-14
2.24622e-14
8.20597e-15
3.43131e-15
1.59233e-15
7.91429e-16
4.09095e-16
2.15499e-16
1.14249e-16
6.05333e-17
3.19374e-17
1.67512e-17
8.72904e-18
4.5184e-18
2.32286e-18
1.18517e-18
5.98953e-19
2.98365e-19
1.44861e-19
6.67186e-20
2.70092e-20
6.21996e-21
2.25981e-22
8.75834e-22
1.86871e-21
3.44176e-21
5.93941e-21
9.91065e-21
1.62465e-20
2.64243e-20
4.29122e-20
6.92469e-20
1.1231e-19
1.85156e-19
3.1271e-19
5.43236e-19
9.70689e-19
1.77771e-18
3.3194e-18
6.29343e-18
1.2117e-17
2.37973e-17
4.79324e-17
9.91284e-17
2.09056e-16
4.43056e-16
9.25618e-16
1.8428e-15
3.50952e-15
6.35351e-15
1.06897e-14
1.70226e-14
2.59746e-14
3.87359e-14
5.8869e-14
9.34791e-14
1.5817e-13
2.83937e-13
5.32078e-13
1.02008e-12
1.97999e-12
3.86547e-12
7.47767e-12
1.43691e-11
2.73585e-11
5.16538e-11
9.58814e-11
1.75122e-10
3.16462e-10
5.5336e-10
9.46607e-10
1.59413e-09
2.59304e-09
4.12299e-09
6.40135e-09
9.68396e-09
1.41906e-08
1.9834e-08
2.5387e-08
2.66674e-08
1.67758e-08
9.44286e-09
5.55778e-09
3.69051e-09
3.23935e-09
3.89026e-09
4.97191e-09
5.24996e-09
4.48275e-09
3.20661e-09
1.99222e-09
1.11958e-09
5.75819e-10
2.66424e-10
1.09206e-10
3.99384e-11
1.24226e-11
3.4906e-12
9.23162e-13
2.43765e-13
6.86786e-14
2.18136e-14
8.00416e-15
3.3595e-15
1.56323e-15
7.78327e-16
4.02746e-16
2.12286e-16
1.12587e-16
5.9666e-17
3.14845e-17
1.65157e-17
8.60738e-18
4.45601e-18
2.29108e-18
1.16909e-18
5.90885e-19
2.94371e-19
1.4293e-19
6.58318e-20
2.66507e-20
6.13744e-21
2.25897e-22
8.75511e-22
1.86803e-21
3.44052e-21
5.9373e-21
9.90719e-21
1.62409e-20
2.64153e-20
4.28927e-20
6.92077e-20
1.12238e-19
1.85024e-19
3.12465e-19
5.42772e-19
9.69801e-19
1.77601e-18
3.31627e-18
6.28766e-18
1.21067e-17
2.37784e-17
4.7897e-17
9.90626e-17
2.08943e-16
4.42894e-16
9.25484e-16
1.84299e-15
3.51089e-15
6.3577e-15
1.07003e-14
1.70446e-14
2.6017e-14
3.88128e-14
5.90101e-14
9.37505e-14
1.58725e-13
2.8512e-13
5.34664e-13
1.02566e-12
1.99186e-12
3.89059e-12
7.52939e-12
1.44734e-11
2.75649e-11
5.20475e-11
9.66309e-11
1.76517e-10
3.18922e-10
5.57732e-10
9.54122e-10
1.60646e-09
2.61328e-09
4.15531e-09
6.4516e-09
9.75976e-09
1.42994e-08
1.99778e-08
2.55412e-08
2.67493e-08
1.66249e-08
9.36113e-09
5.51902e-09
3.68395e-09
3.26049e-09
3.93903e-09
5.02803e-09
5.2871e-09
4.49647e-09
3.20513e-09
1.98563e-09
1.11329e-09
5.71077e-10
2.63393e-10
1.07609e-10
3.92283e-11
1.21621e-11
3.40941e-12
9.00649e-13
2.37909e-13
6.71535e-14
2.13897e-14
7.87207e-15
3.31229e-15
1.54395e-15
7.69552e-16
3.98444e-16
2.10084e-16
1.11437e-16
5.90639e-17
3.11704e-17
1.63525e-17
8.52286e-18
4.41238e-18
2.26868e-18
1.15768e-18
5.85133e-19
2.91511e-19
1.41544e-19
6.51937e-20
2.63923e-20
6.07792e-21
2.25846e-22
8.75319e-22
1.86763e-21
3.43979e-21
5.93606e-21
9.90515e-21
1.62377e-20
2.64101e-20
4.2881e-20
6.91839e-20
1.12194e-19
1.84944e-19
3.12317e-19
5.42492e-19
9.69268e-19
1.77501e-18
3.31442e-18
6.28429e-18
1.21007e-17
2.37674e-17
4.78771e-17
9.90271e-17
2.08885e-16
4.42822e-16
9.25468e-16
1.84327e-15
3.51209e-15
6.36098e-15
1.07082e-14
1.70605e-14
2.60472e-14
3.88665e-14
5.91083e-14
9.39395e-14
1.59111e-13
2.85939e-13
5.3645e-13
1.02952e-12
2.00012e-12
3.90812e-12
7.56526e-12
1.45453e-11
2.77059e-11
5.23175e-11
9.7142e-11
1.7746e-10
3.20575e-10
5.60672e-10
9.59193e-10
1.6148e-09
2.627e-09
4.17726e-09
6.48579e-09
9.81147e-09
1.43744e-08
2.00779e-08
2.56514e-08
2.68183e-08
1.65407e-08
9.31699e-09
5.49848e-09
3.68191e-09
3.27486e-09
3.9716e-09
5.06496e-09
5.31142e-09
4.50554e-09
3.2041e-09
1.98126e-09
1.10913e-09
5.67959e-10
2.61418e-10
1.06572e-10
3.87698e-11
1.19969e-11
3.35789e-12
8.86456e-13
2.34239e-13
6.6202e-14
2.11254e-14
7.78963e-15
3.28279e-15
1.53189e-15
7.64054e-16
3.95743e-16
2.08698e-16
1.10711e-16
5.86804e-17
3.09678e-17
1.62462e-17
8.46755e-18
4.38389e-18
2.25412e-18
1.1503e-18
5.8142e-19
2.89668e-19
1.4065e-19
6.47826e-20
2.62257e-20
6.03954e-21
2.25823e-22
8.75231e-22
1.86744e-21
3.43946e-21
5.9355e-21
9.90424e-21
1.62362e-20
2.64078e-20
4.28757e-20
6.91729e-20
1.12173e-19
1.84906e-19
3.12248e-19
5.42362e-19
9.69021e-19
1.77454e-18
3.31356e-18
6.28273e-18
1.20978e-17
2.37623e-17
4.7868e-17
9.90114e-17
2.08861e-16
4.42796e-16
9.25482e-16
1.84345e-15
3.51276e-15
6.36275e-15
1.07123e-14
1.70687e-14
2.60625e-14
3.88941e-14
5.91586e-14
9.40358e-14
1.59307e-13
2.86355e-13
5.37358e-13
1.03147e-12
2.00428e-12
3.91686e-12
7.58311e-12
1.45811e-11
2.77766e-11
5.24527e-11
9.7399e-11
1.77937e-10
3.21411e-10
5.62159e-10
9.61752e-10
1.61901e-09
2.63394e-09
4.1884e-09
6.50322e-09
9.83786e-09
1.44127e-08
2.01294e-08
2.57091e-08
2.68577e-08
1.65055e-08
9.30004e-09
5.49072e-09
3.68216e-09
3.28295e-09
3.98816e-09
5.08332e-09
5.3234e-09
4.50996e-09
3.20357e-09
1.9791e-09
1.10709e-09
5.66432e-10
2.60453e-10
1.06069e-10
3.85486e-11
1.19179e-11
3.33352e-12
8.79743e-13
2.32509e-13
6.57545e-14
2.10012e-14
7.75091e-15
3.26893e-15
1.52623e-15
7.61475e-16
3.94477e-16
2.08048e-16
1.10371e-16
5.85005e-17
3.08728e-17
1.61963e-17
8.44152e-18
4.37042e-18
2.24721e-18
1.14677e-18
5.79641e-19
2.88782e-19
1.4022e-19
6.45839e-20
2.61452e-20
6.02095e-21
2.25824e-22
8.75235e-22
1.86745e-21
3.43947e-21
5.93553e-21
9.90429e-21
1.62363e-20
2.6408e-20
4.28759e-20
6.91732e-20
1.12174e-19
1.84907e-19
3.12249e-19
5.42364e-19
9.69025e-19
1.77455e-18
3.31357e-18
6.28275e-18
1.20979e-17
2.37624e-17
4.78681e-17
9.90116e-17
2.08861e-16
4.42797e-16
9.25484e-16
1.84345e-15
3.51277e-15
6.36278e-15
1.07124e-14
1.70688e-14
2.60627e-14
3.88944e-14
5.91592e-14
9.40368e-14
1.59309e-13
2.86359e-13
5.37366e-13
1.03149e-12
2.00431e-12
3.91691e-12
7.58321e-12
1.45813e-11
2.77769e-11
5.24534e-11
9.74002e-11
1.77939e-10
3.21415e-10
5.62164e-10
9.61761e-10
1.61902e-09
2.63396e-09
4.18842e-09
6.50325e-09
9.8379e-09
1.44127e-08
2.01294e-08
2.57089e-08
2.68571e-08
1.65042e-08
9.29725e-09
5.48959e-09
3.68171e-09
3.2828e-09
3.98806e-09
5.08325e-09
5.32335e-09
4.50992e-09
3.20356e-09
1.97911e-09
1.1071e-09
5.66439e-10
2.60458e-10
1.06071e-10
3.85496e-11
1.19182e-11
3.33362e-12
8.79771e-13
2.32516e-13
6.57563e-14
2.10017e-14
7.75105e-15
3.26898e-15
1.52625e-15
7.61483e-16
3.94481e-16
2.0805e-16
1.10372e-16
5.8501e-17
3.08731e-17
1.61964e-17
8.44159e-18
4.37045e-18
2.24722e-18
1.14678e-18
5.79645e-19
2.88784e-19
1.40221e-19
6.45843e-20
2.61453e-20
6.02098e-21
2.25849e-22
8.7533e-22
1.86765e-21
3.43984e-21
5.93614e-21
9.9053e-21
1.62379e-20
2.64105e-20
4.28816e-20
6.91848e-20
1.12195e-19
1.84946e-19
3.12321e-19
5.42499e-19
9.6928e-19
1.77502e-18
3.31444e-18
6.28434e-18
1.21007e-17
2.37676e-17
4.78774e-17
9.90277e-17
2.08886e-16
4.42825e-16
9.25476e-16
1.84329e-15
3.51213e-15
6.36107e-15
1.07084e-14
1.70608e-14
2.60477e-14
3.88675e-14
5.91099e-14
9.39424e-14
1.59117e-13
2.85951e-13
5.36476e-13
1.02957e-12
2.00023e-12
3.90829e-12
7.56557e-12
1.45459e-11
2.77071e-11
5.23195e-11
9.7146e-11
1.77467e-10
3.20587e-10
5.6069e-10
9.59218e-10
1.61483e-09
2.62705e-09
4.17735e-09
6.48593e-09
9.81164e-09
1.43745e-08
2.00782e-08
2.56515e-08
2.68182e-08
1.65404e-08
9.31662e-09
5.49829e-09
3.68194e-09
3.27535e-09
3.97164e-09
5.06485e-09
5.31131e-09
4.50545e-09
3.20411e-09
1.98129e-09
1.10916e-09
5.67981e-10
2.61432e-10
1.06579e-10
3.87727e-11
1.19979e-11
3.3582e-12
8.86538e-13
2.3426e-13
6.62072e-14
2.11268e-14
7.79004e-15
3.28293e-15
1.53194e-15
7.64077e-16
3.95754e-16
2.08703e-16
1.10714e-16
5.86819e-17
3.09686e-17
1.62466e-17
8.46776e-18
4.38399e-18
2.25417e-18
1.15032e-18
5.8143e-19
2.89673e-19
1.40652e-19
6.47835e-20
2.62261e-20
6.03963e-21
2.25901e-22
8.75529e-22
1.86807e-21
3.44059e-21
5.93742e-21
9.90739e-21
1.62413e-20
2.64159e-20
4.28935e-20
6.9209e-20
1.1224e-19
1.85027e-19
3.12471e-19
5.42783e-19
9.69819e-19
1.77604e-18
3.31632e-18
6.28774e-18
1.21068e-17
2.37786e-17
4.78975e-17
9.90636e-17
2.08945e-16
4.429e-16
9.25498e-16
1.84302e-15
3.51096e-15
6.35783e-15
1.07006e-14
1.70449e-14
2.60176e-14
3.88138e-14
5.90117e-14
9.37534e-14
1.58731e-13
2.85134e-13
5.34695e-13
1.02573e-12
1.99203e-12
3.89096e-12
7.53005e-12
1.44745e-11
2.75667e-11
5.20515e-11
9.66367e-11
1.76522e-10
3.18927e-10
5.57736e-10
9.5414e-10
1.60649e-09
2.61333e-09
4.15539e-09
6.45171e-09
9.75991e-09
1.42997e-08
1.99781e-08
2.55414e-08
2.67493e-08
1.66246e-08
9.36093e-09
5.51881e-09
3.68358e-09
3.25962e-09
3.93849e-09
5.02767e-09
5.28691e-09
4.49643e-09
3.20518e-09
1.9857e-09
1.11334e-09
5.71114e-10
2.63414e-10
1.0762e-10
3.92331e-11
1.21639e-11
3.40996e-12
9.00798e-13
2.37946e-13
6.71631e-14
2.13922e-14
7.87282e-15
3.31254e-15
1.54405e-15
7.69593e-16
3.98463e-16
2.10093e-16
1.11442e-16
5.90665e-17
3.11718e-17
1.63533e-17
8.52325e-18
4.41258e-18
2.26878e-18
1.15773e-18
5.85156e-19
2.91522e-19
1.41548e-19
6.51957e-20
2.6393e-20
6.07808e-21
2.25987e-22
8.75856e-22
1.86875e-21
3.44184e-21
5.93955e-21
9.9109e-21
1.6247e-20
2.64251e-20
4.29133e-20
6.92486e-20
1.12313e-19
1.8516e-19
3.12718e-19
5.43249e-19
9.70711e-19
1.77775e-18
3.31946e-18
6.29353e-18
1.21172e-17
2.37976e-17
4.79331e-17
9.91299e-17
2.09059e-16
4.43063e-16
9.25636e-16
1.84284e-15
3.50959e-15
6.35365e-15
1.069e-14
1.7023e-14
2.59752e-14
3.87368e-14
5.88702e-14
9.34806e-14
1.58172e-13
2.83936e-13
5.3209e-13
1.0201e-12
1.98005e-12
3.86562e-12
7.47804e-12
1.43701e-11
2.73605e-11
5.16555e-11
9.5884e-11
1.75128e-10
3.16475e-10
5.53387e-10
9.46641e-10
1.59419e-09
2.59312e-09
4.12308e-09
6.40143e-09
9.68399e-09
1.41905e-08
1.98342e-08
2.53871e-08
2.66673e-08
1.67755e-08
9.44278e-09
5.55771e-09
3.69037e-09
3.23907e-09
3.88985e-09
4.9715e-09
5.24972e-09
4.4827e-09
3.20667e-09
1.99231e-09
1.11965e-09
5.75865e-10
2.6645e-10
1.09219e-10
3.99447e-11
1.24249e-11
3.49132e-12
9.23359e-13
2.43816e-13
6.86913e-14
2.1817e-14
8.00516e-15
3.35984e-15
1.56336e-15
7.78381e-16
4.02771e-16
2.12298e-16
1.12593e-16
5.96691e-17
3.1486e-17
1.65164e-17
8.6077e-18
4.45615e-18
2.29114e-18
1.16912e-18
5.90897e-19
2.94375e-19
1.42932e-19
6.58324e-20
2.66508e-20
6.13746e-21
2.26113e-22
8.76341e-22
1.86978e-21
3.44371e-21
5.94274e-21
9.91618e-21
1.62555e-20
2.6439e-20
4.29424e-20
6.93058e-20
1.12418e-19
1.8535e-19
3.13068e-19
5.43908e-19
9.71964e-19
1.78012e-18
3.32395e-18
6.30186e-18
1.21327e-17
2.38269e-17
4.79892e-17
9.92338e-17
2.09246e-16
4.43364e-16
9.25994e-16
1.84293e-15
3.50839e-15
6.3492e-15
1.06776e-14
1.69961e-14
2.59224e-14
3.86404e-14
5.86928e-14
9.31402e-14
1.57473e-13
2.82446e-13
5.28822e-13
1.01305e-12
1.96485e-12
3.83337e-12
7.41172e-12
1.42357e-11
2.70939e-11
5.11415e-11
9.49024e-11
1.73301e-10
3.13253e-10
5.47687e-10
9.36894e-10
1.57828e-09
2.56716e-09
4.08188e-09
6.33781e-09
9.58934e-09
1.40554e-08
1.9658e-08
2.52047e-08
2.65901e-08
1.70013e-08
9.56998e-09
5.62157e-09
3.70679e-09
3.21597e-09
3.82729e-09
4.89783e-09