/*--------------------------------*- C++ -*----------------------------------*\
  =========                 |
  \\      /  F ield         | OpenFOAM: The Open Source CFD Toolbox
   \\    /   O peration     | Website:  https://openfoam.org
    \\  /    A nd           | Version:  10
     \\/     M anipulation  |
\*---------------------------------------------------------------------------*/
FoamFile
{
    format      ascii;
    class       volScalarField;
    location    "1";
    object      NH3;
}
// * * * * * * * * * * * * * * * * * * * * * * * * * * * * * * * * * * * * * //

dimensions      [0 0 0 0 0 0 0];

internalField   nonuniform List<scalar> 
4000
(
1.56135e-10
6.04953e-10
1.28974e-09
2.37133e-09
4.0784e-09
6.76368e-09
1.09701e-08
1.75263e-08
2.76845e-08
4.27973e-08
6.49944e-08
9.7387e-08
1.442e-07
2.10941e-07
3.04519e-07
4.33215e-07
6.0624e-07
8.33032e-07
1.12227e-06
1.48077e-06
1.91248e-06
2.41782e-06
2.99361e-06
3.63733e-06
4.33754e-06
5.06937e-06
5.83977e-06
6.65196e-06
7.47203e-06
8.30964e-06
9.14212e-06
9.97223e-06
1.07901e-05
1.15867e-05
1.23578e-05
1.31005e-05
1.38128e-05
1.44938e-05
1.51421e-05
1.57579e-05
1.63458e-05
1.68979e-05
1.74195e-05
1.7913e-05
1.83754e-05
1.88144e-05
1.92178e-05
1.9597e-05
1.99321e-05
2.02281e-05
2.04518e-05
2.05812e-05
2.05718e-05
2.03541e-05
1.98237e-05
1.88254e-05
1.7131e-05
1.4413e-05
1.03074e-05
5.6775e-06
3.12591e-06
1.707e-06
9.19773e-07
4.86662e-07
2.49776e-07
1.25249e-07
6.10359e-08
2.92731e-08
1.42426e-08
8.02978e-09
5.25987e-09
3.80226e-09
2.88655e-09
2.23048e-09
1.71967e-09
1.30561e-09
9.51122e-10
6.66772e-10
4.47431e-10
2.86976e-10
1.76363e-10
1.04409e-10
5.99344e-11
3.35656e-11
1.84325e-11
9.96343e-12
5.3156e-12
2.80407e-12
1.46729e-12
7.62257e-13
3.93442e-13
2.01883e-13
1.02997e-13
5.22171e-14
2.62564e-14
1.30303e-14
6.30992e-15
2.90111e-15
1.17322e-15
2.70106e-16
1.56149e-10
6.05023e-10
1.29002e-09
2.37234e-09
4.08126e-09
6.77028e-09
1.09831e-08
1.75484e-08
2.77162e-08
4.28461e-08
6.50454e-08
9.73981e-08
1.44083e-07
2.10515e-07
3.03456e-07
4.30948e-07
6.01787e-07
8.25358e-07
1.11039e-06
1.46387e-06
1.89014e-06
2.39037e-06
2.96253e-06
3.59747e-06
4.291e-06
5.01687e-06
5.78206e-06
6.59272e-06
7.41104e-06
8.25004e-06
9.08613e-06
9.92066e-06
1.07411e-05
1.15416e-05
1.23159e-05
1.30614e-05
1.3776e-05
1.44596e-05
1.51095e-05
1.57265e-05
1.63154e-05
1.68676e-05
1.73884e-05
1.78806e-05
1.83406e-05
1.87773e-05
1.91787e-05
1.95535e-05
1.98846e-05
2.01746e-05
2.03901e-05
2.05115e-05
2.04911e-05
2.02593e-05
1.97089e-05
1.86828e-05
1.69497e-05
1.41792e-05
1.0007e-05
5.50985e-06
3.03015e-06
1.65225e-06
8.88507e-07
4.68884e-07
2.40075e-07
1.20001e-07
5.82424e-08
2.79213e-08
1.36708e-08
7.80606e-09
5.15952e-09
3.74694e-09
2.84645e-09
2.19592e-09
1.68548e-09
1.27126e-09
9.20931e-10
6.41909e-10
4.28564e-10
2.73907e-10
1.68108e-10
9.96246e-11
5.73623e-11
3.22688e-11
1.7814e-11
9.68363e-12
5.19747e-12
2.76074e-12
1.45095e-12
7.55826e-13
3.90747e-13
2.00657e-13
1.02384e-13
5.18744e-14
2.60699e-14
1.29304e-14
6.25762e-15
2.87584e-15
1.16276e-15
2.67647e-16
1.56429e-10
6.06167e-10
1.29272e-09
2.37787e-09
4.09173e-09
6.78885e-09
1.10139e-08
1.75955e-08
2.77806e-08
4.29321e-08
6.51369e-08
9.7454e-08
1.44033e-07
2.1019e-07
3.02554e-07
4.28934e-07
5.98199e-07
8.19473e-07
1.10122e-06
1.45023e-06
1.8707e-06
2.36366e-06
2.92826e-06
3.5584e-06
4.2469e-06
4.96864e-06
5.73187e-06
6.5386e-06
7.35474e-06
8.19401e-06
9.02738e-06
9.85973e-06
1.0679e-05
1.14819e-05
1.22589e-05
1.3007e-05
1.37242e-05
1.44104e-05
1.50622e-05
1.56808e-05
1.62707e-05
1.68233e-05
1.73436e-05
1.7834e-05
1.8293e-05
1.87264e-05
1.9123e-05
1.9492e-05
1.98139e-05
2.00938e-05
2.02975e-05
2.0402e-05
2.03618e-05
2.01039e-05
1.95177e-05
1.84434e-05
1.66409e-05
1.37652e-05
9.46531e-06
5.21185e-06
2.86184e-06
1.55728e-06
8.34588e-07
4.38628e-07
2.23996e-07
1.11438e-07
5.38744e-08
2.58132e-08
1.28069e-08
7.45811e-09
5.00573e-09
3.65786e-09
2.78705e-09
2.1533e-09
1.63696e-09
1.23312e-09
8.89325e-10
6.17295e-10
4.10827e-10
2.62129e-10
1.60864e-10
9.54521e-11
5.50812e-11
3.10704e-11
1.72025e-11
9.37736e-12
5.0446e-12
2.68295e-12
1.41276e-12
7.37434e-13
3.81961e-13
1.96474e-13
1.00415e-13
5.09854e-14
2.56508e-14
1.2728e-14
6.1602e-15
2.83061e-15
1.14418e-15
2.63311e-16
1.5639e-10
6.06015e-10
1.29239e-09
2.37725e-09
4.09045e-09
6.78591e-09
1.10067e-08
1.75782e-08
2.77407e-08
4.28539e-08
6.49712e-08
9.7103e-08
1.43305e-07
2.08874e-07
3.00365e-07
4.25558e-07
5.93113e-07
8.12052e-07
1.0908e-06
1.43624e-06
1.85278e-06
2.34184e-06
2.90106e-06
3.52662e-06
4.21158e-06
4.92906e-06
5.68834e-06
6.4921e-06
7.3034e-06
8.13866e-06
8.969e-06
9.79931e-06
1.06177e-05
1.14209e-05
1.22008e-05
1.29508e-05
1.36701e-05
1.43586e-05
1.50121e-05
1.56318e-05
1.62224e-05
1.67746e-05
1.72945e-05
1.77852e-05
1.82415e-05
1.86705e-05
1.90617e-05
1.94231e-05
1.97371e-05
2.00062e-05
2.01967e-05
2.02834e-05
2.02178e-05
1.99242e-05
1.92916e-05
1.81483e-05
1.62442e-05
1.32207e-05
8.74184e-06
4.8184e-06
2.64453e-06
1.44054e-06
7.63358e-07
4.00025e-07
2.0389e-07
1.0095e-07
4.86041e-08
2.3333e-08
1.18487e-08
7.06159e-09
4.81159e-09
3.54706e-09
2.71104e-09
2.09111e-09
1.58998e-09
1.19327e-09
8.55171e-10
5.90159e-10
3.90881e-10
2.48555e-10
1.52263e-10
9.0327e-11
5.21757e-11
2.94861e-11
1.6364e-11
8.94372e-12
4.82425e-12
2.57248e-12
1.35793e-12
7.10398e-13
3.68676e-13
1.89943e-13
9.71839e-14
4.93644e-14
2.48491e-14
1.23377e-14
5.97488e-15
2.74698e-15
1.1109e-15
2.55719e-16
1.56095e-10
6.04871e-10
1.28994e-09
2.37264e-09
4.08218e-09
6.77116e-09
1.09802e-08
1.75295e-08
2.76507e-08
4.26852e-08
6.46787e-08
9.66183e-08
1.42546e-07
2.0768e-07
2.98506e-07
4.22715e-07
5.8888e-07
8.05946e-07
1.08232e-06
1.42492e-06
1.83831e-06
2.32417e-06
2.88044e-06
3.50161e-06
4.18085e-06
4.89188e-06
5.64343e-06
6.4441e-06
7.25348e-06
8.08652e-06
8.91508e-06
9.74368e-06
1.05612e-05
1.13638e-05
1.21447e-05
1.28979e-05
1.36197e-05
1.43103e-05
1.49655e-05
1.55866e-05
1.61781e-05
1.67308e-05
1.72502e-05
1.77398e-05
1.81937e-05
1.86192e-05
1.90063e-05
1.93622e-05
1.96691e-05
1.99281e-05
2.01043e-05
2.01721e-05
2.00802e-05
1.97504e-05
1.90635e-05
1.78414e-05
1.58201e-05
1.26216e-05
7.93409e-06
4.37683e-06
2.40162e-06
1.30465e-06
6.88898e-07
3.59437e-07
1.82741e-07
9.01384e-08
4.3268e-08
2.07802e-08
1.08705e-08
6.65382e-09
4.61467e-09
3.43102e-09
2.62754e-09
2.02854e-09
1.55188e-09
1.14515e-09
8.18247e-10
5.62843e-10
3.71757e-10
2.35975e-10
1.4447e-10
8.57434e-11
4.95892e-11
2.80722e-11
1.56095e-11
8.54829e-12
4.61984e-12
2.4679e-12
1.30484e-12
6.83596e-13
3.55192e-13
1.83172e-13
9.37882e-14
4.76651e-14
2.40031e-14
1.19213e-14
5.77463e-15
2.65543e-15
1.07402e-15
2.47234e-16
1.55562e-10
6.02812e-10
1.28554e-09
2.36449e-09
4.06786e-09
6.74659e-09
1.09381e-08
1.74567e-08
2.75277e-08
4.24857e-08
6.43675e-08
9.61522e-08
1.41842e-07
2.0661e-07
2.96887e-07
4.20299e-07
5.85341e-07
8.00847e-07
1.0751e-06
1.41487e-06
1.82456e-06
2.30544e-06
2.85555e-06
3.47188e-06
4.14794e-06
4.85657e-06
5.6067e-06
6.40479e-06
7.21103e-06
8.0415e-06
8.86844e-06
9.69559e-06
1.05133e-05
1.1316e-05
1.20989e-05
1.28533e-05
1.35765e-05
1.42686e-05
1.4925e-05
1.55469e-05
1.61394e-05
1.66926e-05
1.7212e-05
1.77011e-05
1.81534e-05
1.85757e-05
1.89592e-05
1.93094e-05
1.961e-05
1.98607e-05
2.00264e-05
2.00804e-05
1.99688e-05
1.96085e-05
1.88745e-05
1.75799e-05
1.54458e-05
1.20735e-05
7.19746e-06
3.97705e-06
2.18418e-06
1.187e-06
6.26331e-07
3.26094e-07
1.65083e-07
8.10459e-08
3.87464e-08
1.87321e-08
1.00397e-08
6.29452e-09
4.43503e-09
3.32287e-09
2.55592e-09
1.97381e-09
1.50544e-09
1.10705e-09
7.87832e-10
5.39718e-10
3.55206e-10
2.24859e-10
1.37435e-10
8.15126e-11
4.7148e-11
2.67087e-11
1.48673e-11
8.15238e-12
4.41208e-12
2.36032e-12
1.24972e-12
6.55587e-13
3.41038e-13
1.76024e-13
9.01854e-14
4.58608e-14
2.3107e-14
1.14829e-14
5.56549e-15
2.56044e-15
1.03588e-15
2.38464e-16
1.54791e-10
5.99812e-10
1.27908e-09
2.35243e-09
4.04686e-09
6.71153e-09
1.08817e-08
1.73699e-08
2.73898e-08
4.22611e-08
6.40208e-08
9.56054e-08
1.40994e-07
2.05324e-07
2.94973e-07
4.17508e-07
5.81366e-07
7.95311e-07
1.06757e-06
1.40484e-06
1.81202e-06
2.29009e-06
2.83766e-06
3.45075e-06
4.12336e-06
4.82873e-06
5.57502e-06
6.3703e-06
7.17459e-06
8.00324e-06
8.82826e-06
9.65334e-06
1.04745e-05
1.12768e-05
1.20599e-05
1.28157e-05
1.35405e-05
1.42343e-05
1.48918e-05
1.55146e-05
1.61074e-05
1.66612e-05
1.71812e-05
1.76711e-05
1.81233e-05
1.85419e-05
1.8925e-05
1.92717e-05
1.95701e-05
1.98175e-05
1.99782e-05
2.0024e-05
1.98992e-05
1.9518e-05
1.87504e-05
1.74012e-05
1.51784e-05
1.1668e-05
6.69214e-06
3.69559e-06
2.02725e-06
1.09957e-06
5.78899e-07
3.00251e-07
1.51464e-07
7.41332e-08
3.55839e-08
1.70336e-08
9.36773e-09
6.01165e-09
4.29586e-09
3.24025e-09
2.49838e-09
1.92721e-09
1.46832e-09
1.0758e-09
7.62384e-10
5.20116e-10
3.41066e-10
2.15312e-10
1.31367e-10
7.78474e-11
4.50216e-11
2.55132e-11
1.42111e-11
7.79906e-12
4.22474e-12
2.26225e-12
1.19895e-12
6.2958e-13
3.27879e-13
1.6949e-13
8.69805e-14
4.42835e-14
2.23231e-14
1.10948e-14
5.37697e-15
2.47339e-15
1.00056e-15
2.30321e-16
1.53958e-10
5.96575e-10
1.27209e-09
2.33932e-09
4.02366e-09
6.67167e-09
1.08142e-08
1.72561e-08
2.72042e-08
4.19618e-08
6.35112e-08
9.47917e-08
1.39738e-07
2.03434e-07
2.92202e-07
4.13546e-07
5.75867e-07
7.8791e-07
1.05795e-06
1.39282e-06
1.79713e-06
2.27257e-06
2.81822e-06
3.42977e-06
4.0994e-06
4.80078e-06
5.54507e-06
6.33808e-06
7.13985e-06
7.96667e-06
8.79397e-06
9.61906e-06
1.04411e-05
1.12437e-05
1.20272e-05
1.27841e-05
1.35099e-05
1.42035e-05
1.48627e-05
1.54885e-05
1.6079e-05
1.66345e-05
1.71557e-05
1.76459e-05
1.80991e-05
1.85181e-05
1.89019e-05
1.9247e-05
1.95459e-05
1.97929e-05
1.9952e-05
1.99944e-05
1.98631e-05
1.94696e-05
1.86797e-05
1.7291e-05
1.5e-05
1.13836e-05
6.39584e-06
3.52296e-06
1.92662e-06
1.04133e-06
5.46592e-07
2.82353e-07
1.41699e-07
6.90389e-08
3.30587e-08
1.59234e-08
8.93977e-09
5.84015e-09
4.21219e-09
3.19177e-09
2.46313e-09
1.8964e-09
1.43921e-09
1.05016e-09
7.41016e-10
5.03464e-10
3.28987e-10
2.0714e-10
1.26166e-10
7.46959e-11
4.31843e-11
2.44732e-11
1.36359e-11
7.48669e-12
4.05765e-12
2.17398e-12
1.1528e-12
6.05657e-13
3.15544e-13
1.63141e-13
8.37342e-14
4.26532e-14
2.15277e-14
1.07092e-14
5.19257e-15
2.38905e-15
9.66565e-16
2.22509e-16
1.53214e-10
5.93695e-10
1.26593e-09
2.32789e-09
4.00373e-09
6.63797e-09
1.07582e-08
1.71641e-08
2.70553e-08
4.17021e-08
6.31064e-08
9.41745e-08
1.38819e-07
2.02092e-07
2.90273e-07
4.1083e-07
5.72135e-07
7.82917e-07
1.05147e-06
1.38496e-06
1.78724e-06
2.26114e-06
2.80409e-06
3.41204e-06
4.08002e-06
4.78022e-06
5.52239e-06
6.3128e-06
7.11292e-06
7.93697e-06
8.77005e-06
9.59312e-06
1.04146e-05
1.12168e-05
1.20004e-05
1.27582e-05
1.34848e-05
1.4179e-05
1.48391e-05
1.54662e-05
1.60568e-05
1.66127e-05
1.7134e-05
1.76249e-05
1.80787e-05
1.84986e-05
1.88828e-05
1.92284e-05
1.95283e-05
1.97762e-05
1.9936e-05
1.99775e-05
1.98424e-05
1.94397e-05
1.86313e-05
1.7208e-05
1.48561e-05
1.11477e-05
6.201e-06
3.40795e-06
1.8587e-06
1.00111e-06
5.24892e-07
2.69965e-07
1.34853e-07
6.53869e-08
3.12679e-08
1.51858e-08
8.67191e-09
5.7425e-09
4.17216e-09
3.17186e-09
2.45175e-09
1.86507e-09
1.4141e-09
1.02934e-09
7.24172e-10
4.9052e-10
3.19639e-10
2.00789e-10
1.2208e-10
7.21842e-11
4.16958e-11
2.36165e-11
1.31543e-11
7.22115e-12
3.91361e-12
2.09696e-12
1.11211e-12
5.84374e-13
3.04495e-13
1.57432e-13
8.08057e-14
4.11653e-14
2.07746e-14
1.03366e-14
5.014e-15
2.30785e-15
9.33944e-16
2.15033e-16
1.52602e-10
5.91349e-10
1.26098e-09
2.31886e-09
3.98824e-09
6.61215e-09
1.07156e-08
1.7094e-08
2.6938e-08
4.15045e-08
6.27878e-08
9.36764e-08
1.38059e-07
2.00962e-07
2.88641e-07
4.08533e-07
5.68973e-07
7.78652e-07
1.04586e-06
1.37753e-06
1.77857e-06
2.24988e-06
2.79097e-06
3.39824e-06
4.06446e-06
4.76299e-06
5.5037e-06
6.29242e-06
7.09164e-06
7.91482e-06
8.74827e-06
9.57094e-06
1.03922e-05
1.11943e-05
1.19777e-05
1.27356e-05
1.34637e-05
1.41585e-05
1.48191e-05
1.5447e-05
1.60378e-05
1.65939e-05
1.71157e-05
1.7607e-05
1.80612e-05
1.84814e-05
1.88663e-05
1.92125e-05
1.95131e-05
1.97614e-05
1.99209e-05
1.99607e-05
1.9821e-05
1.94088e-05
1.85816e-05
1.71241e-05
1.4713e-05
1.09184e-05
6.03991e-06
3.3138e-06
1.80286e-06
9.67375e-07
5.07555e-07
2.60041e-07
1.29363e-07
6.24829e-08
2.98495e-08
1.46488e-08
8.48954e-09
5.68206e-09
4.14929e-09
3.15932e-09
2.4402e-09
1.85141e-09
1.39953e-09
1.01504e-09
7.11403e-10
4.80076e-10
3.11765e-10
1.95268e-10
1.18441e-10
6.99069e-11
4.0328e-11
2.28215e-11
1.27043e-11
6.97185e-12
3.77805e-12
2.02436e-12
1.07374e-12
5.64305e-13
2.94072e-13
1.52044e-13
7.80485e-14
3.97664e-14
2.00764e-14
9.99341e-15
4.84913e-15
2.23247e-15
9.03566e-16
2.08062e-16
1.51993e-10
5.88987e-10
1.25592e-09
2.30951e-09
3.97208e-09
6.58535e-09
1.06726e-08
1.70271e-08
2.68385e-08
4.13469e-08
6.25439e-08
9.33013e-08
1.37472e-07
2.00062e-07
2.87299e-07
4.06607e-07
5.6632e-07
7.75123e-07
1.0414e-06
1.37171e-06
1.77086e-06
2.24079e-06
2.78052e-06
3.38595e-06
4.05118e-06
4.74858e-06
5.48825e-06
6.27567e-06
7.07417e-06
7.89651e-06
8.72975e-06
9.55214e-06
1.03736e-05
1.11756e-05
1.19592e-05
1.27177e-05
1.34463e-05
1.4141e-05
1.48018e-05
1.54302e-05
1.60211e-05
1.65772e-05
1.70989e-05
1.759e-05
1.8044e-05
1.8464e-05
1.88487e-05
1.91946e-05
1.94947e-05
1.97418e-05
1.98996e-05
1.99362e-05
1.97905e-05
1.93671e-05
1.85208e-05
1.70313e-05
1.45694e-05
1.07111e-05
5.87038e-06
3.21912e-06
1.74963e-06
9.37093e-07
4.91947e-07
2.50471e-07
1.24267e-07
5.98636e-08
2.85871e-08
1.42085e-08
8.34277e-09
5.63418e-09
4.13123e-09
3.14886e-09
2.43003e-09
1.84316e-09
1.3894e-09
1.00413e-09
7.01087e-10
4.71276e-10
3.04933e-10
1.90391e-10
1.15198e-10
6.78668e-11
3.90988e-11
2.21054e-11
1.22982e-11
6.74658e-12
3.65535e-12
1.95856e-12
1.03894e-12
5.46168e-13
2.84806e-13
1.47417e-13
7.57617e-14
3.8634e-14
1.95059e-14
9.70678e-15
4.70882e-15
2.16751e-15
8.77178e-16
2.01981e-16
1.51457e-10
5.86916e-10
1.25151e-09
2.30136e-09
3.95798e-09
6.56176e-09
1.06339e-08
1.69644e-08
2.67321e-08
4.1173e-08
6.22787e-08
9.29196e-08
1.36955e-07
1.99341e-07
2.86263e-07
4.05069e-07
5.6412e-07
7.72135e-07
1.03735e-06
1.36679e-06
1.7648e-06
2.2336e-06
2.77235e-06
3.37664e-06
4.04063e-06
4.7369e-06
5.47563e-06
6.26193e-06
7.05981e-06
7.88139e-06
8.71438e-06
9.5365e-06
1.03577e-05
1.11598e-05
1.19434e-05
1.27019e-05
1.34307e-05
1.41252e-05
1.47856e-05
1.54137e-05
1.60042e-05
1.656e-05
1.70814e-05
1.75719e-05
1.80251e-05
1.84442e-05
1.88278e-05
1.91723e-05
1.94705e-05
1.97149e-05
1.98687e-05
1.98994e-05
1.97445e-05
1.93071e-05
1.84381e-05
1.69126e-05
1.43925e-05
1.04559e-05
5.72947e-06
3.13857e-06
1.70351e-06
9.10757e-07
4.76979e-07
2.42681e-07
1.20039e-07
5.76535e-08
2.75257e-08
1.3846e-08
8.22158e-09
5.59314e-09
4.11426e-09
3.13765e-09
2.41849e-09
1.83621e-09
1.38061e-09
9.94503e-10
6.91871e-10
4.63478e-10
2.98959e-10
1.86172e-10
1.12407e-10
6.61141e-11
3.80427e-11
2.14894e-11
1.19481e-11
6.55193e-12
3.549e-12
1.90124e-12
1.00827e-12
5.29886e-13
2.76274e-13
1.4304e-13
7.35173e-14
3.74954e-14
1.8942e-14
9.43175e-15
4.57744e-15
2.10762e-15
8.53072e-16
1.96445e-16
1.51001e-10
5.85155e-10
1.24776e-09
2.29445e-09
3.94605e-09
6.54188e-09
1.06015e-08
1.69124e-08
2.66428e-08
4.10251e-08
6.2046e-08
9.25648e-08
1.36422e-07
1.98583e-07
2.85235e-07
4.03756e-07
5.62362e-07
7.69733e-07
1.03415e-06
1.36251e-06
1.75969e-06
2.22767e-06
2.76512e-06
3.36858e-06
4.03165e-06
4.72719e-06
5.46524e-06
6.25065e-06
7.04801e-06
7.86893e-06
8.70164e-06
9.52348e-06
1.03446e-05
1.11463e-05
1.19292e-05
1.26876e-05
1.34164e-05
1.41106e-05
1.47705e-05
1.53985e-05
1.59883e-05
1.6543e-05
1.7063e-05
1.75518e-05
1.80035e-05
1.84211e-05
1.88029e-05
1.91454e-05
1.9441e-05
1.96812e-05
1.98301e-05
1.9854e-05
1.96888e-05
1.92358e-05
1.83434e-05
1.67817e-05
1.42085e-05
1.02035e-05
5.59523e-06
3.06347e-06
1.66115e-06
8.86832e-07
4.63457e-07
2.3568e-07
1.16287e-07
5.57308e-08
2.66117e-08
1.35352e-08
8.11288e-09
5.55274e-09
4.09478e-09
3.12406e-09
2.40555e-09
1.82828e-09
1.37133e-09
9.84978e-10
6.83145e-10
4.56252e-10
2.93487e-10
1.82335e-10
1.09883e-10
6.45371e-11
3.7096e-11
2.0939e-11
1.16364e-11
6.37927e-12
3.45532e-12
1.85154e-12
9.82709e-13
5.16988e-13
2.69677e-13
1.39624e-13
7.17636e-14
3.6599e-14
1.84844e-14
9.20253e-15
4.46581e-15
2.0561e-15
8.32186e-16
1.91633e-16
1.50621e-10
5.8369e-10
1.24464e-09
2.28873e-09
3.93621e-09
6.52554e-09
1.0575e-08
1.68703e-08
2.65694e-08
4.09029e-08
6.18539e-08
9.2274e-08
1.35992e-07
1.97958e-07
2.84344e-07
4.02504e-07
5.60723e-07
7.67661e-07
1.03153e-06
1.3592e-06
1.75558e-06
2.22267e-06
2.75952e-06
3.36219e-06
4.02457e-06
4.7194e-06
5.45685e-06
6.24153e-06
7.03837e-06
7.85867e-06
8.69102e-06
9.51242e-06
1.03331e-05
1.11343e-05
1.19171e-05
1.26752e-05
1.34037e-05
1.40972e-05
1.47565e-05
1.53834e-05
1.5972e-05
1.65255e-05
1.70443e-05
1.75315e-05
1.79815e-05
1.8397e-05
1.8777e-05
1.91165e-05
1.94083e-05
1.96439e-05
1.97874e-05
1.98036e-05
1.9628e-05
1.916e-05
1.82454e-05
1.66516e-05
1.40303e-05
9.96383e-06
5.46841e-06
2.99327e-06
1.62211e-06
8.6453e-07
4.50952e-07
2.28961e-07
1.12734e-07
5.39279e-08
2.5756e-08
1.32374e-08
8.00266e-09
5.50623e-09
4.07035e-09
3.10683e-09
2.39031e-09
1.81879e-09
1.36127e-09
9.75077e-10
6.74396e-10
4.492e-10
2.88258e-10
1.78731e-10
1.07545e-10
6.30912e-11
3.62357e-11
2.04423e-11
1.13565e-11
6.22461e-12
3.37124e-12
1.80641e-12
9.58665e-13
5.04389e-13
2.63347e-13
1.36426e-13
7.01394e-14
3.57667e-14
1.80653e-14
8.99459e-15
4.36518e-15
2.00987e-15
8.13492e-16
1.8733e-16
1.5031e-10
5.82488e-10
1.24209e-09
2.28404e-09
3.92814e-09
6.51218e-09
1.05534e-08
1.6836e-08
2.65095e-08
4.08032e-08
6.16978e-08
9.20385e-08
1.35645e-07
1.97457e-07
2.83635e-07
4.0152e-07
5.59399e-07
7.65843e-07
1.02924e-06
1.35651e-06
1.75235e-06
2.21884e-06
2.75499e-06
3.35701e-06
4.01881e-06
4.71307e-06
5.44996e-06
6.23391e-06
7.03047e-06
7.85036e-06
8.68243e-06
9.50359e-06
1.0324e-05
1.11247e-05
1.19071e-05
1.26646e-05
1.33925e-05
1.40852e-05
1.47433e-05
1.53692e-05
1.59564e-05
1.65084e-05
1.70252e-05
1.751e-05
1.79574e-05
1.83698e-05
1.87532e-05
1.90883e-05
1.93756e-05
1.96059e-05
1.97435e-05
1.97524e-05
1.95671e-05
1.90858e-05
1.81528e-05
1.65312e-05
1.38693e-05
9.75357e-06
5.35678e-06
2.93303e-06
1.59241e-06
8.39503e-07
4.37765e-07
2.22103e-07
1.09253e-07
5.22186e-08
2.49658e-08
1.2958e-08
7.89159e-09
5.45549e-09
4.0418e-09
3.08725e-09
2.37407e-09
1.80832e-09
1.34942e-09
9.63808e-10
6.64951e-10
4.41949e-10
2.83094e-10
1.75283e-10
1.05362e-10
6.17684e-11
3.54604e-11
1.99998e-11
1.11093e-11
6.08885e-12
3.29773e-12
1.76704e-12
9.37743e-13
4.93304e-13
2.57437e-13
1.33346e-13
6.85688e-14
3.49853e-14
1.76786e-14
8.80517e-15
4.27441e-15
1.96844e-15
7.96814e-16
1.83499e-16
1.50058e-10
5.81518e-10
1.24002e-09
2.28024e-09
3.92159e-09
6.50128e-09
1.05356e-08
1.68076e-08
2.64609e-08
4.0723e-08
6.15728e-08
9.18505e-08
1.35369e-07
1.97059e-07
2.83071e-07
4.0074e-07
5.58317e-07
7.64452e-07
1.02742e-06
1.35422e-06
1.74966e-06
2.21566e-06
2.75132e-06
3.35287e-06
4.01422e-06
4.70807e-06
5.44461e-06
6.22805e-06
7.02418e-06
7.84351e-06
8.6753e-06
9.49606e-06
1.03161e-05
1.11166e-05
1.18985e-05
1.26554e-05
1.33826e-05
1.40744e-05
1.47316e-05
1.53565e-05
1.59425e-05
1.64929e-05
1.7008e-05
1.74909e-05
1.79362e-05
1.83465e-05
1.87275e-05
1.90599e-05
1.93439e-05
1.95698e-05
1.97023e-05
1.97049e-05
1.95113e-05
1.90184e-05
1.80688e-05
1.64237e-05
1.37271e-05
9.56737e-06
5.25765e-06
2.8781e-06
1.56173e-06
8.2281e-07
4.28471e-07
2.17078e-07
1.0662e-07
5.09008e-08
2.4352e-08
1.27369e-08
7.80069e-09
5.41179e-09
4.0168e-09
3.07102e-09
2.36315e-09
1.80299e-09
1.32843e-09
9.49363e-10
6.54789e-10
4.34929e-10
2.78397e-10
1.72261e-10
1.03492e-10
6.06487e-11
3.48086e-11
1.96291e-11
1.09024e-11
5.97536e-12
3.23636e-12
1.73427e-12
9.20417e-13
4.84223e-13
2.52713e-13
1.30909e-13
6.73218e-14
3.43539e-14
1.73623e-14
8.64895e-15
4.19911e-15
1.93395e-15
7.82891e-16
1.8029e-16
1.49864e-10
5.80768e-10
1.23842e-09
2.27731e-09
3.91655e-09
6.49292e-09
1.05221e-08
1.67861e-08
2.64236e-08
4.06611e-08
6.1476e-08
9.17052e-08
1.35156e-07
1.96752e-07
2.82639e-07
4.00145e-07
5.57506e-07
7.63382e-07
1.02604e-06
1.35248e-06
1.74751e-06
2.21318e-06
2.74849e-06
3.34967e-06
4.01069e-06
4.70421e-06
5.44041e-06
6.2235e-06
7.01938e-06
7.83839e-06
8.66989e-06
9.49035e-06
1.03101e-05
1.11102e-05
1.18916e-05
1.2648e-05
1.33746e-05
1.40658e-05
1.47221e-05
1.53461e-05
1.5931e-05
1.64801e-05
1.69938e-05
1.74748e-05
1.79183e-05
1.83265e-05
1.8705e-05
1.90349e-05
1.93159e-05
1.9538e-05
1.96663e-05
1.96634e-05
1.94627e-05
1.89604e-05
1.79973e-05
1.63326e-05
1.36067e-05
9.40928e-06
5.17373e-06
2.83163e-06
1.53577e-06
8.09139e-07
4.21037e-07
2.13107e-07
1.04566e-07
4.98842e-08
2.38861e-08
1.25576e-08
7.72498e-09
5.37405e-09
3.99411e-09
3.0551e-09
2.35054e-09
1.79201e-09
1.31799e-09
9.40422e-10
6.47685e-10
4.29641e-10
2.74719e-10
1.69851e-10
1.01988e-10
5.97466e-11
3.4284e-11
1.93314e-11
1.07369e-11
5.88486e-12
3.18755e-12
1.70825e-12
9.06679e-13
4.77042e-13
2.48995e-13
1.29e-13
6.635e-14
3.38625e-14
1.7116e-14
8.52708e-15
4.14025e-15
1.90693e-15
7.71975e-16
1.77779e-16
1.49722e-10
5.80222e-10
1.23727e-09
2.27518e-09
3.91289e-09
6.48686e-09
1.05123e-08
1.67705e-08
2.63964e-08
4.06157e-08
6.14049e-08
9.1598e-08
1.34998e-07
1.96524e-07
2.82314e-07
3.99687e-07
5.56892e-07
7.6257e-07
1.02502e-06
1.35122e-06
1.74598e-06
2.21134e-06
2.74637e-06
3.34732e-06
4.0081e-06
4.70139e-06
5.43741e-06
6.22021e-06
7.0159e-06
7.83466e-06
8.66596e-06
9.48618e-06
1.03057e-05
1.11055e-05
1.18865e-05
1.26424e-05
1.33686e-05
1.40591e-05
1.47148e-05
1.5338e-05
1.59219e-05
1.647e-05
1.69825e-05
1.74621e-05
1.79042e-05
1.83107e-05
1.8687e-05
1.90148e-05
1.92935e-05
1.95126e-05
1.96375e-05
1.96305e-05
1.94243e-05
1.89146e-05
1.79415e-05
1.6262e-05
1.35139e-05
9.28847e-06
5.10873e-06
2.79564e-06
1.51572e-06
7.98617e-07
4.15341e-07
2.10097e-07
1.03016e-07
4.9121e-08
2.35425e-08
1.24171e-08
7.66473e-09
5.34334e-09
3.97525e-09
3.04163e-09
2.33991e-09
1.78306e-09
1.31029e-09
9.34105e-10
6.42731e-10
4.25965e-10
2.72148e-10
1.6815e-10
1.00916e-10
5.90979e-11
3.3904e-11
1.91145e-11
1.06158e-11
5.8184e-12
3.15168e-12
1.68918e-12
8.96693e-13
4.71858e-13
2.46317e-13
1.27623e-13
6.56454e-14
3.35048e-14
1.69361e-14
8.4379e-15
4.09711e-15
1.88711e-15
7.63959e-16
1.75934e-16
1.49632e-10
5.79873e-10
1.23652e-09
2.27382e-09
3.91055e-09
6.48299e-09
1.0506e-08
1.67606e-08
2.63789e-08
4.05865e-08
6.13592e-08
9.15291e-08
1.34897e-07
1.96378e-07
2.82108e-07
3.99402e-07
5.56509e-07
7.62066e-07
1.02438e-06
1.35042e-06
1.74501e-06
2.21019e-06
2.74503e-06
3.34581e-06
4.00643e-06
4.69958e-06
5.43545e-06
6.21805e-06
7.01358e-06
7.83217e-06
8.66332e-06
9.48341e-06
1.03027e-05
1.11023e-05
1.1883e-05
1.26386e-05
1.33645e-05
1.40546e-05
1.47098e-05
1.53323e-05
1.59156e-05
1.64629e-05
1.69746e-05
1.74532e-05
1.78943e-05
1.82997e-05
1.86746e-05
1.90009e-05
1.9278e-05
1.94951e-05
1.96177e-05
1.9608e-05
1.93983e-05
1.88838e-05
1.7904e-05
1.62148e-05
1.34523e-05
9.20871e-06
5.0646e-06
2.77121e-06
1.50217e-06
7.91512e-07
4.11513e-07
2.08078e-07
1.01983e-07
4.86155e-08
2.33133e-08
1.23224e-08
7.62338e-09
5.32188e-09
3.96197e-09
3.0322e-09
2.33253e-09
1.77696e-09
1.30521e-09
9.29948e-10
6.39521e-10
4.23609e-10
2.70506e-10
1.6706e-10
1.00227e-10
5.86792e-11
3.3658e-11
1.89738e-11
1.0537e-11
5.7751e-12
3.12823e-12
1.67664e-12
8.90047e-13
4.68377e-13
2.44514e-13
1.26699e-13
6.51757e-14
3.32677e-14
1.68174e-14
8.3792e-15
4.06876e-15
1.87409e-15
7.58697e-16
1.74722e-16
1.49588e-10
5.79703e-10
1.23616e-09
2.27315e-09
3.90942e-09
6.48112e-09
1.0503e-08
1.67558e-08
2.63705e-08
4.05725e-08
6.13372e-08
9.14961e-08
1.34848e-07
1.96308e-07
2.82009e-07
3.99266e-07
5.56325e-07
7.61824e-07
1.02406e-06
1.35002e-06
1.74453e-06
2.20962e-06
2.74437e-06
3.34506e-06
4.0056e-06
4.69867e-06
5.43448e-06
6.21698e-06
7.01246e-06
7.83096e-06
8.66204e-06
9.48204e-06
1.03012e-05
1.11007e-05
1.18813e-05
1.26368e-05
1.33625e-05
1.40523e-05
1.47072e-05
1.53295e-05
1.59124e-05
1.64594e-05
1.69706e-05
1.74487e-05
1.78892e-05
1.82941e-05
1.86682e-05
1.89939e-05
1.92701e-05
1.94863e-05
1.96078e-05
1.95966e-05
1.93851e-05
1.88683e-05
1.78853e-05
1.61914e-05
1.34217e-05
9.16899e-06
5.04258e-06
2.759e-06
1.49538e-06
7.87937e-07
4.0959e-07
2.07064e-07
1.01466e-07
4.83634e-08
2.3201e-08
1.22756e-08
7.60272e-09
5.31101e-09
3.95519e-09
3.02739e-09
2.3288e-09
1.77392e-09
1.30273e-09
9.27948e-10
6.37976e-10
4.22485e-10
2.69727e-10
1.66545e-10
9.99006e-11
5.8481e-11
3.35415e-11
1.89072e-11
1.04997e-11
5.75456e-12
3.11709e-12
1.67067e-12
8.86885e-13
4.66718e-13
2.43653e-13
1.26256e-13
6.49491e-14
3.31528e-14
1.67597e-14
8.35058e-15
4.05491e-15
1.86772e-15
7.56118e-16
1.74128e-16
1.49588e-10
5.79705e-10
1.23617e-09
2.27316e-09
3.90944e-09
6.48114e-09
1.05031e-08
1.67559e-08
2.63706e-08
4.05726e-08
6.13374e-08
9.14963e-08
1.34848e-07
1.96309e-07
2.82009e-07
3.99267e-07
5.56326e-07
7.61825e-07
1.02407e-06
1.35003e-06
1.74453e-06
2.20962e-06
2.74438e-06
3.34507e-06
4.00561e-06
4.69869e-06
5.43449e-06
6.217e-06
7.01248e-06
7.83098e-06
8.66206e-06
9.48207e-06
1.03013e-05
1.11007e-05
1.18814e-05
1.26368e-05
1.33625e-05
1.40524e-05
1.47072e-05
1.53295e-05
1.59124e-05
1.64594e-05
1.69706e-05
1.74488e-05
1.78893e-05
1.82941e-05
1.86683e-05
1.89939e-05
1.92702e-05
1.94864e-05
1.96079e-05
1.95967e-05
1.93853e-05
1.88684e-05
1.78853e-05
1.61914e-05
1.34217e-05
9.16901e-06
5.04259e-06
2.75901e-06
1.49538e-06
7.8794e-07
4.09591e-07
2.07065e-07
1.01466e-07
4.83637e-08
2.3201e-08
1.22757e-08
7.60276e-09
5.31102e-09
3.95518e-09
3.02737e-09
2.32878e-09
1.77391e-09
1.30272e-09
9.27942e-10
6.37973e-10
4.22483e-10
2.69726e-10
1.66544e-10
9.99004e-11
5.84809e-11
3.35415e-11
1.89072e-11
1.04997e-11
5.75457e-12
3.11709e-12
1.67067e-12
8.86887e-13
4.66719e-13
2.43653e-13
1.26256e-13
6.49493e-14
3.31529e-14
1.67597e-14
8.3506e-15
4.05492e-15
1.86773e-15
7.5612e-16
1.74128e-16
1.49634e-10
5.79879e-10
1.23654e-09
2.27384e-09
3.9106e-09
6.48307e-09
1.05062e-08
1.67608e-08
2.63792e-08
4.05869e-08
6.13597e-08
9.15298e-08
1.34898e-07
1.96379e-07
2.82109e-07
3.99404e-07
5.56512e-07
7.6207e-07
1.02438e-06
1.35043e-06
1.74502e-06
2.2102e-06
2.74505e-06
3.34583e-06
4.00646e-06
4.69961e-06
5.43549e-06
6.2181e-06
7.01364e-06
7.83223e-06
8.66339e-06
9.48348e-06
1.03028e-05
1.11024e-05
1.18831e-05
1.26387e-05
1.33646e-05
1.40547e-05
1.47098e-05
1.53324e-05
1.59157e-05
1.6463e-05
1.69747e-05
1.74533e-05
1.78944e-05
1.82998e-05
1.86748e-05
1.90011e-05
1.92782e-05
1.94954e-05
1.96181e-05
1.96083e-05
1.93986e-05
1.88841e-05
1.79043e-05
1.62151e-05
1.34525e-05
9.20877e-06
5.06465e-06
2.77123e-06
1.50219e-06
7.91522e-07
4.11519e-07
2.08081e-07
1.01985e-07
4.86164e-08
2.33138e-08
1.23226e-08
7.62338e-09
5.32183e-09
3.96191e-09
3.03214e-09
2.33248e-09
1.77692e-09
1.30519e-09
9.29931e-10
6.39512e-10
4.23604e-10
2.70503e-10
1.67059e-10
1.00227e-10
5.86791e-11
3.36579e-11
1.89738e-11
1.0537e-11
5.77511e-12
3.12824e-12
1.67665e-12
8.90053e-13
4.6838e-13
2.44516e-13
1.267e-13
6.5176e-14
3.32678e-14
1.68174e-14
8.37921e-15
4.06877e-15
1.8741e-15
7.58699e-16
1.74723e-16
1.49725e-10
5.80232e-10
1.23729e-09
2.27521e-09
3.91295e-09
6.48695e-09
1.05125e-08
1.67707e-08
2.63967e-08
4.06161e-08
6.14055e-08
9.15988e-08
1.34999e-07
1.96526e-07
2.82317e-07
3.99691e-07
5.56898e-07
7.62578e-07
1.02503e-06
1.35123e-06
1.746e-06
2.21137e-06
2.7464e-06
3.34736e-06
4.00815e-06
4.70145e-06
5.43748e-06
6.22029e-06
7.01599e-06
7.83478e-06
8.66609e-06
9.48632e-06
1.03058e-05
1.11057e-05
1.18867e-05
1.26426e-05
1.33688e-05
1.40593e-05
1.4715e-05
1.53382e-05
1.59221e-05
1.64702e-05
1.69827e-05
1.74623e-05
1.79044e-05
1.8311e-05
1.86874e-05
1.90153e-05
1.92939e-05
1.95131e-05
1.9638e-05
1.9631e-05
1.94249e-05
1.89152e-05
1.7942e-05
1.62624e-05
1.35141e-05
9.28848e-06
5.10874e-06
2.79565e-06
1.51572e-06
7.98624e-07
4.15345e-07
2.101e-07
1.03018e-07
4.91225e-08
2.35431e-08
1.24172e-08
7.66465e-09
5.34321e-09
3.97513e-09
3.04152e-09
2.33983e-09
1.783e-09
1.31025e-09
9.34083e-10
6.42719e-10
4.25959e-10
2.72145e-10
1.68149e-10
1.00916e-10
5.90981e-11
3.39042e-11
1.91147e-11
1.06159e-11
5.81846e-12
3.15171e-12
1.6892e-12
8.96705e-13
4.71866e-13
2.46322e-13
1.27626e-13
6.56468e-14
3.35054e-14
1.69364e-14
8.43803e-15
4.09717e-15
1.88713e-15
7.63966e-16
1.75935e-16
1.49867e-10
5.80779e-10
1.23845e-09
2.27735e-09
3.91663e-09
6.49305e-09
1.05223e-08
1.67864e-08
2.64241e-08
4.06617e-08
6.14769e-08
9.17065e-08
1.35158e-07
1.96755e-07
2.82644e-07
4.00151e-07
5.57514e-07
7.63393e-07
1.02605e-06
1.3525e-06
1.74754e-06
2.21322e-06
2.74853e-06
3.34973e-06
4.01076e-06
4.7043e-06
5.44052e-06
6.22363e-06
7.01953e-06
7.83857e-06
8.67009e-06
9.49057e-06
1.03103e-05
1.11105e-05
1.18919e-05
1.26483e-05
1.3375e-05
1.40662e-05
1.47225e-05
1.53465e-05
1.59314e-05
1.64805e-05
1.69942e-05
1.74753e-05
1.79188e-05
1.8327e-05
1.87055e-05
1.90354e-05
1.93165e-05
1.95387e-05
1.96669e-05
1.96641e-05
1.94635e-05
1.89612e-05
1.79982e-05
1.63332e-05
1.36071e-05
9.40934e-06
5.17377e-06
2.83167e-06
1.53581e-06
8.09166e-07
4.21054e-07
2.13117e-07
1.04572e-07
4.98872e-08
2.38873e-08
1.25579e-08
7.72486e-09
5.37384e-09
3.99392e-09
3.05493e-09
2.35041e-09
1.79193e-09
1.31793e-09
9.40389e-10
6.47667e-10
4.29633e-10
2.74716e-10
1.6985e-10
1.01988e-10
5.97467e-11
3.42842e-11
1.93316e-11
1.0737e-11
5.88491e-12
3.18758e-12
1.70826e-12
9.06682e-13
4.77042e-13
2.48993e-13
1.28999e-13
6.63492e-14
3.3862e-14
1.71157e-14
8.52691e-15
4.14016e-15
1.90688e-15
7.71955e-16
1.77774e-16
1.50062e-10
5.81531e-10
1.24005e-09
2.28029e-09
3.92168e-09
6.50143e-09
1.05359e-08
1.6808e-08
2.64615e-08
4.07238e-08
6.15739e-08
9.18522e-08
1.35371e-07
1.97063e-07
2.83076e-07
4.00748e-07
5.58327e-07
7.64466e-07
1.02744e-06
1.35425e-06
1.74969e-06
2.21571e-06
2.75138e-06
3.35294e-06
4.01431e-06
4.70818e-06
5.44475e-06
6.22823e-06
7.02439e-06
7.8438e-06
8.67557e-06
9.49634e-06
1.03164e-05
1.11169e-05
1.18988e-05
1.26557e-05
1.3383e-05
1.40749e-05
1.47321e-05
1.53571e-05
1.59431e-05
1.64935e-05
1.70088e-05
1.74916e-05
1.7937e-05
1.83472e-05
1.87283e-05
1.90607e-05
1.93447e-05
1.95706e-05
1.97031e-05
1.97057e-05
1.95121e-05
1.90191e-05
1.80696e-05
1.64243e-05
1.37275e-05
9.56748e-06
5.25773e-06
2.87817e-06
1.56178e-06
8.2284e-07
4.28491e-07
2.1709e-07
1.06627e-07
5.09038e-08
2.43523e-08