/*--------------------------------*- C++ -*----------------------------------*\
  =========                 |
  \\      /  F ield         | OpenFOAM: The Open Source CFD Toolbox
   \\    /   O peration     | Website:  https://openfoam.org
    \\  /    A nd           | Version:  10
     \\/     M anipulation  |
\*---------------------------------------------------------------------------*/
FoamFile
{
    format      ascii;
    class       volScalarField;
    location    "1";
    object      NNH;
}
// * * * * * * * * * * * * * * * * * * * * * * * * * * * * * * * * * * * * * //

dimensions      [0 0 0 0 0 0 0];

internalField   nonuniform List<scalar> 
4000
(
9.87525e-33
7.52594e-32
2.98409e-31
9.65658e-31
2.8205e-30
7.79337e-30
2.09101e-29
5.54048e-29
1.46836e-28
3.84979e-28
1.01996e-27
2.80344e-27
8.20485e-27
2.6278e-26
9.44354e-26
3.85125e-25
1.75489e-24
8.60561e-24
4.35309e-23
2.18882e-22
1.06356e-21
4.89441e-21
2.10341e-20
8.37947e-20
3.05613e-19
1.00275e-18
3.02958e-18
8.51523e-18
2.19031e-17
5.31703e-17
1.21679e-16
2.68064e-16
5.72427e-16
1.1936e-15
2.44912e-15
4.96887e-15
9.99662e-15
1.99781e-14
3.96407e-14
7.80933e-14
1.53174e-13
2.96363e-13
5.67837e-13
1.07676e-12
2.01223e-12
3.72824e-12
6.74428e-12
1.20898e-11
2.10859e-11
3.6588e-11
6.16447e-11
1.02282e-10
1.67553e-10
2.71268e-10
4.34508e-10
6.88938e-10
1.0808e-09
1.67423e-09
2.54881e-09
3.76517e-09
4.00691e-09
3.38095e-09
2.46405e-09
1.62147e-09
9.79773e-10
5.54321e-10
2.93494e-10
1.45481e-10
6.53701e-11
2.77485e-11
1.08617e-11
3.88801e-12
1.26216e-12
3.66755e-13
9.40144e-14
2.11424e-14
3.90429e-15
6.10381e-16
8.12032e-17
9.35792e-18
9.59968e-19
9.03627e-20
8.0239e-21
6.87601e-22
5.80659e-23
4.98013e-24
4.63106e-25
5.29251e-26
8.42148e-27
1.78063e-27
4.33163e-28
1.10372e-28
2.837e-29
7.25637e-30
1.8339e-30
4.53735e-31
1.07863e-31
2.3616e-32
4.30213e-33
4.07059e-34
9.88598e-33
7.53481e-32
2.98834e-31
9.6747e-31
2.82736e-30
7.81647e-30
2.09797e-29
5.55921e-29
1.47273e-28
3.85986e-28
1.02107e-27
2.79782e-27
8.14444e-27
2.58573e-26
9.17552e-26
3.68429e-25
1.65215e-24
8.00515e-24
4.01959e-23
2.01416e-22
9.78228e-22
4.50963e-21
1.94418e-20
7.73299e-20
2.83266e-19
9.33786e-19
2.8371e-18
8.04092e-18
2.08181e-17
5.09364e-17
1.17382e-16
2.60149e-16
5.57951e-16
1.16948e-15
2.41018e-15
4.90941e-15
9.91339e-15
1.98852e-14
3.95767e-14
7.81878e-14
1.53775e-13
2.98208e-13
5.72583e-13
1.08843e-12
2.03738e-12
3.77923e-12
6.84417e-12
1.22853e-11
2.14451e-11
3.72451e-11
6.27502e-11
1.04164e-10
1.70694e-10
2.76362e-10
4.42626e-10
7.01519e-10
1.09961e-09
1.70071e-09
2.58384e-09
3.79283e-09
3.97997e-09
3.32511e-09
2.40517e-09
1.57262e-09
9.45152e-10
5.31646e-10
2.79521e-10
1.37753e-10
6.1428e-11
2.58798e-11
1.00201e-11
3.55852e-12
1.14284e-12
3.27985e-13
8.26301e-14
1.80935e-14
3.25772e-15
4.96492e-16
6.45154e-17
7.29013e-18
7.36888e-19
6.86733e-20
6.06117e-21
5.1797e-22
4.37843e-23
3.78752e-24
3.61974e-25
4.416e-26
7.5539e-27
1.67194e-27
4.15138e-28
1.0666e-28
2.75005e-29
7.0321e-30
1.77659e-30
4.39374e-31
1.04371e-31
2.2844e-32
4.16166e-33
3.9375e-34
9.93604e-33
7.57416e-32
3.00515e-31
9.73377e-31
2.84592e-30
7.87033e-30
2.11254e-29
5.59586e-29
1.48109e-28
3.87796e-28
1.02387e-27
2.79658e-27
8.10153e-27
2.55196e-26
8.95422e-26
3.54552e-25
1.57034e-24
7.52562e-24
3.74594e-23
1.86533e-22
9.02429e-22
4.15316e-21
1.79326e-20
7.17298e-20
2.63941e-19
8.74729e-19
2.67439e-18
7.61449e-18
1.98235e-17
4.87993e-17
1.12831e-16
2.5105e-16
5.40704e-16
1.14048e-15
2.36397e-15
4.84139e-15
9.82618e-15
1.98108e-14
3.96013e-14
7.85531e-14
1.55083e-13
3.01718e-13
5.81076e-13
1.10803e-12
2.07805e-12
3.86161e-12
7.00888e-12
1.26043e-11
2.20483e-11
3.83443e-11
6.46249e-11
1.07421e-10
1.76097e-10
2.85099e-10
4.56448e-10
7.22651e-10
1.13085e-09
1.74519e-09
2.64173e-09
3.82778e-09
3.92903e-09
3.2315e-09
2.30861e-09
1.49415e-09
8.91257e-10
4.96909e-10
2.58944e-10
1.2631e-10
5.57683e-11
2.32094e-11
8.89996e-12
3.10745e-12
9.83395e-13
2.79404e-13
6.68504e-14
1.441e-14
2.53507e-15
3.77919e-16
4.81906e-17
5.36872e-18
5.37659e-19
4.98535e-20
4.39213e-21
3.75693e-22
3.19118e-23
2.79955e-24
2.77204e-25
3.59012e-26
6.53945e-27
1.50272e-27
3.79676e-28
9.84212e-29
2.55431e-29
6.58598e-30
1.67289e-30
4.15073e-31
9.87893e-32
2.16405e-32
3.94311e-33
3.73025e-34
9.94593e-33
7.58169e-32
3.00812e-31
9.74287e-31
2.84814e-30
7.87384e-30
2.11226e-29
5.59004e-29
1.47764e-28
3.86315e-28
1.01724e-27
2.76673e-27
7.96405e-27
2.48982e-26
8.65939e-26
3.39783e-25
1.49125e-24
7.09431e-24
3.5139e-23
1.74521e-22
8.43717e-22
3.88597e-21
1.67853e-20
6.73507e-20
2.48846e-19
8.27255e-19
2.53853e-18
7.25925e-18
1.89494e-17
4.68297e-17
1.08737e-16
2.43056e-16
5.26074e-16
1.11551e-15
2.32736e-15
4.79449e-15
9.78601e-15
1.98388e-14
3.98518e-14
7.94083e-14
1.57436e-13
3.07427e-13
5.93903e-13
1.13594e-12
2.13608e-12
3.97744e-12
7.236e-12
1.30397e-11
2.28422e-11
3.97782e-11
6.71052e-11
1.11639e-10
1.83161e-10
2.96677e-10
4.74674e-10
7.50866e-10
1.17314e-09
1.80528e-09
2.71965e-09
3.85916e-09
3.8626e-09
3.12427e-09
2.18818e-09
1.40017e-09
8.27935e-10
4.56711e-10
2.35359e-10
1.13455e-10
4.9829e-11
2.04434e-11
7.68979e-12
2.64704e-12
8.24422e-13
2.28574e-13
5.39455e-14
1.13808e-14
1.94819e-15
2.82947e-16
3.52726e-17
3.86063e-18
3.81837e-19
3.51267e-20
3.08155e-21
2.63331e-22
2.2455e-23
2.0007e-24
2.06504e-25
2.87127e-26
5.58281e-27
1.32947e-27
3.41296e-28
8.91407e-29
2.3222e-29
5.99161e-30
1.52351e-30
3.78563e-31
9.02541e-32
1.98049e-32
3.61393e-33
3.42131e-34
9.92477e-33
7.56549e-32
3.00156e-31
9.72051e-31
2.84096e-30
7.85092e-30
2.10482e-29
5.5653e-29
1.46919e-28
3.83377e-28
1.00732e-27
2.7325e-27
7.83986e-27
2.43885e-26
8.42565e-26
3.28049e-25
1.42901e-24
6.75746e-24
3.33372e-23
1.65228e-22
7.98356e-22
3.67894e-21
1.59074e-20
6.3804e-20
2.35714e-19
7.84135e-19
2.41013e-18
6.93433e-18
1.81984e-17
4.51849e-17
1.05416e-16
2.36711e-16
5.14923e-16
1.0974e-15
2.30427e-15
4.77688e-15
9.80663e-15
1.99899e-14
4.03541e-14
8.07714e-14
1.60812e-13
3.15137e-13
6.10763e-13
1.17201e-12
2.20907e-12
4.12025e-12
7.50967e-12
1.35548e-11
2.37835e-11
4.14954e-11
7.01327e-11
1.16856e-10
1.91961e-10
3.11111e-10
4.9798e-10
7.87433e-10
1.22871e-09
1.88602e-09
2.82811e-09
3.88831e-09
3.78045e-09
2.99459e-09
2.06359e-09
1.30315e-09
7.62873e-10
4.16276e-10
2.11948e-10
1.00328e-10
4.38849e-11
1.77781e-11
6.60133e-12
2.23689e-12
6.78845e-13
1.83752e-13
4.39025e-14
8.60753e-15
1.43328e-15
2.03037e-16
2.47967e-17
2.67316e-18
2.61772e-19
2.39472e-20
2.09638e-21
1.79387e-22
1.54127e-23
1.40526e-24
1.53241e-25
2.31189e-26
4.79453e-27
1.17827e-27
3.06465e-28
8.0519e-29
2.1043e-29
5.44008e-30
1.38512e-30
3.44522e-31
8.22033e-32
1.80494e-32
3.29499e-33
3.11961e-34
9.87507e-33
7.52761e-32
2.98638e-31
9.67019e-31
2.82563e-30
7.80574e-30
2.09154e-29
5.5256e-29
1.4574e-28
3.79921e-28
9.97154e-28
2.70122e-27
7.7318e-27
2.39623e-26
8.2348e-26
3.18513e-25
1.37784e-24
6.4735e-24
3.17643e-23
1.5677e-22
7.5515e-22
3.47273e-21
1.50127e-20
6.04194e-20
2.24306e-19
7.49728e-19
2.31574e-18
6.68864e-18
1.76176e-17
4.39251e-17
1.02956e-16
2.32234e-16
5.07869e-16
1.08782e-15
2.29807e-15
4.79112e-15
9.89028e-15
2.02666e-14
4.11143e-14
8.26664e-14
1.65237e-13
3.24985e-13
6.31924e-13
1.21655e-12
2.29898e-12
4.29593e-12
7.85117e-12
1.4176e-11
2.4945e-11
4.36228e-11
7.38441e-11
1.23182e-10
2.02537e-10
3.28654e-10
5.26677e-10
8.3357e-10
1.30135e-09
1.99715e-09
2.99031e-09
3.9287e-09
3.70723e-09
2.88106e-09
1.95764e-09
1.22201e-09
7.07118e-10
3.8137e-10
1.91629e-10
8.94908e-11
3.86491e-11
1.53982e-11
5.62982e-12
1.87092e-12
5.5921e-13
1.48549e-13
3.45085e-14
6.59418e-15
1.07081e-15
1.48284e-16
1.77741e-17
1.88962e-18
1.83333e-19
1.66813e-20
1.45708e-21
1.24841e-22
1.08125e-23
1.01075e-24
1.16616e-25
1.8955e-26
4.14238e-27
1.04306e-27
2.74128e-28
7.23713e-29
1.89635e-29
4.91203e-30
1.25273e-30
3.12114e-31
7.45931e-32
1.64005e-32
2.99646e-33
2.83752e-34
9.79967e-33
7.46989e-32
2.96319e-31
9.59369e-31
2.80282e-30
7.74156e-30
2.07412e-29
5.47937e-29
1.44444e-28
3.76107e-28
9.85987e-28
2.66559e-27
7.60933e-27
2.34983e-26
8.03799e-26
3.09251e-25
1.33097e-24
6.22729e-24
3.04693e-23
1.5015e-22
7.23355e-22
3.32865e-21
1.44112e-20
5.80595e-20
2.15926e-19
7.23364e-19
2.23967e-18
6.49369e-18
1.71723e-17
4.29774e-17
1.01132e-16
2.28978e-16
5.04707e-16
1.08547e-15
2.30402e-15
4.82977e-15
1.00207e-14
2.06295e-14
4.20431e-14
8.48901e-14
1.70292e-13
3.36089e-13
6.55564e-13
1.26592e-12
2.39972e-12
4.47777e-12
8.20917e-12
1.48202e-11
2.61505e-11
4.58288e-11
7.77153e-11
1.29882e-10
2.13995e-10
3.47935e-10
5.58671e-10
8.85941e-10
1.38576e-09
2.13054e-09
3.19431e-09
3.9784e-09
3.64271e-09
2.77775e-09
1.86206e-09
1.14914e-09
6.58635e-10
3.52125e-10
1.76205e-10
7.96645e-11
3.40493e-11
1.33922e-11
4.83464e-12
1.58056e-12
4.63974e-13
1.20082e-13
2.7398e-14
5.11555e-15
8.12042e-16
1.10171e-16
1.29861e-17
1.36354e-18
1.31201e-19
1.18805e-20
1.03581e-21
8.88967e-23
7.77057e-24
7.46892e-25
9.13503e-26
1.58969e-26
3.62633e-27
9.30593e-28
2.46691e-28
6.55154e-29
1.72556e-29
4.48625e-30
1.14618e-30
2.85757e-31
6.82988e-32
1.50143e-32
2.74279e-33
2.59708e-34
9.71682e-33
7.40652e-32
2.93767e-31
9.50895e-31
2.77714e-30
7.66706e-30
2.05283e-29
5.41835e-29
1.42702e-28
3.70989e-28
9.69764e-28
2.61427e-27
7.43707e-27
2.28675e-26
7.78247e-26
2.97834e-25
1.27612e-24
5.95295e-24
2.90897e-23
1.43378e-22
6.91363e-22
3.1886e-21
1.38477e-20
5.59548e-20
2.08476e-19
6.99859e-19
2.17583e-18
6.33126e-18
1.68087e-17
4.22552e-17
1.00015e-16
2.27365e-16
5.03634e-16
1.08802e-15
2.32012e-15
4.88868e-15
1.01926e-14
2.10863e-14
4.31413e-14
8.74546e-14
1.75314e-13
3.47263e-13
6.79064e-13
1.31461e-12
2.49513e-12
4.66264e-12
8.5601e-12
1.54397e-11
2.73041e-11
4.79496e-11
8.14873e-11
1.36441e-10
2.25189e-10
3.66737e-10
5.89808e-10
9.36786e-10
1.46745e-09
2.25895e-09
3.38844e-09
4.0177e-09
3.57892e-09
2.68195e-09
1.77623e-09
1.08522e-09
6.15853e-10
3.26207e-10
1.61548e-10
7.19687e-11
3.04182e-11
1.18284e-11
4.20345e-12
1.35488e-12
3.91342e-13
9.96933e-14
2.22061e-14
4.05142e-15
6.29068e-16
8.36934e-17
9.71016e-18
1.00784e-18
9.6241e-20
8.67707e-21
7.55369e-22
6.49711e-23
5.73902e-24
5.68607e-25
7.37263e-26
1.36305e-26
3.21781e-27
8.37492e-28
2.23254e-28
5.94218e-29
1.5668e-29
4.08004e-30
1.04572e-30
2.61387e-31
6.25648e-32
1.37626e-32
2.51491e-33
2.38155e-34
9.64247e-33
7.34989e-32
2.91509e-31
9.4349e-31
2.75503e-30
7.604e-30
2.03518e-29
5.36893e-29
1.41299e-28
3.66644e-28
9.5721e-28
2.57634e-27
7.31491e-27
2.2436e-26
7.61237e-26
2.9037e-25
1.24061e-24
5.77581e-24
2.81964e-23
1.38993e-22
6.70071e-22
3.09385e-21
1.3438e-20
5.43408e-20
2.03091e-19
6.83599e-19
2.12949e-18
6.20878e-18
1.65309e-17
4.16541e-17
9.95828e-17
2.26795e-16
5.04201e-16
1.09334e-15
2.34063e-15
4.9531e-15
1.03726e-14
2.15033e-14
4.41568e-14
8.98589e-14
1.80572e-13
3.58554e-13
7.02861e-13
1.36268e-12
2.59022e-12
4.84555e-12
8.91029e-12
1.60765e-11
2.84538e-11
4.99894e-11
8.49712e-11
1.42375e-10
2.35163e-10
3.833e-10
6.16852e-10
9.80186e-10
1.53562e-09
2.36285e-09
3.53728e-09
4.03423e-09
3.5131e-09
2.59409e-09
1.70285e-09
1.03085e-09
5.80016e-10
3.04489e-10
1.49513e-10
6.5886e-11
2.75291e-11
1.0579e-11
3.71819e-12
1.18479e-12
3.40491e-13
8.17697e-14
1.79214e-14
3.21519e-15
4.91547e-16
6.45377e-17
7.41173e-18
7.63885e-19
7.26388e-20
6.53701e-21
5.69287e-22
4.91541e-23
4.39538e-24
4.49484e-25
6.15567e-26
1.19657e-26
2.89857e-27
7.61952e-28
2.03879e-28
5.4343e-29
1.43394e-29
3.73663e-30
9.57909e-31
2.39585e-31
5.73995e-32
1.26373e-32
2.31048e-33
2.18846e-34
9.57923e-33
7.30199e-32
2.89621e-31
9.37389e-31
2.73711e-30
7.55374e-30
2.0213e-29
5.33025e-29
1.40186e-28
3.63295e-28
9.47217e-28
2.5456e-27
7.2143e-27
2.20783e-26
7.47174e-26
2.84223e-25
1.21134e-24
5.62914e-24
2.74527e-23
1.35267e-22
6.52943e-22
3.01504e-21
1.31228e-20
5.32085e-20
1.99159e-19
6.71697e-19
2.09737e-18
6.12901e-18
1.63675e-17
4.13618e-17
9.92402e-17
2.26693e-16
5.05654e-16
1.10006e-15
2.36286e-15
5.01788e-15
1.05426e-14
2.19185e-14
4.51302e-14
9.21021e-14
1.85445e-13
3.6889e-13
7.23912e-13
1.40497e-12
2.6732e-12
5.00608e-12
9.20868e-12
1.6623e-11
2.94355e-11
5.17187e-11
8.7977e-11
1.47473e-10
2.4365e-10
3.97084e-10
6.38937e-10
1.01491e-09
1.58886e-09
2.44155e-09
3.64338e-09
4.02985e-09
3.44291e-09
2.50851e-09
1.63606e-09
9.82627e-10
5.48819e-10
2.85985e-10
1.39347e-10
6.10162e-11
2.52853e-11
9.63354e-12
3.35448e-12
1.05732e-12
2.99761e-13
7.08736e-14
1.52968e-14
2.7017e-15
4.07046e-16
5.27669e-17
5.99851e-18
6.13635e-19
5.80617e-20
5.21028e-21
4.53365e-22
3.92317e-23
3.54127e-24
3.71376e-25
5.3014e-26
1.0676e-26
2.63166e-27
6.96543e-28
1.86878e-28
4.98629e-29
1.31661e-29
3.43261e-30
8.80727e-31
2.20511e-31
5.28821e-32
1.16518e-32
2.13137e-33
2.01933e-34
9.51565e-33
7.25344e-32
2.8768e-31
9.31023e-31
2.71824e-30
7.50084e-30
2.00697e-29
5.29239e-29
1.39203e-28
3.60557e-28
9.39461e-28
2.52222e-27
7.13634e-27
2.17951e-26
7.35868e-26
2.79294e-25
1.18823e-24
5.51534e-24
2.6886e-23
1.32419e-22
6.39213e-22
2.95589e-21
1.28829e-20
5.23022e-20
1.96197e-19
6.62966e-19
2.07443e-18
6.07367e-18
1.62601e-17
4.11849e-17
9.90927e-17
2.26958e-16
5.07682e-16
1.10752e-15
2.38534e-15
5.07975e-15
1.07037e-14
2.23052e-14
4.6018e-14
9.40946e-14
1.89726e-13
3.77853e-13
7.42329e-13
1.44198e-12
2.74589e-12
5.14464e-12
9.46781e-12
1.70969e-11
3.02827e-11
5.32014e-11
9.05053e-11
1.51683e-10
2.50525e-10
4.08153e-10
6.56306e-10
1.04145e-09
1.62788e-09
2.4953e-09
3.72428e-09
4.01437e-09
3.37633e-09
2.43423e-09
1.57855e-09
9.38954e-10
5.21231e-10
2.69896e-10
1.30534e-10
5.69951e-11
2.34465e-11
8.86426e-12
3.06102e-12
9.56136e-13
2.68192e-13
6.31269e-14
1.34665e-14
2.34863e-15
3.49555e-16
4.48074e-17
5.04581e-18
5.12483e-19
4.82522e-20
4.31701e-21
3.75195e-22
3.25169e-23
2.95808e-24
3.16775e-25
4.67292e-26
9.66191e-27
2.41197e-27
6.4176e-28
1.72727e-28
4.62375e-29
1.22465e-29
3.2002e-30
8.21517e-31
2.05595e-31
4.92772e-32
1.08531e-32
1.98476e-33
1.8803e-34
9.46129e-33
7.2121e-32
2.86039e-31
9.25686e-31
2.70252e-30
7.45686e-30
1.99496e-29
5.25961e-29
1.38232e-28
3.5773e-28
9.31548e-28
2.50003e-27
7.07162e-27
2.15763e-26
7.27289e-26
2.7545e-25
1.16994e-24
5.42552e-24
2.64362e-23
1.30292e-22
6.29295e-22
2.91277e-21
1.27101e-20
5.16612e-20
1.94046e-19
6.56688e-19
2.05836e-18
6.03628e-18
1.61937e-17
4.10964e-17
9.91136e-17
2.27526e-16
5.10197e-16
1.11559e-15
2.40834e-15
5.14144e-15
1.08603e-14
2.2676e-14
4.68654e-14
9.60032e-14
1.93765e-13
3.86193e-13
7.59203e-13
1.47539e-12
2.81105e-12
5.26885e-12
9.69909e-12
1.75179e-11
3.10295e-11
5.44871e-11
9.27021e-11
1.55347e-10
2.56478e-10
4.17578e-10
6.70954e-10
1.0636e-09
1.66044e-09
2.54046e-09
3.76996e-09
3.9894e-09
3.31476e-09
2.36941e-09
1.52607e-09
9.03834e-10
4.98787e-10
2.56621e-10
1.23267e-10
5.37227e-11
2.1962e-11
8.24637e-12
2.8269e-12
8.75206e-13
2.42527e-13
5.70711e-14
1.20607e-14
2.08106e-15
3.06366e-16
3.88944e-17
4.34604e-18
4.38885e-19
4.11625e-20
3.67425e-21
3.19087e-22
2.76996e-23
2.53826e-24
2.76957e-25
4.20059e-26
8.86894e-27
2.23416e-27
5.96144e-28
1.606e-28
4.30399e-29
1.1406e-29
2.98187e-30
7.66355e-31
1.92031e-31
4.60721e-32
1.01538e-32
1.85755e-33
1.76003e-34
9.41608e-33
7.17776e-32
2.84681e-31
9.21289e-31
2.68963e-30
7.42101e-30
1.98522e-29
5.23317e-29
1.37435e-28
3.55382e-28
9.24765e-28
2.47993e-27
7.0084e-27
2.13672e-26
7.19741e-26
2.72427e-25
1.1559e-24
5.35574e-24
2.60879e-23
1.28576e-22
6.21546e-22
2.87935e-21
1.25728e-20
5.11712e-20
1.92449e-19
6.52203e-19
2.04735e-18
6.01213e-18
1.61572e-17
4.10703e-17
9.92465e-17
2.28269e-16
5.12907e-16
1.1238e-15
2.43112e-15
5.19968e-15
1.10032e-14
2.30092e-14
4.76196e-14
9.76561e-14
1.97316e-13
3.93675e-13
7.74586e-13
1.5061e-12
2.87057e-12
5.38122e-12
9.90597e-12
1.78879e-11
3.16785e-11
5.55965e-11
9.45569e-11
1.58389e-10
2.61396e-10
4.25381e-10
6.83033e-10
1.08181e-09
1.68647e-09
2.57503e-09
3.79893e-09
3.96302e-09
3.26109e-09
2.31462e-09
1.48206e-09
8.74608e-10
4.8026e-10
2.45821e-10
1.17367e-10
5.10926e-11
2.07604e-11
7.74917e-12
2.6366e-12
8.10006e-13
2.22249e-13
5.23559e-14
1.09606e-14
1.87326e-15
2.73258e-16
3.44083e-17
3.81921e-18
3.83774e-19
3.58727e-20
3.19567e-21
2.77344e-22
2.41122e-23
2.2242e-24
2.46753e-25
3.83268e-26
8.23747e-27
2.09467e-27
5.61797e-28
1.51691e-28
4.06729e-29
1.07811e-29
2.8186e-30
7.24085e-31
1.81382e-31
4.35073e-32
9.58696e-33
1.75361e-33
1.66146e-34
9.37864e-33
7.14933e-32
2.83557e-31
9.17656e-31
2.67901e-30
7.39154e-30
1.97724e-29
5.21163e-29
1.36776e-28
3.53442e-28
9.19198e-28
2.46361e-27
6.95771e-27
2.11961e-26
7.1336e-26
2.69791e-25
1.14437e-24
5.3019e-24
2.58263e-23
1.27316e-22
6.15728e-22
2.85426e-21
1.24758e-20
5.08206e-20
1.91335e-19
6.49121e-19
2.04015e-18
5.99765e-18
1.61413e-17
4.10849e-17
9.94431e-17
2.29087e-16
5.15612e-16
1.13151e-15
2.45143e-15
5.25101e-15
1.11287e-14
2.32994e-14
4.82674e-14
9.90985e-14
2.00357e-13
3.99932e-13
7.87148e-13
1.53083e-12
2.91936e-12
5.47596e-12
1.00869e-11
1.82122e-11
3.22456e-11
5.65427e-11
9.6138e-11
1.60984e-10
2.65552e-10
4.31906e-10
6.93066e-10
1.0967e-09
1.7076e-09
2.60267e-09
3.81854e-09
3.93837e-09
3.21544e-09
2.26779e-09
1.44479e-09
8.49207e-10
4.64301e-10
2.36549e-10
1.12285e-10
4.88489e-11
1.97612e-11
7.33639e-12
2.48357e-12
7.57921e-13
2.06108e-13
4.86328e-14
1.01052e-14
1.71223e-15
2.47717e-16
3.09628e-17
3.41607e-18
3.41719e-19
3.1843e-20
2.83135e-21
2.45557e-22
2.13755e-23
1.98326e-24
2.23249e-25
3.53812e-26
7.71268e-27
1.97297e-27
5.30445e-28
1.43599e-28
3.85638e-29
1.02303e-29
2.67437e-30
6.87161e-31
1.72168e-31
4.13044e-32
9.10253e-33
1.66508e-33
1.5776e-34
9.34914e-33
7.12693e-32
2.82671e-31
9.14786e-31
2.67059e-30
7.36809e-30
1.97087e-29
5.19437e-29
1.36245e-28
3.51874e-28
9.14717e-28
2.45056e-27
6.91743e-27
2.1061e-26
7.08357e-26
2.6774e-25
1.13524e-24
5.25828e-24
2.56224e-23
1.26381e-22
6.11474e-22
2.83606e-21
1.24039e-20
5.05666e-20
1.90544e-19
6.47015e-19
2.03553e-18
5.98939e-18
1.61384e-17
4.11222e-17
9.96617e-17
2.29876e-16
5.18064e-16
1.13837e-15
2.46923e-15
5.29534e-15
1.12347e-14
2.35411e-14
4.88029e-14
1.00246e-13
2.0272e-13
4.04659e-13
7.96434e-13
1.54818e-12
2.95078e-12
5.53039e-12
1.0275e-11
1.85062e-11
3.27378e-11
5.73537e-11
9.74917e-11
1.63181e-10
2.69045e-10
4.37348e-10
7.0129e-10
1.10885e-09
1.72471e-09
2.62465e-09
3.83239e-09
3.92002e-09
3.185e-09
2.22057e-09
1.40981e-09
8.2606e-10
4.50244e-10
2.2859e-10
1.08035e-10
4.7015e-11
1.89408e-11
7.00219e-12
2.3585e-12
7.15894e-13
1.93274e-13
4.57198e-14
9.41939e-15
1.58115e-15
2.26765e-16
2.8129e-17
3.08457e-18
3.07168e-19
2.85347e-20
2.53231e-21
2.19457e-22
1.91265e-23
1.78501e-24
2.03869e-25
3.29467e-26
7.27806e-27
1.87214e-27
5.04151e-28
1.36444e-28
3.66403e-29
9.72433e-30
2.54514e-30
6.54634e-31
1.64152e-31
3.94052e-32
8.68762e-33
1.58957e-33
1.50619e-34
9.32551e-33
7.10898e-32
2.8196e-31
9.12482e-31
2.66382e-30
7.3492e-30
1.96572e-29
5.18034e-29
1.35821e-28
3.50633e-28
9.11189e-28
2.44034e-27
6.88608e-27
2.09565e-26
7.04505e-26
2.66165e-25
1.12816e-24
5.22571e-24
2.54658e-23
1.25648e-22
6.08258e-22
2.82258e-21
1.23523e-20
5.03897e-20
1.90015e-19
6.45706e-19
2.03306e-18
5.98654e-18
1.61458e-17
4.11778e-17
9.99029e-17
2.30679e-16
5.20434e-16
1.14476e-15
2.48571e-15
5.33602e-15
1.13325e-14
2.3763e-14
4.92908e-14
1.01306e-13
2.04954e-13
4.09285e-13
8.05764e-13
1.56655e-12
2.98687e-12
5.60014e-12
1.04047e-11
1.87359e-11
3.31346e-11
5.80107e-11
9.85874e-11
1.64963e-10
2.7188e-10
4.41774e-10
7.08044e-10
1.11877e-09
1.73859e-09
2.64236e-09
3.84114e-09
3.90052e-09
3.15295e-09
2.18972e-09
1.38552e-09
8.09403e-10
4.39839e-10
2.22599e-10
1.04802e-10
4.56182e-11
1.832e-11
6.74941e-12
2.2648e-12
6.84624e-13
1.84024e-13
4.37074e-14
8.54728e-15
1.42596e-15
2.03362e-16
2.5112e-17
2.74448e-18
2.72703e-19
2.53036e-20
2.24498e-21
1.94715e-22
1.70221e-23
1.6025e-24
1.86505e-25
3.08552e-26
6.9197e-27
1.7911e-27
4.83405e-28
1.3094e-28
3.51772e-29
9.33895e-30
2.4451e-30
6.29123e-31
1.57807e-31
3.78924e-32
8.35571e-33
1.529e-33
1.44877e-34
9.30738e-33
7.09518e-32
2.81411e-31
9.1069e-31
2.65853e-30
7.3344e-30
1.96169e-29
5.16945e-29
1.35489e-28
3.4966e-28
9.08439e-28
2.43243e-27
6.86201e-27
2.0877e-26
7.01609e-26
2.64995e-25
1.12299e-24
5.20176e-24
2.53523e-23
1.25121e-22
6.05923e-22
2.81311e-21
1.23168e-20
5.02706e-20
1.89673e-19
6.44918e-19
2.03186e-18
5.98648e-18
1.61577e-17
4.1237e-17
1.0013e-16
2.31394e-16
5.22498e-16
1.15028e-15
2.49981e-15
5.37051e-15
1.14136e-14
2.39468e-14
4.97001e-14
1.02196e-13
2.06824e-13
4.13141e-13
8.13546e-13
1.58183e-12
3.01647e-12
5.65596e-12
1.05042e-11
1.89147e-11
3.34467e-11
5.85289e-11
9.94556e-11
1.66382e-10
2.74147e-10
4.45302e-10
7.13427e-10
1.12671e-09
1.74974e-09
2.65664e-09
3.84691e-09
3.88371e-09
3.1267e-09
2.16588e-09
1.36716e-09
7.96903e-10
4.32098e-10
2.18177e-10
1.02449e-10
4.45462e-11
1.7843e-11
6.5559e-12
2.19326e-12
6.60725e-13
1.76926e-13
4.18403e-14
8.13217e-15
1.34822e-15
1.91156e-16
2.34844e-17
2.5563e-18
2.53266e-19
2.34544e-20
2.07853e-21
1.8022e-22
1.5773e-23
1.49189e-24
1.75531e-25
2.94376e-26
6.65972e-27
1.73015e-27
4.6762e-28
1.26751e-28
3.40674e-29
9.04771e-30
2.3696e-30
6.09863e-31
1.53009e-31
3.67464e-32
8.10384e-33
1.48299e-33
1.4052e-34
9.29479e-33
7.08559e-32
2.81028e-31
9.09436e-31
2.6548e-30
7.32389e-30
1.9588e-29
5.16159e-29
1.35245e-28
3.48943e-28
9.06405e-28
2.42658e-27
6.84423e-27
2.08185e-26
6.99482e-26
2.64138e-25
1.1193e-24
5.18478e-24
2.5274e-23
1.24762e-22
6.04337e-22
2.80662e-21
1.22929e-20
5.01937e-20
1.89463e-19
6.44483e-19
2.03145e-18
5.98783e-18
1.61701e-17
4.12901e-17
1.0032e-16
2.31978e-16
5.24151e-16
1.15465e-15
2.51087e-15
5.39739e-15
1.14771e-14
2.40909e-14
5.00163e-14
1.0288e-13
2.08263e-13
4.16097e-13
8.19485e-13
1.5933e-12
3.03854e-12
5.69748e-12
1.05779e-11
1.90476e-11
3.36788e-11
5.89141e-11
1.00102e-10
1.67438e-10
2.75837e-10
4.47946e-10
7.17444e-10
1.13263e-09
1.75804e-09
2.66714e-09
3.85054e-09
3.8708e-09
3.10718e-09
2.14842e-09
1.3538e-09
7.87888e-10
4.26522e-10
2.15003e-10
1.00791e-10
4.37492e-11
1.74914e-11
6.41379e-12
2.14089e-12
6.43237e-13
1.71746e-13
4.04838e-14
7.8379e-15
1.29454e-15
1.82887e-16
2.23979e-17
2.4319e-18
2.40496e-19
2.22442e-20
1.96986e-21
1.7077e-22
1.49585e-23
1.41944e-24
1.68241e-25
2.84703e-26
6.47811e-27
1.68728e-27
4.56536e-28
1.23812e-28
3.32868e-29
8.84189e-30
2.31602e-30
5.96147e-31
1.49584e-31
3.59268e-32
7.9235e-33
1.45002e-33
1.37397e-34
9.28703e-33
7.07969e-32
2.80792e-31
9.08662e-31
2.6525e-30
7.3174e-30
1.95701e-29
5.15668e-29
1.35091e-28
3.48485e-28
9.051e-28
2.42282e-27
6.83287e-27
2.07814e-26
6.9815e-26
2.63609e-25
1.11703e-24
5.17442e-24
2.5226e-23
1.24543e-22
6.03389e-22
2.80279e-21
1.2279e-20
5.01495e-20
1.89349e-19
6.44277e-19
2.03142e-18
5.98941e-18
1.61803e-17
4.13301e-17
1.00458e-16
2.3239e-16
5.25308e-16
1.1577e-15
2.51852e-15
5.41583e-15
1.15206e-14
2.41892e-14
5.02335e-14
1.03352e-13
2.09248e-13
4.18103e-13
8.2348e-13
1.60102e-12
3.05333e-12
5.72502e-12
1.06265e-11
1.91351e-11
3.38317e-11
5.91677e-11
1.00527e-10
1.68132e-10
2.76943e-10
4.4967e-10
7.20064e-10
1.13648e-09
1.76339e-09
2.67384e-09
3.8528e-09
3.86206e-09
3.09422e-09
2.13693e-09
1.34509e-09
7.82028e-10
4.22922e-10
2.12963e-10
9.97201e-11
4.32333e-11
1.72634e-11
6.3217e-12
2.107e-12
6.31993e-13
1.68422e-13
3.96162e-14
7.65191e-15
1.26064e-15
1.77695e-16
2.17197e-17
2.3546e-18
2.32584e-19
2.14955e-20
1.9027e-21
1.64933e-22
1.44553e-23
1.37463e-24
1.63708e-25
2.78621e-26
6.36215e-27
1.65945e-27
4.4925e-28
1.2187e-28
3.27721e-29
8.70699e-30
2.2811e-30
5.87248e-31
1.47369e-31
3.53979e-32
7.8073e-33
1.42879e-33
1.35386e-34
9.28404e-33
7.07741e-32
2.80701e-31
9.0836e-31
2.6516e-30
7.3148e-30
1.95629e-29
5.15467e-29
1.35025e-28
3.48284e-28
9.04516e-28
2.42111e-27
6.82763e-27
2.0764e-26
6.97522e-26
2.6336e-25
1.11594e-24
5.16947e-24
2.52029e-23
1.24438e-22
6.02933e-22
2.80097e-21
1.22725e-20
5.0129e-20
1.89297e-19
6.44194e-19
2.03146e-18
5.99039e-18
1.61858e-17
4.13513e-17
1.0053e-16
2.32603e-16
5.259e-16
1.15924e-15
2.52239e-15
5.42515e-15
1.15425e-14
2.42387e-14
5.03421e-14
1.03585e-13
2.09733e-13
4.19095e-13
8.2546e-13
1.60485e-12
3.06068e-12
5.73879e-12
1.06507e-11
1.91786e-11
3.39077e-11
5.92933e-11
1.00738e-10
1.68476e-10
2.77491e-10
4.50524e-10
7.21357e-10
1.13838e-09
1.76603e-09
2.67714e-09
3.85381e-09
3.85765e-09
3.08778e-09
2.13123e-09
1.34078e-09
7.79138e-10
4.21154e-10
2.11965e-10
9.91991e-11
4.29815e-11
1.71521e-11
6.27682e-12
2.09052e-12
6.26528e-13
1.66812e-13
3.91981e-14
7.56281e-15
1.24455e-15
1.75236e-16
2.13996e-17
2.31825e-18
2.28874e-19
2.11451e-20
1.87131e-21
1.62207e-22
1.42206e-23
1.35373e-24
1.61594e-25
2.7578e-26
6.30783e-27
1.64639e-27
4.45827e-28
1.20955e-28
3.25286e-29
8.64287e-30
2.26444e-30
5.82992e-31
1.46308e-31
3.51441e-32
7.75147e-33
1.41858e-33
1.34418e-34
9.28557e-33
7.07857e-32
2.80747e-31
9.08511e-31
2.65204e-30
7.31605e-30
1.95663e-29
5.15557e-29
1.35048e-28
3.48341e-28
9.04654e-28
2.42144e-27
6.82839e-27
2.07658e-26
6.97563e-26
2.6337e-25
1.11597e-24
5.16953e-24
2.52031e-23
1.24438e-22
6.02936e-22
2.80098e-21
1.22725e-20
5.01292e-20
1.89298e-19
6.44197e-19
2.03147e-18
5.99042e-18
1.61859e-17
4.13516e-17
1.00531e-16
2.32606e-16
5.25907e-16
1.15926e-15
2.52243e-15
5.42524e-15
1.15427e-14
2.42391e-14
5.0343e-14
1.03586e-13
2.09737e-13
4.19101e-13
8.25473e-13
1.60488e-12
3.06072e-12
5.73886e-12
1.06508e-11
1.91789e-11
3.39081e-11
5.9294e-11
1.00739e-10
1.68478e-10
2.77494e-10
4.50528e-10
7.21364e-10
1.13839e-09
1.76604e-09
2.67716e-09
3.85385e-09
3.85772e-09
3.08782e-09
2.13125e-09
1.34079e-09
7.79146e-10
4.21159e-10
2.11968e-10
9.92015e-11
4.29826e-11
1.71526e-11
6.277e-12
2.09058e-12
6.2655e-13
1.66819e-13
3.91998e-14
7.56317e-15
1.24461e-15
1.75245e-16
2.14009e-17
2.3184e-18
2.28889e-19
2.11465e-20
1.87144e-21
1.62218e-22
1.42216e-23
1.35381e-24
1.61603e-25
2.75791e-26
6.30806e-27
1.64645e-27
4.45844e-28
1.2096e-28
3.25301e-29
8.64334e-30
2.26458e-30
5.83034e-31
1.4632e-31
3.51475e-32
7.7523e-33
1.41875e-33
1.34434e-34
9.29115e-33
7.08282e-32
2.80916e-31
9.09062e-31
2.65367e-30
7.32059e-30
1.95787e-29
5.15891e-29
1.35148e-28
3.48623e-28
9.05431e-28
2.4236e-27
6.83468e-27
2.07856e-26
6.98248e-26
2.63633e-25
1.11708e-24
5.17458e-24
2.52265e-23
1.24545e-22
6.03396e-22
2.80282e-21
1.22791e-20
5.01499e-20
1.8935e-19
6.44284e-19
2.03144e-18
5.98951e-18
1.61806e-17
4.13311e-17
1.00461e-16
2.32398e-16
5.25328e-16
1.15774e-15
2.51864e-15
5.41612e-15
1.15213e-14
2.41908e-14
5.02366e-14
1.03357e-13
2.09258e-13
4.18123e-13
8.23518e-13
1.6011e-12
3.05347e-12
5.72529e-12
1.06269e-11
1.91358e-11
3.38328e-11
5.91694e-11
1.0053e-10
1.68137e-10
2.7695e-10
4.49681e-10
7.2008e-10
1.1365e-09
1.76342e-09
2.67388e-09
3.85284e-09
3.86212e-09
3.09428e-09
2.13697e-09
1.34511e-09
7.82049e-10
4.22936e-10
2.12972e-10
9.97248e-11
4.32356e-11
1.72644e-11
6.32213e-12
2.10716e-12
6.32048e-13
1.68438e-13
3.96206e-14
7.65287e-15
1.26082e-15
1.77722e-16
2.17232e-17
2.355e-18
2.32625e-19
2.14993e-20
1.90305e-21
1.64962e-22
1.44579e-23
1.37485e-24
1.63731e-25
2.78654e-26
6.36281e-27
1.65962e-27
4.49299e-28
1.21885e-28
3.27763e-29
8.70824e-30
2.28147e-30
5.8736e-31
1.47402e-31
3.54069e-32
7.80951e-33
1.42923e-33
1.35428e-34
9.30069e-33
7.09009e-32
2.81205e-31
9.10003e-31
2.65644e-30
7.32834e-30
1.95997e-29
5.16458e-29
1.35319e-28
3.4912e-28
9.06816e-28
2.42752e-27
6.84639e-27
2.08234e-26
6.99596e-26
2.64166e-25
1.11937e-24
5.185e-24
2.52748e-23
1.24765e-22
6.0435e-22
2.80667e-21
1.22932e-20
5.01947e-20
1.89467e-19
6.44496e-19
2.03149e-18
5.98796e-18
1.61705e-17
4.12911e-17
1.00323e-16
2.31986e-16
5.24172e-16
1.15471e-15
2.51101e-15
5.39775e-15
1.1478e-14
2.4093e-14
5.00213e-14
1.02892e-13
2.08285e-13
4.16135e-13
8.19551e-13
1.59344e-12
3.03877e-12
5.69775e-12
1.05783e-11
1.90482e-11
3.36801e-11
5.89166e-11
1.00106e-10
1.67445e-10
2.75847e-10
4.47962e-10
7.17469e-10
1.13267e-09
1.75809e-09
2.66721e-09
3.85061e-09
3.87087e-09
3.10726e-09
2.14848e-09
1.35385e-09
7.87927e-10
4.26548e-10
2.15018e-10
1.00799e-10
4.37533e-11
1.74934e-11
6.41459e-12
2.14119e-12
6.43336e-13
1.71776e-13
4.04917e-14
7.83962e-15
1.29486e-15
1.82937e-16
2.24044e-17
2.43265e-18
2.40573e-19
2.22514e-20
1.97051e-21
1.70826e-22
1.49633e-23
1.41987e-24
1.68285e-25
2.84762e-26
6.47924e-27
1.68757e-27
4.56619e-28
1.23836e-28
3.32942e-29
8.84409e-30
2.31666e-30
5.96332e-31
1.49636e-31
3.59406e-32
7.92683e-33
1.45066e-33
1.37459e-34
9.31422e-33
7.10037e-32
2.81614e-31
9.11333e-31
2.66035e-30
7.33926e-30
1.96293e-29
5.17256e-29
1.35563e-28
3.49834e-28
9.0883e-28
2.4333e-27
6.86396e-27
2.08815e-26
7.01716e-26
2.65024e-25
1.12308e-24
5.20207e-24
2.53535e-23
1.25127e-22
6.05945e-22
2.81321e-21
1.23172e-20
5.02721e-20
1.89679e-19
6.44936e-19
2.03191e-18
5.98663e-18
1.61581e-17
4.1238e-17
1.00132e-16
2.314e-16
5.22511e-16
1.1503e-15
2.49986e-15
5.37058e-15
1.14141e-14
2.3948e-14
4.9703e-14
1.02203e-13
2.0684e-13
4.13181e-13
8.13625e-13
1.58193e-12
3.01664e-12
5.65629e-12
1.05049e-11
1.8916e-11
3.34487e-11
5.85323e-11
9.9461e-11
1.66389e-10
2.74158e-10
4.45316e-10
7.13441e-10
1.12675e-09
1.7498e-09
2.65672e-09
3.847e-09
3.88381e-09
3.12682e-09
2.16599e-09
1.36725e-09
7.96961e-10
4.32135e-10
2.18199e-10
1.02461e-10
4.45521e-11
1.78457e-11
6.557e-12
2.19368e-12
6.60855e-13
1.76965e-13
4.18511e-14
8.13456e-15
1.34867e-15
1.91226e-16
2.34936e-17
2.55736e-18
2.53375e-19
2.34646e-20
2.07945e-21
1.803e-22
1.57799e-23
1.4925e-24
1.75592e-25
2.94456e-26
6.66122e-27
1.7305e-27
4.67713e-28
1.26776e-28
3.40746e-29
9.0498e-30
2.37022e-30
6.10042e-31
1.5306e-31
3.676e-32
8.10713e-33
1.48363e-33
1.40582e-34
9.3328e-33
7.11448e-32
2.82172e-31
9.13143e-31
2.66566e-30
7.354e-30
1.96692e-29
5.1833e-29
1.35891e-28
3.50793e-28
9.11545e-28
2.44112e-27
6.88782e-27
2.09605e-26
7.04602e-26
2.66192e-25
1.12825e-24
5.22605e-24
2.54673e-23
1.25655e-22
6.08288e-22
2.82271e-21
1.23528e-20
5.03916e-20
1.90022e-19
6.45727e-19
2.03312e-18
5.98673e-18
1.61463e-17
4.11791e-17
9.99063e-17
2.30687e-16
5.20456e-16
1.14482e-15
2.48585e-15
5.33636e-15
1.13328e-14
2.37636e-14
4.92918e-14
1.01309e-13
2.04959e-13
4.09295e-13
8.05787e-13
1.56662e-12
2.98702e-12
5.60047e-12
1.04054e-11
1.87371e-11
3.3137e-11
5.80149e-11
9.85944e-11
1.64973e-10
2.71896e-10
4.41797e-10
7.08074e-10
1.11882e-09
1.73865e-09
2.64244e-09
3.84123e-09
3.90064e-09
3.1531e-09
2.18985e-09
1.38563e-09
8.09481e-10
4.39889e-10
2.22629e-10