/*--------------------------------*- C++ -*----------------------------------*\
  =========                 |
  \\      /  F ield         | OpenFOAM: The Open Source CFD Toolbox
   \\    /   O peration     | Website:  https://openfoam.org
    \\  /    A nd           | Version:  10
     \\/     M anipulation  |
\*---------------------------------------------------------------------------*/
FoamFile
{
    format      ascii;
    class       volScalarField;
    location    "1";
    object      NO;
}
// * * * * * * * * * * * * * * * * * * * * * * * * * * * * * * * * * * * * * //

dimensions      [0 0 0 0 0 0 0];

internalField   nonuniform List<scalar> 
4000
(
5.81923e-10
2.25469e-09
4.80692e-09
8.83804e-09
1.52003e-08
2.52083e-08
4.08855e-08
6.532e-08
1.03179e-07
1.59502e-07
2.42227e-07
3.62944e-07
5.37394e-07
7.8609e-07
1.13477e-06
1.61425e-06
2.25882e-06
3.10361e-06
4.18088e-06
5.51594e-06
7.12341e-06
9.00482e-06
1.11482e-05
1.3544e-05
1.61498e-05
1.88731e-05
2.17401e-05
2.47627e-05
2.78154e-05
3.09344e-05
3.40356e-05
3.71289e-05
4.01768e-05
4.31452e-05
4.60174e-05
4.87811e-05
5.14272e-05
5.39511e-05
5.6345e-05
5.86087e-05
6.07577e-05
6.27618e-05
6.46404e-05
6.64028e-05
6.80458e-05
6.96045e-05
7.10533e-05
7.24612e-05
7.38218e-05
7.52658e-05
7.68309e-05
7.87111e-05
8.1156e-05
8.45173e-05
8.92994e-05
9.62319e-05
0.000106384
0.000121288
0.000142655
0.00016825
0.000175327
0.000171726
0.000162258
0.000149883
0.000136213
0.000122431
0.000108825
9.55491e-05
8.21656e-05
6.94954e-05
5.70931e-05
4.54311e-05
3.52611e-05
2.68518e-05
2.00905e-05
1.47555e-05
1.04017e-05
7.08647e-06
4.64446e-06
2.92206e-06
1.76734e-06
1.03224e-06
5.85633e-07
3.24593e-07
1.76601e-07
9.46581e-08
5.01081e-08
2.62272e-08
1.36359e-08
7.04532e-09
3.61943e-09
1.84964e-09
9.40294e-10
4.75224e-10
2.38336e-10
1.18035e-10
5.70731e-11
2.62121e-11
1.05931e-11
2.43803e-12
5.81994e-10
2.25503e-09
4.80812e-09
8.84214e-09
1.52115e-08
2.52339e-08
4.09358e-08
6.54055e-08
1.03302e-07
1.59693e-07
2.42432e-07
3.6301e-07
5.36997e-07
7.84573e-07
1.13092e-06
1.606e-06
2.24257e-06
3.07556e-06
4.13742e-06
5.45416e-06
7.04181e-06
8.90468e-06
1.10351e-05
1.33994e-05
1.59816e-05
1.86842e-05
2.15335e-05
2.45523e-05
2.76005e-05
3.07268e-05
3.38431e-05
3.69548e-05
4.00156e-05
4.30023e-05
4.58912e-05
4.86707e-05
5.13323e-05
5.38728e-05
5.62815e-05
5.856e-05
6.0724e-05
6.27421e-05
6.46345e-05
6.64121e-05
6.80686e-05
6.96393e-05
7.1099e-05
7.25185e-05
7.38882e-05
7.53418e-05
7.69141e-05
7.88036e-05
8.12624e-05
8.46451e-05
8.94648e-05
9.64607e-05
0.000106717
0.000121777
0.000143321
0.000168308
0.000174838
0.000170893
0.000161211
0.000148711
0.000134983
0.000121157
0.000107534
9.4289e-05
8.08972e-05
6.82153e-05
5.57931e-05
4.42795e-05
3.42639e-05
2.60088e-05
1.93539e-05
1.40954e-05
9.87799e-06
6.68882e-06
4.35966e-06
2.7317e-06
1.64917e-06
9.63877e-07
5.48456e-07
3.05397e-07
1.67111e-07
9.01561e-08
4.80898e-08
2.54332e-08
1.33089e-08
6.90429e-09
3.55581e-09
1.8197e-09
9.25562e-10
4.67485e-10
2.34386e-10
1.16049e-10
5.60875e-11
2.57554e-11
1.04091e-11
2.39568e-12
5.83067e-10
2.2594e-09
4.81842e-09
8.8632e-09
1.52514e-08
2.53046e-08
4.1053e-08
6.55852e-08
1.03549e-07
1.60026e-07
2.42792e-07
3.63249e-07
5.3686e-07
7.83438e-07
1.12769e-06
1.59872e-06
2.22954e-06
3.05414e-06
4.10402e-06
5.40445e-06
6.97105e-06
8.8076e-06
1.09108e-05
1.32581e-05
1.58228e-05
1.85113e-05
2.13547e-05
2.43612e-05
2.74036e-05
3.05336e-05
3.36437e-05
3.6752e-05
3.98138e-05
4.28159e-05
4.57223e-05
4.85204e-05
5.12014e-05
5.37634e-05
5.61927e-05
5.84919e-05
6.06774e-05
6.27165e-05
6.46296e-05
6.64291e-05
6.8105e-05
6.96942e-05
7.11736e-05
7.26122e-05
7.40031e-05
7.54768e-05
7.70669e-05
7.89843e-05
8.1477e-05
8.49092e-05
8.98082e-05
9.69273e-05
0.00010738
0.000122747
0.000144625
0.000168401
0.00017404
0.000169531
0.000159497
0.000146821
0.000133063
0.000119217
0.000105601
9.23571e-05
7.8995e-05
6.63126e-05
5.39998e-05
4.26046e-05
3.28921e-05
2.496e-05
1.83811e-05
1.3381e-05
9.33535e-06
6.29721e-06
4.09355e-06
2.56212e-06
1.54759e-06
9.06212e-07
5.17085e-07
2.88864e-07
1.58587e-07
8.58103e-08
4.58626e-08
2.42532e-08
1.27082e-08
6.60553e-09
3.40934e-09
1.74871e-09
8.91864e-10
4.52346e-10
2.27344e-10
1.12714e-10
5.45179e-11
2.50409e-11
1.01199e-11
2.32876e-12
5.82952e-10
2.25896e-09
4.81748e-09
8.86139e-09
1.52475e-08
2.52951e-08
4.10287e-08
6.55248e-08
1.03408e-07
1.59745e-07
2.42193e-07
3.61973e-07
5.34203e-07
7.78625e-07
1.11967e-06
1.58633e-06
2.21086e-06
3.0269e-06
4.06582e-06
5.35321e-06
6.90551e-06
8.72802e-06
1.08119e-05
1.31431e-05
1.56956e-05
1.83696e-05
2.11999e-05
2.41975e-05
2.72249e-05
3.03437e-05
3.34468e-05
3.65526e-05
3.96169e-05
4.2627e-05
4.55519e-05
4.83673e-05
5.10677e-05
5.36513e-05
5.6102e-05
5.84233e-05
6.0632e-05
6.26939e-05
6.46304e-05
6.64555e-05
6.81556e-05
6.97685e-05
7.12736e-05
7.27396e-05
7.41569e-05
7.56601e-05
7.7283e-05
7.92434e-05
8.17978e-05
8.53216e-05
9.03492e-05
9.76726e-05
0.000108445
0.000124287
0.000146685
0.000168658
0.000173158
0.000167976
0.000157355
0.000144501
0.000130715
0.000116851
0.000103258
9.00612e-05
7.68487e-05
6.41286e-05
5.18347e-05
4.07436e-05
3.13485e-05
2.36606e-05
1.7397e-05
1.26369e-05
8.76392e-06
5.88132e-06
3.80759e-06
2.37674e-06
1.43407e-06
8.40107e-07
4.80165e-07
2.68915e-07
1.48083e-07
8.0389e-08
4.31076e-08
2.28695e-08
1.20188e-08
6.26381e-09
3.24031e-09
1.66498e-09
8.50064e-10
4.31086e-10
2.16747e-10
1.07535e-10
5.20559e-11
2.393e-11
9.67794e-12
2.22804e-12
5.81882e-10
2.25481e-09
4.80859e-09
8.84468e-09
1.52175e-08
2.52415e-08
4.09321e-08
6.53476e-08
1.03079e-07
1.59129e-07
2.41122e-07
3.60195e-07
5.31414e-07
7.74236e-07
1.11283e-06
1.57587e-06
2.1953e-06
3.00446e-06
4.03468e-06
5.31172e-06
6.85262e-06
8.66355e-06
1.0737e-05
1.30525e-05
1.5585e-05
1.82366e-05
2.10403e-05
2.40285e-05
2.70511e-05
3.01648e-05
3.32651e-05
3.63693e-05
3.94362e-05
4.24509e-05
4.53883e-05
4.82237e-05
5.09435e-05
5.35475e-05
5.60186e-05
5.83611e-05
6.0592e-05
6.26765e-05
6.46363e-05
6.64869e-05
6.82121e-05
6.98497e-05
7.13816e-05
7.28763e-05
7.43254e-05
7.58686e-05
7.75419e-05
7.95684e-05
8.22154e-05
8.58695e-05
9.10948e-05
9.87145e-05
0.000109938
0.000126445
0.000149577
0.000169161
0.000172201
0.000166117
0.000154996
0.00014193
0.000128131
0.000114274
0.000100694
8.74437e-05
7.44931e-05
6.18681e-05
4.97394e-05
3.88932e-05
2.97353e-05
2.24013e-05
1.65867e-05
1.18099e-05
8.17188e-06
5.47178e-06
3.53649e-06
2.20593e-06
1.33155e-06
7.81156e-07
4.47426e-07
2.51221e-07
1.38717e-07
7.55098e-08
4.05967e-08
2.15894e-08
1.13709e-08
5.93752e-09
3.07654e-09
1.58292e-09
8.08984e-10
4.10552e-10
2.06531e-10
1.02507e-10
4.96369e-11
2.28231e-11
9.23169e-12
2.12532e-12
5.79922e-10
2.24724e-09
4.79243e-09
8.81469e-09
1.51648e-08
2.51512e-08
4.07773e-08
6.50795e-08
1.02626e-07
1.58393e-07
2.39974e-07
3.58475e-07
5.28817e-07
7.70284e-07
1.10686e-06
1.56696e-06
2.18226e-06
2.98569e-06
4.00815e-06
5.27487e-06
6.80227e-06
8.59516e-06
1.06464e-05
1.29447e-05
1.54662e-05
1.81098e-05
2.09095e-05
2.38898e-05
2.6903e-05
3.00098e-05
3.31073e-05
3.621e-05
3.92819e-05
4.23027e-05
4.52539e-05
4.81018e-05
5.08362e-05
5.34563e-05
5.59444e-05
5.83045e-05
6.05549e-05
6.26597e-05
6.4641e-05
6.65156e-05
6.82648e-05
6.99267e-05
7.14887e-05
7.30111e-05
7.45012e-05
7.60948e-05
7.78277e-05
7.99315e-05
8.26854e-05
8.65009e-05
9.19707e-05
9.9964e-05
0.000111762
0.00012913
0.000153237
0.000169964
0.000171397
0.000164427
0.00015285
0.000139583
0.000125689
0.000111816
9.82348e-05
8.50239e-05
7.21284e-05
5.95482e-05
4.76181e-05
3.70598e-05
2.82945e-05
2.12585e-05
1.56549e-05
1.11119e-05
7.66491e-06
5.11744e-06
3.29962e-06
2.05503e-06
1.2398e-06
7.27608e-07
4.17222e-07
2.34645e-07
1.29817e-07
7.08138e-08
3.81539e-08
2.03332e-08
1.07308e-08
5.61377e-09
2.91353e-09
1.50085e-09
7.67727e-10
3.89937e-10
1.96311e-10
9.7513e-11
4.72552e-11
2.1741e-11
8.79688e-12
2.02534e-12
5.77079e-10
2.23617e-09
4.76857e-09
8.7702e-09
1.50873e-08
2.50218e-08
4.05691e-08
6.47589e-08
1.02117e-07
1.57563e-07
2.38692e-07
3.56454e-07
5.25685e-07
7.65534e-07
1.09979e-06
1.55666e-06
2.1676e-06
2.9653e-06
3.98042e-06
5.238e-06
6.75627e-06
8.53901e-06
1.05811e-05
1.28679e-05
1.53773e-05
1.80097e-05
2.07962e-05
2.37676e-05
2.67751e-05
2.98772e-05
3.29701e-05
3.60681e-05
3.91568e-05
4.218e-05
4.51369e-05
4.79959e-05
5.07428e-05
5.33766e-05
5.58781e-05
5.82519e-05
6.0516e-05
6.26368e-05
6.46358e-05
6.65308e-05
6.83016e-05
6.99737e-05
7.15623e-05
7.31062e-05
7.46307e-05
7.62675e-05
7.80547e-05
8.02349e-05
8.31014e-05
8.70831e-05
9.28046e-05
0.000101185
0.000113583
0.000131844
0.000156896
0.000170712
0.000170553
0.000162724
0.000150741
0.000137313
0.000123432
0.000109647
9.62337e-05
8.26908e-05
6.99335e-05
5.7447e-05
4.57273e-05
3.54363e-05
2.6966e-05
2.01692e-05
1.48488e-05
1.05062e-05
7.22456e-06
4.80999e-06
3.09439e-06
1.92447e-06
1.16046e-06
6.813e-07
3.91061e-07
2.20242e-07
1.22046e-07
6.66883e-08
3.59921e-08
1.92127e-08
1.01555e-08
5.32099e-09
2.76614e-09
1.42795e-09
7.32081e-10
3.72441e-10
1.87637e-10
9.32261e-11
4.51757e-11
2.07814e-11
8.40765e-12
1.93559e-12
5.74e-10
2.22421e-09
4.74274e-09
8.72173e-09
1.50016e-08
2.48744e-08
4.03194e-08
6.43379e-08
1.0143e-07
1.56456e-07
2.36807e-07
3.53444e-07
5.2104e-07
7.58549e-07
1.08955e-06
1.54202e-06
2.1473e-06
2.938e-06
3.94498e-06
5.19376e-06
6.70158e-06
8.47477e-06
1.051e-05
1.27915e-05
1.52904e-05
1.79088e-05
2.06886e-05
2.36526e-05
2.66522e-05
2.97491e-05
3.28519e-05
3.59518e-05
3.90463e-05
4.20736e-05
4.50352e-05
4.79026e-05
5.06583e-05
5.32981e-05
5.5811e-05
5.8202e-05
6.04637e-05
6.25989e-05
6.46114e-05
6.6519e-05
6.83025e-05
6.99876e-05
7.15918e-05
7.31453e-05
7.46918e-05
7.63579e-05
7.81856e-05
8.04253e-05
8.3381e-05
8.74986e-05
9.34305e-05
0.00010214
0.000115052
0.000134069
0.000159757
0.000171058
0.000169528
0.000160976
0.000148675
0.000135145
0.000121247
0.000107518
9.41474e-05
8.06163e-05
6.79604e-05
5.55796e-05
4.40159e-05
3.40249e-05
2.58369e-05
1.92845e-05
1.41321e-05
9.96869e-06
6.83636e-06
4.54115e-06
2.91641e-06
1.81217e-06
1.09267e-06
6.41856e-07
3.68779e-07
2.07943e-07
1.1538e-07
6.31281e-08
3.41137e-08
1.82318e-08
9.64754e-09
5.0597e-09
2.63227e-09
1.35935e-09
6.97092e-10
3.54878e-10
1.79061e-10
8.90631e-11
4.31816e-11
1.98684e-11
8.03937e-12
1.85093e-12
5.71246e-10
2.21355e-09
4.71994e-09
8.67943e-09
1.49278e-08
2.47496e-08
4.01121e-08
6.39977e-08
1.00879e-07
1.55495e-07
2.35309e-07
3.51159e-07
5.17638e-07
7.53581e-07
1.08241e-06
1.53198e-06
2.13351e-06
2.91956e-06
3.92109e-06
5.1648e-06
6.66521e-06
8.43281e-06
1.04583e-05
1.27268e-05
1.52198e-05
1.78342e-05
2.06068e-05
2.35617e-05
2.65559e-05
2.96433e-05
3.27693e-05
3.58629e-05
3.89565e-05
4.19843e-05
4.49482e-05
4.78211e-05
5.05824e-05
5.32259e-05
5.57454e-05
5.81443e-05
6.041e-05
6.25499e-05
6.45664e-05
6.6479e-05
6.82677e-05
6.99581e-05
7.15671e-05
7.31244e-05
7.46791e-05
7.63569e-05
7.82043e-05
8.04769e-05
8.34873e-05
8.76949e-05
9.37737e-05
0.000102721
0.000116012
0.000135568
0.000161474
0.000170909
0.00016836
0.000159283
0.000146809
0.000133194
0.000119308
0.000105624
9.233e-05
7.88418e-05
6.62248e-05
5.39419e-05
4.2601e-05
3.28878e-05
2.49876e-05
1.83985e-05
1.34923e-05
9.51542e-06
6.52154e-06
4.32866e-06
2.77785e-06
1.72509e-06
1.03985e-06
6.10804e-07
3.51e-07
1.97984e-07
1.09903e-07
6.01617e-08
3.25283e-08
1.73943e-08
9.20961e-09
4.83257e-09
2.51516e-09
1.29917e-09
6.66333e-10
3.39276e-10
1.7116e-10
8.51467e-11
4.13008e-11
1.90115e-11
7.69472e-12
1.77186e-12
5.68982e-10
2.20487e-09
4.70162e-09
8.64601e-09
1.48704e-08
2.4654e-08
3.99546e-08
6.37379e-08
1.00445e-07
1.54763e-07
2.34129e-07
3.49315e-07
5.14823e-07
7.49399e-07
1.07638e-06
1.52349e-06
2.12182e-06
2.90381e-06
3.9004e-06
5.13744e-06
6.63328e-06
8.39147e-06
1.04102e-05
1.26763e-05
1.51631e-05
1.77715e-05
2.0539e-05
2.34881e-05
2.64794e-05
2.95642e-05
3.26921e-05
3.5785e-05
3.88789e-05
4.19068e-05
4.4871e-05
4.77454e-05
5.05129e-05
5.3159e-05
5.56807e-05
5.80833e-05
6.03496e-05
6.24892e-05
6.45058e-05
6.64174e-05
6.82045e-05
6.98915e-05
7.14968e-05
7.30497e-05
7.46002e-05
7.62748e-05
7.81236e-05
8.04053e-05
8.34392e-05
8.76956e-05
9.38643e-05
0.000102969
0.00011652
0.00013644
0.000162255
0.000170376
0.000167081
0.000157605
0.000145071
0.000131431
0.000117585
0.000103972
9.07563e-05
7.73738e-05
6.48141e-05
5.26213e-05
4.14428e-05
3.19229e-05
2.41977e-05
1.77777e-05
1.30159e-05
9.16349e-06
6.269e-06
4.15336e-06
2.66065e-06
1.64981e-06
9.93334e-07
5.83053e-07
3.3493e-07
1.88906e-07
1.0488e-07
5.74307e-08
3.10658e-08
1.6621e-08
8.8051e-09
4.62286e-09
2.40706e-09
1.24364e-09
6.38075e-10
3.25006e-10
1.64065e-10
8.16691e-11
3.96328e-11
1.82492e-11
7.38734e-12
1.70126e-12
5.66724e-10
2.19611e-09
4.68289e-09
8.61136e-09
1.48106e-08
2.45548e-08
3.97952e-08
6.34903e-08
1.00077e-07
1.54179e-07
2.33226e-07
3.47927e-07
5.1265e-07
7.46071e-07
1.07141e-06
1.51636e-06
2.11202e-06
2.89078e-06
3.88393e-06
5.116e-06
6.60491e-06
8.35804e-06
1.03719e-05
1.26313e-05
1.51146e-05
1.77191e-05
2.04829e-05
2.34275e-05
2.64164e-05
2.94983e-05
3.26258e-05
3.5718e-05
3.88128e-05
4.18409e-05
4.48058e-05
4.76823e-05
5.04516e-05
5.30975e-05
5.5619e-05
5.80224e-05
6.02872e-05
6.24245e-05
6.44374e-05
6.63438e-05
6.81244e-05
6.98038e-05
7.13997e-05
7.29417e-05
7.44801e-05
7.61408e-05
7.79795e-05
8.02564e-05
8.32951e-05
8.75725e-05
9.37905e-05
0.000102989
0.000116694
0.000136792
0.000162584
0.000169713
0.000165886
0.000156146
0.000143574
0.000129847
0.000116057
0.000102513
8.93566e-05
7.61143e-05
6.35944e-05
5.14793e-05
4.0448e-05
3.11082e-05
2.355e-05
1.73125e-05
1.26515e-05
8.88718e-06
6.06545e-06
4.00803e-06
2.5612e-06
1.58494e-06
9.52907e-07
5.58819e-07
3.20856e-07
1.80939e-07
1.00464e-07
5.50257e-08
2.97754e-08
1.59375e-08
8.44728e-09
4.43786e-09
2.31311e-09
1.19694e-09
6.15065e-10
3.13641e-10
1.58354e-10
7.88066e-11
3.82342e-11
1.76024e-11
7.12471e-12
1.64073e-12
5.64739e-10
2.18844e-09
4.66652e-09
8.58116e-09
1.47583e-08
2.44674e-08
3.9652e-08
6.32585e-08
9.96829e-08
1.53536e-07
2.32245e-07
3.46514e-07
5.10739e-07
7.43401e-07
1.06758e-06
1.51068e-06
2.1039e-06
2.87975e-06
3.869e-06
5.09786e-06
6.58262e-06
8.33165e-06
1.03419e-05
1.25972e-05
1.50761e-05
1.76766e-05
2.04371e-05
2.33777e-05
2.63645e-05
2.94438e-05
3.25706e-05
3.56619e-05
3.87561e-05
4.17844e-05
4.47494e-05
4.76257e-05
5.0395e-05
5.30396e-05
5.5559e-05
5.79594e-05
6.02209e-05
6.23545e-05
6.43627e-05
6.62624e-05
6.80349e-05
6.97044e-05
7.12887e-05
7.28173e-05
7.43414e-05
7.5986e-05
7.78106e-05
8.00781e-05
8.3118e-05
8.74155e-05
9.36828e-05
0.000102978
0.000116852
0.000137169
0.000162484
0.000168991
0.000164804
0.000154878
0.000142236
0.000128545
0.000114771
0.000101259
8.81512e-05
7.50399e-05
6.2551e-05
5.04979e-05
3.95898e-05
3.03899e-05
2.29613e-05
1.69112e-05
1.2344e-05
8.6537e-06
5.89183e-06
3.88488e-06
2.47789e-06
1.53109e-06
9.19487e-07
5.388e-07
3.09212e-07
1.7433e-07
9.67876e-08
5.30162e-08
2.86926e-08
1.53605e-08
8.14135e-09
4.27669e-09
2.2291e-09
1.15398e-09
5.93071e-10
3.02486e-10
1.52828e-10
7.61114e-11
3.69471e-11
1.70159e-11
6.88871e-12
1.58654e-12
5.63051e-10
2.18192e-09
4.65264e-09
8.55559e-09
1.47142e-08
2.43938e-08
3.9532e-08
6.30661e-08
9.93528e-08
1.52989e-07
2.31384e-07
3.45202e-07
5.08769e-07
7.406e-07
1.06378e-06
1.50584e-06
2.09741e-06
2.8709e-06
3.85722e-06
5.08213e-06
6.56384e-06
8.30991e-06
1.03155e-05
1.25678e-05
1.50434e-05
1.76413e-05
2.03995e-05
2.3337e-05
2.6322e-05
2.93991e-05
3.2525e-05
3.56154e-05
3.87092e-05
4.1736e-05
4.46987e-05
4.75743e-05
5.03437e-05
5.29866e-05
5.55034e-05
5.79025e-05
6.01598e-05
6.22874e-05
6.42881e-05
6.61782e-05
6.79416e-05
6.96014e-05
7.11751e-05
7.26925e-05
7.42044e-05
7.58339e-05
7.76498e-05
7.9914e-05
8.29596e-05
8.72789e-05
9.35958e-05
0.000102985
0.000117015
0.000137523
0.000162335
0.000168372
0.000163907
0.000153834
0.000141131
0.000127468
0.000113706
0.000100222
8.71425e-05
7.41391e-05
6.16579e-05
4.96584e-05
3.88439e-05
2.9775e-05
2.24666e-05
1.65768e-05
1.20785e-05
8.45266e-06
5.74413e-06
3.78031e-06
2.40701e-06
1.48514e-06
8.90916e-07
5.2166e-07
2.99232e-07
1.68661e-07
9.36343e-08
5.12939e-08
2.77682e-08
1.48741e-08
7.89281e-09
4.15189e-09
2.16557e-09
1.1212e-09
5.76299e-10
2.93936e-10
1.48472e-10
7.39304e-11
3.58846e-11
1.65252e-11
6.68963e-12
1.54064e-12
5.61648e-10
2.17651e-09
4.64113e-09
8.53444e-09
1.46778e-08
2.43335e-08
3.94342e-08
6.29106e-08
9.90817e-08
1.52537e-07
2.30674e-07
3.44128e-07
5.07179e-07
7.38294e-07
1.06049e-06
1.50121e-06
2.09137e-06
2.86327e-06
3.84757e-06
5.06998e-06
6.54879e-06
8.29164e-06
1.0295e-05
1.25446e-05
1.50178e-05
1.76132e-05
2.03693e-05
2.33043e-05
2.62876e-05
2.93626e-05
3.24874e-05
3.55765e-05
3.86687e-05
4.16944e-05
4.46565e-05
4.75314e-05
5.02994e-05
5.29399e-05
5.5454e-05
5.78491e-05
6.01015e-05
6.22239e-05
6.42195e-05
6.61028e-05
6.78586e-05
6.951e-05
7.10761e-05
7.25831e-05
7.40836e-05
7.57026e-05
7.75132e-05
7.97771e-05
8.2833e-05
8.71788e-05
9.35476e-05
0.000103029
0.000117209
0.000137895
0.000162223
0.000167885
0.000163191
0.000152977
0.000140218
0.000126556
0.000112802
9.9334e-05
8.62671e-05
7.33675e-05
6.09096e-05
4.89521e-05
3.82371e-05
2.92675e-05
2.20525e-05
1.62981e-05
1.18571e-05
8.28057e-06
5.61629e-06
3.6893e-06
2.34519e-06
1.44508e-06
8.66042e-07
5.06767e-07
2.90579e-07
1.63755e-07
9.09075e-08
4.98035e-08
2.69646e-08
1.44453e-08
7.66515e-09
4.03281e-09
2.10583e-09
1.09108e-09
5.6104e-10
2.86138e-10
1.44555e-10
7.19896e-11
3.49458e-11
1.60938e-11
6.51508e-12
1.50045e-12
5.60497e-10
2.17207e-09
4.6317e-09
8.51712e-09
1.4648e-08
2.42841e-08
3.93545e-08
6.27842e-08
9.88607e-08
1.52169e-07
2.30098e-07
3.43258e-07
5.05899e-07
7.36446e-07
1.05788e-06
1.49759e-06
2.0865e-06
2.85659e-06
3.83917e-06
5.06013e-06
6.53701e-06
8.27767e-06
1.02786e-05
1.25259e-05
1.4997e-05
1.75905e-05
2.03448e-05
2.32772e-05
2.62598e-05
2.93335e-05
3.24576e-05
3.55461e-05
3.86378e-05
4.1662e-05
4.4623e-05
4.74961e-05
5.02628e-05
5.29006e-05
5.5411e-05
5.78027e-05
6.00508e-05
6.21683e-05
6.4157e-05
6.60323e-05
6.77795e-05
6.94202e-05
7.10038e-05
7.24973e-05
7.39879e-05
7.55981e-05
7.74053e-05
7.9673e-05
8.27427e-05
8.71176e-05
9.35395e-05
0.000103109
0.000117427
0.000138273
0.000162184
0.000167562
0.000162713
0.0001522
0.000139432
0.00012578
0.000112048
9.86013e-05
8.55527e-05
7.27452e-05
6.02905e-05
4.83718e-05
3.77294e-05
2.88504e-05
2.17142e-05
1.60689e-05
1.16585e-05
8.12184e-06
5.49815e-06
3.606e-06
2.28937e-06
1.40939e-06
8.44154e-07
4.93796e-07
2.83104e-07
1.59543e-07
8.85781e-08
4.85347e-08
2.62822e-08
1.4082e-08
7.47302e-09
3.93141e-09
2.05187e-09
1.06299e-09
5.46713e-10
2.79009e-10
1.41023e-10
7.02571e-11
3.41145e-11
1.57139e-11
6.36201e-12
1.46526e-12
5.5957e-10
2.1685e-09
4.62408e-09
8.50311e-09
1.46239e-08
2.4244e-08
3.92891e-08
6.26794e-08
9.86816e-08
1.51874e-07
2.29636e-07
3.42565e-07
5.04881e-07
7.34979e-07
1.0558e-06
1.49473e-06
2.08253e-06
2.85149e-06
3.83253e-06
5.05176e-06
6.5272e-06
8.26614e-06
1.02653e-05
1.2511e-05
1.49806e-05
1.75727e-05
2.0326e-05
2.32568e-05
2.6238e-05
2.931e-05
3.24335e-05
3.5521e-05
3.8612e-05
4.16358e-05
4.45957e-05
4.74675e-05
5.02323e-05
5.28679e-05
5.53762e-05
5.77655e-05
6.00102e-05
6.21237e-05
6.41083e-05
6.59786e-05
6.77211e-05
6.93574e-05
7.09369e-05
7.24267e-05
7.39137e-05
7.55203e-05
7.73285e-05
7.96028e-05
8.26877e-05
8.70911e-05
9.35618e-05
0.000103212
0.000117653
0.000138643
0.00016217
0.000167297
0.000162288
0.000151684
0.000138871
0.000125206
0.000111473
9.80345e-05
8.49942e-05
7.22606e-05
5.98136e-05
4.79267e-05
3.73481e-05
2.85461e-05
2.14877e-05
1.59324e-05
1.14041e-05
7.95453e-06
5.38645e-06
3.5324e-06
2.24197e-06
1.37977e-06
8.26204e-07
4.8322e-07
2.7702e-07
1.56114e-07
8.66786e-08
4.74983e-08
2.57244e-08
1.37852e-08
7.31662e-09
3.84965e-09
2.0094e-09
1.04109e-09
5.35512e-10
2.73333e-10
1.38176e-10
6.88497e-11
3.34352e-11
1.54023e-11
6.23612e-12
1.43624e-12
5.58854e-10
2.16573e-09
4.6182e-09
8.49232e-09
1.46053e-08
2.42132e-08
3.92393e-08
6.26003e-08
9.85441e-08
1.51645e-07
2.2928e-07
3.42029e-07
5.04096e-07
7.33852e-07
1.05422e-06
1.49254e-06
2.07955e-06
2.84758e-06
3.82747e-06
5.04542e-06
6.51942e-06
8.25718e-06
1.02552e-05
1.24996e-05
1.49681e-05
1.75592e-05
2.03114e-05
2.32411e-05
2.62217e-05
2.92929e-05
3.24157e-05
3.55026e-05
3.8593e-05
4.16161e-05
4.4575e-05
4.74456e-05
5.02096e-05
5.2844e-05
5.53504e-05
5.77378e-05
5.99804e-05
6.20913e-05
6.40731e-05
6.59398e-05
6.76792e-05
6.93125e-05
7.08881e-05
7.23757e-05
7.38611e-05
7.54666e-05
7.72776e-05
7.95592e-05
8.26586e-05
8.70881e-05
9.36022e-05
0.000103322
0.00011787
0.000138989
0.000162184
0.000167106
0.000161972
0.000151309
0.000138462
0.000124783
0.00011105
9.76159e-05
8.45818e-05
7.18797e-05
5.94372e-05
4.75759e-05
3.70451e-05
2.82968e-05
2.12873e-05
1.57701e-05
1.12689e-05
7.8496e-06
5.3091e-06
3.47794e-06
2.20559e-06
1.35661e-06
8.12044e-07
4.74848e-07
2.72204e-07
1.53404e-07
8.51813e-08
4.66836e-08
2.52867e-08
1.35525e-08
7.19407e-09
3.7857e-09
1.97633e-09
1.02412e-09
5.2687e-10
2.68961e-10
1.35983e-10
6.77632e-11
3.29099e-11
1.51609e-11
6.13851e-12
1.41377e-12
5.58333e-10
2.16372e-09
4.61393e-09
8.48448e-09
1.45919e-08
2.41909e-08
3.92032e-08
6.2543e-08
9.84438e-08
1.51478e-07
2.29018e-07
3.41635e-07
5.03515e-07
7.33011e-07
1.05302e-06
1.49086e-06
2.07731e-06
2.84461e-06
3.82377e-06
5.04085e-06
6.51387e-06
8.25057e-06
1.02476e-05
1.24912e-05
1.4959e-05
1.75494e-05
2.03011e-05
2.32299e-05
2.62101e-05
2.92807e-05
3.24031e-05
3.54896e-05
3.85796e-05
4.16021e-05
4.45604e-05
4.74302e-05
5.01935e-05
5.28267e-05
5.53321e-05
5.77183e-05
5.99592e-05
6.20683e-05
6.40483e-05
6.59129e-05
6.76505e-05
6.92821e-05
7.0855e-05
7.23414e-05
7.38265e-05
7.54321e-05
7.72463e-05
7.95347e-05
8.26467e-05
8.70974e-05
9.36462e-05
0.000103422
0.000118055
0.000139273
0.000162218
0.000166983
0.000161756
0.000151049
0.000138176
0.000124487
0.00011075
9.73187e-05
8.42907e-05
7.15941e-05
5.9157e-05
4.73144e-05
3.68185e-05
2.81092e-05
2.11364e-05
1.56493e-05
1.11733e-05
7.77737e-06
5.25626e-06
3.44077e-06
2.18058e-06
1.34052e-06
8.02102e-07
4.68915e-07
2.68763e-07
1.51454e-07
8.40981e-08
4.60919e-08
2.49683e-08
1.33837e-08
7.10578e-09
3.7399e-09
1.95269e-09
1.01197e-09
5.20649e-10
2.65802e-10
1.34393e-10
6.69745e-11
3.2528e-11
1.49853e-11
6.06743e-12
1.3974e-12
5.58e-10
2.16244e-09
4.6112e-09
8.47947e-09
1.45833e-08
2.41767e-08
3.91802e-08
6.25065e-08
9.83796e-08
1.51371e-07
2.2885e-07
3.41381e-07
5.03143e-07
7.32476e-07
1.05227e-06
1.48982e-06
2.0759e-06
2.84277e-06
3.82143e-06
5.03796e-06
6.51037e-06
8.24644e-06
1.02428e-05
1.24859e-05
1.49532e-05
1.75431e-05
2.02944e-05
2.32227e-05
2.62025e-05
2.92726e-05
3.23949e-05
3.54812e-05
3.85709e-05
4.1593e-05
4.45509e-05
4.74203e-05
5.01832e-05
5.28157e-05
5.53203e-05
5.77055e-05
5.99454e-05
6.20536e-05
6.40325e-05
6.58958e-05
6.76324e-05
6.92632e-05
7.08347e-05
7.23208e-05
7.3806e-05
7.54121e-05
7.7229e-05
7.95225e-05
8.26433e-05
8.71088e-05
9.36812e-05
0.000103494
0.000118183
0.000139468
0.000162251
0.000166912
0.000161622
0.000150886
0.000137996
0.000124299
0.00011056
9.71289e-05
8.41023e-05
7.14075e-05
5.89732e-05
4.71432e-05
3.66706e-05
2.79876e-05
2.10386e-05
1.55716e-05
1.1113e-05
7.73133e-06
5.22282e-06
3.41739e-06
2.16486e-06
1.33036e-06
7.9579e-07
4.6513e-07
2.66559e-07
1.50202e-07
8.34007e-08
4.57099e-08
2.4762e-08
1.32736e-08
7.04753e-09
3.70942e-09
1.93691e-09
1.00388e-09
5.16537e-10
2.63724e-10
1.33352e-10
6.64591e-11
3.22788e-11
1.48708e-11
6.0211e-12
1.38673e-12
5.57837e-10
2.16181e-09
4.60988e-09
8.47704e-09
1.45791e-08
2.41698e-08
3.91691e-08
6.24889e-08
9.83487e-08
1.51319e-07
2.28769e-07
3.4126e-07
5.02965e-07
7.32219e-07
1.0519e-06
1.48932e-06
2.07523e-06
2.84189e-06
3.82029e-06
5.03652e-06
6.50863e-06
8.24439e-06
1.02405e-05
1.24832e-05
1.49503e-05
1.754e-05
2.02911e-05
2.32192e-05
2.61988e-05
2.92688e-05
3.23909e-05
3.54771e-05
3.85667e-05
4.15887e-05
4.45464e-05
4.74155e-05
5.01782e-05
5.28104e-05
5.53145e-05
5.76995e-05
5.99389e-05
6.20466e-05
6.40251e-05
6.58877e-05
6.76239e-05
6.92543e-05
7.08252e-05
7.23112e-05
7.37966e-05
7.54032e-05
7.72215e-05
7.95177e-05
8.26431e-05
8.71161e-05
9.37005e-05
0.000103532
0.00011825
0.000139568
0.000162271
0.000166879
0.000161558
0.000150807
0.000137908
0.000124208
0.000110468
9.70369e-05
8.40107e-05
7.1316e-05
5.8883e-05
4.70593e-05
3.65984e-05
2.79284e-05
2.09914e-05
1.55343e-05
1.10843e-05
7.7097e-06
5.20703e-06
3.4064e-06
2.1575e-06
1.3256e-06
7.92833e-07
4.63356e-07
2.65526e-07
1.49615e-07
8.30731e-08
4.55302e-08
2.46648e-08
1.32215e-08
7.02e-09
3.69499e-09
1.92942e-09
1.00002e-09
5.14565e-10
2.62724e-10
1.32849e-10
6.62093e-11
3.21577e-11
1.4815e-11
5.99851e-12
1.38152e-12
5.5784e-10
2.16182e-09
4.60989e-09
8.47707e-09
1.45791e-08
2.41699e-08
3.91693e-08
6.24892e-08
9.8349e-08
1.51319e-07
2.28769e-07
3.4126e-07
5.02966e-07
7.3222e-07
1.05191e-06
1.48932e-06
2.07524e-06
2.84189e-06
3.8203e-06
5.03653e-06
6.50864e-06
8.2444e-06
1.02405e-05
1.24833e-05
1.49503e-05
1.75401e-05
2.02911e-05
2.32192e-05
2.61989e-05
2.92688e-05
3.2391e-05
3.54771e-05
3.85667e-05
4.15887e-05
4.45464e-05
4.74156e-05
5.01782e-05
5.28104e-05
5.53146e-05
5.76995e-05
5.9939e-05
6.20466e-05
6.40251e-05
6.58878e-05
6.7624e-05
6.92543e-05
7.08253e-05
7.23113e-05
7.37968e-05
7.54033e-05
7.72217e-05
7.95179e-05
8.26434e-05
8.71164e-05
9.37009e-05
0.000103533
0.000118251
0.000139569
0.000162272
0.00016688
0.000161559
0.000150808
0.000137909
0.000124208
0.000110468
9.70375e-05
8.40113e-05
7.13165e-05
5.88835e-05
4.70597e-05
3.65988e-05
2.79286e-05
2.09916e-05
1.55345e-05
1.10844e-05
7.7098e-06
5.2071e-06
3.40645e-06
2.15753e-06
1.32562e-06
7.92845e-07
4.63364e-07
2.6553e-07
1.49617e-07
8.30744e-08
4.55309e-08
2.46652e-08
1.32218e-08
7.02012e-09
3.69505e-09
1.92945e-09
1.00004e-09
5.14573e-10
2.62728e-10
1.32851e-10
6.62102e-11
3.21581e-11
1.48152e-11
5.99859e-12
1.38154e-12
5.58006e-10
2.16246e-09
4.61125e-09
8.47956e-09
1.45834e-08
2.41769e-08
3.91807e-08
6.25072e-08
9.83805e-08
1.51372e-07
2.28851e-07
3.41383e-07
5.03146e-07
7.32479e-07
1.05227e-06
1.48982e-06
2.07591e-06
2.84278e-06
3.82144e-06
5.03797e-06
6.5104e-06
8.24647e-06
1.02429e-05
1.24859e-05
1.49532e-05
1.75432e-05
2.02945e-05
2.32228e-05
2.62026e-05
2.92728e-05
3.2395e-05
3.54813e-05
3.8571e-05
4.15932e-05
4.45511e-05
4.74204e-05
5.01833e-05
5.28158e-05
5.53204e-05
5.77057e-05
5.99456e-05
6.20537e-05
6.40327e-05
6.58959e-05
6.76326e-05
6.92634e-05
7.0835e-05
7.23211e-05
7.38064e-05
7.54126e-05
7.72296e-05
7.95232e-05
8.26441e-05
8.71097e-05
9.36823e-05
0.000103495
0.000118185
0.00013947
0.000162254
0.000166914
0.000161624
0.000150889
0.000137998
0.000124301
0.000110562
9.71306e-05
8.41039e-05
7.14089e-05
5.89745e-05
4.71443e-05
3.66716e-05
2.79884e-05
2.10393e-05
1.55721e-05
1.11133e-05
7.73161e-06
5.22303e-06
3.41753e-06
2.16496e-06
1.33042e-06
7.95826e-07
4.65151e-07
2.66572e-07
1.50209e-07
8.34046e-08
4.57121e-08
2.47632e-08
1.32742e-08
7.04787e-09
3.70959e-09
1.937e-09
1.00392e-09
5.16558e-10
2.63734e-10
1.33357e-10
6.64615e-11
3.22799e-11
1.48713e-11
6.02131e-12
1.38678e-12
5.58342e-10
2.16376e-09
4.614e-09
8.4846e-09
1.45921e-08
2.41912e-08
3.92037e-08
6.25438e-08
9.84448e-08
1.51479e-07
2.2902e-07
3.41637e-07
5.03519e-07
7.33017e-07
1.05303e-06
1.49087e-06
2.07732e-06
2.84463e-06
3.82379e-06
5.04088e-06
6.51391e-06
8.25062e-06
1.02477e-05
1.24913e-05
1.49591e-05
1.75495e-05
2.03012e-05
2.32301e-05
2.62103e-05
2.92809e-05
3.24034e-05
3.54899e-05
3.85799e-05
4.16025e-05
4.45608e-05
4.74306e-05
5.01938e-05
5.28271e-05
5.53324e-05
5.77185e-05
5.99594e-05
6.20686e-05
6.40486e-05
6.59131e-05
6.76508e-05
6.92825e-05
7.08556e-05
7.23422e-05
7.38273e-05
7.5433e-05
7.72473e-05
7.95359e-05
8.2648e-05
8.7099e-05
9.36481e-05
0.000103424
0.000118058
0.000139277
0.000162222
0.000166988
0.00016176
0.000151053
0.00013818
0.00012449
0.000110753
9.73215e-05
8.42933e-05
7.15966e-05
5.91594e-05
4.73165e-05
3.68202e-05
2.81105e-05
2.11375e-05
1.56501e-05
1.1174e-05
7.77788e-06
5.25662e-06
3.44102e-06
2.18075e-06
1.34062e-06
8.02167e-07
4.68954e-07
2.68785e-07
1.51467e-07
8.41051e-08
4.60957e-08
2.49703e-08
1.33848e-08
7.10637e-09
3.74022e-09
1.95286e-09
1.01205e-09
5.20693e-10
2.65823e-10
1.34404e-10
6.69794e-11
3.25302e-11
1.49863e-11
6.0678e-12
1.39748e-12
5.58864e-10
2.16577e-09
4.61829e-09
8.49247e-09
1.46056e-08
2.42136e-08
3.924e-08
6.26014e-08
9.85455e-08
1.51647e-07
2.29282e-07
3.42033e-07
5.04102e-07
7.3386e-07
1.05423e-06
1.49256e-06
2.07957e-06
2.84761e-06
3.82751e-06
5.04547e-06
6.51948e-06
8.25726e-06
1.02553e-05
1.24997e-05
1.49683e-05
1.75594e-05
2.03116e-05
2.32414e-05
2.62221e-05
2.92933e-05
3.24162e-05
3.55031e-05
3.85936e-05
4.16167e-05
4.45757e-05
4.74464e-05
5.02103e-05
5.28447e-05
5.53512e-05
5.77386e-05
5.99811e-05
6.20919e-05
6.40737e-05
6.59405e-05
6.768e-05
6.93135e-05
7.08891e-05
7.23767e-05
7.38622e-05
7.54678e-05
7.72789e-05
7.95607e-05
8.26604e-05
8.70902e-05
9.36047e-05
0.000103325
0.000117874
0.000138994
0.00016219
0.000167111
0.000161977
0.000151314
0.000138467
0.000124788
0.000111054
9.76198e-05
8.45854e-05
7.1883e-05
5.94402e-05
4.75786e-05
3.70473e-05
2.82985e-05
2.12887e-05
1.57713e-05
1.12698e-05
7.85029e-06
5.3096e-06
3.47829e-06
2.20582e-06
1.35675e-06
8.12133e-07
4.74901e-07
2.72235e-07
1.53421e-07
8.51908e-08
4.66887e-08
2.52894e-08
1.35539e-08
7.19478e-09
3.78604e-09
1.9765e-09
1.0242e-09
5.26907e-10
2.68978e-10
1.35991e-10
6.77668e-11
3.29114e-11
1.51616e-11
6.13874e-12
1.41382e-12
5.59582e-10
2.16854e-09
4.62418e-09
8.50329e-09
1.46242e-08
2.42445e-08
3.929e-08
6.26807e-08
9.86834e-08
1.51876e-07
2.2964e-07
3.4257e-07
5.04888e-07
7.3499e-07
1.05582e-06
1.49475e-06
2.08255e-06
2.85152e-06
3.83258e-06
5.05183e-06
6.52728e-06
8.26625e-06
1.02655e-05
1.25111e-05
1.49808e-05
1.7573e-05
2.03263e-05
2.32572e-05
2.62385e-05
2.93107e-05
3.24341e-05
3.55216e-05
3.86126e-05
4.16364e-05
4.45964e-05
4.74681e-05
5.02331e-05
5.28688e-05
5.53772e-05
5.77666e-05
6.00114e-05
6.2125e-05
6.41097e-05
6.598e-05
6.77225e-05
6.93588e-05
7.09384e-05
7.24283e-05
7.39153e-05
7.55219e-05
7.73302e-05
7.96046e-05
8.26898e-05
8.70936e-05
9.35649e-05
0.000103216
0.000117658
0.000138649
0.000162177
0.000167303
0.000162295
0.000151691
0.000138877
0.000125212
0.000111479
9.80394e-05
8.49988e-05
7.22647e-05