/*--------------------------------*- C++ -*----------------------------------*\
  =========                 |
  \\      /  F ield         | OpenFOAM: The Open Source CFD Toolbox
   \\    /   O peration     | Website:  https://openfoam.org
    \\  /    A nd           | Version:  10
     \\/     M anipulation  |
\*---------------------------------------------------------------------------*/
FoamFile
{
    format      ascii;
    class       volScalarField;
    location    "1";
    object      O;
}
// * * * * * * * * * * * * * * * * * * * * * * * * * * * * * * * * * * * * * //

dimensions      [0 0 0 0 0 0 0];

internalField   nonuniform List<scalar> 
4000
(
1.98794e-19
7.89037e-19
1.76238e-18
3.46732e-18
6.50002e-18
1.19403e-17
2.17651e-17
3.96342e-17
7.24223e-17
1.31247e-16
2.37563e-16
4.32721e-16
7.95925e-16
1.47934e-15
2.77642e-15
5.25434e-15
1.00001e-14
1.9061e-14
3.62061e-14
6.81175e-14
1.2602e-13
2.27705e-13
3.99701e-13
6.79056e-13
1.10285e-12
1.6804e-12
2.41065e-12
3.26407e-12
4.16689e-12
5.13091e-12
6.22933e-12
7.7707e-12
1.05187e-11
1.63043e-11
2.93655e-11
5.92672e-11
1.27155e-10
2.78811e-10
6.10543e-10
1.32173e-09
2.82631e-09
5.90795e-09
1.21379e-08
2.45365e-08
4.87071e-08
9.57763e-08
1.8399e-07
3.51497e-07
6.55985e-07
1.22582e-06
2.2327e-06
4.02252e-06
7.1779e-06
1.26832e-05
2.21963e-05
3.84827e-05
6.61187e-05
0.000112642
0.000190421
0.000321238
0.000483106
0.000594935
0.000617738
0.000561594
0.000458116
0.000341888
0.000234567
0.000148211
8.41878e-05
4.43418e-05
2.14175e-05
9.58633e-06
4.08839e-06
1.71095e-06
7.13305e-07
2.97094e-07
1.19319e-07
4.82889e-08
2.08338e-08
9.62394e-09
4.60623e-09
2.28358e-09
1.16402e-09
6.03284e-10
3.14795e-10
1.64284e-10
8.5401e-11
4.40819e-11
2.26893e-11
1.16329e-11
5.93939e-12
3.01965e-12
1.5284e-12
7.69548e-13
3.84732e-13
1.90055e-13
9.17232e-14
4.20671e-14
1.69852e-14
3.90747e-15
1.98564e-19
7.88122e-19
1.76041e-18
3.46387e-18
6.49457e-18
1.19318e-17
2.17501e-17
3.96007e-17
7.23323e-17
1.31051e-16
2.37032e-16
4.31232e-16
7.91851e-16
1.46844e-15
2.74801e-15
5.18202e-15
9.81911e-15
1.86431e-14
3.53036e-14
6.62815e-14
1.22507e-13
2.21424e-13
3.89294e-13
6.60442e-13
1.07448e-12
1.64201e-12
2.36488e-12
3.21862e-12
4.12566e-12
5.09919e-12
6.20733e-12
7.75886e-12
1.05214e-11
1.63616e-11
2.95872e-11
5.99647e-11
1.29135e-10
2.84145e-10
6.23839e-10
1.35359e-09
2.90065e-09
6.07413e-09
1.25003e-08
2.53229e-08
5.03237e-08
9.89724e-08
1.90141e-07
3.63537e-07
6.78413e-07
1.26804e-06
2.30813e-06
4.15746e-06
7.41806e-06
1.31036e-05
2.29279e-05
3.97381e-05
6.82406e-05
0.00011615
0.00019627
0.000330661
0.000491992
0.000599299
0.000616546
0.000556096
0.000450471
0.000333822
0.000227231
0.000142556
8.02324e-05
4.18634e-05
1.99895e-05
8.89425e-06
3.77599e-06
1.5758e-06
6.53249e-07
2.68989e-07
1.07363e-07
4.33581e-08
1.89023e-08
8.7226e-09
4.17795e-09
2.07674e-09
1.06279e-09
5.53601e-10
2.90625e-10
1.52767e-10
8.01566e-11
4.19775e-11
2.18031e-11
1.12436e-11
5.76201e-12
2.93633e-12
1.48799e-12
7.48871e-13
3.74447e-13
1.85012e-13
8.92762e-14
4.09531e-14
1.65417e-14
3.80627e-15
1.98586e-19
7.88279e-19
1.76109e-18
3.46591e-18
6.49953e-18
1.19419e-17
2.17666e-17
3.96185e-17
7.23214e-17
1.30963e-16
2.36666e-16
4.30057e-16
7.88649e-16
1.45962e-15
2.72461e-15
5.12152e-15
9.6804e-15
1.83303e-14
3.4611e-14
6.47939e-14
1.19445e-13
2.15414e-13
3.78409e-13
6.43254e-13
1.0489e-12
1.60823e-12
2.32649e-12
3.1785e-12
4.08938e-12
5.07233e-12
6.19077e-12
7.75948e-12
1.05569e-11
1.65092e-11
3.00514e-11
6.12954e-11
1.32714e-10
2.93389e-10
6.46366e-10
1.40654e-09
3.02191e-09
6.34059e-09
1.3075e-08
2.65478e-08
5.27717e-08
1.03875e-07
1.99849e-07
3.82432e-07
7.14797e-07
1.33649e-06
2.43103e-06
4.38257e-06
7.81681e-06
1.38008e-05
2.41342e-05
4.1789e-05
7.16935e-05
0.000121971
0.000205981
0.000346138
0.00050606
0.000605637
0.000613828
0.000546679
0.000438165
0.000321178
0.000216229
0.000134012
7.44639e-05
3.82953e-05
1.80954e-05
7.94418e-06
3.3582e-06
1.40623e-06
5.69578e-07
2.35566e-07
9.39378e-08
3.80589e-08
1.68029e-08
7.79814e-09
3.76215e-09
1.8847e-09
9.71688e-10
5.0952e-10
2.69024e-10
1.42067e-10
7.4747e-11
3.91113e-11
2.03407e-11
1.05149e-11
5.40471e-12
2.7636e-12
1.40642e-12
7.12574e-13
3.57773e-13
1.77225e-13
8.56615e-14
3.93268e-14
1.58891e-14
3.65596e-15
1.98125e-19
7.86429e-19
1.75687e-18
3.45731e-18
6.48234e-18
1.19071e-17
2.16945e-17
3.94655e-17
7.19913e-17
1.30281e-16
2.35147e-16
4.26542e-16
7.80311e-16
1.44147e-15
2.6863e-15
5.04291e-15
9.51566e-15
1.79877e-14
3.39138e-14
6.34211e-14
1.16857e-13
2.10776e-13
3.70091e-13
6.29714e-13
1.029e-12
1.58124e-12
2.29422e-12
3.14573e-12
4.05921e-12
5.05072e-12
6.18393e-12
7.78037e-12
1.06403e-11
1.6756e-11
3.07642e-11
6.32516e-11
1.37798e-10
3.06146e-10
6.76983e-10
1.4777e-09
3.18346e-09
6.69443e-09
1.38223e-08
2.80969e-08
5.59423e-08
1.102e-07
2.12257e-07
4.06517e-07
7.59685e-07
1.42037e-06
2.58276e-06
4.65501e-06
8.3032e-06
1.46589e-05
2.56067e-05
4.43109e-05
7.59684e-05
0.000129115
0.000217812
0.000364689
0.00052196
0.000611728
0.000609066
0.000534314
0.000422835
0.000305853
0.000203126
0.00012412
6.82772e-05
3.45164e-05
1.59999e-05
6.96448e-06
2.93523e-06
1.22057e-06
4.95755e-07
2.05083e-07
8.15076e-08
3.30635e-08
1.47347e-08
6.87264e-09
3.33829e-09
1.68486e-09
8.74867e-10
4.61758e-10
2.45272e-10
1.30244e-10
6.88801e-11
3.62117e-11
1.89119e-11
9.81188e-12
5.0586e-12
2.59256e-12
1.32105e-12
6.68959e-13
3.36003e-13
1.6659e-13
8.06138e-14
3.70529e-14
1.49855e-14
3.45022e-15
1.97359e-19
7.83382e-19
1.75e-18
3.44351e-18
6.45549e-18
1.18548e-17
2.15912e-17
3.92568e-17
7.15591e-17
1.29366e-16
2.33315e-16
4.22922e-16
7.73275e-16
1.42709e-15
2.65635e-15
4.98006e-15
9.38438e-15
1.77168e-14
3.33668e-14
6.23506e-14
1.14847e-13
2.07178e-13
3.63988e-13
6.19306e-13
1.01217e-12
1.55686e-12
2.26274e-12
3.11449e-12
4.0336e-12
5.03597e-12
6.18804e-12
7.8209e-12
1.0767e-11
1.71039e-11
3.17265e-11
6.57426e-11
1.44113e-10
3.21671e-10
7.13718e-10
1.5619e-09
3.37269e-09
7.10365e-09
1.46895e-08
2.99113e-08
5.95947e-08
1.17387e-07
2.26121e-07
4.33025e-07
8.09239e-07
1.51361e-06
2.75373e-06
4.96359e-06
8.85253e-06
1.56175e-05
2.72684e-05
4.71406e-05
8.07222e-05
0.000137011
0.000230823
0.000385069
0.000538492
0.000617142
0.000602529
0.000520049
0.000405908
0.00028951
0.000189371
0.000113433
6.18299e-05
3.07994e-05
1.41003e-05
6.07968e-06
2.53329e-06
1.05024e-06
4.36994e-07
1.74237e-07
6.93388e-08
2.82997e-08
1.27673e-08
6.01525e-09
2.95467e-09
1.50741e-09
7.90146e-10
4.20355e-10
2.24758e-10
1.20014e-10
6.37688e-11
3.36593e-11
1.76392e-11
9.17809e-12
4.74321e-12
2.43557e-12
1.24284e-12
6.29994e-13
3.16656e-13
1.57078e-13
7.60381e-14
3.49585e-14
1.41405e-14
3.25567e-15
1.96347e-19
7.7938e-19
1.74107e-18
3.42582e-18
6.42179e-18
1.17911e-17
2.14698e-17
3.90202e-17
7.11028e-17
1.28505e-16
2.31698e-16
4.19893e-16
7.67367e-16
1.41517e-15
2.63185e-15
4.92915e-15
9.27815e-15
1.74946e-14
3.29043e-14
6.13999e-14
1.12934e-13
2.03421e-13
3.56974e-13
6.07802e-13
9.95516e-13
1.53545e-12
2.23906e-12
3.09158e-12
4.01565e-12
5.0291e-12
6.20224e-12
7.87772e-12
1.09278e-11
1.75279e-11
3.28578e-11
6.86978e-11
1.51547e-10
3.39803e-10
7.56544e-10
1.66011e-09
3.59095e-09
7.57593e-09
1.56888e-08
3.19946e-08
6.38043e-08
1.257e-07
2.42394e-07
4.63398e-07
8.66915e-07
1.62179e-06
2.94837e-06
5.30783e-06
9.45257e-06
1.66587e-05
2.90562e-05
5.01718e-05
8.57987e-05
0.000145423
0.00024466
0.000404993
0.000553317
0.000620795
0.000595514
0.000506571
0.000389985
0.000274335
0.000176738
0.000104176
5.5866e-05
2.73343e-05
1.23467e-05
5.26866e-06
2.19562e-06
9.10422e-07
3.76584e-07
1.49991e-07
5.97991e-08
2.4586e-08
1.12168e-08
5.3375e-09
2.64847e-09
1.36348e-09
7.20016e-10
3.85314e-10
2.0701e-10
1.10983e-10
5.91764e-11
3.13324e-11
1.64654e-11
8.58851e-12
4.44788e-12
2.28748e-12
1.16861e-12
5.92977e-13
2.98326e-13
1.48124e-13
7.17669e-14
3.30165e-14
1.33596e-14
3.07603e-15
1.95047e-19
7.74198e-19
1.72939e-18
3.40262e-18
6.37798e-18
1.17105e-17
2.13244e-17
3.87636e-17
7.06259e-17
1.27582e-16
2.29961e-16
4.16476e-16
7.60601e-16
1.4017e-15
2.6048e-15
4.87452e-15
9.16789e-15
1.72729e-14
3.24638e-14
6.05423e-14
1.1136e-13
2.00619e-13
3.52276e-13
6.00056e-13
9.83703e-13
1.51953e-12
2.22011e-12
3.07371e-12
4.00351e-12
5.02831e-12
6.22347e-12
7.94372e-12
1.11227e-11
1.80222e-11
3.41299e-11
7.19613e-11
1.5964e-10
3.59237e-10
8.02432e-10
1.76527e-09
3.82492e-09
8.08185e-09
1.67572e-08
3.42157e-08
6.83467e-08
1.34203e-07
2.59172e-07
4.94441e-07
9.25802e-07
1.7319e-06
3.14701e-06
5.66265e-06
1.00802e-05
1.77526e-05
3.09375e-05
5.33676e-05
9.11663e-05
0.000154354
0.000259431
0.000423952
0.000566236
0.000622847
0.000587798
0.000493277
0.000375329
0.00026118
0.000166931
9.55024e-05
5.05355e-05
2.4384e-05
1.09005e-05
4.61689e-06
1.91876e-06
7.9341e-07
3.28845e-07
1.30883e-07
5.23977e-08
2.20001e-08
1.00957e-08
4.83244e-09
2.4135e-09
1.25e-09
6.63425e-10
3.56499e-10
1.92192e-10
1.03346e-10
5.52502e-11
2.93235e-11
1.54434e-11
8.07207e-12
4.18929e-12
2.16011e-12
1.10653e-12
5.62582e-13
2.83281e-13
1.40691e-13
6.81597e-14
3.13505e-14
1.26833e-14
2.91996e-15
1.93713e-19
7.6888e-19
1.71736e-18
3.37842e-18
6.33122e-18
1.16213e-17
2.11538e-17
3.84344e-17
6.99995e-17
1.26376e-16
2.27482e-16
4.11601e-16
7.51062e-16
1.38297e-15
2.56795e-15
4.80198e-15
9.02609e-15
1.69989e-14
3.19447e-14
5.9587e-14
1.09628e-13
1.9766e-13
3.47548e-13
5.9288e-13
9.72935e-13
1.50476e-12
2.20398e-12
3.05921e-12
3.99545e-12
5.03309e-12
6.25319e-12
8.02444e-12
1.13335e-11
1.85641e-11
3.55282e-11
7.5552e-11
1.68592e-10
3.81236e-10
8.52949e-10
1.8792e-09
4.05967e-09
8.59406e-09
1.78328e-08
3.64509e-08
7.27651e-08
1.42876e-07
2.7587e-07
5.24985e-07
9.83743e-07
1.84125e-06
3.34761e-06
6.02367e-06
1.07198e-05
1.88697e-05
3.28644e-05
5.66537e-05
9.67143e-05
0.00016365
0.000274946
0.000441828
0.000577444
0.000623621
0.000579812
0.000480612
0.000361447
0.000248707
0.000157016
8.83702e-05
4.61474e-05
2.20027e-05
9.71418e-06
4.09477e-06
1.69899e-06
7.02826e-07
2.89856e-07
1.15203e-07
4.62963e-08
1.98231e-08
9.14044e-09
4.40062e-09
2.21239e-09
1.15296e-09
6.15137e-10
3.31962e-10
1.79585e-10
9.68436e-11
5.18996e-11
2.76023e-11
1.45628e-11
7.62313e-12
3.96083e-12
2.04359e-12
1.04728e-12
5.32898e-13
2.688e-13
1.33664e-13
6.4792e-14
2.98072e-14
1.20601e-14
2.7766e-15
1.92582e-19
7.64396e-19
1.7073e-18
3.35845e-18
6.29319e-18
1.15499e-17
2.10198e-17
3.81823e-17
6.95227e-17
1.25395e-16
2.25646e-16
4.08134e-16
7.44478e-16
1.37036e-15
2.54353e-15
4.75449e-15
8.9341e-15
1.68223e-14
3.16116e-14
5.89873e-14
1.0852e-13
1.95777e-13
3.44212e-13
5.87172e-13
9.64909e-13
1.49482e-12
2.19292e-12
3.04904e-12
3.9903e-12
5.03695e-12
6.29053e-12
8.10956e-12
1.15459e-11
1.91041e-11
3.6911e-11
7.90676e-11
1.77411e-10
4.01412e-10
9.00574e-10
1.98968e-09
4.30282e-09
9.11895e-09
1.89484e-08
3.87291e-08
7.73334e-08
1.51812e-07
2.93331e-07
5.57675e-07
1.04448e-06
1.95302e-06
3.54634e-06
6.37767e-06
1.13441e-05
1.99612e-05
3.47472e-05
5.98641e-05
0.000102133
0.000172723
0.00029006
0.000457971
0.000586738
0.00062344
0.000572323
0.000469181
0.000349261
0.000237829
0.000148623
8.25765e-05
4.2554e-05
2.00526e-05
8.78835e-06
3.69582e-06
1.5423e-06
6.18293e-07
2.55815e-07
1.02061e-07
4.13163e-08
1.79949e-08
8.36179e-09
4.05709e-09
2.05465e-09
1.07726e-09
5.77401e-10
3.12652e-10
1.69561e-10
9.1611e-11
4.91691e-11
2.61828e-11
1.38286e-11
7.24521e-12
3.76705e-12
1.9444e-12
9.96721e-13
5.07287e-13
2.55835e-13
1.27236e-13
6.17041e-14
2.83995e-14
1.14935e-14
2.64651e-15
1.9171e-19
7.60969e-19
1.69973e-18
3.34362e-18
6.26534e-18
1.14981e-17
2.09229e-17
3.79976e-17
6.91614e-17
1.24668e-16
2.24221e-16
4.05365e-16
7.39104e-16
1.35994e-15
2.52336e-15
4.7154e-15
8.85825e-15
1.66755e-14
3.1331e-14
5.84495e-14
1.07598e-13
1.94069e-13
3.41429e-13
5.83143e-13
9.59069e-13
1.48748e-12
2.18542e-12
3.04344e-12
3.99056e-12
5.04792e-12
6.32385e-12
8.19135e-12
1.17505e-11
1.9623e-11
3.82381e-11
8.24377e-11
1.85602e-10
4.20987e-10
9.46134e-10
2.09399e-09
4.53208e-09
9.61173e-09
1.99676e-08
4.0814e-08
8.15027e-08
1.60055e-07
3.09075e-07
5.87453e-07
1.10001e-06
2.05552e-06
3.73321e-06
6.71227e-06
1.19354e-05
2.09863e-05
3.65108e-05
6.2869e-05
0.000107207
0.000181247
0.000304335
0.000472391
0.000594443
0.000622385
0.000565054
0.000458679
0.000338362
0.000228354
0.000141409
7.78949e-05
3.97513e-05
1.85715e-05
8.0894e-06
3.39129e-06
1.41176e-06
5.64643e-07
2.33387e-07
9.31385e-08
3.78352e-08
1.66546e-08
7.77616e-09
3.79208e-09
1.92965e-09
1.01565e-09
5.45932e-10
2.96215e-10
1.60887e-10
8.70266e-11
4.67554e-11
2.49197e-11
1.31722e-11
6.90633e-12
3.59282e-12
1.85507e-12
9.5131e-13
4.84366e-13
2.44439e-13
1.2165e-13
5.90244e-14
2.71745e-14
1.09994e-14
2.533e-15
1.90895e-19
7.57738e-19
1.69249e-18
3.32934e-18
6.23848e-18
1.14487e-17
2.08335e-17
3.78377e-17
6.88797e-17
1.24123e-16
2.23175e-16
4.03334e-16
7.35027e-16
1.35178e-15
2.50716e-15
4.68373e-15
8.79733e-15
1.65597e-14
3.11169e-14
5.80425e-14
1.0683e-13
1.92787e-13
3.3936e-13
5.7986e-13
9.54636e-13
1.48221e-12
2.18054e-12
3.04073e-12
3.9934e-12
5.06058e-12
6.35669e-12
8.26872e-12
1.19393e-11
2.00983e-11
3.94428e-11
8.54627e-11
1.93128e-10
4.38945e-10
9.87558e-10
2.18752e-09
4.73667e-09
1.00484e-08
2.08836e-08
4.26973e-08
8.52899e-08
1.67474e-07
3.23396e-07
6.14644e-07
1.15081e-06
2.14942e-06
3.90264e-06
7.01316e-06
1.24632e-05
2.19056e-05
3.80862e-05
6.5536e-05
0.000111663
0.000188591
0.000318288
0.000485505
0.000600859
0.000621038
0.000558458
0.000448822
0.00032849
0.000219939
0.000135031
7.39789e-05
3.74289e-05
1.73548e-05
7.52113e-06
3.14935e-06
1.30932e-06
5.25899e-07
2.17198e-07
8.66564e-08
3.52722e-08
1.56316e-08
7.31923e-09
3.58102e-09
1.82827e-09
9.64906e-10
5.19679e-10
2.82359e-10
1.53513e-10
8.31031e-11
4.46775e-11
2.3827e-11
1.26023e-11
6.61231e-12
3.44362e-12
1.78091e-12
9.14753e-13
4.66297e-13
2.35353e-13
1.17092e-13
5.67959e-14
2.61434e-14
1.05806e-14
2.43647e-15
1.90217e-19
7.55056e-19
1.68651e-18
3.31754e-18
6.21625e-18
1.14075e-17
2.07575e-17
3.76968e-17
6.85973e-17
1.2357e-16
2.22146e-16
4.01478e-16
7.31751e-16
1.34563e-15
2.49509e-15
4.65913e-15
8.74853e-15
1.64661e-14
3.09365e-14
5.77269e-14
1.06274e-13
1.91856e-13
3.37884e-13
5.77619e-13
9.51536e-13
1.47863e-12
2.1776e-12
3.03999e-12
3.99778e-12
5.07391e-12
6.38849e-12
8.34194e-12
1.21184e-11
2.05444e-11
4.05731e-11
8.83301e-11
2.00239e-10
4.55883e-10
1.02682e-09
2.27719e-09
4.93076e-09
1.04586e-08
2.17339e-08
4.44277e-08
8.87564e-08
1.74285e-07
3.36537e-07
6.39576e-07
1.19726e-06
2.2346e-06
4.05748e-06
7.29009e-06
1.29496e-05
2.2745e-05
3.95229e-05
6.79658e-05
0.00011577
0.000195498
0.000329397
0.00049591
0.00060566
0.000619307
0.000552057
0.000440665
0.000320194
0.000212778
0.000129632
7.07268e-05
3.55213e-05
1.63611e-05
7.05896e-06
2.9479e-06
1.2219e-06
4.94062e-07
2.04097e-07
8.14297e-08
3.3189e-08
1.47883e-08
6.94503e-09
3.40922e-09
1.74589e-09
9.23606e-10
4.98239e-10
2.70991e-10
1.47433e-10
7.9851e-11
4.29455e-11
2.29097e-11
1.21174e-11
6.35717e-12
3.3107e-12
1.71293e-12
8.79951e-13
4.48642e-13
2.26602e-13
1.12821e-13
5.47544e-14
2.52123e-14
1.02057e-14
2.35032e-15
1.89667e-19
7.52882e-19
1.68167e-18
3.30801e-18
6.19833e-18
1.13744e-17
2.06966e-17
3.75849e-17
6.83679e-17
1.23112e-16
2.21268e-16
3.99812e-16
7.2857e-16
1.33973e-15
2.48432e-15
4.63988e-15
8.71174e-15
1.63943e-14
3.08004e-14
5.74702e-14
1.05842e-13
1.91148e-13
3.36706e-13
5.7591e-13
9.49278e-13
1.47624e-12
2.17604e-12
3.04058e-12
4.00301e-12
5.08716e-12
6.41827e-12
8.40901e-12
1.22804e-11
2.09537e-11
4.16219e-11
9.09292e-11
2.06568e-10
4.70866e-10
1.06142e-09
2.35449e-09
5.10116e-09
1.08267e-08
2.25097e-08
4.60215e-08
9.19289e-08
1.80464e-07
3.48336e-07
6.6165e-07
1.23807e-06
2.30926e-06
4.19088e-06
7.52607e-06
1.3364e-05
2.34653e-05
4.07573e-05
7.00623e-05
0.000119261
0.000201282
0.000338547
0.000504248
0.000609262
0.0006175
0.000546427
0.000433697
0.000313203
0.000206841
0.000125159
6.80634e-05
3.39477e-05
1.5548e-05
6.67728e-06
2.78256e-06
1.15116e-06
4.68552e-07
1.93361e-07
7.71406e-08
3.14891e-08
1.40934e-08
6.63582e-09
3.26648e-09
1.67698e-09
8.88801e-10
4.80049e-10
2.61295e-10
1.42228e-10
7.70616e-11
4.14627e-11
2.21329e-11
1.17212e-11
6.15828e-12
3.20938e-12
1.66062e-12
8.53162e-13
4.34979e-13
2.19638e-13
1.09335e-13
5.30563e-14
2.44283e-14
9.88766e-15
2.277e-15
1.89228e-19
7.51151e-19
1.67781e-18
3.30044e-18
6.18413e-18
1.13483e-17
2.06488e-17
3.74973e-17
6.81846e-17
1.22743e-16
2.20561e-16
3.9848e-16
7.26056e-16
1.33496e-15
2.47524e-15
4.62254e-15
8.68019e-15
1.63375e-14
3.06971e-14
5.7285e-14
1.05519e-13
1.90608e-13
3.35894e-13
5.74724e-13
9.47797e-13
1.47479e-12
2.17547e-12
3.04201e-12
4.00857e-12
5.09978e-12
6.44546e-12
8.46934e-12
1.24253e-11
2.13111e-11
4.25103e-11
9.31426e-11
2.12005e-10
4.83723e-10
1.09087e-09
2.42164e-09
5.24679e-09
1.11347e-08
2.31449e-08
4.73097e-08
9.45316e-08
1.85646e-07
3.585e-07
6.80758e-07
1.27343e-06
2.37275e-06
4.30465e-06
7.72802e-06
1.37165e-05
2.40738e-05
4.17985e-05
7.18149e-05
0.000122187
0.000206146
0.000346195
0.000511011
0.000611951
0.000615651
0.000541432
0.000427468
0.000307062
0.000201656
0.000121242
6.57708e-05
3.26359e-05
1.48718e-05
6.36974e-06
2.64949e-06
1.0939e-06
4.47994e-07
1.84788e-07
7.36728e-08
3.01005e-08
1.35157e-08
6.37595e-09
3.1452e-09
1.6178e-09
8.58658e-10
4.64204e-10
2.52821e-10
1.37669e-10
7.46141e-11
4.01558e-11
2.14391e-11
1.13539e-11
5.96642e-12
3.11321e-12
1.61215e-12
8.28611e-13
4.22433e-13
2.13338e-13
1.06214e-13
5.15477e-14
2.37354e-14
9.60744e-15
2.2125e-15
1.88883e-19
7.49788e-19
1.67478e-18
3.29449e-18
6.17299e-18
1.13278e-17
2.06114e-17
3.74291e-17
6.80407e-17
1.22453e-16
2.20006e-16
3.97437e-16
7.24098e-16
1.33126e-15
2.46824e-15
4.60932e-15
8.65547e-15
1.62903e-14
3.0614e-14
5.71467e-14
1.05287e-13
1.90232e-13
3.35309e-13
5.73902e-13
9.46825e-13
1.47399e-12
2.17556e-12
3.04394e-12
4.01399e-12
5.11107e-12
6.4688e-12
8.51965e-12
1.25444e-11
2.16085e-11
4.32543e-11
9.49968e-11
2.16509e-10
4.9431e-10
1.11514e-09
2.47535e-09
5.36166e-09
1.13735e-08
2.36334e-08
4.82683e-08
9.63602e-08
1.89025e-07
3.68276e-07
6.97449e-07
1.30347e-06
2.42645e-06
4.40102e-06
7.89741e-06
1.40106e-05
2.45781e-05
4.26474e-05
7.32394e-05
0.000124548
0.00021001
0.000352218
0.00051608
0.000613618
0.000613485
0.00053669
0.00042179
0.000301669
0.000197221
0.000117977
6.39069e-05
3.15605e-05
1.43253e-05
6.11807e-06
2.54178e-06
1.04799e-06
4.31707e-07
1.77601e-07
7.06593e-08
2.88648e-08
1.29902e-08
6.13782e-09
3.03389e-09
1.56364e-09
8.3125e-10
4.49923e-10
2.45256e-10
1.33637e-10
7.24666e-11
3.90168e-11
2.08384e-11
1.10383e-11
5.80076e-12
3.02543e-12
1.56659e-12
8.05433e-13
4.1092e-13
2.07643e-13
1.03424e-13
5.02099e-14
2.31245e-14
9.36138e-15
2.15595e-15
1.88615e-19
7.48731e-19
1.67243e-18
3.28987e-18
6.16432e-18
1.13118e-17
2.05821e-17
3.73755e-17
6.79292e-17
1.22229e-16
2.19578e-16
3.96637e-16
7.226e-16
1.32845e-15
2.46292e-15
4.59931e-15
8.63638e-15
1.62561e-14
3.05515e-14
5.70371e-14
1.05109e-13
1.89952e-13
3.34895e-13
5.73347e-13
9.46225e-13
1.47363e-12
2.17605e-12
3.04605e-12
4.01918e-12
5.12151e-12
6.48976e-12
8.56488e-12
1.26505e-11
2.18685e-11
4.391e-11
9.66311e-11
2.2052e-10
5.03712e-10
1.13651e-09
2.52325e-09
5.46584e-09
1.15958e-08
2.40942e-08
4.92045e-08
9.8244e-08
1.92757e-07
3.75473e-07
7.10823e-07
1.32797e-06
2.4703e-06
4.47962e-06
8.03603e-06
1.42518e-05
2.49939e-05
4.33568e-05
7.44292e-05
0.000126529
0.000213295
0.000357384
0.000520508
0.000615241
0.00061204
0.00053323
0.000417532
0.000297539
0.000193789
0.000115437
6.24618e-05
3.07369e-05
1.39084e-05
5.9286e-06
2.46134e-06
1.01516e-06
4.21043e-07
1.68016e-07
6.70914e-08
2.75205e-08
1.24517e-08
5.90716e-09
2.93069e-09
1.5151e-09
8.07304e-10
4.37675e-10
2.38849e-10
1.30251e-10
7.06733e-11
3.80701e-11
2.03413e-11
1.07789e-11
5.66605e-12
2.95585e-12
1.53088e-12
7.87229e-13
4.01723e-13
2.03041e-13
1.01152e-13
4.91148e-14
2.26226e-14
9.15872e-15
2.10925e-15
1.88416e-19
7.47944e-19
1.67068e-18
3.28645e-18
6.1579e-18
1.13e-17
2.05606e-17
3.73365e-17
6.78462e-17
1.2206e-16
2.19257e-16
3.96038e-16
7.21483e-16
1.32636e-15
2.45901e-15
4.592e-15
8.62271e-15
1.62311e-14
3.05067e-14
5.69596e-14
1.04981e-13
1.89758e-13
3.34618e-13
5.72994e-13
9.45889e-13
1.47356e-12
2.17671e-12
3.04805e-12
4.02363e-12
5.13005e-12
6.50684e-12
8.60152e-12
1.2737e-11
2.20829e-11
4.44506e-11
9.79751e-11
2.23766e-10
5.11331e-10
1.15408e-09
2.56268e-09
5.55148e-09
1.17779e-08
2.4473e-08
4.99738e-08
9.97793e-08
1.95752e-07
3.81101e-07
7.21406e-07
1.34752e-06
2.50537e-06
4.54269e-06
8.14775e-06
1.44471e-05
2.53295e-05
4.39297e-05
7.53959e-05
0.000128146
0.00021599
0.000361602
0.000524098
0.000616568
0.000610967
0.000530621
0.000414316
0.000294443
0.000191238
0.000113571
6.13353e-05
3.00951e-05
1.35853e-05
5.78213e-06
2.39883e-06
9.89094e-07
4.10061e-07
1.63354e-07
6.51641e-08
2.6734e-08
1.21139e-08
5.75433e-09
2.85939e-09
1.48045e-09
7.89788e-10
4.28555e-10
2.34021e-10
1.27679e-10
6.93038e-11
3.73441e-11
1.99586e-11
1.05784e-11
5.5619e-12
2.90215e-12
1.5034e-12
7.73257e-13
3.94664e-13
1.99504e-13
9.94021e-14
4.82692e-14
2.22342e-14
9.00169e-15
2.0731e-15
1.88275e-19
7.47391e-19
1.66945e-18
3.28404e-18
6.1534e-18
1.12918e-17
2.05456e-17
3.73091e-17
6.77871e-17
1.2194e-16
2.19026e-16
3.95605e-16
7.20674e-16
1.32484e-15
2.45616e-15
4.58661e-15
8.61293e-15
1.62133e-14
3.04761e-14
5.69079e-14
1.04897e-13
1.89629e-13
3.34439e-13
5.72782e-13
9.45719e-13
1.47362e-12
2.17736e-12
3.04974e-12
4.02717e-12
5.13672e-12
6.51998e-12
8.62964e-12
1.28035e-11
2.22478e-11
4.4865e-11
9.9005e-11
2.26273e-10
5.17235e-10
1.16753e-09
2.59282e-09
5.61709e-09
1.19171e-08
2.47617e-08
5.0552e-08
1.00929e-07
1.97996e-07
3.85317e-07
7.29361e-07
1.36221e-06
2.53169e-06
4.59007e-06
8.23166e-06
1.45937e-05
2.55827e-05
4.43601e-05
7.61211e-05
0.000129358
0.000217993
0.000364754
0.000526746
0.000617524
0.000610171
0.00052871
0.000411988
0.000292203
0.0001894
0.00011225
6.04923e-05
2.96197e-05
1.33475e-05
5.67448e-06
2.35277e-06
9.69867e-07
4.01965e-07
1.60039e-07
6.38371e-08
2.62029e-08
1.18883e-08
5.65274e-09
2.81185e-09
1.45718e-09
7.779e-10
4.22296e-10
2.30671e-10
1.25878e-10
6.83371e-11
3.68289e-11
1.96869e-11
1.04367e-11
5.48851e-12
2.86429e-12
1.48394e-12
7.633e-13
3.89608e-13
1.96959e-13
9.81394e-14
4.76576e-14
2.19529e-14
8.88783e-15
2.04688e-15
1.88188e-19
7.47049e-19
1.66869e-18
3.28255e-18
6.15062e-18
1.12867e-17
2.05363e-17
3.72922e-17
6.77503e-17
1.21864e-16
2.18881e-16
3.95333e-16
7.20167e-16
1.32389e-15
2.4544e-15
4.58336e-15
8.60698e-15
1.62027e-14
3.04574e-14
5.68767e-14
1.04848e-13
1.89556e-13
3.3434e-13
5.7267e-13
9.45652e-13
1.47372e-12
2.17788e-12
3.05099e-12
4.0297e-12
5.14139e-12
6.52906e-12
8.64883e-12
1.28488e-11
2.23603e-11
4.51479e-11
9.97039e-11
2.27974e-10
5.21242e-10
1.17672e-09
2.61348e-09
5.6618e-09
1.20114e-08
2.49558e-08
5.09419e-08
1.017e-07
1.99488e-07
3.88101e-07
7.34611e-07
1.37192e-06
2.54907e-06
4.62133e-06
8.28692e-06
1.469e-05
2.57486e-05
4.46426e-05
7.65963e-05
0.000130149
0.000219302
0.000366882
0.000528508
0.000618146
0.00060964
0.000527459
0.000410469
0.000290752
0.000188213
0.000111391
5.99414e-05
2.93088e-05
1.31919e-05
5.6043e-06
2.32294e-06
9.57417e-07
3.96735e-07
1.57926e-07
6.29873e-08
2.58644e-08
1.17452e-08
5.58862e-09
2.78189e-09
1.4425e-09
7.70392e-10
4.18337e-10
2.28549e-10
1.24733e-10
6.77215e-11
3.64997e-11
1.95119e-11
1.03444e-11
5.44022e-12
2.8393e-12
1.47112e-12
7.5678e-13
3.86311e-13
1.95306e-13
9.73202e-14
4.72613e-14
2.17706e-14
8.81404e-15
2.02988e-15
1.88149e-19
7.46893e-19
1.66835e-18
3.28188e-18
6.14936e-18
1.12844e-17
2.05322e-17
3.72848e-17
6.77337e-17
1.21829e-16
2.18814e-16
3.95209e-16
7.19934e-16
1.32346e-15
2.45358e-15
4.58184e-15
8.6042e-15
1.61976e-14
3.04486e-14
5.68617e-14
1.04824e-13
1.89521e-13
3.34295e-13
5.72623e-13
9.45632e-13
1.4738e-12
2.17817e-12
3.05164e-12
4.03099e-12
5.14375e-12
6.53361e-12
8.65851e-12
1.28717e-11
2.24168e-11
4.52893e-11
1.00055e-10
2.28828e-10
5.23247e-10
1.1813e-09
2.62367e-09
5.68383e-09
1.20579e-08
2.5052e-08
5.1135e-08
1.02084e-07
2.00234e-07
3.8949e-07
7.37228e-07
1.37674e-06
2.55769e-06
4.63683e-06
8.31434e-06
1.47378e-05
2.58308e-05
4.47821e-05
7.68308e-05
0.00013054
0.000219949
0.000367932
0.000529369
0.000618444
0.000609371
0.000526838
0.000409718
0.000290039
0.000187633
0.000110973
5.96717e-05
2.91565e-05
1.31158e-05
5.57004e-06
2.3084e-06
9.51367e-07
3.94203e-07
1.5691e-07
6.25826e-08
2.57029e-08
1.1677e-08
5.55822e-09
2.76773e-09
1.43558e-09
7.66861e-10
4.16479e-10
2.27554e-10
1.24197e-10
6.74331e-11
3.63453e-11
1.94298e-11
1.0301e-11
5.41752e-12
2.82751e-12
1.46505e-12
7.53673e-13
3.84734e-13
1.94511e-13
9.69252e-14
4.70696e-14
2.16823e-14
8.77824e-15
2.02162e-15
1.88153e-19
7.46911e-19
1.66839e-18
3.28196e-18
6.14953e-18
1.12847e-17
2.05328e-17
3.72859e-17
6.77358e-17
1.21833e-16
2.18821e-16
3.95221e-16
7.19954e-16
1.32349e-15
2.45363e-15
4.58191e-15
8.60428e-15
1.61977e-14
3.04487e-14
5.68618e-14
1.04824e-13
1.89522e-13
3.34295e-13
5.72623e-13
9.45633e-13
1.4738e-12
2.17817e-12
3.05165e-12
4.03101e-12
5.14377e-12
6.53365e-12
8.65859e-12
1.28718e-11
2.24172e-11
4.52901e-11
1.00057e-10
2.28832e-10
5.23256e-10
1.18132e-09
2.62371e-09
5.6839e-09
1.20581e-08
2.50522e-08
5.11355e-08
1.02085e-07
2.00235e-07
3.89493e-07
7.37233e-07
1.37675e-06
2.55771e-06
4.63686e-06
8.31439e-06
1.47379e-05
2.5831e-05
4.47824e-05
7.68314e-05
0.000130541
0.000219951
0.000367936
0.000529375
0.000618449
0.000609374
0.000526841
0.000409722
0.000290042
0.000187636
0.000110977
5.96735e-05
2.91574e-05
1.31162e-05
5.5702e-06
2.30846e-06
9.51393e-07
3.94214e-07
1.56914e-07
6.25844e-08
2.57036e-08
1.16773e-08
5.55836e-09
2.7678e-09
1.43561e-09
7.66878e-10
4.16488e-10
2.27559e-10
1.242e-10
6.74345e-11
3.6346e-11
1.94302e-11
1.03012e-11
5.41762e-12
2.82756e-12
1.46507e-12
7.53686e-13
3.8474e-13
1.94514e-13
9.69267e-14
4.70703e-14
2.16826e-14
8.77836e-15
2.02165e-15
1.88201e-19
7.47097e-19
1.6688e-18
3.28277e-18
6.15105e-18
1.12875e-17
2.05379e-17
3.72952e-17
6.77557e-17
1.21874e-16
2.18898e-16
3.95363e-16
7.20215e-16
1.32397e-15
2.45451e-15
4.58351e-15
8.60717e-15
1.62029e-14
3.04577e-14
5.6877e-14
1.04848e-13
1.89556e-13
3.34341e-13
5.72672e-13
9.45656e-13
1.47373e-12
2.17789e-12
3.05101e-12
4.02974e-12
5.14147e-12
6.52919e-12
8.64909e-12
1.28494e-11
2.23615e-11
4.51508e-11
9.97109e-11
2.27991e-10
5.21282e-10
1.1768e-09
2.61361e-09
5.66204e-09
1.20118e-08
2.49567e-08
5.09436e-08
1.01704e-07
1.99495e-07
3.88112e-07
7.34628e-07
1.37194e-06
2.5491e-06
4.62137e-06
8.28701e-06
1.46902e-05
2.57488e-05
4.46429e-05
7.65968e-05
0.00013015
0.000219303
0.000366884
0.000528512
0.000618152
0.000609647
0.000527468
0.000410478
0.00029076
0.00018822
0.000111396
5.99443e-05
2.93104e-05
1.31927e-05
5.60468e-06
2.32312e-06
9.5749e-07
3.96766e-07
1.57939e-07
6.29924e-08
2.58665e-08
1.17461e-08
5.58904e-09
2.78209e-09
1.4426e-09
7.70441e-10
4.18362e-10
2.28562e-10
1.24741e-10
6.77255e-11
3.65018e-11
1.9513e-11
1.0345e-11
5.44053e-12
2.83946e-12
1.4712e-12
7.56817e-13
3.86329e-13
1.95314e-13
9.73242e-14
4.72632e-14
2.17715e-14
8.8144e-15
2.02996e-15
1.88292e-19
7.47459e-19
1.66961e-18
3.28434e-18
6.15398e-18
1.12929e-17
2.05476e-17
3.73129e-17
6.7794e-17
1.21952e-16
2.19047e-16
3.95641e-16
7.20731e-16
1.32493e-15
2.45629e-15
4.58679e-15
8.61316e-15
1.62136e-14
3.04764e-14
5.69083e-14
1.04898e-13
1.8963e-13
3.34441e-13
5.72786e-13
9.45727e-13
1.47363e-12
2.17738e-12
3.04978e-12
4.02724e-12
5.13681e-12
6.52013e-12
8.62989e-12
1.2804e-11
2.22489e-11
4.4868e-11
9.90129e-11
2.26294e-10
5.1729e-10
1.16767e-09
2.59315e-09
5.61769e-09
1.19181e-08
2.47633e-08
5.05559e-08
1.00934e-07
1.97999e-07
3.85314e-07
7.29347e-07
1.36221e-06
2.5317e-06
4.59009e-06
8.23171e-06
1.45938e-05
2.55828e-05
4.43605e-05
7.61219e-05
0.000129359
0.000217996
0.000364759
0.000526751
0.000617531
0.000610179
0.000528722
0.000412001
0.000292216
0.00018941
0.000112258
6.04973e-05
2.96227e-05
1.33491e-05
5.67518e-06
2.35307e-06
9.69991e-07
4.02018e-07
1.60061e-07
6.38462e-08
2.62066e-08
1.18899e-08
5.65347e-09
2.8122e-09
1.45735e-09
7.77987e-10
4.22341e-10
2.30695e-10
1.2589e-10
6.83438e-11
3.68325e-11
1.96887e-11
1.04377e-11
5.48905e-12
2.86458e-12
1.48408e-12
7.63375e-13
3.89644e-13
1.96977e-13
9.81477e-14
4.76615e-14
2.19546e-14
8.88848e-15
2.04703e-15
1.88435e-19
7.48021e-19
1.67085e-18
3.28679e-18
6.15855e-18
1.13012e-17
2.05629e-17
3.73406e-17
6.78535e-17
1.22073e-16
2.19278e-16
3.96073e-16
7.21537e-16
1.32644e-15
2.45913e-15
4.59216e-15
8.62295e-15
1.62315e-14
3.05072e-14
5.69605e-14
1.04983e-13
1.89761e-13
3.34622e-13
5.73001e-13
9.45901e-13
1.47358e-12
2.17674e-12
3.04809e-12
4.02369e-12
5.13014e-12
6.50697e-12
8.60166e-12
1.27372e-11
2.20828e-11
4.44497e-11
9.7971e-11
2.23769e-10
5.11342e-10
1.15411e-09
2.56278e-09
5.55177e-09
1.17789e-08
2.44749e-08
4.99747e-08
9.97804e-08
1.95755e-07
3.81111e-07
7.2143e-07
1.34754e-06
2.5054e-06
4.54272e-06
8.14774e-06
1.4447e-05
2.53291e-05
4.39287e-05
7.53964e-05
0.000128148
0.000215992
0.000361606
0.000524103
0.000616575
0.00061098
0.000530637
0.000414334
0.00029446
0.000191252
0.000113581
6.1342e-05
3.0099e-05
1.35873e-05
5.78305e-06
2.3992e-06
9.89255e-07
4.10131e-07
1.63383e-07
6.51762e-08
2.6739e-08
1.2116e-08
5.75532e-09
2.85985e-09
1.48068e-09
7.89905e-10
4.28616e-10
2.34053e-10
1.27696e-10
6.93129e-11
3.73489e-11
1.9961e-11
1.05797e-11
5.5625e-12
2.90244e-12
1.50354e-12
7.73325e-13
3.94697e-13
1.99519e-13
9.94092e-14
4.82723e-14
2.22356e-14
9.00221e-15
2.07322e-15
1.88635e-19
7.4881e-19
1.67261e-18
3.29022e-18
6.16498e-18
1.1313e-17
2.05844e-17
3.73796e-17
6.79364e-17
1.22241e-16
2.19599e-16
3.9667e-16
7.22652e-16
1.32852e-15
2.46304e-15
4.59947e-15
8.63662e-15
1.62565e-14
3.05521e-14
5.70382e-14
1.05111e-13
1.89955e-13
3.349e-13
5.73356e-13
9.46239e-13
1.47366e-12
2.17608e-12
3.0461e-12
4.01924e-12
5.12155e-12
6.48989e-12
8.56512e-12
1.26509e-11
2.18694e-11
4.39118e-11
9.66356e-11
2.20514e-10
5.03691e-10
1.13645e-09
2.52313e-09
5.4656e-09
1.15952e-08
2.40933e-08
4.92034e-08
9.82431e-08
1.92758e-07
3.75477e-07
7.10826e-07
1.32799e-06
2.47034e-06
4.47969e-06
8.03612e-06
1.42519e-05
2.4994e-05
4.33566e-05
7.44294e-05
0.000126529
0.000213295
0.000357382
0.000520505
0.000615244
0.000612051
0.000533248
0.000417554
0.00029756
0.000193807