/*--------------------------------*- C++ -*----------------------------------*\
  =========                 |
  \\      /  F ield         | OpenFOAM: The Open Source CFD Toolbox
   \\    /   O peration     | Website:  https://openfoam.org
    \\  /    A nd           | Version:  10
     \\/     M anipulation  |
\*---------------------------------------------------------------------------*/
FoamFile
{
    format      ascii;
    class       volScalarField;
    location    "1";
    object      O2;
}
// * * * * * * * * * * * * * * * * * * * * * * * * * * * * * * * * * * * * * //

dimensions      [0 0 0 0 0 0 0];

internalField   nonuniform List<scalar> 
4000
(
1.68809e-08
6.54e-08
1.39409e-07
2.56258e-07
4.40584e-07
7.30338e-07
1.18385e-06
1.88996e-06
2.98266e-06
4.60558e-06
6.98444e-06
1.04475e-05
1.54386e-05
2.25332e-05
3.24491e-05
4.60407e-05
6.42558e-05
8.80609e-05
0.000118331
0.000155736
0.000200634
0.00025301
0.000312468
0.000378569
0.000450138
0.000524537
0.000602379
0.000683846
0.000765472
0.00084813
0.000929506
0.00100971
0.00108762
0.00116234
0.00123341
0.00130051
0.00136341
0.00142197
0.00147602
0.00152557
0.00157096
0.00161157
0.00164784
0.00168
0.00170843
0.00173389
0.00175638
0.00177733
0.00179835
0.00182373
0.00185777
0.00190982
0.00199446
0.00213505
0.0023703
0.00276697
0.00344665
0.00464226
0.00680638
0.0108095
0.0174288
0.0268789
0.0388349
0.0526609
0.067786
0.0832591
0.0987279
0.11384
0.128835
0.142513
0.155316
0.167242
0.178198
0.188137
0.196998
0.204702
0.211532
0.217083
0.221374
0.224501
0.226644
0.228027
0.228876
0.229375
0.229659
0.229817
0.229903
0.229949
0.229973
0.229986
0.229993
0.229996
0.229998
0.229999
0.23
0.23
0.23
0.23
0.23
0.23
1.68964e-08
6.5463e-08
1.39561e-07
2.566e-07
4.41311e-07
7.3178e-07
1.1865e-06
1.89447e-06
2.98965e-06
4.61673e-06
6.9995e-06
1.04641e-05
1.54506e-05
2.25271e-05
3.23991e-05
4.59005e-05
6.39474e-05
8.74974e-05
0.000117431
0.000154437
0.000198914
0.000250913
0.000310138
0.000375671
0.000446893
0.000521035
0.000598748
0.00068043
0.000762275
0.000845452
0.000927401
0.00100826
0.00108681
0.00116238
0.00123429
0.00130223
0.00136598
0.00142545
0.00148039
0.00153086
0.00157722
0.00161887
0.0016563
0.00168985
0.00171971
0.00174633
0.00176975
0.00179224
0.00181457
0.00184171
0.00187795
0.00193237
0.00202056
0.00216633
0.00241005
0.0028208
0.00352481
0.00476362
0.00701157
0.01116
0.0179736
0.0276306
0.0397804
0.0537703
0.0690061
0.0845692
0.100081
0.115164
0.130145
0.14379
0.156583
0.1684
0.179288
0.18916
0.197989
0.205665
0.212347
0.217733
0.221855
0.22483
0.22685
0.228147
0.228941
0.229408
0.229675
0.229824
0.229906
0.22995
0.229974
0.229986
0.229993
0.229996
0.229998
0.229999
0.23
0.23
0.23
0.23
0.23
0.23
1.69487e-08
6.56726e-08
1.40038e-07
2.57546e-07
4.43058e-07
7.34839e-07
1.19159e-06
1.90248e-06
3.00139e-06
4.63371e-06
7.02161e-06
1.04893e-05
1.54742e-05
2.25372e-05
3.23739e-05
4.58025e-05
6.37352e-05
8.7113e-05
0.000116799
0.000153472
0.00019753
0.000249026
0.000307763
0.000373066
0.000444101
0.000518152
0.000595971
0.000677772
0.000759857
0.000843527
0.000925885
0.00100731
0.00108655
0.00116317
0.00123623
0.0013054
0.00137042
0.00143124
0.00148754
0.00153941
0.00158724
0.00163034
0.00166941
0.00170486
0.00173602
0.00176433
0.0017898
0.00181441
0.0018397
0.00186982
0.00190922
0.00196855
0.00206273
0.0022173
0.00247502
0.00290851
0.00365266
0.00496775
0.00735949
0.0117515
0.0188843
0.0288755
0.04134
0.0555647
0.0709088
0.086559
0.102103
0.117187
0.132095
0.14567
0.158317
0.170071
0.180767
0.190403
0.19928
0.206689
0.21318
0.218366
0.222301
0.225121
0.227028
0.228249
0.228997
0.229438
0.229691
0.229832
0.22991
0.229952
0.229975
0.229987
0.229993
0.229997
0.229998
0.229999
0.23
0.23
0.23
0.23
0.23
0.23
1.69702e-08
6.57564e-08
1.40219e-07
2.57881e-07
4.43622e-07
7.35708e-07
1.19278e-06
1.90381e-06
3.00222e-06
4.63324e-06
7.01655e-06
1.04726e-05
1.54318e-05
2.24512e-05
3.22191e-05
4.55496e-05
6.33446e-05
8.65392e-05
0.000115999
0.000152415
0.00019621
0.000247475
0.000305914
0.000371024
0.000441993
0.000515975
0.000593805
0.000675821
0.000758102
0.000842167
0.000925044
0.00100715
0.00108723
0.00116487
0.00123921
0.00130979
0.00137627
0.00143864
0.00149653
0.00155008
0.00159972
0.00164476
0.00168559
0.0017226
0.00175586
0.0017864
0.00181433
0.0018418
0.00186968
0.00190293
0.00194594
0.00201017
0.00211184
0.00227792
0.00255255
0.00301543
0.00381189
0.00522302
0.00779508
0.0124858
0.0199855
0.0303205
0.043328
0.0577804
0.0732332
0.0889757
0.104538
0.119574
0.134268
0.147803
0.160403
0.171946
0.182469
0.191978
0.200574
0.207755
0.214061
0.219042
0.222785
0.225443
0.227229
0.228368
0.229064
0.229474
0.22971
0.229842
0.229915
0.229955
0.229976
0.229988
0.229994
0.229997
0.229998
0.229999
0.23
0.23
0.23
0.23
0.23
0.23
1.69656e-08
6.57386e-08
1.4018e-07
2.57802e-07
4.43455e-07
7.35337e-07
1.19194e-06
1.90192e-06
2.99808e-06
4.62441e-06
6.99921e-06
1.0441e-05
1.53785e-05
2.23636e-05
3.2079e-05
4.53325e-05
6.30209e-05
8.60757e-05
0.000115364
0.000151587
0.000195184
0.000246273
0.000304589
0.000369533
0.000440328
0.000514162
0.00059189
0.000674167
0.00075682
0.000841376
0.00092489
0.00100774
0.00108876
0.00116749
0.00124325
0.00131517
0.00138312
0.00144705
0.00150656
0.00156177
0.0016132
0.00166001
0.00170277
0.00174194
0.00177737
0.00181011
0.00184023
0.00187008
0.00190052
0.00193714
0.00198463
0.00205468
0.00216462
0.00234274
0.00263741
0.0031338
0.00398996
0.00551274
0.00829651
0.0133548
0.0212977
0.0320972
0.0454927
0.060207
0.075765
0.0915797
0.107176
0.12227
0.136628
0.149998
0.162435
0.17384
0.184256
0.193518
0.201657
0.208981
0.214993
0.219719
0.223248
0.225743
0.227412
0.228474
0.229123
0.229507
0.229727
0.229851
0.22992
0.229957
0.229977
0.229988
0.229994
0.229997
0.229998
0.229999
0.23
0.23
0.23
0.23
0.23
0.23
1.6936e-08
6.56239e-08
1.39933e-07
2.57335e-07
4.42615e-07
7.33851e-07
1.1893e-06
1.89715e-06
2.98971e-06
4.61016e-06
6.97641e-06
1.04062e-05
1.53253e-05
2.22817e-05
3.19546e-05
4.5147e-05
6.27511e-05
8.56923e-05
0.000114833
0.00015087
0.000194242
0.000245055
0.000303073
0.000367864
0.00043867
0.000512604
0.000590552
0.000673132
0.000756141
0.000841184
0.000925358
0.00100896
0.00109095
0.00117073
0.00124775
0.0013211
0.00139053
0.00145604
0.00151721
0.00157421
0.00162737
0.001676
0.00172072
0.00176203
0.00179974
0.00183493
0.0018678
0.00190028
0.00193409
0.00197459
0.00202635
0.00210161
0.00221878
0.00240873
0.00272316
0.00325371
0.00417175
0.0058113
0.00881594
0.0142311
0.022575
0.0337456
0.0474503
0.0623911
0.0781176
0.094018
0.109656
0.124711
0.138949
0.152204
0.16446
0.175701
0.185871
0.194937
0.202928
0.210017
0.215799
0.220313
0.223661
0.226013
0.227579
0.228573
0.229179
0.229537
0.229744
0.22986
0.229924
0.22996
0.229979
0.229989
0.229994
0.229997
0.229998
0.229999
0.23
0.23
0.23
0.23
0.23
0.23
1.68856e-08
6.54278e-08
1.39509e-07
2.56538e-07
4.41215e-07
7.31488e-07
1.18545e-06
1.89115e-06
2.98007e-06
4.5941e-06
6.95123e-06
1.03661e-05
1.52626e-05
2.21861e-05
3.1812e-05
4.49389e-05
6.24565e-05
8.52867e-05
0.000114292
0.000150172
0.000193405
0.00024409
0.000302038
0.000366771
0.000437573
0.000511563
0.000589637
0.000672512
0.000755908
0.000841438
0.000926274
0.00101055
0.00109384
0.00117459
0.00125272
0.00132739
0.00139821
0.00146517
0.00152784
0.00158652
0.00164142
0.00169182
0.00173833
0.00178149
0.00182146
0.00185865
0.00189388
0.0019288
0.00196552
0.00200927
0.00206483
0.00214528
0.00227022
0.00247212
0.00280619
0.00337087
0.00435136
0.00610962
0.00933826
0.0150977
0.023821
0.0353426
0.0493153
0.0644438
0.080232
0.0961089
0.111609
0.127049
0.141084
0.154186
0.166269
0.177369
0.187381
0.196308
0.204041
0.210927
0.216508
0.220833
0.224021
0.226247
0.227723
0.228658
0.229227
0.229564
0.229758
0.229868
0.229928
0.229962
0.22998
0.229989
0.229994
0.229997
0.229999
0.229999
0.23
0.23
0.23
0.23
0.23
0.23
1.68273e-08
6.52012e-08
1.39019e-07
2.55617e-07
4.39583e-07
7.2868e-07
1.18069e-06
1.88312e-06
2.96694e-06
4.57248e-06
6.91405e-06
1.03065e-05
1.51704e-05
2.20473e-05
3.16084e-05
4.46492e-05
6.20581e-05
8.47591e-05
0.000113624
0.000149368
0.000192457
0.000243046
0.000300982
0.000365773
0.000436633
0.000510703
0.000589011
0.000672184
0.000756031
0.000842116
0.000927691
0.00101272
0.00109697
0.0011787
0.00125793
0.00133386
0.00140602
0.0014746
0.00153896
0.00159911
0.00165519
0.00170726
0.00175545
0.00180069
0.0018422
0.00188114
0.00191807
0.00195487
0.0019939
0.0020407
0.00210032
0.00218606
0.00231855
0.00253214
0.00288557
0.00348421
0.00452741
0.00640572
0.0098608
0.0159467
0.0250285
0.0368713
0.0510736
0.066359
0.0822491
0.0981427
0.11364
0.129076
0.142968
0.155928
0.167907
0.178829
0.188676
0.19744
0.205047
0.211744
0.217136
0.22129
0.224333
0.226448
0.227847
0.228731
0.229269
0.229587
0.229771
0.229874
0.229932
0.229964
0.229981
0.22999
0.229995
0.229997
0.229999
0.229999
0.23
0.23
0.23
0.23
0.23
0.23
1.67726e-08
6.49898e-08
1.38567e-07
2.5478e-07
4.38122e-07
7.26206e-07
1.17658e-06
1.87635e-06
2.95597e-06
4.55293e-06
6.88306e-06
1.02587e-05
1.50988e-05
2.19426e-05
3.1459e-05
4.44412e-05
6.17782e-05
8.43955e-05
0.00011317
0.000148844
0.000191843
0.000242399
0.000300277
0.000365021
0.000435981
0.00051021
0.000588712
0.000672104
0.00075628
0.00084269
0.000929727
0.0010153
0.00110033
0.00118296
0.00126321
0.00134032
0.00141396
0.00148351
0.00154909
0.0016108
0.00166838
0.00172209
0.0017723
0.0018192
0.0018625
0.00190311
0.00194236
0.0019813
0.00202254
0.00207184
0.00213413
0.00222419
0.00236342
0.00258809
0.00296009
0.00359152
0.00469548
0.00669005
0.0103624
0.0167454
0.0261417
0.0382619
0.0526134
0.0680545
0.0840206
0.0999378
0.115397
0.13079
0.144603
0.157442
0.169256
0.180001
0.189646
0.198599
0.205955
0.212438
0.217649
0.221653
0.224578
0.226606
0.227944
0.228789
0.229302
0.229606
0.229781
0.22988
0.229935
0.229965
0.229981
0.22999
0.229995
0.229997
0.229999
0.229999
0.23
0.23
0.23
0.23
0.23
0.23
1.67233e-08
6.48008e-08
1.38167e-07
2.54049e-07
4.36865e-07
7.24117e-07
1.17316e-06
1.87082e-06
2.94691e-06
4.53742e-06
6.85784e-06
1.02192e-05
1.50387e-05
2.18537e-05
3.13319e-05
4.42659e-05
6.15438e-05
8.40917e-05
0.000112791
0.000148369
0.000191331
0.0002418
0.000299672
0.000364508
0.000435569
0.000509953
0.000588684
0.000672345
0.000756922
0.000843805
0.000931507
0.00101778
0.00110362
0.00118711
0.00126831
0.00134653
0.00142111
0.00149174
0.00155848
0.0016215
0.00168045
0.00173566
0.00178711
0.00183538
0.00188013
0.00192251
0.00196323
0.00200385
0.00204701
0.00209857
0.00216414
0.00225861
0.00240445
0.00263925
0.00302861
0.00369107
0.00485296
0.0069595
0.0108421
0.0175024
0.0271986
0.0395884
0.0540224
0.069583
0.0855974
0.101508
0.116922
0.132201
0.145926
0.158668
0.170378
0.181027
0.190578
0.199416
0.206642
0.212988
0.218069
0.221958
0.224789
0.226745
0.228031
0.228841
0.229333
0.229623
0.229791
0.229885
0.229938
0.229967
0.229982
0.229991
0.229995
0.229997
0.229999
0.229999
0.23
0.23
0.23
0.23
0.23
0.23
1.66735e-08
6.46072e-08
1.37751e-07
2.53272e-07
4.35509e-07
7.21836e-07
1.16944e-06
1.86493e-06
2.93803e-06
4.52344e-06
6.83676e-06
1.01879e-05
1.49911e-05
2.17823e-05
3.12273e-05
4.41185e-05
6.13458e-05
8.38377e-05
0.000112487
0.000148006
0.000190898
0.000241358
0.000299256
0.00036414
0.00043533
0.000509883
0.000588847
0.000672778
0.000757736
0.000845049
0.000933312
0.0010202
0.0011067
0.00119092
0.00127289
0.00135193
0.00142749
0.00149914
0.00156688
0.00163092
0.00169092
0.00174717
0.00179978
0.00184928
0.0018954
0.00193908
0.00198122
0.00202342
0.00206837
0.00212219
0.00219052
0.00228871
0.00244014
0.00268421
0.003089
0.00377872
0.00499078
0.00719132
0.0113056
0.018203
0.0281385
0.0407324
0.0552497
0.0709938
0.0870252
0.102919
0.118296
0.133414
0.147072
0.159733
0.171354
0.181904
0.191354
0.200035
0.207175
0.213426
0.218412
0.222214
0.22497
0.226865
0.228107
0.228887
0.22936
0.229639
0.229799
0.22989
0.22994
0.229968
0.229983
0.229991
0.229995
0.229998
0.229999
0.229999
0.23
0.23
0.23
0.23
0.23
0.23
1.66299e-08
6.44391e-08
1.37393e-07
2.52614e-07
4.34376e-07
7.19959e-07
1.16641e-06
1.86014e-06
2.92975e-06
4.50947e-06
6.8149e-06
1.01559e-05
1.4948e-05
2.1724e-05
3.11472e-05
4.4005e-05
6.11909e-05
8.36376e-05
0.000112229
0.000147716
0.00019058
0.000241038
0.000298971
0.000363927
0.000435234
0.000509948
0.000589134
0.000673319
0.000758624
0.000846326
0.000935085
0.00102251
0.00110964
0.00119448
0.00127712
0.00135695
0.0014334
0.00150595
0.00157464
0.00163981
0.00170074
0.00175786
0.00181135
0.00186181
0.001909
0.00195384
0.00199723
0.00204081
0.00208732
0.00214296
0.0022139
0.00231574
0.00247254
0.00272499
0.00314422
0.00385964
0.00512093
0.00741674
0.0116942
0.0188074
0.0289609
0.0417399
0.0563933
0.0721733
0.0882517
0.104154
0.119497
0.13446
0.148061
0.16066
0.172211
0.182694
0.192075
0.200574
0.207631
0.213802
0.21871
0.222436
0.225125
0.226968
0.228172
0.228926
0.229383
0.229652
0.229806
0.229894
0.229942
0.229969
0.229984
0.229991
0.229995
0.229998
0.229999
0.229999
0.23
0.23
0.23
0.23
0.23
0.23
1.65932e-08
6.42979e-08
1.37094e-07
2.52068e-07
4.33443e-07
7.18425e-07
1.16395e-06
1.85627e-06
2.92297e-06
4.49801e-06
6.79674e-06
1.01283e-05
1.49066e-05
2.16655e-05
3.10689e-05
4.39081e-05
6.10673e-05
8.348e-05
0.000112039
0.000147488
0.000190346
0.000240819
0.000298778
0.000363811
0.000435236
0.000510105
0.000589497
0.000673916
0.000759536
0.000847588
0.000936785
0.00102468
0.00111234
0.0011978
0.00128117
0.00136167
0.00143881
0.00151207
0.00158153
0.00164734
0.00170908
0.00176714
0.00182166
0.00187322
0.00192142
0.00196721
0.00201157
0.00205612
0.00210377
0.00216101
0.00223377
0.00233834
0.00249959
0.00275949
0.00319146
0.00392995
0.00523344
0.00761041
0.0120247
0.0193229
0.0296648
0.0426049
0.0573779
0.0731854
0.0893004
0.105203
0.120525
0.135351
0.14892
0.161466
0.172969
0.183382
0.192691
0.201032
0.208032
0.214132
0.218968
0.222627
0.225258
0.227056
0.228227
0.22896
0.229402
0.229663
0.229813
0.229897
0.229944
0.22997
0.229984
0.229992
0.229996
0.229998
0.229999
0.229999
0.23
0.23
0.23
0.23
0.23
0.23
1.65621e-08
6.41782e-08
1.36841e-07
2.51604e-07
4.32651e-07
7.17124e-07
1.16186e-06
1.853e-06
2.91714e-06
4.48813e-06
6.78119e-06
1.01049e-05
1.48727e-05
2.16175e-05
3.1003e-05
4.38197e-05
6.09587e-05
8.33523e-05
0.000111892
0.000147326
0.000190178
0.000240661
0.000298665
0.000363769
0.000435304
0.000510317
0.000589895
0.000674523
0.000760429
0.000848796
0.000938388
0.00102673
0.00111491
0.00120088
0.00128474
0.00136579
0.00144355
0.00151746
0.00158754
0.00165415
0.00171661
0.00177535
0.00183045
0.00188258
0.00193151
0.00197815
0.00202344
0.00206895
0.0021177
0.00217602
0.0022503
0.00235722
0.00252212
0.00278813
0.00323086
0.00398856
0.00532838
0.00777558
0.0123063
0.0197608
0.0302648
0.0433581
0.0582322
0.0740852
0.0902261
0.10613
0.121438
0.136129
0.149649
0.162153
0.173596
0.183961
0.193216
0.20142
0.208371
0.214417
0.219193
0.222794
0.225375
0.227133
0.228276
0.228989
0.229419
0.229673
0.229818
0.2299
0.229946
0.229971
0.229985
0.229992
0.229996
0.229998
0.229999
0.229999
0.23
0.23
0.23
0.23
0.23
0.23
1.65377e-08
6.40847e-08
1.36642e-07
2.51242e-07
4.32029e-07
7.16093e-07
1.1602e-06
1.85036e-06
2.91236e-06
4.48e-06
6.7684e-06
1.00859e-05
1.48451e-05
2.15789e-05
3.09503e-05
4.37501e-05
6.08708e-05
8.32418e-05
0.000111767
0.0001472
0.000190057
0.00024056
0.000298603
0.000363775
0.000435412
0.000510556
0.000590304
0.000675128
0.000761267
0.000849894
0.00093981
0.00102849
0.00111705
0.00120347
0.00128778
0.00136932
0.00144761
0.00152206
0.00159277
0.00165995
0.00172297
0.00178222
0.00183796
0.00189065
0.00194006
0.00198709
0.00203371
0.0020798
0.00212922
0.00218841
0.00226399
0.00237271
0.0025405
0.00281139
0.00326237
0.00403536
0.00540387
0.00790497
0.0125238
0.0200857
0.030679
0.0441153
0.0590218
0.074892
0.091031
0.10692
0.122203
0.13677
0.150261
0.162725
0.174126
0.184441
0.193649
0.201741
0.208678
0.21468
0.219399
0.222945
0.225478
0.2272
0.228317
0.229014
0.229434
0.229681
0.229823
0.229903
0.229947
0.229972
0.229985
0.229992
0.229996
0.229998
0.229999
0.229999
0.23
0.23
0.23
0.23
0.23
0.23
1.65181e-08
6.40091e-08
1.36482e-07
2.50947e-07
4.31523e-07
7.15256e-07
1.15884e-06
1.8482e-06
2.90853e-06
4.47353e-06
6.7583e-06
1.00709e-05
1.48237e-05
2.15491e-05
3.09102e-05
4.36979e-05
6.08034e-05
8.31627e-05
0.000111675
0.000147101
0.000189966
0.00024049
0.000298573
0.000363808
0.000435536
0.000510791
0.000590679
0.000675663
0.000762017
0.000850886
0.000941078
0.00103007
0.00111896
0.0012057
0.00129038
0.00137233
0.0014511
0.00152599
0.0015971
0.00166472
0.00172818
0.00178793
0.00184412
0.00189727
0.00194718
0.00199476
0.00204192
0.00208849
0.00213849
0.00219838
0.00227498
0.00238525
0.00255551
0.00283065
0.00328913
0.00407556
0.0054696
0.00802003
0.012721
0.0203916
0.0310975
0.0446268
0.0596033
0.0755111
0.0916652
0.10755
0.122817
0.13728
0.150741
0.163169
0.174526
0.184787
0.19393
0.201923
0.209077
0.214956
0.219591
0.223075
0.225564
0.227255
0.228351
0.229033
0.229445
0.229687
0.229826
0.229905
0.229948
0.229972
0.229985
0.229992
0.229996
0.229998
0.229999
0.229999
0.23
0.23
0.23
0.23
0.23
0.23
1.65034e-08
6.39519e-08
1.36359e-07
2.50718e-07
4.31123e-07
7.14584e-07
1.15774e-06
1.84645e-06
2.90539e-06
4.46824e-06
6.75012e-06
1.00589e-05
1.48067e-05
2.15257e-05
3.08789e-05
4.36575e-05
6.07529e-05
8.31032e-05
0.000111609
0.000147034
0.000189905
0.000240449
0.000298567
0.000363855
0.000435657
0.000511006
0.000591013
0.000676124
0.00076264
0.000851686
0.000942097
0.00103132
0.00112047
0.00120748
0.00129247
0.00137475
0.00145382
0.00152901
0.00160046
0.00166842
0.00173222
0.00179233
0.00184889
0.00190242
0.00195273
0.00200071
0.00204825
0.00209527
0.00214576
0.00220624
0.00228373
0.00239532
0.00256773
0.00284639
0.00331113
0.00410888
0.00552434
0.00811614
0.0128847
0.0206425
0.0314351
0.0450219
0.0600483
0.0759859
0.0921488
0.108028
0.12328
0.13769
0.151127
0.163525
0.174852
0.185082
0.194191
0.202156
0.209288
0.21513
0.219725
0.223172
0.22563
0.227297
0.228376
0.229049
0.229454
0.229692
0.229829
0.229906
0.229949
0.229973
0.229985
0.229992
0.229996
0.229998
0.229999
0.229999
0.23
0.23
0.23
0.23
0.23
0.23
1.64935e-08
6.39134e-08
1.36276e-07
2.50562e-07
4.30848e-07
7.14115e-07
1.15697e-06
1.84519e-06
2.90307e-06
4.46428e-06
6.74391e-06
1.00497e-05
1.47936e-05
2.15076e-05
3.08548e-05
4.36265e-05
6.07155e-05
8.30597e-05
0.000111563
0.00014699
0.000189868
0.000240428
0.000298574
0.000363904
0.000435764
0.000511183
0.000591276
0.000676484
0.000763122
0.0008523
0.000942871
0.00103227
0.0011216
0.00120882
0.00129403
0.00137654
0.00145584
0.00153128
0.00160295
0.00167115
0.00173521
0.00179558
0.0018524
0.00190618
0.00195677
0.00200505
0.00205288
0.00210023
0.00215112
0.00221207
0.00229024
0.00240287
0.00257691
0.00285829
0.00332768
0.00413391
0.00556538
0.0081876
0.0130067
0.0208286
0.031683
0.0453098
0.0603728
0.07633
0.0925008
0.108376
0.123612
0.138001
0.151417
0.163794
0.175099
0.185305
0.19439
0.20233
0.209437
0.21525
0.219816
0.223238
0.225675
0.227326
0.228395
0.22906
0.22946
0.229696
0.229831
0.229907
0.22995
0.229973
0.229986
0.229992
0.229996
0.229998
0.229999
0.229999
0.23
0.23
0.23
0.23
0.23
0.23
1.64876e-08
6.38904e-08
1.36226e-07
2.50467e-07
4.30681e-07
7.1383e-07
1.15649e-06
1.84441e-06
2.90161e-06
4.46173e-06
6.73984e-06
1.00436e-05
1.47848e-05
2.14955e-05
3.08388e-05
4.36062e-05
6.06912e-05
8.30323e-05
0.000111535
0.000146962
0.000189847
0.000240419
0.000298584
0.000363944
0.000435842
0.000511309
0.000591461
0.000676738
0.000763459
0.000852728
0.000943405
0.00103291
0.00112237
0.00120972
0.00129507
0.00137772
0.00145718
0.00153277
0.00160461
0.001673
0.00173723
0.00179777
0.00185477
0.00190872
0.00195948
0.00200793
0.00205594
0.00210351
0.00215465
0.00221592
0.00229454
0.00240783
0.00258294
0.0028661
0.00333856
0.00415033
0.00559225
0.00823445
0.013089
0.0209525
0.0318465
0.0454986
0.060584
0.076554
0.0927287
0.108601
0.12383
0.138207
0.151609
0.163972
0.175261
0.185451
0.19452
0.202443
0.209532
0.215327
0.219875
0.22328
0.225704
0.227345
0.228407
0.229067
0.229465
0.229698
0.229832
0.229908
0.22995
0.229973
0.229986
0.229992
0.229996
0.229998
0.229999
0.229999
0.23
0.23
0.23
0.23
0.23
0.23
1.6486e-08
6.38842e-08
1.36212e-07
2.50441e-07
4.30632e-07
7.13743e-07
1.15634e-06
1.84416e-06
2.90108e-06
4.46074e-06
6.73819e-06
1.0041e-05
1.4781e-05
2.14901e-05
3.08316e-05
4.3597e-05
6.06801e-05
8.30196e-05
0.000111521
0.00014695
0.000189837
0.000240415
0.000298591
0.000363965
0.000435884
0.000511376
0.000591558
0.000676867
0.000763629
0.000852942
0.00094367
0.00103323
0.00112276
0.00121017
0.00129559
0.00137831
0.00145785
0.00153352
0.00160544
0.0016739
0.00173822
0.00179885
0.00185593
0.00190996
0.00196082
0.00200936
0.00205745
0.00210513
0.0021564
0.00221782
0.00229666
0.00241029
0.00258592
0.00286995
0.00334392
0.00415844
0.00560554
0.00825766
0.0131298
0.0210138
0.0319274
0.0455919
0.0606883
0.0766644
0.0928408
0.108712
0.123937
0.138309
0.151704
0.164059
0.17534
0.185523
0.194583
0.202498
0.209578
0.215363
0.219902
0.2233
0.225718
0.227354
0.228412
0.22907
0.229467
0.229699
0.229833
0.229908
0.22995
0.229973
0.229986
0.229992
0.229996
0.229998
0.229999
0.229999
0.23
0.23
0.23
0.23
0.23
0.23
1.64883e-08
6.38933e-08
1.36232e-07
2.50477e-07
4.30694e-07
7.13848e-07
1.15651e-06
1.84444e-06
2.90153e-06
4.46142e-06
6.73919e-06
1.00424e-05
1.47828e-05
2.14922e-05
3.08338e-05
4.35991e-05
6.06819e-05
8.30208e-05
0.000111522
0.00014695
0.000189837
0.000240415
0.00029859
0.000363965
0.000435883
0.000511375
0.000591558
0.000676867
0.000763629
0.000852943
0.000943671
0.00103323
0.00112276
0.00121018
0.00129559
0.00137831
0.00145785
0.00153352
0.00160544
0.00167391
0.00173823
0.00179885
0.00185593
0.00190996
0.00196082
0.00200936
0.00205745
0.00210513
0.00215639
0.00221781
0.00229665
0.00241028
0.00258591
0.00286994
0.00334391
0.00415842
0.00560553
0.00825766
0.0131297
0.0210138
0.0319274
0.0455918
0.0606881
0.0766642
0.0928406
0.108712
0.123937
0.138308
0.151704
0.164059
0.17534
0.185523
0.194583
0.202498
0.209578
0.215363
0.219902
0.2233
0.225718
0.227354
0.228412
0.22907
0.229467
0.229699
0.229833
0.229908
0.22995
0.229973
0.229986
0.229992
0.229996
0.229998
0.229999
0.229999
0.23
0.23
0.23
0.23
0.23
0.23
1.64939e-08
6.3915e-08
1.36278e-07
2.50563e-07
4.30844e-07
7.14099e-07
1.15693e-06
1.8451e-06
2.90268e-06
4.46334e-06
6.74214e-06
1.00467e-05
1.47888e-05
2.15001e-05
3.08438e-05
4.3611e-05
6.06952e-05
8.3035e-05
0.000111536
0.000146962
0.000189846
0.000240417
0.000298583
0.000363942
0.000435841
0.000511309
0.000591462
0.000676738
0.00076346
0.000852731
0.000943409
0.00103292
0.00112238
0.00120973
0.00129508
0.00137773
0.00145719
0.00153279
0.00160463
0.00167301
0.00173725
0.00179778
0.00185478
0.00190873
0.00195949
0.00200794
0.00205594
0.00210351
0.00215464
0.0022159
0.00229451
0.0024078
0.0025829
0.00286605
0.0033385
0.00415028
0.0055922
0.00823441
0.0130889
0.0209524
0.0318465
0.0454984
0.0605837
0.0765535
0.0927281
0.108601
0.12383
0.138206
0.151609
0.163971
0.17526
0.185451
0.194519
0.202443
0.209532
0.215327
0.219874
0.22328
0.225704
0.227345
0.228407
0.229067
0.229465
0.229698
0.229832
0.229908
0.22995
0.229973
0.229986
0.229992
0.229996
0.229998
0.229999
0.229999
0.23
0.23
0.23
0.23
0.23
0.23
1.65026e-08
6.39485e-08
1.3635e-07
2.50697e-07
4.31077e-07
7.14488e-07
1.15756e-06
1.84611e-06
2.90447e-06
4.46631e-06
6.7467e-06
1.00533e-05
1.4798e-05
2.15125e-05
3.08598e-05
4.36308e-05
6.07188e-05
8.30618e-05
0.000111564
0.000146989
0.000189867
0.000240427
0.000298573
0.000363904
0.000435763
0.000511183
0.000591277
0.000676486
0.000763125
0.000852304
0.000942875
0.00103227
0.00112161
0.00120883
0.00129403
0.00137655
0.00145585
0.00153129
0.00160297
0.00167118
0.00173525
0.00179561
0.00185243
0.00190622
0.0019568
0.00200506
0.00205288
0.00210021
0.00215109
0.00221204
0.0022902
0.00240281
0.00257685
0.00285822
0.0033276
0.00413382
0.0055653
0.00818755
0.0130067
0.0208285
0.0316826
0.0453092
0.0603719
0.076329
0.0924995
0.108375
0.123611
0.138
0.151416
0.163793
0.175098
0.185304
0.194389
0.20233
0.209437
0.215249
0.219816
0.223238
0.225675
0.227326
0.228395
0.22906
0.22946
0.229696
0.229831
0.229907
0.22995
0.229973
0.229986
0.229992
0.229996
0.229998
0.229999
0.229999
0.23
0.23
0.23
0.23
0.23
0.23
1.6514e-08
6.39925e-08
1.36444e-07
2.50871e-07
4.31379e-07
7.14993e-07
1.15838e-06
1.84741e-06
2.90679e-06
4.47018e-06
6.75266e-06
1.0062e-05
1.48102e-05
2.15293e-05
3.08822e-05
4.36602e-05
6.07548e-05
8.31044e-05
0.00011161
0.000147034
0.000189905
0.00024045
0.000298568
0.000363856
0.000435658
0.000511007
0.000591014
0.000676125
0.000762642
0.000851688
0.000942101
0.00103133
0.00112047
0.00120749
0.00129247
0.00137475
0.00145382
0.00152902
0.00160047
0.00166842
0.00173222
0.00179234
0.0018489
0.00190242
0.00195272
0.00200069
0.00204823
0.00209524
0.00214573
0.00220621
0.00228368
0.00239526
0.00256765
0.00284627
0.00331095
0.00410873
0.00552421
0.00811602
0.0128845
0.0206422
0.0314344
0.0450209
0.0600468
0.0759838
0.0921465
0.108026
0.123278
0.137688
0.151125
0.163524
0.174851
0.185081
0.19419
0.202155
0.209287
0.215129
0.219724
0.223171
0.22563
0.227297
0.228376
0.229049
0.229454
0.229692
0.229829
0.229906
0.229949
0.229973
0.229985
0.229992
0.229996
0.229998
0.229999
0.229999
0.23
0.23
0.23
0.23
0.23
0.23
1.65296e-08
6.40529e-08
1.36573e-07
2.51107e-07
4.31784e-07
7.15663e-07
1.15946e-06
1.84911e-06
2.90983e-06
4.4753e-06
6.76059e-06
1.00737e-05
1.48268e-05
2.15521e-05
3.09129e-05
4.37e-05
6.08048e-05
8.31637e-05
0.000111676
0.000147102
0.000189967
0.000240491
0.000298575
0.00036381
0.000435537
0.000510792
0.00059068
0.000675665
0.000762017
0.000850882
0.000941079
0.00103007
0.00111897
0.00120571
0.00129039
0.00137236
0.00145112
0.001526
0.00159711
0.00166472
0.00172818
0.00178792
0.00184411
0.00189726
0.00194717
0.00199475
0.00204192
0.00208849
0.00213849
0.00219837
0.00227496
0.0023852
0.00255543
0.00283053
0.00328895
0.00407535
0.00546934
0.00801969
0.0127204
0.0203907
0.0310959
0.0446245
0.0596003
0.0755075
0.0916612
0.107546
0.122813
0.137277
0.150739
0.163167
0.174525
0.184786
0.193928
0.201922
0.209076
0.214955
0.21959
0.223075
0.225564
0.227254
0.22835
0.229033
0.229445
0.229687
0.229826
0.229905
0.229948
0.229972
0.229985
0.229992
0.229996
0.229998
0.229999
0.229999
0.23
0.23
0.23
0.23
0.23
0.23
1.65502e-08
6.41321e-08
1.36741e-07
2.51414e-07
4.3231e-07
7.16529e-07
1.16085e-06
1.85132e-06
2.91372e-06
4.48186e-06
6.77087e-06
1.00889e-05
1.48488e-05
2.15827e-05
3.0954e-05
4.37532e-05
6.08731e-05
8.32435e-05
0.000111769
0.000147202
0.000190059
0.000240562
0.000298605
0.000363778
0.000435415
0.000510559
0.000590307
0.000675132
0.000761274
0.000849906
0.000939818
0.00102849
0.00111706
0.00120348
0.00128779
0.00136934
0.00144762
0.00152208
0.00159278
0.00165996
0.00172297
0.00178222
0.00183796
0.00189064
0.00194005
0.00198708
0.00203372
0.00207981
0.00212924
0.00218842
0.00226399
0.00237269
0.00254044
0.00281129
0.00326224
0.0040351
0.00540346
0.00790439
0.0125229
0.0200841
0.0306766
0.0441119
0.0590177
0.0748874
0.0910263
0.106915
0.122199
0.136767
0.150259
0.162723
0.174125
0.184439
0.193647
0.201741
0.208677
0.21468
0.219398
0.222944
0.225478
0.2272
0.228317
0.229014
0.229434
0.229681
0.229823
0.229903
0.229947
0.229972
0.229985
0.229992
0.229996
0.229998
0.229999
0.229999
0.23
0.23
0.23
0.23
0.23
0.23
1.65751e-08
6.42277e-08
1.36943e-07
2.51782e-07
4.32936e-07
7.17558e-07
1.1625e-06
1.85392e-06
2.91842e-06
4.48988e-06
6.7835e-06
1.01079e-05
1.48762e-05
2.16214e-05
3.1007e-05
4.38233e-05
6.09616e-05
8.33545e-05
0.000111894
0.000147328
0.00019018
0.000240665
0.000298669
0.000363773
0.000435309
0.000510321
0.000589899
0.000674528
0.000760434
0.000848803
0.000938395
0.00102673
0.0011149
0.00120089
0.00128476
0.00136581
0.00144358
0.00151748
0.00158756
0.00165417
0.00171663
0.00177536
0.00183045
0.00188259
0.00193152
0.00197816
0.00202346
0.00206897
0.00211773
0.00217604
0.00225031
0.0023572
0.00252204
0.00278799
0.00323063
0.00398822
0.0053279
0.00777487
0.0123051
0.019759
0.0302621
0.0433546
0.0582281
0.0740809
0.0902219
0.106126
0.121435
0.136127
0.149647
0.162151
0.173594
0.18396
0.193215
0.201419
0.20837
0.214416
0.219192
0.222794
0.225375
0.227133
0.228276
0.228989
0.229419
0.229673
0.229818
0.2299
0.229946
0.229971
0.229985
0.229992
0.229996
0.229998
0.229999
0.229999
0.23
0.23
0.23
0.23
0.23
0.23
1.66049e-08
6.43424e-08
1.37185e-07
2.52227e-07
4.33698e-07
7.18811e-07
1.16451e-06
1.85704e-06
2.92397e-06
4.49922e-06
6.79811e-06
1.01297e-05
1.49079e-05
2.16663e-05
3.10693e-05
4.39079e-05
6.1067e-05
8.348e-05
0.00011204
0.000147491
0.00019035
0.000240825
0.000298785
0.000363818
0.000435242
0.000510111
0.000589502
0.000673921
0.000759542
0.000847595
0.000936794
0.0010247
0.00111237
0.00119782
0.00128119
0.0013617
0.00143883
0.00151209
0.00158156
0.00164736
0.00170911
0.00176716
0.00182168
0.00187323
0.00192142
0.00196722
0.00201158
0.00205613
0.00210378
0.00216101
0.00223376
0.0023383
0.0024995
0.00275933
0.0031912
0.00392957
0.00523294
0.00760971
0.0120236
0.0193212
0.0296624
0.0426019
0.0573744
0.073182
0.089297
0.105199
0.120522
0.13535
0.148918
0.161464
0.172967
0.18338
0.192689
0.201031
0.208031
0.214131
0.218967
0.222627
0.225258
0.227056
0.228227
0.22896
0.229402
0.229663
0.229813
0.229897
0.229944
0.22997
0.229984
0.229992
0.229996
0.229998
0.229999
0.229999
0.23
0.23
0.23
0.23
0.23
0.23
1.66407e-08
6.44804e-08
1.37478e-07
2.52763e-07
4.34614e-07
7.20314e-07
1.16691e-06
1.8608e-06
2.9305e-06
4.51016e-06
6.81525e-06
1.01555e-05
1.49464e-05
2.17211e-05
3.11432e-05
4.40006e-05
6.11872e-05
8.36359e-05
0.000112231
0.000147721
0.000190587
0.000241048
0.000298981
0.000363937
0.000435244
0.000509957
0.000589142
0.000673326
0.000758631
0.000846333
0.000935093
0.00102252
0.00110965
0.0011945
0.00127714
0.00135697
0.00143343
0.00150598
0.00157467
0.00163984
0.00170077
0.00175789
0.00181137
0.00186182
0.00190902
0.00195385
0.00199724
0.00204081
0.00208731
0.00214295
0.00221387
0.00231568
0.00247243
0.00272483
0.00314398
0.00385931
0.00512048
0.0074161
0.0116932
0.0188059
0.0289587
0.0417373
0.0563903
0.0721704
0.0882488
0.104152
0.119495
0.134458
0.148059
0.160658
0.172209