/*--------------------------------*- C++ -*----------------------------------*\
  =========                 |
  \\      /  F ield         | OpenFOAM: The Open Source CFD Toolbox
   \\    /   O peration     | Website:  https://openfoam.org
    \\  /    A nd           | Version:  10
     \\/     M anipulation  |
\*---------------------------------------------------------------------------*/
FoamFile
{
    format      ascii;
    class       surfaceScalarField;
    location    "1";
    object      phi;
}
// * * * * * * * * * * * * * * * * * * * * * * * * * * * * * * * * * * * * * //

dimensions      [1 0 -1 0 0 0 0];

internalField   nonuniform List<scalar> 
7860
(
6.57286e-07
-1.70313e-08
6.54618e-07
-5.12417e-08
6.50777e-07
-8.53239e-08
6.45708e-07
-1.19121e-07
6.39307e-07
-1.52634e-07
6.31437e-07
-1.85824e-07
6.21933e-07
-2.18612e-07
6.1062e-07
-2.50883e-07
5.97317e-07
-2.8248e-07
5.81857e-07
-3.13218e-07
5.64113e-07
-3.42871e-07
5.44076e-07
-3.7117e-07
5.21768e-07
-3.97769e-07
4.9726e-07
-4.22257e-07
4.7069e-07
-4.44167e-07
4.42285e-07
-4.62999e-07
4.12365e-07
-4.78293e-07
3.81322e-07
-4.89688e-07
3.49593e-07
-4.97021e-07
3.17621e-07
-5.00392e-07
2.85809e-07
-5.00171e-07
2.54486e-07
-4.96942e-07
2.2387e-07
-4.91393e-07
1.94253e-07
-4.84226e-07
1.65704e-07
-4.76019e-07
1.3823e-07
-4.67745e-07
1.11852e-07
-4.59079e-07
8.66092e-08
-4.49827e-07
6.25005e-08
-4.40808e-07
3.94776e-08
-4.31525e-07
1.74859e-08
-4.22342e-07
-3.50969e-09
-4.13035e-07
-2.35309e-08
-4.03691e-07
-4.2623e-08
-3.9434e-07
-6.08145e-08
-3.84993e-07
-7.81344e-08
-3.75646e-07
-9.4609e-08
-3.6631e-07
-1.10264e-07
-3.56972e-07
-1.25118e-07
-3.47646e-07
-1.3919e-07
-3.38338e-07
-1.52502e-07
-3.29004e-07
-1.65076e-07
-3.19807e-07
-1.76934e-07
-3.10704e-07
-1.88099e-07
-3.01701e-07
-1.98588e-07
-2.9288e-07
-2.08422e-07
-2.84158e-07
-2.17627e-07
-2.75739e-07
-2.26223e-07
-2.67455e-07
-2.34231e-07
-2.59539e-07
-2.41668e-07
-2.51763e-07
-2.48559e-07
-2.44409e-07
-2.54918e-07
-2.37361e-07
-2.60756e-07
-2.30615e-07
-2.6609e-07
-2.24187e-07
-2.70951e-07
-2.18118e-07
-2.75396e-07
-2.12491e-07
-2.79525e-07
-2.07472e-07
-2.83522e-07
-2.03356e-07
-2.87648e-07
-2.0067e-07
-2.92157e-07
-2.00353e-07
-2.97266e-07
-2.02496e-07
-3.03095e-07
-2.06947e-07
-3.09716e-07
-2.13663e-07
-3.17212e-07
-2.22557e-07
-3.25651e-07
-2.33691e-07
-3.35093e-07
-2.4678e-07
-3.45675e-07
-2.61944e-07
-3.57613e-07
-2.7923e-07
-3.7103e-07
-2.9977e-07
-3.86079e-07
-3.21825e-07
-4.03086e-07
-3.46563e-07
-4.2262e-07
-3.74281e-07
-4.45114e-07
-4.05451e-07
-4.71134e-07
-4.40358e-07
-5.01097e-07
-4.79085e-07
-5.35405e-07
-5.20428e-07
-5.74757e-07
-5.65747e-07
-6.18917e-07
-6.08978e-07
-6.67288e-07
-6.45336e-07
-7.18704e-07
-6.70208e-07
-7.7144e-07
-6.80941e-07
-8.23555e-07
-6.77709e-07
-8.7335e-07
-6.62814e-07
-9.19642e-07
-6.39281e-07
-9.61774e-07
-6.09823e-07
-9.99485e-07
-5.76466e-07
-1.03274e-06
-5.40577e-07
-1.06161e-06
-5.03023e-07
-1.08614e-06
-4.64344e-07
-1.10678e-06
-4.24835e-07
-1.12402e-06
-3.84773e-07
-1.13829e-06
-3.44373e-07
-1.14999e-06
-3.03801e-07
-1.15949e-06
-2.63169e-07
-1.16708e-06
-2.22554e-07
-1.17302e-06
-1.81995e-07
-1.17754e-06
-1.415e-07
-1.1808e-06
-1.01048e-07
-1.18293e-06
-6.05801e-08
-2.01561e-08
6.58017e-07
-1.65066e-08
6.5603e-07
-4.92544e-08
6.52469e-07
-8.17632e-08
6.47363e-07
-1.14014e-07
6.40666e-07
-1.45938e-07
6.32302e-07
-1.7746e-07
6.22175e-07
-2.08485e-07
6.10185e-07
-2.38894e-07
5.96242e-07
-2.68537e-07
5.80275e-07
-2.9725e-07
5.62245e-07
-3.24841e-07
5.42171e-07
-3.51096e-07
5.20106e-07
-3.75704e-07
4.9614e-07
-3.98291e-07
4.70416e-07
-4.18443e-07
4.43144e-07
-4.35728e-07
4.14593e-07
-4.49742e-07
3.8508e-07
-4.60176e-07
3.54957e-07
-4.66898e-07
3.2458e-07
-4.70015e-07
2.94282e-07
-4.69872e-07
2.64345e-07
-4.67005e-07
2.34961e-07
-4.62009e-07
2.06318e-07
-4.55583e-07
1.78487e-07
-4.48188e-07
1.51491e-07
-4.40749e-07
1.25349e-07
-4.32937e-07
1.00125e-07
-4.24604e-07
7.58316e-08
-4.16514e-07
5.24453e-08
-4.08139e-07
2.99839e-08
-3.99881e-07
8.44258e-09
-3.91494e-07
-1.21754e-08
-3.83074e-07
-3.19178e-08
-3.74598e-07
-5.07987e-08
-3.66112e-07
-6.88296e-08
-3.57615e-07
-8.60253e-08
-3.49114e-07
-1.02405e-07
-3.40591e-07
-1.1798e-07
-3.32072e-07
-1.32766e-07
-3.23553e-07
-1.46782e-07
-3.14988e-07
-1.60048e-07
-3.0654e-07
-1.72585e-07
-2.98167e-07
-1.84417e-07
-2.89868e-07
-1.95565e-07
-2.81732e-07
-2.06046e-07
-2.73678e-07
-2.1589e-07
-2.65894e-07
-2.25118e-07
-2.58227e-07
-2.33761e-07
-2.50897e-07
-2.41837e-07
-2.43687e-07
-2.4937e-07
-2.36876e-07
-2.56393e-07
-2.30338e-07
-2.62935e-07
-2.24073e-07
-2.69034e-07
-2.18088e-07
-2.74749e-07
-2.12403e-07
-2.80164e-07
-2.07077e-07
-2.85395e-07
-2.02241e-07
-2.90593e-07
-1.98158e-07
-2.95918e-07
-1.95344e-07
-3.01512e-07
-1.9476e-07
-3.07566e-07
-1.96441e-07
-3.14217e-07
-2.00296e-07
-3.21585e-07
-2.06295e-07
-3.29786e-07
-2.14357e-07
-3.38956e-07
-2.2452e-07
-3.49175e-07
-2.36561e-07
-3.60578e-07
-2.50541e-07
-3.73338e-07
-2.6647e-07
-3.87672e-07
-2.85436e-07
-4.03721e-07
-3.05775e-07
-4.21748e-07
-3.28537e-07
-4.42064e-07
-3.53965e-07
-4.65174e-07
-3.8234e-07
-4.9154e-07
-4.13992e-07
-5.20501e-07
-4.50123e-07
-5.53159e-07
-4.87769e-07
-5.89634e-07
-5.29272e-07
-6.29946e-07
-5.68666e-07
-6.73713e-07
-6.01569e-07
-7.20025e-07
-6.23896e-07
-7.67531e-07
-6.33435e-07
-8.14742e-07
-6.30497e-07
-8.60364e-07
-6.17192e-07
-9.03464e-07
-5.9618e-07
-9.43481e-07
-5.69806e-07
-9.8014e-07
-5.39808e-07
-1.01335e-06
-5.07369e-07
-1.04309e-06
-4.73279e-07
-1.06937e-06
-4.38066e-07
-1.09231e-06
-4.01897e-07
-1.11209e-06
-3.64988e-07
-1.12894e-06
-3.27524e-07
-1.14309e-06
-2.8965e-07
-1.15478e-06
-2.5148e-07
-1.16424e-06
-2.131e-07
-1.17166e-06
-1.74572e-07
-1.17722e-06
-1.35937e-07
-1.18105e-06
-9.72195e-08
-1.1832e-06
-5.84325e-08
-1.95314e-08
6.57643e-07
-1.56076e-08
6.55074e-07
-4.66855e-08
6.50851e-07
-7.754e-08
6.44938e-07
-1.08101e-07
6.37299e-07
-1.383e-07
6.27897e-07
-1.68057e-07
6.16693e-07
-1.97281e-07
6.03663e-07
-2.25863e-07
5.88795e-07
-2.5367e-07
5.72103e-07
-2.80558e-07
5.53613e-07
-3.0635e-07
5.33343e-07
-3.30826e-07
5.1135e-07
-3.53711e-07
4.8774e-07
-3.74681e-07
4.62664e-07
-3.93367e-07
4.36323e-07
-4.09386e-07
4.08957e-07
-4.22377e-07
3.80847e-07
-4.32065e-07
3.52289e-07
-4.38341e-07
3.23576e-07
-4.41302e-07
2.94969e-07
-4.41265e-07
2.66684e-07
-4.3872e-07
2.38909e-07
-4.34234e-07
2.11706e-07
-4.2838e-07
1.85155e-07
-4.21637e-07
1.59289e-07
-4.14883e-07
1.34122e-07
-4.0777e-07
1.09684e-07
-4.00165e-07
8.59763e-08
-3.92807e-07
6.3005e-08
-3.85168e-07
4.08035e-08
-3.77679e-07
1.93846e-08
-3.70075e-07
-1.24813e-09
-3.62441e-07
-2.11248e-08
-3.54721e-07
-4.02504e-08
-3.46986e-07
-5.86182e-08
-3.39248e-07
-7.62327e-08
-3.315e-07
-9.31015e-08
-3.23723e-07
-1.09226e-07
-3.15947e-07
-1.24617e-07
-3.08162e-07
-1.39284e-07
-3.00321e-07
-1.53242e-07
-2.92582e-07
-1.6651e-07
-2.849e-07
-1.79111e-07
-2.77268e-07
-1.91061e-07
-2.69782e-07
-2.02375e-07
-2.62363e-07
-2.13086e-07
-2.55183e-07
-2.23219e-07
-2.48094e-07
-2.32806e-07
-2.4131e-07
-2.41876e-07
-2.34616e-07
-2.50465e-07
-2.28288e-07
-2.58616e-07
-2.22187e-07
-2.66375e-07
-2.16314e-07
-2.73797e-07
-2.10666e-07
-2.80945e-07
-2.05254e-07
-2.87897e-07
-2.00125e-07
-2.9474e-07
-1.95398e-07
-3.01563e-07
-1.91334e-07
-3.08445e-07
-1.88463e-07
-3.15453e-07
-1.87752e-07
-3.22767e-07
-1.89127e-07
-3.3053e-07
-1.92534e-07
-3.38806e-07
-1.98019e-07
-3.47804e-07
-2.05358e-07
-3.57688e-07
-2.14637e-07
-3.6854e-07
-2.25708e-07
-3.80505e-07
-2.38577e-07
-3.9372e-07
-2.53255e-07
-4.085e-07
-2.70656e-07
-4.24751e-07
-2.89524e-07
-4.42683e-07
-3.10606e-07
-4.62502e-07
-3.34145e-07
-4.84447e-07
-3.60396e-07
-5.08728e-07
-3.89711e-07
-5.35088e-07
-4.23763e-07
-5.64316e-07
-4.58542e-07
-5.96479e-07
-4.97109e-07
-6.32046e-07
-5.33099e-07
-6.71029e-07
-5.62585e-07
-7.12866e-07
-5.8206e-07
-7.56453e-07
-5.89848e-07
-8.00443e-07
-5.86508e-07
-8.43589e-07
-5.74047e-07
-8.84946e-07
-5.54824e-07
-9.23895e-07
-5.30856e-07
-9.60086e-07
-5.03617e-07
-9.93359e-07
-4.74096e-07
-1.0237e-06
-4.42938e-07
-1.0512e-06
-4.10562e-07
-1.07586e-06
-3.77241e-07
-1.09769e-06
-3.43157e-07
-1.11676e-06
-3.08451e-07
-1.13318e-06
-2.73232e-07
-1.14707e-06
-2.37594e-07
-1.15855e-06
-2.01616e-07
-1.16776e-06
-1.65362e-07
-1.17481e-06
-1.28886e-07
-1.1798e-06
-9.22322e-08
-1.1828e-06
-5.54334e-08
-1.85091e-08
6.57685e-07
-1.47507e-08
6.5508e-07
-4.40805e-08
6.5072e-07
-7.31794e-08
6.44601e-07
-1.01983e-07
6.36717e-07
-1.30415e-07
6.27056e-07
-1.58397e-07
6.15613e-07
-1.85838e-07
6.02385e-07
-2.12635e-07
5.87379e-07
-2.38664e-07
5.70613e-07
-2.63792e-07
5.52121e-07
-2.87858e-07
5.31956e-07
-3.10662e-07
5.10201e-07
-3.31956e-07
4.86969e-07
-3.51449e-07
4.62411e-07
-3.68809e-07
4.36711e-07
-3.83687e-07
4.10094e-07
-3.95759e-07
3.82806e-07
-4.04778e-07
3.55109e-07
-4.10643e-07
3.27253e-07
-4.13446e-07
2.99463e-07
-4.13475e-07
2.71919e-07
-4.11176e-07
2.44776e-07
-4.07091e-07
2.18142e-07
-4.01746e-07
1.92093e-07
-3.95588e-07
1.66667e-07
-3.89457e-07
1.41909e-07
-3.83013e-07
1.17805e-07
-3.76061e-07
9.43635e-08
-3.69366e-07
7.16101e-08
-3.62414e-07
4.95415e-08
-3.55611e-07
2.81707e-08
-3.48704e-07
7.49552e-09
-3.41766e-07
-1.24758e-08
-3.3475e-07
-3.17702e-08
-3.27692e-07
-5.03881e-08
-3.2063e-07
-6.83267e-08
-3.13561e-07
-8.55872e-08
-3.06462e-07
-1.0217e-07
-2.99364e-07
-1.18081e-07
-2.92251e-07
-1.33327e-07
-2.85075e-07
-1.4792e-07
-2.77988e-07
-1.61877e-07
-2.70943e-07
-1.75219e-07
-2.63926e-07
-1.87959e-07
-2.57042e-07
-2.00112e-07
-2.5021e-07
-2.11712e-07
-2.43583e-07
-2.22781e-07
-2.37025e-07
-2.33357e-07
-2.30734e-07
-2.4347e-07
-2.24504e-07
-2.53162e-07
-2.18595e-07
-2.62477e-07
-2.12873e-07
-2.71461e-07
-2.0733e-07
-2.80167e-07
-2.0196e-07
-2.88651e-07
-1.9677e-07
-2.96974e-07
-1.91802e-07
-3.05196e-07
-1.87177e-07
-3.13368e-07
-1.83162e-07
-3.21525e-07
-1.80306e-07
-3.29717e-07
-1.7956e-07
-3.38102e-07
-1.80742e-07
-3.46824e-07
-1.83812e-07
-3.55945e-07
-1.88898e-07
-3.6566e-07
-1.95643e-07
-3.76138e-07
-2.04159e-07
-3.8746e-07
-2.14386e-07
-3.99734e-07
-2.26303e-07
-4.13051e-07
-2.39939e-07
-4.27959e-07
-2.55748e-07
-4.44248e-07
-2.73235e-07
-4.61967e-07
-2.92887e-07
-4.81365e-07
-3.14748e-07
-5.02455e-07
-3.39305e-07
-5.2551e-07
-3.66656e-07
-5.51696e-07
-3.97577e-07
-5.79038e-07
-4.312e-07
-6.09665e-07
-4.66482e-07
-6.43684e-07
-4.9908e-07
-6.80919e-07
-5.2535e-07
-7.20735e-07
-5.42244e-07
-7.62083e-07
-5.485e-07
-8.03779e-07
-5.44811e-07
-8.44776e-07
-5.33049e-07
-8.84284e-07
-5.15316e-07
-9.21768e-07
-4.93372e-07
-9.56894e-07
-4.68491e-07
-9.89471e-07
-4.41519e-07
-1.01941e-06
-4.12999e-07
-1.04669e-06
-3.83281e-07
-1.07133e-06
-3.52598e-07
-1.09337e-06
-3.21117e-07
-1.11286e-06
-2.88963e-07
-1.12985e-06
-2.56241e-07
-1.14441e-06
-2.23038e-07
-1.15659e-06
-1.89431e-07
-1.16647e-06
-1.55486e-07
-1.17409e-06
-1.21264e-07
-1.17951e-06
-8.68175e-08
-1.18274e-06
-5.21953e-08
-1.74326e-08
6.57617e-07
-1.38262e-08
6.54871e-07
-4.13338e-08
6.50313e-07
-6.86222e-08
6.4395e-07
-9.56192e-08
6.35786e-07
-1.22251e-07
6.25829e-07
-1.4844e-07
6.14091e-07
-1.741e-07
6.00591e-07
-1.99135e-07
5.85359e-07
-2.23431e-07
5.68433e-07
-2.46867e-07
5.4987e-07
-2.69295e-07
5.29741e-07
-2.90532e-07
5.08139e-07
-3.10354e-07
4.85183e-07
-3.28493e-07
4.61022e-07
-3.44648e-07
4.35832e-07
-3.58498e-07
4.0982e-07
-3.69746e-07
3.83209e-07
-3.78167e-07
3.56233e-07
-3.83668e-07
3.2912e-07
-3.86333e-07
3.02075e-07
-3.8643e-07
2.75276e-07
-3.84377e-07
2.4886e-07
-3.80676e-07
2.22914e-07
-3.758e-07
1.97487e-07
-3.70161e-07
1.7259e-07
-3.64559e-07
1.48256e-07
-3.58678e-07
1.24498e-07
-3.52304e-07
1.01321e-07
-3.46189e-07
7.87547e-08
-3.39848e-07
5.67943e-08
-3.3365e-07
3.54572e-08
-3.27367e-07
1.47355e-08
-3.21044e-07
-5.35856e-09
-3.14656e-07
-2.48252e-08
-3.08225e-07
-4.36807e-08
-3.01774e-07
-6.19206e-08
-2.95321e-07
-7.95422e-08
-2.88841e-07
-9.65469e-08
-2.8236e-07
-1.12938e-07
-2.7586e-07
-1.28722e-07
-2.69292e-07
-1.43911e-07
-2.62799e-07
-1.58517e-07
-2.56336e-07
-1.72559e-07
-2.49884e-07
-1.86052e-07
-2.43549e-07
-1.99006e-07
-2.37256e-07
-2.11457e-07
-2.31132e-07
-2.23416e-07
-2.25065e-07
-2.34932e-07
-2.19219e-07
-2.46031e-07
-2.13405e-07
-2.56753e-07
-2.07873e-07
-2.67136e-07
-2.0249e-07
-2.77222e-07
-1.97245e-07
-2.87052e-07
-1.92129e-07
-2.96674e-07
-1.87148e-07
-3.06131e-07
-1.82345e-07
-3.15463e-07
-1.77845e-07
-3.247e-07
-1.73925e-07
-3.33856e-07
-1.7115e-07
-3.43004e-07
-1.70412e-07
-3.52283e-07
-1.71463e-07
-3.6181e-07
-1.74285e-07
-3.71709e-07
-1.78998e-07
-3.82111e-07
-1.85242e-07
-3.93157e-07
-1.93113e-07
-4.04956e-07
-2.02586e-07
-4.17596e-07
-2.13663e-07
-4.31103e-07
-2.26431e-07
-4.45916e-07
-2.40936e-07
-4.62016e-07
-2.57134e-07
-4.79568e-07
-2.75335e-07
-4.98586e-07
-2.9573e-07
-5.19124e-07
-3.18768e-07
-5.41417e-07
-3.44362e-07
-5.66443e-07
-3.72551e-07
-5.92763e-07
-4.04881e-07
-6.21962e-07
-4.37283e-07
-6.54227e-07
-4.66815e-07
-6.89438e-07
-4.90139e-07
-7.27036e-07
-5.04646e-07
-7.66114e-07
-5.09422e-07
-8.05649e-07
-5.05276e-07
-8.44721e-07
-4.93977e-07
-8.82624e-07
-4.77413e-07
-9.18862e-07
-4.57134e-07
-9.53113e-07
-4.3424e-07
-9.85169e-07
-4.09462e-07
-1.0149e-06
-3.83263e-07
-1.04224e-06
-3.55943e-07
-1.06714e-06
-3.27698e-07
-1.08959e-06
-2.98672e-07
-1.10958e-06
-2.68972e-07
-1.12713e-06
-2.38689e-07
-1.14227e-06
-2.07902e-07
-1.15502e-06
-1.76682e-07
-1.16541e-06
-1.45096e-07
-1.17346e-06
-1.13206e-07
-1.17921e-06
-8.10695e-08
-1.18266e-06
-4.8742e-08
-1.62755e-08
6.57615e-07
-1.28992e-08
6.54839e-07
-3.8558e-08
6.50225e-07
-6.40085e-08
6.43788e-07
-8.91813e-08
6.35541e-07
-1.14005e-07
6.25504e-07
-1.38403e-07
6.13702e-07
-1.62297e-07
6.00162e-07
-1.85596e-07
5.84925e-07
-2.08194e-07
5.68037e-07
-2.29979e-07
5.4956e-07
-2.50818e-07
5.2957e-07
-2.70542e-07
5.08163e-07
-2.88946e-07
4.85457e-07
-3.05787e-07
4.61597e-07
-3.20788e-07
4.36756e-07
-3.33657e-07
4.11131e-07
-3.44121e-07
3.84938e-07
-3.51973e-07
3.584e-07
-3.5713e-07
3.31739e-07
-3.59671e-07
3.05143e-07
-3.59835e-07
2.78783e-07
-3.58016e-07
2.52776e-07
-3.54669e-07
2.27198e-07
-3.50222e-07
2.02096e-07
-3.45059e-07
1.77474e-07
-3.39937e-07
1.53361e-07
-3.34566e-07
1.29799e-07
-3.28741e-07
1.06778e-07
-3.23168e-07
8.43186e-08
-3.17389e-07
6.24149e-08
-3.11746e-07
4.10864e-08
-3.06038e-07
2.02979e-08
-3.00255e-07
9.18589e-11
-2.9445e-07
-1.95691e-08
-2.88564e-07
-3.86568e-08
-2.82686e-07
-5.7175e-08
-2.76803e-07
-7.51259e-08
-2.7089e-07
-9.25125e-08
-2.64973e-07
-1.09338e-07
-2.59035e-07
-1.25601e-07
-2.53028e-07
-1.4132e-07
-2.47081e-07
-1.56505e-07
-2.41151e-07
-1.71172e-07
-2.35217e-07
-1.85339e-07
-2.29382e-07
-1.98998e-07
-2.23597e-07
-2.122e-07
-2.1793e-07
-2.2494e-07
-2.12325e-07
-2.37272e-07
-2.06887e-07
-2.49219e-07
-2.01458e-07
-2.60815e-07
-1.96277e-07
-2.7209e-07
-1.91214e-07
-2.83079e-07
-1.86256e-07
-2.93814e-07
-1.81394e-07
-3.04329e-07
-1.76633e-07
-3.14654e-07
-1.7202e-07
-3.24815e-07
-1.67684e-07
-3.34828e-07
-1.63912e-07
-3.44697e-07
-1.61282e-07
-3.54534e-07
-1.60574e-07
-3.64461e-07
-1.61536e-07
-3.74599e-07
-1.64148e-07
-3.85083e-07
-1.68514e-07
-3.96035e-07
-1.74291e-07
-4.07584e-07
-1.81563e-07
-4.19849e-07
-1.90321e-07
-4.32933e-07
-2.00579e-07
-4.46657e-07
-2.12708e-07
-4.61556e-07
-2.26036e-07
-4.77625e-07
-2.41065e-07
-4.95003e-07
-2.57957e-07
-5.13681e-07
-2.77052e-07
-5.33937e-07
-2.98511e-07
-5.55836e-07
-3.22463e-07
-5.79714e-07
-3.48673e-07
-6.05867e-07
-3.78728e-07
-6.34685e-07
-4.08466e-07
-6.66357e-07
-4.35143e-07
-7.00734e-07
-4.55762e-07
-7.37253e-07
-4.68127e-07
-7.75045e-07
-4.7163e-07
-8.13166e-07
-4.67155e-07
-8.50793e-07
-4.56349e-07
-8.87307e-07
-4.409e-07
-9.22276e-07
-4.22164e-07
-9.55417e-07
-4.01099e-07
-9.86545e-07
-3.78334e-07
-1.01554e-06
-3.5427e-07
-1.04232e-06
-3.29163e-07
-1.06683e-06
-3.03185e-07
-1.08904e-06
-2.7646e-07
-1.10893e-06
-2.49084e-07
-1.12648e-06
-2.21137e-07
-1.14169e-06
-1.92691e-07
-1.15456e-06
-1.63815e-07
-1.16509e-06
-1.34569e-07
-1.17328e-06
-1.05017e-07
-1.17913e-06
-7.52167e-08
-1.18265e-06
-4.52258e-08
-1.51009e-08
6.57603e-07
-1.19603e-08
6.548e-07
-3.57549e-08
6.50147e-07
-5.93557e-08
6.43662e-07
-8.26957e-08
6.35364e-07
-1.05707e-07
6.25278e-07
-1.28318e-07
6.13436e-07
-1.50455e-07
5.99873e-07
-1.72033e-07
5.84636e-07
-1.92956e-07
5.67778e-07
-2.13122e-07
5.49368e-07
-2.32408e-07
5.29486e-07
-2.5066e-07
5.08233e-07
-2.67693e-07
4.85729e-07
-2.83283e-07
4.62119e-07
-2.97178e-07
4.37573e-07
-3.09111e-07
4.12283e-07
-3.1883e-07
3.86456e-07
-3.26146e-07
3.60304e-07
-3.30978e-07
3.34028e-07
-3.33396e-07
3.0781e-07
-3.33617e-07
2.81794e-07
-3.32e-07
2.56078e-07
-3.28953e-07
2.30746e-07
-3.24889e-07
2.05867e-07
-3.20181e-07
1.81454e-07
-3.15524e-07
1.57517e-07
-3.10629e-07
1.34093e-07
-3.05317e-07
1.11171e-07
-3.00246e-07
8.87691e-08
-2.94987e-07
6.68574e-08
-2.89835e-07
4.54695e-08
-2.84651e-07
2.45757e-08
-2.79362e-07
4.21016e-09
-2.74084e-07
-1.5611e-08
-2.68743e-07
-3.49132e-08
-2.63384e-07
-5.36945e-08
-2.58022e-07
-7.195e-08
-2.52634e-07
-8.96865e-08
-2.47236e-07
-1.06913e-07
-2.41808e-07
-1.23602e-07
-2.3634e-07
-1.3979e-07
-2.30893e-07
-1.55485e-07
-2.25456e-07
-1.70697e-07
-2.20004e-07
-1.85444e-07
-2.14635e-07
-1.9972e-07
-2.09322e-07
-2.13564e-07
-2.04086e-07
-2.2697e-07
-1.98919e-07
-2.39989e-07
-1.93868e-07
-2.52637e-07
-1.8881e-07
-2.64944e-07
-1.83969e-07
-2.76937e-07
-1.79221e-07
-2.88642e-07
-1.74552e-07
-3.00082e-07
-1.69953e-07
-3.11283e-07
-1.65432e-07
-3.22264e-07
-1.61039e-07
-3.33042e-07
-1.56906e-07
-3.43628e-07
-1.53326e-07
-3.54022e-07
-1.50888e-07
-3.64369e-07
-1.50227e-07
-3.7478e-07
-1.51125e-07
-3.85371e-07
-1.53556e-07
-3.96279e-07
-1.57606e-07
-4.07607e-07
-1.62962e-07
-4.1948e-07
-1.6969e-07
-4.32042e-07
-1.77759e-07
-4.45471e-07
-1.8715e-07
-4.59528e-07
-1.98651e-07
-4.74632e-07
-2.10932e-07
-4.90852e-07
-2.24845e-07
-5.08281e-07
-2.40529e-07
-5.27057e-07
-2.58275e-07
-5.47282e-07
-2.78286e-07
-5.6896e-07
-3.00785e-07
-5.92494e-07
-3.25139e-07
-6.18359e-07
-3.52862e-07
-6.46812e-07
-3.80014e-07
-6.77941e-07
-4.04015e-07
-7.11533e-07
-4.22169e-07
-7.47021e-07
-4.32639e-07
-7.83596e-07
-4.35055e-07
-8.20414e-07
-4.30337e-07
-8.56751e-07
-4.20012e-07
-8.92061e-07
-4.0559e-07
-9.25957e-07
-3.88268e-07
-9.58176e-07
-3.68881e-07
-9.88535e-07
-3.47975e-07
-1.01691e-06
-3.25897e-07
-1.0432e-06
-3.02869e-07
-1.06735e-06
-2.79037e-07
-1.0893e-06
-2.5451e-07
-1.10902e-06
-2.29369e-07
-1.12646e-06
-2.03688e-07
-1.14162e-06
-1.77531e-07
-1.15448e-06
-1.50958e-07
-1.16502e-06
-1.24031e-07
-1.17323e-06
-9.68057e-08
-1.17911e-06
-6.93407e-08
-1.18264e-06
-4.16926e-08
-1.39198e-08
6.57604e-07
-1.10224e-08
6.54801e-07
-3.29514e-08
6.50147e-07
-5.47017e-08
6.43661e-07
-7.62104e-08
6.35368e-07
-9.74139e-08
6.25297e-07
-1.18247e-07
6.13481e-07
-1.38639e-07
5.99962e-07
-1.58514e-07
5.84789e-07
-1.77783e-07
5.6802e-07
-1.96353e-07
5.49725e-07
-2.14113e-07
5.29986e-07
-2.30921e-07
5.08902e-07
-2.46609e-07
4.86593e-07
-2.60974e-07
4.63199e-07
-2.73785e-07
4.38886e-07
-2.84798e-07
4.13838e-07
-2.93783e-07
3.88256e-07
-3.00564e-07
3.62344e-07
-3.05065e-07
3.3629e-07
-3.07342e-07
3.10281e-07
-3.07608e-07
2.84448e-07
-3.06167e-07
2.58909e-07
-3.03414e-07
2.33753e-07
-2.99733e-07
2.09023e-07
-2.95451e-07
1.84724e-07
-2.91225e-07
1.60869e-07
-2.86775e-07
1.37505e-07
-2.81953e-07
1.14615e-07
-2.77355e-07
9.22254e-08
-2.72598e-07
7.02511e-08
-2.6786e-07
4.87704e-08
-2.6317e-07
2.77782e-08
-2.58369e-07
7.27981e-09
-2.53586e-07
-1.2721e-08
-2.48742e-07
-3.22322e-08
-2.43873e-07
-5.12568e-08
-2.38997e-07
-6.97859e-08
-2.34105e-07
-8.78307e-08
-2.29192e-07
-1.05402e-07
-2.24236e-07
-1.22472e-07
-2.1927e-07
-1.39069e-07
-2.14296e-07
-1.552e-07
-2.09325e-07
-1.70873e-07
-2.04332e-07
-1.861e-07
-1.99409e-07
-2.00891e-07
-1.9453e-07
-2.15267e-07
-1.8971e-07
-2.29229e-07
-1.84957e-07
-2.4281e-07
-1.80286e-07
-2.56023e-07
-1.75598e-07
-2.68896e-07
-1.71097e-07
-2.8145e-07
-1.66667e-07
-2.93705e-07
-1.62296e-07
-3.05681e-07
-1.57977e-07
-3.17395e-07
-1.53719e-07
-3.28861e-07
-1.49573e-07
-3.40092e-07
-1.45675e-07
-3.51098e-07
-1.42319e-07
-3.6189e-07
-1.40096e-07
-3.72622e-07
-1.39496e-07
-3.83405e-07
-1.40342e-07
-3.94357e-07
-1.42604e-07
-4.05622e-07
-1.46342e-07
-4.17286e-07
-1.51297e-07
-4.29467e-07
-1.57509e-07
-4.42288e-07
-1.64939e-07
-4.55841e-07
-1.73597e-07
-4.70202e-07
-1.84291e-07
-4.85513e-07
-1.9562e-07
-5.01913e-07
-2.08445e-07
-5.195e-07
-2.22942e-07
-5.3845e-07
-2.39325e-07
-5.58906e-07
-2.5783e-07
-5.80359e-07
-2.79332e-07
-6.03892e-07
-3.01606e-07
-6.29829e-07
-3.26926e-07
-6.58303e-07
-3.5154e-07
-6.89299e-07
-3.73019e-07
-7.22515e-07
-3.88953e-07
-7.57353e-07
-3.978e-07
-7.9305e-07
-3.99358e-07
-8.28844e-07
-3.94543e-07
-8.64099e-07
-3.84757e-07
-8.98338e-07
-3.71352e-07
-9.31221e-07
-3.55385e-07
-9.62511e-07
-3.37591e-07
-9.92042e-07
-3.18444e-07
-1.01969e-06
-2.98247e-07
-1.04537e-06
-2.77191e-07
-1.069e-06
-2.55405e-07
-1.09053e-06
-2.32981e-07
-1.10991e-06
-2.09993e-07
-1.12709e-06
-1.86504e-07
-1.14205e-06
-1.62572e-07
-1.15476e-06
-1.38253e-07
-1.16519e-06
-1.13601e-07
-1.17332e-06
-8.86704e-08
-1.17915e-06
-6.35152e-08
-1.18265e-06
-3.81894e-08
-1.27494e-08
6.57605e-07
-1.00859e-08
6.54807e-07
-3.0153e-08
6.50162e-07
-5.00569e-08
6.43692e-07
-6.97396e-08
6.3542e-07
-8.91424e-08
6.25379e-07
-1.08205e-07
6.13604e-07
-1.26864e-07
6.00139e-07
-1.45049e-07
5.85035e-07
-1.62679e-07
5.68353e-07
-1.79671e-07
5.50162e-07
-1.95921e-07
5.30545e-07
-2.11305e-07
5.09602e-07
-2.25666e-07
4.87451e-07
-2.38822e-07
4.64229e-07
-2.50563e-07
4.40096e-07
-2.60665e-07
4.15232e-07
-2.68919e-07
3.89832e-07
-2.75163e-07
3.64094e-07
-2.79327e-07
3.38211e-07
-2.81459e-07
3.1235e-07
-2.81747e-07
2.86664e-07
-2.80482e-07
2.61266e-07
-2.78016e-07
2.36224e-07
-2.74691e-07
2.11583e-07
-2.70811e-07
1.87342e-07
-2.66984e-07
1.63529e-07
-2.62961e-07
1.40183e-07
-2.58607e-07
1.17278e-07
-2.54451e-07
9.4841e-08
-2.5016e-07
7.2814e-08
-2.45833e-07
5.12516e-08
-2.41607e-07
3.01538e-08
-2.37272e-07
9.5199e-09
-2.32952e-07
-1.06463e-08
-2.28576e-07
-3.03488e-08
-2.2417e-07
-4.95934e-08
-2.19753e-07
-6.83713e-08
-2.15327e-07
-8.66886e-08
-2.10874e-07
-1.0455e-07
-2.06375e-07
-1.21951e-07
-2.01869e-07
-1.38898e-07
-1.97349e-07
-1.55398e-07
-1.92825e-07
-1.71455e-07
-1.88274e-07
-1.87083e-07
-1.83781e-07
-2.02291e-07
-1.79322e-07
-2.17093e-07
-1.74908e-07
-2.315e-07
-1.7055e-07
-2.45529e-07
-1.66257e-07
-2.59189e-07
-1.61938e-07
-2.72505e-07
-1.57781e-07
-2.85494e-07
-1.53678e-07
-2.98171e-07
-1.4962e-07
-3.10549e-07
-1.45599e-07
-3.22642e-07
-1.41626e-07
-3.3446e-07
-1.37755e-07
-3.46015e-07
-1.34119e-07
-3.57323e-07
-1.31012e-07
-3.68407e-07
-1.29013e-07
-3.79417e-07
-1.28485e-07
-3.90468e-07
-1.29292e-07
-4.01675e-07
-1.31397e-07
-4.13203e-07
-1.34813e-07
-4.25119e-07
-1.39382e-07
-4.3754e-07
-1.45088e-07
-4.50574e-07
-1.51904e-07
-4.64333e-07
-1.59838e-07
-4.7897e-07
-1.69654e-07
-4.9451e-07
-1.80081e-07
-5.11072e-07
-1.91883e-07
-5.28812e-07
-2.05202e-07
-5.47909e-07
-2.20228e-07
-5.68672e-07
-2.37067e-07
-5.90543e-07
-2.5746e-07
-6.14316e-07
-2.77834e-07
-6.40378e-07
-3.00864e-07
-6.6886e-07
-3.23057e-07
-6.99681e-07
-3.42197e-07
-7.32498e-07
-3.56136e-07
-7.66725e-07
-3.63573e-07
-8.0165e-07
-3.64433e-07
-8.36582e-07
-3.59611e-07
-8.70945e-07
-3.50393e-07
-9.04305e-07
-3.37991e-07
-9.36352e-07
-3.23339e-07
-9.66866e-07
-3.07077e-07
-9.95689e-07
-2.89621e-07
-1.0227e-06
-2.71232e-07
-1.04782e-06
-2.52076e-07
-1.07096e-06
-2.32264e-07
-1.09206e-06
-2.11876e-07
-1.11108e-06
-1.90977e-07
-1.12796e-06
-1.69621e-07
-1.14267e-06
-1.47861e-07
-1.15518e-06
-1.25747e-07
-1.16545e-06
-1.03327e-07
-1.17347e-06
-8.06526e-08
-1.17921e-06
-5.77718e-08
-1.18267e-06
-3.47351e-08
-1.15955e-08
6.57609e-07
-9.15337e-09
6.54822e-07
-2.73655e-08
6.50195e-07
-4.54301e-08
6.4375e-07
-6.32942e-08
6.35512e-07
-8.09045e-08
6.25513e-07
-9.82064e-08
6.13791e-07
-1.15142e-07
6.00391e-07
-1.31648e-07
5.85363e-07
-1.47652e-07
5.68768e-07
-1.63076e-07
5.50678e-07
-1.77831e-07
5.31172e-07
-1.918e-07
5.10351e-07
-2.04845e-07
4.88329e-07
-2.168e-07
4.65242e-07
-2.27476e-07
4.41247e-07
-2.36671e-07
4.16521e-07
-2.44193e-07
3.91254e-07
-2.49896e-07
3.65639e-07
-2.53712e-07
3.39872e-07
-2.55692e-07
3.14121e-07
-2.55996e-07
2.88534e-07
-2.54895e-07
2.6321e-07
-2.52691e-07
2.38223e-07
-2.49704e-07
2.13627e-07
-2.46214e-07
1.89418e-07
-2.42775e-07
1.65615e-07
-2.39159e-07
1.42256e-07
-2.35247e-07
1.19316e-07
-2.31511e-07
9.68123e-08
-2.27656e-07
7.4738e-08
-2.23759e-07
5.30941e-08
-2.19963e-07
3.18893e-08
-2.16067e-07
1.11242e-08
-2.12187e-07
-9.19685e-09
-2.08255e-07
-2.90752e-08
-2.04292e-07
-4.85149e-08
-2.00313e-07
-6.7512e-08
-1.9633e-07
-8.60668e-08
-1.9232e-07
-1.04182e-07
-1.88259e-07
-1.21857e-07
-1.84194e-07
-1.39095e-07
-1.80111e-07
-1.559e-07
-1.7602e-07
-1.72275e-07
-1.71899e-07
-1.88231e-07
-1.67825e-07
-2.03777e-07
-1.63776e-07
-2.18923e-07
-1.59762e-07
-2.33679e-07
-1.55794e-07
-2.48059e-07
-1.51877e-07
-2.62066e-07
-1.47931e-07
-2.75723e-07
-1.44123e-07
-2.89044e-07
-1.40358e-07
-3.02039e-07
-1.36625e-07
-3.14718e-07
-1.32919e-07
-3.2709e-07
-1.29254e-07
-3.39165e-07
-1.2568e-07
-3.50955e-07
-1.22329e-07
-3.62481e-07
-1.19487e-07
-3.73785e-07
-1.17708e-07
-3.85013e-07
-1.17257e-07
-3.96278e-07
-1.18026e-07
-4.07693e-07
-1.19982e-07
-4.19412e-07
-1.23093e-07
-4.31498e-07
-1.27296e-07
-4.44089e-07
-1.32497e-07
-4.57285e-07
-1.38709e-07
-4.71183e-07
-1.45939e-07
-4.86005e-07
-1.54832e-07
-5.01731e-07
-1.64355e-07
-5.18487e-07
-1.75127e-07
-5.36416e-07
-1.87273e-07
-5.55665e-07
-2.00979e-07
-5.76359e-07
-2.16373e-07
-5.98852e-07
-2.34967e-07
-6.23098e-07
-2.53587e-07
-6.49475e-07
-2.74487e-07
-6.78096e-07
-2.94437e-07
-7.08864e-07
-3.11429e-07
-7.41434e-07
-3.23566e-07
-7.75237e-07
-3.2977e-07
-8.09597e-07
-3.30074e-07
-8.43866e-07
-3.25342e-07
-8.77512e-07
-3.16747e-07
-9.10139e-07
-3.05365e-07
-9.41463e-07
-2.92014e-07
-9.71286e-07
-2.77255e-07
-9.9946e-07
-2.61446e-07
-1.02588e-06
-2.44815e-07
-1.05045e-06
-2.27505e-07
-1.0731e-06
-2.09611e-07
-1.09377e-06
-1.91204e-07
-1.11241e-06
-1.72338e-07
-1.12897e-06
-1.53064e-07
-1.14341e-06
-1.33426e-07
-1.15568e-06
-1.13469e-07
-1.16577e-06
-9.32373e-08
-1.17365e-06
-7.27755e-08
-1.17929e-06
-5.21283e-08
-1.18269e-06
-3.13409e-08
-1.04619e-08
6.57613e-07
-8.22484e-09
6.54838e-07
-2.45901e-08
6.50231e-07
-4.08232e-08
6.43814e-07
-5.68767e-08
6.35612e-07
-7.27027e-08
6.25657e-07
-8.82521e-08
6.13989e-07
-1.03473e-07
6.00649e-07
-1.18309e-07
5.85692e-07
-1.32694e-07
5.69177e-07
-1.46562e-07
5.51175e-07
-1.59828e-07
5.31767e-07
-1.72391e-07
5.11049e-07
-1.84127e-07
4.89134e-07
-1.94886e-07
4.66157e-07
-2.04499e-07
4.42272e-07
-2.12786e-07
4.17653e-07
-2.19574e-07
3.92488e-07
-2.2473e-07
3.6697e-07
-2.28195e-07
3.41287e-07
-2.30008e-07
3.1561e-07
-2.3032e-07
2.90074e-07
-2.29359e-07
2.64788e-07
-2.27405e-07
2.39832e-07
-2.24749e-07
2.15254e-07
-2.21636e-07
1.9105e-07
-2.18571e-07
1.67238e-07
-2.15347e-07
1.43852e-07
-2.11861e-07
1.2087e-07
-2.08529e-07
9.8308e-08
-2.05094e-07
7.61659e-08
-2.01617e-07
5.44364e-08
-1.98234e-07
3.31289e-08
-1.94759e-07
1.22425e-08
-1.91301e-07
-8.21813e-09
-1.87795e-07
-2.82527e-08
-1.84258e-07
-4.78625e-08
-1.80703e-07
-6.7046e-08
-1.77147e-07
-8.58026e-08
-1.73563e-07
-1.04132e-07
-1.69929e-07
-1.22035e-07
-1.66291e-07
-1.39513e-07
-1.62634e-07
-1.56569e-07
-1.58964e-07
-1.73202e-07
-1.55266e-07
-1.89424e-07
-1.51604e-07
-2.0524e-07
-1.47959e-07
-2.2066e-07
-1.44343e-07
-2.35691e-07
-1.40762e-07
-2.50344e-07
-1.37223e-07
-2.64619e-07
-1.33656e-07
-2.78538e-07
-1.30204e-07
-2.9211e-07
-1.26786e-07
-3.05343e-07
-1.23391e-07
-3.18245e-07
-1.20018e-07
-3.30822e-07
-1.16677e-07
-3.43083e-07
-1.13419e-07
-3.55042e-07
-1.1037e-07
-3.66726e-07
-1.07803e-07
-3.78194e-07
-1.0624e-07
-3.89583e-07
-1.05869e-07
-4.01013e-07
-1.06596e-07
-4.12602e-07
-1.08393e-07
-4.24489e-07
-1.11206e-07
-4.36758e-07
-1.15028e-07
-4.49511e-07
-1.19743e-07
-4.62855e-07
-1.25364e-07
-4.76892e-07
-1.31902e-07
-4.91865e-07
-1.3986e-07
-5.07743e-07
-1.48478e-07
-5.24641e-07
-1.58228e-07
-5.42692e-07
-1.69223e-07
-5.62032e-07
-1.81638e-07
-5.82823e-07
-1.95582e-07
-6.05633e-07
-2.12157e-07
-6.30236e-07
-2.28984e-07
-6.56932e-07
-2.47791e-07
-6.85777e-07
-2.65592e-07
-7.16636e-07
-2.8057e-07
-7.49127e-07
-2.91075e-07
-7.82672e-07
-2.96225e-07
-8.1662e-07
-2.96126e-07
-8.50368e-07
-2.91594e-07
-8.83432e-07
-2.83684e-07
-9.1545e-07
-2.73346e-07
-9.46166e-07
-2.61298e-07
-9.75397e-07
-2.48023e-07
-1.00301e-06
-2.33834e-07
-1.0289e-06
-2.18926e-07
-1.05298e-06
-2.03421e-07
-1.07519e-06
-1.87404e-07
-1.09546e-06
-1.70933e-07
-1.11374e-06
-1.54058e-07
-1.12999e-06
-1.3682e-07
-1.14415e-06
-1.19261e-07
-1.1562e-06
-1.01419e-07
-1.1661e-06
-8.3333e-08
-1.17384e-06
-6.50427e-08
-1.17938e-06
-4.65879e-08
-1.18271e-06
-2.80089e-08
-9.34922e-09
6.57618e-07
-7.30048e-09
6.54854e-07
-2.18268e-08
6.50268e-07
-3.62364e-08
6.43878e-07
-5.0487e-08
6.35711e-07
-6.45362e-08
6.258e-07
-7.83407e-08
6.14181e-07
-9.18546e-08
6.009e-07
-1.05027e-07
5.86007e-07
-1.17802e-07
5.69563e-07
-1.30117e-07
5.51637e-07
-1.41902e-07
5.32309e-07
-1.53064e-07
5.11676e-07
-1.63494e-07
4.89849e-07
-1.73059e-07
4.66961e-07
-1.81611e-07
4.43162e-07
-1.88987e-07
4.18624e-07
-1.95036e-07
3.93533e-07
-1.99639e-07
3.68081e-07
-2.02743e-07
3.42454e-07
-2.04381e-07
3.16819e-07
-2.04684e-07
2.91314e-07
-2.03854e-07
2.66051e-07
-2.02143e-07
2.41107e-07
-1.99804e-07
2.16531e-07
-1.9706e-07
1.92319e-07
-1.94358e-07
1.68486e-07
-1.91514e-07
1.45066e-07
-1.88442e-07
1.22039e-07
-1.85502e-07
9.9419e-08
-1.82474e-07
7.72072e-08
-1.79405e-07
5.53949e-08
-1.76422e-07
3.39916e-08
-1.73356e-07
1.29962e-08
-1.70305e-07
-7.5865e-09
-1.67212e-07
-2.77553e-08
-1.64089e-07
-4.75106e-08
-1.60948e-07
-6.68516e-08
-1.57806e-07
-8.5777e-08
-1.54638e-07
-1.04285e-07
-1.51422e-07
-1.22375e-07
-1.48201e-07
-1.40048e-07
-1.4496e-07
-1.57306e-07
-1.41706e-07
-1.74148e-07
-1.38424e-07
-1.90582e-07
-1.3517e-07
-2.06614e-07
-1.31928e-07
-2.22249e-07
-1.28707e-07
-2.37496e-07
-1.25516e-07
-2.5236e-07
-1.22359e-07
-2.66842e-07
-1.19175e-07
-2.80958e-07
-1.16087e-07
-2.94718e-07
-1.13026e-07
-3.08128e-07
-1.09981e-07
-3.21194e-07
-1.06952e-07
-3.3392e-07
-1.0395e-07
-3.46315e-07
-1.01024e-07
-3.58394e-07
-9.82908e-08
-3.70194e-07
-9.60033e-08
-3.81786e-07
-9.46476e-08