/*--------------------------------*- C++ -*----------------------------------*\
  =========                 |
  \\      /  F ield         | OpenFOAM: The Open Source CFD Toolbox
   \\    /   O peration     | Website:  https://openfoam.org
    \\  /    A nd           | Version:  10
     \\/     M anipulation  |
\*---------------------------------------------------------------------------*/
FoamFile
{
    format      ascii;
    class       volScalarField;
    location    "1";
    object      T;
}
// * * * * * * * * * * * * * * * * * * * * * * * * * * * * * * * * * * * * * //

dimensions      [0 0 0 1 0 0 0];

internalField   nonuniform List<scalar> 
4000
(
293.008
293.029
293.062
293.114
293.196
293.326
293.528
293.843
294.331
295.056
296.12
297.671
299.911
303.101
307.568
313.703
321.934
332.695
346.374
363.254
383.477
407.014
433.684
463.36
495.571
529.277
564.958
602.982
642.017
682.795
724.492
767.497
811.538
856.316
901.715
947.623
993.92
1040.56
1087.45
1134.54
1182.08
1229.28
1276.4
1323.46
1370.06
1416.87
1462.54
1508.39
1552.76
1597.67
1640.9
1683.58
1726.18
1769.17
1813.01
1857.96
1903.6
1947.95
1985.82
2006.84
2004.88
1978.17
1926.88
1853.82
1762.4
1659.12
1547.36
1430.68
1307.96
1190.16
1074.84
963.004
856.243
755.692
662.908
579.846
504.399
441.915
392.964
356.948
332.123
316.031
306.139
300.313
296.991
295.145
294.138
293.597
293.311
293.161
293.083
293.042
293.022
293.011
293.006
293.003
293.001
293.001
293
293
293.008
293.029
293.062
293.114
293.197
293.326
293.529
293.844
294.333
295.059
296.123
297.673
299.907
303.084
307.523
313.603
321.735
332.351
345.84
362.497
382.48
405.797
432.315
461.617
493.545
526.994
562.443
600.386
639.314
680.119
721.929
765.088
809.204
854.141
899.681
945.724
992.16
1038.97
1086.01
1133.25
1180.96
1228.33
1275.62
1322.89
1369.67
1416.65
1462.52
1508.58
1553.15
1598.27
1641.62
1684.49
1727.29
1770.47
1814.52
1859.66
1905.41
1949.67
1987.04
2006.74
2003.31
1974.92
1921.89
1847.16
1754.32
1649.75
1537.05
1420
1296.83
1178.82
1063.12
951.893
845.392
745.135
652.354
569.308
495.292
434.542
387.443
353.153
329.727
314.633
305.377
299.919
296.798
295.054
294.097
293.581
293.305
293.158
293.082
293.042
293.021
293.011
293.005
293.003
293.001
293.001
293
293
293.008
293.029
293.062
293.115
293.197
293.327
293.53
293.847
294.336
295.064
296.129
297.677
299.908
303.073
307.486
313.517
321.579
332.092
345.435
361.894
381.624
404.626
430.822
459.926
491.648
524.924
560.287
598.054
636.865
677.654
719.302
762.312
806.316
851.336
896.99
943.169
989.761
1036.77
1084
1131.45
1179.41
1227.02
1274.56
1322.12
1369.19
1416.43
1462.59
1508.95
1553.83
1599.25
1642.84
1686.03
1729.14
1772.63
1816.99
1862.39
1908.31
1952.45
1988.99
2006.5
2000.64
1969.5
1913.61
1836.35
1741.7
1635.5
1521.6
1403.64
1280.21
1162.05
1047
935.751
830.553
732.223
638.541
558.054
485.942
427.331
382.309
349.777
327.664
313.447
304.727
299.575
296.62
294.963
294.051
293.557
293.292
293.152
293.079
293.04
293.021
293.011
293.005
293.003
293.001
293.001
293
293
293.008
293.029
293.062
293.115
293.197
293.327
293.53
293.846
294.335
295.061
296.122
297.663
299.877
303.015
307.389
313.366
321.351
331.759
344.969
361.271
380.831
403.669
429.64
458.558
490.139
523.241
558.436
596.075
634.668
675.264
716.749
759.63
803.551
848.55
894.337
940.631
987.376
1034.58
1082.01
1129.68
1177.88
1225.75
1273.57
1321.5
1368.88
1416.4
1462.88
1509.57
1554.78
1600.53
1644.42
1687.93
1731.39
1775.26
1819.95
1865.7
1911.83
1955.79
1991.23
2006.1
1997.33
1963.07
1902.97
1822.9
1726.16
1618.06
1502.85
1384.2
1261.57
1142.9
1027.5
917.548
813.444
715.759
624.513
546.22
475.972
419.566
376.707
346.026
325.316
312.061
303.945
299.15
296.395
294.847
293.992
293.527
293.277
293.145
293.075
293.039
293.02
293.01
293.005
293.003
293.001
293.001
293
293
293.008
293.029
293.062
293.115
293.197
293.327
293.529
293.844
294.331
295.054
296.11
297.642
299.843
302.962
307.307
313.239
321.162
331.487
344.591
360.769
380.195
402.899
428.751
457.491
488.84
521.678
556.553
594.064
632.568
673.056
714.445
757.225
801.086
846.036
891.882
938.351
985.269
1032.67
1080.3
1128.19
1176.65
1224.79
1272.89
1321.15
1368.84
1416.63
1463.42
1510.4
1555.91
1601.99
1646.23
1690.08
1733.9
1778.13
1823.22
1869.31
1915.61
1959.26
1993.29
2005.27
1993.07
1954.98
1891.13
1807.95
1709.06
1599.09
1482.37
1362.09
1241.27
1123.2
1008.56
899.194
795.291
699.625
612.848
532.663
465.45
411.822
371.346
342.542
323.181
310.815
303.247
298.771
296.193
294.741
293.938
293.499
293.263
293.138
293.071
293.037
293.019
293.01
293.005
293.002
293.001
293.001
293
293
293.008
293.029
293.062
293.114
293.196
293.326
293.527
293.841
294.326
295.045
296.096
297.621
299.812
302.914
307.234
313.131
321.003
331.258
344.269
360.325
379.592
402.087
427.685
456.231
487.459
520.208
555.033
592.444
630.817
671.192
712.504
755.208
799.069
844.024
889.986
936.551
983.602
1031.16
1078.97
1127.06
1175.76
1224.15
1272.53
1321.11
1369.11
1417.15
1464.28
1511.41
1557.28
1603.74
1648.31
1692.48
1736.6
1781.16
1826.59
1872.98
1919.38
1962.6
1994.98
2004.21
1988.82
1947.36
1880.29
1794.31
1692.97
1581.13
1462.9
1341.84
1221.02
1103.08
989.327
880.834
778.829
684.647
599.05
521.172
456.375
405.064
366.62
339.435
321.251
309.673
302.596
298.411
295.999
294.639
293.884
293.472
293.249
293.131
293.068
293.035
293.018
293.009
293.005
293.002
293.001
293.001
293
293
293.007
293.029
293.062
293.114
293.195
293.324
293.525
293.838
294.32
295.035
296.08
297.597
299.774
302.856
307.148
313.005
320.824
331.011
343.934
359.883
379.045
401.426
426.924
455.345
486.442
519.066
553.743
591.049
629.346
669.645
710.879
753.484
797.542
842.483
888.473
935.153
982.343
1030.06
1078.04
1126.33
1175.2
1223.83
1272.47
1321.37
1369.72
1417.76
1465.26
1512.48
1558.69
1605.48
1650.36
1694.82
1739.26
1784.13
1829.87
1876.51
1922.93
1965.57
1996.04
2002.81
1984.42
1939.81
1869.82
1781.38
1678.41
1565.63
1447.47
1322.3
1202.28
1084.9
972.054
864.276
763.301
670.091
586.932
511.051
448.378
399.121
362.477
336.719
319.567
308.677
302.028
298.096
295.829
294.548
293.836
293.447
293.236
293.124
293.065
293.033
293.017
293.009
293.004
293.002
293.001
293
293
293
293.007
293.029
293.062
293.113
293.194
293.322
293.522
293.832
294.311
295.021
296.057
297.56
299.717
302.771
307.022
312.827
320.578
330.681
343.509
359.356
378.399
400.675
426.104
454.474
485.464
517.939
552.548
589.772
627.979
668.21
709.552
752.168
796.289
841.269
887.312
934.111
981.441
1029.28
1077.44
1126.02
1174.8
1223.7
1272.61
1321.78
1370.38
1418.63
1466.39
1513.62
1560.11
1607.19
1652.35
1697.1
1741.81
1786.97
1832.98
1879.82
1926.21
1968.2
1996.68
2001.16
1979.95
1932.4
1859.8
1769.16
1664.36
1550.41
1431.28
1305.23
1185.64
1068.83
956.355
849.735
749.923
658.028
575.911
501.905
441.227
393.865
358.849
334.364
318.117
307.821
301.541
297.825
295.681
294.468
293.794
293.425
293.225
293.118
293.062
293.032
293.016
293.008
293.004
293.002
293.001
293
293
293
293.007
293.029
293.061
293.113
293.194
293.321
293.519
293.828
294.305
295.01
296.039
297.532
299.675
302.71
306.935
312.704
320.411
330.458
343.223
359.012
377.973
400.191
425.515
453.748
484.684
517.125
551.662
588.79
626.939
667.056
708.726
751.263
795.379
840.374
886.458
933.355
980.817
1028.72
1077.05
1125.84
1174.77
1223.84
1272.96
1322.35
1371.17
1419.63
1467.64
1515.04
1561.75
1609.03
1654.36
1699.31
1744.24
1789.64
1835.89
1882.89
1929.22
1970.56
1997.13
1999.47
1975.71
1925.56
1850.9
1758.22
1651.91
1536.86
1417.19
1290.69
1171.1
1054.78
943.341
837.974
739.844
645.607
565.929
494.112
435.377
389.677
356.002
332.522
316.978
307.142
301.148
297.604
295.559
294.402
293.759
293.406
293.215
293.113
293.059
293.03
293.016
293.008
293.004
293.002
293.001
293
293
293
293.007
293.029
293.061
293.112
293.193
293.32
293.518
293.825
294.299
295.001
296.024
297.509
299.641
302.659
306.861
312.601
320.269
330.269
342.977
358.691
377.603
399.719
424.975
453.192
484.071
516.46
550.955
588.03
626.162
666.263
707.977
750.528
794.674
839.7
885.828
932.803
980.407
1028.42
1076.87
1125.83
1174.91
1224.15
1273.43
1322.99
1371.98
1420.64
1468.82
1516.4
1563.28
1610.7
1656.23
1701.37
1746.5
1792.1
1838.54
1885.68
1931.93
1972.64
1997.45
1997.75
1971.56
1918.93
1842.69
1748.29
1640.76
1524.94
1404.9
1278.66
1159.27
1043.36
932.458
827.651
730.125
636.827
558.38
487.96
430.611
386.176
353.567
330.915
315.966
306.531
300.791
297.401
295.446
294.34
293.726
293.388
293.206
293.108
293.056
293.029
293.015
293.008
293.004
293.002
293.001
293
293
293
293.007
293.029
293.061
293.112
293.192
293.318
293.516
293.822
294.295
294.993
296.013
297.492
299.614
302.618
306.801
312.515
320.151
330.114
342.782
358.441
377.278
399.342
424.552
452.707
483.561
515.921
550.393
587.435
625.56
665.65
707.386
749.958
794.147
839.218
885.402
932.464
980.177
1028.29
1076.84
1125.95
1175.15
1224.52
1273.94
1323.64
1372.79
1421.61
1469.94
1517.67
1564.72
1612.26
1657.95
1703.24
1748.53
1794.3
1840.91
1888.15
1934.28
1974.32
1997.78
1996.17
1967.86
1913.17
1835.48
1739.06
1630.6
1514.18
1393.76
1268.27
1148.99
1033.39
922.976
818.796
722.028
630.192
552.533
483.063
426.719
383.24
351.48
329.518
315.081
305.994
300.477
297.222
295.346
294.286
293.696
293.373
293.198
293.104
293.054
293.028
293.014
293.007
293.004
293.002
293.001
293
293
293
293.007
293.028
293.061
293.111
293.191
293.317
293.514
293.819
294.29
294.985
296.001
297.474
299.59
302.585
306.755
312.446
320.054
329.983
342.608
358.232
377.025
399.05
424.228
452.349
483.168
515.501
549.956
586.972
625.098
665.182
706.941
749.538
793.763
838.88
885.121
932.257
980.067
1028.26
1076.91
1126.15
1175.46
1224.95
1274.5
1324.31
1373.6
1422.55
1471.02
1518.89
1566.07
1613.71
1659.54
1704.98
1750.42
1796.34
1843.1
1890.41
1936.47
1975.99
1997.91
1994.65
1964.48
1907.97
1828.67
1731.26
1621.79
1504.68
1383.97
1259.28
1140.09
1024.7
914.643
810.833
714.529
624.423
547.559
478.89
423.374
380.737
349.723
328.353
314.345
305.548
300.215
297.073
295.263
294.24
293.672
293.36
293.191
293.1
293.052
293.027
293.014
293.007
293.004
293.002
293.001
293
293
293
293.007
293.028
293.06
293.111
293.191
293.316
293.512
293.817
294.286
294.979
295.99
297.458
299.566
302.551
306.709
312.388
319.977
329.879
342.471
358.053
376.816
398.813
423.949
452.048
482.846
515.166
549.614
586.616
624.746
664.831
706.613
749.236
793.501
838.657
884.943
932.145
980.04
1028.32
1077.05
1126.39
1175.8
1225.39
1275.05
1324.98
1374.39
1423.46
1472.06
1520.05
1567.33
1615.04
1660.97
1706.51
1752.07
1798.13
1845.02
1892.44
1938.41
1977.43
1997.98
1993.29
1961.51
1903.42
1822.74
1724.51
1614.22
1496.59
1375.57
1251.61
1132.36
1017.16
907.275
803.902
708.124
619.54
543.2
475.253
420.499
378.594
348.218
327.354
313.714
305.166
299.991
296.945
295.191
294.201
293.651
293.349
293.185
293.097
293.051
293.026
293.014
293.007
293.004
293.002
293.001
293
293
293
293.007
293.028
293.06
293.111
293.19
293.316
293.511
293.815
294.283
294.973
295.982
297.445
299.547
302.523
306.669
312.333
319.906
329.79
342.36
357.916
376.651
398.618
423.738
451.817
482.602
514.911
549.353
586.347
624.483
664.572
706.374
749.022
793.319
838.513
884.848
932.107
980.073
1028.42
1077.22
1126.65
1176.14
1225.81
1275.55
1325.54
1375.04
1424.24
1473.02
1521.13
1568.51
1616.25
1662.25
1707.88
1753.54
1799.7
1846.7
1894.18
1940.08
1978.67
1998.04
1992.09
1958.93
1899.42
1817.56
1718.49
1607.51
1489.41
1368.09
1244.89
1125.78
1010.71
901.173
798.064
702.652
615.393
539.494
472.085
417.977
376.709
346.895
326.479
313.163
304.833
299.797
296.834
295.13
294.167
293.632
293.339
293.18
293.095
293.05
293.026
293.013
293.007
293.003
293.002
293.001
293
293
293
293.007
293.028
293.06
293.111
293.19
293.315
293.51
293.813
294.28
294.969
295.975
297.435
299.531
302.501
306.638
312.29
319.848
329.713
342.264
357.806
376.523
398.471
423.571
451.635
482.411
514.713
549.153
586.139
624.286
664.384
706.208
748.88
793.209
838.438
884.813
932.118
980.143
1028.54
1077.41
1126.9
1176.45
1226.18
1275.97
1325.98
1375.48
1424.6
1474.24
1522.28
1569.64
1617.36
1663.4
1709.08
1754.81
1801.06
1848.13
1895.66
1941.48
1979.7
1998.13
1991.23
1957.12
1895.43
1812.82
1713.12
1601.7
1483.3
1361.82
1239.37
1120.25
1005.34
895.992
793.2
698.112
611.913
536.088
469.107
415.616
374.969
345.695
325.697
312.678
304.543
299.629
296.739
295.077
294.139
293.617
293.331
293.176
293.092
293.048
293.025
293.013
293.007
293.003
293.002
293.001
293
293
293
293.007
293.028
293.06
293.11
293.19
293.314
293.509
293.812
294.278
294.965
295.969
297.426
299.519
302.483
306.613
312.256
319.802
329.654
342.189
357.713
376.417
398.352
423.439
451.494
482.264
514.564
549.007
585.991
624.145
664.248
706.091
748.784
793.141
838.401
884.812
932.158
980.233
1028.68
1077.59
1127.15
1176.75
1226.53
1276.38
1326.44
1376.01
1425.22
1474.96
1523.07
1570.5
1618.22
1664.32
1710.06
1755.84
1802.16
1849.31
1896.87
1942.63
1980.52
1998.14
1990.38
1955.31
1892.7
1809.29
1708.98
1597.12
1478.44
1356.81
1235
1115.94
1001.18
892.091
789.679
695.144
609.904
531.62
465.945
413.377
373.43
344.674
325.047
312.279
304.307
299.492
296.662
295.034
294.115
293.604
293.324
293.172
293.091
293.047
293.025
293.013
293.006
293.003
293.002
293.001
293
293
293
293.007
293.028
293.06
293.11
293.19
293.314
293.509
293.811
294.276
294.962
295.965
297.419
299.509
302.47
306.594
312.23
319.767
329.609
342.133
357.644
376.335
398.26
423.34
451.389
482.156
514.455
548.899
585.884
624.047
664.158
706.016
748.727
793.106
838.392
884.831
932.209
980.323
1028.8
1077.76
1127.36
1177
1226.84
1276.74
1326.83
1376.46
1425.74
1475.5
1523.67
1571.15
1618.89
1665.03
1710.82
1756.66
1803.03
1850.24
1897.84
1943.54
1981.18
1998.15
1989.69
1953.87
1890.62
1806.6
1705.82
1593.64
1474.77
1353.04
1231.48
1112.48
997.841
888.911
786.69
692.381
607.357
529.243
463.942
411.81
372.281
343.886
324.537
311.964
304.12
299.384
296.601
295.001
294.097
293.594
293.319
293.169
293.089
293.047
293.024
293.012
293.006
293.003
293.002
293.001
293
293
293
293.007
293.028
293.06
293.11
293.189
293.314
293.508
293.81
294.275
294.96
295.961
297.415
299.502
302.46
306.58
312.211
319.742
329.576
342.092
357.595
376.277
398.194
423.268
451.314
482.079
514.379
548.825
585.812
623.982
664.1
705.97
748.695
793.091
838.395
884.856
932.258
980.402
1028.91
1077.89
1127.53
1177.21
1227.08
1277.01
1327.14
1376.81
1426.13
1475.9
1524.11
1571.63
1619.38
1665.56
1711.38
1757.26
1803.68
1850.93
1898.56
1944.23
1981.67
1998.16
1989.18
1952.82
1889.1
1804.65
1703.54
1591.11
1472.1
1350.34
1228.81
1109.87
995.32
886.5
784.409
690.274
605.445
527.558
462.56
410.736
371.494
343.343
324.181
311.743
303.987
299.307
296.557
294.976
294.084
293.587
293.315
293.167
293.088
293.046
293.024
293.012
293.006
293.003
293.002
293.001
293
293
293
293.007
293.028
293.06
293.11
293.189
293.314
293.508
293.81
294.274
294.959
295.959
297.412
299.498
302.453
306.571
312.198
319.726
329.555
342.066
357.564
376.241
398.153
423.223
451.266
482.031
514.331
548.78
585.767
623.942
664.064
705.943
748.677
793.085
838.403
884.878
932.296
980.459
1028.99
1077.99
1127.65
1177.35
1227.25
1277.21
1327.35
1377.04
1426.39
1476.16
1524.4
1571.94
1619.7
1665.9
1711.75
1757.66
1804.11
1851.39
1899.03
1944.67
1981.98
1998.17
1988.86
1952.13
1888.12
1803.38
1702.05
1589.48
1470.37
1348.56
1227.05
1108.14
993.655
884.914
782.92
688.902
604.212
526.492
461.678
410.057
370.999
343.001
323.957
311.602
303.902
299.257
296.529
294.961
294.075
293.583
293.312
293.166
293.087
293.046
293.024
293.012
293.006
293.003
293.002
293.001
293
293
293
293.007
293.028
293.06
293.11
293.189
293.314
293.508
293.81
294.273
294.958
295.958
297.41
299.496
302.45
306.567
312.193
319.718
329.545
342.054
357.549
376.223
398.133
423.201
451.243
482.008
514.308
548.758
585.746
623.923
664.048
705.931
748.67
793.084
838.408
884.891
932.317
980.489
1029.03
1078.04
1127.71
1177.43
1227.33
1277.3
1327.46
1377.16
1426.52
1476.3
1524.54
1572.1
1619.85
1666.07
1711.93
1757.86
1804.32
1851.62
1899.26
1944.9
1982.14
1998.17
1988.69
1951.8
1887.63
1802.76
1701.32
1588.67
1469.52
1347.7
1226.18
1107.29
992.837
884.137
782.194
688.237
603.62
525.986
461.263
409.735
370.766
342.841
323.851
311.535
303.862
299.234
296.516
294.953
294.071
293.58
293.311
293.165
293.087
293.046
293.024
293.012
293.006
293.003
293.002
293.001
293
293
293
293.007
293.028
293.06
293.11
293.189
293.314
293.508
293.81
294.274
294.958
295.958
297.41
299.496
302.45
306.567
312.193
319.718
329.545
342.054
357.549
376.223
398.133
423.201
451.243
482.008
514.308
548.758
585.746
623.923
664.048
705.931
748.67
793.084
838.408
884.891
932.317
980.49
1029.03
1078.04
1127.71
1177.43
1227.33
1277.3
1327.46
1377.16
1426.52
1476.3
1524.55
1572.1
1619.86
1666.07
1711.93
1757.86
1804.32
1851.62
1899.26
1944.9
1982.14
1998.18
1988.7
1951.8
1887.63
1802.76
1701.33
1588.68
1469.53
1347.7
1226.18
1107.29
992.841
884.14
782.197
688.24
603.623
525.988
461.265
409.737
370.767
342.841
323.852
311.536
303.862
299.234
296.516
294.953
294.071
293.58
293.311
293.165
293.087
293.046
293.024
293.012
293.006
293.003
293.002
293.001
293
293
293
293.007
293.028
293.06
293.11
293.189
293.314
293.508
293.81
294.274
294.959
295.959
297.412
299.498
302.454
306.571
312.199
319.726
329.556
342.067
357.564
376.241
398.153
423.223
451.266
482.031
514.331
548.78
585.768
623.942
664.064
705.943
748.678
793.085
838.403
884.879
932.297
980.46
1028.99
1077.99
1127.65
1177.35
1227.25
1277.21
1327.35
1377.05
1426.39
1476.17
1524.4
1571.94
1619.7
1665.9
1711.75
1757.66
1804.11
1851.39
1899.03
1944.68
1981.99
1998.18
1988.86
1952.14
1888.12
1803.39
1702.06
1589.49
1470.38
1348.58
1227.06
1108.15
993.666
884.924
782.93
688.91
604.22
526.499
461.683
410.06
371.002
343.003
323.958
311.602
303.902
299.258
296.529
294.961
294.075
293.583
293.312
293.166
293.087
293.046
293.024
293.012
293.006
293.003
293.002
293.001
293
293
293
293.007
293.028
293.06
293.11
293.189
293.314
293.508
293.81
294.275
294.96
295.962
297.415
299.503
302.46
306.58
312.211
319.742
329.576
342.093
357.596
376.278
398.195
423.268
451.314
482.08
514.379
548.826
585.813
623.982
664.1
705.97
748.695
793.091
838.396
884.857
932.259
980.403
1028.91
1077.9
1127.53
1177.21
1227.08
1277.02
1327.14
1376.81
1426.13
1475.9
1524.11
1571.63
1619.38
1665.56
1711.39
1757.27
1803.69
1850.94
1898.56
1944.24
1981.68
1998.17
1989.19
1952.83
1889.11
1804.66
1703.55
1591.13
1472.12
1350.36
1228.83
1109.89
995.338
886.516
784.425
690.288
605.459
527.57
462.569
410.744
371.499
343.346
324.183
311.744
303.987
299.307
296.558
294.977
294.084
293.587
293.315
293.167
293.088
293.046
293.024
293.012
293.006
293.003
293.002
293.001
293
293
293
293.007
293.028
293.06
293.11
293.19
293.314
293.509
293.811
294.276
294.962
295.965
297.42
299.51
302.47
306.594
312.231
319.768
329.61
342.134
357.645
376.336
398.261
423.341
451.39
482.157
514.456
548.899
585.885
624.048
664.159
706.017
748.728
793.107
838.392
884.831
932.209
980.323
1028.81
1077.76
1127.36
1177.01
1226.84
1276.74
1326.83
1376.46
1425.74
1475.5
1523.68
1571.16
1618.9
1665.04
1710.83
1756.67
1803.04
1850.25
1897.85
1943.56
1981.19
1998.16
1989.7
1953.88
1890.63
1806.62
1705.84
1593.66
1474.79
1353.07
1231.51
1112.5
997.865
888.932
786.71
692.4
607.375
529.258
463.955
411.819
372.288
343.891
324.54
311.966
304.121
299.385
296.602
295.001
294.097
293.594
293.319
293.169
293.089
293.047
293.024
293.012
293.006
293.003
293.002
293.001
293
293
293
293.007
293.028
293.06
293.11
293.19
293.315
293.509
293.812
294.278
294.965
295.969
297.426
299.519
302.484
306.613
312.257
319.803
329.655
342.19
357.714
376.418
398.353
423.44
451.495
482.265
514.565
549.008
585.992
624.147
664.25
706.092
748.785
793.142
838.402
884.813
932.159
980.234
1028.68
1077.59
1127.15
1176.75
1226.53
1276.38
1326.43
1376.01
1425.22
1474.96
1523.08
1570.51
1618.23
1664.33
1710.07
1755.85
1802.17
1849.32
1896.88
1942.64
1980.53
1998.16
1990.39
1955.32
1892.73
1809.31
1709.01
1597.15
1478.47
1356.85
1235.03
1115.97
1001.21
892.122
789.711
695.171
609.928
531.64
465.961
413.388
373.438
344.68
325.05
312.281
304.308
299.493
296.662
295.035
294.115
293.604
293.324
293.172
293.091
293.047
293.025
293.013
293.006
293.003
293.002
293.001
293
293
293
293.007
293.028
293.06
293.111
293.19
293.315
293.51
293.813
294.28
294.969
295.975
297.435
299.532
302.502
306.638
312.291
319.849
329.714
342.265
357.807
376.524
398.472
423.572
451.637
482.412
514.714
549.154
586.14
624.286
664.383
706.208
748.88
793.21
838.438
884.813
932.119
980.144
1028.54
1077.41
1126.9
1176.45
1226.18
1275.97
1325.98
1375.48
1424.6
1474.24
1522.28
1569.65
1617.36
1663.41
1709.1
1754.82
1801.07
1848.15
1895.68
1941.5
1979.71
1998.14
1991.25
1957.14
1895.46
1812.84
1713.15
1601.73
1483.34
1361.86
1239.41
1120.29
1005.37
896.026
793.233
698.143
611.937
536.108
469.124
415.629
374.979
345.701
325.701
312.68
304.545
299.63
296.74
295.077
294.139
293.617
293.331
293.176
293.092
293.048
293.025
293.013
293.007
293.003
293.002
293.001
293
293
293
293.007
293.028
293.06
293.111
293.19
293.316
293.511
293.815
294.283
294.973
295.982
297.446
299.547
302.524
306.67
312.334
319.907
329.791
342.361
357.917
376.652
398.619
423.739
451.818
482.604
514.912
549.355
586.348
624.484
664.572
706.375
749.023
793.32
838.514
884.849
932.108
980.074
1028.42
1077.22
1126.65
1176.14
1225.81
1275.55
1325.54
1375.04
1424.24
1473.02
1521.13
1568.52
1616.26
1662.26
1707.89
1753.55
1799.71
1846.72
1894.2
1940.1
1978.68
1998.05
1992.11
1958.95
1899.45
1817.59
1718.52
1607.55
1489.45
1368.13
1244.93
1125.82
1010.75
901.209
798.099
702.685
615.418
539.516
472.103
417.991
376.719
346.903
326.483
313.166
304.835
299.797
296.834
295.13
294.167
293.632
293.339
293.18
293.095
293.05
293.026
293.013
293.007
293.003
293.002
293.001
293
293
293
293.007
293.028
293.06
293.111
293.191
293.316
293.512
293.817
294.286
294.979
295.991
297.459
299.567
302.552
306.709
312.389
319.978
329.88
342.472
358.053
376.817
398.815
423.951
452.051
482.851
515.169
549.616
586.618
624.747
664.832
706.613
749.236
793.501
838.657
884.943
932.145
980.04
1028.32
1077.05
1126.39
1175.8
1225.39
1275.05
1324.98
1374.39
1423.47
1472.07
1520.05
1567.34
1615.05
1660.98
1706.52
1752.08
1798.14
1845.03
1892.45
1938.43
1977.45
1998
1993.3
1961.53
1903.45
1822.78
1724.55
1614.26
1496.63
1375.62
1251.64
1132.39
1017.2
907.312
803.938
708.158
619.566
543.223
475.272
420.515
378.605
348.226
327.359
313.717
305.168
299.992
296.945
295.192
294.201
293.651
293.349
293.185
293.097
293.051
293.026
293.014
293.007
293.004
293.002
293.001
293
293
293
293.007
293.028
293.061
293.111
293.191
293.317
293.514
293.819
294.29
294.986
296.001
297.475
299.591
302.586
306.755
312.447
320.055
329.984
342.608
358.231
377.025
399.05
424.229
452.35
483.168
515.502
549.957
586.974
625.099
665.183
706.942
749.538
793.764
838.881
885.122
932.257
980.067
1028.27
1076.91
1126.15
1175.46
1224.95
1274.5
1324.31
1373.6
1422.55
1471.02
1518.9
1566.08
1613.71
1659.54
1704.99
1750.43
1796.35
1843.11
1890.43
1936.49
1976
1997.92
1994.67
1964.51
1908
1828.7
1731.29
1621.83
1504.72
1384.02
1259.33
1140.13
1024.74
914.682
810.869
714.563
624.449
547.583
478.909
423.389
380.748
349.731
328.358
314.348
305.55
300.216
297.073
295.263
294.24
293.672
293.36
293.191
293.1
293.052
293.027
293.014
293.007
293.004
293.002
293.001
293
293
293
293.007
293.029
293.061
293.112
293.192
293.318
293.516
293.822
294.295
294.993
296.013
297.492
299.614
302.618
306.801
312.515
320.152
330.115
342.784
358.443
377.28
399.344
424.553
452.707
483.561
515.922
550.394
587.436
625.561
665.651
707.387
749.959
794.148
839.218
885.402
932.464
980.177
1028.29
1076.84
1125.95
1175.15
1224.52
1273.94
1323.64
1372.8
1421.61
1469.95
1517.68
1564.72
1612.27
1657.95
1703.25
1748.54
1794.31
1840.92
1888.16
1934.29
1974.33
1997.8
1996.19
1967.89
1913.2
1835.51
1739.1
1630.64
1514.22
1393.81
1268.31
1149.03
1033.43
923.013
818.831
722.062
630.217
552.555
483.082
426.734
383.251
351.488
329.523
315.083
305.996
300.477
297.222
295.346
294.286
293.696
293.373
293.198
293.104
293.054
293.028
293.014
293.007
293.004
293.002
293.001
293
293
293
293.007
293.029
293.061
293.112
293.193
293.32
293.518
293.825
294.3
295.001
296.024
297.509
299.641
302.659
306.862
312.601
320.27
330.27
342.978
358.692
377.605
399.72
424.976
453.193
484.072
516.461
550.956
588.031
626.163
666.264
707.978
750.529
794.674
839.701
885.829
932.804
980.407
1028.42
1076.87
1125.83
1174.91
1224.15
1273.43
1322.99
1371.98
1420.64
1468.82
1516.4
1563.29
1610.71
1656.24
1701.38
1746.51
1792.1
1838.55
1885.69
1931.94
1972.65
1997.46
1997.77
1971.59
1918.96
1842.73
1748.33
1640.8
1524.99
1404.94
1278.71
1159.31
1043.4
932.493
827.683
730.154
636.851
558.401
487.977
430.624
386.185
353.573
330.919
315.968
306.532
300.792
297.401
295.446
294.34
293.726
293.389
293.206
293.108
293.056
293.029
293.015
293.008
293.004
293.002
293.001
293
293
293
293.007
293.029
293.061
293.113
293.194
293.321
293.519
293.828
294.305
295.01
296.039
297.532
299.675
302.71
306.935
312.704
320.411
330.459
343.223
359.013
377.974
400.192
425.516
453.749
484.685
517.126
551.664
588.791
626.94
667.057
708.726
751.264
795.38
840.375
886.458
933.355
980.817
1028.72
1077.05
1125.84
1174.77
1223.84
1272.96
1322.35
1371.17
1419.63
1467.64
1515.04
1561.75
1609.03
1654.37
1699.31
1744.24
1789.64
1835.89
1882.9
1929.23
1970.57
1997.15
1999.49
1975.73
1925.59
1850.94
1758.26
1651.95
1536.91
1417.24
1290.74
1171.14
1054.82
943.376
838.005
739.871
645.629
565.948
494.127
435.388
389.685
356.007
332.525
316.98
307.143
301.149
297.604
295.559
294.402
293.759
293.406
293.215
293.113
293.059
293.031
293.016
293.008
293.004
293.002
293.001
293
293
293
293.007
293.029
293.062
293.113
293.194
293.322
293.522
293.832
294.311
295.021
296.057
297.56
299.717
302.771
307.022
312.827
320.578
330.681
343.509
359.356
378.4
400.676
426.105
454.475
485.465
517.941
552.549
589.772
627.98
668.211
709.553
752.168
796.289
841.269
887.312
934.111
981.44
1029.28
1077.44
1126.01
1174.8
1223.7
1272.61
1321.78
1370.38
1418.63
1466.4
1513.62
1560.11
1607.19
1652.35
1697.1
1741.81
1786.97
1832.99
1879.82
1926.22
1968.2
1996.69
2001.18
1979.97
1932.43
1859.83
1769.2
1664.41
1550.45
1431.33
1305.27
1185.69
1068.87
956.395
849.77
749.952
658.054
575.931
501.92
441.238
393.872
358.854
334.366
318.119
307.822
301.541
297.825
295.681
294.469
293.794
293.425
293.225
293.118
293.062
293.032
293.016
293.008
293.004
293.002
293.001
293
293
293
293.007
293.029
293.062
293.114
293.195
293.324
293.525
293.837
294.32
295.035
296.08
297.596
299.774
302.856
307.147
313.005
320.824
331.011
343.935
359.883
379.046
401.426
426.925
455.346
486.443
519.067
553.744
591.049
629.347
669.645
710.879
753.484
797.541
842.482
888.473
935.153
982.342
1030.06
1078.04
1126.32
1175.2
1223.83
1272.47
1321.37
1369.72
1417.76
1465.26
1512.48
1558.69
1605.48
1650.36
1694.82
1739.26
1784.13
1829.88
1876.51
1922.94
1965.58
1996.05
2002.83
1984.44
1939.84
1869.86
1781.42
1678.46
1565.68
1447.52
1322.36
1202.33
1084.95
972.102
864.322
763.342
670.125
586.957
511.07
448.391
399.129
362.481
336.722
319.569
308.677
302.029
298.096
295.829
294.548
293.836
293.447
293.236
293.124
293.065
293.033
293.017
293.009
293.004
293.002
293.001
293
293
293
293.008
293.029
293.062
293.114
293.196
293.326
293.528
293.841
294.326
295.045
296.096
297.621
299.812
302.914
307.234
313.131
321.003
331.258
344.27
360.326
379.593
402.088
427.686
456.232
487.46
520.209
555.033
592.444
630.818
671.192
712.504
755.208
799.068
844.023
889.985
936.55
983.6
1031.16
1078.97
1127.06
1175.76
1224.15
1272.53
1321.11
1369.11
1417.16
1464.28
1511.41
1557.28
1603.74
1648.31
1692.48
1736.6
1781.16
1826.59
1872.98
1919.39
1962.61
1994.99
2004.23
1988.84
1947.39
1880.32
1794.35
1693.01
1581.17
1462.95
1341.89
1221.06
1103.11
989.335
880.828
778.834
684.662
599.071
521.194
456.392
405.076
366.627
339.439
321.253
309.674
302.597
298.411
296
294.639
293.884
293.472
293.249
293.131
293.068
293.035
293.018
293.009
293.005
293.002
293.001
293.001
293
293
293.008
293.029
293.062
293.115
293.197
293.327
293.529
293.845
294.331
295.054
296.11
297.642
299.843
302.962
307.307
313.24
321.162
331.487
344.591
360.77
380.196
402.9
428.752
457.492
488.841
521.679
556.554
594.065
632.568
673.056
714.444
757.224
801.085
846.035
891.881
938.349
985.267
1032.67
1080.29
1128.19
1176.65
1224.79
1272.89
1321.15
1368.84
1416.63
1463.42
1510.4
1555.91
1601.99
1646.23
1690.08
1733.9
1778.13
1823.22
1869.31
1915.61
1959.27
1993.3
2005.28
1993.09
1955
1891.16
1807.98
1709.1
1599.13
1482.39
1362.1
1241.24
1123.1
1008.31
898.645
795.121
699.55
612.826
532.663
465.461
411.832
371.354
342.547
323.184
310.817
303.248
298.771
296.194
294.741
293.938
293.499
293.263
293.138
293.071
293.037
293.019
293.01
293.005
293.002
293.001
293.001
293
293
293.008
293.029
293.062
293.115
293.197
293.327
293.53
293.846
294.335
295.061
296.122
297.663
299.877
303.015
307.39
313.367
321.352
331.76
344.969
361.272
380.832
403.671
429.642
458.56
490.14
523.242
558.436
596.075
634.668
675.264
716.748
759.629
803.549
848.548
894.334
940.628
987.373
1034.58
1082.01
1129.68
1177.88
1225.75
1273.57
1321.5
1368.88
1416.4
1462.88
1509.57
1554.77
1600.52
1644.42
1687.93
1731.38
1775.25
1819.95
1865.7
1911.83
1955.79
1991.24
2006.11
1997.34
1963.09
1902.99
1822.93
1726.19
1618.1
1502.9
1384.25
1261.65
1143.04
1027.78
918.071
813.603
715.832
624.553
546.227
475.974
419.569
376.711
346.029
325.319
312.062
303.946
299.151
296.396
294.847
293.992
293.527
293.277
293.145
293.075
293.039
293.02
293.01
293.005
293.003
293.001
293.001
293
293
293.008
293.029
293.062
293.115
293.197
293.327
293.53
293.847
294.336
295.064
296.129
297.678
299.908
303.073
307.487
313.518
321.58
332.093
345.435
361.894
381.624
404.626
430.822
459.926
491.648
524.924
560.287
598.054
636.865
677.653
719.3
762.31
806.314
851.334
896.988
943.166
989.758
1036.77
1084
1131.45
1179.41
1227.02
1274.56
1322.11
1369.19
1416.43
1462.59
1508.95
1553.83
1599.25
1642.84
1686.03
1729.14
1772.63
1816.98
1862.39
1908.3
1952.44
1988.99
2006.5
2000.65
1969.51
1913.62
1836.37
1741.72
1635.53
1521.63
1403.67