/*--------------------------------*- C++ -*----------------------------------*\
  =========                 |
  \\      /  F ield         | OpenFOAM: The Open Source CFD Toolbox
   \\    /   O peration     | Website:  https://openfoam.org
    \\  /    A nd           | Version:  10
     \\/     M anipulation  |
\*---------------------------------------------------------------------------*/
FoamFile
{
    format      ascii;
    class       volVectorField;
    location    "1";
    object      U;
}
// * * * * * * * * * * * * * * * * * * * * * * * * * * * * * * * * * * * * * //

dimensions      [0 1 -1 0 0 0 0];

internalField   nonuniform List<vector> 
4000
(
(0.0999509 -0.00685173 0)
(0.0996571 -0.0203599 0)
(0.0991799 -0.0337358 0)
(0.098521 -0.0470244 0)
(0.0976775 -0.0602495 0)
(0.0966369 -0.0734167 0)
(0.0953822 -0.0865187 0)
(0.0938971 -0.0995374 0)
(0.0921668 -0.112447 0)
(0.0901797 -0.125215 0)
(0.0879322 -0.137808 0)
(0.0854396 -0.150175 0)
(0.0827352 -0.162312 0)
(0.0798598 -0.174228 0)
(0.0768598 -0.185944 0)
(0.0737836 -0.197498 0)
(0.0706745 -0.20894 0)
(0.0675605 -0.220323 0)
(0.0644453 -0.231688 0)
(0.0613023 -0.243051 0)
(0.0580758 -0.254395 0)
(0.0546891 -0.265665 0)
(0.05106 -0.276783 0)
(0.0471245 -0.287654 0)
(0.0428218 -0.29818 0)
(0.0381073 -0.308277 0)
(0.0329896 -0.317862 0)
(0.0275018 -0.32682 0)
(0.0216645 -0.335105 0)
(0.0155044 -0.34268 0)
(0.00905055 -0.34951 0)
(0.0023332 -0.355573 0)
(-0.00460602 -0.360852 0)
(-0.0117342 -0.365342 0)
(-0.0190237 -0.369049 0)
(-0.0264404 -0.371987 0)
(-0.0339529 -0.374178 0)
(-0.0415334 -0.375645 0)
(-0.0491564 -0.376421 0)
(-0.0568002 -0.37654 0)
(-0.0644412 -0.376043 0)
(-0.0720522 -0.374974 0)
(-0.0796131 -0.373374 0)
(-0.0871069 -0.37129 0)
(-0.0945175 -0.368771 0)
(-0.101824 -0.365869 0)
(-0.109005 -0.362634 0)
(-0.116043 -0.359117 0)
(-0.122928 -0.355371 0)
(-0.129643 -0.351454 0)
(-0.136157 -0.347423 0)
(-0.142463 -0.343328 0)
(-0.148574 -0.339241 0)
(-0.154499 -0.335254 0)
(-0.160242 -0.331486 0)
(-0.165798 -0.328089 0)
(-0.171111 -0.325249 0)
(-0.17598 -0.323161 0)
(-0.179936 -0.321926 0)
(-0.182342 -0.321406 0)
(-0.182942 -0.321224 0)
(-0.181765 -0.321005 0)
(-0.178944 -0.320443 0)
(-0.174663 -0.319278 0)
(-0.169173 -0.317297 0)
(-0.16277 -0.314375 0)
(-0.155669 -0.310462 0)
(-0.147957 -0.305515 0)
(-0.139839 -0.299442 0)
(-0.131656 -0.292281 0)
(-0.123521 -0.284159 0)
(-0.115445 -0.275142 0)
(-0.107538 -0.265295 0)
(-0.0999394 -0.254705 0)
(-0.0927958 -0.243487 0)
(-0.0861809 -0.231751 0)
(-0.0803046 -0.219637 0)
(-0.0756628 -0.207536 0)
(-0.0726352 -0.195905 0)
(-0.0712864 -0.185055 0)
(-0.0714575 -0.17504 0)
(-0.0728414 -0.165688 0)
(-0.0750689 -0.156734 0)
(-0.0777824 -0.147944 0)
(-0.0806854 -0.139163 0)
(-0.0835628 -0.130312 0)
(-0.0862752 -0.121364 0)
(-0.0887373 -0.112309 0)
(-0.0908954 -0.103143 0)
(-0.0927469 -0.093954 0)
(-0.0943127 -0.0847739 0)
(-0.0956219 -0.0756269 0)
(-0.0967046 -0.066531 0)
(-0.0975896 -0.0574976 0)
(-0.0983035 -0.0485315 0)
(-0.0988696 -0.0396309 0)
(-0.0993079 -0.0307876 0)
(-0.0996336 -0.0219867 0)
(-0.0998565 -0.0132059 0)
(-0.0999841 -0.00441556 0)
(0.100008 -0.00634628 0)
(0.099823 -0.0190043 0)
(0.0994236 -0.0315922 0)
(0.0987864 -0.0440869 0)
(0.0979164 -0.0564677 0)
(0.0968133 -0.0687112 0)
(0.0954711 -0.0807904 0)
(0.0938842 -0.0926753 0)
(0.0920505 -0.104335 0)
(0.0899721 -0.115742 0)
(0.0876602 -0.126885 0)
(0.0851396 -0.137788 0)
(0.0824469 -0.148449 0)
(0.0796263 -0.158879 0)
(0.0767267 -0.169112 0)
(0.0737971 -0.179202 0)
(0.0708787 -0.189219 0)
(0.0679969 -0.199234 0)
(0.0651517 -0.209312 0)
(0.0623131 -0.21949 0)
(0.059422 -0.22977 0)
(0.0563977 -0.240115 0)
(0.0531469 -0.250451 0)
(0.0495822 -0.260682 0)
(0.0456279 -0.270706 0)
(0.0412334 -0.280431 0)
(0.0363995 -0.289784 0)
(0.031146 -0.298711 0)
(0.0254868 -0.307105 0)
(0.019444 -0.314889 0)
(0.0130536 -0.322006 0)
(0.00635553 -0.328418 0)
(-0.000606263 -0.334101 0)
(-0.00779594 -0.339047 0)
(-0.0151821 -0.343254 0)
(-0.0227282 -0.346736 0)
(-0.0303976 -0.349511 0)
(-0.0381585 -0.351603 0)
(-0.0459817 -0.353041 0)
(-0.0538432 -0.353857 0)
(-0.0617177 -0.354087 0)
(-0.069576 -0.353769 0)
(-0.0773969 -0.352945 0)
(-0.0851631 -0.351657 0)
(-0.0928579 -0.349952 0)
(-0.100459 -0.347877 0)
(-0.107947 -0.345479 0)
(-0.115305 -0.342808 0)
(-0.122523 -0.339915 0)
(-0.129587 -0.336854 0)
(-0.136464 -0.333679 0)
(-0.143152 -0.330448 0)
(-0.149678 -0.327226 0)
(-0.156061 -0.324083 0)
(-0.162322 -0.321097 0)
(-0.168473 -0.318348 0)
(-0.174473 -0.315909 0)
(-0.180094 -0.313827 0)
(-0.184769 -0.312085 0)
(-0.187783 -0.310566 0)
(-0.188795 -0.309077 0)
(-0.187842 -0.307421 0)
(-0.185087 -0.305403 0)
(-0.180742 -0.302837 0)
(-0.175102 -0.299577 0)
(-0.1685 -0.295507 0)
(-0.161173 -0.290539 0)
(-0.153195 -0.28461 0)
(-0.144771 -0.27767 0)
(-0.136264 -0.269722 0)
(-0.127796 -0.260797 0)
(-0.119352 -0.250944 0)
(-0.111004 -0.240254 0)
(-0.102861 -0.228868 0)
(-0.0950175 -0.216963 0)
(-0.0876469 -0.20489 0)
(-0.0811286 -0.193067 0)
(-0.0759776 -0.181807 0)
(-0.0725578 -0.17143 0)
(-0.0708984 -0.162093 0)
(-0.070795 -0.153719 0)
(-0.0719161 -0.146054 0)
(-0.0738954 -0.138791 0)
(-0.076394 -0.131672 0)
(-0.0791347 -0.124524 0)
(-0.0819149 -0.117259 0)
(-0.0845996 -0.109845 0)
(-0.087106 -0.102292 0)
(-0.0893897 -0.0946249 0)
(-0.0914205 -0.0867847 0)
(-0.0931966 -0.0787917 0)
(-0.0947263 -0.0706801 0)
(-0.0960239 -0.0624821 0)
(-0.0971067 -0.0542244 0)
(-0.0979935 -0.0459275 0)
(-0.098702 -0.0376062 0)
(-0.0992471 -0.0292694 0)
(-0.0996386 -0.0209214 0)
(-0.0998827 -0.0125623 0)
(-0.0999995 -0.00419067 0)
(0.0999795 -0.00610503 0)
(0.0997286 -0.0182516 0)
(0.0992353 -0.0303179 0)
(0.0984847 -0.042285 0)
(0.0974808 -0.0541319 0)
(0.0962258 -0.0658366 0)
(0.0947204 -0.0773757 0)
(0.0929692 -0.0887255 0)
(0.0909818 -0.0998625 0)
(0.088773 -0.110766 0)
(0.0863649 -0.121419 0)
(0.0837864 -0.131813 0)
(0.0810731 -0.141952 0)
(0.0782696 -0.151853 0)
(0.0754258 -0.161553 0)
(0.0725913 -0.171106 0)
(0.0698078 -0.180577 0)
(0.0671 -0.190036 0)
(0.0644667 -0.199547 0)
(0.0618763 -0.209147 0)
(0.0592673 -0.218844 0)
(0.056558 -0.228612 0)
(0.0536588 -0.23839 0)
(0.0504736 -0.248094 0)
(0.0469089 -0.257628 0)
(0.0429062 -0.266902 0)
(0.0384606 -0.275835 0)
(0.0335798 -0.284344 0)
(0.028261 -0.29236 0)
(0.0225211 -0.29983 0)
(0.0163937 -0.306704 0)
(0.00991699 -0.312949 0)
(0.00312815 -0.318541 0)
(-0.00393049 -0.323467 0)
(-0.0112282 -0.327721 0)
(-0.0187376 -0.331309 0)
(-0.0264178 -0.334244 0)
(-0.0342335 -0.336547 0)
(-0.0421535 -0.338239 0)
(-0.0501524 -0.339349 0)
(-0.0582035 -0.339908 0)
(-0.0662764 -0.33995 0)
(-0.0743497 -0.339513 0)
(-0.0824062 -0.338634 0)
(-0.0904284 -0.337357 0)
(-0.0983936 -0.335724 0)
(-0.106283 -0.333777 0)
(-0.114082 -0.331563 0)
(-0.121783 -0.329127 0)
(-0.129375 -0.326518 0)
(-0.136831 -0.323783 0)
(-0.14416 -0.320974 0)
(-0.151397 -0.318141 0)
(-0.158573 -0.315339 0)
(-0.165717 -0.312618 0)
(-0.172843 -0.310025 0)
(-0.179891 -0.307595 0)
(-0.186566 -0.305338 0)
(-0.192175 -0.303209 0)
(-0.195906 -0.301097 0)
(-0.197381 -0.298867 0)
(-0.196644 -0.296384 0)
(-0.193859 -0.293499 0)
(-0.189286 -0.290078 0)
(-0.183283 -0.286024 0)
(-0.176203 -0.281247 0)
(-0.168303 -0.275669 0)
(-0.159686 -0.269241 0)
(-0.150592 -0.261944 0)
(-0.141395 -0.253799 0)
(-0.132185 -0.244836 0)
(-0.122958 -0.235132 0)
(-0.113813 -0.224806 0)
(-0.104767 -0.213997 0)
(-0.0959924 -0.202873 0)
(-0.0878856 -0.191765 0)
(-0.0808025 -0.180938 0)
(-0.0752257 -0.170698 0)
(-0.0715306 -0.161314 0)
(-0.0696953 -0.152876 0)
(-0.0694625 -0.145275 0)
(-0.0704714 -0.138266 0)
(-0.0723494 -0.131575 0)
(-0.0747627 -0.124975 0)
(-0.0774422 -0.118316 0)
(-0.0801907 -0.111514 0)
(-0.0828773 -0.104539 0)
(-0.0854236 -0.0973854 0)
(-0.0877886 -0.0900703 0)
(-0.0899486 -0.0826163 0)
(-0.0918877 -0.075043 0)
(-0.0936011 -0.0673687 0)
(-0.0950911 -0.0596108 0)
(-0.0963649 -0.0517851 0)
(-0.0974319 -0.0439055 0)
(-0.0983028 -0.0359837 0)
(-0.0989874 -0.0280286 0)
(-0.099492 -0.0200468 0)
(-0.0998205 -0.012043 0)
(-0.0999882 -0.00401994 0)
(0.0999863 -0.00576311 0)
(0.0997344 -0.0172308 0)
(0.0992283 -0.0286134 0)
(0.0984514 -0.0398861 0)
(0.0974122 -0.0510241 0)
(0.0961176 -0.0620022 0)
(0.0945732 -0.0727955 0)
(0.0927877 -0.0833799 0)
(0.0907736 -0.0937335 0)
(0.0885472 -0.103838 0)
(0.0861311 -0.113683 0)
(0.0835566 -0.123265 0)
(0.0808639 -0.132594 0)
(0.0781005 -0.141694 0)
(0.0753176 -0.150604 0)
(0.072565 -0.159381 0)
(0.0698837 -0.168093 0)
(0.0672975 -0.176812 0)
(0.0648048 -0.185602 0)
(0.0623732 -0.194505 0)
(0.0599394 -0.203533 0)
(0.0574165 -0.212662 0)
(0.0547084 -0.221841 0)
(0.0517218 -0.230994 0)
(0.0483641 -0.24003 0)
(0.0445718 -0.248865 0)
(0.0403409 -0.257422 0)
(0.0356749 -0.265618 0)
(0.0305629 -0.273384 0)
(0.025021 -0.280666 0)
(0.0190781 -0.287414 0)
(0.0127643 -0.293597 0)
(0.00611406 -0.299189 0)
(-0.000838555 -0.304176 0)
(-0.0080629 -0.308552 0)
(-0.0155308 -0.312317 0)
(-0.0232086 -0.31548 0)
(-0.0310619 -0.318057 0)
(-0.0390599 -0.320066 0)
(-0.0471779 -0.32153 0)
(-0.0553896 -0.322478 0)
(-0.0636656 -0.322936 0)
(-0.0719864 -0.32294 0)
(-0.0803352 -0.322522 0)
(-0.0886928 -0.321719 0)
(-0.0970373 -0.320568 0)
(-0.105352 -0.319107 0)
(-0.113624 -0.317375 0)
(-0.121848 -0.315409 0)
(-0.130012 -0.313252 0)
(-0.138097 -0.310942 0)
(-0.146111 -0.30852 0)
(-0.154094 -0.306022 0)
(-0.162077 -0.303486 0)
(-0.170088 -0.300944 0)
(-0.178131 -0.298423 0)
(-0.186115 -0.295937 0)
(-0.193675 -0.293478 0)
(-0.200004 -0.290992 0)
(-0.204221 -0.288375 0)
(-0.205957 -0.285518 0)
(-0.205236 -0.282323 0)
(-0.202237 -0.278679 0)
(-0.197312 -0.274502 0)
(-0.190847 -0.269734 0)
(-0.183182 -0.264307 0)
(-0.174602 -0.258158 0)
(-0.165269 -0.251249 0)
(-0.15545 -0.243604 0)
(-0.145488 -0.235248 0)
(-0.135506 -0.226208 0)
(-0.125562 -0.216569 0)
(-0.115704 -0.206436 0)
(-0.106004 -0.195969 0)
(-0.096813 -0.18541 0)
(-0.0884009 -0.174979 0)
(-0.0810341 -0.164906 0)
(-0.0753489 -0.155524 0)
(-0.0716568 -0.147052 0)
(-0.0698412 -0.139523 0)
(-0.0695966 -0.132794 0)
(-0.0705532 -0.126612 0)
(-0.0723486 -0.120714 0)
(-0.074666 -0.114889 0)
(-0.0772527 -0.108997 0)
(-0.0799237 -0.10296 0)
(-0.0825536 -0.0967457 0)
(-0.0850635 -0.0903439 0)
(-0.087407 -0.0837604 0)
(-0.0895593 -0.077007 0)
(-0.0915085 -0.0701003 0)
(-0.0932498 -0.0630587 0)
(-0.094783 -0.0559006 0)
(-0.0961108 -0.0486435 0)
(-0.0972373 -0.0413032 0)
(-0.0981673 -0.0338941 0)
(-0.0989053 -0.0264287 0)
(-0.0994524 -0.0189179 0)
(-0.0998086 -0.011371 0)
(-0.0999894 -0.00379646 0)
(0.0999829 -0.00542642 0)
(0.0997154 -0.0162223 0)
(0.0991836 -0.0269356 0)
(0.0983727 -0.0375417 0)
(0.097293 -0.0480157 0)
(0.0959537 -0.0583335 0)
(0.0943634 -0.0684716 0)
(0.0925336 -0.0784078 0)
(0.0904799 -0.0881224 0)
(0.0882218 -0.0975995 0)
(0.085785 -0.106829 0)
(0.0832035 -0.115809 0)
(0.0805197 -0.124549 0)
(0.0777822 -0.13307 0)
(0.0750427 -0.14141 0)
(0.0723507 -0.149621 0)
(0.0697469 -0.157766 0)
(0.0672545 -0.165912 0)
(0.0648715 -0.174118 0)
(0.0625659 -0.182428 0)
(0.0602762 -0.190855 0)
(0.0579178 -0.199382 0)
(0.0553941 -0.207964 0)
(0.0526059 -0.216534 0)
(0.0494537 -0.225011 0)
(0.0458664 -0.233318 0)
(0.0418365 -0.241388 0)
(0.0373683 -0.249146 0)
(0.0324467 -0.256527 0)
(0.02708 -0.263478 0)
(0.0212932 -0.269955 0)
(0.0151139 -0.275925 0)
(0.00857296 -0.281364 0)
(0.00169886 -0.286258 0)
(-0.00547362 -0.290605 0)
(-0.0129169 -0.294391 0)
(-0.0206049 -0.297626 0)
(-0.028504 -0.300324 0)
(-0.0365841 -0.302498 0)
(-0.0448225 -0.304168 0)
(-0.0531942 -0.305357 0)
(-0.0616719 -0.306088 0)
(-0.0702374 -0.306389 0)
(-0.0788739 -0.30629 0)
(-0.0875621 -0.305822 0)
(-0.0962809 -0.305015 0)
(-0.105015 -0.303901 0)
(-0.113751 -0.302513 0)
(-0.122484 -0.30088 0)
(-0.131206 -0.299038 0)
(-0.139896 -0.297018 0)
(-0.148563 -0.294849 0)
(-0.157241 -0.292561 0)
(-0.16596 -0.290177 0)
(-0.174739 -0.287719 0)
(-0.183572 -0.285204 0)
(-0.192331 -0.282637 0)
(-0.200575 -0.280001 0)
(-0.207399 -0.277236 0)
(-0.211879 -0.274245 0)
(-0.21367 -0.270942 0)
(-0.212817 -0.267255 0)
(-0.209542 -0.263111 0)
(-0.204247 -0.258458 0)
(-0.197318 -0.253252 0)
(-0.189077 -0.247449 0)
(-0.179821 -0.241013 0)
(-0.169811 -0.233928 0)
(-0.159369 -0.226223 0)
(-0.148765 -0.217936 0)
(-0.138111 -0.209113 0)
(-0.127484 -0.199836 0)
(-0.117021 -0.190216 0)
(-0.106942 -0.180433 0)
(-0.0973763 -0.170697 0)
(-0.0885065 -0.161123 0)
(-0.0809472 -0.151999 0)
(-0.0753012 -0.143614 0)
(-0.0716664 -0.13609 0)
(-0.0698746 -0.129394 0)
(-0.0696152 -0.123362 0)
(-0.0705237 -0.117761 0)
(-0.0722481 -0.112365 0)
(-0.074485 -0.107001 0)
(-0.0769946 -0.101557 0)
(-0.0796022 -0.0959695 0)
(-0.0821885 -0.0902123 0)
(-0.0846769 -0.0842784 0)
(-0.0870197 -0.078173 0)
(-0.0891888 -0.0719072 0)
(-0.091168 -0.065495 0)
(-0.092949 -0.0589512 0)
(-0.0945284 -0.0522911 0)
(-0.0959052 -0.0455294 0)
(-0.0970808 -0.0386802 0)
(-0.0980571 -0.0317568 0)
(-0.0988357 -0.0247718 0)
(-0.0994156 -0.0177367 0)
(-0.0997949 -0.0106627 0)
(-0.0999881 -0.0035601 0)
(0.0999837 -0.00507331 0)
(0.0997135 -0.0151671 0)
(0.0991753 -0.0251816 0)
(0.0983541 -0.0350915 0)
(0.097262 -0.044872 0)
(0.0959099 -0.0544992 0)
(0.0943079 -0.0639501 0)
(0.0924693 -0.0732037 0)
(0.0904112 -0.0822418 0)
(0.0881543 -0.0910498 0)
(0.0857253 -0.0996192 0)
(0.0831591 -0.10795 0)
(0.0804984 -0.116051 0)
(0.077792 -0.123946 0)
(0.0750915 -0.131671 0)
(0.0724464 -0.139277 0)
(0.0698974 -0.146825 0)
(0.0674679 -0.154379 0)
(0.0651564 -0.161997 0)
(0.0629317 -0.169719 0)
(0.0607321 -0.177562 0)
(0.0584733 -0.18551 0)
(0.0560607 -0.193526 0)
(0.0533976 -0.201549 0)
(0.0503821 -0.209508 0)
(0.0469357 -0.217328 0)
(0.0430443 -0.224946 0)
(0.0387111 -0.232293 0)
(0.0339202 -0.239307 0)
(0.0286773 -0.245938 0)
(0.0230037 -0.252144 0)
(0.0169235 -0.257895 0)
(0.010457 -0.263166 0)
(0.00361855 -0.267943 0)
(-0.00352739 -0.272216 0)
(-0.0109549 -0.275983 0)
(-0.018667 -0.279246 0)
(-0.0266225 -0.282013 0)
(-0.0347909 -0.284296 0)
(-0.043151 -0.286112 0)
(-0.0516788 -0.287479 0)
(-0.0603485 -0.288416 0)
(-0.0691445 -0.288947 0)
(-0.0780512 -0.289097 0)
(-0.0870485 -0.288891 0)
(-0.096113 -0.288356 0)
(-0.105229 -0.287515 0)
(-0.114385 -0.286397 0)
(-0.123577 -0.285025 0)
(-0.132799 -0.283428 0)
(-0.142023 -0.281631 0)
(-0.151253 -0.279655 0)
(-0.160522 -0.277521 0)
(-0.169854 -0.275248 0)
(-0.179263 -0.272851 0)
(-0.188723 -0.27034 0)
(-0.198071 -0.267716 0)
(-0.206791 -0.264955 0)
(-0.213897 -0.261996 0)
(-0.218462 -0.258753 0)
(-0.220184 -0.255165 0)
(-0.219133 -0.251176 0)
(-0.215551 -0.246736 0)
(-0.209859 -0.241805 0)
(-0.202457 -0.236356 0)
(-0.19369 -0.230376 0)
(-0.183877 -0.223855 0)
(-0.173286 -0.216755 0)
(-0.162249 -0.209105 0)
(-0.151063 -0.200981 0)
(-0.139859 -0.192448 0)
(-0.128744 -0.183583 0)
(-0.117882 -0.174502 0)
(-0.107445 -0.165345 0)
(-0.0975483 -0.156273 0)
(-0.0885335 -0.147464 0)
(-0.0810466 -0.139173 0)
(-0.0755261 -0.131596 0)
(-0.0720104 -0.124822 0)
(-0.0703059 -0.118803 0)
(-0.070089 -0.113378 0)
(-0.0709948 -0.108332 0)
(-0.0726793 -0.103461 0)
(-0.0748514 -0.0986073 0)
(-0.0772837 -0.0936706 0)
(-0.079812 -0.0885944 0)
(-0.0823247 -0.0833527 0)
(-0.0847496 -0.0779383 0)
(-0.0870416 -0.0723546 0)
(-0.0891732 -0.0666108 0)
(-0.0911278 -0.0607194 0)
(-0.0928958 -0.0546938 0)
(-0.0944717 -0.0485483 0)
(-0.0958524 -0.042297 0)
(-0.0970368 -0.0359537 0)
(-0.0980245 -0.0295319 0)
(-0.098815 -0.0230446 0)
(-0.0994051 -0.0165043 0)
(-0.0997914 -0.00992319 0)
(-0.0999881 -0.00331328 0)
(0.0999831 -0.00471906 0)
(0.09971 -0.014108 0)
(0.0991667 -0.0234227 0)
(0.0983387 -0.0326387 0)
(0.0972387 -0.0417323 0)
(0.0958786 -0.050681 0)
(0.0942693 -0.0594632 0)
(0.0924252 -0.0680596 0)
(0.0903644 -0.0764531 0)
(0.0881085 -0.0846309 0)
(0.0856851 -0.0925853 0)
(0.0831299 -0.100317 0)
(0.0804862 -0.107834 0)
(0.0778032 -0.115159 0)
(0.0751331 -0.122327 0)
(0.0725258 -0.129383 0)
(0.0700223 -0.136384 0)
(0.0676466 -0.14339 0)
(0.0653975 -0.150456 0)
(0.0632445 -0.15762 0)
(0.0611266 -0.164898 0)
(0.058958 -0.172281 0)
(0.0566396 -0.179732 0)
(0.0540713 -0.187199 0)
(0.0511529 -0.194619 0)
(0.0478084 -0.201926 0)
(0.0440221 -0.209061 0)
(0.0397938 -0.215959 0)
(0.0351038 -0.222563 0)
(0.0299532 -0.228826 0)
(0.0243566 -0.234707 0)
(0.0183348 -0.240182 0)
(0.0119132 -0.245227 0)
(0.00511417 -0.249822 0)
(-0.00202712 -0.253954 0)
(-0.00948433 -0.257629 0)
(-0.0172373 -0.260844 0)
(-0.0252572 -0.263603 0)
(-0.0335185 -0.265917 0)
(-0.0420021 -0.267797 0)
(-0.0506814 -0.26926 0)
(-0.0595315 -0.270321 0)
(-0.0685418 -0.270999 0)
(-0.0776963 -0.271316 0)
(-0.0869706 -0.271292 0)
(-0.0963418 -0.270947 0)
(-0.105796 -0.270303 0)
(-0.11532 -0.269381 0)
(-0.124911 -0.268202 0)
(-0.134562 -0.266789 0)
(-0.144236 -0.265159 0)
(-0.153936 -0.263331 0)
(-0.163692 -0.26132 0)
(-0.173521 -0.259139 0)
(-0.183431 -0.256801 0)
(-0.193381 -0.254313 0)
(-0.203165 -0.251673 0)
(-0.212198 -0.248854 0)
(-0.219441 -0.245797 0)
(-0.223984 -0.242431 0)
(-0.225559 -0.238708 0)
(-0.224254 -0.234585 0)
(-0.220334 -0.230023 0)
(-0.214255 -0.224997 0)
(-0.206455 -0.219495 0)
(-0.197285 -0.213517 0)
(-0.186952 -0.207059 0)
(-0.175744 -0.200075 0)
(-0.164215 -0.192629 0)
(-0.152655 -0.184819 0)
(-0.141079 -0.176702 0)
(-0.129599 -0.168355 0)
(-0.118403 -0.159886 0)
(-0.107714 -0.151413 0)
(-0.0976893 -0.143085 0)
(-0.088648 -0.13508 0)
(-0.0812124 -0.127593 0)
(-0.0757934 -0.120783 0)
(-0.0723823 -0.114707 0)
(-0.070752 -0.1093 0)
(-0.0705669 -0.104402 0)
(-0.0714648 -0.0998174 0)
(-0.0731113 -0.0953657 0)
(-0.0752264 -0.0909143 0)
(-0.0775935 -0.0863783 0)
(-0.0800563 -0.0817107 0)
(-0.0825087 -0.0768899 0)
(-0.0848814 -0.07191 0)
(-0.0871304 -0.0667738 0)
(-0.0892281 -0.061489 0)
(-0.0911576 -0.0560661 0)
(-0.0929081 -0.0505167 0)
(-0.0944729 -0.0448532 0)
(-0.0958476 -0.0390882 0)
(-0.0970298 -0.0332342 0)
(-0.0980178 -0.0273038 0)
(-0.09881 -0.0213094 0)
(-0.0994022 -0.0152633 0)
(-0.0997903 -0.00917749 0)
(-0.099988 -0.00306426 0)
(0.0999833 -0.00436244 0)
(0.0997101 -0.0130422 0)
(0.0991666 -0.0216529 0)
(0.0983383 -0.0301716 0)
(0.0972385 -0.0385757 0)
(0.0958794 -0.046844 0)
(0.0942727 -0.0549564 0)
(0.0924333 -0.0628947 0)
(0.0903797 -0.0706434 0)
(0.0881339 -0.0781905 0)
(0.0857239 -0.0855294 0)
(0.0831853 -0.0926603 0)
(0.0805616 -0.0995925 0)
(0.077902 -0.106346 0)
(0.0752582 -0.112953 0)
(0.0726801 -0.119458 0)
(0.0702091 -0.125913 0)
(0.0678696 -0.132375 0)
(0.0656612 -0.138896 0)
(0.0635533 -0.145512 0)
(0.061486 -0.15224 0)
(0.0593752 -0.159072 0)
(0.0571238 -0.165977 0)
(0.0546305 -0.172905 0)
(0.0517888 -0.179797 0)
(0.0485187 -0.186594 0)
(0.0448055 -0.193243 0)
(0.0406486 -0.199686 0)
(0.0360266 -0.205869 0)
(0.0309394 -0.211751 0)
(0.0253926 -0.217291 0)
(0.0194027 -0.222464 0)
(0.0130024 -0.227248 0)
(0.00621452 -0.231625 0)
(-0.000935567 -0.235585 0)
(-0.00842268 -0.239124 0)
(-0.0162241 -0.242241 0)
(-0.0243132 -0.24494 0)
(-0.0326666 -0.247229 0)
(-0.0412656 -0.249117 0)
(-0.0500844 -0.250617 0)
(-0.0591013 -0.251743 0)
(-0.0683055 -0.25251 0)
(-0.077678 -0.252935 0)
(-0.0871934 -0.253034 0)
(-0.0968314 -0.252825 0)
(-0.106576 -0.252325 0)
(-0.116412 -0.251552 0)
(-0.126341 -0.250522 0)
(-0.136349 -0.249254 0)
(-0.146394 -0.247762 0)
(-0.156476 -0.246059 0)
(-0.166621 -0.244158 0)
(-0.176844 -0.24207 0)
(-0.187144 -0.239803 0)
(-0.197466 -0.237365 0)
(-0.207566 -0.234751 0)
(-0.216791 -0.231936 0)
(-0.224069 -0.228862 0)
(-0.22852 -0.225471 0)
(-0.229906 -0.221725 0)
(-0.228332 -0.217589 0)
(-0.224091 -0.213039 0)
(-0.217654 -0.20806 0)
(-0.20947 -0.202641 0)
(-0.199888 -0.19678 0)
(-0.189091 -0.190485 0)
(-0.177453 -0.183754 0)
(-0.16559 -0.176657 0)
(-0.153724 -0.16926 0)
(-0.141858 -0.161628 0)
(-0.130146 -0.153853 0)
(-0.118766 -0.146031 0)
(-0.107885 -0.138212 0)
(-0.0977221 -0.13055 0)
(-0.0886924 -0.123248 0)
(-0.0813761 -0.116472 0)
(-0.0761084 -0.110339 0)
(-0.0728324 -0.104877 0)
(-0.0712961 -0.100012 0)
(-0.071157 -0.0955902 0)
(-0.0720579 -0.0914333 0)
(-0.0736748 -0.0873834 0)
(-0.0757387 -0.0833246 0)
(-0.0780429 -0.0791837 0)
(-0.0804391 -0.0749198 0)
(-0.0828263 -0.0705141 0)
(-0.0851387 -0.0659613 0)
(-0.0873341 -0.0612637 0)
(-0.0893858 -0.0564278 0)
(-0.0912767 -0.051463 0)
(-0.0929957 -0.0463794 0)
(-0.0945355 -0.0411884 0)
(-0.0958909 -0.0359012 0)
(-0.0970585 -0.0305296 0)
(-0.0980358 -0.0250853 0)
(-0.0988203 -0.01958 0)
(-0.0994073 -0.0140254 0)
(-0.0997921 -0.00843342 0)
(-0.0999882 -0.00281577 0)
(0.0999832 -0.00400658 0)
(0.0997105 -0.0119785 0)
(0.099168 -0.0198872 0)
(0.0983414 -0.0277111 0)
(0.0972441 -0.0354294 0)
(0.0958887 -0.0430225 0)
(0.0942871 -0.0504719 0)
(0.0924544 -0.0577609 0)
(0.0904094 -0.0648753 0)
(0.0881743 -0.0718043 0)
(0.0857773 -0.0785419 0)
(0.0832541 -0.0850885 0)
(0.0806483 -0.0914528 0)
(0.0780088 -0.0976532 0)
(0.0753875 -0.103719 0)
(0.0728341 -0.109691 0)
(0.0703899 -0.115618 0)
(0.0680795 -0.121552 0)
(0.0659036 -0.127541 0)
(0.0638325 -0.133619 0)
(0.0618056 -0.139803 0)
(0.0597392 -0.146086 0)
(0.0575361 -0.152441 0)
(0.0550947 -0.158825 0)
(0.0523086 -0.165183 0)
(0.049094 -0.171462 0)
(0.0454326 -0.177614 0)
(0.0413235 -0.183584 0)
(0.0367434 -0.189326 0)
(0.0316918 -0.194801 0)
(0.0261762 -0.199972 0)
(0.0202076 -0.204811 0)
(0.0138152 -0.209299 0)
(0.00702307 -0.213418 0)
(-0.000146381 -0.21716 0)
(-0.00766885 -0.220518 0)
(-0.0155221 -0.223492 0)
(-0.0236813 -0.226085 0)
(-0.0321236 -0.228301 0)
(-0.0408293 -0.230149 0)
(-0.0497762 -0.231637 0)
(-0.0589441 -0.232779 0)
(-0.0683186 -0.233586 0)
(-0.0778803 -0.234072 0)
(-0.0876033 -0.234249 0)
(-0.0974679 -0.234134 0)
(-0.107457 -0.233739 0)
(-0.117554 -0.233078 0)
(-0.127761 -0.232167 0)
(-0.138059 -0.231019 0)
(-0.148402 -0.229645 0)
(-0.158788 -0.228056 0)
(-0.169241 -0.226264 0)
(-0.179771 -0.224276 0)
(-0.190372 -0.222102 0)
(-0.200974 -0.219744 0)
(-0.211298 -0.217201 0)
(-0.22063 -0.214449 0)
(-0.227875 -0.211432 0)
(-0.232187 -0.208101 0)
(-0.23336 -0.204424 0)
(-0.231522 -0.200373 0)
(-0.226985 -0.195939 0)
(-0.220221 -0.191111 0)
(-0.21169 -0.185879 0)
(-0.201764 -0.180251 0)
(-0.190629 -0.174247 0)
(-0.178673 -0.16789 0)
(-0.166535 -0.161229 0)
(-0.154448 -0.154324 0)
(-0.142426 -0.147242 0)
(-0.130595 -0.140063 0)
(-0.11898 -0.132862 0)
(-0.107831 -0.125671 0)
(-0.0976539 -0.118685 0)
(-0.0887875 -0.11209 0)
(-0.0816301 -0.106001 0)
(-0.0764927 -0.100502 0)
(-0.0733147 -0.0956002 0)
(-0.0718393 -0.0912189 0)
(-0.0717249 -0.0872179 0)
(-0.0726202 -0.0834398 0)
(-0.0742087 -0.0797475 0)
(-0.0762289 -0.0760413 0)
(-0.0784808 -0.0722585 0)
(-0.0808212 -0.0683641 0)
(-0.083153 -0.0643418 0)
(-0.0854129 -0.0601869 0)
(-0.0875602 -0.0559011 0)
(-0.0895687 -0.0514902 0)
(-0.0914217 -0.046962 0)
(-0.0931082 -0.0423255 0)
(-0.0946203 -0.0375905 0)
(-0.0959527 -0.0327672 0)
(-0.0971015 -0.0278661 0)
(-0.0980639 -0.0228978 0)
(-0.0988369 -0.0178732 0)
(-0.0994156 -0.012803 0)
(-0.099795 -0.00769832 0)
(-0.0999883 -0.00257025 0)
(0.0999833 -0.00365173 0)
(0.0997117 -0.0109178 0)
(0.0991713 -0.0181264 0)
(0.0983479 -0.0252578 0)
(0.097255 -0.0322929 0)
(0.0959052 -0.0392137 0)
(0.0943106 -0.0460034 0)
(0.0924865 -0.0526468 0)
(0.0904516 -0.0591309 0)
(0.0882282 -0.065446 0)
(0.0858443 -0.0715867 0)
(0.0833358 -0.0775534 0)
(0.080746 -0.0833541 0)
(0.0781236 -0.0890059 0)
(0.0755205 -0.0945357 0)
(0.0729864 -0.0999806 0)
(0.0705625 -0.105385 0)
(0.0682737 -0.110797 0)
(0.0661206 -0.116259 0)
(0.0640747 -0.121806 0)
(0.0620768 -0.127451 0)
(0.0600428 -0.133191 0)
(0.0578758 -0.139002 0)
(0.0554735 -0.144843 0)
(0.0527266 -0.150666 0)
(0.0495504 -0.156424 0)
(0.0459256 -0.162071 0)
(0.0418489 -0.16756 0)
(0.0372952 -0.172846 0)
(0.0322629 -0.177895 0)
(0.0267637 -0.182673 0)
(0.0208063 -0.187154 0)
(0.0144131 -0.191318 0)
(0.00760765 -0.195151 0)
(0.000411898 -0.198642 0)
(-0.00715008 -0.201788 0)
(-0.0150562 -0.204584 0)
(-0.0232833 -0.207034 0)
(-0.0318091 -0.20914 0)
(-0.0406133 -0.21091 0)
(-0.0496742 -0.21235 0)
(-0.0589724 -0.21347 0)
(-0.0684931 -0.21428 0)
(-0.078216 -0.21479 0)
(-0.0881151 -0.215012 0)
(-0.0981698 -0.214958 0)
(-0.108361 -0.21464 0)
(-0.118672 -0.214069 0)
(-0.129104 -0.213256 0)
(-0.139634 -0.212213 0)
(-0.150215 -0.210949 0)
(-0.160843 -0.209473 0)
(-0.171538 -0.207796 0)
(-0.182308 -0.205923 0)
(-0.19314 -0.203863 0)
(-0.203952 -0.201619 0)
(-0.214435 -0.199188 0)
(-0.223818 -0.196548 0)
(-0.230987 -0.19365 0)
(-0.235134 -0.19045 0)
(-0.236079 -0.186922 0)
(-0.233988 -0.183046 0)
(-0.229191 -0.178821 0)
(-0.222138 -0.174233 0)
(-0.213308 -0.169277 0)
(-0.203099 -0.163973 0)
(-0.191711 -0.158342 0)
(-0.179541 -0.152423 0)
(-0.167214 -0.14626 0)
(-0.154952 -0.139894 0)
(-0.142768 -0.133381 0)
(-0.130775 -0.126784 0)
(-0.119006 -0.120179 0)
(-0.107805 -0.113658 0)
(-0.0976996 -0.107377 0)
(-0.0889343 -0.101448 0)
(-0.0818813 -0.0959726 0)
(-0.0768436 -0.0910261 0)
(-0.0737491 -0.0866138 0)
(-0.0723319 -0.0826633 0)
(-0.0722479 -0.0790477 0)
(-0.0731476 -0.0756264 0)
(-0.074719 -0.072278 0)
(-0.0767062 -0.0689149 0)
(-0.078915 -0.0654819 0)
(-0.081207 -0.0619485 0)
(-0.083489 -0.0583005 0)
(-0.0857002 -0.0545334 0)
(-0.0878014 -0.0506489 0)
(-0.0897676 -0.0466518 0)
(-0.0915825 -0.042549 0)
(-0.0932352 -0.0383483 0)
(-0.0947179 -0.0340586 0)
(-0.0960251 -0.0296888 0)
(-0.0971527 -0.0252483 0)
(-0.0980978 -0.0207469 0)
(-0.0988572 -0.0161942 0)
(-0.0994258 -0.0116002 0)
(-0.0997986 -0.00697497 0)
(-0.0999885 -0.00232867 0)
(0.0999834 -0.00329845 0)
(0.099713 -0.00986181 0)
(0.0991749 -0.0163734 0)
(0.0983551 -0.0228154 0)
(0.0972669 -0.0291706 0)
(0.0959231 -0.0354227 0)
(0.0943357 -0.0415566 0)
(0.09252 -0.0475587 0)
(0.0904948 -0.0534171 0)
(0.0882823 -0.0591232 0)
(0.0859105 -0.0646722 0)
(0.0834151 -0.0700645 0)
(0.0808392 -0.0753073 0)
(0.0782313 -0.0804158 0)
(0.0756431 -0.0854145 0)
(0.0731243 -0.0903369 0)
(0.0707166 -0.0952234 0)
(0.0684453 -0.100117 0)
(0.066311 -0.105058 0)
(0.0642846 -0.110075 0)
(0.0623072 -0.115184 0)
(0.060296 -0.120382 0)
(0.0581536 -0.125646 0)
(0.0557776 -0.130942 0)
(0.0530585 -0.136227 0)
(0.0499096 -0.141456 0)
(0.0463097 -0.146591 0)
(0.0422541 -0.151587 0)
(0.0377171 -0.156404 0)
(0.0326963 -0.161011 0)
(0.0272035 -0.165377 0)
(0.0212458 -0.169478 0)
(0.0148439 -0.173297 0)
(0.00802013 -0.17682 0)
(0.000795232 -0.180037 0)
(-0.00680687 -0.182942 0)
(-0.014764 -0.185533 0)
(-0.0230535 -0.187811 0)
(-0.0316542 -0.189777 0)
(-0.0405455 -0.191438 0)
(-0.0497058 -0.192799 0)
(-0.0591158 -0.193867 0)
(-0.0687604 -0.194651 0)
(-0.078619 -0.195159 0)
(-0.088665 -0.195401 0)
(-0.0988769 -0.195386 0)
(-0.109235 -0.195124 0)
(-0.119721 -0.194626 0)
(-0.130334 -0.193899 0)
(-0.14105 -0.192954 0)
(-0.15182 -0.191799 0)
(-0.162638 -0.19044 0)
(-0.173522 -0.188887 0)
(-0.184477 -0.187144 0)
(-0.195486 -0.18522 0)
(-0.206456 -0.183117 0)
(-0.217047 -0.180832 0)
(-0.226443 -0.178347 0)
(-0.233515 -0.175617 0)
(-0.237492 -0.172605 0)
(-0.238231 -0.169291 0)
(-0.235919 -0.165659 0)
(-0.230878 -0.161706 0)
(-0.223556 -0.157423 0)
(-0.214472 -0.152817 0)
(-0.204039 -0.147903 0)
(-0.192467 -0.142706 0)
(-0.180153 -0.137273 0)
(-0.167679 -0.13164 0)
(-0.155262 -0.125836 0)
(-0.14294 -0.119909 0)
(-0.130836 -0.113918 0)
(-0.119016 -0.107943 0)
(-0.107834 -0.102091 0)
(-0.0977689 -0.0964703 0)
(-0.0890529 -0.0911609 0)
(-0.0820748 -0.086255 0)
(-0.0771238 -0.0818242 0)
(-0.0741094 -0.077872 0)
(-0.072753 -0.0743306 0)
(-0.0727048 -0.0710841 0)
(-0.0736156 -0.0680063 0)
(-0.0751773 -0.0649901 0)
(-0.0771395 -0.0619588 0)
(-0.0793131 -0.0588646 0)
(-0.0815646 -0.0556809 0)
(-0.0838039 -0.0523956 0)
(-0.0859726 -0.0490048 0)
(-0.0880329 -0.0455099 0)
(-0.0899608 -0.0419152 0)
(-0.0917405 -0.0382265 0)
(-0.0933614 -0.0344509 0)
(-0.0948158 -0.0305958 0)
(-0.0960984 -0.0266694 0)
(-0.097205 -0.0226799 0)
(-0.0981326 -0.0186358 0)
(-0.0988781 -0.014546 0)
(-0.0994363 -0.0104193 0)
(-0.0998023 -0.00626475 0)
(-0.0999888 -0.00209149 0)
(0.0999835 -0.00294675 0)
(0.0997143 -0.00881043 0)
(0.0991785 -0.014628 0)
(0.0983623 -0.0203836 0)
(0.0972789 -0.026062 0)
(0.0959409 -0.0316484 0)
(0.0943604 -0.0371295 0)
(0.0925526 -0.042493 0)
(0.0905362 -0.0477287 0)
(0.0883334 -0.0528286 0)
(0.085972 -0.0577887 0)
(0.0834878 -0.0626092 0)
(0.0809238 -0.0672968 0)
(0.0783284 -0.0718648 0)
(0.0757526 -0.0763352 0)
(0.073246 -0.0807376 0)
(0.0708504 -0.0851083 0)
(0.0685912 -0.0894861 0)
(0.06647 -0.0939071 0)
(0.0644583 -0.0983983 0)
(0.0624967 -0.102973 0)
(0.0605024 -0.107628 0)
(0.0583784 -0.112345 0)
(0.0560215 -0.117094 0)
(0.0533212 -0.121835 0)
(0.0501901 -0.126531 0)
(0.0466062 -0.131145 0)
(0.0425636 -0.135638 0)
(0.0380359 -0.139975 0)
(0.0330199 -0.144127 0)
(0.0275268 -0.148067 0)
(0.0215628 -0.151773 0)
(0.0151476 -0.155229 0)
(0.00830289 -0.158421 0)
(0.00104865 -0.161342 0)
(-0.00659143 -0.163986 0)
(-0.0145953 -0.166349 0)
(-0.0229409 -0.168431 0)
(-0.0316077 -0.170235 0)
(-0.0405748 -0.171764 0)
(-0.0498202 -0.173023 0)
(-0.0593248 -0.174018 0)
(-0.0690732 -0.174755 0)
(-0.0790446 -0.175241 0)
(-0.089212 -0.175485 0)
(-0.0995533 -0.175493 0)
(-0.110048 -0.175276 0)
(-0.120676 -0.17484 0)
(-0.131434 -0.174194 0)
(-0.142298 -0.173344 0)
(-0.153217 -0.172298 0)
(-0.164185 -0.171062 0)
(-0.175217 -0.169642 0)
(-0.186314 -0.168045 0)
(-0.197459 -0.166275 0)
(-0.208547 -0.164338 0)
(-0.219213 -0.16223 0)
(-0.228599 -0.159934 0)
(-0.235569 -0.157411 0)
(-0.239377 -0.154639 0)
(-0.239923 -0.151586 0)
(-0.237396 -0.148243 0)
(-0.232138 -0.144605 0)
(-0.224611 -0.14068 0)
(-0.215324 -0.136476 0)
(-0.204698 -0.131999 0)
(-0.19299 -0.127278 0)
(-0.180584 -0.122362 0)
(-0.167999 -0.117279 0)
(-0.155454 -0.112052 0)
(-0.143013 -0.106724 0)
(-0.130813 -0.101349 0)
(-0.118975 -0.0960032 0)
(-0.107848 -0.0907936 0)
(-0.0978276 -0.0858009 0)
(-0.0891432 -0.0810856 0)
(-0.0822251 -0.0767305 0)
(-0.0773545 -0.0727999 0)
(-0.0744172 -0.0692946 0)
(-0.0731188 -0.0661509 0)
(-0.0731048 -0.0632643 0)
(-0.0740279 -0.060523 0)
(-0.0755836 -0.0578333 0)
(-0.0775262 -0.0551289 0)
(-0.0796711 -0.0523685 0)
(-0.0818885 -0.0495293 0)
(-0.0840914 -0.0466008 0)
(-0.0862231 -0.0435798 0)
(-0.0882474 -0.0404675 0)
(-0.0901411 -0.0372676 0)
(-0.0918889 -0.0339851 0)
(-0.0934807 -0.0306262 0)
(-0.094909 -0.0271975 0)
(-0.0961685 -0.0237059 0)