/*--------------------------------*- C++ -*----------------------------------*\
  =========                 |
  \\      /  F ield         | OpenFOAM: The Open Source CFD Toolbox
   \\    /   O peration     | Website:  https://openfoam.org
    \\  /    A nd           | Version:  10
     \\/     M anipulation  |
\*---------------------------------------------------------------------------*/
FoamFile
{
    format      ascii;
    class       volScalarField;
    location    "1";
    object      AR;
}
// * * * * * * * * * * * * * * * * * * * * * * * * * * * * * * * * * * * * * //

dimensions      [0 0 0 0 0 0 0];

internalField   nonuniform List<scalar> 
4000
(
1.12731e-20
4.2974e-20
8.96445e-20
1.60056e-19
2.65748e-19
4.2322e-19
6.5577e-19
9.95351e-19
1.48408e-18
2.17486e-18
3.13163e-18
4.4316e-18
6.16805e-18
8.44935e-18
1.13919e-17
1.50917e-17
1.96753e-17
2.52238e-17
3.15152e-17
3.89985e-17
4.71774e-17
5.62439e-17
6.63542e-17
7.69143e-17
8.80584e-17
9.9679e-17
1.11722e-16
1.24142e-16
1.36614e-16
1.49285e-16
1.61936e-16
1.74445e-16
1.86767e-16
1.98793e-16
2.10456e-16
2.21707e-16
2.32446e-16
2.42623e-16
2.52183e-16
2.61078e-16
2.69384e-16
2.77021e-16
2.84022e-16
2.90624e-16
2.97363e-16
3.04831e-16
3.14079e-16
3.26845e-16
3.45779e-16
3.74446e-16
4.16969e-16
4.72521e-16
3.78267e-16
2.74963e-16
2.32065e-16
1.94642e-16
1.82598e-16
1.81847e-16
1.77005e-16
1.68242e-16
1.56522e-16
1.42985e-16
1.28407e-16
1.13403e-16
9.84555e-17
8.37728e-17
6.99895e-17
5.72395e-17
4.52533e-17
3.47521e-17
2.61612e-17
1.88469e-17
1.31398e-17
8.86293e-18
5.77726e-18
3.65456e-18
2.2481e-18
1.3496e-18
7.93257e-19
4.57711e-19
2.60048e-19
1.45653e-19
8.05799e-20
4.41164e-20
2.39012e-20
1.28452e-20
6.85443e-21
3.63339e-21
1.91534e-21
1.00526e-21
5.24108e-22
2.71947e-22
1.40419e-22
7.20796e-23
3.66931e-23
1.84246e-23
9.01788e-24
4.18497e-24
1.7052e-24
3.94519e-25
1.12271e-20
4.27975e-20
8.92769e-20
1.59414e-19
2.64714e-19
4.21609e-19
6.533e-19
9.91573e-19
1.47824e-18
2.16567e-18
3.11697e-18
4.4082e-18
6.13046e-18
8.39147e-18
1.13077e-17
1.49746e-17
1.95062e-17
2.49834e-17
3.12067e-17
3.86481e-17
4.67677e-17
5.57244e-17
6.5735e-17
7.62623e-17
8.73605e-17
9.89594e-17
1.10973e-16
1.23447e-16
1.35928e-16
1.48616e-16
1.61285e-16
1.73759e-16
1.86084e-16
1.98174e-16
2.09887e-16
2.21189e-16
2.31987e-16
2.42236e-16
2.51876e-16
2.60869e-16
2.69282e-16
2.77034e-16
2.84143e-16
2.90844e-16
2.97654e-16
3.05182e-16
3.14604e-16
3.28136e-16
3.49881e-16
3.87995e-16
4.58022e-16
5.36437e-16
5.10414e-16
3.74858e-16
3.18447e-16
2.68137e-16
2.146e-16
2.02189e-16
1.89229e-16
1.75225e-16
1.60075e-16
1.44507e-16
1.28693e-16
1.12975e-16
9.76342e-17
8.28846e-17
6.90546e-17
5.63161e-17
4.44031e-17
3.40279e-17
2.55922e-17
1.84609e-17
1.2888e-17
8.69732e-18
5.69234e-18
3.61457e-18
2.2328e-18
1.34603e-18
7.94428e-19
4.60197e-19
2.62497e-19
1.47594e-19
8.19923e-20
4.50405e-20
2.45263e-20
1.32325e-20
7.08133e-21
3.7589e-21
1.98099e-21
1.03672e-21
5.40751e-22
2.80322e-22
1.44518e-22
7.4043e-23
3.76144e-23
1.88476e-23
9.20684e-24
4.26555e-24
1.73592e-24
4.01317e-25
1.11923e-20
4.26679e-20
8.90168e-20
1.5897e-19
2.64013e-19
4.20551e-19
6.51674e-19
9.88959e-19
1.47386e-18
2.15813e-18
3.10365e-18
4.38419e-18
6.0911e-18
8.33036e-18
1.12165e-17
1.48452e-17
1.93376e-17
2.47479e-17
3.08911e-17
3.82424e-17
4.6275e-17
5.51837e-17
6.50302e-17
7.56802e-17
8.66881e-17
9.82197e-17
1.10177e-16
1.2261e-16
1.35046e-16
1.47707e-16
1.60342e-16
1.72816e-16
1.85177e-16
1.97281e-16
2.09063e-16
2.20441e-16
2.31332e-16
2.41689e-16
2.51457e-16
2.60578e-16
2.69133e-16
2.77e-16
2.84135e-16
2.90662e-16
2.9686e-16
3.02871e-16
3.08963e-16
3.15576e-16
3.23248e-16
3.3194e-16
3.41724e-16
3.39418e-16
3.01987e-16
2.67371e-16
2.49385e-16
2.22762e-16
2.01895e-16
2.03152e-16
1.93549e-16
1.7912e-16
1.62259e-16
1.45349e-16
1.28542e-16
1.12171e-16
9.64734e-17
8.16541e-17
6.77983e-17
5.51452e-17
4.33902e-17
3.32143e-17
2.49818e-17
1.80349e-17
1.26235e-17
8.54421e-18
5.60095e-18
3.56485e-18
2.20804e-18
1.33532e-18
7.90768e-19
4.59453e-19
2.63071e-19
1.48466e-19
8.27458e-20
4.5597e-20
2.48695e-20
1.34383e-20
7.20378e-21
3.83072e-21
2.02254e-21
1.06076e-21
5.52914e-22
2.8672e-22
1.47827e-22
7.57126e-23
3.84384e-23
1.92451e-23
9.39302e-24
4.34835e-24
1.7685e-24
4.08701e-25
1.11366e-20
4.24543e-20
8.85653e-20
1.58147e-19
2.62604e-19
4.18207e-19
6.4786e-19
9.8286e-19
1.46425e-18
2.14318e-18
3.08093e-18
4.35088e-18
6.04234e-18
8.25982e-18
1.11164e-17
1.47071e-17
1.9151e-17
2.45223e-17
3.06222e-17
3.78853e-17
4.58371e-17
5.46563e-17
6.44135e-17
7.50341e-17
8.6027e-17
9.75251e-17
1.09405e-16
1.21794e-16
1.34184e-16
1.46826e-16
1.59427e-16
1.71873e-16
1.84239e-16
1.96379e-16
2.08218e-16
2.19675e-16
2.30672e-16
2.41166e-16
2.51092e-16
2.60418e-16
2.69183e-16
2.77235e-16
2.84466e-16
2.90922e-16
2.96733e-16
3.01858e-16
3.0635e-16
3.10393e-16
3.1418e-16
3.17673e-16
3.20061e-16
3.49209e-16
3.03749e-16
2.9925e-16
2.88154e-16
2.74728e-16
2.26538e-16
2.14999e-16
1.99597e-16
1.8218e-16
1.63464e-16
1.45386e-16
1.27816e-16
1.11011e-16
9.5069e-17
8.01408e-17
6.63685e-17
5.38561e-17
4.23021e-17
3.23446e-17
2.43314e-17
1.75571e-17
1.22437e-17
8.26885e-18
5.41662e-18
3.45066e-18
2.14221e-18
1.30027e-18
7.73965e-19
4.5288e-19
2.60668e-19
1.47661e-19
8.25838e-20
4.56482e-20
2.4962e-20
1.35177e-20
7.25948e-21
3.86505e-21
2.04263e-21
1.07221e-21
5.59435e-22
2.90114e-22
1.4956e-22
7.65892e-23
3.88766e-23
1.94607e-23
9.49654e-24
4.3957e-24
1.78766e-24
4.13114e-25
1.10781e-20
4.22313e-20
8.80987e-20
1.57308e-19
2.61195e-19
4.15926e-19
6.4425e-19
9.77236e-19
1.4556e-18
2.13003e-18
3.06112e-18
4.32147e-18
5.99947e-18
8.19869e-18
1.10313e-17
1.45919e-17
1.89986e-17
2.43248e-17
3.037e-17
3.75756e-17
4.548e-17
5.42446e-17
6.39117e-17
7.44988e-17
8.54252e-17
9.68316e-17
1.08671e-16
1.21023e-16
1.33387e-16
1.45986e-16
1.58595e-16
1.71053e-16
1.83423e-16
1.95576e-16
2.07474e-16
2.19022e-16
2.30155e-16
2.40825e-16
2.51e-16
2.60622e-16
2.69718e-16
2.78102e-16
2.85629e-16
2.92198e-16
2.97748e-16
3.01925e-16
3.04344e-16
3.04584e-16
3.01828e-16
2.94818e-16
2.81138e-16
2.70653e-16
3.34204e-16
2.98777e-16
2.68136e-16
2.58028e-16
2.40771e-16
2.22549e-16
2.03465e-16
1.83972e-16
1.64003e-16
1.45119e-16
1.26989e-16
1.09814e-16
9.37024e-17
7.87543e-17
6.50682e-17
5.26816e-17
4.12861e-17
3.15242e-17
2.3713e-17
1.70727e-17
1.19146e-17
8.05483e-18
5.28388e-18
3.37217e-18
2.09753e-18
1.27565e-18
7.6061e-19
4.45525e-19
2.57092e-19
1.46217e-19
8.20328e-20
4.54579e-20
2.49045e-20
1.35116e-20
7.26895e-21
3.87542e-21
2.05036e-21
1.07718e-21
5.6242e-22
2.9177e-22
1.50439e-22
7.70408e-23
3.91028e-23
1.95716e-23
9.54935e-24
4.41966e-24
1.79728e-24
4.15321e-25
1.10163e-20
4.19948e-20
8.7602e-20
1.56413e-19
2.59688e-19
4.13488e-19
6.40407e-19
9.71294e-19
1.44656e-18
2.11646e-18
3.04103e-18
4.2922e-18
5.95774e-18
8.14068e-18
1.09527e-17
1.44891e-17
1.88677e-17
2.41635e-17
3.0178e-17
3.73334e-17
4.51976e-17
5.39188e-17
6.34953e-17
7.4034e-17
8.48868e-17
9.62675e-17
1.08062e-16
1.20378e-16
1.32689e-16
1.45281e-16
1.57894e-16
1.70351e-16
1.82731e-16
1.94909e-16
2.06869e-16
2.1852e-16
2.29808e-16
2.40715e-16
2.51209e-16
2.61247e-16
2.7088e-16
2.79942e-16
2.88203e-16
2.95556e-16
3.0185e-16
3.06522e-16
3.08815e-16
3.07541e-16
3.00536e-16
2.84033e-16
2.50869e-16
2.32003e-16
2.20243e-16
2.55232e-16
2.48567e-16
2.30449e-16
2.29332e-16
2.17593e-16
2.0109e-16
1.82595e-16
1.63061e-16
1.442e-16
1.26016e-16
1.08746e-16
9.25965e-17
7.76712e-17
6.4089e-17
5.15258e-17
4.03696e-17
3.08226e-17
2.31312e-17
1.6653e-17
1.16248e-17
7.86183e-18
5.15947e-18
3.29502e-18
2.05131e-18
1.24896e-18
7.45739e-19
4.37527e-19
2.52669e-19
1.43856e-19
8.08508e-20
4.49084e-20
2.46792e-20
1.34198e-20
7.23307e-21
3.86157e-21
2.04526e-21
1.07542e-21
5.61905e-22
2.91631e-22
1.50401e-22
7.70353e-23
3.91045e-23
1.95736e-23
9.55055e-24
4.42025e-24
1.79754e-24
4.15386e-25
1.09557e-20
4.17635e-20
8.71173e-20
1.55541e-19
2.58228e-19
4.11137e-19
6.36725e-19
9.65646e-19
1.43804e-18
2.10381e-18
3.02246e-18
4.26541e-18
5.91992e-18
8.08859e-18
1.08828e-17
1.43982e-17
1.87522e-17
2.40206e-17
3.00049e-17
3.71096e-17
4.49367e-17
5.36349e-17
6.31385e-17
7.36243e-17
8.44557e-17
9.58126e-17
1.07579e-16
1.19879e-16
1.3216e-16
1.4474e-16
1.57347e-16
1.6979e-16
1.8217e-16
1.94365e-16
2.06371e-16
2.1811e-16
2.29531e-16
2.40641e-16
2.51431e-16
2.61898e-16
2.72133e-16
2.81985e-16
2.91264e-16
2.99907e-16
3.07837e-16
3.1457e-16
3.19491e-16
3.22044e-16
3.21194e-16
3.1463e-16
2.97755e-16
2.75989e-16
2.44217e-16
2.74042e-16
2.76657e-16
2.56701e-16
2.37214e-16
2.19149e-16
2.00648e-16
1.81595e-16
1.62344e-16
1.43407e-16
1.25134e-16
1.07837e-16
9.16928e-17
7.68007e-17
6.32781e-17
5.07789e-17
3.97299e-17
3.0291e-17
2.27229e-17
1.63443e-17
1.14011e-17
7.7046e-18
5.05375e-18
3.22727e-18
2.00961e-18
1.2243e-18
7.3166e-19
4.29773e-19
2.48493e-19
1.41655e-19
7.97084e-20
4.43172e-20
2.43685e-20
1.32626e-20
7.15579e-21
3.82416e-21
2.02742e-21
1.06701e-21
5.58006e-22
2.89834e-22
1.49597e-22
7.66645e-23
3.89297e-23
1.94902e-23
9.51104e-24
4.40225e-24
1.79027e-24
4.13716e-25
1.08985e-20
4.1545e-20
8.66596e-20
1.54719e-19
2.56852e-19
4.08929e-19
6.33278e-19
9.60382e-19
1.43015e-18
2.09215e-18
3.0055e-18
4.24114e-18
5.88597e-18
8.04229e-18
1.08213e-17
1.4319e-17
1.86528e-17
2.38992e-17
2.98597e-17
3.6919e-17
4.47261e-17
5.33897e-17
6.28581e-17
7.33334e-17
8.4146e-17
9.54683e-17
1.07204e-16
1.19477e-16
1.3175e-16
1.44327e-16
1.56917e-16
1.69338e-16
1.81696e-16
1.93877e-16
2.05882e-16
2.17625e-16
2.29087e-16
2.40274e-16
2.51207e-16
2.61899e-16
2.72456e-16
2.82765e-16
2.92674e-16
3.02182e-16
3.11289e-16
3.19599e-16
3.26706e-16
3.32633e-16
3.37846e-16
3.44647e-16
3.60076e-16
3.17916e-16
3.13775e-16
2.90143e-16
2.87068e-16
2.74807e-16
2.46637e-16
2.23611e-16
2.02518e-16
1.82147e-16
1.62249e-16
1.42953e-16
1.24493e-16
1.07075e-16
9.08719e-17
7.60105e-17
6.25455e-17
5.00443e-17
3.91334e-17
2.98223e-17
2.23651e-17
1.6076e-17
1.11975e-17
7.55721e-18
4.95278e-18
3.16169e-18
1.96874e-18
1.19982e-18
7.17492e-19
4.21839e-19
2.44144e-19
1.39322e-19
7.84806e-20
4.36811e-20
2.40435e-20
1.30998e-20
7.06903e-21
3.78116e-21
2.00616e-21
1.0565e-21
5.52841e-22
2.87261e-22
1.48301e-22
7.60178e-23
3.86096e-23
1.93336e-23
9.43616e-24
4.36819e-24
1.7766e-24
4.10587e-25
1.08465e-20
4.13464e-20
8.62442e-20
1.53974e-19
2.55608e-19
4.06938e-19
6.30181e-19
9.55673e-19
1.42313e-18
2.08184e-18
2.99059e-18
4.21996e-18
5.85658e-18
8.00253e-18
1.0769e-17
1.42526e-17
1.85709e-17
2.38018e-17
2.97495e-17
3.67747e-17
4.45578e-17
5.32095e-17
6.26529e-17
7.31053e-17
8.38968e-17
9.52114e-17
1.06938e-16
1.19203e-16
1.31462e-16
1.44016e-16
1.56573e-16
1.68957e-16
1.81275e-16
1.93402e-16
2.05329e-16
2.16995e-16
2.28366e-16
2.39455e-16
2.50294e-16
2.60876e-16
2.7136e-16
2.81649e-16
2.916e-16
3.01215e-16
3.1042e-16
3.18629e-16
3.24893e-16
3.27955e-16
3.25644e-16
3.14724e-16
2.9025e-16
2.78458e-16
2.35374e-16
2.2473e-16
2.23681e-16
2.40638e-16
2.33701e-16
2.19301e-16
2.01272e-16
1.81726e-16
1.61886e-16
1.42459e-16
1.23863e-16
1.06344e-16
9.00716e-17
7.52089e-17
6.18094e-17
4.93848e-17
3.85552e-17
2.93223e-17
2.19597e-17
1.57732e-17
1.09807e-17
7.40859e-18
4.85455e-18
3.0993e-18
1.93036e-18
1.17695e-18
7.0424e-19
4.14362e-19
2.40009e-19
1.37079e-19
7.72827e-20
4.30504e-20
2.37153e-20
1.29321e-20
6.98319e-21
3.73749e-21
1.98405e-21
1.04534e-21
5.47251e-22
2.84443e-22
1.4688e-22
7.53031e-23
3.82517e-23
1.91563e-23
9.35029e-24
4.32865e-24
1.76058e-24
4.06888e-25
1.08005e-20
4.11707e-20
8.58769e-20
1.53315e-19
2.54511e-19
4.05185e-19
6.27462e-19
9.51555e-19
1.41701e-18
2.07292e-18
2.97778e-18
4.2019e-18
5.83167e-18
7.96906e-18
1.07251e-17
1.4197e-17
1.8502e-17
2.37191e-17
2.96514e-17
3.66458e-17
4.44201e-17
5.3057e-17
6.2494e-17
7.29523e-17
8.37403e-17
9.50451e-17
1.06762e-16
1.19022e-16
1.31263e-16
1.43789e-16
1.5632e-16
1.68659e-16
1.80909e-16
1.92938e-16
2.04748e-16
2.1626e-16
2.27432e-16
2.38277e-16
2.48801e-16
2.59034e-16
2.69121e-16
2.78985e-16
2.8851e-16
2.97735e-16
3.06654e-16
3.14595e-16
3.20412e-16
3.22549e-16
3.17738e-16
3.00137e-16
2.59802e-16
2.11132e-16
2.03582e-16
2.3467e-16
2.58226e-16
2.72601e-16
2.47756e-16
2.25075e-16
2.03224e-16
1.81971e-16
1.61398e-16
1.41725e-16
1.23117e-16
1.057e-16
8.91586e-17
7.44597e-17
6.11688e-17
4.88383e-17
3.80952e-17
2.8965e-17
2.16656e-17
1.55424e-17
1.08105e-17
7.28909e-18
4.77385e-18
3.04704e-18
1.89759e-18
1.15707e-18
6.9251e-19
4.07637e-19
2.36235e-19
1.35001e-19
7.61585e-20
4.24508e-20
2.33994e-20
1.27687e-20
6.8987e-21
3.69412e-21
1.96189e-21
1.03406e-21
5.41514e-22
2.81532e-22
1.45407e-22
7.45601e-23
3.78789e-23
1.89712e-23
9.26046e-24
4.2872e-24
1.74375e-24
4.03003e-25
1.07606e-20
4.10189e-20
8.55596e-20
1.52747e-19
2.53566e-19
4.03678e-19
6.25131e-19
9.48034e-19
1.41181e-18
2.06539e-18
2.96708e-18
4.18701e-18
5.81147e-18
7.9424e-18
1.06902e-17
1.41541e-17
1.84518e-17
2.36627e-17
2.95876e-17
3.65614e-17
4.433e-17
5.29623e-17
6.23977e-17
7.28547e-17
8.36452e-17
9.49509e-17
1.06666e-16
1.18921e-16
1.31148e-16
1.43651e-16
1.56148e-16
1.68433e-16
1.80603e-16
1.92537e-16
2.04214e-16
2.15551e-16
2.26502e-16
2.37066e-16
2.47232e-16
2.57059e-16
2.66697e-16
2.76106e-16
2.85236e-16
2.94255e-16
3.03242e-16
3.11898e-16
3.19727e-16
3.26026e-16
3.28831e-16
3.2413e-16
3.03454e-16
2.93441e-16
3.38134e-16
3.1748e-16
2.86493e-16
2.25732e-16
2.25763e-16
2.13146e-16
1.95887e-16
1.77108e-16
1.58081e-16
1.39402e-16
1.21429e-16
1.04436e-16
8.82117e-17
7.36928e-17
6.05505e-17
4.83197e-17
3.76706e-17
2.86556e-17
2.143e-17
1.53599e-17
1.06749e-17
7.1927e-18
4.70765e-18
3.00342e-18
1.86978e-18
1.13996e-18
6.82218e-19
4.01672e-19
2.32853e-19
1.33122e-19
7.51325e-20
4.1899e-20
2.31063e-20
1.26154e-20
6.81888e-21
3.65288e-21
1.94073e-21
1.02329e-21
5.35826e-22
2.7865e-22
1.4395e-22
7.3825e-23
3.751e-23
1.8788e-23
9.17149e-24
4.24612e-24
1.72706e-24
3.99149e-25
1.07269e-20
4.08903e-20
8.52912e-20
1.52268e-19
2.52769e-19
4.02411e-19
6.23176e-19
9.45095e-19
1.40749e-18
2.05918e-18
2.95833e-18
4.17497e-18
5.79535e-18
7.92147e-18
1.06631e-17
1.41219e-17
1.84144e-17
2.36196e-17
2.95397e-17
3.65019e-17
4.42683e-17
5.29052e-17
6.23466e-17
7.28122e-17
8.36081e-17
9.49188e-17
1.06637e-16
1.18892e-16
1.3111e-16
1.43592e-16
1.56057e-16
1.68294e-16
1.80397e-16
1.92235e-16
2.03789e-16
2.1497e-16
2.25726e-16
2.36038e-16
2.45939e-16
2.55475e-16
2.64824e-16
2.74e-16
2.83051e-16
2.92426e-16
3.02297e-16
3.13134e-16
3.25431e-16
3.40538e-16
3.6057e-16
3.89029e-16
4.31646e-16
3.97343e-16
4.18128e-16
3.79895e-16
3.26842e-16
2.76154e-16
2.43509e-16
2.17684e-16
1.95278e-16
1.74768e-16
1.55463e-16
1.37046e-16
1.19532e-16
1.02976e-16
8.71587e-17
7.2901e-17
5.99471e-17
4.78524e-17
3.73068e-17
2.84193e-17
2.12536e-17
1.5232e-17
1.05747e-17
7.11843e-18
4.65492e-18
2.96772e-18
1.84651e-18
1.12538e-18
6.73369e-19
3.96479e-19
2.29878e-19
1.31455e-19
7.42159e-20
4.14029e-20
2.28415e-20
1.24758e-20
6.74589e-21
3.61499e-21
1.92118e-21
1.01328e-21
5.30607e-22
2.7599e-22
1.42597e-22
7.31395e-23
3.71646e-23
1.86159e-23
9.08766e-24
4.20733e-24
1.71127e-24
3.95501e-25
1.06989e-20
4.07836e-20
8.50687e-20
1.51871e-19
2.52111e-19
4.01367e-19
6.21572e-19
9.42693e-19
1.40398e-18
2.05417e-18
2.95133e-18
4.16544e-18
5.78279e-18
7.90556e-18
1.06432e-17
1.40988e-17
1.83878e-17
2.35911e-17
2.95114e-17
3.64664e-17
4.42374e-17
5.28816e-17
6.23316e-17
7.28094e-17
8.36169e-17
9.4938e-17
1.06664e-16
1.18922e-16
1.31135e-16
1.43599e-16
1.56039e-16
1.68236e-16
1.80283e-16
1.92047e-16
2.03506e-16
2.14573e-16
2.25187e-16
2.35357e-16
2.45112e-16
2.54512e-16
2.63759e-16
2.72897e-16
2.82005e-16
2.91584e-16
3.01837e-16
3.13213e-16
3.26098e-16
3.41608e-16
3.61148e-16
3.8684e-16
4.21726e-16
3.99132e-16
4.35305e-16
3.58411e-16
3.2347e-16
2.90162e-16
2.52196e-16
2.21171e-16
1.95342e-16
1.73059e-16
1.53111e-16
1.3476e-16
1.17581e-16
1.01434e-16
8.60444e-17
7.20881e-17
5.93419e-17
4.74122e-17
3.69818e-17
2.82177e-17
2.10986e-17
1.51163e-17
1.04914e-17
7.05831e-18
4.61229e-18
2.9386e-18
1.82727e-18
1.11316e-18
6.65887e-19
3.92045e-19
2.27318e-19
1.30012e-19
7.34179e-20
4.0969e-20
2.26089e-20
1.23528e-20
6.68129e-21
3.58133e-21
1.90374e-21
1.00431e-21
5.2599e-22
2.73622e-22
1.41387e-22
7.25233e-23
3.68527e-23
1.84598e-23
9.01141e-24
4.17195e-24
1.69685e-24
3.92161e-25
1.06762e-20
4.06969e-20
8.4888e-20
1.51549e-19
2.51578e-19
4.00524e-19
6.20281e-19
9.40769e-19
1.40118e-18
2.05018e-18
2.94578e-18
4.1579e-18
5.77288e-18
7.89302e-18
1.06274e-17
1.408e-17
1.83676e-17
2.35716e-17
2.94951e-17
3.64474e-17
4.42263e-17
5.28805e-17
6.23426e-17
7.28359e-17
8.36576e-17
9.49931e-17
1.06729e-16
1.18994e-16
1.31205e-16
1.43659e-16
1.5608e-16
1.68248e-16
1.80255e-16
1.91971e-16
2.03372e-16
2.14372e-16
2.24922e-16
2.35038e-16
2.4476e-16
2.5417e-16
2.63497e-16
2.72821e-16
2.82266e-16
2.92389e-16
3.03407e-16
3.15767e-16
3.29821e-16
3.46822e-16
3.68919e-16
4.0126e-16
4.56755e-16
4.37813e-16
3.75162e-16
3.38098e-16
3.44859e-16
2.90582e-16
2.53426e-16
2.21175e-16
1.94029e-16
1.70924e-16
1.50715e-16
1.32481e-16
1.15622e-16
9.98765e-17
8.49086e-17
7.12654e-17
5.87647e-17
4.7017e-17
3.67125e-17
2.80625e-17
2.09904e-17
1.50388e-17
1.04341e-17
7.01546e-18
4.58078e-18
2.91639e-18
1.8122e-18
1.1034e-18
6.59809e-19
3.884e-19
2.25194e-19
1.28805e-19
7.27468e-20
4.06025e-20
2.24117e-20
1.2248e-20
6.6261e-21
3.55247e-21
1.88874e-21
9.96558e-22
5.21992e-22
2.71566e-22
1.40332e-22
7.1984e-23
3.65788e-23
1.83223e-23
8.94401e-24
4.1406e-24
1.68404e-24
3.89193e-25
1.06582e-20
4.06287e-20
8.4746e-20
1.51296e-19
2.51162e-19
3.9987e-19
6.19285e-19
9.39294e-19
1.39905e-18
2.04718e-18
2.94165e-18
4.15237e-18
5.76572e-18
7.88415e-18
1.06164e-17
1.40686e-17
1.8357e-17
2.35634e-17
2.9491e-17
3.64435e-17
4.42315e-17
5.28973e-17
6.23738e-17
7.28831e-17
8.37206e-17
9.50694e-17
1.06816e-16
1.19089e-16
1.31303e-16
1.43751e-16
1.56163e-16
1.68314e-16
1.80297e-16
1.91985e-16
2.03356e-16
2.14325e-16
2.24852e-16
2.34953e-16
2.44679e-16
2.54119e-16
2.63513e-16
2.72943e-16
2.82516e-16
2.92725e-16
3.03612e-16
3.152e-16
3.2692e-16
3.3789e-16
3.45364e-16
3.42732e-16
3.14135e-16
3.47712e-16
3.42632e-16
3.4435e-16
3.34649e-16
2.9719e-16
2.54291e-16
2.2058e-16
1.92814e-16
1.69318e-16
1.48888e-16
1.30635e-16
1.13961e-16
9.84959e-17
8.38598e-17
7.04936e-17
5.8224e-17
4.66511e-17
3.6475e-17
2.79318e-17
2.09068e-17
1.49821e-17
1.03933e-17
6.98493e-18
4.55799e-18
2.89999e-18
1.80083e-18
1.09589e-18
6.55067e-19
3.85521e-19
2.235e-19
1.27836e-19
7.22048e-20
4.0305e-20
2.22509e-20
1.21623e-20
6.58081e-21
3.5287e-21
1.87633e-21
9.90119e-22
5.18656e-22
2.69841e-22
1.39443e-22
7.15275e-23
3.63458e-23
1.82048e-23
8.88621e-24
4.11362e-24
1.67299e-24
3.8663e-25
1.06447e-20
4.05774e-20
8.46398e-20
1.51109e-19
2.50855e-19
3.9939e-19
6.18564e-19
9.38242e-19
1.39756e-18
2.04513e-18
2.93889e-18
4.14881e-18
5.76137e-18
7.87919e-18
1.06108e-17
1.40636e-17
1.83535e-17
2.35633e-17
2.94961e-17
3.64503e-17
4.42472e-17
5.2924e-17
6.24132e-17
7.29379e-17
8.37894e-17
9.51504e-17
1.06908e-16
1.19191e-16
1.3141e-16
1.4386e-16
1.5627e-16
1.68418e-16
1.80396e-16
1.92077e-16
2.0344e-16
2.14403e-16
2.24922e-16
2.35009e-16
2.44705e-16
2.54087e-16
2.6337e-16
2.72596e-16
2.81822e-16
2.91464e-16
3.01488e-16
3.11944e-16
3.22691e-16
3.34365e-16
3.48865e-16
3.72527e-16
4.23733e-16
3.34209e-16
3.40366e-16
3.02109e-16
2.82518e-16
2.55869e-16
2.349e-16
2.10595e-16
1.87022e-16
1.655e-16
1.46095e-16
1.28469e-16
1.12247e-16
9.71557e-17
8.28652e-17
6.97638e-17
5.77078e-17
4.63071e-17
3.62513e-17
2.78107e-17
2.08312e-17
1.49342e-17
1.0361e-17
6.96201e-18
4.54136e-18
2.88815e-18
1.7926e-18
1.09041e-18
6.51566e-19
3.83374e-19
2.22226e-19
1.27101e-19
7.1791e-20
4.00766e-20
2.21269e-20
1.20959e-20
6.54554e-21
3.5101e-21
1.86657e-21
9.85027e-22
5.16001e-22
2.6846e-22
1.38727e-22
7.1157e-23
3.61555e-23
1.81083e-23
8.83847e-24
4.09125e-24
1.6638e-24
3.84495e-25
1.06353e-20
4.05418e-20
8.45664e-20
1.5098e-19
2.50647e-19
3.99072e-19
6.18097e-19
9.37583e-19
1.39667e-18
2.04396e-18
2.93743e-18
4.14708e-18
5.75948e-18
7.87742e-18
1.06093e-17
1.40635e-17
1.83561e-17
2.35702e-17
2.95087e-17
3.64663e-17
4.4272e-17
5.2959e-17
6.24589e-17
7.29947e-17
8.38571e-17
9.52287e-17
1.06996e-16
1.19285e-16
1.31512e-16
1.43969e-16
1.56388e-16
1.68546e-16
1.8054e-16
1.92242e-16
2.03632e-16
2.14622e-16
2.25162e-16
2.3525e-16
2.44906e-16
2.54171e-16
2.63209e-16
2.71991e-16
2.80474e-16
2.88904e-16
2.97069e-16
3.04702e-16
3.11189e-16
3.16041e-16
3.18759e-16
3.19815e-16
3.22218e-16
3.371e-16
3.55025e-16
3.01275e-16
2.8031e-16
2.45319e-16
2.20935e-16
1.98825e-16
1.78552e-16
1.59789e-16
1.42326e-16
1.25955e-16
1.10507e-16
9.59018e-17
8.19704e-17
6.91119e-17
5.72417e-17
4.59883e-17
3.6039e-17
2.76901e-17
2.07559e-17
1.48885e-17
1.03326e-17
6.94356e-18
4.52901e-18
2.87982e-18
1.78696e-18
1.08669e-18
6.49188e-19
3.81907e-19
2.21348e-19
1.2659e-19
7.15014e-20
3.99157e-20
2.20389e-20
1.20486e-20
6.52021e-21
3.49665e-21
1.85946e-21
9.81284e-22
5.14032e-22
2.67426e-22
1.38185e-22
7.08741e-23
3.60088e-23
1.80333e-23
8.80109e-24
4.07363e-24
1.65654e-24
3.82802e-25
1.06297e-20
4.05206e-20
8.45233e-20
1.50906e-19
2.50532e-19
3.98904e-19
6.17864e-19
9.3728e-19
1.3963e-18
2.04355e-18
2.93702e-18
4.14679e-18
5.75955e-18
7.87825e-18
1.06111e-17
1.40675e-17
1.83634e-17
2.35819e-17
2.95261e-17
3.64871e-17
4.42996e-17
5.29937e-17
6.25003e-17
7.30428e-17
8.39105e-17
9.52866e-17
1.07058e-16
1.19353e-16
1.31587e-16
1.44056e-16
1.56495e-16
1.68683e-16
1.80719e-16
1.92479e-16
2.03942e-16
2.15018e-16
2.25648e-16
2.35817e-16
2.45523e-16
2.54771e-16
2.63676e-16
2.72145e-16
2.8006e-16
2.87549e-16
2.94244e-16
2.99607e-16
3.02538e-16
3.01292e-16
2.92572e-16
2.70509e-16
2.24545e-16
2.167e-16
2.08764e-16
2.43393e-16
2.4162e-16
1.95783e-16
1.92867e-16
1.83124e-16
1.69679e-16
1.54661e-16
1.3924e-16
1.23981e-16
1.09157e-16
9.49217e-17
8.12504e-17
6.8572e-17
5.68402e-17
4.57016e-17
3.58421e-17
2.75699e-17
2.06788e-17
1.48411e-17
1.0304e-17
6.92665e-18
4.51904e-18
2.8739e-18
1.78336e-18
1.08448e-18
6.47832e-19
3.81085e-19
2.20857e-19
1.26303e-19
7.1337e-20
3.98233e-20
2.19878e-20
1.20206e-20
6.50504e-21
3.48845e-21
1.85504e-21
9.78906e-22
5.12753e-22
2.6674e-22
1.37818e-22
7.06791e-23
3.59061e-23
1.798e-23
8.77422e-24
4.06085e-24
1.65123e-24
3.81563e-25
1.06274e-20
4.05123e-20
8.45072e-20
1.50881e-19
2.50497e-19
3.98863e-19
6.1783e-19
9.3728e-19
1.39639e-18
2.04381e-18
2.93761e-18
4.14792e-18
5.76157e-18
7.88163e-18
1.06163e-17
1.40756e-17
1.83751e-17
2.35982e-17
2.95471e-17
3.65113e-17
4.43284e-17
5.30265e-17
6.25359e-17
7.30801e-17
8.39476e-17
9.53229e-17
1.07094e-16
1.19392e-16
1.31633e-16
1.44118e-16
1.56585e-16
1.6882e-16
1.80924e-16
1.92778e-16
2.04364e-16
2.15594e-16
2.26407e-16
2.3678e-16
2.467e-16
2.56157e-16
2.65251e-16
2.73874e-16
2.81934e-16
2.89647e-16
2.96889e-16
3.03686e-16
3.10071e-16
3.16666e-16
3.24754e-16
3.37187e-16
3.60012e-16
3.00258e-16
2.3874e-16
2.5072e-16
2.44271e-16
2.4342e-16
2.16491e-16
1.93347e-16
1.73445e-16
1.55662e-16
1.39186e-16
1.23582e-16
1.08676e-16
9.44507e-17
8.08282e-17
6.82027e-17
5.65334e-17
4.54601e-17
3.56612e-17
2.74487e-17
2.05962e-17
1.47894e-17
1.02739e-17
6.91028e-18
4.51066e-18
2.86982e-18
1.78138e-18
1.08348e-18
6.47296e-19
3.80784e-19
2.20682e-19
1.26202e-19
7.12785e-20
3.979e-20
2.19689e-20
1.20101e-20
6.49915e-21
3.48514e-21
1.85318e-21
9.7786e-22
5.12161e-22
2.66405e-22
1.37629e-22
7.05738e-23
3.58481e-23
1.79488e-23
8.75804e-24
4.05298e-24
1.64792e-24
3.80783e-25
1.06283e-20
4.05158e-20
8.4516e-20
1.509e-19
2.50538e-19
3.98946e-19
6.17988e-19
9.37574e-19
1.39691e-18
2.04472e-18
2.93911e-18
4.15033e-18
5.7653e-18
7.88727e-18
1.06244e-17
1.4087e-17
1.83905e-17
2.36182e-17
2.95716e-17
3.6539e-17
4.43592e-17
5.30587e-17
6.25676e-17
7.31088e-17
8.39714e-17
9.5341e-17
1.07107e-16
1.19404e-16
1.31651e-16
1.44153e-16
1.56657e-16
1.68948e-16
1.81139e-16
1.93115e-16
2.04864e-16
2.16301e-16
2.27369e-16
2.38043e-16
2.48305e-16
2.58135e-16
2.67615e-16
2.76604e-16
2.8495e-16
2.92789e-16
2.99823e-16
3.05748e-16
3.09996e-16
3.12053e-16
3.11448e-16
3.09146e-16
2.69479e-16
3.08018e-16
3.23089e-16
2.92241e-16
2.66947e-16
2.40521e-16
2.15804e-16
1.94821e-16
1.75709e-16
1.57789e-16
1.40797e-16
1.24623e-16
1.09242e-16
9.46728e-17
8.08334e-17
6.80863e-17
5.63647e-17
4.52853e-17
3.55073e-17
2.73306e-17
2.05115e-17
1.47353e-17
1.02432e-17
6.8951e-18
4.50425e-18
2.86771e-18
1.78102e-18
1.08368e-18
6.4757e-19
3.80998e-19
2.2082e-19
1.26282e-19
7.13226e-20
3.98133e-20
2.19808e-20
1.2016e-20
6.50188e-21
3.48634e-21
1.85365e-21
9.78011e-22
5.12184e-22
2.66386e-22
1.37602e-22
7.05512e-23
3.58322e-23
1.79387e-23
8.75219e-24
4.04991e-24
1.64657e-24
3.80456e-25
1.06322e-20
4.05311e-20
8.45496e-20
1.50965e-19
2.50655e-19
3.9915e-19
6.18339e-19
9.38165e-19
1.39789e-18
2.04629e-18
2.94159e-18
4.15412e-18
5.77094e-18
7.8954e-18
1.06358e-17
1.41024e-17
1.84105e-17
2.36431e-17
2.9601e-17
3.6572e-17
4.43942e-17
5.30933e-17
6.2599e-17
7.31339e-17
8.39881e-17
9.53481e-17
1.07106e-16
1.19398e-16
1.3165e-16
1.44171e-16
1.56712e-16
1.69068e-16
1.81357e-16
1.93471e-16
2.05407e-16
2.17087e-16
2.28456e-16
2.39497e-16
2.50188e-16
2.60506e-16
2.70531e-16
2.80099e-16
2.89028e-16
2.97437e-16
3.04942e-16
3.11055e-16
3.14703e-16
3.14018e-16
3.04889e-16
2.78785e-16
2.44908e-16
2.45172e-16
3.05733e-16
3.02328e-16
2.80678e-16
2.67605e-16
2.39618e-16
2.12764e-16
1.88201e-16
1.66052e-16
1.46043e-16
1.2782e-16
1.11091e-16
9.56596e-17
8.12806e-17
6.82184e-17
5.63268e-17
4.51689e-17
3.53736e-17
2.72124e-17
2.04224e-17
1.46782e-17
1.02121e-17
6.88136e-18
4.50018e-18
2.86796e-18
1.78261e-18
1.08529e-18
6.48785e-19
3.81801e-19
2.2131e-19
1.26567e-19
7.1482e-20
3.99e-20
2.20269e-20
1.20399e-20
6.5141e-21
3.49244e-21
1.85664e-21
9.79449e-22
5.1286e-22
2.66697e-22
1.37742e-22
7.06125e-23
3.58584e-23
1.79496e-23
8.75651e-24
4.05155e-24
1.64713e-24
3.80573e-25
1.0639e-20
4.05575e-20
8.46063e-20
1.5107e-19
2.5084e-19
3.99463e-19
6.18857e-19
9.39006e-19
1.39923e-18
2.04839e-18
2.94481e-18
4.15893e-18
5.77794e-18
7.90531e-18
1.06495e-17
1.41205e-17
1.84337e-17
2.36713e-17
2.96337e-17
3.6609e-17
4.44328e-17
5.31309e-17
6.26326e-17
7.31601e-17
8.40046e-17
9.53537e-17
1.07102e-16
1.19389e-16
1.31643e-16
1.44181e-16
1.56758e-16
1.69176e-16
1.8156e-16
1.93811e-16
2.05933e-16
2.17857e-16
2.29535e-16
2.40954e-16
2.52097e-16
2.62939e-16
2.73559e-16
2.83779e-16
2.93422e-16
3.02675e-16
3.11302e-16
3.19199e-16
3.26078e-16
3.31732e-16
3.35218e-16
3.34069e-16
3.22308e-16
3.04947e-16
3.00486e-16
2.99367e-16
3.01732e-16
2.71062e-16
2.47031e-16
2.20547e-16
1.95004e-16
1.71469e-16
1.50078e-16
1.30644e-16
1.12939e-16
9.67719e-17
8.18604e-17
6.84554e-17
5.63604e-17
4.50969e-17
3.52674e-17
2.71089e-17
2.03444e-17
1.46301e-17
1.01881e-17
6.87312e-18
4.50019e-18
2.87102e-18
1.78607e-18
1.0881e-18
6.50752e-19
3.83061e-19
2.22072e-19
1.27008e-19
7.17297e-20
4.00356e-20
2.20996e-20
1.20782e-20
6.53393e-21
3.50256e-21
1.86173e-21
9.81974e-22
5.14099e-22
2.67298e-22
1.38032e-22
7.07506e-23
3.59237e-23
1.79801e-23
8.77054e-24
4.05773e-24
1.64955e-24
3.81122e-25
1.0649e-20
4.0596e-20
8.46883e-20
1.51222e-19
2.51101e-19
3.999e-19
6.19569e-19
9.40144e-19
1.40102e-18
2.05115e-18
2.94897e-18
4.16507e-18
5.78678e-18
7.91771e-18
1.06666e-17
1.4143e-17
1.8462e-17
2.37057e-17
2.9673e-17
3.66542e-17
4.448e-17
5.31774e-17
6.26751e-17
7.31951e-17
8.40293e-17
9.53671e-17
1.07104e-16
1.19384e-16
1.31639e-16
1.44189e-16
1.56796e-16
1.69267e-16
1.81735e-16
1.94108e-16
2.06399e-16
2.18545e-16
2.30505e-16
2.4227e-16
2.53824e-16
2.65134e-16
2.76267e-16
2.87019e-16
2.97157e-16
3.0686e-16
3.15941e-16
3.24585e-16
3.33335e-16
3.44134e-16
3.60896e-16
3.91711e-16
4.52866e-16
4.49427e-16
3.66695e-16
2.88662e-16
2.64461e-16
2.61539e-16
2.39357e-16
2.16908e-16
1.94495e-16
1.72658e-16
1.51851e-16
1.32349e-16
1.14273e-16
9.76707e-17
8.23685e-17
6.86865e-17
5.6416e-17
4.50577e-17
3.51956e-17
2.70323e-17
2.02888e-17
1.45991e-17
1.01768e-17
6.8738e-18
4.50614e-18
2.87803e-18
1.7921e-18
1.09252e-18
6.5371e-19
3.84912e-19
2.23178e-19
1.27646e-19
7.20871e-20
4.02312e-20
2.22046e-20
1.21336e-20
6.5627e-21
3.51731e-21
1.8692e-21
9.85719e-22
5.1596e-22
2.68216e-22
1.38482e-22
7.097e-23
3.603e-23
1.80311e-23
8.79456e-24
4.06853e-24
1.65387e-24
3.82109e-25
1.06622e-20
4.06468e-20
8.47963e-20
1.5142e-19
2.51441e-19
4.00461e-19
6.20474e-19
9.41574e-19
1.40324e-18
2.05453e-18
2.95403e-18
4.17247e-18
5.79732e-18
7.93228e-18
1.06865e-17
1.41687e-17
1.84945e-17
2.37451e-17
2.97186e-17
3.67079e-17
4.45369e-17
5.32345e-17
6.2729e-17
7.32418e-17
8.40665e-17
9.53929e-17
1.07119e-16
1.19388e-16
1.3164e-16
1.44195e-16
1.5682e-16
1.69327e-16
1.81855e-16
1.94316e-16
2.06733e-16
2.19046e-16
2.31219e-16
2.43249e-16
2.55117e-16
2.66784e-16
2.78306e-16
2.89436e-16
2.99861e-16
3.09656e-16
3.18403e-16
3.25858e-16
3.31745e-16
3.3616e-16
3.38999e-16
3.39512e-16
3.34103e-16
3.38293e-16
3.21513e-16
3.09818e-16
2.91807e-16
2.77966e-16
2.49817e-16
2.23848e-16
1.99334e-16
1.76135e-16
1.54349e-16
1.34084e-16
1.15423e-16
9.83778e-17
8.27422e-17
6.88567e-17
5.64685e-17
4.50515e-17
3.51717e-17
2.69996e-17
2.0271e-17
1.45968e-17
1.01849e-17
6.88675e-18
4.51976e-18
2.88961e-18
1.80082e-18
1.09854e-18
6.57596e-19
3.87301e-19
2.24591e-19
1.28456e-19
7.25403e-20
4.04792e-20
2.23378e-20
1.22039e-20
6.59933e-21
3.53615e-21
1.87879e-21
9.90554e-22
5.18382e-22
2.69422e-22
1.39079e-22
7.12648e-23
3.61747e-23
1.81015e-23
8.82809e-24
4.08379e-24
1.66e-24
3.83519e-25
1.06789e-20
4.0711e-20
8.49322e-20
1.51668e-19
2.51864e-19
4.01156e-19
6.21586e-19
9.43317e-19
1.40592e-18
2.05859e-18
2.96005e-18
4.18121e-18
5.80967e-18
7.94928e-18
1.07096e-17
1.41985e-17
1.8532e-17
2.37904e-17
2.97715e-17
3.67717e-17
4.46063e-17
5.33059e-17
6.2798e-17
7.33035e-17
8.41185e-17
9.54329e-17
1.07145e-16
1.194e-16
1.3164e-16
1.44189e-16
1.56815e-16
1.69333e-16
1.81886e-16
1.94389e-16
2.06867e-16
2.19265e-16
2.31549e-16
2.43719e-16
2.55759e-16
2.67634e-16
2.79405e-16
2.9083e-16
3.01634e-16
3.11932e-16
3.214e-16
3.29995e-16
3.37815e-16
3.45786e-16
3.55566e-16
3.70209e-16
3.94368e-16
4.5708e-16
3.88396e-16
3.47715e-16
3.27867e-16
3.20966e-16
2.72769e-16
2.35996e-16
2.05785e-16
1.79604e-16
1.56214e-16
1.35076e-16
1.15929e-16
9.86206e-17
8.28282e-17
6.88842e-17
5.64791e-17
4.50661e-17
3.51962e-17
2.70172e-17