/*--------------------------------*- C++ -*----------------------------------*\
  =========                 |
  \\      /  F ield         | OpenFOAM: The Open Source CFD Toolbox
   \\    /   O peration     | Website:  https://openfoam.org
    \\  /    A nd           | Version:  10
     \\/     M anipulation  |
\*---------------------------------------------------------------------------*/
FoamFile
{
    format      ascii;
    class       volScalarField;
    location    "1";
    object      H;
}
// * * * * * * * * * * * * * * * * * * * * * * * * * * * * * * * * * * * * * //

dimensions      [0 0 0 0 0 0 0];

internalField   nonuniform List<scalar> 
4000
(
6.88466e-14
2.6155e-13
5.42281e-13
9.60749e-13
1.58302e-12
2.50835e-12
3.8903e-12
5.97297e-12
9.15685e-12
1.41227e-11
2.20767e-11
3.52594e-11
5.79697e-11
9.86451e-11
1.73984e-10
3.16273e-10
5.90323e-10
1.11673e-09
2.06665e-09
3.83255e-09
6.75737e-09
1.14177e-08
1.84339e-08
2.77253e-08
3.95475e-08
5.40288e-08
7.16824e-08
9.35682e-08
1.20014e-07
1.53125e-07
1.94552e-07
2.46612e-07
3.1262e-07
3.95835e-07
5.00286e-07
6.29834e-07
7.87063e-07
9.74121e-07
1.19283e-06
1.448e-06
1.75506e-06
2.13311e-06
2.61351e-06
3.24934e-06
4.13725e-06
5.39272e-06
7.18969e-06
9.80882e-06
1.36964e-05
1.95097e-05
2.82254e-05
4.11836e-05
5.93874e-05
6.1147e-05
4.93078e-05
3.43155e-05
2.16384e-05
1.27089e-05
7.03304e-06
3.68588e-06
1.82521e-06
8.55946e-07
3.7672e-07
1.54065e-07
5.80254e-08
1.97476e-08
6.14348e-09
1.73402e-09
4.22489e-10
8.99509e-11
1.73884e-11
2.80444e-12
3.92539e-13
4.82892e-14
5.29101e-15
5.30505e-16
4.97095e-17
4.4438e-18
3.84882e-19
3.26255e-20
2.72945e-21
2.25996e-22
1.85994e-23
1.52266e-24
1.24364e-25
1.01297e-26
8.24147e-28
7.0838e-29
8.30102e-30
1.37024e-30
2.99007e-31
7.45488e-32
1.9393e-32
5.07418e-33
1.31495e-33
3.3335e-34
8.10141e-35
1.80871e-35
3.35067e-36
3.21403e-37
6.82458e-14
2.59241e-13
5.37412e-13
9.51965e-13
1.56809e-12
2.4831e-12
3.84832e-12
5.90272e-12
9.03725e-12
1.39147e-11
2.17074e-11
3.45928e-11
5.67073e-11
9.62413e-11
1.69392e-10
3.07396e-10
5.71999e-10
1.07958e-09
1.99876e-09
3.71921e-09
6.56932e-09
1.11038e-08
1.79771e-08
2.7174e-08
3.88975e-08
5.33072e-08
7.08602e-08
9.27267e-08
1.1907e-07
1.5208e-07
1.93394e-07
2.45216e-07
3.11016e-07
3.94234e-07
4.98766e-07
6.28525e-07
7.86235e-07
9.74113e-07
1.19408e-06
1.4509e-06
1.76004e-06
2.14084e-06
2.62474e-06
3.26598e-06
4.16182e-06
5.429e-06
7.24198e-06
9.88531e-06
1.38093e-05
1.96739e-05
2.8459e-05
4.14972e-05
5.96952e-05
6.07931e-05
4.8688e-05
3.37511e-05
2.11246e-05
1.23709e-05
6.82573e-06
3.5682e-06
1.75075e-06
8.16816e-07
3.57609e-07
1.45382e-07
5.4252e-08
1.84173e-08
5.68774e-09
1.59004e-09
3.82706e-10
8.04053e-11
1.53397e-11
2.45225e-12
3.40966e-13
4.15265e-14
4.54458e-15
4.55718e-16
4.28111e-17
3.8404e-18
3.33945e-19
2.84224e-20
2.38768e-21
1.98465e-22
1.63755e-23
1.34535e-24
1.09962e-25
8.96119e-27
7.30508e-28
6.80338e-29
8.21238e-30
1.39755e-30
3.11009e-31
7.80669e-32
2.03174e-32
5.30513e-33
1.37059e-33
3.46276e-34
8.38786e-35
1.86731e-35
3.45195e-36
3.30761e-37
6.75054e-14
2.56414e-13
5.31496e-13
9.41349e-13
1.55042e-12
2.45526e-12
3.80314e-12
5.82742e-12
8.90818e-12
1.3686e-11
2.12853e-11
3.37742e-11
5.52012e-11
9.3446e-11
1.64087e-10
2.97243e-10
5.53014e-10
1.04084e-09
1.92453e-09
3.5831e-09
6.343e-09
1.07737e-08
1.74444e-08
2.66744e-08
3.82538e-08
5.25455e-08
6.99665e-08
9.17052e-08
1.17875e-07
1.50707e-07
1.91799e-07
2.434e-07
3.0906e-07
3.92142e-07
4.96848e-07
6.27001e-07
7.85519e-07
9.74681e-07
1.19653e-06
1.45603e-06
1.76839e-06
2.15335e-06
2.64305e-06
3.29328e-06
4.20208e-06
5.48838e-06
7.32782e-06
1.00113e-05
1.39897e-05
1.99322e-05
2.88224e-05
4.19902e-05
6.00086e-05
6.01499e-05
4.7657e-05
3.28059e-05
2.04155e-05
1.18988e-05
6.53838e-06
3.40937e-06
1.65033e-06
7.6621e-07
3.33308e-07
1.34291e-07
4.96198e-08
1.67502e-08
5.11493e-09
1.41333e-09
3.35323e-10
6.95132e-11
1.31106e-11
2.0746e-12
2.87242e-13
3.5024e-14
3.83199e-15
3.8498e-16
3.62497e-17
3.26142e-18
2.84507e-19
2.42126e-20
2.03517e-21
1.69283e-22
1.39884e-23
1.15036e-24
9.42492e-26
7.69868e-27
6.29179e-28
6.08287e-29
7.71483e-30
1.38287e-30
3.16609e-31
8.03989e-32
2.10084e-32
5.49044e-33
1.41784e-33
3.57838e-34
8.65667e-35
1.9247e-35
3.5544e-36
3.40414e-37
6.66021e-14
2.52949e-13
5.24157e-13
9.27892e-13
1.5271e-12
2.41564e-12
3.73751e-12
5.71973e-12
8.73174e-12
1.33962e-11
2.08077e-11
3.29866e-11
5.38136e-11
9.08901e-11
1.5923e-10
2.87858e-10
5.34693e-10
1.00772e-09
1.86468e-09
3.46633e-09
6.14503e-09
1.04614e-08
1.69947e-08
2.6127e-08
3.76314e-08
5.18377e-08
6.91227e-08
9.07481e-08
1.16782e-07
1.49467e-07
1.90366e-07
2.41725e-07
3.07277e-07
3.90317e-07
4.95268e-07
6.25936e-07
7.85448e-07
9.7619e-07
1.20038e-06
1.46276e-06
1.77917e-06
2.16969e-06
2.66693e-06
3.32763e-06
4.25186e-06
5.56062e-06
7.42946e-06
1.01584e-05
1.42003e-05
2.02232e-05
2.92018e-05
4.25026e-05
6.02128e-05
5.93017e-05
4.64155e-05
3.1643e-05
1.95538e-05
1.13214e-05
6.18252e-06
3.2036e-06
1.53846e-06
7.08732e-07
3.05736e-07
1.22342e-07
4.48169e-08
1.4944e-08
4.51605e-09
1.23283e-09
2.88689e-10
5.90116e-11
1.10133e-11
1.72729e-12
2.35428e-13
2.83029e-14
3.06151e-15
3.0501e-16
2.85435e-17
2.5572e-18
2.22468e-19
1.90537e-20
1.61176e-21
1.34486e-22
1.11482e-23
9.19639e-25
7.55705e-26
6.19045e-27
5.07803e-28
5.12685e-29
6.9769e-30
1.33227e-30
3.15426e-31
8.10987e-32
2.12778e-32
5.56798e-33
1.43834e-33
3.63005e-34
8.78047e-35
1.95197e-35
3.60455e-36
3.45202e-37
6.57736e-14
2.49795e-13
5.17581e-13
9.16108e-13
1.50734e-12
2.38352e-12
3.68604e-12
5.63744e-12
8.59915e-12
1.3179e-11
2.04434e-11
3.23575e-11
5.26915e-11
8.88242e-11
1.55317e-10
2.80324e-10
5.19999e-10
9.79159e-10
1.81094e-09
3.36988e-09
5.98699e-09
1.02162e-08
1.66219e-08
2.56623e-08
3.70561e-08
5.11364e-08
6.83418e-08
8.9874e-08
1.15793e-07
1.48351e-07
1.89132e-07
2.40229e-07
3.05885e-07
3.88959e-07
4.94238e-07
6.25515e-07
7.86123e-07
9.7859e-07
1.20517e-06
1.47099e-06
1.79155e-06
2.18774e-06
2.69297e-06
3.36512e-06
4.30613e-06
5.63935e-06
7.53997e-06
1.03172e-05
1.44297e-05
2.05473e-05
2.96489e-05
4.29997e-05
6.02646e-05
5.83126e-05
4.51002e-05
3.04948e-05
1.87418e-05
1.07913e-05
5.86224e-06
3.02085e-06
1.44391e-06
6.61179e-07
2.82793e-07
1.11885e-07
4.0543e-08
1.33789e-08
4.00343e-09
1.08125e-09
2.4968e-10
5.02904e-11
9.29195e-12
1.43344e-12
1.93409e-13
2.30743e-14
2.48363e-15
2.4682e-16
2.30752e-17
2.06763e-18
1.80025e-19
1.53653e-20
1.29646e-21
1.08608e-22
9.03661e-24
7.47991e-25
6.15344e-26
5.04643e-27
4.14802e-28
4.37585e-29
6.35784e-30
1.28173e-30
3.11645e-31
8.09318e-32
2.13094e-32
5.58334e-33
1.44294e-33
3.64205e-34
8.80934e-35
1.95829e-35
3.61609e-36
3.46301e-37
6.50233e-14
2.46942e-13
5.11643e-13
9.05501e-13
1.48961e-12
2.35485e-12
3.64031e-12
5.5646e-12
8.48217e-12
1.29881e-11
2.01245e-11
3.18105e-11
5.17261e-11
8.70716e-11
1.52055e-10
2.74174e-10
5.08311e-10
9.57171e-10
1.7712e-09
3.29535e-09
5.86195e-09
1.00199e-08
1.63087e-08
2.52568e-08
3.65465e-08
5.05771e-08
6.77122e-08
8.91797e-08
1.15011e-07
1.47551e-07
1.8837e-07
2.39621e-07
3.05088e-07
3.88193e-07
4.93795e-07
6.25761e-07
7.87558e-07
9.81808e-07
1.21092e-06
1.47991e-06
1.80487e-06
2.20718e-06
2.72006e-06
3.40352e-06
4.36141e-06
5.71964e-06
7.65328e-06
1.04821e-05
1.4664e-05
2.08724e-05
3.00728e-05
4.34863e-05
6.01797e-05
5.72882e-05
4.38045e-05
2.93269e-05
1.79107e-05
1.02448e-05
5.53006e-06
2.83285e-06
1.35044e-06
6.14523e-07
2.61604e-07
1.02742e-07
3.69563e-08
1.20965e-08
3.60394e-09
9.39867e-10
2.14759e-10
4.29305e-11
7.81221e-12
1.1925e-12
1.59574e-13
1.89241e-14
2.02888e-15
2.01234e-16
1.87984e-17
1.6847e-18
1.46807e-19
1.25492e-20
1.05865e-21
8.85095e-23
7.35232e-24
6.07819e-25
5.01877e-26
4.12968e-27
3.40821e-28
3.77022e-29
5.82952e-30
1.23019e-30
3.05441e-31
7.99365e-32
2.11029e-32
5.53565e-33
1.43153e-33
3.6147e-34
8.74554e-35
1.94447e-35
3.59104e-36
3.43923e-37
6.43578e-14
2.44413e-13
5.06383e-13
8.9612e-13
1.47397e-12
2.32961e-12
3.60016e-12
5.50082e-12
8.38006e-12
1.28219e-11
1.98475e-11
3.13361e-11
5.089e-11
8.55545e-11
1.49229e-10
2.68827e-10
4.98073e-10
9.37652e-10
1.73523e-09
3.22695e-09
5.7484e-09
9.85131e-09
1.60423e-08
2.49024e-08
3.61418e-08
5.01302e-08
6.72226e-08
8.8659e-08
1.14447e-07
1.4697e-07
1.87795e-07
2.3906e-07
3.04607e-07
3.87851e-07
4.93825e-07
6.26498e-07
7.89457e-07
9.85366e-07
1.21677e-06
1.4889e-06
1.81826e-06
2.22625e-06
2.74675e-06
3.44128e-06
4.41524e-06
5.79629e-06
7.75777e-06
1.06285e-05
1.4918e-05
2.12178e-05
3.0551e-05
4.41195e-05
6.00774e-05
5.63007e-05
4.26188e-05
2.82181e-05
1.71653e-05
9.77316e-06
5.25057e-06
2.66938e-06
1.28203e-06
5.80141e-07
2.44717e-07
9.53832e-08
3.40735e-08
1.10761e-08
3.27662e-09
8.46225e-10
1.91684e-10
3.79027e-11
6.84292e-12
1.03568e-12
1.37637e-13
1.62285e-14
1.73259e-15
1.71416e-16
1.59889e-17
1.43202e-18
1.24782e-19
1.06719e-20
9.00735e-22
7.53524e-23
6.26342e-24
5.18101e-25
4.2691e-26
3.50641e-27
2.89325e-28
3.32225e-29
5.38634e-30
1.17499e-30
2.96223e-31
7.80274e-32
2.06782e-32
5.43626e-33
1.40776e-33
3.5578e-34
8.6127e-35
1.91559e-35
3.53836e-36
3.38905e-37
6.37712e-14
2.42183e-13
5.01748e-13
8.87855e-13
1.4602e-12
2.30743e-12
3.56494e-12
5.44504e-12
8.29104e-12
1.26775e-11
1.96076e-11
3.09267e-11
5.01708e-11
8.42535e-11
1.46812e-10
2.6427e-10
4.89384e-10
9.21184e-10
1.70509e-09
3.16895e-09
5.65609e-09
9.70494e-09
1.58318e-08
2.4645e-08
3.58412e-08
4.97821e-08
6.68387e-08
8.82465e-08
1.1403e-07
1.46565e-07
1.87404e-07
2.38703e-07
3.0434e-07
3.87823e-07
4.94226e-07
6.27651e-07
7.91738e-07
9.8926e-07
1.22279e-06
1.49772e-06
1.83054e-06
2.2434e-06
2.77067e-06
3.47558e-06
4.46556e-06
5.87108e-06
7.86781e-06
1.07907e-05
1.5141e-05
2.15327e-05
3.09704e-05
4.48922e-05
6.00184e-05
5.54587e-05
4.16409e-05
2.72676e-05
1.65309e-05
9.37268e-06
5.01144e-06
2.53586e-06
1.21376e-06
5.46321e-07
2.2946e-07
8.88686e-08
3.14966e-08
1.01754e-08
2.9932e-09
7.61268e-10
1.71104e-10
3.3588e-11
6.02827e-12
9.07396e-13
1.19788e-13
1.4041e-14
1.4923e-15
1.47206e-16
1.37032e-17
1.22588e-18
1.06758e-19
9.13028e-21
7.70651e-22
6.44826e-23
5.36145e-24
4.43643e-25
3.65691e-26
3.00664e-27
2.55827e-28
3.02295e-29
5.06949e-30
1.13016e-30
2.87634e-31
7.60326e-32
2.0173e-32
5.307e-33
1.37505e-33
3.47699e-34
8.42122e-35
1.87381e-35
3.46235e-36
3.31682e-37
6.32623e-14
2.4025e-13
4.9773e-13
8.80699e-13
1.4483e-12
2.28829e-12
3.53463e-12
5.39718e-12
8.21492e-12
1.25544e-11
1.9404e-11
3.05804e-11
4.95648e-11
8.31629e-11
1.448e-10
2.60511e-10
4.82312e-10
9.08018e-10
1.68178e-09
3.12348e-09
5.57935e-09
9.59133e-09
1.56658e-08
2.44269e-08
3.55826e-08
4.95083e-08
6.65556e-08
8.79643e-08
1.13755e-07
1.46298e-07
1.87172e-07
2.38544e-07
3.04328e-07
3.88061e-07
4.94915e-07
6.29065e-07
7.94245e-07
9.93304e-07
1.22889e-06
1.50673e-06
1.84356e-06
2.26187e-06
2.79656e-06
3.51274e-06
4.51987e-06
5.95049e-06
7.98514e-06
1.0967e-05
1.53929e-05
2.19126e-05
3.15238e-05
4.56028e-05
5.99538e-05
5.47262e-05
4.07513e-05
2.65472e-05
1.60067e-05
9.03202e-06
4.80976e-06
2.42421e-06
1.15585e-06
5.18545e-07
2.16804e-07
8.34801e-08
2.93584e-08
9.39687e-09
2.73957e-09
6.90204e-10
1.53667e-10
2.98097e-11
5.29154e-12
7.89409e-13
1.03485e-13
1.20679e-14
1.27798e-15
1.25809e-16
1.16978e-17
1.04604e-18
9.11074e-20
7.79565e-21
6.58402e-22
5.51301e-23
4.5874e-24
3.79897e-25
3.13395e-26
2.58116e-27
2.32105e-28
2.80387e-29
4.82007e-30
1.0911e-30
2.79536e-31
7.40799e-32
1.96769e-32
5.1797e-33
1.34262e-33
3.396e-34
8.22698e-35
1.83091e-35
3.38347e-36
3.24137e-37
6.28267e-14
2.38595e-13
4.94294e-13
8.74584e-13
1.43814e-12
2.27199e-12
3.50889e-12
5.35665e-12
8.15065e-12
1.24508e-11
1.92328e-11
3.02892e-11
4.90542e-11
8.22392e-11
1.4308e-10
2.57257e-10
4.76061e-10
8.96108e-10
1.65974e-09
3.08109e-09
5.51272e-09
9.4884e-09
1.55267e-08
2.42644e-08
3.53971e-08
4.93049e-08
6.63439e-08
8.77628e-08
1.13567e-07
1.46127e-07
1.87066e-07
2.38541e-07
3.04517e-07
3.88483e-07
4.95762e-07
6.30603e-07
7.96825e-07
9.97355e-07
1.23484e-06
1.51519e-06
1.85561e-06
2.27905e-06
2.82105e-06
3.54876e-06
4.57362e-06
6.03288e-06
8.11339e-06
1.11664e-05
1.5689e-05
2.23889e-05
3.22942e-05
4.65949e-05
6.00342e-05
5.41479e-05
4.00518e-05
2.59206e-05
1.55759e-05
8.76441e-06
4.65435e-06
2.33888e-06
1.11058e-06
4.95915e-07
2.06454e-07
7.9459e-08
2.72896e-08
8.70412e-09
2.526e-09
6.32663e-10
1.39835e-10
2.70039e-11
4.76152e-12
7.05365e-13
9.19215e-14
1.06727e-14
1.12667e-15
1.1071e-16
1.02819e-17
9.18958e-19
8.00259e-20
6.84906e-21
5.78644e-22
4.84719e-23
4.03523e-24
3.3433e-25
2.75935e-26
2.27562e-27
2.14459e-28
2.63485e-29
4.61433e-30
1.0563e-30
2.71901e-31
7.21933e-32
1.91932e-32
5.05513e-33
1.31084e-33
3.31659e-34
8.03637e-35
1.78876e-35
3.3059e-36
3.1672e-37
6.24587e-14
2.37197e-13
4.91394e-13
8.69431e-13
1.4296e-12
2.25831e-12
3.48735e-12
5.32288e-12
8.09737e-12
1.23655e-11
1.9093e-11
3.00539e-11
4.86461e-11
8.15097e-11
1.41724e-10
2.54744e-10
4.71392e-10
8.87468e-10
1.64386e-09
3.0497e-09
5.4621e-09
9.4108e-09
1.54198e-08
2.41291e-08
3.52477e-08
4.91498e-08
6.61909e-08
8.7619e-08
1.13441e-07
1.4603e-07
1.8703e-07
2.38592e-07
3.047e-07
3.88937e-07
4.96617e-07
6.32063e-07
7.99152e-07
1.0009e-06
1.24006e-06
1.52266e-06
1.86629e-06
2.29439e-06
2.8432e-06
3.58204e-06
4.62414e-06
6.11071e-06
8.23183e-06
1.13503e-05
1.59688e-05
2.28301e-05
3.29806e-05
4.76402e-05
6.01817e-05
5.36688e-05
3.94194e-05
2.54113e-05
1.52174e-05
8.53498e-06
4.51881e-06
2.26409e-06
1.07236e-06
4.77409e-07
1.97914e-07
7.57902e-08
2.59359e-08
8.21854e-09
2.37181e-09
5.89838e-10
1.29451e-10
2.49212e-11
4.37353e-12
6.44104e-13
8.35092e-14
9.66088e-15
1.01713e-15
9.97881e-17
9.25782e-18
8.27032e-19
7.19869e-20
6.16182e-21
5.20689e-22
4.36295e-23
3.63328e-24
3.0113e-25
2.48618e-26
2.05183e-27
1.97295e-28
2.47236e-29
4.41944e-30
1.02378e-30
2.64615e-31
7.03931e-32
1.87318e-32
4.93636e-33
1.28056e-33
3.24095e-34
7.85485e-35
1.74864e-35
3.23205e-36
3.09658e-37
6.21511e-14
2.36029e-13
4.88972e-13
8.6513e-13
1.42248e-12
2.24694e-12
3.46949e-12
5.29497e-12
8.05352e-12
1.22955e-11
1.8979e-11
2.98627e-11
4.83152e-11
8.09189e-11
1.4062e-10
2.52704e-10
4.67524e-10
8.80013e-10
1.63013e-09
3.02385e-09
5.41945e-09
9.34876e-09
1.53368e-08
2.40284e-08
3.51345e-08
4.90338e-08
6.60791e-08
8.75216e-08
1.13365e-07
1.45985e-07
1.87044e-07
2.38695e-07
3.04945e-07
3.89422e-07
4.97463e-07
6.33442e-07
8.01283e-07
1.0041e-06
1.24462e-06
1.52901e-06
1.8751e-06
2.30655e-06
2.85986e-06
3.61677e-06
4.6731e-06
6.1837e-06
8.34273e-06
1.15206e-05
1.62334e-05
2.32417e-05
3.36131e-05
4.85682e-05
6.03509e-05
5.33267e-05
3.89526e-05
2.50077e-05
1.49284e-05
8.35e-06
4.40912e-06
2.20328e-06
1.04077e-06
4.61767e-07
1.90743e-07
7.27267e-08
2.4838e-08
7.8373e-09
2.24955e-09
5.56616e-10
1.21431e-10
2.33825e-11
4.08745e-12
6.00392e-13
7.75225e-14
8.93936e-15
9.38821e-16
9.19568e-17
8.52132e-18
7.60712e-19
6.61836e-20
5.66429e-21
4.78618e-22
4.01051e-23
3.34002e-24
2.76851e-25
2.28598e-26
1.88717e-27
1.83195e-28
2.3369e-29
4.25232e-30
9.94977e-31
2.58105e-31
6.87674e-32
1.83125e-32
4.82798e-33
1.25283e-33
3.17156e-34
7.68807e-35
1.71173e-35
3.16406e-36
3.03157e-37
6.18961e-14
2.35061e-13
4.86964e-13
8.61569e-13
1.41659e-12
2.23754e-12
3.45476e-12
5.27201e-12
8.01755e-12
1.22384e-11
1.88863e-11
2.97083e-11
4.80509e-11
8.04537e-11
1.39767e-10
2.5113e-10
4.64496e-10
8.74328e-10
1.6199e-09
3.00388e-09
5.38739e-09
9.30108e-09
1.52704e-08
2.39465e-08
3.50424e-08
4.89411e-08
6.59945e-08
8.74534e-08
1.1332e-07
1.45968e-07
1.87077e-07
2.38797e-07
3.05178e-07
3.89908e-07
4.98294e-07
6.34763e-07
8.03323e-07
1.00708e-06
1.24885e-06
1.53496e-06
1.88352e-06
2.31861e-06
2.87759e-06
3.64397e-06
4.71437e-06
6.24755e-06
8.44271e-06
1.16798e-05
1.64875e-05
2.36472e-05
3.42577e-05
4.98871e-05
6.07001e-05
5.31122e-05
3.8581e-05
2.46693e-05
1.46833e-05
8.19421e-06
4.31735e-06
2.15284e-06
1.01442e-06
4.49023e-07
1.84925e-07
7.02465e-08
2.39551e-08
7.53393e-09
2.15324e-09
5.30501e-10
1.15118e-10
2.21793e-11
3.85826e-12
5.64097e-13
7.25912e-14
8.34798e-15
8.7493e-16
8.55912e-17
7.92432e-18
7.07064e-19
6.1501e-20
5.2634e-21
4.4476e-22
3.72718e-23
3.10449e-24
2.5737e-25
2.12549e-26
1.75529e-27
1.71843e-28
2.22619e-29
4.11175e-30
9.69952e-31
2.52416e-31
6.73335e-32
1.79406e-32
4.73152e-33
1.2281e-33
3.10952e-34
7.53872e-35
1.67863e-35
3.10306e-36
2.97318e-37
6.16866e-14
2.34266e-13
4.85315e-13
8.58641e-13
1.41174e-12
2.22981e-12
3.44263e-12
5.25305e-12
7.98776e-12
1.21909e-11
1.88086e-11
2.95779e-11
4.78251e-11
8.00512e-11
1.39017e-10
2.497e-10
4.61849e-10
8.69485e-10
1.61149e-09
2.98773e-09
5.36238e-09
9.2634e-09
1.52196e-08
2.38856e-08
3.49781e-08
4.88785e-08
6.59405e-08
8.74142e-08
1.13299e-07
1.45958e-07
1.87058e-07
2.38655e-07
3.05395e-07
3.90363e-07
4.99062e-07
6.3597e-07
8.05141e-07
1.00972e-06
1.25262e-06
1.54029e-06
1.89113e-06
2.32974e-06
2.89419e-06
3.66932e-06
4.75354e-06
6.30903e-06
8.53985e-06
1.18352e-05
1.6738e-05
2.40559e-05
3.49279e-05
5.08209e-05
6.09163e-05
5.2893e-05
3.82569e-05
2.43973e-05
1.44909e-05
8.0715e-06
4.24562e-06
2.11316e-06
9.93891e-07
4.38972e-07
1.80305e-07
6.8275e-08
2.32533e-08
7.29096e-09
2.07789e-09
5.10145e-10
1.10247e-10
2.12492e-11
3.68467e-12
5.37014e-13
6.89113e-14
7.90617e-15
8.27134e-16
8.08214e-17
7.47623e-18
6.66728e-19
5.79745e-20
4.96098e-21
4.19176e-22
3.51275e-23
2.92596e-24
2.4258e-25
2.00348e-26
1.65486e-27
1.63121e-28
2.13925e-29
3.99711e-30
9.48775e-31
2.47505e-31
6.60856e-32
1.76159e-32
4.64714e-33
1.20644e-33
3.05514e-34
7.40774e-35
1.6496e-35
3.04952e-36
2.92193e-37
6.15173e-14
2.33623e-13
4.83983e-13
8.56277e-13
1.40783e-12
2.22357e-12
3.43284e-12
5.23777e-12
7.96376e-12
1.21526e-11
1.87461e-11
2.94729e-11
4.76435e-11
7.97275e-11
1.38413e-10
2.48623e-10
4.59882e-10
8.65848e-10
1.60493e-09
2.97491e-09
5.34147e-09
9.23292e-09
1.51788e-08
2.38386e-08
3.49292e-08
4.88349e-08
6.59071e-08
8.73997e-08
1.13314e-07
1.46028e-07
1.87251e-07
2.39134e-07
3.05752e-07
3.90844e-07
4.99773e-07
6.37031e-07
8.06704e-07
1.01198e-06
1.25584e-06
1.54484e-06
1.89765e-06
2.33905e-06
2.90772e-06
3.68967e-06
4.7849e-06
6.35838e-06
8.61812e-06
1.19612e-05
1.69424e-05
2.4388e-05
3.54665e-05
5.15292e-05
6.10738e-05
5.27213e-05
3.8001e-05
2.41771e-05
1.43322e-05
7.97037e-06
4.1859e-06
2.08061e-06
9.77033e-07
4.30662e-07
1.76515e-07
6.66721e-08
2.26862e-08
7.0963e-09
2.01728e-09
4.93815e-10
1.06373e-10
2.05067e-11
3.54769e-12
5.15711e-13
6.60222e-14
7.56005e-15
7.89753e-16
7.70952e-17
7.12644e-18
6.35256e-19
5.52235e-20
4.72507e-21
3.99219e-22
3.34548e-23
2.78669e-24
2.31043e-25
1.90829e-26
1.5765e-27
1.56277e-28
2.07e-29
3.90344e-30
9.31052e-31
2.43341e-31
6.50215e-32
1.73383e-32
4.57492e-33
1.18788e-33
3.00853e-34
7.29541e-35
1.62469e-35
3.00357e-36
2.87794e-37
6.13841e-14
2.33117e-13
4.82934e-13
8.54416e-13
1.40476e-12
2.21867e-12
3.42516e-12
5.2258e-12
7.94499e-12
1.21227e-11
1.86975e-11
2.93917e-11
4.75044e-11
7.94829e-11
1.3796e-10
2.47793e-10
4.5831e-10
8.62913e-10
1.59965e-09
2.96489e-09
5.32632e-09
9.21081e-09
1.51499e-08
2.38048e-08
3.48949e-08
4.88054e-08
6.58866e-08
8.73946e-08
1.13332e-07
1.46078e-07
1.87354e-07
2.39309e-07
3.06055e-07
3.91273e-07
5.00414e-07
6.37992e-07
8.0811e-07
1.01399e-06
1.25865e-06
1.54876e-06
1.90315e-06
2.34689e-06
2.91911e-06
3.70665e-06
4.81071e-06
6.39822e-06
8.67961e-06
1.20564e-05
1.70899e-05
2.46127e-05
3.57965e-05
5.1963e-05
6.11667e-05
5.25857e-05
3.78017e-05
2.40072e-05
1.42097e-05
7.89135e-06
4.13922e-06
2.05472e-06
9.63558e-07
4.24101e-07
1.73518e-07
6.53984e-08
2.22375e-08
6.94266e-09
1.96964e-09
4.81129e-10
1.03352e-10
1.99355e-11
3.44135e-12
4.99245e-13
6.37988e-14
7.29393e-15
7.61006e-16
7.42295e-17
6.85741e-18
6.11045e-19
5.31065e-20
4.54347e-21
3.83852e-22
3.21662e-23
2.67936e-24
2.22149e-25
1.83488e-26
1.51604e-27
1.5097e-28
2.01558e-29
3.82823e-30
9.16547e-31
2.39898e-31
6.41382e-32
1.71075e-32
4.5148e-33
1.17243e-33
2.96969e-34
7.2018e-35
1.60392e-35
2.96527e-36
2.84126e-37
6.12828e-14
2.32733e-13
4.82137e-13
8.53004e-13
1.40243e-12
2.21495e-12
3.41936e-12
5.2168e-12
7.931e-12
1.21007e-11
1.86619e-11
2.93326e-11
4.74031e-11
7.93013e-11
1.37615e-10
2.47144e-10
4.57085e-10
8.60654e-10
1.59567e-09
2.95717e-09
5.31412e-09
9.19318e-09
1.51271e-08
2.37794e-08
3.48699e-08
4.87845e-08
6.58739e-08
8.73952e-08
1.13351e-07
1.46122e-07
1.87437e-07
2.39447e-07
3.06274e-07
3.91616e-07
5.00938e-07
6.38765e-07
8.09231e-07
1.01558e-06
1.26086e-06
1.55182e-06
1.90743e-06
2.35296e-06
2.92794e-06
3.71993e-06
4.83105e-06
6.42989e-06
8.72925e-06
1.21353e-05
1.72164e-05
2.48177e-05
3.6135e-05
5.25318e-05
6.1306e-05
5.24884e-05
3.76427e-05
2.38846e-05
1.41243e-05
7.83667e-06
4.10671e-06
2.03655e-06
9.5401e-07
4.19406e-07
1.71363e-07
6.44753e-08
2.19126e-08
6.83098e-09
1.93495e-09
4.71792e-10
1.01109e-10
1.95067e-11
3.36109e-12
4.86784e-13
6.21103e-14
7.09208e-15
7.39252e-16
7.20644e-17
6.65437e-18
5.92781e-19
5.15096e-20
4.40645e-21
3.72254e-22
3.11936e-23
2.59833e-24
2.15432e-25
1.77943e-26
1.47038e-27
1.46946e-28
1.97389e-29
3.76963e-30
9.05081e-31
2.37158e-31
6.34331e-32
1.69231e-32
4.46674e-33
1.16007e-33
2.93862e-34
7.12689e-35
1.58731e-35
2.93462e-36
2.81191e-37
6.12105e-14
2.32459e-13
4.8157e-13
8.52002e-13
1.40078e-12
2.21235e-12
3.41531e-12
5.21054e-12
7.92121e-12
1.2085e-11
1.86361e-11
2.92886e-11
4.73255e-11
7.91633e-11
1.37361e-10
2.46687e-10
4.56246e-10
8.59113e-10
1.59293e-09
2.95188e-09
5.30589e-09
9.18133e-09
1.51119e-08
2.37623e-08
3.48535e-08
4.87715e-08
6.58671e-08
8.73981e-08
1.13367e-07
1.46156e-07
1.87499e-07
2.39544e-07
3.06411e-07
3.91865e-07
5.01327e-07
6.39341e-07
8.10062e-07
1.01675e-06
1.26249e-06
1.55406e-06
1.91057e-06
2.35742e-06
2.93437e-06
3.72954e-06
4.84573e-06
6.45271e-06
8.7647e-06
1.21906e-05
1.73018e-05
2.49475e-05
3.63237e-05
5.27736e-05
6.13558e-05
5.23864e-05
3.74513e-05
2.3894e-05
1.41016e-05
7.81285e-06
4.08942e-06
2.02589e-06
9.48067e-07
4.16343e-07
1.6991e-07
6.38409e-08
2.16869e-08
6.75344e-09
1.91262e-09
4.65647e-10
9.9615e-11
1.92208e-11
3.30754e-12
4.78399e-13
6.097e-14
6.95504e-15
7.24414e-16
7.05824e-17
6.51485e-18
5.802e-19
5.0408e-20
4.31185e-21
3.64241e-22
3.05211e-23
2.54227e-24
2.10782e-25
1.74102e-26
1.43871e-27
1.44145e-28
1.94451e-29
3.72752e-30
8.96687e-31
2.35129e-31
6.29077e-32
1.67852e-32
4.43074e-33
1.1508e-33
2.91533e-34
7.07073e-35
1.57485e-35
2.91163e-36
2.78991e-37
6.1164e-14
2.32282e-13
4.81205e-13
8.51353e-13
1.3997e-12
2.21063e-12
3.4126e-12
5.20626e-12
7.91441e-12
1.20741e-11
1.86183e-11
2.9259e-11
4.72756e-11
7.9076e-11
1.37199e-10
2.46392e-10
4.55705e-10
8.58126e-10
1.59122e-09
2.94859e-09
5.30079e-09
9.17399e-09
1.51024e-08
2.37518e-08
3.48436e-08
4.87639e-08
6.58633e-08
8.73993e-08
1.13372e-07
1.4618e-07
1.87544e-07
2.39619e-07
3.06529e-07
3.92042e-07
5.01588e-07
6.39719e-07
8.10605e-07
1.01751e-06
1.26354e-06
1.55551e-06
1.9126e-06
2.3603e-06
2.93859e-06
3.73591e-06
4.85558e-06
6.46825e-06
8.78939e-06
1.22302e-05
1.7366e-05
2.50516e-05
3.64916e-05
5.30367e-05
6.14303e-05
5.2347e-05
3.73817e-05
2.38418e-05
1.40653e-05
7.78929e-06
4.07514e-06
2.01779e-06
9.43756e-07
4.14189e-07
1.68908e-07
6.34112e-08
2.15354e-08
6.70105e-09
1.89632e-09
4.61268e-10
9.85696e-11
1.90225e-11
3.27061e-12
4.72674e-13
6.01955e-14
6.86242e-15
7.14413e-16
6.95846e-17
6.42135e-18
5.71804e-19
4.9675e-20
4.24905e-21
3.58932e-22
3.00764e-23
2.50527e-24
2.07718e-25
1.71575e-26
1.41792e-27
1.42309e-28
1.92535e-29
3.70025e-30
8.91286e-31
2.33827e-31
6.25702e-32
1.66962e-32
4.40739e-33
1.14476e-33
2.90005e-34
7.03374e-35
1.56662e-35
2.89642e-36
2.77533e-37
6.11406e-14
2.32193e-13
4.8102e-13
8.51025e-13
1.39916e-12
2.20976e-12
3.41124e-12
5.20415e-12
7.91114e-12
1.20689e-11
1.86099e-11
2.92451e-11
4.72518e-11
7.90343e-11
1.37121e-10
2.46251e-10
4.55445e-10
8.57653e-10
1.59039e-09
2.94697e-09
5.29828e-09
9.17042e-09
1.50979e-08
2.37468e-08
3.48389e-08
4.87606e-08
6.58622e-08
8.74016e-08
1.13379e-07
1.46195e-07
1.87575e-07
2.39676e-07
3.06635e-07
3.92148e-07
5.01723e-07
6.39907e-07
8.10867e-07
1.01787e-06
1.26404e-06
1.55619e-06
1.91353e-06
2.3616e-06
2.94044e-06
3.73866e-06
4.85981e-06
6.47499e-06
8.80042e-06
1.22492e-05
1.74002e-05
2.5117e-05
3.66252e-05
5.33333e-05
6.15245e-05
5.235e-05
3.73793e-05
2.37711e-05
1.40288e-05
7.76931e-06
4.06428e-06
2.01209e-06
9.40894e-07
4.12824e-07
1.68296e-07
6.31556e-08
2.14464e-08
6.67102e-09
1.88707e-09
4.58821e-10
9.7995e-11
1.89127e-11
3.25044e-12
4.69578e-13
5.97805e-14
6.81316e-15
7.09126e-16
6.90587e-17
6.37191e-18
5.67343e-19
4.9284e-20
4.21543e-21
3.56083e-22
2.98371e-23
2.48531e-24
2.06063e-25
1.70208e-26
1.40665e-27
1.41311e-28
1.91487e-29
3.68532e-30
8.88342e-31
2.33123e-31
6.239e-32
1.66494e-32
4.39526e-33
1.14165e-33
2.89228e-34
7.01504e-35
1.56247e-35
2.88878e-36
2.76802e-37
6.11401e-14
2.32191e-13
4.81015e-13
8.51017e-13
1.39915e-12
2.20974e-12
3.41121e-12
5.20411e-12
7.91109e-12
1.20689e-11
1.86099e-11
2.92451e-11
4.72517e-11
7.90342e-11
1.37121e-10
2.46251e-10
4.55444e-10
8.57652e-10
1.59039e-09
2.94697e-09
5.29828e-09
9.17042e-09
1.50979e-08
2.37468e-08
3.4839e-08
4.87606e-08
6.58621e-08
8.74008e-08
1.13376e-07
1.46194e-07
1.87573e-07
2.39671e-07
3.06623e-07
3.92141e-07
5.01718e-07
6.399e-07
8.10857e-07
1.01786e-06
1.26401e-06
1.55613e-06
1.91343e-06
2.36141e-06
2.94006e-06
3.73786e-06
4.85812e-06
6.47137e-06
8.79266e-06
1.22323e-05
1.73629e-05
2.50336e-05
3.64351e-05
5.3225e-05
6.15282e-05
5.24149e-05
3.74714e-05
2.37171e-05
1.39981e-05
7.75395e-06
4.05714e-06
2.00895e-06
9.39576e-07
4.12299e-07
1.681e-07
6.30868e-08
2.14244e-08
6.66449e-09
1.88529e-09
4.584e-10
9.79071e-11
1.88958e-11
3.24757e-12
4.69166e-13
5.97283e-14
6.80723e-15
7.08511e-16
6.89991e-17
6.36643e-18
5.66859e-19
4.92422e-20
4.21188e-21
3.55785e-22
2.98124e-23
2.48327e-24
2.05895e-25
1.7007e-26
1.40552e-27
1.41215e-28
1.91394e-29
3.68421e-30
8.8816e-31
2.33086e-31
6.23815e-32
1.66474e-32
4.3948e-33
1.14155e-33
2.89205e-34
7.01455e-35
1.56238e-35
2.88861e-36
2.76786e-37
6.11626e-14
2.32277e-13
4.81192e-13
8.51329e-13
1.39966e-12
2.21056e-12
3.41249e-12
5.2061e-12
7.9142e-12
1.20738e-11
1.8618e-11
2.92586e-11
4.72751e-11
7.90753e-11
1.37198e-10
2.46391e-10
4.55703e-10
8.58122e-10
1.59121e-09
2.94856e-09
5.30076e-09
9.17399e-09
1.51025e-08
2.37519e-08
3.48438e-08
4.87645e-08
6.58644e-08
8.74023e-08
1.13381e-07
1.46183e-07
1.87546e-07
2.39622e-07
3.06538e-07
3.92039e-07
5.01578e-07
6.397e-07
8.10572e-07
1.01746e-06
1.26345e-06
1.55536e-06
1.91235e-06
2.35986e-06
2.93779e-06
3.73443e-06
4.85286e-06
6.46332e-06
8.78066e-06
1.22152e-05
1.73412e-05
2.50128e-05
3.64371e-05
5.29793e-05
6.14551e-05
5.24329e-05
3.75143e-05
2.37475e-05
1.40177e-05
7.7658e-06
4.06396e-06
2.01269e-06
9.41532e-07
4.13266e-07
1.68547e-07
6.32801e-08
2.14925e-08
6.6881e-09
1.89271e-09
4.60403e-10
9.83887e-11
1.89871e-11
3.26458e-12
4.71802e-13
6.00844e-14
6.84993e-15
7.13128e-16
6.94592e-17
6.40962e-18
5.70745e-19
4.9582e-20
4.24103e-21
3.58251e-22
3.00191e-23
2.50048e-24
2.07321e-25
1.71247e-26
1.41521e-27
1.42074e-28
1.92303e-29
3.69731e-30
8.90783e-31
2.33721e-31
6.2546e-32
1.66906e-32
4.40613e-33
1.14447e-33
2.89943e-34
7.03243e-35
1.56635e-35
2.89597e-36
2.77492e-37
6.12094e-14
2.32454e-13
4.8156e-13
8.51982e-13
1.40074e-12
2.21227e-12
3.41517e-12
5.21027e-12
7.92074e-12
1.20842e-11
1.86349e-11
2.92871e-11
4.73241e-11
7.91622e-11
1.3736e-10
2.46688e-10
4.56251e-10
8.59124e-10
1.59296e-09
2.95193e-09
5.30599e-09
9.18151e-09
1.51122e-08
2.37628e-08
3.4854e-08
4.87722e-08
6.58679e-08
8.73991e-08
1.13368e-07
1.46156e-07
1.87499e-07
2.39545e-07
3.06417e-07
3.91858e-07
5.01309e-07
6.39308e-07
8.10009e-07
1.01666e-06
1.26236e-06
1.55385e-06
1.91023e-06
2.35685e-06
2.9334e-06
3.72779e-06
4.84258e-06
6.44701e-06
8.75457e-06
1.21728e-05
1.7271e-05
2.48949e-05
3.62358e-05
5.27979e-05
6.14155e-05
5.24823e-05
3.75869e-05
2.38092e-05
1.40618e-05
7.79393e-06
4.08052e-06
2.02179e-06
9.46243e-07
4.15573e-07
1.69599e-07
6.37257e-08
2.16487e-08
6.74165e-09
1.90927e-09
4.64835e-10
9.94404e-11
1.91867e-11
3.30159e-12
4.77536e-13
6.08632e-14
6.94299e-15
7.23137e-16
7.04573e-17
6.5034e-18
5.7919e-19
5.0321e-20
4.30447e-21
3.63622e-22
3.04697e-23
2.53802e-24
2.10433e-25
1.73816e-26
1.43637e-27
1.43947e-28
1.94268e-29
3.72544e-30
8.9637e-31
2.35066e-31
6.28933e-32
1.67816e-32
4.42984e-33
1.15058e-33
2.91477e-34
7.06942e-35
1.57456e-35
2.91112e-36
2.78942e-37
6.12822e-14
2.32731e-13
4.82133e-13
8.52997e-13
1.40242e-12
2.21494e-12
3.41934e-12
5.21677e-12
7.9309e-12
1.21004e-11
1.86612e-11
2.9331e-11
4.73997e-11
7.92958e-11
1.37609e-10
2.47142e-10
4.57098e-10
8.60682e-10
1.59571e-09
2.95723e-09
5.31425e-09
9.1934e-09
1.51275e-08
2.37799e-08
3.48706e-08
4.87852e-08
6.58746e-08
8.73959e-08
1.13351e-07
1.46121e-07
1.87435e-07
2.39444e-07
3.06268e-07
3.91602e-07
5.00913e-07
6.38721e-07
8.09161e-07
1.01547e-06
1.2607e-06
1.55156e-06
1.90703e-06
2.3523e-06
2.92685e-06
3.71802e-06
4.82767e-06
6.4238e-06
8.71813e-06
1.21144e-05
1.71767e-05
2.47406e-05
3.59793e-05
5.25364e-05
6.13501e-05
5.2541e-05
3.76812e-05
2.39018e-05
1.4131e-05
7.83875e-06
4.10702e-06
2.0364e-06
9.53832e-07
4.19266e-07
1.71285e-07
6.44372e-08
2.18976e-08
6.82613e-09
1.93362e-09
4.71471e-10
1.01053e-10
1.94954e-11
3.35946e-12
4.86594e-13
6.20828e-14
7.08817e-15
7.38802e-16
7.2018e-17
6.64988e-18
5.92373e-19
5.14739e-20
4.4034e-21
3.71998e-22
3.11722e-23
2.59655e-24
2.15285e-25
1.77822e-26
1.46937e-27
1.46861e-28
1.97308e-29
3.76861e-30
9.04891e-31
2.37111e-31
6.34205e-32
1.69196e-32
4.46581e-33
1.15982e-33
2.93801e-34
7.12543e-35
1.58698e-35
2.93403e-36
2.81136e-37
6.13835e-14
2.33115e-13
4.8293e-13
8.54409e-13
1.40475e-12
2.21865e-12
3.42515e-12
5.2258e-12
7.94504e-12
1.21229e-11
1.86978e-11
2.93922e-11
4.75048e-11
7.94818e-11
1.37955e-10
2.47776e-10
4.58281e-10
8.62875e-10
1.59962e-09
2.96485e-09
5.32634e-09
9.21094e-09
1.51502e-08
2.38053e-08
3.48956e-08
4.88062e-08
6.58876e-08
8.73958e-08
1.13333e-07
1.46079e-07
1.87355e-07
2.39309e-07
3.06049e-07
3.91258e-07
5.00387e-07
6.37942e-07
8.0803e-07
1.01387e-06
1.25847e-06
1.54849e-06
1.90275e-06
2.3463e-06
2.91823e-06
3.70533e-06
4.80869e-06
6.39512e-06
8.67507e-06
1.20506e-05
1.70843e-05
2.46143e-05
3.58295e-05
5.21051e-05
6.12059e-05
5.25639e-05
3.77144e-05
2.4112e-05
1.42554e-05
7.91068e-06
4.14699e-06
2.05764e-06
9.64543e-07
4.244e-07
1.73598e-07
6.54158e-08
2.22419e-08
6.9437e-09