/*--------------------------------*- C++ -*----------------------------------*\
  =========                 |
  \\      /  F ield         | OpenFOAM: The Open Source CFD Toolbox
   \\    /   O peration     | Website:  https://openfoam.org
    \\  /    A nd           | Version:  10
     \\/     M anipulation  |
\*---------------------------------------------------------------------------*/
FoamFile
{
    format      ascii;
    class       volScalarField;
    location    "1";
    object      H2;
}
// * * * * * * * * * * * * * * * * * * * * * * * * * * * * * * * * * * * * * //

dimensions      [0 0 0 0 0 0 0];

internalField   nonuniform List<scalar> 
4000
(
0.0496984
0.049694
0.0496875
0.0496778
0.0496631
0.0496411
0.0496088
0.0495614
0.0494932
0.0493967
0.0492628
0.0490807
0.0488371
0.0485166
0.0481028
0.0475822
0.046937
0.0461562
0.0452719
0.0442222
0.0430785
0.0418159
0.0404154
0.0389619
0.0374392
0.0358641
0.0342459
0.0325919
0.0309467
0.0292905
0.0276512
0.0260425
0.0244664
0.0229332
0.0214482
0.0200118
0.0186309
0.0173047
0.0160339
0.0148186
0.013644
0.0125234
0.0114642
0.0104597
0.0094857
0.00855307
0.00766332
0.00680411
0.00595623
0.00510364
0.00422791
0.00331248
0.00237049
0.00157485
0.000990637
0.000595642
0.000343765
0.000191309
0.000102703
5.33013e-05
2.69062e-05
1.36928e-05
7.47033e-06
4.67203e-06
3.40127e-06
2.72186e-06
2.25271e-06
1.85885e-06
1.49397e-06
1.16973e-06
8.97747e-07
6.59102e-07
4.66902e-07
3.1873e-07
2.095e-07
1.33185e-07
8.21511e-08
4.9386e-08
2.90499e-08
1.6771e-08
9.53312e-09
5.34197e-09
2.9565e-09
1.61913e-09
8.77335e-10
4.71499e-10
2.51555e-10
1.33297e-10
7.02323e-11
3.68376e-11
1.9193e-11
9.9519e-12
5.13511e-12
2.63426e-12
1.34025e-12
6.72658e-13
3.29111e-13
1.52692e-13
6.22055e-14
1.43908e-14
0.0496984
0.0496941
0.0496876
0.0496779
0.0496632
0.0496414
0.0496091
0.049562
0.0494941
0.0493982
0.0492651
0.0490843
0.0488428
0.0485254
0.0481154
0.0475996
0.0469618
0.0461911
0.0453162
0.044272
0.0431358
0.0418874
0.0404991
0.0390481
0.037529
0.035954
0.0343365
0.0326725
0.0310224
0.0293602
0.0277146
0.0261054
0.0245251
0.0229826
0.0214898
0.0200467
0.0186595
0.0173274
0.0160513
0.0148308
0.0136519
0.0125271
0.0114641
0.0104558
0.00947856
0.00854288
0.00765089
0.0067892
0.0059386
0.00508306
0.00420391
0.00328492
0.00234035
0.00155068
0.000973592
0.000584772
0.000335171
0.00018613
9.97012e-05
5.16663e-05
2.59112e-05
1.32045e-05
7.25679e-06
4.58856e-06
3.36773e-06
2.70567e-06
2.23749e-06
1.84205e-06
1.47619e-06
1.15279e-06
8.83293e-07
6.48581e-07
4.59671e-07
3.13834e-07
2.06982e-07
1.3204e-07
8.17637e-08
4.93492e-08
2.91427e-08
1.68877e-08
9.63519e-09
5.41859e-09
3.01052e-09
1.65374e-09
9.00407e-10
4.85649e-10
2.5978e-10
1.37821e-10
7.25882e-11
3.79626e-11
1.97862e-11
1.02498e-11
5.28065e-12
2.70389e-12
1.37289e-12
6.87637e-13
3.35799e-13
1.55544e-13
6.32923e-14
1.46314e-14
0.0496984
0.0496941
0.0496876
0.0496779
0.0496633
0.0496416
0.0496094
0.0495625
0.0494949
0.0493994
0.0492673
0.0490882
0.0488491
0.0485349
0.0481294
0.0476191
0.0469869
0.0462257
0.0453619
0.0443298
0.043205
0.041962
0.0405945
0.039124
0.0376143
0.0360448
0.0344309
0.032767
0.0311171
0.029452
0.0278037
0.026189
0.0245998
0.0230507
0.0215476
0.0200951
0.0186987
0.0173581
0.016074
0.0148468
0.0136615
0.0125304
0.0114619
0.0104481
0.00946567
0.00852512
0.0076293
0.00676317
0.00590858
0.00504839
0.00416366
0.00323743
0.00229405
0.0015132
0.000946162
0.000566622
0.000323758
0.000179208
9.57083e-05
4.95397e-05
2.46026e-05
1.25874e-05
6.98951e-06
4.4809e-06
3.32366e-06
2.68231e-06
2.21649e-06
1.82077e-06
1.45532e-06
1.134e-06
8.67822e-07
6.36907e-07
4.52012e-07
3.09235e-07
2.042e-07
1.30542e-07
8.10442e-08
4.90629e-08
2.90664e-08
1.68916e-08
9.67118e-09
5.45705e-09
3.0406e-09
1.67491e-09
9.1311e-10
4.93125e-10
2.64171e-10
1.40373e-10
7.4056e-11
3.88092e-11
2.02134e-11
1.0474e-11
5.39647e-12
2.76229e-12
1.40171e-12
7.01542e-13
3.42314e-13
1.58442e-13
6.44337e-14
1.489e-14
0.0496985
0.0496941
0.0496877
0.0496781
0.0496636
0.049642
0.0496101
0.0495635
0.0494965
0.0494018
0.0492709
0.0490934
0.0488566
0.0485457
0.0481446
0.0476399
0.0470148
0.046259
0.0454011
0.044381
0.0432667
0.0420349
0.0406781
0.0392092
0.0376986
0.0361299
0.0345215
0.032858
0.0312082
0.029539
0.0278879
0.0262698
0.0246744
0.0231174
0.0216048
0.0201433
0.0187378
0.0173884
0.0160966
0.0148609
0.0136683
0.0125304
0.0114558
0.0104359
0.00944763
0.00850159
0.00760196
0.00673088
0.00587105
0.00500578
0.00411604
0.00318167
0.00224006
0.0014699
0.000914781
0.000544822
0.000309927
0.000170691
9.07093e-05
4.67423e-05
2.3138e-05
1.18833e-05
6.68293e-06
4.36089e-06
3.27421e-06
2.65285e-06
2.19151e-06
1.79642e-06
1.43208e-06
1.11314e-06
8.50636e-07
6.2317e-07
4.40408e-07
3.00508e-07
1.9825e-07
1.26835e-07
7.89115e-08
4.79356e-08
2.85317e-08
1.66853e-08
9.59763e-09
5.43339e-09
3.0367e-09
1.67729e-09
9.16467e-10
4.95877e-10
2.66068e-10
1.4153e-10
7.47294e-11
3.91923e-11
2.0432e-11
1.05877e-11
5.45454e-12
2.79169e-12
1.41643e-12
7.08798e-13
3.45806e-13
1.60043e-13
6.50829e-14
1.50397e-14
0.0496985
0.0496942
0.0496878
0.0496782
0.0496638
0.0496424
0.0496107
0.0495644
0.0494979
0.0494039
0.0492741
0.049098
0.0488633
0.0485552
0.0481577
0.0476574
0.0470378
0.0462885
0.0454383
0.044426
0.0433177
0.0420924
0.0407465
0.0392799
0.0377753
0.036215
0.0346076
0.0329437
0.0312918
0.0296214
0.0279636
0.0263391
0.0247382
0.0231761
0.0216553
0.0201855
0.0187715
0.0174144
0.0161141
0.014871
0.0136712
0.0125265
0.011446
0.0104201
0.00942597
0.00847443
0.00757129
0.00669544
0.00583005
0.00495877
0.00406203
0.00312472
0.00218443
0.00142569
0.000883178
0.000523916
0.000297201
0.000163048
8.63091e-05
4.43075e-05
2.19233e-05
1.13117e-05
6.4315e-06
4.25521e-06
3.22683e-06
2.62343e-06
2.16653e-06
1.77216e-06
1.40876e-06
1.09229e-06
8.33529e-07
6.08732e-07
4.30038e-07
2.93499e-07
1.93803e-07
1.24176e-07
7.7392e-08
4.70977e-08
2.80775e-08
1.64362e-08
9.47638e-09
5.38402e-09
3.01749e-09
1.67036e-09
9.14122e-10
4.95401e-10
2.66227e-10
1.41788e-10
7.49394e-11
3.9333e-11
2.05187e-11
1.06364e-11
5.48058e-12
2.80515e-12
1.42321e-12
7.12137e-13
3.47405e-13
1.60773e-13
6.5377e-14
1.51075e-14
0.0496985
0.0496942
0.0496879
0.0496784
0.0496641
0.0496427
0.0496113
0.0495653
0.0494993
0.0494061
0.0492772
0.0491026
0.0488698
0.0485641
0.0481698
0.0476732
0.0470577
0.0463129
0.0454671
0.0444617
0.0433587
0.0421388
0.0408042
0.0393424
0.0378453
0.0362855
0.0346802
0.0330162
0.0313658
0.029691
0.0280277
0.0263984
0.0247921
0.0232245
0.021697
0.02022
0.0187989
0.0174341
0.0161264
0.014876
0.0136696
0.0125187
0.011433
0.0104018
0.00940247
0.00844588
0.00753917
0.00665815
0.00578746
0.00491063
0.00400863
0.00306792
0.00213073
0.00138334
0.000852836
0.000502845
0.000284095
0.000155047
8.16576e-05
4.17536e-05
2.07054e-05
1.07414e-05
6.19162e-06
4.15718e-06
3.18314e-06
2.59679e-06
2.14583e-06
1.74426e-06
1.38544e-06
1.0731e-06
8.16507e-07
5.95671e-07
4.20579e-07
2.86993e-07
1.8953e-07
1.21504e-07
7.57854e-08
4.61678e-08
2.75575e-08
1.61547e-08
9.31893e-09
5.29901e-09
2.97423e-09
1.6498e-09
9.05454e-10
4.91727e-10
2.64704e-10
1.41152e-10
7.46768e-11
3.9226e-11
2.04769e-11
1.06192e-11
5.47284e-12
2.80173e-12
1.42169e-12
7.11456e-13
3.471e-13
1.60641e-13
6.53262e-14
1.50962e-14
0.0496985
0.0496942
0.049688
0.0496785
0.0496643
0.0496431
0.0496119
0.0495662
0.0495006
0.0494081
0.0492802
0.0491068
0.0488757
0.0485723
0.0481807
0.0476874
0.0470757
0.0463351
0.0454938
0.0444956
0.0433977
0.0421806
0.0408554
0.0393995
0.0379036
0.0363446
0.0347399
0.0330743
0.0314234
0.0297456
0.0280779
0.0264454
0.0248348
0.0232624
0.0217292
0.0202456
0.0188181
0.0174468
0.0161328
0.0148765
0.0136644
0.0125081
0.0114179
0.010382
0.00937831
0.00841781
0.00750952
0.0066262
0.00574368
0.00486388
0.00395677
0.00300953
0.00207819
0.00134338
0.000825262
0.000482681
0.000272384
0.000148213
7.7795e-05
3.95614e-05
1.98391e-05
1.03353e-05
6.00851e-06
4.08094e-06
3.1476e-06
2.57367e-06
2.12626e-06
1.72529e-06
1.36816e-06
1.05779e-06
8.04017e-07
5.8571e-07
4.13077e-07
2.81586e-07
1.85846e-07
1.19131e-07
7.43213e-08
4.53004e-08
2.70607e-08
1.58796e-08
9.16939e-09
5.21922e-09
2.93216e-09
1.62762e-09
8.9354e-10
4.85559e-10
2.61596e-10
1.39609e-10
7.39236e-11
3.88623e-11
2.03044e-11
1.05383e-11
5.43621e-12
2.78474e-12
1.41367e-12
7.07647e-13
3.45306e-13
1.59829e-13
6.50004e-14
1.50215e-14
0.0496985
0.0496943
0.049688
0.0496786
0.0496645
0.0496435
0.0496124
0.0495671
0.0495019
0.0494099
0.0492828
0.0491107
0.0488811
0.0485796
0.0481905
0.0477
0.0470915
0.0463545
0.045517
0.0445256
0.0434307
0.0422185
0.0408979
0.0394428
0.0379482
0.0363921
0.0347891
0.0331239
0.0314705
0.0297886
0.0281178
0.0264822
0.0248682
0.0232916
0.0217534
0.0202648
0.0188314
0.0174546
0.0161353
0.014874
0.0136573
0.0124968
0.0114032
0.0103636
0.00935603
0.00839165
0.00747985
0.0065928
0.00570878
0.00482569
0.00391677
0.00295288
0.00203018
0.001308
0.000802096
0.000464782
0.000261838
0.000142068
7.43166e-05
3.7695e-05
1.89295e-05
9.91693e-06
5.83411e-06
4.00892e-06
3.11269e-06
2.55068e-06
2.10685e-06
1.7051e-06
1.35102e-06
1.04362e-06
7.92682e-07
5.76839e-07
4.0613e-07
2.76459e-07
1.82298e-07
1.16816e-07
7.28772e-08
4.44341e-08
2.65577e-08
1.55964e-08
9.01295e-09
5.13446e-09
2.887e-09
1.60391e-09
8.81249e-10
4.79304e-10
2.58223e-10
1.37913e-10
7.30735e-11
3.84372e-11
2.00932e-11
1.04322e-11
5.38244e-12
2.75783e-12
1.40035e-12
7.01148e-13
3.4221e-13
1.58426e-13
6.44397e-14
1.48934e-14
0.0496985
0.0496943
0.0496881
0.0496787
0.0496647
0.0496438
0.0496129
0.0495678
0.049503
0.0494116
0.0492852
0.049114
0.0488858
0.048586
0.0481989
0.0477108
0.0471051
0.0463708
0.0455356
0.0445496
0.0434588
0.0422486
0.0409318
0.0394802
0.0379882
0.0364319
0.0348282
0.0331615
0.0315063
0.0298226
0.0281499
0.0265116
0.024894
0.0233135
0.0217714
0.0202779
0.0188396
0.0174581
0.0161343
0.0148686
0.0136476
0.0124832
0.0113865
0.0103435
0.00933268
0.00836563
0.00745124
0.00656105
0.00567608
0.00478851
0.00387499
0.00291029
0.00199132
0.00127814
0.000780952
0.00045193
0.000253653
0.000137113
7.15011e-05
3.61827e-05
1.81765e-05
9.57847e-06
5.69053e-06
3.94851e-06
3.08123e-06
2.52744e-06
2.08653e-06
1.68613e-06
1.3336e-06
1.02788e-06
7.79456e-07
5.66654e-07
3.98657e-07
2.71255e-07
1.78828e-07
1.14606e-07
7.1516e-08
4.36221e-08
2.60861e-08
1.53291e-08
8.86402e-09
5.05289e-09
2.84297e-09
1.58045e-09
8.68883e-10
4.72904e-10
2.54906e-10
1.36207e-10
7.22009e-11
3.7993e-11
1.98693e-11
1.03189e-11
5.32519e-12
2.72903e-12
1.38596e-12
6.94034e-13
3.38776e-13
1.5685e-13
6.38026e-14
1.47466e-14
0.0496985
0.0496943
0.0496882
0.0496789
0.0496649
0.0496441
0.0496133
0.0495685
0.049504
0.049413
0.0492873
0.049117
0.0488899
0.0485915
0.0482063
0.0477203
0.0471171
0.0463855
0.0455534
0.0445728
0.0434842
0.0422772
0.0409622
0.0395098
0.0380184
0.036463
0.0348597
0.0331912
0.0315351
0.0298503
0.0281745
0.0265335
0.0249131
0.0233298
0.0217839
0.0202865
0.0188442
0.0174588
0.0161313
0.014862
0.0136375
0.0124699
0.0113707
0.0103246
0.00931116
0.00834136
0.00742403
0.0065309
0.00564562
0.00475328
0.00383244
0.00287192
0.00195696
0.00125225
0.000763504
0.000439984
0.000246536
0.000133049
6.92621e-05
3.50017e-05
1.75811e-05
9.30145e-06
5.57193e-06
3.90274e-06
3.04704e-06
2.50543e-06
2.06857e-06
1.67026e-06
1.3196e-06
1.01652e-06
7.69748e-07
5.58792e-07
3.92729e-07
2.67033e-07
1.75959e-07
1.12745e-07
7.03501e-08
4.2915e-08
2.56681e-08
1.50884e-08
8.72803e-09
4.97737e-09
2.80167e-09
1.55816e-09
8.57e-10
4.6668e-10
2.51652e-10
1.34519e-10
7.13309e-11
3.75471e-11
1.96413e-11
1.02029e-11
5.26646e-12
2.69943e-12
1.37114e-12
6.86702e-13
3.35231e-13
1.55221e-13
6.31427e-14
1.45945e-14
0.0496985
0.0496943
0.0496882
0.0496789
0.049665
0.0496443
0.0496137
0.0495691
0.0495049
0.0494142
0.0492891
0.0491195
0.0488933
0.0485961
0.0482124
0.0477281
0.0471265
0.0463966
0.0455665
0.0445902
0.0435036
0.042299
0.0409856
0.0395349
0.0380436
0.0364883
0.0348844
0.0332151
0.031558
0.0298717
0.0281937
0.0265505
0.0249279
0.0233414
0.0217925
0.0202918
0.0188464
0.0174579
0.0161275
0.0148555
0.0136283
0.0124582
0.0113568
0.0103074
0.00929137
0.00831929
0.00740033
0.00650527
0.00561913
0.00472366
0.00379908
0.00283543
0.00192593
0.0012291
0.000747456
0.000429766
0.00024031
0.000129406
6.72323e-05
3.39325e-05
1.70655e-05
9.07155e-06
5.47428e-06
3.86092e-06
3.02621e-06
2.48941e-06
2.05424e-06
1.65662e-06
1.30729e-06
1.00694e-06
7.61992e-07
5.5249e-07
3.87908e-07
2.63558e-07
1.73565e-07
1.11173e-07
6.93525e-08
4.23036e-08
2.53004e-08
1.48747e-08
8.60614e-09
4.90906e-09
2.76397e-09
1.53764e-09
8.45963e-10
4.60832e-10
2.48572e-10
1.32911e-10
7.04984e-11
3.71204e-11
1.94157e-11
1.00883e-11
5.20848e-12
2.67023e-12
1.35653e-12
6.79476e-13
3.31737e-13
1.53614e-13
6.2492e-14
1.44445e-14
0.0496985
0.0496944
0.0496883
0.049679
0.0496652
0.0496445
0.049614
0.0495696
0.0495056
0.0494153
0.0492906
0.0491216
0.0488961
0.0485999
0.0482175
0.0477344
0.0471342
0.0464062
0.0455782
0.0446049
0.0435206
0.0423171
0.0410045
0.0395542
0.0380635
0.0365082
0.034904
0.0332337
0.0315755
0.0298879
0.0282081
0.0265629
0.0249381
0.0233494
0.021798
0.0202947
0.0188468
0.0174561
0.0161236
0.0148499
0.0136212
0.0124504
0.0113496
0.0102863
0.00927091
0.00829863
0.00737907
0.00648309
0.00559544
0.00469761
0.00376989
0.00280497
0.00190028
0.0012101
0.000734642
0.000421681
0.000235318
0.000126476
6.55887e-05
3.30611e-05
1.66385e-05
8.87709e-06
5.39233e-06
3.82605e-06
3.00958e-06
2.47697e-06
2.0429e-06
1.64588e-06
1.29744e-06
9.99825e-07
7.561e-07
5.47887e-07
3.84155e-07
2.60745e-07
1.71578e-07
1.09845e-07
6.84989e-08
4.17743e-08
2.49809e-08
1.46873e-08
8.49831e-09
4.84815e-09
2.73011e-09
1.51908e-09
8.35924e-10
4.55471e-10
2.45734e-10
1.31422e-10
6.97235e-11
3.67211e-11
1.9207e-11
9.98175e-12
5.15437e-12
2.64288e-12
1.34281e-12
6.72675e-13
3.28444e-13
1.52098e-13
6.18773e-14
1.43027e-14
0.0496985
0.0496944
0.0496883
0.0496791
0.0496653
0.0496447
0.0496143
0.04957
0.0495062
0.0494162
0.0492918
0.0491233
0.0488985
0.048603
0.0482215
0.0477394
0.0471406
0.0464138
0.0455871
0.0446166
0.0435336
0.0423311
0.0410197
0.0395702
0.0380803
0.0365252
0.0349206
0.0332493
0.0315897
0.0299008
0.0282191
0.0265721
0.0249454
0.0233547
0.0218012
0.0202959
0.018846
0.0174533
0.016119
0.0148436
0.0136134
0.0124411
0.0113387
0.010273
0.00925627
0.008283
0.00736257
0.00646558
0.00557695
0.0046784
0.00375097
0.00276927
0.00187341
0.00119161
0.000722413
0.000414094
0.000230755
0.000123869
6.41539e-05
3.23132e-05
1.62721e-05
8.71456e-06
5.32456e-06
3.79764e-06
2.99637e-06
2.46711e-06
2.03361e-06
1.63697e-06
1.28908e-06
9.93678e-07
7.50573e-07
5.43338e-07
3.80721e-07
2.58252e-07
1.69846e-07
1.08695e-07
6.77599e-08
4.13152e-08
2.47035e-08
1.45239e-08
8.40387e-09
4.79455e-09
2.70017e-09
1.5026e-09
8.26966e-10
4.50667e-10
2.43179e-10
1.30076e-10
6.90206e-11
3.63573e-11
1.90194e-11
9.88556e-12
5.10533e-12
2.61804e-12
1.33032e-12
6.6647e-13
3.25434e-13
1.5071e-13
6.13144e-14
1.41728e-14
0.0496985
0.0496944
0.0496883
0.0496792
0.0496654
0.0496449
0.0496146
0.0495703
0.0495067
0.0494169
0.0492929
0.0491248
0.0489005
0.0486058
0.0482251
0.0477441
0.0471464
0.0464208
0.0455949
0.0446264
0.0435441
0.0423425
0.0410319
0.0395828
0.0380929
0.0365378
0.0349328
0.0332607
0.0316002
0.0299104
0.0282273
0.0265788
0.0249505
0.0233581
0.0218029
0.0202959
0.0188443
0.0174501
0.0161143
0.0148375
0.0136059
0.0124323
0.0113285
0.0102614
0.00924361
0.00826933
0.00734799
0.0064499
0.00555978
0.00465876
0.00372723
0.00274859
0.00185485
0.0011776
0.000712932
0.000408253
0.000227246
0.000121838
6.30392e-05
3.17275e-05
1.59878e-05
8.58674e-06
5.27078e-06
3.77498e-06
2.98581e-06
2.45915e-06
2.0263e-06
1.62994e-06
1.28253e-06
9.88866e-07
7.46348e-07
5.39837e-07
3.7798e-07
2.56215e-07
1.68408e-07
1.07731e-07
6.71357e-08
4.09252e-08
2.44667e-08
1.43837e-08
8.32256e-09
4.74821e-09
2.67419e-09
1.48824e-09
8.19136e-10
4.46453e-10
2.40932e-10
1.28889e-10
6.8399e-11
3.60347e-11
1.88528e-11
9.80012e-12
5.06174e-12
2.59593e-12
1.31919e-12
6.60939e-13
3.2275e-13
1.49473e-13
6.08119e-14
1.40568e-14
0.0496985
0.0496944
0.0496884
0.0496792
0.0496655
0.049645
0.0496147
0.0495706
0.0495071
0.0494175
0.0492938
0.049126
0.0489022
0.048608
0.0482282
0.0477479
0.0471508
0.0464259
0.0456009
0.0446342
0.043553
0.0423521
0.041042
0.039593
0.0381031
0.0365477
0.0349422
0.0332693
0.0316081
0.0299175
0.0282332
0.0265835
0.0249539
0.0233602
0.0218036
0.0202953
0.0188424
0.0174469
0.0161099
0.014832
0.0135993
0.0124247
0.0113202
0.0102523
0.00923369
0.00825865
0.00733651
0.00643735
0.00554565
0.00464222
0.0037069
0.00273278
0.00184108
0.00116727
0.000705782
0.000403731
0.000224461
0.000120214
6.21326e-05
3.12552e-05
1.57577e-05
8.48223e-06
5.22657e-06
3.75602e-06
2.97683e-06
2.4525e-06
2.02031e-06
1.62419e-06
1.27721e-06
9.84948e-07
7.42958e-07
5.36987e-07
3.75722e-07
2.54527e-07
1.67212e-07
1.06926e-07
6.66131e-08
4.05976e-08
2.42673e-08
1.42653e-08
8.25364e-09
4.70883e-09
2.65205e-09
1.47597e-09
8.1243e-10
4.42835e-10
2.38998e-10
1.27866e-10
6.78622e-11
3.57557e-11
1.87086e-11
9.72604e-12
5.02391e-12
2.57673e-12
1.30952e-12
6.56132e-13
3.20417e-13
1.48396e-13
6.03749e-14
1.39558e-14
0.0496985
0.0496944
0.0496884
0.0496792
0.0496655
0.0496451
0.0496149
0.0495708
0.0495075
0.049418
0.0492945
0.049127
0.0489035
0.0486097
0.0482305
0.0477507
0.0471543
0.0464302
0.0456059
0.0446405
0.0435597
0.0423592
0.0410495
0.0396006
0.0381107
0.036555
0.0349492
0.0332758
0.0316139
0.0299226
0.0282374
0.0265867
0.0249562
0.0233613
0.0218037
0.0202942
0.0188403
0.0174437
0.0161059
0.014827
0.0135935
0.0124183
0.011313
0.0102446
0.00922539
0.00824978
0.00732706
0.00642718
0.00553442
0.00462963
0.00369293
0.00271993
0.0018303
0.00115919
0.000700175
0.000400203
0.000222294
0.000118939
6.14222e-05
3.08797e-05
1.55742e-05
8.40007e-06
5.1917e-06
3.74075e-06
2.96941e-06
2.44691e-06
2.01523e-06
1.6194e-06
1.27272e-06
9.81681e-07
7.40076e-07
5.34593e-07
3.7384e-07
2.53128e-07
1.66226e-07
1.06264e-07
6.61838e-08
4.03283e-08
2.41029e-08
1.41675e-08
8.19657e-09
4.67614e-09
2.63364e-09
1.46575e-09
8.06831e-10
4.3981e-10
2.37379e-10
1.27008e-10
6.74117e-11
3.55213e-11
1.85874e-11
9.66371e-12
4.99206e-12
2.56056e-12
1.30138e-12
6.52081e-13
3.18449e-13
1.47488e-13
6.00063e-14
1.38707e-14
0.0496985
0.0496944
0.0496884
0.0496793
0.0496656
0.0496452
0.049615
0.049571
0.0495077
0.0494184
0.049295
0.0491277
0.0489045
0.048611
0.0482322
0.0477529
0.0471571
0.0464335
0.0456097
0.0446454
0.0435651
0.042365
0.0410555
0.0396066
0.0381167
0.0365608
0.0349547
0.0332808
0.0316183
0.0299264
0.0282404
0.0265889
0.0249576
0.0233619
0.0218034
0.0202931
0.0188383
0.0174411
0.0161025
0.014823
0.0135889
0.0124132
0.0113075
0.0102385
0.00921892
0.00824288
0.00731971
0.00641925
0.00552579
0.00462014
0.00368246
0.00270742
0.00182058
0.00115227
0.000695551
0.000397602
0.000220692
0.000117999
6.0898e-05
3.0603e-05
1.54395e-05
8.34014e-06
5.16664e-06
3.72977e-06
2.96395e-06
2.44261e-06
2.01124e-06
1.61558e-06
1.26915e-06
9.79078e-07
7.37794e-07
5.32729e-07
3.72385e-07
2.52045e-07
1.65459e-07
1.05747e-07
6.58464e-08
4.01154e-08
2.39723e-08
1.40896e-08
8.15096e-09
4.64996e-09
2.61886e-09
1.45754e-09
8.02328e-10
4.37374e-10
2.36075e-10
1.26317e-10
6.70484e-11
3.53322e-11
1.84895e-11
9.61341e-12
4.96636e-12
2.5475e-12
1.2948e-12
6.48811e-13
3.16861e-13
1.46756e-13
5.97087e-14
1.3802e-14
0.0496985
0.0496944
0.0496884
0.0496793
0.0496656
0.0496452
0.0496151
0.0495711
0.0495079
0.0494186
0.0492953
0.0491282
0.0489052
0.048612
0.0482335
0.0477545
0.047159
0.0464357
0.0456123
0.0446488
0.0435689
0.042369
0.0410596
0.0396107
0.0381207
0.0365647
0.0349584
0.0332841
0.0316212
0.0299289
0.0282423
0.0265903
0.0249584
0.0233621
0.0218029
0.0202921
0.0188368
0.017439
0.0160999
0.0148201
0.0135855
0.0124094
0.0113034
0.0102341
0.00921421
0.00823779
0.00731423
0.00641326
0.00551916
0.00461272
0.00367428
0.00269997
0.00181419
0.00114689
0.00069049
0.000397771
0.000220413
0.000117689
6.06684e-05
3.04625e-05
1.5365e-05
8.30528e-06
5.15167e-06
3.72299e-06
2.96034e-06
2.43953e-06
2.00829e-06
1.61275e-06
1.26652e-06
9.77167e-07
7.36129e-07
5.31346e-07
3.71293e-07
2.51231e-07
1.64884e-07
1.0536e-07
6.55956e-08
3.99589e-08
2.38773e-08
1.40331e-08
8.118e-09
4.63103e-09
2.60816e-09
1.45157e-09
7.99044e-10
4.3559e-10
2.35116e-10
1.25806e-10
6.67785e-11
3.5191e-11
1.84161e-11
9.57555e-12
4.94697e-12
2.53765e-12
1.28983e-12
6.46341e-13
3.15662e-13
1.46202e-13
5.9484e-14
1.37501e-14
0.0496985
0.0496944
0.0496884
0.0496793
0.0496656
0.0496452
0.0496151
0.0495712
0.049508
0.0494188
0.0492956
0.0491286
0.0489057
0.0486126
0.0482343
0.0477555
0.0471603
0.0464373
0.045614
0.044651
0.0435712
0.0423715
0.0410622
0.0396133
0.0381233
0.0365672
0.0349607
0.0332861
0.031623
0.0299304
0.0282435
0.0265911
0.0249588
0.0233621
0.0218026
0.0202914
0.0188357
0.0174376
0.0160983
0.0148181
0.0135833
0.012407
0.0113008
0.0102313
0.00921108
0.00823441
0.00731059
0.00640933
0.00551486
0.00460804
0.0036693
0.00269443
0.00180948
0.0011434
0.000688023
0.000396335
0.000219704
0.000117316
6.04683e-05
3.03573e-05
1.53134e-05
8.28201e-06
5.14185e-06
3.7186e-06
2.95801e-06
2.43751e-06
2.00635e-06
1.61087e-06
1.26477e-06
9.759e-07
7.35016e-07
5.30428e-07
3.70572e-07
2.5069e-07
1.64497e-07
1.05099e-07
6.54268e-08
3.98531e-08
2.38128e-08
1.39948e-08
8.09569e-09
4.61829e-09
2.601e-09
1.44761e-09
7.96875e-10
4.34419e-10
2.34489e-10
1.25473e-10
6.66037e-11
3.50998e-11
1.83688e-11
9.55109e-12
4.93438e-12
2.53121e-12
1.28657e-12
6.4471e-13
3.14866e-13
1.45834e-13
5.93344e-14
1.37155e-14
0.0496985
0.0496944
0.0496884
0.0496793
0.0496656
0.0496453
0.0496152
0.0495712
0.0495081
0.0494189
0.0492957
0.0491287
0.0489059
0.0486129
0.0482347
0.0477561
0.0471609
0.046438
0.0456148
0.044652
0.0435724
0.0423727
0.0410635
0.0396146
0.0381246
0.0365684
0.0349618
0.0332871
0.0316238
0.0299312
0.028244
0.0265915
0.024959
0.0233621
0.0218024
0.020291
0.0188352
0.0174369
0.0160975
0.0148172
0.0135822
0.0124058
0.0112995
0.0102299
0.00920959
0.00823283
0.00730896
0.00640767
0.0055132
0.0046063
0.00366709
0.00268985
0.00180635
0.00114164
0.000687544
0.00039456
0.000218805
0.000116864
6.02449e-05
3.02512e-05
1.52661e-05
8.26245e-06
5.13408e-06
3.71527e-06
2.95633e-06
2.43626e-06
2.00525e-06
1.60988e-06
1.26388e-06
9.75256e-07
7.34466e-07
5.29977e-07
3.70218e-07
2.50423e-07
1.64302e-07
1.04963e-07
6.53351e-08
3.97943e-08
2.37765e-08
1.39731e-08
8.08305e-09
4.61108e-09
2.59695e-09
1.44536e-09
7.95653e-10
4.33762e-10
2.34139e-10
1.25289e-10
6.65074e-11
3.505e-11
1.83432e-11
9.53802e-12
4.92775e-12
2.52787e-12
1.2849e-12
6.43879e-13
3.14464e-13
1.45649e-13
5.92592e-14
1.36981e-14
0.0496985
0.0496944
0.0496884
0.0496793
0.0496656
0.0496453
0.0496152
0.0495712
0.0495081
0.0494189
0.0492957
0.0491287
0.0489059
0.0486129
0.0482347
0.0477561
0.047161
0.046438
0.0456149
0.0446521
0.0435724
0.0423727
0.0410635
0.0396146
0.0381246
0.0365684
0.0349618
0.0332871
0.0316238
0.0299311
0.028244
0.0265915
0.024959
0.0233621
0.0218024
0.020291
0.0188352
0.017437
0.0160975
0.0148172
0.0135822
0.0124059
0.0112995
0.0102299
0.00920956
0.00823283
0.00730909
0.00640814
0.00551446
0.00460933
0.003674
0.00268593
0.00180552
0.00114207
0.000688873
0.000393469
0.000218283
0.000116624
6.01389e-05
3.02055e-05
1.52467e-05
8.25408e-06
5.13034e-06
3.71351e-06
2.95547e-06
2.43579e-06
2.00498e-06
1.60972e-06
1.2638e-06
9.75207e-07
7.3444e-07
5.29963e-07
3.70209e-07
2.50416e-07
1.64296e-07
1.04957e-07
6.53305e-08
3.9791e-08
2.37742e-08
1.39717e-08
8.0822e-09
4.61058e-09
2.59666e-09
1.44521e-09
7.95569e-10
4.33717e-10
2.34116e-10
1.25277e-10
6.65016e-11
3.50472e-11
1.83419e-11
9.5374e-12
4.92747e-12
2.52774e-12
1.28484e-12
6.43855e-13
3.14454e-13
1.45645e-13
5.92576e-14
1.36977e-14
0.0496985
0.0496944
0.0496884
0.0496793
0.0496656
0.0496452
0.0496151
0.0495712
0.049508
0.0494188
0.0492956
0.0491286
0.0489057
0.0486126
0.0482343
0.0477556
0.0471604
0.0464373
0.045614
0.044651
0.0435712
0.0423715
0.0410622
0.0396133
0.0381233
0.0365672
0.0349607
0.0332861
0.0316229
0.0299304
0.0282434
0.0265911
0.0249588
0.0233621
0.0218026
0.0202914
0.0188358
0.0174377
0.0160984
0.0148183
0.0135834
0.0124071
0.0113008
0.0102312
0.00921094
0.00823418
0.00731032
0.00640912
0.00551489
0.00460856
0.00367067
0.00269547
0.00181108
0.00114538
0.000690818
0.000394358
0.000218718
0.000116847
6.02541e-05
3.0264e-05
1.52747e-05
8.26654e-06
5.13553e-06
3.71573e-06
2.9565e-06
2.43661e-06
2.00577e-06
1.61051e-06
1.26457e-06
9.75774e-07
7.34949e-07
5.30389e-07
3.70548e-07
2.50673e-07
1.6448e-07
1.05081e-07
6.54116e-08
3.9842e-08
2.38054e-08
1.39902e-08
8.09297e-09
4.61674e-09
2.60013e-09
1.44713e-09
7.96622e-10
4.34287e-10
2.34421e-10
1.25439e-10
6.6587e-11
3.50918e-11
1.8365e-11
9.54935e-12
4.93361e-12
2.53087e-12
1.28642e-12
6.44646e-13
3.14839e-13
1.45823e-13
5.93302e-14
1.37145e-14
0.0496985
0.0496944
0.0496884
0.0496793
0.0496656
0.0496452
0.0496151
0.0495711
0.0495079
0.0494187
0.0492953
0.0491282
0.0489052
0.048612
0.0482335
0.0477545
0.0471591
0.0464358
0.0456123
0.0446488
0.0435689
0.042369
0.0410596
0.0396107
0.0381207
0.0365647
0.0349583
0.033284
0.0316211
0.0299288
0.0282422
0.0265902
0.0249583
0.023362
0.0218029
0.0202921
0.0188369
0.0174392
0.0161002
0.0148203
0.0135857
0.0124097
0.0113036
0.0102342
0.00921408
0.00823755
0.00731398
0.0064132
0.00551967
0.00461449
0.00367846
0.00269777
0.00181421
0.00114807
0.000692791
0.000395628
0.000219494
0.0001173
6.05066e-05
3.03965e-05
1.5339e-05
8.29524e-06
5.14743e-06
3.72076e-06
2.95889e-06
2.4385e-06
2.00756e-06
1.61226e-06
1.26621e-06
9.76976e-07
7.36014e-07
5.31285e-07
3.71266e-07
2.51207e-07
1.6486e-07
1.05342e-07
6.55828e-08
3.995e-08
2.38715e-08
1.40295e-08
8.11593e-09
4.62988e-09
2.60753e-09
1.45124e-09
7.98872e-10
4.35503e-10
2.35072e-10
1.25784e-10
6.67683e-11
3.51862e-11
1.84139e-11
9.57449e-12
4.94645e-12
2.5374e-12
1.28971e-12
6.46281e-13
3.15634e-13
1.4619e-13
5.94791e-14
1.37489e-14
0.0496985
0.0496944
0.0496884
0.0496793
0.0496656
0.0496452
0.049615
0.049571
0.0495077
0.0494184
0.049295
0.0491277
0.0489045
0.048611
0.0482322
0.0477529
0.0471571
0.0464335
0.0456097
0.0446454
0.0435651
0.042365
0.0410554
0.0396065
0.0381166
0.0365607
0.0349546
0.0332806
0.0316181
0.0299263
0.0282403
0.0265888
0.0249575
0.0233618
0.0218034
0.0202931
0.0188385
0.0174413
0.0161028
0.0148234
0.0135893
0.0124136
0.0113078
0.0102387
0.00921896
0.00824278
0.00731959
0.0064194
0.00552672
0.00462292
0.00368937
0.00270277
0.00181891
0.00115174
0.00069541
0.000397527
0.000220654
0.000117978
6.08857e-05
3.05967e-05
1.54372e-05
8.33931e-06
5.16599e-06
3.72869e-06
2.96265e-06
2.44144e-06
2.01036e-06
1.615e-06
1.26882e-06
9.78884e-07
7.377e-07
5.32683e-07
3.7234e-07
2.52007e-07
1.65435e-07
1.05732e-07
6.5838e-08
4.0111e-08
2.397e-08
1.40884e-08
8.15031e-09
4.6496e-09
2.61866e-09
1.45743e-09
8.02265e-10
4.37339e-10
2.36055e-10
1.26306e-10
6.70423e-11
3.53289e-11
1.84877e-11
9.61243e-12
4.96584e-12
2.54724e-12
1.29467e-12
6.48746e-13
3.1683e-13
1.46742e-13
5.97031e-14
1.38007e-14
0.0496985
0.0496944
0.0496884
0.0496792
0.0496655
0.0496451
0.0496149
0.0495708
0.0495075
0.049418
0.0492944
0.049127
0.0489035
0.0486097
0.0482305
0.0477507
0.0471544
0.0464303
0.045606
0.0446407
0.0435598
0.0423593
0.0410495
0.0396006
0.0381107
0.036555
0.0349491
0.0332757
0.0316138
0.0299225
0.0282373
0.0265866
0.0249561
0.0233613
0.0218037
0.0202943
0.0188404
0.017444
0.0161062
0.0148275
0.0135939
0.0124187
0.0113134
0.0102448
0.00922548
0.00824968
0.00732682
0.00642684
0.00553415
0.00462971
0.0036937
0.00271837
0.0018292
0.00115796
0.000698001
0.000402327
0.000223204
0.00011932
6.15752e-05
3.09384e-05
1.55958e-05
8.40805e-06
5.1942e-06
3.74064e-06
2.96824e-06
2.44557e-06
2.01412e-06
1.61859e-06
1.27215e-06
9.81308e-07
7.39807e-07
5.34428e-07
3.73747e-07
2.53077e-07
1.66197e-07
1.06248e-07
6.61747e-08
4.03232e-08
2.41e-08
1.4166e-08
8.1957e-09
4.67566e-09
2.63337e-09
1.46561e-09
8.06754e-10
4.39768e-10
2.37357e-10
1.26996e-10
6.74052e-11
3.55179e-11
1.85855e-11
9.66273e-12
4.99155e-12
2.56029e-12
1.30124e-12
6.52015e-13
3.18417e-13
1.47474e-13
6.00003e-14
1.38693e-14
0.0496985
0.0496944
0.0496884
0.0496792
0.0496655
0.049645
0.0496147
0.0495706
0.0495071
0.0494175
0.0492938
0.049126
0.0489022
0.048608
0.0482281
0.0477478
0.0471509
0.0464261
0.0456012
0.0446346
0.0435533
0.0423523
0.0410421
0.039593
0.0381031
0.0365476
0.0349421
0.0332692
0.0316079
0.0299173
0.028233
0.0265834
0.0249539
0.0233601
0.0218036
0.0202953
0.0188424
0.017447
0.0161101
0.0148322
0.0135995
0.012425
0.0113204
0.0102525
0.0092337
0.00825847
0.00733612
0.00643674
0.00554484
0.00464135
0.0037065
0.00273528
0.00184288
0.00116818
0.000706074
0.000404042
0.000224667
0.000120316
6.21778e-05
3.12684e-05
1.57604e-05
8.48257e-06
5.22548e-06
3.75401e-06
2.97471e-06
2.45069e-06
2.0189e-06
1.62321e-06
1.27651e-06
9.84496e-07
7.42658e-07
5.36776e-07
3.75584e-07
2.54446e-07
1.67167e-07
1.06902e-07
6.66004e-08
4.05908e-08
2.42636e-08
1.42634e-08
8.25259e-09
4.70827e-09
2.65176e-09
1.47582e-09
8.1235e-10
4.42794e-10
2.38977e-10
1.27855e-10
6.78562e-11
3.57526e-11
1.8707e-11
9.72515e-12
5.02344e-12
2.57648e-12
1.3094e-12
6.56069e-13
3.20385e-13
1.48382e-13
6.0369e-14
1.39544e-14
0.0496985
0.0496944
0.0496883
0.0496792
0.0496654
0.0496449
0.0496146
0.0495703
0.0495067
0.0494169
0.0492929
0.0491248
0.0489005
0.0486057
0.0482251
0.0477441
0.0471464
0.0464207
0.0455949
0.0446266
0.0435445
0.0423428
0.0410321
0.0395829
0.0380929
0.0365378
0.0349328
0.0332606
0.0316001
0.0299104
0.0282272
0.0265787
0.0249505
0.0233581
0.0218029
0.0202959
0.0188444
0.0174502
0.0161144
0.0148376
0.013606
0.0124325
0.0113288
0.0102617
0.00924386
0.00826943
0.00734778
0.00644919
0.00555826
0.00465616
0.00372341
0.00275429
0.00185844
0.00117951
0.000713809
0.000408618
0.000227437
0.000121923
6.30704e-05
3.17414e-05
1.59913e-05
8.58583e-06
5.2687e-06
3.77238e-06
2.98352e-06
2.45748e-06
2.02528e-06
1.62926e-06
1.28207e-06
9.88566e-07
7.46169e-07
5.39691e-07
3.77869e-07
2.56141e-07
1.68363e-07
1.07705e-07
6.71215e-08
4.09176e-08
2.44628e-08
1.43817e-08
8.32152e-09
4.74768e-09
2.67393e-09
1.48811e-09
8.19071e-10
4.4642e-10
2.40916e-10
1.28881e-10
6.83945e-11
3.60324e-11