/*--------------------------------*- C++ -*----------------------------------*\
  =========                 |
  \\      /  F ield         | OpenFOAM: The Open Source CFD Toolbox
   \\    /   O peration     | Website:  https://openfoam.org
    \\  /    A nd           | Version:  10
     \\/     M anipulation  |
\*---------------------------------------------------------------------------*/
FoamFile
{
    format      ascii;
    class       volScalarField;
    location    "1";
    object      H2NN;
}
// * * * * * * * * * * * * * * * * * * * * * * * * * * * * * * * * * * * * * //

dimensions      [0 0 0 0 0 0 0];

internalField   nonuniform List<scalar> 
4000
(
8.26613e-15
3.15122e-14
6.57404e-14
1.17394e-13
1.94965e-13
3.10619e-13
4.81587e-13
7.31603e-13
1.09215e-12
1.60317e-12
2.31365e-12
3.28405e-12
4.58962e-12
6.3221e-12
8.5886e-12
1.1497e-11
1.52103e-11
1.99153e-11
2.56433e-11
3.32495e-11
4.31059e-11
5.70246e-11
7.83212e-11
1.10932e-10
1.63532e-10
2.49449e-10
3.90538e-10
6.21412e-10
9.85343e-10
1.54733e-09
2.35118e-09
3.3957e-09
4.63194e-09
5.98921e-09
7.42334e-09
8.93988e-09
1.05801e-08
1.24165e-08
1.45408e-08
1.7019e-08
1.99368e-08
2.33018e-08
2.70859e-08
3.12302e-08
3.56486e-08
3.99006e-08
4.33156e-08
4.50072e-08
4.38689e-08
3.88291e-08
2.96212e-08
1.82428e-08
1.00518e-08
5.4912e-09
2.9601e-09
1.56768e-09
8.11682e-10
4.09611e-10
2.00627e-10
9.51085e-11
4.35848e-11
1.98448e-11
9.15417e-12
4.07474e-12
1.64276e-12
5.86528e-13
1.90541e-13
5.60221e-14
1.41048e-14
3.16525e-15
6.4961e-16
1.25023e-16
2.58314e-17
5.96092e-18
1.52886e-18
4.30735e-19
1.2944e-19
4.05354e-20
1.29878e-20
4.20414e-21
1.36633e-21
4.43485e-22
1.43631e-22
4.63257e-23
1.49033e-23
4.77558e-24
1.52521e-24
4.8549e-25
1.54083e-25
4.87448e-26
1.5406e-26
4.86056e-27
1.53129e-27
4.81859e-28
1.5148e-28
4.75718e-29
1.49078e-29
4.63039e-30
1.37108e-30
2.62392e-31
8.23153e-15
3.13796e-14
6.5464e-14
1.16911e-13
1.94187e-13
3.09404e-13
4.7972e-13
7.28741e-13
1.08772e-12
1.59618e-12
2.30246e-12
3.26612e-12
4.56065e-12
6.27712e-12
8.52224e-12
1.14028e-11
1.50698e-11
1.97063e-11
2.53557e-11
3.28799e-11
4.25839e-11
5.61833e-11
7.69684e-11
1.08895e-10
1.60274e-10
2.44359e-10
3.82415e-10
6.09835e-10
9.68075e-10
1.5236e-09
2.32183e-09
3.36112e-09
4.59906e-09
5.96535e-09
7.41084e-09
8.93966e-09
1.05935e-08
1.24455e-08
1.45871e-08
1.70864e-08
2.00298e-08
2.34244e-08
2.72376e-08
3.14162e-08
3.58659e-08
4.01381e-08
4.35474e-08
4.51959e-08
4.39655e-08
3.87795e-08
2.94031e-08
1.7948e-08
9.87739e-09
5.39353e-09
2.90663e-09
1.53992e-09
7.91415e-10
3.98805e-10
1.95011e-10
9.23482e-11
4.2022e-11
1.91464e-11
8.84157e-12
3.91918e-12
1.56341e-12
5.56253e-13
1.79294e-13
5.21664e-14
1.29435e-14
2.86244e-15
5.82231e-16
1.12317e-16
2.33409e-17
5.38889e-18
1.3926e-18
3.94854e-19
1.19615e-19
3.77565e-20
1.21879e-20
3.97001e-21
1.29752e-21
4.23189e-22
1.37509e-22
4.45306e-23
1.43407e-23
4.60069e-24
1.47182e-24
4.69217e-25
1.49178e-25
4.7339e-26
1.49658e-26
4.72489e-27
1.48942e-27
4.68873e-28
1.47442e-28
4.63157e-29
1.45182e-29
4.51089e-30
1.33623e-30
2.5579e-31
8.20468e-15
3.12794e-14
6.52628e-14
1.16568e-13
1.93644e-13
3.08585e-13
4.78465e-13
7.26729e-13
1.08436e-12
1.5904e-12
2.29228e-12
3.24775e-12
4.53044e-12
6.22987e-12
8.4508e-12
1.12993e-11
1.49303e-11
1.95008e-11
2.50583e-11
3.24482e-11
4.19576e-11
5.52873e-11
7.53662e-11
1.07004e-10
1.56964e-10
2.38868e-10
3.7339e-10
5.95563e-10
9.46021e-10
1.49219e-09
2.28116e-09
3.31641e-09
4.55891e-09
5.93517e-09
7.39728e-09
8.94419e-09
1.06173e-08
1.24917e-08
1.46608e-08
1.71971e-08
2.018e-08
2.3618e-08
2.74803e-08
3.17167e-08
3.6216e-08
4.05171e-08
4.39136e-08
4.54899e-08
4.40985e-08
3.86714e-08
2.90291e-08
1.74412e-08
9.59984e-09
5.23643e-09
2.81718e-09
1.49063e-09
7.64845e-10
3.84539e-10
1.87589e-10
8.87662e-11
3.99543e-11
1.82563e-11
8.44151e-12
3.71596e-12
1.46484e-12
5.1776e-13
1.65046e-13
4.7399e-14
1.15562e-14
2.51833e-15
5.08886e-16
9.84313e-17
2.06505e-17
4.8286e-18
1.25905e-18
3.60178e-19
1.09888e-19
3.48992e-20
1.13209e-20
3.68793e-21
1.20804e-21
3.95172e-22
1.28921e-22
4.1902e-23
1.35609e-23
4.36952e-24
1.40277e-24
4.482e-25
1.42712e-25
4.53124e-26
1.43623e-26
4.5377e-27
1.43094e-27
4.50586e-28
1.41719e-28
4.4523e-29
1.39574e-29
4.33709e-30
1.28495e-30
2.46017e-31
8.16243e-15
3.11175e-14
6.49211e-14
1.15946e-13
1.92581e-13
3.06822e-13
4.75603e-13
7.22162e-13
1.07717e-12
1.57925e-12
2.27532e-12
3.22285e-12
4.49384e-12
6.17649e-12
8.37411e-12
1.11914e-11
1.478e-11
1.93099e-11
2.48114e-11
3.20781e-11
4.14187e-11
5.44662e-11
7.40581e-11
1.05012e-10
1.53862e-10
2.33832e-10
3.64916e-10
5.82226e-10
9.25588e-10
1.46364e-09
2.24451e-09
3.27579e-09
4.5226e-09
5.9104e-09
7.39071e-09
8.95817e-09
1.06539e-08
1.25553e-08
1.47601e-08
1.7333e-08
2.03654e-08
2.38636e-08
2.77926e-08
3.20933e-08
3.66502e-08
4.09836e-08
4.43565e-08
4.58394e-08
4.42498e-08
3.85203e-08
2.85664e-08
1.68607e-08
9.27609e-09
5.05419e-09
2.71481e-09
1.43191e-09
7.3292e-10
3.67155e-10
1.784e-10
8.40805e-11
3.77092e-11
1.72698e-11
7.98881e-12
3.49418e-12
1.36182e-12
4.75299e-13
1.49806e-13
4.24525e-14
1.01896e-14
2.18642e-15
4.39724e-16
8.55375e-17
1.80178e-17
4.23183e-18
1.10705e-18
3.17121e-19
9.67453e-20
3.07209e-20
9.98623e-21
3.30191e-21
1.09384e-21
3.59768e-22
1.18025e-22
3.85656e-23
1.25408e-23
4.05859e-24
1.30873e-24
4.19918e-25
1.34219e-25
4.27521e-26
1.35814e-26
4.30161e-27
1.35931e-27
4.28717e-28
1.34999e-28
4.2448e-29
1.33147e-29
4.13893e-30
1.22647e-30
2.34824e-31
8.11851e-15
3.09501e-14
6.45714e-14
1.15319e-13
1.91531e-13
3.05127e-13
4.7293e-13
7.18012e-13
1.07081e-12
1.56958e-12
2.26077e-12
3.20123e-12
4.46219e-12
6.13104e-12
8.31006e-12
1.11031e-11
1.46595e-11
1.91459e-11
2.45857e-11
3.17645e-11
4.09839e-11
5.38184e-11
7.297e-11
1.03314e-10
1.5101e-10
2.28966e-10
3.5726e-10
5.70292e-10
9.07706e-10
1.43795e-09
2.21336e-09
3.24305e-09
4.49493e-09
5.89381e-09
7.39246e-09
8.98106e-09
1.07003e-08
1.26319e-08
1.48699e-08
1.74889e-08
2.05702e-08
2.41266e-08
2.8123e-08
3.24915e-08
3.71064e-08
4.14685e-08
4.48082e-08
4.61766e-08
4.4368e-08
3.83154e-08
2.80266e-08
1.62886e-08
8.95363e-09
4.87214e-09
2.61267e-09
1.37562e-09
7.03431e-10
3.51442e-10
1.70227e-10
7.99454e-11
3.58326e-11
1.64572e-11
7.60025e-12
3.28925e-12
1.26589e-12
4.37115e-13
1.36333e-13
3.81681e-14
9.02104e-15
1.90574e-15
3.81986e-16
7.42809e-17
1.57601e-17
3.72918e-18
9.82522e-19
2.83237e-19
8.68921e-20
2.77318e-20
9.04787e-21
2.98119e-21
9.87272e-22
3.27909e-22
1.08403e-22
3.56295e-23
1.16141e-23
3.76916e-24
1.21916e-24
3.92299e-25
1.25726e-25
4.01433e-26
1.27807e-26
4.05521e-27
1.28326e-27
4.05189e-28
1.27705e-28
4.01829e-29
1.26111e-29
3.92182e-30
1.16248e-30
2.22607e-31
8.0724e-15
3.07739e-14
6.42021e-14
1.14655e-13
1.90417e-13
3.03332e-13
4.70109e-13
7.13667e-13
1.06422e-12
1.55972e-12
2.24618e-12
3.17995e-12
4.4318e-12
6.08858e-12
8.25205e-12
1.10259e-11
1.45586e-11
1.90159e-11
2.44185e-11
3.15238e-11
4.06443e-11
5.33079e-11
7.20727e-11
1.01872e-10
1.48576e-10
2.2516e-10
3.51082e-10
5.60607e-10
8.92774e-10
1.41773e-09
2.18905e-09
3.21819e-09
4.47556e-09
5.88575e-09
7.40161e-09
9.01142e-09
1.07553e-08
1.27158e-08
1.49899e-08
1.76488e-08
2.07821e-08
2.44016e-08
2.84572e-08
3.28865e-08
3.75526e-08
4.19376e-08
4.52422e-08
4.64961e-08
4.44567e-08
3.80813e-08
2.74891e-08
1.57544e-08
8.65076e-09
4.70061e-09
2.51601e-09
1.31963e-09
6.73351e-10
3.35084e-10
1.61609e-10
7.55981e-11
3.39576e-11
1.56416e-11
7.22622e-12
3.10261e-12
1.18295e-12
4.05028e-13
1.25701e-13
3.39617e-14
7.9346e-15
1.66231e-15
3.30913e-16
6.46164e-17
1.3817e-17
3.29761e-18
8.76116e-19
2.54482e-19
7.85732e-20
2.52149e-20
8.26625e-21
2.73588e-21
9.07687e-22
3.00734e-22
9.93032e-23
3.26629e-23
1.07269e-23
3.50142e-24
1.13791e-24
3.67462e-25
1.18098e-25
3.77916e-26
1.20542e-26
3.8293e-27
1.2117e-27
3.82653e-28
1.20633e-28
3.79681e-29
1.19191e-29
3.70748e-30
1.09914e-30
2.10496e-31
8.02744e-15
3.06024e-14
6.38433e-14
1.14011e-13
1.89342e-13
3.01608e-13
4.67421e-13
7.09559e-13
1.05805e-12
1.55057e-12
2.2328e-12
3.16065e-12
4.40452e-12
6.05088e-12
8.20109e-12
1.09588e-11
1.44713e-11
1.89032e-11
2.42718e-11
3.13086e-11
4.03456e-11
5.28858e-11
7.13367e-11
1.00664e-10
1.467e-10
2.22166e-10
3.46308e-10
5.5329e-10
8.81717e-10
1.40261e-09
2.17096e-09
3.19998e-09
4.4629e-09
5.88406e-09
7.41561e-09
9.04459e-09
1.08111e-08
1.27989e-08
1.51035e-08
1.78019e-08
2.09867e-08
2.46616e-08
2.87749e-08
3.32617e-08
3.79733e-08
4.23732e-08
4.56329e-08
4.67743e-08
4.45065e-08
3.78383e-08
2.69744e-08
1.52398e-08
8.36312e-09
4.54053e-09
2.42838e-09
1.26524e-09
6.45576e-10
3.20543e-10
1.54147e-10
7.16932e-11
3.25948e-11
1.50412e-11
6.92128e-12
2.94696e-12
1.11414e-12
3.78692e-13
1.16658e-13
3.11805e-14
7.22056e-15
1.49641e-15
2.97405e-16
5.82623e-17
1.2536e-17
3.01102e-18
8.04783e-19
2.34946e-19
7.28225e-20
2.34398e-20
7.70284e-21
2.55499e-21
8.49229e-22
2.8184e-22
9.31999e-23
3.06772e-23
1.00468e-23
3.27336e-24
1.06265e-24
3.4294e-25
1.10195e-25
3.52668e-26
1.12548e-26
3.57895e-27
1.1363e-27
3.59756e-28
1.13631e-28
3.58146e-29
1.12543e-29
3.50299e-30
1.0389e-30
1.98987e-31
7.98503e-15
3.04406e-14
6.3505e-14
1.13405e-13
1.88332e-13
2.99992e-13
4.64909e-13
7.05739e-13
1.05234e-12
1.54218e-12
2.22061e-12
3.14324e-12
4.38015e-12
6.01755e-12
8.15653e-12
1.09008e-11
1.43969e-11
1.88086e-11
2.41508e-11
3.1129e-11
4.01089e-11
5.25311e-11
7.07727e-11
9.97982e-11
1.45299e-10
2.19815e-10
3.4252e-10
5.4739e-10
8.7327e-10
1.39144e-09
2.15771e-09
3.18752e-09
4.45596e-09
5.88734e-09
7.43324e-09
9.08037e-09
1.08665e-08
1.28781e-08
1.52118e-08
1.79449e-08
2.11656e-08
2.4883e-08
2.90407e-08
3.35735e-08
3.8323e-08
4.27373e-08
4.59633e-08
4.70015e-08
4.45482e-08
3.76359e-08
2.65909e-08
1.4761e-08
8.10303e-09
4.3998e-09
2.35584e-09
1.21617e-09
6.20595e-10
3.07608e-10
1.47519e-10
6.84347e-11
3.1147e-11
1.44133e-11
6.62781e-12
2.80149e-12
1.04979e-12
3.54521e-13
1.08618e-13
2.8584e-14
6.58358e-15
1.35437e-15
2.69219e-16
5.30192e-17
1.14739e-17
2.77172e-18
7.44618e-19
2.1826e-19
6.78407e-20
2.18801e-20
7.20158e-21
2.39239e-21
7.96281e-22
2.64641e-22
8.76378e-23
2.88874e-23
9.47352e-24
3.0912e-24
1.00348e-24
3.24194e-25
1.04268e-25
3.33954e-26
1.06652e-26
3.39235e-27
1.07598e-27
3.40448e-28
1.07497e-28
3.38779e-29
1.06464e-29
3.31443e-30
9.8323e-31
1.88367e-31
7.94646e-15
3.02935e-14
6.31979e-14
1.12856e-13
1.87418e-13
2.98535e-13
4.62652e-13
7.02323e-13
1.04727e-12
1.53476e-12
2.2099e-12
3.12804e-12
4.35903e-12
5.9889e-12
8.11856e-12
1.08519e-11
1.43352e-11
1.87322e-11
2.40579e-11
3.09903e-11
3.99148e-11
5.2258e-11
7.03349e-11
9.90781e-11
1.44126e-10
2.17991e-10
3.39685e-10
5.43117e-10
8.67046e-10
1.38292e-09
2.14774e-09
3.17882e-09
4.45273e-09
5.89373e-09
7.45293e-09
9.11564e-09
1.09196e-08
1.29528e-08
1.53137e-08
1.80815e-08
2.13443e-08
2.51068e-08
2.93083e-08
3.38828e-08
3.86609e-08
4.30706e-08
4.62482e-08
4.71764e-08
4.45465e-08
3.73946e-08
2.61535e-08
1.44489e-08
7.92372e-09
4.29685e-09
2.2957e-09
1.18629e-09
6.0357e-10
2.98192e-10
1.42575e-10
6.59667e-11
3.00137e-11
1.39205e-11
6.38627e-12
2.67882e-12
9.94732e-13
3.3278e-13
1.01037e-13
2.63274e-14
6.0354e-15
1.22792e-15
2.43412e-16
4.81306e-17
1.04828e-17
2.54917e-18
6.8888e-19
2.02886e-19
6.32797e-20
2.04628e-20
6.74989e-21
2.24694e-21
7.49288e-22
2.49479e-22
8.27618e-23
2.73252e-23
8.97484e-24
2.93317e-24
9.53392e-25
3.08366e-25
9.92786e-26
3.18259e-26
1.01731e-26
3.23791e-27
1.02749e-27
3.25214e-28
1.0271e-28
3.23726e-29
1.01736e-29
3.1671e-30
9.39444e-31
1.79962e-31
7.91224e-15
3.0163e-14
6.29257e-14
1.12369e-13
1.8661e-13
2.9725e-13
4.60666e-13
6.99326e-13
1.04283e-12
1.52831e-12
2.20065e-12
3.115e-12
4.34101e-12
5.96452e-12
8.08628e-12
1.08103e-11
1.42822e-11
1.86655e-11
2.39726e-11
3.08633e-11
3.97512e-11
5.20205e-11
6.99832e-11
9.85531e-11
1.43277e-10
2.16599e-10
3.37468e-10
5.39803e-10
8.62116e-10
1.37629e-09
2.14064e-09
3.17324e-09
4.45168e-09
5.9018e-09
7.47252e-09
9.14899e-09
1.09689e-08
1.30214e-08
1.54072e-08
1.8203e-08
2.14998e-08
2.53003e-08
2.95391e-08
3.41492e-08
3.89475e-08
4.33531e-08
4.6486e-08
4.7305e-08
4.45061e-08
3.71391e-08
2.57277e-08
1.42362e-08
7.79647e-09
4.22202e-09
2.25384e-09
1.15959e-09
5.89131e-10
2.90616e-10
1.3871e-10
6.40735e-11
2.91398e-11
1.35272e-11
6.19121e-12
2.59085e-12
9.38529e-13
3.12627e-13
9.43397e-14
2.44308e-14
5.58145e-15
1.13091e-15
2.24138e-16
4.44796e-17
9.73693e-18
2.38012e-18
6.46117e-19
1.91012e-19
5.97496e-20
1.93672e-20
6.40087e-21
2.13454e-21
7.129e-22
2.37693e-22
7.89508e-23
2.60968e-23
8.5802e-24
2.80733e-24
9.13294e-25
2.95633e-25
9.52484e-26
3.0554e-26
9.772e-27
3.11172e-27
9.87835e-28
3.12765e-28
9.88024e-29
3.11464e-29
9.78923e-30
3.04753e-30
9.03952e-31
1.73156e-31
7.88251e-15
3.00498e-14
6.26895e-14
1.11948e-13
1.85911e-13
2.96138e-13
4.58953e-13
6.96747e-13
1.03903e-12
1.52281e-12
2.19284e-12
3.1041e-12
4.32613e-12
5.9447e-12
8.05986e-12
1.07771e-11
1.42416e-11
1.86169e-11
2.39119e-11
3.07708e-11
3.96288e-11
5.18437e-11
6.9715e-11
9.81218e-11
1.42603e-10
2.15533e-10
3.35817e-10
5.37305e-10
8.58531e-10
1.37165e-09
2.13592e-09
3.17044e-09
4.45388e-09
5.91091e-09
7.49105e-09
9.17887e-09
1.10117e-08
1.30803e-08
1.54862e-08
1.83059e-08
2.16312e-08
2.54636e-08
2.97338e-08
3.4376e-08
3.91937e-08
4.35952e-08
4.66798e-08
4.73994e-08
4.44511e-08
3.69022e-08
2.53769e-08
1.40102e-08
7.66977e-09
4.15041e-09
2.21291e-09
1.13686e-09
5.76635e-10
2.83912e-10
1.35248e-10
6.23761e-11
2.83862e-11
1.31959e-11
6.02285e-12
2.5035e-12
9.02707e-13
2.98674e-13
8.96046e-14
2.30342e-14
5.24359e-15
1.05998e-15
2.10162e-16
4.18139e-17
9.1877e-18
2.25555e-18
6.14653e-19
1.8229e-19
5.71567e-20
1.85621e-20
6.1427e-21
2.05107e-21
6.85724e-22
2.28826e-22
7.60602e-23
2.51568e-23
8.27564e-24
2.70925e-24
8.81793e-25
2.8556e-25
9.2041e-26
2.95396e-26
9.44546e-27
3.00873e-27
9.55413e-28
3.02571e-28
9.56e-29
3.01409e-29
9.474e-30
2.94949e-30
8.74865e-31
1.6758e-31
7.85714e-15
2.99532e-14
6.24881e-14
1.11589e-13
1.85316e-13
2.95195e-13
4.57502e-13
6.9457e-13
1.03584e-12
1.51821e-12
2.18634e-12
3.09509e-12
4.31394e-12
5.92858e-12
8.03845e-12
1.07506e-11
1.4209e-11
1.85759e-11
2.38601e-11
3.06953e-11
3.9527e-11
5.17043e-11
6.95088e-11
9.78009e-11
1.42088e-10
2.14722e-10
3.34564e-10
5.35472e-10
8.55983e-10
1.36839e-09
2.13284e-09
3.16917e-09
4.45669e-09
5.91993e-09
7.50809e-09
9.20542e-09
1.1049e-08
1.31317e-08
1.55532e-08
1.83913e-08
2.17372e-08
2.55902e-08
2.98757e-08
3.4596e-08
3.94164e-08
4.38022e-08
4.68407e-08
4.74714e-08
4.43891e-08
3.66797e-08
2.50486e-08
1.38092e-08
7.5548e-09
4.08524e-09
2.17656e-09
1.11751e-09
5.6617e-10
2.78376e-10
1.32402e-10
6.09824e-11
2.7764e-11
1.29171e-11
5.88074e-12
2.42991e-12
8.73641e-13
2.87785e-13
8.60111e-14
2.19839e-14
4.98859e-15
1.00916e-15
2.00061e-16
3.99246e-17
8.79528e-18
2.16617e-18
5.92039e-19
1.75991e-19
5.52661e-20
1.79678e-20
5.95058e-21
1.98827e-21
6.65063e-22
2.2202e-22
7.38217e-23
2.4423e-23
8.03611e-24
2.63151e-24
8.56671e-25
2.77482e-25
8.94556e-26
2.87176e-26
9.18176e-27
2.92525e-27
9.29047e-28
2.94259e-28
9.29826e-29
2.93178e-29
9.2156e-30
2.86906e-30
8.5099e-31
1.63003e-31
7.83582e-15
2.9872e-14
6.23189e-14
1.11287e-13
1.84817e-13
2.94405e-13
4.56289e-13
6.92755e-13
1.03318e-12
1.5144e-12
2.18097e-12
3.08769e-12
4.30401e-12
5.91566e-12
8.02168e-12
1.073e-11
1.41831e-11
1.85443e-11
2.38217e-11
3.06374e-11
3.94512e-11
5.15978e-11
6.93444e-11
9.75392e-11
1.41665e-10
2.14056e-10
3.33558e-10
5.34013e-10
8.54006e-10
1.36593e-09
2.13069e-09
3.16866e-09
4.45966e-09
5.92851e-09
7.52368e-09
9.22916e-09
1.10827e-08
1.31769e-08
1.56122e-08
1.84667e-08
2.1832e-08
2.57059e-08
3.00131e-08
3.47549e-08
3.95815e-08
4.39533e-08
4.69501e-08
4.75052e-08
4.43165e-08
3.6504e-08
2.48569e-08
1.35803e-08
7.43419e-09
4.02106e-09
2.14171e-09
1.09936e-09
5.56544e-10
2.73411e-10
1.29898e-10
5.97773e-11
2.72228e-11
1.26768e-11
5.75928e-12
2.36824e-12
8.49702e-13
2.78916e-13
8.29835e-14
2.11105e-14
4.77772e-15
9.67816e-16
1.9173e-16
3.83256e-17
8.46799e-18
2.09175e-18
5.73221e-19
1.70771e-19
5.37098e-20
1.74814e-20
5.79405e-21
1.9371e-21
6.48197e-22
2.1645e-22
7.19853e-23
2.38198e-23
7.839e-24
2.56748e-24
8.35967e-25
2.7082e-25
8.73214e-26
2.80375e-26
8.96548e-27
2.85667e-27
9.07355e-28
2.87411e-28
9.08244e-29
2.86384e-29
9.00223e-30
2.80262e-30
8.31268e-31
1.59222e-31
7.81815e-15
2.98047e-14
6.21788e-14
1.11037e-13
1.84404e-13
2.93751e-13
4.55286e-13
6.91251e-13
1.03098e-12
1.51123e-12
2.17649e-12
3.08149e-12
4.2956e-12
5.90457e-12
8.00697e-12
1.07109e-11
1.416e-11
1.85169e-11
2.37901e-11
3.05908e-11
3.93931e-11
5.15158e-11
6.92216e-11
9.73471e-11
1.41365e-10
2.13582e-10
3.32841e-10
5.32975e-10
8.52593e-10
1.36419e-09
2.12924e-09
3.16859e-09
4.46289e-09
5.93632e-09
7.53732e-09
9.24969e-09
1.11111e-08
1.32151e-08
1.56624e-08
1.85312e-08
2.19137e-08
2.58072e-08
3.01348e-08
3.48936e-08
3.97265e-08
4.40864e-08
4.70455e-08
4.75301e-08
4.42384e-08
3.63091e-08
2.45872e-08
1.34812e-08
7.37242e-09
3.98354e-09
2.11987e-09
1.08737e-09
5.49944e-10
2.69866e-10
1.2808e-10
5.88833e-11
2.68207e-11
1.24917e-11
5.6628e-12
2.31887e-12
8.30554e-13
2.71749e-13
8.05745e-14
2.04162e-14
4.6111e-15
9.35079e-16
1.85246e-16
3.70955e-17
8.21627e-18
2.03467e-18
5.58768e-19
1.66731e-19
5.24896e-20
1.70943e-20
5.66762e-21
1.89521e-21
6.34243e-22
2.11807e-22
7.04476e-23
2.33137e-23
7.67354e-24
2.51377e-24
8.1862e-25
2.65246e-25
8.55382e-26
2.74698e-26
8.78517e-27
2.79956e-27
8.89308e-28
2.81718e-28
8.90312e-29
2.80743e-29
8.82514e-30
2.74751e-30
8.14916e-31
1.56088e-31
7.8038e-15
2.975e-14
6.2065e-14
1.10835e-13
1.84069e-13
2.93221e-13
4.54472e-13
6.90033e-13
1.02919e-12
1.50866e-12
2.17286e-12
3.07644e-12
4.28875e-12
5.89549e-12
7.9948e-12
1.06964e-11
1.4143e-11
1.84971e-11
2.37666e-11
3.05553e-11
3.93462e-11
5.14513e-11
6.91251e-11
9.72005e-11
1.41136e-10
2.1324e-10
3.32338e-10
5.32292e-10
8.51744e-10
1.36334e-09
2.12904e-09
3.17003e-09
4.46669e-09
5.9438e-09
7.54931e-09
9.26702e-09
1.11347e-08
1.32468e-08
1.5704e-08
1.85852e-08
2.19826e-08
2.58913e-08
3.02331e-08
3.50034e-08
3.98402e-08
4.41899e-08
4.71175e-08
4.7543e-08
4.41629e-08
3.61314e-08
2.43447e-08
1.34005e-08
7.32372e-09
3.95463e-09
2.10284e-09
1.07797e-09
5.44707e-10
2.67055e-10
1.26619e-10
5.81738e-11
2.65028e-11
1.23438e-11
5.58477e-12
2.27887e-12
8.15088e-13
2.66007e-13
7.86623e-14
1.98627e-14
4.47876e-15
9.08949e-16
1.80106e-16
3.61161e-17
8.01418e-18
1.98845e-18
5.47032e-19
1.63459e-19
5.15033e-20
1.67808e-20
5.56469e-21
1.86092e-21
6.2277e-22
2.07977e-22
6.9176e-23
2.28945e-23
7.53626e-24
2.46915e-24
8.042e-25
2.60611e-25
8.40555e-26
2.69978e-26
8.63534e-27
2.75213e-27
8.74332e-28
2.76998e-28
8.75458e-29
2.76074e-29
8.67871e-30
2.70198e-30
8.01416e-31
1.53501e-31
7.79246e-15
2.97068e-14
6.19751e-14
1.10675e-13
1.83805e-13
2.92804e-13
4.53833e-13
6.89078e-13
1.02779e-12
1.50665e-12
2.17003e-12
3.07254e-12
4.28353e-12
5.88874e-12
7.98596e-12
1.06856e-11
1.41299e-11
1.84815e-11
2.3748e-11
3.05276e-11
3.93125e-11
5.1405e-11
6.90567e-11
9.70937e-11
1.40971e-10
2.12992e-10
3.31978e-10
5.31814e-10
8.51181e-10
1.36283e-09
2.12906e-09
3.17134e-09
4.47039e-09
5.95045e-09
7.5598e-09
9.28222e-09
1.11554e-08
1.32743e-08
1.57399e-08
1.86311e-08
2.204e-08
2.59613e-08
3.03154e-08
3.50955e-08
3.99358e-08
4.42778e-08
4.71807e-08
4.75584e-08
4.41053e-08
3.59857e-08
2.41448e-08
1.32953e-08
7.26715e-09
3.92379e-09
2.0859e-09
1.06911e-09
5.39993e-10
2.64593e-10
1.25378e-10
5.75765e-11
2.6241e-11
1.22269e-11
5.52357e-12
2.24726e-12
8.02913e-13
2.61483e-13
7.7144e-14
1.94273e-14
4.37428e-15
8.886e-16
1.76057e-16
3.5342e-17
7.85346e-18
1.95134e-18
5.37523e-19
1.60789e-19
5.06956e-20
1.65242e-20
5.48077e-21
1.83311e-21
6.13503e-22
2.04892e-22
6.81532e-23
2.25572e-23
7.4257e-24
2.43316e-24
7.92544e-25
2.56857e-25
8.28525e-26
2.66143e-26
8.51347e-27
2.71354e-27
8.62141e-28
2.73156e-28
8.63371e-29
2.72277e-29
8.55969e-30
2.665e-30
7.90458e-31
1.51403e-31
7.78384e-15
2.9674e-14
6.19069e-14
1.10554e-13
1.83605e-13
2.92488e-13
4.53351e-13
6.88363e-13
1.02676e-12
1.50518e-12
2.16798e-12
3.06975e-12
4.27984e-12
5.88391e-12
7.97945e-12
1.06775e-11
1.412e-11
1.84698e-11
2.37344e-11
3.05069e-11
3.92862e-11
5.13691e-11
6.90044e-11
9.70143e-11
1.40849e-10
2.12806e-10
3.3171e-10
5.31464e-10
8.50774e-10
1.36247e-09
2.12914e-09
3.17244e-09
4.47326e-09
5.95583e-09
7.56829e-09
9.29425e-09
1.11716e-08
1.32958e-08
1.57678e-08
1.86666e-08
2.20845e-08
2.60151e-08
3.03783e-08
3.5166e-08
4.00086e-08
4.43434e-08
4.72252e-08
4.75647e-08
4.40576e-08
3.58833e-08
2.40228e-08
1.32232e-08
7.22525e-09
3.89961e-09
2.0721e-09
1.06237e-09
5.36601e-10
2.62876e-10
1.24523e-10
5.71675e-11
2.60641e-11
1.2149e-11
5.48217e-12
2.22518e-12
7.94344e-13
2.58249e-13
7.60393e-14
1.91044e-14
4.2964e-15
8.73221e-16
1.72967e-16
3.47459e-17
7.72889e-18
1.92264e-18
5.30181e-19
1.58728e-19
5.00719e-20
1.63256e-20
5.41569e-21
1.8115e-21
6.06302e-22
2.02497e-22
6.73596e-23
2.22956e-23
7.33993e-24
2.4052e-24
7.83478e-25
2.53933e-25
8.19136e-26
2.63145e-26
8.41809e-27
2.6833e-27
8.52586e-28
2.70144e-28
8.53894e-29
2.693e-29
8.46641e-30
2.63603e-30
7.81877e-31
1.4976e-31
7.77771e-15
2.96507e-14
6.18585e-14
1.10468e-13
1.83464e-13
2.92268e-13
4.53018e-13
6.8787e-13
1.02604e-12
1.50416e-12
2.16652e-12
3.06771e-12
4.27701e-12
5.88018e-12
7.9745e-12
1.06716e-11
1.41131e-11
1.84619e-11
2.37251e-11
3.04929e-11
3.92688e-11
5.13454e-11
6.89697e-11
9.69614e-11
1.40768e-10
2.12684e-10
3.31536e-10
5.31232e-10
8.50501e-10
1.36221e-09
2.12916e-09
3.17315e-09
4.47513e-09
5.95974e-09
7.57453e-09
9.3031e-09
1.11835e-08
1.33115e-08
1.57881e-08
1.86925e-08
2.21169e-08
2.60545e-08
3.04243e-08
3.52175e-08
4.00625e-08
4.43937e-08
4.7262e-08
4.75736e-08
4.40212e-08
3.57914e-08
2.38981e-08
1.31561e-08
7.18766e-09
3.87668e-09
2.05447e-09
1.06394e-09
5.36677e-10
2.62617e-10
1.24277e-10
5.70113e-11
2.59876e-11
1.21111e-11
5.4587e-12
2.21131e-12
7.88748e-13
2.5606e-13
7.52206e-14
1.88653e-14
4.23864e-15
8.61915e-16
1.70736e-16
3.43211e-17
7.64106e-18
1.90224e-18
5.24892e-19
1.5723e-19
4.96163e-20
1.61811e-20
5.36865e-21
1.79601e-21
6.01174e-22
2.008e-22
6.67994e-23
2.21113e-23
7.2795e-24
2.38548e-24
7.77066e-25
2.51856e-25
8.12441e-26
2.60997e-26
8.34939e-27
2.66142e-27
8.45647e-28
2.67951e-28
8.46978e-29
2.67125e-29
8.39816e-30
2.61482e-30
7.75589e-31
1.48556e-31
7.77378e-15
2.96358e-14
6.18274e-14
1.10413e-13
1.83373e-13
2.92124e-13
4.52796e-13
6.87535e-13
1.02555e-12
1.50344e-12
2.16551e-12
3.06631e-12
4.27515e-12
5.87778e-12
7.97133e-12
1.06678e-11
1.41086e-11
1.84567e-11
2.37194e-11
3.04842e-11
3.9258e-11
5.13307e-11
6.89482e-11
9.69286e-11
1.40718e-10
2.12611e-10
3.31435e-10
5.31118e-10
8.50432e-10
1.36212e-09
2.12927e-09
3.17376e-09
4.47656e-09
5.96242e-09
7.57866e-09
9.30889e-09
1.11912e-08
1.33216e-08
1.58012e-08
1.8709e-08
2.21374e-08
2.60792e-08
3.04532e-08
3.52496e-08
4.00957e-08
4.4424e-08
4.72831e-08
4.75773e-08
4.39988e-08
3.57397e-08
2.38325e-08
1.31188e-08
7.16612e-09
3.86415e-09
2.04728e-09
1.06026e-09
5.34784e-10
2.61646e-10
1.23789e-10
5.67774e-11
2.58845e-11
1.20649e-11
5.43534e-12
2.19959e-12
7.84295e-13
2.54403e-13
7.46667e-14
1.8704e-14
4.19987e-15
8.54334e-16
1.69237e-16
3.40372e-17
7.58246e-18
1.8887e-18
5.21398e-19
1.56249e-19
4.93242e-20
1.60896e-20
5.33899e-21
1.78623e-21
5.97929e-22
1.99724e-22
6.64439e-23
2.19943e-23
7.24118e-24
2.373e-24
7.73012e-25
2.50546e-25
8.08223e-26
2.59646e-26
8.30623e-27
2.64766e-27
8.41268e-28
2.6656e-28
8.42571e-29
2.65731e-29
8.35423e-30
2.6011e-30
7.71512e-31
1.47774e-31
7.77181e-15
2.96283e-14
6.18119e-14
1.10385e-13
1.83327e-13
2.92051e-13
4.52685e-13
6.8737e-13
1.02531e-12
1.5031e-12
2.16502e-12
3.06564e-12
4.27426e-12
5.87662e-12
7.9698e-12
1.06659e-11
1.41064e-11
1.84543e-11
2.37166e-11
3.048e-11
3.92527e-11
5.13236e-11
6.89377e-11
9.69123e-11
1.40693e-10
2.12573e-10
3.31382e-10
5.31051e-10
8.50358e-10
1.36209e-09
2.12937e-09
3.17417e-09
4.47757e-09
5.96386e-09
7.58075e-09
9.31174e-09
1.11949e-08
1.33265e-08
1.58074e-08
1.87168e-08
2.2147e-08
2.60905e-08
3.04658e-08
3.52629e-08
4.01081e-08
4.44333e-08
4.72868e-08
4.75734e-08
4.39886e-08
3.57315e-08
2.38371e-08
1.311e-08
7.1577e-09
3.85924e-09
2.0465e-09
1.05419e-09
5.31852e-10
2.60256e-10
1.23148e-10
5.64939e-11
2.57686e-11
1.20187e-11
5.41501e-12
2.1905e-12
7.80995e-13
2.53254e-13
7.43031e-14
1.8603e-14
4.17635e-15
8.49729e-16
1.68348e-16
3.3873e-17
7.54962e-18
1.88137e-18
5.19575e-19
1.5575e-19
4.9175e-20
1.60426e-20
5.32371e-21
1.7812e-21
5.96266e-22
1.99174e-22
6.62623e-23
2.19345e-23
7.22156e-24
2.36659e-24
7.70925e-25
2.49869e-25
8.06036e-26
2.58943e-26
8.28372e-27
2.64049e-27
8.38993e-28
2.65841e-28
8.40304e-29
2.65017e-29
8.33183e-30
2.59413e-30
7.69445e-31
1.47378e-31
7.77179e-15
2.96282e-14
6.18117e-14
1.10385e-13
1.83326e-13
2.9205e-13
4.52683e-13
6.87368e-13
1.0253e-12
1.50309e-12
2.16502e-12
3.06563e-12
4.27424e-12
5.8766e-12
7.96978e-12
1.06659e-11
1.41064e-11
1.84543e-11
2.37166e-11
3.048e-11
3.92528e-11
5.13238e-11
6.89378e-11
9.69127e-11
1.40694e-10
2.12576e-10
3.3139e-10
5.31068e-10
8.50385e-10
1.36218e-09
2.12953e-09
3.17441e-09
4.47785e-09
5.964e-09
7.58078e-09
9.31173e-09
1.11949e-08
1.33264e-08
1.58073e-08
1.87167e-08
2.21469e-08
2.60904e-08
3.04658e-08
3.52631e-08
4.01087e-08
4.44346e-08
4.72894e-08
4.75777e-08
4.39952e-08
3.57424e-08
2.38699e-08
1.30282e-08
7.12398e-09
3.84642e-09
2.04398e-09
1.04766e-09
5.28867e-10
2.58924e-10
1.22569e-10
5.625e-11
2.56679e-11
1.19773e-11
5.39869e-12
2.18465e-12
7.79106e-13
2.5269e-13
7.41486e-14
1.85663e-14
4.16871e-15
8.48253e-16
1.68088e-16
3.38315e-17
7.54286e-18
1.88019e-18
5.1935e-19
1.55703e-19
4.9165e-20
1.60407e-20
5.32348e-21
1.78124e-21
5.96308e-22
1.99195e-22
6.62705e-23
2.19374e-23
7.2225e-24
2.36688e-24
7.71008e-25
2.49891e-25
8.06091e-26
2.58955e-26
8.28392e-27
2.6405e-27
8.38979e-28
2.65832e-28
8.40262e-29
2.65001e-29
8.33124e-30
2.59393e-30
7.69383e-31
1.47366e-31
7.77372e-15
2.96355e-14
6.18269e-14
1.10412e-13
1.83371e-13
2.9212e-13
4.52789e-13
6.87525e-13
1.02553e-12
1.50342e-12
2.16548e-12
3.06627e-12
4.2751e-12
5.87772e-12
7.97127e-12
1.06677e-11
1.41085e-11
1.84567e-11
2.37194e-11
3.04843e-11
3.92581e-11
5.13311e-11
6.89486e-11
9.69293e-11
1.40719e-10
2.12614e-10
3.31443e-10
5.31128e-10
8.50419e-10
1.36224e-09
2.12951e-09
3.17412e-09
4.47713e-09
5.96264e-09
7.57868e-09
9.30877e-09
1.11909e-08
1.33212e-08
1.58006e-08
1.87083e-08
2.21365e-08
2.6078e-08
3.04514e-08
3.5247e-08
4.00916e-08
4.44178e-08
4.72747e-08
4.75669e-08
4.39882e-08
3.57321e-08
2.38294e-08
1.31068e-08
7.15723e-09
3.86092e-09
2.0505e-09
1.05018e-09
5.29867e-10
2.59327e-10
1.22735e-10
5.63172e-11
2.56928e-11
1.19874e-11
5.40479e-12
2.18833e-12
7.80565e-13
2.53265e-13
7.43494e-14
1.86271e-14
4.18359e-15
8.51149e-16
1.68675e-16
3.39468e-17
7.56762e-18
1.88612e-18
5.20917e-19
1.5615e-19
4.93017e-20
1.60846e-20
5.338e-21
1.78611e-21
5.97952e-22
1.99747e-22
6.64553e-23
2.19987e-23
7.24272e-24
2.37348e-24
7.73152e-25
2.50582e-25
8.08303e-26
2.59658e-26
8.30621e-27
2.64753e-27
8.41191e-28
2.66526e-28
8.42437e-29
2.65682e-29
8.35254e-30
2.60054e-30
7.7134e-31
1.4774e-31
7.77771e-15
2.96508e-14
6.18585e-14
1.10468e-13
1.83463e-13
2.92266e-13
4.53012e-13
6.87856e-13
1.02601e-12
1.50411e-12
2.16645e-12
3.06761e-12
4.2769e-12
5.88007e-12
7.97441e-12
1.06715e-11
1.4113e-11
1.8462e-11
2.37254e-11
3.04933e-11
3.92694e-11
5.13464e-11
6.89712e-11
9.69638e-11
1.40772e-10
2.12693e-10
3.31556e-10
5.31272e-10
8.50577e-10
1.36235e-09
2.12938e-09
3.17345e-09
4.47556e-09
5.95986e-09
7.57443e-09
9.30281e-09
1.1183e-08
1.33107e-08
1.57871e-08
1.86911e-08
2.2115e-08
2.60521e-08
3.04213e-08
3.52135e-08
4.00572e-08
4.43867e-08
4.72536e-08
4.75652e-08
4.40167e-08
3.57983e-08
2.39279e-08
1.31102e-08
7.16411e-09
3.86683e-09
2.05464e-09
1.05272e-09
5.31365e-10
2.60161e-10
1.23175e-10
5.65336e-11
2.57885e-11
1.20303e-11
5.42689e-12
2.19962e-12
7.84887e-13
2.54877e-13
7.48885e-14
1.87842e-14
4.22122e-15
8.58505e-16
1.70126e-16
3.42216e-17
7.62453e-18
1.89919e-18
5.24265e-19
1.57098e-19
4.95892e-20
1.61757e-20
5.36776e-21
1.79599e-21
6.01254e-22
2.00854e-22
6.68249e-23
2.21216e-23
7.28329e-24
2.38678e-24
7.77482e-25
2.51983e-25
8.12804e-26
2.61096e-26
8.35191e-27
2.662e-27
8.45754e-28
2.67962e-28
8.46946e-29
2.67096e-29
8.39678e-30
2.61427e-30
7.75404e-31
1.48518e-31
7.78392e-15
2.96744e-14
6.19076e-14
1.10555e-13
1.83607e-13
2.92493e-13
4.53358e-13
6.88373e-13
1.02677e-12
1.50519e-12
2.16797e-12
3.0697e-12
4.27971e-12
5.88372e-12
7.97923e-12
1.06774e-11
1.412e-11
1.84701e-11
2.37347e-11
3.05075e-11
3.92872e-11
5.13706e-11
6.90065e-11
9.70176e-11
1.40854e-10
2.12815e-10
3.31729e-10
5.31498e-10
8.50832e-10
1.36255e-09
2.12924e-09
3.17254e-09
4.4733e-09
5.95574e-09
7.56803e-09
9.29376e-09
1.11708e-08
1.32946e-08
1.57662e-08
1.86645e-08
2.20817e-08
2.60115e-08
3.0374e-08
3.51609e-08
4.00031e-08
4.43381e-08
4.72213e-08
4.7564e-08
4.4063e-08
3.59009e-08
2.40705e-08
1.31366e-08
7.18406e-09
3.8799e-09
2.06263e-09
1.05789e-09
5.34423e-10
2.61833e-10
1.24037e-10
5.6952e-11
2.59766e-11
1.21159e-11
5.46937e-12
2.22002e-12
7.92493e-13
2.57651e-13
7.58613e-14
1.90584e-14
4.28649e-15
8.71206e-16
1.72602e-16
3.46842e-17
7.7169e-18
1.91985e-18
5.29501e-19
1.58561e-19
5.00294e-20
1.63146e-20
5.41295e-21
1.81093e-21
6.06239e-22
2.0252e-22
6.73806e-23
2.23061e-23
7.3442e-24
2.40674e-24
7.83983e-25
2.54086e-25
8.19571e-26
2.63259e-26
8.42077e-27
2.68384e-27
8.52656e-28
2.70137e-28
8.53791e-29
2.69246e-29
8.46418e-30
2.63521e-30
7.81608e-31
1.49706e-31
7.79254e-15
2.97072e-14
6.19759e-14
1.10676e-13
1.83808e-13
2.92809e-13
4.53842e-13
6.89094e-13
1.02782e-12
1.5067e-12
2.17009e-12
3.07263e-12
4.28364e-12
5.88883e-12
7.986e-12
1.06856e-11
1.41298e-11
1.84815e-11
2.37482e-11
3.05279e-11
3.93134e-11
5.14065e-11
6.90592e-11
9.70974e-11
1.40977e-10
2.13002e-10
3.31996e-10
5.31847e-10
8.5124e-10
1.36292e-09
2.12918e-09
3.17144e-09
4.47042e-09
5.95034e-09
7.5595e-09
9.2816e-09
1.11544e-08
1.32728e-08
1.57379e-08
1.86283e-08
2.20364e-08
2.59568e-08
3.03099e-08
3.50891e-08
3.99285e-08
4.42694e-08
4.7171e-08
4.7548e-08
4.40969e-08
3.59874e-08
2.41634e-08
1.32932e-08
7.26056e-09
3.9162e-09
2.076e-09
1.07479e-09
5.42204e-10
2.65432e-10
1.25683e-10
5.76843e-11
2.62805e-11
1.22436e-11
5.52959e-12
2.24867e-12
8.03165e-13
2.61465e-13
7.70404e-14
1.93974e-14