/*--------------------------------*- C++ -*----------------------------------*\
  =========                 |
  \\      /  F ield         | OpenFOAM: The Open Source CFD Toolbox
   \\    /   O peration     | Website:  https://openfoam.org
    \\  /    A nd           | Version:  10
     \\/     M anipulation  |
\*---------------------------------------------------------------------------*/
FoamFile
{
    format      ascii;
    class       volScalarField;
    location    "1";
    object      H2O;
}
// * * * * * * * * * * * * * * * * * * * * * * * * * * * * * * * * * * * * * //

dimensions      [0 0 0 0 0 0 0];

internalField   nonuniform List<scalar> 
4000
(
7.4297e-06
2.8324e-05
5.9091e-05
0.000105524
0.000175254
0.000279211
0.000432851
0.000657417
0.000980973
0.00143886
0.00207392
0.00293801
0.00409381
0.00561414
0.0075772
0.0100472
0.0131082
0.0168127
0.0210083
0.0259885
0.0314151
0.0374056
0.0440508
0.0509478
0.0581735
0.0656476
0.0733268
0.0811757
0.0889835
0.0968435
0.104624
0.11226
0.119741
0.127018
0.134066
0.140883
0.147435
0.153724
0.159744
0.165491
0.171029
0.176288
0.181221
0.185844
0.190239
0.194316
0.198004
0.201261
0.204009
0.206066
0.207106
0.206519
0.203157
0.196477
0.187278
0.176306
0.16419
0.151508
0.13861
0.125757
0.113086
0.100842
0.0890736
0.0778643
0.0672859
0.0572626
0.0480714
0.039664
0.0317574
0.0247556
0.0189177
0.013827
0.0097559
0.0066367
0.00434671
0.00275462
0.0016942
0.00101584
0.000596139
0.000343429
0.000194841
0.000108994
6.02327e-05
3.29416e-05
1.78297e-05
9.57235e-06
5.10236e-06
2.70147e-06
1.42228e-06
7.4545e-07
3.88177e-07
2.01177e-07
1.03761e-07
5.32083e-08
2.70624e-08
1.35788e-08
6.64225e-09
3.0812e-09
1.25513e-09
2.90349e-10
7.39589e-06
2.81944e-05
5.88207e-05
0.00010505
0.000174487
0.000278004
0.000430991
0.000654563
0.00097656
0.00143196
0.00206301
0.00292081
0.00406648
0.00557252
0.00751726
0.00996475
0.0129902
0.0166468
0.0207976
0.0257521
0.0311428
0.0370659
0.0436529
0.050538
0.057746
0.0652196
0.0728952
0.0807916
0.0886221
0.096511
0.104321
0.111958
0.119459
0.12678
0.133865
0.140712
0.147294
0.15361
0.159655
0.165425
0.170983
0.176261
0.18121
0.185848
0.190255
0.194341
0.198033
0.201289
0.20403
0.20607
0.207074
0.206417
0.202916
0.196119
0.186832
0.175803
0.163525
0.150808
0.137874
0.124994
0.112194
0.0999529
0.0882068
0.0770207
0.0664505
0.0565365
0.047382
0.0390032
0.0311466
0.0242245
0.0184891
0.0135278
0.00955512
0.00650137
0.00427592
0.0027204
0.00168041
0.0010119
0.000596299
0.000344862
0.00019641
0.000110281
6.11825e-05
3.35671e-05
1.82541e-05
9.8355e-06
5.25656e-06
2.78672e-06
1.46683e-06
7.66766e-07
3.99429e-07
2.0683e-07
1.06522e-07
5.45277e-08
2.76798e-08
1.38615e-08
6.76818e-09
3.13477e-09
1.27551e-09
2.94854e-10
7.36684e-06
2.80855e-05
5.85999e-05
0.00010467
0.000173881
0.000277089
0.000429586
0.000652332
0.00097291
0.00142583
0.00205247
0.00290226
0.00403673
0.0055272
0.00745074
0.00987177
0.012871
0.0164824
0.0205803
0.025477
0.0308138
0.0367113
0.0431993
0.0501764
0.0573397
0.064787
0.0724453
0.0803408
0.0881699
0.0960717
0.103894
0.111557
0.119099
0.12645
0.133584
0.140476
0.147099
0.153455
0.159536
0.165337
0.170924
0.176229
0.181202
0.185862
0.190288
0.194388
0.198084
0.20134
0.204068
0.206076
0.207017
0.206244
0.202526
0.195536
0.186085
0.174944
0.162577
0.149805
0.136847
0.123975
0.111002
0.0988058
0.0870932
0.0759323
0.0654116
0.0556054
0.0465014
0.0381974
0.0304401
0.0236394
0.0180343
0.0131987
0.0093443
0.00637639
0.0042
0.00267852
0.00165916
0.00100235
0.00059267
0.000343746
0.000196497
0.000110724
6.16209e-05
3.39087e-05
1.84689e-05
9.96595e-06
5.33489e-06
2.83292e-06
1.49368e-06
7.82381e-07
4.07335e-07
2.10988e-07
1.08672e-07
5.56116e-08
2.82141e-08
1.41188e-08
6.8885e-09
3.1882e-09
1.29651e-09
2.99611e-10
7.32272e-06
2.79164e-05
5.82428e-05
0.000104019
0.000172769
0.000275243
0.000426599
0.000647589
0.000965496
0.00141443
0.00203535
0.00287749
0.00400087
0.00547582
0.00737852
0.00977294
0.0127387
0.0163242
0.0203943
0.0252337
0.0305202
0.0363643
0.0428018
0.0497712
0.0569384
0.0643814
0.0720132
0.0799065
0.0877348
0.0956554
0.10349
0.111168
0.118739
0.126127
0.133304
0.140238
0.146904
0.1533
0.159416
0.165256
0.170875
0.17621
0.181208
0.185892
0.190338
0.194454
0.198153
0.201408
0.20412
0.206091
0.206958
0.206037
0.202062
0.194839
0.185188
0.173865
0.161386
0.148529
0.13552
0.122619
0.109624
0.097453
0.0858009
0.0747476
0.064299
0.0545429
0.0455453
0.0373408
0.0297002
0.0230245
0.0175541
0.0128307
0.00904239
0.0061537
0.00404976
0.0025852
0.00160527
0.000973525
0.000578693
0.000338142
0.000194325
0.000109895
6.13648e-05
3.38671e-05
1.84913e-05
9.99866e-06
5.36175e-06
2.85063e-06
1.50448e-06
7.88719e-07
4.1104e-07
2.12933e-07
1.09671e-07
5.61186e-08
2.84682e-08
1.42441e-08
6.94872e-09
3.21579e-09
1.30769e-09
3.02187e-10
7.27692e-06
2.77417e-05
5.78778e-05
0.000103364
0.000171672
0.000273474
0.000423812
0.000643273
0.0009589
0.00140446
0.00202047
0.00285558
0.00396917
0.00543097
0.00731651
0.00968971
0.0126294
0.0161841
0.0202175
0.0250199
0.0302779
0.0360907
0.0424763
0.0494344
0.0565727
0.0639757
0.071602
0.0794969
0.0873346
0.0952602
0.103126
0.110834
0.11843
0.125842
0.133057
0.140029
0.146734
0.153165
0.15932
0.165193
0.170844
0.176208
0.18123
0.185937
0.190403
0.194532
0.198231
0.201482
0.204177
0.206106
0.206891
0.205823
0.201569
0.194108
0.184267
0.172809
0.160259
0.147339
0.1343
0.121391
0.108431
0.0962809
0.0846401
0.0736084
0.0632327
0.0535693
0.0446724
0.0365559
0.0290044
0.0224398
0.0170942
0.0124559
0.00878066
0.00598064
0.00394169
0.00252123
0.0015689
0.000953442
0.0005677
0.00033197
0.000191235
0.000108589
6.08232e-05
3.36488e-05
1.84025e-05
9.96755e-06
5.35399e-06
2.85027e-06
1.50591e-06
7.90146e-07
4.12078e-07
2.13558e-07
1.10016e-07
5.62999e-08
2.856e-08
1.42892e-08
6.97028e-09
3.22558e-09
1.31163e-09
3.03094e-10
7.22929e-06
2.75598e-05
5.74965e-05
0.000102679
0.000170523
0.000271621
0.000420902
0.000638792
0.000952109
0.00139432
0.00200551
0.00283388
0.00393838
0.00538833
0.00725902
0.00961474
0.0125344
0.0160678
0.0200802
0.0248498
0.0300829
0.0358702
0.0422016
0.049137
0.0562394
0.0636396
0.0712555
0.0791503
0.0869807
0.0949263
0.102818
0.110548
0.118169
0.125606
0.132851
0.139856
0.146594
0.15306
0.159248
0.165154
0.170834
0.176224
0.181267
0.185994
0.190476
0.194618
0.198316
0.201562
0.20424
0.206128
0.206831
0.205607
0.201084
0.193387
0.183345
0.171698
0.159062
0.146069
0.132996
0.120102
0.107244
0.0951447
0.0835977
0.0726297
0.0623367
0.0527606
0.0439716
0.0357515
0.028355
0.021926
0.0166529
0.0121276
0.00854877
0.00582438
0.00384066
0.00245873
0.00153161
0.000931955
0.0005557
0.000325458
0.000187586
0.000106589
5.97889e-05
3.31483e-05
1.81869e-05
9.87354e-06
5.31334e-06
2.83243e-06
1.49808e-06
7.86704e-07
4.10581e-07
2.12879e-07
1.09688e-07
5.61435e-08
2.84856e-08
1.42538e-08
6.95366e-09
3.21811e-09
1.30866e-09
3.02418e-10
7.18291e-06
2.73828e-05
5.71262e-05
0.000102014
0.000169413
0.000269841
0.000418122
0.000634538
0.000945711
0.00138483
0.00199163
0.00281391
0.00391026
0.00534966
0.00720719
0.0095474
0.0124491
0.0159625
0.0199534
0.0246888
0.0298971
0.0356714
0.0419582
0.0488647
0.0559613
0.0633578
0.0709705
0.0788725
0.0867045
0.0946643
0.102576
0.110321
0.117961
0.12542
0.132692
0.139727
0.146494
0.152989
0.159206
0.165138
0.170843
0.176256
0.181316
0.18606
0.190556
0.194706
0.198398
0.201632
0.204313
0.206153
0.206773
0.205397
0.20062
0.192715
0.182511
0.170649
0.157994
0.144961
0.131864
0.118933
0.106328
0.0942198
0.0826605
0.0717599
0.0615522
0.0520585
0.0433471
0.0351916
0.0278735
0.0215191
0.016333
0.0118806
0.00836734
0.00569614
0.00375455
0.00240382
0.00149799
0.000912137
0.000544385
0.000319196
0.000184183
0.000104771
5.88272e-05
3.26385e-05
1.79103e-05
9.72897e-06
5.23977e-06
2.79558e-06
1.4799e-06
7.77839e-07
4.0633e-07
2.10865e-07
1.08769e-07
5.57147e-08
2.82821e-08
1.41567e-08
6.90775e-09
3.19728e-09
1.30029e-09
3.00495e-10
7.13913e-06
2.72157e-05
5.67769e-05
0.000101388
0.000168368
0.000268168
0.000415517
0.000630567
0.000939766
0.00137607
0.00197889
0.0027957
0.00388478
0.00531488
0.00716088
0.00948763
0.0123739
0.0158703
0.0198431
0.0245462
0.0297404
0.0354907
0.0417557
0.0486587
0.0557488
0.0631308
0.0707354
0.0786349
0.0864787
0.0944573
0.102383
0.110142
0.117798
0.125276
0.132571
0.139629
0.146422
0.152943
0.159184
0.165139
0.170864
0.176294
0.181368
0.186125
0.190632
0.19479
0.198483
0.201712
0.20437
0.206174
0.206728
0.2052
0.200207
0.19213
0.181815
0.169721
0.157056
0.143991
0.130872
0.11795
0.105393
0.0933127
0.0818189
0.0709599
0.060798
0.0513879
0.0427519
0.0346151
0.0274056
0.0211481
0.016046
0.0116627
0.00820085
0.00557555
0.00367232
0.00235075
0.00146515
0.000892565
0.000533075
0.000312848
0.000180684
0.000102877
5.78191e-05
3.2109e-05
1.76355e-05
9.58873e-06
5.16443e-06
2.75757e-06
1.46079e-06
7.68243e-07
4.0154e-07
2.0845e-07
1.07538e-07
5.50956e-08
2.79747e-08
1.40063e-08
6.83598e-09
3.16472e-09
1.28725e-09
2.97514e-10
7.09916e-06
2.70633e-05
5.64586e-05
0.000100818
0.000167419
0.000266652
0.000413164
0.000626993
0.000934437
0.00136824
0.00196757
0.0027796
0.00386237
0.00528443
0.00712057
0.00943595
0.0123095
0.0157929
0.0197548
0.0244322
0.0296068
0.0353477
0.0415941
0.0484804
0.0555582
0.062941
0.0705483
0.078455
0.0863065
0.0942935
0.102228
0.109999
0.117672
0.125168
0.13248
0.139561
0.146376
0.152919
0.15918
0.165154
0.170897
0.176344
0.18143
0.186198
0.190715
0.194877
0.198568
0.20179
0.20442
0.206189
0.206676
0.205025
0.199837
0.191595
0.181136
0.168972
0.156228
0.143121
0.129997
0.117091
0.104569
0.0925395
0.0810782
0.0702421
0.0600949
0.0507195
0.0421511
0.0340859
0.0269404
0.0207429
0.0157152
0.0114145
0.00802264
0.00545368
0.00359225
0.0023003
0.00143436
0.000874328
0.000522541
0.0003069
0.000177381
0.000101073
5.68471e-05
3.15916e-05
1.73631e-05
9.4477e-06
5.09136e-06
2.71998e-06
1.44156e-06
7.58448e-07
3.96596e-07
2.05945e-07
1.06271e-07
5.44576e-08
2.76553e-08
1.38483e-08
6.75959e-09
3.12962e-09
1.27305e-09
2.94239e-10
7.06351e-06
2.69274e-05
5.61749e-05
0.000100311
0.000166576
0.000265307
0.00041108
0.000623837
0.000929747
0.00136139
0.00195769
0.00276562
0.00384297
0.00525811
0.00708563
0.0093909
0.0122525
0.0157229
0.01967
0.0243218
0.0294861
0.0352116
0.0414497
0.0483394
0.0554143
0.0627922
0.0703979
0.0783124
0.0861683
0.0941598
0.102109
0.109892
0.117578
0.125087
0.132416
0.139515
0.146349
0.152909
0.159187
0.165177
0.170935
0.176396
0.181491
0.18627
0.190794
0.194959
0.198651
0.201864
0.204464
0.206196
0.206613
0.204865
0.199503
0.19113
0.180586
0.168309
0.155538
0.142423
0.129297
0.116395
0.103875
0.0918706
0.0804655
0.0697198
0.0594164
0.0501501
0.041654
0.0336539
0.0265713
0.0204526
0.0154735
0.0112236
0.00788194
0.00535526
0.00352633
0.00225803
0.00140812
0.000858531
0.000513258
0.000301581
0.000174387
9.94157e-05
5.59428e-05
3.11047e-05
1.71038e-05
9.31197e-06
5.02046e-06
2.68322e-06
1.42262e-06
7.48747e-07
3.91637e-07
2.03422e-07
1.04993e-07
5.38133e-08
2.73326e-08
1.36885e-08
6.6823e-09
3.09406e-09
1.25864e-09
2.90917e-10
7.03234e-06
2.68086e-05
5.59271e-05
9.98685e-05
0.00016584
0.000264136
0.00040927
0.000621101
0.000925694
0.00135549
0.00194927
0.00275379
0.00382673
0.00523632
0.00705657
0.00935415
0.0122078
0.0156704
0.0196078
0.0242393
0.0293935
0.0351079
0.041338
0.0482197
0.0552938
0.0626719
0.0702799
0.0781981
0.0860583
0.0940571
0.102016
0.10981
0.117505
0.125028
0.132373
0.139487
0.146335
0.152909
0.1592
0.165202
0.170972
0.176443
0.181546
0.186338
0.19087
0.195038
0.198726
0.20193
0.204508
0.206206
0.206564
0.204708
0.199197
0.1907
0.180061
0.167738
0.154928
0.141786
0.128653
0.115759
0.103266
0.0912859
0.079899
0.0691744
0.058916
0.0496765
0.0412298
0.0332704
0.0262425
0.0202004
0.0152768
0.0110688
0.00776684
0.005274
0.00347126
0.00222231
0.00138569
0.000844894
0.000505118
0.000296874
0.000171714
9.79229e-05
5.51214e-05
3.06586e-05
1.68644e-05
9.1853e-06
4.95383e-06
2.64848e-06
1.40464e-06
7.39535e-07
3.86779e-07
2.00954e-07
1.03745e-07
5.31846e-08
2.70179e-08
1.35328e-08
6.60697e-09
3.05941e-09
1.2446e-09
2.8768e-10
7.00552e-06
2.67065e-05
5.5714e-05
9.94883e-05
0.00016521
0.000263134
0.000407722
0.000618767
0.000922248
0.0013505
0.00194216
0.00274389
0.00381321
0.0052183
0.00703258
0.00932423
0.012171
0.0156246
0.0195523
0.0241692
0.0293126
0.0350219
0.0412482
0.048128
0.0551992
0.062577
0.070186
0.0781091
0.0859747
0.0939789
0.101947
0.109749
0.117455
0.124989
0.132345
0.13947
0.14633
0.152915
0.159215
0.165225
0.171001
0.176474
0.181573
0.186427
0.190952
0.195116
0.198797
0.20199
0.204551
0.206221
0.206527
0.204574
0.198943
0.190348
0.179635
0.167255
0.154408
0.141246
0.128106
0.115215
0.102734
0.0907673
0.0794053
0.0687076
0.0585075
0.0492987
0.0408856
0.0329632
0.0259766
0.0200088
0.015125
0.0109547
0.00767684
0.00520806
0.00342554
0.00219216
0.00136653
0.000833114
0.000498059
0.000292757
0.000169357
9.65965e-05
5.43865e-05
3.0257e-05
1.66477e-05
9.06975e-06
4.89275e-06
2.61647e-06
1.388e-06
7.30966e-07
3.82308e-07
1.98673e-07
1.02586e-07
5.2599e-08
2.67241e-08
1.33871e-08
6.53641e-09
3.02692e-09
1.23143e-09
2.84641e-10
6.98277e-06
2.66198e-05
5.55334e-05
9.91661e-05
0.000164675
0.000262285
0.000406414
0.000616798
0.000919346
0.0013463
0.00193621
0.00273562
0.00380202
0.00520359
0.00701343
0.00930044
0.012141
0.0155883
0.0195099
0.0241139
0.0292509
0.0349553
0.0411757
0.0480516
0.0551191
0.0624957
0.0701069
0.0780345
0.0859065
0.0939171
0.101893
0.109705
0.117419
0.124962
0.132328
0.139463
0.146332
0.152926
0.159234
0.165252
0.171035
0.176515
0.18162
0.186483
0.191011
0.195175
0.198853
0.202039
0.204585
0.20623
0.206493
0.204425
0.198699
0.190029
0.179253
0.166825
0.153953
0.140784
0.127642
0.114758
0.102286
0.0903397
0.0789961
0.0683189
0.0581696
0.0489859
0.0405941
0.0327028
0.025748
0.0198413
0.0149819
0.0108416
0.00759415
0.00514957
0.00338568
0.00216608
0.00134996
0.000822919
0.000491946
0.000289176
0.000167298
9.5433e-05
5.37389e-05
2.99015e-05
1.64549e-05
8.96658e-06
4.83799e-06
2.58766e-06
1.37297e-06
7.23191e-07
3.78302e-07
1.9662e-07
1.0154e-07
5.2069e-08
2.64577e-08
1.32548e-08
6.47221e-09
2.99732e-09
1.21942e-09
2.81868e-10
6.96372e-06
2.65473e-05
5.53822e-05
9.88964e-05
0.000164228
0.000261575
0.000405319
0.000615148
0.000916908
0.00134277
0.00193117
0.00272857
0.00379236
0.00519068
0.00699621
0.00927781
0.0121131
0.0155554
0.019473
0.0240671
0.0292011
0.0349008
0.041118
0.0479919
0.0550593
0.0624356
0.0700487
0.0779799
0.0858562
0.0938709
0.101854
0.109672
0.117394
0.124945
0.132319
0.139462
0.146339
0.15294
0.159255
0.165279
0.171068
0.176553
0.181664
0.186532
0.191063
0.195227
0.198901
0.202079
0.204611
0.20623
0.206447
0.204315
0.198499
0.189758
0.178938
0.166485
0.153595
0.140416
0.127273
0.114388
0.101924
0.0899875
0.0786564
0.0679963
0.0578892
0.0487259
0.0403593
0.032494
0.025567
0.0197089
0.0148718
0.0107544
0.00752819
0.00510184
0.00335266
0.00214426
0.00133601
0.000814285
0.000486743
0.000286116
0.000165531
9.44302e-05
5.31786e-05
2.95928e-05
1.6287e-05
8.87636e-06
4.78996e-06
2.56233e-06
1.35972e-06
7.1632e-07
3.74757e-07
1.94802e-07
1.00613e-07
5.15989e-08
2.62211e-08
1.31372e-08
6.41515e-09
2.971e-09
1.20873e-09
2.79401e-10
6.9481e-06
2.64878e-05
5.52582e-05
9.86753e-05
0.000163862
0.000260993
0.000404421
0.000613795
0.000914909
0.00133986
0.00192702
0.00272274
0.00378436
0.00517992
0.0069817
0.00926013
0.0120922
0.0155308
0.0194445
0.0240302
0.0291588
0.0348554
0.0410697
0.0479434
0.0550104
0.0623886
0.070004
0.0779389
0.0858185
0.0938371
0.101826
0.109649
0.117377
0.124935
0.132314
0.139464
0.146347
0.152954
0.159275
0.165304
0.171098
0.176587
0.181701
0.186572
0.191104
0.195268
0.19894
0.202112
0.204632
0.20623
0.206409
0.204227
0.19834
0.189543
0.178678
0.166197
0.153287
0.140101
0.126956
0.114078
0.10162
0.0896904
0.0783739
0.0677304
0.0576599
0.048515
0.0401691
0.0323232
0.0254197
0.0196008
0.0147834
0.0106834
0.00747394
0.00506237
0.00332526
0.00212609
0.00132436
0.000807049
0.00048237
0.000283535
0.000164037
9.358e-05
5.27024e-05
2.93297e-05
1.61435e-05
8.7991e-06
4.74874e-06
2.54055e-06
1.34831e-06
7.10392e-07
3.71695e-07
1.9323e-07
9.98104e-08
5.11917e-08
2.6016e-08
1.30353e-08
6.36565e-09
2.94816e-09
1.19946e-09
2.77259e-10
6.93564e-06
2.64403e-05
5.51594e-05
9.84991e-05
0.00016357
0.00026053
0.000403708
0.000612722
0.000913324
0.00133757
0.00192375
0.00271817
0.00377816
0.00517176
0.00697093
0.00924676
0.0120755
0.0155107
0.0194208
0.0239999
0.0291269
0.0348215
0.0410344
0.047907
0.0549741
0.0623535
0.0699703
0.0779078
0.0857905
0.0938122
0.101805
0.109634
0.117366
0.124929
0.132314
0.139468
0.146357
0.152968
0.159294
0.165326
0.171125
0.176617
0.181733
0.186605
0.191138
0.195302
0.198972
0.202139
0.204652
0.206236
0.206389
0.204158
0.198217
0.189374
0.178472
0.165967
0.15304
0.139843
0.126696
0.11382
0.101368
0.0894495
0.078144
0.0675132
0.057473
0.0483417
0.0400109
0.0321827
0.0252964
0.0195113
0.0147087
0.0106241
0.00742886
0.00502972
0.00330271
0.00211119
0.00131481
0.000801114
0.000478775
0.000281409
0.000162803
9.28761e-05
5.23071e-05
2.91109e-05
1.6024e-05
8.73463e-06
4.71429e-06
2.52232e-06
1.33875e-06
7.05421e-07
3.69126e-07
1.9191e-07
9.91361e-08
5.08494e-08
2.58436e-08
1.29495e-08
6.32402e-09
2.92895e-09
1.19166e-09
2.75457e-10
6.92609e-06
2.6404e-05
5.50837e-05
9.83643e-05
0.000163347
0.000260177
0.000403166
0.00061191
0.000912138
0.00133586
0.00192135
0.00271487
0.00377371
0.00516583
0.00696286
0.00923635
0.0120625
0.0154951
0.0194028
0.0239767
0.0291011
0.0347938
0.0410058
0.0478786
0.0549459
0.062326
0.0699442
0.0778843
0.0857696
0.0937941
0.101791
0.109623
0.117359
0.124926
0.132315
0.139474
0.146366
0.152981
0.159309
0.165345
0.171146
0.17664
0.181759
0.186632
0.191166
0.195329
0.198997
0.20216
0.204665
0.206235
0.206364
0.204089
0.198105
0.189227
0.178301
0.165795
0.152857
0.139652
0.126501
0.113625
0.101177
0.0892649
0.0779676
0.0673453
0.0573288
0.0482077
0.0398881
0.0320723
0.0251991
0.0194405
0.0146498
0.010578
0.0073941
0.00500453
0.00328522
0.00209956
0.00130732
0.000796433
0.000475927
0.000279718
0.000161818
9.23134e-05
5.19906e-05
2.89355e-05
1.5928e-05
8.68281e-06
4.68659e-06
2.50765e-06
1.33105e-06
7.01418e-07
3.67056e-07
1.90847e-07
9.85928e-08
5.05735e-08
2.57047e-08
1.28804e-08
6.29045e-09
2.91346e-09
1.18537e-09
2.74004e-10
6.91925e-06
2.63779e-05
5.50296e-05
9.82683e-05
0.000163189
0.000259929
0.000402787
0.000611346
0.00091131
0.00133466
0.00191962
0.00271242
0.00377026
0.00516117
0.00695664
0.00922871
0.0120533
0.0154842
0.0193902
0.0239605
0.0290835
0.034775
0.0409862
0.0478589
0.0549265
0.0623073
0.0699267
0.0778684
0.0857557
0.0937821
0.101781
0.109616
0.117356
0.124925
0.132317
0.139478
0.146373
0.15299
0.159321
0.165359
0.171163
0.176658
0.181777
0.186652
0.191186
0.195349
0.199016
0.202177
0.204677
0.206238
0.206349
0.204041
0.198017
0.189092
0.178101
0.165755
0.152757
0.139525
0.126363
0.113484
0.101037
0.0891281
0.0778361
0.0672206
0.0572218
0.0481091
0.0397979
0.0319913
0.0251284
0.0193888
0.0146069
0.0105439
0.00736805
0.00498558
0.0032721
0.00209088
0.00130176
0.000792998
0.000473858
0.000278497
0.000161109
9.19075e-05
5.17618e-05
2.88083e-05
1.58581e-05
8.64495e-06
4.66625e-06
2.49683e-06
1.32534e-06
6.98433e-07
3.65505e-07
1.90047e-07
9.81837e-08
5.03656e-08
2.55999e-08
1.28283e-08
6.26514e-09
2.90178e-09
1.18063e-09
2.72909e-10
6.91484e-06
2.63611e-05
5.49947e-05
9.82061e-05
0.000163086
0.000259765
0.000402533
0.00061096
0.000910732
0.00133382
0.00191841
0.00271072
0.00376797
0.00515815
0.0069526
0.00922365
0.0120471
0.015477
0.0193822
0.0239503
0.0290724
0.0347631
0.0409739
0.0478465
0.0549143
0.0622956
0.0699157
0.0778586
0.0857471
0.0937748
0.101776
0.109612
0.117353
0.124925
0.132319
0.139481
0.146378
0.152997
0.159329
0.165369
0.171173
0.176669
0.18179
0.186665
0.1912
0.195363
0.199029
0.202188
0.204684
0.206238
0.206337
0.204006
0.197961
0.189019
0.178018
0.165675
0.152674
0.139437
0.12627
0.113389
0.100943
0.0890372
0.0777492
0.0671384
0.0571513
0.0480435
0.0397379
0.0319373
0.0250811
0.0193544
0.0145782
0.0105211
0.00735073
0.00497295
0.00326326
0.00208501
0.00129802
0.00079068
0.000472454
0.000277668
0.000160629
9.16346e-05
5.1609e-05
2.87238e-05
1.5812e-05
8.62009e-06
4.65297e-06
2.4898e-06
1.32165e-06
6.96508e-07
3.64507e-07
1.89531e-07
9.79182e-08
5.02299e-08
2.55311e-08
1.27939e-08
6.24838e-09
2.89403e-09
1.17747e-09
2.7218e-10
6.91262e-06
2.63527e-05
5.4977e-05
9.81747e-05
0.000163034
0.000259682
0.000402405
0.000610767
0.00091045
0.00133341
0.00191783
0.0027099
0.00376686
0.00515668
0.00695064
0.00922121
0.0120442
0.0154736
0.0193782
0.0239453
0.0290669
0.0347573
0.0409678
0.0478404
0.0549084
0.0622898
0.0699104
0.0778538
0.085743
0.0937714
0.101773
0.109611
0.117352
0.124925
0.132319
0.139483
0.146381
0.153
0.159333
0.165373
0.171178
0.176675
0.181796
0.186672
0.191207
0.19537
0.199035
0.202193
0.204687
0.206237
0.206328
0.203984
0.197933
0.188992
0.178007
0.165592
0.152612
0.13938
0.126216
0.113337
0.100893
0.0889892
0.0777038
0.067096
0.0571153
0.0480104
0.0397077
0.0319105
0.0250577
0.0193372
0.014564
0.0105098
0.00734217
0.00496668
0.00325879
0.00208195
0.00129598
0.000789389
0.000471665
0.0002772
0.000160357
9.14799e-05
5.15225e-05
2.86761e-05
1.57861e-05
8.60614e-06
4.64555e-06
2.48589e-06
1.31961e-06
6.95455e-07
3.63966e-07
1.89256e-07
9.77785e-08
5.01594e-08
2.54958e-08
1.27764e-08
6.2399e-09
2.89012e-09
1.17589e-09
2.71814e-10
6.91259e-06
2.63526e-05
5.49768e-05
9.81741e-05
0.000163033
0.00025968
0.000402403
0.000610763
0.000910444
0.0013334
0.00191781
0.00270988
0.00376684
0.00515665
0.0069506
0.00922118
0.0120441
0.0154736
0.0193782
0.0239452
0.0290668
0.0347573
0.0409678
0.0478404
0.0549084
0.0622899
0.0699104
0.0778539
0.085743
0.0937715
0.101773
0.109611
0.117353
0.124925
0.132319
0.139483
0.14638
0.153
0.159333
0.165373
0.171178
0.176675
0.181796
0.186672
0.191207
0.195371
0.199037
0.202197
0.204694
0.206251
0.206356
0.203992
0.197958
0.189034
0.178068
0.165529
0.15257
0.139355
0.1262
0.113327
0.100886
0.0889849
0.0777009
0.067094
0.057114
0.0480095
0.039707
0.03191
0.0250573
0.0193369
0.0145636
0.0105095
0.00734192
0.00496647
0.00325861
0.0020818
0.00129587
0.000789313
0.000471615
0.000277168
0.000160338
9.1469e-05
5.15163e-05
2.86727e-05
1.57842e-05
8.60517e-06
4.64505e-06
2.48564e-06
1.31949e-06
6.95395e-07
3.63937e-07
1.89242e-07
9.77725e-08
5.01568e-08
2.54947e-08
1.27759e-08
6.2397e-09
2.89004e-09
1.17586e-09
2.71807e-10
6.91476e-06
2.63608e-05
5.49939e-05
9.82045e-05
0.000163083
0.000259759
0.000402524
0.000610945
0.000910711
0.00133379
0.00191836
0.00271066
0.00376789
0.00515806
0.00695248
0.00922352
0.012047
0.0154769
0.019382
0.0239501
0.0290721
0.034763
0.0409738
0.0478464
0.0549144
0.0622957
0.0699159
0.0778588
0.0857473
0.0937751
0.101776
0.109613
0.117354
0.124925
0.132318
0.139481
0.146378
0.152997
0.159329
0.165368
0.171173
0.176669
0.18179
0.186666
0.191201
0.195365
0.199033
0.202193
0.204691
0.206249
0.206353
0.204029
0.197998
0.189079
0.178116
0.165569
0.15261
0.139395
0.126242
0.11337
0.100929
0.089027
0.0777417
0.0671331
0.0571478
0.0480411
0.0397361
0.0319361
0.0250803
0.0193534
0.0145773
0.0105203
0.00735009
0.00497246
0.00326281
0.00208458
0.00129766
0.000790427
0.00047229
0.000277567
0.000160569
9.16006e-05
5.15901e-05
2.87135e-05
1.58066e-05
8.61724e-06
4.65151e-06
2.48907e-06
1.32129e-06
6.96336e-07
3.64426e-07
1.89494e-07
9.79019e-08
5.02227e-08
2.55281e-08
1.27926e-08
6.24783e-09
2.8938e-09
1.17739e-09
2.72162e-10
6.91924e-06
2.63779e-05
5.50294e-05
9.82677e-05
0.000163187
0.000259925
0.000402778
0.000611326
0.000911272
0.0013346
0.00191952
0.00271228
0.00377011
0.00516101
0.00695646
0.00922853
0.0120531
0.0154841
0.0193901
0.0239605
0.0290835
0.034775
0.0409863
0.0478591
0.0549268
0.0623077
0.0699272
0.0778689
0.0857562
0.0937826
0.101782
0.109617
0.117356
0.124925
0.132317
0.139478
0.146372
0.15299
0.15932
0.165358
0.171162
0.176657
0.181777
0.186653
0.191188
0.195352
0.199021
0.202183
0.204686
0.206251
0.20637
0.204052
0.198045
0.189144
0.178193
0.165653
0.152699
0.139488
0.126336
0.113462
0.10102
0.0891154
0.0778264
0.0672136
0.0572171
0.0481057
0.0397952
0.0319892
0.0251267
0.0193873
0.0146056
0.0105429
0.00736745
0.00498498
0.00327149
0.00209043
0.00130145
0.000792794
0.000473727
0.000278418
0.000161063
9.18823e-05
5.17482e-05
2.8801e-05
1.58544e-05
8.64304e-06
4.6653e-06
2.49637e-06
1.32512e-06
6.98331e-07
3.65458e-07
1.90025e-07
9.8173e-08
5.03604e-08
2.55974e-08
1.28271e-08
6.26459e-09
2.90154e-09
1.18053e-09
2.72887e-10
6.92617e-06
2.64042e-05
5.50843e-05
9.83655e-05
0.000163349
0.000260181
0.000403171
0.000611917
0.000912142
0.00133586
0.00192132
0.00271478
0.00377352
0.00516553
0.0069625
0.00923606
0.0120623
0.0154951
0.0194027
0.0239767
0.0291011
0.0347939
0.0410059
0.0478788
0.0549463
0.0623264
0.0699448
0.0778849
0.0857702
0.0937947
0.101791
0.109623
0.11736
0.124926
0.132315
0.139473
0.146365
0.15298
0.159308
0.165344
0.171145
0.176639
0.181758
0.186632
0.191167
0.195332
0.199001
0.202166
0.204674
0.206249
0.206387
0.204083
0.198108
0.189231
0.178302
0.165785
0.152842
0.139633
0.126482
0.113607
0.101162
0.0892521
0.0779576
0.0673375
0.0573233
0.0482045
0.039886
0.0320712
0.0251992
0.0194404
0.0146498
0.0105779
0.00739334
0.00500368
0.00328464
0.00209921
0.00130712
0.000796335
0.000475878
0.000279694
0.000161805
9.23062e-05
5.19866e-05
2.89331e-05
1.59267e-05
8.68207e-06
4.68617e-06
2.50742e-06
1.33092e-06
7.01349e-07
3.67019e-07
1.90827e-07
9.85826e-08
5.05684e-08
2.57021e-08
1.28792e-08
6.28987e-09
2.9132e-09
1.18527e-09
2.73981e-10
6.93572e-06
2.64406e-05
5.51601e-05
9.85005e-05
0.000163572
0.000260535
0.000403716
0.000612735
0.000913348
0.0013376
0.00192381
0.00271826
0.00377825
0.00517181
0.00697087
0.00924649
0.0120751
0.0155102
0.0194203
0.0239994
0.0291266
0.0348212
0.0410343
0.0479072
0.0549744
0.0623539
0.0699708
0.0779083
0.085791
0.0938128
0.101806
0.109634
0.117367
0.124929
0.132314
0.139468
0.146356
0.152967
0.159292
0.165325
0.171123
0.176615
0.181732
0.186605
0.191139
0.195303
0.198974
0.202141
0.204652
0.206234
0.206381
0.204141
0.198188
0.189324
0.178375
0.166048
0.153068
0.139846
0.126687
0.113806
0.101353
0.089436
0.0781328
0.0675039
0.0574659
0.0483354
0.0400049
0.0321772
0.0252911
0.0195071
0.0147047
0.0106213
0.00742713
0.00502868
0.00330209
0.00211084
0.00131462
0.000801014
0.000478722
0.000281381
0.000162787
9.28674e-05
5.23023e-05
2.91082e-05
1.60225e-05
8.73382e-06
4.71386e-06
2.52209e-06
1.33862e-06
7.05354e-07
3.6909e-07
1.91892e-07
9.91266e-08
5.08445e-08
2.58412e-08
1.29483e-08
6.32343e-09
2.92868e-09
1.19155e-09
2.75433e-10
6.94816e-06
2.6488e-05
5.52588e-05
9.86764e-05
0.000163864
0.000260997
0.000404428
0.000613806
0.000914928
0.0013399
0.00192707
0.00272282
0.00378448
0.0051801
0.00698191
0.00926026
0.012092
0.0155301
0.019443
0.0240282
0.0291575
0.0348546
0.0410692
0.0479432
0.0550104
0.0623888
0.0700043
0.0779394
0.0858192
0.0938377
0.101826
0.10965
0.117378
0.124935
0.132314
0.139464
0.146347
0.152953
0.159274
0.165303
0.171098
0.176587
0.181701
0.186571
0.191104
0.195268
0.198941
0.202113
0.204634
0.206234
0.206415
0.204233
0.198342
0.189537
0.178666
0.166191
0.153276
0.140082
0.126932
0.114049
0.101591
0.0896658
0.0783516
0.0677101
0.0576434
0.0485009
0.0401553
0.0323117
0.0254097
0.0195939
0.0147785
0.0106795
0.00747121
0.0050607
0.00332433
0.00212561
0.00132411
0.000806925
0.000482307
0.000283503
0.00016402
9.35711e-05
5.26976e-05
2.93272e-05
1.61421e-05
8.7984e-06
4.74837e-06
2.54035e-06
1.34821e-06
7.10338e-07
3.71667e-07
1.93215e-07
9.98026e-08
5.11876e-08
2.6014e-08
1.30342e-08
6.36514e-09
2.94792e-09
1.19936e-09
2.77237e-10
6.96376e-06
2.65474e-05
5.53825e-05
9.88971e-05
0.00016423
0.000261578
0.000405324
0.000615156
0.000916922
0.00134279
0.00193121
0.00272863
0.00379246
0.00519083
0.00699642
0.00927808
0.0121134
0.0155555
0.0194731
0.0240664
0.0291992
0.0348995
0.041117
0.0479913
0.055059
0.0624356
0.070049
0.0779805
0.0858565
0.0938712
0.101854
0.109672
0.117394
0.124945
0.132318
0.139461
0.146338
0.152939
0.159254
0.165278
0.171068
0.176553
0.181664
0.186531
0.191062
0.195226
0.198901
0.202079
0.204612
0.206232
0.206449
0.204332
0.19851
0.189761
0.17893
0.166469
0.153572
0.14039
0.127246
0.114367
0.101903
0.0899669
0.0786402
0.0679821
0.0578773
0.0487153
0.0403524
0.0324863
0.0255604
0.0197043
0.0148692
0.0107518
0.00752607
0.00510036
0.00335176
0.00214376
0.00133575
0.000814155
0.00048668
0.000286085
0.000165516
9.44232e-05
5.31752e-05
2.95911e-05
1.62862e-05
8.87597e-06
4.78976e-06
2.56223e-06
1.35967e-06
7.16292e-07
3.74742e-07
1.94794e-07
1.00608e-07
5.15963e-08
2.62197e-08
1.31364e-08
6.41476e-09
2.97081e-09
1.20865e-09
2.79382e-10
6.98276e-06
2.66198e-05
5.55334e-05
9.91662e-05
0.000164676
0.000262287
0.000406416
0.000616803
0.000919353
0.00134631
0.00193622
0.00273563
0.00380202
0.00520355
0.0070133
0.00930042
0.012141
0.0155887
0.0195106
0.024115
0.0292515
0.0349544
0.0411745
0.0480511
0.0551188
0.0624956
0.0701068
0.0780347
0.0859064
0.0939171
0.101893
0.109705
0.117419
0.124962
0.132328
0.139463
0.146332
0.152925
0.159234
0.165251
0.171035
0.176515
0.181621
0.186484
0.191013
0.195177
0.198855
0.20204
0.204585
0.206227
0.206484
0.20444
0.198702
0.190019
0.179239
0.166825
0.153948
0.140772
0.127629
0.114745
0.102278
0.0903299
0.0789871
0.0683118
0.0581622
0.0489774
0.0405898
0.0326991
0.0257459
0.0198395
0.0149804
0.01084
0.00759279
0.00514854
0.00338501
0.0021657
0.00134977
0.000822827
0.000491904
0.000289159
0.000167291
9.54303e-05
5.3738e-05
2.99012e-05
1.64549e-05
8.96661e-06
4.83802e-06
2.58768e-06
1.37298e-06
7.23194e-07
3.78302e-07
1.96619e-07
1.01539e-07
5.20681e-08
2.6457e-08
1.32544e-08
6.47198e-09
2.9972e-09
1.21936e-09
2.81855e-10
7.00547e-06
2.67063e-05
5.57138e-05
9.9488e-05
0.000165209
0.000263134
0.000407723
0.00061877
0.000922254
0.00135051
0.00194218
0.0027439
0.00381322
0.00521831
0.00703256
0.00932406
0.012171
0.0156253
0.019554
0.0241709
0.0293148
0.0350242
0.0412504
0.0481292
0.0551998
0.0625768
0.0701845
0.0781076
0.0859732
0.0939785
0.101947
0.10975
0.117456
0.12499
0.132345
0.139471
0.146331