/*--------------------------------*- C++ -*----------------------------------*\
  =========                 |
  \\      /  F ield         | OpenFOAM: The Open Source CFD Toolbox
   \\    /   O peration     | Website:  https://openfoam.org
    \\  /    A nd           | Version:  10
     \\/     M anipulation  |
\*---------------------------------------------------------------------------*/
FoamFile
{
    format      ascii;
    class       volScalarField;
    location    "1";
    object      H2O2;
}
// * * * * * * * * * * * * * * * * * * * * * * * * * * * * * * * * * * * * * //

dimensions      [0 0 0 0 0 0 0];

internalField   nonuniform List<scalar> 
4000
(
1.88565e-11
7.18841e-11
1.49957e-10
2.67755e-10
4.4459e-10
7.08076e-10
1.09717e-09
1.66524e-09
2.48239e-09
3.63622e-09
5.23149e-09
7.39261e-09
1.02662e-08
1.40156e-08
1.88033e-08
2.47356e-08
3.19321e-08
4.0388e-08
4.95937e-08
5.99512e-08
7.04431e-08
8.0957e-08
9.1257e-08
1.00415e-07
1.08388e-07
1.15046e-07
1.2044e-07
1.24704e-07
1.27875e-07
1.29984e-07
1.30637e-07
1.29013e-07
1.23845e-07
1.13811e-07
9.84642e-08
7.93056e-08
5.98987e-08
4.35656e-08
3.1457e-08
2.30752e-08
1.74864e-08
1.40455e-08
1.22781e-08
1.19523e-08
1.32036e-08
1.66035e-08
2.33053e-08
3.54643e-08
5.69441e-08
9.42894e-08
1.58665e-07
2.69166e-07
4.5857e-07
7.14899e-07
9.43126e-07
1.10229e-06
1.19806e-06
1.2529e-06
1.28925e-06
1.32195e-06
1.35502e-06
1.37776e-06
1.3711e-06
1.29214e-06
1.11294e-06
9.03379e-07
7.23023e-07
5.85006e-07
4.66537e-07
3.63839e-07
2.78445e-07
2.03882e-07
1.44098e-07
9.8176e-08
6.44025e-08
4.08707e-08
2.5169e-08
1.51082e-08
8.87481e-09
5.11705e-09
2.90523e-09
1.62619e-09
8.99121e-10
4.91944e-10
2.66351e-10
1.43036e-10
7.62593e-11
4.03832e-11
2.12642e-11
1.11465e-11
5.8048e-12
3.0086e-12
1.55182e-12
7.95799e-13
4.04763e-13
2.03097e-13
9.93491e-14
4.60864e-14
1.87734e-14
4.34287e-15
1.87814e-11
7.15963e-11
1.49359e-10
2.66715e-10
4.42928e-10
7.05511e-10
1.09329e-09
1.65937e-09
2.47346e-09
3.62237e-09
5.20967e-09
7.35815e-09
1.02115e-08
1.39328e-08
1.86854e-08
2.4577e-08
3.17128e-08
4.00921e-08
4.9237e-08
5.95839e-08
7.00658e-08
8.05511e-08
9.08549e-08
1.00095e-07
1.08149e-07
1.14889e-07
1.20347e-07
1.2468e-07
1.27902e-07
1.30067e-07
1.30793e-07
1.29287e-07
1.24276e-07
1.14386e-07
9.9154e-08
8.00102e-08
6.05015e-08
4.40126e-08
3.17703e-08
2.32897e-08
1.76392e-08
1.41633e-08
1.2382e-08
1.20677e-08
1.33602e-08
1.68451e-08
2.36981e-08
3.61264e-08
5.80906e-08
9.62719e-08
1.62085e-07
2.75046e-07
4.69074e-07
7.26291e-07
9.52508e-07
1.10915e-06
1.20413e-06
1.25835e-06
1.29499e-06
1.3284e-06
1.36205e-06
1.38328e-06
1.3728e-06
1.28522e-06
1.09928e-06
8.91046e-07
7.11866e-07
5.75899e-07
4.5846e-07
3.5685e-07
2.72797e-07
1.99926e-07
1.41439e-07
9.63886e-08
6.34759e-08
4.04334e-08
2.5003e-08
1.50707e-08
8.88851e-09
5.1444e-09
2.93174e-09
1.64697e-09
9.1411e-10
5.0168e-10
2.72897e-10
1.47071e-10
7.86133e-11
4.16804e-11
2.19404e-11
1.14694e-11
5.97492e-12
3.09393e-12
1.59345e-12
8.15671e-13
4.14055e-13
2.07348e-13
1.01241e-13
4.68908e-14
1.90793e-14
4.41048e-15
1.87258e-11
7.13899e-11
1.48948e-10
2.66021e-10
4.41847e-10
7.03906e-10
1.09087e-09
1.65556e-09
2.46716e-09
3.61162e-09
5.19081e-09
7.32441e-09
1.01567e-08
1.38488e-08
1.85625e-08
2.44077e-08
3.15021e-08
3.98156e-08
4.88922e-08
5.91813e-08
6.96313e-08
8.01449e-08
9.04051e-08
9.98806e-08
1.07982e-07
1.1479e-07
1.20306e-07
1.24709e-07
1.27992e-07
1.3023e-07
1.31059e-07
1.29698e-07
1.24881e-07
1.15238e-07
1.00161e-07
8.10315e-08
6.13682e-08
4.46539e-08
3.22123e-08
2.36039e-08
1.78648e-08
1.43367e-08
1.25408e-08
1.22511e-08
1.36147e-08
1.72436e-08
2.43542e-08
3.72441e-08
5.99838e-08
9.95325e-08
1.67721e-07
2.848e-07
4.85391e-07
7.43862e-07
9.67269e-07
1.11999e-06
1.21224e-06
1.26528e-06
1.30198e-06
1.33603e-06
1.37023e-06
1.38908e-06
1.37329e-06
1.27436e-06
1.0815e-06
8.75409e-07
6.98787e-07
5.6543e-07
4.49501e-07
3.49383e-07
2.66931e-07
1.95633e-07
1.3867e-07
9.4742e-08
6.24774e-08
3.98871e-08
2.47307e-08
1.49528e-08
8.84764e-09
5.13505e-09
2.93677e-09
1.65541e-09
9.21518e-10
5.07184e-10
2.76281e-10
1.49095e-10
7.98165e-11
4.23851e-11
2.2348e-11
1.17056e-11
6.09418e-12
3.15652e-12
1.62575e-12
8.31929e-13
4.22059e-13
2.11199e-13
1.0304e-13
4.76891e-14
1.9393e-14
4.48149e-15
1.86345e-11
7.10404e-11
1.48211e-10
2.64684e-10
4.39572e-10
7.0015e-10
1.08481e-09
1.64595e-09
2.45215e-09
3.58851e-09
5.15601e-09
7.27389e-09
1.00839e-08
1.37457e-08
1.84204e-08
2.42189e-08
3.12593e-08
3.95405e-08
4.85923e-08
5.88277e-08
6.92552e-08
7.97682e-08
9.00429e-08
9.96131e-08
1.07814e-07
1.14711e-07
1.20304e-07
1.24779e-07
1.28125e-07
1.30434e-07
1.3137e-07
1.30162e-07
1.25551e-07
1.16133e-07
1.01229e-07
8.21233e-08
6.23054e-08
4.5353e-08
3.27178e-08
2.39442e-08
1.81099e-08
1.45334e-08
1.27297e-08
1.24685e-08
1.39154e-08
1.77102e-08
2.51088e-08
3.85237e-08
6.21844e-08
1.03286e-07
1.7408e-07
2.96259e-07
5.04343e-07
7.64093e-07
9.84125e-07
1.13299e-06
1.22221e-06
1.274e-06
1.31079e-06
1.34548e-06
1.37934e-06
1.39516e-06
1.37246e-06
1.26086e-06
1.06195e-06
8.57885e-07
6.85613e-07
5.54811e-07
4.40352e-07
3.41621e-07
2.60743e-07
1.908e-07
1.34649e-07
9.17463e-08
6.04425e-08
3.86181e-08
2.39966e-08
1.45603e-08
8.65788e-09
5.05943e-09
2.90788e-09
1.64466e-09
9.18419e-10
5.06882e-10
2.76752e-10
1.49641e-10
8.02403e-11
4.2658e-11
2.25121e-11
1.18011e-11
6.14967e-12
3.18553e-12
1.64059e-12
8.39438e-13
4.25812e-13
2.13045e-13
1.03926e-13
4.80945e-14
1.95572e-14
4.51932e-15
1.85371e-11
7.06689e-11
1.47435e-10
2.63293e-10
4.37246e-10
6.96406e-10
1.07892e-09
1.63685e-09
2.43827e-09
3.56761e-09
5.12491e-09
7.22836e-09
1.00187e-08
1.36549e-08
1.82977e-08
2.40596e-08
3.10594e-08
3.92994e-08
4.83104e-08
5.85153e-08
6.89488e-08
7.94849e-08
8.97669e-08
9.94179e-08
1.07693e-07
1.14667e-07
1.20335e-07
1.24884e-07
1.28288e-07
1.30672e-07
1.31695e-07
1.30609e-07
1.26182e-07
1.16988e-07
1.02242e-07
8.31582e-08
6.31927e-08
4.60334e-08
3.31867e-08
2.428e-08
1.83518e-08
1.47271e-08
1.29189e-08
1.26935e-08
1.42337e-08
1.82115e-08
2.59266e-08
3.99061e-08
6.45736e-08
1.07401e-07
1.812e-07
3.07808e-07
5.24206e-07
7.84764e-07
1.00088e-06
1.14511e-06
1.231e-06
1.28141e-06
1.31805e-06
1.35298e-06
1.38595e-06
1.39876e-06
1.36933e-06
1.24568e-06
1.04248e-06
8.41898e-07
6.74069e-07
5.45212e-07
4.31763e-07
3.34212e-07
2.5478e-07
1.85843e-07
1.3113e-07
8.93864e-08
5.8951e-08
3.77263e-08
2.3485e-08
1.42758e-08
8.5014e-09
4.97165e-09
2.86393e-09
1.62607e-09
9.10703e-10
5.03766e-10
2.75475e-10
1.4919e-10
8.01263e-11
4.2651e-11
2.25315e-11
1.18208e-11
6.16413e-12
3.19421e-12
1.64536e-12
8.41929e-13
4.27065e-13
2.13657e-13
1.04217e-13
4.82261e-14
1.961e-14
4.53146e-15
1.84324e-11
7.02688e-11
1.46596e-10
2.61785e-10
4.34717e-10
6.92333e-10
1.07253e-09
1.62704e-09
2.42347e-09
3.5456e-09
5.09266e-09
7.18199e-09
9.95368e-09
1.35665e-08
1.81815e-08
2.39133e-08
3.08828e-08
3.9097e-08
4.80911e-08
5.82659e-08
6.87046e-08
7.92643e-08
8.9546e-08
9.92608e-08
1.076e-07
1.1465e-07
1.2039e-07
1.25006e-07
1.28473e-07
1.30918e-07
1.32017e-07
1.31042e-07
1.26771e-07
1.17758e-07
1.03151e-07
8.40867e-08
6.40055e-08
4.66418e-08
3.36204e-08
2.45777e-08
1.85703e-08
1.49098e-08
1.30985e-08
1.29095e-08
1.45426e-08
1.87025e-08
2.67307e-08
4.12797e-08
6.69014e-08
1.11367e-07
1.87867e-07
3.19039e-07
5.43004e-07
8.04096e-07
1.01656e-06
1.15704e-06
1.23993e-06
1.28913e-06
1.32557e-06
1.3603e-06
1.39165e-06
1.40105e-06
1.36481e-06
1.23096e-06
1.02538e-06
8.28469e-07
6.65032e-07
5.35052e-07
4.23559e-07
3.27581e-07
2.48962e-07
1.81423e-07
1.27952e-07
8.72111e-08
5.75257e-08
3.68345e-08
2.29475e-08
1.39634e-08
8.32552e-09
4.87551e-09
2.80972e-09
1.59625e-09
8.95216e-10
4.96234e-10
2.7221e-10
1.47754e-10
7.94985e-11
4.2372e-11
2.24072e-11
1.17652e-11
6.1394e-12
3.18275e-12
1.63973e-12
8.39203e-13
4.2575e-13
2.13025e-13
1.03918e-13
4.80909e-14
1.95561e-14
4.51916e-15
1.83287e-11
6.9873e-11
1.45768e-10
2.60299e-10
4.32236e-10
6.88358e-10
1.06634e-09
1.6176e-09
2.40934e-09
3.52478e-09
5.06244e-09
7.13894e-09
9.89387e-09
1.34858e-08
1.80761e-08
2.37814e-08
3.07238e-08
3.8914e-08
4.78893e-08
5.803e-08
6.84715e-08
7.90655e-08
8.93513e-08
9.912e-08
1.07529e-07
1.14648e-07
1.20453e-07
1.25128e-07
1.28648e-07
1.31148e-07
1.32312e-07
1.31433e-07
1.27288e-07
1.18417e-07
1.03915e-07
8.48477e-08
6.4661e-08
4.71347e-08
3.39641e-08
2.48201e-08
1.87538e-08
1.50642e-08
1.32555e-08
1.31019e-08
1.48176e-08
1.91318e-08
2.74118e-08
4.24126e-08
6.9131e-08
1.15062e-07
1.94221e-07
3.30091e-07
5.61005e-07
8.21812e-07
1.03023e-06
1.16745e-06
1.24709e-06
1.29509e-06
1.33147e-06
1.36636e-06
1.39597e-06
1.40273e-06
1.36015e-06
1.21744e-06
1.01046e-06
8.1691e-07
6.56873e-07
5.28064e-07
4.17455e-07
3.22272e-07
2.44677e-07
1.78032e-07
1.25412e-07
8.53864e-08
5.62838e-08
3.60334e-08
2.24522e-08
1.36689e-08
8.15608e-09
4.78105e-09
2.75803e-09
1.56845e-09
8.80423e-10
4.88347e-10
2.67912e-10
1.45497e-10
7.83438e-11
4.17904e-11
2.21187e-11
1.16237e-11
6.07114e-12
3.15024e-12
1.62483e-12
8.32219e-13
4.22425e-13
2.11434e-13
1.03164e-13
4.77485e-14
1.94182e-14
4.48749e-15
1.82297e-11
6.94953e-11
1.44978e-10
2.58883e-10
4.29876e-10
6.84584e-10
1.06048e-09
1.6087e-09
2.39608e-09
3.50537e-09
5.03445e-09
7.09934e-09
9.83926e-09
1.34127e-08
1.79814e-08
2.36637e-08
3.05829e-08
3.87529e-08
4.77131e-08
5.78196e-08
6.82733e-08
7.88815e-08
8.91887e-08
9.90168e-08
1.07485e-07
1.14664e-07
1.20525e-07
1.25256e-07
1.28817e-07
1.31358e-07
1.3258e-07
1.31778e-07
1.27736e-07
1.18976e-07
1.04552e-07
8.54934e-08
6.52027e-08
4.75376e-08
3.42472e-08
2.50207e-08
1.88991e-08
1.51856e-08
1.33813e-08
1.32613e-08
1.50544e-08
1.95164e-08
2.8052e-08
4.34947e-08
7.08723e-08
1.17964e-07
1.98957e-07
3.40544e-07
5.7693e-07
8.3708e-07
1.04154e-06
1.17665e-06
1.25359e-06
1.30062e-06
1.33697e-06
1.3718e-06
1.40013e-06
1.40399e-06
1.35503e-06
1.20439e-06
9.9617e-07
8.05993e-07
6.49068e-07
5.20738e-07
4.11402e-07
3.17328e-07
2.40745e-07
1.74971e-07
1.23025e-07
8.36289e-08
5.50696e-08
3.52416e-08
2.19579e-08
1.33719e-08
7.9833e-09
4.68348e-09
2.70395e-09
1.53904e-09
8.64691e-10
4.80047e-10
2.63587e-10
1.4328e-10
7.71518e-11
4.11869e-11
2.18141e-11
1.14703e-11
5.99437e-12
3.11144e-12
1.605e-12
8.22232e-13
4.17458e-13
2.09001e-13
1.02002e-13
4.7221e-14
1.9207e-14
4.43918e-15
1.81388e-11
6.91486e-11
1.44254e-10
2.57588e-10
4.2772e-10
6.81147e-10
1.05516e-09
1.60065e-09
2.38415e-09
3.48797e-09
5.00949e-09
7.06421e-09
9.79108e-09
1.33485e-08
1.78987e-08
2.35615e-08
3.0462e-08
3.86171e-08
4.75717e-08
5.7651e-08
6.81035e-08
7.87353e-08
8.90681e-08
9.89381e-08
1.07455e-07
1.14685e-07
1.20594e-07
1.25368e-07
1.28967e-07
1.3155e-07
1.32824e-07
1.32086e-07
1.28119e-07
1.19441e-07
1.05083e-07
8.60057e-08
6.5628e-08
4.78499e-08
3.44666e-08
2.51785e-08
1.90216e-08
1.52952e-08
1.35015e-08
1.34188e-08
1.52907e-08
1.9895e-08
2.86811e-08
4.45659e-08
7.26208e-08
1.20977e-07
2.0407e-07
3.48789e-07
5.90083e-07
8.49796e-07
1.05143e-06
1.18312e-06
1.25836e-06
1.30475e-06
1.34109e-06
1.37589e-06
1.40312e-06
1.4045e-06
1.34993e-06
1.19249e-06
9.8308e-07
7.95225e-07
6.41001e-07
5.13765e-07
4.05129e-07
3.11695e-07
2.36037e-07
1.71366e-07
1.2039e-07
8.18012e-08
5.38549e-08
3.4469e-08
2.14828e-08
1.30887e-08
7.81886e-09
4.59021e-09
2.65198e-09
1.51056e-09
8.49301e-10
4.71837e-10
2.59254e-10
1.41031e-10
7.59849e-11
4.05856e-11
2.15061e-11
1.13133e-11
5.91499e-12
3.07119e-12
1.58464e-12
8.11969e-13
4.12319e-13
2.06458e-13
1.00773e-13
4.6656e-14
1.89783e-14
4.38644e-15
1.80574e-11
6.88383e-11
1.43607e-10
2.5643e-10
4.25797e-10
6.78086e-10
1.05043e-09
1.59352e-09
2.37361e-09
3.47268e-09
4.98766e-09
7.03366e-09
9.74932e-09
1.3293e-08
1.78271e-08
2.34727e-08
3.03554e-08
3.84953e-08
4.74369e-08
5.7488e-08
6.79505e-08
7.85956e-08
8.89584e-08
9.88752e-08
1.07436e-07
1.1471e-07
1.2066e-07
1.25472e-07
1.29103e-07
1.31722e-07
1.33031e-07
1.3234e-07
1.28436e-07
1.19826e-07
1.055e-07
8.64041e-08
6.59563e-08
4.80901e-08
3.46381e-08
2.53005e-08
1.91161e-08
1.53826e-08
1.36027e-08
1.35589e-08
1.55096e-08
2.02635e-08
2.93187e-08
4.56693e-08
7.44345e-08
1.24189e-07
2.09746e-07
3.56303e-07
6.02166e-07
8.61163e-07
1.05977e-06
1.18924e-06
1.26276e-06
1.30847e-06
1.34478e-06
1.37952e-06
1.40576e-06
1.40474e-06
1.34508e-06
1.18333e-06
9.69452e-07
7.85245e-07
6.33669e-07
5.07581e-07
3.99745e-07
3.07353e-07
2.32345e-07
1.68413e-07
1.18192e-07
8.02517e-08
5.28113e-08
3.37971e-08
2.10645e-08
1.28364e-08
7.67043e-09
4.50507e-09
2.60402e-09
1.484e-09
8.34807e-10
4.6403e-10
2.55096e-10
1.38854e-10
7.4847e-11
3.99956e-11
2.12022e-11
1.11576e-11
5.83539e-12
3.0307e-12
1.56413e-12
8.01631e-13
4.07141e-13
2.03894e-13
9.95326e-14
4.60854e-14
1.87472e-14
4.33314e-15
1.79861e-11
6.85667e-11
1.4304e-10
2.55419e-10
4.24118e-10
6.75418e-10
1.04631e-09
1.58732e-09
2.36449e-09
3.45951e-09
4.96901e-09
7.00779e-09
9.71436e-09
1.32471e-08
1.77674e-08
2.34001e-08
3.02718e-08
3.84042e-08
4.73389e-08
5.73677e-08
6.78355e-08
7.84932e-08
8.88799e-08
9.88292e-08
1.07427e-07
1.14738e-07
1.20722e-07
1.25565e-07
1.29225e-07
1.31869e-07
1.33208e-07
1.32555e-07
1.28699e-07
1.20129e-07
1.05824e-07
8.67082e-08
6.62015e-08
4.82686e-08
3.47641e-08
2.53914e-08
1.9188e-08
1.54512e-08
1.36848e-08
1.36742e-08
1.56943e-08
2.05757e-08
2.98443e-08
4.65703e-08
7.59331e-08
1.2677e-07
2.14129e-07
3.63754e-07
6.13133e-07
8.71479e-07
1.06765e-06
1.19467e-06
1.26687e-06
1.31213e-06
1.34843e-06
1.38304e-06
1.40816e-06
1.40488e-06
1.34017e-06
1.17326e-06
9.59186e-07
7.76279e-07
6.26546e-07
5.01304e-07
3.94339e-07
3.03158e-07
2.29058e-07
1.65825e-07
1.16277e-07
7.89056e-08
5.19027e-08
3.32095e-08
2.06968e-08
1.26135e-08
7.53782e-09
4.42858e-09
2.56067e-09
1.45984e-09
8.21537e-10
4.56835e-10
2.51241e-10
1.36815e-10
7.37758e-11
3.94375e-11
2.09136e-11
1.10097e-11
5.75763e-12
2.99121e-12
1.54416e-12
7.91571e-13
4.02107e-13
2.01403e-13
9.83277e-14
4.55311e-14
1.85226e-14
4.28135e-15
1.79248e-11
6.83331e-11
1.42553e-10
2.5455e-10
4.22678e-10
6.73133e-10
1.0428e-09
1.58204e-09
2.35674e-09
3.44836e-09
4.9533e-09
6.98614e-09
9.68528e-09
1.32092e-08
1.77182e-08
2.33413e-08
3.02034e-08
3.83256e-08
4.72525e-08
5.72663e-08
6.77359e-08
7.84092e-08
8.88189e-08
9.87984e-08
1.07426e-07
1.14767e-07
1.20779e-07
1.25647e-07
1.29327e-07
1.3199e-07
1.33352e-07
1.32727e-07
1.28901e-07
1.20363e-07
1.06072e-07
8.69375e-08
6.63847e-08
4.84037e-08
3.48585e-08
2.54603e-08
1.9244e-08
1.55066e-08
1.37523e-08
1.37708e-08
1.58505e-08
2.08379e-08
3.02868e-08
4.73185e-08
7.72045e-08
1.28936e-07
2.17822e-07
3.70091e-07
6.22037e-07
8.79646e-07
1.07371e-06
1.19882e-06
1.26995e-06
1.31485e-06
1.35123e-06
1.38578e-06
1.41e-06
1.40468e-06
1.33524e-06
1.16353e-06
9.48738e-07
7.65269e-07
6.18548e-07
4.94934e-07
3.89166e-07
2.99482e-07
2.26252e-07
1.63773e-07
1.14696e-07
7.77671e-08
5.1124e-08
3.27016e-08
2.03767e-08
1.24183e-08
7.42158e-09
4.36111e-09
2.52222e-09
1.43828e-09
8.09633e-10
4.50347e-10
2.47747e-10
1.34956e-10
7.27949e-11
3.89242e-11
2.0647e-11
1.08726e-11
5.6862e-12
2.95478e-12
1.52566e-12
7.82229e-13
3.97421e-13
1.9908e-13
9.72026e-14
4.5013e-14
1.83125e-14
4.2329e-15
1.78729e-11
6.81353e-11
1.42141e-10
2.53815e-10
4.21461e-10
6.71203e-10
1.03983e-09
1.5776e-09
2.35022e-09
3.43902e-09
4.94017e-09
6.96812e-09
9.66128e-09
1.31783e-08
1.7679e-08
2.32947e-08
3.01478e-08
3.82632e-08
4.71866e-08
5.71869e-08
6.76614e-08
7.8347e-08
8.87737e-08
9.87777e-08
1.07432e-07
1.14799e-07
1.20834e-07
1.25723e-07
1.29418e-07
1.32094e-07
1.33473e-07
1.32866e-07
1.29063e-07
1.20545e-07
1.06261e-07
8.71082e-08
6.65211e-08
4.85003e-08
3.49254e-08
2.55085e-08
1.92836e-08
1.55474e-08
1.38049e-08
1.385e-08
1.59797e-08
2.10566e-08
3.06584e-08
4.79513e-08
7.82673e-08
1.30688e-07
2.20648e-07
3.77622e-07
6.30973e-07
8.87167e-07
1.07905e-06
1.20228e-06
1.27239e-06
1.31696e-06
1.35341e-06
1.38795e-06
1.41147e-06
1.40445e-06
1.33098e-06
1.15529e-06
9.39999e-07
7.56176e-07
6.11536e-07
4.89287e-07
3.84529e-07
2.96128e-07
2.23511e-07
1.61683e-07
1.13212e-07
7.67411e-08
5.04377e-08
3.22588e-08
2.00989e-08
1.22488e-08
7.32076e-09
4.30243e-09
2.48866e-09
1.4194e-09
7.99166e-10
4.4462e-10
2.44651e-10
1.33302e-10
7.19186e-11
3.8464e-11
2.04072e-11
1.07486e-11
5.6224e-12
2.92212e-12
1.50902e-12
7.73803e-13
3.93185e-13
1.96977e-13
9.61825e-14
4.45428e-14
1.81217e-14
4.18884e-15
1.78295e-11
6.797e-11
1.41796e-10
2.53201e-10
4.20445e-10
6.69593e-10
1.03736e-09
1.57388e-09
2.34477e-09
3.43117e-09
4.92909e-09
6.95281e-09
9.64067e-09
1.31514e-08
1.7644e-08
2.32505e-08
3.00963e-08
3.82069e-08
4.71295e-08
5.71198e-08
6.76014e-08
7.82966e-08
8.87383e-08
9.87623e-08
1.07437e-07
1.14825e-07
1.20879e-07
1.25784e-07
1.29492e-07
1.32182e-07
1.33573e-07
1.32981e-07
1.29193e-07
1.20686e-07
1.06402e-07
8.72331e-08
6.66161e-08
4.8566e-08
3.49704e-08
2.55413e-08
1.93121e-08
1.55804e-08
1.3852e-08
1.3926e-08
1.61089e-08
2.12815e-08
3.10497e-08
4.86352e-08
7.94621e-08
1.32791e-07
2.24378e-07
3.82734e-07
6.37976e-07
8.93348e-07
1.08337e-06
1.20499e-06
1.27425e-06
1.31857e-06
1.3551e-06
1.38968e-06
1.41263e-06
1.40424e-06
1.32738e-06
1.14849e-06
9.32963e-07
7.49046e-07
6.06113e-07
4.84877e-07
3.80917e-07
2.93504e-07
2.21415e-07
1.60079e-07
1.12033e-07
7.5908e-08
4.9872e-08
3.18902e-08
1.9866e-08
1.21061e-08
7.23541e-09
4.25254e-09
2.46001e-09
1.40321e-09
7.90155e-10
4.39671e-10
2.41965e-10
1.31863e-10
7.11537e-11
3.80612e-11
2.01968e-11
1.06396e-11
5.56621e-12
2.89331e-12
1.49434e-12
7.6636e-13
3.89441e-13
1.95116e-13
9.52794e-14
4.41262e-14
1.79526e-14
4.14979e-15
1.7794e-11
6.78348e-11
1.41515e-10
2.52699e-10
4.19614e-10
6.68276e-10
1.03533e-09
1.57085e-09
2.34032e-09
3.42475e-09
4.92001e-09
6.94022e-09
9.62364e-09
1.3129e-08
1.76145e-08
2.32161e-08
3.00578e-08
3.81652e-08
4.70861e-08
5.70678e-08
6.75517e-08
7.82557e-08
8.87098e-08
9.8751e-08
1.07443e-07
1.14847e-07
1.20916e-07
1.25834e-07
1.29553e-07
1.32252e-07
1.33653e-07
1.33072e-07
1.29296e-07
1.20796e-07
1.06509e-07
8.73235e-08
6.66817e-08
4.86099e-08
3.50002e-08
2.55635e-08
1.93328e-08
1.56057e-08
1.38893e-08
1.39874e-08
1.62151e-08
2.14689e-08
3.13792e-08
4.92169e-08
8.04871e-08
1.3459e-07
2.27532e-07
3.86756e-07
6.43442e-07
8.98215e-07
1.08697e-06
1.20744e-06
1.27603e-06
1.32008e-06
1.35659e-06
1.39107e-06
1.41345e-06
1.40385e-06
1.32417e-06
1.14283e-06
9.27355e-07
7.43597e-07
6.01939e-07
4.81416e-07
3.78069e-07
2.91422e-07
2.19769e-07
1.58798e-07
1.11078e-07
7.52274e-08
4.94075e-08
3.15862e-08
1.96731e-08
1.19874e-08
7.1642e-09
4.21077e-09
2.43594e-09
1.38958e-09
7.82542e-10
4.35477e-10
2.39684e-10
1.30637e-10
7.05007e-11
3.77166e-11
2.00164e-11
1.0546e-11
5.51789e-12
2.86852e-12
1.48169e-12
7.5994e-13
3.86209e-13
1.93509e-13
9.44991e-14
4.37662e-14
1.78064e-14
4.11603e-15
1.77657e-11
6.77273e-11
1.41291e-10
2.523e-10
4.18954e-10
6.67232e-10
1.03373e-09
1.56845e-09
2.3368e-09
3.41969e-09
4.91286e-09
6.93038e-09
9.61052e-09
1.31121e-08
1.75928e-08
2.31903e-08
3.00276e-08
3.81316e-08
4.70504e-08
5.70253e-08
6.75144e-08
7.82255e-08
8.86898e-08
9.8744e-08
1.07449e-07
1.14867e-07
1.20947e-07
1.25876e-07
1.29603e-07
1.32308e-07
1.33717e-07
1.33144e-07
1.29375e-07
1.2088e-07
1.06589e-07
8.73904e-08
6.67293e-08
4.86411e-08
3.50211e-08
2.55794e-08
1.9348e-08
1.56255e-08
1.39196e-08
1.40377e-08
1.63011e-08
2.16173e-08
3.16324e-08
4.96463e-08
8.12126e-08
1.35798e-07
2.29511e-07
3.89933e-07
6.47573e-07
9.02027e-07
1.0899e-06
1.2095e-06
1.27761e-06
1.32148e-06
1.35796e-06
1.39231e-06
1.41415e-06
1.40347e-06
1.32145e-06
1.13819e-06
9.22891e-07
7.39348e-07
5.9863e-07
4.78682e-07
3.75763e-07
2.89747e-07
2.1841e-07
1.57747e-07
1.10297e-07
7.46723e-08
4.90297e-08
3.13395e-08
1.95166e-08
1.18909e-08
7.10612e-09
4.1766e-09
2.41619e-09
1.37835e-09
7.7626e-10
4.32009e-10
2.37793e-10
1.29619e-10
6.99576e-11
3.74296e-11
1.9866e-11
1.04679e-11
5.47751e-12
2.84778e-12
1.4711e-12
7.54565e-13
3.83502e-13
1.92163e-13
9.38452e-14
4.34644e-14
1.76838e-14
4.08771e-15
1.77442e-11
6.76451e-11
1.4112e-10
2.51996e-10
4.18452e-10
6.66438e-10
1.03252e-09
1.56664e-09
2.33417e-09
3.41595e-09
4.90766e-09
6.92331e-09
9.60116e-09
1.31e-08
1.75767e-08
2.31704e-08
3.00041e-08
3.81058e-08
4.70238e-08
5.69934e-08
6.7485e-08
7.82017e-08
8.86744e-08
9.87395e-08
1.07456e-07
1.14884e-07
1.20973e-07
1.2591e-07
1.29643e-07
1.32353e-07
1.33767e-07
1.33199e-07
1.29435e-07
1.20942e-07
1.06647e-07
8.74371e-08
6.67611e-08
4.86611e-08
3.50344e-08
2.55897e-08
1.93585e-08
1.564e-08
1.39426e-08
1.4077e-08
1.63693e-08
2.17364e-08
3.18388e-08
5.00047e-08
8.18322e-08
1.3687e-07
2.31381e-07
3.93238e-07
6.51522e-07
9.05444e-07
1.09243e-06
1.21117e-06
1.27889e-06
1.32266e-06
1.35914e-06
1.39341e-06
1.41482e-06
1.40328e-06
1.3194e-06
1.13464e-06
9.19526e-07
7.36191e-07
5.96156e-07
4.76602e-07
3.73993e-07
2.88457e-07
2.17362e-07
1.56945e-07
1.09705e-07
7.42498e-08
4.87402e-08
3.1149e-08
1.93949e-08
1.18154e-08
7.06043e-09
4.1496e-09
2.40053e-09
1.36943e-09
7.71256e-10
4.29242e-10
2.36282e-10
1.28804e-10
6.95226e-11
3.71995e-11
1.97454e-11
1.04052e-11
5.4451e-12
2.83114e-12
1.4626e-12
7.50249e-13
3.81327e-13
1.91081e-13
9.33198e-14
4.3222e-14
1.75854e-14
4.06496e-15
1.77287e-11
6.75864e-11
1.40998e-10
2.5178e-10
4.18097e-10
6.65881e-10
1.03167e-09
1.56539e-09
2.33235e-09
3.41333e-09
4.90392e-09
6.91806e-09
9.59393e-09
1.30905e-08
1.75643e-08
2.31559e-08
2.99876e-08
3.8088e-08
4.70054e-08
5.69714e-08
6.74652e-08
7.8186e-08
8.86646e-08
9.87371e-08
1.07461e-07
1.14896e-07
1.20992e-07
1.25934e-07
1.29671e-07
1.32385e-07
1.33803e-07
1.33239e-07
1.29479e-07
1.20986e-07
1.06688e-07
8.74683e-08
6.67817e-08
4.86737e-08
3.50426e-08
2.55961e-08
1.93655e-08
1.56502e-08
1.39592e-08
1.41051e-08
1.64182e-08
2.18219e-08
3.19863e-08
5.02586e-08
8.22656e-08
1.37603e-07
2.32601e-07
3.95242e-07
6.54166e-07
9.08109e-07
1.095e-06
1.2116e-06
1.27957e-06
1.32349e-06
1.3601e-06
1.39436e-06
1.41544e-06
1.40322e-06
1.31791e-06
1.13202e-06
9.17061e-07
7.33929e-07
5.94385e-07
4.7511e-07
3.72732e-07
2.87533e-07
2.16613e-07
1.56361e-07
1.09266e-07
7.39355e-08
4.85252e-08
3.1008e-08
1.93053e-08
1.17603e-08
7.02745e-09
4.13021e-09
2.38931e-09
1.36303e-09
7.67657e-10
4.27244e-10
2.35187e-10
1.28211e-10
6.92045e-11
3.70304e-11
1.96562e-11
1.03586e-11
5.4209e-12
2.81866e-12
1.45621e-12
7.47003e-13
3.79692e-13
1.90268e-13
9.29246e-14
4.30396e-14
1.75113e-14
4.04785e-15
1.77188e-11
6.75487e-11
1.40919e-10
2.5164e-10
4.17866e-10
6.65515e-10
1.0311e-09
1.56453e-09
2.33108e-09
3.41148e-09
4.9013e-09
6.91445e-09
9.58914e-09
1.30843e-08
1.75562e-08
2.31463e-08
2.99767e-08
3.80762e-08
4.69937e-08
5.69576e-08
6.74529e-08
7.81764e-08
8.86587e-08
9.87361e-08
1.07465e-07
1.14905e-07
1.21005e-07
1.2595e-07
1.2969e-07
1.32407e-07
1.33827e-07
1.33265e-07
1.29507e-07
1.21014e-07
1.06713e-07
8.74874e-08
6.6794e-08
4.86811e-08
3.50473e-08
2.55997e-08
1.93697e-08
1.56565e-08
1.39698e-08
1.41236e-08
1.64508e-08
2.18797e-08
3.20882e-08
5.04386e-08
8.25832e-08
1.38162e-07
2.33581e-07
3.96947e-07
6.56247e-07
9.09975e-07
1.09641e-06
1.21258e-06
1.28035e-06
1.32421e-06
1.36082e-06
1.39503e-06
1.41589e-06
1.40321e-06
1.31693e-06
1.1303e-06
9.1545e-07
7.32451e-07
5.93227e-07
4.74133e-07
3.71901e-07
2.86927e-07
2.16116e-07
1.55975e-07
1.08977e-07
7.37277e-08
4.83814e-08
3.09132e-08
1.92454e-08
1.17234e-08
7.00519e-09
4.11711e-09
2.38175e-09
1.35874e-09
7.6526e-10
4.25922e-10
2.34467e-10
1.27823e-10
6.89972e-11
3.69207e-11
1.95986e-11
1.03286e-11
5.40534e-12
2.81062e-12
1.45208e-12
7.44889e-13
3.7862e-13
1.89732e-13
9.26633e-14
4.29187e-14
1.74621e-14
4.03648e-15
1.77138e-11
6.75297e-11
1.4088e-10
2.5157e-10
4.17749e-10
6.6533e-10
1.03082e-09
1.56411e-09
2.33046e-09
3.4106e-09
4.90005e-09
6.91272e-09
9.58682e-09
1.30813e-08
1.75524e-08
2.31417e-08
2.99714e-08
3.80706e-08
4.6988e-08
5.69508e-08
6.74469e-08
7.81718e-08
8.86561e-08
9.87359e-08
1.07467e-07
1.14909e-07
1.21011e-07
1.25958e-07
1.297e-07
1.32417e-07
1.33838e-07
1.33278e-07
1.2952e-07
1.21028e-07
1.06725e-07
8.74966e-08
6.67998e-08
4.86845e-08
3.50495e-08
2.56013e-08
1.93713e-08
1.56588e-08
1.39734e-08
1.41299e-08
1.6462e-08
2.19004e-08
3.21268e-08
5.05127e-08
8.27303e-08
1.38465e-07
2.34235e-07
3.98415e-07
6.57846e-07
9.11237e-07
1.0972e-06
1.21396e-06
1.28142e-06
1.32509e-06
1.36154e-06
1.39558e-06
1.41617e-06
1.40314e-06
1.31633e-06
1.12934e-06
9.1459e-07
7.31697e-07
5.92642e-07
4.73646e-07
3.71491e-07
2.86626e-07
2.15873e-07
1.55786e-07
1.08835e-07
7.3625e-08
4.83091e-08
3.0864e-08
1.92129e-08
1.17029e-08
6.9927e-09
4.10972e-09
2.37747e-09
1.35632e-09
7.63904e-10
4.25176e-10
2.34061e-10
1.27605e-10
6.88816e-11
3.68598e-11
1.95669e-11
1.03122e-11
5.39693e-12
2.80633e-12
1.4499e-12
7.43792e-13
3.7807e-13
1.89459e-13
9.25314e-14
4.28578e-14
1.74374e-14
4.03078e-15
1.77138e-11
6.75295e-11
1.40879e-10
2.51569e-10
4.17747e-10
6.65327e-10
1.03081e-09
1.5641e-09
2.33045e-09
3.41058e-09
4.90003e-09
6.91269e-09
9.58678e-09
1.30812e-08
1.75523e-08
2.31416e-08
2.99714e-08
3.80705e-08
4.6988e-08
5.69508e-08
6.74469e-08
7.81718e-08
8.86562e-08
9.8736e-08
1.07467e-07
1.14909e-07
1.21012e-07
1.25959e-07
1.297e-07
1.32418e-07
1.33839e-07
1.33278e-07
1.2952e-07
1.21028e-07
1.06725e-07
8.74965e-08
6.67999e-08
4.86847e-08
3.50497e-08
2.56014e-08
1.93707e-08
1.56571e-08
1.39696e-08
1.41219e-08
1.64455e-08
2.18661e-08
3.20562e-08
5.03652e-08
8.24171e-08
1.37789e-07
2.32745e-07
3.9843e-07
6.57159e-07
9.10441e-07
1.09635e-06
1.21415e-06
1.28133e-06
1.32486e-06
1.36127e-06
1.39531e-06
1.41594e-06
1.40295e-06
1.31616e-06
1.1292e-06
9.14496e-07
7.3164e-07
5.92609e-07
4.73626e-07
3.71479e-07
2.86618e-07
2.15867e-07
1.55781e-07
1.08832e-07
7.36219e-08
4.83063e-08
3.08618e-08
1.92112e-08
1.17017e-08
6.99191e-09
4.10923e-09
2.37717e-09
1.35614e-09
7.63806e-10
4.25122e-10
2.34032e-10
1.2759e-10
6.88737e-11
3.68559e-11
1.95649e-11
1.03112e-11
5.39647e-12
2.80612e-12
1.44981e-12
7.4375e-13
3.78052e-13
1.89451e-13
9.2528e-14
4.28565e-14
1.74369e-14
4.03066e-15
1.77186e-11
6.7548e-11
1.40918e-10
2.51637e-10
4.17859e-10
6.65504e-10
1.03109e-09
1.5645e-09
2.33103e-09
3.41142e-09
4.90122e-09
6.91433e-09
9.58899e-09
1.30841e-08
1.75561e-08
2.31461e-08
2.99765e-08
3.8076e-08
4.69936e-08
5.69574e-08
6.74528e-08
7.81765e-08
8.8659e-08
9.87365e-08
1.07465e-07
1.14905e-07
1.21005e-07
1.25951e-07
1.29691e-07
1.32407e-07
1.33827e-07
1.33265e-07
1.29506e-07
1.21014e-07
1.06712e-07
8.74874e-08
6.67943e-08
4.86816e-08
3.50477e-08
2.55997e-08
1.93687e-08
1.56538e-08
1.3964e-08
1.41122e-08
1.64292e-08
2.18402e-08
3.20183e-08
5.0318e-08
8.23828e-08
1.37847e-07
2.33136e-07
3.96451e-07
6.55609e-07
9.09311e-07
1.09563e-06
1.2138e-06
1.28112e-06
1.32467e-06
1.36106e-06
1.39509e-06
1.41578e-06
1.40297e-06
1.3166e-06
1.12997e-06
9.15218e-07
7.3231e-07
5.93142e-07
4.74082e-07
3.71872e-07
2.86904e-07
2.16101e-07
1.55963e-07
1.08968e-07
7.37205e-08
4.83745e-08
3.09066e-08
1.92398e-08
1.17194e-08
7.00258e-09
4.11551e-09
2.3808e-09
1.3582e-09
7.6496e-10
4.25759e-10
2.3438e-10
1.27778e-10
6.89742e-11
3.69091e-11
1.95929e-11
1.03258e-11
5.40406e-12
2.81004e-12
1.45182e-12
7.44775e-13
3.78571e-13
1.89711e-13
9.26545e-14
4.2915e-14
1.74608e-14
4.03618e-15
1.77287e-11
6.75864e-11
1.40998e-10
2.51779e-10
4.18094e-10
6.65874e-10
1.03165e-09
1.56535e-09
2.33227e-09
3.4132e-09
4.90372e-09
6.91779e-09
9.59363e-09
1.30901e-08
1.7564e-08
2.31556e-08
2.99874e-08
3.80878e-08
4.70054e-08
5.69715e-08
6.74654e-08
7.81863e-08
8.8665e-08
9.87377e-08
1.07462e-07
1.14897e-07
1.20993e-07
1.25935e-07
1.29672e-07
1.32386e-07
1.33803e-07
1.33239e-07
1.29478e-07
1.20986e-07
1.06687e-07
8.74682e-08
6.67821e-08
4.86744e-08
3.50432e-08
2.55961e-08
1.93644e-08
1.56469e-08
1.39522e-08
1.40913e-08
1.63919e-08
2.17731e-08
3.18983e-08
5.0102e-08
8.19899e-08
1.37122e-07
2.31774e-07
3.95472e-07
6.54036e-07
9.07848e-07
1.09453e-06
1.21305e-06
1.28055e-06
1.32417e-06
1.36055e-06
1.39461e-06
1.41549e-06
1.40306e-06
1.31756e-06
1.13162e-06
9.16757e-07
7.33733e-07
5.94264e-07
4.75033e-07
3.72681e-07
2.87498e-07
2.16586e-07
1.56344e-07
1.09257e-07
7.39264e-08
4.85158e-08
3.10009e-08
1.93005e-08
1.17571e-08
7.02536e-09
4.12895e-09
2.38858e-09
1.36263e-09
7.67439e-10
4.27129e-10
2.35128e-10
1.28181e-10
6.91894e-11
3.7023e-11
1.96527e-11
1.03569e-11
5.42013e-12
2.8183e-12
1.45604e-12
7.46919e-13
3.79651e-13
1.90248e-13
9.29155e-14
4.30355e-14
1.75097e-14
4.04749e-15
1.77443e-11
6.76458e-11
1.41121e-10
2.51999e-10
4.18457e-10
6.66448e-10
1.03253e-09
1.56666e-09
2.33419e-09
3.41596e-09
4.90761e-09
6.92315e-09
9.6008e-09
1.30994e-08
1.7576e-08
2.317e-08
3.0004e-08
3.81059e-08
4.70239e-08
5.69935e-08
6.74852e-08
7.82021e-08
8.86749e-08
9.87401e-08
1.07456e-07
1.14884e-07
1.20974e-07
1.2591e-07
1.29644e-07
1.32354e-07
1.33767e-07
1.33199e-07
1.29435e-07
1.20942e-07
1.06647e-07
8.74369e-08
6.67615e-08
4.86619e-08
3.50351e-08
2.55898e-08
1.93575e-08
1.5637e-08
1.39362e-08
1.4064e-08
1.6344e-08
2.16879e-08
3.17469e-08
4.98294e-08
8.14968e-08
1.36222e-07
2.30104e-07
3.93976e-07
6.51762e-07
9.05717e-07
1.09287e-06
1.21175e-06
1.27956e-06
1.32333e-06
1.35975e-06
1.39388e-06
1.41505e-06
1.40323e-06
1.31907e-06
1.13419e-06
9.19159e-07
7.35964e-07
5.96026e-07
4.76532e-07
3.73965e-07
2.88441e-07
2.17357e-07
1.56942e-07
1.09692e-07
7.42361e-08
4.87311e-08
3.11435e-08
1.93918e-08
1.18138e-08
7.05965e-09
4.1492e-09
2.40032e-09
1.36932e-09
7.71191e-10
4.29205e-10
2.36261e-10
1.28792e-10
6.95159e-11
3.71958e-11
1.97433e-11
1.0404e-11
5.44449e-12
2.83081e-12
1.46243e-12
7.50164e-13
3.81285e-13
1.91061e-13
9.331e-14
4.32175e-14
1.75836e-14
4.06456e-15
1.77659e-11
6.77281e-11
1.41293e-10
2.52304e-10
4.18961e-10
6.67244e-10
1.03375e-09
1.56848e-09
2.33686e-09
3.41979e-09
4.91302e-09
6.9306e-09
9.61078e-09
1.31123e-08
1.75928e-08
2.319e-08
3.0027e-08
3.8131e-08
4.70499e-08
5.70247e-08
6.75141e-08
7.82255e-08
8.86901e-08
9.87446e-08
1.0745e-07
1.14868e-07
1.20948e-07
1.25877e-07
1.29604e-07
1.32309e-07
1.33718e-07
1.33144e-07
1.29375e-07
1.20879e-07
1.06588e-07
8.739e-08
6.67295e-08
4.86416e-08
3.50216e-08
2.55796e-08
1.93475e-08
1.56239e-08
1.39165e-08
1.40321e-08
1.62917e-08
2.16019e-08
3.16092e-08
4.96163e-08
8.11847e-08
1.3581e-07
2.29682e-07
3.90601e-07
6.48368e-07
9.0297e-07
1.09126e-06
1.20916e-06
1.27785e-06
1.322e-06
1.35856e-06
1.39285e-06
1.41448e-06
1.4035e-06
1.32115e-06
1.13771e-06
9.22472e-07
7.39035e-07
5.98419e-07
4.78526e-07