/*--------------------------------*- C++ -*----------------------------------*\
  =========                 |
  \\      /  F ield         | OpenFOAM: The Open Source CFD Toolbox
   \\    /   O peration     | Website:  https://openfoam.org
    \\  /    A nd           | Version:  10
     \\/     M anipulation  |
\*---------------------------------------------------------------------------*/
FoamFile
{
    format      ascii;
    class       volScalarField;
    location    "1";
    object      HNO;
}
// * * * * * * * * * * * * * * * * * * * * * * * * * * * * * * * * * * * * * //

dimensions      [0 0 0 0 0 0 0];

internalField   nonuniform List<scalar> 
4000
(
9.14669e-12
3.48682e-11
7.27362e-11
1.29867e-10
2.15621e-10
3.43374e-10
5.3199e-10
8.07289e-10
1.20317e-09
1.76192e-09
2.53403e-09
3.57932e-09
4.96813e-09
6.77853e-09
9.08776e-09
1.19458e-08
1.54094e-08
1.94782e-08
2.39197e-08
2.89604e-08
3.41773e-08
3.96478e-08
4.54877e-08
5.14817e-08
5.79068e-08
6.49153e-08
7.26346e-08
8.10945e-08
9.00032e-08
9.93526e-08
1.08887e-07
1.18535e-07
1.28512e-07
1.39295e-07
1.51697e-07
1.67069e-07
1.87185e-07
2.14499e-07
2.52789e-07
3.06494e-07
3.82626e-07
4.89097e-07
6.35936e-07
8.37021e-07
1.11443e-06
1.4838e-06
1.95574e-06
2.5299e-06
3.17296e-06
3.76929e-06
4.057e-06
3.56551e-06
1.98257e-06
1.09745e-06
6.03264e-07
3.29185e-07
1.7921e-07
9.91974e-08
5.86355e-08
4.15135e-08
3.87084e-08
3.85363e-08
3.25753e-08
2.33857e-08
1.47792e-08
8.48584e-09
5.26035e-09
4.13804e-09
3.92494e-09
3.77122e-09
3.37748e-09
2.76678e-09
2.1045e-09
1.50331e-09
1.01823e-09
6.60157e-10
4.12696e-10
2.50458e-10
1.48362e-10
8.61202e-11
4.91675e-11
2.76504e-11
1.53482e-11
8.42698e-12
4.5754e-12
2.46332e-12
1.31631e-12
6.98475e-13
3.68479e-13
1.93504e-13
1.00909e-13
5.23635e-14
2.70375e-14
1.38781e-14
7.06434e-15
3.54699e-15
1.736e-15
8.05617e-16
3.28254e-16
7.59452e-17
9.1125e-12
3.47373e-11
7.24646e-11
1.29397e-10
2.14874e-10
3.42233e-10
5.30276e-10
8.04723e-10
1.19928e-09
1.75591e-09
2.52456e-09
3.56427e-09
4.94416e-09
6.74211e-09
9.03587e-09
1.1876e-08
1.53131e-08
1.93485e-08
2.37629e-08
2.87974e-08
3.40045e-08
3.94494e-08
4.52646e-08
5.12639e-08
5.76806e-08
6.46833e-08
7.23915e-08
8.08906e-08
8.98342e-08
9.92462e-08
1.0886e-07
1.18591e-07
1.28665e-07
1.39537e-07
1.5205e-07
1.67551e-07
1.87847e-07
2.15431e-07
2.54085e-07
3.08343e-07
3.85301e-07
4.92973e-07
6.4141e-07
8.44921e-07
1.12567e-06
1.49941e-06
1.97627e-06
2.55574e-06
3.20336e-06
3.79996e-06
4.07799e-06
3.56167e-06
1.97639e-06
1.09284e-06
6.00157e-07
3.27475e-07
1.77095e-07
9.80795e-08
5.82136e-08
4.17098e-08
3.93314e-08
3.88884e-08
3.24496e-08
2.30504e-08
1.43945e-08
8.262e-09
5.18726e-09
4.15742e-09
3.97107e-09
3.80177e-09
3.38714e-09
2.76322e-09
2.0972e-09
1.49696e-09
1.01526e-09
6.59721e-10
4.1362e-10
2.5184e-10
1.4969e-10
8.71842e-11
4.99428e-11
2.81787e-11
1.56992e-11
8.64348e-12
4.716e-12
2.54808e-12
1.36496e-12
7.24999e-13
3.82207e-13
2.00032e-13
1.04342e-13
5.40843e-14
2.7878e-14
1.42805e-14
7.25325e-15
3.63386e-15
1.77488e-15
8.22237e-16
3.346e-16
7.73521e-17
9.08944e-12
3.46522e-11
7.2297e-11
1.29118e-10
2.14447e-10
3.41605e-10
5.29343e-10
8.03251e-10
1.19683e-09
1.75165e-09
2.51693e-09
3.55041e-09
4.92129e-09
6.70672e-09
8.98376e-09
1.18041e-08
1.52235e-08
1.92312e-08
2.36165e-08
2.86246e-08
3.38123e-08
3.92558e-08
4.50173e-08
5.11199e-08
5.7508e-08
6.44922e-08
7.2182e-08
8.06998e-08
8.96784e-08
9.91666e-08
1.08884e-07
1.18728e-07
1.28932e-07
1.39964e-07
1.52647e-07
1.68339e-07
1.88885e-07
2.16851e-07
2.56109e-07
3.11359e-07
3.89628e-07
4.99138e-07
6.5025e-07
8.57823e-07
1.14403e-06
1.52479e-06
2.00961e-06
2.59768e-06
3.25055e-06
3.84463e-06
4.10216e-06
3.53969e-06
1.9632e-06
1.08355e-06
5.93735e-07
3.23317e-07
1.7458e-07
9.66671e-08
5.76786e-08
4.20033e-08
4.01427e-08
3.92501e-08
3.21948e-08
2.25556e-08
1.38935e-08
7.97487e-09
5.10195e-09
4.18951e-09
4.03224e-09
3.84142e-09
3.40033e-09
2.76016e-09
2.0896e-09
1.49037e-09
1.01094e-09
6.57722e-10
4.13172e-10
2.52186e-10
1.50303e-10
8.77778e-11
5.04359e-11
2.85375e-11
1.59358e-11
8.79406e-12
4.80155e-12
2.59646e-12
1.39253e-12
7.40699e-13
3.911e-13
2.05101e-13
1.06884e-13
5.54133e-14
2.85629e-14
1.46256e-14
7.42363e-15
3.71618e-15
1.81352e-15
8.39462e-16
3.41394e-16
7.88932e-17
9.04968e-12
3.45001e-11
7.19768e-11
1.28538e-10
2.13462e-10
3.39984e-10
5.26728e-10
7.99106e-10
1.19034e-09
1.74164e-09
2.50179e-09
3.52833e-09
4.88943e-09
6.66166e-09
8.92186e-09
1.17223e-08
1.51193e-08
1.91142e-08
2.34898e-08
2.84758e-08
3.36518e-08
3.90871e-08
4.48323e-08
5.09498e-08
5.73465e-08
6.43318e-08
7.20177e-08
8.0561e-08
8.95827e-08
9.91554e-08
1.0899e-07
1.18968e-07
1.29329e-07
1.40524e-07
1.53418e-07
1.69354e-07
1.90217e-07
2.18681e-07
2.58763e-07
3.15034e-07
3.94983e-07
5.07004e-07
6.6167e-07
8.74034e-07
1.16684e-06
1.5561e-06
2.0501e-06
2.64849e-06
3.30885e-06
3.8994e-06
4.13014e-06
3.50502e-06
1.94029e-06
1.06855e-06
5.84053e-07
3.17063e-07
1.70957e-07
9.46784e-08
5.69309e-08
4.23674e-08
4.10978e-08
3.9615e-08
3.18476e-08
2.19809e-08
1.3356e-08
7.66967e-09
5.0256e-09
4.23471e-09
4.10001e-09
3.88061e-09
3.40842e-09
2.74888e-09
2.06966e-09
1.4706e-09
9.9562e-10
6.47656e-10
4.07335e-10
2.49208e-10
1.49016e-10
8.73721e-11
5.03675e-11
2.85722e-11
1.59941e-11
8.84563e-12
4.83859e-12
2.62053e-12
1.40722e-12
7.49075e-13
3.95758e-13
2.07665e-13
1.08309e-13
5.61459e-14
2.89343e-14
1.48127e-14
7.51709e-15
3.76222e-15
1.83569e-15
8.49631e-16
3.45518e-16
7.98447e-17
9.00667e-12
3.43362e-11
7.16346e-11
1.27925e-10
2.12437e-10
3.38336e-10
5.24138e-10
7.95102e-10
1.18424e-09
1.73245e-09
2.48812e-09
3.50832e-09
4.86084e-09
6.62197e-09
8.86855e-09
1.16537e-08
1.50343e-08
1.90131e-08
2.33732e-08
2.83466e-08
3.35246e-08
3.89651e-08
4.46952e-08
5.08254e-08
5.7221e-08
6.42007e-08
7.18974e-08
8.04736e-08
8.95467e-08
9.92088e-08
1.09163e-07
1.19273e-07
1.29794e-07
1.41176e-07
1.543e-07
1.70505e-07
1.91719e-07
2.20776e-07
2.6164e-07
3.1922e-07
4.00893e-07
5.15458e-07
6.73827e-07
8.91297e-07
1.19098e-06
1.58886e-06
2.09165e-06
2.6986e-06
3.36341e-06
3.94457e-06
4.13713e-06
3.43755e-06
1.90073e-06
1.04506e-06
5.70081e-07
3.08903e-07
1.66563e-07
9.2372e-08
5.60488e-08
4.26279e-08
4.18375e-08
3.97519e-08
3.13901e-08
2.13477e-08
1.2817e-08
7.39851e-09
4.96947e-09
4.28396e-09
4.16322e-09
3.91326e-09
3.41133e-09
2.73376e-09
2.04995e-09
1.45299e-09
9.82572e-10
6.39118e-10
4.02183e-10
2.46297e-10
1.47451e-10
8.65655e-11
5.0007e-11
2.84434e-11
1.59568e-11
8.84094e-12
4.84274e-12
2.6264e-12
1.41226e-12
7.52528e-13
3.97907e-13
2.08925e-13
1.09025e-13
5.65313e-14
2.91356e-14
1.49155e-14
7.5686e-15
3.78755e-15
1.84783e-15
8.55175e-16
3.47755e-16
8.03598e-17
8.95972e-12
3.41567e-11
7.12583e-11
1.27248e-10
2.11302e-10
3.36508e-10
5.21273e-10
7.90706e-10
1.17762e-09
1.72262e-09
2.47375e-09
3.48771e-09
4.83204e-09
6.58303e-09
8.81778e-09
1.15906e-08
1.49591e-08
1.89287e-08
2.32837e-08
2.82444e-08
3.34254e-08
3.88734e-08
4.45892e-08
5.07293e-08
5.71262e-08
6.41169e-08
7.18279e-08
8.04408e-08
8.95675e-08
9.93193e-08
1.09389e-07
1.19634e-07
1.3032e-07
1.41884e-07
1.55235e-07
1.7173e-07
1.93346e-07
2.22981e-07
2.64723e-07
3.2348e-07
4.06995e-07
5.24285e-07
6.8612e-07
9.0845e-07
1.2147e-06
1.62081e-06
2.13197e-06
2.74717e-06
3.41408e-06
3.9826e-06
4.13158e-06
3.34882e-06
1.84804e-06
1.01404e-06
5.52015e-07
2.98113e-07
1.60714e-07
8.93101e-08
5.4843e-08
4.28232e-08
4.25094e-08
3.97901e-08
3.09141e-08
2.07531e-08
1.23439e-08
7.16572e-09
4.93124e-09
4.32891e-09
4.21474e-09
3.93413e-09
3.40672e-09
2.71495e-09
2.02802e-09
1.43382e-09
9.6811e-10
6.29291e-10
3.95953e-10
2.42569e-10
1.45326e-10
8.5408e-11
4.93561e-11
2.8102e-11
1.57884e-11
8.76392e-12
4.81171e-12
2.6141e-12
1.40771e-12
7.50906e-13
3.9739e-13
2.08797e-13
1.09023e-13
5.65512e-14
2.91515e-14
1.49261e-14
7.57487e-15
3.79099e-15
1.8496e-15
8.56028e-16
3.48114e-16
8.0445e-17
8.91286e-12
3.39778e-11
7.08839e-11
1.26576e-10
2.10181e-10
3.34712e-10
5.18479e-10
7.86453e-10
1.17127e-09
1.71328e-09
2.46024e-09
3.46853e-09
4.80553e-09
6.54752e-09
8.77186e-09
1.15338e-08
1.4892e-08
1.88531e-08
2.32026e-08
2.81496e-08
3.33336e-08
3.87948e-08
4.45016e-08
5.06519e-08
5.7062e-08
6.40659e-08
7.1796e-08
8.04466e-08
8.96276e-08
9.94619e-08
1.09637e-07
1.20009e-07
1.3085e-07
1.42584e-07
1.56143e-07
1.72899e-07
1.94888e-07
2.25082e-07
2.67586e-07
3.27522e-07
4.12855e-07
5.32603e-07
6.97753e-07
9.2459e-07
1.23665e-06
1.64952e-06
2.16625e-06
2.78529e-06
3.4564e-06
4.00362e-06
4.09721e-06
3.21072e-06
1.77153e-06
9.71658e-07
5.28765e-07
2.84107e-07
1.53598e-07
8.57795e-08
5.34609e-08
4.28657e-08
4.29162e-08
3.96998e-08
3.0428e-08
2.02059e-08
1.19324e-08
6.97422e-09
4.89757e-09
4.36263e-09
4.25e-09
3.94633e-09
3.39911e-09
2.69667e-09
2.0077e-09
1.41593e-09
9.54459e-10
6.19886e-10
3.899e-10
2.38884e-10
1.43178e-10
8.4206e-11
4.86983e-11
2.775e-11
1.5603e-11
8.66676e-12
4.7604e-12
2.58795e-12
1.39475e-12
7.44568e-13
3.94344e-13
2.0735e-13
1.08351e-13
5.6241e-14
2.90129e-14
1.48626e-14
7.5452e-15
3.777e-15
1.84306e-15
8.53082e-16
3.46936e-16
8.01762e-17
8.86791e-12
3.38063e-11
7.05253e-11
1.25934e-10
2.0911e-10
3.33001e-10
5.15824e-10
7.82431e-10
1.16529e-09
1.70456e-09
2.4477e-09
3.45086e-09
4.78131e-09
6.51535e-09
8.7306e-09
1.14833e-08
1.48327e-08
1.87871e-08
2.31325e-08
2.80662e-08
3.32573e-08
3.8725e-08
4.44342e-08
5.06018e-08
5.70253e-08
6.40426e-08
7.17934e-08
8.0482e-08
8.97137e-08
9.96214e-08
1.09895e-07
1.20383e-07
1.31363e-07
1.43259e-07
1.57014e-07
1.74041e-07
1.96353e-07
2.27045e-07
2.70277e-07
3.31253e-07
4.17939e-07
5.39659e-07
7.07482e-07
9.38042e-07
1.25504e-06
1.6739e-06
2.19641e-06
2.81909e-06
3.48445e-06
4.01054e-06
4.05029e-06
3.04781e-06
1.68229e-06
9.23064e-07
5.03223e-07
2.68427e-07
1.45649e-07
8.18863e-08
5.18869e-08
4.27694e-08
4.32154e-08
3.9533e-08
2.99485e-08
1.96849e-08
1.15419e-08
6.79956e-09
4.86929e-09
4.39598e-09
4.2801e-09
3.9533e-09
3.38895e-09
2.67797e-09
1.98707e-09
1.39779e-09
9.406e-10
6.10293e-10
3.83676e-10
2.35052e-10
1.40913e-10
8.29162e-11
4.79793e-11
2.7358e-11
1.53933e-11
8.55638e-12
4.70315e-12
2.55887e-12
1.37896e-12
7.36658e-13
3.90395e-13
2.05384e-13
1.07379e-13
5.57562e-14
2.87692e-14
1.47414e-14
7.4855e-15
3.74799e-15
1.82928e-15
8.46856e-16
3.44451e-16
7.96091e-17
8.82657e-12
3.36486e-11
7.01959e-11
1.25345e-10
2.0813e-10
3.31441e-10
5.13412e-10
7.7879e-10
1.15991e-09
1.69674e-09
2.43652e-09
3.43521e-09
4.75997e-09
6.48716e-09
8.6947e-09
1.14397e-08
1.47821e-08
1.87319e-08
2.3077e-08
2.80002e-08
3.3193e-08
3.86708e-08
4.43885e-08
5.05684e-08
5.7004e-08
6.40369e-08
7.18091e-08
8.05334e-08
8.98117e-08
9.9789e-08
1.10156e-07
1.2075e-07
1.31848e-07
1.43889e-07
1.57838e-07
1.75086e-07
1.977e-07
2.28854e-07
2.7278e-07
3.348e-07
4.22995e-07
5.46747e-07
7.17174e-07
9.51194e-07
1.27246e-06
1.6957e-06
2.22191e-06
2.8455e-06
3.50166e-06
4.00372e-06
3.98704e-06
2.88837e-06
1.59175e-06
8.72405e-07
4.74968e-07
2.54062e-07
1.38018e-07
7.80421e-08
5.03172e-08
4.26014e-08
4.33661e-08
3.92883e-08
2.94785e-08
1.9203e-08
1.11874e-08
6.63673e-09
4.8401e-09
4.42084e-09
4.30143e-09
3.9523e-09
3.37137e-09
2.65379e-09
1.96363e-09
1.37873e-09
9.26656e-10
6.00886e-10
3.77659e-10
2.3137e-10
1.38737e-10
8.16666e-11
4.72769e-11
2.69707e-11
1.51832e-11
8.44399e-12
4.64375e-12
2.52809e-12
1.36299e-12
7.28435e-13
3.86188e-13
2.03242e-13
1.06301e-13
5.52108e-14
2.84941e-14
1.46032e-14
7.41658e-15
3.714e-15
1.81291e-15
8.39356e-16
3.41425e-16
7.8912e-17
8.78954e-12
3.35075e-11
6.99014e-11
1.24818e-10
2.07256e-10
3.30051e-10
5.11269e-10
7.75565e-10
1.15516e-09
1.68987e-09
2.42676e-09
3.42162e-09
4.74152e-09
6.46287e-09
8.66373e-09
1.1402e-08
1.47379e-08
1.86831e-08
2.3025e-08
2.79376e-08
3.31368e-08
3.86217e-08
4.43509e-08
5.05467e-08
5.6996e-08
6.40443e-08
7.18376e-08
8.05944e-08
8.99165e-08
9.99556e-08
1.10394e-07
1.21071e-07
1.32263e-07
1.4446e-07
1.58568e-07
1.76018e-07
1.98911e-07
2.30488e-07
2.75048e-07
3.37927e-07
4.2737e-07
5.52851e-07
7.25491e-07
9.62438e-07
1.28707e-06
1.71384e-06
2.24238e-06
2.86379e-06
3.50527e-06
3.97476e-06
3.88806e-06
2.68682e-06
1.48413e-06
8.1495e-07
4.44919e-07
2.3801e-07
1.29919e-07
7.41792e-08
4.87659e-08
4.23745e-08
4.34593e-08
3.90583e-08
2.90763e-08
1.88478e-08
1.08165e-08
6.48257e-09
4.81062e-09
4.43893e-09
4.31636e-09
3.94971e-09
3.35612e-09
2.63311e-09
1.94362e-09
1.36238e-09
9.14597e-10
5.92668e-10
3.72339e-10
2.28073e-10
1.36758e-10
8.05155e-11
4.66213e-11
2.66045e-11
1.4982e-11
8.33509e-12
4.58552e-12
2.49755e-12
1.347e-12
7.20128e-13
3.81904e-13
2.01046e-13
1.05178e-13
5.4639e-14
2.82046e-14
1.44574e-14
7.34363e-15
3.67793e-15
1.79549e-15
8.31355e-16
3.38187e-16
7.81663e-17
8.75715e-12
3.3384e-11
6.96439e-11
1.24359e-10
2.06494e-10
3.28841e-10
5.09405e-10
7.72767e-10
1.15105e-09
1.68396e-09
2.41844e-09
3.41014e-09
4.72612e-09
6.44286e-09
8.63799e-09
1.13713e-08
1.47035e-08
1.86469e-08
2.29879e-08
2.78924e-08
3.30961e-08
3.8588e-08
4.43271e-08
5.05352e-08
5.6997e-08
6.40599e-08
7.18727e-08
8.06598e-08
9.0022e-08
1.00111e-07
1.10619e-07
1.21382e-07
1.32688e-07
1.44971e-07
1.59202e-07
1.76818e-07
1.99935e-07
2.31865e-07
2.76945e-07
3.40558e-07
4.31051e-07
5.57991e-07
7.32533e-07
9.72121e-07
1.29982e-06
1.7297e-06
2.2598e-06
2.87933e-06
3.50939e-06
3.95202e-06
3.80833e-06
2.51144e-06
1.38881e-06
7.63372e-07
4.16943e-07
2.23402e-07
1.22416e-07
7.05268e-08
4.72799e-08
4.21255e-08
4.34845e-08
3.8815e-08
2.86941e-08
1.84713e-08
1.05725e-08
6.37498e-09
4.79492e-09
4.45743e-09
4.32874e-09
3.9481e-09
3.34404e-09
2.61619e-09
1.9269e-09
1.34859e-09
9.04315e-10
5.8559e-10
3.6771e-10
2.25179e-10
1.34992e-10
7.94795e-11
4.60262e-11
2.62691e-11
1.47962e-11
8.23357e-12
4.53079e-12
2.4685e-12
1.33168e-12
7.12119e-13
3.77753e-13
1.98917e-13
1.04049e-13
5.40658e-14
2.79147e-14
1.43114e-14
7.27062e-15
3.64184e-15
1.77804e-15
8.23339e-16
3.34942e-16
7.74185e-17
8.72933e-12
3.32781e-11
6.9423e-11
1.23965e-10
2.05841e-10
3.27807e-10
5.07817e-10
7.70388e-10
1.14757e-09
1.67898e-09
2.41145e-09
3.40056e-09
4.71337e-09
6.42642e-09
8.61692e-09
1.13466e-08
1.46756e-08
1.86162e-08
2.29558e-08
2.78552e-08
3.30622e-08
3.85622e-08
4.43112e-08
5.05312e-08
5.70044e-08
6.40806e-08
7.19108e-08
8.07233e-08
9.01183e-08
1.0025e-07
1.10816e-07
1.21645e-07
1.33028e-07
1.45402e-07
1.59744e-07
1.77501e-07
2.00808e-07
2.33048e-07
2.7853e-07
3.42703e-07
4.33957e-07
5.61854e-07
7.37452e-07
9.81866e-07
1.31161e-06
1.74377e-06
2.27531e-06
2.89356e-06
3.51609e-06
3.93818e-06
3.74981e-06
2.38137e-06
1.31459e-06
7.21913e-07
3.94442e-07
2.11701e-07
1.16407e-07
6.76148e-08
4.61204e-08
4.19836e-08
4.35397e-08
3.86146e-08
2.83674e-08
1.81488e-08
1.03754e-08
6.29527e-09
4.78662e-09
4.47367e-09
4.33883e-09
3.94731e-09
3.33472e-09
2.60349e-09
1.91349e-09
1.33714e-09
8.95612e-10
5.79516e-10
3.63694e-10
2.22644e-10
1.33442e-10
7.85622e-11
4.5495e-11
2.59676e-11
1.46279e-11
8.14105e-12
4.48061e-12
2.44166e-12
1.31744e-12
7.04639e-13
3.73857e-13
1.96909e-13
1.02997e-13
5.35289e-14
2.76419e-14
1.41736e-14
7.20147e-15
3.60757e-15
1.76145e-15
8.15703e-16
3.31848e-16
7.67051e-17
8.70582e-12
3.31885e-11
6.92364e-11
1.23632e-10
2.05291e-10
3.26936e-10
5.06481e-10
7.68392e-10
1.14465e-09
1.67482e-09
2.40563e-09
3.39263e-09
4.70289e-09
6.41311e-09
8.60024e-09
1.13272e-08
1.46532e-08
1.85921e-08
2.29319e-08
2.78267e-08
3.30377e-08
3.85445e-08
4.43017e-08
5.05323e-08
5.70166e-08
6.41055e-08
7.19519e-08
8.07874e-08
9.02101e-08
1.00376e-07
1.10987e-07
1.21867e-07
1.33305e-07
1.45766e-07
1.60208e-07
1.78089e-07
2.01578e-07
2.34075e-07
2.7992e-07
3.44607e-07
4.36593e-07
5.6549e-07
7.42446e-07
9.88748e-07
1.32039e-06
1.75426e-06
2.28649e-06
2.9028e-06
3.51728e-06
3.91955e-06
3.69158e-06
2.23248e-06
1.23666e-06
6.81177e-07
3.72954e-07
2.00779e-07
1.10906e-07
6.5009e-08
4.5085e-08
4.18083e-08
4.35136e-08
3.84008e-08
2.80784e-08
1.78778e-08
1.0215e-08
6.23094e-09
4.78141e-09
4.48816e-09
4.34715e-09
3.94587e-09
3.32504e-09
2.59045e-09
1.90108e-09
1.32689e-09
8.8795e-10
5.74205e-10
3.60187e-10
2.20426e-10
1.32086e-10
7.77571e-11
4.50268e-11
2.57006e-11
1.44782e-11
8.05839e-12
4.43558e-12
2.41746e-12
1.30455e-12
6.97842e-13
3.70302e-13
1.95068e-13
1.02047e-13
5.30417e-14
2.73935e-14
1.40477e-14
7.13815e-15
3.57613e-15
1.74621e-15
8.08676e-16
3.28997e-16
7.6047e-17
8.68625e-12
3.3114e-11
6.90811e-11
1.23356e-10
2.04834e-10
3.26212e-10
5.0537e-10
7.6673e-10
1.14222e-09
1.67134e-09
2.40074e-09
3.38593e-09
4.69396e-09
6.40159e-09
8.58545e-09
1.1309e-08
1.46326e-08
1.85706e-08
2.29114e-08
2.7803e-08
3.30188e-08
3.85313e-08
4.42958e-08
5.05355e-08
5.7029e-08
6.41291e-08
7.19891e-08
8.08443e-08
9.02914e-08
1.00488e-07
1.11138e-07
1.22065e-07
1.33561e-07
1.46075e-07
1.60595e-07
1.78585e-07
2.02219e-07
2.34939e-07
2.81103e-07
3.46245e-07
4.38889e-07
5.6872e-07
7.46937e-07
9.94862e-07
1.32834e-06
1.76397e-06
2.29717e-06
2.91231e-06
3.52072e-06
3.90714e-06
3.64585e-06
2.14873e-06
1.18965e-06
6.55019e-07
3.58866e-07
1.93501e-07
1.07197e-07
6.32222e-08
4.43946e-08
4.17206e-08
4.34914e-08
3.82106e-08
2.7831e-08
1.76516e-08
1.00839e-08
6.18008e-09
4.77831e-09
4.50047e-09
4.354e-09
3.94492e-09
3.31763e-09
2.58028e-09
1.89102e-09
1.31843e-09
8.81536e-10
5.6972e-10
3.57207e-10
2.18532e-10
1.30923e-10
7.70633e-11
4.46218e-11
2.54687e-11
1.43477e-11
7.98608e-12
4.39605e-12
2.39615e-12
1.29317e-12
6.91822e-13
3.67147e-13
1.93429e-13
1.01201e-13
5.26071e-14
2.71717e-14
1.39352e-14
7.08154e-15
3.54799e-15
1.73255e-15
8.0238e-16
3.26441e-16
7.54571e-17
8.67028e-12
3.30532e-11
6.89545e-11
1.2313e-10
2.04461e-10
3.25622e-10
5.04465e-10
7.65378e-10
1.14025e-09
1.6685e-09
2.39676e-09
3.38045e-09
4.68662e-09
6.39207e-09
8.57308e-09
1.12949e-08
1.46174e-08
1.8555e-08
2.28964e-08
2.77853e-08
3.30039e-08
3.85216e-08
4.42925e-08
5.05402e-08
5.70418e-08
6.4151e-08
7.20229e-08
8.08945e-08
9.03628e-08
1.00586e-07
1.11269e-07
1.22233e-07
1.33764e-07
1.46337e-07
1.60921e-07
1.78993e-07
2.02745e-07
2.3565e-07
2.82086e-07
3.47622e-07
4.40839e-07
5.71427e-07
7.50633e-07
9.99863e-07
1.33492e-06
1.77224e-06
2.30674e-06
2.92187e-06
3.5269e-06
3.90286e-06
3.61854e-06
2.10122e-06
1.16269e-06
6.39903e-07
3.50439e-07
1.89026e-07
1.04856e-07
6.2099e-08
4.39966e-08
4.17478e-08
4.35246e-08
3.80695e-08
2.76277e-08
1.74633e-08
9.9759e-09
6.13903e-09
4.77639e-09
4.51078e-09
4.35961e-09
3.94417e-09
3.31165e-09
2.57191e-09
1.88267e-09
1.31138e-09
8.76182e-10
5.65965e-10
3.54704e-10
2.16937e-10
1.2994e-10
7.6475e-11
4.42774e-11
2.5271e-11
1.42362e-11
7.92412e-12
4.3621e-12
2.3778e-12
1.28335e-12
6.86618e-13
3.64414e-13
1.92007e-13
1.00466e-13
5.22293e-14
2.69787e-14
1.38372e-14
7.0322e-15
3.52346e-15
1.72064e-15
7.96887e-16
3.24212e-16
7.49423e-17
8.65762e-12
3.3005e-11
6.88542e-11
1.22952e-10
2.04166e-10
3.25156e-10
5.03752e-10
7.64313e-10
1.13869e-09
1.66628e-09
2.39364e-09
3.37619e-09
4.68099e-09
6.38494e-09
8.56404e-09
1.12845e-08
1.46057e-08
1.85427e-08
2.28843e-08
2.77712e-08
3.29931e-08
3.85151e-08
4.42913e-08
5.05454e-08
5.70537e-08
6.41707e-08
7.20526e-08
8.09381e-08
9.04237e-08
1.00668e-07
1.11378e-07
1.22373e-07
1.33952e-07
1.4656e-07
1.61196e-07
1.79345e-07
2.03201e-07
2.36268e-07
2.82936e-07
3.48803e-07
4.42491e-07
5.73737e-07
7.53834e-07
1.00425e-06
1.34081e-06
1.77989e-06
2.31615e-06
2.9325e-06
3.53708e-06
3.90838e-06
3.61145e-06
2.07871e-06
1.14869e-06
6.31523e-07
3.45571e-07
1.8638e-07
1.03454e-07
6.14309e-08
4.38064e-08
4.18549e-08
4.36096e-08
3.79903e-08
2.74782e-08
1.73154e-08
9.89034e-09
6.10667e-09
4.77535e-09
4.51917e-09
4.36398e-09
3.94328e-09
3.30638e-09
2.56481e-09
1.8757e-09
1.30553e-09
8.71757e-10
5.62871e-10
3.52642e-10
2.15621e-10
1.29128e-10
7.59878e-11
4.39915e-11
2.51065e-11
1.41432e-11
7.87236e-12
4.33368e-12
2.36242e-12
1.2751e-12
6.82245e-13
3.62115e-13
1.9081e-13
9.9846e-14
5.19106e-14
2.68158e-14
1.37545e-14
6.99054e-15
3.50274e-15
1.71058e-15
7.92246e-16
3.22327e-16
7.4507e-17
8.64798e-12
3.29683e-11
6.87778e-11
1.22816e-10
2.03942e-10
3.24802e-10
5.03213e-10
7.63513e-10
1.13754e-09
1.66465e-09
2.39138e-09
3.37314e-09
4.67701e-09
6.37984e-09
8.55739e-09
1.12765e-08
1.45967e-08
1.85335e-08
2.28756e-08
2.77609e-08
3.29852e-08
3.85107e-08
4.42914e-08
5.05509e-08
5.70648e-08
6.41884e-08
7.20785e-08
8.0975e-08
9.04741e-08
1.00735e-07
1.11465e-07
1.22483e-07
1.34088e-07
1.46732e-07
1.61413e-07
1.7962e-07
2.03556e-07
2.36749e-07
2.83598e-07
3.49723e-07
4.43784e-07
5.75542e-07
7.56338e-07
1.00771e-06
1.34545e-06
1.78588e-06
2.32335e-06
2.94027e-06
3.54359e-06
3.90984e-06
3.60168e-06
2.05299e-06
1.13523e-06
6.24326e-07
3.41687e-07
1.84471e-07
1.02521e-07
6.10191e-08
4.37209e-08
4.19744e-08
4.3704e-08
3.79533e-08
2.73785e-08
1.72083e-08
9.82744e-09
6.08295e-09
4.77506e-09
4.52573e-09
4.3673e-09
3.94252e-09
3.30221e-09
2.55928e-09
1.87028e-09
1.30097e-09
8.683e-10
5.60442e-10
3.51017e-10
2.14578e-10
1.28481e-10
7.55984e-11
4.37623e-11
2.49744e-11
1.40684e-11
7.83066e-12
4.31077e-12
2.35e-12
1.26844e-12
6.78711e-13
3.60257e-13
1.89842e-13
9.9345e-14
5.1653e-14
2.66841e-14
1.36876e-14
6.95685e-15
3.48598e-15
1.70245e-15
7.88491e-16
3.20803e-16
7.41549e-17
8.6411e-12
3.29421e-11
6.87235e-11
1.2272e-10
2.03784e-10
3.24555e-10
5.02839e-10
7.62961e-10
1.13674e-09
1.6635e-09
2.38976e-09
3.37089e-09
4.67395e-09
6.37588e-09
8.55229e-09
1.12707e-08
1.45904e-08
1.85271e-08
2.28697e-08
2.77541e-08
3.29801e-08
3.85082e-08
4.4292e-08
5.05555e-08
5.70734e-08
6.42018e-08
7.20979e-08
8.10022e-08
9.05109e-08
1.00783e-07
1.11526e-07
1.22558e-07
1.34175e-07
1.46853e-07
1.61569e-07
1.7982e-07
2.03816e-07
2.37101e-07
2.84083e-07
3.50399e-07
4.44738e-07
5.76886e-07
7.58212e-07
1.01032e-06
1.34904e-06
1.79069e-06
2.32949e-06
2.94758e-06
3.55115e-06
3.91524e-06
3.60036e-06
2.04459e-06
1.12951e-06
6.20423e-07
3.38601e-07
1.8448e-07
1.02405e-07
6.09467e-08
4.37499e-08
4.20992e-08
4.37927e-08
3.79403e-08
2.7314e-08
1.71337e-08
9.78275e-09
6.06606e-09
4.77454e-09
4.5305e-09
4.36964e-09
3.9419e-09
3.29911e-09
2.55513e-09
1.86618e-09
1.29753e-09
8.65699e-10
5.58623e-10
3.49805e-10
2.13809e-10
1.28008e-10
7.53157e-11
4.35963e-11
2.48787e-11
1.40141e-11
7.80029e-12
4.29403e-12
2.3409e-12
1.26354e-12
6.76095e-13
3.58874e-13
1.89119e-13
9.89687e-14
5.14588e-14
2.65847e-14
1.3637e-14
6.93137e-15
3.47331e-15
1.69629e-15
7.85652e-16
3.1965e-16
7.38887e-17
8.63668e-12
3.29253e-11
6.86886e-11
1.22658e-10
2.03681e-10
3.24393e-10
5.02589e-10
7.62585e-10
1.13618e-09
1.6627e-09
2.38863e-09
3.36935e-09
4.67192e-09
6.37332e-09
8.549e-09
1.12669e-08
1.45863e-08
1.8523e-08
2.2866e-08
2.77498e-08
3.29771e-08
3.85069e-08
4.42929e-08
5.05589e-08
5.70795e-08
6.42111e-08
7.21111e-08
8.10208e-08
9.0536e-08
1.00815e-07
1.11568e-07
1.2261e-07
1.34239e-07
1.46934e-07
1.61672e-07
1.7995e-07
2.03985e-07
2.37329e-07
2.84394e-07
3.50832e-07
4.4535e-07
5.77746e-07
7.59416e-07
1.012e-06
1.35132e-06
1.79371e-06
2.33327e-06
2.95192e-06
3.55533e-06
3.91756e-06
3.59783e-06
2.03601e-06
1.12461e-06
6.17626e-07
3.37033e-07
1.83684e-07
1.0201e-07
6.07715e-08
4.37142e-08
4.21478e-08
4.38232e-08
3.79136e-08
2.72636e-08
1.70823e-08
9.75301e-09
6.05507e-09
4.77465e-09
4.53381e-09
4.37126e-09
3.94153e-09
3.29707e-09
2.5524e-09
1.86348e-09
1.29524e-09
8.63939e-10
5.57384e-10
3.48985e-10
2.13287e-10
1.27686e-10
7.51229e-11
4.34835e-11
2.4814e-11
1.39776e-11
7.78007e-12
4.28294e-12
2.3349e-12
1.26033e-12
6.7439e-13
3.57977e-13
1.88651e-13
9.87257e-14
5.13332e-14
2.652e-14
1.3604e-14
6.91461e-15
3.46493e-15
1.69221e-15
7.83763e-16
3.18882e-16
7.37112e-17
8.63447e-12
3.29169e-11
6.86711e-11
1.22626e-10
2.0363e-10
3.24311e-10
5.02464e-10
7.624e-10
1.13591e-09
1.66232e-09
2.38809e-09
3.36861e-09
4.67095e-09
6.37208e-09
8.54742e-09
1.12651e-08
1.45843e-08
1.8521e-08
2.28642e-08
2.77478e-08
3.29757e-08
3.85064e-08
4.42935e-08
5.05608e-08
5.70829e-08
6.4216e-08
7.2118e-08
8.10303e-08
9.05487e-08
1.00832e-07
1.1159e-07
1.2264e-07
1.34285e-07
1.4698e-07
1.61724e-07
1.80014e-07
2.04067e-07
2.37439e-07
2.84545e-07
3.51039e-07
4.45638e-07
5.78146e-07
7.59958e-07
1.01272e-06
1.35226e-06
1.79486e-06
2.3345e-06
2.95295e-06
3.55556e-06
3.91605e-06
3.59353e-06
2.02599e-06
1.11969e-06
6.15335e-07
3.36259e-07
1.82471e-07
1.0145e-07
6.05304e-08
4.3644e-08
4.21778e-08
4.38658e-08
3.79165e-08
2.72411e-08
1.70546e-08
9.73637e-09
6.04865e-09
4.77429e-09
4.53529e-09
4.372e-09
3.94134e-09
3.29608e-09
2.55106e-09
1.86216e-09
1.29411e-09
8.63051e-10
5.56736e-10
3.48537e-10
2.12995e-10
1.27504e-10
7.50136e-11
4.34195e-11
2.47773e-11
1.3957e-11
7.76862e-12
4.27669e-12
2.33154e-12
1.25853e-12
6.73444e-13
3.57483e-13
1.88395e-13
9.85941e-14
5.1266e-14
2.6486e-14
1.35868e-14
6.90599e-15
3.46066e-15
1.69014e-15
7.8281e-16
3.18495e-16
7.36218e-17
8.63445e-12
3.29168e-11
6.86708e-11
1.22626e-10
2.03629e-10
3.2431e-10
5.02462e-10
7.62396e-10
1.13591e-09
1.66231e-09
2.38808e-09
3.3686e-09
4.67093e-09
6.37206e-09
8.5474e-09
1.12651e-08
1.45843e-08
1.8521e-08
2.28643e-08
2.77478e-08
3.29757e-08
3.85065e-08
4.42936e-08
5.0561e-08
5.70831e-08
6.42163e-08
7.21183e-08
8.10307e-08
9.05492e-08
1.00833e-07
1.11592e-07
1.22644e-07
1.3429e-07
1.46982e-07
1.61725e-07
1.80014e-07
2.04067e-07
2.37438e-07
2.84545e-07
3.51042e-07
4.45643e-07
5.78159e-07
7.59992e-07
1.0128e-06
1.35245e-06
1.79527e-06
2.33539e-06
2.95482e-06
3.55935e-06
3.92345e-06
3.60755e-06
2.02372e-06
1.11895e-06
6.15311e-07
3.36735e-07
1.81827e-07
1.01143e-07
6.03881e-08
4.35793e-08
4.21389e-08
4.38254e-08
3.78823e-08
2.72203e-08
1.70441e-08
9.73185e-09
6.04684e-09
4.77356e-09
4.53498e-09
4.37185e-09
3.94126e-09
3.29604e-09
2.55103e-09
1.86213e-09
1.29408e-09
8.63017e-10
5.56705e-10
3.48512e-10
2.12977e-10
1.27493e-10
7.50061e-11
4.3415e-11
2.47747e-11
1.39555e-11
7.76781e-12
4.27626e-12
2.33131e-12
1.25842e-12
6.73384e-13
3.57453e-13
1.8838e-13
9.85873e-14
5.12629e-14
2.64845e-14
1.35861e-14
6.90571e-15
3.46054e-15
1.69009e-15
7.82789e-16
3.18487e-16
7.362e-17
8.63661e-12
3.2925e-11
6.86879e-11
1.22656e-10
2.03679e-10
3.24388e-10
5.02581e-10
7.62573e-10
1.13616e-09
1.66268e-09
2.3886e-09
3.3693e-09
4.67186e-09
6.37325e-09
8.54893e-09
1.12669e-08
1.45863e-08
1.8523e-08
2.2866e-08
2.77499e-08
3.29772e-08
3.85071e-08
4.42933e-08
5.05594e-08
5.70802e-08
6.42118e-08
7.21119e-08
8.10216e-08
9.0537e-08
1.00817e-07
1.11572e-07
1.22617e-07
1.34254e-07
1.4694e-07
1.61673e-07
1.79948e-07
2.03982e-07
2.37324e-07
2.84388e-07
3.50824e-07
4.4534e-07
5.77738e-07
7.59413e-07
1.01201e-06
1.35136e-06
1.7938e-06
2.33347e-06
2.95233e-06
3.55611e-06
3.91891e-06
3.5999e-06
2.03811e-06
1.12557e-06
6.18422e-07
3.38221e-07
1.8246e-07
1.01413e-07
6.04931e-08
4.35964e-08
4.21074e-08
4.38009e-08
3.7888e-08
2.72408e-08
1.70671e-08
9.74522e-09
6.0516e-09
4.77317e-09
4.53314e-09
4.37089e-09
3.9413e-09
3.29693e-09
2.55229e-09
1.86339e-09
1.29516e-09
8.63849e-10
5.57291e-10
3.48904e-10
2.13228e-10
1.27647e-10
7.50989e-11
4.34693e-11
2.48059e-11
1.39731e-11
7.77761e-12
4.28164e-12
2.33422e-12
1.25998e-12
6.74216e-13
3.57892e-13
1.8861e-13
9.87063e-14
5.13243e-14
2.65161e-14
1.36022e-14
6.91385e-15
3.4646e-15
1.69207e-15
7.83706e-16
3.18861e-16
7.37064e-17
8.6411e-12
3.29421e-11
6.87234e-11
1.22719e-10
2.03783e-10
3.24552e-10
5.02831e-10
7.62944e-10
1.1367e-09
1.66345e-09
2.38968e-09
3.37078e-09
4.67382e-09
6.37575e-09
8.55217e-09
1.12706e-08
1.45904e-08
1.85271e-08
2.28698e-08
2.77542e-08
3.29804e-08
3.85086e-08
4.42926e-08
5.05561e-08
5.70742e-08
6.42027e-08
7.20988e-08
8.10033e-08
9.05123e-08
1.00785e-07
1.11529e-07
1.22563e-07
1.34186e-07
1.46856e-07
1.61568e-07
1.79815e-07
2.03808e-07
2.3709e-07
2.84067e-07
3.50379e-07
4.44714e-07
5.76861e-07
7.58195e-07
1.01033e-06
1.3491e-06
1.79086e-06
2.32989e-06
2.94845e-06
3.5529e-06
3.91864e-06
3.60684e-06
2.04108e-06
1.128e-06
6.20107e-07
3.3929e-07
1.83077e-07
1.01753e-07
6.06523e-08
4.36252e-08
4.20499e-08
4.37608e-08
3.79089e-08
2.72888e-08
1.71171e-08
9.77416e-09
6.06216e-09
4.77283e-09
4.52968e-09
4.36913e-09
3.94153e-09
3.29884e-09
2.55495e-09
1.86607e-09
1.29741e-09
8.65572e-10
5.58523e-10
3.49734e-10
2.1376e-10
1.27976e-10
7.52963e-11
4.35851e-11
2.48724e-11
1.40107e-11
7.79853e-12
4.29312e-12
2.34044e-12
1.26331e-12
6.75985e-13
3.58822e-13
1.89094e-13
9.89572e-14
5.14534e-14
2.65821e-14
1.36358e-14
6.93074e-15
3.47301e-15
1.69615e-15
7.85588e-16
3.19625e-16
7.3883e-17
8.64805e-12
3.29686e-11
6.87785e-11
1.22817e-10
2.03944e-10
3.24807e-10
5.0322e-10
7.63523e-10
1.13755e-09
1.66465e-09
2.39136e-09
3.37308e-09
4.67686e-09
6.37962e-09
8.55714e-09
1.12764e-08
1.45967e-08
1.85336e-08
2.28757e-08
2.77611e-08
3.29855e-08
3.85111e-08
4.4292e-08
5.05516e-08
5.70657e-08
6.41894e-08
7.20796e-08
8.09759e-08
9.04749e-08
1.00735e-07
1.11465e-07
1.22483e-07
1.34088e-07
1.46729e-07
1.61408e-07
1.79611e-07
2.03543e-07
2.3673e-07
2.83571e-07
3.49687e-07
4.43739e-07
5.75491e-07
7.56298e-07
1.00771e-06
1.34556e-06
1.78625e-06
2.32426e-06
2.9422e-06
3.54744e-06
3.91716e-06
3.61511e-06
2.04775e-06
1.13254e-06
6.23001e-07
3.41056e-07
1.84182e-07
1.02386e-07
6.09643e-08
4.37155e-08
4.2007e-08
4.37483e-08
3.79786e-08
2.73824e-08
1.72018e-08
9.82105e-09
6.07916e-09
4.77294e-09
4.52446e-09
4.36645e-09
3.94194e-09
3.30187e-09
2.55908e-09
1.87007e-09
1.30079e-09
8.68174e-10
5.60362e-10
3.50968e-10
2.14551e-10
1.28466e-10
7.55907e-11
4.37581e-11
2.49722e-11
1.40672e-11
7.82999e-12
4.31041e-12
2.34981e-12
1.26834e-12
6.78652e-13
3.60225e-13
1.89825e-13
9.93356e-14
5.1648e-14
2.66815e-14
1.36863e-14
6.95618e-15
3.48565e-15
1.70229e-15
7.8842e-16
3.20774e-16
7.41485e-17
8.6577e-12
3.30053e-11
6.88549e-11
1.22953e-10
2.04169e-10
3.25161e-10
5.03761e-10
7.64328e-10
1.13872e-09
1.66632e-09
2.39371e-09
3.37629e-09
4.68111e-09
6.38505e-09
8.56408e-09
1.12844e-08
1.46056e-08
1.85426e-08
2.28843e-08
2.77712e-08
3.29933e-08
3.85154e-08
4.42919e-08
5.05463e-08
5.70548e-08
6.41719e-08
7.2054e-08
8.09396e-08
9.04253e-08
1.00669e-07
1.11379e-07
1.22373e-07
1.3395e-07
1.46556e-07
1.6119e-07
1.79333e-07
2.03183e-07
2.36242e-07
2.82899e-07
3.48752e-07
4.42426e-07
5.73662e-07
7.53756e-07
1.00419e-06
1.34079e-06
1.77994e-06
2.31622e-06
2.93249e-06
3.53663e-06
3.90697e-06
3.6086e-06
2.07131e-06
1.14582e-06
6.30137e-07
3.44226e-07
1.87497e-07
1.0397e-07
6.16745e-08
4.39335e-08
4.19456e-08
4.36878e-08
3.804e-08
2.74958e-08
1.73138e-08
9.88491e-09
6.1025e-09
4.77255e-09
4.51765e-09
4.36295e-09
3.94245e-09