/*--------------------------------*- C++ -*----------------------------------*\
  =========                 |
  \\      /  F ield         | OpenFOAM: The Open Source CFD Toolbox
   \\    /   O peration     | Website:  https://openfoam.org
    \\  /    A nd           | Version:  10
     \\/     M anipulation  |
\*---------------------------------------------------------------------------*/
FoamFile
{
    format      ascii;
    class       volScalarField;
    location    "1";
    object      HNO2;
}
// * * * * * * * * * * * * * * * * * * * * * * * * * * * * * * * * * * * * * //

dimensions      [0 0 0 0 0 0 0];

internalField   nonuniform List<scalar> 
4000
(
3.10278e-17
1.18277e-16
2.46712e-16
4.40446e-16
7.31182e-16
1.16422e-15
1.80346e-15
2.73644e-15
4.07834e-15
5.97339e-15
8.59513e-15
1.21517e-14
1.68934e-14
2.31073e-14
3.10951e-14
4.10883e-14
5.33684e-14
6.8036e-14
8.43393e-14
1.03057e-13
1.2217e-13
1.40766e-13
1.56788e-13
1.65919e-13
1.64591e-13
1.51052e-13
1.32498e-13
1.27477e-13
1.4101e-13
1.63624e-13
1.87554e-13
2.06935e-13
2.18116e-13
2.22915e-13
2.31545e-13
2.61956e-13
3.36762e-13
4.9019e-13
7.9626e-13
1.3822e-12
2.49359e-12
4.55355e-12
8.29611e-12
1.50276e-11
2.72521e-11
4.89533e-11
8.6789e-11
1.52238e-10
2.65152e-10
4.5853e-10
7.88005e-10
1.34753e-09
2.29437e-09
3.59727e-09
4.96229e-09
6.33816e-09
7.88741e-09
9.89969e-09
1.28151e-08
1.72978e-08
2.44124e-08
3.56674e-08
5.31494e-08
7.76924e-08
9.73126e-08
8.9355e-08
6.3057e-08
3.74011e-08
2.34149e-08
1.73811e-08
1.31727e-08
9.61078e-09
6.7775e-09
4.60943e-09
3.0184e-09
1.91263e-09
1.17628e-09
7.0531e-10
4.13933e-10
2.38488e-10
1.35323e-10
7.57126e-11
4.1848e-11
2.28913e-11
1.23922e-11
6.6543e-12
3.54759e-12
1.87861e-12
9.89226e-13
5.18566e-13
2.70069e-13
1.39984e-13
7.22081e-14
3.70318e-14
1.88365e-14
9.4521e-15
4.62392e-15
2.14504e-15
8.73809e-16
2.02142e-16
3.09344e-17
1.1792e-16
2.45976e-16
4.39191e-16
7.29242e-16
1.16137e-15
1.79934e-15
2.7305e-15
4.06958e-15
5.95999e-15
8.57377e-15
1.21167e-14
1.68363e-14
2.30187e-14
3.09669e-14
4.09146e-14
5.31302e-14
6.77194e-14
8.39682e-14
1.02712e-13
1.21891e-13
1.40634e-13
1.56954e-13
1.66658e-13
1.66063e-13
1.53074e-13
1.34269e-13
1.28021e-13
1.40937e-13
1.63543e-13
1.87857e-13
2.07925e-13
2.19894e-13
2.25081e-13
2.33969e-13
2.64765e-13
3.40717e-13
4.96886e-13
8.09233e-13
1.40723e-12
2.542e-12
4.64616e-12
8.4677e-12
1.53494e-11
2.78479e-11
5.00382e-11
8.87034e-11
1.55603e-10
2.71088e-10
4.68851e-10
8.05777e-10
1.37788e-09
2.34767e-09
3.66183e-09
5.03195e-09
6.41808e-09
8.00947e-09
1.00749e-08
1.30847e-08
1.77283e-08
2.51773e-08
3.68601e-08
5.49309e-08
7.98986e-08
9.79695e-08
8.78661e-08
6.09043e-08
3.57154e-08
2.27972e-08
1.69874e-08
1.28681e-08
9.39904e-09
6.63543e-09
4.5137e-09
2.96836e-09
1.88846e-09
1.16655e-09
7.02532e-10
4.14048e-10
2.39501e-10
1.36431e-10
7.66208e-11
4.25184e-11
2.33327e-11
1.26916e-11
6.83996e-12
3.65638e-12
1.93877e-12
1.02067e-12
5.3362e-13
2.78021e-13
1.43981e-13
7.41619e-14
3.79664e-14
1.92744e-14
9.6528e-15
4.71343e-15
2.18315e-15
8.8832e-16
2.05352e-16
3.08952e-17
1.17782e-16
2.45727e-16
4.38826e-16
7.28761e-16
1.16076e-15
1.79857e-15
2.7293e-15
4.06725e-15
5.95503e-15
8.5631e-15
1.20945e-14
1.67955e-14
2.29508e-14
3.08617e-14
4.07654e-14
5.29436e-14
6.74832e-14
8.36899e-14
1.02427e-13
1.21665e-13
1.40589e-13
1.57175e-13
1.67666e-13
1.67742e-13
1.55325e-13
1.36258e-13
1.28768e-13
1.40969e-13
1.63581e-13
1.88405e-13
2.09292e-13
2.22201e-13
2.28312e-13
2.37646e-13
2.68989e-13
3.4643e-13
5.07683e-13
8.29707e-13
1.44789e-12
2.6198e-12
4.79366e-12
8.74664e-12
1.58802e-11
2.88366e-11
5.18496e-11
9.19275e-11
1.61316e-10
2.80941e-10
4.85934e-10
8.35309e-10
1.42882e-09
2.43186e-09
3.76443e-09
5.14619e-09
6.54946e-09
8.18013e-09
1.03169e-08
1.34489e-08
1.82927e-08
2.61977e-08
3.84168e-08
5.72567e-08
8.2684e-08
9.84499e-08
8.5756e-08
5.81264e-08
3.37369e-08
2.20742e-08
1.65362e-08
1.25362e-08
9.16277e-09
6.4852e-09
4.42512e-09
2.9148e-09
1.85905e-09
1.15171e-09
6.95907e-10
4.11569e-10
2.38773e-10
1.36529e-10
7.69539e-11
4.2839e-11
2.35797e-11
1.28463e-11
6.93365e-12
3.71251e-12
1.97183e-12
1.03986e-12
5.44768e-13
2.83666e-13
1.46951e-13
7.5698e-14
3.87414e-14
1.96567e-14
9.83715e-15
4.79971e-15
2.2215e-15
9.03408e-16
2.08769e-16
3.08057e-17
1.17441e-16
2.45012e-16
4.37542e-16
7.26607e-16
1.15726e-15
1.79296e-15
2.72038e-15
4.05319e-15
5.93297e-15
8.52896e-15
1.20433e-14
1.67207e-14
2.28447e-14
3.07169e-14
4.05779e-14
5.27127e-14
6.72382e-14
8.34506e-14
1.02207e-13
1.2154e-13
1.40672e-13
1.57552e-13
1.6862e-13
1.69335e-13
1.57466e-13
1.38333e-13
1.29676e-13
1.41167e-13
1.638e-13
1.89165e-13
2.10936e-13
2.24932e-13
2.31938e-13
2.4192e-13
2.74061e-13
3.534e-13
5.21058e-13
8.55703e-13
1.49663e-12
2.71556e-12
4.97956e-12
9.09812e-12
1.65276e-11
3.0026e-11
5.40016e-11
9.56872e-11
1.67951e-10
2.92559e-10
5.05874e-10
8.69086e-10
1.48926e-09
2.53066e-09
3.88511e-09
5.28222e-09
6.71617e-09
8.40064e-09
1.06357e-08
1.39347e-08
1.90572e-08
2.74337e-08
4.03278e-08
6.00199e-08
8.56021e-08
9.85303e-08
8.30927e-08
5.51131e-08
3.17933e-08
2.1346e-08
1.60657e-08
1.21876e-08
8.90033e-09
6.27181e-09
4.26869e-09
2.80981e-09
1.79415e-09
1.11442e-09
6.7607e-10
4.02011e-10
2.34974e-10
1.35079e-10
7.6417e-11
4.2684e-11
2.3564e-11
1.28694e-11
6.9605e-12
3.7334e-12
1.9853e-12
1.04797e-12
5.49488e-13
2.86406e-13
1.48388e-13
7.64349e-14
3.91155e-14
1.98443e-14
9.92966e-15
4.84422e-15
2.24191e-15
9.11677e-16
2.10676e-16
3.07023e-17
1.17047e-16
2.44192e-16
4.36078e-16
7.24166e-16
1.15335e-15
1.78682e-15
2.7109e-15
4.03874e-15
5.91119e-15
8.49647e-15
1.19957e-14
1.66528e-14
2.27513e-14
3.05939e-14
4.0425e-14
5.25332e-14
6.70438e-14
8.32584e-14
1.02036e-13
1.21489e-13
1.40837e-13
1.57993e-13
1.6958e-13
1.7098e-13
1.5982e-13
1.40539e-13
1.3076e-13
1.41541e-13
1.64195e-13
1.90066e-13
2.12646e-13
2.27714e-13
2.35735e-13
2.46494e-13
2.79679e-13
3.61361e-13
5.36024e-13
8.83966e-13
1.55236e-12
2.82102e-12
5.18003e-12
9.47661e-12
1.72305e-11
3.13214e-11
5.63526e-11
9.98005e-11
1.75164e-10
3.05228e-10
5.27797e-10
9.06935e-10
1.5504e-09
2.63374e-09
4.00827e-09
5.41766e-09
6.87399e-09
8.60423e-09
1.09285e-08
1.4379e-08
1.97539e-08
2.85365e-08
4.20641e-08
6.2612e-08
8.831e-08
9.8304e-08
8.05391e-08
5.24119e-08
3.01993e-08
2.07103e-08
1.56319e-08
1.18596e-08
8.6367e-09
6.08928e-09
4.14887e-09
2.73548e-09
1.75044e-09
1.08973e-09
6.6253e-10
3.9465e-10
2.30867e-10
1.3304e-10
7.55646e-11
4.2337e-11
2.34282e-11
1.28166e-11
6.94376e-12
3.7306e-12
1.98641e-12
1.04968e-12
5.50845e-13
2.87315e-13
1.48918e-13
7.6724e-14
3.92664e-14
1.99206e-14
9.96725e-15
4.86221e-15
2.2501e-15
9.1498e-16
2.11435e-16
3.05809e-17
1.16583e-16
2.43218e-16
4.34323e-16
7.21223e-16
1.14861e-15
1.77941e-15
2.69956e-15
4.02173e-15
5.88608e-15
8.45995e-15
1.19437e-14
1.65809e-14
2.26557e-14
3.04725e-14
4.02803e-14
5.23723e-14
6.68829e-14
8.31203e-14
1.01908e-13
1.21474e-13
1.41024e-13
1.58442e-13
1.70519e-13
1.72575e-13
1.61877e-13
1.42555e-13
1.31848e-13
1.42041e-13
1.64748e-13
1.91129e-13
2.14547e-13
2.30633e-13
2.39564e-13
2.51166e-13
2.85638e-13
3.70176e-13
5.5183e-13
9.14148e-13
1.60888e-12
2.93005e-12
5.38934e-12
9.86163e-12
1.79401e-11
3.26265e-11
5.87223e-11
1.03942e-10
1.82476e-10
3.17795e-10
5.49297e-10
9.4304e-10
1.6109e-09
2.73344e-09
4.1279e-09
5.55284e-09
7.0424e-09
8.82601e-09
1.12501e-08
1.48645e-08
2.04967e-08
2.96525e-08
4.37709e-08
6.49646e-08
9.04965e-08
9.78541e-08
7.83229e-08
5.03059e-08
2.87318e-08
2.01261e-08
1.52525e-08
1.1549e-08
8.40953e-09
5.93032e-09
4.04244e-09
2.66703e-09
1.70829e-09
1.06467e-09
6.48145e-10
3.86645e-10
2.26541e-10
1.30623e-10
7.4247e-11
4.16599e-11
2.3103e-11
1.26777e-11
6.88386e-12
3.7051e-12
1.97543e-12
1.04496e-12
5.48826e-13
2.86466e-13
1.48544e-13
7.65472e-14
3.91839e-14
1.98821e-14
9.94919e-15
4.85382e-15
2.24636e-15
9.13504e-16
2.11101e-16
3.04558e-17
1.16105e-16
2.42217e-16
4.32528e-16
7.18229e-16
1.14383e-15
1.77198e-15
2.68833e-15
4.00508e-15
5.86182e-15
8.42513e-15
1.18947e-14
1.65141e-14
2.25681e-14
3.03626e-14
4.0151e-14
5.22303e-14
6.67429e-14
8.30021e-14
1.01796e-13
1.21469e-13
1.41207e-13
1.58861e-13
1.71407e-13
1.73954e-13
1.63693e-13
1.44358e-13
1.32882e-13
1.42592e-13
1.65362e-13
1.92188e-13
2.1634e-13
2.33358e-13
2.43152e-13
2.5559e-13
2.91354e-13
3.78826e-13
5.67402e-13
9.42294e-13
1.66258e-12
3.03426e-12
5.58548e-12
1.02232e-11
1.86005e-11
3.38207e-11
6.08398e-11
1.07522e-10
1.88632e-10
3.30021e-10
5.69623e-10
9.77852e-10
1.67095e-09
2.82902e-09
4.23842e-09
5.67376e-09
7.19767e-09
9.02286e-09
1.1536e-08
1.53048e-08
2.12046e-08
3.05815e-08
4.52823e-08
6.72092e-08
9.23581e-08
9.72922e-08
7.63356e-08
4.84306e-08
2.78228e-08
1.97387e-08
1.49727e-08
1.1335e-08
8.24516e-09
5.80972e-09
3.95723e-09
2.60984e-09
1.67183e-09
1.04237e-09
6.35009e-10
3.79153e-10
2.22401e-10
1.28376e-10
7.30485e-11
4.10274e-11
2.27686e-11
1.2497e-11
6.78977e-12
3.65743e-12
1.95165e-12
1.03328e-12
5.43154e-13
2.8376e-13
1.47267e-13
7.59666e-14
3.89136e-14
1.97541e-14
9.88822e-15
4.82504e-15
2.23332e-15
9.08263e-16
2.09899e-16
3.03336e-17
1.15638e-16
2.41242e-16
4.3078e-16
7.15318e-16
1.13919e-15
1.76482e-15
2.67755e-15
3.98919e-15
5.83884e-15
8.39243e-15
1.18492e-14
1.64526e-14
2.24883e-14
3.02635e-14
4.00358e-14
5.21054e-14
6.6622e-14
8.29027e-14
1.01698e-13
1.21469e-13
1.41371e-13
1.59224e-13
1.72116e-13
1.7508e-13
1.65256e-13
1.45964e-13
1.33911e-13
1.43195e-13
1.66024e-13
1.93267e-13
2.18082e-13
2.35916e-13
2.46512e-13
2.59744e-13
2.96875e-13
3.86967e-13
5.81578e-13
9.6895e-13
1.71276e-12
3.12714e-12
5.75924e-12
1.05432e-11
1.91901e-11
3.49047e-11
6.28076e-11
1.10986e-10
1.94648e-10
3.3984e-10
5.86043e-10
1.00462e-09
1.72828e-09
2.9147e-09
4.33519e-09
5.77649e-09
7.34041e-09
9.20446e-09
1.17993e-08
1.5709e-08
2.18308e-08
3.15418e-08
4.6766e-08
6.92148e-08
9.38835e-08
9.65406e-08
7.43861e-08
4.66825e-08
2.69797e-08
1.93772e-08
1.47242e-08
1.11471e-08
8.10282e-09
5.70069e-09
3.87805e-09
2.55571e-09
1.63684e-09
1.02069e-09
6.22067e-10
3.71668e-10
2.18198e-10
1.26058e-10
7.17948e-11
4.03599e-11
2.24182e-11
1.23153e-11
6.69719e-12
3.60761e-12
1.92655e-12
1.02068e-12
5.36839e-13
2.80614e-13
1.45684e-13
7.51613e-14
3.85095e-14
1.95537e-14
9.79027e-15
4.77833e-15
2.21213e-15
8.99786e-16
2.07961e-16
3.02203e-17
1.15206e-16
2.40339e-16
4.29167e-16
7.12641e-16
1.13494e-15
1.75828e-15
2.66775e-15
3.97484e-15
5.81821e-15
8.36329e-15
1.18089e-14
1.63987e-14
2.24188e-14
3.01781e-14
3.99375e-14
5.20008e-14
6.65236e-14
8.28282e-14
1.01626e-13
1.21475e-13
1.41512e-13
1.59584e-13
1.72813e-13
1.76171e-13
1.6665e-13
1.47357e-13
1.34814e-13
1.43788e-13
1.66695e-13
1.94334e-13
2.19733e-13
2.38263e-13
2.49593e-13
2.63702e-13
3.02131e-13
3.94992e-13
5.95767e-13
9.95743e-13
1.76436e-12
3.2263e-12
5.94573e-12
1.08847e-11
1.98126e-11
3.6031e-11
6.47974e-11
1.14456e-10
2.00697e-10
3.49848e-10
6.03328e-10
1.03393e-09
1.77565e-09
2.98937e-09
4.42276e-09
5.87669e-09
7.45788e-09
9.36697e-09
1.20391e-08
1.60723e-08
2.23935e-08
3.24107e-08
4.8068e-08
7.10117e-08
9.50966e-08
9.562e-08
7.23493e-08
4.49072e-08
2.62568e-08
1.90383e-08
1.44626e-08
1.09357e-08
7.94336e-09
5.58549e-09
3.79881e-09
2.50339e-09
1.60375e-09
1.00042e-09
6.10034e-10
3.64703e-10
2.14259e-10
1.23869e-10
7.05974e-11
3.97144e-11
2.20744e-11
1.21342e-11
6.60346e-12
3.55904e-12
1.90157e-12
1.0079e-12
5.30331e-13
2.77332e-13
1.44021e-13
7.4321e-14
3.80864e-14
1.9342e-14
9.68559e-15
4.72776e-15
2.18891e-15
8.90392e-16
2.05795e-16
3.01188e-17
1.14819e-16
2.39532e-16
4.27726e-16
7.10251e-16
1.13115e-15
1.75247e-15
2.65907e-15
3.9622e-15
5.80015e-15
8.33796e-15
1.17742e-14
1.63525e-14
2.23597e-14
3.01058e-14
3.9855e-14
5.19134e-14
6.6443e-14
8.27675e-14
1.01567e-13
1.21494e-13
1.41657e-13
1.59913e-13
1.73379e-13
1.77038e-13
1.67811e-13
1.48558e-13
1.35608e-13
1.44317e-13
1.67342e-13
1.95297e-13
2.21153e-13
2.40197e-13
2.52355e-13
2.67244e-13
3.06979e-13
4.0258e-13
6.09275e-13
1.02121e-12
1.81238e-12
3.31804e-12
6.11942e-12
1.1206e-11
2.04058e-11
3.71141e-11
6.67693e-11
1.17996e-10
2.0692e-10
3.60159e-10
6.21559e-10
1.06601e-09
1.81899e-09
3.05736e-09
4.49989e-09
5.95983e-09
7.56497e-09
9.50771e-09
1.22409e-08
1.638e-08
2.28782e-08
3.31825e-08
4.92326e-08
7.25191e-08
9.58812e-08
9.46089e-08
7.06114e-08
4.34595e-08
2.57117e-08
1.87791e-08
1.42788e-08
1.07838e-08
7.8223e-09
5.49533e-09
3.73521e-09
2.4605e-09
1.57609e-09
9.83177e-10
5.99615e-10
3.58562e-10
2.10732e-10
1.2188e-10
6.94944e-11
3.91119e-11
2.17496e-11
1.19612e-11
6.51285e-12
3.51168e-12
1.877e-12
9.95247e-13
5.23847e-13
2.74017e-13
1.42335e-13
7.34667e-14
3.76558e-14
1.91264e-14
9.57885e-15
4.67612e-15
2.16516e-15
8.80773e-16
2.03577e-16
3.00302e-17
1.14482e-16
2.38828e-16
4.26471e-16
7.08175e-16
1.12787e-15
1.74745e-15
2.65159e-15
3.95132e-15
5.78472e-15
8.31655e-15
1.17452e-14
1.63146e-14
2.23121e-14
3.00466e-14
3.97894e-14
5.18479e-14
6.63878e-14
8.27325e-14
1.01538e-13
1.21531e-13
1.41803e-13
1.60217e-13
1.73919e-13
1.77821e-13
1.68812e-13
1.49572e-13
1.36327e-13
1.44851e-13
1.67965e-13
1.96229e-13
2.22567e-13
2.42282e-13
2.54867e-13
2.7037e-13
3.1125e-13
4.09247e-13
6.21165e-13
1.04355e-12
1.85481e-12
3.39915e-12
6.27306e-12
1.14905e-11
2.09333e-11
3.8078e-11
6.85063e-11
1.2101e-10
2.12153e-10
3.68911e-10
6.36591e-10
1.09141e-09
1.86188e-09
3.12043e-09
4.57223e-09
6.0413e-09
7.66366e-09
9.64141e-09
1.24363e-08
1.66765e-08
2.33371e-08
3.3888e-08
5.03037e-08
7.39676e-08
9.66959e-08
9.38135e-08
6.91351e-08
4.22486e-08
2.52613e-08
1.85542e-08
1.41224e-08
1.0662e-08
7.72518e-09
5.4221e-09
3.68295e-09
2.42477e-09
1.55277e-09
9.68449e-10
5.90621e-10
3.53172e-10
2.07608e-10
1.20101e-10
6.84991e-11
3.85634e-11
2.14514e-11
1.1801e-11
6.428e-12
3.46703e-12
1.8537e-12
9.83186e-13
5.17666e-13
2.70752e-13
1.40677e-13
7.2628e-14
3.72333e-14
1.8915e-14
9.47425e-15
4.62554e-15
2.14189e-15
8.71347e-16
2.01404e-16
2.99548e-17
1.14194e-16
2.38229e-16
4.25404e-16
7.06412e-16
1.12508e-15
1.7432e-15
2.64528e-15
3.9422e-15
5.77186e-15
8.29882e-15
1.17214e-14
1.62838e-14
2.22739e-14
2.99996e-14
3.97391e-14
5.17988e-14
6.63471e-14
8.27112e-14
1.01525e-13
1.21578e-13
1.41942e-13
1.60489e-13
1.74374e-13
1.7849e-13
1.69663e-13
1.50445e-13
1.36954e-13
1.45331e-13
1.68531e-13
1.97065e-13
2.23784e-13
2.43948e-13
2.56992e-13
2.73042e-13
3.14914e-13
4.14961e-13
6.31335e-13
1.06206e-12
1.88915e-12
3.46302e-12
6.38971e-12
1.16968e-11
2.14417e-11
3.89381e-11
7.00067e-11
1.23602e-10
2.16591e-10
3.76498e-10
6.49528e-10
1.11341e-09
1.89927e-09
3.17424e-09
4.6337e-09
6.10994e-09
7.74798e-09
9.75646e-09
1.26055e-08
1.69374e-08
2.3747e-08
3.45308e-08
5.129e-08
7.5267e-08
9.73782e-08
9.31595e-08
6.79664e-08
4.12801e-08
2.49142e-08
1.83746e-08
1.40052e-08
1.05688e-08
7.65395e-09
5.36496e-09
3.64058e-09
2.39511e-09
1.53307e-09
9.55853e-10
5.82843e-10
3.48493e-10
2.0487e-10
1.1853e-10
6.76132e-11
3.80717e-11
2.11823e-11
1.16555e-11
6.35041e-12
3.42597e-12
1.83218e-12
9.7199e-13
5.11898e-13
2.6774e-13
1.39139e-13
7.18471e-14
3.68388e-14
1.8717e-14
9.37611e-15
4.57801e-15
2.12001e-15
8.62473e-16
1.99358e-16
2.98916e-17
1.13954e-16
2.37729e-16
4.24514e-16
7.04943e-16
1.12277e-15
1.73967e-15
2.64007e-15
3.93469e-15
5.76129e-15
8.28433e-15
1.17021e-14
1.62591e-14
2.22439e-14
2.99636e-14
3.97012e-14
5.17618e-14
6.63188e-14
8.27015e-14
1.01524e-13
1.21629e-13
1.42074e-13
1.60742e-13
1.74795e-13
1.79107e-13
1.70446e-13
1.51238e-13
1.37538e-13
1.45785e-13
1.6905e-13
1.97793e-13
2.248e-13
2.45284e-13
2.58781e-13
2.75374e-13
3.18198e-13
4.20276e-13
6.40742e-13
1.07949e-12
1.92194e-12
3.52507e-12
6.50604e-12
1.19124e-11
2.18432e-11
3.96555e-11
7.12747e-11
1.25801e-10
2.2037e-10
3.82865e-10
6.60029e-10
1.13035e-09
1.9419e-09
3.22708e-09
4.68992e-09
6.17193e-09
7.82352e-09
9.8587e-09
1.2754e-08
1.71651e-08
2.41031e-08
3.50899e-08
5.21261e-08
7.63649e-08
9.79198e-08
9.26013e-08
6.69981e-08
4.04711e-08
2.463e-08
1.82214e-08
1.39024e-08
1.04804e-08
7.58305e-09
5.31238e-09
3.60293e-09
2.36921e-09
1.516e-09
9.44951e-10
5.76101e-10
3.44435e-10
2.02486e-10
1.17155e-10
6.68347e-11
3.76376e-11
2.09436e-11
1.1526e-11
6.28099e-12
3.38909e-12
1.81276e-12
9.61853e-13
5.06653e-13
2.65036e-13
1.37754e-13
7.11408e-14
3.64809e-14
1.8537e-14
9.28674e-15
4.53466e-15
2.10002e-15
8.54364e-16
1.97486e-16
2.98397e-17
1.13756e-16
2.37318e-16
4.23782e-16
7.03738e-16
1.12087e-15
1.73679e-15
2.6358e-15
3.92855e-15
5.75266e-15
8.27247e-15
1.16863e-14
1.62387e-14
2.22189e-14
2.99331e-14
3.96677e-14
5.17305e-14
6.62971e-14
8.2698e-14
1.01528e-13
1.21678e-13
1.42192e-13
1.60956e-13
1.7514e-13
1.79589e-13
1.71057e-13
1.51857e-13
1.38007e-13
1.46169e-13
1.69506e-13
1.98428e-13
2.2568e-13
2.46511e-13
2.60306e-13
2.77368e-13
3.21086e-13
4.24996e-13
6.49294e-13
1.0956e-12
1.95271e-12
3.58426e-12
6.61928e-12
1.21253e-11
2.2239e-11
4.03763e-11
7.25706e-11
1.28084e-10
2.24367e-10
3.89816e-10
6.72172e-10
1.15169e-09
1.97161e-09
3.26977e-09
4.73776e-09
6.22388e-09
7.88561e-09
9.9424e-09
1.28769e-08
1.73531e-08
2.44005e-08
3.5556e-08
5.28365e-08
7.72943e-08
9.83471e-08
9.21229e-08
6.61929e-08
3.98266e-08
2.44076e-08
1.81007e-08
1.38215e-08
1.04126e-08
7.52836e-09
5.27036e-09
3.57215e-09
2.34771e-09
1.5017e-09
9.35751e-10
5.70381e-10
3.40975e-10
2.00445e-10
1.15973e-10
6.61627e-11
3.72614e-11
2.0736e-11
1.14129e-11
6.22018e-12
3.35669e-12
1.79566e-12
9.52902e-13
5.0201e-13
2.6264e-13
1.36524e-13
7.05137e-14
3.61629e-14
1.8377e-14
9.20721e-15
4.49606e-15
2.08222e-15
8.47138e-16
1.95817e-16
2.97979e-17
1.13597e-16
2.36987e-16
4.23195e-16
7.0277e-16
1.11935e-15
1.73447e-15
2.63239e-15
3.92364e-15
5.74577e-15
8.26301e-15
1.16736e-14
1.62224e-14
2.2199e-14
2.99085e-14
3.96431e-14
5.17094e-14
6.6285e-14
8.27012e-14
1.0154e-13
1.2173e-13
1.42302e-13
1.61148e-13
1.75437e-13
1.80003e-13
1.71558e-13
1.52364e-13
1.38394e-13
1.46502e-13
1.6991e-13
1.99002e-13
2.2649e-13
2.47525e-13
2.61632e-13
2.79068e-13
3.23527e-13
4.28995e-13
6.56584e-13
1.10941e-12
1.97914e-12
3.63494e-12
6.71419e-12
1.23003e-11
2.25624e-11
4.09681e-11
7.36428e-11
1.2999e-10
2.2774e-10
3.95748e-10
6.82537e-10
1.16974e-09
1.99515e-09
3.30376e-09
4.77652e-09
6.26791e-09
7.9397e-09
1.00158e-08
1.29834e-08
1.75157e-08
2.46529e-08
3.59531e-08
5.34422e-08
7.8069e-08
9.86802e-08
9.17222e-08
6.5541e-08
3.93118e-08
2.42306e-08
1.80032e-08
1.37555e-08
1.03582e-08
7.48385e-09
5.23579e-09
3.54668e-09
2.32986e-09
1.48977e-09
9.28057e-10
5.65582e-10
3.38064e-10
1.98722e-10
1.14973e-10
6.55923e-11
3.69413e-11
2.05589e-11
1.13162e-11
6.16805e-12
3.32885e-12
1.78094e-12
9.45182e-13
4.97999e-13
2.60568e-13
1.3546e-13
6.99702e-14
3.58871e-14
1.82381e-14
9.13815e-15
4.46253e-15
2.06676e-15
8.40859e-16
1.94367e-16
2.97652e-17
1.13473e-16
2.36728e-16
4.22736e-16
7.02015e-16
1.11817e-15
1.73268e-15
2.62975e-15
3.91986e-15
5.74048e-15
8.25578e-15
1.16641e-14
1.62103e-14
2.21846e-14
2.98914e-14
3.96264e-14
5.16954e-14
6.62786e-14
8.27081e-14
1.01553e-13
1.21773e-13
1.42391e-13
1.61299e-13
1.75674e-13
1.80329e-13
1.71953e-13
1.52767e-13
1.38712e-13
1.46779e-13
1.70249e-13
1.99477e-13
2.27156e-13
2.48458e-13
2.62753e-13
2.80511e-13
3.25644e-13
4.32491e-13
6.62924e-13
1.12131e-12
2.00166e-12
3.67765e-12
6.7944e-12
1.24482e-11
2.28331e-11
4.14562e-11
7.451e-11
1.31493e-10
2.3031e-10
4.00107e-10
6.8981e-10
1.18166e-09
2.01427e-09
3.33046e-09
4.80791e-09
6.30426e-09
7.98465e-09
1.00774e-08
1.30733e-08
1.76523e-08
2.4866e-08
3.62839e-08
5.39369e-08
7.86991e-08
9.89356e-08
9.13855e-08
6.50035e-08
3.8886e-08
2.40865e-08
1.79217e-08
1.37008e-08
1.0312e-08
7.44658e-09
5.20704e-09
3.5256e-09
2.31515e-09
1.47998e-09
9.21745e-10
5.61641e-10
3.35668e-10
1.973e-10
1.14146e-10
6.51194e-11
3.66753e-11
2.04115e-11
1.12355e-11
6.1245e-12
3.30556e-12
1.76861e-12
9.38709e-13
4.94632e-13
2.58826e-13
1.34565e-13
6.95131e-14
3.5655e-14
1.81212e-14
9.08002e-15
4.4343e-15
2.05373e-15
8.35569e-16
1.93145e-16
2.97407e-17
1.13379e-16
2.36534e-16
4.22392e-16
7.0145e-16
1.11728e-15
1.73135e-15
2.6278e-15
3.9171e-15
5.73667e-15
8.25065e-15
1.16574e-14
1.6202e-14
2.21748e-14
2.98795e-14
3.96147e-14
5.16864e-14
6.62762e-14
8.27171e-14
1.01568e-13
1.21816e-13
1.42471e-13
1.6143e-13
1.7587e-13
1.80595e-13
1.7228e-13
1.53099e-13
1.38972e-13
1.47008e-13
1.70524e-13
1.99854e-13
2.27662e-13
2.49117e-13
2.63601e-13
2.81637e-13
3.27287e-13
4.3521e-13
6.67857e-13
1.13056e-12
2.01917e-12
3.71083e-12
6.85646e-12
1.25628e-11
2.30446e-11
4.18394e-11
7.51953e-11
1.32693e-10
2.324e-10
4.03711e-10
6.96002e-10
1.19234e-09
2.03285e-09
3.35454e-09
4.8346e-09
6.33403e-09
8.0194e-09
1.01247e-08
1.31429e-08
1.77587e-08
2.50324e-08
3.65425e-08
5.43233e-08
7.91881e-08
9.91263e-08
9.1121e-08
6.45871e-08
3.85588e-08
2.39751e-08
1.78577e-08
1.36575e-08
1.02757e-08
7.41763e-09
5.18485e-09
3.50931e-09
2.30373e-09
1.47234e-09
9.16789e-10
5.58529e-10
3.33767e-10
1.96168e-10
1.13485e-10
6.4741e-11
3.64621e-11
2.02931e-11
1.11707e-11
6.08946e-12
3.28681e-12
1.75867e-12
9.33492e-13
4.91917e-13
2.57422e-13
1.33844e-13
6.91445e-14
3.54678e-14
1.80269e-14
9.03311e-15
4.41152e-15
2.04322e-15
8.31301e-16
1.92159e-16
2.97234e-17
1.13314e-16
2.36398e-16
4.22151e-16
7.01057e-16
1.11667e-15
1.73043e-15
2.62647e-15
3.91522e-15
5.73405e-15
8.24707e-15
1.16526e-14
1.61959e-14
2.21675e-14
2.98708e-14
3.96066e-14
5.16807e-14
6.62757e-14
8.27252e-14
1.01581e-13
1.21848e-13
1.4253e-13
1.61526e-13
1.76013e-13
1.80787e-13
1.72512e-13
1.53333e-13
1.39158e-13
1.47176e-13
1.70723e-13
2.00116e-13
2.27998e-13
2.49513e-13
2.64178e-13
2.82432e-13
3.28475e-13
4.37193e-13
6.71469e-13
1.13736e-12
2.03206e-12
3.73536e-12
6.90247e-12
1.26473e-11
2.31997e-11
4.21206e-11
7.56984e-11
1.33572e-10
2.3392e-10
4.06311e-10
7.00406e-10
1.19973e-09
2.04509e-09
3.3723e-09
4.85794e-09
6.3665e-09
8.03352e-09
1.01555e-08
1.31933e-08
1.7838e-08
2.51568e-08
3.67367e-08
5.46155e-08
7.95562e-08
9.9265e-08
9.09234e-08
6.42812e-08
3.83189e-08
2.38936e-08
1.7811e-08
1.36259e-08
1.02492e-08
7.39618e-09
5.16821e-09
3.49705e-09
2.29517e-09
1.46663e-09
9.13108e-10
5.56244e-10
3.32385e-10
1.9535e-10
1.13009e-10
6.44678e-11
3.63078e-11
2.02072e-11
1.11234e-11
6.06383e-12
3.27303e-12
1.75133e-12
9.2962e-13
4.89892e-13
2.5637e-13
1.33301e-13
6.88666e-14
3.53266e-14
1.79558e-14
8.99771e-15
4.39433e-15
2.03529e-15
8.28081e-16
1.91416e-16
2.97123e-17
1.13272e-16
2.36311e-16
4.21997e-16
7.00804e-16
1.11628e-15
1.72983e-15
2.62559e-15
3.91394e-15
5.73226e-15
8.24462e-15
1.16494e-14
1.61919e-14
2.21629e-14
2.98653e-14
3.96016e-14
5.16774e-14
6.6276e-14
8.27311e-14
1.01591e-13
1.21869e-13
1.4257e-13
1.61589e-13
1.76107e-13
1.80913e-13
1.72663e-13
1.53487e-13
1.39291e-13
1.4732e-13
1.70865e-13
2.00294e-13
2.28229e-13
2.49805e-13
2.6456e-13
2.82939e-13
3.2922e-13
4.38423e-13
6.73694e-13
1.14153e-12
2.03994e-12
3.75032e-12
6.93055e-12
1.26994e-11
2.32957e-11
4.22959e-11
7.60158e-11
1.34137e-10
2.3492e-10
4.08072e-10
7.03488e-10
1.20507e-09
2.05428e-09
3.38429e-09
4.87133e-09
6.38133e-09
8.05069e-09
1.01788e-08
1.32279e-08
1.78913e-08
2.52403e-08
3.68669e-08
5.48106e-08
7.98005e-08
9.93541e-08
9.0791e-08
6.40771e-08
3.81608e-08
2.384e-08
1.778e-08
1.36049e-08
1.02315e-08
7.38188e-09
5.15717e-09
3.4889e-09
2.2894e-09
1.46276e-09
9.10631e-10
5.547e-10
3.31447e-10
1.94794e-10
1.12686e-10
6.4284e-11
3.62047e-11
2.01501e-11
1.10923e-11
6.047e-12
3.26403e-12
1.74656e-12
9.27114e-13
4.88585e-13
2.55692e-13
1.3295e-13
6.86863e-14
3.52343e-14
1.7909e-14
8.97435e-15
4.38295e-15
2.03002e-15
8.25938e-16
1.9092e-16
2.97069e-17
1.13251e-16
2.36267e-16
4.2192e-16
7.00678e-16
1.11608e-15
1.72954e-15
2.62515e-15
3.91333e-15
5.73141e-15
8.24347e-15
1.16479e-14
1.619e-14
2.21607e-14
2.98628e-14
3.95994e-14
5.16761e-14
6.62765e-14
8.27346e-14
1.01596e-13
1.21881e-13
1.42591e-13
1.61622e-13
1.76155e-13
1.80977e-13
1.72739e-13
1.53563e-13
1.39351e-13
1.47371e-13
1.70929e-13
2.00382e-13
2.28356e-13
2.50008e-13
2.64759e-13
2.8318e-13
3.29553e-13
4.38947e-13
6.74597e-13
1.14314e-12
2.04284e-12
3.75556e-12
6.93989e-12
1.27156e-11
2.33241e-11
4.23453e-11
7.61027e-11
1.34292e-10
2.3521e-10
4.08649e-10
7.04712e-10
1.20782e-09
2.06068e-09
3.39115e-09
4.87671e-09
6.38432e-09
8.06637e-09
1.01948e-08
1.32485e-08
1.7921e-08
2.52852e-08
3.6935e-08
5.49106e-08
7.99237e-08
9.93961e-08
9.07214e-08
6.39733e-08
3.8081e-08
2.38132e-08
1.77645e-08
1.35944e-08
1.02228e-08
7.37485e-09
5.15174e-09
3.48486e-09
2.28649e-09
1.46075e-09
9.09283e-10
5.53841e-10
3.30919e-10
1.9448e-10
1.12503e-10
6.41797e-11
3.61463e-11
2.01179e-11
1.10747e-11
6.03755e-12
3.259e-12
1.74392e-12
9.25731e-13
4.87871e-13
2.55325e-13
1.32763e-13
6.85913e-14
3.51865e-14
1.7885e-14
8.96246e-15
4.37719e-15
2.02737e-15
8.24861e-16
1.90671e-16
2.97068e-17
1.13251e-16
2.36267e-16
4.21919e-16
7.00677e-16
1.11608e-15
1.72953e-15
2.62515e-15
3.91332e-15
5.73141e-15
8.24347e-15
1.16479e-14
1.619e-14
2.21607e-14
2.98628e-14
3.95995e-14
5.16763e-14
6.62769e-14
8.27351e-14
1.01597e-13
1.21882e-13
1.42592e-13
1.61624e-13
1.76157e-13
1.80979e-13
1.7274e-13
1.53563e-13
1.39348e-13
1.47358e-13
1.70928e-13
2.00391e-13
2.28378e-13
2.50045e-13
2.64776e-13
2.8317e-13
3.29511e-13
4.38843e-13
6.74362e-13
1.14262e-12
2.04171e-12
3.75308e-12
6.93447e-12
1.27038e-11
2.32982e-11
4.22878e-11
7.59742e-11
1.34006e-10
2.34568e-10
4.072e-10
7.01435e-10
1.20039e-09
2.06122e-09
3.38768e-09
4.87142e-09
6.37658e-09
8.07333e-09
1.01986e-08
1.32506e-08
1.79225e-08
2.52867e-08
3.6937e-08
5.49134e-08
7.99267e-08
9.93943e-08
9.07161e-08
6.39685e-08
3.80783e-08
2.38124e-08
1.77642e-08
1.35942e-08
1.02226e-08
7.3747e-09
5.1516e-09
3.48473e-09
2.28638e-09
1.46066e-09
9.09213e-10
5.53791e-10
3.30886e-10
1.9446e-10
1.12491e-10
6.41725e-11
3.61422e-11
2.01156e-11
1.10735e-11
6.03691e-12
3.25867e-12
1.74375e-12
9.25648e-13
4.8783e-13
2.55306e-13
1.32754e-13
6.85873e-14
3.51847e-14
1.78843e-14
8.96214e-15
4.37705e-15
2.02731e-15
8.24841e-16
1.90667e-16
2.97122e-17
1.13271e-16
2.36309e-16
4.21994e-16
7.008e-16
1.11627e-15
1.72982e-15
2.62557e-15
3.91392e-15
5.73223e-15
8.24459e-15
1.16494e-14
1.61919e-14
2.21629e-14
2.98655e-14
3.9602e-14
5.1678e-14
6.62769e-14
8.27325e-14
1.01593e-13
1.21872e-13
1.42573e-13
1.61594e-13
1.76112e-13
1.80917e-13
1.72666e-13
1.53486e-13
1.39281e-13
1.47286e-13
1.70859e-13
2.00306e-13
2.28267e-13
2.49889e-13
2.64579e-13
2.82897e-13
3.29086e-13
4.38103e-13
6.72971e-13
1.13994e-12
2.03653e-12
3.74312e-12
6.91573e-12
1.26695e-11
2.32364e-11
4.21806e-11
7.57971e-11
1.33737e-10
2.3421e-10
4.0686e-10
7.01528e-10
1.20216e-09
2.05057e-09
3.37856e-09
4.86288e-09
6.36818e-09
8.06504e-09
1.01878e-08
1.32349e-08
1.78981e-08
2.52481e-08
3.68763e-08
5.48218e-08
7.98108e-08
9.93508e-08
9.07777e-08
6.4065e-08
3.81537e-08
2.38379e-08
1.77792e-08
1.36043e-08
1.0231e-08
7.38148e-09
5.15683e-09
3.48862e-09
2.28913e-09
1.46249e-09
9.10403e-10
5.54536e-10
3.31339e-10
1.94728e-10
1.12647e-10
6.42614e-11
3.61921e-11
2.01433e-11
1.10886e-11
6.04509e-12
3.26305e-12
1.74607e-12
9.26873e-13
4.8847e-13
2.55638e-13
1.32926e-13
6.86753e-14
3.52296e-14
1.7907e-14
8.97348e-15
4.38258e-15
2.02987e-15
8.25884e-16
1.90908e-16
2.97234e-17
1.13314e-16
2.36398e-16
4.22151e-16
7.01056e-16
1.11667e-15
1.73042e-15
2.62645e-15
3.91517e-15
5.73398e-15
8.24697e-15
1.16525e-14
1.61958e-14
2.21675e-14
2.9871e-14
3.96071e-14
5.16816e-14
6.6277e-14
8.2727e-14
1.01584e-13
1.21851e-13
1.42534e-13
1.6153e-13
1.76017e-13
1.80791e-13
1.72514e-13
1.53332e-13
1.39157e-13
1.47175e-13
1.70726e-13
2.00127e-13
2.28027e-13
2.49573e-13
2.64181e-13
2.82377e-13
3.28327e-13
4.36851e-13
6.70707e-13
1.1357e-12
2.02849e-12
3.7278e-12
6.88678e-12
1.26156e-11
2.31355e-11
4.19935e-11
7.54512e-11
1.33105e-10
2.3305e-10
4.0472e-10
6.97547e-10
1.1947e-09
2.04487e-09
3.36876e-09
4.85111e-09
6.35453e-09
8.04814e-09
1.01648e-08
1.32013e-08
1.78469e-08
2.51681e-08
3.67513e-08
5.46331e-08
7.95736e-08
9.92632e-08
9.09064e-08
6.42646e-08
3.83088e-08
2.38906e-08
1.78096e-08
1.36249e-08
1.02484e-08
7.39563e-09
5.1679e-09
3.49671e-09
2.2948e-09
1.46635e-09
9.12916e-10
5.56113e-10
3.323e-10
1.95299e-10
1.12979e-10
6.44512e-11
3.62988e-11
2.02024e-11
1.1121e-11
6.06257e-12
3.2724e-12
1.75103e-12
9.29475e-13
4.89824e-13
2.56339e-13
1.33286e-13
6.88595e-14
3.53232e-14
1.79541e-14
8.99694e-15
4.39397e-15
2.03513e-15
8.28019e-16
1.91401e-16
2.97409e-17
1.1338e-16
2.36536e-16
4.22396e-16
7.01458e-16
1.1173e-15
1.73137e-15
2.62784e-15
3.91715e-15
5.73673e-15
8.25071e-15
1.16574e-14
1.6202e-14
2.21748e-14
2.98797e-14
3.96152e-14
5.16875e-14
6.62779e-14
8.27194e-14
1.01571e-13
1.21819e-13
1.42475e-13
1.61435e-13
1.75875e-13
1.80599e-13
1.72283e-13
1.531e-13
1.38971e-13
1.47008e-13
1.70523e-13
1.9985e-13
2.27657e-13
2.49107e-13
2.63572e-13
2.81576e-13
3.27159e-13
4.34933e-13
6.67247e-13
1.12923e-12
2.01628e-12
3.70464e-12
6.84338e-12
1.25357e-11
2.29883e-11
4.17249e-11
7.49649e-11
1.32238e-10
2.315e-10
4.01946e-10
6.92545e-10
1.18552e-09
2.03636e-09
3.35503e-09
4.83475e-09
6.33504e-09
8.02207e-09
1.01293e-08
1.31499e-08
1.77686e-08
2.50456e-08
3.65593e-08
5.43443e-08
7.92078e-08
9.9125e-08
9.11017e-08
6.45699e-08
3.85492e-08
2.39722e-08
1.78571e-08
1.36572e-08
1.02756e-08
7.41756e-09
5.1844e-09
3.5088e-09
2.30339e-09
1.47213e-09
9.1667e-10
5.58468e-10
3.33737e-10
1.96153e-10
1.13477e-10
6.47364e-11
3.64595e-11
2.02916e-11
1.11698e-11
6.08898e-12
3.28654e-12
1.75852e-12
9.33409e-13
4.91872e-13
2.57398e-13
1.33831e-13
6.91377e-14
3.54644e-14
1.80253e-14
9.0323e-15
4.41114e-15
2.04305e-15
8.31234e-16
1.92144e-16
2.97655e-17
1.13474e-16
2.3673e-16
4.2274e-16
7.02024e-16
1.11818e-15
1.73271e-15
2.6298e-15
3.91996e-15
5.74064e-15
8.25605e-15
1.16645e-14
1.62109e-14
2.21854e-14
2.98923e-14
3.96274e-14
5.16969e-14
6.62807e-14
8.2711e-14
1.01556e-13
1.21778e-13
1.42396e-13
1.61305e-13
1.7568e-13
1.80334e-13
1.71958e-13
1.52771e-13
1.38715e-13
1.46783e-13
1.7025e-13
1.99478e-13
2.27152e-13
2.48446e-13
2.6273e-13
2.80477e-13
3.25576e-13
4.32363e-13
6.62663e-13
1.12077e-12
2.00054e-12
3.67534e-12
6.78985e-12
1.24393e-11
2.2816e-11
4.14238e-11
7.44511e-11
1.31394e-10
2.30166e-10
3.99944e-10
6.89787e-10
1.18238e-09
2.01747e-09
3.3347e-09
4.81472e-09
6.31768e-09
7.97524e-09
1.00766e-08
1.30779e-08
1.76616e-08
2.48805e-08
3.63047e-08
5.39629e-08
7.87255e-08
9.89374e-08
9.1361e-08
6.49747e-08
3.88646e-08
2.40796e-08
1.7918e-08
1.36981e-08