/*--------------------------------*- C++ -*----------------------------------*\
  =========                 |
  \\      /  F ield         | OpenFOAM: The Open Source CFD Toolbox
   \\    /   O peration     | Website:  https://openfoam.org
    \\  /    A nd           | Version:  10
     \\/     M anipulation  |
\*---------------------------------------------------------------------------*/
FoamFile
{
    format      ascii;
    class       volScalarField;
    location    "1";
    object      HNO3;
}
// * * * * * * * * * * * * * * * * * * * * * * * * * * * * * * * * * * * * * //

dimensions      [0 0 0 0 0 0 0];

internalField   nonuniform List<scalar> 
4000
(
4.83718e-14
1.84392e-13
3.84612e-13
6.86579e-13
1.13957e-12
1.81382e-12
2.8079e-12
4.25582e-12
6.3316e-12
9.24828e-12
1.32526e-11
1.86232e-11
2.56652e-11
3.46753e-11
4.58701e-11
5.92223e-11
7.45781e-11
9.13267e-11
1.07795e-10
1.23855e-10
1.3704e-10
1.465e-10
1.51349e-10
1.50883e-10
1.45292e-10
1.35091e-10
1.20974e-10
1.03666e-10
8.43201e-11
6.35438e-11
4.30391e-11
2.52611e-11
1.27146e-11
5.88558e-12
2.69426e-12
1.28046e-12
6.65609e-13
4.38977e-13
4.42614e-13
6.57873e-13
1.17139e-12
2.182e-12
4.05708e-12
7.4612e-12
1.36791e-11
2.47603e-11
4.41352e-11
7.77247e-11
1.3577e-10
2.35336e-10
4.05345e-10
6.95167e-10
1.1909e-09
2.0469e-09
3.54501e-09
6.21145e-09
1.10563e-08
2.00577e-08
3.72753e-08
7.11776e-08
1.40315e-07
2.84914e-07
5.96872e-07
1.2729e-06
2.63575e-06
4.40281e-06
5.20516e-06
5.01571e-06
4.29773e-06
3.43849e-06
2.65138e-06
1.94471e-06
1.37435e-06
9.35892e-07
6.13539e-07
3.89121e-07
2.39491e-07
1.43686e-07
8.43666e-08
4.86261e-08
2.75993e-08
1.5445e-08
8.53808e-09
4.67094e-09
2.52879e-09
1.35795e-09
7.23982e-10
3.83387e-10
2.01881e-10
1.05828e-10
5.51145e-11
2.85669e-11
1.47354e-11
7.55686e-12
3.84378e-12
1.92876e-12
9.43522e-13
4.37696e-13
1.78299e-13
4.12465e-14
4.82203e-14
1.83813e-13
3.83417e-13
6.84539e-13
1.13641e-12
1.80916e-12
2.80114e-12
4.24608e-12
6.31732e-12
9.22674e-12
1.3219e-11
1.85698e-11
2.5581e-11
3.45502e-11
4.56995e-11
5.90104e-11
7.43214e-11
9.10396e-11
1.07534e-10
1.23721e-10
1.37083e-10
1.46799e-10
1.51928e-10
1.51745e-10
1.46413e-10
1.36372e-10
1.22359e-10
1.04972e-10
8.55757e-11
6.46883e-11
4.39977e-11
2.60197e-11
1.31789e-11
6.09943e-12
2.78812e-12
1.3235e-12
6.8732e-13
4.52854e-13
4.56809e-13
6.79575e-13
1.21109e-12
2.25718e-12
4.1963e-12
7.72206e-12
1.41627e-11
2.56422e-11
4.57025e-11
8.04923e-11
1.40687e-10
2.43958e-10
4.20348e-10
7.21164e-10
1.23722e-09
2.12826e-09
3.68985e-09
6.47823e-09
1.16205e-08
2.11171e-08
3.93234e-08
7.52639e-08
1.49394e-07
3.0372e-07
6.36941e-07
1.3582e-06
2.79576e-06
4.51788e-06
5.23198e-06
4.984e-06
4.23976e-06
3.37695e-06
2.59809e-06
1.90632e-06
1.3482e-06
9.18153e-07
6.04257e-07
3.84673e-07
2.37746e-07
1.43237e-07
8.44467e-08
4.88598e-08
2.7838e-08
1.5636e-08
8.67744e-09
4.76209e-09
2.59037e-09
1.39604e-09
7.46253e-10
3.95684e-10
2.08302e-10
1.08899e-10
5.67352e-11
2.93809e-11
1.5133e-11
7.74693e-12
3.93276e-12
1.96952e-12
9.6169e-13
4.45427e-13
1.81242e-13
4.18972e-14
4.81485e-14
1.83557e-13
3.82942e-13
6.83814e-13
1.13541e-12
1.80781e-12
2.79936e-12
4.24335e-12
6.31249e-12
9.21741e-12
1.32005e-11
1.85336e-11
2.5518e-11
3.44514e-11
4.55571e-11
5.88269e-11
7.41241e-11
9.08446e-11
1.07384e-10
1.23692e-10
1.37241e-10
1.47188e-10
1.52616e-10
1.52744e-10
1.47661e-10
1.37816e-10
1.23918e-10
1.06597e-10
8.7219e-11
6.62546e-11
4.53981e-11
2.70803e-11
1.37954e-11
6.3986e-12
2.92022e-12
1.38521e-12
7.20649e-13
4.74233e-13
4.7878e-13
7.14842e-13
1.27568e-12
2.37932e-12
4.42903e-12
8.16772e-12
1.4999e-11
2.71856e-11
4.84821e-11
8.54524e-11
1.49321e-10
2.59068e-10
4.46693e-10
7.66966e-10
1.31558e-09
2.26382e-09
3.92689e-09
6.88924e-09
1.23669e-08
2.25014e-08
4.19661e-08
8.04399e-08
1.61259e-07
3.28182e-07
6.90129e-07
1.47241e-06
2.99725e-06
4.65493e-06
5.25699e-06
4.93977e-06
4.16923e-06
3.30702e-06
2.54021e-06
1.86336e-06
1.32038e-06
9.01562e-07
5.94165e-07
3.79119e-07
2.3495e-07
1.42003e-07
8.39983e-08
4.87392e-08
2.78705e-08
1.57094e-08
8.74498e-09
4.81328e-09
2.62217e-09
1.4152e-09
7.577e-10
4.02412e-10
2.12202e-10
1.11163e-10
5.78803e-11
2.99829e-11
1.54441e-11
7.90381e-12
4.01011e-12
2.00679e-12
9.79123e-13
4.53172e-13
1.84288e-13
4.25871e-14
4.79955e-14
1.82973e-13
3.81718e-13
6.81612e-13
1.13171e-12
1.8018e-12
2.78973e-12
4.22814e-12
6.28869e-12
9.18057e-12
1.31445e-11
1.84516e-11
2.54015e-11
3.42923e-11
4.53512e-11
5.85798e-11
7.38526e-11
9.06061e-11
1.07226e-10
1.23671e-10
1.37429e-10
1.47659e-10
1.53351e-10
1.53765e-10
1.48878e-10
1.39196e-10
1.25489e-10
1.08238e-10
8.88717e-11
6.78e-11
4.67736e-11
2.81473e-11
1.4446e-11
6.71284e-12
3.05996e-12
1.451e-12
7.56675e-13
4.98287e-13
5.05146e-13
7.55581e-13
1.35244e-12
2.52798e-12
4.71181e-12
8.69122e-12
1.59669e-11
2.89506e-11
5.16118e-11
9.10433e-11
1.59266e-10
2.7648e-10
4.76987e-10
8.21292e-10
1.40897e-09
2.4282e-09
4.22087e-09
7.42995e-09
1.33539e-08
2.43471e-08
4.55074e-08
8.7438e-08
1.758e-07
3.58307e-07
7.53728e-07
1.60209e-06
3.21408e-06
4.79715e-06
5.27259e-06
4.88431e-06
4.09028e-06
3.23048e-06
2.47734e-06
1.81424e-06
1.27972e-06
8.71425e-07
5.7378e-07
3.66445e-07
2.27634e-07
1.38097e-07
8.21115e-08
4.79876e-08
2.75833e-08
1.56026e-08
8.71409e-09
4.81015e-09
2.62676e-09
1.42055e-09
7.61868e-10
4.05102e-10
2.13822e-10
1.12106e-10
5.84283e-11
3.02699e-11
1.55913e-11
7.97846e-12
4.04751e-12
2.02522e-12
9.87989e-13
4.57234e-13
1.85934e-13
4.29665e-14
4.78206e-14
1.82307e-13
3.8033e-13
6.79132e-13
1.12757e-12
1.79517e-12
2.77934e-12
4.21214e-12
6.26443e-12
9.14428e-12
1.3091e-11
1.83744e-11
2.52941e-11
3.41492e-11
4.51713e-11
5.83713e-11
7.36337e-11
9.04111e-11
1.07096e-10
1.23646e-10
1.376e-10
1.4808e-10
1.54022e-10
1.54693e-10
1.50073e-10
1.40669e-10
1.2707e-10
1.09868e-10
9.04666e-11
6.93398e-11
4.80816e-11
2.9119e-11
1.50338e-11
7.00323e-12
3.18967e-12
1.5123e-12
7.90022e-13
5.22665e-13
5.32772e-13
8.02086e-13
1.43805e-12
2.6911e-12
5.0225e-12
9.27186e-12
1.70429e-11
3.09124e-11
5.50785e-11
9.71336e-11
1.69986e-10
2.9508e-10
5.09139e-10
8.74643e-10
1.50132e-09
2.58768e-09
4.49789e-09
7.91668e-09
1.42315e-08
2.60028e-08
4.87267e-08
9.39153e-08
1.89341e-07
3.87548e-07
8.18478e-07
1.73882e-06
3.4234e-06
4.9133e-06
5.2748e-06
4.82612e-06
4.01189e-06
3.15559e-06
2.41602e-06
1.7635e-06
1.24404e-06
8.47737e-07
5.58948e-07
3.57653e-07
2.22633e-07
1.35338e-07
8.06047e-08
4.71458e-08
2.71641e-08
1.54266e-08
8.64194e-09
4.78157e-09
2.61543e-09
1.4168e-09
7.61105e-10
4.05222e-10
2.14112e-10
1.12352e-10
5.85975e-11
3.03696e-11
1.56458e-11
8.00693e-12
4.0619e-12
2.0323e-12
9.91371e-13
4.58773e-13
1.86554e-13
4.3109e-14
4.76185e-14
1.81534e-13
3.78708e-13
6.76211e-13
1.12267e-12
1.78729e-12
2.76703e-12
4.19334e-12
6.23631e-12
9.10298e-12
1.30314e-11
1.82906e-11
2.51804e-11
3.40021e-11
4.49918e-11
5.81699e-11
7.34305e-11
9.02404e-11
1.06997e-10
1.23626e-10
1.37753e-10
1.48455e-10
1.54637e-10
1.55572e-10
1.5123e-10
1.41956e-10
1.28474e-10
1.11319e-10
9.19487e-11
7.07059e-11
4.92405e-11
2.99921e-11
1.55648e-11
7.26395e-12
3.3067e-12
1.56767e-12
8.20772e-13
5.45724e-13
5.60827e-13
8.48179e-13
1.52521e-12
2.85946e-12
5.33583e-12
9.85456e-12
1.81232e-11
3.28886e-11
5.85861e-11
1.03377e-10
1.80826e-10
3.13922e-10
5.41451e-10
9.29949e-10
1.59766e-09
2.75675e-09
4.79892e-09
8.46816e-09
1.52211e-08
2.78475e-08
5.22406e-08
1.00781e-07
2.03012e-07
4.16311e-07
8.78489e-07
1.86235e-06
3.59675e-06
4.9982e-06
5.26742e-06
4.75783e-06
3.93572e-06
3.08847e-06
2.35644e-06
1.71867e-06
1.21223e-06
8.26243e-07
5.45027e-07
3.49031e-07
2.17485e-07
1.32371e-07
7.89479e-08
4.62474e-08
2.66609e-08
1.51515e-08
8.50013e-09
4.71319e-09
2.58608e-09
1.40407e-09
7.55637e-10
4.02841e-10
2.13077e-10
1.11902e-10
5.84043e-11
3.0283e-11
1.56043e-11
7.98728e-12
4.05261e-12
2.02791e-12
9.89315e-13
4.57851e-13
1.86188e-13
4.30261e-14
4.74114e-14
1.80743e-13
3.77052e-13
6.73242e-13
1.11772e-12
1.77938e-12
2.75476e-12
4.1748e-12
6.20888e-12
9.06318e-12
1.29747e-11
1.82119e-11
2.50748e-11
3.38672e-11
4.48291e-11
5.79897e-11
7.32516e-11
9.00941e-11
1.06919e-10
1.23621e-10
1.37913e-10
1.48811e-10
1.55207e-10
1.56412e-10
1.52239e-10
1.43087e-10
1.29686e-10
1.1254e-10
9.31633e-11
7.18282e-11
5.01922e-11
3.0719e-11
1.60117e-11
7.48468e-12
3.40614e-12
1.61433e-12
8.46357e-13
5.65142e-13
5.85573e-13
8.91107e-13
1.60776e-12
3.01642e-12
5.62923e-12
1.03963e-11
1.91129e-11
3.46623e-11
6.16383e-11
1.08693e-10
1.91049e-10
3.31184e-10
5.7119e-10
9.81541e-10
1.68471e-09
2.90708e-09
5.06324e-09
8.97085e-09
1.61041e-08
2.95289e-08
5.555e-08
1.07583e-07
2.15032e-07
4.43173e-07
9.38023e-07
1.98e-06
3.74728e-06
5.06508e-06
5.25749e-06
4.70974e-06
3.87875e-06
3.0353e-06
2.31338e-06
1.68505e-06
1.18741e-06
8.08642e-07
5.33181e-07
3.41463e-07
2.12845e-07
1.29633e-07
7.73838e-08
4.53814e-08
2.61901e-08
1.49e-08
8.36712e-09
4.64272e-09
2.54791e-09
1.38414e-09
7.45514e-10
3.97778e-10
2.10583e-10
1.10687e-10
5.78228e-11
3.00078e-11
1.54789e-11
7.9288e-12
4.02488e-12
2.01468e-12
9.83065e-13
4.55017e-13
1.85049e-13
4.27645e-14
4.721e-14
1.79974e-13
3.75444e-13
6.70361e-13
1.11293e-12
1.77174e-12
2.74297e-12
4.15705e-12
6.18279e-12
9.02557e-12
1.29216e-11
1.81387e-11
2.49777e-11
3.37443e-11
4.46825e-11
5.78293e-11
7.30947e-11
8.99692e-11
1.06858e-10
1.23621e-10
1.38056e-10
1.49143e-10
1.55703e-10
1.5708e-10
1.53055e-10
1.44054e-10
1.30746e-10
1.13646e-10
9.42125e-11
7.27613e-11
5.09872e-11
3.13214e-11
1.63834e-11
7.66852e-12
3.48885e-12
1.65452e-12
8.6897e-13
5.83741e-13
6.09032e-13
9.3098e-13
1.68096e-12
3.15503e-12
5.88873e-12
1.08804e-11
2.0013e-11
3.63133e-11
6.45748e-11
1.13836e-10
1.99647e-10
3.45773e-10
5.9549e-10
1.03014e-09
1.76437e-09
3.04255e-09
5.29819e-09
9.45934e-09
1.6958e-08
3.11313e-08
5.86691e-08
1.13768e-07
2.27615e-07
4.70266e-07
9.95377e-07
2.09692e-06
3.89295e-06
5.1259e-06
5.24602e-06
4.65961e-06
3.82404e-06
2.98737e-06
2.27505e-06
1.65555e-06
1.16471e-06
7.92123e-07
5.21875e-07
3.34148e-07
2.08309e-07
1.26924e-07
7.58159e-08
4.45005e-08
2.5704e-08
1.46368e-08
8.22689e-09
4.56903e-09
2.50966e-09
1.36462e-09
7.35016e-10
3.92483e-10
2.0792e-10
1.09351e-10
5.71564e-11
2.9672e-11
1.53078e-11
7.84285e-12
3.98222e-12
1.99382e-12
9.73112e-13
4.50502e-13
1.83241e-13
4.23513e-14
4.70236e-14
1.79263e-13
3.73959e-13
6.67707e-13
1.10852e-12
1.76474e-12
2.73221e-12
4.14093e-12
6.15922e-12
8.99182e-12
1.28742e-11
1.80739e-11
2.48924e-11
3.36371e-11
4.45557e-11
5.7692e-11
7.29625e-11
8.98671e-11
1.06815e-10
1.23629e-10
1.38186e-10
1.49414e-10
1.56148e-10
1.57713e-10
1.53839e-10
1.44911e-10
1.31638e-10
1.14531e-10
9.5056e-11
7.35381e-11
5.16626e-11
3.18343e-11
1.66949e-11
7.82099e-12
3.55889e-12
1.68805e-12
8.88102e-13
5.9993e-13
6.31166e-13
9.70449e-13
1.75655e-12
3.29881e-12
6.15579e-12
1.13723e-11
2.09118e-11
3.79172e-11
6.74027e-11
1.18818e-10
2.08099e-10
3.60472e-10
6.20676e-10
1.07258e-09
1.83903e-09
3.17314e-09
5.52997e-09
9.85951e-09
1.7713e-08
3.25789e-08
6.14792e-08
1.19406e-07
2.39276e-07
4.95055e-07
1.04974e-06
2.20832e-06
4.02635e-06
5.18089e-06
5.23236e-06
4.61313e-06
3.7692e-06
2.93491e-06
2.23089e-06
1.62196e-06
1.14042e-06
7.75422e-07
5.10856e-07
3.27183e-07
2.04046e-07
1.24394e-07
7.43518e-08
4.36725e-08
2.52438e-08
1.43851e-08
8.09116e-09
4.49674e-09
2.47157e-09
1.3449e-09
7.24793e-10
3.87222e-10
2.05228e-10
1.0798e-10
5.64642e-11
2.93212e-11
1.51305e-11
7.75355e-12
3.93752e-12
1.97171e-12
9.62427e-13
4.45593e-13
1.81256e-13
4.18934e-14
4.68565e-14
1.78626e-13
3.7263e-13
6.65334e-13
1.10459e-12
1.75851e-12
2.72265e-12
4.12667e-12
6.13844e-12
8.96223e-12
1.2833e-11
1.80179e-11
2.48191e-11
3.35457e-11
4.4448e-11
5.75765e-11
7.28529e-11
8.97867e-11
1.06787e-10
1.2365e-10
1.3832e-10
1.49689e-10
1.56563e-10
1.58235e-10
1.54464e-10
1.45624e-10
1.32399e-10
1.15275e-10
9.57743e-11
7.42101e-11
5.22169e-11
3.2243e-11
1.69428e-11
7.94567e-12
3.61548e-12
1.71544e-12
9.04173e-13
6.14213e-13
6.5138e-13
1.00612e-12
1.82445e-12
3.42851e-12
6.3981e-12
1.18225e-11
2.17377e-11
3.9426e-11
7.01185e-11
1.23601e-10
2.16107e-10
3.74564e-10
6.4536e-10
1.10828e-09
1.90212e-09
3.28263e-09
5.72002e-09
1.02199e-08
1.83575e-08
3.37819e-08
6.38267e-08
1.24166e-07
2.49293e-07
5.16187e-07
1.09339e-06
2.2892e-06
4.15372e-06
5.22487e-06
5.21766e-06
4.57324e-06
3.7248e-06
2.89692e-06
2.19836e-06
1.59599e-06
1.12115e-06
7.61876e-07
5.01748e-07
3.21324e-07
2.004e-07
1.22194e-07
7.30571e-08
4.29296e-08
2.48251e-08
1.41531e-08
7.96448e-09
4.42847e-09
2.4352e-09
1.32585e-09
7.14838e-10
3.82059e-10
2.02568e-10
1.06617e-10
5.57673e-11
2.89666e-11
1.49509e-11
7.66299e-12
3.89217e-12
1.94925e-12
9.51565e-13
4.40597e-13
1.79232e-13
4.14268e-14
4.67106e-14
1.7807e-13
3.71471e-13
6.63267e-13
1.10117e-12
1.7531e-12
2.71436e-12
4.11432e-12
6.12053e-12
8.93688e-12
1.2798e-11
1.7971e-11
2.47586e-11
3.34713e-11
4.43592e-11
5.74835e-11
7.27693e-11
8.97311e-11
1.06777e-10
1.23681e-10
1.38443e-10
1.49928e-10
1.56921e-10
1.58719e-10
1.55027e-10
1.46241e-10
1.33038e-10
1.15914e-10
9.63892e-11
7.47629e-11
5.2675e-11
3.25817e-11
1.71523e-11
8.04801e-12
3.66182e-12
1.73791e-12
9.1736e-13
6.26135e-13
6.68525e-13
1.03682e-12
1.88305e-12
3.54047e-12
6.60738e-12
1.22123e-11
2.24553e-11
4.07286e-11
7.23961e-11
1.27588e-10
2.22891e-10
3.86326e-10
6.65503e-10
1.14249e-09
1.96115e-09
3.38634e-09
5.90671e-09
1.05646e-08
1.89873e-08
3.49672e-08
6.61199e-08
1.28763e-07
2.58818e-07
5.36849e-07
1.13867e-06
2.3788e-06
4.24167e-06
5.25403e-06
5.20167e-06
4.53639e-06
3.68475e-06
2.86388e-06
2.17185e-06
1.57486e-06
1.10533e-06
7.50653e-07
4.94114e-07
3.16357e-07
1.97274e-07
1.2029e-07
7.19182e-08
4.22703e-08
2.44503e-08
1.39435e-08
7.84909e-09
4.36577e-09
2.40153e-09
1.30803e-09
7.0546e-10
3.77167e-10
2.00036e-10
1.05319e-10
5.50826e-11
2.86189e-11
1.47749e-11
7.57437e-12
3.84782e-12
1.92731e-12
9.4095e-13
4.35714e-13
1.77254e-13
4.09707e-14
4.6586e-14
1.77595e-13
3.70482e-13
6.61505e-13
1.09825e-12
1.7485e-12
2.70733e-12
4.1039e-12
6.10547e-12
8.91567e-12
1.27689e-11
1.79323e-11
2.47091e-11
3.34114e-11
4.42882e-11
5.74119e-11
7.27068e-11
8.96918e-11
1.06779e-10
1.23719e-10
1.38564e-10
1.50141e-10
1.57229e-10
1.59117e-10
1.55501e-10
1.46763e-10
1.33583e-10
1.16448e-10
9.68899e-11
7.5213e-11
5.30474e-11
3.28528e-11
1.73128e-11
8.12699e-12
3.69784e-12
1.75554e-12
9.27937e-13
6.36098e-13
6.82801e-13
1.06209e-12
1.9304e-12
3.62859e-12
6.76662e-12
1.2585e-11
2.31005e-11
4.18685e-11
7.43865e-11
1.31034e-10
2.28856e-10
3.96656e-10
6.83425e-10
1.17307e-09
2.01393e-09
3.47785e-09
6.06664e-09
1.08561e-08
1.95321e-08
3.60135e-08
6.81889e-08
1.32968e-07
2.67625e-07
5.55908e-07
1.17928e-06
2.45714e-06
4.31086e-06
5.27424e-06
5.18636e-06
4.50561e-06
3.65169e-06
2.83854e-06
2.15126e-06
1.5592e-06
1.09289e-06
7.41501e-07
4.87746e-07
3.12149e-07
1.94592e-07
1.18639e-07
7.09277e-08
4.16918e-08
2.41188e-08
1.37569e-08
7.74562e-09
4.30919e-09
2.37098e-09
1.29174e-09
6.96844e-10
3.72651e-10
1.97688e-10
1.04109e-10
5.44515e-11
2.82968e-11
1.46113e-11
7.4917e-12
3.80634e-12
1.90674e-12
9.3099e-13
4.31128e-13
1.75394e-13
4.05418e-14
4.64815e-14
1.77198e-13
3.69654e-13
6.60031e-13
1.09582e-12
1.74466e-12
2.70149e-12
4.09525e-12
6.09301e-12
8.89818e-12
1.2745e-11
1.79007e-11
2.46692e-11
3.33638e-11
4.42334e-11
5.73574e-11
7.26591e-11
8.96646e-11
1.06786e-10
1.23757e-10
1.3867e-10
1.50326e-10
1.57502e-10
1.59477e-10
1.55935e-10
1.47243e-10
1.34076e-10
1.16927e-10
9.73287e-11
7.55961e-11
5.33551e-11
3.3072e-11
1.74414e-11
8.18976e-12
3.72658e-12
1.76969e-12
9.36815e-13
6.44721e-13
6.9565e-13
1.08529e-12
1.97454e-12
3.71241e-12
6.9237e-12
1.28796e-11
2.36319e-11
4.28154e-11
7.60398e-11
1.33889e-10
2.33677e-10
4.04606e-10
6.96209e-10
1.2036e-09
2.06272e-09
3.56133e-09
6.21552e-09
1.11243e-08
2.00265e-08
3.69471e-08
7.0021e-08
1.36665e-07
2.75352e-07
5.72277e-07
1.21436e-06
2.52427e-06
4.36683e-06
5.2886e-06
5.17181e-06
4.47871e-06
3.62284e-06
2.81612e-06
2.13166e-06
1.54357e-06
1.0814e-06
7.33342e-07
4.8217e-07
3.08492e-07
1.92267e-07
1.17205e-07
7.00672e-08
4.11875e-08
2.38286e-08
1.35928e-08
7.65425e-09
4.25901e-09
2.34377e-09
1.27717e-09
6.89109e-10
3.68581e-10
1.95564e-10
1.03011e-10
5.38852e-11
2.80067e-11
1.44635e-11
7.41678e-12
3.76867e-12
1.88804e-12
9.21916e-13
4.26945e-13
1.73697e-13
4.01499e-14
4.63954e-14
1.7687e-13
3.68971e-13
6.58817e-13
1.09382e-12
1.74151e-12
2.69669e-12
4.08814e-12
6.08277e-12
8.88381e-12
1.27253e-11
1.78746e-11
2.4636e-11
3.3324e-11
4.41866e-11
5.73087e-11
7.26181e-11
8.96436e-11
1.06798e-10
1.23794e-10
1.38763e-10
1.50488e-10
1.57733e-10
1.59774e-10
1.56276e-10
1.47619e-10
1.34459e-10
1.173e-10
9.7674e-11
7.59025e-11
5.36019e-11
3.32471e-11
1.75439e-11
8.2387e-12
3.74888e-12
1.78084e-12
9.43923e-13
6.51963e-13
7.06816e-13
1.10579e-12
2.01401e-12
3.78844e-12
7.06741e-12
1.31479e-11
2.41222e-11
4.3699e-11
7.75995e-11
1.36623e-10
2.38436e-10
4.12915e-10
7.1077e-10
1.22442e-09
2.10102e-09
3.62947e-09
6.33624e-09
1.13432e-08
2.04323e-08
3.77226e-08
7.15381e-08
1.39762e-07
2.81831e-07
5.86279e-07
1.24444e-06
2.58129e-06
4.41269e-06
5.30003e-06
5.15968e-06
4.45689e-06
3.59983e-06
2.79831e-06
2.11652e-06
1.53146e-06
1.07219e-06
7.26657e-07
4.77534e-07
3.05423e-07
1.90302e-07
1.15988e-07
6.93332e-08
4.07555e-08
2.3579e-08
1.34511e-08
7.57507e-09
4.21538e-09
2.32002e-09
1.26441e-09
6.82317e-10
3.64998e-10
1.9369e-10
1.02039e-10
5.33838e-11
2.77495e-11
1.43323e-11
7.35027e-12
3.73521e-12
1.8714e-12
9.13843e-13
4.23221e-13
1.72185e-13
3.98009e-14
4.63258e-14
1.76605e-13
3.6842e-13
6.57838e-13
1.0922e-12
1.73897e-12
2.69283e-12
4.08244e-12
6.07457e-12
8.87228e-12
1.27095e-11
1.78536e-11
2.46093e-11
3.32919e-11
4.41484e-11
5.72723e-11
7.25902e-11
8.96332e-11
1.06814e-10
1.23834e-10
1.38854e-10
1.50634e-10
1.57939e-10
1.6003e-10
1.56571e-10
1.47929e-10
1.34772e-10
1.17598e-10
9.79504e-11
7.61437e-11
5.37938e-11
3.33817e-11
1.76215e-11
8.27664e-12
3.76625e-12
1.78958e-12
9.49612e-13
6.58003e-13
7.16396e-13
1.12357e-12
2.04825e-12
3.85324e-12
7.18795e-12
1.33721e-11
2.45344e-11
4.44488e-11
7.89382e-11
1.39004e-10
2.42643e-10
4.20313e-10
7.23771e-10
1.2421e-09
2.13338e-09
3.68713e-09
6.43973e-09
1.15308e-08
2.07805e-08
3.83846e-08
7.28417e-08
1.42391e-07
2.87375e-07
5.98264e-07
1.26982e-06
2.62882e-06
4.44957e-06
5.30861e-06
5.14942e-06
4.43876e-06
3.58098e-06
2.78369e-06
2.1043e-06
1.52157e-06
1.06459e-06
7.21111e-07
4.73676e-07
3.02861e-07
1.88657e-07
1.14966e-07
6.87152e-08
4.03907e-08
2.33677e-08
1.33309e-08
7.50769e-09
4.17815e-09
2.29972e-09
1.25348e-09
6.76483e-10
3.61915e-10
1.92074e-10
1.012e-10
5.29504e-11
2.7527e-11
1.42187e-11
7.29263e-12
3.70618e-12
1.85697e-12
9.06838e-13
4.19989e-13
1.70873e-13
3.94979e-14
4.62712e-14
1.76397e-13
3.67988e-13
6.5707e-13
1.09094e-12
1.73699e-12
2.68982e-12
4.078e-12
6.0682e-12
8.86338e-12
1.26974e-11
1.78376e-11
2.45894e-11
3.32686e-11
4.41217e-11
5.72476e-11
7.2572e-11
8.96296e-11
1.06833e-10
1.23871e-10
1.38927e-10
1.50751e-10
1.58099e-10
1.60232e-10
1.56803e-10
1.48175e-10
1.35021e-10
1.17838e-10
9.81704e-11
7.63347e-11
5.39438e-11
3.34857e-11
1.76815e-11
8.30544e-12
3.77953e-12
1.79644e-12
9.54274e-13
6.63142e-13
7.24648e-13
1.13885e-12
2.07748e-12
3.90881e-12
7.29151e-12
1.35632e-11
2.48818e-11
4.50712e-11
8.00273e-11
1.4089e-10
2.45904e-10
4.25905e-10
7.33338e-10
1.2581e-09
2.16105e-09
3.73532e-09
6.52516e-09
1.16855e-08
2.10686e-08
3.89357e-08
7.39232e-08
1.44593e-07
2.91984e-07
6.08126e-07
1.29084e-06
2.66798e-06
4.47899e-06
5.31492e-06
5.14046e-06
4.42364e-06
3.56508e-06
2.77153e-06
2.09393e-06
1.51326e-06
1.05826e-06
7.16515e-07
4.70495e-07
3.00757e-07
1.87307e-07
1.14127e-07
6.82067e-08
4.00898e-08
2.3193e-08
1.32312e-08
7.45175e-09
4.14718e-09
2.2828e-09
1.24435e-09
6.71606e-10
3.59335e-10
1.90721e-10
1.00496e-10
5.25865e-11
2.734e-11
1.41232e-11
7.24416e-12
3.68177e-12
1.84483e-12
9.00942e-13
4.17269e-13
1.69768e-13
3.92427e-14
4.623e-14
1.7624e-13
3.67662e-13
6.56493e-13
1.08999e-12
1.7355e-12
2.68757e-12
4.07471e-12
6.06353e-12
8.85693e-12
1.26887e-11
1.78264e-11
2.45756e-11
3.32526e-11
4.4103e-11
5.72303e-11
7.25603e-11
8.96301e-11
1.06852e-10
1.23906e-10
1.38994e-10
1.50854e-10
1.58237e-10
1.604e-10
1.56992e-10
1.48378e-10
1.35226e-10
1.18032e-10
9.83451e-11
7.64843e-11
5.40602e-11
3.35645e-11
1.77257e-11
8.32653e-12
3.78935e-12
1.80151e-12
9.57786e-13
6.67123e-13
7.31151e-13
1.15099e-12
2.10087e-12
3.95349e-12
7.37561e-12
1.37213e-11
2.51727e-11
4.55985e-11
8.096e-11
1.42521e-10
2.487e-10
4.30619e-10
7.41147e-10
1.27146e-09
2.18386e-09
3.77461e-09
6.59302e-09
1.18036e-08
2.12913e-08
3.93626e-08
7.4764e-08
1.46305e-07
2.95576e-07
6.15834e-07
1.30729e-06
2.69864e-06
4.50144e-06
5.31937e-06
5.13317e-06
4.41159e-06
3.55247e-06
2.76188e-06
2.08575e-06
1.50681e-06
1.05338e-06
7.12967e-07
4.68029e-07
2.99115e-07
1.86248e-07
1.13465e-07
6.78036e-08
3.98505e-08
2.30537e-08
1.31516e-08
7.40693e-09
4.12234e-09
2.2692e-09
1.23701e-09
6.67682e-10
3.57257e-10
1.8963e-10
9.99288e-11
5.22933e-11
2.71894e-11
1.40463e-11
7.20508e-12
3.66209e-12
1.83504e-12
8.96188e-13
4.15075e-13
1.68877e-13
3.90369e-14
4.62009e-14
1.7613e-13
3.67433e-13
6.56087e-13
1.08933e-12
1.73447e-12
2.68602e-12
4.07246e-12
6.06034e-12
8.85249e-12
1.26827e-11
1.78184e-11
2.45653e-11
3.32405e-11
4.40891e-11
5.72181e-11
7.25529e-11
8.96318e-11
1.06867e-10
1.23932e-10
1.39044e-10
1.50928e-10
1.58336e-10
1.60521e-10
1.57129e-10
1.48522e-10
1.3537e-10
1.18168e-10
9.84677e-11
7.65892e-11
5.41411e-11
3.36192e-11
1.77561e-11
8.34106e-12
3.79611e-12
1.80504e-12
9.60267e-13
6.69982e-13
7.35854e-13
1.15978e-12
2.11779e-12
3.98573e-12
7.43583e-12
1.38336e-11
2.53804e-11
4.59794e-11
8.16468e-11
1.43757e-10
2.50927e-10
4.34646e-10
7.48475e-10
1.28461e-09
2.20792e-09
3.81936e-09
6.67801e-09
1.18556e-08
2.14415e-08
3.96731e-08
7.53866e-08
1.47577e-07
2.98261e-07
6.21647e-07
1.3197e-06
2.72154e-06
4.51786e-06
5.3224e-06
5.12754e-06
4.40267e-06
3.54327e-06
2.75484e-06
2.0798e-06
1.50205e-06
1.04972e-06
7.10303e-07
4.6618e-07
2.97891e-07
1.85463e-07
1.12979e-07
6.75109e-08
3.96776e-08
2.29532e-08
1.30941e-08
7.37452e-09
4.10432e-09
2.25931e-09
1.23165e-09
6.64801e-10
3.55724e-10
1.88822e-10
9.95059e-11
5.20737e-11
2.70761e-11
1.39883e-11
7.17562e-12
3.64724e-12
1.82766e-12
8.92602e-13
4.13421e-13
1.68206e-13
3.88817e-14
4.61823e-14
1.76059e-13
3.67287e-13
6.55827e-13
1.0889e-12
1.7338e-12
2.68501e-12
4.07096e-12
6.05816e-12
8.84943e-12
1.26785e-11
1.78129e-11
2.45586e-11
3.32328e-11
4.40804e-11
5.72105e-11
7.25485e-11
8.96336e-11
1.06878e-10
1.2395e-10
1.39076e-10
1.50977e-10
1.58401e-10
1.60601e-10
1.57218e-10
1.48616e-10
1.35464e-10
1.18257e-10
9.85475e-11
7.66564e-11
5.41927e-11
3.3654e-11
1.77755e-11
8.35025e-12
3.80038e-12
1.80728e-12
9.61858e-13
6.71841e-13
7.38931e-13
1.16553e-12
2.12885e-12
4.00674e-12
7.47497e-12
1.39058e-11
2.55113e-11
4.62129e-11
8.20538e-11
1.4446e-10
2.52125e-10
4.36668e-10
7.51855e-10
1.29065e-09
2.21893e-09
3.8393e-09
6.71499e-09
1.19175e-08
2.15517e-08
3.98843e-08
7.58038e-08
1.48428e-07
3.00054e-07
6.25515e-07
1.32793e-06
2.73667e-06
4.52856e-06
5.3243e-06
5.12382e-06
4.39672e-06
3.53712e-06
2.75015e-06
2.07582e-06
1.49887e-06
1.0473e-06
7.08531e-07
4.64938e-07
2.97063e-07
1.84935e-07
1.12652e-07
6.73124e-08
3.95603e-08
2.28853e-08
1.30555e-08
7.35289e-09
4.09236e-09
2.25278e-09
1.22813e-09
6.6292e-10
3.54728e-10
1.88298e-10
9.92332e-11
5.19322e-11
2.7003e-11
1.39507e-11
7.15639e-12
3.6375e-12
1.82279e-12
8.90227e-13
4.12322e-13
1.67759e-13
3.87784e-14
4.61731e-14
1.76024e-13
3.67213e-13
6.55698e-13
1.08869e-12
1.73346e-12
2.6845e-12
4.07022e-12
6.05712e-12
8.84798e-12
1.26765e-11
1.78103e-11
2.45554e-11
3.32292e-11
4.40763e-11
5.7207e-11
7.25467e-11
8.96349e-11
1.06884e-10
1.2396e-10
1.39093e-10
1.51003e-10
1.58435e-10
1.60642e-10
1.57263e-10
1.48664e-10
1.35511e-10
1.18301e-10
9.85874e-11
7.66902e-11
5.42185e-11
3.36712e-11
1.77852e-11
8.35483e-12
3.8025e-12
1.80837e-12
9.62606e-13
6.7268e-13
7.40287e-13
1.16804e-12
2.1336e-12
4.01563e-12
7.49111e-12
1.39348e-11
2.5562e-11
4.62992e-11
8.21942e-11
1.44679e-10
2.5245e-10
4.37115e-10
7.52398e-10
1.29123e-09
2.21913e-09
3.83886e-09
6.7132e-09
1.19668e-08
2.16157e-08
3.9993e-08
7.60134e-08
1.48856e-07
3.00959e-07
6.27473e-07
1.3321e-06
2.74427e-06
4.53375e-06
5.32502e-06
5.12179e-06
4.39365e-06
3.53402e-06
2.74779e-06
2.07385e-06
1.49731e-06
1.04611e-06
7.07657e-07
4.64313e-07
2.96633e-07
1.84649e-07
1.1247e-07
6.72009e-08
3.94941e-08
2.28469e-08
1.30336e-08
7.34063e-09
4.0856e-09
2.24911e-09
1.22615e-09
6.61869e-10
3.54175e-10
1.8801e-10
9.9084e-11
5.18555e-11
2.69639e-11
1.39309e-11
7.1464e-12
3.63249e-12
1.82031e-12
8.89025e-13
4.11768e-13
1.67534e-13
3.87265e-14
4.6173e-14
1.76024e-13
3.67213e-13
6.55696e-13
1.08869e-12
1.73346e-12
2.68449e-12
4.07021e-12
6.0571e-12
8.84796e-12
1.26765e-11
1.78103e-11
2.45554e-11
3.32292e-11
4.40764e-11
5.72072e-11
7.2547e-11
8.96353e-11
1.06885e-10
1.23961e-10
1.39094e-10
1.51004e-10
1.58436e-10
1.60643e-10
1.57265e-10
1.48665e-10
1.35512e-10
1.18302e-10
9.8588e-11
7.66901e-11
5.42184e-11
3.36711e-11
1.77851e-11
8.3548e-12
3.80246e-12
1.80833e-12
9.62518e-13
6.72486e-13
7.39852e-13
1.16706e-12
2.13142e-12
4.01081e-12
7.48065e-12
1.3912e-11
2.55128e-11
4.6194e-11
8.19736e-11
1.44219e-10
2.51499e-10
4.35162e-10
7.48418e-10
1.29403e-09
2.21806e-09
3.83193e-09
6.69329e-09
1.19837e-08
2.16229e-08
3.99971e-08
7.60181e-08
1.48865e-07
3.00979e-07
6.27514e-07
1.33217e-06
2.74433e-06
4.53353e-06
5.32464e-06
5.12143e-06
4.39338e-06
3.53386e-06
2.74769e-06
2.07379e-06
1.49727e-06
1.04608e-06
7.07632e-07
4.64291e-07
2.96615e-07
1.84634e-07
1.12459e-07
6.7194e-08
3.94898e-08
2.28442e-08
1.3032e-08
7.33977e-09
4.08512e-09
2.24885e-09
1.22602e-09
6.61799e-10
3.54139e-10
1.87992e-10
9.90755e-11
5.18515e-11
2.69621e-11
1.393e-11
7.14603e-12
3.63233e-12
1.82024e-12
8.88995e-13
4.11756e-13
1.67529e-13
3.87255e-14
4.61821e-14
1.76058e-13
3.67284e-13
6.55822e-13
1.08889e-12
1.73378e-12
2.68498e-12
4.07092e-12
6.05811e-12
8.84936e-12
1.26784e-11
1.78128e-11
2.45585e-11
3.32328e-11
4.40805e-11
5.72109e-11
7.25493e-11
8.96348e-11
1.0688e-10
1.23953e-10
1.39079e-10
1.50981e-10
1.58405e-10
1.60605e-10
1.57221e-10
1.48619e-10
1.35466e-10
1.18258e-10
9.85483e-11
7.66568e-11
5.41927e-11
3.36539e-11
1.77755e-11
8.35025e-12
3.80035e-12
1.80723e-12
9.61739e-13
6.71586e-13
7.3839e-13
1.1644e-12
2.12647e-12
4.00182e-12
7.46483e-12
1.38848e-11
2.54682e-11
4.6125e-11
8.18771e-11
1.44107e-10
2.51424e-10
4.3529e-10
7.49167e-10
1.28623e-09
2.20944e-09
3.81979e-09
6.67487e-09
1.19562e-08
2.15702e-08
3.98941e-08
7.58138e-08
1.48449e-07
3.00103e-07
6.25627e-07
1.32814e-06
2.73686e-06
4.52806e-06
5.32336e-06
5.1229e-06
4.39603e-06
3.5367e-06
2.74987e-06
2.07566e-06
1.49876e-06
1.04723e-06
7.08476e-07
4.64883e-07
2.97008e-07
1.84888e-07
1.12617e-07
6.72896e-08
3.95463e-08
2.2877e-08
1.30507e-08
7.35022e-09
4.09091e-09
2.25201e-09
1.22772e-09
6.62714e-10
3.54624e-10
1.88247e-10
9.92088e-11
5.19207e-11
2.69977e-11
1.39483e-11
7.15537e-12
3.63705e-12
1.8226e-12
8.90147e-13
4.12289e-13
1.67747e-13
3.87757e-14
4.62009e-14
1.7613e-13
3.67433e-13
6.56086e-13
1.08933e-12
1.73446e-12
2.686e-12
4.07241e-12
6.06024e-12
8.85233e-12
1.26824e-11
1.78181e-11
2.45651e-11
3.32404e-11
4.40893e-11
5.72186e-11
7.2554e-11
8.96335e-11
1.0687e-10
1.23935e-10
1.39047e-10
1.50932e-10
1.5834e-10
1.60525e-10
1.57132e-10
1.48525e-10
1.35371e-10
1.18169e-10
9.8468e-11
7.65889e-11
5.41405e-11
3.36186e-11
1.77558e-11
8.34087e-12
3.79599e-12
1.80494e-12
9.60115e-13
6.69688e-13
7.35238e-13
1.15847e-12
2.11498e-12
3.97974e-12
7.42313e-12
1.38063e-11
2.53219e-11
4.58554e-11
8.13894e-11
1.43229e-10
2.4985e-10
4.32474e-10
7.44147e-10
1.28188e-09
2.19954e-09
3.80149e-09
6.64197e-09
1.18966e-08
2.14598e-08
3.9683e-08
7.53981e-08
1.47603e-07
2.98325e-07
6.21792e-07
1.31999e-06
2.72185e-06
4.51721e-06
5.32113e-06
5.12626e-06
4.40169e-06
3.54261e-06
2.75441e-06
2.07953e-06
1.50189e-06
1.04965e-06
7.10232e-07
4.66105e-07
2.97833e-07
1.85423e-07
1.12952e-07
6.74929e-08
3.96666e-08
2.29469e-08
1.30906e-08
7.37261e-09
4.1033e-09
2.25878e-09
1.23138e-09
6.64667e-10
3.55658e-10
1.8879e-10
9.94913e-11
5.20668e-11
2.70729e-11
1.39867e-11
7.17487e-12
3.64688e-12
1.82748e-12
8.9252e-13
4.13384e-13
1.68191e-13
3.88785e-14
4.62303e-14
1.76241e-13
3.67665e-13
6.56498e-13
1.09e-12
1.73552e-12
2.6876e-12
4.07476e-12
6.06359e-12
8.85699e-12
1.26888e-11
1.78264e-11
2.45754e-11
3.32524e-11
4.4103e-11
5.72308e-11
7.25617e-11
8.96322e-11
1.06855e-10
1.23909e-10
1.38998e-10
1.50858e-10
1.58241e-10
1.60404e-10
1.56996e-10
1.48381e-10
1.35228e-10
1.18032e-10
9.83448e-11
7.64833e-11
5.40587e-11
3.35632e-11
1.77249e-11
8.32611e-12
3.78914e-12
1.80138e-12
9.57643e-13
6.6689e-13
7.30698e-13
1.15006e-12
2.0989e-12
3.94925e-12
7.36652e-12
1.37012e-11
2.51291e-11
4.55045e-11
8.07606e-11
1.42097e-10
2.47811e-10
4.28778e-10
7.3734e-10
1.27484e-09
2.18557e-09
3.77561e-09
6.59389e-09
1.18044e-08
2.12927e-08
3.93656e-08
7.47714e-08
1.46324e-07
2.95626e-07
6.15982e-07
1.30759e-06
2.69899e-06
4.50067e-06
5.31784e-06
5.1317e-06
4.41055e-06
3.55192e-06
2.76157e-06
2.08563e-06
1.50675e-06
1.05327e-06
7.12854e-07
4.67955e-07
2.9907e-07
1.86223e-07
1.13452e-07
6.77969e-08
3.9847e-08
2.30518e-08
1.31505e-08
7.40633e-09
4.122e-09
2.26901e-09
1.2369e-09
6.67622e-10
3.57223e-10
1.89612e-10
9.99186e-11
5.22878e-11
2.71864e-11
1.40447e-11
7.20431e-12
3.6617e-12
1.83485e-12
8.96099e-13
4.15035e-13
1.68861e-13
3.90333e-14
4.62715e-14
1.76398e-13
3.67991e-13
6.57076e-13
1.09095e-12
1.73701e-12
2.68985e-12
4.07807e-12
6.06833e-12
8.8636e-12
1.26977e-11
1.78382e-11
2.45902e-11
3.32696e-11
4.41228e-11
5.72489e-11
7.2574e-11
8.96325e-11
1.06837e-10
1.23875e-10
1.38932e-10
1.50757e-10
1.58105e-10
1.60238e-10
1.56807e-10
1.48179e-10
1.35025e-10
1.17841e-10
9.81722e-11
7.63347e-11
5.39435e-11
3.34848e-11
1.76806e-11
8.30486e-12
3.77926e-12
1.79628e-12
9.54178e-13
6.63083e-13
7.2465e-13
1.13903e-12
2.0782e-12
3.911e-12
7.29711e-12
1.35767e-11
2.49114e-11
4.51336e-11
8.01528e-11
1.41138e-10
2.46364e-10
4.26723e-10
7.34726e-10
1.26196e-09
2.16914e-09
3.75245e-09
6.56169e-09
1.16503e-08
2.10555e-08
3.89338e-08
7.39326e-08
1.44625e-07
2.92076e-07
6.08339e-07
1.2913e-06
2.66871e-06
4.47851e-06
5.31333e-06
5.13848e-06