/*--------------------------------*- C++ -*----------------------------------*\
  =========                 |
  \\      /  F ield         | OpenFOAM: The Open Source CFD Toolbox
   \\    /   O peration     | Website:  https://openfoam.org
    \\  /    A nd           | Version:  10
     \\/     M anipulation  |
\*---------------------------------------------------------------------------*/
FoamFile
{
    format      ascii;
    class       volScalarField;
    location    "1";
    object      HO2;
}
// * * * * * * * * * * * * * * * * * * * * * * * * * * * * * * * * * * * * * //

dimensions      [0 0 0 0 0 0 0];

internalField   nonuniform List<scalar> 
4000
(
3.28785e-11
1.25347e-10
2.61547e-10
4.67253e-10
7.76636e-10
1.23912e-09
1.92575e-09
2.93666e-09
4.40974e-09
6.53035e-09
9.54632e-09
1.37993e-08
1.97736e-08
2.81563e-08
3.98962e-08
5.61662e-08
7.86067e-08
1.08853e-07
1.46478e-07
1.93973e-07
2.45917e-07
2.9866e-07
3.45932e-07
3.78238e-07
3.92952e-07
3.90764e-07
3.75527e-07
3.52008e-07
3.25217e-07
2.97614e-07
2.71242e-07
2.47037e-07
2.25276e-07
2.06114e-07
1.89509e-07
1.75485e-07
1.64237e-07
1.56021e-07
1.51591e-07
1.51747e-07
1.57572e-07
1.70218e-07
1.90591e-07
2.19435e-07
2.57936e-07
3.05744e-07
3.62273e-07
4.27983e-07
5.05731e-07
6.03205e-07
7.40558e-07
9.67334e-07
1.39943e-06
2.13524e-06
2.93472e-06
3.57107e-06
3.94434e-06
4.05497e-06
3.94875e-06
3.673e-06
3.26129e-06
2.73587e-06
2.10552e-06
1.41581e-06
7.8245e-07
3.42847e-07
1.24079e-07
3.78383e-08
9.35685e-09
1.99097e-09
3.84652e-10
6.19954e-11
8.67224e-12
1.06641e-12
1.16787e-13
1.17254e-14
1.2398e-15
2.45356e-16
6.90962e-17
2.73976e-17
1.58777e-17
1.15874e-17
9.05239e-18
6.97455e-18
5.14298e-18
3.61269e-18
2.42508e-18
1.56466e-18
9.76753e-19
5.93462e-19
3.51635e-19
2.04206e-19
1.16478e-19
6.52874e-20
3.59011e-20
1.92661e-20
9.96631e-21
4.82962e-21
2.02762e-21
4.76675e-22
3.27133e-11
1.24713e-10
2.60221e-10
4.64912e-10
7.72801e-10
1.23299e-09
1.91612e-09
2.92158e-09
4.3859e-09
6.4921e-09
9.48419e-09
1.36983e-08
1.96064e-08
2.78877e-08
3.94822e-08
5.55487e-08
7.76469e-08
1.07406e-07
1.44563e-07
1.91833e-07
2.43652e-07
2.96366e-07
3.44153e-07
3.77587e-07
3.93462e-07
3.92198e-07
3.77551e-07
3.5412e-07
3.27311e-07
2.99568e-07
2.73007e-07
2.4874e-07
2.26853e-07
2.07456e-07
1.90687e-07
1.76537e-07
1.65194e-07
1.56904e-07
1.5245e-07
1.52605e-07
1.58482e-07
1.71244e-07
1.91791e-07
2.20943e-07
2.59872e-07
3.08225e-07
3.65366e-07
4.31819e-07
5.10591e-07
6.09589e-07
7.49653e-07
9.81932e-07
1.42757e-06
2.17147e-06
2.96864e-06
3.59579e-06
3.96143e-06
4.06172e-06
3.94669e-06
3.66302e-06
3.23939e-06
2.70453e-06
2.065e-06
1.37071e-06
7.43224e-07
3.21947e-07
1.14994e-07
3.4594e-08
8.3829e-09
1.76072e-09
3.35802e-10
5.36741e-11
7.46173e-12
9.08423e-13
9.94048e-14
9.98689e-15
1.07637e-15
2.17851e-16
6.31863e-17
2.60753e-17
1.56112e-17
1.15893e-17
9.13511e-18
7.07913e-18
5.2523e-18
3.70633e-18
2.49604e-18
1.61317e-18
1.00701e-18
6.10425e-19
3.61999e-19
2.10083e-19
1.1967e-19
6.69642e-20
3.67549e-20
1.96873e-20
1.01665e-20
4.91936e-21
2.06307e-21
4.84679e-22
3.25592e-11
1.24132e-10
2.59033e-10
4.6284e-10
7.69459e-10
1.22788e-09
1.90815e-09
2.90876e-09
4.36468e-09
6.45607e-09
9.42137e-09
1.35854e-08
1.942e-08
2.75908e-08
3.90198e-08
5.48546e-08
7.66816e-08
1.05977e-07
1.42593e-07
1.89347e-07
2.40907e-07
2.93978e-07
3.42095e-07
3.77258e-07
3.94191e-07
3.93886e-07
3.79883e-07
3.56812e-07
3.30132e-07
3.02332e-07
2.75669e-07
2.5119e-07
2.29028e-07
2.09457e-07
1.92455e-07
1.78114e-07
1.66607e-07
1.58237e-07
1.53731e-07
1.53945e-07
1.59911e-07
1.72841e-07
1.93703e-07
2.23387e-07
2.63019e-07
3.12254e-07
3.70411e-07
4.38133e-07
5.18418e-07
6.1984e-07
7.64394e-07
1.0059e-06
1.47188e-06
2.22797e-06
3.02223e-06
3.63492e-06
3.98359e-06
4.06845e-06
3.94061e-06
3.64663e-06
3.20635e-06
2.66041e-06
2.00951e-06
1.3103e-06
6.94466e-07
2.95809e-07
1.03784e-07
3.07085e-08
7.28603e-09
1.5104e-09
2.84888e-10
4.5085e-11
6.24297e-12
7.6128e-13
8.33006e-14
8.38975e-15
9.28487e-16
1.92925e-16
5.77391e-17
2.47879e-17
1.53328e-17
1.15726e-17
9.19178e-18
7.1539e-18
5.31958e-18
3.76119e-18
2.53812e-18
1.64371e-18
1.0281e-18
6.24485e-19
3.70066e-19
2.14849e-19
1.22399e-19
6.84712e-20
3.75605e-20
2.01042e-20
1.03737e-20
5.01606e-21
2.10245e-21
4.93763e-22
3.23364e-11
1.23278e-10
2.57226e-10
4.59539e-10
7.63791e-10
1.21841e-09
1.89272e-09
2.88407e-09
4.32569e-09
6.39528e-09
9.32827e-09
1.3447e-08
1.92107e-08
2.72733e-08
3.85411e-08
5.41452e-08
7.56508e-08
1.04649e-07
1.40947e-07
1.87188e-07
2.38505e-07
2.9167e-07
3.40339e-07
3.76698e-07
3.94825e-07
3.95505e-07
3.82279e-07
3.59591e-07
3.33043e-07
3.05156e-07
2.78404e-07
2.5379e-07
2.31425e-07
2.11617e-07
1.94412e-07
1.79897e-07
1.68234e-07
1.59796e-07
1.55305e-07
1.55503e-07
1.61606e-07
1.7482e-07
1.96135e-07
2.26432e-07
2.66902e-07
3.17176e-07
3.76441e-07
4.4559e-07
5.27717e-07
6.31784e-07
7.8115e-07
1.03445e-06
1.52407e-06
2.29385e-06
3.08378e-06
3.68133e-06
4.00937e-06
4.07515e-06
3.93063e-06
3.62183e-06
3.16652e-06
2.6059e-06
1.94257e-06
1.24319e-06
6.43277e-07
2.67284e-07
9.20424e-08
2.67228e-08
6.25831e-09
1.27941e-09
2.3881e-10
3.74586e-11
5.10581e-12
6.13837e-13
6.64041e-14
6.63774e-15
7.69848e-16
1.65175e-16
5.12845e-17
2.33205e-17
1.50011e-17
1.1517e-17
9.21167e-18
7.1936e-18
5.36039e-18
3.79601e-18
2.56473e-18
1.66223e-18
1.04033e-18
6.32294e-19
3.74975e-19
2.17665e-19
1.23975e-19
6.93386e-20
3.80288e-20
2.0351e-20
1.04994e-20
5.07629e-21
2.12761e-21
4.99662e-22
3.21104e-11
1.22415e-10
2.55423e-10
4.56301e-10
7.58357e-10
1.20962e-09
1.87881e-09
2.86237e-09
4.29216e-09
6.34381e-09
9.24959e-09
1.33273e-08
1.90297e-08
2.7002e-08
3.81381e-08
5.3558e-08
7.48113e-08
1.03486e-07
1.39407e-07
1.85319e-07
2.36556e-07
2.89918e-07
3.38999e-07
3.76379e-07
3.95587e-07
3.97304e-07
3.84728e-07
3.624e-07
3.35926e-07
3.08052e-07
2.81089e-07
2.5625e-07
2.33693e-07
2.13737e-07
1.96363e-07
1.81696e-07
1.69894e-07
1.61427e-07
1.5689e-07
1.57182e-07
1.63415e-07
1.76905e-07
1.98695e-07
2.29662e-07
2.71019e-07
3.22377e-07
3.8278e-07
4.53312e-07
5.37351e-07
6.4432e-07
7.9926e-07
1.06286e-06
1.57935e-06
2.36226e-06
3.14594e-06
3.72515e-06
4.03161e-06
4.07867e-06
3.91818e-06
3.59563e-06
3.128e-06
2.55418e-06
1.87872e-06
1.17718e-06
5.94748e-07
2.42028e-07
8.1959e-08
2.34669e-08
5.4197e-09
1.09178e-09
2.01736e-10
3.11237e-11
4.19974e-12
5.01075e-13
5.39405e-14
5.38233e-15
6.49612e-16
1.44028e-16
4.65073e-17
2.21186e-17
1.46982e-17
1.1456e-17
9.21343e-18
7.21181e-18
5.38127e-18
3.81468e-18
2.57968e-18
1.67305e-18
1.04767e-18
6.37021e-19
3.77905e-19
2.1939e-19
1.24955e-19
6.98793e-20
3.83194e-20
2.0503e-20
1.05762e-20
5.11279e-21
2.14276e-21
5.032e-22
3.18807e-11
1.21538e-10
2.53585e-10
4.52995e-10
7.52811e-10
1.20066e-09
1.86468e-09
2.84044e-09
4.25855e-09
6.29273e-09
9.17244e-09
1.32116e-08
1.8858e-08
2.675e-08
3.77732e-08
5.30416e-08
7.40983e-08
1.02542e-07
1.38235e-07
1.83853e-07
2.3502e-07
2.88561e-07
3.37943e-07
3.76182e-07
3.96353e-07
3.98882e-07
3.8693e-07
3.64948e-07
3.38667e-07
3.107e-07
2.8355e-07
2.58522e-07
2.35812e-07
2.15715e-07
1.98204e-07
1.83422e-07
1.7154e-07
1.63012e-07
1.58486e-07
1.58811e-07
1.65217e-07
1.79041e-07
2.01264e-07
2.32862e-07
2.75064e-07
3.27465e-07
3.88986e-07
4.60935e-07
5.46646e-07
6.56269e-07
8.1611e-07
1.09066e-06
1.63255e-06
2.4272e-06
3.20444e-06
3.76756e-06
4.05254e-06
4.08038e-06
3.90295e-06
3.56568e-06
3.08701e-06
2.50096e-06
1.8188e-06
1.11921e-06
5.54327e-07
2.21659e-07
7.42534e-08
2.04663e-08
4.67568e-09
9.34497e-10
1.70035e-10
2.59529e-11
3.47265e-12
4.11804e-13
4.41512e-14
4.39982e-15
5.53687e-16
1.27016e-16
4.26495e-17
2.11805e-17
1.44506e-17
1.13861e-17
9.19425e-18
7.20763e-18
5.38171e-18
3.81669e-18
2.58226e-18
1.67534e-18
1.04946e-18
6.38289e-19
3.78762e-19
2.19916e-19
1.25261e-19
7.00512e-20
3.84129e-20
2.05522e-20
1.06011e-20
5.12466e-21
2.1477e-21
5.0436e-22
3.16601e-11
1.20696e-10
2.51824e-10
4.49835e-10
7.47523e-10
1.19215e-09
1.85133e-09
2.81986e-09
4.22721e-09
6.24544e-09
9.10154e-09
1.31061e-08
1.87024e-08
2.65231e-08
3.74464e-08
5.25803e-08
7.34606e-08
1.01691e-07
1.37157e-07
1.82468e-07
2.33553e-07
2.87333e-07
3.37007e-07
3.76001e-07
3.97015e-07
4.00279e-07
3.88851e-07
3.67126e-07
3.40969e-07
3.12952e-07
2.85666e-07
2.60526e-07
2.37691e-07
2.17468e-07
1.99835e-07
1.84937e-07
1.72985e-07
1.64424e-07
1.59884e-07
1.60285e-07
1.66893e-07
1.81012e-07
2.03668e-07
2.35866e-07
2.78828e-07
3.32101e-07
3.94417e-07
4.67324e-07
5.55265e-07
6.6701e-07
8.31584e-07
1.11708e-06
1.6836e-06
2.48745e-06
3.25618e-06
3.8054e-06
4.06873e-06
4.07882e-06
3.88648e-06
3.53547e-06
3.0544e-06
2.45655e-06
1.76436e-06
1.06812e-06
5.20075e-07
2.0492e-07
6.75641e-08
1.84019e-08
4.16736e-09
8.23868e-10
1.48712e-10
2.25037e-11
2.99025e-12
3.52532e-13
3.76361e-14
3.74355e-15
4.88664e-16
1.15404e-16
3.99891e-17
2.05179e-17
1.42688e-17
1.13263e-17
9.16604e-18
7.18823e-18
5.36669e-18
3.80547e-18
2.57456e-18
1.67041e-18
1.04651e-18
6.36617e-19
3.7787e-19
2.19447e-19
1.25022e-19
6.99269e-20
3.83474e-20
2.05177e-20
1.05833e-20
5.11603e-21
2.14406e-21
5.03512e-22
3.14536e-11
1.19908e-10
2.50176e-10
4.4688e-10
7.42586e-10
1.18422e-09
1.83893e-09
2.8008e-09
4.19832e-09
6.20207e-09
9.0369e-09
1.30105e-08
1.85625e-08
2.63204e-08
3.71562e-08
5.21731e-08
7.2901e-08
1.00948e-07
1.36221e-07
1.81242e-07
2.32316e-07
2.86199e-07
3.36208e-07
3.75875e-07
3.9759e-07
4.01512e-07
3.9056e-07
3.69125e-07
3.42991e-07
3.14873e-07
2.875e-07
2.62262e-07
2.39329e-07
2.19002e-07
2.01266e-07
1.86309e-07
1.74274e-07
1.65673e-07
1.61139e-07
1.61606e-07
1.68317e-07
1.82659e-07
2.05658e-07
2.38356e-07
2.81983e-07
3.36068e-07
3.99263e-07
4.73158e-07
5.61988e-07
6.75333e-07
8.42962e-07
1.14148e-06
1.72893e-06
2.53971e-06
3.29907e-06
3.83796e-06
4.08259e-06
4.07737e-06
3.87213e-06
3.51025e-06
3.01994e-06
2.41186e-06
1.7147e-06
1.02176e-06
4.88652e-07
1.89947e-07
6.16937e-08
1.64754e-08
3.70324e-09
7.26978e-10
1.30479e-10
1.96403e-11
2.59265e-12
3.03879e-13
3.22977e-14
3.20554e-15
4.33786e-16
1.05438e-16
3.76813e-17
1.99303e-17
1.40987e-17
1.12626e-17
9.12961e-18
7.15993e-18
5.34347e-18
3.78765e-18
2.56053e-18
1.66114e-18
1.04067e-18
6.33069e-19
3.75799e-19
2.1825e-19
1.24342e-19
6.9549e-20
3.81422e-20
2.04091e-20
1.05279e-20
5.08955e-21
2.13307e-21
5.00951e-22
3.12661e-11
1.19194e-10
2.48683e-10
4.44206e-10
7.38125e-10
1.17708e-09
1.82777e-09
2.78372e-09
4.17254e-09
6.16356e-09
8.97977e-09
1.29264e-08
1.844e-08
2.61439e-08
3.69051e-08
5.18238e-08
7.24266e-08
1.00331e-07
1.35479e-07
1.80269e-07
2.31267e-07
2.85316e-07
3.35637e-07
3.75844e-07
3.98166e-07
4.02596e-07
3.91995e-07
3.70738e-07
3.44644e-07
3.16516e-07
2.8911e-07
2.63794e-07
2.40749e-07
2.20321e-07
2.02525e-07
1.87479e-07
1.75379e-07
1.66746e-07
1.62231e-07
1.6279e-07
1.69676e-07
1.84276e-07
2.07627e-07
2.40803e-07
2.85024e-07
3.39746e-07
4.03647e-07
4.78391e-07
5.68094e-07
6.8326e-07
8.54525e-07
1.16076e-06
1.76696e-06
2.58383e-06
3.33677e-06
3.86039e-06
4.09084e-06
4.07264e-06
3.85646e-06
3.48536e-06
2.987e-06
2.37191e-06
1.67029e-06
9.81049e-07
4.61212e-07
1.7645e-07
5.65398e-08
1.4896e-08
3.31682e-09
6.43482e-10
1.1423e-10
1.70419e-11
2.23408e-12
2.60528e-13
2.75924e-14
2.73524e-15
3.8422e-16
9.62902e-17
3.5562e-17
1.93879e-17
1.3938e-17
1.11986e-17
9.0901e-18
7.12782e-18
5.31651e-18
3.7666e-18
2.54508e-18
1.65055e-18
1.0338e-18
6.28798e-19
3.73254e-19
2.16757e-19
1.23487e-19
6.90696e-20
3.78789e-20
2.02682e-20
1.04553e-20
5.05448e-21
2.1184e-21
4.97504e-22
3.10995e-11
1.18559e-10
2.47357e-10
4.41833e-10
7.34174e-10
1.17076e-09
1.81794e-09
2.7687e-09
4.14995e-09
6.12994e-09
8.93013e-09
1.28536e-08
1.83343e-08
2.59918e-08
3.6688e-08
5.15196e-08
7.2007e-08
9.97729e-08
1.34767e-07
1.79329e-07
2.30322e-07
2.84466e-07
3.35099e-07
3.75804e-07
3.98629e-07
4.03509e-07
3.93225e-07
3.72103e-07
3.4607e-07
3.17955e-07
2.90455e-07
2.65051e-07
2.41928e-07
2.21449e-07
2.0357e-07
1.88457e-07
1.76311e-07
1.6766e-07
1.63177e-07
1.63798e-07
1.7082e-07
1.85641e-07
2.09301e-07
2.42903e-07
2.87635e-07
3.42978e-07
4.07602e-07
4.83152e-07
5.73653e-07
6.90847e-07
8.66444e-07
1.17691e-06
1.80144e-06
2.62317e-06
3.36842e-06
3.88136e-06
4.09879e-06
4.06965e-06
3.84443e-06
3.46547e-06
2.95913e-06
2.33663e-06
1.63249e-06
9.51063e-07
4.34418e-07
1.647e-07
5.24525e-08
1.36707e-08
3.02089e-09
5.8325e-10
1.02821e-10
1.52296e-11
1.98442e-12
2.30379e-13
2.43201e-14
2.40779e-15
3.48855e-16
8.96287e-17
3.39979e-17
1.89792e-17
1.38112e-17
1.11431e-17
9.05206e-18
7.09513e-18
5.28843e-18
3.74442e-18
2.52871e-18
1.63927e-18
1.02644e-18
6.24198e-19
3.70468e-19
2.15119e-19
1.22546e-19
6.85411e-20
3.75883e-20
2.01124e-20
1.03749e-20
5.01557e-21
2.10208e-21
4.93674e-22
3.09542e-11
1.18005e-10
2.46201e-10
4.39768e-10
7.30738e-10
1.16527e-09
1.80941e-09
2.75572e-09
4.13049e-09
6.10115e-09
8.88796e-09
1.27925e-08
1.82464e-08
2.58668e-08
3.65093e-08
5.12745e-08
7.16824e-08
9.93595e-08
1.34251e-07
1.78635e-07
2.29611e-07
2.83844e-07
3.34727e-07
3.75821e-07
3.99058e-07
4.04294e-07
3.94253e-07
3.73269e-07
3.47287e-07
3.19143e-07
2.91583e-07
2.66119e-07
2.42945e-07
2.22378e-07
2.04427e-07
1.89256e-07
1.77065e-07
1.684e-07
1.63938e-07
1.64619e-07
1.71755e-07
1.86762e-07
2.10682e-07
2.44658e-07
2.89844e-07
3.45707e-07
4.1082e-07
4.86942e-07
5.78085e-07
6.96679e-07
8.75284e-07
1.19289e-06
1.83262e-06
2.65877e-06
3.39818e-06
3.89919e-06
4.10564e-06
4.06691e-06
3.83352e-06
3.44746e-06
2.93471e-06
2.30583e-06
1.59799e-06
9.20352e-07
4.15912e-07
1.55925e-07
4.9195e-08
1.26854e-08
2.78395e-09
5.35925e-10
9.40477e-11
1.38494e-11
1.79549e-12
2.07701e-13
2.18688e-14
2.16308e-15
3.22242e-16
8.46481e-17
3.28243e-17
1.86682e-17
1.3711e-17
1.10956e-17
9.01679e-18
7.06362e-18
5.26095e-18
3.72244e-18
2.51243e-18
1.62801e-18
1.01908e-18
6.19609e-19
3.6758e-19
2.1343e-19
1.2158e-19
6.79997e-20
3.7291e-20
1.99532e-20
1.02927e-20
4.97579e-21
2.08539e-21
4.89756e-22
3.08293e-11
1.17529e-10
2.4521e-10
4.37996e-10
7.27795e-10
1.16058e-09
1.80214e-09
2.74467e-09
4.11398e-09
6.07682e-09
8.85251e-09
1.27413e-08
1.81735e-08
2.57637e-08
3.6362e-08
5.10752e-08
7.14142e-08
9.89999e-08
1.33795e-07
1.78051e-07
2.28994e-07
2.83332e-07
3.34439e-07
3.7586e-07
3.99437e-07
4.04963e-07
3.95124e-07
3.74234e-07
3.48271e-07
3.20107e-07
2.92502e-07
2.66979e-07
2.43739e-07
2.2312e-07
2.05118e-07
1.89904e-07
1.77681e-07
1.69015e-07
1.64562e-07
1.65282e-07
1.72494e-07
1.87614e-07
2.11669e-07
2.46326e-07
2.91797e-07
3.48004e-07
4.13486e-07
4.90015e-07
5.81734e-07
7.01399e-07
8.82472e-07
1.20647e-06
1.85787e-06
2.68681e-06
3.42072e-06
3.91259e-06
4.10985e-06
4.06306e-06
3.82286e-06
3.4309e-06
2.91253e-06
2.27791e-06
1.56755e-06
8.93909e-07
4.00815e-07
1.49073e-07
4.66595e-08
1.19309e-08
2.6027e-09
5.01145e-10
8.76025e-11
1.28674e-11
1.66133e-12
1.91561e-13
2.01193e-14
1.98789e-15
3.03074e-16
8.10276e-17
3.19611e-17
1.8434e-17
1.36319e-17
1.10549e-17
8.9846e-18
7.03408e-18
5.23494e-18
3.7015e-18
2.49686e-18
1.61723e-18
1.01201e-18
6.15184e-19
3.64843e-19
2.11822e-19
1.20657e-19
6.74803e-20
3.70051e-20
1.97998e-20
1.02134e-20
4.93738e-21
2.06927e-21
4.8597e-22
3.07234e-11
1.17126e-10
2.44369e-10
4.36495e-10
7.25303e-10
1.15661e-09
1.79599e-09
2.73535e-09
4.10009e-09
6.0564e-09
8.82285e-09
1.26988e-08
1.81133e-08
2.56799e-08
3.6245e-08
5.09174e-08
7.11976e-08
9.87176e-08
1.3345e-07
1.77596e-07
2.28535e-07
2.82957e-07
3.34235e-07
3.75929e-07
3.998e-07
4.05581e-07
3.95905e-07
3.75093e-07
3.49127e-07
3.20926e-07
2.93264e-07
2.67683e-07
2.44388e-07
2.23721e-07
2.05679e-07
1.9043e-07
1.78193e-07
1.69518e-07
1.65076e-07
1.65834e-07
1.73121e-07
1.88361e-07
2.12593e-07
2.47506e-07
2.93235e-07
3.49708e-07
4.15451e-07
4.92256e-07
5.84324e-07
7.04647e-07
8.87253e-07
1.22127e-06
1.88212e-06
2.712e-06
3.44035e-06
3.92364e-06
4.1126e-06
4.05887e-06
3.81299e-06
3.41627e-06
2.89326e-06
2.25457e-06
1.54227e-06
8.72119e-07
3.88597e-07
1.43611e-07
4.46692e-08
1.13375e-08
2.45987e-09
4.73884e-10
8.24267e-11
1.20501e-11
1.55055e-12
1.78299e-13
1.86882e-14
1.84504e-15
2.87174e-16
7.80001e-17
3.12387e-17
1.82369e-17
1.35641e-17
1.1019e-17
8.95536e-18
7.00697e-18
5.21099e-18
3.68217e-18
2.48247e-18
1.60723e-18
1.00544e-18
6.11065e-19
3.6234e-19
2.10344e-19
1.19805e-19
6.70004e-20
3.67405e-20
1.96576e-20
1.01398e-20
4.90169e-21
2.05428e-21
4.82443e-22
3.06348e-11
1.16788e-10
2.43665e-10
4.35239e-10
7.23216e-10
1.15329e-09
1.79084e-09
2.72753e-09
4.0884e-09
6.03916e-09
8.79768e-09
1.26624e-08
1.80612e-08
2.56063e-08
3.61399e-08
5.07683e-08
7.09993e-08
9.84657e-08
1.33154e-07
1.77216e-07
2.2817e-07
2.82654e-07
3.34078e-07
3.7599e-07
4.00084e-07
4.06063e-07
3.96514e-07
3.75763e-07
3.49807e-07
3.21592e-07
2.93896e-07
2.68284e-07
2.44925e-07
2.24204e-07
2.06125e-07
1.90851e-07
1.78597e-07
1.69917e-07
1.65488e-07
1.66283e-07
1.73642e-07
1.89001e-07
2.13401e-07
2.48534e-07
2.94518e-07
3.51276e-07
4.1733e-07
4.94528e-07
5.87217e-07
7.08794e-07
8.94237e-07
1.23152e-06
1.90172e-06
2.7332e-06
3.45653e-06
3.9322e-06
4.11438e-06
4.05507e-06
3.80469e-06
3.40403e-06
2.87729e-06
2.23496e-06
1.52108e-06
8.54092e-07
3.7859e-07
1.39114e-07
4.30015e-08
1.08505e-08
2.34495e-09
4.51971e-10
7.83723e-11
1.14221e-11
1.46569e-12
1.68154e-13
1.75942e-14
1.73582e-15
2.75001e-16
7.56805e-17
3.06824e-17
1.80826e-17
1.35091e-17
1.09882e-17
8.92948e-18
6.98272e-18
5.18951e-18
3.66481e-18
2.46955e-18
1.59825e-18
9.99533e-19
6.07354e-19
3.60085e-19
2.09013e-19
1.19038e-19
6.65681e-20
3.6502e-20
1.95294e-20
1.00734e-20
4.86949e-21
2.04074e-21
4.79261e-22
3.0562e-11
1.16511e-10
2.43087e-10
4.34208e-10
7.21505e-10
1.15056e-09
1.78662e-09
2.72112e-09
4.07882e-09
6.02501e-09
8.77697e-09
1.26324e-08
1.80182e-08
2.55453e-08
3.6052e-08
5.06529e-08
7.08507e-08
9.82783e-08
1.32927e-07
1.76918e-07
2.27864e-07
2.82408e-07
3.33954e-07
3.7605e-07
4.0033e-07
4.06457e-07
3.97005e-07
3.76297e-07
3.50349e-07
3.22115e-07
2.94381e-07
2.68717e-07
2.45339e-07
2.24592e-07
2.06482e-07
1.91183e-07
1.78912e-07
1.70229e-07
1.65814e-07
1.66646e-07
1.7407e-07
1.89521e-07
2.14046e-07
2.49346e-07
2.95534e-07
3.52531e-07
4.18859e-07
4.96422e-07
5.89691e-07
7.12376e-07
9.00223e-07
1.23974e-06
1.91708e-06
2.74979e-06
3.46966e-06
3.93964e-06
4.11623e-06
4.05204e-06
3.79759e-06
3.39356e-06
2.86349e-06
2.21796e-06
1.50308e-06
8.39097e-07
3.70395e-07
1.35505e-07
4.17348e-08
1.04758e-08
2.25657e-09
4.35011e-10
7.52565e-11
1.09394e-11
1.40044e-12
1.60358e-13
1.67537e-14
1.65191e-15
2.65542e-16
7.3856e-17
3.02404e-17
1.79587e-17
1.34639e-17
1.0962e-17
8.90704e-18
6.96157e-18
5.17075e-18
3.64965e-18
2.45825e-18
1.59039e-18
9.94365e-19
6.04106e-19
3.58111e-19
2.07847e-19
1.18366e-19
6.61891e-20
3.62929e-20
1.9417e-20
1.00152e-20
4.84126e-21
2.02888e-21
4.7647e-22
3.05039e-11
1.1629e-10
2.42626e-10
4.33386e-10
7.20141e-10
1.1484e-09
1.78326e-09
2.71603e-09
4.07122e-09
6.0138e-09
8.76064e-09
1.26089e-08
1.79849e-08
2.5499e-08
3.59867e-08
5.05652e-08
7.07323e-08
9.81251e-08
1.32739e-07
1.76676e-07
2.27635e-07
2.82228e-07
3.33871e-07
3.76106e-07
4.00529e-07
4.06771e-07
3.97398e-07
3.76726e-07
3.50782e-07
3.22534e-07
2.94771e-07
2.69081e-07
2.45674e-07
2.24899e-07
2.06767e-07
1.91455e-07
1.79173e-07
1.70491e-07
1.66088e-07
1.66948e-07
1.74422e-07
1.89953e-07
2.14588e-07
2.50029e-07
2.96389e-07
3.53586e-07
4.20133e-07
4.97953e-07
5.91581e-07
7.14866e-07
9.03981e-07
1.24675e-06
1.9288e-06
2.76266e-06
3.48014e-06
3.94571e-06
4.11798e-06
4.04988e-06
3.79206e-06
3.38504e-06
2.85216e-06
2.20415e-06
1.48838e-06
8.26879e-07
3.63789e-07
1.32612e-07
4.07249e-08
1.01816e-08
2.18716e-09
4.21885e-10
7.28277e-11
1.05653e-11
1.35013e-12
1.54355e-13
1.61066e-14
1.5873e-15
2.58108e-16
7.23923e-17
2.98825e-17
1.78575e-17
1.34266e-17
1.094e-17
8.88805e-18
6.94364e-18
5.15484e-18
3.63679e-18
2.44867e-18
1.58373e-18
9.89984e-19
6.01352e-19
3.56437e-19
2.06858e-19
1.17796e-19
6.58677e-20
3.61156e-20
1.93217e-20
9.96578e-21
4.8173e-21
2.01881e-21
4.74102e-22
3.04594e-11
1.1612e-10
2.42273e-10
4.32757e-10
7.19099e-10
1.14674e-09
1.78071e-09
2.71218e-09
4.06552e-09
6.0055e-09
8.74868e-09
1.25918e-08
1.79609e-08
2.54651e-08
3.59374e-08
5.04967e-08
7.06397e-08
9.80065e-08
1.32598e-07
1.76492e-07
2.27454e-07
2.82085e-07
3.33808e-07
3.76157e-07
4.00693e-07
4.07031e-07
3.97717e-07
3.77068e-07
3.51123e-07
3.22861e-07
2.95076e-07
2.6936e-07
2.45928e-07
2.25134e-07
2.06986e-07
1.91661e-07
1.79372e-07
1.70688e-07
1.66295e-07
1.67179e-07
1.74694e-07
1.90286e-07
2.15006e-07
2.50562e-07
2.97057e-07
3.54404e-07
4.21114e-07
4.99135e-07
5.93071e-07
7.16976e-07
9.07517e-07
1.25347e-06
1.93972e-06
2.77411e-06
3.48919e-06
3.95059e-06
4.11949e-06
4.04852e-06
3.78822e-06
3.37895e-06
2.84385e-06
2.19382e-06
1.47727e-06
8.17572e-07
3.58782e-07
1.30434e-07
4.00092e-08
9.96754e-09
2.13595e-09
4.12056e-10
7.09948e-11
1.02816e-11
1.3118e-12
1.49783e-13
1.56147e-14
1.53822e-15
2.52447e-16
7.12832e-17
2.96101e-17
1.77795e-17
1.33971e-17
1.09223e-17
8.87258e-18
6.92901e-18
5.14187e-18
3.62632e-18
2.44087e-18
1.57832e-18
9.86421e-19
5.99113e-19
3.55076e-19
2.06055e-19
1.17334e-19
6.56067e-20
3.59716e-20
1.92443e-20
9.92572e-21
4.79787e-21
2.01064e-21
4.72181e-22
3.04275e-11
1.15999e-10
2.42021e-10
4.32308e-10
7.1836e-10
1.14557e-09
1.77892e-09
2.70949e-09
4.06154e-09
5.99962e-09
8.74001e-09
1.25791e-08
1.79423e-08
2.54386e-08
3.58997e-08
5.04469e-08
7.05747e-08
9.79246e-08
1.325e-07
1.76365e-07
2.27331e-07
2.81991e-07
3.33769e-07
3.76198e-07
4.00813e-07
4.07215e-07
3.97942e-07
3.77308e-07
3.51363e-07
3.23093e-07
2.95292e-07
2.69559e-07
2.46112e-07
2.25303e-07
2.07143e-07
1.91808e-07
1.79514e-07
1.70831e-07
1.66445e-07
1.67346e-07
1.74893e-07
1.90531e-07
2.15317e-07
2.50959e-07
2.97561e-07
3.55036e-07
4.21887e-07
5.00072e-07
5.94225e-07
7.18503e-07
9.0988e-07
1.25804e-06
1.94727e-06
2.78306e-06
3.49839e-06
3.95099e-06
4.11946e-06
4.0473e-06
3.78558e-06
3.37482e-06
2.8381e-06
2.18642e-06
1.46916e-06
8.10748e-07
3.55102e-07
1.2883e-07
3.94455e-08
9.80247e-09
2.09712e-09
4.04653e-10
6.96349e-11
1.00721e-11
1.28367e-12
1.46434e-13
1.52546e-14
1.5023e-15
2.48241e-16
7.04542e-17
2.94078e-17
1.77219e-17
1.33754e-17
1.09093e-17
8.86116e-18
6.9182e-18
5.13227e-18
3.61854e-18
2.43507e-18
1.57427e-18
9.83748e-19
5.97426e-19
3.54048e-19
2.05447e-19
1.16983e-19
6.54088e-20
3.58625e-20
1.91857e-20
9.89536e-21
4.78315e-21
2.00446e-21
4.70726e-22
3.04069e-11
1.1592e-10
2.41857e-10
4.32017e-10
7.17877e-10
1.1448e-09
1.77772e-09
2.70765e-09
4.05875e-09
5.99547e-09
8.73393e-09
1.25703e-08
1.79299e-08
2.54215e-08
3.58753e-08
5.0414e-08
7.0532e-08
9.78711e-08
1.32438e-07
1.76285e-07
2.27255e-07
2.81933e-07
3.33748e-07
3.76228e-07
4.00893e-07
4.07335e-07
3.98088e-07
3.77465e-07
3.51519e-07
3.23241e-07
2.9543e-07
2.69687e-07
2.4623e-07
2.25411e-07
2.07243e-07
1.91903e-07
1.79605e-07
1.70922e-07
1.66541e-07
1.67453e-07
1.75019e-07
1.90688e-07
2.15515e-07
2.51212e-07
2.97882e-07
3.55437e-07
4.22378e-07
5.00679e-07
5.95014e-07
7.1964e-07
9.11778e-07
1.26166e-06
1.95301e-06
2.78917e-06
3.50325e-06
3.95378e-06
4.12063e-06
4.04711e-06
3.78416e-06
3.37222e-06
2.83429e-06
2.1815e-06
1.46379e-06
8.06263e-07
3.52692e-07
1.27771e-07
3.90647e-08
9.69161e-09
2.07112e-09
3.99712e-10
6.87261e-11
9.93266e-12
1.26496e-12
1.44211e-13
1.50158e-14
1.47848e-15
2.45493e-16
6.99194e-17
2.92767e-17
1.76842e-17
1.33611e-17
1.09006e-17
8.85356e-18
6.91104e-18
5.12595e-18
3.61346e-18
2.43129e-18
1.57164e-18
9.8202e-19
5.96338e-19
3.53384e-19
2.05053e-19
1.16754e-19
6.52791e-20
3.57905e-20
1.91468e-20
9.87518e-21
4.77334e-21
2.00033e-21
4.69754e-22
3.03965e-11
1.15881e-10
2.41775e-10
4.3187e-10
7.17632e-10
1.14441e-09
1.77712e-09
2.70674e-09
4.05739e-09
5.99347e-09
8.73101e-09
1.25661e-08
1.7924e-08
2.54131e-08
3.58635e-08
5.03982e-08
7.05113e-08
9.78454e-08
1.32408e-07
1.76247e-07
2.27218e-07
2.81906e-07
3.33739e-07
3.76244e-07
4.00934e-07
4.07397e-07
3.98163e-07
3.77545e-07
3.51598e-07
3.23317e-07
2.955e-07
2.69751e-07
2.46288e-07
2.25464e-07
2.07292e-07
1.91949e-07
1.79649e-07
1.70966e-07
1.66587e-07
1.67503e-07
1.75077e-07
1.90757e-07
2.15599e-07
2.51313e-07
2.98e-07
3.5557e-07
4.22522e-07
5.00847e-07
5.95266e-07
7.20167e-07
9.13031e-07
1.26442e-06
1.95721e-06
2.79323e-06
3.50594e-06
3.95823e-06
4.12342e-06
4.04858e-06
3.78444e-06
3.37147e-06
2.83261e-06
2.17901e-06
1.46095e-06
8.03883e-07
3.51421e-07
1.27219e-07
3.88663e-08
9.6342e-09
2.05775e-09
3.97154e-10
6.8259e-11
9.86134e-12
1.25544e-12
1.43086e-13
1.48953e-14
1.46648e-15
2.44119e-16
6.96498e-17
2.92096e-17
1.76646e-17
1.33535e-17
1.08958e-17
8.84932e-18
6.90704e-18
5.12243e-18
3.61063e-18
2.4292e-18
1.5702e-18
9.81079e-19
5.9575e-19
3.5303e-19
2.04845e-19
1.16635e-19
6.52123e-20
3.57538e-20
1.91272e-20
9.86501e-21
4.76841e-21
1.99826e-21
4.69266e-22
3.03964e-11
1.1588e-10
2.41774e-10
4.31868e-10
7.17627e-10
1.14441e-09
1.7771e-09
2.70671e-09
4.05736e-09
5.99343e-09
8.73094e-09
1.25661e-08
1.79239e-08
2.5413e-08
3.58633e-08
5.0398e-08
7.05111e-08
9.78452e-08
1.32407e-07
1.76246e-07
2.27218e-07
2.81907e-07
3.3374e-07
3.76245e-07
4.00936e-07
4.07399e-07
3.98164e-07
3.77546e-07
3.51601e-07
3.23317e-07
2.955e-07
2.69751e-07
2.46287e-07
2.25464e-07
2.07292e-07
1.91948e-07
1.79649e-07
1.70966e-07
1.66587e-07
1.67503e-07
1.75076e-07
1.90753e-07
2.1559e-07
2.51295e-07
2.97965e-07
3.55498e-07
4.22377e-07
5.00541e-07
5.94599e-07
7.18682e-07
9.09745e-07
1.26459e-06
1.95486e-06
2.78993e-06
3.50221e-06
3.95903e-06
4.12311e-06
4.04767e-06
3.78333e-06
3.37038e-06
2.83165e-06
2.17825e-06
1.46043e-06
8.03586e-07
3.51289e-07
1.2717e-07
3.88498e-08
9.62983e-09
2.05683e-09
3.9697e-10
6.82272e-11
9.85672e-12
1.25485e-12
1.43017e-13
1.48881e-14
1.46578e-15
2.44036e-16
6.96321e-17
2.92051e-17
1.76633e-17
1.3353e-17
1.08955e-17
8.84906e-18
6.9068e-18
5.12222e-18
3.61047e-18
2.42908e-18
1.57013e-18
9.81033e-19
5.95723e-19
3.53015e-19
2.04837e-19
1.16631e-19
6.52104e-20
3.57529e-20
1.91267e-20
9.86481e-21
4.76832e-21
1.99822e-21
4.69259e-22
3.04065e-11
1.15919e-10
2.41854e-10
4.3201e-10
7.17862e-10
1.14478e-09
1.77768e-09
2.70758e-09
4.05865e-09
5.99532e-09
8.7337e-09
1.257e-08
1.79295e-08
2.54209e-08
3.58746e-08
5.04133e-08
7.05312e-08
9.78703e-08
1.32437e-07
1.76285e-07
2.27255e-07
2.81934e-07
3.3375e-07
3.76231e-07
4.00897e-07
4.07339e-07
3.98091e-07
3.77468e-07
3.51521e-07
3.23242e-07
2.9543e-07
2.69686e-07
2.46228e-07
2.25409e-07
2.07242e-07
1.91901e-07
1.79604e-07
1.70921e-07
1.66539e-07
1.6745e-07
1.75013e-07
1.90675e-07
2.15491e-07
2.51168e-07
2.97804e-07
3.553e-07
4.22147e-07
5.00303e-07
5.94425e-07
7.18766e-07
9.10588e-07
1.26027e-06
1.9507e-06
2.78621e-06
3.49956e-06
3.95791e-06
4.12297e-06
4.04819e-06
3.78435e-06
3.37184e-06
2.83357e-06
2.18061e-06
1.46296e-06
8.05693e-07
3.52414e-07
1.27664e-07
3.90273e-08
9.68146e-09
2.06898e-09
3.99278e-10
6.86513e-11
9.92168e-12
1.26355e-12
1.44052e-13
1.49994e-14
1.47686e-15
2.45308e-16
6.98783e-17
2.92653e-17
1.76807e-17
1.33597e-17
1.08997e-17
8.85276e-18
6.9103e-18
5.12531e-18
3.61296e-18
2.43094e-18
1.57142e-18
9.81883e-19
5.96259e-19
3.53341e-19
2.0503e-19
1.16743e-19
6.52737e-20
3.5788e-20
1.91456e-20
9.87463e-21
4.7731e-21
2.00024e-21
4.69732e-22
3.04274e-11
1.15998e-10
2.42019e-10
4.32305e-10
7.18351e-10
1.14555e-09
1.77887e-09
2.70939e-09
4.06134e-09
5.99929e-09
8.73949e-09
1.25784e-08
1.79414e-08
2.54377e-08
3.58987e-08
5.04458e-08
7.05739e-08
9.7924e-08
1.325e-07
1.76366e-07
2.27333e-07
2.81993e-07
3.33773e-07
3.76202e-07
4.00817e-07
4.07218e-07
3.97943e-07
3.77309e-07
3.51363e-07
3.23091e-07
2.95289e-07
2.69557e-07
2.46109e-07
2.25299e-07
2.0714e-07
1.91805e-07
1.79511e-07
1.70828e-07
1.66441e-07
1.6734e-07
1.74883e-07
1.90514e-07
2.15286e-07
2.50906e-07
2.97469e-07
3.54877e-07
4.21616e-07
4.99619e-07
5.93479e-07
7.17283e-07
9.07885e-07
1.25822e-06
1.94621e-06
2.78124e-06
3.49561e-06
3.95569e-06
4.12239e-06
4.04902e-06
3.78637e-06
3.37488e-06
2.83761e-06
2.18559e-06
1.46827e-06
8.10085e-07
3.54768e-07
1.28696e-07
3.93981e-08
9.78955e-09
2.09431e-09
4.04098e-10
6.95371e-11
1.00578e-11
1.28192e-12
1.46237e-13
1.52335e-14
1.50023e-15
2.47995e-16
7.0402e-17
2.93938e-17
1.77178e-17
1.3374e-17
1.09085e-17
8.86056e-18
6.91769e-18
5.13185e-18
3.61824e-18
2.43486e-18
1.57414e-18
9.83672e-19
5.97383e-19
3.54025e-19
2.05434e-19
1.16975e-19
6.54048e-20
3.58603e-20
1.91845e-20
9.89476e-21
4.78286e-21
2.00434e-21
4.70698e-22
3.04597e-11
1.16121e-10
2.42276e-10
4.32762e-10
7.19107e-10
1.14675e-09
1.78073e-09
2.7122e-09
4.06552e-09
6.00544e-09
8.74845e-09
1.25913e-08
1.79598e-08
2.54633e-08
3.59352e-08
5.04949e-08
7.0639e-08
9.80066e-08
1.32598e-07
1.76492e-07
2.27455e-07
2.82088e-07
3.33812e-07
3.76162e-07
4.00698e-07
4.07034e-07
3.97719e-07
3.77067e-07
3.51122e-07
3.22858e-07
2.95072e-07
2.69355e-07
2.45923e-07
2.25129e-07
2.06981e-07
1.91656e-07
1.79367e-07
1.70683e-07
1.66288e-07
1.67169e-07
1.7468e-07
1.90264e-07
2.14973e-07
2.50511e-07
2.96975e-07
3.5427e-07
4.20884e-07
4.98723e-07
5.92311e-07
7.15534e-07
9.04717e-07
1.25516e-06
1.93987e-06
2.77422e-06
3.48988e-06
3.95197e-06
4.12114e-06
4.05009e-06
3.78942e-06
3.37965e-06
2.84401e-06
2.19343e-06
1.47659e-06
8.16932e-07
3.58425e-07
1.30295e-07
3.99682e-08
9.95653e-09
2.13392e-09
4.11665e-10
7.09357e-11
1.02742e-11
1.3108e-12
1.49652e-13
1.56003e-14
1.53676e-15
2.52219e-16
7.12249e-17
2.95938e-17
1.77748e-17
1.33956e-17
1.09217e-17
8.8722e-18
6.92874e-18
5.14166e-18
3.62616e-18
2.44075e-18
1.57823e-18
9.86363e-19
5.99075e-19
3.55052e-19
2.0604e-19
1.17325e-19
6.56018e-20
3.59689e-20
1.92429e-20
9.92498e-21
4.79752e-21
2.0105e-21
4.72147e-22
3.05043e-11
1.16291e-10
2.42629e-10
4.33392e-10
7.20152e-10
1.14842e-09
1.7833e-09
2.71608e-09
4.07131e-09
6.01396e-09
8.76087e-09
1.26092e-08
1.79852e-08
2.54989e-08
3.59859e-08
5.0563e-08
7.07291e-08
9.81213e-08
1.32736e-07
1.76672e-07
2.27634e-07
2.82229e-07
3.33874e-07
3.76111e-07
4.00534e-07
4.06776e-07
3.97402e-07
3.76729e-07
3.50784e-07
3.22532e-07
2.9477e-07
2.69078e-07
2.45668e-07
2.24893e-07
2.06761e-07
1.91448e-07
1.79166e-07
1.70482e-07
1.66077e-07
1.66934e-07
1.74404e-07
1.89929e-07
2.14557e-07
2.49991e-07
2.96339e-07
3.53517e-07
4.20035e-07
4.97821e-07
5.91432e-07
7.14806e-07
9.04314e-07
1.24793e-06
1.93085e-06
2.7656e-06
3.48482e-06
3.94377e-06
4.11816e-06
4.05096e-06
3.79328e-06
3.38594e-06
2.8525e-06
2.2039e-06
1.48774e-06
8.2622e-07
3.63422e-07