/*--------------------------------*- C++ -*----------------------------------*\
  =========                 |
  \\      /  F ield         | OpenFOAM: The Open Source CFD Toolbox
   \\    /   O peration     | Website:  https://openfoam.org
    \\  /    A nd           | Version:  10
     \\/     M anipulation  |
\*---------------------------------------------------------------------------*/
FoamFile
{
    format      ascii;
    class       volScalarField;
    location    "1";
    object      HON;
}
// * * * * * * * * * * * * * * * * * * * * * * * * * * * * * * * * * * * * * //

dimensions      [0 0 0 0 0 0 0];

internalField   nonuniform List<scalar> 
4000
(
4.03509e-17
1.53824e-16
3.20894e-16
5.72976e-16
9.51408e-16
1.51531e-15
2.34813e-15
3.56434e-15
5.31464e-15
7.78798e-15
1.12118e-14
1.58583e-14
2.20522e-14
3.01582e-14
4.05361e-14
5.33922e-14
6.8839e-14
8.63734e-14
1.03723e-13
1.19005e-13
1.265e-13
1.22337e-13
1.0623e-13
8.52856e-14
6.56659e-14
4.99478e-14
3.82095e-14
2.99231e-14
2.43468e-14
2.06918e-14
1.85028e-14
1.7475e-14
1.74878e-14
1.85642e-14
2.09498e-14
2.51334e-14
3.20121e-14
4.32248e-14
6.17004e-14
9.26784e-14
1.46099e-13
2.38291e-13
3.96811e-13
6.6974e-13
1.14768e-12
1.96946e-12
3.36057e-12
5.69806e-12
9.60801e-12
1.60649e-11
2.65536e-11
4.31484e-11
6.80208e-11
8.2482e-11
7.45812e-11
5.64716e-11
3.83115e-11
2.41909e-11
1.44751e-11
8.29252e-12
4.56345e-12
2.42697e-12
1.23621e-12
5.92367e-13
2.6016e-13
1.01757e-13
3.54495e-14
1.05476e-14
2.68786e-15
5.71715e-16
1.10412e-16
1.77884e-17
2.49632e-18
3.58023e-19
5.67908e-20
9.52729e-21
1.67041e-21
3.0367e-22
5.65884e-23
1.06917e-23
2.03546e-24
3.88065e-25
7.40193e-26
1.40815e-26
2.67848e-27
5.08212e-28
9.62319e-29
1.81811e-29
3.42822e-30
6.44266e-31
1.21153e-31
2.27576e-32
4.27108e-33
8.01036e-34
1.50157e-34
2.81373e-35
5.27124e-36
9.87031e-37
1.8328e-37
2.52496e-38
4.02121e-17
1.53293e-16
3.19792e-16
5.71073e-16
9.48399e-16
1.51074e-15
2.34129e-15
3.55407e-15
5.29896e-15
7.76343e-15
1.11724e-14
1.57944e-14
2.19486e-14
2.99984e-14
4.03059e-14
5.30823e-14
6.84217e-14
8.58541e-14
1.03221e-13
1.18782e-13
1.268e-13
1.2342e-13
1.07965e-13
8.70651e-14
6.72102e-14
5.11506e-14
3.91185e-14
3.05339e-14
2.47789e-14
2.10036e-14
1.8736e-14
1.7674e-14
1.76593e-14
1.87137e-14
2.11011e-14
2.53094e-14
3.22507e-14
4.35867e-14
6.2303e-14
9.37094e-14
1.47911e-13
2.41517e-13
4.02474e-13
6.79957e-13
1.16601e-12
2.002e-12
3.41652e-12
5.79425e-12
9.77354e-12
1.63443e-11
2.70148e-11
4.38821e-11
6.91274e-11
8.26538e-11
7.40644e-11
5.58011e-11
3.75923e-11
2.36717e-11
1.41286e-11
8.07823e-12
4.4125e-12
2.33815e-12
1.18602e-12
5.64829e-13
2.45526e-13
9.5605e-14
3.29919e-14
9.69819e-15
2.39249e-15
5.02168e-16
9.57034e-17
1.52898e-17
2.1329e-18
3.06834e-19
4.90059e-20
8.26163e-21
1.45779e-21
2.6677e-22
5.00531e-23
9.51838e-24
1.82346e-24
3.49619e-25
6.69126e-26
1.2793e-26
2.43385e-27
4.61868e-28
8.7526e-29
1.6549e-29
3.12427e-30
5.90022e-31
1.10956e-31
2.08613e-32
3.91941e-33
7.35858e-34
1.38088e-34
2.59055e-35
4.85919e-36
9.1113e-37
1.69439e-37
2.33712e-38
4.01334e-17
1.53006e-16
3.19238e-16
5.70172e-16
9.47046e-16
1.50876e-15
2.33835e-15
3.54931e-15
5.29062e-15
7.74809e-15
1.11435e-14
1.57397e-14
2.18553e-14
2.985e-14
4.00831e-14
5.27729e-14
6.80463e-14
8.54089e-14
1.02798e-13
1.18607e-13
1.27187e-13
1.24543e-13
1.0991e-13
8.87505e-14
6.874e-14
5.24052e-14
4.00877e-14
3.12642e-14
2.53389e-14
2.14374e-14
1.90888e-14
1.79644e-14
1.79062e-14
1.89491e-14
2.13443e-14
2.55951e-14
3.26347e-14
4.41678e-14
6.32487e-14
9.53721e-14
1.50795e-13
2.46586e-13
4.11528e-13
6.96477e-13
1.19574e-12
2.05487e-12
3.50777e-12
5.95161e-12
1.00366e-11
1.67829e-11
2.77335e-11
4.50277e-11
7.06583e-11
8.27658e-11
7.31541e-11
5.46521e-11
3.65904e-11
2.29345e-11
1.36403e-11
7.78507e-12
4.20619e-12
2.22172e-12
1.12113e-12
5.291e-13
2.27401e-13
8.77706e-14
2.96227e-14
8.6263e-15
2.04718e-15
4.24446e-16
8.00833e-17
1.26795e-17
1.76385e-18
2.57887e-19
4.15534e-20
7.06462e-21
1.25561e-21
2.31376e-22
4.36853e-23
8.313e-24
1.59559e-24
3.06641e-25
5.89024e-26
1.12936e-26
2.15973e-27
4.11826e-28
7.83489e-29
1.48478e-29
2.80688e-30
5.29629e-31
9.99196e-32
1.87965e-32
3.53169e-33
6.63093e-34
1.24439e-34
2.33459e-35
4.37945e-36
8.21321e-37
1.52785e-37
2.10824e-38
3.99889e-17
1.52453e-16
3.18075e-16
5.68065e-16
9.43465e-16
1.50286e-15
2.32878e-15
3.53396e-15
5.26629e-15
7.70993e-15
1.10847e-14
1.56524e-14
2.1727e-14
2.96657e-14
3.98271e-14
5.24344e-14
6.76247e-14
8.49799e-14
1.02455e-13
1.18508e-13
1.27629e-13
1.25774e-13
1.11786e-13
9.06802e-14
7.03316e-14
5.36423e-14
4.10794e-14
3.20211e-14
2.59278e-14
2.18909e-14
1.94617e-14
1.82824e-14
1.81945e-14
1.92228e-14
2.16401e-14
2.59534e-14
3.31233e-14
4.49026e-14
6.44587e-14
9.73564e-14
1.54302e-13
2.52884e-13
4.22749e-13
7.16223e-13
1.23066e-12
2.11598e-12
3.61074e-12
6.12753e-12
1.03331e-11
1.72668e-11
2.84938e-11
4.62576e-11
7.22075e-11
8.26992e-11
7.19762e-11
5.31941e-11
3.53547e-11
2.2023e-11
1.30287e-11
7.39981e-12
3.97516e-12
2.08826e-12
1.04673e-12
4.90342e-13
2.08543e-13
7.93008e-14
2.63778e-14
7.49571e-15
1.75626e-15
3.59194e-16
6.70802e-17
1.05268e-17
1.44212e-18
2.12479e-19
3.42698e-20
5.8276e-21
1.03541e-21
1.90612e-22
3.59645e-23
6.93003e-24
1.34432e-24
2.59636e-25
5.01236e-26
9.65753e-27
1.85531e-27
3.55287e-28
6.78984e-29
1.29264e-29
2.45436e-30
4.64898e-31
8.79174e-32
1.65901e-32
3.12586e-33
5.88244e-34
1.10593e-34
2.07778e-35
3.90196e-36
7.32352e-37
1.36305e-37
1.88117e-38
3.98336e-17
1.51862e-16
3.16841e-16
5.65855e-16
9.39771e-16
1.49691e-15
2.31939e-15
3.51938e-15
5.24392e-15
7.67594e-15
1.10336e-14
1.55766e-14
2.16173e-14
2.95118e-14
3.96189e-14
5.21679e-14
6.73049e-14
8.46383e-14
1.02165e-13
1.18428e-13
1.28006e-13
1.26778e-13
1.13361e-13
9.23233e-14
7.18239e-14
5.49461e-14
4.20983e-14
3.27993e-14
2.65192e-14
2.23682e-14
1.9837e-14
1.85719e-14
1.84784e-14
1.95128e-14
2.19628e-14
2.63505e-14
3.3666e-14
4.573e-14
6.57653e-14
9.96044e-14
1.58126e-13
2.59581e-13
4.34606e-13
7.37187e-13
1.26772e-12
2.18083e-12
3.71967e-12
6.3119e-12
1.0644e-11
1.7778e-11
2.9316e-11
4.74133e-11
7.36178e-11
8.24167e-11
7.06508e-11
5.17139e-11
3.41672e-11
2.11709e-11
1.24686e-11
7.05169e-12
3.77653e-12
1.97538e-12
9.82926e-13
4.55159e-13
1.91258e-13
7.18359e-14
2.36143e-14
6.63712e-15
1.53349e-15
3.09073e-16
5.71215e-17
8.81733e-18
1.19639e-18
1.78045e-19
2.88572e-20
4.93014e-21
8.79924e-22
1.62674e-22
3.07994e-23
5.90831e-24
1.14282e-24
2.22424e-25
4.32248e-26
8.37449e-27
1.61175e-27
3.09274e-28
5.92442e-29
1.13033e-29
2.15072e-30
4.08192e-31
7.73428e-32
1.46185e-32
2.75819e-33
5.19661e-34
9.77957e-35
1.83886e-35
3.45557e-36
6.48916e-37
1.20827e-37
1.66798e-38
3.96628e-17
1.51209e-16
3.15471e-16
5.63389e-16
9.35632e-16
1.49024e-15
2.30892e-15
3.5033e-15
5.21965e-15
7.63983e-15
1.09805e-14
1.55002e-14
2.15102e-14
2.93666e-14
3.94302e-14
5.19368e-14
6.70427e-14
8.43799e-14
1.01979e-13
1.18401e-13
1.28356e-13
1.27644e-13
1.14757e-13
9.3856e-14
7.32921e-14
5.61243e-14
4.30324e-14
3.35194e-14
2.7102e-14
2.28311e-14
2.02221e-14
1.89306e-14
1.87883e-14
1.98168e-14
2.22998e-14
2.67713e-14
3.42524e-14
4.66002e-14
6.71558e-14
1.01866e-13
1.62024e-13
2.66444e-13
4.46385e-13
7.57753e-13
1.30387e-12
2.2439e-12
3.82507e-12
6.49102e-12
1.09385e-11
1.82509e-11
3.0038e-11
4.84383e-11
7.47092e-11
8.19481e-11
6.92653e-11
5.01612e-11
3.29296e-11
2.02818e-11
1.18816e-11
6.68989e-12
3.57877e-12
1.86401e-12
9.23967e-13
4.24467e-13
1.76794e-13
6.57385e-14
2.15032e-14
5.8483e-15
1.33717e-15
2.67405e-16
4.86894e-17
7.43717e-18
1.00116e-18
1.50429e-19
2.4507e-20
4.20767e-21
7.5447e-22
1.40075e-22
2.66235e-23
5.12714e-24
9.93306e-25
1.92772e-25
3.73797e-26
7.23364e-27
1.40125e-27
2.7034e-28
5.20336e-29
9.9652e-30
1.90206e-30
3.61923e-31
6.87267e-32
1.30102e-32
2.45458e-33
4.62461e-34
8.70342e-35
1.63657e-35
3.07548e-36
5.77538e-37
1.07534e-37
1.48441e-38
3.94935e-17
1.50562e-16
3.14118e-16
5.60962e-16
9.31583e-16
1.48376e-15
2.29885e-15
3.48802e-15
5.19688e-15
7.60644e-15
1.09323e-14
1.54317e-14
2.14157e-14
2.92409e-14
3.927e-14
5.17455e-14
6.68324e-14
8.41843e-14
1.0186e-13
1.18437e-13
1.28758e-13
1.28506e-13
1.16097e-13
9.53867e-14
7.46329e-14
5.72004e-14
4.38743e-14
3.41565e-14
2.76091e-14
2.32368e-14
2.05574e-14
1.92303e-14
1.9073e-14
2.0106e-14
2.2624e-14
2.71736e-14
3.48103e-14
4.74272e-14
6.84512e-14
1.04018e-13
1.65754e-13
2.72861e-13
4.57377e-13
7.76694e-13
1.33644e-12
2.29902e-12
3.9132e-12
6.63481e-12
1.12236e-11
1.86896e-11
3.07206e-11
4.94533e-11
7.56429e-11
8.13911e-11
6.79456e-11
4.86446e-11
3.17985e-11
1.95023e-11
1.13802e-11
6.37017e-12
3.43308e-12
1.78059e-12
8.75638e-13
3.99072e-13
1.64892e-13
6.07848e-14
1.9826e-14
5.35049e-15
1.21185e-15
2.3962e-16
4.32644e-17
6.55027e-18
8.7571e-19
1.32404e-19
2.16324e-20
3.72437e-21
6.69453e-22
1.24555e-22
2.37151e-23
4.57463e-24
8.87411e-25
1.72421e-25
3.34678e-26
6.48072e-27
1.25106e-27
2.40677e-28
4.62218e-29
8.83527e-30
1.68386e-30
3.20031e-31
6.07283e-32
1.14919e-32
2.17407e-33
4.1051e-34
7.73905e-35
1.45715e-35
2.74096e-36
5.15057e-37
9.59364e-38
1.32449e-38
3.93328e-17
1.49949e-16
3.12836e-16
5.58666e-16
9.2776e-16
1.47767e-15
2.28943e-15
3.4738e-15
5.17587e-15
7.57594e-15
1.08887e-14
1.53706e-14
2.13327e-14
2.91324e-14
3.91346e-14
5.15882e-14
6.66666e-14
8.40421e-14
1.01799e-13
1.18518e-13
1.29165e-13
1.29373e-13
1.17307e-13
9.66374e-14
7.57292e-14
5.81285e-14
4.46239e-14
3.47541e-14
2.80716e-14
2.35972e-14
2.086e-14
1.95014e-14
1.93339e-14
2.03789e-14
2.29362e-14
2.75752e-14
3.53581e-14
4.82357e-14
6.97077e-14
1.06058e-13
1.69104e-13
2.78564e-13
4.67119e-13
7.93617e-13
1.36603e-12
2.35038e-12
3.99966e-12
6.77823e-12
1.14413e-11
1.90263e-11
3.12021e-11
5.0435e-11
7.63792e-11
8.08447e-11
6.68187e-11
4.73323e-11
3.08335e-11
1.88401e-11
1.09518e-11
6.10997e-12
3.28653e-12
1.69822e-12
8.32034e-13
3.76533e-13
1.54154e-13
5.63053e-14
1.81163e-14
4.85385e-15
1.09093e-15
2.14151e-16
3.8436e-17
5.78683e-18
7.687e-19
1.1692e-19
1.91522e-20
3.30394e-21
5.94795e-22
1.1081e-22
2.11221e-23
4.07913e-24
7.92004e-25
1.54016e-25
2.99211e-26
5.79902e-27
1.12045e-27
2.158e-28
4.14193e-29
7.92414e-30
1.51141e-30
2.87458e-31
5.45879e-32
1.03341e-32
1.95268e-33
3.68375e-34
6.94031e-35
1.30624e-35
2.4566e-36
4.61613e-37
8.59928e-38
1.18746e-38
3.91872e-17
1.49394e-16
3.11677e-16
5.56596e-16
9.24324e-16
1.47221e-15
2.28103e-15
3.46121e-15
5.15742e-15
7.54939e-15
1.08511e-14
1.53186e-14
2.12629e-14
2.90425e-14
3.90245e-14
5.14636e-14
6.65408e-14
8.39447e-14
1.01778e-13
1.18621e-13
1.29552e-13
1.30094e-13
1.18351e-13
9.77982e-14
7.67933e-14
5.89781e-14
4.5281e-14
3.5255e-14
2.84635e-14
2.3916e-14
2.1138e-14
1.97555e-14
1.95791e-14
2.06357e-14
2.32393e-14
2.79579e-14
3.58885e-14
4.90267e-14
7.09595e-14
1.08149e-13
1.72693e-13
2.84737e-13
4.77631e-13
8.11716e-13
1.39723e-12
2.40313e-12
4.0878e-12
6.92514e-12
1.16676e-11
1.9393e-11
3.17642e-11
5.11599e-11
7.68731e-11
8.02871e-11
6.57483e-11
4.63036e-11
3.00088e-11
1.82611e-11
1.0582e-11
5.88784e-12
3.1597e-12
1.62939e-12
7.95178e-13
3.57553e-13
1.45072e-13
5.23891e-14
1.66129e-14
4.42551e-15
9.85927e-16
1.91402e-16
3.39938e-17
5.07412e-18
6.69774e-19
1.02525e-19
1.68404e-20
2.91224e-21
5.25626e-22
9.8197e-23
1.8769e-23
3.63396e-24
7.07147e-25
1.37795e-25
2.68205e-26
5.20744e-27
1.00786e-27
1.94479e-28
3.73855e-29
7.16297e-30
1.36812e-30
2.60532e-31
4.95395e-32
9.38812e-33
1.77548e-33
3.35192e-34
6.31883e-35
1.18981e-35
2.23836e-36
4.20693e-37
7.83786e-38
1.08233e-38
3.90593e-17
1.48907e-16
3.10661e-16
5.54782e-16
9.21321e-16
1.46745e-15
2.27374e-15
3.45034e-15
5.14159e-15
7.52679e-15
1.08194e-14
1.52752e-14
2.12055e-14
2.89694e-14
3.89364e-14
5.13666e-14
6.6448e-14
8.38844e-14
1.01796e-13
1.18763e-13
1.29957e-13
1.30854e-13
1.19365e-13
9.87922e-14
7.76595e-14
5.96938e-14
4.58523e-14
3.56876e-14
2.88071e-14
2.42051e-14
2.13824e-14
1.99787e-14
1.9803e-14
2.08754e-14
2.35162e-14
2.8313e-14
3.63881e-14
4.97801e-14
7.21641e-14
1.10127e-13
1.76072e-13
2.90599e-13
4.87741e-13
8.29384e-13
1.42799e-12
2.45682e-12
4.18048e-12
7.08176e-12
1.19121e-11
1.98049e-11
3.2443e-11
5.19086e-11
7.73395e-11
7.97983e-11
6.48759e-11
4.54039e-11
2.93337e-11
1.78083e-11
1.02981e-11
5.71805e-12
3.05994e-12
1.57261e-12
7.64736e-13
3.43488e-13
1.36194e-13
4.89882e-14
1.56151e-14
4.13302e-15
9.13082e-16
1.76223e-16
3.10621e-17
4.60202e-18
6.07872e-19
9.3091e-20
1.52973e-20
2.65235e-21
4.80148e-22
8.99225e-23
1.72182e-23
3.33881e-24
6.5054e-25
1.26911e-25
2.47286e-26
4.80598e-27
9.30974e-28
1.79823e-28
3.45934e-29
6.63238e-30
1.26752e-30
2.41503e-31
4.59419e-32
8.70946e-33
1.64762e-33
3.11121e-34
5.86595e-35
1.10462e-35
2.07813e-36
3.90556e-37
7.27553e-38
1.00455e-38
3.895e-17
1.48491e-16
3.09793e-16
5.53236e-16
9.18764e-16
1.46341e-15
2.26757e-15
3.44117e-15
5.1283e-15
7.508e-15
1.07935e-14
1.52403e-14
2.11601e-14
2.89132e-14
3.88682e-14
5.12952e-14
6.63861e-14
8.3855e-14
1.01833e-13
1.18903e-13
1.30307e-13
1.3148e-13
1.20202e-13
9.9691e-14
7.84369e-14
6.03184e-14
4.63377e-14
3.60655e-14
2.91108e-14
2.44531e-14
2.15954e-14
2.01743e-14
1.99965e-14
2.10821e-14
2.37584e-14
2.86253e-14
3.6825e-14
5.04404e-14
7.32245e-14
1.11888e-13
1.79094e-13
2.95861e-13
4.9686e-13
8.45467e-13
1.45606e-12
2.50538e-12
4.26154e-12
7.21694e-12
1.2126e-11
2.01522e-11
3.29814e-11
5.26914e-11
7.77752e-11
7.93687e-11
6.40681e-11
4.46704e-11
2.87709e-11
1.74195e-11
1.00499e-11
5.56903e-12
2.9756e-12
1.52588e-12
7.39118e-13
3.30142e-13
1.30268e-13
4.64714e-14
1.46625e-14
3.8549e-15
8.45107e-16
1.62545e-16
2.84985e-17
4.19638e-18
5.59075e-19
8.60626e-20
1.41952e-20
2.46947e-21
4.48118e-22
8.40676e-23
1.61116e-23
3.12712e-24
6.09739e-25
1.19029e-25
2.32068e-26
4.5128e-27
8.74639e-28
1.69041e-28
3.25339e-29
6.24004e-30
1.19296e-30
2.27396e-31
4.3239e-32
8.19876e-33
1.55123e-33
2.92947e-34
5.5235e-35
1.04011e-35
1.95663e-36
3.67677e-37
6.84821e-38
9.45403e-39
3.88587e-17
1.48143e-16
3.09069e-16
5.51948e-16
9.16639e-16
1.46007e-15
2.26247e-15
3.43363e-15
5.11745e-15
7.49278e-15
1.07726e-14
1.52126e-14
2.11248e-14
2.88706e-14
3.88174e-14
5.12454e-14
6.63478e-14
8.38479e-14
1.0189e-13
1.19051e-13
1.30649e-13
1.3204e-13
1.20918e-13
1.00422e-13
7.90849e-14
6.08441e-14
4.67529e-14
3.63852e-14
2.93638e-14
2.46613e-14
2.17758e-14
2.03399e-14
2.01593e-14
2.12598e-14
2.3969e-14
2.88984e-14
3.7208e-14
5.10235e-14
7.41366e-14
1.13371e-13
1.81569e-13
3.00002e-13
5.03665e-13
8.62059e-13
1.48272e-12
2.54997e-12
4.33564e-12
7.33885e-12
1.23251e-11
2.04726e-11
3.34803e-11
5.34114e-11
7.81768e-11
7.90779e-11
6.34761e-11
4.40792e-11
2.83087e-11
1.71005e-11
9.84586e-12
5.44599e-12
2.90481e-12
1.48578e-12
7.17302e-13
3.18854e-13
1.25401e-13
4.43787e-14
1.34907e-14
3.54394e-15
7.73643e-16
1.49043e-16
2.607e-17
3.83496e-18
5.15899e-19
8.01993e-20
1.3321e-20
2.32777e-21
4.23435e-22
7.95437e-23
1.52548e-23
2.96228e-24
5.77786e-25
1.12825e-25
2.20038e-26
4.28023e-27
8.29842e-28
1.60445e-28
3.089e-29
5.92664e-30
1.13337e-30
2.16112e-31
4.10887e-32
7.79247e-33
1.47456e-33
2.78494e-34
5.25123e-35
9.88849e-36
1.86013e-36
3.49518e-37
6.5093e-38
8.98529e-39
3.87839e-17
1.47858e-16
3.08477e-16
5.50896e-16
9.14906e-16
1.45734e-15
2.25834e-15
3.42755e-15
5.10876e-15
7.48067e-15
1.07562e-14
1.5191e-14
2.10978e-14
2.88388e-14
3.87812e-14
5.12119e-14
6.63249e-14
8.38535e-14
1.0195e-13
1.19187e-13
1.30936e-13
1.32505e-13
1.21532e-13
1.01067e-13
7.96682e-14
6.13255e-14
4.71302e-14
3.66764e-14
2.95904e-14
2.48432e-14
2.19291e-14
2.04776e-14
2.02962e-14
2.14129e-14
2.41551e-14
2.91438e-14
3.75641e-14
5.1564e-14
7.50024e-14
1.14813e-13
1.84044e-13
3.04311e-13
5.1122e-13
8.75542e-13
1.50597e-12
2.58982e-12
4.40287e-12
7.45131e-12
1.25092e-11
2.07653e-11
3.39274e-11
5.44555e-11
7.87082e-11
7.8885e-11
6.29804e-11
4.35681e-11
2.79096e-11
1.68289e-11
9.67394e-12
5.3435e-12
2.84561e-12
1.4531e-12
6.99587e-13
3.09712e-13
1.2152e-13
4.28123e-14
1.29356e-14
3.3787e-15
7.33182e-16
1.41262e-16
2.45751e-17
3.59751e-18
4.86657e-19
7.58203e-20
1.26101e-20
2.20684e-21
4.01961e-22
7.55948e-23
1.45108e-23
2.82013e-24
5.50441e-25
1.07554e-25
2.09884e-26
4.08499e-27
7.924e-28
1.53285e-28
2.95243e-29
5.66681e-30
1.08405e-30
2.06778e-31
3.93239e-32
7.45939e-33
1.41179e-33
2.66678e-34
5.029e-35
9.47079e-36
1.78165e-36
3.34779e-37
6.23476e-38
8.60611e-39
3.87237e-17
1.47629e-16
3.08001e-16
5.5005e-16
9.13515e-16
1.45516e-15
2.25505e-15
3.42271e-15
5.10186e-15
7.4711e-15
1.07433e-14
1.51741e-14
2.10767e-14
2.88142e-14
3.87532e-14
5.11864e-14
6.6312e-14
8.38695e-14
1.02016e-13
1.19319e-13
1.31191e-13
1.32915e-13
1.22053e-13
1.01604e-13
8.01329e-14
6.17068e-14
4.74286e-14
3.69078e-14
2.97733e-14
2.49917e-14
2.20474e-14
2.05558e-14
2.04051e-14
2.15398e-14
2.43134e-14
2.93581e-14
3.78765e-14
5.205e-14
7.57982e-14
1.16166e-13
1.86422e-13
3.08559e-13
5.18807e-13
8.89099e-13
1.52987e-12
2.63165e-12
4.47479e-12
7.57426e-12
1.27175e-11
2.11176e-11
3.4518e-11
5.52196e-11
7.91165e-11
7.87108e-11
6.25695e-11
4.3172e-11
2.76033e-11
1.6618e-11
9.54076e-12
5.2632e-12
2.79947e-12
1.42716e-12
6.85369e-13
3.02361e-13
1.18403e-13
4.15541e-14
1.24982e-14
3.24959e-15
7.02232e-16
1.35345e-16
2.34694e-17
3.42517e-18
4.65051e-19
7.25036e-20
1.20652e-20
2.11431e-21
3.85656e-22
7.26158e-23
1.39511e-23
2.71312e-24
5.298e-25
1.03559e-25
2.02151e-26
3.93554e-27
7.63583e-28
1.47745e-28
2.84621e-29
5.46377e-30
1.04535e-30
1.99427e-31
3.79305e-32
7.19588e-33
1.36206e-33
2.57308e-34
4.85272e-35
9.13947e-36
1.71942e-36
3.23098e-37
6.01734e-38
8.30601e-39
3.86763e-17
1.47448e-16
3.07626e-16
5.49385e-16
9.12424e-16
1.45346e-15
2.25247e-15
3.41895e-15
5.09652e-15
7.46372e-15
1.07333e-14
1.51612e-14
2.10607e-14
2.8796e-14
3.87326e-14
5.11709e-14
6.6309e-14
8.3892e-14
1.02083e-13
1.19444e-13
1.31431e-13
1.33281e-13
1.22517e-13
1.02066e-13
8.05363e-14
6.20251e-14
4.76752e-14
3.70969e-14
2.99256e-14
2.51211e-14
2.21708e-14
2.07022e-14
2.05206e-14
2.16577e-14
2.44513e-14
2.95403e-14
3.81414e-14
5.24661e-14
7.64875e-14
1.17348e-13
1.88504e-13
3.12215e-13
5.25222e-13
9.00498e-13
1.55008e-12
2.66728e-12
4.53663e-12
7.68115e-12
1.29006e-11
2.14272e-11
3.50327e-11
5.58532e-11
7.94487e-11
7.85913e-11
6.22578e-11
4.28586e-11
2.73544e-11
1.64459e-11
9.43052e-12
5.19751e-12
2.76153e-12
1.4056e-12
6.73616e-13
2.96336e-13
1.15863e-13
4.05384e-14
1.21346e-14
3.14227e-15
6.76919e-16
1.30504e-16
2.25794e-17
3.28746e-18
4.48141e-19
7.00131e-20
1.16713e-20
2.0495e-21
3.74512e-22
7.06118e-23
1.35767e-23
2.64133e-24
5.15829e-25
1.00822e-25
1.96779e-26
3.83025e-27
7.43011e-28
1.43742e-28
2.76866e-29
5.31419e-30
1.01663e-30
1.93935e-31
3.6884e-32
6.99711e-33
1.3244e-33
2.5019e-34
4.71842e-35
8.88639e-36
1.67177e-36
3.14136e-37
5.85022e-38
8.07503e-39
3.86399e-17
1.4731e-16
3.07339e-16
5.48877e-16
9.11592e-16
1.45216e-15
2.25052e-15
3.41611e-15
5.09252e-15
7.45823e-15
1.0726e-14
1.51519e-14
2.10496e-14
2.8784e-14
3.87201e-14
5.11636e-14
6.63132e-14
8.3919e-14
1.02148e-13
1.19556e-13
1.31624e-13
1.33571e-13
1.22873e-13
1.02429e-13
8.08515e-14
6.22761e-14
4.78717e-14
3.72498e-14
3.00479e-14
2.5223e-14
2.22605e-14
2.07871e-14
2.06089e-14
2.17533e-14
2.45677e-14
2.96989e-14
3.83749e-14
5.28325e-14
7.70904e-14
1.18373e-13
1.9029e-13
3.1536e-13
5.30747e-13
9.10223e-13
1.56708e-12
2.69669e-12
4.58637e-12
7.76408e-12
1.30372e-11
2.16459e-11
3.53661e-11
5.63051e-11
7.96961e-11
7.85145e-11
6.20273e-11
4.26242e-11
2.71661e-11
1.63131e-11
9.345e-12
5.14543e-12
2.73121e-12
1.38853e-12
6.6426e-13
2.91511e-13
1.1384e-13
3.97385e-14
1.18693e-14
3.06265e-15
6.58009e-16
1.26946e-16
2.19185e-17
3.1856e-18
4.35919e-19
6.81991e-20
1.13742e-20
1.99825e-21
3.65339e-22
6.89244e-23
1.32594e-23
2.58064e-24
5.04088e-25
9.85363e-26
1.92321e-26
3.74336e-27
7.26124e-28
1.40473e-28
2.70561e-29
5.19312e-30
9.93469e-31
1.89524e-31
3.60459e-32
6.8383e-33
1.29439e-33
2.44526e-34
4.61171e-35
8.68556e-36
1.634e-36
3.07039e-37
5.71798e-38
7.89238e-39
3.86131e-17
1.47208e-16
3.07127e-16
5.48503e-16
9.10981e-16
1.45121e-15
2.2491e-15
3.41407e-15
5.08968e-15
7.45441e-15
1.0721e-14
1.51457e-14
2.10424e-14
2.87767e-14
3.87128e-14
5.1161e-14
6.63207e-14
8.3946e-14
1.02206e-13
1.19654e-13
1.31795e-13
1.33821e-13
1.23176e-13
1.02727e-13
8.1107e-14
6.24824e-14
4.80327e-14
3.73733e-14
3.01457e-14
2.53039e-14
2.2331e-14
2.08523e-14
2.06746e-14
2.1827e-14
2.46595e-14
2.98229e-14
3.85573e-14
5.31191e-14
7.75627e-14
1.19177e-13
1.91695e-13
3.17831e-13
5.35105e-13
9.17993e-13
1.58077e-12
2.72063e-12
4.62748e-12
7.83436e-12
1.31561e-11
2.18458e-11
3.57024e-11
5.68724e-11
7.99679e-11
7.84569e-11
6.1836e-11
4.24542e-11
2.70347e-11
1.62211e-11
9.28519e-12
5.10866e-12
2.70956e-12
1.37618e-12
6.57436e-13
2.87949e-13
1.12351e-13
3.91642e-14
1.17214e-14
3.01593e-15
6.46845e-16
1.24873e-16
2.15287e-17
3.12499e-18
4.29281e-19
6.72437e-20
1.12101e-20
1.96702e-21
3.59122e-22
6.76783e-23
1.3011e-23
2.53149e-24
4.94418e-25
9.66428e-26
1.88629e-26
3.6717e-27
7.12271e-28
1.37806e-28
2.65446e-29
5.09534e-30
9.74837e-31
1.85985e-31
3.53752e-32
6.7115e-33
1.27045e-33
2.40017e-34
4.52684e-35
8.52602e-36
1.60403e-36
3.01412e-37
5.61325e-38
7.74783e-39
3.85945e-17
1.47138e-16
3.06981e-16
5.48246e-16
9.10564e-16
1.45057e-15
2.24815e-15
3.41271e-15
5.0878e-15
7.45187e-15
1.07177e-14
1.51415e-14
2.10375e-14
2.87717e-14
3.87082e-14
5.11603e-14
6.6328e-14
8.39677e-14
1.02251e-13
1.19727e-13
1.31918e-13
1.34e-13
1.2339e-13
1.0294e-13
8.12898e-14
6.26282e-14
4.8146e-14
3.74605e-14
3.0215e-14
2.53613e-14
2.23808e-14
2.08987e-14
2.07206e-14
2.18799e-14
2.47256e-14
2.99131e-14
3.86908e-14
5.33296e-14
7.79108e-14
1.19771e-13
1.92735e-13
3.19661e-13
5.38311e-13
9.23649e-13
1.59071e-12
2.73792e-12
4.65691e-12
7.8838e-12
1.32375e-11
2.19761e-11
3.58994e-11
5.71345e-11
8.00956e-11
7.83712e-11
6.1593e-11
4.24701e-11
2.69954e-11
1.61773e-11
9.25125e-12
5.08599e-12
2.69553e-12
1.36783e-12
6.52679e-13
2.85433e-13
1.11312e-13
3.88451e-14
1.19264e-14
3.04967e-15
6.51937e-16
1.25721e-16
2.16257e-17
3.13237e-18
4.29158e-19
6.67577e-20
1.10714e-20
1.93833e-21
3.53657e-22
6.66467e-23
1.2814e-23
2.49348e-24
4.87043e-25
9.52099e-26
1.85848e-26
3.61785e-27
7.01879e-28
1.35807e-28
2.61615e-29
5.02216e-30
9.60898e-31
1.83338e-31
3.48736e-32
6.61663e-33
1.25255e-33
2.36646e-34
4.46345e-35
8.40692e-36
1.58167e-36
2.97218e-37
5.53522e-38
7.64018e-39
3.85829e-17
1.47093e-16
3.0689e-16
5.48084e-16
9.10299e-16
1.45016e-15
2.24754e-15
3.41182e-15
5.08655e-15
7.45018e-15
1.07155e-14
1.51387e-14
2.10345e-14
2.87689e-14
3.87058e-14
5.11608e-14
6.6334e-14
8.39834e-14
1.02282e-13
1.19776e-13
1.31998e-13
1.34115e-13
1.23529e-13
1.03078e-13
8.14081e-14
6.27225e-14
4.82192e-14
3.75176e-14
3.02616e-14
2.53989e-14
2.24135e-14
2.09293e-14
2.07519e-14
2.19146e-14
2.47683e-14
2.99712e-14
3.87767e-14
5.34653e-14
7.81356e-14
1.20157e-13
1.93414e-13
3.20868e-13
5.40455e-13
9.27482e-13
1.59753e-12
2.74999e-12
4.67791e-12
7.92017e-12
1.33e-11
2.20819e-11
3.6075e-11
5.74149e-11
8.02386e-11
7.83535e-11
6.15113e-11
4.24004e-11
2.69411e-11
1.61385e-11
9.22541e-12
5.0698e-12
2.68581e-12
1.36217e-12
6.49491e-13
2.83763e-13
1.1061e-13
3.85667e-14
1.18286e-14
3.02181e-15
6.45699e-16
1.24602e-16
2.14231e-17
3.10151e-18
4.25195e-19
6.60949e-20
1.09542e-20
1.91748e-21
3.49903e-22
6.59542e-23
1.26832e-23
2.46841e-24
4.82199e-25
9.4271e-26
1.84029e-26
3.58266e-27
6.9509e-28
1.34503e-28
2.59117e-29
4.97448e-30
9.51827e-31
1.81618e-31
3.45482e-32
6.55519e-33
1.24096e-33
2.34462e-34
4.42232e-35
8.32953e-36
1.56712e-36
2.94483e-37
5.48426e-38
7.5698e-39
3.85771e-17
1.47071e-16
3.06844e-16
5.48004e-16
9.10168e-16
1.44995e-15
2.24724e-15
3.41139e-15
5.08596e-15
7.4494e-15
1.07145e-14
1.51375e-14
2.10331e-14
2.87677e-14
3.87049e-14
5.11615e-14
6.63376e-14
8.39921e-14
1.02298e-13
1.19802e-13
1.3204e-13
1.34175e-13
1.236e-13
1.03148e-13
8.14677e-14
6.277e-14
4.8256e-14
3.75459e-14
3.02839e-14
2.54175e-14
2.24301e-14
2.09456e-14
2.07702e-14
2.19326e-14
2.47891e-14
2.99985e-14
3.8816e-14
5.35259e-14
7.82339e-14
1.20321e-13
1.93699e-13
3.21366e-13
5.41329e-13
9.29044e-13
1.60033e-12
2.75508e-12
4.68717e-12
7.93735e-12
1.33328e-11
2.21471e-11
3.62111e-11
5.77222e-11
8.0384e-11
7.8368e-11
6.15072e-11
4.23051e-11
2.68915e-11
1.61095e-11
9.20815e-12
5.05971e-12
2.68004e-12
1.35891e-12
6.47694e-13
2.82835e-13
1.10221e-13
3.84111e-14
1.17651e-14
3.00316e-15
6.41435e-16
1.23798e-16
2.12782e-17
3.07963e-18
4.22446e-19
6.56885e-20
1.08893e-20
1.90652e-21
3.47955e-22
6.5594e-23
1.26149e-23
2.45524e-24
4.79641e-25
9.37731e-26
1.83061e-26
3.5639e-27
6.91469e-28
1.33807e-28
2.57785e-29
4.94909e-30
9.47007e-31
1.80706e-31
3.43761e-32
6.52279e-33
1.23488e-33
2.33322e-34
4.40098e-35
8.28961e-36
1.55965e-36
2.93086e-37
5.45832e-38
7.53405e-39
3.8577e-17
1.47071e-16
3.06843e-16
5.48003e-16
9.10166e-16
1.44995e-15
2.24723e-15
3.41139e-15
5.08596e-15
7.4494e-15
1.07145e-14
1.51376e-14
2.10332e-14
2.87679e-14
3.87052e-14
5.1162e-14
6.63383e-14
8.39932e-14
1.023e-13
1.19804e-13
1.32042e-13
1.34177e-13
1.23602e-13
1.03149e-13
8.14685e-14
6.27703e-14
4.8256e-14
3.75455e-14
3.02827e-14
2.54168e-14
2.24295e-14
2.09449e-14
2.07689e-14
2.19317e-14
2.47879e-14
2.99962e-14
3.88113e-14
5.35158e-14
7.82122e-14
1.20275e-13
1.936e-13
3.21158e-13
5.40891e-13
9.28113e-13
1.59835e-12
2.75083e-12
4.67808e-12
7.91768e-12
1.32897e-11
2.20512e-11
3.59934e-11
5.7649e-11
8.03805e-11
7.84547e-11
6.16381e-11
4.22184e-11
2.68385e-11
1.60815e-11
9.19438e-12
5.05326e-12
2.67712e-12
1.35764e-12
6.47167e-13
2.8263e-13
1.10149e-13
3.83872e-14
1.17555e-14
3.00072e-15
6.40926e-16
1.237e-16
2.12614e-17
3.07723e-18
4.22141e-19
6.56467e-20
1.08832e-20
1.9056e-21
3.47804e-22
6.55681e-23
1.26103e-23
2.45443e-24
4.79499e-25
9.37484e-26
1.83018e-26
3.56319e-27
6.91355e-28
1.33789e-28
2.57757e-29
4.94869e-30
9.46949e-31
1.80698e-31
3.43751e-32
6.5227e-33
1.23488e-33
2.33323e-34
4.40104e-35
8.28977e-36
1.55969e-36
2.93093e-37
5.45848e-38
7.53427e-39
3.85826e-17
1.47092e-16
3.06888e-16
5.4808e-16
9.10292e-16
1.45015e-15
2.24752e-15
3.4118e-15
5.08653e-15
7.45018e-15
1.07155e-14
1.51388e-14
2.10347e-14
2.87694e-14
3.87066e-14
5.11622e-14
6.63361e-14
8.39866e-14
1.02286e-13
1.19782e-13
1.32005e-13
1.34122e-13
1.23535e-13
1.03082e-13
8.14103e-14
6.27234e-14
4.82191e-14
3.75166e-14
3.02593e-14
2.53975e-14
2.24124e-14
2.09285e-14
2.07513e-14
2.1913e-14
2.47653e-14
2.9965e-14
3.87639e-14
5.34387e-14
7.80809e-14
1.20045e-13
1.9319e-13
3.20429e-13
5.39608e-13
9.25865e-13
1.5945e-12
2.74445e-12
4.66808e-12
7.90322e-12
1.32719e-11
2.20383e-11
3.60148e-11
5.73551e-11
8.0247e-11
7.84497e-11
6.16843e-11
4.22578e-11
2.68672e-11
1.61008e-11
9.20668e-12
5.06076e-12
2.68157e-12
1.36021e-12
6.48609e-13
2.83395e-13
1.10472e-13
3.85189e-14
1.18086e-14
3.01662e-15
6.44614e-16
1.2439e-16
2.1387e-17
3.09631e-18
4.24531e-19
6.60039e-20
1.0941e-20
1.91539e-21
3.49545e-22
6.58899e-23
1.26714e-23
2.46623e-24
4.81794e-25
9.41965e-26
1.83893e-26
3.58024e-27
6.94666e-28
1.3443e-28
2.58992e-29
4.97239e-30
9.51483e-31
1.81562e-31
3.45393e-32
6.55383e-33
1.24077e-33
2.34435e-34
4.422e-35
8.32924e-36
1.56711e-36
2.94489e-37
5.48449e-38
7.5702e-39
3.85944e-17
1.47137e-16
3.0698e-16
5.48244e-16
9.10559e-16
1.45056e-15
2.24813e-15
3.41268e-15
5.08776e-15
7.45182e-15
1.07177e-14
1.51415e-14
2.10378e-14
2.87723e-14
3.87094e-14
5.11623e-14
6.63311e-14
8.39721e-14
1.02257e-13
1.19734e-13
1.31925e-13
1.34006e-13
1.23395e-13
1.02942e-13
8.12901e-14
6.26274e-14
4.81442e-14
3.74588e-14
3.02133e-14
2.53597e-14
2.23792e-14
2.08972e-14
2.07192e-14
2.18773e-14
2.47211e-14
2.99046e-14
3.8674e-14
5.32958e-14
7.78425e-14
1.19634e-13
1.92463e-13
3.1913e-13
5.37294e-13
9.21704e-13
1.58705e-12
2.73117e-12
4.64473e-12
7.86219e-12
1.31997e-11
2.1911e-11
3.57894e-11
5.71692e-11
8.01454e-11
7.84765e-11
6.17675e-11
4.2342e-11
2.69343e-11
1.61475e-11
9.23668e-12
5.07888e-12
2.69207e-12
1.36618e-12
6.51881e-13
2.85081e-13
1.11176e-13
3.87958e-14
1.19068e-14
3.0447e-15
6.50931e-16
1.25536e-16
2.15951e-17
3.12815e-18
4.28628e-19
6.66782e-20
1.10577e-20
1.93589e-21
3.53228e-22
6.65715e-23
1.28007e-23
2.49113e-24
4.86626e-25
9.51364e-26
1.85721e-26
3.61569e-27
7.01523e-28
1.35751e-28
2.61531e-29
5.021e-30
9.60761e-31
1.83327e-31
3.48744e-32
6.61727e-33
1.25275e-33
2.36696e-34
4.46459e-35
8.40937e-36
1.58217e-36
2.97318e-37
5.53714e-38
7.64286e-39
3.86131e-17
1.47208e-16
3.07128e-16
5.48504e-16
9.10984e-16
1.45122e-15
2.24912e-15
3.41409e-15
5.08972e-15
7.45448e-15
1.07212e-14
1.51459e-14
2.10428e-14
2.87774e-14
3.87142e-14
5.11634e-14
6.63244e-14
8.39511e-14
1.02213e-13
1.19662e-13
1.31803e-13
1.33829e-13
1.23181e-13
1.02729e-13
8.11072e-14
6.24813e-14
4.80311e-14
3.7371e-14
3.01435e-14
2.53017e-14
2.23286e-14
2.08501e-14
2.06722e-14
2.18236e-14
2.46541e-14
2.98134e-14
3.85395e-14
5.3084e-14
7.7493e-14
1.19038e-13
1.91419e-13
3.17287e-13
5.34057e-13
9.15952e-13
1.57687e-12
2.71322e-12
4.61357e-12
7.80795e-12
1.31058e-11
2.17488e-11
3.55092e-11
5.69037e-11
7.99957e-11
7.85054e-11
6.1878e-11
4.24717e-11
2.70412e-11
1.62226e-11
9.28489e-12
5.10799e-12
2.70899e-12
1.3757e-12
6.57102e-13
2.87748e-13
1.12259e-13
3.91401e-14
1.1731e-14
3.02097e-15
6.48496e-16
1.25261e-16
2.16068e-17
3.13763e-18
4.30896e-19
6.74001e-20
1.12207e-20
1.96704e-21
3.58926e-22
6.76228e-23
1.29989e-23
2.52911e-24
4.93968e-25
9.65601e-26
1.88481e-26
3.66913e-27
7.11839e-28
1.37737e-28
2.6534e-29
5.09383e-30
9.74646e-31
1.85966e-31
3.53748e-32
6.71195e-33
1.27063e-33
2.40067e-34
4.52805e-35
8.5287e-36
1.6046e-36
3.01527e-37
5.61547e-38
7.75096e-39
3.86398e-17
1.4731e-16
3.07338e-16
5.48877e-16
9.11593e-16
1.45216e-15
2.25053e-15
3.41614e-15
5.09258e-15
7.45838e-15
1.07263e-14
1.51524e-14
2.10504e-14
2.87853e-14
3.87221e-14
5.11666e-14
6.63178e-14
8.39257e-14
1.02157e-13
1.19566e-13
1.31635e-13
1.33581e-13
1.2288e-13
1.02433e-13
8.08529e-14
6.2276e-14
4.7871e-14
3.72488e-14
3.00468e-14
2.52215e-14
2.22593e-14
2.07856e-14
2.06065e-14
2.17499e-14
2.45629e-14
2.96902e-14
3.83593e-14
5.28036e-14
7.70356e-14
1.18269e-13
1.90093e-13
3.14997e-13
5.30088e-13
9.09055e-13
1.56503e-12
2.69322e-12
4.58078e-12
7.75587e-12
1.30266e-11
2.16368e-11
3.53774e-11
5.64048e-11
7.97067e-11
7.84546e-11
6.18882e-11
4.27648e-11
2.72289e-11
1.63406e-11
9.35641e-12
5.14981e-12
2.73261e-12
1.38883e-12
6.64219e-13
2.91421e-13
1.13822e-13
3.98428e-14