/*--------------------------------*- C++ -*----------------------------------*\
  =========                 |
  \\      /  F ield         | OpenFOAM: The Open Source CFD Toolbox
   \\    /   O peration     | Website:  https://openfoam.org
    \\  /    A nd           | Version:  10
     \\/     M anipulation  |
\*---------------------------------------------------------------------------*/
FoamFile
{
    format      ascii;
    class       volScalarField;
    location    "1";
    object      N;
}
// * * * * * * * * * * * * * * * * * * * * * * * * * * * * * * * * * * * * * //

dimensions      [0 0 0 0 0 0 0];

internalField   nonuniform List<scalar> 
4000
(
3.3329e-15
1.27093e-14
2.65355e-14
4.74632e-14
7.90555e-14
1.26559e-13
1.97711e-13
3.03828e-13
4.61335e-13
6.94013e-13
1.03688e-12
1.54392e-12
2.3013e-12
3.45022e-12
5.22426e-12
7.99925e-12
1.24465e-11
1.96686e-11
3.09887e-11
5.00238e-11
8.00133e-11
1.28137e-10
2.0541e-10
3.20308e-10
4.8963e-10
7.31641e-10
1.07021e-09
1.53681e-09
2.16051e-09
3.00746e-09
4.15349e-09
5.72216e-09
7.91875e-09
1.10301e-08
1.54829e-08
2.18395e-08
3.07307e-08
4.28518e-08
5.92837e-08
8.14387e-08
1.12103e-07
1.55083e-07
2.16144e-07
3.04242e-07
4.34427e-07
6.22662e-07
8.87239e-07
1.24745e-06
1.71309e-06
2.25078e-06
2.71604e-06
2.69629e-06
1.49551e-06
8.22581e-07
4.46134e-07
2.37506e-07
1.23523e-07
6.25621e-08
3.07316e-08
1.45931e-08
6.65406e-09
2.90649e-09
1.2019e-09
4.6745e-10
1.70151e-10
5.68476e-11
1.7547e-11
4.94598e-12
1.20561e-12
2.57089e-13
4.97775e-14
8.04415e-15
1.12802e-15
1.38942e-16
1.52497e-17
1.53138e-18
1.43718e-19
1.28671e-20
1.11717e-21
1.02716e-22
1.0677e-23
1.36081e-24
2.20647e-25
4.48551e-26
1.09806e-26
3.0565e-27
9.22883e-28
2.92111e-28
9.48364e-29
3.11163e-29
1.0321e-29
3.43508e-30
1.14499e-30
3.81899e-31
1.27404e-31
4.24897e-32
1.41391e-32
4.65319e-33
1.44841e-33
2.8618e-34
3.30291e-15
1.25939e-14
2.62915e-14
4.70221e-14
7.83064e-14
1.25302e-13
1.95653e-13
3.00477e-13
4.55857e-13
6.85005e-13
1.02202e-12
1.51955e-12
2.2602e-12
3.38214e-12
5.11376e-12
7.82062e-12
1.2136e-11
1.9129e-11
3.01231e-11
4.8718e-11
7.79464e-11
1.24641e-10
1.99949e-10
3.12821e-10
4.79347e-10
7.18395e-10
1.05321e-09
1.51786e-09
2.13794e-09
2.98135e-09
4.1229e-09
5.68148e-09
7.87199e-09
1.09852e-08
1.54429e-08
2.18143e-08
3.07448e-08
4.29445e-08
5.95126e-08
8.18826e-08
1.12873e-07
1.5635e-07
2.18129e-07
3.07402e-07
4.39407e-07
6.30384e-07
8.98755e-07
1.2643e-06
1.73704e-06
2.28228e-06
2.75161e-06
2.72249e-06
1.50643e-06
8.27387e-07
4.48105e-07
2.38462e-07
1.2303e-07
6.22098e-08
3.04992e-08
1.44606e-08
6.5367e-09
2.84214e-09
1.16954e-09
4.52465e-10
1.63429e-10
5.44804e-11
1.66939e-11
4.66167e-12
1.12273e-12
2.36311e-13
4.51785e-14
7.23461e-15
1.00755e-15
1.22978e-16
1.34773e-17
1.35343e-18
1.27306e-19
1.14341e-20
9.96421e-22
9.19241e-23
9.57469e-24
1.22058e-24
1.9741e-25
4.0124e-26
9.76756e-27
2.70838e-27
8.16825e-28
2.58727e-28
8.4271e-29
2.79352e-29
9.27223e-30
3.09419e-30
1.03451e-30
3.46106e-31
1.15823e-31
3.87509e-32
1.29372e-32
4.27161e-33
1.33359e-33
2.64011e-34
3.26504e-15
1.2449e-14
2.59879e-14
4.64772e-14
7.74018e-14
1.23887e-13
1.93393e-13
2.96807e-13
4.49807e-13
6.74853e-13
1.00456e-12
1.48847e-12
2.20898e-12
3.29935e-12
4.98008e-12
7.60618e-12
1.18034e-11
1.85543e-11
2.91601e-11
4.71217e-11
7.5418e-11
1.20914e-10
1.93547e-10
3.05875e-10
4.69011e-10
7.04281e-10
1.0346e-09
1.49476e-09
2.1095e-09
2.94788e-09
4.08377e-09
5.63668e-09
7.82395e-09
1.09321e-08
1.53988e-08
2.17966e-08
3.07892e-08
4.31107e-08
5.98948e-08
8.26253e-08
1.14129e-07
1.58371e-07
2.2134e-07
3.12566e-07
4.47544e-07
6.42996e-07
9.17598e-07
1.2919e-06
1.77481e-06
2.33029e-06
2.80241e-06
2.75388e-06
1.52241e-06
8.34069e-07
4.50497e-07
2.38988e-07
1.2291e-07
6.19167e-08
3.02459e-08
1.43105e-08
6.37791e-09
2.75869e-09
1.12825e-09
4.33234e-10
1.55147e-10
5.14478e-11
1.56037e-11
4.30757e-12
1.02372e-12
2.12575e-13
4.01616e-14
6.36342e-15
8.81573e-16
1.0756e-16
1.17759e-17
1.18386e-18
1.11547e-19
1.00428e-20
8.77555e-22
8.09952e-23
8.43952e-24
1.07474e-24
1.73631e-25
3.52257e-26
8.60145e-27
2.39566e-27
7.25546e-28
2.30383e-28
7.51286e-29
2.48554e-29
8.29714e-30
2.77136e-30
9.26829e-31
3.10207e-31
1.03864e-31
3.47704e-32
1.16166e-32
3.83889e-33
1.19963e-33
2.37676e-34
3.21765e-15
1.22668e-14
2.56007e-14
4.57649e-14
7.61664e-14
1.21795e-13
1.89959e-13
2.91276e-13
4.41026e-13
6.6111e-13
9.83448e-13
1.45687e-12
2.15995e-12
3.22158e-12
4.85496e-12
7.4033e-12
1.14709e-11
1.8048e-11
2.83713e-11
4.57327e-11
7.31759e-11
1.17355e-10
1.88099e-10
2.98365e-10
4.59082e-10
6.91144e-10
1.0169e-09
1.47294e-09
2.08318e-09
2.91804e-09
4.05005e-09
5.59889e-09
7.78298e-09
1.08909e-08
1.53735e-08
2.18088e-08
3.0881e-08
4.33639e-08
6.04229e-08
8.35483e-08
1.15699e-07
1.60951e-07
2.25449e-07
3.18966e-07
4.57503e-07
6.58276e-07
9.4006e-07
1.32478e-06
1.8208e-06
2.38847e-06
2.86192e-06
2.78085e-06
1.5336e-06
8.3785e-07
4.51078e-07
2.38409e-07
1.22228e-07
6.13001e-08
2.97985e-08
1.40245e-08
6.20467e-09
2.66327e-09
1.08046e-09
4.11959e-10
1.46309e-10
4.7987e-11
1.43997e-11
3.92676e-12
9.20509e-13
1.88393e-13
3.51831e-14
5.51904e-15
7.53189e-16
9.06619e-17
9.81922e-18
9.79473e-19
9.17717e-20
8.23143e-21
7.17644e-22
6.67721e-23
7.02398e-24
8.99967e-25
1.4621e-25
2.98238e-26
7.32284e-27
2.05155e-27
6.25568e-28
2.00112e-28
6.57161e-29
2.18676e-29
7.32411e-30
2.458e-30
8.25366e-31
2.77093e-31
9.29791e-32
3.11741e-32
1.04254e-32
3.44708e-33
1.07735e-33
2.13421e-34
3.17278e-15
1.20955e-14
2.52419e-14
4.51184e-14
7.50774e-14
1.20025e-13
1.87142e-13
2.86849e-13
4.34118e-13
6.50366e-13
9.66736e-13
1.43081e-12
2.11904e-12
3.15685e-12
4.75156e-12
7.23701e-12
1.12002e-11
1.76031e-11
2.76418e-11
4.456e-11
7.1352e-11
1.1451e-10
1.83522e-10
2.91914e-10
4.49817e-10
6.78064e-10
1.00047e-09
1.45305e-09
2.05999e-09
2.89154e-09
4.02217e-09
5.56896e-09
7.75455e-09
1.0867e-08
1.53717e-08
2.18529e-08
3.1015e-08
4.3682e-08
6.10232e-08
8.46194e-08
1.17433e-07
1.63706e-07
2.2978e-07
3.25696e-07
4.67891e-07
6.74041e-07
9.62791e-07
1.35697e-06
1.86426e-06
2.44027e-06
2.90724e-06
2.78126e-06
1.53099e-06
8.34368e-07
4.47883e-07
2.35913e-07
1.20656e-07
6.02695e-08
2.91681e-08
1.36591e-08
6.01447e-09
2.56594e-09
1.03306e-09
3.90334e-10
1.37329e-10
4.46039e-11
1.32521e-11
3.57261e-12
8.25453e-13
1.66378e-13
3.07348e-14
4.74453e-15
6.40611e-16
7.64814e-17
8.23807e-18
8.19266e-19
7.66449e-20
6.87217e-21
5.99354e-22
5.57518e-23
5.87852e-24
7.60254e-25
1.24593e-25
2.56108e-26
6.30773e-27
1.77318e-27
5.42822e-28
1.74332e-28
5.74736e-29
1.91935e-29
6.44911e-30
2.17012e-30
7.30221e-31
2.45557e-31
8.25082e-32
2.76927e-32
9.26868e-33
3.06648e-33
9.58801e-34
1.89975e-34
3.13103e-15
1.19363e-14
2.49087e-14
4.45196e-14
7.4072e-14
1.18397e-13
1.84559e-13
2.828e-13
4.2782e-13
6.40605e-13
9.51621e-13
1.40738e-12
2.08267e-12
3.10014e-12
4.66259e-12
7.09708e-12
1.09786e-11
1.72518e-11
2.70919e-11
4.36437e-11
6.98912e-11
1.12201e-10
1.79639e-10
2.8625e-10
4.41589e-10
6.67547e-10
9.87e-10
1.43679e-09
2.04058e-09
2.87098e-09
4.00161e-09
5.5491e-09
7.73749e-09
1.08609e-08
1.53919e-08
2.19271e-08
3.11896e-08
4.40459e-08
6.1688e-08
8.57186e-08
1.19217e-07
1.6654e-07
2.34069e-07
3.32228e-07
4.7784e-07
6.88997e-07
9.84162e-07
1.38712e-06
1.90337e-06
2.4841e-06
2.93727e-06
2.75308e-06
1.51186e-06
8.21739e-07
4.39798e-07
2.30595e-07
1.17594e-07
5.84615e-08
2.81471e-08
1.31086e-08
5.76065e-09
2.44245e-09
9.78446e-10
3.6724e-10
1.28307e-10
4.13425e-11
1.2228e-11
3.18245e-12
7.27024e-13
1.45266e-13
2.64355e-14
4.03554e-15
5.40071e-16
6.40557e-17
6.86845e-18
6.81339e-19
6.3656e-20
5.70553e-21
4.97792e-22
4.65088e-23
4.93139e-24
6.40686e-25
1.05429e-25
2.1747e-26
5.42006e-27
1.53832e-27
4.74558e-28
1.53281e-28
5.07489e-29
1.70004e-29
5.72525e-30
1.9288e-30
6.48101e-31
2.1778e-31
7.31499e-32
2.45488e-32
8.21634e-33
2.7184e-33
8.49988e-34
1.68416e-34
3.0931e-15
1.17917e-14
2.46063e-14
4.3977e-14
7.31625e-14
1.16926e-13
1.82232e-13
2.79165e-13
4.22184e-13
6.31899e-13
9.38186e-13
1.38664e-12
2.05055e-12
3.0502e-12
4.58436e-12
6.97393e-12
1.07826e-11
1.69373e-11
2.65898e-11
4.27957e-11
6.85543e-11
1.10207e-10
1.76321e-10
2.81282e-10
4.35001e-10
6.59039e-10
9.7637e-10
1.42443e-09
2.0265e-09
2.85652e-09
3.98804e-09
5.5373e-09
7.73012e-09
1.08685e-08
1.54279e-08
2.20172e-08
3.13756e-08
4.44042e-08
6.23187e-08
8.6767e-08
1.20913e-07
1.69156e-07
2.38003e-07
3.38121e-07
4.86565e-07
7.01561e-07
1.00088e-06
1.40865e-06
1.93395e-06
2.51017e-06
2.93627e-06
2.67244e-06
1.46618e-06
7.95846e-07
4.25347e-07
2.21372e-07
1.12805e-07
5.59194e-08
2.68299e-08
1.24113e-08
5.5013e-09
2.31989e-09
9.2166e-10
3.43592e-10
1.19303e-10
3.81768e-11
1.12089e-11
2.88706e-12
6.53347e-13
1.29082e-13
2.32877e-14
3.52241e-15
4.67913e-16
5.51506e-17
5.88598e-18
5.82136e-19
5.4281e-20
4.86001e-21
4.23838e-22
3.97345e-23
4.23846e-24
5.54727e-25
9.19491e-26
1.90722e-26
4.74522e-27
1.34315e-27
4.13165e-28
1.3309e-28
4.39693e-29
1.47071e-29
4.94974e-30
1.6688e-30
5.64324e-31
1.9051e-31
6.4203e-32
2.15961e-32
7.23909e-33
2.3972e-33
7.49847e-34
1.4858e-34
3.05896e-15
1.16615e-14
2.43342e-14
4.34887e-14
7.23445e-14
1.15606e-13
1.80146e-13
2.75913e-13
4.17157e-13
6.24163e-13
9.26295e-13
1.36835e-12
2.02238e-12
3.00659e-12
4.51635e-12
6.86733e-12
1.06138e-11
1.66682e-11
2.61639e-11
4.20697e-11
6.746e-11
1.08468e-10
1.73683e-10
2.7763e-10
4.3002e-10
6.52274e-10
9.67844e-10
1.41441e-09
2.01595e-09
2.84661e-09
3.98001e-09
5.53325e-09
7.73482e-09
1.08881e-08
1.54775e-08
2.21244e-08
3.15771e-08
4.47732e-08
6.29288e-08
8.77344e-08
1.22366e-07
1.71331e-07
2.41201e-07
3.42854e-07
4.93539e-07
7.11607e-07
1.01454e-06
1.42586e-06
1.95047e-06
2.51779e-06
2.90961e-06
2.55106e-06
1.39901e-06
7.58899e-07
4.05785e-07
2.09118e-07
1.06512e-07
5.26891e-08
2.5193e-08
1.16116e-08
5.13359e-09
2.15419e-09
8.52818e-10
3.16273e-10
1.09071e-10
3.47181e-11
1.01397e-11
2.57088e-12
5.77252e-13
1.13217e-13
2.0304e-14
3.05368e-15
4.02789e-16
4.71737e-17
5.00965e-18
4.93785e-19
4.59309e-20
4.10593e-21
3.57747e-22
3.36446e-23
3.61045e-24
4.76138e-25
7.95151e-26
1.65924e-26
4.14544e-27
1.17683e-27
3.62208e-28
1.1682e-28
3.86273e-29
1.29282e-29
4.35309e-30
1.46719e-30
4.94574e-31
1.66614e-31
5.60809e-32
1.88537e-32
6.3198e-33
2.09363e-33
6.55302e-34
1.29921e-34
3.02871e-15
1.15462e-14
2.40933e-14
4.30568e-14
7.16218e-14
1.14441e-13
1.7831e-13
2.73058e-13
4.12757e-13
6.17414e-13
9.15958e-13
1.35252e-12
1.99809e-12
2.96917e-12
4.45835e-12
6.77725e-12
1.04731e-11
1.64486e-11
2.58296e-11
4.14952e-11
6.65411e-11
1.07104e-10
1.71561e-10
2.7448e-10
4.25675e-10
6.46862e-10
9.61401e-10
1.40732e-09
2.0086e-09
2.84013e-09
3.97601e-09
5.53412e-09
7.74467e-09
1.09148e-08
1.55359e-08
2.22374e-08
3.17798e-08
4.51283e-08
6.35138e-08
8.86664e-08
1.23805e-07
1.7347e-07
2.44271e-07
3.47236e-07
4.99666e-07
7.19734e-07
1.02461e-06
1.43678e-06
1.95642e-06
2.50984e-06
2.86143e-06
2.40765e-06
1.31732e-06
7.13135e-07
3.80289e-07
1.96116e-07
9.95739e-08
4.90638e-08
2.33798e-08
1.074e-08
4.73321e-09
1.98161e-09
7.8183e-10
2.88529e-10
9.88068e-11
3.11628e-11
9.01915e-12
2.26579e-12
5.03892e-13
9.75906e-14
1.73014e-14
2.57859e-15
3.3766e-16
3.93337e-17
4.16099e-18
4.09204e-19
3.80095e-20
3.39564e-21
2.95851e-22
2.79364e-23
3.01932e-24
4.01752e-25
6.76929e-26
1.42322e-26
3.57658e-27
1.02008e-27
3.15072e-28
1.0192e-28
3.37896e-29
1.1336e-29
3.82553e-30
1.2917e-30
4.36018e-31
1.47036e-31
4.95254e-32
1.66572e-32
5.58488e-33
1.85034e-33
5.79151e-34
1.14816e-34
3.00226e-15
1.14454e-14
2.38828e-14
4.26796e-14
7.09914e-14
1.13426e-13
1.76713e-13
2.70582e-13
4.08952e-13
6.11595e-13
9.07071e-13
1.33893e-12
1.97725e-12
2.937e-12
4.40819e-12
6.69848e-12
1.03476e-11
1.6248e-11
2.55092e-11
4.09516e-11
6.57338e-11
1.05858e-10
1.69769e-10
2.72104e-10
4.22486e-10
6.42726e-10
9.5644e-10
1.40212e-09
2.00363e-09
2.83619e-09
3.97534e-09
5.53952e-09
7.76195e-09
1.09468e-08
1.55972e-08
2.23507e-08
3.19785e-08
4.54693e-08
6.40567e-08
8.94919e-08
1.2504e-07
1.75274e-07
2.46804e-07
3.50759e-07
5.04337e-07
7.25532e-07
1.03074e-06
1.4405e-06
1.94911e-06
2.47756e-06
2.76943e-06
2.19972e-06
1.2068e-06
6.54431e-07
3.49741e-07
1.80008e-07
9.14439e-08
4.50778e-08
2.14766e-08
9.85727e-09
4.32913e-09
1.8047e-09
7.0959e-10
2.62083e-10
8.77631e-11
2.7628e-11
7.96381e-12
1.99014e-12
4.3931e-13
8.47751e-14
1.49238e-14
2.20797e-15
2.87378e-16
3.33258e-17
3.51384e-18
3.44879e-19
3.19936e-20
2.85644e-21
2.49157e-22
2.36149e-23
2.56898e-24
3.44612e-25
5.85278e-26
1.23866e-26
3.12856e-27
8.959e-28
2.77557e-28
9.00103e-29
2.99063e-29
1.00527e-29
3.39818e-30
1.14907e-30
3.8835e-31
1.31093e-31
4.41908e-32
1.48719e-32
4.98835e-33
1.6531e-33
5.17461e-34
1.02586e-34
2.97941e-15
1.13583e-14
2.3701e-14
4.23542e-14
7.04484e-14
1.12554e-13
1.75343e-13
2.68464e-13
4.05708e-13
6.06661e-13
8.99589e-13
1.32759e-12
1.96003e-12
2.9107e-12
4.36732e-12
6.63561e-12
1.02511e-11
1.6099e-11
2.52736e-11
4.05419e-11
6.51086e-11
1.04898e-10
1.6836e-10
2.70081e-10
4.19862e-10
6.39479e-10
9.52702e-10
1.39821e-09
2.00004e-09
2.83374e-09
3.97556e-09
5.54384e-09
7.7721e-09
1.09754e-08
1.56536e-08
2.24525e-08
3.21507e-08
4.57572e-08
6.45154e-08
9.01903e-08
1.26078e-07
1.76779e-07
2.48916e-07
3.53733e-07
5.08256e-07
7.3026e-07
1.0353e-06
1.44248e-06
1.94142e-06
2.44748e-06
2.68664e-06
2.00556e-06
1.10173e-06
5.97866e-07
3.1926e-07
1.64182e-07
8.33171e-08
4.10129e-08
1.95177e-08
8.94976e-09
3.93108e-09
1.63759e-09
6.42074e-10
2.36283e-10
7.89154e-11
2.4688e-11
7.08279e-12
1.75739e-12
3.85315e-13
7.41042e-14
1.29927e-14
1.91045e-15
2.47432e-16
2.85944e-17
3.00737e-18
2.94741e-19
2.73171e-20
2.43823e-21
2.13951e-22
2.0347e-23
2.22649e-24
3.00851e-25
5.14702e-26
1.09614e-26
2.78193e-27
7.99529e-28
2.48357e-28
8.07101e-29
2.68634e-29
9.0442e-30
3.05945e-30
1.03564e-30
3.50318e-31
1.18338e-31
3.99127e-32
1.34377e-32
4.50856e-33
1.49434e-33
4.67787e-34
9.27357e-35
2.95986e-15
1.12838e-14
2.35457e-14
4.20764e-14
6.99851e-14
1.11811e-13
1.74179e-13
2.66667e-13
4.02966e-13
6.02506e-13
8.93319e-13
1.31814e-12
1.94574e-12
2.88897e-12
4.33352e-12
6.58397e-12
1.01703e-11
1.59681e-11
2.50651e-11
4.0198e-11
6.45722e-11
1.04116e-10
1.67243e-10
2.68538e-10
4.17811e-10
6.36956e-10
9.49834e-10
1.39539e-09
1.99776e-09
2.83272e-09
3.97735e-09
5.55035e-09
7.78667e-09
1.10044e-08
1.57066e-08
2.2545e-08
3.23038e-08
4.60097e-08
6.49013e-08
9.07569e-08
1.2688e-07
1.77859e-07
2.50261e-07
3.56886e-07
5.11934e-07
7.34425e-07
1.03926e-06
1.44426e-06
1.93629e-06
2.42473e-06
2.62193e-06
1.8522e-06
1.01487e-06
5.49708e-07
2.93338e-07
1.50782e-07
7.64475e-08
3.75836e-08
1.78561e-08
8.17487e-09
3.58585e-09
1.48938e-09
5.82521e-10
2.1368e-10
7.12922e-11
2.22261e-11
6.35514e-12
1.56918e-12
3.42033e-13
6.58032e-14
1.14995e-14
1.68855e-15
2.17808e-16
2.50915e-17
2.63259e-18
2.57618e-19
2.38508e-20
2.12772e-21
1.87689e-22
1.7896e-23
1.96736e-24
2.67417e-25
4.60412e-26
9.86091e-27
2.51333e-27
7.24489e-28
2.25522e-28
7.3411e-29
2.44682e-29
8.24815e-30
2.79215e-30
9.45906e-31
3.20162e-31
1.08202e-31
3.6507e-32
1.22942e-32
4.12558e-33
1.36751e-33
4.28084e-34
8.48614e-35
2.94329e-15
1.12207e-14
2.3414e-14
4.18409e-14
6.95927e-14
1.11182e-13
1.73194e-13
2.65151e-13
4.00657e-13
5.99016e-13
8.88072e-13
1.31028e-12
1.93397e-12
2.87135e-12
4.30672e-12
6.54319e-12
1.01053e-11
1.58658e-11
2.49065e-11
3.99275e-11
6.41605e-11
1.03502e-10
1.66329e-10
2.67248e-10
4.1609e-10
6.34857e-10
9.47553e-10
1.39329e-09
1.99639e-09
2.83284e-09
3.98044e-09
5.55865e-09
7.80465e-09
1.10338e-08
1.57578e-08
2.26321e-08
3.24485e-08
4.6242e-08
6.5259e-08
9.12884e-08
1.27653e-07
1.78956e-07
2.51792e-07
3.59014e-07
5.14571e-07
7.37291e-07
1.04144e-06
1.44349e-06
1.92717e-06
2.39554e-06
2.54796e-06
1.67228e-06
9.2066e-07
5.00593e-07
2.67563e-07
1.3773e-07
6.98847e-08
3.43918e-08
1.63414e-08
7.48224e-09
3.27871e-09
1.36155e-09
5.31794e-10
1.9463e-10
6.49224e-11
2.01984e-11
5.75111e-12
1.41473e-12
3.06837e-13
5.90923e-14
1.02736e-14
1.50129e-15
1.93088e-16
2.21923e-17
2.32457e-18
2.27273e-19
2.10299e-20
1.87587e-21
1.66315e-22
1.59021e-23
1.75629e-24
2.40137e-25
4.16076e-26
8.96393e-27
2.29564e-27
6.64137e-28
2.07287e-28
6.76114e-29
2.25699e-29
7.61756e-30
2.58105e-30
8.75019e-31
2.96337e-31
1.00194e-31
3.38171e-32
1.13912e-32
3.82321e-33
1.26739e-33
3.96744e-34
7.86455e-35
2.92938e-15
1.11677e-14
2.33035e-14
4.16432e-14
6.9263e-14
1.10653e-13
1.72366e-13
2.63872e-13
3.98704e-13
5.96053e-13
8.8359e-13
1.30351e-12
1.92373e-12
2.85578e-12
4.28261e-12
6.50487e-12
1.00465e-11
1.57759e-11
2.47727e-11
3.97047e-11
6.38346e-11
1.0301e-10
1.65619e-10
2.66271e-10
4.14851e-10
6.33376e-10
9.45996e-10
1.39197e-09
1.99574e-09
2.83344e-09
3.98328e-09
5.56436e-09
7.81545e-09
1.10586e-08
1.58035e-08
2.27107e-08
3.25772e-08
4.64493e-08
6.55794e-08
9.1768e-08
1.2836e-07
1.79981e-07
2.53247e-07
3.6102e-07
5.17172e-07
7.40361e-07
1.04439e-06
1.44473e-06
1.9229e-06
2.37711e-06
2.49629e-06
1.56114e-06
8.59261e-07
4.66921e-07
2.49679e-07
1.28586e-07
6.52505e-08
3.20951e-08
1.525e-08
6.97843e-09
3.05685e-09
1.26792e-09
4.94364e-10
1.80532e-10
6.01879e-11
1.86753e-11
5.30439e-12
1.30076e-12
2.81105e-13
5.41748e-14
9.39209e-15
1.36853e-15
1.75568e-16
2.0137e-17
2.10608e-18
2.05728e-19
1.90249e-20
1.69665e-21
1.51061e-22
1.44726e-23
1.60387e-24
2.20283e-25
3.83595e-26
8.30271e-27
2.13412e-27
6.19058e-28
1.93572e-28
6.32173e-29
2.11216e-29
7.1335e-30
2.4183e-30
8.20222e-31
2.77896e-31
9.39951e-32
3.17352e-32
1.06928e-32
3.58947e-33
1.19002e-33
3.72533e-34
7.38443e-35
2.91791e-15
1.1124e-14
2.32123e-14
4.14801e-14
6.89911e-14
1.10217e-13
1.71682e-13
2.62817e-13
3.97091e-13
5.93605e-13
8.79886e-13
1.2979e-12
1.91524e-12
2.84287e-12
4.26252e-12
6.47523e-12
1.00021e-11
1.57077e-11
2.46671e-11
3.95258e-11
6.3558e-11
1.02605e-10
1.65038e-10
2.65496e-10
4.13871e-10
6.32267e-10
9.44869e-10
1.3911e-09
1.99548e-09
2.83441e-09
3.98672e-09
5.57233e-09
7.83216e-09
1.10836e-08
1.58448e-08
2.27795e-08
3.26883e-08
4.66284e-08
6.58582e-08
9.21903e-08
1.2899e-07
1.80891e-07
2.54537e-07
3.6283e-07
5.19644e-07
7.43576e-07
1.04818e-06
1.44837e-06
1.92418e-06
2.3704e-06
2.46821e-06
1.49601e-06
8.22893e-07
4.46881e-07
2.38708e-07
1.22827e-07
6.22514e-08
3.0589e-08
1.45161e-08
6.63901e-09
2.905e-09
1.20268e-09
4.68182e-10
1.7065e-10
5.68646e-11
1.76076e-11
4.99087e-12
1.22033e-12
2.62937e-13
5.06882e-14
8.77041e-15
1.2748e-15
1.63184e-16
1.86838e-17
1.95157e-18
1.90489e-19
1.76062e-20
1.56979e-21
1.40261e-22
1.34596e-23
1.49544e-24
2.06016e-25
3.59938e-26
7.81647e-27
2.01491e-27
5.85748e-28
1.8342e-28
5.99555e-29
2.00425e-29
6.77158e-30
2.29626e-30
7.79043e-31
2.64017e-31
8.93253e-32
3.01662e-32
1.01663e-32
3.41324e-33
1.13169e-33
3.54276e-34
7.02236e-35
2.90871e-15
1.1089e-14
2.31391e-14
4.13493e-14
6.87731e-14
1.09867e-13
1.71135e-13
2.61973e-13
3.95804e-13
5.91654e-13
8.76943e-13
1.29348e-12
1.90863e-12
2.83297e-12
4.24737e-12
6.45228e-12
9.9662e-12
1.56516e-11
2.45804e-11
3.93834e-11
6.33543e-11
1.02307e-10
1.64617e-10
2.64924e-10
4.13159e-10
6.31469e-10
9.44088e-10
1.39057e-09
1.99555e-09
2.83563e-09
3.99016e-09
5.57957e-09
7.84195e-09
1.11042e-08
1.58814e-08
2.28417e-08
3.27891e-08
4.67896e-08
6.61073e-08
9.25652e-08
1.29547e-07
1.81711e-07
2.5573e-07
3.64561e-07
5.22121e-07
7.47046e-07
1.05284e-06
1.45427e-06
1.9308e-06
2.37539e-06
2.46412e-06
1.46777e-06
8.0517e-07
4.36277e-07
2.32593e-07
1.19502e-07
6.04735e-08
2.96691e-08
1.4062e-08
6.4226e-09
2.80638e-09
1.16031e-09
4.50968e-10
1.64049e-10
5.46374e-11
1.68875e-11
4.77719e-12
1.16582e-12
2.50495e-13
4.83266e-14
8.34357e-15
1.2105e-15
1.54696e-16
1.76858e-17
1.84517e-18
1.79974e-19
1.66257e-20
1.48198e-21
1.32789e-22
1.27573e-23
1.41991e-24
1.95985e-25
3.43069e-26
7.46449e-27
1.92775e-27
5.61331e-28
1.75992e-28
5.75761e-29
1.92575e-29
6.50868e-30
2.20767e-30
7.49144e-31
2.53934e-31
8.59292e-32
2.90238e-32
9.78241e-33
3.28459e-33
1.08905e-33
3.4092e-34
6.75731e-35
2.9016e-15
1.10619e-14
2.30827e-14
4.12484e-14
6.86052e-14
1.09598e-13
1.70715e-13
2.61329e-13
3.9483e-13
5.90194e-13
8.74766e-13
1.29024e-12
1.90379e-12
2.8256e-12
4.23575e-12
6.4341e-12
9.93773e-12
1.56076e-11
2.45137e-11
3.92721e-11
6.3188e-11
1.02065e-10
1.64281e-10
2.64484e-10
4.1262e-10
6.30871e-10
9.4354e-10
1.39028e-09
1.99581e-09
2.83689e-09
3.99322e-09
5.5855e-09
7.85245e-09
1.11221e-08
1.59119e-08
2.2892e-08
3.28699e-08
4.69182e-08
6.63058e-08
9.28644e-08
1.29994e-07
1.8237e-07
2.56697e-07
3.65982e-07
5.24166e-07
7.499e-07
1.0566e-06
1.45875e-06
1.93499e-06
2.37626e-06
2.45419e-06
1.43408e-06
7.87792e-07
4.27143e-07
2.27756e-07
1.17085e-07
5.92626e-08
2.90696e-08
1.37724e-08
6.28661e-09
2.74477e-09
1.13379e-09
4.40191e-10
1.5989e-10
5.32353e-11
1.64304e-11
4.64002e-12
1.13016e-12
2.42223e-13
4.67351e-14
8.05303e-15
1.16635e-15
1.48822e-16
1.69935e-17
1.77135e-18
1.72677e-19
1.5945e-20
1.42099e-21
1.27617e-22
1.22745e-23
1.36864e-24
1.89251e-25
3.31715e-26
7.22451e-27
1.86761e-27
5.44355e-28
1.70804e-28
5.5909e-29
1.87065e-29
6.32414e-30
2.14551e-30
7.28184e-31
2.46868e-31
8.3549e-32
2.82225e-32
9.51285e-33
3.19412e-33
1.05902e-33
3.315e-34
6.57021e-35
2.89647e-15
1.10424e-14
2.30421e-14
4.11761e-14
6.84853e-14
1.09408e-13
1.70419e-13
2.60877e-13
3.94143e-13
5.8915e-13
8.73172e-13
1.2878e-12
1.90001e-12
2.81983e-12
4.22689e-12
6.42094e-12
9.9178e-12
1.55771e-11
2.44673e-11
3.9195e-11
6.30742e-11
1.01901e-10
1.64051e-10
2.64183e-10
4.12257e-10
6.30483e-10
9.43208e-10
1.39017e-09
1.99615e-09
2.83809e-09
3.99605e-09
5.59126e-09
7.86378e-09
1.11369e-08
1.59352e-08
2.29297e-08
3.29302e-08
4.7014e-08
6.64536e-08
9.30879e-08
1.30331e-07
1.82871e-07
2.5744e-07
3.67091e-07
5.25815e-07
7.52329e-07
1.06007e-06
1.46352e-06
1.94102e-06
2.38251e-06
2.45662e-06
1.42469e-06
7.81239e-07
4.22781e-07
2.24626e-07
1.16553e-07
5.88809e-08
2.88369e-08
1.36435e-08
6.2205e-09
2.71279e-09
1.11921e-09
4.33995e-10
1.57423e-10
5.23863e-11
1.61486e-11
4.55429e-12
1.10754e-12
2.36953e-13
4.57226e-14
7.86835e-15
1.13811e-15
1.45051e-16
1.65468e-17
1.72348e-18
1.67927e-19
1.55e-20
1.38101e-21
1.24235e-22
1.19601e-23
1.33554e-24
1.84928e-25
3.24399e-26
7.06847e-27
1.82823e-27
5.33196e-28
1.67381e-28
5.48052e-29
1.83406e-29
6.20131e-30
2.10408e-30
7.142e-31
2.42152e-31
8.19604e-32
2.76876e-32
9.33279e-33
3.13363e-33
1.03892e-33
3.25185e-34
6.44471e-35
2.89314e-15
1.10297e-14
2.30156e-14
4.11288e-14
6.84065e-14
1.09281e-13
1.70219e-13
2.60564e-13
3.93658e-13
5.88408e-13
8.72048e-13
1.28611e-12
1.8975e-12
2.8161e-12
4.22116e-12
6.41227e-12
9.90473e-12
1.55572e-11
2.44378e-11
3.91463e-11
6.30029e-11
1.01797e-10
1.63908e-10
2.63994e-10
4.12032e-10
6.30245e-10
9.43002e-10
1.39006e-09
1.99621e-09
2.83878e-09
3.99768e-09
5.59435e-09
7.86925e-09
1.11459e-08
1.59502e-08
2.29543e-08
3.29695e-08
4.70763e-08
6.65495e-08
9.32327e-08
1.30549e-07
1.83197e-07
2.57924e-07
3.67812e-07
5.26879e-07
7.53867e-07
1.0622e-06
1.46629e-06
1.94418e-06
2.38498e-06
2.45526e-06
1.41394e-06
7.75185e-07
4.19399e-07
2.22769e-07
1.15596e-07
5.83933e-08
2.85931e-08
1.35248e-08
6.16454e-09
2.68731e-09
1.10815e-09
4.29461e-10
1.55672e-10
5.17959e-11
1.59547e-11
4.49597e-12
1.09234e-12
2.33433e-13
4.50509e-14
7.74595e-15
1.11948e-15
1.42569e-16
1.62534e-17
1.69209e-18
1.64813e-19
1.52095e-20
1.35501e-21
1.2205e-22
1.17598e-23
1.31501e-24
1.82326e-25
3.2008e-26
6.97694e-27
1.80515e-27
5.26636e-28
1.65361e-28
5.4152e-29
1.8124e-29
6.12872e-30
2.07966e-30
7.05967e-31
2.39373e-31
8.10215e-32
2.73701e-32
9.22543e-33
3.09738e-33
1.02682e-33
3.21371e-34
6.36873e-35
2.89146e-15
1.10233e-14
2.30022e-14
4.11047e-14
6.83662e-14
1.09216e-13
1.70117e-13
2.60408e-13
3.93421e-13
5.88049e-13
8.71507e-13
1.2853e-12
1.89629e-12
2.81428e-12
4.21838e-12
6.40809e-12
9.89836e-12
1.55476e-11
2.44232e-11
3.91222e-11
6.29673e-11
1.01746e-10
1.63837e-10
2.63902e-10
4.11924e-10
6.30132e-10
9.42911e-10
1.39004e-09
1.9963e-09
2.83901e-09
3.99802e-09
5.59446e-09
7.86785e-09
1.11489e-08
1.5957e-08
2.29662e-08
3.29887e-08
4.71066e-08
6.65961e-08
9.33028e-08
1.30654e-07
1.83351e-07
2.58148e-07
3.68135e-07
5.27329e-07
7.54458e-07
1.06287e-06
1.46684e-06
1.94399e-06
2.38274e-06
2.44867e-06
1.40035e-06
7.68812e-07
4.16477e-07
2.21628e-07
1.14472e-07
5.7869e-08
2.83514e-08
1.34156e-08
6.11654e-09
2.66685e-09
1.09975e-09
4.26185e-10
1.54458e-10
5.13967e-11
1.58285e-11
4.45911e-12
1.083e-12
2.31329e-13
4.46493e-14
7.67421e-15
1.10873e-15
1.41156e-16
1.60883e-17
1.67456e-18
1.63085e-19
1.50482e-20
1.34053e-21
1.20837e-22
1.16503e-23
1.30414e-24
1.81013e-25
3.17995e-26
6.93373e-27
1.79421e-27
5.23473e-28
1.6437e-28
5.38278e-29
1.80161e-29
6.09262e-30
2.06757e-30
7.01924e-31
2.3802e-31
8.05681e-32
2.72178e-32
9.17414e-33
3.08011e-33
1.02106e-33
3.19555e-34
6.33253e-35
2.89142e-15
1.10231e-14
2.30019e-14
4.11041e-14
6.83651e-14
1.09214e-13
1.70114e-13
2.60403e-13
3.93414e-13
5.88039e-13
8.71493e-13
1.28528e-12
1.89626e-12
2.81424e-12
4.21833e-12
6.40801e-12
9.89825e-12
1.55474e-11
2.4423e-11
3.91218e-11
6.29668e-11
1.01745e-10
1.63836e-10
2.63901e-10
4.11922e-10
6.30129e-10
9.42901e-10
1.39002e-09
1.99627e-09
2.83893e-09
3.99785e-09
5.59422e-09
7.86773e-09
1.11486e-08
1.59568e-08
2.29659e-08
3.29884e-08
4.71065e-08
6.65967e-08
9.33051e-08
1.3066e-07
1.83366e-07
2.58181e-07
3.68208e-07
5.27489e-07
7.54806e-07
1.06362e-06
1.46843e-06
1.94738e-06
2.38975e-06
2.46248e-06
1.40505e-06
7.70993e-07
4.17622e-07
2.22462e-07
1.1424e-07
5.77507e-08
2.82943e-08
1.33894e-08
6.10496e-09
2.66195e-09
1.09779e-09
4.25448e-10
1.54198e-10
5.13126e-11
1.58032e-11
4.45213e-12
1.08133e-12
2.30979e-13
4.45819e-14
7.66273e-15
1.10708e-15
1.40947e-16
1.60645e-17
1.67211e-18
1.62847e-19
1.50263e-20
1.3386e-21
1.20674e-22
1.16368e-23
1.3031e-24
1.80956e-25
3.18019e-26
6.93502e-27
1.79431e-27
5.234e-28
1.64325e-28
5.38109e-29
1.8011e-29
6.0913e-30
2.06728e-30
7.0187e-31
2.38013e-31
8.05676e-32
2.72178e-32
9.17407e-33
3.08003e-33
1.02101e-33
3.19533e-34
6.33201e-35
2.89305e-15
1.10293e-14
2.30147e-14
4.1127e-14
6.8403e-14
1.09275e-13
1.70209e-13
2.60548e-13
3.93635e-13
5.88373e-13
8.71998e-13
1.28604e-12
1.89741e-12
2.81597e-12
4.22098e-12
6.41203e-12
9.90441e-12
1.55568e-11
2.4437e-11
3.91451e-11
6.30012e-11
1.01795e-10
1.63905e-10
2.63992e-10
4.12032e-10
6.30246e-10
9.43007e-10
1.39008e-09
1.99629e-09
2.83859e-09
3.99711e-09
5.59299e-09
7.86612e-09
1.11444e-08
1.59492e-08
2.29534e-08
3.29684e-08
4.7075e-08
6.65485e-08
9.32332e-08
1.30554e-07
1.83212e-07
2.57958e-07
3.67883e-07
5.27017e-07
7.54124e-07
1.06265e-06
1.46707e-06
1.94545e-06
2.38695e-06
2.45812e-06
1.41794e-06
7.77355e-07
4.20791e-07
2.24045e-07
1.14968e-07
5.80884e-08
2.84497e-08
1.34597e-08
6.13614e-09
2.67546e-09
1.10343e-09
4.27688e-10
1.55048e-10
5.15955e-11
1.58949e-11
4.47952e-12
1.08842e-12
2.32616e-13
4.48931e-14
7.71923e-15
1.11564e-15
1.42084e-16
1.6199e-17
1.6865e-18
1.64271e-19
1.51592e-20
1.3505e-21
1.21677e-22
1.17296e-23
1.31288e-24
1.82244e-25
3.20203e-26
6.98043e-27
1.80523e-27
5.26343e-28
1.65198e-28
5.40897e-29
1.81041e-29
6.12311e-30
2.07823e-30
7.05634e-31
2.39302e-31
8.10073e-32
2.73671e-32
9.2246e-33
3.09705e-33
1.02667e-33
3.21311e-34
6.36733e-35
2.89641e-15
1.10421e-14
2.30414e-14
4.11747e-14
6.84824e-14
1.09402e-13
1.70407e-13
2.60853e-13
3.941e-13
5.89077e-13
8.7306e-13
1.28764e-12
1.89982e-12
2.81961e-12
4.22663e-12
6.42063e-12
9.91748e-12
1.55767e-11
2.44669e-11
3.91945e-11
6.30739e-11
1.01901e-10
1.64052e-10
2.64185e-10
4.12261e-10
6.30488e-10
9.43209e-10
1.39014e-09
1.99607e-09
2.83786e-09
3.99549e-09
5.58999e-09
7.86093e-09
1.11353e-08
1.59338e-08
2.2928e-08
3.29278e-08
4.70108e-08
6.645e-08
9.30854e-08
1.30333e-07
1.82884e-07
2.57477e-07
3.67176e-07
5.25989e-07
7.52664e-07
1.06068e-06
1.46462e-06
1.94294e-06
2.3858e-06
2.46226e-06
1.42452e-06
7.81549e-07
4.23338e-07
2.25535e-07
1.15791e-07
5.85354e-08
2.86833e-08
1.35769e-08
6.19244e-09
2.70137e-09
1.1148e-09
4.32369e-10
1.56861e-10
5.22095e-11
1.60963e-11
4.53988e-12
1.10414e-12
2.36236e-13
4.55859e-14
7.84495e-15
1.13476e-15
1.44641e-16
1.65009e-17
1.71867e-18
1.67459e-19
1.54574e-20
1.37727e-21
1.23937e-22
1.19386e-23
1.33467e-24
1.85039e-25
3.24786e-26
7.07463e-27
1.82827e-27
5.32727e-28
1.67129e-28
5.471e-29
1.83108e-29
6.19321e-30
2.10216e-30
7.13812e-31
2.42091e-31
8.19554e-32
2.76887e-32
9.3334e-33
3.13372e-33
1.03888e-33
3.25146e-34
6.44357e-35
2.90159e-15
1.10618e-14
2.30826e-14
4.12482e-14
6.86047e-14
1.09597e-13
1.70713e-13
2.61324e-13
3.94816e-13
5.90161e-13
8.74694e-13
1.2901e-12
1.90351e-12
2.82517e-12
4.2352e-12
6.4336e-12
9.93745e-12
1.56074e-11
2.45134e-11
3.92717e-11
6.31878e-11
1.02066e-10
1.64282e-10
2.64487e-10
4.12627e-10
6.30879e-10
9.43546e-10
1.39028e-09
1.99577e-09
2.83678e-09
3.99297e-09
5.58502e-09
7.85163e-09
1.11211e-08
1.59105e-08
2.28897e-08
3.28665e-08
4.69133e-08
6.62996e-08
9.2858e-08
1.29991e-07
1.82376e-07
2.56731e-07
3.66072e-07
5.24377e-07
7.50358e-07
1.05753e-06
1.46057e-06
1.93851e-06
2.38294e-06
2.4665e-06
1.43543e-06
7.88179e-07
4.27286e-07
2.27833e-07
1.17137e-07
5.92893e-08
2.9083e-08
1.37792e-08
6.29017e-09
2.74668e-09
1.1346e-09
4.40529e-10
1.60009e-10
5.32739e-11
1.64434e-11
4.6439e-12
1.13113e-12
2.42475e-13
4.67847e-14
8.06277e-15
1.16793e-15
1.49011e-16
1.70124e-17
1.77318e-18
1.72846e-19
1.59598e-20
1.42227e-21
1.27748e-22
1.22913e-23
1.37139e-24
1.89699e-25
3.32297e-26
7.22737e-27
1.86578e-27
5.43247e-28
1.70346e-28
5.57483e-29
1.86565e-29
6.31003e-30
2.14187e-30
7.27319e-31
2.4668e-31
8.3512e-32
2.82159e-32
9.51166e-33
3.19381e-33
1.05889e-33
3.31436e-34
6.56864e-35
2.90869e-15
1.10889e-14
2.3139e-14
4.1349e-14
6.87726e-14
1.09866e-13
1.71134e-13
2.61971e-13
3.95802e-13
5.91652e-13
8.76942e-13
1.29348e-12
1.90859e-12
2.83282e-12
4.24699e-12
6.45147e-12
9.96497e-12
1.565e-11
2.45786e-11
3.93813e-11
6.33526e-11
1.02306e-10
1.64617e-10
2.64927e-10
4.13164e-10
6.31477e-10
9.44097e-10
1.39057e-09
1.99553e-09
2.83556e-09
3.99e-09
5.57923e-09
7.84133e-09
1.11033e-08
1.588e-08
2.28391e-08
3.27851e-08
4.67837e-08
6.60995e-08
9.25566e-08
1.29541e-07
1.81715e-07
2.55757e-07
3.64634e-07
5.22272e-07
7.47309e-07
1.05322e-06
1.45467e-06
1.93081e-06
2.37402e-06
2.45971e-06
1.45817e-06
8.01984e-07
4.35164e-07
2.31758e-07
1.20429e-07
6.09341e-08
2.98924e-08
1.41661e-08
6.46912e-09
2.82601e-09
1.16821e-09
4.53998e-10
1.65141e-10
5.50029e-11
1.69983e-11
4.80725e-12