/*--------------------------------*- C++ -*----------------------------------*\
  =========                 |
  \\      /  F ield         | OpenFOAM: The Open Source CFD Toolbox
   \\    /   O peration     | Website:  https://openfoam.org
    \\  /    A nd           | Version:  10
     \\/     M anipulation  |
\*---------------------------------------------------------------------------*/
FoamFile
{
    format      ascii;
    class       volScalarField;
    location    "1";
    object      N2;
}
// * * * * * * * * * * * * * * * * * * * * * * * * * * * * * * * * * * * * * //

dimensions      [0 0 0 0 0 0 0];

internalField   nonuniform List<scalar> 
4000
(
0.229519
0.229572
0.22965
0.229768
0.229945
0.230209
0.230599
0.231169
0.23199
0.233153
0.234765
0.236958
0.239892
0.243752
0.248735
0.255005
0.262775
0.272179
0.282829
0.29547
0.309245
0.32445
0.341317
0.358823
0.377164
0.396135
0.415626
0.435548
0.455366
0.475316
0.495065
0.514445
0.533435
0.551907
0.5698
0.587107
0.603746
0.619722
0.635027
0.64965
0.663763
0.677195
0.689838
0.701748
0.713166
0.723896
0.733818
0.742923
0.751197
0.758499
0.764603
0.769147
0.771644
0.77264
0.772976
0.773019
0.772921
0.772756
0.772553
0.772334
0.772109
0.771887
0.771669
0.771459
0.77126
0.771072
0.7709
0.770742
0.770594
0.770463
0.770354
0.770258
0.770182
0.770124
0.770081
0.770051
0.770032
0.770019
0.770011
0.770006
0.770004
0.770002
0.770001
0.770001
0.77
0.77
0.77
0.77
0.77
0.77
0.77
0.77
0.77
0.77
0.77
0.77
0.77
0.77
0.77
0.77
0.229519
0.229572
0.229649
0.229767
0.229943
0.230206
0.230594
0.231162
0.231979
0.233135
0.234737
0.236915
0.239823
0.243646
0.248583
0.254796
0.262476
0.271758
0.282294
0.294871
0.308554
0.323589
0.340309
0.357785
0.376081
0.395051
0.414534
0.434576
0.454452
0.474476
0.494299
0.513685
0.532724
0.551309
0.569294
0.586682
0.603396
0.619443
0.63481
0.649495
0.663659
0.677141
0.689829
0.70178
0.713234
0.723995
0.733936
0.743056
0.751339
0.75864
0.764729
0.769239
0.77168
0.77265
0.772975
0.773009
0.772907
0.772739
0.772535
0.772316
0.772089
0.771867
0.77165
0.771441
0.771244
0.771058
0.770886
0.770729
0.770582
0.770453
0.770345
0.770253
0.770178
0.770121
0.77008
0.770051
0.770031
0.770019
0.770011
0.770006
0.770004
0.770002
0.770001
0.770001
0.77
0.77
0.77
0.77
0.77
0.77
0.77
0.77
0.77
0.77
0.77
0.77
0.77
0.77
0.77
0.77
0.229519
0.229571
0.229649
0.229766
0.229941
0.230203
0.230591
0.231156
0.23197
0.23312
0.23471
0.236868
0.239748
0.243531
0.248414
0.25456
0.262174
0.271341
0.281743
0.294173
0.30772
0.32269
0.339159
0.356869
0.375052
0.393956
0.413395
0.433436
0.453309
0.473366
0.493221
0.512673
0.531819
0.550482
0.568592
0.586092
0.602915
0.619063
0.634525
0.649289
0.66353
0.677085
0.689836
0.70185
0.71336
0.724169
0.73414
0.743288
0.75158
0.758875
0.764937
0.769395
0.771733
0.772661
0.772969
0.773001
0.772895
0.772723
0.772518
0.772299
0.772068
0.771846
0.771628
0.77142
0.771223
0.771039
0.770869
0.770714
0.770569
0.770442
0.770337
0.770246
0.770174
0.770119
0.770078
0.77005
0.770031
0.770019
0.770011
0.770006
0.770004
0.770002
0.770001
0.770001
0.77
0.77
0.77
0.77
0.77
0.77
0.77
0.77
0.77
0.77
0.77
0.77
0.77
0.77
0.77
0.77
0.229519
0.229571
0.229648
0.229764
0.229939
0.230199
0.230583
0.231144
0.231951
0.233091
0.234667
0.236805
0.239657
0.243401
0.248231
0.25431
0.261838
0.27094
0.281272
0.293557
0.306976
0.321811
0.338152
0.355843
0.374036
0.392929
0.412302
0.432338
0.452209
0.472315
0.492204
0.511696
0.530914
0.549671
0.567894
0.585503
0.602434
0.618687
0.63424
0.649105
0.663431
0.677065
0.689885
0.701967
0.713539
0.724401
0.7344
0.743577
0.751885
0.75917
0.765191
0.769585
0.771806
0.772681
0.772965
0.772982
0.772869
0.772693
0.772486
0.772267
0.772038
0.771817
0.771602
0.771397
0.771202
0.771019
0.770851
0.770698
0.770555
0.77043
0.770328
0.770239
0.770169
0.770115
0.770075
0.770048
0.77003
0.770018
0.770011
0.770006
0.770004
0.770002
0.770001
0.770001
0.77
0.77
0.77
0.77
0.77
0.77
0.77
0.77
0.77
0.77
0.77
0.77
0.77
0.77
0.77
0.77
0.229518
0.22957
0.229647
0.229762
0.229936
0.230194
0.230576
0.231133
0.231934
0.233065
0.234629
0.236749
0.239576
0.243287
0.248074
0.254099
0.261561
0.270585
0.280824
0.293015
0.306362
0.321118
0.337328
0.35499
0.37311
0.391903
0.411262
0.431303
0.451199
0.471319
0.491288
0.510856
0.530141
0.548958
0.567279
0.584985
0.602018
0.618361
0.634015
0.648968
0.663377
0.677089
0.689977
0.702125
0.713757
0.724671
0.73469
0.74389
0.75221
0.759485
0.765468
0.769766
0.771875
0.772701
0.772964
0.772972
0.772852
0.772674
0.772466
0.772246
0.772016
0.771795
0.77158
0.771375
0.771181
0.771001
0.770834
0.770682
0.770541
0.770419
0.770319
0.770232
0.770164
0.770111
0.770073
0.770047
0.770029
0.770018
0.770011
0.770006
0.770004
0.770002
0.770001
0.770001
0.77
0.77
0.77
0.77
0.77
0.77
0.77
0.77
0.77
0.77
0.77
0.77
0.77
0.77
0.77
0.77
0.229518
0.22957
0.229646
0.229761
0.229933
0.23019
0.230569
0.231122
0.231917
0.23304
0.234591
0.236694
0.239498
0.243179
0.247928
0.253908
0.26132
0.27029
0.280476
0.292584
0.305868
0.320559
0.336632
0.354237
0.372267
0.391052
0.410386
0.430427
0.450306
0.470477
0.490512
0.510137
0.529486
0.548369
0.566769
0.58456
0.601677
0.618113
0.633853
0.648891
0.663377
0.677161
0.690106
0.702312
0.713996
0.724955
0.734995
0.74422
0.752548
0.759808
0.765741
0.769943
0.771942
0.772718
0.772957
0.772953
0.772828
0.772647
0.772438
0.772219
0.771992
0.771773
0.77156
0.771356
0.771164
0.770985
0.770821
0.770667
0.770529
0.770409
0.77031
0.770226
0.770159
0.770108
0.770071
0.770046
0.770028
0.770017
0.77001
0.770006
0.770003
0.770002
0.770001
0.770001
0.77
0.77
0.77
0.77
0.77
0.77
0.77
0.77
0.77
0.77
0.77
0.77
0.77
0.77
0.77
0.77
0.229518
0.22957
0.229645
0.229759
0.22993
0.230185
0.230561
0.231111
0.231901
0.233016
0.234556
0.236644
0.239427
0.243081
0.247797
0.253738
0.261104
0.270023
0.280155
0.292176
0.305398
0.320056
0.336015
0.353548
0.371563
0.39034
0.409666
0.429726
0.44961
0.469818
0.489904
0.509568
0.528967
0.547906
0.566375
0.584244
0.601437
0.617949
0.633763
0.648871
0.663424
0.677268
0.690263
0.702518
0.714246
0.725238
0.735278
0.744501
0.752899
0.760119
0.765996
0.770115
0.772007
0.772736
0.772953
0.772939
0.772815
0.77263
0.77242
0.772199
0.771976
0.771756
0.771542
0.77134
0.771149
0.770971
0.770809
0.770656
0.77052
0.770401
0.770304
0.770221
0.770156
0.770106
0.77007
0.770045
0.770028
0.770017
0.77001
0.770006
0.770003
0.770002
0.770001
0.770001
0.77
0.77
0.77
0.77
0.77
0.77
0.77
0.77
0.77
0.77
0.77
0.77
0.77
0.77
0.77
0.77
0.229518
0.229569
0.229644
0.229757
0.229927
0.230181
0.230555
0.231101
0.231886
0.232993
0.234524
0.236597
0.239362
0.242993
0.247679
0.253586
0.260913
0.26979
0.279875
0.291815
0.305001
0.319599
0.335503
0.353027
0.371026
0.389766
0.409072
0.429127
0.449041
0.469298
0.489421
0.509121
0.528561
0.547551
0.566078
0.584007
0.601269
0.617847
0.633724
0.64889
0.663496
0.677388
0.69042
0.702715
0.71448
0.725505
0.735566
0.744801
0.753176
0.76037
0.766188
0.770276
0.772069
0.772754
0.772951
0.772928
0.772796
0.772611
0.772401
0.77218
0.771958
0.771738
0.771525
0.771323
0.771134
0.770958
0.770797
0.770645
0.770511
0.770394
0.770299
0.770217
0.770153
0.770104
0.770068
0.770044
0.770027
0.770017
0.77001
0.770006
0.770003
0.770002
0.770001
0.770001
0.77
0.77
0.77
0.77
0.77
0.77
0.77
0.77
0.77
0.77
0.77
0.77
0.77
0.77
0.77
0.77
0.229518
0.229569
0.229643
0.229756
0.229925
0.230177
0.230549
0.231092
0.231872
0.232974
0.234495
0.236557
0.239306
0.242916
0.247577
0.253455
0.26075
0.269593
0.279652
0.291526
0.304662
0.319236
0.335094
0.352576
0.370544
0.389287
0.408601
0.428674
0.448608
0.468887
0.489033
0.508765
0.528248
0.547284
0.565857
0.583844
0.601165
0.617798
0.633729
0.648946
0.663602
0.677539
0.690603
0.702933
0.714729
0.725774
0.735846
0.745087
0.753431
0.760608
0.766382
0.77038
0.772106
0.772761
0.77295
0.772919
0.772783
0.772595
0.772383
0.772162
0.771941
0.771722
0.771511
0.771309
0.77112
0.770945
0.770785
0.770635
0.770501
0.770386
0.770292
0.770212
0.770149
0.770101
0.770067
0.770043
0.770027
0.770016
0.77001
0.770006
0.770003
0.770002
0.770001
0.770001
0.77
0.77
0.77
0.77
0.77
0.77
0.77
0.77
0.77
0.77
0.77
0.77
0.77
0.77
0.77
0.77
0.229518
0.229568
0.229643
0.229755
0.229923
0.230174
0.230544
0.231084
0.23186
0.232956
0.23447
0.236521
0.239256
0.242849
0.247489
0.253341
0.260606
0.269416
0.279437
0.291246
0.304357
0.318892
0.334729
0.35222
0.370181
0.388912
0.408222
0.428316
0.448262
0.468552
0.488735
0.5085
0.528016
0.547086
0.565704
0.583739
0.601106
0.617786
0.63376
0.649019
0.663715
0.677689
0.690782
0.703143
0.714964
0.726029
0.736117
0.745361
0.753667
0.760825
0.766566
0.770454
0.772129
0.772762
0.772938
0.772911
0.772774
0.772584
0.77237
0.772149
0.771926
0.771707
0.771497
0.771298
0.771106
0.770933
0.770775
0.770626
0.770494
0.77038
0.770288
0.770209
0.770147
0.7701
0.770066
0.770042
0.770026
0.770016
0.77001
0.770006
0.770003
0.770002
0.770001
0.770001
0.77
0.77
0.77
0.77
0.77
0.77
0.77
0.77
0.77
0.77
0.77
0.77
0.77
0.77
0.77
0.77
0.229518
0.229568
0.229642
0.229754
0.229921
0.230171
0.230539
0.231077
0.23185
0.232941
0.234449
0.236491
0.239215
0.242794
0.247415
0.253248
0.260493
0.269283
0.279279
0.291037
0.304122
0.31863
0.334446
0.351917
0.369877
0.388608
0.407924
0.428028
0.447985
0.468294
0.488505
0.508295
0.527838
0.546945
0.5656
0.583674
0.601079
0.617795
0.633803
0.649094
0.663822
0.677825
0.690942
0.703339
0.715185
0.726267
0.736359
0.745601
0.753881
0.761015
0.766712
0.770529
0.772154
0.772766
0.772932
0.772893
0.772756
0.772566
0.772354
0.772134
0.771913
0.771696
0.771486
0.771287
0.771096
0.770924
0.770767
0.770618
0.770488
0.770375
0.770284
0.770206
0.770144
0.770098
0.770064
0.770041
0.770026
0.770016
0.770009
0.770006
0.770003
0.770002
0.770001
0.770001
0.77
0.77
0.77
0.77
0.77
0.77
0.77
0.77
0.77
0.77
0.77
0.77
0.77
0.77
0.77
0.77
0.229518
0.229568
0.229641
0.229753
0.229919
0.230168
0.230535
0.231071
0.231841
0.232929
0.234431
0.236466
0.239181
0.242748
0.247354
0.253172
0.260399
0.269167
0.279139
0.29086
0.303917
0.318412
0.334219
0.351685
0.369638
0.388369
0.407688
0.427804
0.447775
0.468099
0.488331
0.508146
0.527715
0.54685
0.565535
0.583639
0.601074
0.617817
0.633851
0.649163
0.663908
0.677918
0.691026
0.703587
0.71542
0.726497
0.736583
0.745815
0.754079
0.761189
0.766847
0.770594
0.772175
0.772768
0.772931
0.772888
0.772747
0.772557
0.772344
0.772123
0.771902
0.771684
0.771475
0.771277
0.771088
0.770916
0.77076
0.770612
0.770483
0.770372
0.770281
0.770203
0.770142
0.770097
0.770064
0.770041
0.770025
0.770015
0.770009
0.770005
0.770003
0.770002
0.770001
0.770001
0.77
0.77
0.77
0.77
0.77
0.77
0.77
0.77
0.77
0.77
0.77
0.77
0.77
0.77
0.77
0.77
0.229518
0.229568
0.229641
0.229752
0.229918
0.230166
0.230532
0.231066
0.231834
0.232918
0.234416
0.236445
0.239153
0.242711
0.247306
0.253112
0.260323
0.269075
0.279031
0.29072
0.303761
0.318243
0.334036
0.351492
0.369435
0.388164
0.407488
0.427617
0.447605
0.467945
0.4882
0.508036
0.527629
0.546787
0.565497
0.583627
0.601087
0.617853
0.633909
0.649241
0.664005
0.678033
0.69116
0.703747
0.715592
0.726675
0.736761
0.745987
0.754236
0.761316
0.766922
0.770661
0.772197
0.772771
0.772923
0.772878
0.772737
0.772547
0.772334
0.772113
0.771892
0.771675
0.771466
0.771269
0.77108
0.77091
0.770754
0.770607
0.770478
0.770368
0.770278
0.770201
0.770141
0.770096
0.770063
0.77004
0.770025
0.770015
0.770009
0.770005
0.770003
0.770002
0.770001
0.770001
0.77
0.77
0.77
0.77
0.77
0.77
0.77
0.77
0.77
0.77
0.77
0.77
0.77
0.77
0.77
0.77
0.229518
0.229567
0.229641
0.229751
0.229917
0.230164
0.230529
0.231062
0.231828
0.232909
0.234403
0.236427
0.239128
0.242678
0.247262
0.253054
0.260253
0.268992
0.278938
0.290601
0.303635
0.318106
0.33389
0.351342
0.369285
0.388013
0.407342
0.42748
0.447479
0.46783
0.488102
0.507957
0.527568
0.546748
0.565479
0.583629
0.601109
0.617895
0.633969
0.649318
0.664099
0.678143
0.691285
0.703887
0.715744
0.726833
0.73692
0.746142
0.75438
0.761442
0.767021
0.770686
0.772203
0.772769
0.772918
0.772871
0.772729
0.772539
0.772326
0.772105
0.771884
0.771667
0.771459
0.771262
0.771074
0.770904
0.770749
0.770603
0.770474
0.770366
0.770276
0.770199
0.77014
0.770095
0.770062
0.77004
0.770025
0.770015
0.770009
0.770005
0.770003
0.770002
0.770001
0.770001
0.77
0.77
0.77
0.77
0.77
0.77
0.77
0.77
0.77
0.77
0.77
0.77
0.77
0.77
0.77
0.77
0.229518
0.229567
0.22964
0.229751
0.229916
0.230163
0.230527
0.231058
0.231823
0.232902
0.234392
0.236412
0.239108
0.242651
0.247225
0.25301
0.2602
0.26893
0.278865
0.290508
0.303528
0.317991
0.333768
0.351219
0.369162
0.387895
0.40723
0.427377
0.447385
0.467747
0.488032
0.507902
0.527529
0.546725
0.565472
0.583639
0.601135
0.617937
0.634025
0.649389
0.664184
0.678238
0.69139
0.704001
0.715864
0.726958
0.737046
0.746266
0.754498
0.761548
0.767106
0.770704
0.772204
0.772764
0.772912
0.772865
0.772722
0.772531
0.772318
0.772098
0.771877
0.771661
0.771453
0.771256
0.77107
0.7709
0.770745
0.770599
0.770471
0.770363
0.770274
0.770198
0.770139
0.770094
0.770062
0.770039
0.770025
0.770015
0.770009
0.770005
0.770003
0.770002
0.770001
0.770001
0.77
0.77
0.77
0.77
0.77
0.77
0.77
0.77
0.77
0.77
0.77
0.77
0.77
0.77
0.77
0.77
0.229518
0.229567
0.22964
0.22975
0.229915
0.230161
0.230525
0.231056
0.231819
0.232896
0.234384
0.236401
0.239092
0.24263
0.247198
0.252976
0.260157
0.268879
0.278806
0.290431
0.303448
0.317905
0.333679
0.351128
0.36907
0.387806
0.407146
0.4273
0.447316
0.467685
0.487983
0.507864
0.527504
0.546713
0.565475
0.583655
0.601164
0.617978
0.634079
0.649453
0.664258
0.678321
0.691481
0.704099
0.715967
0.727064
0.737153
0.746371
0.754597
0.761637
0.767175
0.770733
0.772214
0.772765
0.772908
0.772858
0.772715
0.772524
0.772312
0.772092
0.771871
0.771655
0.771448
0.771251
0.771065
0.770896
0.770742
0.770596
0.770469
0.770362
0.770273
0.770197
0.770138
0.770093
0.770061
0.770039
0.770024
0.770015
0.770009
0.770005
0.770003
0.770002
0.770001
0.770001
0.77
0.77
0.77
0.77
0.77
0.77
0.77
0.77
0.77
0.77
0.77
0.77
0.77
0.77
0.77
0.77
0.229518
0.229567
0.22964
0.22975
0.229915
0.230161
0.230524
0.231054
0.231816
0.232892
0.234378
0.236393
0.239081
0.242615
0.247177
0.252949
0.260124
0.268839
0.27876
0.290372
0.303383
0.317835
0.333607
0.351056
0.368999
0.387737
0.40708
0.427241
0.447264
0.467641
0.487948
0.507839
0.527489
0.546709
0.565481
0.583671
0.601191
0.618014
0.634123
0.649506
0.664319
0.678388
0.691553
0.704176
0.716048
0.727147
0.737236
0.746452
0.754672
0.7617
0.767219
0.770751
0.772219
0.772765
0.772906
0.772855
0.772706
0.772516
0.772305
0.772086
0.771866
0.77165
0.771443
0.771247
0.771062
0.770893
0.770739
0.770594
0.770467
0.77036
0.770271
0.770196
0.770137
0.770093
0.770061
0.770039
0.770024
0.770015
0.770009
0.770005
0.770003
0.770002
0.770001
0.770001
0.77
0.77
0.77
0.77
0.77
0.77
0.77
0.77
0.77
0.77
0.77
0.77
0.77
0.77
0.77
0.77
0.229518
0.229567
0.22964
0.229749
0.229914
0.23016
0.230523
0.231052
0.231814
0.232888
0.234374
0.236386
0.239072
0.242603
0.247162
0.25293
0.260101
0.268812
0.278728
0.290332
0.303338
0.317788
0.333557
0.351006
0.368951
0.38769
0.407036
0.427202
0.44723
0.467612
0.487926
0.507824
0.52748
0.546708
0.565488
0.583685
0.601212
0.618042
0.634157
0.649545
0.664364
0.678437
0.691606
0.704232
0.716107
0.727209
0.737299
0.746514
0.754733
0.761755
0.767262
0.77077
0.772225
0.772766
0.772904
0.772851
0.772703
0.772512
0.772301
0.772082
0.771862
0.771647
0.77144
0.771245
0.77106
0.770891
0.770737
0.770592
0.770465
0.770359
0.770271
0.770195
0.770136
0.770092
0.770061
0.770039
0.770024
0.770015
0.770009
0.770005
0.770003
0.770002
0.770001
0.770001
0.77
0.77
0.77
0.77
0.77
0.77
0.77
0.77
0.77
0.77
0.77
0.77
0.77
0.77
0.77
0.77
0.229518
0.229567
0.22964
0.229749
0.229914
0.230159
0.230522
0.231051
0.231812
0.232886
0.23437
0.236382
0.239066
0.242596
0.247151
0.252917
0.260086
0.268793
0.278708
0.290306
0.30331
0.317758
0.333526
0.350975
0.36892
0.387661
0.407009
0.427177
0.447208
0.467594
0.487912
0.507815
0.527476
0.546709
0.565493
0.583695
0.601226
0.618061
0.63418
0.649571
0.664393
0.678469
0.691641
0.70427
0.716147
0.72725
0.737341
0.746555
0.754771
0.761788
0.767285
0.77078
0.772231
0.772767
0.772898
0.772845
0.772701
0.77251
0.772298
0.772079
0.77186
0.771645
0.771439
0.771243
0.771058
0.77089
0.770736
0.770591
0.770464
0.770358
0.77027
0.770195
0.770136
0.770092
0.77006
0.770039
0.770024
0.770015
0.770009
0.770005
0.770003
0.770002
0.770001
0.770001
0.77
0.77
0.77
0.77
0.77
0.77
0.77
0.77
0.77
0.77
0.77
0.77
0.77
0.77
0.77
0.77
0.229518
0.229567
0.22964
0.229749
0.229914
0.230159
0.230522
0.231051
0.231811
0.232885
0.234369
0.23638
0.239063
0.242592
0.247146
0.252911
0.260078
0.268785
0.278698
0.290293
0.303296
0.317743
0.333511
0.35096
0.368905
0.387647
0.406996
0.427166
0.447198
0.467586
0.487906
0.507811
0.527475
0.54671
0.565497
0.583701
0.601234
0.61807
0.634191
0.649584
0.664407
0.678485
0.691658
0.704288
0.716166
0.72727
0.737359
0.746572
0.754784
0.761795
0.767286
0.770778
0.772227
0.772765
0.772896
0.772843
0.772699
0.772508
0.772297
0.772079
0.771859
0.771645
0.771438
0.771242
0.771058
0.770889
0.770735
0.770591
0.770464
0.770358
0.77027
0.770195
0.770136
0.770092
0.77006
0.770039
0.770024
0.770015
0.770009
0.770005
0.770003
0.770002
0.770001
0.770001
0.77
0.77
0.77
0.77
0.77
0.77
0.77
0.77
0.77
0.77
0.77
0.77
0.77
0.77
0.77
0.77
0.229518
0.229567
0.22964
0.229749
0.229914
0.230159
0.230522
0.231051
0.231811
0.232885
0.234369
0.23638
0.239063
0.242592
0.247146
0.252911
0.260078
0.268785
0.278698
0.290293
0.303296
0.317743
0.333511
0.35096
0.368905
0.387647
0.406996
0.427166
0.447198
0.467586
0.487907
0.507812
0.527475
0.54671
0.565497
0.583701
0.601234
0.61807
0.634191
0.649584
0.664407
0.678485
0.691658
0.704288
0.716167
0.727271
0.737361
0.746574
0.754785
0.761793
0.767274
0.77081
0.772242
0.772771
0.772901
0.772847
0.772699
0.772508
0.772297
0.772078
0.771859
0.771645
0.771438
0.771242
0.771058
0.770889
0.770735
0.770591
0.770464
0.770358
0.77027
0.770195
0.770136
0.770092
0.77006
0.770039
0.770024
0.770015
0.770009
0.770005
0.770003
0.770002
0.770001
0.770001
0.77
0.77
0.77
0.77
0.77
0.77
0.77
0.77
0.77
0.77
0.77
0.77
0.77
0.77
0.77
0.77
0.229518
0.229567
0.22964
0.229749
0.229914
0.230159
0.230522
0.231051
0.231812
0.232886
0.23437
0.236382
0.239066
0.242595
0.247151
0.252917
0.260085
0.268793
0.278708
0.290305
0.303309
0.317757
0.333526
0.350975
0.36892
0.387661
0.40701
0.427178
0.447209
0.467595
0.487913
0.507816
0.527477
0.546709
0.565494
0.583695
0.601226
0.61806
0.634179
0.64957
0.664391
0.678468
0.69164
0.70427
0.716148
0.727253
0.737343
0.746558
0.754774
0.761789
0.767285
0.770784
0.772232
0.772767
0.772901
0.772847
0.772702
0.772511
0.772299
0.772081
0.771861
0.771646
0.771439
0.771243
0.771059
0.77089
0.770736
0.770592
0.770465
0.770358
0.77027
0.770195
0.770136
0.770092
0.77006
0.770039
0.770024
0.770015
0.770009
0.770005
0.770003
0.770002
0.770001
0.770001
0.77
0.77
0.77
0.77
0.77
0.77
0.77
0.77
0.77
0.77
0.77
0.77
0.77
0.77
0.77
0.77
0.229518
0.229567
0.22964
0.229749
0.229914
0.23016
0.230523
0.231052
0.231814
0.232888
0.234373
0.236386
0.239072
0.242603
0.247161
0.25293
0.260101
0.268811
0.278728
0.290331
0.303338
0.317788
0.333558
0.351007
0.368951
0.387691
0.407038
0.427203
0.447231
0.467613
0.487927
0.507825
0.527482
0.546709
0.565488
0.583685
0.601211
0.618041
0.634155
0.649543
0.66436
0.678434
0.691604
0.704232
0.716108
0.727212
0.737302
0.746518
0.754735
0.761753
0.767252
0.770786
0.772233
0.772769
0.772904
0.77285
0.772705
0.772514
0.772302
0.772083
0.771863
0.771648
0.771441
0.771245
0.77106
0.770891
0.770737
0.770593
0.770465
0.770359
0.770271
0.770195
0.770136
0.770092
0.770061
0.770039
0.770024
0.770015
0.770009
0.770005
0.770003
0.770002
0.770001
0.770001
0.77
0.77
0.77
0.77
0.77
0.77
0.77
0.77
0.77
0.77
0.77
0.77
0.77
0.77
0.77
0.77
0.229518
0.229567
0.22964
0.22975
0.229915
0.230161
0.230524
0.231054
0.231816
0.232891
0.234378
0.236392
0.23908
0.242614
0.247176
0.252949
0.260124
0.268839
0.27876
0.290372
0.303382
0.317835
0.333607
0.351056
0.369
0.387738
0.407082
0.427243
0.447266
0.467643
0.48795
0.507841
0.52749
0.54671
0.565481
0.583671
0.60119
0.618012
0.63412
0.649502
0.664314
0.678383
0.691549
0.704173
0.716047
0.727149
0.737239
0.746455
0.754674
0.761697
0.767203
0.770781
0.772235
0.772774
0.77291
0.772856
0.772707
0.772516
0.772305
0.772086
0.771866
0.771651
0.771444
0.771248
0.771063
0.770893
0.770739
0.770594
0.770467
0.77036
0.770271
0.770196
0.770137
0.770093
0.770061
0.770039
0.770024
0.770015
0.770009
0.770005
0.770003
0.770002
0.770001
0.770001
0.77
0.77
0.77
0.77
0.77
0.77
0.77
0.77
0.77
0.77
0.77
0.77
0.77
0.77
0.77
0.77
0.229518
0.229567
0.22964
0.22975
0.229915
0.230161
0.230525
0.231056
0.231819
0.232896
0.234384
0.236401
0.239092
0.24263
0.247198
0.252975
0.260156
0.268877
0.278804
0.29043
0.303447
0.317905
0.333679
0.351128
0.369071
0.387807
0.407147
0.427301
0.447317
0.467687
0.487985
0.507866
0.527505
0.546714
0.565475
0.583654
0.601163
0.617976
0.634075
0.649449
0.664253
0.678316
0.691477
0.704096
0.715966
0.727065
0.737154
0.746373
0.754599
0.761635
0.767169
0.770733
0.772215
0.772766
0.772907
0.772856
0.772713
0.772523
0.772311
0.772091
0.771871
0.771655
0.771448
0.771252
0.771066
0.770896
0.770742
0.770597
0.770469
0.770362
0.770273
0.770197
0.770138
0.770093
0.770061
0.770039
0.770024
0.770015
0.770009
0.770005
0.770003
0.770002
0.770001
0.770001
0.77
0.77
0.77
0.77
0.77
0.77
0.77
0.77
0.77
0.77
0.77
0.77
0.77
0.77
0.77
0.77
0.229518
0.229567
0.22964
0.229751
0.229916
0.230163
0.230527
0.231058
0.231823
0.232902
0.234392
0.236413
0.239108
0.242651
0.247226
0.25301
0.260199
0.268928
0.278862
0.290503
0.303525
0.317989
0.333767
0.351219
0.369162
0.387895
0.407231
0.427379
0.447387
0.467748
0.488034
0.507903
0.52753
0.546726
0.565474
0.58364
0.601136
0.617937
0.634025
0.649387
0.664181
0.678236
0.691388
0.703999
0.715864
0.72696
0.73705
0.746273
0.754508
0.761561
0.767122
0.770715
0.772212
0.772769
0.772909
0.772861
0.772718
0.772528
0.772316
0.772097
0.771877
0.771661
0.771453
0.771256
0.77107
0.7709
0.770745
0.770599
0.770471
0.770363
0.770274
0.770198
0.770139
0.770094
0.770062
0.770039
0.770025
0.770015
0.770009
0.770005
0.770003
0.770002
0.770001
0.770001
0.77
0.77
0.77
0.77
0.77
0.77
0.77
0.77
0.77
0.77
0.77
0.77
0.77
0.77
0.77
0.77
0.229518
0.229567
0.229641
0.229751
0.229917
0.230164
0.230529
0.231062
0.231828
0.232909
0.234403
0.236427
0.239128
0.242678
0.247262
0.253055
0.260253
0.268992
0.278938
0.290599
0.303631
0.318102
0.333887
0.35134
0.369284
0.388013
0.407343
0.427481
0.44748
0.467831
0.488103
0.507958
0.527569
0.546749
0.565479
0.583629
0.601109
0.617895
0.633968
0.649317
0.664098
0.678141
0.691283
0.703885
0.715741
0.726831
0.73692
0.746146
0.75439
0.76146
0.767048
0.770682
0.772201
0.772768
0.772916
0.772868
0.772728
0.772537
0.772325
0.772105
0.771884
0.771668
0.77146
0.771262
0.771075
0.770904
0.770749
0.770603
0.770474
0.770366
0.770276
0.770199
0.77014
0.770095
0.770062
0.77004
0.770025
0.770015
0.770009
0.770005
0.770003
0.770002
0.770001
0.770001
0.77
0.77
0.77
0.77
0.77
0.77
0.77
0.77
0.77
0.77
0.77
0.77
0.77
0.77
0.77
0.77
0.229518
0.229568
0.229641
0.229752
0.229918
0.230166
0.230532
0.231066
0.231834
0.232918
0.234416
0.236445
0.239152
0.242711
0.247305
0.253112
0.260323
0.269076
0.279033
0.290722
0.303763
0.318241
0.334033
0.351491
0.369435
0.388163
0.407488
0.427617
0.447604
0.467945
0.4882
0.508037
0.527629
0.546788
0.565498
0.583627
0.601086
0.617852
0.633907
0.64924
0.664004
0.678033
0.691161
0.70375
0.715599
0.726683
0.73677
0.745998
0.754251
0.761338
0.766957
0.770646
0.772191
0.772769
0.772922
0.772877
0.772735
0.772545
0.772333
0.772113
0.771893
0.771676
0.771467
0.771269
0.771081
0.77091
0.770754
0.770607
0.770478
0.770368
0.770278
0.770201
0.770141
0.770096
0.770063
0.77004
0.770025
0.770015
0.770009
0.770005
0.770003
0.770002
0.770001
0.770001
0.77
0.77
0.77
0.77
0.77
0.77
0.77
0.77
0.77
0.77
0.77
0.77
0.77
0.77
0.77
0.77
0.229518
0.229568
0.229641
0.229753
0.229919
0.230168
0.230535
0.231071
0.231841
0.232929
0.234431
0.236466
0.239181
0.242748
0.247354
0.253172
0.260399
0.269169
0.279143
0.290864
0.303923
0.318418
0.334224
0.351688
0.369639
0.388368
0.407683
0.4278
0.447771
0.468098
0.488332
0.508147
0.527717
0.546852
0.565537
0.58364
0.601075
0.617818
0.633851
0.649163
0.663908
0.677919
0.691028
0.70359
0.715422
0.726499
0.736586
0.745819
0.754083
0.761188
0.766832
0.770625
0.772188
0.772774
0.772934
0.77289
0.772745
0.772555
0.772343
0.772123
0.771902
0.771685
0.771476
0.771277
0.771088
0.770916
0.77076
0.770612
0.770482
0.770372
0.770281
0.770203
0.770142
0.770097
0.770064
0.770041
0.770025
0.770015
0.770009
0.770005
0.770003
0.770002
0.770001
0.770001
0.77
0.77
0.77
0.77
0.77
0.77
0.77
0.77
0.77
0.77
0.77
0.77
0.77
0.77
0.77
0.77
0.229518
0.229568
0.229642
0.229754
0.229921
0.230171
0.230539
0.231077
0.23185
0.232941
0.234449
0.236491
0.239215
0.242794
0.247416
0.253249
0.260493
0.269283
0.279277
0.291036
0.304124
0.318632
0.334449
0.35192
0.369879
0.388612
0.40793
0.428033
0.447993
0.468298
0.488507
0.508297
0.52784
0.546948
0.565603
0.583677
0.601082
0.617798
0.633808
0.6491
0.663831
0.677837
0.690955
0.703352
0.715191
0.726263
0.736355
0.7456
0.753884
0.761016
0.7667
0.77056
0.772168
0.772772
0.772937
0.772899
0.77276
0.77257
0.772356
0.772135
0.771912
0.771694
0.771484
0.771286
0.771095
0.770924
0.770767
0.770619
0.770488
0.770376
0.770284
0.770206
0.770144
0.770098
0.770064
0.770041
0.770026
0.770016
0.770009
0.770006
0.770003
0.770002
0.770001
0.770001
0.77
0.77
0.77
0.77
0.77
0.77
0.77
0.77
0.77
0.77
0.77
0.77
0.77
0.77
0.77
0.77
0.229518
0.229568
0.229643
0.229755
0.229923
0.230174
0.230544
0.231084
0.23186
0.232956
0.23447
0.236521
0.239257
0.242849
0.247489
0.253342
0.260607
0.269418
0.279438
0.291247
0.304356
0.318894
0.334731
0.352223
0.370184
0.388915
0.408224
0.428318
0.448263
0.468555
0.488739
0.508503
0.52802
0.54709
0.565709
0.583744
0.601112
0.617793
0.63377
0.649033
0.663734
0.677713
0.690807
0.703167
0.714976
0.726019
0.7361
0.745351
0.753654
0.760822
0.766567
0.770452
0.772128
0.772764
0.772941
0.772898
0.772764
0.772578
0.772367
0.772147
0.771924
0.771707
0.771497
0.771298
0.771106
0.770934
0.770775
0.770626
0.770494
0.77038
0.770288
0.770209
0.770147
0.7701
0.770066
0.770042
0.770026
0.770016
0.77001
0.770006
0.770003
0.770002
0.770001
0.770001
0.77
0.77
0.77
0.77
0.77
0.77
0.77
0.77
0.77
0.77
0.77
0.77
0.77
0.77
0.77
0.77
0.229518
0.229569
0.229643
0.229756
0.229925
0.230177
0.230549
0.231092
0.231872
0.232974
0.234495
0.236557
0.239306
0.242916
0.247578
0.253456
0.260751
0.269595
0.279653
0.291527
0.304659
0.319236
0.335096
0.35258
0.37055
0.389294
0.408609
0.428684
0.448618
0.468896
0.489042
0.508774
0.528256
0.547292
0.565864
0.583852
0.601173
0.617809
0.633743
0.648966
0.663629
0.677573
0.690639
0.702964
0.714733
0.72575
0.735823
0.745074
0.753429
0.760618
0.766407
0.77036
0.772095
0.772755
0.772945
0.772915
0.77278
0.772592
0.77238
0.772159
0.771937
0.771719
0.771508
0.771307
0.771119
0.770945
0.770785
0.770635
0.770502
0.770386
0.770292
0.770212
0.770149
0.770101
0.770067
0.770043
0.770027
0.770016
0.77001
0.770006
0.770003
0.770002
0.770001
0.770001
0.77
0.77
0.77
0.77
0.77
0.77
0.77
0.77
0.77
0.77
0.77
0.77
0.77
0.77
0.77
0.77
0.229518
0.229569
0.229644
0.229757
0.229927
0.230181
0.230555
0.231101
0.231886
0.232993
0.234524
0.236597
0.239362
0.242993
0.24768
0.253587
0.260915
0.269792
0.27988
0.291824
0.305012
0.319604
0.335507
0.35303
0.37103
0.389773
0.409082
0.429142
0.449065
0.469315
0.489435
0.50913
0.528571
0.54756
0.566087
0.584016
0.601279
0.617858
0.633738
0.648908
0.663521
0.677417
0.69045
0.70274
0.714493
0.725503
0.735559
0.744793
0.753172
0.76037
0.766189
0.770274
0.772065
0.77275
0.772951
0.772929
0.772795
0.772608
0.772397
0.772177
0.771955
0.771736
0.771525
0.771323
0.771134
0.770958
0.770797
0.770645
0.770511
0.770394
0.770299
0.770217
0.770153
0.770104
0.770068
0.770044
0.770027
0.770017
0.77001
0.770006
0.770003
0.770002
0.770001
0.770001
0.77
0.77
0.77
0.77
0.77
0.77
0.77
0.77
0.77
0.77
0.77
0.77
0.77
0.77
0.77
0.77
0.229518
0.22957
0.229645
0.229759
0.22993
0.230185
0.230561
0.231111
0.231901
0.233016
0.234556
0.236644
0.239427
0.243081
0.247797
0.253738
0.261104
0.270024
0.280155
0.292177
0.305406
0.320046
0.336012
0.353548
0.371566
0.390344
0.409671
0.429732
0.449617
0.469838
0.48992
0.50958
0.528977
0.547915
0.566383
0.584252
0.601445
0.617956
0.633772
0.648881
0.663435
0.67728
0.690274
0.702524
0.714242
0.725227
0.735266
0.74449
0.752896
0.760114
0.765974
0.770138
0.772015
0.772736
0.772952
0.772936
0.772809
0.772625
0.772416
0.772196
0.771974
0.771755
0.771542
0.771339
0.771149
0.770971
0.770809
0.770656
0.77052
0.770401
0.770304
0.770221
0.770156
0.770106
0.77007
0.770045
0.770028
0.770017
0.77001
0.770006
0.770003
0.770002
0.770001
0.770001
0.77
0.77
0.77
0.77
0.77
0.77
0.77
0.77
0.77
0.77
0.77
0.77
0.77
0.77
0.77
0.77
0.229518
0.22957
0.229646
0.229761
0.229933
0.23019
0.230569
0.231122
0.231917
0.23304
0.234591
0.236694
0.239498
0.243179
0.247928
0.253908
0.26132
0.27029
0.280477
0.292586
0.305874
0.320584
0.33665
0.354244
0.372268
0.39105
0.410384
0.430426
0.450303
0.470479
0.490525
0.510148
0.529495
0.548377
0.566776
0.584567
0.601684
0.618119
0.633859
0.648897
0.663383
0.677166
0.690106
0.702306
0.713982
0.724931
0.73496
0.744171
0.752592
0.759834
0.765755
0.76995
0.771944
0.772717
0.772954
0.772949
0.772827
0.772648
0.77244
0.772221
0.771994
0.771774
0.77156
0.771356
0.771164
0.770985
0.770821
0.770667
0.770529
0.770409
0.77031
0.770226
0.770159
0.770108
0.770071
0.770046
0.770028
0.770017
0.77001
0.770006
0.770003
0.770002
0.770001
0.770001
0.77
0.77
0.77
0.77
0.77
0.77
0.77
0.77
0.77
0.77
0.77
0.77
0.77
0.77
0.77
0.77
0.229518
0.22957
0.229647
0.229762
0.229936
0.230194
0.230576
0.231133
0.231934
0.233065
0.234629
0.236749
0.239576
0.243287
0.248073
0.254097
0.261559
0.270582
0.280821
0.29301
0.306354
0.321114
0.337325
0.354992
0.373112
0.391904
0.41126
0.431298
0.451192
0.471307
0.491279
0.510856
0.530147
0.548966
0.567286
0.584992
0.602024
0.618367
0.634019
0.648973
0.663385
0.6771