/*--------------------------------*- C++ -*----------------------------------*\
  =========                 |
  \\      /  F ield         | OpenFOAM: The Open Source CFD Toolbox
   \\    /   O peration     | Website:  https://openfoam.org
    \\  /    A nd           | Version:  10
     \\/     M anipulation  |
\*---------------------------------------------------------------------------*/
FoamFile
{
    format      ascii;
    class       volScalarField;
    location    "1";
    object      N2H2;
}
// * * * * * * * * * * * * * * * * * * * * * * * * * * * * * * * * * * * * * //

dimensions      [0 0 0 0 0 0 0];

internalField   nonuniform List<scalar> 
4000
(
4.9502e-12
1.88707e-11
3.9365e-11
7.0286e-11
1.16703e-10
1.85869e-10
2.88025e-10
4.37226e-10
6.52e-10
9.55619e-10
1.3762e-09
1.94766e-09
2.71094e-09
3.71353e-09
5.0063e-09
6.63094e-09
8.64236e-09
1.10766e-08
1.38442e-08
1.71621e-08
2.08558e-08
2.5108e-08
3.01997e-08
3.61896e-08
4.36895e-08
5.34189e-08
6.64068e-08
8.4037e-08
1.07636e-07
1.39984e-07
1.84308e-07
2.45952e-07
3.34693e-07
4.62482e-07
6.43858e-07
8.94539e-07
1.22462e-06
1.63731e-06
2.13191e-06
2.70858e-06
3.37861e-06
4.13482e-06
4.95793e-06
5.8185e-06
6.67644e-06
7.42283e-06
7.92223e-06
8.02944e-06
7.59909e-06
6.53164e-06
4.87144e-06
2.97723e-06
1.64039e-06
8.96097e-07
4.83036e-07
2.55807e-07
1.3244e-07
6.68276e-08
3.27207e-08
1.54903e-08
7.05532e-09
3.12844e-09
1.37673e-09
6.45002e-10
3.58579e-10
2.41152e-10
1.83739e-10
1.46971e-10
1.17234e-10
9.19606e-11
7.09224e-11
5.23848e-11
3.73225e-11
2.561e-11
1.69245e-11
1.08122e-11
6.69992e-12
4.04479e-12
2.38854e-12
1.38393e-12
7.89265e-13
4.43595e-13
2.46156e-13
1.35137e-13
7.33718e-14
3.95048e-14
2.11123e-14
1.12044e-14
5.91178e-15
3.10508e-15
1.6195e-15
8.40516e-16
4.34058e-16
2.22828e-16
1.1344e-16
5.69638e-17
2.78822e-17
1.294e-17
5.27273e-18
1.21993e-18
4.93195e-12
1.88008e-11
3.92199e-11
7.00347e-11
1.16304e-10
1.85259e-10
2.87107e-10
4.35845e-10
6.49895e-10
9.52341e-10
1.37098e-09
1.93929e-09
2.69746e-09
3.69278e-09
4.9762e-09
6.5895e-09
8.5834e-09
1.09941e-08
1.37399e-08
1.70461e-08
2.07214e-08
2.49369e-08
2.99846e-08
3.59474e-08
4.33912e-08
5.30475e-08
6.5919e-08
8.348e-08
1.06942e-07
1.39152e-07
1.83304e-07
2.44582e-07
3.32817e-07
4.6022e-07
6.41308e-07
8.92018e-07
1.22291e-06
1.6375e-06
2.13478e-06
2.7151e-06
3.38948e-06
4.15066e-06
4.97855e-06
5.84432e-06
6.70636e-06
7.45436e-06
7.95072e-06
8.04907e-06
7.60313e-06
6.51387e-06
4.83081e-06
2.92837e-06
1.61154e-06
8.79956e-07
4.74205e-07
2.51222e-07
1.29104e-07
6.50493e-08
3.1796e-08
1.50341e-08
6.79346e-09
3.00576e-09
1.32409e-09
6.25771e-10
3.52551e-10
2.39939e-10
1.83497e-10
1.46771e-10
1.16837e-10
9.14265e-11
7.0383e-11
5.19466e-11
3.70066e-11
2.53993e-11
1.68261e-11
1.07811e-11
6.70348e-12
4.06171e-12
2.40742e-12
1.3999e-12
8.01229e-13
4.51881e-13
2.5172e-13
1.38592e-13
7.56272e-14
4.08695e-14
2.18977e-14
1.16336e-14
6.13436e-15
3.21114e-15
1.67538e-15
8.6858e-16
4.47788e-16
2.29413e-16
1.16537e-16
5.83907e-17
2.8522e-17
1.32139e-17
5.37743e-18
1.24316e-18
4.92e-12
1.87568e-11
3.91335e-11
6.98912e-11
1.16084e-10
1.84935e-10
2.86623e-10
4.35075e-10
6.48594e-10
9.50049e-10
1.36683e-09
1.93164e-09
2.68468e-09
3.6727e-09
4.94606e-09
6.54683e-09
8.52843e-09
1.09188e-08
1.36406e-08
1.69201e-08
2.05683e-08
2.47637e-08
2.97355e-08
3.57616e-08
4.31238e-08
5.26833e-08
6.54151e-08
8.28311e-08
1.06095e-07
1.38094e-07
1.81968e-07
2.4286e-07
3.3054e-07
4.57297e-07
6.38118e-07
8.89039e-07
1.22124e-06
1.6385e-06
2.14021e-06
2.72662e-06
3.40774e-06
4.17631e-06
5.01205e-06
5.8864e-06
6.75476e-06
7.50463e-06
7.99539e-06
8.07882e-06
7.60622e-06
6.48121e-06
4.76231e-06
2.84478e-06
1.56573e-06
8.54021e-07
4.59442e-07
2.43092e-07
1.24724e-07
6.26986e-08
3.05725e-08
1.44414e-08
6.44645e-09
2.84932e-09
1.25817e-09
6.01545e-10
3.45111e-10
2.38243e-10
1.83114e-10
1.46518e-10
1.16412e-10
9.08776e-11
6.98292e-11
5.14726e-11
3.6677e-11
2.51987e-11
1.67104e-11
1.07268e-11
6.68556e-12
4.0622e-12
2.41495e-12
1.40841e-12
8.08747e-13
4.57515e-13
2.55496e-13
1.4102e-13
7.70164e-14
4.16591e-14
2.23495e-14
1.18915e-14
6.28072e-15
3.29462e-15
1.71732e-15
8.90544e-16
4.59127e-16
2.35136e-16
1.19367e-16
5.97602e-17
2.91658e-17
1.35013e-17
5.49088e-18
1.26891e-18
4.8993e-12
1.86776e-11
3.89667e-11
6.95888e-11
1.1557e-10
1.84088e-10
2.85254e-10
4.32897e-10
6.45169e-10
9.44731e-10
1.35873e-09
1.91973e-09
2.66731e-09
3.6478e-09
4.91125e-09
6.49976e-09
8.46649e-09
1.08463e-08
1.35571e-08
1.68137e-08
2.04416e-08
2.46129e-08
2.95463e-08
3.55503e-08
4.28719e-08
5.23579e-08
6.49661e-08
8.22547e-08
1.05352e-07
1.3719e-07
1.80846e-07
2.41394e-07
3.28599e-07
4.54864e-07
6.35586e-07
8.86999e-07
1.22094e-06
1.64161e-06
2.14882e-06
2.74182e-06
3.43137e-06
4.20987e-06
5.05603e-06
5.93983e-06
6.81532e-06
7.56684e-06
8.04941e-06
8.11372e-06
7.60776e-06
6.43801e-06
4.6778e-06
2.74834e-06
1.51201e-06
8.23829e-07
4.42503e-07
2.33388e-07
1.19452e-07
5.98303e-08
2.90563e-08
1.36655e-08
6.06723e-09
2.6744e-09
1.18444e-09
5.75679e-10
3.37411e-10
2.36244e-10
1.82568e-10
1.46119e-10
1.15843e-10
9.01832e-11
6.91425e-11
5.08486e-11
3.61089e-11
2.47524e-11
1.64006e-11
1.05348e-11
6.57801e-12
4.00847e-12
2.392e-12
1.40124e-12
8.07534e-13
4.58129e-13
2.56513e-13
1.41912e-13
7.76556e-14
4.20735e-14
2.26017e-14
1.20352e-14
6.36057e-15
3.33854e-15
1.7417e-15
9.03083e-16
4.65492e-16
2.38348e-16
1.20974e-16
6.05532e-17
2.9548e-17
1.36768e-17
5.56211e-18
1.28535e-18
4.87702e-12
1.85927e-11
3.87895e-11
6.92715e-11
1.1504e-10
1.83234e-10
2.8391e-10
4.30815e-10
6.41988e-10
9.39921e-10
1.35154e-09
1.90912e-09
2.65201e-09
3.62629e-09
4.88188e-09
6.46112e-09
8.41709e-09
1.07849e-08
1.34822e-08
1.67239e-08
2.03429e-08
2.45025e-08
2.94003e-08
3.53838e-08
4.26557e-08
5.20608e-08
6.45837e-08
8.1773e-08
1.04752e-07
1.3646e-07
1.80021e-07
2.40407e-07
3.27283e-07
4.53214e-07
6.34074e-07
8.8627e-07
1.22227e-06
1.64683e-06
2.15963e-06
2.76042e-06
3.4585e-06
4.24677e-06
5.10344e-06
5.99705e-06
6.87944e-06
7.63169e-06
8.10428e-06
8.14625e-06
7.60387e-06
6.38643e-06
4.58128e-06
2.65378e-06
1.45869e-06
7.93729e-07
4.25622e-07
2.24091e-07
1.14584e-07
5.72378e-08
2.77076e-08
1.29805e-08
5.7493e-09
2.53088e-09
1.12408e-09
5.53688e-10
3.30596e-10
2.34323e-10
1.81924e-10
1.45572e-10
1.1516e-10
8.94189e-11
6.84172e-11
5.01674e-11
3.55822e-11
2.43775e-11
1.61548e-11
1.03855e-11
6.49259e-12
3.96213e-12
2.36793e-12
1.38918e-12
8.02373e-13
4.56424e-13
2.56127e-13
1.41963e-13
7.77989e-14
4.22113e-14
2.27067e-14
1.21036e-14
6.40201e-15
3.36243e-15
1.7551e-15
9.10266e-16
4.69241e-16
2.40264e-16
1.21935e-16
6.10272e-17
2.97758e-17
1.3781e-17
5.60417e-18
1.29504e-18
4.85275e-12
1.84999e-11
3.85949e-11
6.89214e-11
1.14453e-10
1.82288e-10
2.82426e-10
4.28536e-10
6.38548e-10
9.34804e-10
1.34403e-09
1.8983e-09
2.63678e-09
3.60551e-09
4.85442e-09
6.42634e-09
8.37461e-09
1.07353e-08
1.34266e-08
1.6655e-08
2.02677e-08
2.44201e-08
2.92864e-08
3.52509e-08
4.24827e-08
5.18462e-08
6.43017e-08
8.14205e-08
1.04306e-07
1.35965e-07
1.79487e-07
2.39789e-07
3.26549e-07
4.52408e-07
6.33583e-07
8.86864e-07
1.22522e-06
1.65389e-06
2.17264e-06
2.78058e-06
3.48762e-06
4.28631e-06
5.15222e-06
6.05446e-06
6.94257e-06
7.69446e-06
8.15657e-06
8.17583e-06
7.59547e-06
6.33053e-06
4.48573e-06
2.56492e-06
1.40839e-06
7.65274e-07
4.09609e-07
2.14829e-07
1.09611e-07
5.4536e-08
2.62842e-08
1.22597e-08
5.43035e-09
2.38724e-09
1.0668e-09
5.33585e-10
3.24424e-10
2.32592e-10
1.8152e-10
1.44595e-10
1.14331e-10
8.86479e-11
6.76553e-11
4.95246e-11
3.5082e-11
2.40146e-11
1.59073e-11
1.0227e-11
6.39577e-12
3.90571e-12
2.33643e-12
1.37237e-12
7.93049e-13
4.51649e-13
2.53839e-13
1.40955e-13
7.74136e-14
4.20713e-14
2.26634e-14
1.20931e-14
6.40178e-15
3.36456e-15
1.75725e-15
9.11719e-16
4.70094e-16
2.40741e-16
1.22192e-16
6.11596e-17
2.98417e-17
1.38119e-17
5.61691e-18
1.29801e-18
4.8286e-12
1.84077e-11
3.8402e-11
6.85754e-11
1.13875e-10
1.81363e-10
2.80986e-10
4.26344e-10
6.35273e-10
9.29985e-10
1.33703e-09
1.88833e-09
2.62293e-09
3.58681e-09
4.82998e-09
6.39568e-09
8.33747e-09
1.06921e-08
1.33777e-08
1.65931e-08
2.02012e-08
2.43531e-08
2.91959e-08
3.51458e-08
4.23605e-08
5.16937e-08
6.4107e-08
8.11877e-08
1.04029e-07
1.35672e-07
1.79202e-07
2.3951e-07
3.26297e-07
4.52268e-07
6.33932e-07
8.88444e-07
1.22921e-06
1.66183e-06
2.1859e-06
2.80081e-06
3.51667e-06
4.32461e-06
5.19946e-06
6.1098e-06
7.00279e-06
7.75329e-06
8.20402e-06
8.20192e-06
7.58175e-06
6.27492e-06
4.39503e-06
2.47951e-06
1.36066e-06
7.38724e-07
3.95079e-07
2.0584e-07
1.05021e-07
5.21348e-08
2.50518e-08
1.16125e-08
5.19732e-09
2.28181e-09
1.02198e-09
5.17886e-10
3.19662e-10
2.31262e-10
1.81087e-10
1.44134e-10
1.13808e-10
8.80749e-11
6.71139e-11
4.90398e-11
3.46858e-11
2.3712e-11
1.56926e-11
1.0085e-11
6.30652e-12
3.85221e-12
2.30561e-12
1.35529e-12
7.83792e-13
4.46742e-13
2.51282e-13
1.39633e-13
7.67278e-14
4.17285e-14
2.24972e-14
1.20137e-14
6.3646e-15
3.3474e-15
1.74955e-15
9.08276e-16
4.68595e-16
2.40072e-16
1.21886e-16
6.10181e-17
2.97764e-17
1.37829e-17
5.6054e-18
1.2954e-18
4.80553e-12
1.83196e-11
3.82179e-11
6.82455e-11
1.13325e-10
1.80485e-10
2.79625e-10
4.24282e-10
6.3221e-10
9.25509e-10
1.33059e-09
1.87923e-09
2.6104e-09
3.57007e-09
4.80835e-09
6.36886e-09
8.30541e-09
1.06553e-08
1.3337e-08
1.65407e-08
2.01485e-08
2.42974e-08
2.91301e-08
3.50783e-08
4.22817e-08
5.15918e-08
6.39775e-08
8.10359e-08
1.03867e-07
1.3553e-07
1.79104e-07
2.39481e-07
3.26365e-07
4.52619e-07
6.34921e-07
8.90802e-07
1.2339e-06
1.67022e-06
2.19931e-06
2.82041e-06
3.54276e-06
4.35793e-06
5.23966e-06
6.15635e-06
7.05315e-06
7.80233e-06
8.24329e-06
8.22091e-06
7.57095e-06
6.22887e-06
4.32718e-06
2.40003e-06
1.31748e-06
7.1536e-07
3.83029e-07
1.97729e-07
1.00892e-07
4.99975e-08
2.39561e-08
1.1071e-08
4.95007e-09
2.17242e-09
9.79329e-10
5.0329e-10
3.15222e-10
2.3003e-10
1.80692e-10
1.43646e-10
1.13303e-10
8.75567e-11
6.66293e-11
4.86104e-11
3.43191e-11
2.3424e-11
1.54841e-11
9.9447e-12
6.21684e-12
3.79745e-12
2.27341e-12
1.33703e-12
7.73641e-13
4.41225e-13
2.48341e-13
1.38091e-13
7.59318e-14
4.13271e-14
2.22782e-14
1.19048e-14
6.31061e-15
3.32072e-15
1.73648e-15
9.01806e-16
4.65377e-16
2.38484e-16
1.21109e-16
6.06423e-17
2.95986e-17
1.37027e-17
5.57349e-18
1.28813e-18
4.7844e-12
1.82391e-11
3.80497e-11
6.79447e-11
1.12825e-10
1.79689e-10
2.78395e-10
4.22427e-10
6.29469e-10
9.21529e-10
1.3249e-09
1.87125e-09
2.59949e-09
3.55561e-09
4.78981e-09
6.34613e-09
8.27867e-09
1.06255e-08
1.33058e-08
1.65006e-08
2.0106e-08
2.4256e-08
2.90861e-08
3.50314e-08
4.22272e-08
5.15283e-08
6.39027e-08
8.09591e-08
1.03795e-07
1.3549e-07
1.7914e-07
2.39634e-07
3.26696e-07
4.5332e-07
6.36379e-07
8.93636e-07
1.23902e-06
1.67883e-06
2.2127e-06
2.83997e-06
3.56964e-06
4.3924e-06
5.28088e-06
6.20324e-06
7.10243e-06
7.84753e-06
8.27682e-06
8.23357e-06
7.55555e-06
6.17854e-06
4.2517e-06
2.34775e-06
1.2875e-06
6.98179e-07
3.73017e-07
1.92751e-07
9.80626e-08
4.84355e-08
2.31359e-08
1.06593e-08
4.75534e-09
2.08742e-09
9.45744e-10
4.91907e-10
3.11774e-10
2.29029e-10
1.80316e-10
1.43218e-10
1.12792e-10
8.69807e-11
6.60655e-11
4.81216e-11
3.39278e-11
2.31331e-11
1.52804e-11
9.81027e-12
6.1317e-12
3.74556e-12
2.24278e-12
1.31946e-12
7.63761e-13
4.35775e-13
2.45384e-13
1.3651e-13
7.50963e-14
4.08951e-14
2.20542e-14
1.17895e-14
6.25172e-15
3.29077e-15
1.72145e-15
8.94212e-16
4.61554e-16
2.36567e-16
1.20154e-16
6.01725e-17
2.93727e-17
1.35994e-17
5.53184e-18
1.27854e-18
4.76559e-12
1.81674e-11
3.79001e-11
6.76774e-11
1.12382e-10
1.78984e-10
2.77309e-10
4.20795e-10
6.27069e-10
9.18063e-10
1.31998e-09
1.86439e-09
2.59017e-09
3.54331e-09
4.77407e-09
6.32686e-09
8.25589e-09
1.05999e-08
1.32777e-08
1.64642e-08
2.0071e-08
2.42216e-08
2.90538e-08
3.50031e-08
4.21977e-08
5.14944e-08
6.38651e-08
8.09287e-08
1.0378e-07
1.35518e-07
1.79255e-07
2.39873e-07
3.27101e-07
4.54213e-07
6.38053e-07
8.96668e-07
1.24423e-06
1.68724e-06
2.22552e-06
2.85789e-06
3.59362e-06
4.42282e-06
5.31702e-06
6.24416e-06
7.14457e-06
7.88582e-06
8.30416e-06
8.24055e-06
7.53624e-06
6.12804e-06
4.17897e-06
2.31187e-06
1.2661e-06
6.85627e-07
3.66007e-07
1.88306e-07
9.56624e-08
4.71777e-08
2.2494e-08
1.03426e-08
4.60378e-09
2.01907e-09
9.18867e-10
4.83905e-10
3.07746e-10
2.2781e-10
1.79848e-10
1.42858e-10
1.12401e-10
8.65845e-11
6.5666e-11
4.77524e-11
3.36198e-11
2.28976e-11
1.51116e-11
9.69646e-12
6.05814e-12
3.69988e-12
2.21525e-12
1.30338e-12
7.5457e-13
4.30624e-13
2.42546e-13
1.34969e-13
7.42712e-14
4.04623e-14
2.18272e-14
1.16715e-14
6.19084e-15
3.25955e-15
1.70547e-15
8.86079e-16
4.57436e-16
2.34494e-16
1.19118e-16
5.96603e-17
2.91255e-17
1.34859e-17
5.48596e-18
1.26798e-18
4.74923e-12
1.81051e-11
3.77701e-11
6.74454e-11
1.11997e-10
1.78374e-10
2.76372e-10
4.1939e-10
6.2501e-10
9.15109e-10
1.31582e-09
1.85866e-09
2.5825e-09
3.53334e-09
4.76121e-09
6.31149e-09
8.23856e-09
1.05815e-08
1.32585e-08
1.6439e-08
2.00469e-08
2.41995e-08
2.90345e-08
3.49867e-08
4.21831e-08
5.14807e-08
6.38548e-08
8.09323e-08
1.03812e-07
1.35602e-07
1.79448e-07
2.40244e-07
3.27778e-07
4.55232e-07
6.39762e-07
8.99577e-07
1.24899e-06
1.69474e-06
2.23667e-06
2.87343e-06
3.61424e-06
4.44885e-06
5.34792e-06
6.27955e-06
7.18124e-06
7.91887e-06
8.32624e-06
8.2442e-06
7.51627e-06
6.08193e-06
4.11937e-06
2.27401e-06
1.24489e-06
6.73656e-07
3.59176e-07
1.84521e-07
9.35848e-08
4.60645e-08
2.19191e-08
1.00586e-08
4.4731e-09
1.96231e-09
8.96785e-10
4.76642e-10
3.0601e-10
2.27454e-10
1.7975e-10
1.42684e-10
1.12113e-10
8.63299e-11
6.539e-11
4.74799e-11
3.33793e-11
2.2708e-11
1.49723e-11
9.60073e-12
5.9952e-12
3.66025e-12
2.19084e-12
1.28897e-12
7.46238e-13
4.25903e-13
2.39917e-13
1.33528e-13
7.34914e-14
4.00475e-14
2.16079e-14
1.15567e-14
6.13126e-15
3.22899e-15
1.68918e-15
8.77806e-16
4.53252e-16
2.32387e-16
1.18064e-16
5.91397e-17
2.88741e-17
1.33705e-17
5.43922e-18
1.25722e-18
4.73529e-12
1.80519e-11
3.76594e-11
6.72481e-11
1.11671e-10
1.77858e-10
2.75579e-10
4.18205e-10
6.23281e-10
9.1264e-10
1.31237e-09
1.85395e-09
2.57623e-09
3.52528e-09
4.75086e-09
6.29942e-09
8.22493e-09
1.05665e-08
1.32427e-08
1.64193e-08
2.00284e-08
2.41843e-08
2.90232e-08
3.49801e-08
4.21796e-08
5.14808e-08
6.38615e-08
8.09564e-08
1.03868e-07
1.35711e-07
1.79662e-07
2.40615e-07
3.2838e-07
4.56229e-07
6.41419e-07
9.02316e-07
1.25334e-06
1.70151e-06
2.24632e-06
2.88644e-06
3.63092e-06
4.46883e-06
5.36977e-06
6.31546e-06
7.21538e-06
7.94761e-06
8.34448e-06
8.24597e-06
7.49643e-06
6.03917e-06
4.06401e-06
2.24037e-06
1.22568e-06
6.6279e-07
3.53126e-07
1.81302e-07
9.18474e-08
4.51465e-08
2.14467e-08
9.82517e-09
4.36446e-09
1.91426e-09
8.78265e-10
4.70551e-10
3.04615e-10
2.27223e-10
1.79736e-10
1.42594e-10
1.1191e-10
8.61834e-11
6.52021e-11
4.72899e-11
3.31958e-11
2.25556e-11
1.48568e-11
9.51968e-12
5.94104e-12
3.62568e-12
2.16948e-12
1.27621e-12
7.38793e-13
4.21646e-13
2.37528e-13
1.32208e-13
7.27724e-14
3.96616e-14
2.14027e-14
1.14487e-14
6.07488e-15
3.19989e-15
1.6739e-15
8.69998e-16
4.49283e-16
2.30381e-16
1.17058e-16
5.8641e-17
2.86327e-17
1.32594e-17
5.39422e-18
1.24684e-18
4.72359e-12
1.80074e-11
3.75667e-11
6.7083e-11
1.11398e-10
1.77426e-10
2.74918e-10
4.17221e-10
6.21849e-10
9.10602e-10
1.30953e-09
1.85009e-09
2.57116e-09
3.51887e-09
4.74283e-09
6.29014e-09
8.21429e-09
1.05552e-08
1.32316e-08
1.64051e-08
2.00162e-08
2.41753e-08
2.9018e-08
3.49799e-08
4.21841e-08
5.14911e-08
6.38811e-08
8.09954e-08
1.03938e-07
1.35832e-07
1.79876e-07
2.40964e-07
3.28924e-07
4.5719e-07
6.43024e-07
9.04926e-07
1.2575e-06
1.70774e-06
2.25518e-06
2.89841e-06
3.64641e-06
4.48792e-06
5.39229e-06
6.34096e-06
7.24053e-06
7.96842e-06
8.35632e-06
8.244e-06
7.4775e-06
6.00603e-06
4.03148e-06
2.20251e-06
1.20571e-06
6.52154e-07
3.47351e-07
1.78295e-07
9.02534e-08
4.43248e-08
2.10318e-08
9.62379e-09
4.27073e-09
1.87383e-09
8.62769e-10
4.65455e-10
3.03475e-10
2.27079e-10
1.79769e-10
1.42549e-10
1.11752e-10
8.60683e-11
6.50298e-11
4.7104e-11
3.30299e-11
2.24209e-11
1.47557e-11
9.44898e-12
5.89376e-12
3.59541e-12
2.15076e-12
1.26499e-12
7.32206e-13
4.17862e-13
2.35392e-13
1.31022e-13
7.21236e-14
3.93118e-14
2.12159e-14
1.13499e-14
6.02309e-15
3.17303e-15
1.66002e-15
8.62871e-16
4.45646e-16
2.28537e-16
1.1613e-16
5.81804e-17
2.84093e-17
1.31564e-17
5.35246e-18
1.23721e-18
4.71394e-12
1.79706e-11
3.74901e-11
6.69467e-11
1.11173e-10
1.7707e-10
2.74374e-10
4.1641e-10
6.20669e-10
9.0892e-10
1.30718e-09
1.84688e-09
2.56691e-09
3.51343e-09
4.73586e-09
6.28167e-09
8.2049e-09
1.05456e-08
1.32229e-08
1.63942e-08
2.00077e-08
2.417e-08
2.90166e-08
3.49838e-08
4.21931e-08
5.15068e-08
6.39069e-08
8.10408e-08
1.04015e-07
1.3596e-07
1.80097e-07
2.41338e-07
3.29532e-07
4.58103e-07
6.44501e-07
9.07302e-07
1.26118e-06
1.71325e-06
2.26297e-06
2.90892e-06
3.66006e-06
4.50493e-06
5.41246e-06
6.36326e-06
7.26255e-06
7.9866e-06
8.36633e-06
8.24121e-06
7.45832e-06
5.97021e-06
3.98651e-06
2.1858e-06
1.19535e-06
6.45881e-07
3.43709e-07
1.76299e-07
8.91575e-08
4.3737e-08
2.07302e-08
9.47418e-09
4.20101e-09
1.84319e-09
8.51011e-10
4.61644e-10
3.02679e-10
2.27009e-10
1.79814e-10
1.4252e-10
1.11631e-10
8.59808e-11
6.48986e-11
4.69594e-11
3.28954e-11
2.23092e-11
1.46706e-11
9.3889e-12
5.85332e-12
3.56939e-12
2.1346e-12
1.25525e-12
7.26474e-13
4.14556e-13
2.3352e-13
1.29979e-13
7.15509e-14
3.90019e-14
2.10498e-14
1.12618e-14
5.97684e-15
3.14898e-15
1.64758e-15
8.56479e-16
4.42381e-16
2.26881e-16
1.15297e-16
5.7766e-17
2.82082e-17
1.30637e-17
5.31484e-18
1.22852e-18
4.70613e-12
1.79409e-11
3.74282e-11
6.68366e-11
1.10991e-10
1.76784e-10
2.73936e-10
4.15757e-10
6.19719e-10
9.07566e-10
1.30529e-09
1.8443e-09
2.56347e-09
3.50901e-09
4.73015e-09
6.27529e-09
8.19818e-09
1.0539e-08
1.32169e-08
1.63866e-08
2.00021e-08
2.41676e-08
2.90181e-08
3.49903e-08
4.22049e-08
5.15254e-08
6.3936e-08
8.10892e-08
1.04095e-07
1.3609e-07
1.8031e-07
2.41667e-07
3.30014e-07
4.58929e-07
6.45819e-07
9.09373e-07
1.26434e-06
1.71793e-06
2.2696e-06
2.91789e-06
3.67173e-06
4.51919e-06
5.42889e-06
6.381e-06
7.27983e-06
8.00063e-06
8.37356e-06
8.23769e-06
7.44068e-06
5.93792e-06
3.94624e-06
2.17221e-06
1.18717e-06
6.41048e-07
3.40871e-07
1.74735e-07
8.82879e-08
4.32709e-08
2.04878e-08
9.35521e-09
4.14544e-09
1.81866e-09
8.41721e-10
4.58678e-10
3.02058e-10
2.26935e-10
1.79829e-10
1.42484e-10
1.11526e-10
8.5905e-11
6.479e-11
4.68389e-11
3.27827e-11
2.22152e-11
1.45989e-11
9.33819e-12
5.8191e-12
3.54732e-12
2.12085e-12
1.24695e-12
7.21573e-13
4.11723e-13
2.31912e-13
1.29081e-13
7.10564e-14
3.87337e-14
2.09058e-14
1.11853e-14
5.9366e-15
3.12801e-15
1.63672e-15
8.50895e-16
4.39527e-16
2.25431e-16
1.14567e-16
5.7403e-17
2.8032e-17
1.29825e-17
5.28185e-18
1.22091e-18
4.69998e-12
1.79175e-11
3.73796e-11
6.67501e-11
1.10848e-10
1.76559e-10
2.73593e-10
4.15248e-10
6.1898e-10
9.06515e-10
1.30382e-09
1.84231e-09
2.56088e-09
3.50577e-09
4.72608e-09
6.27071e-09
8.19321e-09
1.05341e-08
1.32125e-08
1.63811e-08
1.99988e-08
2.4167e-08
2.9021e-08
3.49977e-08
4.22172e-08
5.15441e-08
6.39646e-08
8.11357e-08
1.0417e-07
1.36208e-07
1.80502e-07
2.41968e-07
3.30532e-07
4.59691e-07
6.4701e-07
9.11247e-07
1.26718e-06
1.7221e-06
2.2754e-06
2.92558e-06
3.68154e-06
4.53112e-06
5.44267e-06
6.39585e-06
7.29429e-06
8.01245e-06
8.3799e-06
8.23529e-06
7.42656e-06
5.91123e-06
3.91319e-06
2.15479e-06
1.1778e-06
6.35936e-07
3.38065e-07
1.73269e-07
8.75079e-08
4.28636e-08
2.02822e-08
9.25495e-09
4.09925e-09
1.79884e-09
8.34357e-10
4.56378e-10
3.01604e-10
2.26882e-10
1.79829e-10
1.42437e-10
1.11424e-10
8.58341e-11
6.46927e-11
4.67346e-11
3.26867e-11
2.21361e-11
1.4539e-11
9.296e-12
5.79068e-12
3.52898e-12
2.10942e-12
1.24003e-12
7.17481e-13
4.09352e-13
2.30564e-13
1.28327e-13
7.06408e-14
3.85079e-14
2.07845e-14
1.11208e-14
5.90261e-15
3.11029e-15
1.62754e-15
8.46167e-16
4.37109e-16
2.24203e-16
1.13948e-16
5.70952e-17
2.78825e-17
1.29135e-17
5.25386e-18
1.21444e-18
4.69534e-12
1.78999e-11
3.73428e-11
6.66848e-11
1.10741e-10
1.7639e-10
2.73336e-10
4.14869e-10
6.18435e-10
9.05751e-10
1.30277e-09
1.84091e-09
2.55907e-09
3.50349e-09
4.72314e-09
6.26733e-09
8.18957e-09
1.05306e-08
1.32097e-08
1.63776e-08
1.9997e-08
2.41676e-08
2.90247e-08
3.50053e-08
4.22293e-08
5.15621e-08
6.39915e-08
8.11774e-08
1.04235e-07
1.3631e-07
1.80663e-07
2.42215e-07
3.30915e-07
4.60303e-07
6.47985e-07
9.12754e-07
1.26944e-06
1.72538e-06
2.27994e-06
2.93159e-06
3.68917e-06
4.54032e-06
5.45322e-06
6.40723e-06
7.30527e-06
8.0212e-06
8.38417e-06
8.23269e-06
7.41545e-06
5.89256e-06
3.89281e-06
2.14278e-06
1.17084e-06
6.31926e-07
3.35781e-07
1.72152e-07
8.69458e-08
4.25792e-08
2.01401e-08
9.18591e-09
4.06746e-09
1.78523e-09
8.29385e-10
4.54896e-10
3.0138e-10
2.26886e-10
1.79837e-10
1.42394e-10
1.11336e-10
8.57723e-11
6.46118e-11
4.6651e-11
3.26108e-11
2.20737e-11
1.44918e-11
9.26263e-12
5.76812e-12
3.51436e-12
2.10026e-12
1.23447e-12
7.14184e-13
4.07439e-13
2.29475e-13
1.27717e-13
7.03042e-14
3.83251e-14
2.06861e-14
1.10685e-14
5.87504e-15
3.09591e-15
1.62009e-15
8.42333e-16
4.35148e-16
2.23207e-16
1.13446e-16
5.68454e-17
2.77613e-17
1.28576e-17
5.23116e-18
1.2092e-18
4.69204e-12
1.78873e-11
3.73169e-11
6.66389e-11
1.10665e-10
1.76272e-10
2.73159e-10
4.14608e-10
6.18061e-10
9.05221e-10
1.30203e-09
1.83989e-09
2.5577e-09
3.50175e-09
4.72093e-09
6.26492e-09
8.18711e-09
1.05284e-08
1.3208e-08
1.63755e-08
1.99962e-08
2.41687e-08
2.90281e-08
3.50117e-08
4.22391e-08
5.15764e-08
6.40125e-08
8.12094e-08
1.04283e-07
1.36383e-07
1.80774e-07
2.42379e-07
3.31148e-07
4.60742e-07
6.48704e-07
9.13873e-07
1.27112e-06
1.72781e-06
2.28328e-06
2.93597e-06
3.69473e-06
4.54704e-06
5.46089e-06
6.41547e-06
7.31331e-06
8.02782e-06
8.3877e-06
8.23108e-06
7.40666e-06
5.87586e-06
3.87229e-06
2.13173e-06
1.16465e-06
6.28156e-07
3.32893e-07
1.7239e-07
8.69499e-08
4.25328e-08
2.00978e-08
9.15858e-09
4.05266e-09
1.77819e-09
8.26726e-10
4.54155e-10
3.01343e-10
2.26933e-10
1.79851e-10
1.42359e-10
1.11267e-10
8.5724e-11
6.45513e-11
4.65879e-11
3.25533e-11
2.20265e-11
1.44561e-11
9.23753e-12
5.75123e-12
3.50353e-12
2.09354e-12
1.23042e-12
7.11783e-13
4.06046e-13
2.2868e-13
1.2727e-13
7.00574e-14
3.81904e-14
2.06134e-14
1.10296e-14
5.85448e-15
3.08513e-15
1.61447e-15
8.39435e-16
4.33663e-16
2.22452e-16
1.13065e-16
5.66562e-17
2.76694e-17
1.28152e-17
5.21395e-18
1.20522e-18
4.68994e-12
1.78793e-11
3.73002e-11
6.66094e-11
1.10617e-10
1.76196e-10
2.73041e-10
4.14433e-10
6.17804e-10
9.04853e-10
1.30152e-09
1.83919e-09
2.5568e-09
3.50065e-09
4.71953e-09
6.26337e-09
8.18555e-09
1.0527e-08
1.32071e-08
1.63743e-08
1.9996e-08
2.41697e-08
2.90307e-08
3.50163e-08
4.2246e-08
5.15864e-08
6.40271e-08
8.12318e-08
1.04318e-07
1.36434e-07
1.80853e-07
2.42501e-07
3.31336e-07
4.61046e-07
6.49182e-07
9.14607e-07
1.27221e-06
1.72937e-06
2.28542e-06
2.93877e-06
3.69827e-06
4.55128e-06
5.46574e-06
6.42063e-06
7.31827e-06
8.03178e-06
8.38964e-06
8.22985e-06
7.40128e-06
5.86641e-06
3.86142e-06
2.12555e-06
1.16108e-06
6.26085e-07
3.31707e-07
1.71784e-07
8.66378e-08
4.23728e-08
2.00172e-08
9.11947e-09
4.03464e-09
1.77045e-09
8.23886e-10
4.5332e-10
3.01219e-10
2.26934e-10
1.7985e-10
1.42333e-10
1.11221e-10
8.5693e-11
6.45117e-11
4.65468e-11
3.25157e-11
2.19953e-11
1.44321e-11
9.22047e-12
5.73979e-12
3.49616e-12
2.08895e-12
1.22764e-12
7.10149e-13
4.05103e-13
2.28146e-13
1.26973e-13
6.98937e-14
3.81016e-14
2.05657e-14
1.10043e-14
5.84112e-15
3.07815e-15
1.61085e-15
8.37558e-16
4.32697e-16
2.21957e-16
1.12814e-16
5.65308e-17
2.76083e-17
1.27869e-17
5.20246e-18
1.20257e-18
4.68889e-12
1.78753e-11
3.72919e-11
6.65945e-11
1.10592e-10
1.76157e-10
2.72983e-10
4.14346e-10
6.17679e-10
9.04677e-10
1.30127e-09
1.83886e-09
2.55637e-09
3.50012e-09
4.71886e-09
6.26265e-09
8.18482e-09
1.05264e-08
1.32067e-08
1.63739e-08
1.9996e-08
2.41704e-08
2.90322e-08
3.50189e-08
4.22497e-08
5.15916e-08
6.40345e-08
8.1243e-08
1.04335e-07
1.36462e-07
1.809e-07
2.42584e-07
3.31495e-07
4.6122e-07
6.49425e-07
9.14968e-07
1.27274e-06
1.73013e-06
2.28644e-06
2.9401e-06
3.69993e-06
4.55324e-06
5.4679e-06
6.42283e-06
7.32019e-06
8.03303e-06
8.38981e-06
8.22873e-06
7.39926e-06
5.86489e-06
3.86195e-06
2.12402e-06
1.15967e-06
6.25266e-07
3.3157e-07
1.70795e-07
8.61601e-08
4.21462e-08
1.99125e-08
9.07276e-09
4.01478e-09
1.76247e-09
8.20987e-10
4.52369e-10
3.00947e-10
2.26845e-10
1.79812e-10
1.42306e-10
1.11193e-10
8.56759e-11
6.44921e-11
4.65269e-11
3.24978e-11
2.19802e-11
1.44202e-11
9.21166e-12
5.7336e-12
3.49206e-12
2.08637e-12
1.22608e-12
7.09223e-13
4.04569e-13
2.27844e-13
1.26805e-13
6.98015e-14
3.80519e-14
2.05391e-14
1.09902e-14
5.83376e-15
3.07434e-15
1.60888e-15
8.36555e-16
4.32188e-16
2.217e-16
1.12686e-16
5.6467e-17
2.75774e-17
1.27727e-17
5.19668e-18
1.20123e-18
4.68887e-12
1.78753e-11
3.72918e-11
6.65943e-11
1.10592e-10
1.76156e-10
2.72982e-10
4.14345e-10
6.17677e-10
9.04674e-10
1.30127e-09
1.83886e-09
2.55637e-09
3.50011e-09
4.71886e-09
6.26266e-09
8.18485e-09
1.05264e-08
1.32068e-08
1.6374e-08
1.99961e-08
2.41706e-08
2.90324e-08
3.50191e-08
4.22499e-08
5.15917e-08
6.40347e-08
8.12434e-08
1.04336e-07
1.36465e-07
1.80907e-07
2.42595e-07
3.31505e-07
4.61225e-07
6.49423e-07
9.1496e-07
1.27272e-06
1.7301e-06
2.28641e-06
2.94007e-06
3.6999e-06
4.55322e-06
5.4679e-06
6.42287e-06
7.32031e-06
8.03324e-06
8.39017e-06
8.22931e-06
7.40014e-06
5.86657e-06
3.86747e-06
2.11086e-06
1.15425e-06
6.23209e-07
3.3117e-07
1.6974e-07
8.56784e-08
4.19313e-08
1.98192e-08
9.03353e-09
3.99884e-09
1.75624e-09
8.18643e-10
4.51491e-10
3.00613e-10
2.26713e-10
1.79758e-10
1.42284e-10
1.11184e-10
8.56718e-11
6.44906e-11
4.65266e-11
3.24978e-11
2.19802e-11
1.442e-11
9.21143e-12
5.73336e-12
3.49187e-12
2.08622e-12
1.22598e-12
7.09164e-13
4.04534e-13
2.27823e-13
1.26793e-13
6.97954e-14
3.80487e-14
2.05375e-14
1.09894e-14
5.83335e-15
3.07414e-15
1.60879e-15
8.36511e-16
4.32168e-16
2.21691e-16
1.12682e-16
5.64653e-17
2.75767e-17
1.27724e-17
5.19657e-18
1.20121e-18
4.6899e-12
1.78792e-11
3.72998e-11
6.66086e-11
1.10615e-10
1.76193e-10
2.73037e-10
4.14427e-10
6.17795e-10
9.04841e-10
1.3015e-09
1.83918e-09
2.55678e-09
3.50063e-09
4.71952e-09
6.26339e-09
8.18561e-09
1.05271e-08
1.32073e-08
1.63746e-08
1.99963e-08
2.41702e-08
2.90312e-08
3.50169e-08
4.22464e-08
5.15867e-08
6.40274e-08
8.12323e-08
1.04319e-07
1.36439e-07
1.80866e-07
2.42527e-07
3.31389e-07
4.6106e-07
6.49173e-07
9.14578e-07
1.27216e-06
1.72929e-06
2.28531e-06
2.93863e-06
3.69808e-06
4.55107e-06
5.46547e-06
6.42028e-06
7.31775e-06
8.03101e-06
8.38856e-06
8.22849e-06
7.39991e-06
5.86548e-06
3.8611e-06
2.12371e-06
1.1597e-06
6.2559e-07
3.32243e-07
1.70158e-07
8.58446e-08
4.19986e-08
1.98471e-08
9.04518e-09
4.00367e-09
1.75814e-09
8.19229e-10
4.51586e-10
3.00558e-10
2.26667e-10
1.79739e-10
1.42287e-10
1.11201e-10
8.56838e-11
6.4508e-11
4.65456e-11
3.25155e-11
2.19952e-11
1.44316e-11
9.21967e-12
5.73894e-12
3.49547e-12
2.08846e-12
1.22733e-12
7.09958e-13
4.04992e-13
2.28083e-13
1.26938e-13
6.98754e-14
3.80921e-14
2.05609e-14
1.10018e-14
5.83992e-15
3.07758e-15
1.61057e-15
8.37434e-16
4.32642e-16
2.21933e-16
1.12804e-16
5.65264e-17
2.76064e-17
1.27862e-17
5.20217e-18
1.20251e-18
4.69203e-12
1.78873e-11
3.73167e-11
6.66385e-11
1.10665e-10
1.7627e-10
2.73155e-10
4.146e-10
6.18045e-10
9.05195e-10
1.30199e-09
1.83984e-09
2.55765e-09
3.50172e-09
4.72092e-09
6.26495e-09
8.18721e-09
1.05286e-08
1.32083e-08
1.63759e-08
1.99967e-08
2.41693e-08
2.90287e-08
3.50123e-08
4.22396e-08
5.15768e-08
6.40127e-08
8.12099e-08
1.04285e-07
1.36387e-07
1.80782e-07
2.42396e-07
3.31185e-07
4.60742e-07
6.48676e-07
9.13815e-07
1.27102e-06
1.72766e-06
2.28306e-06
2.93569e-06
3.69438e-06
4.54662e-06
5.46041e-06
6.4149e-06
7.3126e-06
8.02693e-06
8.38664e-06
8.23005e-06
7.40624e-06
5.87727e-06
3.87732e-06
2.1244e-06
1.16089e-06
6.26588e-07
3.32937e-07
1.7058e-07
8.60931e-08
4.21368e-08
1.992e-08
9.08154e-09
4.02062e-09
1.76551e-09
8.21975e-10
4.52435e-10
3.00712e-10
2.26678e-10
1.79739e-10
1.42309e-10
1.11243e-10
8.57117e-11
6.45449e-11
4.65851e-11
3.25525e-11
2.20259e-11
1.44552e-11
9.23674e-12
5.75057e-12
3.503e-12
2.09316e-12
1.23017e-12
7.11637e-13
4.05963e-13
2.28635e-13
1.27247e-13
7.00451e-14
3.81843e-14
2.06104e-14
1.10282e-14
5.85379e-15
3.08482e-15
1.61433e-15
8.39366e-16
4.3363e-16
2.22435e-16
1.13057e-16
5.66522e-17
2.76675e-17
1.28144e-17
5.21362e-18
1.20515e-18
4.69535e-12
1.78999e-11
3.7343e-11
6.66852e-11
1.10741e-10
1.76391e-10
2.73338e-10
4.14871e-10
6.18437e-10
9.0575e-10
1.30276e-09
1.84088e-09
2.55901e-09
3.50342e-09
4.72307e-09
6.26733e-09
8.1897e-09
1.05309e-08
1.32101e-08
1.6378e-08
1.99975e-08
2.41683e-08
2.90254e-08
3.5006e-08
4.22299e-08
5.15625e-08
6.39917e-08
8.11773e-08
1.04234e-07
1.36309e-07
1.8066e-07
2.42211e-07
3.30906e-07
4.60279e-07
6.47937e-07
9.12669e-07
1.26931e-06
1.72517e-06
2.27964e-06
2.93117e-06
3.68864e-06
4.53967e-06
5.45249e-06
6.40642e-06
7.30445e-06
8.02047e-06
8.38367e-06
8.23265e-06
7.41636e-06
5.89547e-06
3.90073e-06
2.12885e-06
1.16422e-06
6.28759e-07
3.3426e-07
1.71433e-07
8.65963e-08
4.24115e-08
2.0062e-08
9.15099e-09
4.05276e-09
1.77934e-09
8.27196e-10
4.54127e-10
3.01095e-10
2.26743e-10
1.79746e-10
1.42339e-10
1.11306e-10
8.57544e-11
6.46025e-11
4.66464e-11
3.26077e-11
2.20716e-11
1.44906e-11
9.26195e-12
5.76769e-12
3.5141e-12
2.10011e-12
1.23438e-12
7.14132e-13
4.0741e-13
2.29458e-13
1.27708e-13
7.02996e-14
3.83226e-14
2.06848e-14
1.10678e-14
5.87466e-15
3.0957e-15
1.61997e-15
8.4227e-16
4.35115e-16
2.2319e-16
1.13437e-16
5.68412e-17
2.77593e-17
1.28567e-17
5.23079e-18
1.20912e-18
4.7e-12
1.79176e-11
3.73797e-11
6.67504e-11
1.10849e-10
1.7656e-10
2.73595e-10
4.15252e-10
6.18988e-10
9.06531e-10
1.30385e-09
1.84236e-09
2.56094e-09
3.50584e-09
4.72614e-09
6.27076e-09
8.1933e-09
1.05342e-08
1.32128e-08
1.63815e-08
1.99993e-08
2.41676e-08
2.90217e-08
3.49985e-08
4.22179e-08
5.15447e-08
6.39652e-08
8.11361e-08
1.0417e-07
1.36208e-07
1.80502e-07
2.41963e-07
3.30518e-07
4.59662e-07
6.46957e-07
9.11146e-07
1.26701e-06
1.72184e-06
2.27503e-06
2.92508e-06
3.68089e-06
4.53034e-06
5.44174e-06
6.39483e-06
7.29317e-06
8.01122e-06
8.37854e-06
8.23389e-06
7.42556e-06
5.91183e-06
3.91623e-06
2.15447e-06
1.17674e-06
6.34713e-07
3.36465e-07
1.74191e-07
8.78676e-08
4.30002e-08
2.03318e-08
9.2722e-09
4.10493e-09
1.80075e-09
8.35088e-10
4.56727e-10
3.0174e-10
2.26873e-10