/*--------------------------------*- C++ -*----------------------------------*\
  =========                 |
  \\      /  F ield         | OpenFOAM: The Open Source CFD Toolbox
   \\    /   O peration     | Website:  https://openfoam.org
    \\  /    A nd           | Version:  10
     \\/     M anipulation  |
\*---------------------------------------------------------------------------*/
FoamFile
{
    format      ascii;
    class       volScalarField;
    location    "1";
    object      N2H4;
}
// * * * * * * * * * * * * * * * * * * * * * * * * * * * * * * * * * * * * * //

dimensions      [0 0 0 0 0 0 0];

internalField   nonuniform List<scalar> 
4000
(
9.56343e-10
3.64574e-09
7.60545e-09
1.35803e-08
2.25509e-08
3.59202e-08
5.56711e-08
8.45255e-08
1.26075e-07
1.84833e-07
2.66262e-07
3.76951e-07
5.24858e-07
7.19206e-07
9.69847e-07
1.28478e-06
1.67437e-06
2.14476e-06
2.67641e-06
3.30588e-06
3.98942e-06
4.7407e-06
5.57028e-06
6.4271e-06
7.3191e-06
8.23257e-06
9.15386e-06
1.00624e-05
1.09065e-05
1.16575e-05
1.2249e-05
1.26101e-05
1.26636e-05
1.23256e-05
1.15238e-05
1.02322e-05
8.53132e-06
6.63254e-06
4.83298e-06
3.36225e-06
2.2686e-06
1.51353e-06
1.01219e-06
6.83931e-07
4.65908e-07
3.2228e-07
2.26628e-07
1.60655e-07
1.1281e-07
7.65744e-08
4.85845e-08
2.79991e-08
1.5442e-08
8.44324e-09
4.5552e-09
2.41432e-09
1.25108e-09
6.32185e-10
3.10394e-10
1.48221e-10
6.99271e-11
3.56711e-11
2.17214e-11
1.41059e-11
8.52279e-12
4.88573e-12
3.0588e-12
2.20464e-12
1.70262e-12
1.33246e-12
1.03371e-12
7.69567e-13
5.52325e-13
3.81431e-13
2.5372e-13
1.63021e-13
1.01545e-13
6.15886e-14
3.65208e-14
2.12393e-14
1.21531e-14
6.85049e-15
3.81102e-15
2.09697e-15
1.14063e-15
6.15156e-16
3.29243e-16
1.74962e-16
9.24273e-17
4.86027e-17
2.53715e-17
1.31778e-17
6.80981e-18
3.49791e-18
1.78163e-18
8.95015e-19
4.38227e-19
2.03429e-19
8.29052e-20
1.9183e-20
9.52505e-10
3.63104e-09
7.57488e-09
1.35271e-08
2.24656e-08
3.57883e-08
5.54704e-08
8.42212e-08
1.25608e-07
1.84106e-07
2.65107e-07
3.75115e-07
5.21921e-07
7.14708e-07
9.63351e-07
1.27585e-06
1.66166e-06
2.127e-06
2.65402e-06
3.28118e-06
3.96153e-06
4.70687e-06
5.53163e-06
6.38957e-06
7.28247e-06
8.19889e-06
9.12329e-06
1.00409e-05
1.08932e-05
1.16551e-05
1.2259e-05
1.26346e-05
1.27037e-05
1.23782e-05
1.15881e-05
1.03042e-05
8.60384e-06
6.69658e-06
4.88289e-06
3.39689e-06
2.29136e-06
1.52785e-06
1.02078e-06
6.89036e-07
4.6888e-07
3.23956e-07
2.27565e-07
1.61089e-07
1.12915e-07
7.64597e-08
4.8341e-08
2.77525e-08
1.52791e-08
8.34805e-09
4.50151e-09
2.38642e-09
1.22735e-09
6.19195e-10
3.0352e-10
1.44871e-10
6.80953e-11
3.51308e-11
2.16763e-11
1.40698e-11
8.43734e-12
4.84995e-12
3.06031e-12
2.22021e-12
1.71618e-12
1.34061e-12
1.03775e-12
7.70862e-13
5.52647e-13
3.81707e-13
2.54168e-13
1.63657e-13
1.02213e-13
6.21856e-14
3.69961e-14
2.15871e-14
1.23929e-14
7.00813e-15
3.91323e-15
2.15894e-15
1.18039e-15
6.38945e-16
3.42816e-16
1.82336e-16
9.62356e-17
5.04127e-17
2.63237e-17
1.36556e-17
7.04361e-18
3.61014e-18
1.83451e-18
9.19423e-19
4.49197e-19
2.08135e-19
8.47073e-20
1.95833e-20
9.49655e-10
3.62044e-09
7.55373e-09
1.34913e-08
2.24097e-08
3.57049e-08
5.53441e-08
8.40205e-08
1.25275e-07
1.83534e-07
2.641e-07
3.73302e-07
5.18954e-07
7.10117e-07
9.56539e-07
1.26628e-06
1.64938e-06
2.11021e-06
2.63201e-06
3.25365e-06
3.92911e-06
4.6726e-06
5.48799e-06
6.36081e-06
7.25162e-06
8.16901e-06
9.09583e-06
1.00206e-05
1.08821e-05
1.16576e-05
1.22784e-05
1.26722e-05
1.27607e-05
1.24571e-05
1.16832e-05
1.04092e-05
8.70772e-06
6.78746e-06
4.95249e-06
3.44691e-06
2.32432e-06
1.54818e-06
1.03312e-06
6.96468e-07
4.73233e-07
3.26399e-07
2.28917e-07
1.61691e-07
1.13007e-07
7.62125e-08
4.79058e-08
2.73048e-08
1.5034e-08
8.20325e-09
4.41525e-09
2.33701e-09
1.19974e-09
6.0375e-10
2.95241e-10
1.40911e-10
6.58161e-11
3.45197e-11
2.16241e-11
1.39945e-11
8.31598e-12
4.79786e-12
3.06208e-12
2.24042e-12
1.73346e-12
1.35105e-12
1.0428e-12
7.7264e-13
5.531e-13
3.81827e-13
2.54387e-13
1.64013e-13
1.02636e-13
6.2591e-14
3.7335e-14
2.1847e-14
1.25785e-14
7.1318e-15
3.99033e-15
2.20608e-15
1.20656e-15
6.53476e-16
3.50978e-16
1.86934e-16
9.88193e-17
5.18746e-17
2.70554e-17
1.40378e-17
7.2407e-18
3.70961e-18
1.88373e-18
9.43276e-19
4.60429e-19
2.13157e-19
8.66927e-20
2.00342e-20
9.45013e-10
3.60267e-09
7.51627e-09
1.34233e-08
2.22938e-08
3.55132e-08
5.50341e-08
8.35279e-08
1.24503e-07
1.82341e-07
2.62296e-07
3.7067e-07
5.1513e-07
7.04642e-07
9.48873e-07
1.25587e-06
1.63562e-06
2.094e-06
2.61333e-06
3.22988e-06
3.90132e-06
4.64102e-06
5.45265e-06
6.32759e-06
7.22171e-06
8.14259e-06
9.07283e-06
1.00051e-05
1.08761e-05
1.16653e-05
1.23034e-05
1.27166e-05
1.28262e-05
1.25425e-05
1.17863e-05
1.05232e-05
8.82083e-06
6.88641e-06
5.03141e-06
3.50018e-06
2.35884e-06
1.56983e-06
1.04665e-06
7.04546e-07
4.77898e-07
3.28958e-07
2.30294e-07
1.62242e-07
1.12999e-07
7.58325e-08
4.7351e-08
2.67515e-08
1.4716e-08
8.01877e-09
4.30814e-09
2.27329e-09
1.1642e-09
5.83731e-10
2.84368e-10
1.35345e-10
6.3384e-11
3.39165e-11
2.15798e-11
1.3892e-11
8.17733e-12
4.73119e-12
3.06076e-12
2.25712e-12
1.74869e-12
1.35941e-12
1.04573e-12
7.72286e-13
5.51286e-13
3.79737e-13
2.52717e-13
1.62964e-13
1.02101e-13
6.23931e-14
3.73134e-14
2.18872e-14
1.26321e-14
7.17831e-15
4.02484e-15
2.2294e-15
1.22129e-15
6.62331e-16
3.56104e-16
1.89765e-16
1.00356e-16
5.27047e-17
2.75092e-17
1.42697e-17
7.35793e-18
3.76863e-18
1.91322e-18
9.57829e-19
4.67447e-19
2.16382e-19
8.80015e-20
2.03364e-20
9.40096e-10
3.58392e-09
7.47711e-09
1.33531e-08
2.21763e-08
3.5324e-08
5.47363e-08
8.30668e-08
1.23798e-07
1.81277e-07
2.60705e-07
3.68327e-07
5.11749e-07
6.99879e-07
9.42341e-07
1.24722e-06
1.62445e-06
2.07998e-06
2.59607e-06
3.2094e-06
3.87908e-06
4.61728e-06
5.42513e-06
6.30167e-06
7.19659e-06
8.11884e-06
9.05407e-06
9.99418e-06
1.08749e-05
1.16775e-05
1.23313e-05
1.27613e-05
1.28903e-05
1.26268e-05
1.18871e-05
1.06335e-05
8.92914e-06
6.98297e-06
5.10403e-06
3.5516e-06
2.39177e-06
1.58997e-06
1.05905e-06
7.11899e-07
4.82083e-07
3.3119e-07
2.31485e-07
1.62637e-07
1.12852e-07
7.5326e-08
4.66699e-08
2.62421e-08
1.44202e-08
7.84533e-09
4.20672e-09
2.21484e-09
1.13277e-09
5.66341e-10
2.75047e-10
1.30596e-10
6.14654e-11
3.34844e-11
2.15125e-11
1.37397e-11
8.01689e-12
4.66045e-12
3.05723e-12
2.27131e-12
1.76067e-12
1.36521e-12
1.04696e-12
7.70792e-13
5.48816e-13
3.77344e-13
2.50877e-13
1.61751e-13
1.01379e-13
6.20057e-14
3.7129e-14
2.1818e-14
1.26181e-14
7.18359e-15
4.03458e-15
2.23818e-15
1.22774e-15
6.66654e-16
3.5885e-16
1.91393e-16
1.01284e-16
5.32193e-17
2.77897e-17
1.44177e-17
7.43445e-18
3.80755e-18
1.93272e-18
9.67439e-19
4.72068e-19
2.18497e-19
8.88558e-20
2.05332e-20
9.34843e-10
3.56385e-09
7.43503e-09
1.32774e-08
2.20494e-08
3.51195e-08
5.44153e-08
8.25732e-08
1.23052e-07
1.80165e-07
2.5907e-07
3.65965e-07
5.08414e-07
6.953e-07
9.36241e-07
1.2394e-06
1.61475e-06
2.06845e-06
2.58292e-06
3.19334e-06
3.86163e-06
4.59888e-06
5.40292e-06
6.28011e-06
7.17547e-06
8.10142e-06
9.04124e-06
9.98876e-06
1.08785e-05
1.16933e-05
1.23612e-05
1.28069e-05
1.29527e-05
1.27059e-05
1.19804e-05
1.0735e-05
9.02979e-06
7.06938e-06
5.17041e-06
3.59618e-06
2.42025e-06
1.6077e-06
1.06976e-06
7.18132e-07
4.85542e-07
3.3296e-07
2.32383e-07
1.6285e-07
1.12557e-07
7.47256e-08
4.59636e-08
2.57079e-08
1.41119e-08
7.66634e-09
4.10278e-09
2.15225e-09
1.09837e-09
5.46981e-10
2.64581e-10
1.25301e-10
5.95008e-11
3.30225e-11
2.13896e-11
1.35603e-11
7.86301e-12
4.60031e-12
3.06013e-12
2.27646e-12
1.76716e-12
1.36762e-12
1.04622e-12
7.68063e-13
5.45567e-13
3.74412e-13
2.48604e-13
1.60181e-13
1.00372e-13
6.14018e-14
3.67879e-14
2.16377e-14
1.25186e-14
7.1368e-15
4.01455e-15
2.23078e-15
1.22566e-15
6.66392e-16
3.59133e-16
1.9171e-16
1.01525e-16
5.33766e-17
2.78863e-17
1.44724e-17
7.46434e-18
3.82341e-18
1.94093e-18
9.71588e-19
4.74101e-19
2.19441e-19
8.92414e-20
2.06227e-20
9.29662e-10
3.54408e-09
7.39366e-09
1.32032e-08
2.19254e-08
3.49208e-08
5.41057e-08
8.21008e-08
1.22344e-07
1.79119e-07
2.57548e-07
3.63787e-07
5.05369e-07
6.91157e-07
9.30765e-07
1.23242e-06
1.60613e-06
2.05816e-06
2.57099e-06
3.17842e-06
3.84541e-06
4.58286e-06
5.38399e-06
6.26149e-06
7.15934e-06
8.08871e-06
9.0331e-06
9.98739e-06
1.08852e-05
1.17106e-05
1.23906e-05
1.28497e-05
1.30099e-05
1.27766e-05
1.20616e-05
1.08207e-05
9.11278e-06
7.14051e-06
5.22295e-06
3.63174e-06
2.44311e-06
1.62154e-06
1.07812e-06
7.22936e-07
4.88127e-07
3.34201e-07
2.3299e-07
1.6302e-07
1.11969e-07
7.40223e-08
4.52493e-08
2.51645e-08
1.38084e-08
7.49587e-09
4.00855e-09
2.08816e-09
1.06605e-09
5.29818e-10
2.5562e-10
1.20564e-10
5.82468e-11
3.27813e-11
2.13167e-11
1.34044e-11
7.7318e-12
4.55144e-12
3.06087e-12
2.28547e-12
1.77366e-12
1.3698e-12
1.04536e-12
7.65519e-13
5.42588e-13
3.71682e-13
2.46451e-13
1.58664e-13
9.93771e-14
6.0789e-14
3.64289e-14
2.14376e-14
1.24098e-14
7.07935e-15
3.98496e-15
2.21583e-15
1.21828e-15
6.62895e-16
3.57541e-16
1.91001e-16
1.0122e-16
5.32502e-17
2.78376e-17
1.44541e-17
7.45762e-18
3.82097e-18
1.94005e-18
9.71267e-19
4.73987e-19
2.19402e-19
8.92298e-20
2.06209e-20
9.24734e-10
3.52527e-09
7.35434e-09
1.31327e-08
2.1808e-08
3.47329e-08
5.38138e-08
8.16574e-08
1.21683e-07
1.7815e-07
2.56146e-07
3.61796e-07
5.02609e-07
6.87432e-07
9.25885e-07
1.22625e-06
1.59858e-06
2.04924e-06
2.56077e-06
3.16539e-06
3.832e-06
4.56864e-06
5.36897e-06
6.24842e-06
7.14845e-06
8.08044e-06
9.02889e-06
9.98926e-06
1.08943e-05
1.17285e-05
1.24191e-05
1.28897e-05
1.30618e-05
1.28393e-05
1.21324e-05
1.0896e-05
9.18279e-06
7.19855e-06
5.26581e-06
3.66055e-06
2.46052e-06
1.63162e-06
1.08401e-06
7.26174e-07
4.89762e-07
3.34888e-07
2.33124e-07
1.62775e-07
1.11568e-07
7.34746e-08
4.475e-08
2.45955e-08
1.35033e-08
7.33222e-09
3.92572e-09
2.02642e-09
1.03401e-09
5.1289e-10
2.46856e-10
1.16327e-10
5.66251e-11
3.23903e-11
2.11607e-11
1.32181e-11
7.59353e-12
4.50153e-12
3.0589e-12
2.29154e-12
1.77808e-12
1.37064e-12
1.04384e-12
7.62756e-13
5.39474e-13
3.68849e-13
2.44211e-13
1.5707e-13
9.83179e-14
6.01245e-14
3.60308e-14
2.12091e-14
1.22818e-14
7.00938e-15
3.94758e-15
2.19624e-15
1.20821e-15
6.57862e-16
3.54764e-16
1.89634e-16
1.00551e-16
5.29238e-17
2.76806e-17
1.43777e-17
7.42051e-18
3.80302e-18
1.9314e-18
9.67138e-19
4.72054e-19
2.18538e-19
8.88877e-20
2.05433e-20
9.20225e-10
3.50808e-09
7.31842e-09
1.30684e-08
2.17011e-08
3.45625e-08
5.35499e-08
8.12581e-08
1.21091e-07
1.77285e-07
2.54903e-07
3.60041e-07
5.0019e-07
6.84189e-07
9.21663e-07
1.22097e-06
1.59219e-06
2.04185e-06
2.55271e-06
3.15514e-06
3.82076e-06
4.55763e-06
5.35789e-06
6.23824e-06
7.13994e-06
8.07496e-06
9.02736e-06
9.99318e-06
1.09044e-05
1.17466e-05
1.24469e-05
1.29271e-05
1.31083e-05
1.28941e-05
1.21943e-05
1.09584e-05
9.23979e-06
7.24446e-06
5.29909e-06
3.68261e-06
2.47417e-06
1.63958e-06
1.08866e-06
7.28651e-07
4.90907e-07
3.35238e-07
2.33021e-07
1.62366e-07
1.11111e-07
7.28798e-08
4.41528e-08
2.42461e-08
1.32884e-08
7.20288e-09
3.84789e-09
1.98843e-09
1.01195e-09
5.0049e-10
2.4029e-10
1.13121e-10
5.5381e-11
3.20829e-11
2.1008e-11
1.3041e-11
7.46307e-12
4.45106e-12
3.0519e-12
2.2937e-12
1.77986e-12
1.36972e-12
1.04101e-12
7.59107e-13
5.35894e-13
3.65846e-13
2.41938e-13
1.55494e-13
9.72821e-14
5.94767e-14
3.56413e-14
2.09827e-14
1.21531e-14
6.93792e-15
3.9086e-15
2.17532e-15
1.19714e-15
6.52141e-16
3.51795e-16
1.88108e-16
9.97721e-17
5.25283e-17
2.74828e-17
1.4278e-17
7.37054e-18
3.77807e-18
1.91903e-18
9.61076e-19
4.69151e-19
2.17215e-19
8.83563e-20
2.04212e-20
9.16204e-10
3.49275e-09
7.28643e-09
1.30113e-08
2.16061e-08
3.44113e-08
5.33164e-08
8.0906e-08
1.20571e-07
1.76529e-07
2.53822e-07
3.58524e-07
4.98108e-07
6.81405e-07
9.18037e-07
1.21641e-06
1.58662e-06
2.0353e-06
2.54516e-06
3.14544e-06
3.81092e-06
4.54755e-06
5.34849e-06
6.23082e-06
7.13451e-06
8.07207e-06
9.02793e-06
9.99849e-06
1.09152e-05
1.17644e-05
1.24717e-05
1.29594e-05
1.31479e-05
1.29416e-05
1.22456e-05
1.10095e-05
9.28552e-06
7.28002e-06
5.32512e-06
3.69938e-06
2.48412e-06
1.64516e-06
1.09183e-06
7.30203e-07
4.91479e-07
3.35249e-07
2.32706e-07
1.61831e-07
1.10589e-07
7.22649e-08
4.3527e-08
2.40049e-08
1.31376e-08
7.1105e-09
3.7941e-09
1.95251e-09
9.9236e-10
4.90093e-10
2.34956e-10
1.10584e-10
5.44297e-11
3.18737e-11
2.08999e-11
1.29346e-11
7.30467e-12
4.39423e-12
3.04006e-12
2.29377e-12
1.7805e-12
1.36875e-12
1.03876e-12
7.56163e-13
5.32926e-13
3.63321e-13
2.39998e-13
1.54125e-13
9.63675e-14
5.88947e-14
3.52838e-14
2.07712e-14
1.20309e-14
6.86887e-15
3.87032e-15
2.15445e-15
1.18591e-15
6.46247e-16
3.48698e-16
1.86496e-16
9.89397e-17
5.21012e-17
2.72642e-17
1.41668e-17
7.31423e-18
3.74974e-18
1.90488e-18
9.541e-19
4.6579e-19
2.15676e-19
8.77347e-20
2.02782e-20
9.12696e-10
3.47938e-09
7.25855e-09
1.29615e-08
2.15235e-08
3.42801e-08
5.31141e-08
8.06014e-08
1.20122e-07
1.75882e-07
2.52904e-07
3.57248e-07
4.96378e-07
6.79121e-07
9.15043e-07
1.21273e-06
1.58231e-06
2.03047e-06
2.53977e-06
3.1384e-06
3.80367e-06
4.54032e-06
5.34185e-06
6.22533e-06
7.13086e-06
8.07084e-06
9.02983e-06
1.00046e-05
1.09262e-05
1.17807e-05
1.24944e-05
1.29888e-05
1.31843e-05
1.29817e-05
1.22878e-05
1.10507e-05
9.32163e-06
7.30827e-06
5.34492e-06
3.71201e-06
2.49156e-06
1.64931e-06
1.09415e-06
7.31013e-07
4.91561e-07
3.34973e-07
2.32251e-07
1.6126e-07
1.10033e-07
7.16791e-08
4.30117e-08
2.37052e-08
1.29715e-08
7.01739e-09
3.74098e-09
1.9219e-09
9.75378e-10
4.80911e-10
2.30214e-10
1.08336e-10
5.3624e-11
3.16926e-11
2.07877e-11
1.27975e-11
7.22309e-12
4.36691e-12
3.03896e-12
2.29765e-12
1.78245e-12
1.36981e-12
1.03794e-12
7.54319e-13
5.30722e-13
3.61329e-13
2.38408e-13
1.52976e-13
9.55831e-14
5.83876e-14
3.49645e-14
2.05799e-14
1.19191e-14
6.80491e-15
3.83445e-15
2.13466e-15
1.17516e-15
6.4051e-16
3.45656e-16
1.849e-16
9.81101e-17
5.16755e-17
2.70359e-17
1.40508e-17
7.25561e-18
3.72025e-18
1.89015e-18
9.46825e-19
4.6228e-19
2.14065e-19
8.70835e-20
2.01283e-20
9.09691e-10
3.46793e-09
7.23469e-09
1.29189e-08
2.14529e-08
3.41682e-08
5.2942e-08
8.03432e-08
1.19743e-07
1.75337e-07
2.52136e-07
3.56188e-07
4.94951e-07
6.77253e-07
9.126e-07
1.20978e-06
1.57883e-06
2.02638e-06
2.53512e-06
3.13261e-06
3.79759e-06
4.53465e-06
5.33695e-06
6.22175e-06
7.12882e-06
8.07088e-06
9.03254e-06
1.00108e-05
1.09363e-05
1.17952e-05
1.25141e-05
1.30135e-05
1.32135e-05
1.30145e-05
1.23221e-05
1.10837e-05
9.35016e-06
7.33067e-06
5.36031e-06
3.72183e-06
2.49763e-06
1.65334e-06
1.09762e-06
7.29681e-07
4.90675e-07
3.34276e-07
2.31638e-07
1.60677e-07
1.09458e-07
7.11174e-08
4.25217e-08
2.34212e-08
1.28096e-08
6.925e-09
3.68921e-09
1.8941e-09
9.599e-10
4.7257e-10
2.25906e-10
1.06304e-10
5.29049e-11
3.15384e-11
2.06929e-11
1.26788e-11
7.15873e-12
4.34842e-12
3.04128e-12
2.30244e-12
1.7849e-12
1.37174e-12
1.03791e-12
7.53225e-13
5.29117e-13
3.59755e-13
2.37099e-13
1.52004e-13
9.49068e-14
5.79434e-14
3.46841e-14
2.04099e-14
1.18185e-14
6.74684e-15
3.80158e-15
2.11638e-15
1.16515e-15
6.35118e-16
3.42779e-16
1.83381e-16
9.73158e-17
5.12651e-17
2.68195e-17
1.39402e-17
7.19937e-18
3.69182e-18
1.87589e-18
9.39762e-19
4.58863e-19
2.12494e-19
8.64471e-20
1.99817e-20
9.07156e-10
3.45828e-09
7.21457e-09
1.28831e-08
2.13936e-08
3.40742e-08
5.27976e-08
8.0127e-08
1.19426e-07
1.74883e-07
2.51498e-07
3.55312e-07
4.93782e-07
6.75745e-07
9.10674e-07
1.20747e-06
1.57604e-06
2.02319e-06
2.53165e-06
3.12818e-06
3.79317e-06
4.53057e-06
5.33344e-06
6.21934e-06
7.12784e-06
8.07184e-06
9.03594e-06
1.00172e-05
1.0946e-05
1.18085e-05
1.25314e-05
1.30346e-05
1.32378e-05
1.30416e-05
1.23502e-05
1.11103e-05
9.37309e-06
7.34778e-06
5.37158e-06
3.72861e-06
2.50138e-06
1.6553e-06
1.09851e-06
7.29719e-07
4.90375e-07
3.33841e-07
2.31154e-07
1.60169e-07
1.08957e-07
7.06784e-08
4.22509e-08
2.30782e-08
1.26287e-08
6.82853e-09
3.63651e-09
1.86655e-09
9.45135e-10
4.64878e-10
2.22017e-10
1.04491e-10
5.22348e-11
3.13571e-11
2.05829e-11
1.25696e-11
7.10538e-12
4.335e-12
3.04449e-12
2.30752e-12
1.78761e-12
1.37386e-12
1.03807e-12
7.52239e-13
5.27725e-13
3.58383e-13
2.35956e-13
1.51154e-13
9.43142e-14
5.75527e-14
3.44372e-14
2.02593e-14
1.17291e-14
6.6949e-15
3.77202e-15
2.09986e-15
1.15606e-15
6.30195e-16
3.4014e-16
1.81981e-16
9.65804e-17
5.08831e-17
2.66218e-17
1.38386e-17
7.14748e-18
3.6655e-18
1.86265e-18
9.33186e-19
4.55675e-19
2.11025e-19
8.58515e-20
1.98443e-20
9.05048e-10
3.45025e-09
7.19785e-09
1.28533e-08
2.13443e-08
3.39961e-08
5.26776e-08
7.99473e-08
1.19163e-07
1.74504e-07
2.50963e-07
3.54573e-07
4.92786e-07
6.74443e-07
9.0897e-07
1.20531e-06
1.5735e-06
2.02037e-06
2.52873e-06
3.12454e-06
3.78974e-06
4.52743e-06
5.33089e-06
6.2178e-06
7.12759e-06
8.07324e-06
9.03935e-06
1.00232e-05
1.09548e-05
1.18204e-05
1.25466e-05
1.30529e-05
1.32587e-05
1.30638e-05
1.23727e-05
1.11314e-05
9.39053e-06
7.36036e-06
5.3795e-06
3.73311e-06
2.50368e-06
1.65638e-06
1.09891e-06
7.297e-07
4.90142e-07
3.33496e-07
2.30757e-07
1.5974e-07
1.08511e-07
7.02362e-08
4.18504e-08
2.29463e-08
1.25419e-08
6.77393e-09
3.60367e-09
1.8482e-09
9.349e-10
4.59334e-10
2.19174e-10
1.03145e-10
5.17448e-11
3.12159e-11
2.04846e-11
1.24747e-11
7.06102e-12
4.32449e-12
3.04715e-12
2.31193e-12
1.79e-12
1.37572e-12
1.03829e-12
7.51489e-13
5.26589e-13
3.57235e-13
2.34986e-13
1.50427e-13
9.38041e-14
5.72149e-14
3.42228e-14
2.01281e-14
1.16508e-14
6.64929e-15
3.74598e-15
2.08525e-15
1.14799e-15
6.25811e-16
3.37782e-16
1.80727e-16
9.59202e-17
5.05391e-17
2.64436e-17
1.37469e-17
7.10064e-18
3.64172e-18
1.85068e-18
9.27236e-19
4.52788e-19
2.09694e-19
8.53115e-20
1.97197e-20
9.03332e-10
3.44372e-09
7.18424e-09
1.2829e-08
2.13042e-08
3.39326e-08
5.25801e-08
7.98012e-08
1.18949e-07
1.74196e-07
2.50528e-07
3.5397e-07
4.9197e-07
6.7337e-07
9.07551e-07
1.20365e-06
1.57163e-06
2.01833e-06
2.52656e-06
3.12178e-06
3.78699e-06
4.52501e-06
5.32901e-06
6.21685e-06
7.12776e-06
8.07481e-06
9.04263e-06
1.00286e-05
1.09625e-05
1.18306e-05
1.25596e-05
1.30684e-05
1.32761e-05
1.30826e-05
1.23912e-05
1.1148e-05
9.40375e-06
7.36954e-06
5.38505e-06
3.73611e-06
2.5051e-06
1.65696e-06
1.09904e-06
7.29592e-07
4.89915e-07
3.33206e-07
2.30435e-07
1.59391e-07
1.08139e-07
6.98571e-08
4.14953e-08
2.28409e-08
1.24815e-08
6.73841e-09
3.58237e-09
1.83617e-09
9.27971e-10
4.55497e-10
2.17146e-10
1.02193e-10
5.14186e-11
3.11335e-11
2.04097e-11
1.23936e-11
7.02196e-12
4.31444e-12
3.04883e-12
2.31521e-12
1.79181e-12
1.37716e-12
1.03842e-12
7.50838e-13
5.25623e-13
3.56262e-13
2.34166e-13
1.49811e-13
9.33706e-14
5.69271e-14
3.40397e-14
2.00158e-14
1.15836e-14
6.61005e-15
3.72352e-15
2.07262e-15
1.141e-15
6.22003e-16
3.3573e-16
1.79634e-16
9.53434e-17
5.02381e-17
2.62875e-17
1.36666e-17
7.05952e-18
3.62083e-18
1.84016e-18
9.22003e-19
4.50248e-19
2.08523e-19
8.48362e-20
1.96099e-20
9.01972e-10
3.43854e-09
7.17346e-09
1.28099e-08
2.12725e-08
3.38825e-08
5.25033e-08
7.96863e-08
1.18781e-07
1.73954e-07
2.50188e-07
3.53501e-07
4.91347e-07
6.72569e-07
9.06517e-07
1.20242e-06
1.57018e-06
2.01671e-06
2.52482e-06
3.11959e-06
3.78501e-06
4.52332e-06
5.32781e-06
6.2164e-06
7.12823e-06
8.07643e-06
9.04566e-06
1.00334e-05
1.09692e-05
1.18393e-05
1.25703e-05
1.30811e-05
1.32907e-05
1.30977e-05
1.2406e-05
1.11614e-05
9.41436e-06
7.37669e-06
5.38916e-06
3.73819e-06
2.50596e-06
1.65723e-06
1.09902e-06
7.29432e-07
4.89694e-07
3.32956e-07
2.3017e-07
1.59112e-07
1.07845e-07
6.95579e-08
4.12315e-08
2.27002e-08
1.24025e-08
6.69446e-09
3.55802e-09
1.82342e-09
9.2117e-10
4.51929e-10
2.15354e-10
1.01374e-10
5.11566e-11
3.10857e-11
2.03621e-11
1.23323e-11
6.99135e-12
4.30611e-12
3.0499e-12
2.31759e-12
1.79311e-12
1.37826e-12
1.03847e-12
7.50253e-13
5.24794e-13
3.5544e-13
2.33478e-13
1.49298e-13
9.30099e-14
5.66875e-14
3.3887e-14
1.99219e-14
1.15274e-14
6.57713e-15
3.70464e-15
2.06199e-15
1.13511e-15
6.18789e-16
3.33995e-16
1.78708e-16
9.48549e-17
4.9983e-17
2.61551e-17
1.35983e-17
7.02459e-18
3.60307e-18
1.83121e-18
9.17552e-19
4.48087e-19
2.07526e-19
8.44316e-20
1.95165e-20
9.00936e-10
3.4346e-09
7.16526e-09
1.27953e-08
2.12484e-08
3.38445e-08
5.24453e-08
7.96002e-08
1.18656e-07
1.73777e-07
2.49941e-07
3.53167e-07
4.90904e-07
6.71994e-07
9.05754e-07
1.20148e-06
1.56907e-06
2.01549e-06
2.52356e-06
3.11799e-06
3.7835e-06
4.52207e-06
5.32699e-06
6.21623e-06
7.12884e-06
8.07801e-06
9.04838e-06
1.00375e-05
1.09748e-05
1.18464e-05
1.25791e-05
1.30912e-05
1.33018e-05
1.31094e-05
1.24175e-05
1.11715e-05
9.42211e-06
7.38174e-06
5.39192e-06
3.73947e-06
2.5064e-06
1.65729e-06
1.09891e-06
7.29244e-07
4.89479e-07
3.32729e-07
2.29939e-07
1.58874e-07
1.07605e-07
6.93336e-08
4.10584e-08
2.26005e-08
1.23481e-08
6.66391e-09
3.54079e-09
1.8154e-09
9.16602e-10
4.49441e-10
2.14074e-10
1.00788e-10
5.0982e-11
3.10717e-11
2.0343e-11
1.22942e-11
6.9714e-12
4.30061e-12
3.05078e-12
2.31921e-12
1.794e-12
1.37907e-12
1.03847e-12
7.49777e-13
5.24135e-13
3.54791e-13
2.32936e-13
1.48891e-13
9.27232e-14
5.6496e-14
3.37644e-14
1.98463e-14
1.14819e-14
6.55049e-15
3.68935e-15
2.05336e-15
1.13033e-15
6.16179e-16
3.32587e-16
1.77957e-16
9.44579e-17
4.97756e-17
2.60474e-17
1.35428e-17
6.9962e-18
3.58864e-18
1.82393e-18
9.13932e-19
4.46329e-19
2.06715e-19
8.41025e-20
1.94405e-20
9.00198e-10
3.43179e-09
7.15943e-09
1.27849e-08
2.12315e-08
3.3818e-08
5.2405e-08
7.95406e-08
1.18569e-07
1.73653e-07
2.49765e-07
3.5292e-07
4.90565e-07
6.71549e-07
9.05171e-07
1.2008e-06
1.5683e-06
2.01466e-06
2.5227e-06
3.11691e-06
3.78252e-06
4.52129e-06
5.32652e-06
6.21623e-06
7.1294e-06
8.07927e-06
9.05047e-06
1.00405e-05
1.09789e-05
1.18517e-05
1.25854e-05
1.30985e-05
1.33096e-05
1.31178e-05
1.24256e-05
1.11786e-05
9.42746e-06
7.38514e-06
5.3937e-06
3.74024e-06
2.50662e-06
1.65727e-06
1.0988e-06
7.2909e-07
4.89316e-07
3.32564e-07
2.29774e-07
1.58702e-07
1.07422e-07
6.91471e-08
4.08945e-08
2.25096e-08
1.22958e-08
6.63107e-09
3.51408e-09
1.81999e-09
9.17778e-10
4.49507e-10
2.13896e-10
1.00656e-10
5.09702e-11
3.11114e-11
2.03533e-11
1.22773e-11
6.96124e-12
4.29803e-12
3.05094e-12
2.32039e-12
1.79462e-12
1.37966e-12
1.03848e-12
7.49426e-13
5.23645e-13
3.54306e-13
2.3253e-13
1.48587e-13
9.25089e-14
5.6354e-14
3.36742e-14
1.97909e-14
1.14487e-14
6.53101e-15
3.67815e-15
2.04704e-15
1.12681e-15
6.14253e-16
3.31543e-16
1.77397e-16
9.41611e-17
4.96197e-17
2.59662e-17
1.35008e-17
6.97466e-18
3.57768e-18
1.81841e-18
9.11184e-19
4.44995e-19
2.061e-19
8.38526e-20
1.93828e-20
8.99725e-10
3.42999e-09
7.15569e-09
1.27783e-08
2.12205e-08
3.38005e-08
5.23782e-08
7.95001e-08
1.18509e-07
1.73566e-07
2.49642e-07
3.52751e-07
4.90341e-07
6.71262e-07
9.04797e-07
1.20036e-06
1.5678e-06
2.01412e-06
2.52217e-06
3.11625e-06
3.78193e-06
4.52083e-06
5.32628e-06
6.2163e-06
7.12985e-06
8.08017e-06
9.05191e-06
1.00426e-05
1.09817e-05
1.18551e-05
1.25896e-05
1.31033e-05
1.33148e-05
1.31232e-05
1.24308e-05
1.11831e-05
9.43077e-06
7.3872e-06
5.39474e-06
3.74065e-06
2.5067e-06
1.65722e-06
1.09868e-06
7.28958e-07
4.8918e-07
3.32432e-07
2.29647e-07
1.58578e-07
1.07299e-07
6.90315e-08
4.08055e-08
2.24609e-08
1.22636e-08
6.61094e-09
3.50138e-09
1.81317e-09
9.14947e-10
4.48295e-10
2.13367e-10
1.00441e-10
5.09186e-11
3.11148e-11
2.03478e-11
1.22616e-11
6.95352e-12
4.2964e-12
3.05174e-12
2.32138e-12
1.79515e-12
1.38013e-12
1.03854e-12
7.49234e-13
5.23347e-13
3.53997e-13
2.3226e-13
1.48381e-13
9.23637e-14
5.62573e-14
3.36125e-14
1.9753e-14
1.14261e-14
6.51782e-15
3.67062e-15
2.04281e-15
1.12447e-15
6.12981e-16
3.30857e-16
1.77032e-16
9.39682e-17
4.95188e-17
2.59136e-17
1.34736e-17
6.96062e-18
3.5705e-18
1.81476e-18
9.09362e-19
4.44106e-19
2.05689e-19
8.36856e-20
1.93442e-20
8.99488e-10
3.42909e-09
7.15381e-09
1.27749e-08
2.12149e-08
3.37918e-08
5.23648e-08
7.94801e-08
1.1848e-07
1.73525e-07
2.49583e-07
3.5267e-07
4.90234e-07
6.71124e-07
9.04617e-07
1.20015e-06
1.56756e-06
2.01387e-06
2.52192e-06
3.11593e-06
3.78166e-06
4.52064e-06
5.32619e-06
6.21638e-06
7.13012e-06
8.08067e-06
9.05268e-06
1.00437e-05
1.09831e-05
1.18569e-05
1.25917e-05
1.31057e-05
1.33176e-05
1.31259e-05
1.24333e-05
1.11852e-05
9.43234e-06
7.38816e-06
5.39521e-06
3.74083e-06
2.50672e-06
1.65717e-06
1.0986e-06
7.28865e-07
4.89084e-07
3.32337e-07
2.29558e-07
1.58498e-07
1.07233e-07
6.89873e-08
4.07855e-08
2.24458e-08
1.22595e-08
6.61147e-09
3.50578e-09
1.80582e-09
9.11272e-10
4.46517e-10
2.12544e-10
1.00091e-10
5.08071e-11
3.10952e-11
2.03374e-11
1.22481e-11
6.9463e-12
4.29394e-12
3.05146e-12
2.3216e-12
1.79531e-12
1.38033e-12
1.03857e-12
7.49157e-13
5.23218e-13
3.53856e-13
2.32131e-13
1.48276e-13
9.22858e-14
5.62038e-14
3.35779e-14
1.97316e-14
1.14133e-14
6.51035e-15
3.66636e-15
2.04043e-15
1.12316e-15
6.12269e-16
3.30476e-16
1.7683e-16
9.3862e-17
4.94636e-17
2.58852e-17
1.34591e-17
6.95323e-18
3.56676e-18
1.81289e-18
9.08432e-19
4.43656e-19
2.05481e-19
8.36013e-20
1.93247e-20
8.99484e-10
3.42907e-09
7.15378e-09
1.27749e-08
2.12148e-08
3.37916e-08
5.23645e-08
7.94797e-08
1.1848e-07
1.73524e-07
2.49582e-07
3.52669e-07
4.90232e-07
6.71122e-07
9.04615e-07
1.20014e-06
1.56756e-06
2.01387e-06
2.52192e-06
3.11594e-06
3.78167e-06
4.52065e-06
5.32621e-06
6.21641e-06
7.13015e-06
8.08071e-06
9.05272e-06
1.00438e-05
1.09831e-05
1.18569e-05
1.25918e-05
1.31058e-05
1.33177e-05
1.31259e-05
1.24333e-05
1.11852e-05
9.43232e-06
7.38816e-06
5.39523e-06
3.74087e-06
2.50675e-06
1.65719e-06
1.09861e-06
7.28867e-07
4.89082e-07
3.32333e-07
2.29555e-07
1.585e-07
1.07245e-07
6.90212e-08
4.08758e-08
2.2297e-08
1.21895e-08
6.58088e-09
3.49718e-09
1.79328e-09
9.05793e-10
4.44171e-10
2.11561e-10
9.96868e-11
5.06362e-11
3.10129e-11
2.02962e-11
1.22297e-11
6.93901e-12
4.29112e-12
3.05032e-12
2.32111e-12
1.79508e-12
1.38022e-12
1.03853e-12
7.49155e-13
5.23227e-13
3.53864e-13
2.32134e-13
1.48276e-13
9.22838e-14
5.62017e-14
3.35761e-14
1.97303e-14
1.14125e-14
6.50987e-15
3.66608e-15
2.04027e-15
1.12308e-15
6.12226e-16
3.30453e-16
1.76818e-16
9.38563e-17
4.94609e-17
2.58839e-17
1.34584e-17
6.95294e-18
3.56663e-18
1.81283e-18
9.08407e-19
4.43645e-19
2.05477e-19
8.35996e-20
1.93243e-20
8.99716e-10
3.42996e-09
7.15561e-09
1.27781e-08
2.12202e-08
3.38e-08
5.23773e-08
7.94987e-08
1.18507e-07
1.73563e-07
2.49638e-07
3.52745e-07
4.90335e-07
6.71255e-07
9.04789e-07
1.20035e-06
1.5678e-06
2.01412e-06
2.52218e-06
3.11626e-06
3.78196e-06
4.52088e-06
5.32634e-06
6.21638e-06
7.12994e-06
8.08027e-06
9.052e-06
1.00427e-05
1.09817e-05
1.18552e-05
1.25897e-05
1.31034e-05
1.33151e-05
1.31232e-05
1.24307e-05
1.1183e-05
9.43069e-06
7.38718e-06
5.39478e-06
3.74071e-06
2.50676e-06
1.65725e-06
1.09869e-06
7.28937e-07
4.8914e-07
3.3238e-07
2.29591e-07
1.58526e-07
1.07257e-07
6.90053e-08
4.07981e-08
2.24402e-08
1.22571e-08
6.61301e-09
3.5124e-09
1.79914e-09
9.0809e-10
4.45082e-10
2.11925e-10
9.98233e-11
5.06677e-11
3.10101e-11
2.02975e-11
1.2237e-11
6.94287e-12
4.29204e-12
3.04987e-12
2.32048e-12
1.79467e-12
1.37987e-12
1.03844e-12
7.4922e-13
5.23363e-13
3.54013e-13
2.32266e-13
1.48377e-13
9.23554e-14
5.62492e-14
3.36063e-14
1.97488e-14
1.14235e-14
6.51628e-15
3.66975e-15
2.04234e-15
1.12422e-15
6.12849e-16
3.3079e-16
1.76998e-16
9.39515e-17
4.95107e-17
2.59098e-17
1.34718e-17
6.95983e-18
3.57014e-18
1.81461e-18
9.09293e-19
4.44077e-19
2.05676e-19
8.36808e-20
1.93431e-20
9.00197e-10
3.43179e-09
7.15941e-09
1.27849e-08
2.12313e-08
3.38176e-08
5.24041e-08
7.95386e-08
1.18566e-07
1.73647e-07
2.49755e-07
3.52907e-07
4.90551e-07
6.71535e-07
9.05159e-07
1.20079e-06
1.5683e-06
2.01467e-06
2.52272e-06
3.11695e-06
3.78257e-06
4.52136e-06
5.32661e-06
6.21634e-06
7.12952e-06
8.07939e-06
9.05057e-06
1.00406e-05
1.09789e-05
1.18517e-05
1.25854e-05
1.30985e-05
1.33097e-05
1.31176e-05
1.24254e-05
1.11784e-05
9.42728e-06
7.38509e-06
5.39375e-06
3.74033e-06
2.50671e-06
1.65733e-06
1.09881e-06
7.29069e-07
4.89268e-07
3.32501e-07
2.29708e-07
1.58645e-07
1.07384e-07
6.91411e-08
4.09397e-08
2.24299e-08
1.2262e-08
6.62035e-09
3.51847e-09
1.80308e-09
9.10422e-10
4.46388e-10
2.1261e-10
1.00142e-10
5.07701e-11
3.10254e-11
2.03087e-11
1.22541e-11
6.95086e-12
4.29359e-12
3.04892e-12
2.31937e-12
1.79405e-12
1.37932e-12
1.03831e-12
7.49368e-13
5.23643e-13
3.54315e-13
2.32532e-13
1.48583e-13
9.25032e-14
5.6348e-14
3.36693e-14
1.97875e-14
1.14466e-14
6.52982e-15
3.67751e-15
2.0467e-15
1.12663e-15
6.14167e-16
3.31501e-16
1.77377e-16
9.41518e-17
4.96154e-17
2.59642e-17
1.34999e-17
6.97416e-18
3.57743e-18
1.81828e-18
9.1112e-19
4.44964e-19
2.06085e-19
8.38469e-20
1.93815e-20
9.00943e-10
3.43462e-09
7.16532e-09
1.27954e-08
2.12486e-08
3.38449e-08
5.24459e-08
7.96009e-08
1.18656e-07
1.73777e-07
2.49938e-07
3.53159e-07
4.90887e-07
6.71969e-07
9.05725e-07
1.20146e-06
1.56907e-06
2.01551e-06
2.52358e-06
3.11803e-06
3.78356e-06
4.52215e-06
5.32709e-06
6.21635e-06
7.12897e-06
8.07815e-06
9.04851e-06
1.00375e-05
1.09748e-05
1.18464e-05
1.25789e-05
1.3091e-05
1.33015e-05
1.31091e-05
1.24171e-05
1.11712e-05
9.42186e-06
7.38166e-06
5.39196e-06
3.73957e-06
2.5065e-06
1.65736e-06
1.09894e-06
7.29239e-07
4.89447e-07
3.32684e-07
2.29892e-07
1.58837e-07
1.07587e-07
6.93535e-08
4.11539e-08
2.24601e-08
1.22781e-08
6.6296e-09
3.52419e-09
1.80763e-09
9.12983e-10
4.47797e-10
2.13359e-10
1.00497e-10
5.08883e-11
3.10571e-11
2.03414e-11
1.22885e-11
6.96562e-12
4.29646e-12
3.04806e-12
2.3176e-12
1.79307e-12
1.3785e-12
1.03815e-12
7.49624e-13
5.24072e-13
3.54767e-13
2.32928e-13
1.48886e-13
9.27188e-14
5.64924e-14
3.37618e-14
1.98446e-14
1.14809e-14
6.54992e-15
3.68905e-15
2.05321e-15
1.13025e-15
6.1614e-16
3.32567e-16
1.77946e-16
9.44523e-17
4.97725e-17
2.60457e-17
1.35419e-17
6.99567e-18
3.58836e-18
1.82379e-18
9.13859e-19
4.46293e-19
2.06699e-19
8.40957e-20
1.9439e-20
9.01979e-10
3.43857e-09
7.17352e-09
1.281e-08
2.12727e-08
3.38829e-08
5.25041e-08
7.96877e-08
1.18783e-07
1.73958e-07
2.50194e-07
3.53511e-07
4.91358e-07
6.72578e-07
9.06518e-07
1.20241e-06
1.57016e-06
2.0167e-06
2.52482e-06
3.1196e-06
3.78504e-06
4.52338e-06
5.32791e-06
6.21652e-06
7.12837e-06
8.07658e-06
9.04581e-06
1.00335e-05
1.09693e-05
1.18393e-05
1.25703e-05
1.3081e-05
1.32904e-05
1.30973e-05
1.24057e-05
1.1161e-05
9.41407e-06
7.37659e-06
5.3892e-06
3.73829e-06
2.50605e-06
1.65729e-06
1.09905e-06
7.29422e-07
4.89658e-07
3.32905e-07
2.30115e-07
1.59059e-07
1.07804e-07
6.95406e-08
4.12484e-08
2.26975e-08
1.23979e-08
6.68693e-09
3.54442e-09
1.835e-09
9.25852e-10
4.53777e-10
2.16061e-10
1.01644e-10
5.12769e-11
3.11583e-11
2.03983e-11
1.23401e-11