/*--------------------------------*- C++ -*----------------------------------*\
  =========                 |
  \\      /  F ield         | OpenFOAM: The Open Source CFD Toolbox
   \\    /   O peration     | Website:  https://openfoam.org
    \\  /    A nd           | Version:  10
     \\/     M anipulation  |
\*---------------------------------------------------------------------------*/
FoamFile
{
    format      ascii;
    class       volScalarField;
    location    "1";
    object      NH;
}
// * * * * * * * * * * * * * * * * * * * * * * * * * * * * * * * * * * * * * //

dimensions      [0 0 0 0 0 0 0];

internalField   nonuniform List<scalar> 
4000
(
3.62691e-14
1.38305e-13
2.88782e-13
5.16628e-13
8.60846e-13
1.37917e-12
2.1574e-12
3.32249e-12
5.06182e-12
7.65259e-12
1.15137e-11
1.73075e-11
2.61164e-11
3.97493e-11
6.12439e-11
9.55399e-11
1.51429e-10
2.4329e-10
3.88315e-10
6.32974e-10
1.01936e-09
1.64354e-09
2.66287e-09
4.22692e-09
6.63506e-09
1.02527e-08
1.55596e-08
2.31659e-08
3.36336e-08
4.81754e-08
6.8259e-08
9.62932e-08
1.36159e-07
1.93108e-07
2.74106e-07
3.87746e-07
5.42689e-07
7.47572e-07
1.01365e-06
1.3532e-06
1.79138e-06
2.35626e-06
3.08683e-06
4.03912e-06
5.30114e-06
6.91994e-06
8.90661e-06
1.12084e-05
1.36179e-05
1.55952e-05
1.60881e-05
1.34733e-05
7.43738e-06
4.07001e-06
2.19769e-06
1.16601e-06
6.05159e-07
3.06439e-07
1.51033e-07
7.28694e-08
3.51045e-08
1.6937e-08
7.6976e-09
3.17627e-09
1.18552e-09
3.98378e-10
1.22975e-10
3.46336e-11
8.43465e-12
1.79711e-12
3.47658e-13
5.61229e-14
7.86231e-15
9.67771e-16
1.06122e-16
1.0648e-17
9.98472e-19
8.9321e-20
7.74136e-21
6.56638e-22
5.49684e-23
4.55401e-24
3.74985e-25
3.07153e-26
2.50967e-27
2.04491e-28
1.66304e-29
1.34975e-30
1.09382e-31
8.84483e-33
7.15461e-34
5.93732e-35
6.30104e-36
8.89199e-37
1.63318e-37
3.5525e-38
8.13088e-39
1.77842e-39
3.29826e-40
3.28004e-41
3.59463e-14
1.37062e-13
2.86153e-13
5.11873e-13
8.52762e-13
1.36558e-12
2.13509e-12
3.28602e-12
5.00185e-12
7.55329e-12
1.13484e-11
1.70333e-11
2.5648e-11
3.89619e-11
5.99449e-11
9.34052e-11
1.47667e-10
2.36686e-10
3.77654e-10
6.16834e-10
9.93693e-10
1.59969e-09
2.59268e-09
4.12677e-09
6.48987e-09
1.00544e-08
1.52911e-08
2.28537e-08
3.32505e-08
4.77225e-08
6.77195e-08
9.55717e-08
1.35298e-07
1.92211e-07
2.73229e-07
3.87037e-07
5.42503e-07
7.48457e-07
1.01654e-06
1.35892e-06
1.80094e-06
2.37103e-06
3.1081e-06
4.06983e-06
5.34435e-06
6.97884e-06
8.98208e-06
1.13002e-05
1.372e-05
1.56871e-05
1.61285e-05
1.34114e-05
7.38908e-06
4.03952e-06
2.17934e-06
1.15623e-06
5.95459e-07
3.0106e-07
1.4814e-07
7.14454e-08
3.42288e-08
1.64515e-08
7.42239e-09
3.03766e-09
1.12241e-09
3.76186e-10
1.15295e-10
3.21678e-11
7.74001e-12
1.62757e-12
3.10818e-13
4.97282e-14
6.91961e-15
8.43614e-16
9.23845e-17
9.27037e-18
8.71398e-19
7.8214e-20
6.80484e-21
5.79472e-22
4.87043e-23
4.05029e-24
3.34371e-25
2.74826e-26
2.24757e-27
1.83258e-28
1.49191e-29
1.21168e-30
9.82648e-32
7.96715e-33
6.44721e-34
5.45159e-35
5.95219e-36
8.58784e-37
1.60656e-37
3.52728e-38
8.09931e-39
1.77274e-39
3.28754e-40
3.26865e-41
3.55412e-14
1.35513e-13
2.82906e-13
5.06041e-13
8.43072e-13
1.35039e-12
2.11076e-12
3.24636e-12
4.93611e-12
7.44216e-12
1.11556e-11
1.66866e-11
2.50698e-11
3.80135e-11
5.83887e-11
9.08682e-11
1.43672e-10
2.29708e-10
3.65878e-10
5.97221e-10
9.62451e-10
1.55304e-09
2.5105e-09
4.03492e-09
6.34521e-09
9.84494e-09
1.49993e-08
2.24751e-08
3.27681e-08
4.71372e-08
6.70109e-08
9.47232e-08
1.34328e-07
1.91094e-07
2.72181e-07
3.86281e-07
5.42496e-07
7.505e-07
1.02162e-06
1.36869e-06
1.81671e-06
2.39472e-06
3.1426e-06
4.12005e-06
5.41484e-06
7.0745e-06
9.10442e-06
1.14486e-05
1.38771e-05
1.5817e-05
1.61577e-05
1.32521e-05
7.2986e-06
3.98313e-06
2.14417e-06
1.13517e-06
5.8325e-07
2.94024e-07
1.44289e-07
6.95806e-08
3.3028e-08
1.58054e-08
7.06363e-09
2.85775e-09
1.0443e-09
3.48026e-10
1.05557e-10
2.91156e-11
6.91301e-12
1.43415e-12
2.7069e-13
4.28576e-14
5.93533e-15
7.23899e-16
7.9224e-17
7.96149e-18
7.49869e-19
6.74858e-20
5.88878e-21
5.01434e-22
4.21695e-23
3.5093e-24
2.90117e-25
2.38682e-26
1.95629e-27
1.59851e-28
1.3038e-29
1.05992e-30
8.59998e-32
6.96721e-33
5.64753e-34
4.8612e-35
5.50024e-36
8.15273e-37
1.55945e-37
3.46385e-38
7.98974e-39
1.75126e-39
3.2488e-40
3.23023e-41
3.50356e-14
1.33569e-13
2.78774e-13
4.98436e-13
8.29867e-13
1.328e-12
2.07392e-12
3.18682e-12
4.84114e-12
7.29261e-12
1.09239e-11
1.6336e-11
2.4518e-11
3.71246e-11
5.6935e-11
8.84739e-11
1.39695e-10
2.23588e-10
3.56281e-10
5.80269e-10
9.34999e-10
1.50908e-09
2.4416e-09
3.93633e-09
6.20759e-09
9.65155e-09
1.47243e-08
2.21203e-08
3.23245e-08
4.66174e-08
6.64002e-08
9.40004e-08
1.33503e-07
1.90204e-07
2.71467e-07
3.86034e-07
5.43257e-07
7.5384e-07
1.02886e-06
1.38106e-06
1.8367e-06
2.42536e-06
3.18746e-06
4.18336e-06
5.50267e-06
7.19264e-06
9.25301e-06
1.16284e-05
1.40711e-05
1.59759e-05
1.61891e-05
1.30379e-05
7.16791e-06
3.90333e-06
2.09587e-06
1.10557e-06
5.66402e-07
2.84378e-07
1.38994e-07
6.68503e-08
3.16546e-08
1.50411e-08
6.64296e-09
2.65961e-09
9.61945e-10
3.16778e-10
9.50893e-11
2.5914e-11
6.07086e-12
1.24158e-12
2.3177e-13
3.6352e-14
4.95742e-15
5.963e-16
6.45368e-17
6.43308e-18
6.02337e-19
5.39902e-20
4.69922e-21
4.02472e-22
3.40455e-23
2.84126e-24
2.35564e-25
1.9435e-26
1.59726e-27
1.30851e-28
1.07032e-29
8.72586e-31
7.09984e-32
5.76695e-33
4.68493e-34
4.14634e-35
4.91458e-36
7.55748e-37
1.4874e-37
3.35248e-38
7.7794e-39
1.70897e-39
3.1728e-40
3.15501e-41
3.45588e-14
1.31749e-13
2.74961e-13
4.91564e-13
8.18287e-13
1.30915e-12
2.04387e-12
3.13945e-12
4.7669e-12
7.1764e-12
1.07415e-11
1.60484e-11
2.40602e-11
3.63889e-11
5.574e-11
8.65211e-11
1.36471e-10
2.18235e-10
3.47448e-10
5.65998e-10
9.12739e-10
1.47406e-09
2.38389e-09
3.85192e-09
6.07997e-09
9.4611e-09
1.44718e-08
2.18006e-08
3.19385e-08
4.61634e-08
6.59088e-08
9.34569e-08
1.32938e-07
1.89662e-07
2.71229e-07
3.86447e-07
5.44931e-07
7.58236e-07
1.0373e-06
1.39569e-06
1.85917e-06
2.45861e-06
3.23548e-06
4.25099e-06
5.59574e-06
7.31632e-06
9.40502e-06
1.18043e-05
1.42487e-05
1.60953e-05
1.61368e-05
1.27039e-05
6.97681e-06
3.79303e-06
2.03238e-06
1.06961e-06
5.47177e-07
2.73879e-07
1.33442e-07
6.40485e-08
3.03279e-08
1.4325e-08
6.25526e-09
2.47149e-09
8.83657e-10
2.88056e-10
8.56382e-11
2.30846e-11
5.33171e-12
1.07417e-12
1.98447e-13
3.06215e-14
4.13276e-15
4.93187e-16
5.30996e-17
5.27842e-18
4.93609e-19
4.42402e-20
3.85282e-21
3.28911e-22
2.77577e-23
2.32514e-24
1.93447e-25
1.60111e-26
1.31716e-27
1.08014e-28
8.84623e-30
7.21917e-31
5.87957e-32
4.78009e-33
3.88842e-34
3.53786e-35
4.3304e-36
6.92571e-37
1.40285e-37
3.20767e-38
7.48783e-39
1.6488e-39
3.06395e-40
3.04751e-41
3.41166e-14
1.30062e-13
2.71432e-13
4.85221e-13
8.07631e-13
1.29188e-12
2.01641e-12
3.09629e-12
4.69947e-12
7.07122e-12
1.05772e-11
1.57909e-11
2.3655e-11
3.57472e-11
5.47166e-11
8.48856e-11
1.33845e-10
2.14029e-10
3.40823e-10
5.54884e-10
8.94979e-10
1.44578e-09
2.33523e-09
3.77846e-09
5.96811e-09
9.30984e-09
1.42671e-08
2.15423e-08
3.16203e-08
4.58184e-08
6.55546e-08
9.31001e-08
1.32619e-07
1.89487e-07
2.71453e-07
3.87503e-07
5.47503e-07
7.63558e-07
1.04697e-06
1.41109e-06
1.88283e-06
2.49372e-06
3.28436e-06
4.31848e-06
5.68745e-06
7.43717e-06
9.55284e-06
1.19748e-05
1.44128e-05
1.61899e-05
1.60445e-05
1.23079e-05
6.74588e-06
3.65955e-06
1.95616e-06
1.02496e-06
5.22975e-07
2.60652e-07
1.26494e-07
6.06126e-08
2.87846e-08
1.35194e-08
5.86014e-09
2.29358e-09
8.13305e-10
2.62977e-10
7.78471e-11
2.02615e-11
4.62889e-12
9.25077e-13
1.6833e-13
2.56941e-14
3.43821e-15
4.07744e-16
4.37155e-17
4.33598e-18
4.05054e-19
3.6301e-20
3.16332e-21
2.70403e-22
2.2811e-23
1.90709e-24
1.58414e-25
1.30957e-26
1.08116e-27
8.89466e-29
7.30784e-30
5.97938e-31
4.88118e-32
3.97653e-33
3.24226e-34
3.03659e-35
3.831e-36
6.34455e-37
1.31678e-37
3.047e-38
7.14895e-39
1.57755e-39
2.93422e-40
2.91927e-41
3.37162e-14
1.28536e-13
2.6824e-13
4.79491e-13
7.98021e-13
1.27633e-12
1.99177e-12
3.05768e-12
4.63934e-12
6.97777e-12
1.04318e-11
1.55638e-11
2.32988e-11
3.51846e-11
5.38206e-11
8.34526e-11
1.31533e-10
2.10283e-10
3.34809e-10
5.44658e-10
8.78846e-10
1.42156e-09
2.29402e-09
3.71484e-09
5.87964e-09
9.18885e-09
1.41074e-08
2.13484e-08
3.13924e-08
4.55794e-08
6.53269e-08
9.2901e-08
1.32507e-07
1.89597e-07
2.72028e-07
3.88979e-07
5.5058e-07
7.69367e-07
1.05654e-06
1.42624e-06
1.90605e-06
2.52729e-06
3.33117e-06
4.38268e-06
5.77328e-06
7.54697e-06
9.67978e-06
1.21093e-05
1.45502e-05
1.62299e-05
1.58596e-05
1.17516e-05
6.43917e-06
3.49078e-06
1.86428e-06
9.70484e-07
4.95225e-07
2.46333e-07
1.19312e-07
5.70113e-08
2.74081e-08
1.28129e-08
5.49644e-09
2.13245e-09
7.50835e-10
2.41159e-10
7.08906e-11
1.82703e-11
4.13685e-12
8.17709e-13
1.47582e-13
2.23302e-14
2.967e-15
3.49771e-16
3.73362e-17
3.69328e-18
3.44438e-19
3.0844e-20
2.68724e-21
2.29788e-22
1.93917e-23
1.622e-24
1.34803e-25
1.11491e-26
9.18538e-28
7.54273e-29
6.18785e-30
5.05543e-31
4.12148e-32
3.3537e-33
2.73299e-34
2.62108e-35
3.40069e-36
5.81157e-37
1.23246e-37
2.88276e-38
6.7959e-39
1.50274e-39
2.79746e-40
2.78382e-41
3.33567e-14
1.27165e-13
2.65375e-13
4.74349e-13
7.89403e-13
1.2624e-12
1.96973e-12
3.02324e-12
4.58588e-12
6.895e-12
1.03035e-11
1.53644e-11
2.29874e-11
3.46951e-11
5.30447e-11
8.22174e-11
1.29551e-10
2.07093e-10
3.29734e-10
5.35948e-10
8.6572e-10
1.40062e-09
2.26158e-09
3.66849e-09
5.81327e-09
9.09363e-09
1.3981e-08
2.11935e-08
3.12246e-08
4.54188e-08
6.51937e-08
9.28281e-08
1.32567e-07
1.89916e-07
2.72853e-07
3.90751e-07
5.53849e-07
7.75049e-07
1.0659e-06
1.44059e-06
1.92659e-06
2.55625e-06
3.3709e-06
4.43694e-06
5.84619e-06
7.64157e-06
9.7936e-06
1.22316e-05
1.46423e-05
1.62316e-05
1.56543e-05
1.1134e-05
6.10196e-06
3.30795e-06
1.76868e-06
9.12195e-07
4.65541e-07
2.31232e-07
1.11765e-07
5.34221e-08
2.57555e-08
1.20002e-08
5.12344e-09
1.97383e-09
6.89549e-10
2.20241e-10
6.44017e-11
1.63445e-11
3.67232e-12
7.20658e-13
1.29306e-13
1.94576e-14
2.56781e-15
3.00886e-16
3.19683e-17
3.1525e-18
2.93373e-19
2.62371e-20
2.28425e-21
1.95302e-22
1.64802e-23
1.37859e-24
1.14595e-25
9.48008e-27
7.81252e-28
6.4188e-29
5.25845e-30
4.29744e-31
3.5045e-32
2.85235e-33
2.32617e-34
2.29098e-35
3.0477e-36
5.3473e-37
1.15324e-37
2.71909e-38
6.43294e-39
1.42497e-39
2.6552e-40
2.6433e-41
3.30391e-14
1.25954e-13
2.62845e-13
4.69812e-13
7.8181e-13
1.25015e-12
1.95039e-12
2.99309e-12
4.53925e-12
6.82304e-12
1.01924e-11
1.51923e-11
2.27199e-11
3.42767e-11
5.23858e-11
8.11784e-11
1.27906e-10
2.04501e-10
3.25769e-10
5.29081e-10
8.54739e-10
1.38423e-09
2.2357e-09
3.62893e-09
5.75623e-09
9.01863e-09
1.38868e-08
2.10855e-08
3.11102e-08
4.53168e-08
6.51322e-08
9.28481e-08
1.32742e-07
1.90384e-07
2.73869e-07
3.9269e-07
5.5728e-07
7.80814e-07
1.07513e-06
1.4548e-06
1.94762e-06
2.58599e-06
3.41129e-06
4.49106e-06
5.91671e-06
7.72815e-06
9.89241e-06
1.23301e-05
1.46998e-05
1.61908e-05
1.54004e-05
1.05645e-05
5.77923e-06
3.12775e-06
1.6684e-06
8.61347e-07
4.38354e-07
2.17009e-07
1.04682e-07
5.00698e-08
2.41856e-08
1.12572e-08
4.78453e-09
1.83179e-09
6.35051e-10
2.01015e-10
5.82695e-11
1.46523e-11
3.26099e-12
6.32243e-13
1.12181e-13
1.67301e-14
2.19234e-15
2.55564e-16
2.7054e-17
2.66235e-18
2.47459e-19
2.21209e-20
1.92603e-21
1.6475e-22
1.39102e-23
1.16441e-24
9.6864e-26
8.01952e-27
6.61396e-28
5.43962e-29
4.45961e-30
3.64721e-31
2.97628e-32
2.424e-33
1.97938e-34
2.01106e-35
2.75362e-36
4.96846e-37
1.08951e-37
2.58757e-38
6.13874e-39
1.36116e-39
2.53714e-40
2.52588e-41
3.2762e-14
1.24898e-13
2.6064e-13
4.65862e-13
7.75205e-13
1.23952e-12
1.93363e-12
2.96703e-12
4.49904e-12
6.76121e-12
1.00972e-11
1.50452e-11
2.24913e-11
3.39184e-11
5.18182e-11
8.02736e-11
1.26447e-10
2.02147e-10
3.21991e-10
5.22625e-10
8.45171e-10
1.36942e-09
2.21414e-09
3.59947e-09
5.71486e-09
8.96204e-09
1.38154e-08
2.10077e-08
3.10335e-08
4.52565e-08
6.51248e-08
9.29353e-08
1.33004e-07
1.90944e-07
2.74952e-07
3.94673e-07
5.60707e-07
7.86478e-07
1.08391e-06
1.46774e-06
1.9663e-06
2.61223e-06
3.44677e-06
4.53847e-06
5.97749e-06
7.80253e-06
9.97528e-06
1.24034e-05
1.47159e-05
1.60844e-05
1.50425e-05
9.88781e-06
5.41687e-06
2.93392e-06
1.56695e-06
8.06839e-07
4.10642e-07
2.0333e-07
9.81318e-08
4.70534e-08
2.277e-08
1.05759e-08
4.47823e-09
1.71412e-09
5.80486e-10
1.83243e-10
5.28926e-11
1.32262e-11
2.92221e-12
5.64207e-13
9.9435e-14
1.47243e-14
1.91809e-15
2.22619e-16
2.3492e-17
2.30755e-18
2.14233e-19
1.91408e-20
1.6663e-21
1.42567e-22
1.20412e-23
1.00838e-24
8.39241e-26
6.95161e-27
5.73595e-28
4.72077e-29
3.87203e-30
3.16803e-31
2.58627e-32
2.10722e-33
1.7258e-34
1.80288e-35
2.52977e-36
4.66943e-37
1.03744e-37
2.47793e-38
5.89153e-39
1.30739e-39
2.43756e-40
2.42685e-41
3.25234e-14
1.23989e-13
2.58742e-13
4.62464e-13
7.69531e-13
1.23039e-12
1.91929e-12
2.9448e-12
4.46489e-12
6.70896e-12
1.00174e-11
1.4923e-11
2.23032e-11
3.36271e-11
5.1358e-11
7.95552e-11
1.2533e-10
2.00408e-10
3.1923e-10
5.17788e-10
8.3781e-10
1.35811e-09
2.19733e-09
3.57471e-09
5.68135e-09
8.91841e-09
1.37628e-08
2.09511e-08
3.09823e-08
4.52268e-08
6.51473e-08
9.30469e-08
1.33268e-07
1.91493e-07
2.75978e-07
3.96484e-07
5.63726e-07
7.91347e-07
1.09145e-06
1.47892e-06
1.98241e-06
2.63484e-06
3.47753e-06
4.58035e-06
6.03192e-06
7.86949e-06
1.00484e-05
1.24691e-05
1.47384e-05
1.60083e-05
1.47673e-05
9.31489e-06
5.10479e-06
2.76474e-06
1.47504e-06
7.58675e-07
3.85669e-07
1.90718e-07
9.2018e-08
4.42288e-08
2.14912e-08
9.98364e-09
4.21301e-09
1.60489e-09
5.41754e-10
1.69964e-10
4.8812e-11
1.21206e-11
2.65952e-12
5.11877e-13
8.98132e-14
1.32216e-14
1.71373e-15
1.982e-16
2.08615e-17
2.0461e-18
1.89775e-19
1.69488e-20
1.4749e-21
1.26216e-22
1.06631e-23
8.9329e-25
7.43745e-26
6.16308e-27
5.08733e-28
4.18904e-29
3.43718e-30
2.81322e-31
2.29736e-32
1.87291e-33
1.55547e-34
1.65835e-35
2.36745e-36
4.43854e-37
9.94932e-38
2.38565e-38
5.68093e-39
1.26142e-39
2.35237e-40
2.34215e-41
3.23198e-14
1.23213e-13
2.57124e-13
4.59569e-13
7.64704e-13
1.22265e-12
1.90713e-12
2.92601e-12
4.43611e-12
6.66513e-12
9.9507e-12
1.48214e-11
2.21478e-11
3.33873e-11
5.09788e-11
7.89674e-11
1.24398e-10
1.98888e-10
3.16801e-10
5.13753e-10
8.31539e-10
1.34897e-09
2.18415e-09
3.55604e-09
5.65554e-09
8.88514e-09
1.37234e-08
2.09117e-08
3.09518e-08
4.52188e-08
6.51902e-08
9.31757e-08
1.33543e-07
1.92029e-07
2.76943e-07
3.98141e-07
5.66432e-07
7.9567e-07
1.09791e-06
1.48821e-06
1.99535e-06
2.65212e-06
3.49933e-06
4.62374e-06
6.08369e-06
7.93055e-06
1.01152e-05
1.2531e-05
1.47716e-05
1.59657e-05
1.45678e-05
8.89928e-06
4.86717e-06
2.63178e-06
1.40276e-06
7.20996e-07
3.66122e-07
1.80846e-07
8.71994e-08
4.19857e-08
2.04525e-08
9.48804e-09
3.99155e-09
1.51402e-09
5.10218e-10
1.59465e-10
4.56128e-11
1.12696e-11
2.45804e-12
4.73214e-13
8.27166e-14
1.21491e-14
1.5683e-15
1.80801e-16
1.89834e-17
1.85897e-18
1.72225e-19
1.53715e-20
1.33707e-21
1.1441e-22
9.66556e-24
8.0977e-25
6.74278e-26
5.58817e-27
4.61342e-28
3.79956e-29
3.11804e-30
2.55235e-31
2.08458e-32
1.70003e-33
1.42896e-34
1.54886e-35
2.24129e-36
4.25243e-37
9.59585e-38
2.30759e-38
5.50149e-39
1.22215e-39
2.27953e-40
2.26974e-41
3.21476e-14
1.22558e-13
2.55756e-13
4.57123e-13
7.60627e-13
1.21611e-12
1.89688e-12
2.9102e-12
4.41194e-12
6.62843e-12
9.89511e-12
1.47373e-11
2.20203e-11
3.31936e-11
5.06794e-11
7.85051e-11
1.23653e-10
1.97705e-10
3.14963e-10
5.10595e-10
8.26757e-10
1.34185e-09
2.17345e-09
3.54061e-09
5.63419e-09
8.85796e-09
1.36927e-08
2.08833e-08
3.09349e-08
4.52266e-08
6.52482e-08
9.33186e-08
1.33833e-07
1.92554e-07
2.77865e-07
3.99693e-07
5.68978e-07
7.99623e-07
1.10384e-06
1.49679e-06
2.0075e-06
2.66892e-06
3.52225e-06
4.65503e-06
6.12329e-06
7.97778e-06
1.01664e-05
1.25765e-05
1.47897e-05
1.59166e-05
1.43907e-05
8.43264e-06
4.62292e-06
2.50404e-06
1.3353e-06
6.86644e-07
3.48652e-07
1.72244e-07
8.30823e-08
4.00971e-08
1.95744e-08
9.08042e-09
3.81128e-09
1.44061e-09
4.84953e-10
1.51144e-10
4.30543e-11
1.0594e-11
2.2987e-12
4.42852e-13
7.70294e-14
1.1261e-14
1.44898e-15
1.66613e-16
1.74602e-17
1.70787e-18
1.58102e-19
1.41054e-20
1.22677e-21
1.04979e-22
8.86999e-24
7.43261e-25
6.19037e-26
5.1316e-27
4.23755e-28
3.49102e-29
2.86554e-30
2.34621e-31
1.91664e-32
1.56366e-33
1.32725e-34
1.46021e-35
2.1382e-36
4.09813e-37
9.29899e-38
2.24153e-38
5.34911e-39
1.18875e-39
2.21755e-40
2.20809e-41
3.20034e-14
1.22008e-13
2.5461e-13
4.55074e-13
7.57209e-13
1.21062e-12
1.88828e-12
2.89689e-12
4.39156e-12
6.59734e-12
9.84776e-12
1.46651e-11
2.19097e-11
3.30232e-11
5.04109e-11
7.80729e-11
1.22983e-10
1.96673e-10
3.13423e-10
5.0801e-10
8.22998e-10
1.33619e-09
2.16523e-09
3.52909e-09
5.61908e-09
8.83916e-09
1.36724e-08
2.08665e-08
3.09295e-08
4.52443e-08
6.53109e-08
9.34509e-08
1.34088e-07
1.93026e-07
2.78693e-07
4.01086e-07
5.71218e-07
8.03105e-07
1.10906e-06
1.50438e-06
2.01831e-06
2.6841e-06
3.54314e-06
4.6831e-06
6.15933e-06
8.0215e-06
1.02147e-05
1.26211e-05
1.48123e-05
1.58824e-05
1.4242e-05
8.18542e-06
4.48273e-06
2.42538e-06
1.29265e-06
6.64455e-07
3.37176e-07
1.66441e-07
8.02854e-08
3.8795e-08
1.89636e-08
8.78684e-09
3.67872e-09
1.38611e-09
4.66117e-10
1.44861e-10
4.11505e-11
1.00914e-11
2.18099e-12
4.20377e-13
7.28951e-14
1.06238e-14
1.36325e-15
1.56401e-16
1.63619e-17
1.5987e-18
1.47879e-19
1.31874e-20
1.14665e-21
9.81178e-23
8.29019e-24
6.94712e-25
5.7865e-26
4.79729e-27
3.96192e-28
3.26443e-29
2.67984e-30
2.19439e-31
1.7928e-32
1.46291e-33
1.24917e-34
1.39115e-35
2.05628e-36
3.97242e-37
9.05247e-38
2.18614e-38
5.22079e-39
1.16058e-39
2.16525e-40
2.15607e-41
3.18849e-14
1.21557e-13
2.53668e-13
4.53388e-13
7.54398e-13
1.20611e-12
1.8812e-12
2.88595e-12
4.37478e-12
6.57175e-12
9.80875e-12
1.46055e-11
2.18184e-11
3.28823e-11
5.01885e-11
7.77404e-11
1.22479e-10
1.95893e-10
3.12214e-10
5.05947e-10
8.19833e-10
1.33157e-09
2.15858e-09
3.52009e-09
5.60735e-09
8.82547e-09
1.36583e-08
2.08567e-08
3.09305e-08
4.52668e-08
6.53748e-08
9.35848e-08
1.34342e-07
1.93463e-07
2.79427e-07
4.02289e-07
5.73129e-07
8.06067e-07
1.11351e-06
1.51087e-06
2.02761e-06
2.69692e-06
3.56042e-06
4.70607e-06
6.18903e-06
8.05822e-06
1.02567e-05
1.2663e-05
1.48411e-05
1.5872e-05
1.41503e-05
8.04946e-06
4.40453e-06
2.38105e-06
1.26767e-06
6.51054e-07
3.3001e-07
1.62751e-07
7.84584e-08
3.79443e-08
1.8553e-08
8.58065e-09
3.58365e-09
1.34661e-09
4.52443e-10
1.40298e-10
3.97633e-11
9.72266e-12
2.09454e-12
4.03802e-13
6.9862e-14
1.01557e-14
1.30015e-15
1.48878e-16
1.55524e-17
1.51821e-18
1.40339e-19
1.25099e-20
1.0875e-21
9.30489e-23
7.86167e-24
6.58813e-25
5.48774e-26
4.54987e-27
3.75784e-28
3.0966e-29
2.54225e-30
2.08188e-31
1.70098e-32
1.38819e-33
1.19084e-34
1.33855e-35
1.99242e-36
3.87162e-37
8.85061e-38
2.1403e-38
5.11417e-39
1.13714e-39
2.1217e-40
2.11275e-41
3.17899e-14
1.21195e-13
2.52913e-13
4.52038e-13
7.52149e-13
1.2025e-12
1.87555e-12
2.87722e-12
4.36142e-12
6.5514e-12
9.77785e-12
1.45586e-11
2.17475e-11
3.27747e-11
5.00211e-11
7.74836e-11
1.22073e-10
1.95255e-10
3.11227e-10
5.04312e-10
8.17514e-10
1.3282e-09
2.15381e-09
3.51352e-09
5.59897e-09
8.81587e-09
1.3649e-08
2.08517e-08
3.0936e-08
4.52924e-08
6.5439e-08
9.3715e-08
1.34558e-07
1.93847e-07
2.8008e-07
4.03369e-07
5.7484e-07
8.08691e-07
1.11741e-06
1.51648e-06
2.03552e-06
2.70787e-06
3.57531e-06
4.72604e-06
6.2152e-06
8.09138e-06
1.02963e-05
1.27065e-05
1.48809e-05
1.58914e-05
1.41214e-05
7.98121e-06
4.36236e-06
2.35582e-06
1.25298e-06
6.43021e-07
3.25643e-07
1.60452e-07
7.73145e-08
3.7402e-08
1.82848e-08
8.443e-09
3.5182e-09
1.31873e-09
4.4277e-10
1.37046e-10
3.87639e-11
9.45818e-12
2.03181e-12
3.91932e-13
6.7659e-14
9.81568e-15
1.25437e-15
1.4341e-16
1.49627e-17
1.45949e-18
1.34831e-19
1.20145e-20
1.04419e-21
8.93354e-23
7.54748e-24
6.32473e-25
5.26836e-26
4.36808e-27
3.6078e-28
2.97314e-29
2.44097e-30
1.99901e-31
1.63333e-32
1.33311e-33
1.14761e-34
1.29889e-35
1.9432e-36
3.79197e-37
8.68836e-38
2.10315e-38
5.02747e-39
1.11805e-39
2.08622e-40
2.07745e-41
3.17167e-14
1.20916e-13
2.52332e-13
4.51e-13
7.50419e-13
1.19973e-12
1.87122e-12
2.87057e-12
4.35134e-12
6.53622e-12
9.75504e-12
1.45244e-11
2.16957e-11
3.26948e-11
4.98931e-11
7.72807e-11
1.21752e-10
1.94757e-10
3.10473e-10
5.03042e-10
8.15633e-10
1.32549e-09
2.15004e-09
3.50853e-09
5.59273e-09
8.8088e-09
1.36427e-08
2.08496e-08
3.09432e-08
4.53167e-08
6.54943e-08
9.38197e-08
1.34743e-07
1.94166e-07
2.80617e-07
4.04235e-07
5.762e-07
8.10763e-07
1.12047e-06
1.52087e-06
2.04171e-06
2.7164e-06
3.58692e-06
4.74174e-06
6.23578e-06
8.11733e-06
1.03269e-05
1.2739e-05
1.49081e-05
1.58997e-05
1.40909e-05
7.90675e-06
4.32297e-06
2.33451e-06
1.24134e-06
6.37312e-07
3.22778e-07
1.59017e-07
7.66176e-08
3.70774e-08
1.81224e-08
8.35655e-09
3.47598e-09
1.30034e-09
4.36376e-10
1.3487e-10
3.80867e-11
9.27543e-12
1.98779e-12
3.83497e-13
6.60778e-14
9.56997e-15
1.22106e-15
1.39426e-16
1.45333e-17
1.41674e-18
1.30821e-19
1.16537e-20
1.01264e-21
8.66275e-23
7.31822e-24
6.1324e-25
5.1081e-26
4.23521e-27
3.49809e-28
2.88284e-29
2.36689e-30
1.93838e-31
1.58384e-32
1.29281e-33
1.11577e-34
1.26925e-35
1.90595e-36
3.73071e-37
8.56208e-38
2.07407e-38
4.95943e-39
1.10305e-39
2.05834e-40
2.04971e-41
3.16639e-14
1.20715e-13
2.51914e-13
4.50256e-13
7.49186e-13
1.19777e-12
1.86817e-12
2.8659e-12
4.34423e-12
6.52536e-12
9.73835e-12
1.44985e-11
2.16553e-11
3.26324e-11
4.97958e-11
7.71346e-11
1.21528e-10
1.94413e-10
3.09949e-10
5.02164e-10
8.14353e-10
1.32365e-09
2.14748e-09
3.50514e-09
5.58856e-09
8.80428e-09
1.3639e-08
2.08492e-08
3.09499e-08
4.53367e-08
6.55383e-08
9.39036e-08
1.34894e-07
1.94409e-07
2.81017e-07
4.04879e-07
5.77206e-07
8.1229e-07
1.12272e-06
1.5241e-06
2.04626e-06
2.72271e-06
3.59552e-06
4.75339e-06
6.25136e-06
8.13764e-06
1.03521e-05
1.27679e-05
1.49365e-05
1.59175e-05
1.40818e-05
7.88046e-06
4.30518e-06
2.32216e-06
1.23104e-06
6.38188e-07
3.22714e-07
1.58779e-07
7.64263e-08
3.69636e-08
1.80507e-08
8.31037e-09
3.45097e-09
1.28884e-09
4.32286e-10
1.33452e-10
3.76432e-11
9.15383e-12
1.95826e-12
3.77849e-13
6.50205e-14
9.40449e-15
1.19856e-15
1.36724e-16
1.42407e-17
1.38752e-18
1.2807e-19
1.14056e-20
9.90922e-22
8.47624e-23
7.16024e-24
5.99982e-25
4.99757e-26
4.14353e-27
3.42235e-28
2.82045e-29
2.31566e-30
1.89643e-31
1.54955e-32
1.26486e-33
1.09355e-34
1.24829e-35
1.87929e-36
3.68625e-37
8.46953e-38
2.05265e-38
4.90921e-39
1.09198e-39
2.03774e-40
2.02921e-41
3.16297e-14
1.20585e-13
2.51643e-13
4.4977e-13
7.48376e-13
1.19647e-12
1.86611e-12
2.86268e-12
4.33922e-12
6.51766e-12
9.72662e-12
1.44808e-11
2.16286e-11
3.25922e-11
4.9733e-11
7.70384e-11
1.21382e-10
1.9419e-10
3.09617e-10
5.01613e-10
8.13553e-10
1.3225e-09
2.14589e-09
3.50303e-09
5.58601e-09
8.80157e-09
1.36368e-08
2.0849e-08
3.09533e-08
4.53501e-08
6.55675e-08
9.39582e-08
1.34989e-07
1.94569e-07
2.81279e-07
4.05299e-07
5.7786e-07
8.13279e-07
1.12417e-06
1.52617e-06
2.04919e-06
2.72676e-06
3.60105e-06
4.7609e-06
6.26134e-06
8.15054e-06
1.03679e-05
1.27856e-05
1.4953e-05
1.59263e-05
1.40729e-05
7.85552e-06
4.29074e-06
2.31381e-06
1.22629e-06
6.35766e-07
3.21471e-07
1.58146e-07
7.61141e-08
3.68153e-08
1.79743e-08
8.26916e-09
3.43082e-09
1.28013e-09
4.29269e-10
1.32424e-10
3.73241e-11
9.06795e-12
1.93771e-12
3.73942e-13
6.42923e-14
9.29149e-15
1.18327e-15
1.34893e-16
1.4043e-17
1.36779e-18
1.2622e-19
1.12395e-20
9.76413e-22
8.35188e-23
7.05508e-24
5.91171e-25
4.92423e-26
4.08278e-27
3.37224e-28
2.77924e-29
2.28188e-30
1.86881e-31
1.52702e-32
1.24652e-33
1.07894e-34
1.23457e-35
1.86204e-36
3.65764e-37
8.40987e-38
2.03878e-38
4.87652e-39
1.08474e-39
2.02425e-40
2.01577e-41
3.16124e-14
1.20519e-13
2.51505e-13
4.49523e-13
7.47963e-13
1.1958e-12
1.86507e-12
2.86107e-12
4.33678e-12
6.51395e-12
9.72099e-12
1.44723e-11
2.16158e-11
3.25726e-11
4.97026e-11
7.69922e-11
1.21311e-10
1.94082e-10
3.09454e-10
5.01341e-10
8.13157e-10
1.32193e-09
2.14511e-09
3.50201e-09
5.58479e-09
8.80032e-09
1.36359e-08
2.08493e-08
3.09562e-08
4.53572e-08
6.55819e-08
9.39831e-08
1.35027e-07
1.94645e-07
2.81407e-07
4.05503e-07
5.78177e-07
8.13757e-07
1.12487e-06
1.52716e-06
2.05057e-06
2.72865e-06
3.60358e-06
4.76424e-06
6.26562e-06
8.15574e-06
1.03736e-05
1.2791e-05
1.4956e-05
1.59244e-05
1.40639e-05
7.82794e-06
4.27668e-06
2.30721e-06
1.22433e-06
6.31522e-07
3.19467e-07
1.57213e-07
7.56928e-08
3.66343e-08
1.78959e-08
8.23336e-09
3.41507e-09
1.27377e-09
4.27118e-10
1.31722e-10
3.71134e-11
9.0131e-12
1.92501e-12
3.7152e-13
6.38512e-14
9.2243e-15
1.17431e-15
1.33836e-16
1.39299e-17
1.35657e-18
1.25168e-19
1.11447e-20
9.68116e-22
8.28063e-23
6.99474e-24
5.86108e-25
4.88204e-26
4.04781e-27
3.34337e-28
2.75548e-29
2.26239e-30
1.85287e-31
1.51402e-32
1.23594e-33
1.07047e-34
1.22671e-35
1.85252e-36
3.64246e-37
8.37913e-38
2.03175e-38
4.86012e-39
1.08113e-39
2.01753e-40
2.00908e-41
3.16121e-14
1.20518e-13
2.51501e-13
4.49517e-13
7.47952e-13
1.19578e-12
1.86504e-12
2.86103e-12
4.33671e-12
6.51385e-12
9.72085e-12
1.44721e-11
2.16155e-11
3.25723e-11
4.97021e-11
7.69915e-11
1.2131e-10
1.9408e-10
3.09452e-10
5.01337e-10
8.13152e-10
1.32193e-09
2.1451e-09
3.50201e-09
5.58479e-09
8.80032e-09
1.36359e-08
2.08493e-08
3.09562e-08
4.5357e-08
6.55808e-08
9.39807e-08
1.35024e-07
1.94641e-07
2.81403e-07
4.05498e-07
5.78169e-07
8.13746e-07
1.12486e-06
1.52715e-06
2.05057e-06
2.72869e-06
3.60369e-06
4.76451e-06
6.26626e-06
8.15715e-06
1.03766e-05
1.27972e-05
1.49685e-05
1.59488e-05
1.41107e-05
7.80792e-06
4.26901e-06
2.30502e-06
1.22524e-06
6.28679e-07
3.18148e-07
1.56618e-07
7.54322e-08
3.65224e-08
1.78475e-08
8.21335e-09
3.40746e-09
1.2711e-09
4.26267e-10
1.3147e-10
3.70444e-11
8.99678e-12
1.9216e-12
3.70869e-13
6.37408e-14
9.20851e-15
1.17232e-15
1.3361e-16
1.39065e-17
1.35431e-18
1.24961e-19
1.11264e-20
9.66537e-22
8.26722e-23
6.9835e-24
5.85173e-25
4.87431e-26
4.04145e-27
3.33815e-28
2.75121e-29
2.25892e-30
1.85004e-31
1.51172e-32
1.23408e-33
1.06899e-34
1.22548e-35
1.85143e-36
3.64137e-37
8.3778e-38
2.03154e-38
4.85974e-39
1.08106e-39
2.0174e-40
2.00896e-41
3.16287e-14
1.20581e-13
2.51633e-13
4.49752e-13
7.48342e-13
1.19641e-12
1.86601e-12
2.86252e-12
4.33899e-12
6.51732e-12
9.72613e-12
1.44801e-11
2.16277e-11
3.25909e-11
4.97313e-11
7.70361e-11
1.21379e-10
1.94185e-10
3.0961e-10
5.01602e-10
8.13538e-10
1.32248e-09
2.14587e-09
3.50303e-09
5.58604e-09
8.80166e-09
1.3637e-08
2.08495e-08
3.09548e-08
4.53497e-08
6.55651e-08
9.39523e-08
1.34977e-07
1.94558e-07
2.81267e-07
4.05281e-07
5.77832e-07
8.13238e-07
1.12411e-06
1.5261e-06
2.0491e-06
2.72668e-06
3.601e-06
4.76088e-06
6.26142e-06
8.15077e-06
1.03684e-05
1.27867e-05
1.4955e-05
1.59299e-05
1.40784e-05
7.85941e-06
4.29194e-06
2.31547e-06
1.23011e-06
6.30675e-07
3.18985e-07
1.56971e-07
7.55804e-08
3.65831e-08
1.7876e-08
8.22863e-09
3.41504e-09
1.27446e-09
4.27426e-10
1.31869e-10
3.71705e-11
9.0312e-12
1.93e-12
3.72455e-13
6.40393e-14
9.25514e-15
1.17866e-15
1.34374e-16
1.39895e-17
1.36259e-18
1.25739e-19
1.11966e-20
9.72678e-22
8.31992e-23
7.0281e-24
5.88913e-25
4.90546e-26
4.06726e-27
3.35946e-28
2.76874e-29
2.2733e-30
1.86181e-31
1.52132e-32
1.2419e-33
1.07522e-34
1.23147e-35
1.85927e-36
3.65484e-37
8.40639e-38
2.03823e-38
4.87552e-39
1.08455e-39
2.02392e-40
2.01545e-41
3.16633e-14
1.20713e-13
2.51908e-13
4.50242e-13
7.49158e-13
1.19771e-12
1.86805e-12
2.86567e-12
4.3438e-12
6.52463e-12
9.73723e-12
1.4497e-11
2.16534e-11
3.26303e-11
4.97933e-11
7.71317e-11
1.21526e-10
1.9441e-10
3.09947e-10
5.02162e-10
8.14354e-10
1.32366e-09
2.14751e-09
3.50519e-09
5.58865e-09
8.80443e-09
1.36392e-08
2.08493e-08
3.09498e-08
4.53357e-08
6.55352e-08
9.3897e-08
1.34881e-07
1.94395e-07
2.80996e-07
4.04846e-07
5.77153e-07
8.12212e-07
1.12261e-06
1.52395e-06
2.04609e-06
2.72252e-06
3.59536e-06
4.75331e-06
6.25148e-06
8.13817e-06
1.03535e-05
1.27709e-05
1.49425e-05
1.59295e-05
1.41056e-05
7.86305e-06
4.29707e-06
2.31964e-06
1.23298e-06
6.32416e-07
3.20008e-07
1.57538e-07
7.58731e-08
3.67245e-08
1.79493e-08
8.26872e-09
3.4348e-09
1.28305e-09
4.30414e-10
1.32888e-10
3.74864e-11
9.11628e-12
1.95031e-12
3.76319e-13
6.47577e-14
9.36666e-15
1.19383e-15
1.3619e-16
1.41848e-17
1.38209e-18
1.27572e-19
1.13616e-20
9.87128e-22
8.444e-23
7.13319e-24
5.97731e-25
4.97895e-26
4.1282e-27
3.40977e-28
2.81016e-29
2.30728e-30
1.88962e-31
1.54403e-32
1.26039e-33
1.08994e-34
1.24535e-35
1.8768e-36
3.68395e-37
8.46687e-38
2.05222e-38
4.90832e-39
1.09179e-39
2.03738e-40
2.02885e-41
3.17165e-14
1.20915e-13
2.5233e-13
4.50997e-13
7.50415e-13
1.19972e-12
1.8712e-12
2.87052e-12
4.35121e-12
6.5359e-12
9.75433e-12
1.45229e-11
2.16928e-11
3.26904e-11
4.98875e-11
7.72759e-11
1.2175e-10
1.94757e-10
3.10471e-10
5.0304e-10
8.15636e-10
1.3255e-09
2.15007e-09
3.50858e-09
5.59284e-09
8.80896e-09
1.36429e-08
2.08497e-08
3.0943e-08
4.53158e-08
6.54917e-08
9.38147e-08
1.34734e-07
1.9415e-07
2.8059e-07
4.0419e-07
5.76126e-07
8.1065e-07
1.1203e-06
1.52064e-06
2.04142e-06
2.71606e-06
3.58659e-06
4.74151e-06
6.23595e-06
8.11845e-06
1.033e-05
1.27457e-05
1.49215e-05
1.59253e-05
1.41385e-05
7.87806e-06
4.30876e-06
2.32761e-06
1.23803e-06
6.35764e-07
3.22024e-07
1.58654e-07
7.645e-08
3.7006e-08
1.80942e-08
8.34467e-09
3.47103e-09
1.29837e-09
4.35691e-10
1.34659e-10
3.8027e-11
9.26081e-12
1.98487e-12
3.82924e-13
6.59849e-14
9.55737e-15
1.21937e-15
1.39217e-16
1.45105e-17
1.41446e-18
1.30605e-19
1.16343e-20
1.01095e-21
8.64822e-23
7.30594e-24
6.12211e-25
5.09952e-26
4.22809e-27
3.49221e-28
2.87798e-29
2.36289e-30
1.9351e-31
1.58115e-32
1.29061e-33
1.11392e-34
1.26767e-35
1.90456e-36
3.72927e-37
8.56e-38
2.07366e-38
4.95847e-39
1.10284e-39
2.05793e-40
2.0493e-41
3.17897e-14
1.21194e-13
2.52912e-13
4.52036e-13
7.52145e-13
1.2025e-12
1.87554e-12
2.87721e-12
4.36142e-12
6.55142e-12
9.77788e-12
1.45587e-11
2.17472e-11
3.27734e-11
5.00173e-11
7.74752e-11
1.2206e-10
1.95239e-10
3.1121e-10
5.04291e-10
8.17501e-10
1.3282e-09
2.15383e-09
3.51357e-09
5.59908e-09
8.81604e-09
1.36493e-08
2.08519e-08
3.09361e-08
4.5292e-08
6.54375e-08
9.37108e-08
1.34549e-07
1.9383e-07
2.80051e-07
4.03315e-07
5.74751e-07
8.08552e-07
1.1172e-06
1.51619e-06
2.03514e-06
2.70742e-06
3.57481e-06
4.72558e-06
6.21485e-06
8.09122e-06
1.02963e-05
1.27063e-05
1.48796e-05
1.5888e-05
1.41156e-05
7.95997e-06
4.35329e-06
2.35079e-06
1.24767e-06
6.47092e-07
3.27439e-07
1.61235e-07
7.7648e-08
3.75423e-08
1.83424e-08
8.46517e-09
3.52601e-09
1.32129e-09
4.43584e-10
1.37278e-10
3.8826e-11
9.47133e-12