/*--------------------------------*- C++ -*----------------------------------*\
  =========                 |
  \\      /  F ield         | OpenFOAM: The Open Source CFD Toolbox
   \\    /   O peration     | Website:  https://openfoam.org
    \\  /    A nd           | Version:  10
     \\/     M anipulation  |
\*---------------------------------------------------------------------------*/
FoamFile
{
    format      ascii;
    class       volScalarField;
    location    "1";
    object      NH2;
}
// * * * * * * * * * * * * * * * * * * * * * * * * * * * * * * * * * * * * * //

dimensions      [0 0 0 0 0 0 0];

internalField   nonuniform List<scalar> 
4000
(
1.74289e-12
6.66115e-12
1.39734e-11
2.51797e-11
4.23768e-11
6.87817e-11
1.09393e-10
1.72047e-10
2.69171e-10
4.2078e-10
6.59961e-10
1.04345e-09
1.67087e-09
2.71804e-09
4.49126e-09
7.49693e-09
1.26118e-08
2.12141e-08
3.48565e-08
5.76944e-08
9.35341e-08
1.52083e-07
2.50981e-07
4.09706e-07
6.63407e-07
1.05268e-06
1.62776e-06
2.45177e-06
3.59334e-06
5.17615e-06
7.32248e-06
1.01909e-05
1.39897e-05
1.89358e-05
2.52511e-05
3.31513e-05
4.27206e-05
5.39271e-05
6.65672e-05
8.03911e-05
9.54266e-05
0.000111458
0.000128312
0.000145883
0.000164127
0.000181817
0.000197092
0.000207386
0.000209017
0.000197113
0.000166746
0.000116857
6.44137e-05
3.52019e-05
1.89837e-05
1.00596e-05
5.21498e-06
2.64188e-06
1.31252e-06
6.57944e-07
3.64595e-07
2.38629e-07
1.58692e-07
9.34286e-08
4.65219e-08
1.90896e-08
6.63955e-09
2.00061e-09
5.00669e-10
1.06583e-10
2.0601e-11
3.32208e-12
4.64928e-13
5.71891e-14
6.26552e-15
6.28862e-16
6.37056e-17
7.1271e-18
1.19913e-18
3.69898e-19
1.66774e-19
8.57545e-20
4.57515e-20
2.46126e-20
1.32127e-20
7.06298e-21
3.75589e-21
1.98588e-21
1.04466e-21
5.4722e-22
2.84851e-22
1.47589e-22
7.61064e-23
3.90206e-23
1.98436e-23
9.95558e-24
4.86949e-24
2.25871e-24
9.20043e-25
2.1283e-25
1.73141e-12
6.61685e-12
1.38794e-11
2.50091e-11
4.20857e-11
6.82893e-11
1.0857e-10
1.70659e-10
2.66785e-10
4.16588e-10
6.52442e-10
1.0298e-09
1.64523e-09
2.67046e-09
4.40467e-09
7.34134e-09
1.23184e-08
2.06754e-08
3.39638e-08
5.63207e-08
9.12984e-08
1.48109e-07
2.4421e-07
3.99381e-07
6.47607e-07
1.03026e-06
1.59658e-06
2.41422e-06
3.54545e-06
5.11731e-06
7.25119e-06
1.00978e-05
1.38809e-05
1.88249e-05
2.51418e-05
3.30519e-05
4.26476e-05
5.39011e-05
6.66112e-05
8.0521e-05
9.56507e-05
0.000111783
0.00012873
0.000146402
0.000164734
0.000182479
0.000197737
0.000207913
0.000209274
0.000196888
0.000165821
0.000115283
6.34531e-05
3.46543e-05
1.86795e-05
9.90055e-06
5.0943e-06
2.57746e-06
1.27965e-06
6.43389e-07
3.58516e-07
2.36129e-07
1.56079e-07
9.08043e-08
4.44839e-08
1.80786e-08
6.21184e-09
1.84708e-09
4.52605e-10
9.50689e-11
1.81336e-11
2.89856e-12
4.0299e-13
4.90756e-14
5.37071e-15
5.39217e-16
5.51326e-17
6.29843e-18
1.11129e-18
3.59686e-19
1.66117e-19
8.63236e-20
4.63426e-20
2.50332e-20
1.35059e-20
7.24688e-21
3.86438e-21
2.04611e-21
1.07623e-21
5.6236e-22
2.92857e-22
1.51615e-22
7.80744e-23
3.99614e-23
2.02839e-23
1.01571e-23
4.95923e-24
2.29686e-24
9.34553e-25
2.16036e-25
1.71906e-12
6.56975e-12
1.37809e-11
2.48322e-11
4.17896e-11
6.78164e-11
1.07791e-10
1.69331e-10
2.64443e-10
4.12318e-10
6.44364e-10
1.01389e-09
1.61584e-09
2.61673e-09
4.30656e-09
7.1653e-09
1.2018e-08
2.01217e-08
3.29996e-08
5.4683e-08
8.86293e-08
1.43943e-07
2.36397e-07
3.90129e-07
6.32152e-07
1.00694e-06
1.56303e-06
2.36893e-06
3.485e-06
5.04025e-06
7.15444e-06
9.98149e-06
1.37501e-05
1.86785e-05
2.50002e-05
3.29292e-05
4.2569e-05
5.38961e-05
6.67107e-05
8.07569e-05
9.60297e-05
0.000112309
0.000129407
0.000147245
0.000165714
0.000183538
0.000198755
0.000208727
0.000209604
0.000196387
0.000164128
0.000112385
6.18554e-05
3.37381e-05
1.81511e-05
9.6061e-06
4.93411e-06
2.49114e-06
1.23555e-06
6.2433e-07
3.50361e-07
2.32579e-07
1.52386e-07
8.72361e-08
4.19198e-08
1.67933e-08
5.6744e-09
1.65986e-09
3.94248e-10
8.17896e-11
1.54404e-11
2.4453e-12
3.38745e-13
4.13232e-14
4.52322e-15
4.55196e-16
4.68833e-17
5.493e-18
1.02281e-18
3.47372e-19
1.64225e-19
8.62185e-20
4.65427e-20
2.52402e-20
1.36459e-20
7.3348e-21
3.91818e-21
2.07821e-21
1.09503e-21
5.7335e-22
2.98439e-22
1.54558e-22
7.95982e-23
4.07304e-23
2.06631e-23
1.03398e-23
5.04462e-24
2.33477e-24
9.4945e-25
2.19409e-25
1.703e-12
6.50788e-12
1.36488e-11
2.45871e-11
4.1359e-11
6.70737e-11
1.06536e-10
1.67226e-10
2.60919e-10
4.06405e-10
6.34447e-10
9.97381e-10
1.58704e-09
2.56525e-09
4.21365e-09
6.99857e-09
1.17214e-08
1.96417e-08
3.22223e-08
5.32864e-08
8.63218e-08
1.40099e-07
2.29961e-07
3.80256e-07
6.17539e-07
9.85502e-07
1.53143e-06
2.32636e-06
3.42862e-06
4.97028e-06
7.0677e-06
9.87613e-06
1.36287e-05
1.85471e-05
2.48767e-05
3.2831e-05
4.25257e-05
5.39416e-05
6.68821e-05
8.10735e-05
9.6521e-05
0.000112996
0.000130292
0.000148313
0.000166937
0.000184845
0.000199987
0.000209697
0.00020998
0.000195728
0.000162057
0.000108928
5.98923e-05
3.26167e-05
1.75133e-05
9.23685e-06
4.73231e-06
2.38141e-06
1.17895e-06
5.98565e-07
3.41432e-07
2.28292e-07
1.47903e-07
8.32573e-08
3.92068e-08
1.53637e-08
5.10447e-09
1.46929e-09
3.44209e-10
7.03953e-11
1.31423e-11
2.06154e-12
2.81123e-13
3.38127e-14
3.65935e-15
3.65247e-16
3.76339e-17
4.54248e-18
9.08168e-19
3.29549e-19
1.60317e-19
8.50943e-20
4.62101e-20
2.51605e-20
1.3643e-20
7.35043e-21
3.93412e-21
2.08947e-21
1.10214e-21
5.77619e-22
3.00972e-22
1.55898e-22
8.02895e-23
4.10825e-23
2.084e-23
1.04271e-23
5.08661e-24
2.35401e-24
9.57248e-25
2.21205e-25
1.68781e-12
6.44981e-12
1.35267e-11
2.43653e-11
4.09806e-11
6.64467e-11
1.0551e-10
1.65551e-10
2.58164e-10
4.01817e-10
6.26673e-10
9.83964e-10
1.56348e-09
2.52334e-09
4.1386e-09
6.86495e-09
1.1485e-08
1.92298e-08
3.15228e-08
5.21305e-08
8.44822e-08
1.37086e-07
2.24647e-07
3.71903e-07
6.04105e-07
9.64508e-07
1.5025e-06
2.28802e-06
3.37962e-06
4.90798e-06
6.99575e-06
9.7954e-06
1.35344e-05
1.84442e-05
2.47862e-05
3.27715e-05
4.25266e-05
5.40375e-05
6.71059e-05
8.1465e-05
9.70856e-05
0.000113748
0.000131242
0.000149452
0.000168228
0.000186204
0.000201231
0.000210597
0.000210179
0.000194734
0.000159374
0.000104972
5.76701e-05
3.13649e-05
1.68122e-05
8.85129e-06
4.5307e-06
2.275e-06
1.12536e-06
5.74568e-07
3.33339e-07
2.23924e-07
1.43352e-07
7.92115e-08
3.65593e-08
1.40595e-08
4.60173e-09
1.30618e-09
3.01771e-10
6.08174e-11
1.12385e-11
1.73451e-12
2.34138e-13
2.7946e-14
3.00941e-15
2.99647e-16
3.10624e-17
3.87635e-18
8.27161e-19
3.14444e-19
1.56048e-19
8.36853e-20
4.56879e-20
2.4959e-20
1.35616e-20
7.32079e-21
3.92538e-21
2.0878e-21
1.10254e-21
5.78357e-22
3.01587e-22
1.56286e-22
8.0509e-23
4.11992e-23
2.08995e-23
1.04565e-23
5.10066e-24
2.3604e-24
9.59822e-25
2.21797e-25
1.67345e-12
6.39489e-12
1.34111e-11
2.41556e-11
4.06235e-11
6.58568e-11
1.04548e-10
1.63988e-10
2.55612e-10
3.97602e-10
6.19601e-10
9.71905e-10
1.54264e-09
2.48698e-09
4.07489e-09
6.75433e-09
1.12951e-08
1.8911e-08
3.10062e-08
5.12379e-08
8.30275e-08
1.34674e-07
2.20201e-07
3.64685e-07
5.92391e-07
9.47847e-07
1.47893e-06
2.2566e-06
3.33784e-06
4.8575e-06
6.93625e-06
9.7241e-06
1.34609e-05
1.83726e-05
2.47305e-05
3.27525e-05
4.25729e-05
5.4182e-05
6.73833e-05
8.18934e-05
9.76922e-05
0.000114553
0.000132216
0.00015059
0.000169497
0.00018752
0.000202421
0.000211432
0.000210267
0.000193599
0.000156612
0.000100982
5.53975e-05
3.00774e-05
1.60895e-05
8.43581e-06
4.30843e-06
2.15604e-06
1.06514e-06
5.47916e-07
3.24455e-07
2.18952e-07
1.38844e-07
7.55523e-08
3.4302e-08
1.29886e-08
4.21403e-09
1.15172e-09
2.63249e-10
5.26306e-11
9.58107e-12
1.46304e-12
1.95843e-13
2.32328e-14
2.49169e-15
2.47613e-16
2.58495e-17
3.34206e-18
7.59663e-19
3.01343e-19
1.51802e-19
8.18306e-20
4.48158e-20
2.45544e-20
1.33907e-20
7.24697e-21
3.89354e-21
2.07383e-21
1.09639e-21
5.7564e-22
3.00397e-22
1.55744e-22
8.02467e-23
4.10741e-23
2.08399e-23
1.04281e-23
5.08733e-24
2.3544e-24
9.57436e-25
2.21254e-25
1.66036e-12
6.34483e-12
1.33059e-11
2.3965e-11
4.02999e-11
6.53241e-11
1.03684e-10
1.62591e-10
2.53344e-10
3.93879e-10
6.13386e-10
9.61361e-10
1.5245e-09
2.45544e-09
4.01975e-09
6.65855e-09
1.11299e-08
1.86305e-08
3.05432e-08
5.04269e-08
8.17261e-08
1.32636e-07
2.1647e-07
3.58485e-07
5.83167e-07
9.34526e-07
1.46048e-06
2.23274e-06
3.30713e-06
4.82071e-06
6.89411e-06
9.67641e-06
1.34116e-05
1.83296e-05
2.47064e-05
3.2767e-05
4.26515e-05
5.43507e-05
6.76708e-05
8.23257e-05
9.82976e-05
0.000115331
0.000133156
0.000151684
0.000170701
0.000188743
0.000203481
0.000212119
0.000210213
0.000192324
0.000153646
9.65e-05
5.29256e-05
2.87183e-05
1.5351e-05
7.99801e-06
4.08636e-06
2.04238e-06
1.00958e-06
5.22702e-07
3.17002e-07
2.14474e-07
1.3459e-07
7.22595e-08
3.23527e-08
1.20952e-08
3.88261e-09
1.04835e-09
2.37499e-10
4.69692e-11
8.48149e-12
1.28401e-12
1.70679e-13
2.01292e-14
2.14962e-15
2.13092e-16
2.23951e-17
2.98145e-18
7.11555e-19
2.9097e-19
1.48216e-19
8.02456e-20
4.40444e-20
2.41612e-20
1.31811e-20
7.13834e-21
3.83849e-21
2.04631e-21
1.08283e-21
5.69027e-22
2.97226e-22
1.54242e-22
7.95619e-23
4.07545e-23
2.06883e-23
1.03557e-23
5.05315e-24
2.3389e-24
9.51203e-25
2.19823e-25
1.64859e-12
6.29984e-12
1.32113e-11
2.37939e-11
4.00096e-11
6.48473e-11
1.02912e-10
1.61349e-10
2.51337e-10
3.90601e-10
6.07948e-10
9.52187e-10
1.50881e-09
2.42831e-09
3.97254e-09
6.57698e-09
1.099e-08
1.8395e-08
3.01581e-08
4.97448e-08
8.06808e-08
1.30902e-07
2.13582e-07
3.54016e-07
5.76287e-07
9.24059e-07
1.4458e-06
2.2134e-06
3.28373e-06
4.79394e-06
6.86414e-06
9.64468e-06
1.33823e-05
1.83095e-05
2.47078e-05
3.28089e-05
4.27559e-05
5.45423e-05
6.79688e-05
8.27485e-05
9.88432e-05
0.000116008
0.000133956
0.000152604
0.000171713
0.000189777
0.000204393
0.000212691
0.000210121
0.000191195
0.000151216
9.21115e-05
5.05384e-05
2.74278e-05
1.46805e-05
7.57917e-06
3.87379e-06
1.93462e-06
9.5686e-07
4.99972e-07
3.08526e-07
2.09481e-07
1.30487e-07
6.91893e-08
3.05282e-08
1.12817e-08
3.58965e-09
9.52019e-10
2.13969e-10
4.20009e-11
7.53808e-12
1.1347e-12
1.49817e-13
1.7564e-14
1.86711e-15
1.84554e-16
1.95293e-17
2.67813e-18
6.69564e-19
2.81335e-19
1.447e-19
7.86386e-20
4.32494e-20
2.3758e-20
1.29756e-20
7.03445e-21
3.78298e-21
2.01838e-21
1.0688e-21
5.61996e-22
2.93718e-22
1.52474e-22
7.86604e-23
4.03012e-23
2.04633e-23
1.02457e-23
5.00063e-24
2.31507e-24
9.41665e-25
2.17642e-25
1.63826e-12
6.26039e-12
1.31285e-11
2.36442e-11
3.9756e-11
6.44318e-11
1.02242e-10
1.60274e-10
2.49609e-10
3.87792e-10
6.03309e-10
9.44399e-10
1.49555e-09
2.40551e-09
3.93317e-09
6.50961e-09
1.08761e-08
1.82068e-08
2.98617e-08
4.92129e-08
7.98159e-08
1.29555e-07
2.11304e-07
3.50238e-07
5.70411e-07
9.15817e-07
1.43478e-06
2.19959e-06
3.26683e-06
4.77446e-06
6.84306e-06
9.62423e-06
1.33668e-05
1.83062e-05
2.4728e-05
3.2869e-05
4.2876e-05
5.47435e-05
6.82696e-05
8.31722e-05
9.94055e-05
0.000116707
0.000134776
0.000153532
0.000172705
0.000190735
0.000205186
0.000213116
0.000209881
0.000189909
0.000148567
8.87044e-05
4.86046e-05
2.6341e-05
1.40677e-05
7.27047e-06
3.70599e-06
1.84605e-06
9.13376e-07
4.81346e-07
3.01213e-07
2.04981e-07
1.26767e-07
6.64664e-08
2.89145e-08
1.05358e-08
3.3135e-09
8.68741e-10
1.93432e-10
3.75304e-11
6.66293e-12
9.94084e-13
1.30333e-13
1.52008e-14
1.61e-15
1.58835e-16
1.69629e-17
2.40634e-18
6.31605e-19
2.72484e-19
1.41421e-19
7.71205e-20
4.24883e-20
2.33668e-20
1.27732e-20
6.93065e-21
3.72949e-21
1.99095e-21
1.0548e-21
5.54872e-22
2.90126e-22
1.50654e-22
7.7741e-23
3.98383e-23
2.02316e-23
1.01311e-23
4.94524e-24
2.28962e-24
9.31368e-25
2.15267e-25
1.62936e-12
6.22641e-12
1.30572e-11
2.35154e-11
3.95384e-11
6.4076e-11
1.0167e-10
1.5936e-10
2.48144e-10
3.8542e-10
5.99405e-10
9.37858e-10
1.48442e-09
2.38632e-09
3.89979e-09
6.45189e-09
1.07766e-08
1.80389e-08
2.95847e-08
4.87221e-08
7.90773e-08
1.28365e-07
2.09444e-07
3.47458e-07
5.6617e-07
9.0959e-07
1.42633e-06
2.18926e-06
3.25433e-06
4.76028e-06
6.82956e-06
9.61327e-06
1.33622e-05
1.83147e-05
2.476e-05
3.29392e-05
4.30028e-05
5.49466e-05
6.85612e-05
8.35628e-05
9.99084e-05
0.000117326
0.000135496
0.000154345
0.00017356
0.000191559
0.000205852
0.000213402
0.000209493
0.000188472
0.000145707
8.54467e-05
4.68131e-05
2.53591e-05
1.35443e-05
6.97496e-06
3.5531e-06
1.7697e-06
8.77216e-07
4.66328e-07
2.95327e-07
2.0119e-07
1.23684e-07
6.45095e-08
2.73049e-08
9.86992e-09
3.07976e-09
8.0122e-10
1.77095e-10
3.41979e-11
6.03049e-12
8.93411e-13
1.16436e-13
1.35202e-14
1.42743e-15
1.40578e-16
1.51347e-17
2.20973e-18
6.02812e-19
2.65246e-19
1.38579e-19
7.57596e-20
4.17917e-20
2.30029e-20
1.25825e-20
6.83165e-21
3.678e-21
1.96433e-21
1.04111e-21
5.47862e-22
2.86545e-22
1.48833e-22
7.68189e-23
3.93735e-23
1.99988e-23
1.00158e-23
4.88949e-24
2.26398e-24
9.20978e-25
2.12871e-25
1.62183e-12
6.19765e-12
1.29968e-11
2.34066e-11
3.93549e-11
6.37767e-11
1.0119e-10
1.58596e-10
2.46926e-10
3.83462e-10
5.96212e-10
9.32566e-10
1.47551e-09
2.37115e-09
3.87337e-09
6.40719e-09
1.07024e-08
1.79176e-08
2.93865e-08
4.83612e-08
7.85192e-08
1.27471e-07
2.08016e-07
3.45155e-07
5.6277e-07
9.04807e-07
1.42006e-06
2.18158e-06
3.2454e-06
4.75076e-06
6.82125e-06
9.60813e-06
1.33636e-05
1.83291e-05
2.47958e-05
3.30081e-05
4.31182e-05
5.51235e-05
6.88143e-05
8.39017e-05
0.000100342
0.000117856
0.000136115
0.000155054
0.000174316
0.000192291
0.000206428
0.000213652
0.000209183
0.000187323
0.000143544
8.26896e-05
4.52934e-05
2.45223e-05
1.30813e-05
6.72736e-06
3.42222e-06
1.70268e-06
8.45048e-07
4.52908e-07
2.9009e-07
1.97789e-07
1.20853e-07
6.24726e-08
2.62219e-08
9.3855e-09
2.90691e-09
7.49786e-10
1.64574e-10
3.16861e-11
5.56128e-12
8.19143e-13
1.06213e-13
1.22885e-14
1.29394e-15
1.27246e-16
1.37967e-17
2.06412e-18
5.80578e-19
2.59315e-19
1.36144e-19
7.45636e-20
4.11692e-20
2.26738e-20
1.24082e-20
6.74002e-21
3.62997e-21
1.93932e-21
1.02818e-21
5.41242e-22
2.83052e-22
1.4706e-22
7.59218e-23
3.89217e-23
1.97727e-23
9.90396e-24
4.83538e-24
2.23909e-24
9.10893e-25
2.10546e-25
1.61554e-12
6.17364e-12
1.29466e-11
2.33161e-11
3.92023e-11
6.35284e-11
1.00793e-10
1.57966e-10
2.45927e-10
3.81863e-10
5.93618e-10
9.28286e-10
1.46834e-09
2.35897e-09
3.85208e-09
6.37139e-09
1.06417e-08
1.78141e-08
2.9217e-08
4.80673e-08
7.80562e-08
1.26768e-07
2.0692e-07
3.43447e-07
5.60182e-07
9.0118e-07
1.41534e-06
2.17604e-06
3.23935e-06
4.74466e-06
6.81681e-06
9.60732e-06
1.33697e-05
1.83474e-05
2.48335e-05
3.30749e-05
4.3225e-05
5.5284e-05
6.90344e-05
8.41872e-05
0.000100694
0.000118266
0.000136555
0.00015578
0.000175031
0.00019295
0.000206944
0.000213888
0.000208952
0.0001864
0.000141791
8.06596e-05
4.41284e-05
2.38654e-05
1.27199e-05
6.53713e-06
3.32202e-06
1.65157e-06
8.20546e-07
4.4288e-07
2.86192e-07
1.9504e-07
1.18484e-07
6.07571e-08
2.53478e-08
9.01085e-09
2.77536e-09
7.11064e-10
1.55122e-10
2.98699e-11
5.22127e-12
7.66914e-13
9.90267e-14
1.14195e-14
1.19937e-15
1.17762e-16
1.28379e-17
1.95766e-18
5.63529e-19
2.54456e-19
1.34062e-19
7.35181e-20
4.0618e-20
2.23795e-20
1.22512e-20
6.65683e-21
3.58612e-21
1.91638e-21
1.01626e-21
5.35104e-22
2.7985e-22
1.45426e-22
7.50917e-23
3.85023e-23
1.95623e-23
9.79964e-24
4.78485e-24
2.21582e-24
9.01459e-25
2.0837e-25
1.61035e-12
6.15384e-12
1.29051e-11
2.32414e-11
3.90767e-11
6.33244e-11
1.00468e-10
1.57451e-10
2.45112e-10
3.80565e-10
5.91521e-10
9.2485e-10
1.46264e-09
2.34943e-09
3.83569e-09
6.34389e-09
1.05943e-08
1.77356e-08
2.90918e-08
4.78418e-08
7.771e-08
1.26229e-07
2.06045e-07
3.42056e-07
5.58063e-07
8.98224e-07
1.41162e-06
2.17185e-06
3.23512e-06
4.74101e-06
6.81546e-06
9.6103e-06
1.338e-05
1.83687e-05
2.48727e-05
3.31403e-05
4.33282e-05
5.54328e-05
6.92374e-05
8.44503e-05
0.000101022
0.000118659
0.000137011
0.000156301
0.000175569
0.000193448
0.000207324
0.000214042
0.000208742
0.000185713
0.000140671
7.84336e-05
4.29593e-05
2.32489e-05
1.23901e-05
6.36743e-06
3.23422e-06
1.60782e-06
7.99913e-07
4.34448e-07
2.82695e-07
1.92585e-07
1.16446e-07
5.9319e-08
2.46318e-08
8.70807e-09
2.66687e-09
6.79427e-10
1.47433e-10
2.84052e-11
4.94131e-12
7.22447e-13
9.29694e-14
1.06916e-14
1.12062e-15
1.09901e-16
1.20452e-17
1.8694e-18
5.49212e-19
2.50295e-19
1.32256e-19
7.26041e-20
4.01335e-20
2.21197e-20
1.21119e-20
6.58273e-21
3.5469e-21
1.89578e-21
1.00551e-21
5.29549e-22
2.76987e-22
1.43959e-22
7.43444e-23
3.81237e-23
1.93719e-23
9.7051e-24
4.73899e-24
2.19468e-24
8.9288e-25
2.06389e-25
1.60612e-12
6.13768e-12
1.28712e-11
2.31805e-11
3.89742e-11
6.31578e-11
1.00202e-10
1.5703e-10
2.44445e-10
3.79496e-10
5.89784e-10
9.21977e-10
1.45782e-09
2.34124e-09
3.82138e-09
6.31896e-09
1.05531e-08
1.76692e-08
2.89899e-08
4.76613e-08
7.74438e-08
1.2581e-07
2.05386e-07
3.41032e-07
5.56573e-07
8.96174e-07
1.4091e-06
2.16913e-06
3.23265e-06
4.73957e-06
6.81728e-06
9.61922e-06
1.33914e-05
1.83898e-05
2.49097e-05
3.32008e-05
4.34205e-05
5.55651e-05
6.94166e-05
8.46818e-05
0.000101311
0.000119009
0.000137422
0.000156761
0.000176046
0.000193893
0.000207663
0.000214169
0.000208518
0.000184982
0.000139334
7.74102e-05
4.23525e-05
2.2895e-05
1.21914e-05
6.2612e-06
3.17766e-06
1.57864e-06
7.86045e-07
4.28779e-07
2.80267e-07
1.90657e-07
1.14777e-07
5.81402e-08
2.40483e-08
8.46063e-09
2.58e-09
6.54218e-10
1.41386e-10
2.72514e-11
4.72558e-12
6.88731e-13
8.83817e-14
1.01402e-14
1.06092e-15
1.03976e-16
1.14462e-17
1.80187e-18
5.37873e-19
2.46858e-19
1.30726e-19
7.18212e-20
3.97157e-20
2.18946e-20
1.19909e-20
6.51807e-21
3.51259e-21
1.8777e-21
9.96067e-22
5.24652e-22
2.74461e-22
1.42664e-22
7.36837e-23
3.77886e-23
1.92033e-23
9.6213e-24
4.69832e-24
2.17592e-24
8.85264e-25
2.04631e-25
1.60272e-12
6.12472e-12
1.28441e-11
2.31317e-11
3.88922e-11
6.30246e-11
9.99898e-11
1.56694e-10
2.43912e-10
3.78643e-10
5.88397e-10
9.19682e-10
1.45396e-09
2.33469e-09
3.80988e-09
6.30033e-09
1.05228e-08
1.76201e-08
2.89118e-08
4.75202e-08
7.72247e-08
1.25476e-07
2.04863e-07
3.40243e-07
5.55425e-07
8.94673e-07
1.4073e-06
2.16725e-06
3.23091e-06
4.73826e-06
6.81685e-06
9.61899e-06
1.3401e-05
1.84095e-05
2.49434e-05
3.32541e-05
4.35001e-05
5.56781e-05
6.95695e-05
8.48799e-05
0.00010156
0.000119304
0.000137758
0.000157129
0.000176427
0.000194247
0.000207931
0.000214267
0.00020833
0.000184378
0.000138257
7.67894e-05
4.1982e-05
2.26776e-05
1.20648e-05
6.19177e-06
3.13958e-06
1.55877e-06
7.76499e-07
4.251e-07
2.78738e-07
1.89241e-07
1.13455e-07
5.71883e-08
2.35778e-08
8.26307e-09
2.51135e-09
6.34205e-10
1.36613e-10
2.63363e-11
4.55618e-12
6.62313e-13
8.47906e-14
9.70923e-15
1.01437e-15
9.9694e-17
1.10103e-17
1.75181e-18
5.29082e-19
2.44063e-19
1.29453e-19
7.11625e-20
3.93623e-20
2.17035e-20
1.18878e-20
6.46287e-21
3.48322e-21
1.86221e-21
9.87953e-22
5.20439e-22
2.72285e-22
1.41546e-22
7.31131e-23
3.74991e-23
1.90575e-23
9.54881e-24
4.66312e-24
2.15968e-24
8.78669e-25
2.03108e-25
1.60007e-12
6.11461e-12
1.28229e-11
2.30936e-11
3.88283e-11
6.2921e-11
9.98249e-11
1.56434e-10
2.435e-10
3.77986e-10
5.87331e-10
9.1793e-10
1.45105e-09
2.32982e-09
3.80143e-09
6.28625e-09
1.0499e-08
1.7581e-08
2.88498e-08
4.74111e-08
7.70681e-08
1.25237e-07
2.04495e-07
3.39675e-07
5.54611e-07
8.93615e-07
1.40606e-06
2.16605e-06
3.23003e-06
4.73815e-06
6.81856e-06
9.62388e-06
1.34105e-05
1.84278e-05
2.49742e-05
3.33027e-05
4.35721e-05
5.57789e-05
6.97037e-05
8.50507e-05
0.000101769
0.000119552
0.000138043
0.000157441
0.00017675
0.000194553
0.000208175
0.000214383
0.000208229
0.000183962
0.000137515
7.62545e-05
4.16788e-05
2.25052e-05
1.19671e-05
6.13956e-06
3.11147e-06
1.5442e-06
7.69696e-07
4.22649e-07
2.77838e-07
1.88301e-07
1.12481e-07
5.64517e-08
2.32105e-08
8.10793e-09
2.457e-09
6.18487e-10
1.32854e-10
2.56256e-11
4.42349e-12
6.41717e-13
8.20043e-14
9.37524e-15
9.78293e-16
9.63812e-17
1.06719e-17
1.71252e-18
5.22043e-19
2.41787e-19
1.28407e-19
7.06193e-20
3.907e-20
2.15451e-20
1.18022e-20
6.41695e-21
3.45876e-21
1.84928e-21
9.81175e-22
5.16915e-22
2.70463e-22
1.4061e-22
7.26349e-23
3.72562e-23
1.89352e-23
9.48794e-24
4.63356e-24
2.14603e-24
8.73129e-25
2.01828e-25
1.59808e-12
6.107e-12
1.2807e-11
2.3065e-11
3.87803e-11
6.28434e-11
9.9702e-11
1.56241e-10
2.43197e-10
3.77508e-10
5.86563e-10
9.16675e-10
1.44897e-09
2.32626e-09
3.79508e-09
6.27538e-09
1.04807e-08
1.75513e-08
2.88037e-08
4.73282e-08
7.69439e-08
1.25049e-07
2.0421e-07
3.39251e-07
5.54009e-07
8.92835e-07
1.40518e-06
2.16529e-06
3.22965e-06
4.73858e-06
6.82066e-06
9.62872e-06
1.34197e-05
1.84438e-05
2.50002e-05
3.33423e-05
4.36298e-05
5.5859e-05
6.98094e-05
8.51843e-05
0.000101933
0.000119744
0.000138261
0.000157683
0.000177
0.000194787
0.000208357
0.000214464
0.000208148
0.000183672
0.000137038
7.58175e-05
4.14336e-05
2.23665e-05
1.18887e-05
6.10147e-06
3.09243e-06
1.53478e-06
7.65455e-07
4.21282e-07
2.77426e-07
1.87743e-07
1.1182e-07
5.5923e-08
2.29429e-08
7.9936e-09
2.41665e-09
6.06631e-10
1.29997e-10
2.50786e-11
4.32094e-12
6.25774e-13
7.98418e-14
9.11651e-15
9.50425e-16
9.38194e-17
1.04107e-17
1.68221e-18
5.16577e-19
2.39999e-19
1.27579e-19
7.01872e-20
3.88369e-20
2.14185e-20
1.17336e-20
6.38015e-21
3.43913e-21
1.8389e-21
9.7573e-22
5.14084e-22
2.68999e-22
1.39857e-22
7.22502e-23
3.70608e-23
1.88367e-23
9.43895e-24
4.60976e-24
2.13505e-24
8.68668e-25
2.00798e-25
1.59667e-12
6.10162e-12
1.27958e-11
2.3045e-11
3.87468e-11
6.27895e-11
9.9617e-11
1.56108e-10
2.42988e-10
3.77172e-10
5.86012e-10
9.15749e-10
1.44738e-09
2.32357e-09
3.79039e-09
6.26775e-09
1.04682e-08
1.75312e-08
2.87723e-08
4.7272e-08
7.6861e-08
1.24924e-07
2.0402e-07
3.38966e-07
5.53612e-07
8.92335e-07
1.40464e-06
2.16487e-06
3.22957e-06
4.73917e-06
6.82263e-06
9.63304e-06
1.34279e-05
1.84564e-05
2.502e-05
3.3372e-05
4.36728e-05
5.59181e-05
6.98871e-05
8.52822e-05
0.000102052
0.000119885
0.000138421
0.000157859
0.000177184
0.000194965
0.000208504
0.000214539
0.000208096
0.000183428
0.0001366
7.55238e-05
4.12595e-05
2.22539e-05
1.17962e-05
6.11436e-06
3.0947e-06
1.53427e-06
7.6482e-07
4.21223e-07
2.77488e-07
1.87485e-07
1.114e-07
5.55601e-08
2.27544e-08
7.91194e-09
2.38627e-09
5.97756e-10
1.27882e-10
2.46759e-11
4.24636e-12
6.14202e-13
7.82789e-14
8.92968e-15
9.30296e-16
9.1962e-17
1.02215e-17
1.66028e-18
5.12636e-19
2.38715e-19
1.26984e-19
6.98767e-20
3.86689e-20
2.13269e-20
1.16839e-20
6.35333e-21
3.42476e-21
1.83126e-21
9.717e-22
5.11976e-22
2.67904e-22
1.39292e-22
7.19608e-23
3.69136e-23
1.87625e-23
9.40203e-24
4.59182e-24
2.12677e-24
8.65306e-25
2.00021e-25
1.59576e-12
6.09818e-12
1.27886e-11
2.3032e-11
3.87251e-11
6.27542e-11
9.95605e-11
1.56018e-10
2.42844e-10
3.7694e-10
5.85635e-10
9.15131e-10
1.44636e-09
2.32188e-09
3.78743e-09
6.26284e-09
1.04602e-08
1.75185e-08
2.87529e-08
4.72372e-08
7.681e-08
1.24848e-07
2.03903e-07
3.38792e-07
5.53371e-07
8.92039e-07
1.40434e-06
2.16467e-06
3.22967e-06
4.73967e-06
6.824e-06
9.63585e-06
1.34329e-05
1.84647e-05
2.5033e-05
3.33915e-05
4.37008e-05
5.59564e-05
6.99371e-05
8.53449e-05
0.000102128
0.000119975
0.000138523
0.00015797
0.0001773
0.000195076
0.000208594
0.000214586
0.000208066
0.000183292
0.000136362
7.53352e-05
4.11494e-05
2.21893e-05
1.17589e-05
6.09535e-06
3.08493e-06
1.52935e-06
7.62533e-07
4.20391e-07
2.77152e-07
1.87136e-07
1.11051e-07
5.52976e-08
2.2624e-08
7.85652e-09
2.36684e-09
5.92035e-10
1.26515e-10
2.44159e-11
4.19797e-12
6.06703e-13
7.7265e-14
8.80847e-15
9.17229e-16
9.07549e-17
1.00987e-17
1.64603e-18
5.10044e-19
2.37859e-19
1.26587e-19
6.96695e-20
3.85573e-20
2.12665e-20
1.16512e-20
6.33578e-21
3.4154e-21
1.8263e-21
9.69098e-22
5.10619e-22
2.67199e-22
1.38928e-22
7.17731e-23
3.68176e-23
1.87138e-23
9.37767e-24
4.57994e-24
2.12127e-24
8.63069e-25
1.99504e-25
1.59531e-12
6.09646e-12
1.2785e-11
2.30255e-11
3.87142e-11
6.27365e-11
9.95324e-11
1.55974e-10
2.42775e-10
3.76831e-10
5.85458e-10
9.14841e-10
1.44588e-09
2.32107e-09
3.78602e-09
6.26052e-09
1.04564e-08
1.75124e-08
2.87436e-08
4.72204e-08
7.67852e-08
1.24811e-07
2.03846e-07
3.38708e-07
5.53256e-07
8.91899e-07
1.40421e-06
2.16459e-06
3.22972e-06
4.73993e-06
6.82463e-06
9.63696e-06
1.34344e-05
1.84685e-05
2.50393e-05
3.3401e-05
4.37144e-05
5.59749e-05
6.99612e-05
8.53748e-05
0.000102164
0.000120016
0.000138569
0.000158019
0.000177348
0.000195118
0.000208625
0.000214598
0.00020806
0.00018328
0.000136368
7.52347e-05
4.10833e-05
2.21552e-05
1.17527e-05
6.06018e-06
3.06817e-06
1.52154e-06
7.59108e-07
4.19128e-07
2.76758e-07
1.86909e-07
1.10849e-07
5.51488e-08
2.25511e-08
7.8263e-09
2.35642e-09
5.89011e-10
1.25801e-10
2.42792e-11
4.17276e-12
6.02822e-13
7.67436e-14
8.74649e-15
9.10572e-16
9.01426e-17
1.0036e-17
1.63866e-18
5.08665e-19
2.3739e-19
1.26366e-19
6.95536e-20
3.84948e-20
2.12326e-20
1.16329e-20
6.32599e-21
3.4102e-21
1.82357e-21
9.67668e-22
5.09879e-22
2.66818e-22
1.38733e-22
7.16744e-23
3.67678e-23
1.86888e-23
9.36526e-24
4.57393e-24
2.1185e-24
8.61943e-25
1.99243e-25
1.5953e-12
6.09642e-12
1.27849e-11
2.30254e-11
3.8714e-11
6.27362e-11
9.95319e-11
1.55973e-10
2.42774e-10
3.7683e-10
5.85458e-10
9.14841e-10
1.44588e-09
2.32107e-09
3.78603e-09
6.26053e-09
1.04564e-08
1.75125e-08
2.87437e-08
4.72205e-08
7.67854e-08
1.24811e-07
2.03847e-07
3.38709e-07
5.53258e-07
8.91903e-07
1.40421e-06
2.16461e-06
3.22975e-06
4.73994e-06
6.82458e-06
9.63684e-06
1.34343e-05
1.84683e-05
2.50391e-05
3.34007e-05
4.3714e-05
5.59744e-05
6.99606e-05
8.53741e-05
0.000102164
0.000120016
0.00013857
0.000158021
0.000177353
0.000195127
0.000208642
0.000214632
0.000208123
0.000183405
0.000136654
7.4852e-05
4.09276e-05
2.20982e-05
1.17455e-05
6.02587e-06
3.05244e-06
1.5145e-06
7.56046e-07
4.17808e-07
2.76132e-07
1.86592e-07
1.10701e-07
5.50877e-08
2.25296e-08
7.81954e-09
2.35453e-09
5.88551e-10
1.25705e-10
2.42607e-11
4.16961e-12
6.0237e-13
7.66862e-14
8.73996e-15
9.09894e-16
9.00804e-17
1.00301e-17
1.63805e-18
5.08579e-19
2.37366e-19
1.26354e-19
6.95471e-20
3.84911e-20
2.12305e-20
1.16318e-20
6.3254e-21
3.40989e-21
1.82341e-21
9.67587e-22
5.09839e-22
2.66799e-22
1.38724e-22
7.16701e-23
3.67658e-23
1.86879e-23
9.36487e-24
4.57376e-24
2.11843e-24
8.61916e-25
1.99237e-25
1.59574e-12
6.09808e-12
1.27884e-11
2.30316e-11
3.87244e-11
6.2753e-11
9.95586e-11
1.56015e-10
2.4284e-10
3.76936e-10
5.8563e-10
9.15126e-10
1.44636e-09
2.32188e-09
3.78743e-09
6.26286e-09
1.04603e-08
1.75186e-08
2.87531e-08
4.72374e-08
7.68103e-08
1.24848e-07
2.03904e-07
3.38794e-07
5.53375e-07
8.92045e-07
1.40435e-06
2.16466e-06
3.22959e-06
4.7396e-06
6.82384e-06
9.63544e-06
1.3432e-05
1.84641e-05
2.50324e-05
3.33906e-05
4.36994e-05
5.59545e-05
6.99347e-05
8.53418e-05
0.000102125
0.000119971
0.000138519
0.000157965
0.000177293
0.000195067
0.000208584
0.000214576
0.000208062
0.0001833
0.000136382
7.53058e-05
4.11211e-05
2.21832e-05
1.17839e-05
6.04078e-06
3.05833e-06
1.51682e-06
7.56876e-07
4.17978e-07
2.7614e-07
1.86673e-07
1.10829e-07
5.51983e-08
2.25864e-08
7.84409e-09
2.36321e-09
5.9112e-10
1.26323e-10
2.43777e-11
4.19142e-12
6.0575e-13
7.71428e-14
8.7947e-15
9.15809e-16
9.0625e-17
1.00859e-17
1.64464e-18
5.09812e-19
2.37781e-19
1.26548e-19
6.96484e-20
3.85457e-20
2.12601e-20
1.16478e-20
6.33399e-21
3.41447e-21
1.82583e-21
9.68862e-22
5.10504e-22
2.67144e-22
1.38902e-22
7.17613e-23
3.68123e-23
1.87114e-23
9.37662e-24
4.57949e-24
2.12108e-24
8.62996e-25
1.99487e-25
1.59665e-12
6.10155e-12
1.27956e-11
2.30446e-11
3.87462e-11
6.27883e-11
9.96146e-11
1.56103e-10
2.4298e-10
3.77158e-10
5.85992e-10
9.15724e-10
1.44736e-09
2.32357e-09
3.79042e-09
6.26783e-09
1.04684e-08
1.75316e-08
2.87731e-08
4.72731e-08
7.68629e-08
1.24928e-07
2.04025e-07
3.38974e-07
5.53624e-07
8.92353e-07
1.40467e-06
2.16489e-06
3.22957e-06
4.73912e-06
6.82246e-06
9.63262e-06
1.3427e-05
1.84556e-05
2.50189e-05
3.33703e-05
4.36703e-05
5.59146e-05
6.98824e-05
8.52763e-05
0.000102045
0.000119878
0.000138414
0.00015785
0.000177175
0.000194957
0.000208499
0.000214545
0.000208129
0.00018352
0.000136807
7.5298e-05
4.1146e-05
2.22094e-05
1.18037e-05
6.05331e-06
3.06588e-06
1.521e-06
7.58896e-07
4.18681e-07
2.76391e-07
1.86974e-07
1.11157e-07
5.5452e-08
2.27134e-08
7.89818e-09
2.38218e-09
5.96716e-10
1.27658e-10
2.46319e-11
4.23867e-12
6.13083e-13
7.81402e-14
8.91401e-15
9.28634e-16
9.18091e-17
1.02069e-17
1.65881e-18
5.1243e-19
2.38658e-19
1.26959e-19
6.9863e-20
3.86615e-20
2.1323e-20
1.16818e-20
6.35226e-21
3.42421e-21
1.83099e-21
9.71566e-22
5.11911e-22
2.67872e-22
1.39276e-22
7.19526e-23
3.69095e-23
1.87604e-23
9.40098e-24
4.59132e-24
2.12654e-24
8.65214e-25
2e-25
1.59807e-12
6.10698e-12
1.2807e-11
2.3065e-11
3.87803e-11
6.28435e-11
9.97022e-11
1.56241e-10
2.43197e-10
3.77506e-10
5.86555e-10
9.16653e-10
1.44891e-09
2.32618e-09
3.79499e-09
6.27542e-09
1.04811e-08
1.7552e-08
2.88046e-08
4.73297e-08
7.69462e-08
1.25053e-07
2.04216e-07
3.39259e-07
5.54024e-07
8.92856e-07
1.40521e-06
2.16532e-06
3.22967e-06
4.73856e-06
6.82056e-06
9.62847e-06
1.34192e-05
1.84429e-05
2.49989e-05
3.334e-05
4.36264e-05
5.5854e-05
6.98027e-05
8.51757e-05
0.000101922
0.000119732
0.000138249
0.00015767
0.000176989
0.000194782
0.000208366
0.000214496
0.000208226
0.000183836
0.000137387
7.53943e-05
4.12312e-05
2.22695e-05
1.18422e-05
6.07953e-06
3.08177e-06
1.5297e-06
7.6316e-07
4.20393e-07
2.77185e-07
1.87685e-07
1.11783e-07
5.58886e-08
2.29234e-08
7.98591e-09
2.4141e-09
6.05931e-10
1.29857e-10
2.50502e-11
4.31636e-12
6.25158e-13
7.97579e-14
9.10588e-15
9.4926e-16
9.37108e-17
1.03999e-17
1.6811e-18
5.16447e-19
2.3998e-19
1.27574e-19
7.0185e-20
3.88355e-20
2.14176e-20
1.17331e-20
6.37983e-21
3.43893e-21
1.83878e-21
9.75654e-22
5.14038e-22
2.68972e-22
1.39842e-22
7.22417e-23
3.70563e-23
1.88344e-23
9.43776e-24
4.60918e-24
2.13478e-24
8.6856e-25
2.00773e-25
1.60007e-12
6.11458e-12
1.28229e-11
2.30936e-11
3.88283e-11
6.29211e-11
9.98254e-11
1.56435e-10
2.43504e-10
3.77995e-10
5.87348e-10
9.17959e-10
1.45109e-09
2.32985e-09
3.80142e-09
6.2861e-09
1.04988e-08
1.75809e-08
2.885e-08
4.74115e-08
7.70696e-08
1.2524e-07
2.04501e-07
3.39684e-07
5.54625e-07
8.93636e-07
1.40608e-06
2.16608e-06
3.23006e-06
4.73815e-06
6.81848e-06
9.62365e-06
1.341e-05
1.84269e-05
2.49728e-05
3.33001e-05
4.3568e-05
5.57729e-05
6.96955e-05
8.50401e-05
0.000101756
0.000119538
0.000138026
0.000157424
0.000176733
0.000194535
0.000208157
0.000214367
0.00020822
0.000183979
0.000137575
7.61895e-05
4.16285e-05
2.24615e-05
1.19128e-05
6.17433e-06
3.12565e-06
1.54991e-06
7.71984e-07
4.23655e-07
2.78382e-07
1.8859e-07
1.12589e-07
5.64697e-08
2.32073e-08
8.10364e-09
2.45348e-09
6.17495e-10