/*--------------------------------*- C++ -*----------------------------------*\
  =========                 |
  \\      /  F ield         | OpenFOAM: The Open Source CFD Toolbox
   \\    /   O peration     | Website:  https://openfoam.org
    \\  /    A nd           | Version:  10
     \\/     M anipulation  |
\*---------------------------------------------------------------------------*/
FoamFile
{
    format      ascii;
    class       volScalarField;
    location    "1";
    object      NH2OH;
}
// * * * * * * * * * * * * * * * * * * * * * * * * * * * * * * * * * * * * * //

dimensions      [0 0 0 0 0 0 0];

internalField   nonuniform List<scalar> 
4000
(
1.70035e-12
6.4821e-12
1.35227e-11
2.41471e-11
4.00995e-11
6.38771e-11
9.90091e-11
1.50343e-10
2.24276e-10
3.28856e-10
4.73824e-10
6.7095e-10
9.34449e-10
1.28081e-09
1.72769e-09
2.28947e-09
2.9849e-09
3.82534e-09
4.77612e-09
5.90329e-09
7.12956e-09
8.48073e-09
9.97717e-09
1.15287e-08
1.31536e-08
1.48371e-08
1.65757e-08
1.83733e-08
2.02003e-08
2.21103e-08
2.41192e-08
2.62735e-08
2.86486e-08
3.12899e-08
3.40741e-08
3.68941e-08
3.95259e-08
4.16773e-08
4.30841e-08
4.35712e-08
4.32058e-08
4.23114e-08
4.13155e-08
4.04904e-08
3.98871e-08
3.93938e-08
3.87739e-08
3.77147e-08
3.58195e-08
3.25947e-08
2.74391e-08
1.98428e-08
1.0958e-08
6.01139e-09
3.27544e-09
1.79208e-09
1.0296e-09
7.06967e-10
7.0289e-10
1.03168e-09
1.81939e-09
2.89873e-09
3.49479e-09
3.08086e-09
1.80314e-09
1.04267e-09
7.3317e-10
5.72001e-10
4.55474e-10
3.59079e-10
2.7866e-10
2.07201e-10
1.48505e-10
1.02408e-10
6.79992e-11
4.36032e-11
2.70969e-11
1.63914e-11
9.69145e-12
5.61842e-12
3.2042e-12
1.80002e-12
9.98026e-13
5.47303e-13
2.96798e-13
1.59589e-13
8.5169e-14
4.51353e-14
2.37804e-14
1.24713e-14
6.49644e-15
3.36766e-15
1.73722e-15
8.90925e-16
4.53158e-16
2.27381e-16
1.11227e-16
5.15956e-17
2.10173e-17
4.86192e-18
1.69322e-12
6.45476e-12
1.34658e-11
2.40477e-11
3.99398e-11
6.36284e-11
9.8629e-11
1.49764e-10
2.23385e-10
3.27465e-10
4.71622e-10
6.6746e-10
9.28882e-10
1.2723e-09
1.71541e-09
2.2726e-09
2.96084e-09
3.79163e-09
4.7335e-09
5.85597e-09
7.07568e-09
8.41458e-09
9.90077e-09
1.14525e-08
1.30769e-08
1.47631e-08
1.65034e-08
1.83127e-08
2.01463e-08
2.20641e-08
2.40799e-08
2.62358e-08
2.86157e-08
3.12686e-08
3.40696e-08
3.6913e-08
3.95775e-08
4.17698e-08
4.32172e-08
4.37392e-08
4.34001e-08
4.25196e-08
4.15244e-08
4.07009e-08
4.00965e-08
3.95975e-08
3.89633e-08
3.78749e-08
3.59345e-08
3.26406e-08
2.73888e-08
1.96908e-08
1.08564e-08
5.95185e-09
3.24254e-09
1.77737e-09
1.02101e-09
7.12296e-10
7.25404e-10
1.08296e-09
1.92263e-09
3.01884e-09
3.56659e-09
3.07803e-09
1.73529e-09
1.02388e-09
7.29343e-10
5.72235e-10
4.56263e-10
3.59533e-10
2.78812e-10
2.07114e-10
1.4837e-10
1.02338e-10
6.80265e-11
4.3704e-11
2.72234e-11
1.65123e-11
9.79054e-12
5.6917e-12
3.2551e-12
1.83363e-12
1.01988e-12
5.60567e-13
3.05306e-13
1.64669e-13
8.80623e-14
4.67016e-14
2.45853e-14
1.2851e-14
6.69428e-15
3.46605e-15
1.78486e-15
9.13517e-16
4.63658e-16
2.32158e-16
1.13343e-16
5.24916e-17
2.1357e-17
4.93688e-18
1.68762e-12
6.43385e-12
1.34238e-11
2.39762e-11
3.98271e-11
6.34594e-11
9.83716e-11
1.49355e-10
2.22711e-10
3.26319e-10
4.69622e-10
6.63894e-10
9.23092e-10
1.2634e-09
1.70226e-09
2.25416e-09
2.93719e-09
3.75919e-09
4.69084e-09
5.80232e-09
7.01207e-09
8.34677e-09
9.8141e-09
1.13905e-08
1.30086e-08
1.4693e-08
1.64329e-08
1.82469e-08
2.00847e-08
2.20097e-08
2.40325e-08
2.61949e-08
2.85842e-08
3.12498e-08
3.40749e-08
3.69521e-08
3.96622e-08
4.19106e-08
4.34175e-08
4.40006e-08
4.36993e-08
4.28344e-08
4.18466e-08
4.10312e-08
4.04266e-08
3.99169e-08
3.92582e-08
3.8122e-08
3.60984e-08
3.2684e-08
2.72664e-08
1.93811e-08
1.06842e-08
5.8501e-09
3.18362e-09
1.74712e-09
1.01128e-09
7.20629e-10
7.57108e-10
1.15373e-09
2.06578e-09
3.17441e-09
3.65452e-09
3.07749e-09
1.67967e-09
1.01321e-09
7.32015e-10
5.77422e-10
4.60443e-10
3.62096e-10
2.80105e-10
2.07545e-10
1.48425e-10
1.02291e-10
6.7992e-11
4.37114e-11
2.72625e-11
1.6564e-11
9.8402e-12
5.73143e-12
3.28529e-12
1.85455e-12
1.03328e-12
5.68969e-13
3.09999e-13
1.67291e-13
8.95465e-14
4.75418e-14
2.50598e-14
1.31217e-14
6.82911e-15
3.536e-15
1.82061e-15
9.31373e-16
4.72388e-16
2.36333e-16
1.15283e-16
5.33491e-17
2.16931e-17
5.01286e-18
1.67873e-12
6.39983e-12
1.33521e-11
2.38457e-11
3.96045e-11
6.30908e-11
9.77754e-11
1.48408e-10
2.21228e-10
3.24033e-10
4.66174e-10
6.5888e-10
9.15818e-10
1.25298e-09
1.68766e-09
2.23428e-09
2.91077e-09
3.72789e-09
4.65447e-09
5.75552e-09
6.95663e-09
8.28267e-09
9.74158e-09
1.13197e-08
1.29416e-08
1.4629e-08
1.63691e-08
1.81883e-08
2.00312e-08
2.19651e-08
2.39966e-08
2.61666e-08
2.85659e-08
3.12457e-08
3.40983e-08
3.70138e-08
3.97752e-08
4.2087e-08
4.36679e-08
4.43007e-08
4.40435e-08
4.32086e-08
4.22405e-08
4.14293e-08
4.08224e-08
4.02981e-08
3.96051e-08
3.84083e-08
3.62858e-08
3.27219e-08
2.71071e-08
1.89928e-08
1.04582e-08
5.71848e-09
3.10911e-09
1.70784e-09
9.9937e-10
7.33023e-10
8.01603e-10
1.25268e-09
2.24307e-09
3.36374e-09
3.75796e-09
3.08357e-09
1.64928e-09
1.01598e-09
7.42811e-10
5.87516e-10
4.67163e-10
3.65709e-10
2.81557e-10
2.07676e-10
1.47915e-10
1.0157e-10
6.73359e-11
4.323e-11
2.69549e-11
1.63909e-11
9.75574e-12
5.69877e-12
3.27442e-12
1.85149e-12
1.03347e-12
5.70067e-13
3.11052e-13
1.68074e-13
9.00648e-14
4.785e-14
2.52366e-14
1.32217e-14
6.88629e-15
3.56536e-15
1.8354e-15
9.38758e-16
4.76037e-16
2.3811e-16
1.1613e-16
5.37343e-17
2.18487e-17
5.04866e-18
1.6694e-12
6.36423e-12
1.32777e-11
2.37123e-11
3.93812e-11
6.27309e-11
9.72088e-11
1.47531e-10
2.19888e-10
3.22008e-10
4.63149e-10
6.54426e-10
9.09385e-10
1.24391e-09
1.67517e-09
2.21765e-09
2.88917e-09
3.70055e-09
4.62047e-09
5.71487e-09
6.91167e-09
8.23347e-09
9.68381e-09
1.12628e-08
1.28831e-08
1.45682e-08
1.63121e-08
1.81376e-08
1.99875e-08
2.19294e-08
2.39715e-08
2.61508e-08
2.85606e-08
3.12543e-08
3.41367e-08
3.70919e-08
3.99048e-08
4.22829e-08
4.39246e-08
4.46212e-08
4.44006e-08
4.35872e-08
4.26364e-08
4.18318e-08
4.12219e-08
4.06801e-08
3.99485e-08
3.86763e-08
3.64377e-08
3.26996e-08
2.68427e-08
1.85096e-08
1.01823e-08
5.56102e-09
3.0215e-09
1.66339e-09
9.85168e-10
7.43303e-10
8.42827e-10
1.34562e-09
2.40075e-09
3.51951e-09
3.83358e-09
3.08166e-09
1.63611e-09
1.02711e-09
7.57383e-10
5.98688e-10
4.74029e-10
3.68998e-10
2.82562e-10
2.07363e-10
1.47032e-10
1.006e-10
6.65192e-11
4.26378e-11
2.65626e-11
1.61482e-11
9.61275e-12
5.61743e-12
3.23271e-12
1.83323e-12
1.02553e-12
5.66633e-13
3.09483e-13
1.6743e-13
8.98369e-14
4.77786e-14
2.52206e-14
1.32223e-14
6.89059e-15
3.56863e-15
1.83729e-15
9.3973e-16
4.76501e-16
2.38322e-16
1.16223e-16
5.37741e-17
2.18642e-17
5.05219e-18
1.65952e-12
6.32648e-12
1.31986e-11
2.357e-11
3.91427e-11
6.23465e-11
9.66054e-11
1.46602e-10
2.18483e-10
3.19912e-10
4.60065e-10
6.49963e-10
9.03073e-10
1.23521e-09
1.66354e-09
2.20264e-09
2.8704e-09
3.67797e-09
4.59436e-09
5.68277e-09
6.87598e-09
8.19465e-09
9.6362e-09
1.12141e-08
1.28318e-08
1.45204e-08
1.62675e-08
1.8099e-08
1.99543e-08
2.19056e-08
2.39577e-08
2.61458e-08
2.85657e-08
3.12724e-08
3.41855e-08
3.71813e-08
4.00461e-08
4.24832e-08
4.41873e-08
4.49294e-08
4.47468e-08
4.39612e-08
4.30179e-08
4.22143e-08
4.15978e-08
4.1036e-08
4.02649e-08
3.89185e-08
3.65536e-08
3.26358e-08
2.65405e-08
1.79775e-08
9.87504e-09
5.38558e-09
2.92436e-09
1.61207e-09
9.68164e-10
7.5459e-10
8.89498e-10
1.44926e-09
2.56445e-09
3.66928e-09
3.8951e-09
3.07638e-09
1.6346e-09
1.04195e-09
7.73293e-10
6.07319e-10
4.78594e-10
3.7035e-10
2.82113e-10
2.0593e-10
1.45373e-10
9.91113e-11
6.53542e-11
4.18132e-11
2.60181e-11
1.58089e-11
9.41085e-12
5.50198e-12
3.16554e-12
1.79556e-12
1.00552e-12
5.56645e-13
3.05025e-13
1.65398e-13
8.89074e-14
4.73454e-14
2.50173e-14
1.31263e-14
6.84525e-15
3.54659e-15
1.82611e-15
9.34166e-16
4.73761e-16
2.36985e-16
1.15585e-16
5.34835e-17
2.17475e-17
5.02547e-18
1.64982e-12
6.28947e-12
1.31211e-11
2.34311e-11
3.89106e-11
6.19745e-11
9.60251e-11
1.45716e-10
2.17153e-10
3.17946e-10
4.57197e-10
6.45851e-10
8.97307e-10
1.22734e-09
1.65307e-09
2.1892e-09
2.85364e-09
3.6577e-09
4.57048e-09
5.65269e-09
6.84243e-09
8.16028e-09
9.59486e-09
1.11708e-08
1.27908e-08
1.44826e-08
1.62337e-08
1.80717e-08
1.99332e-08
2.1893e-08
2.39543e-08
2.6151e-08
2.8581e-08
3.1301e-08
3.42411e-08
3.72721e-08
4.01822e-08
4.26711e-08
4.44224e-08
4.52074e-08
4.50611e-08
4.42934e-08
4.336e-08
4.25583e-08
4.19341e-08
4.13496e-08
4.05346e-08
3.91158e-08
3.66115e-08
3.25153e-08
2.61642e-08
1.7309e-08
9.50463e-09
5.18196e-09
2.81588e-09
1.55122e-09
9.46823e-10
7.62401e-10
9.31525e-10
1.54644e-09
2.69148e-09
3.78331e-09
3.94084e-09
3.06776e-09
1.63618e-09
1.05406e-09
7.84164e-10
6.12847e-10
4.80246e-10
3.69592e-10
2.80143e-10
2.03529e-10
1.4314e-10
9.72732e-11
6.39832e-11
4.08701e-11
2.54072e-11
1.54327e-11
9.18844e-12
5.37519e-12
3.0949e-12
1.75699e-12
9.84719e-13
5.45436e-13
2.98861e-13
1.62128e-13
8.72154e-14
4.64841e-14
2.45853e-14
1.29121e-14
6.74072e-15
3.49634e-15
1.80294e-15
9.23247e-16
4.68543e-16
2.34482e-16
1.14397e-16
5.29436e-17
2.15301e-17
4.97547e-18
1.64062e-12
6.25436e-12
1.30477e-11
2.32995e-11
3.86912e-11
6.16235e-11
9.54793e-11
1.44886e-10
2.15914e-10
3.16124e-10
4.54557e-10
6.42093e-10
8.9208e-10
1.22025e-09
1.64373e-09
2.1773e-09
2.83891e-09
3.64003e-09
4.54986e-09
5.62626e-09
6.81442e-09
8.12942e-09
9.5613e-09
1.11391e-08
1.2761e-08
1.44544e-08
1.62088e-08
1.80522e-08
1.99205e-08
2.18885e-08
2.39584e-08
2.61639e-08
2.86043e-08
3.13375e-08
3.4302e-08
3.73661e-08
4.03131e-08
4.28444e-08
4.46373e-08
4.54557e-08
4.53228e-08
4.45614e-08
4.36307e-08
4.28283e-08
4.21974e-08
4.15953e-08
4.07421e-08
3.92544e-08
3.66435e-08
3.23864e-08
2.58246e-08
1.65865e-08
9.11119e-09
4.96992e-09
2.70792e-09
1.48775e-09
9.23656e-10
7.6834e-10
9.70106e-10
1.63373e-09
2.82051e-09
3.88726e-09
3.96574e-09
3.04106e-09
1.62716e-09
1.05601e-09
7.86295e-10
6.11517e-10
4.77193e-10
3.65776e-10
2.76335e-10
2.00088e-10
1.40211e-10
9.50001e-11
6.23618e-11
3.97906e-11
2.47244e-11
1.5019e-11
8.94644e-12
5.23795e-12
3.01866e-12
1.71547e-12
9.62479e-13
5.33689e-13
2.92731e-13
1.58976e-13
8.55355e-14
4.56312e-14
2.41538e-14
1.26943e-14
6.6313e-15
3.44091e-15
1.7745e-15
9.08887e-16
4.61392e-16
2.30977e-16
1.12723e-16
5.21833e-17
2.12256e-17
4.9058e-18
1.63221e-12
6.22228e-12
1.29807e-11
2.31796e-11
3.84916e-11
6.13051e-11
9.49857e-11
1.44138e-10
2.14802e-10
3.14498e-10
4.52214e-10
6.38776e-10
8.87491e-10
1.21407e-09
1.63563e-09
2.16706e-09
2.82637e-09
3.62529e-09
4.53351e-09
5.60531e-09
6.79076e-09
8.10526e-09
9.53556e-09
1.11131e-08
1.27358e-08
1.44325e-08
1.61912e-08
1.80404e-08
1.99147e-08
2.189e-08
2.39682e-08
2.61823e-08
2.86323e-08
3.13782e-08
3.43652e-08
3.74558e-08
4.04344e-08
4.30009e-08
4.48287e-08
4.56778e-08
4.55665e-08
4.4815e-08
4.38873e-08
4.30811e-08
4.24372e-08
4.1805e-08
4.09042e-08
3.93422e-08
3.66267e-08
3.22033e-08
2.54125e-08
1.59642e-08
8.75758e-09
4.77218e-09
2.59875e-09
1.43692e-09
9.04057e-10
7.73591e-10
1.00381e-09
1.70932e-09
2.92478e-09
3.94766e-09
3.93001e-09
2.88337e-09
1.56041e-09
1.02595e-09
7.68959e-10
5.98845e-10
4.6681e-10
3.56782e-10
2.68988e-10
1.9455e-10
1.36186e-10
9.22273e-11
6.05358e-11
3.86398e-11
2.40238e-11
1.46054e-11
8.70851e-12
5.10412e-12
2.94468e-12
1.67521e-12
9.40871e-13
5.22228e-13
2.86714e-13
1.55862e-13
8.39262e-14
4.48048e-14
2.37318e-14
1.24797e-14
6.52288e-15
3.38602e-15
1.74676e-15
8.94916e-16
4.54397e-16
2.27515e-16
1.11049e-16
5.14139e-17
2.09141e-17
4.83395e-18
1.6247e-12
6.19366e-12
1.2921e-11
2.30729e-11
3.83142e-11
6.10225e-11
9.45488e-11
1.43478e-10
2.13825e-10
3.13075e-10
4.50173e-10
6.35902e-10
8.8353e-10
1.20874e-09
1.62864e-09
2.15819e-09
2.81538e-09
3.61212e-09
4.51799e-09
5.58525e-09
6.76971e-09
8.08269e-09
9.5131e-09
1.10931e-08
1.27179e-08
1.4417e-08
1.61792e-08
1.80337e-08
1.99135e-08
2.18952e-08
2.39808e-08
2.62027e-08
2.86618e-08
3.14204e-08
3.44257e-08
3.75394e-08
4.05457e-08
4.3143e-08
4.49991e-08
4.58673e-08
4.57679e-08
4.50218e-08
4.40953e-08
4.32846e-08
4.26258e-08
4.1967e-08
4.1021e-08
3.93813e-08
3.65547e-08
3.19539e-08
2.49035e-08
1.52755e-08
8.38359e-09
4.57032e-09
2.49391e-09
1.38252e-09
8.8291e-10
7.76209e-10
1.03164e-09
1.77344e-09
3.01372e-09
3.99441e-09
3.8815e-09
2.71616e-09
1.47364e-09
9.84743e-10
7.44255e-10
5.81813e-10
4.53981e-10
3.4749e-10
2.61716e-10
1.89133e-10
1.32374e-10
8.96599e-11
5.88713e-11
3.76004e-11
2.33939e-11
1.42341e-11
8.49428e-12
4.98319e-12
2.87752e-12
1.63846e-12
9.21021e-13
5.11629e-13
2.81112e-13
1.52943e-13
8.24093e-14
4.4022e-14
2.33301e-14
1.22745e-14
6.41832e-15
3.33295e-15
1.71993e-15
8.81405e-16
4.47635e-16
2.24168e-16
1.09429e-16
5.06685e-17
2.0612e-17
4.76425e-18
1.61814e-12
6.16868e-12
1.28689e-11
2.29798e-11
3.81597e-11
6.07768e-11
9.41696e-11
1.42906e-10
2.12981e-10
3.11853e-10
4.48436e-10
6.33479e-10
8.80228e-10
1.20436e-09
1.62285e-09
2.15099e-09
2.80681e-09
3.60234e-09
4.50677e-09
5.5705e-09
6.7539e-09
8.06601e-09
9.49644e-09
1.10772e-08
1.27039e-08
1.44058e-08
1.61714e-08
1.80306e-08
1.99153e-08
2.19024e-08
2.39948e-08
2.62241e-08
2.86919e-08
3.14602e-08
3.44805e-08
3.76128e-08
4.064e-08
4.32607e-08
4.51386e-08
4.60224e-08
4.59318e-08
4.5189e-08
4.4262e-08
4.34443e-08
4.27745e-08
4.2094e-08
4.11065e-08
3.94013e-08
3.64812e-08
3.17379e-08
2.44949e-08
1.46573e-08
8.04591e-09
4.38697e-09
2.39528e-09
1.33379e-09
8.63882e-10
7.79072e-10
1.05803e-09
1.83255e-09
3.08983e-09
4.02957e-09
3.83233e-09
2.55635e-09
1.40362e-09
9.47329e-10
7.20543e-10
5.6453e-10
4.41088e-10
3.38175e-10
2.55078e-10
1.84322e-10
1.29057e-10
8.74526e-11
5.74477e-11
3.67126e-11
2.2855e-11
1.39155e-11
8.30897e-12
4.87811e-12
2.81884e-12
1.60616e-12
9.03462e-13
5.02193e-13
2.76093e-13
1.50305e-13
8.10304e-14
4.33066e-14
2.29614e-14
1.20861e-14
6.31983e-15
3.28301e-15
1.69469e-15
8.68702e-16
4.41279e-16
2.21023e-16
1.07908e-16
4.99682e-17
2.03281e-17
4.69876e-18
1.61251e-12
6.14724e-12
1.28242e-11
2.29e-11
3.80275e-11
6.05669e-11
9.38463e-11
1.4242e-10
2.12266e-10
3.10822e-10
4.46977e-10
6.31457e-10
8.77491e-10
1.20075e-09
1.6181e-09
2.14518e-09
2.79982e-09
3.59392e-09
4.49693e-09
5.55816e-09
6.74036e-09
8.0525e-09
9.48353e-09
1.10656e-08
1.26939e-08
1.4398e-08
1.61666e-08
1.80297e-08
1.99188e-08
2.19106e-08
2.40088e-08
2.62443e-08
2.87191e-08
3.14966e-08
3.45296e-08
3.76771e-08
4.07214e-08
4.33623e-08
4.52557e-08
4.61507e-08
4.60665e-08
4.53265e-08
4.43998e-08
4.35675e-08
4.28897e-08
4.219e-08
4.11697e-08
3.94129e-08
3.64156e-08
3.15591e-08
2.41617e-08
1.41837e-08
7.776e-09
4.23668e-09
2.31487e-09
1.29475e-09
8.49194e-10
7.82879e-10
1.08292e-09
1.88774e-09
3.16139e-09
4.06597e-09
3.79761e-09
2.43754e-09
1.3519e-09
9.19624e-10
7.02381e-10
5.51258e-10
4.31039e-10
3.31143e-10
2.5001e-10
1.80841e-10
1.26527e-10
8.57122e-11
5.63017e-11
3.59876e-11
2.24099e-11
1.36498e-11
8.1536e-12
4.78925e-12
2.76883e-12
1.57842e-12
8.8828e-13
4.93981e-13
2.71698e-13
1.47979e-13
7.9808e-14
4.26693e-14
2.26314e-14
1.19166e-14
6.23187e-15
3.2382e-15
1.67196e-15
8.57224e-16
4.35523e-16
2.18169e-16
1.06525e-16
4.93311e-17
2.00696e-17
4.63912e-18
1.60775e-12
6.12911e-12
1.27864e-11
2.28327e-11
3.79159e-11
6.03901e-11
9.35743e-11
1.42012e-10
2.11667e-10
3.0996e-10
4.45761e-10
6.29779e-10
8.75239e-10
1.19782e-09
1.61433e-09
2.14059e-09
2.79417e-09
3.58731e-09
4.48949e-09
5.54857e-09
6.73025e-09
8.04238e-09
9.47356e-09
1.10566e-08
1.26862e-08
1.43924e-08
1.61638e-08
1.80305e-08
1.99234e-08
2.19191e-08
2.40223e-08
2.6263e-08
2.87439e-08
3.15293e-08
3.45731e-08
3.77331e-08
4.07927e-08
4.3448e-08
4.53533e-08
4.62557e-08
4.61745e-08
4.54339e-08
4.45044e-08
4.36655e-08
4.29755e-08
4.22555e-08
4.12041e-08
3.94008e-08
3.63385e-08
3.13974e-08
2.39004e-08
1.36406e-08
7.49191e-09
4.08851e-09
2.23772e-09
1.25799e-09
8.35332e-10
7.85616e-10
1.10354e-09
1.93271e-09
3.218e-09
4.09231e-09
3.77038e-09
2.35057e-09
1.31481e-09
8.99985e-10
6.89118e-10
5.41378e-10
4.23326e-10
3.2558e-10
2.45628e-10
1.77628e-10
1.24336e-10
8.42511e-11
5.53535e-11
3.53905e-11
2.2043e-11
1.34298e-11
8.02457e-12
4.71503e-12
2.7268e-12
1.55497e-12
8.7537e-13
4.86958e-13
2.67919e-13
1.45968e-13
7.87464e-14
4.21132e-14
2.23423e-14
1.17674e-14
6.15516e-15
3.19896e-15
1.65198e-15
8.47109e-16
4.30438e-16
2.15643e-16
1.05299e-16
4.87657e-17
1.98401e-17
4.5861e-18
1.60378e-12
6.11399e-12
1.27549e-11
2.27765e-11
3.7823e-11
6.02426e-11
9.33474e-11
1.41671e-10
2.11166e-10
3.09237e-10
4.44737e-10
6.28356e-10
8.7331e-10
1.19527e-09
1.61097e-09
2.13626e-09
2.78899e-09
3.58139e-09
4.48313e-09
5.54057e-09
6.72222e-09
8.03429e-09
9.46587e-09
1.10499e-08
1.26809e-08
1.43889e-08
1.61627e-08
1.80324e-08
1.99285e-08
2.19277e-08
2.40351e-08
2.62802e-08
2.87661e-08
3.15575e-08
3.461e-08
3.77805e-08
4.08514e-08
4.35182e-08
4.54325e-08
4.63404e-08
4.62614e-08
4.55216e-08
4.4592e-08
4.37498e-08
4.30511e-08
4.23144e-08
4.12364e-08
3.93929e-08
3.62721e-08
3.12473e-08
2.3635e-08
1.33545e-08
7.32826e-09
3.99641e-09
2.18842e-09
1.23429e-09
8.26992e-10
7.89215e-10
1.12096e-09
1.96964e-09
3.26277e-09
4.11253e-09
3.74913e-09
2.2862e-09
1.28803e-09
8.85961e-10
6.79968e-10
5.34518e-10
4.17952e-10
3.21682e-10
2.42606e-10
1.75381e-10
1.22729e-10
8.31433e-11
5.46173e-11
3.49192e-11
2.17498e-11
1.32523e-11
7.91956e-12
4.65416e-12
2.6921e-12
1.53548e-12
8.64577e-13
4.81054e-13
2.64727e-13
1.44261e-13
7.78416e-14
4.16376e-14
2.20941e-14
1.1639e-14
6.08899e-15
3.16505e-15
1.6347e-15
8.38347e-16
4.26028e-16
2.1345e-16
1.04234e-16
4.82742e-17
1.96405e-17
4.53999e-18
1.60054e-12
6.10164e-12
1.27291e-11
2.27307e-11
3.7747e-11
6.01222e-11
9.31623e-11
1.41393e-10
2.10757e-10
3.08647e-10
4.43898e-10
6.27188e-10
8.71719e-10
1.19316e-09
1.60815e-09
2.13291e-09
2.78512e-09
3.57702e-09
4.47829e-09
5.53436e-09
6.71557e-09
8.02775e-09
9.45967e-09
1.10447e-08
1.26769e-08
1.43866e-08
1.61624e-08
1.80347e-08
1.99335e-08
2.19356e-08
2.40464e-08
2.62954e-08
2.87856e-08
3.15825e-08
3.46416e-08
3.78197e-08
4.0899e-08
4.35746e-08
4.54961e-08
4.64086e-08
4.63317e-08
4.55919e-08
4.46608e-08
4.38153e-08
4.31099e-08
4.2361e-08
4.1263e-08
3.93887e-08
3.62226e-08
3.11336e-08
2.34371e-08
1.31818e-08
7.22883e-09
3.94032e-09
2.15767e-09
1.21965e-09
8.22713e-10
7.94024e-10
1.13758e-09
2.00323e-09
3.30343e-09
4.13173e-09
3.73323e-09
2.23788e-09
1.26833e-09
8.75935e-10
6.73516e-10
5.29623e-10
4.14079e-10
3.18857e-10
2.40417e-10
1.7371e-10
1.21506e-10
8.22866e-11
5.40412e-11
3.45468e-11
2.15161e-11
1.31098e-11
7.83469e-12
4.60468e-12
2.66373e-12
1.51947e-12
8.5567e-13
4.76161e-13
2.62071e-13
1.42837e-13
7.70837e-14
4.12381e-14
2.18852e-14
1.15306e-14
6.03305e-15
3.13635e-15
1.62004e-15
8.3091e-16
4.22282e-16
2.11587e-16
1.03329e-16
4.78562e-17
1.94706e-17
4.50075e-18
1.59796e-12
6.09183e-12
1.27087e-11
2.26943e-11
3.76868e-11
6.00269e-11
9.30159e-11
1.41174e-10
2.10434e-10
3.08182e-10
4.4324e-10
6.26277e-10
8.70496e-10
1.19157e-09
1.60608e-09
2.1304e-09
2.78209e-09
3.57351e-09
4.47433e-09
5.52934e-09
6.71064e-09
8.02296e-09
9.45532e-09
1.10411e-08
1.26744e-08
1.43854e-08
1.61628e-08
1.80371e-08
1.99382e-08
2.19427e-08
2.40563e-08
2.63084e-08
2.88025e-08
3.16038e-08
3.46686e-08
3.78537e-08
4.09402e-08
4.3623e-08
4.55499e-08
4.64653e-08
4.63891e-08
4.56491e-08
4.47174e-08
4.387e-08
4.31602e-08
4.2403e-08
4.12915e-08
3.93962e-08
3.61991e-08
3.10671e-08
2.33207e-08
1.30673e-08
7.1621e-09
3.90228e-09
2.13691e-09
1.21018e-09
8.20825e-10
7.99354e-10
1.15303e-09
2.03413e-09
3.34113e-09
4.15135e-09
3.72351e-09
2.20244e-09
1.25404e-09
8.68705e-10
6.68815e-10
5.26065e-10
4.11176e-10
3.16749e-10
2.38724e-10
1.72417e-10
1.20556e-10
8.16181e-11
5.35907e-11
3.4255e-11
2.13323e-11
1.29971e-11
7.7672e-12
4.56512e-12
2.64094e-12
1.50656e-12
8.48456e-13
4.72186e-13
2.59907e-13
1.41672e-13
7.6463e-14
4.09102e-14
2.17134e-14
1.14413e-14
5.98693e-15
3.11265e-15
1.60794e-15
8.24762e-16
4.19183e-16
2.10044e-16
1.02579e-16
4.75101e-17
1.933e-17
4.46825e-18
1.59599e-12
6.08433e-12
1.26931e-11
2.26665e-11
3.7641e-11
5.99545e-11
9.2905e-11
1.41009e-10
2.10194e-10
3.07839e-10
4.42761e-10
6.25622e-10
8.69624e-10
1.19043e-09
1.60454e-09
2.12846e-09
2.77975e-09
3.57081e-09
4.47138e-09
5.52556e-09
6.70675e-09
8.01919e-09
9.45193e-09
1.10384e-08
1.26726e-08
1.43847e-08
1.61635e-08
1.80395e-08
1.99423e-08
2.19487e-08
2.40647e-08
2.63192e-08
2.8816e-08
3.1621e-08
3.46904e-08
3.78805e-08
4.09724e-08
4.36605e-08
4.55913e-08
4.65086e-08
4.64327e-08
4.56922e-08
4.476e-08
4.39114e-08
4.31981e-08
4.24338e-08
4.13106e-08
3.93975e-08
3.61759e-08
3.10133e-08
2.32336e-08
1.29592e-08
7.10375e-09
3.87065e-09
2.12022e-09
1.20339e-09
8.20051e-10
8.04113e-10
1.16572e-09
2.05912e-09
3.3722e-09
4.16928e-09
3.7189e-09
2.17784e-09
1.24432e-09
8.63789e-10
6.65582e-10
5.23554e-10
4.0909e-10
3.15226e-10
2.37491e-10
1.71478e-10
1.19865e-10
8.11281e-11
5.32565e-11
3.40359e-11
2.11929e-11
1.29109e-11
7.71516e-12
4.53443e-12
2.62317e-12
1.49645e-12
8.42792e-13
4.69056e-13
2.58199e-13
1.40752e-13
7.59716e-14
4.06503e-14
2.15771e-14
1.13705e-14
5.95029e-15
3.09382e-15
1.59831e-15
8.19872e-16
4.16718e-16
2.08817e-16
1.01983e-16
4.72346e-17
1.92181e-17
4.44239e-18
1.59459e-12
6.07898e-12
1.2682e-11
2.26468e-11
3.76086e-11
5.99037e-11
9.28278e-11
1.40894e-10
2.10027e-10
3.07598e-10
4.42417e-10
6.25138e-10
8.68951e-10
1.18953e-09
1.60336e-09
2.12705e-09
2.7781e-09
3.56895e-09
4.46935e-09
5.52297e-09
6.70413e-09
8.01668e-09
9.44971e-09
1.10367e-08
1.26715e-08
1.43845e-08
1.61642e-08
1.80414e-08
1.99456e-08
2.19533e-08
2.40709e-08
2.63273e-08
2.88262e-08
3.16339e-08
3.47066e-08
3.79003e-08
4.09961e-08
4.36879e-08
4.56213e-08
4.65399e-08
4.64642e-08
4.57237e-08
4.47913e-08
4.39421e-08
4.32273e-08
4.24595e-08
4.13297e-08
3.94052e-08
3.61656e-08
3.09776e-08
2.31701e-08
1.29032e-08
7.06963e-09
3.84897e-09
2.10383e-09
1.20545e-09
8.22344e-10
8.08808e-10
1.17565e-09
2.07798e-09
3.39599e-09
4.18419e-09
3.71737e-09
2.16142e-09
1.23793e-09
8.60567e-10
6.63441e-10
5.21859e-10
4.07683e-10
3.14194e-10
2.36652e-10
1.70821e-10
1.19372e-10
8.07744e-11
5.30146e-11
3.38774e-11
2.10922e-11
1.28491e-11
7.67817e-12
4.5127e-12
2.61059e-12
1.48928e-12
8.38761e-13
4.66819e-13
2.56973e-13
1.40088e-13
7.56153e-14
4.04608e-14
2.14771e-14
1.13182e-14
5.92313e-15
3.07981e-15
1.59114e-15
8.16223e-16
4.14878e-16
2.07901e-16
1.01537e-16
4.70289e-17
1.91345e-17
4.42308e-18
1.59368e-12
6.07554e-12
1.26749e-11
2.26341e-11
3.75875e-11
5.98703e-11
9.27762e-11
1.40816e-10
2.09911e-10
3.07429e-10
4.42176e-10
6.24804e-10
8.68505e-10
1.18895e-09
1.6026e-09
2.12612e-09
2.77701e-09
3.56774e-09
4.46806e-09
5.52134e-09
6.7025e-09
8.01514e-09
9.44836e-09
1.10357e-08
1.26709e-08
1.43844e-08
1.61648e-08
1.80428e-08
1.99478e-08
2.19565e-08
2.40752e-08
2.63327e-08
2.88331e-08
3.16425e-08
3.47172e-08
3.79133e-08
4.10115e-08
4.37056e-08
4.56406e-08
4.65598e-08
4.64841e-08
4.57432e-08
4.48104e-08
4.39606e-08
4.32442e-08
4.24736e-08
4.13392e-08
3.94075e-08
3.61573e-08
3.09549e-08
2.31313e-08
1.28608e-08
7.04537e-09
3.83521e-09
2.09639e-09
1.20233e-09
8.2201e-10
8.1107e-10
1.18157e-09
2.08937e-09
3.40982e-09
4.19207e-09
3.71542e-09
2.15079e-09
1.23394e-09
8.58591e-10
6.62129e-10
5.20817e-10
4.06805e-10
3.13551e-10
2.36119e-10
1.70402e-10
1.19056e-10
8.05463e-11
5.28562e-11
3.37728e-11
2.10259e-11
1.28082e-11
7.65347e-12
4.49815e-12
2.60219e-12
1.48451e-12
8.36095e-13
4.65349e-13
2.56171e-13
1.39656e-13
7.53845e-14
4.03386e-14
2.1413e-14
1.12848e-14
5.90576e-15
3.07083e-15
1.58652e-15
8.13858e-16
4.13678e-16
2.07301e-16
1.01244e-16
4.68933e-17
1.90793e-17
4.41032e-18
1.59323e-12
6.07382e-12
1.26713e-11
2.26277e-11
3.75769e-11
5.98534e-11
9.27503e-11
1.40777e-10
2.09854e-10
3.07348e-10
4.42061e-10
6.24644e-10
8.6829e-10
1.18867e-09
1.60223e-09
2.12568e-09
2.77649e-09
3.56716e-09
4.46744e-09
5.52055e-09
6.70172e-09
8.01441e-09
9.44772e-09
1.10352e-08
1.26707e-08
1.43844e-08
1.61652e-08
1.80435e-08
1.9949e-08
2.19581e-08
2.40773e-08
2.63355e-08
2.88365e-08
3.16468e-08
3.47225e-08
3.79197e-08
4.1019e-08
4.37142e-08
4.56498e-08
4.65692e-08
4.64932e-08
4.57518e-08
4.48181e-08
4.3967e-08
4.32488e-08
4.24755e-08
4.13377e-08
3.94021e-08
3.61486e-08
3.09446e-08
2.31201e-08
1.28272e-08
7.0268e-09
3.82615e-09
2.09389e-09
1.19648e-09
8.2e-10
8.11676e-10
1.18508e-09
2.0972e-09
3.42029e-09
4.1987e-09
3.71504e-09
2.14525e-09
1.23174e-09
8.57497e-10
6.61436e-10
5.20295e-10
4.06377e-10
3.1324e-10
2.35865e-10
1.70203e-10
1.18905e-10
8.04361e-11
5.2778e-11
3.37193e-11
2.09904e-11
1.27857e-11
7.6397e-12
4.48999e-12
2.59746e-12
1.48182e-12
8.34593e-13
4.64521e-13
2.55721e-13
1.39414e-13
7.52561e-14
4.0271e-14
2.13777e-14
1.12665e-14
5.8964e-15
3.06605e-15
1.58409e-15
8.12634e-16
4.13064e-16
2.06996e-16
1.01097e-16
4.68252e-17
1.90516e-17
4.40392e-18
1.59322e-12
6.07379e-12
1.26712e-11
2.26276e-11
3.75767e-11
5.98531e-11
9.27498e-11
1.40776e-10
2.09853e-10
3.07346e-10
4.42059e-10
6.24641e-10
8.68287e-10
1.18867e-09
1.60223e-09
2.12567e-09
2.77649e-09
3.56715e-09
4.46744e-09
5.52055e-09
6.70172e-09
8.01442e-09
9.44774e-09
1.10352e-08
1.26707e-08
1.43845e-08
1.61652e-08
1.80436e-08
1.9949e-08
2.19582e-08
2.40774e-08
2.63355e-08
2.88366e-08
3.16468e-08
3.47225e-08
3.79197e-08
4.1019e-08
4.37141e-08
4.56498e-08
4.65692e-08
4.64932e-08
4.57518e-08
4.48181e-08
4.3967e-08
4.3249e-08
4.24765e-08
4.13405e-08
3.94085e-08
3.61618e-08
3.09717e-08
2.31803e-08
1.27772e-08
7.00669e-09
3.81909e-09
2.0936e-09
1.19141e-09
8.1765e-10
8.10603e-10
1.18454e-09
2.09643e-09
3.41809e-09
4.19544e-09
3.7123e-09
2.14385e-09
1.23122e-09
8.57292e-10
6.61344e-10
5.20249e-10
4.06352e-10
3.13225e-10
2.35857e-10
1.70199e-10
1.18902e-10
8.04339e-11
5.27758e-11
3.37172e-11
2.09886e-11
1.27844e-11
7.63883e-12
4.48943e-12
2.59713e-12
1.48163e-12
8.34482e-13
4.6446e-13
2.55689e-13
1.39397e-13
7.52474e-14
4.02666e-14
2.13755e-14
1.12655e-14
5.8959e-15
3.06582e-15
1.58399e-15
8.12587e-16
4.13043e-16
2.06987e-16
1.01093e-16
4.68236e-17
1.90511e-17
4.40379e-18
1.59367e-12
6.07548e-12
1.26747e-11
2.26338e-11
3.7587e-11
5.98692e-11
9.27744e-11
1.40813e-10
2.09907e-10
3.07423e-10
4.42168e-10
6.24793e-10
8.68492e-10
1.18894e-09
1.60258e-09
2.1261e-09
2.777e-09
3.56772e-09
4.46805e-09
5.52134e-09
6.70251e-09
8.01517e-09
9.4484e-09
1.10357e-08
1.2671e-08
1.43845e-08
1.61649e-08
1.80429e-08
1.99479e-08
2.19566e-08
2.40752e-08
2.63328e-08
2.88331e-08
3.16425e-08
3.47172e-08
3.79131e-08
4.10113e-08
4.37053e-08
4.56403e-08
4.65595e-08
4.64836e-08
4.57424e-08
4.48088e-08
4.39577e-08
4.32397e-08
4.24674e-08
4.13317e-08
3.93999e-08
3.61514e-08
3.09531e-08
2.31343e-08
1.28597e-08
7.04291e-09
3.83533e-09
2.10093e-09
1.19405e-09
8.18082e-10
8.09476e-10
1.18145e-09
2.09042e-09
3.41066e-09
4.19093e-09
3.71285e-09
2.14874e-09
1.23308e-09
8.58212e-10
6.61946e-10
5.2072e-10
4.06751e-10
3.13516e-10
2.361e-10
1.70391e-10
1.19049e-10
8.05413e-11
5.28504e-11
3.37663e-11
2.10201e-11
1.28039e-11
7.65057e-12
4.49635e-12
2.60113e-12
1.4839e-12
8.35758e-13
4.65166e-13
2.56074e-13
1.39606e-13
7.53589e-14
4.03258e-14
2.14067e-14
1.12817e-14
5.90435e-15
3.07019e-15
1.58623e-15
8.13731e-16
4.13623e-16
2.07277e-16
1.01234e-16
4.68891e-17
1.90778e-17
4.40997e-18
1.59459e-12
6.07897e-12
1.2682e-11
2.26467e-11
3.76083e-11
5.99029e-11
9.2826e-11
1.4089e-10
2.1002e-10
3.07586e-10
4.42398e-10
6.25112e-10
8.68923e-10
1.1895e-09
1.60333e-09
2.12703e-09
2.77808e-09
3.56895e-09
4.46936e-09
5.52299e-09
6.70417e-09
8.01675e-09
9.4498e-09
1.10368e-08
1.26716e-08
1.43846e-08
1.61644e-08
1.80416e-08
1.99457e-08
2.19535e-08
2.4071e-08
2.63273e-08
2.88262e-08
3.16338e-08
3.47064e-08
3.78999e-08
4.09956e-08
4.36872e-08
4.56205e-08
4.6539e-08
4.64631e-08
4.57221e-08
4.47888e-08
4.39383e-08
4.32218e-08
4.24525e-08
4.13221e-08
3.93992e-08
3.61652e-08
3.09891e-08
2.32036e-08
1.28676e-08
7.05213e-09
3.84232e-09
2.1053e-09
1.19605e-09
8.1807e-10
8.07129e-10
1.17543e-09
2.07866e-09
3.39618e-09
4.18247e-09
3.71456e-09
2.15918e-09
1.23704e-09
8.60151e-10
6.6322e-10
5.21733e-10
4.07603e-10
3.1414e-10
2.36616e-10
1.70802e-10
1.19364e-10
8.07668e-11
5.30059e-11
3.38704e-11
2.10871e-11
1.28456e-11
7.6758e-12
4.51124e-12
2.60975e-12
1.48881e-12
8.3851e-13
4.66688e-13
2.56905e-13
1.40054e-13
7.55985e-14
4.04527e-14
2.14733e-14
1.13164e-14
5.92229e-15
3.07942e-15
1.59095e-15
8.1613e-16
4.14832e-16
2.07879e-16
1.01527e-16
4.70243e-17
1.91327e-17
4.42267e-18
1.59601e-12
6.08439e-12
1.26932e-11
2.26668e-11
3.76414e-11
5.99553e-11
9.29062e-11
1.4101e-10
2.10195e-10
3.07838e-10
4.42755e-10
6.25607e-10
8.69589e-10
1.19037e-09
1.60448e-09
2.12842e-09
2.77974e-09
3.57082e-09
4.4714e-09
5.52559e-09
6.7068e-09
8.01927e-09
9.45204e-09
1.10386e-08
1.26728e-08
1.43849e-08
1.61637e-08
1.80397e-08
1.99425e-08
2.19488e-08
2.40647e-08
2.63192e-08
2.88159e-08
3.16208e-08
3.469e-08
3.78799e-08
4.09715e-08
4.36593e-08
4.55898e-08
4.65069e-08
4.64307e-08
4.56898e-08
4.47569e-08
4.39074e-08
4.31935e-08
4.24294e-08
4.13079e-08
3.93994e-08
3.61871e-08
3.10423e-08
2.32982e-08
1.28974e-08
7.07374e-09
3.85621e-09
2.11338e-09
1.20035e-09
8.18944e-10
8.04318e-10
1.16735e-09
2.06295e-09
3.37805e-09
4.17424e-09
3.72052e-09
2.17695e-09
1.24367e-09
8.63316e-10
6.65271e-10
5.23377e-10
4.09003e-10
3.15174e-10
2.37466e-10
1.71464e-10
1.19847e-10
8.11122e-11
5.32465e-11
3.40299e-11
2.11894e-11
1.2909e-11
7.71416e-12
4.5339e-12
2.62288e-12
1.49629e-12
8.42707e-13
4.6901e-13
2.58174e-13
1.40738e-13
7.59644e-14
4.06463e-14
2.15749e-14
1.13693e-14
5.94964e-15
3.09348e-15
1.59813e-15
8.1978e-16
4.16672e-16
2.08794e-16
1.01972e-16
4.72296e-17
1.92161e-17
4.44194e-18
1.59798e-12
6.09189e-12
1.27089e-11
2.26946e-11
3.76873e-11
6.00279e-11
9.30175e-11
1.41177e-10
2.10439e-10
3.0819e-10
4.43253e-10
6.26295e-10
8.70518e-10
1.19159e-09
1.60608e-09
2.13036e-09
2.78204e-09
3.57345e-09
4.47429e-09
5.5293e-09
6.71064e-09
8.023e-09
9.45541e-09
1.10412e-08
1.26745e-08
1.43856e-08
1.61631e-08
1.80374e-08
1.99385e-08
2.19429e-08
2.40565e-08
2.63085e-08
2.88024e-08
3.16036e-08
3.46681e-08
3.78528e-08
4.09389e-08
4.36212e-08
4.55477e-08
4.64627e-08
4.6386e-08
4.56455e-08
4.47131e-08
4.3865e-08
4.31544e-08
4.23964e-08
4.12841e-08
3.93883e-08
3.61918e-08
3.10626e-08
2.33201e-08
1.30441e-08
7.15007e-09
3.89439e-09
2.12835e-09
1.21617e-09
8.23827e-10
8.01496e-10
1.15567e-09
2.03872e-09
3.34846e-09
4.15857e-09
3.72697e-09
2.20189e-09
1.25338e-09