/*--------------------------------*- C++ -*----------------------------------*\
  =========                 |
  \\      /  F ield         | OpenFOAM: The Open Source CFD Toolbox
   \\    /   O peration     | Website:  https://openfoam.org
    \\  /    A nd           | Version:  10
     \\/     M anipulation  |
\*---------------------------------------------------------------------------*/
FoamFile
{
    format      ascii;
    class       volScalarField;
    location    "1";
    object      NH3;
}
// * * * * * * * * * * * * * * * * * * * * * * * * * * * * * * * * * * * * * //

dimensions      [0 0 0 0 0 0 0];

internalField   nonuniform List<scalar> 
4000
(
0.720775
0.720706
0.720603
0.720448
0.720216
0.719869
0.719357
0.718608
0.717529
0.716002
0.713885
0.711003
0.70715
0.70208
0.695535
0.687299
0.677093
0.664742
0.650753
0.634148
0.616055
0.596083
0.573928
0.550933
0.526843
0.501924
0.476322
0.450154
0.424122
0.397916
0.371975
0.346516
0.32157
0.297302
0.273795
0.251054
0.229189
0.208192
0.188074
0.168846
0.150284
0.132609
0.115962
0.100267
0.0852007
0.0710154
0.0578602
0.045736
0.0346382
0.0247231
0.0162387
0.00957993
0.00527798
0.00288294
0.00155388
0.000822821
0.00042597
0.000215047
0.000105434
5.0162e-05
2.33072e-05
1.10212e-05
5.62832e-06
3.29812e-06
2.27336e-06
1.7653e-06
1.4472e-06
1.19432e-06
9.636e-07
7.58168e-07
5.84787e-07
4.31585e-07
3.07189e-07
2.10587e-07
1.39024e-07
8.87289e-08
5.49297e-08
3.31315e-08
1.9548e-08
1.13169e-08
6.44916e-09
3.62207e-09
2.00864e-09
1.10205e-09
5.9805e-10
3.21849e-10
1.71928e-10
9.12064e-11
4.81053e-11
2.52573e-11
1.31695e-11
6.83323e-12
3.52801e-12
1.81077e-12
9.21688e-13
4.6276e-13
2.26482e-13
1.051e-13
4.28232e-14
9.90756e-15
0.720775
0.720706
0.720604
0.72045
0.720218
0.719873
0.719363
0.718617
0.717544
0.716025
0.713921
0.711061
0.707241
0.702219
0.695735
0.687574
0.677486
0.665294
0.651455
0.634935
0.616962
0.597214
0.575253
0.552297
0.528266
0.503348
0.477757
0.45143
0.425323
0.39902
0.372981
0.347515
0.322504
0.298088
0.274458
0.251612
0.229649
0.208558
0.188358
0.16905
0.150419
0.132679
0.115973
0.100222
0.0851079
0.070881
0.0577006
0.0455544
0.0344423
0.0245254
0.0160546
0.00943212
0.00518878
0.00283271
0.00152635
0.000808518
0.000415496
0.000209407
0.000102487
4.87162e-05
2.2498e-05
1.06632e-05
5.48674e-06
3.25106e-06
2.26224e-06
1.7661e-06
1.44763e-06
1.19234e-06
9.59278e-07
7.52732e-07
5.79515e-07
4.27415e-07
3.04211e-07
2.08584e-07
1.38056e-07
8.83764e-08
5.49017e-08
3.32366e-08
1.9683e-08
1.14362e-08
6.54045e-09
3.6861e-09
2.05198e-09
1.12911e-09
6.15778e-10
3.326e-10
1.78127e-10
9.45972e-11
4.98648e-11
2.60958e-11
1.36113e-11
7.05501e-12
3.63645e-12
1.86274e-12
9.46107e-13
4.73996e-13
2.31514e-13
1.07252e-13
4.3645e-14
1.00898e-14
0.720775
0.720706
0.720605
0.720451
0.72022
0.719876
0.719368
0.718625
0.717556
0.716046
0.713956
0.711122
0.70734
0.70237
0.695956
0.687883
0.677883
0.665841
0.652178
0.635851
0.618057
0.598394
0.576763
0.5535
0.529617
0.504786
0.479253
0.452928
0.426824
0.400477
0.374396
0.348843
0.323692
0.299174
0.275381
0.252386
0.23028
0.209056
0.188731
0.169318
0.150587
0.13275
0.11596
0.100127
0.0849381
0.0706462
0.0574239
0.0452384
0.0341102
0.0241947
0.0157494
0.00917752
0.00504988
0.00275382
0.00148126
0.000783694
0.000402113
0.000202209
9.87381e-05
4.69145e-05
2.146e-05
1.02211e-05
5.31389e-06
3.19239e-06
2.24841e-06
1.76616e-06
1.4479e-06
1.19011e-06
9.54689e-07
7.47099e-07
5.74067e-07
4.22877e-07
3.01087e-07
2.06678e-07
1.36933e-07
8.78199e-08
5.46856e-08
3.31987e-08
1.97197e-08
1.14905e-08
6.59322e-09
3.72733e-09
2.08025e-09
1.14756e-09
6.26419e-10
3.38687e-10
1.81626e-10
9.66018e-11
5.10053e-11
2.67479e-11
1.39391e-11
7.22673e-12
3.72509e-12
1.90746e-12
9.68203e-13
4.8468e-13
2.36531e-13
1.09489e-13
4.45278e-14
1.029e-14
0.720776
0.720707
0.720606
0.720453
0.720224
0.719882
0.719377
0.718641
0.717581
0.716084
0.714013
0.711205
0.707459
0.702541
0.696197
0.688213
0.678324
0.666368
0.652797
0.636661
0.619035
0.599549
0.578085
0.554848
0.530951
0.506135
0.480689
0.45437
0.428268
0.401858
0.375731
0.350127
0.324879
0.300238
0.276296
0.25316
0.23091
0.20955
0.189105
0.169558
0.150715
0.132773
0.115892
0.0999679
0.0846967
0.0703327
0.0570718
0.0448449
0.033692
0.0237819
0.0153798
0.00887366
0.00487935
0.00265762
0.00142718
0.000752649
0.000385215
0.000192993
9.3864e-05
4.44381e-05
2.02854e-05
9.7105e-06
5.1129e-06
3.12627e-06
2.23291e-06
1.7647e-06
1.44702e-06
1.18669e-06
9.4887e-07
7.40212e-07
5.67479e-07
4.17045e-07
2.95852e-07
2.02594e-07
1.341e-07
8.60541e-08
5.36843e-08
3.2687e-08
1.94919e-08
1.14126e-08
6.57353e-09
3.72702e-09
2.08571e-09
1.15335e-09
6.30846e-10
3.41655e-10
1.83471e-10
9.76662e-11
5.1602e-11
2.70783e-11
1.41236e-11
7.32181e-12
3.77341e-12
1.93185e-12
9.80408e-13
4.907e-13
2.39432e-13
1.10821e-13
4.50679e-14
1.04147e-14
0.720776
0.720707
0.720607
0.720455
0.720228
0.719888
0.719387
0.718655
0.717602
0.716117
0.714063
0.711278
0.707565
0.70269
0.696403
0.68849
0.678687
0.666835
0.653386
0.637373
0.619841
0.600459
0.579168
0.555968
0.532167
0.507483
0.482054
0.455729
0.429595
0.403166
0.376935
0.35123
0.325895
0.301174
0.277103
0.253839
0.231456
0.209976
0.189397
0.169737
0.150783
0.132738
0.115768
0.0997557
0.0844036
0.0699703
0.0566797
0.044419
0.0332452
0.0233407
0.0149764
0.0085815
0.00471463
0.00256447
0.00137481
0.000723727
0.000370052
0.000184913
8.96641e-05
4.23202e-05
1.93303e-05
9.30351e-06
4.95109e-06
3.06986e-06
2.21819e-06
1.7617e-06
1.44464e-06
1.18184e-06
9.42016e-07
7.32683e-07
5.6053e-07
4.10665e-07
2.90991e-07
1.99167e-07
1.31863e-07
8.46958e-08
5.29034e-08
3.22592e-08
1.92656e-08
1.12952e-08
6.52048e-09
3.70772e-09
2.07981e-09
1.15232e-09
6.31226e-10
3.42362e-10
1.8411e-10
9.81125e-11
5.18827e-11
2.72439e-11
1.42179e-11
7.37283e-12
3.80015e-12
1.94554e-12
9.87282e-13
4.94087e-13
2.41058e-13
1.11564e-13
4.5368e-14
1.04838e-14
0.720776
0.720708
0.720608
0.720458
0.720231
0.719894
0.719396
0.71867
0.717625
0.716151
0.714112
0.71135
0.707667
0.702832
0.696594
0.688739
0.679004
0.667222
0.653843
0.637939
0.62049
0.601193
0.580082
0.556957
0.533275
0.5086
0.483205
0.456879
0.430768
0.404271
0.377953
0.352173
0.326754
0.301948
0.277773
0.254396
0.231902
0.210301
0.189609
0.169835
0.15078
0.132641
0.115594
0.0995052
0.0840827
0.0695881
0.0562685
0.0439711
0.0327807
0.0228884
0.0145782
0.00829168
0.00455089
0.00247192
0.00132274
0.000693639
0.000353845
0.000176095
8.50274e-05
3.99975e-05
1.83351e-05
8.87964e-06
4.78887e-06
3.0143e-06
2.20292e-06
1.75811e-06
1.44323e-06
1.17332e-06
9.33899e-07
7.25113e-07
5.53196e-07
4.04612e-07
2.86361e-07
1.95848e-07
1.29617e-07
8.32634e-08
5.20306e-08
3.17504e-08
1.89807e-08
1.11421e-08
6.43518e-09
3.66314e-09
2.05792e-09
1.14237e-09
6.27254e-10
3.4081e-10
1.8355e-10
9.79207e-11
5.18268e-11
2.72337e-11
1.42214e-11
7.37745e-12
3.80334e-12
1.94752e-12
9.8841e-13
4.94692e-13
2.41366e-13
1.11711e-13
4.54293e-14
1.04982e-14
0.720776
0.720709
0.72061
0.72046
0.720235
0.7199
0.719406
0.718684
0.717646
0.716182
0.714159
0.711417
0.707761
0.702961
0.696767
0.688964
0.679288
0.667572
0.654265
0.638475
0.621108
0.601854
0.580891
0.557862
0.534198
0.509535
0.48415
0.4578
0.431682
0.405137
0.378751
0.35292
0.327436
0.302554
0.27829
0.25481
0.232217
0.210515
0.189725
0.16986
0.150717
0.132497
0.115384
0.099229
0.0837479
0.0692081
0.0558864
0.0435899
0.0322999
0.0224529
0.0142041
0.00800832
0.00439438
0.00238541
0.00127548
0.000664376
0.000339122
0.000168463
8.1138e-05
3.79801e-05
1.76393e-05
8.58323e-06
4.66805e-06
2.97295e-06
2.19148e-06
1.75471e-06
1.44045e-06
1.16839e-06
9.28118e-07
7.19112e-07
5.47772e-07
3.99927e-07
2.82628e-07
1.93046e-07
1.27652e-07
8.19719e-08
5.12227e-08
3.12674e-08
1.87027e-08
1.09879e-08
6.35143e-09
3.6186e-09
2.0346e-09
1.13021e-09
6.20862e-10
3.3757e-10
1.81954e-10
9.7146e-11
5.14574e-11
2.70597e-11
1.41413e-11
7.34085e-12
3.78711e-12
1.94014e-12
9.84985e-13
4.93085e-13
2.40617e-13
1.11375e-13
4.52952e-14
1.04677e-14
0.720776
0.720709
0.720611
0.720462
0.720239
0.719906
0.719414
0.718697
0.717666
0.716211
0.714201
0.711477
0.707846
0.703077
0.696921
0.689163
0.679538
0.667879
0.654632
0.638949
0.621629
0.602455
0.581564
0.558546
0.534904
0.510288
0.484929
0.458587
0.432428
0.40582
0.379385
0.353507
0.327968
0.30302
0.278678
0.25512
0.232436
0.210647
0.189775
0.169833
0.150619
0.132336
0.115174
0.0989664
0.0834355
0.0688511
0.0554992
0.0431828
0.0319195
0.022099
0.0139211
0.00773756
0.00424792
0.00230653
0.00123487
0.000637448
0.000325217
0.000161235
7.74454e-05
3.61814e-05
1.6845e-05
8.25075e-06
4.54211e-06
2.93013e-06
2.17879e-06
1.75027e-06
1.43695e-06
1.16256e-06
9.22154e-07
7.13445e-07
5.42779e-07
3.95704e-07
2.7913e-07
1.90356e-07
1.25734e-07
8.06944e-08
5.04123e-08
3.07753e-08
1.84145e-08
1.08248e-08
6.26095e-09
3.56947e-09
2.00841e-09
1.11647e-09
6.13757e-10
3.33974e-10
1.80001e-10
9.61707e-11
5.09719e-11
2.68188e-11
1.40227e-11
7.28181e-12
3.75753e-12
1.92547e-12
9.77773e-13
4.89586e-13
2.38957e-13
1.10626e-13
4.49963e-14
1.03995e-14
0.720776
0.72071
0.720612
0.720464
0.720242
0.719911
0.719422
0.718709
0.717684
0.716237
0.714239
0.711531
0.70792
0.703178
0.697056
0.689335
0.679753
0.668137
0.654926
0.639329
0.622074
0.60293
0.582102
0.559139
0.535537
0.510918
0.485549
0.459181
0.432997
0.406359
0.379894
0.353974
0.328379
0.30337
0.278968
0.255333
0.232572
0.21071
0.189768
0.169758
0.150478
0.132136
0.11493
0.0986749
0.0831026
0.0684907
0.0551217
0.042794
0.0315673
0.0217627
0.0136306
0.00755171
0.0041388
0.00224344
0.00119849
0.000619291
0.000315123
0.000155757
7.46144e-05
3.47933e-05
1.62148e-05
7.9904e-06
4.44149e-06
2.89568e-06
2.16766e-06
1.74523e-06
1.43248e-06
1.15676e-06
9.15797e-07
7.06948e-07
5.36842e-07
3.90812e-07
2.75349e-07
1.87615e-07
1.23849e-07
7.94662e-08
4.96422e-08
3.03096e-08
1.81412e-08
1.06687e-08
6.17347e-09
3.52134e-09
1.98234e-09
1.10255e-09
6.06411e-10
3.30175e-10
1.78032e-10
9.51578e-11
5.04543e-11
2.65555e-11
1.38904e-11
7.2149e-12
3.72382e-12
1.90855e-12
9.69335e-13
4.85428e-13
2.36955e-13
1.09709e-13
4.46264e-14
1.03143e-14
0.720776
0.72071
0.720613
0.720465
0.720245
0.719915
0.719429
0.71872
0.7177
0.71626
0.714272
0.711578
0.707985
0.703266
0.697172
0.689485
0.679942
0.66837
0.655208
0.639696
0.622475
0.603383
0.582581
0.559607
0.536014
0.511411
0.486047
0.459652
0.433452
0.406798
0.380286
0.354322
0.328684
0.30363
0.279169
0.255471
0.232648
0.210725
0.189725
0.16966
0.150327
0.131936
0.114693
0.0983962
0.0827898
0.0681492
0.0547576
0.0424215
0.0312399
0.0214534
0.0133517
0.00740744
0.00405476
0.0021949
0.00117137
0.000602867
0.000306395
0.000151246
7.23464e-05
3.37014e-05
1.57152e-05
7.77831e-06
4.35983e-06
2.87181e-06
2.15216e-06
1.73841e-06
1.42746e-06
1.15169e-06
9.10646e-07
7.02269e-07
5.32491e-07
3.87033e-07
2.72334e-07
1.85378e-07
1.22279e-07
7.84247e-08
4.89773e-08
2.99005e-08
1.78965e-08
1.05266e-08
6.09261e-09
3.47618e-09
1.95754e-09
1.08912e-09
5.9923e-10
3.26411e-10
1.76061e-10
9.41341e-11
4.99264e-11
2.62849e-11
1.3752e-11
7.14448e-12
3.68816e-12
1.89059e-12
9.60354e-13
4.80988e-13
2.34811e-13
1.08724e-13
4.42282e-14
1.02226e-14
0.720777
0.720711
0.720614
0.720467
0.720247
0.719919
0.719435
0.718729
0.717713
0.71628
0.7143
0.711617
0.708039
0.703339
0.697269
0.689607
0.680091
0.668545
0.655415
0.639971
0.622783
0.603727
0.582952
0.560004
0.536414
0.511809
0.486437
0.46003
0.433815
0.407137
0.380588
0.35459
0.328917
0.303815
0.279304
0.255556
0.232683
0.210713
0.189667
0.169559
0.150185
0.131755
0.114479
0.0981346
0.082495
0.0678303
0.0544317
0.0420958
0.0309451
0.0211832
0.0131291
0.0072651
0.00397603
0.00215121
0.00114687
0.000589247
0.000299016
0.000147347
7.03652e-05
3.27478e-05
1.52963e-05
7.60728e-06
4.29437e-06
2.84977e-06
2.14655e-06
1.73577e-06
1.42454e-06
1.14781e-06
9.06267e-07
6.98669e-07
5.29201e-07
3.84103e-07
2.69921e-07
1.83552e-07
1.20975e-07
7.75455e-08
4.84079e-08
2.95459e-08
1.76802e-08
1.03997e-08
6.01965e-09
3.43502e-09
1.9347e-09
1.07663e-09
5.92492e-10
3.22833e-10
1.74172e-10
9.31465e-11
4.94144e-11
2.60223e-11
1.36124e-11
7.07362e-12
3.65233e-12
1.87255e-12
9.51333e-13
4.76529e-13
2.32657e-13
1.07734e-13
4.38275e-14
1.01303e-14
0.720777
0.720711
0.720614
0.720468
0.720249
0.719923
0.71944
0.718737
0.717725
0.716296
0.714323
0.71165
0.708084
0.703399
0.697349
0.689707
0.680214
0.668697
0.655599
0.640204
0.623052
0.604013
0.58325
0.560308
0.536727
0.512124
0.486748
0.460324
0.43409
0.407393
0.380816
0.354786
0.329078
0.303939
0.27939
0.255601
0.232689
0.210682
0.189604
0.169468
0.150071
0.131631
0.114367
0.0978058
0.0821817
0.0675232
0.0541308
0.0418062
0.0306728
0.020937
0.0129258
0.00714054
0.00390571
0.00211164
0.00112504
0.000577663
0.000292721
0.000144023
6.86683e-05
3.19283e-05
1.49321e-05
7.45623e-06
4.23757e-06
2.83104e-06
2.14244e-06
1.73423e-06
1.42265e-06
1.14502e-06
9.029e-07
6.96216e-07
5.26814e-07
3.82011e-07
2.68064e-07
1.82081e-07
1.19895e-07
7.68033e-08
4.79198e-08
2.92381e-08
1.74918e-08
1.0288e-08
5.95481e-09
3.39813e-09
1.91407e-09
1.06527e-09
5.86319e-10
3.19526e-10
1.72416e-10
9.22234e-11
4.89332e-11
2.57742e-11
1.34823e-11
7.00718e-12
3.61857e-12
1.85549e-12
9.42774e-13
4.72287e-13
2.30603e-13
1.06789e-13
4.34445e-14
1.0042e-14
0.720777
0.720711
0.720615
0.720469
0.720251
0.719925
0.719445
0.718743
0.717734
0.71631
0.714343
0.711677
0.708121
0.703448
0.697412
0.689786
0.680314
0.668818
0.65574
0.640388
0.623257
0.604235
0.583491
0.560562
0.536993
0.512393
0.487009
0.46057
0.434314
0.407595
0.380988
0.35493
0.329191
0.304021
0.279439
0.255617
0.232672
0.210634
0.189527
0.169365
0.149942
0.131479
0.11419
0.0975944
0.081953
0.067286
0.053892
0.0415723
0.030456
0.0207552
0.0128069
0.00700727
0.00383465
0.00207358
0.0011043
0.000566809
0.000286967
0.00014106
6.71813e-05
3.12195e-05
1.46147e-05
7.32618e-06
4.18846e-06
2.81503e-06
2.13928e-06
1.73337e-06
1.42143e-06
1.14292e-06
9.0017e-07
6.9419e-07
5.24617e-07
3.79966e-07
2.66384e-07
1.80786e-07
1.18955e-07
7.616e-08
4.74965e-08
2.89703e-08
1.73276e-08
1.01902e-08
5.89778e-09
3.36551e-09
1.89574e-09
1.05512e-09
5.80779e-10
3.16545e-10
1.70827e-10
9.1384e-11
4.84938e-11
2.55464e-11
1.33647e-11
6.94684e-12
3.58778e-12
1.83988e-12
9.34927e-13
4.6839e-13
2.28714e-13
1.05918e-13
4.30911e-14
9.96042e-15
0.720777
0.720711
0.720615
0.72047
0.720252
0.719928
0.719448
0.718749
0.717742
0.716322
0.71436
0.711701
0.708154
0.703491
0.69747
0.689861
0.680406
0.668927
0.655863
0.640543
0.623423
0.604416
0.583683
0.560759
0.537191
0.512591
0.487201
0.460749
0.434479
0.407746
0.381116
0.355034
0.32927
0.304072
0.279463
0.255614
0.232642
0.210579
0.189448
0.169263
0.149818
0.131334
0.114024
0.0974079
0.0817516
0.067075
0.0536785
0.0413624
0.0302573
0.0205748
0.0126535
0.00694489
0.0037961
0.00205034
0.0010908
0.000559427
0.000282944
0.000138922
6.60971e-05
3.06948e-05
1.43804e-05
7.22836e-06
4.15104e-06
2.80289e-06
2.13716e-06
1.73297e-06
1.42069e-06
1.14141e-06
8.98116e-07
6.92664e-07
5.22972e-07
3.78403e-07
2.65044e-07
1.79725e-07
1.18172e-07
7.56187e-08
4.71377e-08
2.8742e-08
1.7187e-08
1.01061e-08
5.84847e-09
3.33719e-09
1.87975e-09
1.04624e-09
5.75915e-10
3.13918e-10
1.69421e-10
9.06397e-11
4.81033e-11
2.53435e-11
1.32598e-11
6.89296e-12
3.56028e-12
1.82593e-12
9.27902e-13
4.64899e-13
2.27019e-13
1.05137e-13
4.27741e-14
9.88723e-15
0.720777
0.720712
0.720616
0.720471
0.720254
0.71993
0.719451
0.718753
0.717749
0.716332
0.714374
0.71172
0.70818
0.703526
0.697518
0.68992
0.680476
0.669009
0.655958
0.640666
0.623563
0.604566
0.583843
0.56092
0.537353
0.512746
0.487348
0.460884
0.434602
0.407855
0.381208
0.355106
0.329322
0.304103
0.279471
0.2556
0.232607
0.210524
0.189373
0.16917
0.149707
0.131208
0.113885
0.0972568
0.0815908
0.0669074
0.0535082
0.0411928
0.0300931
0.0204223
0.0125202
0.00689605
0.00376853
0.0020346
0.00108168
0.000554414
0.000280148
0.000137415
6.53133e-05
3.03157e-05
1.42103e-05
7.15679e-06
4.12356e-06
2.79375e-06
2.13545e-06
1.73255e-06
1.42004e-06
1.14019e-06
8.96474e-07
6.9144e-07
5.21661e-07
3.77134e-07
2.63941e-07
1.78846e-07
1.17521e-07
7.51662e-08
4.68365e-08
2.85497e-08
1.70682e-08
1.00347e-08
5.80654e-09
3.31304e-09
1.86609e-09
1.03863e-09
5.71734e-10
3.11654e-10
1.68207e-10
8.99957e-11
4.77647e-11
2.51672e-11
1.31686e-11
6.84606e-12
3.53631e-12
1.81376e-12
9.21773e-13
4.61851e-13
2.2554e-13
1.04455e-13
4.24971e-14
9.82327e-15
0.720777
0.720712
0.720616
0.720472
0.720255
0.719931
0.719454
0.718757
0.717754
0.71634
0.714385
0.711736
0.708201
0.703553
0.697554
0.689964
0.680531
0.669076
0.656037
0.640766
0.623669
0.604679
0.58396
0.561041
0.537473
0.512862
0.487459
0.460985
0.434693
0.407936
0.381272
0.355155
0.329355
0.304118
0.279468
0.255579
0.232569
0.210469
0.189303
0.169085
0.149608
0.131098
0.113764
0.0971273
0.0814543
0.066766
0.0533651
0.0410514
0.0299563
0.0202963
0.0124162
0.00683994
0.00373727
0.00201735
0.00107223
0.000549492
0.000277551
0.000136068
6.46395e-05
2.9995e-05
1.40698e-05
7.10031e-06
4.10268e-06
2.78698e-06
2.13422e-06
1.73217e-06
1.41944e-06
1.13912e-06
8.95057e-07
6.90409e-07
5.20541e-07
3.76065e-07
2.63019e-07
1.78115e-07
1.16982e-07
7.47932e-08
4.65884e-08
2.83911e-08
1.69699e-08
9.97559e-09
5.77171e-09
3.29294e-09
1.85469e-09
1.03226e-09
5.68232e-10
3.09755e-10
1.67188e-10
8.94541e-11
4.74797e-11
2.50187e-11
1.30917e-11
6.80647e-12
3.51607e-12
1.80348e-12
9.16593e-13
4.59275e-13
2.24289e-13
1.03878e-13
4.22627e-14
9.76915e-15
0.720777
0.720712
0.720616
0.720472
0.720255
0.719932
0.719456
0.718759
0.717758
0.716345
0.714393
0.711747
0.708216
0.703573
0.697581
0.689999
0.680575
0.669128
0.656096
0.640843
0.623755
0.604771
0.584055
0.561135
0.537565
0.512953
0.487545
0.461063
0.434761
0.407994
0.381318
0.355188
0.329374
0.304124
0.27946
0.255558
0.232534
0.210422
0.189244
0.169015
0.149528
0.13101
0.113669
0.097025
0.0813465
0.0666547
0.053253
0.0409412
0.0298528
0.020206
0.0123484
0.00679957
0.00371521
0.00200507
0.0010654
0.000546237
0.000275753
0.000135111
6.41518e-05
2.97612e-05
1.39677e-05
7.06005e-06
4.08864e-06
2.78289e-06
2.13377e-06
1.73201e-06
1.41896e-06
1.13825e-06
8.93915e-07
6.8958e-07
5.19649e-07
3.7523e-07
2.62303e-07
1.77548e-07
1.16561e-07
7.45005e-08
4.63928e-08
2.82653e-08
1.68917e-08
9.92829e-09
5.74378e-09
3.27678e-09
1.84551e-09
1.02713e-09
5.65407e-10
3.08221e-10
1.66364e-10
8.90162e-11
4.72492e-11
2.48985e-11
1.30294e-11
6.77444e-12
3.49969e-12
1.79515e-12
9.124e-13
4.57189e-13
2.23276e-13
1.0341e-13
4.2073e-14
9.72534e-15
0.720777
0.720712
0.720616
0.720472
0.720256
0.719933
0.719457
0.718761
0.717761
0.716349
0.714399
0.711755
0.708227
0.703589
0.697601
0.690024
0.680605
0.669164
0.656138
0.640897
0.623813
0.604833
0.58412
0.5612
0.53763
0.513014
0.487602
0.461114
0.434806
0.408033
0.381348
0.355208
0.329385
0.304125
0.279451
0.255539
0.232506
0.210385
0.189199
0.168963
0.149469
0.130945
0.113599
0.0969501
0.0812675
0.0665722
0.0531687
0.0408564
0.0297701
0.0201293
0.0122852
0.00676467
0.00369538
0.001993
0.00105624
0.000546983
0.00027579
0.000134976
6.40225e-05
2.96789e-05
1.39264e-05
7.04282e-06
4.083e-06
2.78179e-06
2.13417e-06
1.73213e-06
1.41866e-06
1.13761e-06
8.93074e-07
6.88972e-07
5.19e-07
3.74611e-07
2.61767e-07
1.77121e-07
1.16246e-07
7.42816e-08
4.6247e-08
2.81725e-08
1.68345e-08
9.89391e-09
5.72351e-09
3.26504e-09
1.83883e-09
1.02339e-09
5.6334e-10
3.07095e-10
1.65757e-10
8.86918e-11
4.70776e-11
2.48086e-11
1.29826e-11
6.75028e-12
3.48731e-12
1.78886e-12
9.09228e-13
4.55611e-13
2.2251e-13
1.03057e-13
4.19295e-14
9.69219e-15
0.720777
0.720712
0.720617
0.720473
0.720256
0.719934
0.719458
0.718763
0.717763
0.716352
0.714403
0.71176
0.708235
0.703599
0.697615
0.690041
0.680626
0.669188
0.656165
0.640931
0.62385
0.604872
0.58416
0.561241
0.53767
0.513053
0.487638
0.461146
0.434834
0.408056
0.381365
0.35522
0.329391
0.304124
0.279443
0.255526
0.232487
0.21036
0.189169
0.168929
0.14943
0.130902
0.113553
0.0969004
0.0812148
0.0665172
0.0531128
0.0408012
0.0297178
0.0200832
0.0122506
0.00674539
0.00368318
0.00198562
0.00105172
0.000544572
0.000274756
0.000134521
6.38181e-05
2.95886e-05
1.38888e-05
7.02848e-06
4.07833e-06
2.78075e-06
2.13437e-06
1.73222e-06
1.41849e-06
1.13721e-06
8.92532e-07
6.88584e-07
5.18578e-07
3.74208e-07
2.61418e-07
1.7684e-07
1.16034e-07
7.41332e-08
4.61486e-08
2.81096e-08
1.67955e-08
9.87048e-09
5.70975e-09
3.25713e-09
1.83436e-09
1.0209e-09
5.61972e-10
3.06354e-10
1.65359e-10
8.84805e-11
4.69662e-11
2.47505e-11
1.29524e-11
6.73465e-12
3.47926e-12
1.78474e-12
9.0714e-13
4.54568e-13
2.22001e-13
1.02822e-13
4.18338e-14
9.67008e-15
0.720777
0.720712
0.720617
0.720473
0.720256
0.719934
0.719458
0.718763
0.717764
0.716353
0.714404
0.711763
0.708238
0.703604
0.697621
0.690049
0.680635
0.669199
0.656178
0.640948
0.623868
0.604892
0.58418
0.561261
0.537689
0.513072
0.487656
0.461162
0.434847
0.408067
0.381373
0.355225
0.329393
0.304122
0.279439
0.255519
0.232477
0.210348
0.189155
0.168912
0.149411
0.130882
0.11353
0.0968762
0.0811892
0.066491
0.0530872
0.0407778
0.0296986
0.0200704
0.0122449
0.00673981
0.00368129
0.00198535
0.00105276
0.000542286
0.000273605
0.00013396
6.35557e-05
2.94723e-05
1.38413e-05
7.01073e-06
4.07218e-06
2.77872e-06
2.1338e-06
1.73196e-06
1.41826e-06
1.13695e-06
8.92246e-07
6.88387e-07
5.18373e-07
3.74015e-07
2.6125e-07
1.76704e-07
1.15929e-07
7.40565e-08
4.60952e-08
2.80746e-08
1.67735e-08
9.85724e-09
5.70195e-09
3.25264e-09
1.83183e-09
1.0195e-09
5.61202e-10
3.05939e-10
1.65137e-10
8.83633e-11
4.69049e-11
2.47187e-11
1.29361e-11
6.7263e-12
3.47503e-12
1.78261e-12
9.06068e-13
4.54036e-13
2.21744e-13
1.02703e-13
4.17857e-14
9.65896e-15
0.720777
0.720712
0.720617
0.720473
0.720256
0.719934
0.719458
0.718763
0.717764
0.716353
0.714405
0.711763
0.708238
0.703604
0.697621
0.690049
0.680636
0.669199
0.656178
0.640948
0.623868
0.604892
0.58418
0.561261
0.537689
0.513072
0.487656
0.461162
0.434847
0.408066
0.381373
0.355224
0.329392
0.304122
0.279439
0.255519
0.232477
0.210348
0.189155
0.168912
0.149412
0.130882
0.11353
0.0968757
0.0811882
0.0664896
0.0530857
0.040777
0.0297001
0.0200785
0.0122701
0.00669575
0.00366061
0.00197636
0.00105029
0.000538554
0.000271977
0.000133265
6.32654e-05
2.93543e-05
1.37943e-05
6.992e-06
4.06468e-06
2.77568e-06
2.13256e-06
1.73142e-06
1.41802e-06
1.13683e-06
8.92189e-07
6.88359e-07
5.18362e-07
3.74011e-07
2.61249e-07
1.76702e-07
1.15926e-07
7.40539e-08
4.60929e-08
2.80728e-08
1.67723e-08
9.8564e-09
5.70144e-09
3.25234e-09
1.83165e-09
1.0194e-09
5.61151e-10
3.05911e-10
1.65123e-10
8.83562e-11
4.69014e-11
2.4717e-11
1.29353e-11
6.72593e-12
3.47486e-12
1.78253e-12
9.06035e-13
4.54022e-13
2.21738e-13
1.027e-13
4.17847e-14
9.65875e-15
0.720777
0.720712
0.720617
0.720473
0.720256
0.719934
0.719458
0.718763
0.717763
0.716352
0.714403
0.711761
0.708235
0.703599
0.697615
0.690042
0.680626
0.669188
0.656165
0.640932
0.623851
0.604873
0.584161
0.561241
0.53767
0.513053
0.487638
0.461145
0.434833
0.408055
0.381364
0.355219
0.32939
0.304123
0.279443
0.255526
0.232488
0.210361
0.189171
0.168931
0.149432
0.130904
0.113553
0.0968999
0.0812128
0.0665138
0.0531085
0.0407968
0.0297142
0.0200817
0.0122522
0.00674137
0.00368238
0.0019868
0.00105528
0.000540527
0.000272775
0.000133592
6.34008e-05
2.94096e-05
1.38157e-05
6.99965e-06
4.06705e-06
2.77623e-06
2.13249e-06
1.73137e-06
1.41806e-06
1.13698e-06
8.9241e-07
6.88518e-07
5.18549e-07
3.74197e-07
2.61413e-07
1.76836e-07
1.16028e-07
7.41249e-08
4.61405e-08
2.81033e-08
1.67911e-08
9.86774e-09
5.7081e-09
3.25618e-09
1.83383e-09
1.02061e-09
5.61817e-10
3.06273e-10
1.65317e-10
8.84597e-11
4.6956e-11
2.47456e-11
1.29501e-11
6.73359e-12
3.47879e-12
1.78454e-12
9.07051e-13
4.54529e-13
2.21985e-13
1.02815e-13
4.18313e-14
9.66952e-15
0.720777
0.720712
0.720616
0.720472
0.720256
0.719933
0.719457
0.718761
0.717761
0.716349
0.714399
0.711755
0.708228
0.703589
0.697602
0.690025
0.680606
0.669164
0.656138
0.640897
0.623813
0.604833
0.584119
0.561199
0.537629
0.513013
0.487601
0.461112
0.434805
0.408031
0.381346
0.355207
0.329384
0.304124
0.27945
0.25554
0.232507
0.210387
0.189202
0.168966
0.149473
0.130948
0.113601
0.0969504
0.0812656
0.0665683
0.0531638
0.040852
0.0297686
0.0201346
0.012303
0.00674344
0.00368666
0.00199052
0.00105791
0.000542121
0.000273684
0.000134087
6.36572e-05
2.95337e-05
1.38705e-05
7.02163e-06
4.07475e-06
2.77835e-06
2.1326e-06
1.73133e-06
1.41821e-06
1.13734e-06
8.92911e-07
6.88873e-07
5.18946e-07
3.74587e-07
2.6176e-07
1.77114e-07
1.16236e-07
7.4273e-08
4.62403e-08
2.81675e-08
1.6831e-08
9.89175e-09
5.72224e-09
3.26433e-09
1.83845e-09
1.02319e-09
5.63236e-10
3.07043e-10
1.65731e-10
8.86793e-11
4.70716e-11
2.48059e-11
1.29813e-11
6.74967e-12
3.48701e-12
1.78871e-12
9.09156e-13
4.55576e-13
2.22493e-13
1.03049e-13
4.19266e-14
9.69153e-15
0.720777
0.720712
0.720616
0.720472
0.720255
0.719932
0.719456
0.718759
0.717758
0.716345
0.714393
0.711747
0.708216
0.703574
0.697582
0.69
0.680575
0.669128
0.656097
0.640844
0.623755
0.60477
0.584054
0.561134
0.537564
0.512951
0.487543
0.46106
0.434759
0.407992
0.381316
0.355186
0.329373
0.304123
0.279459
0.255558
0.232536
0.210425
0.189248
0.16902
0.149534
0.131016
0.113673
0.0970278
0.081347
0.0666527
0.0532495
0.040938
0.0298528
0.0202147
0.0123782
0.0067591
0.00369511
0.00199526
0.00106068
0.000544033
0.000274731
0.000134649
6.39507e-05
2.9678e-05
1.39364e-05
7.04938e-06
4.08525e-06
2.78149e-06
2.1328e-06
1.73123e-06
1.41839e-06
1.13788e-06
8.937e-07
6.89445e-07
5.19579e-07
3.75197e-07
2.62279e-07
1.77529e-07
1.1655e-07
7.44934e-08
4.63882e-08
2.82626e-08
1.68902e-08
9.92746e-09
5.74331e-09
3.27652e-09
1.84537e-09
1.02706e-09
5.65368e-10
3.082e-10
1.66353e-10
8.901e-11
4.72458e-11
2.48967e-11
1.30284e-11
6.77389e-12
3.4994e-12
1.795e-12
9.12323e-13
4.57151e-13
2.23258e-13
1.03402e-13
4.20697e-14
9.72459e-15
0.720777
0.720712
0.720616
0.720472
0.720255
0.719931
0.719454
0.718757
0.717754
0.716339
0.714385
0.711735
0.7082
0.703553
0.697554
0.689965
0.680533
0.669077
0.656038
0.640768
0.62367
0.60468
0.58396
0.56104
0.537472
0.512861
0.487458
0.460984
0.434692
0.407934
0.38127
0.355153
0.329353
0.304117
0.279467
0.25558
0.232571
0.210472
0.189307
0.16909
0.149614
0.131104
0.113769
0.0971307
0.0814554
0.0667649
0.0533625
0.0410481
0.0299547
0.0202991
0.0124262
0.00684067
0.00373671
0.00201551
0.00106837
0.000553053
0.000279003
0.000136647
6.48631e-05
3.00792e-05
1.41013e-05
7.11295e-06
4.10785e-06
2.78853e-06
2.13401e-06
1.7314e-06
1.41871e-06
1.1386e-06
8.94702e-07
6.90182e-07
5.20382e-07
3.75968e-07
2.62965e-07
1.78086e-07
1.16965e-07
7.47836e-08
4.65826e-08
2.83876e-08
1.69679e-08
9.9744e-09
5.77105e-09
3.29257e-09
1.85449e-09
1.03216e-09
5.6818e-10
3.09728e-10
1.67174e-10
8.94468e-11
4.74758e-11
2.50167e-11
1.30906e-11
6.8059e-12
3.51577e-12
1.80332e-12
9.16514e-13
4.59235e-13
2.2427e-13
1.03869e-13
4.22592e-14
9.76834e-15
0.720777
0.720712
0.720616
0.720471
0.720254
0.71993
0.719451
0.718753
0.717749
0.716332
0.714374
0.71172
0.70818
0.703526
0.697517
0.689919
0.680477
0.669011
0.655963
0.640672
0.623567
0.604569
0.583844
0.560921
0.537353
0.512746
0.487347
0.460882
0.4346
0.407853
0.381205
0.355104
0.32932
0.304102
0.27947
0.255599
0.232607
0.210524
0.189374
0.169171
0.149709
0.131211
0.113888
0.0972586
0.0815904
0.0669048
0.053503
0.041185
0.030082
0.0204076
0.012504
0.00689097
0.00376686
0.0020341
0.0010814
0.000554686
0.000280443
0.000137607
6.54197e-05
3.03662e-05
1.42343e-05
7.16861e-06
4.12852e-06
2.79482e-06
2.13476e-06
1.73145e-06
1.41912e-06
1.13957e-06
8.96059e-07
6.91184e-07
5.21487e-07
3.77011e-07
2.6386e-07
1.78798e-07
1.17493e-07
7.51509e-08
4.68278e-08
2.85447e-08
1.70654e-08
1.00332e-08
5.80571e-09
3.3126e-09
1.86586e-09
1.03851e-09
5.71676e-10
3.11625e-10
1.68193e-10
8.99884e-11
4.77609e-11
2.51653e-11
1.31676e-11
6.84552e-12
3.53603e-12
1.81361e-12
9.21697e-13
4.61813e-13
2.25521e-13
1.04446e-13
4.24935e-14
9.82244e-15
0.720777
0.720711
0.720615
0.72047
0.720252
0.719928
0.719448
0.718749
0.717742
0.716322
0.71436
0.711701
0.708153
0.70349
0.697469
0.68986
0.680405
0.668927
0.655863
0.640545
0.623429
0.60442
0.583686
0.560761
0.537192
0.512591
0.4872
0.460747
0.434478
0.407744
0.381115
0.355033
0.329269
0.304072
0.279462
0.255614
0.232642
0.21058
0.189449
0.169264
0.149819
0.131336
0.114026
0.097411
0.0817549
0.067077
0.0536776
0.0413566
0.0302436
0.0205507
0.0126174
0.00695791
0.00380404
0.0020549
0.00109321
0.000560664
0.000283677
0.000139314
6.6291e-05
3.07899e-05
1.44236e-05
7.24638e-06
4.15737e-06
2.80373e-06
2.13609e-06
1.73174e-06
1.41984e-06
1.14093e-06
8.97839e-07
6.92494e-07
5.22861e-07
3.78313e-07
2.64976e-07
1.79679e-07
1.18143e-07
7.56014e-08
4.71275e-08
2.87362e-08
1.71839e-08
1.01044e-08
5.8476e-09
3.33675e-09
1.87953e-09
1.04613e-09
5.75863e-10
3.13893e-10
1.69409e-10
9.06335e-11
4.81001e-11
2.53419e-11
1.3259e-11
6.8925e-12
3.56003e-12
1.8258e-12
9.27834e-13
4.64864e-13
2.27002e-13
1.05129e-13
4.27707e-14
9.88644e-15
0.720777
0.720711
0.720615
0.720469
0.720251
0.719925
0.719445
0.718743
0.717734
0.71631
0.714343
0.711677
0.708121
0.703448
0.697413
0.689786
0.680313
0.668817
0.655738
0.640384
0.623255
0.604237
0.583495
0.560563
0.536994
0.512393
0.487009
0.460569
0.434314
0.407595
0.380988
0.354929
0.32919
0.30402
0.279438
0.255617
0.232672
0.210635
0.189529
0.169367
0.149944
0.13148
0.114188
0.0975893
0.0819442
0.0672749
0.0538793
0.0415574
0.0304362
0.0207251
0.0127576
0.0070364
0.00384955
0.00208108
0.001108
0.000568575
0.00028782
0.000141449
6.73604e-05
3.12994e-05
1.4652e-05
7.34101e-06
4.19319e-06
2.81558e-06
2.13851e-06
1.73259e-06
1.42099e-06
1.14274e-06
9.00103e-07
6.94151e-07
5.2457e-07
3.7991e-07
2.66334e-07
1.80747e-07
1.18929e-07
7.61438e-08
4.7487e-08
2.8965e-08
1.73248e-08
1.01888e-08
5.89703e-09
3.36514e-09
1.89556e-09
1.05504e-09
5.8074e-10
3.16527e-10
1.70818e-10
9.13796e-11
4.84916e-11
2.55453e-11
1.33641e-11
6.94648e-12
3.58759e-12
1.83978e-12
9.34868e-13
4.68359e-13
2.28698e-13
1.05911e-13
4.3088e-14
9.95969e-15
0.720777
0.720711
0.720614
0.720468
0.720249
0.719923
0.71944
0.718737
0.717725
0.716296
0.714323
0.71165
0.708084
0.703399
0.697349
0.689707
0.680214
0.668695
0.655594
0.640198
0.623045
0.604006
0.583243
0.560305
0.536726
0.512124
0.486753