/*--------------------------------*- C++ -*----------------------------------*\
  =========                 |
  \\      /  F ield         | OpenFOAM: The Open Source CFD Toolbox
   \\    /   O peration     | Website:  https://openfoam.org
    \\  /    A nd           | Version:  10
     \\/     M anipulation  |
\*---------------------------------------------------------------------------*/
FoamFile
{
    format      ascii;
    class       volScalarField;
    location    "1";
    object      NNH;
}
// * * * * * * * * * * * * * * * * * * * * * * * * * * * * * * * * * * * * * //

dimensions      [0 0 0 0 0 0 0];

internalField   nonuniform List<scalar> 
4000
(
5.7146e-23
3.75474e-22
1.35e-21
4.01193e-21
1.07641e-20
2.71677e-20
6.59439e-20
1.55885e-19
3.61528e-19
8.26445e-19
1.86989e-18
4.21071e-18
9.49601e-18
2.15456e-17
4.92266e-17
1.12617e-16
2.58063e-16
5.87649e-16
1.29044e-15
2.86088e-15
6.10166e-15
1.28343e-14
2.67935e-14
5.35733e-14
1.04341e-13
1.97959e-13
3.68227e-13
6.76623e-13
1.22248e-12
2.20586e-12
3.96225e-12
7.09074e-12
1.26804e-11
2.25536e-11
3.97042e-11
6.88625e-11
1.16769e-10
1.9278e-10
3.09378e-10
4.8354e-10
7.42047e-10
1.11557e-09
1.6409e-09
2.36377e-09
3.34658e-09
4.60283e-09
6.08911e-09
7.67854e-09
9.10395e-09
9.89752e-09
9.46752e-09
7.52008e-09
5.40497e-09
3.91845e-09
2.64341e-09
1.6532e-09
9.67747e-10
5.36315e-10
2.83284e-10
1.44414e-10
7.34044e-11
3.88465e-11
2.0546e-11
1.01056e-11
4.41862e-12
1.66024e-12
5.45943e-13
1.58758e-13
3.90758e-14
8.31995e-15
1.60842e-15
2.5943e-16
3.63152e-17
4.46766e-18
4.89556e-19
4.90891e-20
4.60012e-21
4.11262e-22
3.56226e-23
3.01997e-24
2.53344e-25
2.55552e-26
3.46103e-27
6.8318e-28
1.71783e-28
4.72453e-29
1.32564e-29
3.70856e-30
1.02898e-30
2.83214e-31
7.70054e-32
2.07365e-32
5.53124e-33
1.45931e-33
3.79322e-34
9.62853e-35
2.34142e-35
5.22798e-36
9.67798e-37
9.26643e-38
5.65891e-23
3.71768e-22
1.33656e-21
3.9721e-21
1.06574e-20
2.68936e-20
6.52578e-20
1.54173e-19
3.57214e-19
8.15415e-19
1.84133e-18
4.13636e-18
9.29887e-18
2.10343e-17
4.79332e-17
1.09399e-16
2.49754e-16
5.66957e-16
1.24433e-15
2.76473e-15
5.89627e-15
1.23788e-14
2.58596e-14
5.19149e-14
1.01392e-13
1.93024e-13
3.59912e-13
6.64284e-13
1.20275e-12
2.1755e-12
3.91595e-12
7.01458e-12
1.25671e-11
2.24099e-11
3.95412e-11
6.87223e-11
1.1678e-10
1.93195e-10
3.10615e-10
4.86224e-10
7.47055e-10
1.12417e-09
1.65448e-09
2.38479e-09
3.37748e-09
4.64557e-09
6.14268e-09
7.73932e-09
9.16198e-09
9.93243e-09
9.45199e-09
7.44784e-09
5.36392e-09
3.87606e-09
2.60514e-09
1.62512e-09
9.43956e-10
5.2175e-10
2.7492e-10
1.4005e-10
7.09484e-11
3.7622e-11
1.98485e-11
9.69236e-12
4.18514e-12
1.56254e-12
5.08688e-13
1.46235e-13
3.54282e-14
7.44403e-15
1.42036e-15
2.27094e-16
3.158e-17
3.84678e-18
4.21042e-19
4.22268e-20
3.9674e-21
3.55946e-22
3.09556e-23
2.63511e-24
2.22077e-25
2.31298e-26
3.3063e-27
6.85794e-28
1.7757e-28
4.9559e-29
1.40184e-29
3.93728e-30
1.09316e-30
2.99547e-31
8.14779e-32
2.19107e-32
5.82968e-33
1.53307e-33
3.97035e-34
1.00401e-34
2.43275e-35
5.41509e-36
1.00016e-36
9.5653e-38
5.60708e-23
3.68436e-22
1.32489e-21
3.93826e-21
1.05687e-20
2.66742e-20
6.47063e-20
1.52747e-19
3.53426e-19
8.05104e-19
1.81266e-18
4.05531e-18
9.08569e-18
2.04848e-17
4.65336e-17
1.05929e-16
2.41542e-16
5.46263e-16
1.19572e-15
2.65342e-15
5.6589e-15
1.19075e-14
2.47869e-14
5.04732e-14
9.85527e-14
1.87962e-13
3.51054e-13
6.49628e-13
1.17852e-12
2.13719e-12
3.85631e-12
6.92453e-12
1.24395e-11
2.22381e-11
3.93664e-11
6.86222e-11
1.16958e-10
1.94042e-10
3.12798e-10
4.90868e-10
7.55427e-10
1.13816e-09
1.67674e-09
2.41946e-09
3.42823e-09
4.71531e-09
6.22979e-09
7.83783e-09
9.25107e-09
9.97884e-09
9.41147e-09
7.30851e-09
5.28758e-09
3.80313e-09
2.54032e-09
1.5767e-09
9.11511e-10
5.01674e-10
2.63454e-10
1.34215e-10
6.76503e-11
3.60183e-11
1.89369e-11
9.15154e-12
3.89561e-12
1.43944e-12
4.62066e-13
1.30982e-13
3.10919e-14
6.44835e-15
1.21684e-15
1.92638e-16
2.6679e-17
3.25382e-18
3.56085e-19
3.5782e-20
3.36995e-21
3.0326e-22
2.64601e-23
2.25267e-24
1.9008e-25
2.05036e-26
3.10924e-27
6.77813e-28
1.79694e-28
5.06427e-29
1.4401e-29
4.06069e-30
1.13149e-30
3.11373e-31
8.46657e-32
2.27832e-32
6.06372e-33
1.59402e-33
4.12436e-34
1.04161e-34
2.52019e-35
5.60196e-36
1.03354e-36
9.87945e-38
5.53408e-23
3.63618e-22
1.30729e-21
3.88457e-21
1.04189e-20
2.62753e-20
6.36814e-20
1.5017e-19
3.47037e-19
7.89441e-19
1.77473e-18
3.96494e-18
8.86405e-18
1.99352e-17
4.51709e-17
1.02598e-16
2.3353e-16
5.28593e-16
1.15688e-15
2.56017e-15
5.45865e-15
1.14893e-14
2.39369e-14
4.89501e-14
9.59241e-14
1.83406e-13
3.43013e-13
6.36476e-13
1.15722e-12
2.10454e-12
3.80682e-12
6.85063e-12
1.23391e-11
2.21159e-11
3.92802e-11
6.86841e-11
1.17433e-10
1.9542e-10
3.1596e-10
4.96874e-10
7.66291e-10
1.15661e-09
1.70614e-09
2.4638e-09
3.4924e-09
4.80278e-09
6.33732e-09
7.95916e-09
9.36287e-09
1.00365e-08
9.36166e-09
7.14534e-09
5.19e-09
3.71292e-09
2.46275e-09
1.51707e-09
8.71844e-10
4.76978e-10
2.492e-10
1.26636e-10
6.39949e-11
3.41797e-11
1.7883e-11
8.56123e-12
3.59309e-12
1.30444e-12
4.12904e-13
1.15398e-13
2.70303e-14
5.52713e-15
1.03175e-15
1.61832e-16
2.20648e-17
2.65348e-18
2.87121e-19
2.86144e-20
2.67865e-21
2.40053e-22
2.08901e-23
1.78939e-24
1.52043e-25
1.72923e-26
2.83315e-27
6.53998e-28
1.78001e-28
5.07291e-29
1.45092e-29
4.10476e-30
1.14644e-30
3.16095e-31
8.61318e-32
2.31912e-32
6.17308e-33
1.6227e-33
4.19797e-34
1.05997e-34
2.56403e-35
5.69843e-36
1.05126e-36
1.00484e-37
5.46343e-23
3.58963e-22
1.29048e-21
3.8342e-21
1.02819e-20
2.59226e-20
6.28021e-20
1.48017e-19
3.41812e-19
7.76791e-19
1.74404e-18
3.8902e-18
8.68136e-18
1.94876e-17
4.40751e-17
9.99484e-17
2.2718e-16
5.13649e-16
1.12305e-15
2.485e-15
5.30294e-15
1.1169e-14
2.32487e-14
4.76835e-14
9.35623e-14
1.79115e-13
3.35991e-13
6.25245e-13
1.13971e-12
2.07798e-12
3.77025e-12
6.80056e-12
1.22797e-11
2.206e-11
3.93023e-11
6.89223e-11
1.18188e-10
1.97264e-10
3.19743e-10
5.04142e-10
7.78736e-10
1.17701e-09
1.73821e-09
2.51201e-09
3.56163e-09
4.89612e-09
6.44981e-09
8.08117e-09
9.46904e-09
1.00783e-08
9.27996e-09
6.952e-09
5.07245e-09
3.61077e-09
2.3794e-09
1.45724e-09
8.3398e-10
4.54093e-10
2.36295e-10
1.19888e-10
6.08914e-11
3.26084e-11
1.69528e-11
8.00947e-12
3.31036e-12
1.18391e-12
3.70042e-13
1.0214e-13
2.35944e-14
4.75426e-15
8.7851e-16
1.35568e-16
1.82975e-17
2.18362e-18
2.3511e-19
2.3372e-20
2.18569e-21
1.95902e-22
1.70616e-23
1.45673e-24
1.23757e-25
1.48626e-26
2.60957e-27
6.30231e-28
1.74808e-28
5.02355e-29
1.44386e-29
4.09809e-30
1.14741e-30
3.16969e-31
8.65079e-32
2.33156e-32
6.20976e-33
1.6328e-33
4.22437e-34
1.06658e-34
2.57977e-35
5.73285e-36
1.05755e-36
1.01082e-37
5.39404e-23
3.54361e-22
1.27378e-21
3.78402e-21
1.01454e-20
2.55719e-20
6.19317e-20
1.45903e-19
3.36738e-19
7.6468e-19
1.71514e-18
3.8212e-18
8.51654e-18
1.90942e-17
4.31396e-17
9.77586e-17
2.22122e-16
5.02239e-16
1.09836e-15
2.42747e-15
5.18154e-15
1.09168e-14
2.2684e-14
4.66178e-14
9.15831e-14
1.75859e-13
3.3058e-13
6.1674e-13
1.1265e-12
2.06007e-12
3.74811e-12
6.77624e-12
1.22601e-11
2.20728e-11
3.94264e-11
6.93276e-11
1.19211e-10
1.99481e-10
3.24119e-10
5.11922e-10
7.92092e-10
1.19893e-09
1.77144e-09
2.56107e-09
3.63132e-09
4.98955e-09
6.5626e-09
8.20423e-09
9.57292e-09
1.01151e-08
9.19385e-09
6.76351e-09
4.95079e-09
3.50721e-09
2.29648e-09
1.39564e-09
7.94642e-10
4.30143e-10
2.22735e-10
1.12884e-10
5.77878e-11
3.10277e-11
1.60772e-11
7.52154e-12
3.07202e-12
1.08538e-12
3.36946e-13
8.96686e-14
2.04936e-14
4.09709e-15
7.45764e-16
1.13867e-16
1.52407e-17
1.80783e-18
1.93865e-19
1.92328e-20
1.79704e-21
1.61084e-22
1.404e-23
1.20133e-24
1.07798e-25
1.33318e-26
2.43293e-27
6.03118e-28
1.69787e-28
4.91649e-29
1.41988e-29
4.04285e-30
1.13465e-30
3.14027e-31
8.58406e-32
2.31599e-32
6.17158e-33
1.62352e-33
4.202e-34
1.06125e-34
2.56743e-35
5.70633e-36
1.05277e-36
1.00632e-37
5.32936e-23
3.5006e-22
1.25817e-21
3.73719e-21
1.00184e-20
2.52472e-20
6.11312e-20
1.43973e-19
3.32148e-19
7.53821e-19
1.68947e-18
3.76041e-18
8.3725e-18
1.87527e-17
4.23315e-17
9.58698e-17
2.17746e-16
4.92277e-16
1.07647e-15
2.37604e-15
5.07517e-15
1.0708e-14
2.22198e-14
4.57314e-14
9.00839e-14
1.73381e-13
3.26617e-13
6.10835e-13
1.11791e-12
2.04919e-12
3.73668e-12
6.76856e-12
1.22704e-11
2.21341e-11
3.96194e-11
6.9822e-11
1.20337e-10
2.01786e-10
3.2846e-10
5.19692e-10
8.05451e-10
1.22035e-09
1.80402e-09
2.60896e-09
3.69857e-09
5.07783e-09
6.66497e-09
8.31024e-09
9.67078e-09
1.01407e-08
9.09561e-09
6.55677e-09
4.81982e-09
3.40235e-09
2.2173e-09
1.33533e-09
7.5841e-10
4.09033e-10
2.11151e-10
1.06736e-10
5.54773e-11
2.98156e-11
1.53376e-11
7.10763e-12
2.87273e-12
1.00474e-12
3.0909e-13
8.13534e-14
1.843e-14
3.64472e-15
6.58117e-16
9.96261e-17
1.32422e-17
1.56163e-18
1.66754e-19
1.65008e-20
1.53939e-21
1.37895e-22
1.20179e-23
1.02947e-24
9.73286e-26
1.23064e-26
2.30511e-27
5.80291e-28
1.64262e-28
4.76921e-29
1.38018e-29
3.93694e-30
1.10692e-30
3.06898e-31
8.40474e-32
2.27167e-32
6.06651e-33
1.59842e-33
4.14164e-34
1.04679e-34
2.53371e-35
5.63313e-36
1.03945e-36
9.93659e-38
5.27031e-23
3.46126e-22
1.24388e-21
3.69434e-21
9.90238e-21
2.49513e-20
6.04045e-20
1.4223e-19
3.28028e-19
7.44146e-19
1.66677e-18
3.70711e-18
8.2473e-18
1.84584e-17
4.16405e-17
9.4268e-17
2.14067e-16
4.83981e-16
1.05843e-15
2.33322e-15
4.99037e-15
1.05333e-14
2.18697e-14
4.51111e-14
8.90066e-14
1.71538e-13
3.23706e-13
6.06602e-13
1.11249e-12
2.04356e-12
3.73352e-12
6.77455e-12
1.23025e-11
2.22318e-11
3.98672e-11
7.03995e-11
1.21544e-10
2.04151e-10
3.32777e-10
5.27135e-10
8.1744e-10
1.23917e-09
1.83228e-09
2.65046e-09
3.75733e-09
5.15644e-09
6.76053e-09
8.41239e-09
9.75044e-09
1.01619e-08
9.01879e-09
6.36479e-09
4.69758e-09
3.3077e-09
2.14966e-09
1.28178e-09
7.26551e-10
3.90624e-10
2.0102e-10
1.0163e-10
5.31252e-11
2.85924e-11
1.46565e-11
6.73342e-12
2.6905e-12
9.32374e-13
2.84698e-13
7.3696e-14
1.65639e-14
3.25148e-15
5.83567e-16
8.7844e-17
1.1598e-17
1.35965e-18
1.44526e-19
1.42586e-20
1.3275e-21
1.18772e-22
1.03451e-23
8.86672e-25
8.76955e-26
1.13426e-26
2.18088e-27
5.57524e-28
1.5888e-28
4.62892e-29
1.34043e-29
3.83003e-30
1.07843e-30
2.99366e-31
8.20804e-32
2.2202e-32
5.93114e-33
1.56342e-33
4.05292e-34
1.02487e-34
2.48183e-35
5.52007e-36
1.01891e-36
9.74189e-38
5.21799e-23
3.42637e-22
1.23121e-21
3.6564e-21
9.79988e-21
2.46908e-20
5.9767e-20
1.40709e-19
3.24452e-19
7.35799e-19
1.64731e-18
3.66174e-18
8.14146e-18
1.82115e-17
4.10663e-17
9.29528e-17
2.11094e-16
4.77421e-16
1.04464e-15
2.29999e-15
4.92107e-15
1.03992e-14
2.16012e-14
4.46065e-14
8.81363e-14
1.70194e-13
3.21747e-13
6.04068e-13
1.10963e-12
2.04174e-12
3.73666e-12
6.79103e-12
1.23513e-11
2.23547e-11
4.01545e-11
7.10156e-11
1.22792e-10
2.06539e-10
3.37104e-10
5.34668e-10
8.29968e-10
1.25887e-09
1.86157e-09
2.69274e-09
3.81568e-09
5.23102e-09
6.84794e-09
8.50229e-09
9.81538e-09
1.01695e-08
8.93106e-09
6.22655e-09
4.60147e-09
3.22898e-09
2.08891e-09
1.24234e-09
7.01011e-10
3.75331e-10
1.92634e-10
9.74366e-11
5.11432e-11
2.75684e-11
1.40735e-11
6.41374e-12
2.53399e-12
8.67616e-13
2.62188e-13
6.71586e-14
1.49532e-14
2.90119e-15
5.1505e-16
7.68426e-17
1.00745e-17
1.17496e-18
1.24441e-19
1.22518e-20
1.13929e-21
1.01888e-22
8.87528e-24
7.61238e-25
7.66516e-26
1.028e-26
2.05147e-27
5.34882e-28
1.53598e-28
4.49031e-29
1.30256e-29
3.72644e-30
1.05034e-30
2.91826e-31
8.00859e-32
2.16763e-32
5.79372e-33
1.52785e-33
3.96208e-34
1.00219e-34
2.42747e-35
5.40014e-36
9.969e-37
9.53182e-38
5.17258e-23
3.39608e-22
1.22021e-21
3.6235e-21
9.71115e-21
2.44657e-20
5.92182e-20
1.39404e-19
3.21399e-19
7.28711e-19
1.63088e-18
3.62359e-18
8.05264e-18
1.80041e-17
4.05814e-17
9.18319e-17
2.08517e-16
4.71615e-16
1.03195e-15
2.26994e-15
4.86288e-15
1.02833e-14
2.13887e-14
4.42501e-14
8.75428e-14
1.69261e-13
3.20437e-13
6.02599e-13
1.10846e-12
2.04249e-12
3.74379e-12
6.8134e-12
1.24086e-11
2.24903e-11
4.04496e-11
7.16316e-11
1.24015e-10
2.08838e-10
3.41221e-10
5.41594e-10
8.41272e-10
1.27657e-09
1.88784e-09
2.73069e-09
3.86757e-09
5.29798e-09
6.92685e-09
8.58069e-09
9.86474e-09
1.01619e-08
8.83513e-09
6.10862e-09
4.51923e-09
3.16184e-09
2.03972e-09
1.20685e-09
6.79366e-10
3.63028e-10
1.86071e-10
9.42179e-11
4.96015e-11
2.6734e-11
1.35983e-11
6.18242e-12
2.38012e-12
8.09942e-13
2.43181e-13
6.18643e-14
1.36742e-14
2.64064e-15
4.65657e-16
6.89869e-17
8.99093e-18
1.04399e-18
1.10218e-19
1.08313e-20
1.00601e-21
8.99204e-23
7.8314e-24
6.71993e-25
6.8697e-26
9.48826e-27
1.94812e-27
5.15304e-28
1.48793e-28
4.36074e-29
1.26663e-29
3.62716e-30
1.02319e-30
2.84489e-31
7.81199e-32
2.11553e-32
5.6571e-33
1.49242e-33
3.87155e-34
9.79569e-35
2.37318e-35
5.28022e-36
9.74859e-37
9.32151e-38
5.13392e-23
3.37028e-22
1.21085e-21
3.59553e-21
9.63582e-21
2.42751e-20
5.87546e-20
1.38306e-19
3.18845e-19
7.22829e-19
1.61738e-18
3.59264e-18
7.9816e-18
1.78407e-17
4.01993e-17
9.0972e-17
2.06615e-16
4.67474e-16
1.02299e-15
2.24816e-15
4.81985e-15
1.01986e-14
2.12311e-14
4.39688e-14
8.7099e-14
1.68617e-13
3.19627e-13
6.01877e-13
1.1085e-12
2.04497e-12
3.75329e-12
6.83888e-12
1.24692e-11
2.26217e-11
4.07269e-11
7.21944e-11
1.25102e-10
2.10853e-10
3.448e-10
5.4763e-10
8.51105e-10
1.29198e-09
1.91087e-09
2.76455e-09
3.91437e-09
5.35848e-09
6.99626e-09
8.64961e-09
9.91167e-09
1.01621e-08
8.76781e-09
6.01772e-09
4.45319e-09
3.10562e-09
1.996e-09
1.17787e-09
6.61295e-10
3.52469e-10
1.80351e-10
9.1402e-11
4.82902e-11
2.60342e-11
1.31881e-11
5.95518e-12
2.27826e-12
7.68757e-13
2.29297e-13
5.78794e-14
1.27041e-14
2.44598e-15
4.29297e-16
6.32325e-17
8.19895e-18
9.48589e-19
9.98795e-20
9.79969e-21
9.09236e-22
8.12313e-23
7.07131e-24
6.06959e-25
6.28381e-26
8.88685e-27
1.86474e-27
4.98501e-28
1.44514e-28
4.24281e-29
1.23356e-29
3.53505e-30
9.97852e-31
2.77635e-31
7.62253e-32
2.06529e-32
5.52541e-33
1.4583e-33
3.78437e-34
9.57788e-35
2.32094e-35
5.16479e-36
9.53644e-37
9.11907e-38
5.10149e-23
3.34864e-22
1.203e-21
3.57212e-21
9.5729e-21
2.41163e-20
5.83696e-20
1.37398e-19
3.16742e-19
7.18011e-19
1.6064e-18
3.56763e-18
7.92453e-18
1.77101e-17
3.98935e-17
9.02882e-17
2.05075e-16
4.63996e-16
1.0155e-15
2.23074e-15
4.78497e-15
1.01339e-14
2.11146e-14
4.37712e-14
8.6787e-14
1.68187e-13
3.19147e-13
6.01653e-13
1.10923e-12
2.0483e-12
3.76352e-12
6.86412e-12
1.25263e-11
2.27459e-11
4.09836e-11
7.27045e-11
1.26069e-10
2.1263e-10
3.4784e-10
5.52612e-10
8.58946e-10
1.30369e-09
1.92725e-09
2.79963e-09
3.95868e-09
5.41313e-09
7.05853e-09
8.71126e-09
9.95732e-09
1.01686e-08
8.71644e-09
5.95799e-09
4.40517e-09
3.06298e-09
1.96297e-09
1.15533e-09
6.47074e-10
3.44155e-10
1.75835e-10
8.91826e-11
4.72416e-11
2.54541e-11
1.28457e-11
5.76532e-12
2.19622e-12
7.36843e-13
2.18673e-13
5.4872e-14
1.19708e-14
2.30509e-15
4.02937e-16
5.91851e-17
7.64225e-18
8.81287e-19
9.25575e-20
9.06631e-21
8.40178e-22
7.5007e-23
6.52624e-24
5.60159e-25
5.85572e-26
8.43084e-27
1.79741e-27
4.84151e-28
1.40751e-28
4.13743e-29
1.20376e-29
3.45154e-30
9.74757e-31
2.71351e-31
7.45057e-32
2.01949e-32
5.40487e-33
1.42695e-33
3.70405e-34
9.37677e-35
2.27261e-35
5.0579e-36
9.3398e-37
8.93139e-38
5.07465e-23
3.33074e-22
1.19652e-21
3.55278e-21
9.52099e-21
2.39855e-20
5.80533e-20
1.36654e-19
3.15025e-19
7.14095e-19
1.59752e-18
3.54756e-18
7.87927e-18
1.76082e-17
3.96592e-17
8.97665e-17
2.03888e-16
4.61394e-16
1.01005e-15
2.21761e-15
4.75951e-15
1.00858e-14
2.10256e-14
4.36204e-14
8.65559e-14
1.67892e-13
3.18893e-13
6.01769e-13
1.11043e-12
2.05215e-12
3.77402e-12
6.8889e-12
1.25812e-11
2.28646e-11
4.12268e-11
7.31819e-11
1.2698e-10
2.14265e-10
3.50655e-10
5.57262e-10
8.66391e-10
1.31518e-09
1.94443e-09
2.82491e-09
3.99259e-09
5.4555e-09
7.10661e-09
8.75846e-09
9.99117e-09
1.01746e-08
8.69269e-09
5.89843e-09
4.3616e-09
3.02608e-09
1.93453e-09
1.13593e-09
6.3489e-10
3.37131e-10
1.72057e-10
8.73355e-11
4.63493e-11
2.49665e-11
1.25604e-11
5.60863e-12
2.12951e-12
7.11193e-13
2.09998e-13
5.24358e-14
1.13786e-14
2.19228e-15
3.81369e-16
5.57589e-17
7.17551e-18
8.25198e-19
8.64888e-20
8.46106e-21
7.83371e-22
6.98994e-23
6.08026e-24
5.21928e-25
5.50511e-26
8.05326e-27
1.74047e-27
4.71772e-28
1.37466e-28
4.04477e-29
1.17742e-29
3.37741e-30
9.54172e-31
2.65724e-31
7.29833e-32
1.97881e-32
5.29742e-33
1.39892e-33
3.63208e-34
9.19618e-35
2.22915e-35
4.96165e-36
9.16256e-37
8.76208e-38
5.05269e-23
3.3161e-22
1.19121e-21
3.53697e-21
9.47857e-21
2.38787e-20
5.77949e-20
1.36046e-19
3.1362e-19
7.1088e-19
1.59019e-18
3.53086e-18
7.8412e-18
1.75213e-17
3.94555e-17
8.9298e-17
2.02865e-16
4.59224e-16
1.00569e-15
2.20727e-15
4.74031e-15
1.00495e-14
2.09615e-14
4.35173e-14
8.6413e-14
1.67737e-13
3.18836e-13
6.02131e-13
1.11187e-12
2.05614e-12
3.78393e-12
6.91085e-12
1.26327e-11
2.29713e-11
4.14447e-11
7.36099e-11
1.27784e-10
2.15714e-10
3.53152e-10
5.61396e-10
8.73047e-10
1.32556e-09
1.96001e-09
2.84735e-09
4.02294e-09
5.49369e-09
7.14994e-09
8.80057e-09
1.00204e-08
1.01753e-08
8.65532e-09
5.88546e-09
4.34126e-09
3.00196e-09
1.91411e-09
1.12182e-09
6.25933e-10
3.3186e-10
1.69217e-10
8.59326e-11
4.56683e-11
2.45801e-11
1.23298e-11
5.48178e-12
2.07565e-12
6.90375e-13
2.03097e-13
5.05077e-14
1.09155e-14
2.10393e-15
3.64838e-16
5.31739e-17
6.82361e-18
7.82889e-19
8.19068e-20
8.0035e-21
7.40365e-22
6.6027e-23
5.74163e-24
4.92853e-25
5.23578e-26
7.756e-27
1.6939e-27
4.61335e-28
1.34654e-28
3.96489e-29
1.15462e-29
3.31301e-30
9.36243e-31
2.60808e-31
7.16517e-32
1.94318e-32
5.20322e-33
1.37433e-33
3.56885e-34
9.03743e-35
2.19091e-35
4.87693e-36
9.0065e-37
8.613e-38
5.03506e-23
3.30435e-22
1.18696e-21
3.5243e-21
9.44459e-21
2.37932e-20
5.75884e-20
1.35561e-19
3.12499e-19
7.08316e-19
1.58435e-18
3.51754e-18
7.81081e-18
1.7452e-17
3.92934e-17
8.89514e-17
2.02123e-16
4.57642e-16
1.0024e-15
2.19933e-15
4.72491e-15
1.00216e-14
2.09132e-14
4.34445e-14
8.63198e-14
1.67665e-13
3.18902e-13
6.0266e-13
1.11356e-12
2.06052e-12
3.79462e-12
6.93506e-12
1.26796e-11
2.30683e-11
4.16364e-11
7.39788e-11
1.2847e-10
2.16948e-10
3.55282e-10
5.6493e-10
8.78727e-10
1.33422e-09
1.97269e-09
2.86533e-09
4.0472e-09
5.52427e-09
7.18479e-09
8.83465e-09
1.0044e-08
1.0175e-08
8.62381e-09
5.88268e-09
4.32975e-09
2.98584e-09
1.89939e-09
1.11117e-09
6.18945e-10
3.27714e-10
1.66953e-10
8.48345e-11
4.51363e-11
2.42716e-11
1.21438e-11
5.37923e-12
2.03229e-12
6.73775e-13
1.97638e-13
4.8979e-14
1.05505e-14
2.03397e-15
3.51878e-16
5.11515e-17
6.54856e-18
7.49869e-19
7.83351e-20
7.64709e-21
7.06881e-22
6.30124e-23
5.478e-24
4.70212e-25
5.02476e-26
7.51924e-27
1.65585e-27
4.52638e-28
1.32287e-28
3.89732e-29
1.13527e-29
3.25826e-30
9.20965e-31
2.56611e-31
7.05131e-32
1.91268e-32
5.12248e-33
1.35323e-33
3.51458e-34
8.90106e-35
2.15806e-35
4.80409e-36
8.87231e-37
8.48478e-38
5.02128e-23
3.29517e-22
1.18364e-21
3.51442e-21
9.41814e-21
2.37267e-20
5.74282e-20
1.35185e-19
3.11634e-19
7.06344e-19
1.57987e-18
3.50742e-18
7.78804e-18
1.74009e-17
3.91753e-17
8.86923e-17
2.01548e-16
4.56406e-16
9.99853e-16
2.19332e-15
4.71418e-15
1.00023e-14
2.08811e-14
4.33973e-14
8.62668e-14
1.67646e-13
3.19026e-13
6.03215e-13
1.11514e-12
2.06442e-12
3.80377e-12
6.9551e-12
1.27224e-11
2.31541e-11
4.18067e-11
7.43089e-11
1.29082e-10
2.18036e-10
3.57137e-10
5.67964e-10
8.83535e-10
1.34157e-09
1.98349e-09
2.88066e-09
4.06793e-09
5.55058e-09
7.21519e-09
8.86516e-09
1.00669e-08
1.01786e-08
8.60047e-09
5.87244e-09
4.31835e-09
2.97273e-09
1.88779e-09
1.10293e-09
6.13577e-10
3.24508e-10
1.65214e-10
8.39896e-11
4.47326e-11
2.40404e-11
1.20018e-11
5.2993e-12
1.99843e-12
6.60773e-13
1.93335e-13
4.77864e-14
1.02648e-14
1.97994e-15
3.4178e-16
4.95825e-17
6.33612e-18
7.24388e-19
7.55781e-20
7.37198e-21
6.8103e-22
6.06846e-23
5.27436e-24
4.52715e-25
4.86075e-26
7.33263e-27
1.62523e-27
4.45534e-28
1.3034e-28
3.84153e-29
1.11927e-29
3.21287e-30
9.08286e-31
2.53123e-31
6.95661e-32
1.88728e-32
5.05522e-33
1.33564e-33
3.46931e-34
8.78728e-35
2.13063e-35
4.74328e-36
8.76026e-37
8.37769e-38
5.0109e-23
3.28826e-22
1.18114e-21
3.507e-21
9.39831e-21
2.3677e-20
5.7309e-20
1.34908e-19
3.11001e-19
7.04917e-19
1.57667e-18
3.50023e-18
7.77188e-18
1.73641e-17
3.90874e-17
8.84949e-17
2.01113e-16
4.55484e-16
9.97994e-16
2.18883e-15
4.70591e-15
9.98773e-15
2.08577e-14
4.33656e-14
8.62365e-14
1.67653e-13
3.1917e-13
6.03737e-13
1.11654e-12
2.06777e-12
3.81141e-12
6.97142e-12
1.27564e-11
2.32237e-11
4.19449e-11
7.45713e-11
1.29565e-10
2.18892e-10
3.58589e-10
5.70333e-10
8.87283e-10
1.34726e-09
1.99185e-09
2.89257e-09
4.08397e-09
5.57075e-09
7.23808e-09
8.88751e-09
1.00828e-08
1.01813e-08
8.59005e-09
5.87117e-09
4.31107e-09
2.96241e-09
1.87842e-09
1.09693e-09
6.09854e-10
3.22324e-10
1.64033e-10
8.342e-11
4.44624e-11
2.38831e-11
1.19026e-11
5.24187e-12
1.97392e-12
6.51273e-13
1.90169e-13
4.68962e-14
1.00497e-14
1.93877e-15
3.34046e-16
4.83783e-17
6.17258e-18
7.04802e-19
7.34646e-20
7.16142e-21
6.6127e-22
5.89061e-23
5.11876e-24
4.39342e-25
4.73496e-26
7.18823e-27
1.60123e-27
4.39912e-28
1.28792e-28
3.79708e-29
1.1065e-29
3.17663e-30
8.98154e-31
2.50335e-31
6.88086e-32
1.86697e-32
5.00139e-33
1.32156e-33
3.43306e-34
8.69616e-35
2.10867e-35
4.69458e-36
8.6705e-37
8.29191e-38
5.00357e-23
3.28338e-22
1.17938e-21
3.5018e-21
9.38448e-21
2.36426e-20
5.72269e-20
1.34717e-19
3.10564e-19
7.03918e-19
1.57437e-18
3.49494e-18
7.75965e-18
1.73363e-17
3.90231e-17
8.83578e-17
2.00819e-16
4.5487e-16
9.96755e-16
2.18585e-15
4.70052e-15
9.97839e-15
2.08429e-14
4.33465e-14
8.62218e-14
1.67672e-13
3.19295e-13
6.0415e-13
1.1176e-12
2.07027e-12
3.81704e-12
6.98344e-12
1.27811e-11
2.32752e-11
4.20469e-11
7.47656e-11
1.29922e-10
2.19522e-10
3.59657e-10
5.72074e-10
8.9004e-10
1.35146e-09
1.998e-09
2.90133e-09
4.09591e-09
5.5861e-09
7.25608e-09
8.9058e-09
1.00963e-08
1.01824e-08
8.57437e-09
5.8647e-09
4.30384e-09
2.95302e-09
1.86701e-09
1.09808e-09
6.09341e-10
3.2161e-10
1.63515e-10
8.3139e-11
4.43176e-11
2.37882e-11
1.18376e-11
5.20255e-12
1.95679e-12
6.4456e-13
1.87867e-13
4.62489e-14
9.89423e-15
1.90915e-15
3.28534e-16
4.75194e-17
6.05623e-18
6.9086e-19
7.19583e-20
7.01122e-21
6.4715e-22
5.76343e-23
5.00752e-24
4.29786e-25
4.64511e-26
7.08504e-27
1.58404e-27
4.35869e-28
1.27674e-28
3.76483e-29
1.09719e-29
3.15008e-30
8.90694e-31
2.48271e-31
6.82451e-32
1.8518e-32
4.96109e-33
1.311e-33
3.40587e-34
8.62779e-35
2.09218e-35
4.65802e-36
8.60314e-37
8.22754e-38
4.99887e-23
3.28026e-22
1.17826e-21
3.49845e-21
9.37552e-21
2.36201e-20
5.71723e-20
1.34588e-19
3.10264e-19
7.03231e-19
1.57281e-18
3.49142e-18
7.75182e-18
1.73189e-17
3.89825e-17
8.82699e-17
2.00633e-16
4.54484e-16
9.96001e-16
2.18403e-15
4.69728e-15
9.97284e-15
2.08343e-14
4.33361e-14
8.62158e-14
1.6769e-13
3.19388e-13
6.04439e-13
1.11833e-12
2.07198e-12
3.82091e-12
6.99167e-12
1.27981e-11
2.33094e-11
4.21137e-11
7.48921e-11
1.30154e-10
2.1993e-10
3.60346e-10
5.73193e-10
8.91808e-10
1.35415e-09
2.00195e-09
2.90694e-09
4.10352e-09
5.59581e-09
7.26734e-09
8.91714e-09
1.01048e-08
1.01843e-08
8.56851e-09
5.86437e-09
4.30072e-09
2.94825e-09
1.86265e-09
1.09532e-09
6.07641e-10
3.20609e-10
1.62968e-10
8.28704e-11
4.41851e-11
2.37096e-11
1.17886e-11
5.17475e-12
1.94502e-12
6.4e-13
1.86354e-13
4.58235e-14
9.79219e-15
1.88976e-15
3.24915e-16
4.69574e-17
5.98009e-18
6.81745e-19
7.09735e-20
6.91291e-21
6.37933e-22
5.68064e-23
4.93523e-24
4.23581e-25
4.58663e-26
7.01747e-27
1.57272e-27
4.33204e-28
1.2694e-28
3.74375e-29
1.09113e-29
3.13289e-30
8.85883e-31
2.46944e-31
6.78835e-32
1.84204e-32
4.93507e-33
1.30415e-33
3.38811e-34
8.58289e-35
2.08131e-35
4.63385e-36
8.55851e-37
8.18488e-38
4.99653e-23
3.2787e-22
1.17769e-21
3.49677e-21
9.37103e-21
2.36088e-20
5.71452e-20
1.34525e-19
3.10121e-19
7.02907e-19
1.57208e-18
3.48977e-18
7.74812e-18
1.73106e-17
3.89634e-17
8.82287e-17
2.00545e-16
4.54304e-16
9.95645e-16
2.18317e-15
4.69575e-15
9.97026e-15
2.08304e-14
4.33316e-14
8.62144e-14
1.67703e-13
3.19441e-13
6.04598e-13
1.11873e-12
2.07291e-12
3.823e-12
6.9962e-12
1.28076e-11
2.33266e-11
4.21465e-11
7.49535e-11
1.30265e-10
2.20126e-10
3.60675e-10
5.73725e-10
8.9264e-10
1.3554e-09
2.00374e-09
2.90941e-09
4.10672e-09
5.59963e-09
7.27136e-09
8.92065e-09
1.01072e-08
1.01864e-08
8.57427e-09
5.86974e-09
4.30053e-09
2.94651e-09
1.86221e-09
1.09098e-09
6.05486e-10
3.19519e-10
1.62436e-10
8.26334e-11
4.40852e-11
2.36593e-11
1.17594e-11
5.15868e-12
1.93831e-12
6.37467e-13
1.85526e-13
4.55945e-14
9.738e-15
1.87939e-15
3.23001e-16
4.66624e-17
5.94042e-18
6.77026e-19
7.04659e-20
6.86235e-21
6.33174e-22
5.63767e-23
4.89752e-24
4.20333e-25
4.55571e-26
6.98106e-27
1.56648e-27
4.31718e-28
1.26529e-28
3.73198e-29
1.08776e-29
3.12338e-30
8.83236e-31
2.4622e-31
6.76878e-32
1.83683e-32
4.92135e-33
1.30058e-33
3.37898e-34
8.56002e-35
2.07582e-35
4.62168e-36
8.53608e-37
8.16344e-38
4.99649e-23
3.27868e-22
1.17768e-21
3.49674e-21
9.37095e-21
2.36086e-20
5.71448e-20
1.34524e-19
3.10119e-19
7.02904e-19
1.57208e-18
3.48977e-18
7.74813e-18
1.73107e-17
3.89636e-17
8.82293e-17
2.00547e-16
4.54308e-16
9.95655e-16
2.18319e-15
4.69579e-15
9.97035e-15
2.08306e-14
4.3332e-14
8.62149e-14
1.67703e-13
3.19441e-13
6.04595e-13
1.11872e-12
2.07292e-12
3.823e-12
6.99616e-12
1.28075e-11
2.33263e-11
4.21458e-11
7.49523e-11
1.30263e-10
2.20122e-10
3.6067e-10
5.73719e-10
8.92638e-10
1.35541e-09
2.00378e-09
2.90953e-09
4.107e-09
5.6002e-09
7.27249e-09
8.92271e-09
1.01106e-08
1.01912e-08
8.58194e-09
5.84481e-09
4.29207e-09
2.9456e-09
1.86496e-09
1.08732e-09
6.0363e-10
3.18646e-10
1.62046e-10
8.24643e-11
4.40091e-11
2.36242e-11
1.17444e-11
5.15291e-12
1.93638e-12
6.36878e-13
1.85364e-13
4.55558e-14
9.72994e-15
1.87784e-15
3.22737e-16
4.66245e-17
5.93563e-18
6.76481e-19
7.04093e-20
6.85687e-21
6.3267e-22
5.6332e-23
4.89366e-24
4.20005e-25
4.55276e-26
6.97794e-27
1.56601e-27
4.31616e-28
1.26502e-28
3.73121e-29
1.08755e-29
3.12279e-30
8.8308e-31
2.46179e-31
6.76776e-32
1.83658e-32
4.92076e-33
1.30044e-33
3.37866e-34
8.55933e-35
2.07567e-35
4.62138e-36
8.53558e-37
8.16297e-38
4.99876e-23
3.28019e-22
1.17823e-21
3.49836e-21
9.37525e-21
2.36194e-20
5.71706e-20
1.34584e-19
3.10257e-19
7.03218e-19
1.57279e-18
3.49139e-18
7.7518e-18
1.7319e-17
3.89829e-17
8.82712e-17
2.00637e-16
4.54495e-16
9.96026e-16
2.18408e-15
4.69739e-15
9.97308e-15
2.08348e-14
4.3337e-14
8.62175e-14
1.67693e-13
3.19393e-13
6.04449e-13
1.11835e-12
2.072e-12
3.82093e-12
6.99173e-12
1.27982e-11
2.33084e-11
4.21114e-11
7.48873e-11
1.30144e-10
2.19913e-10
3.60318e-10
5.7315e-10
8.91743e-10
1.35406e-09
2.00182e-09
2.90674e-09
4.10319e-09
5.59522e-09
7.26635e-09
8.91555e-09
1.01026e-08
1.01816e-08
8.56616e-09
5.85995e-09
4.29963e-09
2.95066e-09
1.86841e-09
1.0891e-09
6.04561e-10
3.1913e-10
1.62287e-10
8.2573e-11
4.40589e-11
2.36542e-11
1.17643e-11
5.16489e-12
1.94154e-12
6.38899e-13
1.8604e-13
4.57467e-14
9.77606e-15
1.88658e-15
3.24371e-16
4.68784e-17
5.96999e-18
6.80608e-19
7.08562e-20
6.90143e-21
6.36856e-22
5.67089e-23
4.92664e-24
4.22838e-25
4.57965e-26
7.00949e-27
1.57141e-27
4.32901e-28
1.26858e-28
3.74146e-29
1.0905e-29
3.13117e-30
8.85428e-31
2.46827e-31
6.78542e-32
1.84134e-32
4.93341e-33
1.30377e-33
3.38726e-34
8.58102e-35
2.08092e-35
4.63306e-36
8.55717e-37
8.18362e-38
5.0035e-23
3.28334e-22
1.17937e-21
3.50174e-21
9.38427e-21
2.3642e-20
5.72248e-20
1.34711e-19
3.10548e-19
7.0388e-19
1.57429e-18
3.4948e-18
7.75951e-18
1.73364e-17
3.90238e-17
8.83604e-17
2.00828e-16
4.54892e-16
9.96808e-16
2.18596e-15
4.70076e-15
9.97886e-15
2.08438e-14
4.3348e-14
8.6224e-14
1.67675e-13
3.19298e-13
6.0415e-13
1.1176e-12
2.07024e-12
3.81695e-12
6.98323e-12
1.27807e-11
2.32732e-11
4.20424e-11
7.47564e-11
1.29905e-10
2.19491e-10
3.59606e-10
5.71993e-10
8.8992e-10
1.35129e-09
1.99778e-09
2.90103e-09
4.09551e-09
5.58555e-09
7.25533e-09
8.90494e-09
1.00958e-08
1.01837e-08
8.58079e-09
5.85248e-09
4.29929e-09
2.95365e-09
1.87188e-09
1.0918e-09
6.06381e-10
3.20231e-10
1.62889e-10
8.28643e-11
4.41977e-11
2.37344e-11
1.18136e-11
5.19269e-12
1.95329e-12
6.43434e-13
1.87542e-13
4.61684e-14
9.87694e-15
1.90576e-15
3.27943e-16
4.74336e-17
6.04559e-18
6.8966e-19
7.18309e-20
6.99874e-21
6.46005e-22
5.75333e-23
4.99881e-24
4.29044e-25
4.63842e-26
7.07801e-27
1.58302e-27
4.35656e-28
1.2762e-28
3.76337e-29
1.09679e-29
3.14904e-30
8.90425e-31
2.48203e-31
6.82282e-32
1.85137e-32
4.96001e-33
1.31073e-33
3.40518e-34
8.62608e-35
2.09178e-35
4.65716e-36
8.60157e-37
8.22606e-38
5.01091e-23
3.28827e-22
1.18115e-21
3.50703e-21
9.3984e-21
2.36773e-20
5.73098e-20
1.34909e-19
3.11003e-19
7.04916e-19
1.57665e-18
3.50013e-18
7.77153e-18
1.73634e-17
3.90869e-17
8.84974e-17
2.01125e-16
4.55516e-16
9.98058e-16
2.18897e-15
4.70618e-15
9.98827e-15
2.08587e-14
4.33672e-14
8.62389e-14
1.67656e-13
3.19171e-13
6.03729e-13
1.11651e-12
2.06766e-12
3.81113e-12
6.97082e-12
1.2755e-11
2.32206e-11
4.19384e-11
7.45583e-11
1.29541e-10
2.18848e-10
3.58514e-10
5.70213e-10
8.87101e-10
1.347e-09
1.99152e-09
2.89216e-09
4.08356e-09
5.57051e-09
7.23832e-09
8.88863e-09
1.00856e-08
1.01871e-08
8.60181e-09
5.84763e-09
4.30123e-09
2.95874e-09
1.87708e-09
1.09625e-09
6.09463e-10
3.22098e-10
1.63913e-10
8.33686e-11
4.4448e-11
2.38785e-11
1.18992e-11
5.23918e-12
1.97254e-12
6.50762e-13
1.90007e-13
4.68533e-14
1.00413e-14
1.93707e-15
3.33777e-16
4.83429e-17
6.16768e-18
7.04163e-19
7.33935e-20
7.15422e-21
6.60584e-22
5.8844e-23
5.11335e-24
4.38878e-25
4.73094e-26
7.18453e-27
1.60082e-27
4.39842e-28
1.28775e-28
3.79658e-29
1.10634e-29
3.17615e-30
8.98008e-31
2.50291e-31
6.87956e-32
1.86659e-32
5.00034e-33
1.32128e-33
3.43232e-34
8.69431e-35
2.10822e-35
4.69361e-36
8.66873e-37
8.29024e-38
5.02129e-23
3.29518e-22
1.18364e-21
3.51445e-21
9.41824e-21
2.37271e-20
5.74294e-20
1.35189e-19
3.11646e-19
7.06379e-19
1.57996e-18
3.50764e-18
7.78849e-18
1.74016e-17
3.91759e-17
8.86919e-17
2.01549e-16
4.56414e-16
9.99888e-16
2.19339e-15
4.7144e-15
1.00028e-14
2.08821e-14
4.33991e-14
8.62697e-14
1.6765e-13
3.19032e-13
6.0322e-13
1.11513e-12
2.06437e-12
3.80359e-12
6.95451e-12
1.27208e-11
2.31506e-11
4.17995e-11
7.42931e-11
1.29052e-10
2.17982e-10
3.57045e-10
5.67817e-10
8.83313e-10
1.34126e-09
1.98308e-09
2.88014e-09
4.06726e-09
5.5497e-09
7.21391e-09
8.86328e-09
1.00644e-08
1.01769e-08
8.60375e-09
5.87352e-09
4.31675e-09
2.96946e-09
1.88178e-09
1.10831e-09
6.15856e-10
3.2545e-10
1.65592e-10
8.41431e-11
4.48003e-11
2.40704e-11
1.20124e-11
5.30159e-12
1.99868e-12
6.60669e-13