/*--------------------------------*- C++ -*----------------------------------*\
  =========                 |
  \\      /  F ield         | OpenFOAM: The Open Source CFD Toolbox
   \\    /   O peration     | Website:  https://openfoam.org
    \\  /    A nd           | Version:  10
     \\/     M anipulation  |
\*---------------------------------------------------------------------------*/
FoamFile
{
    format      ascii;
    class       volScalarField;
    location    "1";
    object      NO;
}
// * * * * * * * * * * * * * * * * * * * * * * * * * * * * * * * * * * * * * //

dimensions      [0 0 0 0 0 0 0];

internalField   nonuniform List<scalar> 
4000
(
2.50306e-10
9.54169e-10
1.99034e-09
3.55347e-09
5.89962e-09
9.39498e-09
1.45567e-08
2.20947e-08
3.29455e-08
4.82879e-08
6.95509e-08
9.84688e-08
1.37159e-07
1.88117e-07
2.54086e-07
3.37457e-07
4.4143e-07
5.68375e-07
7.14169e-07
8.90391e-07
1.08669e-06
1.30913e-06
1.56414e-06
1.84029e-06
2.14601e-06
2.48637e-06
2.87172e-06
3.31734e-06
3.83219e-06
4.45064e-06
5.20026e-06
6.12313e-06
7.28527e-06
8.76938e-06
1.06929e-05
1.32325e-05
1.66284e-05
2.12413e-05
2.75802e-05
3.63666e-05
4.87702e-05
6.61759e-05
9.05145e-05
0.000124832
0.000174617
0.000246547
0.000350777
0.00050392
0.000732864
0.00107804
0.00160078
0.00238831
0.00351327
0.00447149
0.00497123
0.0050656
0.0048934
0.00457539
0.00418976
0.0037822
0.00337477
0.00298105
0.00260173
0.00223864
0.0019001
0.00159379
0.00132667
0.00109014
0.000871386
0.000678977
0.000518895
0.000379359
0.000267742
0.000182192
0.000119365
7.56682e-05
4.65531e-05
2.79215e-05
1.63902e-05
9.4448e-06
5.35981e-06
2.99901e-06
1.65769e-06
9.06793e-07
4.90893e-07
2.63593e-07
1.40525e-07
7.44127e-08
3.91824e-08
2.05391e-08
1.06964e-08
5.54406e-09
2.8597e-09
1.46655e-09
7.45951e-10
3.74307e-10
1.83105e-10
8.49416e-11
3.46017e-11
8.00452e-12
2.49504e-10
9.51101e-10
1.98399e-09
3.54258e-09
5.88258e-09
9.36954e-09
1.45192e-08
2.20392e-08
3.2862e-08
4.81579e-08
6.93418e-08
9.81258e-08
1.36597e-07
1.87237e-07
2.52792e-07
3.35653e-07
4.38844e-07
5.64727e-07
7.09529e-07
8.85267e-07
1.08089e-06
1.30214e-06
1.5561e-06
1.83288e-06
2.13902e-06
2.48001e-06
2.86542e-06
3.31269e-06
3.82833e-06
4.44836e-06
5.1998e-06
6.12401e-06
7.2892e-06
8.77849e-06
1.07101e-05
1.32608e-05
1.66739e-05
2.13123e-05
2.76921e-05
3.65392e-05
4.90345e-05
6.65814e-05
9.11225e-05
0.000125773
0.000176074
0.000248799
0.000354179
0.000509151
0.000741045
0.00109079
0.00162057
0.00241819
0.00355378
0.00449892
0.00498211
0.00506389
0.00488172
0.00455836
0.0041694
0.00375992
0.00334782
0.00295379
0.00257471
0.00221212
0.00187451
0.00157269
0.00130741
0.00107206
0.000854819
0.000664613
0.000507315
0.00037128
0.000262324
0.000178545
0.000117463
7.47542e-05
4.61898e-05
2.78224e-05
1.64e-05
9.48738e-06
5.40479e-06
3.03545e-06
1.68443e-06
9.24336e-07
5.02768e-07
2.70946e-07
1.4483e-07
7.67911e-08
4.04249e-08
2.11336e-08
1.10103e-08
5.70174e-09
2.93673e-09
1.50338e-09
7.63198e-10
3.82208e-10
1.86627e-10
8.64406e-11
3.51722e-11
8.13068e-12
2.49111e-10
9.4969e-10
1.98135e-09
3.53845e-09
5.87667e-09
9.36126e-09
1.45075e-08
2.20203e-08
3.28276e-08
4.80913e-08
6.92099e-08
9.78657e-08
1.36136e-07
1.86481e-07
2.51619e-07
3.33953e-07
4.36616e-07
5.61654e-07
7.05458e-07
8.80119e-07
1.07476e-06
1.29559e-06
1.54723e-06
1.82933e-06
2.13505e-06
2.47636e-06
2.86174e-06
3.31052e-06
3.8275e-06
4.45009e-06
5.20494e-06
6.13251e-06
7.30302e-06
8.8006e-06
1.07453e-05
1.33142e-05
1.67546e-05
2.14344e-05
2.78771e-05
3.68305e-05
4.94729e-05
6.72399e-05
9.21226e-05
0.000127338
0.0001785
0.000252556
0.000359899
0.000518015
0.000754577
0.00111176
0.00165314
0.0024683
0.00361396
0.00453899
0.00499736
0.00505948
0.00486415
0.00453335
0.0041407
0.00373011
0.00331171
0.00291862
0.00254004
0.00217801
0.00184294
0.00154583
0.00128294
0.0010501
0.000835728
0.000648845
0.000495065
0.000362411
0.000256645
0.000175182
0.000115424
7.36339e-05
4.56249e-05
2.75714e-05
1.63072e-05
9.46101e-06
5.40966e-06
3.049e-06
1.69722e-06
9.3413e-07
5.0888e-07
2.7464e-07
1.47041e-07
7.80919e-08
4.11796e-08
2.1572e-08
1.12321e-08
5.81842e-09
2.99706e-09
1.5338e-09
7.782e-10
3.89438e-10
1.9001e-10
8.79434e-11
3.57633e-11
8.26455e-12
2.48314e-10
9.46646e-10
1.97496e-09
3.52692e-09
5.85719e-09
9.32939e-09
1.4456e-08
2.1938e-08
3.26972e-08
4.78862e-08
6.88923e-08
9.73895e-08
1.35434e-07
1.85467e-07
2.50197e-07
3.32034e-07
4.34103e-07
5.58738e-07
7.02145e-07
8.76039e-07
1.07017e-06
1.29065e-06
1.54166e-06
1.82494e-06
2.13184e-06
2.47435e-06
2.86104e-06
3.312e-06
3.8312e-06
4.45732e-06
5.21734e-06
6.15063e-06
7.32892e-06
8.83601e-06
1.07984e-05
1.33918e-05
1.68683e-05
2.16019e-05
2.81315e-05
3.71998e-05
5.00358e-05
6.81063e-05
9.34433e-05
0.000129335
0.000181543
0.000257195
0.000366789
0.000528588
0.000770856
0.0011365
0.00169012
0.00252624
0.00368105
0.00458228
0.00501172
0.00505111
0.00484059
0.00450062
0.00410299
0.00368993
0.00327011
0.00287721
0.00249987
0.00214104
0.00180945
0.00151544
0.00125653
0.00102688
0.000815801
0.000632308
0.000482146
0.000352504
0.000248511
0.000169182
0.000111378
7.11226e-05
4.41773e-05
2.67991e-05
1.59341e-05
9.31229e-06
5.35268e-06
3.02773e-06
1.69099e-06
9.33417e-07
5.09726e-07
2.75661e-07
1.47842e-07
7.86112e-08
4.14931e-08
2.17547e-08
1.13384e-08
5.87412e-09
3.02564e-09
1.54831e-09
7.8547e-10
3.93022e-10
1.91734e-10
8.87335e-11
3.60835e-11
8.33835e-12
2.47427e-10
9.43268e-10
1.96792e-09
3.51433e-09
5.83618e-09
9.2956e-09
1.44028e-08
2.18557e-08
3.25712e-08
4.76952e-08
6.86052e-08
9.69646e-08
1.3482e-07
1.84605e-07
2.49026e-07
3.3051e-07
4.32186e-07
5.56417e-07
6.99401e-07
8.72828e-07
1.06697e-06
1.28768e-06
1.5382e-06
1.82258e-06
2.1306e-06
2.47467e-06
2.86332e-06
3.3171e-06
3.83919e-06
4.47008e-06
5.23572e-06
6.17532e-06
7.36309e-06
8.88307e-06
1.08661e-05
1.34879e-05
1.70054e-05
2.18035e-05
2.84219e-05
3.76405e-05
5.06838e-05
6.90757e-05
9.49091e-05
0.000131557
0.000184931
0.000262363
0.000374462
0.00054028
0.000788983
0.00116448
0.00173341
0.00258671
0.00374977
0.00462446
0.00502394
0.005041
0.00481689
0.00446909
0.00406774
0.00365328
0.00323401
0.00284135
0.00246385
0.00210568
0.00177762
0.00148782
0.00123258
0.00100568
0.000797121
0.000616624
0.000469799
0.00034243
0.000241472
0.000164525
0.000108469
6.94022e-05
4.32001e-05
2.62605e-05
1.56401e-05
9.14788e-06
5.27077e-06
2.99334e-06
1.67688e-06
9.27829e-07
5.07511e-07
2.74928e-07
1.47693e-07
7.86347e-08
4.15498e-08
2.18029e-08
1.13715e-08
5.89365e-09
3.03633e-09
1.5539e-09
7.88296e-10
3.94414e-10
1.92399e-10
8.90363e-11
3.62055e-11
8.36642e-12
2.46418e-10
9.3941e-10
1.95982e-09
3.49975e-09
5.81173e-09
9.25621e-09
1.43411e-08
2.1761e-08
3.24286e-08
4.74837e-08
6.82956e-08
9.65196e-08
1.34197e-07
1.83762e-07
2.47927e-07
3.29146e-07
4.30568e-07
5.5461e-07
6.97497e-07
8.70501e-07
1.06479e-06
1.2859e-06
1.53613e-06
1.82166e-06
2.1311e-06
2.47705e-06
2.86804e-06
3.32511e-06
3.85112e-06
4.48703e-06
5.25894e-06
6.20616e-06
7.40474e-06
8.9396e-06
1.09447e-05
1.35988e-05
1.71644e-05
2.20293e-05
2.87502e-05
3.81109e-05
5.13825e-05
7.01294e-05
9.64529e-05
0.000133866
0.000188434
0.000267713
0.00038244
0.000552561
0.000807653
0.00119286
0.00177558
0.00264703
0.00381391
0.00466253
0.00503315
0.00502821
0.00479071
0.00443497
0.00402982
0.00361469
0.00319826
0.00280675
0.00243166
0.00207552
0.00175117
0.00146512
0.00121357
0.000984009
0.00077973
0.000602879
0.000457982
0.000333627
0.000235246
0.000160325
0.000105753
6.77211e-05
4.2197e-05
2.56829e-05
1.53178e-05
8.97321e-06
5.17301e-06
2.93992e-06
1.64936e-06
9.14568e-07
5.01827e-07
2.72464e-07
1.46637e-07
7.81761e-08
4.1351e-08
2.17167e-08
1.13347e-08
5.87721e-09
3.02848e-09
1.5502e-09
7.86553e-10
3.93592e-10
1.92015e-10
8.88645e-11
3.61375e-11
8.35099e-12
2.45397e-10
9.3551e-10
1.95166e-09
3.48511e-09
5.78729e-09
9.21713e-09
1.42804e-08
2.1669e-08
3.22919e-08
4.72836e-08
6.80068e-08
9.61104e-08
1.33633e-07
1.83011e-07
2.46962e-07
3.27968e-07
4.29197e-07
5.53105e-07
6.95934e-07
8.68553e-07
1.06309e-06
1.28482e-06
1.53501e-06
1.82188e-06
2.13297e-06
2.48091e-06
2.87438e-06
3.33472e-06
3.86483e-06
4.50602e-06
5.28442e-06
6.24016e-06
7.45019e-06
9.00054e-06
1.10275e-05
1.37128e-05
1.73255e-05
2.22567e-05
2.9073e-05
3.85827e-05
5.20913e-05
7.11779e-05
9.79944e-05
0.000136156
0.000191852
0.000272798
0.000389731
0.000563374
0.000826928
0.00122128
0.001819
0.00271261
0.00387803
0.00469896
0.0050418
0.00501611
0.00476743
0.00440531
0.00399702
0.00357975
0.00317114
0.00277888
0.00240295
0.00204897
0.00172827
0.0014456
0.00119672
0.000969064
0.000766923
0.000592048
0.000449455
0.000327028
0.000230391
0.000156888
0.000103442
6.62468e-05
4.12942e-05
2.51507e-05
1.5014e-05
8.80524e-06
5.08179e-06
2.89123e-06
1.62364e-06
9.00956e-07
4.9446e-07
2.68623e-07
1.44688e-07
7.72021e-08
4.08717e-08
2.14836e-08
1.12232e-08
5.82454e-09
3.0045e-09
1.53902e-09
7.8126e-10
3.91068e-10
1.90824e-10
8.83241e-11
3.59202e-11
8.30114e-12
2.44412e-10
9.31752e-10
1.9438e-09
3.47103e-09
5.76385e-09
9.17978e-09
1.42227e-08
2.1582e-08
3.21634e-08
4.70972e-08
6.77405e-08
9.57373e-08
1.33125e-07
1.82343e-07
2.46118e-07
3.26957e-07
4.28045e-07
5.51881e-07
6.9472e-07
8.67016e-07
1.06191e-06
1.2842e-06
1.53477e-06
1.82301e-06
2.13571e-06
2.48585e-06
2.88205e-06
3.34613e-06
3.87998e-06
4.52601e-06
5.31133e-06
6.27583e-06
7.4978e-06
9.0641e-06
1.11134e-05
1.3833e-05
1.74906e-05
2.24871e-05
2.93972e-05
3.90458e-05
5.27471e-05
7.21319e-05
9.93891e-05
0.000138243
0.000195026
0.000277663
0.000397108
0.00057461
0.000843153
0.00124553
0.00185415
0.0027789
0.00393724
0.00473198
0.00504996
0.00500652
0.00474802
0.00438019
0.00396904
0.00355116
0.00314362
0.00275179
0.00237744
0.00202489
0.00170656
0.00142716
0.0011808
0.000953777
0.000754546
0.000582221
0.000441834
0.000321229
0.000225948
0.000153664
0.00010124
6.48242e-05
4.04133e-05
2.46253e-05
1.47103e-05
8.63478e-06
4.98784e-06
2.84042e-06
1.59659e-06
8.86755e-07
4.87096e-07
2.64869e-07
1.4267e-07
7.6185e-08
4.03608e-08
2.12274e-08
1.10955e-08
5.76023e-09
2.97176e-09
1.52258e-09
7.73102e-10
3.8708e-10
1.88921e-10
8.74612e-11
3.55749e-11
8.22219e-12
2.43509e-10
9.28308e-10
1.93661e-09
3.45818e-09
5.74252e-09
9.1459e-09
1.41705e-08
2.15038e-08
3.20488e-08
4.69322e-08
6.75068e-08
9.5413e-08
1.32688e-07
1.81775e-07
2.45409e-07
3.26123e-07
4.2712e-07
5.50941e-07
6.93868e-07
8.65945e-07
1.06112e-06
1.28396e-06
1.53536e-06
1.82499e-06
2.13937e-06
2.49145e-06
2.89009e-06
3.35745e-06
3.89509e-06
4.54654e-06
5.33934e-06
6.31275e-06
7.54592e-06
9.12789e-06
1.1201e-05
1.39515e-05
1.76539e-05
2.27152e-05
2.97216e-05
3.95204e-05
5.34488e-05
7.31638e-05
0.000100892
0.000140468
0.000198356
0.000282619
0.000404546
0.000585974
0.000859811
0.00127141
0.00189355
0.00283357
0.00398739
0.00476064
0.00505767
0.00499855
0.00473092
0.00435816
0.00394507
0.00352682
0.00311987
0.00272914
0.00235535
0.00200367
0.00168668
0.00140904
0.00116489
0.000939862
0.000742324
0.00057155
0.000433093
0.000314645
0.000221208
0.000150414
9.91007e-05
6.34744e-05
3.95885e-05
2.41363e-05
1.44277e-05
8.47513e-06
4.89918e-06
2.79197e-06
1.57049e-06
8.72863e-07
4.79781e-07
2.61084e-07
1.40709e-07
7.51765e-08
3.9845e-08
2.09648e-08
1.0963e-08
5.6931e-09
2.93783e-09
1.5055e-09
7.64554e-10
3.82852e-10
1.86878e-10
8.65229e-11
3.51953e-11
8.13465e-12
2.42707e-10
9.2525e-10
1.93023e-09
3.44679e-09
5.72366e-09
9.11602e-09
1.41247e-08
2.14354e-08
3.19491e-08
4.67897e-08
6.73065e-08
9.51377e-08
1.3232e-07
1.81301e-07
2.44824e-07
3.25442e-07
4.26377e-07
5.50206e-07
6.9321e-07
8.6511e-07
1.06068e-06
1.28411e-06
1.53637e-06
1.82718e-06
2.14309e-06
2.49719e-06
2.89835e-06
3.36875e-06
3.91031e-06
4.5671e-06
5.36601e-06
6.34755e-06
7.59195e-06
9.19013e-06
1.12838e-05
1.40641e-05
1.78097e-05
2.29333e-05
3.00339e-05
3.99664e-05
5.41004e-05
7.41239e-05
0.000102301
0.000142577
0.000201528
0.000287483
0.000412084
0.000597636
0.000877017
0.00129907
0.00193829
0.00288893
0.00403559
0.00478779
0.0050659
0.00499348
0.00471837
0.00434175
0.00392685
0.00350789
0.00310054
0.00271008
0.0023376
0.00198882
0.00166758
0.0013937
0.00115184
0.000928615
0.000732714
0.000563965
0.000426753
0.000309615
0.000217484
0.000147801
9.73451e-05
6.23462e-05
3.88869e-05
2.37135e-05
1.41789e-05
8.33245e-06
4.81881e-06
2.74745e-06
1.5462e-06
8.59776e-07
4.72812e-07
2.57436e-07
1.38803e-07
7.41883e-08
3.9336e-08
2.0704e-08
1.08298e-08
5.6253e-09
2.90349e-09
1.48819e-09
7.55885e-10
3.7856e-10
1.84802e-10
8.55679e-11
3.48085e-11
8.04546e-12
2.42014e-10
9.22609e-10
1.92472e-09
3.43698e-09
5.70742e-09
9.09034e-09
1.40854e-08
2.1377e-08
3.18642e-08
4.66694e-08
6.71396e-08
9.49116e-08
1.32024e-07
1.80928e-07
2.44357e-07
3.24921e-07
4.25845e-07
5.49733e-07
6.92853e-07
8.64678e-07
1.06062e-06
1.28463e-06
1.53771e-06
1.82977e-06
2.14705e-06
2.50293e-06
2.90629e-06
3.37974e-06
3.925e-06
4.58615e-06
5.39108e-06
6.38047e-06
7.63558e-06
9.24663e-06
1.13586e-05
1.41651e-05
1.79474e-05
2.31253e-05
3.03079e-05
4.03608e-05
5.46776e-05
7.49767e-05
0.000103559
0.000144482
0.000204412
0.000291876
0.00041866
0.000607663
0.000891963
0.00132227
0.00197381
0.0029417
0.00407975
0.00481303
0.00507448
0.00499081
0.00470863
0.00432791
0.003911
0.00349131
0.00308411
0.0026938
0.0023214
0.00197331
0.00165402
0.0013813
0.00114092
0.00091877
0.000724236
0.000557459
0.000421643
0.000305567
0.000214455
0.000145653
9.58841e-05
6.13958e-05
3.82888e-05
2.33491e-05
1.3961e-05
8.20634e-06
4.74712e-06
2.70738e-06
1.52413e-06
8.47788e-07
4.66375e-07
2.54029e-07
1.3701e-07
7.32534e-08
3.88522e-08
2.04561e-08
1.06989e-08
5.55884e-09
2.86987e-09
1.47126e-09
7.47411e-10
3.74367e-10
1.82774e-10
8.46351e-11
3.44306e-11
7.95833e-12
2.41428e-10
9.20378e-10
1.92008e-09
3.42871e-09
5.69376e-09
9.0688e-09
1.40526e-08
2.13283e-08
3.1794e-08
4.65704e-08
6.70034e-08
9.47292e-08
1.31788e-07
1.80636e-07
2.43997e-07
3.24534e-07
4.25464e-07
5.4941e-07
6.92663e-07
8.64468e-07
1.06078e-06
1.28535e-06
1.53918e-06
1.83231e-06
2.15091e-06
2.50841e-06
2.91381e-06
3.38979e-06
3.93812e-06
4.60318e-06
5.41351e-06
6.40958e-06
7.67331e-06
9.29669e-06
1.14252e-05
1.42545e-05
1.80688e-05
2.32954e-05
3.05435e-05
4.06918e-05
5.5148e-05
7.56431e-05
0.000104487
0.00014641
0.000207102
0.000295813
0.0004245
0.000616413
0.000905256
0.00134262
0.00200481
0.00298687
0.00411848
0.00483641
0.00508357
0.00498944
0.00470107
0.00431691
0.0038982
0.00347772
0.00307027
0.00267976
0.0023076
0.0019603
0.0016432
0.00137162
0.00113221
0.000910988
0.000717451
0.00055258
0.000417739
0.000302606
0.0002121
0.000143917
9.4675e-05
6.0596e-05
3.77787e-05
2.30349e-05
1.37724e-05
8.09613e-06
4.68394e-06
2.67179e-06
1.5044e-06
8.36995e-07
4.60546e-07
2.5092e-07
1.35366e-07
7.23916e-08
3.8404e-08
2.02253e-08
1.05784e-08
5.49735e-09
2.83864e-09
1.45547e-09
7.39492e-10
3.70441e-10
1.80873e-10
8.37595e-11
3.40755e-11
7.87645e-12
2.40942e-10
9.1853e-10
1.91623e-09
3.42187e-09
5.68248e-09
9.05107e-09
1.40256e-08
2.12885e-08
3.17368e-08
4.64902e-08
6.68937e-08
9.45836e-08
1.31602e-07
1.80411e-07
2.43728e-07
3.24254e-07
4.25194e-07
5.49209e-07
6.92601e-07
8.64421e-07
1.06108e-06
1.28617e-06
1.54074e-06
1.83493e-06
2.15486e-06
2.51396e-06
2.92121e-06
3.39956e-06
3.95052e-06
4.61883e-06
5.43365e-06
6.43553e-06
7.70707e-06
9.34139e-06
1.14849e-05
1.4335e-05
1.81805e-05
2.34491e-05
3.07586e-05
4.09976e-05
5.55906e-05
7.62903e-05
0.000105446
0.000147871
0.00020927
0.000299054
0.000429366
0.000623796
0.000916423
0.00135935
0.00202944
0.00304123
0.0041592
0.00485929
0.00509265
0.00498893
0.00469521
0.00430822
0.00388804
0.00346688
0.00305904
0.00266854
0.00229644
0.00194971
0.00163445
0.00136376
0.00112495
0.000904475
0.000711675
0.000548354
0.000414083
0.000299685
0.000209947
0.000142383
9.36242e-05
5.99055e-05
3.73388e-05
2.27634e-05
1.36092e-05
8.00038e-06
4.6288e-06
2.64059e-06
1.48701e-06
8.27441e-07
4.55362e-07
2.48143e-07
1.33892e-07
7.16157e-08
3.7999e-08
2.00157e-08
1.04704e-08
5.442e-09
2.81043e-09
1.44118e-09
7.32305e-10
3.66872e-10
1.79141e-10
8.29612e-11
3.37516e-11
7.80166e-12
2.40547e-10
9.17024e-10
1.9131e-09
3.4163e-09
5.67332e-09
9.03667e-09
1.40038e-08
2.12563e-08
3.16906e-08
4.64256e-08
6.68054e-08
9.44663e-08
1.31452e-07
1.80229e-07
2.43507e-07
3.24017e-07
4.24983e-07
5.49081e-07
6.92619e-07
8.64467e-07
1.06145e-06
1.287e-06
1.54221e-06
1.83729e-06
2.15824e-06
2.51869e-06
2.92753e-06
3.40794e-06
3.96133e-06
4.63275e-06
5.45162e-06
6.45855e-06
7.73665e-06
9.37967e-06
1.15362e-05
1.44048e-05
1.82764e-05
2.35825e-05
3.09472e-05
4.12684e-05
5.59878e-05
7.68822e-05
0.000106335
0.000149217
0.000211303
0.000302149
0.000434086
0.00063109
0.000927819
0.00137747
0.00205857
0.00307743
0.00419039
0.00487845
0.00510091
0.00498974
0.00469157
0.00430203
0.00388049
0.00345855
0.00305034
0.00265956
0.00228739
0.0019411
0.00162735
0.00135734
0.00111919
0.000899314
0.00070714
0.000545042
0.00041129
0.000297445
0.000208236
0.000141136
9.27558e-05
5.9329e-05
3.69688e-05
2.25337e-05
1.34705e-05
7.91859e-06
4.58149e-06
2.61371e-06
1.47197e-06
8.19146e-07
4.50846e-07
2.45715e-07
1.32598e-07
7.09331e-08
3.76418e-08
1.98305e-08
1.03748e-08
5.39296e-09
2.78541e-09
1.42849e-09
7.25921e-10
3.63699e-10
1.77601e-10
8.2251e-11
3.34633e-11
7.73509e-12
2.40231e-10
9.15824e-10
1.9106e-09
3.41187e-09
5.66604e-09
9.02524e-09
1.39865e-08
2.12309e-08
3.16542e-08
4.63748e-08
6.67361e-08
9.43744e-08
1.31335e-07
1.80088e-07
2.43335e-07
3.23852e-07
4.24853e-07
5.49031e-07
6.92699e-07
8.64597e-07
1.06188e-06
1.28785e-06
1.54363e-06
1.83945e-06
2.16133e-06
2.52283e-06
2.93299e-06
3.41507e-06
3.97058e-06
4.64456e-06
5.46685e-06
6.47817e-06
7.7621e-06
9.41313e-06
1.15801e-05
1.44635e-05
1.83564e-05
2.36943e-05
3.11065e-05
4.14988e-05
5.63266e-05
7.73773e-05
0.000107061
0.000150302
0.000212945
0.000304662
0.000437948
0.000637111
0.000937299
0.00139248
0.00208234
0.00310444
0.00421382
0.00489292
0.0051073
0.00499025
0.00468844
0.00429685
0.00387421
0.00345176
0.00304321
0.00265217
0.00228002
0.00193414
0.00162164
0.00135221
0.00111458
0.000895132
0.00070348
0.000542359
0.000409062
0.000295632
0.000206834
0.000140107
9.20367e-05
5.88498e-05
3.66601e-05
2.23414e-05
1.33539e-05
7.84969e-06
4.54151e-06
2.59092e-06
1.45919e-06
8.12077e-07
4.46987e-07
2.43636e-07
1.31488e-07
7.03461e-08
3.73341e-08
1.96706e-08
1.02922e-08
5.35054e-09
2.76375e-09
1.4175e-09
7.20387e-10
3.60947e-10
1.76265e-10
8.16347e-11
3.3213e-11
7.6773e-12
2.39987e-10
9.14894e-10
1.90867e-09
3.40845e-09
5.66041e-09
9.01644e-09
1.39732e-08
2.12114e-08
3.16265e-08
4.63363e-08
6.66839e-08
9.4306e-08
1.3125e-07
1.7999e-07
2.4322e-07
3.23748e-07
4.2478e-07
5.49031e-07
6.92817e-07
8.64756e-07
1.06228e-06
1.28859e-06
1.54482e-06
1.84129e-06
2.1639e-06
2.52629e-06
2.93759e-06
3.42113e-06
3.97835e-06
4.65448e-06
5.47958e-06
6.49461e-06
7.7835e-06
9.44118e-06
1.16175e-05
1.45146e-05
1.84266e-05
2.3792e-05
3.12441e-05
4.16952e-05
5.6611e-05
7.77929e-05
0.000107671
0.000151209
0.0002143
0.000306701
0.000441003
0.000641705
0.000944247
0.00140288
0.00209748
0.00312405
0.00423101
0.00490407
0.0051125
0.00499091
0.00468617
0.0042928
0.0038692
0.00344625
0.00303745
0.00264629
0.00227412
0.00192854
0.00161707
0.00134805
0.00111079
0.000891719
0.000700432
0.000540149
0.000407185
0.00029412
0.000205672
0.000139257
9.14457e-05
5.84572e-05
3.64073e-05
2.21837e-05
1.32582e-05
7.79293e-06
4.5085e-06
2.57206e-06
1.44858e-06
8.062e-07
4.43772e-07
2.41901e-07
1.3056e-07
6.98549e-08
3.70763e-08
1.95365e-08
1.02229e-08
5.31491e-09
2.74555e-09
1.40826e-09
7.15732e-10
3.58632e-10
1.75141e-10
8.11159e-11
3.30024e-11
7.62864e-12
2.39804e-10
9.142e-10
1.90723e-09
3.4059e-09
5.65624e-09
9.00993e-09
1.39634e-08
2.11972e-08
3.16065e-08
4.63089e-08
6.66474e-08
9.42592e-08
1.31193e-07
1.79924e-07
2.43144e-07
3.2368e-07
4.24743e-07
5.49058e-07
6.92947e-07
8.64937e-07
1.06267e-06
1.28928e-06
1.54589e-06
1.84286e-06
2.16609e-06
2.52926e-06
2.94147e-06
3.42613e-06
3.98472e-06
4.66257e-06
5.48993e-06
6.50774e-06
7.80041e-06
9.46343e-06
1.16473e-05
1.45546e-05
1.84813e-05
2.38679e-05
3.1351e-05
4.18475e-05
5.68311e-05
7.81122e-05
0.000108138
0.000151904
0.000215338
0.000308257
0.000443337
0.000645249
0.000949659
0.00141123
0.00211055
0.00314463
0.00424697
0.00491344
0.00511663
0.00499169
0.00468471
0.00428996
0.00386557
0.00344216
0.00303313
0.00264183
0.00226964
0.00192426
0.00161358
0.00134487
0.00110787
0.000889054
0.000698041
0.00053841
0.000405712
0.000292949
0.000204778
0.000138603
9.09879e-05
5.81512e-05
3.62092e-05
2.20595e-05
1.31823e-05
7.74779e-06
4.48217e-06
2.55698e-06
1.44009e-06
8.01486e-07
4.41191e-07
2.40506e-07
1.29814e-07
6.94595e-08
3.68687e-08
1.94285e-08
1.0167e-08
5.2862e-09
2.73089e-09
1.40081e-09
7.1198e-10
3.56766e-10
1.74235e-10
8.06977e-11
3.28326e-11
7.58941e-12
2.39677e-10
9.13715e-10
1.90623e-09
3.40413e-09
5.65336e-09
9.00547e-09
1.39567e-08
2.11876e-08
3.1593e-08
4.62904e-08
6.66224e-08
9.42262e-08
1.31152e-07
1.79877e-07
2.43089e-07
3.23637e-07
4.24727e-07
5.49092e-07
6.93059e-07
8.6509e-07
1.06298e-06
1.2898e-06
1.5467e-06
1.84404e-06
2.16771e-06
2.53142e-06
2.94428e-06
3.42976e-06
3.98934e-06
4.66845e-06
5.49743e-06
6.51739e-06
7.81289e-06
9.47972e-06
1.1669e-05
1.45837e-05
1.85212e-05
2.39233e-05
3.1429e-05
4.19587e-05
5.6992e-05
7.83457e-05
0.000108477
0.000152403
0.000216078
0.000309365
0.000444993
0.000647742
0.000953421
0.00141687
0.00211871
0.00315498
0.00425579
0.00491887
0.00511855
0.00499299
0.004684
0.00428809
0.00386301
0.00343923
0.00302998
0.00263855
0.00226632
0.0019211
0.00161102
0.00134255
0.00110574
0.000887111
0.00069631
0.000537147
0.000404644
0.000292085
0.000204109
0.000138111
9.06449e-05
5.79228e-05
3.60622e-05
2.19683e-05
1.31272e-05
7.71518e-06
4.46318e-06
2.5461e-06
1.43395e-06
7.98067e-07
4.39312e-07
2.39486e-07
1.29266e-07
6.91677e-08
3.67147e-08
1.93479e-08
1.01251e-08
5.26462e-09
2.71984e-09
1.3952e-09
7.0915e-10
3.55358e-10
1.73551e-10
8.03823e-11
3.27045e-11
7.55983e-12
2.39596e-10
9.13408e-10
1.90559e-09
3.403e-09
5.65151e-09
9.00259e-09
1.39524e-08
2.11812e-08
3.15839e-08
4.62778e-08
6.66055e-08
9.42044e-08
1.31126e-07
1.79848e-07
2.43056e-07
3.23612e-07
4.24721e-07
5.49122e-07
6.9314e-07
8.652e-07
1.0632e-06
1.29016e-06
1.54724e-06
1.84483e-06
2.16879e-06
2.53285e-06
2.94614e-06
3.43216e-06
3.99238e-06
4.67228e-06
5.50234e-06
6.52367e-06
7.82099e-06
9.49027e-06
1.16829e-05
1.46025e-05
1.85468e-05
2.39589e-05
3.14792e-05
4.20302e-05
5.70953e-05
7.84952e-05
0.000108694
0.000152721
0.000216548
0.000310067
0.000446048
0.000649354
0.000955927
0.00142081
0.00212492
0.00316433
0.00426314
0.00492317
0.00512043
0.00499346
0.00468344
0.00428683
0.00386131
0.00343728
0.00302789
0.00263638
0.00226414
0.00191904
0.00160934
0.00134102
0.00110433
0.000885824
0.000695157
0.000536309
0.000403929
0.000291509
0.000203666
0.000137784
9.04139e-05
5.77683e-05
3.59634e-05
2.19067e-05
1.30898e-05
7.69305e-06
4.45034e-06
2.53879e-06
1.42985e-06
7.95797e-07
4.38071e-07
2.38817e-07
1.28908e-07
6.8978e-08
3.6615e-08
1.9296e-08
1.00982e-08
5.25068e-09
2.71267e-09
1.39153e-09
7.07292e-10
3.54429e-10
1.73098e-10
8.01728e-11
3.26193e-11
7.54014e-12
2.39556e-10
9.13256e-10
1.90527e-09
3.40244e-09
5.6506e-09
9.00116e-09
1.39503e-08
2.11781e-08
3.15796e-08
4.62719e-08
6.65976e-08
9.41944e-08
1.31114e-07
1.79835e-07
2.43042e-07
3.23603e-07
4.24721e-07
5.4914e-07
6.93187e-07
8.65263e-07
1.06332e-06
1.29035e-06
1.54753e-06
1.84524e-06
2.16935e-06
2.53358e-06
2.94709e-06
3.43338e-06
3.99391e-06
4.67421e-06
5.50478e-06
6.52677e-06
7.82493e-06
9.49542e-06
1.16897e-05
1.46116e-05
1.85592e-05
2.39759e-05
3.1503e-05
4.20636e-05
5.71426e-05
7.85622e-05
0.000108788
0.000152853
0.000216735
0.000310333
0.000446433
0.000649939
0.000956888
0.00142256
0.00212855
0.00317305
0.004269
0.0049259
0.00512138
0.00499315
0.0046828
0.00428588
0.0038602
0.00343612
0.00302672
0.00263522
0.002263
0.00191798
0.00160849
0.00134025
0.00110363
0.000885186
0.000694589
0.000535892
0.000403578
0.000291225
0.000203447
0.000137622
9.02973e-05
5.76878e-05
3.59096e-05
2.18725e-05
1.30688e-05
7.68054e-06
4.44306e-06
2.53464e-06
1.42752e-06
7.94514e-07
4.37372e-07
2.38441e-07
1.28708e-07
6.88727e-08
3.65601e-08
1.92676e-08
1.00836e-08
5.24324e-09
2.70889e-09
1.38963e-09
7.06339e-10
3.53957e-10
1.7287e-10
8.00673e-11
3.25765e-11
7.53025e-12
2.39556e-10
9.13255e-10
1.90527e-09
3.40244e-09
5.65059e-09
9.00115e-09
1.39502e-08
2.11781e-08
3.15796e-08
4.62719e-08
6.65977e-08
9.41945e-08
1.31114e-07
1.79836e-07
2.43043e-07
3.23605e-07
4.24724e-07
5.49145e-07
6.93194e-07
8.65272e-07
1.06333e-06
1.29036e-06
1.54754e-06
1.84526e-06
2.16936e-06
2.53359e-06
2.94709e-06
3.43337e-06
3.99389e-06
4.67419e-06
5.50474e-06
6.52672e-06
7.82487e-06
9.49536e-06
1.16896e-05
1.46115e-05
1.8559e-05
2.39755e-05
3.15021e-05
4.20616e-05
5.71384e-05
7.85531e-05
0.000108769
0.000152814
0.000216653
0.000310161
0.00044607
0.000649161
0.000955188
0.00141877
0.0021199
0.00317378
0.00426822
0.00492573
0.00512172
0.00499165
0.00468158
0.00428503
0.00385966
0.00343578
0.00302652
0.00263509
0.00226292
0.00191793
0.00160847
0.00134024
0.00110362
0.00088518
0.000694584
0.000535885
0.000403571
0.000291219
0.000203441
0.000137617
9.02926e-05
5.7684e-05
3.59067e-05
2.18705e-05
1.30675e-05
7.67971e-06
4.44256e-06
2.53435e-06
1.42736e-06
7.94423e-07
4.37323e-07
2.38415e-07
1.28695e-07
6.8866e-08
3.65567e-08
1.9266e-08
1.00828e-08
5.24289e-09
2.70874e-09
1.38956e-09
7.06309e-10
3.53944e-10
1.72864e-10
8.00652e-11
3.25757e-11
7.53007e-12
2.39595e-10
9.13404e-10
1.90558e-09
3.40298e-09
5.65148e-09
9.00253e-09
1.39523e-08
2.11811e-08
3.15838e-08
4.62777e-08
6.66055e-08
9.42047e-08
1.31126e-07
1.7985e-07
2.4306e-07
3.23618e-07
4.2473e-07
5.49135e-07
6.93159e-07
8.65224e-07
1.06323e-06
1.29019e-06
1.54728e-06
1.84487e-06
2.16883e-06
2.53287e-06
2.94614e-06
3.43214e-06
3.99234e-06
4.67221e-06
5.50223e-06
6.52353e-06
7.8208e-06
9.49007e-06
1.16827e-05
1.46022e-05
1.85463e-05
2.39578e-05
3.1477e-05
4.20258e-05
5.70862e-05
7.84773e-05
0.000108659
0.000152653
0.000216419
0.000309829
0.000445623
0.000648619
0.000954703
0.00141889
0.00212224
0.00316158
0.00426076
0.00492151
0.00511959
0.00499072
0.00468141
0.00428534
0.00386027
0.00343658
0.00302743
0.00263608
0.00226394
0.00191892
0.00160928
0.00134098
0.00110431
0.000885807
0.000695145
0.000536289
0.000403911
0.000291491
0.00020365
0.000137772
9.04022e-05
5.77571e-05
3.5954e-05
2.19001e-05
1.30855e-05
7.69037e-06
4.44876e-06
2.53788e-06
1.42934e-06
7.95522e-07
4.37925e-07
2.38741e-07
1.28869e-07
6.89585e-08
3.66054e-08
1.92914e-08
1.0096e-08
5.24971e-09
2.71223e-09
1.39134e-09
7.07212e-10
3.54395e-10
1.73084e-10
8.0167e-11
3.26172e-11
7.53967e-12
2.39677e-10
9.13716e-10
1.90623e-09
3.40413e-09
5.65335e-09
9.00544e-09
1.39567e-08
2.11874e-08
3.15927e-08
4.629e-08
6.6622e-08
9.4226e-08
1.31153e-07
1.79879e-07
2.43093e-07
3.23645e-07
4.24739e-07
5.4911e-07
6.93083e-07
8.6512e-07
1.06302e-06
1.28984e-06
1.54674e-06
1.84408e-06
2.16774e-06
2.53142e-06
2.94425e-06
3.4297e-06
3.98924e-06
4.6683e-06
5.49723e-06
6.51713e-06
7.81254e-06
9.4793e-06
1.16684e-05
1.4583e-05
1.85201e-05
2.39215e-05
3.14259e-05
4.19526e-05
5.69799e-05
7.83216e-05
0.00010843
0.000152309
0.000215899
0.00030903
0.000444385
0.000646659
0.000951517
0.00141356
0.00211305
0.00315594
0.00425492
0.0049176
0.00511769
0.00499034
0.00468205
0.00428662
0.00386193
0.00343846
0.00302945
0.00263819
0.00226608
0.00192096
0.00161094
0.00134251
0.0011057
0.000887082
0.00069628
0.000537117
0.000404613
0.000292061
0.000204095
0.000138096
9.06292e-05
5.7911e-05
3.60543e-05
2.19629e-05
1.31238e-05
7.7131e-06
4.46198e-06
2.54543e-06
1.43359e-06
7.97876e-07
4.39212e-07
2.39436e-07
1.29241e-07
6.91555e-08
3.67089e-08
1.93452e-08
1.01239e-08
5.26404e-09
2.71956e-09
1.39506e-09
7.09087e-10
3.55328e-10
1.73537e-10
8.03761e-11
3.27021e-11
7.55929e-12
2.39806e-10
9.14206e-10
1.90724e-09
3.40593e-09
5.65629e-09
9.01003e-09
1.39636e-08
2.11975e-08
3.16069e-08
4.63095e-08
6.66482e-08
9.42601e-08
1.31194e-07
1.79926e-07
2.43148e-07
3.23689e-07
4.24758e-07
5.4908e-07
6.92976e-07
8.64973e-07
1.06272e-06
1.28932e-06
1.54594e-06
1.8429e-06
2.16612e-06
2.52926e-06
2.94144e-06
3.42603e-06
3.98457e-06
4.66234e-06
5.4896e-06
6.50734e-06
7.7999e-06
9.46282e-06
1.16465e-05
1.45536e-05
1.84799e-05
2.38659e-05
3.13477e-05
4.18415e-05
5.68192e-05
7.80882e-05
0.00010809
0.000151807
0.000215148
0.000307892
0.00044265
0.00064395
0.000947215
0.00140659
0.00210149
0.0031473
0.00424669
0.00491244
0.0051155
0.00499044
0.00468356
0.00428894
0.00386471
0.00344149
0.00303264
0.00264148
0.0022694
0.00192411
0.0016135
0.00134484
0.00110785
0.000889052
0.000698057
0.000538415
0.000405717
0.000292948
0.000204759
0.000138581
9.09731e-05
5.81421e-05
3.62042e-05
2.20569e-05
1.31811e-05
7.74715e-06
4.48183e-06
2.55679e-06
1.43998e-06
8.01426e-07
4.41157e-07
2.40487e-07
1.29803e-07
6.94535e-08
3.68654e-08
1.94267e-08
1.0166e-08
5.2857e-09
2.73063e-09
1.40068e-09
7.11916e-10
3.56735e-10
1.7422e-10
8.06912e-11
3.283e-11
7.58883e-12
2.39988e-10
9.14899e-10
1.90868e-09
3.40847e-09
5.66047e-09
9.01655e-09
1.39734e-08
2.12118e-08
3.16272e-08
4.63376e-08
6.66861e-08
9.43095e-08
1.31255e-07
1.79997e-07
2.4323e-07
3.2376e-07
4.24799e-07
5.49057e-07
6.92851e-07
8.64796e-07
1.06233e-06
1.28864e-06
1.54488e-06
1.84134e-06
2.16394e-06
2.52631e-06
2.93758e-06
3.42108e-06
3.97826e-06
4.6543e-06
5.47936e-06
6.49425e-06
7.78293e-06
9.44043e-06
1.16166e-05
1.45134e-05
1.84251e-05
2.37902e-05
3.12418e-05
4.16917e-05
5.66049e-05
7.77816e-05
0.000107648
0.000151163
0.000214209
0.000306527
0.000440691
0.000641189
0.000943453
0.00140184
0.00209671
0.00312599
0.00423078
0.0049025
0.00511035
0.00499076
0.00468575
0.00429228
0.00386865
0.00344573
0.00303701
0.00264594
0.00227387
0.00192836
0.00161696
0.00134795
0.00111068
0.000891611
0.000700316
0.000540054
0.00040709
0.000294051
0.000205629
0.000139231
9.14298e-05
5.84481e-05
3.64024e-05
2.21811e-05
1.32568e-05
7.79218e-06
4.50809e-06
2.57183e-06
1.44846e-06
8.06129e-07
4.43733e-07
2.4188e-07
1.30549e-07
6.98488e-08
3.7073e-08
1.95348e-08
1.0222e-08
5.31444e-09
2.74531e-09
1.40814e-09
7.15672e-10
3.58603e-10
1.75127e-10
8.11095e-11
3.29998e-11
7.62805e-12
2.40232e-10
9.15827e-10
1.91061e-09
3.41189e-09
5.66608e-09
9.02533e-09