/*--------------------------------*- C++ -*----------------------------------*\
  =========                 |
  \\      /  F ield         | OpenFOAM: The Open Source CFD Toolbox
   \\    /   O peration     | Website:  https://openfoam.org
    \\  /    A nd           | Version:  10
     \\/     M anipulation  |
\*---------------------------------------------------------------------------*/
FoamFile
{
    format      ascii;
    class       volScalarField;
    location    "1";
    object      NO2;
}
// * * * * * * * * * * * * * * * * * * * * * * * * * * * * * * * * * * * * * //

dimensions      [0 0 0 0 0 0 0];

internalField   nonuniform List<scalar> 
4000
(
2.46005e-11
9.37738e-11
1.9558e-10
3.4907e-10
5.7919e-10
9.21363e-10
1.42505e-09
2.15691e-09
3.20227e-09
4.66305e-09
6.65235e-09
9.28893e-09
1.26874e-08
1.69299e-08
2.20167e-08
2.77762e-08
3.39044e-08
3.98316e-08
4.4628e-08
4.78762e-08
4.87806e-08
4.72373e-08
4.3466e-08
3.83623e-08
3.26495e-08
2.70284e-08
2.19376e-08
1.75819e-08
1.40712e-08
1.12745e-08
9.11914e-09
7.48922e-09
6.26752e-09
5.3643e-09
4.70784e-09
4.25475e-09
3.99215e-09
3.93463e-09
4.12659e-09
4.65436e-09
5.67794e-09
7.44717e-09
1.0365e-08
1.51202e-08
2.30161e-08
3.60053e-08
5.73367e-08
9.26705e-08
1.51898e-07
2.51624e-07
4.20233e-07
7.0654e-07
1.19486e-06
1.98676e-06
3.16096e-06
4.83758e-06
7.22902e-06
1.06733e-05
1.57239e-05
2.3209e-05
3.43474e-05
5.05258e-05
7.24021e-05
9.54852e-05
0.000108176
0.000104042
9.09299e-05
7.5859e-05
6.0873e-05
4.74734e-05
3.6294e-05
2.65439e-05
1.87403e-05
1.2756e-05
8.35972e-06
5.30074e-06
3.26189e-06
1.95678e-06
1.14884e-06
6.62111e-07
3.75785e-07
2.10288e-07
1.16245e-07
6.35931e-08
3.4428e-08
1.84875e-08
9.85636e-09
5.21943e-09
2.74839e-09
1.44073e-09
7.50318e-10
3.88903e-10
2.00604e-10
1.02877e-10
5.23284e-11
2.62578e-11
1.2845e-11
5.95873e-12
2.42734e-12
5.61526e-13
2.45354e-11
9.35257e-11
1.95071e-10
3.48217e-10
5.77907e-10
9.19565e-10
1.42259e-09
2.15359e-09
3.19773e-09
4.65662e-09
6.6427e-09
9.27374e-09
1.26643e-08
1.68979e-08
2.19789e-08
2.77421e-08
3.38896e-08
3.98608e-08
4.47276e-08
4.80707e-08
4.90851e-08
4.76847e-08
4.40042e-08
3.89105e-08
3.3176e-08
2.74887e-08
2.23267e-08
1.78706e-08
1.42924e-08
1.14415e-08
9.24478e-09
7.59339e-09
6.35171e-09
5.42821e-09
4.75911e-09
4.29777e-09
4.03022e-09
3.97062e-09
4.16472e-09
4.69976e-09
5.73954e-09
7.53925e-09
1.05087e-08
1.53592e-08
2.3421e-08
3.66946e-08
5.84928e-08
9.46251e-08
1.55251e-07
2.57345e-07
4.29967e-07
7.23042e-07
1.22389e-06
2.03189e-06
3.22697e-06
4.93316e-06
7.39798e-06
1.09233e-05
1.61048e-05
2.37946e-05
3.53462e-05
5.19538e-05
7.41771e-05
9.69916e-05
0.000108489
0.000103326
8.98427e-05
7.46931e-05
5.97628e-05
4.64998e-05
3.55057e-05
2.59922e-05
1.83696e-05
1.25063e-05
8.22958e-06
5.23843e-06
3.23735e-06
1.95033e-06
1.14978e-06
6.65229e-07
3.79008e-07
2.12876e-07
1.18137e-07
6.48319e-08
3.52653e-08
1.90055e-08
1.01594e-08
5.38678e-09
2.83579e-09
1.48253e-09
7.72382e-10
3.99986e-10
2.06018e-10
1.05466e-10
5.35403e-11
2.68129e-11
1.30924e-11
6.06406e-12
2.46743e-12
5.70391e-13
2.4519e-11
9.34727e-11
1.94995e-10
3.4815e-10
5.77907e-10
9.19688e-10
1.42299e-09
2.15432e-09
3.19873e-09
4.65755e-09
6.64279e-09
9.27174e-09
1.26583e-08
1.68879e-08
2.19676e-08
2.77392e-08
3.39137e-08
3.99452e-08
4.49034e-08
4.83736e-08
4.95196e-08
4.82012e-08
4.46489e-08
3.94895e-08
3.37441e-08
2.80043e-08
2.27658e-08
1.82316e-08
1.45867e-08
1.1676e-08
9.43391e-09
7.743e-09
6.46789e-09
5.52396e-09
4.83697e-09
4.36354e-09
4.08847e-09
4.02593e-09
4.22297e-09
4.77239e-09
5.83829e-09
7.68584e-09
1.0743e-08
1.57557e-08
2.40981e-08
3.78565e-08
6.04646e-08
9.79985e-08
1.60932e-07
2.67055e-07
4.46645e-07
7.51795e-07
1.27224e-06
2.10773e-06
3.34041e-06
5.0965e-06
7.63832e-06
1.12787e-05
1.66347e-05
2.45812e-05
3.67083e-05
5.38491e-05
7.65011e-05
9.88781e-05
0.000108732
0.000102328
8.84286e-05
7.32658e-05
5.84788e-05
4.54294e-05
3.46708e-05
2.5386e-05
1.79807e-05
1.22758e-05
8.08976e-06
5.16166e-06
3.19874e-06
1.93327e-06
1.14357e-06
6.63536e-07
3.79428e-07
2.13866e-07
1.19053e-07
6.55273e-08
3.56978e-08
1.92663e-08
1.03152e-08
5.47837e-09
2.88889e-09
1.51336e-09
7.87979e-10
4.08187e-10
2.10257e-10
1.07603e-10
5.45942e-11
2.73208e-11
1.333e-11
6.16962e-12
2.50895e-12
5.79794e-13
2.44635e-11
9.32617e-11
1.94556e-10
3.47371e-10
5.7662e-10
9.17652e-10
1.41977e-09
2.1493e-09
3.19093e-09
4.64552e-09
6.62452e-09
9.24503e-09
1.2622e-08
1.68426e-08
2.19183e-08
2.76981e-08
3.3902e-08
3.99898e-08
4.50316e-08
4.86406e-08
4.99302e-08
4.87543e-08
4.5281e-08
4.01251e-08
3.432e-08
2.85083e-08
2.32154e-08
1.86055e-08
1.48933e-08
1.19178e-08
9.63009e-09
7.9031e-09
6.59772e-09
5.629e-09
4.92455e-09
4.43926e-09
4.15706e-09
4.0923e-09
4.29622e-09
4.859e-09
5.95914e-09
7.87183e-09
1.10434e-08
1.62493e-08
2.493e-08
3.92667e-08
6.28149e-08
1.02005e-07
1.67794e-07
2.78701e-07
4.66336e-07
7.86989e-07
1.3311e-06
2.20054e-06
3.48059e-06
5.309e-06
7.95238e-06
1.17502e-05
1.73471e-05
2.56605e-05
3.83521e-05
5.61756e-05
7.9253e-05
0.000100844
0.000108798
0.000101083
8.68629e-05
7.17322e-05
5.71294e-05
4.43018e-05
3.37869e-05
2.47061e-05
1.74212e-05
1.18622e-05
7.81051e-06
4.98823e-06
3.09872e-06
1.87991e-06
1.1178e-06
6.53273e-07
3.75505e-07
2.12408e-07
1.18631e-07
6.54842e-08
3.57602e-08
1.93392e-08
1.0372e-08
5.51505e-09
2.91099e-09
1.52622e-09
7.95454e-10
4.12103e-10
2.12266e-10
1.08622e-10
5.51049e-11
2.75726e-11
1.34511e-11
6.2251e-12
2.53143e-12
5.84976e-13
2.43942e-11
9.29979e-11
1.94007e-10
3.46393e-10
5.74998e-10
9.15063e-10
1.41574e-09
2.14314e-09
3.1817e-09
4.63193e-09
6.60489e-09
9.21765e-09
1.2586e-08
1.6799e-08
2.1872e-08
2.76611e-08
3.38931e-08
4.00368e-08
4.51635e-08
4.88712e-08
5.02792e-08
4.92179e-08
4.58331e-08
4.06864e-08
3.48752e-08
2.90458e-08
2.3676e-08
1.89868e-08
1.51993e-08
1.21689e-08
9.82639e-09
8.05737e-09
6.72269e-09
5.7339e-09
5.01346e-09
4.51715e-09
4.2283e-09
4.16373e-09
4.37272e-09
4.95594e-09
6.09202e-09
8.07293e-09
1.13681e-08
1.67877e-08
2.58408e-08
4.08159e-08
6.54022e-08
1.06387e-07
1.75322e-07
2.91564e-07
4.88431e-07
8.22949e-07
1.39301e-06
2.29696e-06
3.62291e-06
5.51465e-06
8.24917e-06
1.2193e-05
1.80117e-05
2.66594e-05
3.98279e-05
5.82724e-05
8.17438e-05
0.000102598
0.000108721
9.99057e-05
8.54302e-05
7.03367e-05
5.58654e-05
4.32316e-05
3.29409e-05
2.40135e-05
1.69357e-05
1.15403e-05
7.60902e-06
4.86881e-06
3.03078e-06
1.84242e-06
1.09732e-06
6.41826e-07
3.69803e-07
2.10014e-07
1.1765e-07
6.50959e-08
3.56064e-08
1.92885e-08
1.03618e-08
5.51681e-09
2.91501e-09
1.52962e-09
7.97783e-10
4.13475e-10
2.13016e-10
1.09014e-10
5.53031e-11
2.76701e-11
1.34978e-11
6.24632e-12
2.53999e-12
5.86944e-13
2.43077e-11
9.26669e-11
1.93312e-10
3.45141e-10
5.72899e-10
9.11693e-10
1.41049e-09
2.13519e-09
3.16995e-09
4.61494e-09
6.58094e-09
9.18505e-09
1.25439e-08
1.67489e-08
2.1819e-08
2.76164e-08
3.38739e-08
4.00667e-08
4.52635e-08
4.9052e-08
5.0566e-08
4.96071e-08
4.63204e-08
4.12074e-08
3.54131e-08
2.95222e-08
2.40914e-08
1.93336e-08
1.54927e-08
1.24023e-08
1.00101e-08
8.20452e-09
6.84283e-09
5.83427e-09
5.09945e-09
4.59369e-09
4.30065e-09
4.23553e-09
4.45257e-09
5.05338e-09
6.22894e-09
8.28403e-09
1.17008e-08
1.73349e-08
2.67649e-08
4.23908e-08
6.80379e-08
1.10891e-07
1.82908e-07
3.04435e-07
5.10066e-07
8.5955e-07
1.45556e-06
2.39516e-06
3.77107e-06
5.74017e-06
8.57667e-06
1.26832e-05
1.87444e-05
2.77383e-05
4.13427e-05
6.03641e-05
8.40066e-05
0.000104034
0.000108567
9.89098e-05
8.42916e-05
6.88976e-05
5.46846e-05
4.2291e-05
3.21285e-05
2.34059e-05
1.65047e-05
1.12487e-05
7.41995e-06
4.75161e-06
2.96075e-06
1.80204e-06
1.07476e-06
6.29595e-07
3.62954e-07
2.06271e-07
1.15721e-07
6.41662e-08
3.52078e-08
1.91157e-08
1.02877e-08
5.48461e-09
2.90104e-09
1.52356e-09
7.95192e-10
4.12316e-10
2.12462e-10
1.08753e-10
5.51799e-11
2.7612e-11
1.34706e-11
6.23416e-12
2.53517e-12
5.85851e-13
2.42159e-11
9.23164e-11
1.92578e-10
3.43824e-10
5.70705e-10
9.08198e-10
1.40511e-09
2.12711e-09
3.15814e-09
4.5981e-09
6.55751e-09
9.15355e-09
1.25038e-08
1.67017e-08
2.17695e-08
2.75752e-08
3.3857e-08
4.00964e-08
4.53612e-08
4.92286e-08
5.08454e-08
4.99667e-08
4.67648e-08
4.17045e-08
3.58853e-08
2.99445e-08
2.44565e-08
1.96334e-08
1.57425e-08
1.26034e-08
1.01698e-08
8.33532e-09
6.95121e-09
5.92534e-09
5.17765e-09
4.66277e-09
4.36591e-09
4.30121e-09
4.52506e-09
5.145e-09
6.36033e-09
8.48368e-09
1.20171e-08
1.78512e-08
2.76225e-08
4.38172e-08
7.03444e-08
1.14728e-07
1.9025e-07
3.16548e-07
5.30749e-07
8.95309e-07
1.51501e-06
2.4863e-06
3.90535e-06
5.95283e-06
8.8728e-06
1.31241e-05
1.94107e-05
2.87618e-05
4.25698e-05
6.21461e-05
8.60723e-05
0.000105239
0.000108358
9.80153e-05
8.32651e-05
6.79048e-05
5.3812e-05
4.15463e-05
3.15392e-05
2.29479e-05
1.61666e-05
1.10088e-05
7.25845e-06
4.64841e-06
2.89749e-06
1.76472e-06
1.05345e-06
6.17801e-07
3.56546e-07
2.02849e-07
1.13913e-07
6.32091e-08
3.46897e-08
1.88455e-08
1.01506e-08
5.41607e-09
2.86731e-09
1.50714e-09
7.87343e-10
4.08606e-10
2.10773e-10
1.07966e-10
5.48069e-11
2.74341e-11
1.33866e-11
6.19608e-12
2.51986e-12
5.82337e-13
2.41248e-11
9.19685e-11
1.9185e-10
3.42522e-10
5.68539e-10
9.04758e-10
1.39982e-09
2.11923e-09
3.14668e-09
4.58186e-09
6.53507e-09
9.12364e-09
1.2466e-08
1.66575e-08
2.17235e-08
2.75369e-08
3.38409e-08
4.01222e-08
4.54476e-08
4.93854e-08
5.10832e-08
5.02973e-08
4.71469e-08
4.20962e-08
3.62629e-08
3.03031e-08
2.47765e-08
1.99095e-08
1.59654e-08
1.2778e-08
1.03105e-08
8.45088e-09
7.04765e-09
6.00707e-09
5.24835e-09
4.72748e-09
4.42644e-09
4.36239e-09
4.59315e-09
5.2303e-09
6.47643e-09
8.65808e-09
1.22927e-08
1.83053e-08
2.83902e-08
4.51265e-08
7.25482e-08
1.18438e-07
1.96216e-07
3.2643e-07
5.46873e-07
9.29011e-07
1.56853e-06
2.5663e-06
4.0193e-06
6.14798e-06
9.14305e-06
1.35247e-05
2.00147e-05
2.96549e-05
4.38462e-05
6.38994e-05
8.78664e-05
0.000106177
0.00010801
9.71038e-05
8.22635e-05
6.6869e-05
5.29577e-05
4.08638e-05
3.10082e-05
2.25428e-05
1.58556e-05
1.07828e-05
7.10391e-06
4.54852e-06
2.8356e-06
1.72779e-06
1.0321e-06
6.05814e-07
3.49938e-07
1.99274e-07
1.1201e-07
6.22098e-08
3.41714e-08
1.85812e-08
1.00085e-08
5.34447e-09
2.83134e-09
1.48911e-09
7.78351e-10
4.04077e-10
2.08467e-10
1.06808e-10
5.42323e-11
2.71532e-11
1.32526e-11
6.1353e-12
2.49554e-12
5.76776e-13
2.40395e-11
9.16432e-11
1.91171e-10
3.41308e-10
5.66527e-10
9.01572e-10
1.39495e-09
2.11199e-09
3.13622e-09
4.56712e-09
6.51484e-09
9.09686e-09
1.24325e-08
1.66185e-08
2.16831e-08
2.75035e-08
3.38268e-08
4.01436e-08
4.55176e-08
4.95129e-08
5.12887e-08
5.0561e-08
4.74697e-08
4.24543e-08
3.66216e-08
3.06228e-08
2.505e-08
2.01353e-08
1.61496e-08
1.29284e-08
1.04358e-08
8.55483e-09
7.13344e-09
6.07946e-09
5.31261e-09
4.78489e-09
4.48068e-09
4.41777e-09
4.65642e-09
5.31269e-09
6.59525e-09
8.84006e-09
1.25805e-08
1.87755e-08
2.91732e-08
4.64264e-08
7.47174e-08
1.22108e-07
2.02218e-07
3.36717e-07
5.64366e-07
9.5784e-07
1.61773e-06
2.643e-06
4.13554e-06
6.31227e-06
9.39064e-06
1.38963e-05
2.05646e-05
3.0464e-05
4.50049e-05
6.54165e-05
8.94139e-05
0.000106884
0.000107541
9.61156e-05
8.12118e-05
6.59003e-05
5.20989e-05
4.01134e-05
3.03936e-05
2.20799e-05
1.55223e-05
1.05542e-05
6.95339e-06
4.45353e-06
2.77756e-06
1.69338e-06
1.01221e-06
5.94577e-07
3.43697e-07
1.95864e-07
1.10172e-07
6.12319e-08
3.36566e-08
1.83148e-08
9.8705e-09
5.27347e-09
2.79502e-09
1.47062e-09
7.69022e-10
3.99352e-10
2.06078e-10
1.05605e-10
5.36304e-11
2.68555e-11
1.31087e-11
6.06923e-12
2.46881e-12
5.70613e-13
2.39625e-11
9.13494e-11
1.90558e-10
3.40214e-10
5.64718e-10
8.98713e-10
1.39058e-09
2.10553e-09
3.12692e-09
4.5541e-09
6.4971e-09
9.07355e-09
1.24034e-08
1.6585e-08
2.16489e-08
2.74761e-08
3.38177e-08
4.01686e-08
4.55918e-08
4.96419e-08
5.14806e-08
5.08202e-08
4.77678e-08
4.27485e-08
3.69051e-08
3.08866e-08
2.52835e-08
2.0327e-08
1.63087e-08
1.3062e-08
1.05427e-08
8.6421e-09
7.20597e-09
6.14299e-09
5.36782e-09
4.83464e-09
4.52822e-09
4.46681e-09
4.71384e-09
5.38658e-09
6.70127e-09
9.00372e-09
1.28421e-08
1.9209e-08
2.99018e-08
4.76732e-08
7.68579e-08
1.25755e-07
2.08153e-07
3.47071e-07
5.82464e-07
9.82619e-07
1.66069e-06
2.70833e-06
4.2291e-06
6.45888e-06
9.6002e-06
1.42027e-05
2.10221e-05
3.11505e-05
4.6026e-05
6.67781e-05
9.07292e-05
0.000107383
0.000107044
9.52737e-05
8.03393e-05
6.51105e-05
5.14183e-05
3.95765e-05
2.99454e-05
2.17247e-05
1.52595e-05
1.03699e-05
6.82964e-06
4.37403e-06
2.72813e-06
1.66359e-06
9.94685e-07
5.8453e-07
3.38039e-07
1.9273e-07
1.08462e-07
6.03107e-08
3.3166e-08
1.8058e-08
9.73634e-09
5.20392e-09
2.7592e-09
1.45226e-09
7.5964e-10
3.94578e-10
2.03661e-10
1.04386e-10
5.30202e-11
2.65534e-11
1.29626e-11
6.002e-12
2.44158e-12
5.64334e-13
2.38949e-11
9.1092e-11
1.90021e-10
3.39258e-10
5.63136e-10
8.96218e-10
1.38678e-09
2.09991e-09
3.11886e-09
4.54287e-09
6.48194e-09
9.05389e-09
1.23793e-08
1.65577e-08
2.16202e-08
2.74536e-08
3.38107e-08
4.01887e-08
4.565e-08
4.97447e-08
5.16365e-08
5.1029e-08
4.80118e-08
4.30125e-08
3.71563e-08
3.11132e-08
2.54786e-08
2.04916e-08
1.64465e-08
1.31743e-08
1.06341e-08
8.71808e-09
7.27132e-09
6.19738e-09
5.4147e-09
4.87678e-09
4.5682e-09
4.50831e-09
4.76226e-09
5.44962e-09
6.79214e-09
9.1445e-09
1.30681e-08
1.95859e-08
3.05377e-08
4.87523e-08
7.86496e-08
1.28771e-07
2.13112e-07
3.55504e-07
5.96685e-07
1.00675e-06
1.70073e-06
2.76974e-06
4.32013e-06
6.59106e-06
9.79484e-06
1.44931e-05
2.14546e-05
3.17888e-05
4.69381e-05
6.79815e-05
9.1916e-05
0.000107863
0.000106665
9.45601e-05
7.95998e-05
6.44151e-05
5.08162e-05
3.91147e-05
2.95836e-05
2.14385e-05
1.50456e-05
1.02183e-05
6.72661e-06
4.30704e-06
2.68598e-06
1.63792e-06
9.79339e-07
5.75649e-07
3.32991e-07
1.89909e-07
1.06909e-07
5.94668e-08
3.27129e-08
1.78182e-08
9.61018e-09
5.13812e-09
2.72514e-09
1.43481e-09
7.50431e-10
3.89902e-10
2.01295e-10
1.03195e-10
5.24238e-11
2.62583e-11
1.28199e-11
5.93635e-12
2.41498e-12
5.58201e-13
2.38371e-11
9.08717e-11
1.89563e-10
3.38441e-10
5.61788e-10
8.94096e-10
1.38356e-09
2.09515e-09
3.11207e-09
4.53346e-09
6.46932e-09
9.03764e-09
1.23596e-08
1.65358e-08
2.15975e-08
2.74372e-08
3.38082e-08
4.02108e-08
4.5707e-08
4.98368e-08
5.17786e-08
5.12091e-08
4.82163e-08
4.32248e-08
3.7364e-08
3.13023e-08
2.56439e-08
2.06291e-08
1.65594e-08
1.32669e-08
1.071e-08
8.7807e-09
7.32331e-09
6.24192e-09
5.45357e-09
4.91193e-09
4.60173e-09
4.54363e-09
4.80253e-09
5.50092e-09
6.86401e-09
9.25146e-09
1.3231e-08
1.99422e-08
3.10955e-08
4.96667e-08
8.01607e-08
1.31282e-07
2.17332e-07
3.62653e-07
6.08878e-07
1.02775e-06
1.73537e-06
2.82252e-06
4.39751e-06
6.70512e-06
9.96382e-06
1.4746e-05
2.18353e-05
3.23566e-05
4.77629e-05
6.90789e-05
9.29707e-05
0.000108287
0.000106385
9.40193e-05
7.90189e-05
6.38696e-05
5.03365e-05
3.87694e-05
2.93075e-05
2.12292e-05
1.48794e-05
1.00959e-05
6.64136e-06
4.25066e-06
2.65004e-06
1.61578e-06
9.66053e-07
5.67887e-07
3.28542e-07
1.87404e-07
1.0552e-07
5.8707e-08
3.23026e-08
1.75994e-08
9.49445e-09
5.07745e-09
2.6936e-09
1.41857e-09
7.41951e-10
3.85574e-10
1.99096e-10
1.02084e-10
5.18664e-11
2.5982e-11
1.2686e-11
5.87472e-12
2.38999e-12
5.52438e-13
2.37886e-11
9.0687e-11
1.89178e-10
3.37757e-10
5.60661e-10
8.92325e-10
1.38087e-09
2.09121e-09
3.10645e-09
4.5257e-09
6.45896e-09
9.0244e-09
1.23437e-08
1.65185e-08
2.15801e-08
2.74252e-08
3.38073e-08
4.02295e-08
4.57527e-08
4.99126e-08
5.1892e-08
5.13554e-08
4.83899e-08
4.34106e-08
3.75493e-08
3.14736e-08
2.57921e-08
2.07524e-08
1.66591e-08
1.33467e-08
1.0774e-08
8.83267e-09
7.36603e-09
6.27866e-09
5.48596e-09
4.94138e-09
4.63068e-09
4.57384e-09
4.83757e-09
5.5464e-09
6.92933e-09
9.35199e-09
1.33929e-08
2.02136e-08
3.15431e-08
5.041e-08
8.13919e-08
1.33329e-07
2.20703e-07
3.68128e-07
6.17626e-07
1.04995e-06
1.76807e-06
2.87038e-06
4.46786e-06
6.80829e-06
1.01149e-05
1.49682e-05
2.21667e-05
3.28467e-05
4.84746e-05
6.9996e-05
9.38445e-05
0.000108626
0.000106152
9.3571e-05
7.85299e-05
6.3412e-05
4.9928e-05
3.84703e-05
2.9049e-05
2.10229e-05
1.47274e-05
9.98766e-06
6.56725e-06
4.20198e-06
2.61903e-06
1.59665e-06
9.54555e-07
5.61143e-07
3.24658e-07
1.85206e-07
1.04295e-07
5.80344e-08
3.19377e-08
1.74039e-08
9.39066e-09
5.02284e-09
2.66509e-09
1.40382e-09
7.34348e-10
3.81678e-10
1.97111e-10
1.01078e-10
5.13606e-11
2.57308e-11
1.25642e-11
5.81854e-12
2.36719e-12
5.47175e-13
2.37486e-11
9.05347e-11
1.88861e-10
3.37194e-10
5.59734e-10
8.90869e-10
1.37867e-09
2.08797e-09
3.10185e-09
4.51935e-09
6.45047e-09
9.01355e-09
1.23307e-08
1.65042e-08
2.15657e-08
2.7415e-08
3.38075e-08
4.02474e-08
4.57938e-08
4.9978e-08
5.1986e-08
5.14788e-08
4.85327e-08
4.35612e-08
3.76934e-08
3.16064e-08
2.59071e-08
2.08487e-08
1.67383e-08
1.34119e-08
1.08269e-08
8.87625e-09
7.40244e-09
6.30882e-09
5.5123e-09
4.9656e-09
4.6543e-09
4.59888e-09
4.86724e-09
5.58585e-09
6.98756e-09
9.44445e-09
1.35451e-08
2.04701e-08
3.19762e-08
5.11456e-08
8.2635e-08
1.35443e-07
2.24312e-07
3.74372e-07
6.28569e-07
1.06508e-06
1.79434e-06
2.91061e-06
4.52589e-06
6.89205e-06
1.02377e-05
1.51512e-05
2.24388e-05
3.32537e-05
4.90631e-05
7.07659e-05
9.45735e-05
0.000108899
0.00010596
9.32069e-05
7.81413e-05
6.30496e-05
4.96073e-05
3.82356e-05
2.88513e-05
2.08645e-05
1.46065e-05
9.89955e-06
6.50596e-06
4.1613e-06
2.59293e-06
1.58046e-06
9.44774e-07
5.55379e-07
3.21325e-07
1.83312e-07
1.03236e-07
5.74502e-08
3.16196e-08
1.7233e-08
9.29961e-09
4.97479e-09
2.63995e-09
1.39078e-09
7.2762e-10
3.78227e-10
1.9535e-10
1.00185e-10
5.09113e-11
2.55075e-11
1.24558e-11
5.76855e-12
2.3469e-12
5.4249e-13
2.37163e-11
9.0412e-11
1.88606e-10
3.3674e-10
5.58989e-10
8.897e-10
1.3769e-09
2.08538e-09
3.09817e-09
4.51427e-09
6.44369e-09
9.00486e-09
1.23202e-08
1.64928e-08
2.1554e-08
2.74076e-08
3.38089e-08
4.02632e-08
4.58291e-08
5.00341e-08
5.20704e-08
5.15859e-08
4.86566e-08
4.36883e-08
3.78161e-08
3.17152e-08
2.60004e-08
2.09257e-08
1.6802e-08
1.3464e-08
1.08695e-08
8.91135e-09
7.43127e-09
6.33373e-09
5.53389e-09
4.98516e-09
4.67324e-09
4.61914e-09
4.89163e-09
5.61883e-09
7.03671e-09
9.52136e-09
1.36696e-08
2.06786e-08
3.23309e-08
5.17542e-08
8.36757e-08
1.37237e-07
2.27415e-07
3.79747e-07
6.37904e-07
1.07718e-06
1.81563e-06
2.94353e-06
4.5748e-06
6.96384e-06
1.03441e-05
1.53089e-05
2.26746e-05
3.36006e-05
4.95676e-05
7.1426e-05
9.5182e-05
0.000109117
0.000105801
9.29128e-05
7.78288e-05
6.2754e-05
4.93471e-05
3.80447e-05
2.8693e-05
2.0736e-05
1.45072e-05
9.82678e-06
6.45514e-06
4.12746e-06
2.57114e-06
1.56689e-06
9.36556e-07
5.50521e-07
3.18507e-07
1.81707e-07
1.02336e-07
5.69523e-08
3.13479e-08
1.70865e-08
9.22144e-09
4.93346e-09
2.61829e-09
1.37952e-09
7.21805e-10
3.75241e-10
1.93826e-10
9.94114e-11
5.05218e-11
2.53138e-11
1.23618e-11
5.72517e-12
2.32928e-12
5.38422e-13
2.36911e-11
9.03158e-11
1.88406e-10
3.36386e-10
5.58407e-10
8.88789e-10
1.37552e-09
2.08338e-09
3.09532e-09
4.51036e-09
6.43849e-09
8.99827e-09
1.23125e-08
1.64847e-08
2.15461e-08
2.74035e-08
3.38121e-08
4.02785e-08
4.58607e-08
5.00815e-08
5.21357e-08
5.16685e-08
4.87503e-08
4.37869e-08
3.79108e-08
3.17999e-08
2.60739e-08
2.09872e-08
1.68527e-08
1.35055e-08
1.09031e-08
8.93876e-09
7.45495e-09
6.35371e-09
5.55139e-09
5.00141e-09
4.68927e-09
4.6364e-09
4.91242e-09
5.64679e-09
7.07798e-09
9.58631e-09
1.37752e-08
2.08547e-08
3.26274e-08
5.22553e-08
8.4514e-08
1.38638e-07
2.29764e-07
3.83659e-07
6.44377e-07
1.08782e-06
1.83304e-06
2.97036e-06
4.61475e-06
7.02245e-06
1.04316e-05
1.54402e-05
2.28706e-05
3.38923e-05
4.99877e-05
7.1964e-05
9.56739e-05
0.000109286
0.000105668
9.26699e-05
7.75691e-05
6.25114e-05
4.91296e-05
3.78869e-05
2.85594e-05
2.06286e-05
1.44249e-05
9.76666e-06
6.41335e-06
4.09972e-06
2.5533e-06
1.55576e-06
9.29802e-07
5.46518e-07
3.1618e-07
1.80377e-07
1.01588e-07
5.65383e-08
3.11214e-08
1.69643e-08
9.15611e-09
4.89888e-09
2.60014e-09
1.37008e-09
7.16924e-10
3.72733e-10
1.92545e-10
9.8761e-11
5.01942e-11
2.51508e-11
1.22826e-11
5.68866e-12
2.31446e-12
5.34997e-13
2.36721e-11
9.02435e-11
1.88256e-10
3.3612e-10
5.5797e-10
8.88108e-10
1.3745e-09
2.08189e-09
3.09324e-09
4.50754e-09
6.43481e-09
8.9937e-09
1.23072e-08
1.64793e-08
2.1541e-08
2.74014e-08
3.38158e-08
4.02919e-08
4.58869e-08
5.01208e-08
5.21918e-08
5.17387e-08
4.8829e-08
4.38668e-08
3.7987e-08
3.18691e-08
2.61335e-08
2.10363e-08
1.68929e-08
1.35382e-08
1.09295e-08
8.96018e-09
7.47267e-09
6.36886e-09
5.56486e-09
5.0138e-09
4.70148e-09
4.64961e-09
4.92842e-09
5.66843e-09
7.11008e-09
9.63677e-09
1.38574e-08
2.09931e-08
3.28613e-08
5.26522e-08
8.5183e-08
1.39772e-07
2.3168e-07
3.86904e-07
6.49899e-07
1.09728e-06
1.84818e-06
2.99298e-06
4.64722e-06
7.0669e-06
1.04975e-05
1.55397e-05
2.30205e-05
3.41159e-05
5.03107e-05
7.23777e-05
9.60496e-05
0.000109411
0.000105562
9.24808e-05
7.73672e-05
6.23207e-05
4.89585e-05
3.77625e-05
2.84544e-05
2.05454e-05
1.43614e-05
9.7203e-06
6.38096e-06
4.07809e-06
2.5393e-06
1.54699e-06
9.2445e-07
5.43334e-07
3.14323e-07
1.79315e-07
1.0099e-07
5.62061e-08
3.09396e-08
1.68661e-08
9.10355e-09
4.87103e-09
2.58552e-09
1.36248e-09
7.12992e-10
3.70712e-10
1.91512e-10
9.82367e-11
4.99301e-11
2.50195e-11
1.22188e-11
5.65922e-12
2.3025e-12
5.32235e-13
2.36587e-11
9.01926e-11
1.8815e-10
3.35933e-10
5.57666e-10
8.87637e-10
1.3738e-09
2.08088e-09
3.09183e-09
4.50562e-09
6.43226e-09
8.99045e-09
1.23034e-08
1.64753e-08
2.15372e-08
2.74e-08
3.38188e-08
4.03018e-08
4.5906e-08
5.01491e-08
5.22314e-08
5.17882e-08
4.88845e-08
4.39238e-08
3.80412e-08
3.19177e-08
2.61753e-08
2.10708e-08
1.69211e-08
1.35612e-08
1.0948e-08
8.9752e-09
7.48478e-09
6.37946e-09
5.57434e-09
5.02261e-09
4.71023e-09
4.65914e-09
4.94004e-09
5.68428e-09
7.1338e-09
9.67433e-09
1.39186e-08
2.10958e-08
3.30361e-08
5.29516e-08
8.56924e-08
1.40642e-07
2.33174e-07
3.89479e-07
6.54361e-07
1.10508e-06
1.86163e-06
3.01576e-06
4.68621e-06
7.08276e-06
1.05394e-05
1.56101e-05
2.31295e-05
3.42795e-05
5.05484e-05
7.26852e-05
9.63285e-05
0.000109502
0.000105484
9.23421e-05
7.72165e-05
6.21814e-05
4.88346e-05
3.76721e-05
2.83783e-05
2.04839e-05
1.4314e-05
9.68549e-06
6.3567e-06
4.06195e-06
2.52892e-06
1.54056e-06
9.20561e-07
5.41034e-07
3.12984e-07
1.78548e-07
1.00557e-07
5.59652e-08
3.08072e-08
1.67943e-08
9.06495e-09
4.85049e-09
2.57468e-09
1.35681e-09
7.10045e-10
3.69192e-10
1.90734e-10
9.78414e-11
4.97309e-11
2.49204e-11
1.21707e-11
5.63701e-12
2.29349e-12
5.30153e-13
2.36501e-11
9.01601e-11
1.88083e-10
3.35814e-10
5.57471e-10
8.87332e-10
1.37334e-09
2.08021e-09
3.09087e-09
4.5043e-09
6.43051e-09
8.98825e-09
1.23008e-08
1.64727e-08
2.15349e-08
2.73992e-08
3.38209e-08
4.03086e-08
4.59185e-08
5.01674e-08
5.22569e-08
5.182e-08
4.89203e-08
4.39607e-08
3.80762e-08
3.1949e-08
2.62021e-08
2.10932e-08
1.69397e-08
1.3576e-08
1.09599e-08
8.98495e-09
7.49286e-09
6.38638e-09
5.58043e-09
5.02822e-09
4.71579e-09
4.66516e-09
4.94734e-09
5.6941e-09
7.14839e-09
9.69719e-09
1.39557e-08
2.11575e-08
3.31401e-08
5.31286e-08
8.59931e-08
1.41158e-07
2.34064e-07
3.91016e-07
6.57009e-07
1.10962e-06
1.86886e-06
3.0265e-06
4.70141e-06
7.10339e-06
1.05704e-05
1.56576e-05
2.3202e-05
3.43885e-05
5.0707e-05
7.28893e-05
9.65124e-05
0.000109561
0.000105431
9.22499e-05
7.71187e-05
6.20891e-05
4.87519e-05
3.7612e-05
2.83273e-05
2.04429e-05
1.42825e-05
9.66232e-06
6.34036e-06
4.05103e-06
2.52194e-06
1.53621e-06
9.17923e-07
5.39473e-07
3.12079e-07
1.78032e-07
1.00268e-07
5.58053e-08
3.07198e-08
1.67471e-08
9.03974e-09
4.83713e-09
2.56766e-09
1.35315e-09
7.08147e-10
3.68211e-10
1.9023e-10
9.75833e-11
4.96001e-11
2.4855e-11
1.21388e-11
5.62227e-12
2.28749e-12
5.28767e-13
2.36459e-11
9.0144e-11
1.88049e-10
3.35755e-10
5.57374e-10
8.87181e-10
1.37311e-09
2.07988e-09
3.09041e-09
4.50367e-09
6.42968e-09
8.98722e-09
1.22997e-08
1.64716e-08
2.15339e-08
2.73989e-08
3.38221e-08
4.0312e-08
4.59249e-08
5.01768e-08
5.227e-08
5.18361e-08
4.89385e-08
4.39793e-08
3.80939e-08
3.19648e-08
2.62156e-08
2.11044e-08
1.69487e-08
1.35833e-08
1.09658e-08
8.98992e-09
7.49742e-09
6.38996e-09
5.58346e-09
5.03097e-09
4.71846e-09
4.66799e-09
4.95063e-09
5.6983e-09
7.15412e-09
9.70534e-09
1.39673e-08
2.11744e-08
3.31644e-08
5.31634e-08
8.60436e-08
1.41237e-07
2.34203e-07
3.91306e-07
6.57699e-07
1.11134e-06
1.87105e-06
3.02835e-06
4.70126e-06
7.12163e-06
1.05889e-05
1.5683e-05
2.32402e-05
3.4446e-05
5.07908e-05
7.29969e-05
9.6608e-05
0.00010959
0.000105404
9.2203e-05
7.70693e-05
6.2043e-05
4.87109e-05
3.7582e-05
2.83021e-05
2.04228e-05
1.4267e-05
9.65083e-06
6.33211e-06
4.04534e-06
2.51814e-06
1.53379e-06
9.16439e-07
5.3859e-07
3.11566e-07
1.77739e-07
1.00104e-07
5.57148e-08
3.06706e-08
1.67207e-08
9.02566e-09
4.82972e-09
2.56379e-09
1.35115e-09
7.07119e-10
3.67687e-10
1.89964e-10
9.74493e-11
4.95329e-11
2.48217e-11
1.21227e-11
5.61484e-12
2.28448e-12
5.2807e-13
2.36458e-11
9.01438e-11
1.88049e-10
3.35754e-10
5.57373e-10
8.87179e-10
1.37311e-09
2.07988e-09
3.09041e-09
4.50367e-09
6.42968e-09
8.98722e-09
1.22997e-08
1.64716e-08
2.15339e-08
2.7399e-08
3.38223e-08
4.03122e-08
4.59252e-08
5.01772e-08
5.22704e-08
5.18366e-08
4.8939e-08
4.39798e-08
3.80942e-08
3.1965e-08
2.62158e-08
2.11044e-08
1.69487e-08
1.35833e-08
1.09659e-08
8.99e-09
7.49753e-09
6.39004e-09
5.58349e-09
5.03098e-09
4.71844e-09
4.66792e-09
4.95043e-09
5.69779e-09
7.15286e-09
9.70245e-09
1.39609e-08
2.11601e-08
3.31327e-08
5.30928e-08
8.58877e-08
1.4089e-07
2.33432e-07
3.89588e-07
6.53868e-07
1.11207e-06
1.86861e-06
3.02299e-06
4.69198e-06
7.13455e-06
1.05985e-05
1.56912e-05
2.32483e-05
3.4455e-05
5.08012e-05
7.30073e-05
9.66145e-05
0.00010959
0.000105401
9.22004e-05
7.70672e-05
6.20416e-05
4.871e-05
3.75812e-05
2.83015e-05
2.04222e-05
1.42665e-05
9.65044e-06
6.33178e-06
4.04507e-06
2.51793e-06
1.53365e-06
9.16345e-07
5.38532e-07
3.1153e-07
1.77719e-07
1.00092e-07
5.57084e-08
3.06671e-08
1.67188e-08
9.02472e-09
4.82924e-09
2.56355e-09
1.35104e-09
7.07066e-10
3.67662e-10
1.89953e-10
9.74444e-11
4.95308e-11
2.48208e-11
1.21223e-11
5.61468e-12
2.28442e-12
5.28057e-13
2.365e-11
9.01597e-11
1.88082e-10
3.35812e-10
5.57468e-10
8.87327e-10
1.37333e-09
2.08019e-09
3.09086e-09
4.50428e-09
6.43049e-09
8.98824e-09
1.23009e-08
1.64728e-08
2.1535e-08
2.73994e-08
3.38213e-08
4.03092e-08
4.59194e-08
5.01686e-08
5.22583e-08
5.18214e-08
4.89218e-08
4.3962e-08
3.80771e-08
3.19496e-08
2.62023e-08
2.10931e-08
1.69392e-08
1.35758e-08
1.09599e-08
8.98509e-09
7.49334e-09
6.38656e-09
5.58048e-09
5.02821e-09
4.7157e-09
4.66489e-09
4.94664e-09
5.69246e-09
7.1447e-09
9.68935e-09
1.39395e-08
2.11248e-08
3.30754e-08
5.30036e-08
8.57602e-08
1.40735e-07
2.3332e-07
3.8976e-07
6.55005e-07
1.10669e-06
1.86335e-06
3.01641e-06
4.6834e-06
7.12417e-06
1.05835e-05
1.56686e-05
2.32141e-05
3.44038e-05
5.07266e-05
7.29113e-05
9.65274e-05
0.000109562
0.000105425
9.22433e-05
7.71134e-05
6.20855e-05
4.87496e-05
3.76099e-05
2.83256e-05
2.04415e-05
1.42813e-05
9.66143e-06
6.33952e-06
4.05024e-06
2.52128e-06
1.53574e-06
9.17614e-07
5.39283e-07
3.11967e-07
1.77968e-07
1.00232e-07
5.57858e-08
3.07095e-08
1.67417e-08
9.03698e-09
4.83575e-09
2.56698e-09
1.35282e-09
7.07994e-10
3.68142e-10
1.90199e-10
9.75698e-11
4.95943e-11
2.48525e-11
1.21378e-11
5.62185e-12
2.28734e-12
5.28732e-13
2.36587e-11
9.01927e-11
1.8815e-10
3.35934e-10
5.57666e-10
8.87636e-10
1.37379e-09
2.08087e-09
3.0918e-09
4.50557e-09
6.43219e-09
8.99037e-09
1.23033e-08
1.64753e-08
2.15374e-08
2.74003e-08
3.38193e-08
4.03026e-08
4.5907e-08
5.01503e-08
5.22327e-08
5.17894e-08
4.88856e-08
4.39246e-08
3.80417e-08
3.19178e-08
2.6175e-08
2.10705e-08
1.69207e-08
1.35608e-08
1.09477e-08
8.97514e-09
7.48502e-09
6.37948e-09
5.57428e-09
5.02251e-09
4.71008e-09
4.65882e-09
4.93931e-09
5.68259e-09
7.13004e-09
9.66621e-09
1.39017e-08
2.10608e-08
3.29653e-08
5.28113e-08
8.54224e-08
1.40131e-07
2.3222e-07
3.87725e-07
6.51185e-07
1.1039e-06
1.8572e-06
3.00647e-06
4.66847e-06
7.10219e-06
1.0551e-05
1.56201e-05
2.31417e-05
3.42964e-05
5.05715e-05
7.27117e-05
9.63478e-05
0.000109504
0.000105475
9.23328e-05
7.72088e-05
6.21757e-05
4.88303e-05
3.76688e-05
2.83755e-05
2.0482e-05
1.43128e-05
9.68437e-06
6.35557e-06
4.06111e-06
2.52835e-06
1.54017e-06
9.20315e-07
5.40886e-07
3.12899e-07
1.785e-07
1.00531e-07
5.59516e-08
3.08001e-08
1.67907e-08
9.06316e-09
4.84962e-09
2.57426e-09
1.35662e-09
7.09956e-10
3.6915e-10
1.90714e-10
9.78317e-11
4.97262e-11
2.49182e-11
1.21697e-11
5.63656e-12
2.29331e-12
5.30112e-13
2.36722e-11
9.02443e-11
1.88258e-10
3.36123e-10
5.57977e-10
8.8812e-10
1.37452e-09
2.08192e-09
3.09329e-09
4.5076e-09
6.43488e-09
8.99376e-09
1.23073e-08
1.64794e-08
2.15412e-08
2.74018e-08
3.38165e-08
4.02929e-08
4.58881e-08
5.01222e-08
5.21932e-08
5.17401e-08
4.88302e-08
4.38677e-08
3.79875e-08
3.18692e-08
2.61334e-08
2.10358e-08
1.68923e-08
1.35376e-08
1.09289e-08
8.95972e-09
7.47231e-09
6.36856e-09
5.56461e-09
5.01359e-09
4.70128e-09
4.64934e-09
4.92789e-09
5.66725e-09
7.10741e-09
9.63085e-09
1.38448e-08
2.09661e-08
3.28057e-08
5.2539e-08
8.49579e-08
1.39324e-07
2.30802e-07
3.85186e-07
6.4652e-07
1.09972e-06
1.84875e-06
2.99284e-06
4.64732e-06
7.06839e-06
1.05008e-05
1.55456e-05
2.30302e-05
3.41305e-05
5.03312e-05
7.24036e-05
9.60687e-05
0.000109412
0.000105552
9.24708e-05
7.73595e-05
6.2316e-05
4.89569e-05
3.77613e-05
2.8454e-05
2.05449e-05
1.43599e-05
9.7187e-06
6.37989e-06
4.07744e-06
2.53894e-06
1.54681e-06
9.24356e-07
5.43287e-07
3.14298e-07
1.79301e-07
1.00982e-07
5.62017e-08
3.09371e-08
1.68647e-08
9.10276e-09
4.8706e-09
2.58528e-09
1.36235e-09
7.12921e-10
3.70675e-10
1.91493e-10
9.8227e-11
4.99253e-11
2.50171e-11
1.22177e-11
5.65873e-12
2.30231e-12
5.32191e-13
2.36913e-11
9.03166e-11
1.88408e-10
3.3639e-10
5.58414e-10
8.88802e-10
1.37555e-09
2.08342e-09
3.0954e-09
4.51049e-09
6.4387e-09
8.9986e-09
1.23129e-08
1.64853e-08
2.15469e-08
2.74045e-08
3.38134e-08
4.02803e-08
4.58629e-08
5.00838e-08
5.2138e-08
5.16706e-08
4.87519e-08
4.3788e-08
3.79116e-08
3.18003e-08
2.6074e-08
2.09871e-08
1.68526e-08
1.35051e-08
1.09027e-08
8.93838e-09
7.45451e-09
6.35329e-09
5.55109e-09
5.00112e-09
4.68905e-09
4.63626e-09
4.91232e-09
5.64669e-09
7.07779e-09
9.58592e-09
1.37742e-08
2.08527e-08
3.26232e-08
5.22473e-08
8.45029e-08
1.38636e-07
2.29809e-07
3.83877e-07
6.45145e-07
1.09011e-06
1.83735e-06
2.97884e-06
4.63249e-06
7.0067e-06
1.04267e-05
1.54416e-05
2.28777e-05
3.39059e-05
5.00096e-05
7.19919e-05
9.56958e-05
0.000109287
0.000105654
9.26522e-05
7.75497e-05
6.24973e-05