/*--------------------------------*- C++ -*----------------------------------*\
  =========                 |
  \\      /  F ield         | OpenFOAM: The Open Source CFD Toolbox
   \\    /   O peration     | Website:  https://openfoam.org
    \\  /    A nd           | Version:  10
     \\/     M anipulation  |
\*---------------------------------------------------------------------------*/
FoamFile
{
    format      ascii;
    class       volScalarField;
    location    "1";
    object      NO3;
}
// * * * * * * * * * * * * * * * * * * * * * * * * * * * * * * * * * * * * * //

dimensions      [0 0 0 0 0 0 0];

internalField   nonuniform List<scalar> 
4000
(
1.52299e-20
8.28246e-20
2.74041e-19
7.9415e-19
2.12855e-18
5.3986e-18
1.30912e-17
3.04391e-17
6.77341e-17
1.43561e-16
2.88236e-16
5.45926e-16
9.72345e-16
1.62291e-15
2.52693e-15
3.64666e-15
4.86848e-15
5.98244e-15
6.71152e-15
6.91077e-15
6.51871e-15
5.69168e-15
4.70993e-15
3.929e-15
3.45669e-15
3.24393e-15
3.16122e-15
3.09123e-15
2.91236e-15
2.55926e-15
2.01293e-15
1.35776e-15
7.92112e-16
4.80981e-16
4.31071e-16
6.20624e-16
1.15983e-15
2.30603e-15
4.56903e-15
8.93872e-15
1.73355e-14
3.30803e-14
6.19514e-14
1.14244e-13
2.09754e-13
3.80087e-13
6.78196e-13
1.19559e-12
2.09087e-12
3.62881e-12
6.25884e-12
1.07496e-11
1.84446e-11
3.17011e-11
5.40231e-11
9.05487e-11
1.49525e-10
2.43665e-10
3.91281e-10
6.11112e-10
9.04768e-10
1.21873e-09
1.43396e-09
1.38334e-09
1.0191e-09
5.92201e-10
3.1661e-10
2.28728e-10
4.04311e-10
1.00729e-09
1.79046e-09
1.7606e-09
1.35462e-09
9.42458e-10
6.19165e-10
3.9151e-10
2.3991e-10
1.43285e-10
8.37595e-11
4.80736e-11
2.71792e-11
1.51555e-11
8.3514e-12
4.55537e-12
2.46025e-12
1.3182e-12
7.01363e-13
3.7073e-13
1.94886e-13
1.01993e-13
5.30512e-14
2.74672e-14
1.41544e-14
7.25272e-15
3.68639e-15
1.84865e-15
9.03896e-16
4.1916e-16
1.70708e-16
3.94856e-17
1.506e-20
8.18904e-20
2.7092e-19
7.8511e-19
2.10434e-18
5.33647e-18
1.29388e-17
3.0078e-17
6.69068e-17
1.41739e-16
2.84419e-16
5.38447e-16
9.58512e-16
1.60009e-15
2.49423e-15
3.60674e-15
4.82573e-15
5.94948e-15
6.70512e-15
6.94036e-15
6.57985e-15
5.77887e-15
4.79894e-15
3.99731e-15
3.50433e-15
3.27759e-15
3.19006e-15
3.12007e-15
2.9447e-15
2.5966e-15
2.05313e-15
1.39894e-15
8.21744e-16
4.97201e-16
4.43321e-16
6.36201e-16
1.18876e-15
2.36435e-15
4.68995e-15
9.18171e-15
1.78168e-14
3.40123e-14
6.36893e-14
1.1751e-13
2.15809e-13
3.91117e-13
6.97711e-13
1.22987e-12
2.15131e-12
3.73378e-12
6.43932e-12
1.10575e-11
1.89866e-11
3.26245e-11
5.55528e-11
9.30663e-11
1.544e-10
2.51492e-10
4.03661e-10
6.29455e-10
9.31098e-10
1.24406e-09
1.44628e-09
1.37032e-09
9.88035e-10
5.6881e-10
3.05532e-10
2.32368e-10
4.32664e-10
1.09627e-09
1.82389e-09
1.74039e-09
1.32724e-09
9.20189e-10
6.06496e-10
3.84845e-10
2.36833e-10
1.42052e-10
8.33852e-11
4.80445e-11
2.72689e-11
1.52631e-11
8.44348e-12
4.62084e-12
2.50676e-12
1.34784e-12
7.19078e-13
3.80647e-13
2.00112e-13
1.04506e-13
5.43811e-14
2.81359e-14
1.44807e-14
7.40824e-15
3.75886e-15
1.88165e-15
9.18507e-16
4.25339e-16
1.73048e-16
4.00011e-17
1.48934e-20
8.09925e-20
2.68e-19
7.7682e-19
2.08264e-18
5.28293e-18
1.28072e-17
2.97578e-17
6.61439e-17
1.39976e-16
2.80491e-16
5.30059e-16
9.43148e-16
1.57501e-15
2.45787e-15
3.5616e-15
4.78227e-15
5.91689e-15
6.7002e-15
6.97842e-15
6.65826e-15
5.87291e-15
4.90143e-15
4.06605e-15
3.55406e-15
3.3145e-15
3.22229e-15
3.15613e-15
2.98766e-15
2.64815e-15
2.11085e-15
1.45216e-15
8.58303e-16
5.19998e-16
4.62555e-16
6.63433e-16
1.24258e-15
2.46077e-15
4.88263e-15
9.5794e-15
1.85967e-14
3.55116e-14
6.65491e-14
1.22977e-13
2.2603e-13
4.09903e-13
7.31342e-13
1.28963e-12
2.25474e-12
3.91384e-12
6.75206e-12
1.16001e-11
1.99113e-11
3.42061e-11
5.82011e-11
9.73301e-11
1.61332e-10
2.6256e-10
4.20763e-10
6.53804e-10
9.65981e-10
1.27551e-09
1.45891e-09
1.34901e-09
9.47398e-10
5.38405e-10
2.91417e-10
2.38488e-10
4.59985e-10
1.18546e-09
1.83721e-09
1.70577e-09
1.29357e-09
8.97618e-10
5.92086e-10
3.76546e-10
2.32359e-10
1.39828e-10
8.23634e-11
4.7582e-11
2.71108e-11
1.52332e-11
8.45683e-12
4.64358e-12
2.52438e-12
1.35986e-12
7.26842e-13
3.85438e-13
2.02984e-13
1.06217e-13
5.52561e-14
2.8599e-14
1.47207e-14
7.52923e-15
3.81835e-15
1.91019e-15
9.31779e-16
4.31201e-16
1.75343e-16
4.05195e-17
1.46571e-20
7.9697e-20
2.63644e-19
7.63907e-19
2.04702e-18
5.18944e-18
1.25744e-17
2.92055e-17
6.48999e-17
1.37337e-16
2.75286e-16
5.20687e-16
9.27157e-16
1.5499e-15
2.42248e-15
3.51833e-15
4.73831e-15
5.88846e-15
6.69829e-15
7.01543e-15
6.73393e-15
5.97514e-15
5.00376e-15
4.14495e-15
3.60683e-15
3.35162e-15
3.25635e-15
3.19429e-15
3.03401e-15
2.69983e-15
2.167e-15
1.50317e-15
8.96462e-16
5.43992e-16
4.83618e-16
6.93572e-16
1.30084e-15
2.57908e-15
5.12746e-15
1.00591e-14
1.95653e-14
3.74218e-14
7.02004e-14
1.2975e-13
2.3855e-13
4.32688e-13
7.71535e-13
1.36103e-12
2.38079e-12
4.13248e-12
7.12747e-12
1.22728e-11
2.10536e-11
3.61733e-11
6.15273e-11
1.02949e-10
1.70478e-10
2.77282e-10
4.43602e-10
6.86535e-10
1.0063e-09
1.31132e-09
1.47054e-09
1.32154e-09
9.02474e-10
5.03979e-10
2.76996e-10
2.48029e-10
4.99305e-10
1.27739e-09
1.83961e-09
1.66078e-09
1.24263e-09
8.57343e-10
5.64421e-10
3.59183e-10
2.22204e-10
1.34289e-10
7.95966e-11
4.64222e-11
2.66233e-11
1.50215e-11
8.3716e-12
4.61242e-12
2.51451e-12
1.35781e-12
7.27256e-13
3.86249e-13
2.03665e-13
1.06687e-13
5.55617e-14
2.8766e-14
1.48084e-14
7.5743e-15
3.84105e-15
1.92138e-15
9.37144e-16
4.33652e-16
1.76334e-16
4.07475e-17
1.443e-20
7.84625e-20
2.59558e-19
7.5205e-19
2.01517e-18
5.10848e-18
1.2378e-17
2.87496e-17
6.38906e-17
1.35217e-16
2.71088e-16
5.12929e-16
9.13923e-16
1.52936e-15
2.39404e-15
3.48443e-15
4.7055e-15
5.86766e-15
6.70097e-15
7.05062e-15
6.7995e-15
6.05956e-15
5.09117e-15
4.21301e-15
3.65683e-15
3.39154e-15
3.29183e-15
3.23228e-15
3.0749e-15
2.75004e-15
2.21716e-15
1.53764e-15
9.28617e-16
5.66774e-16
5.05297e-16
7.25989e-16
1.36415e-15
2.7116e-15
5.39456e-15
1.06094e-14
2.06355e-14
3.94913e-14
7.41565e-14
1.37154e-13
2.52285e-13
4.57757e-13
8.15813e-13
1.43904e-12
2.51854e-12
4.37212e-12
7.54335e-12
1.29587e-11
2.22452e-11
3.82032e-11
6.48819e-11
1.08362e-10
1.79112e-10
2.91107e-10
4.64799e-10
7.16213e-10
1.04049e-09
1.3395e-09
1.47501e-09
1.28901e-09
8.57549e-10
4.72562e-10
2.64751e-10
2.58928e-10
5.41582e-10
1.36251e-09
1.8347e-09
1.61233e-09
1.19817e-09
8.25926e-10
5.44534e-10
3.47395e-10
2.155e-10
1.30571e-10
7.75365e-11
4.52357e-11
2.60104e-11
1.47521e-11
8.25281e-12
4.55996e-12
2.49046e-12
1.34744e-12
7.23087e-13
3.84633e-13
2.03074e-13
1.06487e-13
5.55053e-14
2.8752e-14
1.48057e-14
7.57416e-15
3.84121e-15
1.92146e-15
9.37159e-16
4.33647e-16
1.7633e-16
4.07463e-17
1.42083e-20
7.72555e-20
2.55558e-19
7.4043e-19
1.98396e-18
5.02931e-18
1.21865e-17
2.83077e-17
6.29196e-17
1.33196e-16
2.67135e-16
5.05725e-16
9.0186e-16
1.51107e-15
2.3694e-15
3.45611e-15
4.67949e-15
5.85304e-15
6.70608e-15
7.08087e-15
6.85485e-15
6.13071e-15
5.16845e-15
4.27696e-15
3.70724e-15
3.42909e-15
3.32565e-15
3.26892e-15
3.11814e-15
2.80037e-15
2.2741e-15
1.60287e-15
9.70149e-16
5.92521e-16
5.28486e-16
7.60514e-16
1.43221e-15
2.85039e-15
5.67883e-15
1.11675e-14
2.17445e-14
4.16606e-14
7.82042e-14
1.44687e-13
2.66252e-13
4.83304e-13
8.61008e-13
1.51937e-12
2.65771e-12
4.61314e-12
7.95427e-12
1.36616e-11
2.34677e-11
4.03088e-11
6.844e-11
1.14381e-10
1.88731e-10
3.06477e-10
4.88121e-10
7.47785e-10
1.07408e-09
1.3652e-09
1.47582e-09
1.25723e-09
8.18325e-10
4.46221e-10
2.55314e-10
2.70461e-10
5.80899e-10
1.42165e-09
1.81494e-09
1.56436e-09
1.15668e-09
7.97003e-10
5.25987e-10
3.36098e-10
2.08861e-10
1.2679e-10
7.54394e-11
4.40982e-11
2.53743e-11
1.43969e-11
8.06564e-12
4.46744e-12
2.44965e-12
1.32908e-12
7.148e-13
3.80827e-13
2.01315e-13
1.05668e-13
5.51243e-14
2.85696e-14
1.47147e-14
7.52941e-15
3.81935e-15
1.91086e-15
9.32112e-16
4.31353e-16
1.75409e-16
4.05352e-17
1.40019e-20
7.61328e-20
2.51842e-19
7.29665e-19
1.95515e-18
4.95651e-18
1.20113e-17
2.79057e-17
6.20421e-17
1.31383e-16
2.63609e-16
4.99346e-16
8.91255e-16
1.4951e-15
2.34809e-15
3.4319e-15
4.65778e-15
5.84202e-15
6.71372e-15
7.11294e-15
6.91217e-15
6.19996e-15
5.2423e-15
4.34146e-15
3.75456e-15
3.46444e-15
3.35682e-15
3.30136e-15
3.15489e-15
2.84183e-15
2.3178e-15
1.6446e-15
1.00294e-15
6.14392e-16
5.49374e-16
7.92295e-16
1.49501e-15
2.9785e-15
5.9396e-15
1.16947e-14
2.2801e-14
4.36907e-14
8.2007e-14
1.51713e-13
2.79084e-13
5.06279e-13
9.00438e-13
1.58789e-12
2.7909e-12
4.83763e-12
8.34183e-12
1.43348e-11
2.46067e-11
4.22352e-11
7.16336e-11
1.19978e-10
1.97343e-10
3.20186e-10
5.09034e-10
7.76978e-10
1.09983e-09
1.38464e-09
1.47398e-09
1.22726e-09
7.84177e-10
4.24236e-10
2.47363e-10
2.80107e-10
6.15198e-10
1.46778e-09
1.79863e-09
1.52799e-09
1.12481e-09
7.73927e-10
5.10677e-10
3.26496e-10
2.03073e-10
1.23418e-10
7.35308e-11
4.3047e-11
2.48047e-11
1.40927e-11
7.90437e-12
4.38139e-12
2.40233e-12
1.30404e-12
7.01898e-13
3.74291e-13
1.98053e-13
1.04059e-13
5.43427e-14
2.81954e-14
1.45428e-14
7.44858e-15
3.78079e-15
1.89237e-15
9.23346e-16
4.27366e-16
1.73803e-16
4.01658e-17
1.38136e-20
7.51089e-20
2.48456e-19
7.19861e-19
1.92894e-18
4.89045e-18
1.18529e-17
2.75434e-17
6.1255e-17
1.29765e-16
2.60484e-16
4.93729e-16
8.81984e-16
1.48126e-15
2.32981e-15
3.41142e-15
4.63993e-15
5.8341e-15
6.72284e-15
7.14428e-15
6.96403e-15
6.2674e-15
5.30925e-15
4.39487e-15
3.79386e-15
3.49567e-15
3.38538e-15
3.33216e-15
3.18791e-15
2.87722e-15
2.35449e-15
1.67817e-15
1.02802e-15
6.32575e-16
5.68339e-16
8.23232e-16
1.55572e-15
3.10221e-15
6.18628e-15
1.21809e-14
2.37295e-14
4.5464e-14
8.53259e-14
1.57896e-13
2.90559e-13
5.27293e-13
9.37769e-13
1.65332e-12
2.89966e-12
5.02156e-12
8.6465e-12
1.49594e-11
2.56258e-11
4.39223e-11
7.43567e-11
1.25171e-10
2.05272e-10
3.32705e-10
5.27973e-10
8.02165e-10
1.1262e-09
1.40299e-09
1.46991e-09
1.19778e-09
7.51788e-10
4.04363e-10
2.41047e-10
2.91685e-10
6.51045e-10
1.50448e-09
1.78141e-09
1.49606e-09
1.09629e-09
7.52909e-10
4.96526e-10
3.1751e-10
1.97594e-10
1.2019e-10
7.16823e-11
4.20159e-11
2.42392e-11
1.37877e-11
7.74229e-12
4.2963e-12
2.35812e-12
1.28141e-12
6.89809e-13
3.68165e-13
1.94957e-13
1.02497e-13
5.35586e-14
2.77979e-14
1.43384e-14
7.34529e-15
3.72928e-15
1.86709e-15
9.11252e-16
4.21868e-16
1.71599e-16
3.96613e-17
1.36468e-20
7.42022e-20
2.4546e-19
7.11202e-19
1.90585e-18
4.83237e-18
1.1714e-17
2.72272e-17
6.05709e-17
1.28365e-16
2.57794e-16
4.88923e-16
8.74107e-16
1.46961e-15
2.3146e-15
3.39475e-15
4.62608e-15
5.82915e-15
6.73202e-15
7.17144e-15
7.01052e-15
6.32251e-15
5.36611e-15
4.44429e-15
3.83252e-15
3.525e-15
3.41099e-15
3.35849e-15
3.21687e-15
2.9082e-15
2.38691e-15
1.70794e-15
1.05082e-15
6.49022e-16
5.86343e-16
8.52648e-16
1.6144e-15
3.2223e-15
6.4306e-15
1.26737e-14
2.47044e-14
4.73333e-14
8.88007e-14
1.64294e-13
3.02237e-13
5.48093e-13
9.74362e-13
1.71765e-12
3.00827e-12
5.21094e-12
8.97233e-12
1.55042e-11
2.65816e-11
4.55663e-11
7.71422e-11
1.29548e-10
2.12485e-10
3.44186e-10
5.4494e-10
8.24355e-10
1.14907e-09
1.41727e-09
1.46435e-09
1.17053e-09
7.22832e-10
3.86231e-10
2.35706e-10
3.04935e-10
6.93797e-10
1.54827e-09
1.76609e-09
1.46351e-09
1.06792e-09
7.32664e-10
4.83193e-10
3.09173e-10
1.92558e-10
1.17236e-10
6.99903e-11
4.1067e-11
2.37154e-11
1.35029e-11
7.58936e-12
4.21513e-12
2.31547e-12
1.25933e-12
6.78379e-13
3.62287e-13
1.9195e-13
1.00965e-13
5.27839e-14
2.74049e-14
1.41395e-14
7.2449e-15
3.67893e-15
1.84214e-15
8.99166e-16
4.16306e-16
1.69345e-16
3.91412e-17
1.35019e-20
7.34151e-20
2.42861e-19
7.03699e-19
1.88587e-18
4.78224e-18
1.15944e-17
2.69558e-17
5.9986e-17
1.27174e-16
2.55516e-16
4.84872e-16
8.67494e-16
1.45985e-15
2.3019e-15
3.38095e-15
4.61492e-15
5.82637e-15
6.74318e-15
7.20044e-15
7.05581e-15
6.37914e-15
5.42152e-15
4.48723e-15
3.86457e-15
3.55029e-15
3.43383e-15
3.38168e-15
3.24282e-15
2.93588e-15
2.41428e-15
1.73261e-15
1.07081e-15
6.63695e-16
6.0237e-16
8.79515e-16
1.66852e-15
3.33333e-15
6.6576e-15
1.31225e-14
2.55865e-14
4.90336e-14
9.19868e-14
1.70226e-13
3.13138e-13
5.68037e-13
1.01029e-12
1.78097e-12
3.11403e-12
5.39745e-12
9.29953e-12
1.59617e-11
2.73978e-11
4.69449e-11
7.93716e-11
1.3345e-10
2.186e-10
3.53655e-10
5.58955e-10
8.42777e-10
1.16843e-09
1.42913e-09
1.45865e-09
1.14981e-09
6.93559e-10
3.69904e-10
2.30978e-10
3.15565e-10
7.2679e-10
1.56823e-09
1.74565e-09
1.43377e-09
1.04354e-09
7.15569e-10
4.71981e-10
3.02136e-10
1.88272e-10
1.14695e-10
6.8515e-11
4.02294e-11
2.32474e-11
1.32454e-11
7.44954e-12
4.14011e-12
2.27564e-12
1.2385e-12
6.67519e-13
3.56664e-13
1.89057e-13
9.94837e-14
5.2027e-14
2.70199e-14
1.39445e-14
7.14654e-15
3.62964e-15
1.81771e-15
8.87337e-16
4.10859e-16
1.67136e-16
3.86316e-17
1.33784e-20
7.27442e-20
2.40647e-19
6.97316e-19
1.8689e-18
4.73974e-18
1.14933e-17
2.6727e-17
5.94952e-17
1.26181e-16
2.53635e-16
4.81567e-16
8.62174e-16
1.45214e-15
2.29186e-15
3.3704e-15
4.60705e-15
5.82537e-15
6.75283e-15
7.22396e-15
7.09264e-15
6.4247e-15
5.46668e-15
4.52591e-15
3.89366e-15
3.57286e-15
3.45369e-15
3.40205e-15
3.26466e-15
2.95902e-15
2.43722e-15
1.75286e-15
1.08593e-15
6.75358e-16
6.15823e-16
9.02566e-16
1.7148e-15
3.42836e-15
6.85123e-15
1.35078e-14
2.63439e-14
5.04937e-14
9.47241e-14
1.75339e-13
3.22555e-13
5.85124e-13
1.04013e-12
1.83309e-12
3.20217e-12
5.54969e-12
9.55876e-12
1.64046e-11
2.81636e-11
4.82499e-11
8.15503e-11
1.37011e-10
2.24336e-10
3.62685e-10
5.72259e-10
8.59909e-10
1.1854e-09
1.43871e-09
1.4519e-09
1.12767e-09
6.73218e-10
3.57832e-10
2.28335e-10
3.27184e-10
7.60873e-10
1.58728e-09
1.731e-09
1.41109e-09
1.0246e-09
7.02078e-10
4.62975e-10
2.96386e-10
1.84711e-10
1.12553e-10
6.7249e-11
3.95023e-11
2.28369e-11
1.30172e-11
7.32447e-12
4.07242e-12
2.23941e-12
1.21937e-12
6.57474e-13
3.51433e-13
1.86353e-13
9.80986e-14
5.12995e-14
2.66504e-14
1.37575e-14
7.05235e-15
3.58248e-15
1.79436e-15
8.76037e-16
4.05657e-16
1.65028e-16
3.81452e-17
1.32747e-20
7.21808e-20
2.3879e-19
6.91967e-19
1.8547e-18
4.70427e-18
1.14091e-17
2.65371e-17
5.90896e-17
1.25365e-16
2.52099e-16
4.78887e-16
8.57897e-16
1.44601e-15
2.28393e-15
3.36238e-15
4.60143e-15
5.82582e-15
6.76318e-15
7.24594e-15
7.12727e-15
6.46497e-15
5.50527e-15
4.55752e-15
3.91815e-15
3.59221e-15
3.47107e-15
3.41953e-15
3.28293e-15
2.97821e-15
2.45612e-15
1.76918e-15
1.09795e-15
6.84716e-16
6.26929e-16
9.21821e-16
1.75335e-15
3.50731e-15
7.0074e-15
1.38122e-14
2.69277e-14
5.15832e-14
9.66846e-14
1.80084e-13
3.30694e-13
5.99452e-13
1.06508e-12
1.87617e-12
3.27649e-12
5.67781e-12
9.77967e-12
1.67881e-11
2.88254e-11
4.93691e-11
8.33942e-11
1.40041e-10
2.29243e-10
3.70428e-10
5.83717e-10
8.74649e-10
1.20001e-09
1.44671e-09
1.44523e-09
1.10818e-09
6.56449e-10
3.48372e-10
2.26329e-10
3.37055e-10
7.8985e-10
1.59983e-09
1.7192e-09
1.39466e-09
1.01008e-09
6.9134e-10
4.55619e-10
2.91602e-10
1.81705e-10
1.10724e-10
6.61617e-11
3.88721e-11
2.24781e-11
1.28163e-11
7.21363e-12
4.01206e-12
2.20693e-12
1.20209e-12
6.48361e-13
3.46666e-13
1.83878e-13
9.68252e-14
5.06368e-14
2.63125e-14
1.35859e-14
6.96564e-15
3.53897e-15
1.77279e-15
8.65584e-16
4.00842e-16
1.63075e-16
3.76946e-17
1.31886e-20
7.17133e-20
2.3725e-19
6.87536e-19
1.84295e-18
4.67496e-18
1.13398e-17
2.63811e-17
5.87574e-17
1.24699e-16
2.50852e-16
4.76731e-16
8.54503e-16
1.44125e-15
2.27799e-15
3.35658e-15
4.59769e-15
5.82724e-15
6.77245e-15
7.26468e-15
7.15523e-15
6.49766e-15
5.53798e-15
4.58532e-15
3.94035e-15
3.61026e-15
3.4872e-15
3.43563e-15
3.29917e-15
2.99427e-15
2.47073e-15
1.78014e-15
1.10482e-15
6.91307e-16
6.36138e-16
9.38907e-16
1.78865e-15
3.57878e-15
7.15047e-15
1.40936e-14
2.74744e-14
5.26245e-14
9.86343e-14
1.83735e-13
3.37252e-13
6.11083e-13
1.08531e-12
1.91099e-12
3.33519e-12
5.77462e-12
9.93575e-12
1.71767e-11
2.94347e-11
5.03707e-11
8.50524e-11
1.42743e-10
2.33561e-10
3.77113e-10
5.93498e-10
8.87058e-10
1.21226e-09
1.45298e-09
1.4392e-09
1.09183e-09
6.42777e-10
3.40814e-10
2.25107e-10
3.46105e-10
8.16356e-10
1.61028e-09
1.70755e-09
1.37821e-09
9.96627e-10
6.81705e-10
4.49137e-10
2.87427e-10
1.79095e-10
1.09137e-10
6.52204e-11
3.83254e-11
2.2166e-11
1.26409e-11
7.11652e-12
3.95897e-12
2.17825e-12
1.18679e-12
6.40256e-13
3.42412e-13
1.81662e-13
9.56802e-14
5.00474e-14
2.60107e-14
1.34322e-14
6.88781e-15
3.49985e-15
1.75335e-15
8.56156e-16
3.96495e-16
1.6131e-16
3.72871e-17
1.31179e-20
7.13296e-20
2.35986e-19
6.83899e-19
1.83331e-18
4.65091e-18
1.12828e-17
2.6253e-17
5.84844e-17
1.24152e-16
2.49824e-16
4.74947e-16
8.51684e-16
1.43729e-15
2.27303e-15
3.35171e-15
4.59516e-15
5.82971e-15
6.78184e-15
7.28188e-15
7.17921e-15
6.52593e-15
5.56556e-15
4.60851e-15
3.95822e-15
3.62477e-15
3.50016e-15
3.44852e-15
3.31203e-15
3.00614e-15
2.47752e-15
1.77136e-15
1.10746e-15
6.95966e-16
6.43886e-16
9.54035e-16
1.81994e-15
3.64308e-15
7.28052e-15
1.4352e-14
2.79831e-14
5.36109e-14
1.00503e-13
1.87227e-13
3.43631e-13
6.22571e-13
1.10556e-12
1.94643e-12
3.39678e-12
5.88208e-12
1.01245e-11
1.74395e-11
2.99178e-11
5.11976e-11
8.63967e-11
1.44915e-10
2.37037e-10
3.82551e-10
6.01408e-10
8.97163e-10
1.22204e-09
1.45781e-09
1.4337e-09
1.07802e-09
6.31411e-10
3.34511e-10
2.2405e-10
3.53257e-10
8.37542e-10
1.61773e-09
1.69831e-09
1.36545e-09
9.85869e-10
6.73831e-10
4.43756e-10
2.83927e-10
1.76893e-10
1.07794e-10
6.44205e-11
3.78594e-11
2.18991e-11
1.24905e-11
7.03295e-12
3.91314e-12
2.15342e-12
1.17349e-12
6.33195e-13
3.38696e-13
1.79722e-13
9.46756e-14
4.95298e-14
2.57454e-14
1.3297e-14
6.81926e-15
3.46536e-15
1.73621e-15
8.47836e-16
3.92657e-16
1.59752e-16
3.69273e-17
1.3061e-20
7.10205e-20
2.34968e-19
6.8097e-19
1.82556e-18
4.63158e-18
1.12371e-17
2.61502e-17
5.82656e-17
1.23713e-16
2.49001e-16
4.7352e-16
8.49436e-16
1.43414e-15
2.26908e-15
3.34824e-15
4.59369e-15
5.8322e-15
6.78995e-15
7.29657e-15
7.20086e-15
6.55079e-15
5.58992e-15
4.62853e-15
3.97388e-15
3.6371e-15
3.51115e-15
3.45953e-15
3.32386e-15
3.01959e-15
2.49485e-15
1.80023e-15
1.11998e-15
7.03629e-16
6.51881e-16
9.67481e-16
1.84687e-15
3.69824e-15
7.3923e-15
1.45744e-14
2.84194e-14
5.44402e-14
1.02047e-13
1.90101e-13
3.48914e-13
6.32179e-13
1.12269e-12
1.97682e-12
3.45032e-12
5.97577e-12
1.02879e-11
1.7655e-11
3.03196e-11
5.18902e-11
8.75519e-11
1.468e-10
2.4007e-10
3.8725e-10
6.08224e-10
9.05606e-10
1.23006e-09
1.46148e-09
1.42855e-09
1.06626e-09
6.21971e-10
3.29356e-10
2.23185e-10
3.59121e-10
8.55049e-10
1.62329e-09
1.69068e-09
1.35512e-09
9.77147e-10
6.67422e-10
4.39353e-10
2.81046e-10
1.7507e-10
1.06676e-10
6.37524e-11
3.74689e-11
2.16748e-11
1.23637e-11
6.96234e-12
3.87433e-12
2.13233e-12
1.16217e-12
6.27175e-13
3.35522e-13
1.78062e-13
9.38145e-14
4.90854e-14
2.55175e-14
1.31807e-14
6.76025e-15
3.43565e-15
1.72144e-15
8.40662e-16
3.89346e-16
1.58408e-16
3.66168e-17
1.30163e-20
7.07781e-20
2.3417e-19
6.78678e-19
1.81949e-18
4.61648e-18
1.12014e-17
2.60702e-17
5.80958e-17
1.23373e-16
2.48368e-16
4.72431e-16
8.47747e-16
1.43183e-15
2.26629e-15
3.34585e-15
4.59295e-15
5.83487e-15
6.79755e-15
7.30944e-15
7.21804e-15
6.57029e-15
5.60857e-15
4.64426e-15
3.98619e-15
3.64697e-15
3.52007e-15
3.46852e-15
3.33323e-15
3.02931e-15
2.50452e-15
1.80925e-15
1.12844e-15
7.09593e-16
6.58651e-16
9.79348e-16
1.87075e-15
3.74687e-15
7.48998e-15
1.47669e-14
2.87938e-14
5.51555e-14
1.03383e-13
1.92569e-13
3.53404e-13
6.40225e-13
1.13676e-12
2.00112e-12
3.49208e-12
6.04662e-12
1.04069e-11
1.78535e-11
3.06609e-11
5.24686e-11
8.851e-11
1.48359e-10
2.42594e-10
3.91197e-10
6.13923e-10
9.12704e-10
1.23668e-09
1.46428e-09
1.42403e-09
1.0565e-09
6.14288e-10
3.25194e-10
2.22522e-10
3.6403e-10
8.70169e-10
1.62797e-09
1.68447e-09
1.34672e-09
9.70043e-10
6.62201e-10
4.35775e-10
2.78709e-10
1.73592e-10
1.05768e-10
6.32075e-11
3.71493e-11
2.14907e-11
1.22594e-11
6.90411e-12
3.84225e-12
2.11488e-12
1.15279e-12
6.22175e-13
3.32882e-13
1.76679e-13
9.30965e-14
4.87146e-14
2.53271e-14
1.30835e-14
6.71091e-15
3.41079e-15
1.70908e-15
8.34658e-16
3.86575e-16
1.57282e-16
3.63567e-17
1.29826e-20
7.05951e-20
2.33568e-19
6.76951e-19
1.81493e-18
4.60516e-18
1.11748e-17
2.6011e-17
5.79711e-17
1.23127e-16
2.47913e-16
4.71658e-16
8.46558e-16
1.4302e-15
2.26429e-15
3.34415e-15
4.59261e-15
5.8373e-15
6.8038e-15
7.31998e-15
7.23269e-15
6.58691e-15
5.62439e-15
4.65718e-15
3.99626e-15
3.65519e-15
3.52748e-15
3.47581e-15
3.34063e-15
3.0367e-15
2.51139e-15
1.81487e-15
1.13255e-15
7.13208e-16
6.63623e-16
9.88582e-16
1.88962e-15
3.78542e-15
7.5675e-15
1.49198e-14
2.90917e-14
5.5723e-14
1.04445e-13
1.94552e-13
3.57031e-13
6.4676e-13
1.14827e-12
2.02124e-12
3.52676e-12
6.1059e-12
1.05078e-11
1.80255e-11
3.09544e-11
5.29556e-11
8.92891e-11
1.49553e-10
2.44519e-10
3.94228e-10
6.18333e-10
9.18213e-10
1.24184e-09
1.46647e-09
1.42053e-09
1.04896e-09
6.08407e-10
3.22022e-10
2.22064e-10
3.67954e-10
8.82333e-10
1.63158e-09
1.67953e-09
1.3402e-09
9.64582e-10
6.58194e-10
4.33021e-10
2.76903e-10
1.72443e-10
1.05057e-10
6.27793e-11
3.68971e-11
2.13449e-11
1.21766e-11
6.85777e-12
3.81668e-12
2.10094e-12
1.14528e-12
6.18174e-13
3.30768e-13
1.75571e-13
9.2521e-14
4.84173e-14
2.51744e-14
1.30055e-14
6.67131e-15
3.39085e-15
1.69915e-15
8.29836e-16
3.8435e-16
1.56378e-16
3.61479e-17
1.29588e-20
7.04659e-20
2.33144e-19
6.75738e-19
1.81174e-18
4.5973e-18
1.11564e-17
2.597e-17
5.78846e-17
1.22954e-16
2.47587e-16
4.71091e-16
8.45658e-16
1.42897e-15
2.26282e-15
3.34303e-15
4.59255e-15
5.83923e-15
6.80847e-15
7.32764e-15
7.24311e-15
6.59864e-15
5.63556e-15
4.66646e-15
4.00351e-15
3.66105e-15
3.53274e-15
3.48096e-15
3.34579e-15
3.0418e-15
2.51592e-15
1.81804e-15
1.13334e-15
7.1497e-16
6.66919e-16
9.95271e-16
1.90357e-15
3.81409e-15
7.62539e-15
1.50345e-14
2.93162e-14
5.61534e-14
1.05251e-13
1.96056e-13
3.59806e-13
6.51824e-13
1.15733e-12
2.03735e-12
3.55527e-12
6.15633e-12
1.05972e-11
1.81852e-11
3.12439e-11
5.34825e-11
9.02547e-11
1.50023e-10
2.45792e-10
3.96425e-10
6.21612e-10
9.22337e-10
1.24573e-09
1.46817e-09
1.41795e-09
1.04337e-09
6.04056e-10
3.19685e-10
2.21703e-10
3.70753e-10
8.91144e-10
1.63404e-09
1.67589e-09
1.3354e-09
9.6054e-10
6.55226e-10
4.30986e-10
2.75573e-10
1.71601e-10
1.04542e-10
6.24716e-11
3.67167e-11
2.12407e-11
1.21173e-11
6.82451e-12
3.79825e-12
2.09086e-12
1.13983e-12
6.15252e-13
3.29216e-13
1.74753e-13
9.20937e-14
4.81954e-14
2.506e-14
1.29469e-14
6.64156e-15
3.37585e-15
1.69169e-15
8.2621e-16
3.82676e-16
1.55698e-16
3.59908e-17
1.29434e-20
7.03827e-20
2.3287e-19
6.74952e-19
1.80966e-18
4.59209e-18
1.11441e-17
2.59421e-17
5.78248e-17
1.22834e-16
2.47364e-16
4.7071e-16
8.45081e-16
1.42821e-15
2.26193e-15
3.34237e-15
4.59264e-15
5.84066e-15
6.81165e-15
7.33268e-15
7.24985e-15
6.60619e-15
5.64277e-15
4.67248e-15
4.00822e-15
3.66485e-15
3.53607e-15
3.48394e-15
3.34783e-15
3.04472e-15
2.51887e-15
1.82052e-15
1.13517e-15
7.16596e-16
6.69157e-16
9.99455e-16
1.9121e-15
3.83147e-15
7.66024e-15
1.51031e-14
2.94499e-14
5.64085e-14
1.05729e-13
1.96944e-13
3.61434e-13
6.54779e-13
1.16258e-12
2.04665e-12
3.57163e-12
6.18485e-12
1.06465e-11
1.82698e-11
3.13877e-11
5.372e-11
9.06323e-11
1.50599e-10
2.46727e-10
3.9791e-10
6.23796e-10
9.25081e-10
1.24832e-09
1.46928e-09
1.41622e-09
1.03969e-09
6.01195e-10
3.18136e-10
2.21461e-10
3.72623e-10
8.97119e-10
1.63567e-09
1.67347e-09
1.33223e-09
9.57891e-10
6.53278e-10
4.29639e-10
2.74688e-10
1.71043e-10
1.04199e-10
6.22653e-11
3.65956e-11
2.11709e-11
1.20778e-11
6.80243e-12
3.7861e-12
2.08424e-12
1.13627e-12
6.13352e-13
3.28211e-13
1.74226e-13
9.18189e-14
4.80529e-14
2.49864e-14
1.2909e-14
6.62217e-15
3.36602e-15
1.68677e-15
8.23813e-16
3.81567e-16
1.55247e-16
3.58865e-17
1.29357e-20
7.03409e-20
2.32732e-19
6.74555e-19
1.80861e-18
4.58949e-18
1.11379e-17
2.59285e-17
5.77962e-17
1.22777e-16
2.47259e-16
4.70532e-16
8.44811e-16
1.42785e-15
2.26152e-15
3.3421e-15
4.59273e-15
5.84142e-15
6.81329e-15
7.33527e-15
7.25329e-15
6.61002e-15
5.64644e-15
4.67552e-15
4.01062e-15
3.66681e-15
3.53781e-15
3.48557e-15
3.34931e-15
3.04642e-15
2.52072e-15
1.82269e-15
1.13858e-15
7.18327e-16
6.70506e-16
1.00134e-15
1.91555e-15
3.83809e-15
7.67281e-15
1.51264e-14
2.9492e-14
5.64822e-14
1.05852e-13
1.97146e-13
3.61755e-13
6.55273e-13
1.16332e-12
2.04777e-12
3.57345e-12
6.1883e-12
1.06543e-11
1.82894e-11
3.14148e-11
5.37473e-11
9.06338e-11
1.51126e-10
2.47338e-10
3.98791e-10
6.25055e-10
9.26626e-10
1.24972e-09
1.4698e-09
1.41517e-09
1.03764e-09
5.99633e-10
3.17296e-10
2.21294e-10
3.73476e-10
8.99941e-10
1.63632e-09
1.67219e-09
1.33065e-09
9.56594e-10
6.5233e-10
4.28975e-10
2.74238e-10
1.70747e-10
1.04012e-10
6.2151e-11
3.65279e-11
2.11317e-11
1.20555e-11
6.79001e-12
3.77926e-12
2.08053e-12
1.13428e-12
6.12294e-13
3.27654e-13
1.73936e-13
9.16688e-14
4.79758e-14
2.4947e-14
1.28891e-14
6.61211e-15
3.36097e-15
1.68427e-15
8.22601e-16
3.81008e-16
1.5502e-16
3.5834e-17
1.29356e-20
7.03401e-20
2.3273e-19
6.74547e-19
1.80859e-18
4.58943e-18
1.11378e-17
2.59282e-17
5.77958e-17
1.22776e-16
2.47258e-16
4.70532e-16
8.44813e-16
1.42786e-15
2.26154e-15
3.34213e-15
4.59279e-15
5.8415e-15
6.81339e-15
7.33539e-15
7.25342e-15
6.61014e-15
5.64654e-15
4.6756e-15
4.01066e-15
3.66683e-15
3.5378e-15
3.48547e-15
3.34885e-15
3.0463e-15
2.5207e-15
1.82269e-15
1.13851e-15
7.18293e-16
6.70404e-16
1.00105e-15
1.91483e-15
3.83637e-15
7.6688e-15
1.51172e-14
2.94709e-14
5.64343e-14
1.05745e-13
1.96905e-13
3.61216e-13
6.54069e-13
1.16066e-12
2.04188e-12
3.56041e-12
6.15946e-12
1.05905e-11
1.83043e-11
3.13706e-11
5.36369e-11
9.04224e-11
1.51437e-10
2.47554e-10
3.98953e-10
6.25167e-10
9.26663e-10
1.24965e-09
1.46961e-09
1.41489e-09
1.03736e-09
5.99453e-10
3.17199e-10
2.21235e-10
3.73399e-10
8.99798e-10
1.63609e-09
1.672e-09
1.33056e-09
9.56562e-10
6.52322e-10
4.2897e-10
2.74232e-10
1.70739e-10
1.04005e-10
6.2146e-11
3.65244e-11
2.11295e-11
1.20542e-11
6.78923e-12
3.77882e-12
2.08029e-12
1.13415e-12
6.12226e-13
3.27619e-13
1.73918e-13
9.16603e-14
4.79717e-14
2.49451e-14
1.28882e-14
6.61171e-15
3.3608e-15
1.6842e-15
8.22568e-16
3.80994e-16
1.55015e-16
3.58329e-17
1.2943e-20
7.03802e-20
2.32862e-19
6.74925e-19
1.80958e-18
4.5919e-18
1.11436e-17
2.59412e-17
5.78231e-17
1.22831e-16
2.4736e-16
4.70707e-16
8.45083e-16
1.42822e-15
2.26197e-15
3.34246e-15
4.59279e-15
5.84089e-15
6.81194e-15
7.33304e-15
7.25024e-15
6.60654e-15
5.64307e-15
4.67269e-15
4.00837e-15
3.66499e-15
3.53627e-15
3.48444e-15
3.34928e-15
3.04528e-15
2.51924e-15
1.82113e-15
1.13659e-15
7.17067e-16
6.69046e-16
9.98664e-16
1.90999e-15
3.82641e-15
7.64864e-15
1.50772e-14
2.93932e-14
5.62878e-14
1.05477e-13
1.96427e-13
3.60396e-13
6.52742e-13
1.15872e-12
2.03951e-12
3.55882e-12
6.16273e-12
1.06102e-11
1.82143e-11
3.12782e-11
5.35077e-11
9.02316e-11
1.51175e-10
2.47133e-10
3.98283e-10
6.24183e-10
9.25428e-10
1.24848e-09
1.46912e-09
1.41569e-09
1.03906e-09
6.00763e-10
3.17897e-10
2.21312e-10
3.72426e-10
8.9674e-10
1.6351e-09
1.67301e-09
1.332e-09
9.5781e-10
6.53265e-10
4.29629e-10
2.74664e-10
1.71014e-10
1.04174e-10
6.22473e-11
3.65837e-11
2.11636e-11
1.20735e-11
6.79998e-12
3.78474e-12
2.08351e-12
1.13588e-12
6.13152e-13
3.2811e-13
1.74176e-13
9.17944e-14
4.80413e-14
2.4981e-14
1.29066e-14
6.62109e-15
3.36554e-15
1.68657e-15
8.23724e-16
3.81529e-16
1.55233e-16
3.58834e-17
1.29585e-20
7.04642e-20
2.33138e-19
6.75717e-19
1.81168e-18
4.59709e-18
1.11558e-17
2.59685e-17
5.78809e-17
1.22946e-16
2.47574e-16
4.71074e-16
8.45649e-16
1.42899e-15
2.26288e-15
3.34317e-15
4.59279e-15
5.83956e-15
6.80886e-15
7.32804e-15
7.24348e-15
6.59894e-15
5.63577e-15
4.66659e-15
4.00361e-15
3.66112e-15
3.5328e-15
3.48106e-15
3.34593e-15
3.04192e-15
2.5161e-15
1.81852e-15
1.13455e-15
7.15389e-16
6.66834e-16
9.94591e-16
1.9017e-15
3.80954e-15
7.6148e-15
1.50105e-14
2.92629e-14
5.60377e-14
1.05006e-13
1.9554e-13
3.58744e-13
6.49677e-13
1.15311e-12
2.02919e-12
3.53975e-12
6.12722e-12
1.05435e-11
1.8163e-11
3.11596e-11
5.32956e-11
8.98765e-11
1.50596e-10
2.46201e-10
3.96835e-10
6.22092e-10
9.22838e-10
1.24608e-09
1.46812e-09
1.4174e-09
1.04263e-09
6.03527e-10
3.19383e-10
2.21516e-10
3.70526e-10
8.90748e-10
1.63326e-09
1.67522e-09
1.33505e-09
9.60444e-10
6.552e-10
4.30966e-10
2.75557e-10
1.71587e-10
1.04529e-10
6.24609e-11
3.67093e-11
2.1236e-11
1.21145e-11
6.82293e-12
3.79739e-12
2.0904e-12
1.13959e-12
6.1513e-13
3.29155e-13
1.74724e-13
9.20793e-14
4.81885e-14
2.50566e-14
1.29453e-14
6.64072e-15
3.37543e-15
1.69149e-15
8.26115e-16
3.82633e-16
1.55681e-16
3.59869e-17
1.29826e-20
7.05952e-20
2.33569e-19
6.76954e-19
1.81494e-18
4.6052e-18
1.11749e-17
2.60111e-17
5.79711e-17
1.23126e-16
2.47909e-16
4.71647e-16
8.46535e-16
1.43018e-15
2.26432e-15
3.34429e-15
4.59288e-15
5.83766e-15
6.80425e-15
7.32045e-15
7.23313e-15
6.58727e-15
5.62463e-15
4.65736e-15
3.99637e-15
3.65526e-15
3.52754e-15
3.47583e-15
3.34065e-15
3.03669e-15
2.51137e-15
1.81492e-15
1.13269e-15
7.1327e-16
6.63583e-16
9.88354e-16
1.88892e-15
3.78351e-15
7.56263e-15
1.4908e-14
2.90636e-14
5.56585e-14
1.04302e-13
1.94233e-13
3.56348e-13
6.45327e-13
1.14534e-12
2.01528e-12
3.51482e-12
6.0822e-12
1.04606e-11
1.80847e-11
3.09925e-11
5.29958e-11
8.93567e-11
1.49684e-10
2.44748e-10
3.94597e-10
6.18868e-10
9.18845e-10
1.24236e-09
1.46658e-09
1.42005e-09
1.04818e-09
6.07811e-10
3.2168e-10
2.21828e-10
3.67579e-10
8.81474e-10
1.63038e-09
1.67872e-09
1.33981e-09
9.64374e-10
6.58091e-10
4.32991e-10
2.76898e-10
1.72445e-10
1.0506e-10
6.27809e-11
3.68977e-11
2.13449e-11
1.21764e-11
6.85757e-12
3.81652e-12
2.10083e-12
1.14521e-12
6.18129e-13
3.3074e-13
1.75555e-13
9.25112e-14
4.84117e-14
2.51713e-14
1.30038e-14
6.67044e-15
3.3904e-15
1.69893e-15
8.29729e-16
3.84301e-16
1.56359e-16
3.61434e-17
1.30163e-20
7.07783e-20
2.34171e-19
6.78682e-19
1.81951e-18
4.61655e-18
1.12016e-17
2.60709e-17
5.80978e-17
1.23378e-16
2.4838e-16
4.72455e-16
8.47787e-16
1.43189e-15
2.26637e-15
3.34598e-15
4.59322e-15
5.83534e-15
6.79819e-15
7.31018e-15
7.21874e-15
6.57087e-15
5.60896e-15
4.64449e-15
3.98636e-15
3.6471e-15
3.52019e-15
3.46863e-15
3.33334e-15
3.0294e-15
2.50468e-15
1.80946e-15
1.12866e-15
7.09844e-16
6.59022e-16
9.79968e-16
1.87195e-15
3.74925e-15
7.49468e-15
1.47761e-14
2.88119e-14
5.51911e-14
1.03451e-13
1.92702e-13
3.53659e-13
6.40723e-13
1.13776e-12
2.00329e-12
3.49686e-12
6.05752e-12
1.04327e-11
1.79149e-11
3.0781e-11
5.27068e-11
8.89978e-11
1.48048e-10
2.42606e-10
3.91447e-10
6.14405e-10
9.13363e-10
1.23731e-09
1.46452e-09
1.42363e-09
1.05572e-09