/*--------------------------------*- C++ -*----------------------------------*\
  =========                 |
  \\      /  F ield         | OpenFOAM: The Open Source CFD Toolbox
   \\    /   O peration     | Website:  https://openfoam.org
    \\  /    A nd           | Version:  10
     \\/     M anipulation  |
\*---------------------------------------------------------------------------*/
FoamFile
{
    format      ascii;
    class       volScalarField;
    location    "1";
    object      O;
}
// * * * * * * * * * * * * * * * * * * * * * * * * * * * * * * * * * * * * * //

dimensions      [0 0 0 0 0 0 0];

internalField   nonuniform List<scalar> 
4000
(
3.5992e-15
1.39596e-14
3.01229e-14
5.64927e-14
9.97973e-14
1.70844e-13
2.868e-13
4.74363e-13
7.73971e-13
1.24509e-12
1.97346e-12
3.08311e-12
4.75371e-12
7.24238e-12
1.0903e-11
1.61677e-11
2.36089e-11
3.37419e-11
4.62541e-11
6.15486e-11
7.71994e-11
9.13748e-11
1.02165e-10
1.09568e-10
1.18634e-10
1.38366e-10
1.81677e-10
2.66187e-10
4.1993e-10
6.84388e-10
1.12292e-09
1.84091e-09
3.02334e-09
5.00127e-09
8.32503e-09
1.40668e-08
2.41814e-08
4.23743e-08
7.55941e-08
1.36467e-07
2.49406e-07
4.56268e-07
8.29608e-07
1.49853e-06
2.71033e-06
4.85794e-06
8.59755e-06
1.50598e-05
2.61996e-05
4.52661e-05
7.77423e-05
0.000132926
0.000226611
0.000338393
0.000395794
0.000383152
0.00032389
0.000247993
0.000175509
0.000116114
7.19936e-05
4.19014e-05
2.26855e-05
1.12879e-05
5.0627e-06
2.02983e-06
7.55668e-07
2.62178e-07
8.0477e-08
2.20135e-08
5.57267e-09
1.21892e-09
2.43901e-10
4.66019e-11
8.94737e-12
1.85004e-12
4.34763e-13
1.20292e-13
3.94426e-14
1.50386e-14
6.45385e-15
3.00325e-15
1.47115e-15
7.40922e-16
3.79403e-16
1.95373e-16
1.00768e-16
5.19276e-17
2.67036e-17
1.3691e-17
7.01417e-18
3.58412e-18
1.82584e-18
9.26285e-19
4.66826e-19
2.32457e-19
1.13021e-19
5.21914e-20
2.11971e-20
4.89624e-21
3.56706e-15
1.38335e-14
2.98466e-14
5.59675e-14
9.88502e-14
1.69151e-13
2.83836e-13
4.69208e-13
7.6501e-13
1.22954e-12
1.94665e-12
3.03768e-12
4.67611e-12
7.1151e-12
1.07045e-11
1.58715e-11
2.31551e-11
3.3084e-11
4.54358e-11
6.07118e-11
7.64315e-11
9.07829e-11
1.01925e-10
1.09601e-10
1.18563e-10
1.37684e-10
1.79779e-10
2.6282e-10
4.14434e-10
6.7654e-10
1.11254e-09
1.82668e-09
3.0109e-09
4.99889e-09
8.34848e-09
1.41488e-08
2.43974e-08
4.28791e-08
7.66872e-08
1.38684e-07
2.53776e-07
4.64683e-07
8.45221e-07
1.52782e-06
2.76451e-06
4.95654e-06
8.77129e-06
1.53653e-05
2.67388e-05
4.62053e-05
7.93648e-05
0.000135712
0.000231576
0.00034235
0.000396845
0.000381719
0.000320618
0.000244467
0.000172333
0.000113599
6.98307e-05
4.041e-05
2.17441e-05
1.07353e-05
4.76133e-06
1.90396e-06
7.04855e-07
2.42589e-07
7.36594e-08
1.99078e-08
4.98207e-09
1.08349e-09
2.1623e-10
4.1082e-11
7.93231e-12
1.65128e-12
3.91703e-13
1.09429e-13
3.62188e-14
1.39232e-14
6.02096e-15
2.82102e-15
1.38868e-15
7.03817e-16
3.60983e-16
1.86422e-16
9.65253e-17
4.99454e-17
2.58006e-17
1.33022e-17
6.82498e-18
3.49406e-18
1.78284e-18
9.05624e-19
4.56882e-19
2.27701e-19
1.10791e-19
5.11944e-20
2.08032e-20
4.8066e-21
3.52839e-15
1.36834e-14
2.95224e-14
5.53602e-14
9.77862e-14
1.67375e-13
2.80796e-13
4.63911e-13
7.5567e-13
1.21289e-12
1.91657e-12
2.98231e-12
4.58325e-12
6.96557e-12
1.04707e-11
1.55215e-11
2.26747e-11
3.23912e-11
4.45309e-11
5.96706e-11
7.54359e-11
9.00971e-11
1.01552e-10
1.09636e-10
1.18481e-10
1.36977e-10
1.77757e-10
2.58868e-10
4.0785e-10
6.67139e-10
1.10055e-09
1.81366e-09
3.00182e-09
5.00429e-09
8.3938e-09
1.42798e-08
2.47095e-08
4.36788e-08
7.84026e-08
1.42256e-07
2.60733e-07
4.77953e-07
8.70337e-07
1.57557e-06
2.85332e-06
5.11894e-06
9.0594e-06
1.58748e-05
2.76157e-05
4.77221e-05
8.19825e-05
0.000140226
0.000239034
0.00034803
0.00039801
0.000378953
0.000315732
0.000239216
0.000167744
0.000110131
6.68767e-05
3.84654e-05
2.05372e-05
1.00266e-05
4.39331e-06
1.74722e-06
6.41287e-07
2.18575e-07
6.55937e-08
1.75173e-08
4.34293e-09
9.37887e-10
1.87296e-10
3.5856e-11
6.96764e-12
1.46392e-12
3.50461e-13
9.87779e-14
3.29351e-14
1.26785e-14
5.50782e-15
2.59656e-15
1.2886e-15
6.58079e-16
3.40724e-16
1.77319e-16
9.23391e-17
4.7962e-17
2.48438e-17
1.28309e-17
6.60844e-18
3.38799e-18
1.73034e-18
8.7962e-19
4.4402e-19
2.21385e-19
1.07753e-19
4.98042e-20
2.0243e-20
4.67799e-21
3.47966e-15
1.34927e-14
2.91036e-14
5.45525e-14
9.63032e-14
1.64703e-13
2.76114e-13
4.55862e-13
7.42075e-13
1.1904e-12
1.88036e-12
2.92627e-12
4.49494e-12
6.8267e-12
1.02555e-11
1.51972e-11
2.22012e-11
3.17897e-11
4.38078e-11
5.87858e-11
7.4575e-11
8.94568e-11
1.01279e-10
1.0968e-10
1.18461e-10
1.36395e-10
1.75991e-10
2.55322e-10
4.01798e-10
6.59768e-10
1.09272e-09
1.80841e-09
3.00349e-09
5.02812e-09
8.47709e-09
1.44909e-08
2.51958e-08
4.47186e-08
8.05814e-08
1.46493e-07
2.69172e-07
4.94396e-07
9.01391e-07
1.63265e-06
2.9579e-06
5.30756e-06
9.3872e-06
1.64511e-05
2.86203e-05
4.94376e-05
8.4871e-05
0.000145411
0.000247468
0.000354168
0.000398777
0.00037509
0.000309539
0.00023261
0.000161913
0.000105541
6.35455e-05
3.62289e-05
1.91582e-05
9.26464e-06
4.0141e-06
1.57782e-06
5.74516e-07
1.93892e-07
5.75219e-08
1.51735e-08
3.73219e-09
8.0196e-10
1.58433e-10
3.01405e-11
5.85155e-12
1.23378e-12
2.96999e-13
8.42092e-14
2.8304e-14
1.11571e-14
4.93349e-15
2.34851e-15
1.17722e-15
6.06803e-16
3.16745e-16
1.66059e-16
8.70814e-17
4.55172e-17
2.3702e-17
1.22913e-17
6.34864e-18
3.26437e-18
1.67093e-18
8.50736e-19
4.29875e-19
2.14469e-19
1.04424e-19
4.8273e-20
1.96212e-20
4.53393e-21
3.43416e-15
1.33162e-14
2.87216e-14
5.38324e-14
9.50208e-14
1.62484e-13
2.72342e-13
4.49533e-13
7.31567e-13
1.17313e-12
1.85225e-12
2.88103e-12
4.42302e-12
6.71412e-12
1.00826e-11
1.49393e-11
2.18291e-11
3.12777e-11
4.31489e-11
5.80437e-11
7.3879e-11
8.89469e-11
1.01038e-10
1.09714e-10
1.1848e-10
1.35973e-10
1.74667e-10
2.52766e-10
3.98218e-10
6.54858e-10
1.08983e-09
1.81476e-09
3.01506e-09
5.06652e-09
8.58397e-09
1.47418e-08
2.57488e-08
4.58958e-08
8.29434e-08
1.51291e-07
2.78353e-07
5.11895e-07
9.34368e-07
1.69376e-06
3.0702e-06
5.51075e-06
9.74075e-06
1.70692e-05
2.97022e-05
5.13044e-05
8.80894e-05
0.000150569
0.000256215
0.000360165
0.000399177
0.000371023
0.000303491
0.000226341
0.000156504
0.000101365
6.06718e-05
3.43366e-05
1.79785e-05
8.57615e-06
3.66965e-06
1.4294e-06
5.16724e-07
1.72887e-07
5.06579e-08
1.31918e-08
3.22121e-09
6.83126e-10
1.34381e-10
2.55691e-11
4.98711e-12
1.06013e-12
2.5777e-13
7.38773e-14
2.50596e-14
9.87398e-15
4.38732e-15
2.12705e-15
1.08044e-15
5.62155e-16
2.94868e-16
1.55446e-16
8.19638e-17
4.30511e-17
2.25125e-17
1.17156e-17
6.06897e-18
3.12762e-18
1.60363e-18
8.17538e-19
4.13519e-19
2.06465e-19
1.00582e-19
4.6514e-20
1.89104e-20
4.37012e-21
3.39205e-15
1.31528e-14
2.83684e-14
5.31674e-14
9.38387e-14
1.60443e-13
2.68882e-13
4.43743e-13
7.2199e-13
1.15746e-12
1.82693e-12
2.84066e-12
4.35971e-12
6.61672e-12
9.93611e-12
1.47261e-11
2.15302e-11
3.08819e-11
4.26661e-11
5.74777e-11
7.33367e-11
8.8551e-11
1.00857e-10
1.09789e-10
1.18594e-10
1.35743e-10
1.73658e-10
2.50577e-10
3.94462e-10
6.49619e-10
1.08319e-09
1.80579e-09
3.02686e-09
5.11352e-09
8.70479e-09
1.5017e-08
2.63462e-08
4.71233e-08
8.54176e-08
1.56049e-07
2.87617e-07
5.29693e-07
9.67003e-07
1.75372e-06
3.18008e-06
5.70952e-06
1.00857e-05
1.76761e-05
3.07411e-05
5.30697e-05
9.10304e-05
0.000155457
0.000264182
0.000365249
0.000398857
0.000366316
0.000296974
0.000219697
0.000150789
9.701e-05
5.78188e-05
3.24901e-05
1.69066e-05
7.98562e-06
3.38588e-06
1.3094e-06
4.72031e-07
1.53131e-07
4.44778e-08
1.15164e-08
2.77494e-09
5.84489e-10
1.14658e-10
2.18507e-11
4.28569e-12
9.19326e-13
2.26006e-13
6.55438e-14
2.2491e-14
8.95424e-15
4.00186e-15
1.93729e-15
9.85382e-16
5.1544e-16
2.73909e-16
1.45678e-16
7.73031e-17
4.07898e-17
2.14049e-17
1.11698e-17
5.79896e-18
2.99287e-18
1.53502e-18
7.83136e-19
3.96444e-19
1.98087e-19
9.65578e-20
4.46723e-20
1.81665e-20
4.19871e-21
3.35407e-15
1.30055e-14
2.80502e-14
5.25692e-14
9.27773e-14
1.58615e-13
2.65792e-13
4.38591e-13
7.13506e-13
1.14365e-12
1.80469e-12
2.80535e-12
4.30457e-12
6.53221e-12
9.80932e-12
1.45418e-11
2.1271e-11
3.05351e-11
4.22349e-11
5.69626e-11
7.28517e-11
8.82349e-11
1.00748e-10
1.09935e-10
1.18787e-10
1.35682e-10
1.73036e-10
2.49177e-10
3.92246e-10
6.47163e-10
1.08205e-09
1.80937e-09
3.04369e-09
5.1647e-09
8.82588e-09
1.52808e-08
2.6906e-08
4.82624e-08
8.76719e-08
1.60486e-07
2.96298e-07
5.46017e-07
9.96938e-07
1.80813e-06
3.27794e-06
5.882e-06
1.03742e-05
1.81684e-05
3.17374e-05
5.47099e-05
9.38296e-05
0.00016029
0.000271812
0.000369757
0.000398257
0.000361528
0.00029094
0.000213814
0.000145851
9.31217e-05
5.5697e-05
3.10865e-05
1.6015e-05
7.49337e-06
3.15233e-06
1.2122e-06
4.34638e-07
1.39879e-07
4.03198e-08
1.03397e-08
2.47666e-09
5.18735e-10
1.01504e-10
1.93505e-11
3.80954e-12
8.22732e-13
2.03959e-13
5.96768e-14
2.06492e-14
8.28168e-15
3.72348e-15
1.81109e-15
9.24238e-16
4.83993e-16
2.56391e-16
1.36235e-16
7.23298e-17
3.82172e-17
2.00931e-17
1.0509e-17
5.47061e-18
2.83286e-18
1.46059e-18
7.47775e-19
3.79428e-19
1.89876e-19
9.26433e-20
4.28842e-20
1.74434e-20
4.03182e-21
3.32016e-15
1.2874e-14
2.77662e-14
5.20353e-14
9.18306e-14
1.56987e-13
2.63045e-13
4.34024e-13
7.06012e-13
1.1315e-12
1.78523e-12
2.77461e-12
4.25682e-12
6.45941e-12
9.70065e-12
1.43845e-11
2.10509e-11
3.02428e-11
4.18762e-11
5.65302e-11
7.24737e-11
8.79837e-11
1.00697e-10
1.1009e-10
1.18989e-10
1.35719e-10
1.72671e-10
2.48267e-10
3.9097e-10
6.46268e-10
1.08349e-09
1.81737e-09
3.06783e-09
5.22081e-09
8.95036e-09
1.55486e-08
2.74532e-08
4.93607e-08
8.98145e-08
1.64595e-07
3.03942e-07
5.60283e-07
1.02304e-06
1.85594e-06
3.36528e-06
6.03951e-06
1.06493e-05
1.86428e-05
3.24985e-05
5.59705e-05
9.58574e-05
0.000164869
0.000278453
0.000373493
0.000397617
0.000357335
0.000285769
0.000208791
0.000141622
8.99493e-05
5.35644e-05
2.97106e-05
1.522e-05
7.06087e-06
2.94402e-06
1.12651e-06
4.02202e-07
1.27691e-07
3.65664e-08
9.32181e-09
2.2239e-09
4.64532e-10
9.06484e-11
1.72775e-11
3.41166e-12
7.41146e-13
1.8509e-13
5.45789e-14
1.90243e-14
7.6807e-15
3.47299e-15
1.69768e-15
8.7013e-16
4.57377e-16
2.43072e-16
1.29524e-16
6.88736e-17
3.64644e-17
1.92032e-17
1.00566e-17
5.24023e-18
2.7144e-18
1.3983e-18
7.15765e-19
3.63275e-19
1.81875e-19
8.87878e-20
4.11212e-20
1.67336e-20
3.86885e-21
3.29047e-15
1.27589e-14
2.75178e-14
5.15687e-14
9.10045e-14
1.55569e-13
2.60658e-13
4.30069e-13
6.99545e-13
1.12106e-12
1.76857e-12
2.74841e-12
4.21633e-12
6.39801e-12
9.60966e-12
1.42541e-11
2.08711e-11
3.00092e-11
4.16022e-11
5.61989e-11
7.21664e-11
8.78008e-11
1.00692e-10
1.10275e-10
1.19242e-10
1.35845e-10
1.72503e-10
2.47727e-10
3.90159e-10
6.46233e-10
1.08604e-09
1.82643e-09
3.09171e-09
5.27811e-09
9.07762e-09
1.58128e-08
2.79949e-08
5.04481e-08
9.19615e-08
1.68806e-07
3.12067e-07
5.75528e-07
1.05079e-06
1.90624e-06
3.45578e-06
6.19836e-06
1.09243e-05
1.91181e-05
3.32689e-05
5.72905e-05
9.80707e-05
0.000168349
0.00028364
0.000376091
0.000396419
0.000353457
0.000280889
0.000204132
0.000137836
8.717e-05
5.16886e-05
2.85537e-05
1.45452e-05
6.69606e-06
2.76806e-06
1.0508e-06
3.72549e-07
1.17359e-07
3.33243e-08
8.40502e-09
1.98709e-09
4.12709e-10
8.03529e-11
1.53361e-11
3.0421e-12
6.65677e-13
1.67668e-13
4.98844e-14
1.75381e-14
7.13724e-15
3.25e-15
1.59829e-15
8.23351e-16
4.34613e-16
2.31782e-16
1.23883e-16
6.60338e-17
3.50318e-17
1.84797e-17
9.69102e-18
5.05557e-18
2.6208e-18
1.35076e-18
6.91642e-19
3.51088e-19
1.75784e-19
8.58131e-20
3.97412e-20
1.61708e-20
3.73847e-21
3.26487e-15
1.26597e-14
2.73037e-14
5.11671e-14
9.02943e-14
1.54352e-13
2.58615e-13
4.26692e-13
6.94042e-13
1.1122e-12
1.7545e-12
2.72634e-12
4.18226e-12
6.3463e-12
9.53262e-12
1.41427e-11
2.07149e-11
2.98021e-11
4.13467e-11
5.58923e-11
7.19108e-11
8.76566e-11
1.0072e-10
1.10457e-10
1.1948e-10
1.36004e-10
1.72453e-10
2.47396e-10
3.89568e-10
6.4668e-10
1.08899e-09
1.83514e-09
3.11275e-09
5.33378e-09
9.19819e-09
1.60638e-08
2.85092e-08
5.14799e-08
9.401e-08
1.72746e-07
3.19637e-07
5.89844e-07
1.07715e-06
1.95472e-06
3.54392e-06
6.35814e-06
1.12099e-05
1.96184e-05
3.40879e-05
5.87392e-05
0.000100623
0.00017163
0.000288507
0.000378516
0.000395564
0.000350235
0.000276992
0.000200516
0.000134914
8.50154e-05
5.01821e-05
2.75822e-05
1.3983e-05
6.42447e-06
2.59726e-06
9.83698e-07
3.47575e-07
1.08954e-07
3.07365e-08
7.72569e-09
1.81666e-09
3.75493e-10
7.29383e-11
1.39303e-11
2.77249e-12
6.10165e-13
1.54768e-13
4.63983e-14
1.64331e-14
6.73236e-15
3.08283e-15
1.52299e-15
7.87441e-16
4.16897e-16
2.2288e-16
1.19383e-16
6.37457e-17
3.3868e-17
1.78883e-17
9.39077e-18
4.90313e-18
2.54353e-18
1.31164e-18
6.71879e-19
3.41146e-19
1.70831e-19
8.33993e-20
3.86225e-20
1.57147e-20
3.63283e-21
3.24312e-15
1.25754e-14
2.7122e-14
5.08265e-14
8.9693e-14
1.53324e-13
2.56893e-13
4.23854e-13
6.89437e-13
1.10484e-12
1.74289e-12
2.70832e-12
4.15474e-12
6.30504e-12
9.47118e-12
1.40557e-11
2.05976e-11
2.96526e-11
4.11656e-11
5.56705e-11
7.17233e-11
8.756e-11
1.00764e-10
1.10644e-10
1.19722e-10
1.36202e-10
1.72535e-10
2.47395e-10
3.89761e-10
6.47788e-10
1.09298e-09
1.84589e-09
3.13869e-09
5.38629e-09
9.30718e-09
1.62866e-08
2.89586e-08
5.23778e-08
9.57819e-08
1.76172e-07
3.26214e-07
6.02284e-07
1.10008e-06
1.99714e-06
3.621e-06
6.49624e-06
1.14481e-05
2.00296e-05
3.47672e-05
5.99015e-05
0.000102576
0.000174912
0.00029282
0.00038056
0.000394648
0.000347529
0.000273634
0.000197312
0.000132292
8.30852e-05
4.88885e-05
2.67701e-05
1.35021e-05
6.16416e-06
2.48161e-06
9.3476e-07
3.2888e-07
1.02459e-07
2.87221e-08
7.20094e-09
1.68766e-09
3.47481e-10
6.73677e-11
1.28765e-11
2.57044e-12
5.68552e-13
1.45096e-13
4.37872e-14
1.56038e-14
6.42824e-15
2.95664e-15
1.46561e-15
7.59738e-16
4.03047e-16
2.15833e-16
1.15775e-16
6.18933e-17
3.2918e-17
1.74023e-17
9.14325e-18
4.77531e-18
2.4787e-18
1.27883e-18
6.55315e-19
3.32826e-19
1.66695e-19
8.13875e-20
3.76919e-20
1.53359e-20
3.54518e-21
3.22485e-15
1.25046e-14
2.69696e-14
5.05411e-14
8.91898e-14
1.52465e-13
2.55457e-13
4.21497e-13
6.85626e-13
1.09877e-12
1.73337e-12
2.69362e-12
4.13243e-12
6.27177e-12
9.42162e-12
1.39863e-11
2.05024e-11
2.95255e-11
4.10108e-11
5.54921e-11
7.1573e-11
8.74948e-11
1.00816e-10
1.1081e-10
1.19943e-10
1.36404e-10
1.72676e-10
2.47532e-10
3.9017e-10
6.49131e-10
1.0969e-09
1.85553e-09
3.16032e-09
5.43297e-09
9.40353e-09
1.6481e-08
2.93457e-08
5.31456e-08
9.72461e-08
1.78929e-07
3.31338e-07
6.11562e-07
1.11625e-06
2.0389e-06
3.6903e-06
6.61575e-06
1.16524e-05
2.03758e-05
3.53524e-05
6.08887e-05
0.000104238
0.00017772
0.000296255
0.00038206
0.00039375
0.000345025
0.000270637
0.000194531
0.000130046
8.14421e-05
4.77772e-05
2.60624e-05
1.30886e-05
5.94303e-06
2.38689e-06
8.96148e-07
3.14215e-07
9.74441e-08
2.71641e-08
6.81327e-09
1.59217e-09
3.27506e-10
6.3383e-11
1.21177e-11
2.42407e-12
5.38211e-13
1.3799e-13
4.18507e-14
1.49842e-14
6.19861e-15
2.86027e-15
1.42125e-15
7.3804e-16
3.92062e-16
2.10178e-16
1.12849e-16
6.03778e-17
3.21351e-17
1.69994e-17
8.93694e-18
4.66902e-18
2.42458e-18
1.25136e-18
6.41429e-19
3.25846e-19
1.63223e-19
7.96997e-20
3.69117e-20
1.50184e-20
3.47178e-21
3.20967e-15
1.24458e-14
2.68429e-14
5.0304e-14
8.87722e-14
1.51753e-13
2.5427e-13
4.19551e-13
6.82489e-13
1.09379e-12
1.7256e-12
2.68171e-12
4.11453e-12
6.24552e-12
9.3834e-12
1.39331e-11
2.04283e-11
2.94298e-11
4.08988e-11
5.53585e-11
7.14668e-11
8.74551e-11
1.00873e-10
1.10969e-10
1.20162e-10
1.36623e-10
1.72874e-10
2.47801e-10
3.90832e-10
6.50955e-10
1.10156e-09
1.86629e-09
3.18299e-09
5.47745e-09
9.49404e-09
1.66631e-08
2.97145e-08
5.38688e-08
9.86477e-08
1.81611e-07
3.36438e-07
6.21117e-07
1.13393e-06
2.07177e-06
3.74874e-06
6.71851e-06
1.18296e-05
2.06787e-05
3.586e-05
6.17216e-05
0.000105575
0.000181302
0.00029989
0.000383558
0.000392966
0.000342763
0.00026798
0.000192124
0.000128133
8.00622e-05
4.68426e-05
2.54838e-05
1.27518e-05
5.76331e-06
2.31054e-06
8.65226e-07
3.02313e-07
9.34036e-08
2.59102e-08
6.50344e-09
1.51349e-09
3.10305e-10
5.99881e-11
1.14742e-11
2.30026e-12
5.12618e-13
1.32026e-13
4.0239e-14
1.44739e-14
6.01094e-15
2.78183e-15
1.38518e-15
7.20381e-16
3.83101e-16
2.0555e-16
1.10444e-16
5.91265e-17
3.14859e-17
1.66639e-17
8.7644e-18
4.58055e-18
2.37941e-18
1.22838e-18
6.29789e-19
3.19988e-19
1.60309e-19
7.82825e-20
3.62566e-20
1.47519e-20
3.41015e-21
3.19716e-15
1.23974e-14
2.67385e-14
5.01088e-14
8.84282e-14
1.51167e-13
2.53291e-13
4.17945e-13
6.79895e-13
1.08967e-12
1.71913e-12
2.67172e-12
4.09938e-12
6.22302e-12
9.35008e-12
1.38848e-11
2.03638e-11
2.93492e-11
4.08092e-11
5.52545e-11
7.13911e-11
8.74345e-11
1.00933e-10
1.11111e-10
1.20348e-10
1.36822e-10
1.73086e-10
2.48147e-10
3.91716e-10
6.5348e-10
1.1087e-09
1.88557e-09
3.2018e-09
5.5163e-09
9.57464e-09
1.68292e-08
3.00505e-08
5.45383e-08
9.99627e-08
1.84162e-07
3.41368e-07
6.30546e-07
1.15162e-06
2.10464e-06
3.80855e-06
6.82601e-06
1.20191e-05
2.10108e-05
3.64393e-05
6.27373e-05
0.000107369
0.000183744
0.000302681
0.000384702
0.00039226
0.000340979
0.0002659
0.000190219
0.000126624
7.89614e-05
4.61025e-05
2.50185e-05
1.24789e-05
5.61788e-06
2.24881e-06
8.40014e-07
2.92794e-07
9.01864e-08
2.49251e-08
6.25987e-09
1.45322e-09
2.97363e-10
5.74313e-11
1.09888e-11
2.20662e-12
4.93164e-13
1.27456e-13
3.89887e-14
1.40719e-14
5.86064e-15
2.71817e-15
1.35567e-15
7.05886e-16
3.75736e-16
2.01742e-16
1.08462e-16
5.80936e-17
3.09486e-17
1.63855e-17
8.62091e-18
4.50686e-18
2.34172e-18
1.20919e-18
6.2006e-19
3.15089e-19
1.5787e-19
7.70969e-20
3.57086e-20
1.45291e-20
3.35863e-21
3.18704e-15
1.23582e-14
2.66541e-14
4.99508e-14
8.815e-14
1.50692e-13
2.525e-13
4.16647e-13
6.778e-13
1.08633e-12
1.7139e-12
2.66364e-12
4.08713e-12
6.20481e-12
9.32296e-12
1.38484e-11
2.03165e-11
2.92903e-11
4.07414e-11
5.51754e-11
7.13326e-11
8.74261e-11
1.00995e-10
1.11241e-10
1.20516e-10
1.36986e-10
1.73226e-10
2.48261e-10
3.91813e-10
6.53419e-10
1.10768e-09
1.88024e-09
3.21676e-09
5.55048e-09
9.64495e-09
1.69726e-08
3.03396e-08
5.51156e-08
1.011e-07
1.8637e-07
3.4562e-07
6.3851e-07
1.16629e-06
2.1317e-06
3.85799e-06
6.91545e-06
1.21779e-05
2.12917e-05
3.69332e-05
6.36009e-05
0.000108876
0.00018565
0.0003048
0.000385533
0.000391654
0.000339487
0.000264141
0.000188612
0.000125341
7.80429e-05
4.54839e-05
2.46273e-05
1.2252e-05
5.49841e-06
2.19848e-06
8.19664e-07
2.85164e-07
8.7607e-08
2.41411e-08
6.06505e-09
1.40556e-09
2.87131e-10
5.54078e-11
1.06043e-11
2.13243e-12
4.7776e-13
1.23838e-13
3.79967e-14
1.37508e-14
5.73948e-15
2.66648e-15
1.3316e-15
6.94032e-16
3.69702e-16
1.98619e-16
1.06835e-16
5.72443e-17
3.05064e-17
1.61561e-17
8.50253e-18
4.446e-18
2.31057e-18
1.19331e-18
6.12008e-19
3.11034e-19
1.55852e-19
7.61152e-20
3.52549e-20
1.43446e-20
3.31597e-21
3.17907e-15
1.23273e-14
2.65876e-14
4.98265e-14
8.79311e-14
1.5032e-13
2.51879e-13
4.15631e-13
6.76161e-13
1.08373e-12
1.70983e-12
2.6574e-12
4.07778e-12
6.19115e-12
9.30298e-12
1.38209e-11
2.02793e-11
2.92435e-11
4.06882e-11
5.51152e-11
7.12943e-11
8.74267e-11
1.01048e-10
1.11348e-10
1.20654e-10
1.3713e-10
1.73376e-10
2.48474e-10
3.92257e-10
6.54534e-10
1.11056e-09
1.88749e-09
3.22944e-09
5.57987e-09
9.70634e-09
1.70991e-08
3.05938e-08
5.56182e-08
1.02078e-07
1.88244e-07
3.49182e-07
6.45178e-07
1.17853e-06
2.15396e-06
3.89786e-06
6.98579e-06
1.22987e-05
2.14963e-05
3.72762e-05
6.41649e-05
0.000109783
0.000187063
0.000306304
0.000386123
0.000391166
0.000338326
0.000262764
0.000187334
0.000124317
7.72953e-05
4.49794e-05
2.43129e-05
1.20694e-05
5.40208e-06
2.15812e-06
8.0337e-07
2.79022e-07
8.5554e-08
2.3512e-08
5.91029e-09
1.36724e-09
2.78944e-10
5.37939e-11
1.02971e-11
2.07292e-12
4.65344e-13
1.20907e-13
3.71902e-14
1.34902e-14
5.64184e-15
2.6251e-15
1.3124e-15
6.84567e-16
3.64873e-16
1.96111e-16
1.05525e-16
5.65589e-17
3.01489e-17
1.59705e-17
8.40666e-18
4.39668e-18
2.28531e-18
1.18044e-18
6.05476e-19
3.07743e-19
1.54213e-19
7.53185e-20
3.48867e-20
1.41949e-20
3.28135e-21
3.17301e-15
1.23038e-14
2.65371e-14
4.97321e-14
8.77654e-14
1.50038e-13
2.51411e-13
4.14869e-13
6.74944e-13
1.08182e-12
1.70687e-12
2.6529e-12
4.07106e-12
6.18119e-12
9.28797e-12
1.37996e-11
2.02505e-11
2.92078e-11
4.06488e-11
5.50707e-11
7.12661e-11
8.74315e-11
1.01097e-10
1.1144e-10
1.20771e-10
1.3726e-10
1.73523e-10
2.48695e-10
3.92712e-10
6.55601e-10
1.11306e-09
1.893e-09
3.24111e-09
5.6039e-09
9.75532e-09
1.71976e-08
3.07908e-08
5.60068e-08
1.02833e-07
1.89691e-07
3.51934e-07
6.5032e-07
1.188e-06
2.17142e-06
3.92942e-06
7.04214e-06
1.23973e-05
2.16681e-05
3.75734e-05
6.46793e-05
0.000110683
0.000188668
0.000307846
0.000386723
0.000390818
0.000337503
0.00026178
0.000186413
0.000123572
7.67472e-05
4.46066e-05
2.40789e-05
1.19331e-05
5.3297e-06
2.12785e-06
7.91113e-07
2.74382e-07
8.3988e-08
2.30299e-08
5.79052e-09
1.33752e-09
2.726e-10
5.25448e-11
1.00608e-11
2.02739e-12
4.55871e-13
1.18673e-13
3.65747e-14
1.32907e-14
5.56681e-15
2.59323e-15
1.29758e-15
6.77248e-16
3.61128e-16
1.94161e-16
1.04504e-16
5.60241e-17
2.98697e-17
1.58254e-17
8.3317e-18
4.35812e-18
2.26556e-18
1.17036e-18
6.00364e-19
3.05166e-19
1.5293e-19
7.46944e-20
3.45982e-20
1.40776e-20
3.25423e-21
3.16869e-15
1.22871e-14
2.65013e-14
4.96654e-14
8.76486e-14
1.49841e-13
2.51086e-13
4.1434e-13
6.74095e-13
1.08047e-12
1.70473e-12
2.64956e-12
4.0659e-12
6.17352e-12
9.2767e-12
1.37846e-11
2.02309e-11
2.91839e-11
4.06225e-11
5.50412e-11
7.12487e-11
8.74373e-11
1.01134e-10
1.11508e-10
1.2086e-10
1.37359e-10
1.73645e-10
2.48892e-10
3.93114e-10
6.5649e-10
1.11511e-09
1.89763e-09
3.25132e-09
5.62215e-09
9.79126e-09
1.72698e-08
3.09347e-08
5.62905e-08
1.03384e-07
1.90748e-07
3.53945e-07
6.54076e-07
1.19487e-06
2.18393e-06
3.95196e-06
7.08214e-06
1.24665e-05
2.17863e-05
3.77718e-05
6.50066e-05
0.00011121
0.000189489
0.000308675
0.000386952
0.000390242
0.00033727
0.000261217
0.000185815
0.000123065
7.63676e-05
4.4345e-05
2.39117e-05
1.18344e-05
5.2771e-06
2.10574e-06
7.82182e-07
2.71006e-07
8.28471e-08
2.26809e-08
5.70398e-09
1.31622e-09
2.68041e-10
5.1646e-11
9.8899e-12
1.99433e-12
4.48973e-13
1.17039e-13
3.61245e-14
1.31454e-14
5.51266e-15
2.57043e-15
1.28705e-15
6.72068e-16
3.5848e-16
1.9278e-16
1.03778e-16
5.56426e-17
2.96696e-17
1.57208e-17
8.27737e-18
4.33002e-18
2.25111e-18
1.16297e-18
5.96607e-19
3.03271e-19
1.51986e-19
7.42346e-20
3.43856e-20
1.39911e-20
3.23424e-21
3.16592e-15
1.22764e-14
2.64782e-14
4.96221e-14
8.75724e-14
1.4971e-13
2.50867e-13
4.13978e-13
6.73503e-13
1.07952e-12
1.70325e-12
2.64729e-12
4.06254e-12
6.16866e-12
9.26958e-12
1.37748e-11
2.02184e-11
2.91687e-11
4.06064e-11
5.50235e-11
7.1239e-11
8.74425e-11
1.0116e-10
1.11554e-10
1.20921e-10
1.37436e-10
1.73763e-10
2.49152e-10
3.93792e-10
6.57151e-10
1.11631e-09
1.90014e-09
3.2566e-09
5.63327e-09
9.81382e-09
1.73152e-08
3.10256e-08
5.647e-08
1.03734e-07
1.91423e-07
3.55242e-07
6.56529e-07
1.19944e-06
2.19241e-06
3.9675e-06
7.11035e-06
1.25168e-05
2.18753e-05
3.79288e-05
6.52815e-05
0.000111688
0.000190317
0.0003095
0.000387332
0.000390159
0.000336974
0.000260829
0.000185431
0.000122741
7.61221e-05
4.41743e-05
2.38023e-05
1.17698e-05
5.24279e-06
2.09136e-06
7.76327e-07
2.68789e-07
8.2099e-08
2.24519e-08
5.64734e-09
1.30221e-09
2.65044e-10
5.1054e-11
9.77733e-12
1.97254e-12
4.44433e-13
1.15979e-13
3.58369e-14
1.30536e-14
5.47856e-15
2.55606e-15
1.2804e-15
6.6879e-16
3.56803e-16
1.91907e-16
1.0332e-16
5.54023e-17
2.95438e-17
1.56553e-17
8.24336e-18
4.31242e-18
2.24202e-18
1.15829e-18
5.9421e-19
3.02053e-19
1.51375e-19
7.39358e-20
3.42469e-20
1.39346e-20
3.22115e-21
3.16452e-15
1.2271e-14
2.64665e-14
4.96002e-14
8.75337e-14
1.49644e-13
2.50757e-13
4.13799e-13
6.73218e-13
1.07907e-12
1.70255e-12
2.64622e-12
4.06095e-12
6.16635e-12
9.2662e-12
1.37703e-11
2.02124e-11
2.91617e-11
4.05989e-11
5.50151e-11
7.12346e-11
8.74457e-11
1.01173e-10
1.11578e-10
1.20951e-10
1.3747e-10
1.73807e-10
2.49229e-10
3.93936e-10
6.57309e-10
1.1165e-09
1.90025e-09
3.25603e-09
5.63694e-09
9.82274e-09
1.73334e-08
3.10613e-08
5.6539e-08
1.03866e-07
1.91673e-07
3.55714e-07
6.57415e-07
1.20107e-06
2.19548e-06
3.97326e-06
7.12128e-06
1.25376e-05
2.19162e-05
3.80114e-05
6.54547e-05
0.000112065
0.000191165
0.000310308
0.000387802
0.000390382
0.000336823
0.000260682
0.000185266
0.000122586
7.59988e-05
4.40858e-05
2.37446e-05
1.17354e-05
5.22456e-06
2.08373e-06
7.73251e-07
2.67629e-07
8.17106e-08
2.23341e-08
5.61803e-09
1.29505e-09
2.63522e-10
5.07558e-11
9.72107e-12
1.96173e-12
4.42192e-13
1.15451e-13
3.56922e-14
1.30072e-14
5.46129e-15
2.54877e-15
1.27701e-15
6.67103e-16
3.55933e-16
1.9145e-16
1.03079e-16
5.52751e-17
2.94771e-17
1.56205e-17
8.22539e-18
4.30318e-18
2.23729e-18
1.15589e-18
5.92992e-19
3.01439e-19
1.51069e-19
7.37871e-20
3.41781e-20
1.39065e-20
3.21467e-21
3.16448e-15
1.22708e-14
2.64662e-14
4.95996e-14
8.75327e-14
1.49643e-13
2.50754e-13
4.13795e-13
6.73212e-13
1.07906e-12
1.70254e-12
2.64621e-12
4.06094e-12
6.16635e-12
9.26621e-12
1.37703e-11
2.02125e-11
2.91618e-11
4.05991e-11
5.50154e-11
7.1235e-11
8.74462e-11
1.01174e-10
1.11579e-10
1.20952e-10
1.37472e-10
1.73811e-10
2.49242e-10
3.94001e-10
6.57325e-10
1.11652e-09
1.90035e-09
3.25646e-09
5.63599e-09
9.81986e-09
1.73266e-08
3.10461e-08
5.65059e-08
1.03795e-07
1.9152e-07
3.55387e-07
6.56718e-07
1.1996e-06
2.19233e-06
3.96651e-06
7.10674e-06
1.25064e-05
2.18484e-05
3.78627e-05
6.51251e-05
0.000111326
0.000191103
0.000310038
0.000387726
0.000390538
0.000336367
0.000260356
0.000185066
0.000122474
7.59396e-05
4.40562e-05
2.37308e-05
1.17294e-05
5.2221e-06
2.08283e-06
7.72936e-07
2.67526e-07
8.16801e-08
2.23261e-08
5.61598e-09
1.29458e-09
2.63429e-10
5.07385e-11
9.71792e-12
1.96115e-12
4.42081e-13
1.15429e-13
3.56879e-14
1.30067e-14
5.46142e-15
2.54892e-15
1.27709e-15
6.6714e-16
3.55944e-16
1.91451e-16
1.03077e-16
5.52732e-17
2.94758e-17
1.56197e-17
8.22494e-18
4.30295e-18
2.23718e-18
1.15584e-18
5.92968e-19
3.01429e-19
1.51065e-19
7.3785e-20
3.41772e-20
1.39062e-20
3.21459e-21
3.16583e-15
1.2276e-14
2.64773e-14
4.96204e-14
8.75691e-14
1.49704e-13
2.50857e-13
4.13963e-13
6.73482e-13
1.07949e-12
1.70321e-12
2.64724e-12
4.0625e-12
6.16863e-12
9.26958e-12
1.37749e-11
2.02186e-11
2.91691e-11
4.06069e-11
5.50242e-11
7.124e-11
8.7444e-11
1.01161e-10
1.11555e-10
1.20919e-10
1.37424e-10
1.73719e-10
2.48999e-10
3.93311e-10
6.56891e-10
1.11596e-09
1.89935e-09
3.25467e-09
5.62951e-09
9.80546e-09
1.72966e-08
3.09851e-08
5.63839e-08
1.03555e-07
1.91057e-07
3.54506e-07
6.55082e-07
1.19665e-06
2.18709e-06
3.95757e-06
7.09222e-06
1.24848e-05
2.18206e-05
3.78392e-05
6.51448e-05
0.000111506
0.000190146
0.000309397
0.000387478
0.0003906
0.000336546
0.000260569
0.000185263
0.000122634
7.60568e-05
4.41364e-05
2.37816e-05
1.17593e-05
5.23805e-06
2.0895e-06
7.75649e-07
2.68554e-07
8.2027e-08
2.24327e-08
5.64228e-09
1.30107e-09
2.64812e-10
5.10105e-11
9.76977e-12
1.97122e-12
4.44179e-13
1.15925e-13
3.58249e-14
1.30512e-14
5.47828e-15
2.55613e-15
1.28046e-15
6.68805e-16
3.56794e-16
1.91891e-16
1.03307e-16
5.53934e-17
2.95385e-17
1.56524e-17
8.24185e-18
4.31168e-18
2.24167e-18
1.15814e-18
5.94143e-19
3.02023e-19
1.51362e-19
7.39301e-20
3.42445e-20
1.39336e-20
3.22094e-21
3.16863e-15
1.22869e-14
2.65007e-14
4.9664e-14
8.76457e-14
1.49835e-13
2.51073e-13
4.14316e-13
6.74051e-13
1.08039e-12
1.70462e-12
2.64941e-12
4.06577e-12
6.17344e-12
9.27671e-12
1.37847e-11
2.02313e-11
2.91846e-11
4.06236e-11
5.50427e-11
7.12506e-11
8.74394e-11
1.01136e-10
1.11509e-10
1.20859e-10
1.37356e-10
1.73632e-10
2.48856e-10
3.93029e-10
6.56323e-10
1.11471e-09
1.89665e-09
3.24897e-09
5.61739e-09
9.78072e-09
1.72465e-08
3.08845e-08
5.61845e-08
1.03165e-07
1.90304e-07
3.53057e-07
6.52336e-07
1.19153e-06
2.17755e-06
3.93996e-06
7.05994e-06
1.24264e-05
2.1715e-05
3.76468e-05
6.47907e-05
0.000110843
0.000189668
0.000308796
0.000387233
0.000390771
0.000336966
0.000261062
0.000185716
0.000122995
7.63186e-05
4.43128e-05
2.38925e-05
1.18238e-05
5.27203e-06
2.10369e-06
7.81394e-07
2.70721e-07
8.27575e-08
2.26553e-08
5.69729e-09
1.31462e-09
2.67713e-10
5.15871e-11
9.87938e-12
1.99234e-12
4.48592e-13
1.16966e-13
3.61104e-14
1.31433e-14
5.51281e-15
2.57084e-15
1.28734e-15
6.72221e-16
3.58548e-16
1.92807e-16
1.03787e-16
5.56452e-17
2.96702e-17
1.5721e-17
8.27741e-18
4.33003e-18
2.2511e-18
1.16296e-18
5.96594e-19
3.03261e-19
1.51979e-19
7.42305e-20
3.43834e-20
1.39901e-20
3.234e-21
3.17298e-15
1.23037e-14
2.65369e-14
4.97318e-14
8.77648e-14
1.50037e-13
2.5141e-13
4.14866e-13
6.74935e-13
1.08179e-12
1.70682e-12
2.65278e-12
4.07082e-12
6.18084e-12
9.28762e-12
1.37996e-11
2.02511e-11
2.92089e-11
4.06502e-11
5.50725e-11
7.12684e-11
8.74339e-11
1.011e-10
1.11442e-10
1.20772e-10
1.37258e-10
1.73517e-10
2.48676e-10
3.92658e-10
6.55456e-10
1.11268e-09
1.89208e-09
3.23892e-09
5.59918e-09
9.74478e-09
1.71744e-08
3.07407e-08
5.59013e-08
1.02615e-07
1.8925e-07
3.51049e-07
6.4857e-07
1.18461e-06
2.1648e-06
3.9167e-06
7.01782e-06
1.23513e-05
2.15801e-05
3.74045e-05
6.43517e-05
0.000110034
0.000188946
0.000307914
0.000386846
0.000390978
0.000337595
0.000261823
0.00018642
0.00012356
7.67297e-05
4.4591e-05
2.40665e-05
1.19252e-05
5.32528e-06
2.12586e-06
7.90344e-07
2.74102e-07
8.38979e-08
2.30068e-08
5.78439e-09
1.33619e-09
2.72346e-10
5.24918e-11
1.00498e-11
2.0253e-12
4.55452e-13
1.18578e-13
3.65508e-14
1.32846e-14
5.56559e-15
2.59327e-15
1.29781e-15
6.7742e-16
3.61219e-16
1.94202e-16
1.0452e-16
5.60301e-17
2.98717e-17
1.5826e-17
8.33185e-18
4.35813e-18
2.26553e-18
1.17034e-18
6.00345e-19
3.05154e-19
1.52922e-19
7.46898e-20
3.45957e-20
1.40765e-20
3.25397e-21
3.17904e-15
1.23272e-14
2.65874e-14
4.98261e-14
8.79307e-14
1.50319e-13
2.51879e-13
4.15633e-13
6.76168e-13
1.08375e-12
1.70987e-12
2.65746e-12
4.07786e-12
6.19119e-12
9.30286e-12
1.38205e-11
2.02789e-11
2.92434e-11
4.06887e-11
5.51165e-11
7.12966e-11
8.74296e-11
1.01051e-10
1.11351e-10
1.20655e-10
1.3713e-10
1.73372e-10
2.48457e-10
3.92208e-10
6.54402e-10
1.11024e-09
1.88676e-09
3.22782e-09
5.57618e-09
9.69826e-09
1.70809e-08
3.05553e-08
5.5539e-08
1.01919e-07
1.87933e-07
3.48586e-07
6.44073e-07
1.17653e-06
2.15043e-06
3.89173e-06
6.97553e-06
1.22826e-05
2.14734e-05
3.72487e-05
6.4148e-05
0.000109833
0.000187347
0.000306506
0.000386135
0.000390909
0.000338787
0.000262991
0.000187439
0.000124357
7.73023e-05
4.49727e-05
2.43039e-05
1.20626e-05
5.39801e-06
2.15633e-06
8.02585e-07
2.78691e-07