/*--------------------------------*- C++ -*----------------------------------*\
  =========                 |
  \\      /  F ield         | OpenFOAM: The Open Source CFD Toolbox
   \\    /   O peration     | Website:  https://openfoam.org
    \\  /    A nd           | Version:  10
     \\/     M anipulation  |
\*---------------------------------------------------------------------------*/
FoamFile
{
    format      ascii;
    class       volScalarField;
    location    "1";
    object      O2;
}
// * * * * * * * * * * * * * * * * * * * * * * * * * * * * * * * * * * * * * //

dimensions      [0 0 0 0 0 0 0];

internalField   nonuniform List<scalar> 
4000
(
4.54562e-08
1.73286e-07
3.6149e-07
6.45466e-07
1.0718e-06
1.70715e-06
2.6457e-06
4.0167e-06
5.99067e-06
8.78183e-06
1.26492e-05
1.79052e-05
2.49271e-05
3.41515e-05
4.60449e-05
6.09852e-05
7.94619e-05
0.000101765
0.000126973
0.000156832
0.000189283
0.000225002
0.000264535
0.000305499
0.000348352
0.00039262
0.000438048
0.000484421
0.00053043
0.000576634
0.000622264
0.000666963
0.000710825
0.000753669
0.000795456
0.000836534
0.000877282
0.000918625
0.000961804
0.00100873
0.00106268
0.00112673
0.00120522
0.00130503
0.00143916
0.00162227
0.00187756
0.00224523
0.00279531
0.00364755
0.00502274
0.00735273
0.0115243
0.0187291
0.0287935
0.0410028
0.0545529
0.0686739
0.0829131
0.0969565
0.110659
0.123779
0.136294
0.148149
0.159296
0.169837
0.179497
0.188331
0.196637
0.203993
0.210126
0.215474
0.219751
0.223028
0.225433
0.227106
0.22822
0.228933
0.229374
0.229639
0.229795
0.229885
0.229937
0.229965
0.229981
0.22999
0.229995
0.229997
0.229999
0.229999
0.23
0.23
0.23
0.23
0.23
0.23
0.23
0.23
0.23
0.23
4.52785e-08
1.72605e-07
3.60076e-07
6.43007e-07
1.06787e-06
1.7011e-06
2.63652e-06
4.00283e-06
5.96944e-06
8.74876e-06
1.25967e-05
1.78216e-05
2.47931e-05
3.3946e-05
4.57479e-05
6.0577e-05
7.88815e-05
0.000100955
0.000125953
0.000155709
0.000188019
0.000223473
0.000262791
0.000303821
0.000346726
0.000391129
0.000436676
0.000483419
0.000529714
0.000576279
0.00062229
0.000667361
0.000711672
0.000754972
0.000797289
0.000838921
0.00088028
0.000922258
0.000966196
0.00101389
0.00106873
0.0011338
0.00121334
0.00131476
0.00145108
0.00163723
0.00189668
0.00227062
0.00283107
0.00370027
0.00510467
0.0074878
0.0117739
0.0191053
0.0292766
0.0415596
0.0552903
0.0694483
0.0837193
0.0977829
0.111616
0.124727
0.137214
0.149039
0.160175
0.170601
0.180221
0.189025
0.197278
0.20455
0.210576
0.215788
0.219961
0.22317
0.225508
0.227142
0.228235
0.228937
0.229374
0.229638
0.229794
0.229884
0.229936
0.229965
0.229981
0.22999
0.229994
0.229997
0.229998
0.229999
0.23
0.23
0.23
0.23
0.23
0.23
0.23
0.23
0.23
0.23
4.51511e-08
1.72133e-07
3.59138e-07
6.41428e-07
1.06542e-06
1.69745e-06
2.63103e-06
3.9941e-06
5.9549e-06
8.72364e-06
1.25521e-05
1.77409e-05
2.46603e-05
3.37398e-05
4.5441e-05
6.01452e-05
7.83277e-05
0.000100199
0.000124964
0.000154474
0.000186566
0.00022194
0.000260831
0.000302591
0.00034541
0.000389863
0.000435497
0.000482525
0.000529134
0.000576157
0.000622704
0.000668314
0.000713238
0.000757275
0.000800357
0.000842801
0.000885031
0.000927963
0.000972927
0.00102208
0.00107828
0.00114477
0.00122619
0.00133045
0.0014705
0.00166185
0.0019287
0.00231408
0.00289169
0.00379034
0.00524652
0.00772465
0.0121875
0.0197301
0.0300954
0.0425045
0.0563347
0.070548
0.0848366
0.0988807
0.112892
0.125946
0.138391
0.150186
0.161267
0.171579
0.181146
0.189871
0.19802
0.205165
0.211053
0.216133
0.220183
0.223301
0.225587
0.227186
0.228257
0.228947
0.229377
0.229639
0.229794
0.229884
0.229935
0.229964
0.229981
0.22999
0.229994
0.229997
0.229998
0.229999
0.23
0.23
0.23
0.23
0.23
0.23
0.23
0.23
0.23
0.23
4.49399e-08
1.71324e-07
3.57433e-07
6.38335e-07
1.06015e-06
1.68876e-06
2.61697e-06
3.97177e-06
5.91988e-06
8.66949e-06
1.24701e-05
1.7621e-05
2.4486e-05
3.34903e-05
4.50923e-05
5.9673e-05
7.77051e-05
9.94686e-05
0.000124126
0.000153415
0.000185336
0.000220554
0.000259283
0.000301164
0.000344151
0.000388777
0.000434574
0.000481918
0.000528884
0.000576406
0.000623565
0.000669819
0.00071546
0.000760217
0.00080422
0.00084764
0.000890923
0.000934997
0.000981434
0.0010317
0.00108956
0.00115819
0.00124229
0.00134967
0.00149402
0.00169132
0.00196618
0.00236441
0.00296264
0.0038947
0.00540914
0.00800853
0.0126838
0.0204794
0.0310811
0.0437047
0.057659
0.0719574
0.0862891
0.100351
0.11437
0.127387
0.139759
0.151434
0.162436
0.172694
0.18215
0.19077
0.198797
0.20581
0.211558
0.21652
0.2205
0.223535
0.225745
0.227284
0.228313
0.228977
0.229392
0.229645
0.229796
0.229885
0.229936
0.229964
0.229981
0.229989
0.229994
0.229997
0.229998
0.229999
0.23
0.23
0.23
0.23
0.23
0.23
0.23
0.23
0.23
0.23
4.47148e-08
1.70466e-07
3.55642e-07
6.35125e-07
1.05478e-06
1.68011e-06
2.60336e-06
3.9507e-06
5.8877e-06
8.62087e-06
1.23975e-05
1.75141e-05
2.43318e-05
3.32734e-05
4.47955e-05
5.92811e-05
7.72016e-05
9.88406e-05
0.000123358
0.000152508
0.000184362
0.000219529
0.0002581
0.000300078
0.000343132
0.000387858
0.000433896
0.000481591
0.000528948
0.000577
0.000624751
0.000671608
0.000717979
0.000763558
0.000808513
0.000852938
0.000897284
0.000942671
0.000990248
0.0010422
0.00110164
0.00117224
0.00125907
0.00136991
0.00151892
0.00172273
0.00200647
0.00241832
0.00303917
0.00400856
0.00558917
0.00829646
0.0132091
0.0212648
0.0320909
0.0448724
0.0589046
0.0732637
0.0876159
0.101674
0.115647
0.128631
0.140985
0.152633
0.163557
0.173717
0.183066
0.191594
0.199528
0.206424
0.21204
0.216913
0.220775
0.223717
0.225859
0.227351
0.228352
0.228998
0.229404
0.229651
0.229799
0.229886
0.229936
0.229965
0.229981
0.22999
0.229994
0.229997
0.229998
0.229999
0.23
0.23
0.23
0.23
0.23
0.23
0.23
0.23
0.23
0.23
4.44726e-08
1.69541e-07
3.53702e-07
6.31634e-07
1.04893e-06
1.67068e-06
2.58857e-06
3.92796e-06
5.85335e-06
8.56973e-06
1.23223e-05
1.74056e-05
2.4179e-05
3.30641e-05
4.45176e-05
5.89263e-05
7.67646e-05
9.83249e-05
0.000122775
0.000151799
0.000183603
0.000218745
0.000257159
0.000299197
0.00034231
0.000387232
0.000433507
0.000481552
0.000529304
0.000577862
0.000626182
0.000673646
0.000720723
0.000767091
0.000812955
0.000858404
0.000903921
0.000950428
0.000999335
0.00105253
0.00111368
0.00118653
0.0012757
0.0013897
0.00154314
0.00175332
0.00204595
0.00247203
0.00311446
0.00412056
0.0057644
0.00858852
0.0137357
0.0220505
0.0331128
0.046112
0.0602344
0.0746639
0.0890393
0.103067
0.116918
0.129838
0.142086
0.153663
0.164498
0.174566
0.183802
0.192439
0.200209
0.206964
0.212504
0.217258
0.221018
0.223881
0.225965
0.227417
0.228391
0.229021
0.229416
0.229658
0.229803
0.229888
0.229937
0.229965
0.229981
0.22999
0.229994
0.229997
0.229998
0.229999
0.23
0.23
0.23
0.23
0.23
0.23
0.23
0.23
0.23
0.23
4.42329e-08
1.68626e-07
3.51787e-07
6.282e-07
1.0432e-06
1.66149e-06
2.57425e-06
3.90614e-06
5.82068e-06
8.52155e-06
1.22523e-05
1.73055e-05
2.40393e-05
3.28746e-05
4.4268e-05
5.861e-05
7.63764e-05
9.78658e-05
0.000122249
0.000151143
0.000182901
0.000218069
0.000256367
0.000298454
0.00034171
0.00038682
0.000433332
0.000481705
0.000529834
0.000578854
0.000627688
0.000675732
0.000723459
0.000770541
0.000817189
0.000863483
0.000910002
0.000957529
0.00100748
0.00106198
0.00112489
0.00119961
0.00129104
0.00140796
0.00156531
0.0017808
0.00208024
0.00251729
0.0031853
0.00422343
0.00592767
0.00886911
0.0142369
0.0227821
0.0340371
0.0472814
0.0614147
0.0758777
0.0902687
0.104326
0.117894
0.130819
0.143075
0.154578
0.165322
0.175303
0.184457
0.193026
0.200715
0.207391
0.21284
0.217518
0.221209
0.224015
0.226055
0.227474
0.228426
0.229042
0.229428
0.229665
0.229806
0.22989
0.229938
0.229966
0.229981
0.22999
0.229994
0.229997
0.229998
0.229999
0.23
0.23
0.23
0.23
0.23
0.23
0.23
0.23
0.23
0.23
4.40044e-08
1.67754e-07
3.49964e-07
6.24932e-07
1.03775e-06
1.65278e-06
2.56073e-06
3.88561e-06
5.79011e-06
8.47676e-06
1.21876e-05
1.72138e-05
2.39124e-05
3.27039e-05
4.40453e-05
5.83304e-05
7.60365e-05
9.74681e-05
0.000121799
0.000150571
0.000182323
0.000217471
0.000255748
0.000297947
0.000341331
0.000386599
0.000433331
0.000482015
0.000530476
0.000579895
0.000629211
0.00067778
0.000726105
0.000773831
0.000821189
0.000868362
0.000915679
0.000964093
0.00101498
0.00107055
0.00113442
0.00121046
0.00130362
0.00142298
0.00158385
0.0018045
0.00211124
0.00255922
0.00324193
0.00430579
0.00605275
0.00913179
0.0146866
0.0234203
0.0348085
0.0483129
0.0624577
0.0769452
0.0913486
0.105385
0.118893
0.131781
0.143963
0.15542
0.166114
0.176007
0.185082
0.193631
0.201206
0.207781
0.213141
0.217746
0.221384
0.224142
0.226142
0.22753
0.228461
0.229062
0.22944
0.229671
0.22981
0.229892
0.229939
0.229966
0.229981
0.22999
0.229995
0.229997
0.229998
0.229999
0.23
0.23
0.23
0.23
0.23
0.23
0.23
0.23
0.23
0.23
4.37949e-08
1.66955e-07
3.48295e-07
6.21948e-07
1.03278e-06
1.64487e-06
2.54849e-06
3.86711e-06
5.76268e-06
8.43678e-06
1.21302e-05
1.7133e-05
2.38012e-05
3.25553e-05
4.38527e-05
5.80904e-05
7.57486e-05
9.71383e-05
0.000121444
0.000150121
0.000181839
0.00021701
0.000255302
0.000297569
0.000341058
0.000386491
0.000433431
0.00048239
0.000531151
0.000580952
0.000630731
0.000679775
0.000728589
0.000776868
0.000824914
0.000872723
0.000920736
0.000969899
0.00102165
0.00107833
0.00114352
0.00122102
0.00131591
0.00143756
0.00160155
0.00182641
0.00213957
0.00259799
0.00329571
0.00438764
0.00618322
0.0093487
0.0150882
0.0240068
0.0355573
0.0491433
0.0633721
0.0778996
0.0922998
0.106311
0.119774
0.132601
0.144744
0.156174
0.166853
0.176709
0.185713
0.194187
0.201695
0.208206
0.213488
0.218007
0.221571
0.22427
0.226226
0.227583
0.228493
0.229081
0.229451
0.229678
0.229814
0.229894
0.22994
0.229967
0.229982
0.22999
0.229995
0.229997
0.229998
0.229999
0.23
0.23
0.23
0.23
0.23
0.23
0.23
0.23
0.23
0.23
4.36079e-08
1.66242e-07
3.46808e-07
6.1929e-07
1.02837e-06
1.63785e-06
2.53765e-06
3.85077e-06
5.73856e-06
8.4018e-06
1.20803e-05
1.7063e-05
2.37055e-05
3.24276e-05
4.36871e-05
5.78838e-05
7.5498e-05
9.68467e-05
0.000121112
0.000149696
0.000181417
0.00021659
0.000254928
0.000297301
0.000340903
0.00038648
0.000433608
0.000482807
0.000531845
0.000581987
0.000632117
0.000681552
0.000730812
0.000779628
0.000828171
0.00087653
0.000925149
0.000974961
0.00102752
0.00108499
0.00115115
0.00122986
0.00132622
0.00144987
0.00161658
0.00184561
0.00216527
0.00263366
0.00334542
0.00446618
0.00631518
0.00953104
0.0154399
0.0245125
0.0361701
0.0498759
0.0641296
0.0786618
0.0930575
0.107059
0.120514
0.133311
0.145391
0.156724
0.167565
0.177307
0.186235
0.194641
0.202082
0.208511
0.213742
0.218207
0.221718
0.224373
0.226295
0.227627
0.22852
0.229098
0.229461
0.229683
0.229817
0.229896
0.229941
0.229967
0.229982
0.22999
0.229995
0.229997
0.229999
0.229999
0.23
0.23
0.23
0.23
0.23
0.23
0.23
0.23
0.23
0.23
4.34447e-08
1.6562e-07
3.45511e-07
6.16974e-07
1.02453e-06
1.63175e-06
2.52824e-06
3.83663e-06
5.71777e-06
8.37181e-06
1.20378e-05
1.70041e-05
2.36259e-05
3.23229e-05
4.35503e-05
5.77167e-05
7.53039e-05
9.66321e-05
0.000120876
0.000149389
0.000181108
0.000216293
0.00025467
0.000297114
0.000340819
0.000386528
0.000433821
0.000483239
0.000532522
0.000582928
0.000633379
0.000683168
0.000732832
0.000782008
0.000830953
0.000879751
0.000928822
0.000979149
0.00103232
0.00109044
0.00115739
0.00123705
0.0013346
0.00145993
0.00162902
0.00186155
0.00218599
0.00266217
0.00338574
0.00452867
0.00641737
0.00970665
0.01576
0.0249739
0.0367461
0.0505147
0.0648084
0.0793622
0.0937578
0.107743
0.121163
0.133929
0.145987
0.157297
0.16809
0.177803
0.18668
0.195043
0.202427
0.208775
0.213949
0.21837
0.221839
0.224459
0.226353
0.227665
0.228544
0.229112
0.229469
0.229688
0.22982
0.229897
0.229942
0.229968
0.229982
0.22999
0.229995
0.229997
0.229999
0.229999
0.23
0.23
0.23
0.23
0.23
0.23
0.23
0.23
0.23
0.23
4.33049e-08
1.65087e-07
3.444e-07
6.14993e-07
1.02125e-06
1.62654e-06
2.52024e-06
3.82464e-06
5.70018e-06
8.34656e-06
1.20023e-05
1.69552e-05
2.35601e-05
3.22372e-05
4.34387e-05
5.75829e-05
7.51472e-05
9.64502e-05
0.000120672
0.000149137
0.00018085
0.000216061
0.000254484
0.000297001
0.000340793
0.000386616
0.000434052
0.000483646
0.000533125
0.000583753
0.000634473
0.000684541
0.000734496
0.000784011
0.000833302
0.000882465
0.000931912
0.000982706
0.00103629
0.0010949
0.00116239
0.00124266
0.00134086
0.00146891
0.00163965
0.00187477
0.00220319
0.00268558
0.00341953
0.00458066
0.00650334
0.00985647
0.0160277
0.0253544
0.037211
0.0510457
0.0653793
0.0799502
0.0943496
0.108326
0.121729
0.134478
0.146507
0.157787
0.168519
0.1782
0.187041
0.195365
0.202706
0.208976
0.214108
0.21849
0.221934
0.224528
0.226401
0.227697
0.228564
0.229125
0.229477
0.229692
0.229822
0.229899
0.229943
0.229968
0.229983
0.22999
0.229995
0.229997
0.229999
0.229999
0.23
0.23
0.23
0.23
0.23
0.23
0.23
0.23
0.23
0.23
4.31869e-08
1.64638e-07
3.43464e-07
6.13325e-07
1.01849e-06
1.62217e-06
2.51353e-06
3.81459e-06
5.6855e-06
8.32553e-06
1.19728e-05
1.69148e-05
2.35063e-05
3.21681e-05
4.33507e-05
5.7478e-05
7.50217e-05
9.63087e-05
0.000120521
0.000148944
0.000180663
0.000215896
0.000254355
0.000296935
0.000340808
0.000386736
0.000434299
0.000484052
0.000533696
0.0005845
0.000635433
0.000685726
0.000735924
0.000785714
0.000835299
0.00088476
0.000934569
0.000985687
0.00103962
0.00109862
0.00116657
0.0012474
0.00134635
0.00147552
0.00164764
0.00188477
0.00221622
0.0027034
0.00344477
0.00461758
0.00655895
0.0100138
0.0162808
0.0256987
0.0376337
0.051523
0.0658803
0.0804541
0.0948503
0.108816
0.122207
0.13493
0.146938
0.158195
0.168873
0.178527
0.187346
0.195638
0.202946
0.209152
0.214258
0.218608
0.222021
0.224589
0.226443
0.227724
0.228582
0.229135
0.229483
0.229696
0.229824
0.2299
0.229944
0.229969
0.229983
0.229991
0.229995
0.229997
0.229999
0.229999
0.23
0.23
0.23
0.23
0.23
0.23
0.23
0.23
0.23
0.23
4.30887e-08
1.64264e-07
3.42685e-07
6.11938e-07
1.01619e-06
1.61854e-06
2.50796e-06
3.80625e-06
5.67328e-06
8.30799e-06
1.19481e-05
1.68807e-05
2.34605e-05
3.21084e-05
4.32729e-05
5.738e-05
7.49077e-05
9.61836e-05
0.000120394
0.000148785
0.000180518
0.00021577
0.000254263
0.000296899
0.00034084
0.000386856
0.000434525
0.000484409
0.000534195
0.00058516
0.000636274
0.000686754
0.000737145
0.000787126
0.000836942
0.000886656
0.000936723
0.000988111
0.00104234
0.00110166
0.00117002
0.00125141
0.00135111
0.0014813
0.00165483
0.00189405
0.0022287
0.00272114
0.00347152
0.00466083
0.00663375
0.0101179
0.0164813
0.0259843
0.0379774
0.0518967
0.066273
0.0808555
0.0952491
0.109212
0.122591
0.135302
0.147296
0.158534
0.169167
0.1788
0.187593
0.195857
0.203136
0.209291
0.214374
0.2187
0.22209
0.224639
0.226477
0.227747
0.228596
0.229144
0.229489
0.229699
0.229826
0.229901
0.229944
0.229969
0.229983
0.229991
0.229995
0.229997
0.229999
0.229999
0.23
0.23
0.23
0.23
0.23
0.23
0.23
0.23
0.23
0.23
4.30088e-08
1.6396e-07
3.42052e-07
6.10809e-07
1.01432e-06
1.61559e-06
2.50343e-06
3.79947e-06
5.66335e-06
8.29372e-06
1.1928e-05
1.68528e-05
2.3423e-05
3.20592e-05
4.3208e-05
5.73046e-05
7.48234e-05
9.60928e-05
0.000120299
0.000148665
0.000180402
0.000215673
0.000254196
0.000296882
0.000340882
0.000386971
0.000434727
0.000484719
0.000534625
0.000585717
0.00063698
0.000687615
0.000738169
0.000788329
0.000838308
0.000888197
0.000938448
0.000990046
0.00104452
0.00110413
0.00117285
0.00125466
0.00135489
0.00148585
0.00166053
0.00190155
0.00223902
0.00273623
0.0034949
0.0046991
0.00670008
0.0102036
0.016642
0.0262128
0.038259
0.0522124
0.0666103
0.0811989
0.0955916
0.109544
0.122914
0.135616
0.147593
0.158813
0.169408
0.179021
0.187792
0.196036
0.20329
0.209405
0.214466
0.218774
0.222147
0.224681
0.226506
0.227766
0.228608
0.229152
0.229493
0.229702
0.229828
0.229902
0.229945
0.229969
0.229983
0.229991
0.229995
0.229997
0.229999
0.229999
0.23
0.23
0.23
0.23
0.23
0.23
0.23
0.23
0.23
0.23
4.29455e-08
1.63719e-07
3.4155e-07
6.09917e-07
1.01285e-06
1.61325e-06
2.49986e-06
3.79413e-06
5.65555e-06
8.28254e-06
1.19122e-05
1.68312e-05
2.33943e-05
3.20224e-05
4.31607e-05
5.72487e-05
7.47584e-05
9.6021e-05
0.000120223
0.00014857
0.000180318
0.000215606
0.000254156
0.00029688
0.000340929
0.000387078
0.000434906
0.000484986
0.000534987
0.000586184
0.000637564
0.000688326
0.000739016
0.000789313
0.000839441
0.000889499
0.000939918
0.000991692
0.00104636
0.00110619
0.00117518
0.00125734
0.00135804
0.00148966
0.0016653
0.00190775
0.00224738
0.00274796
0.00351215
0.0047256
0.0067433
0.0102779
0.0167695
0.0263939
0.0384851
0.0524656
0.0668828
0.0814802
0.0958725
0.10982
0.123181
0.135871
0.147835
0.159041
0.169604
0.179203
0.187958
0.196184
0.20342
0.209498
0.214545
0.218837
0.222194
0.224715
0.22653
0.227782
0.228618
0.229158
0.229497
0.229704
0.229829
0.229902
0.229945
0.229969
0.229983
0.229991
0.229995
0.229997
0.229999
0.229999
0.23
0.23
0.23
0.23
0.23
0.23
0.23
0.23
0.23
0.23
4.28974e-08
1.63536e-07
3.41169e-07
6.09238e-07
1.01173e-06
1.61149e-06
2.49716e-06
3.79013e-06
5.64975e-06
8.27433e-06
1.19008e-05
1.68158e-05
2.33739e-05
3.19961e-05
4.31259e-05
5.72062e-05
7.47087e-05
9.59669e-05
0.000120168
0.000148501
0.000180255
0.000215557
0.000254129
0.000296888
0.000340977
0.000387175
0.000435062
0.000485211
0.000535288
0.000586566
0.000638038
0.000688892
0.000739681
0.000790088
0.000840337
0.00089051
0.000941052
0.000992958
0.00104777
0.00110777
0.00117697
0.00125939
0.00136046
0.00149263
0.00166907
0.00191273
0.00225422
0.00275778
0.00352685
0.00474849
0.00678027
0.0103437
0.0168811
0.026548
0.0386696
0.0526531
0.0670863
0.0816914
0.096085
0.11003
0.123385
0.136066
0.14802
0.159217
0.169755
0.179343
0.188087
0.1963
0.203522
0.209573
0.214607
0.218885
0.222231
0.224741
0.226548
0.227794
0.228626
0.229163
0.2295
0.229706
0.22983
0.229903
0.229945
0.22997
0.229983
0.229991
0.229995
0.229997
0.229999
0.229999
0.23
0.23
0.23
0.23
0.23
0.23
0.23
0.23
0.23
0.23
4.2863e-08
1.63405e-07
3.40898e-07
6.08758e-07
1.01094e-06
1.61026e-06
2.49529e-06
3.78737e-06
5.64575e-06
8.26859e-06
1.18927e-05
1.68044e-05
2.33583e-05
3.19757e-05
4.30993e-05
5.71754e-05
7.46741e-05
9.59302e-05
0.000120131
0.000148454
0.000180214
0.000215527
0.000254115
0.000296898
0.000341016
0.00038725
0.000435179
0.000485377
0.000535508
0.000586846
0.000638384
0.000689309
0.000740172
0.000790657
0.000840989
0.000891246
0.000941877
0.000993877
0.00104879
0.00110892
0.00117828
0.0012609
0.00136224
0.00149481
0.00167185
0.00191641
0.00225924
0.00276495
0.00353756
0.00476554
0.00680964
0.010397
0.0169748
0.0266947
0.0388905
0.052696
0.0671946
0.0818283
0.0962334
0.110181
0.123534
0.13621
0.148158
0.159348
0.169867
0.179447
0.188181
0.196385
0.203596
0.209627
0.214652
0.218921
0.222258
0.224761
0.226562
0.227803
0.228632
0.229167
0.229502
0.229707
0.229831
0.229903
0.229946
0.22997
0.229983
0.229991
0.229995
0.229997
0.229999
0.229999
0.23
0.23
0.23
0.23
0.23
0.23
0.23
0.23
0.23
0.23
4.2841e-08
1.63321e-07
3.40723e-07
6.08448e-07
1.01043e-06
1.60945e-06
2.49404e-06
3.78549e-06
5.64297e-06
8.26457e-06
1.1887e-05
1.67966e-05
2.3348e-05
3.19626e-05
4.30822e-05
5.71552e-05
7.46515e-05
9.59063e-05
0.000120108
0.000148425
0.000180189
0.00021551
0.000254109
0.000296908
0.000341045
0.000387302
0.000435258
0.00048549
0.000535656
0.000587032
0.000638614
0.000689585
0.000740495
0.00079103
0.000841413
0.000891723
0.000942409
0.000994469
0.00104945
0.00110965
0.0011791
0.00126185
0.00136338
0.00149621
0.00167363
0.00191878
0.00226248
0.00276955
0.00354432
0.00477587
0.00682618
0.0104277
0.0170292
0.026771
0.0389856
0.0527887
0.067286
0.0819249
0.0963335
0.110282
0.123633
0.136306
0.14825
0.159434
0.169941
0.179515
0.188244
0.196441
0.203645
0.209663
0.214682
0.218945
0.222276
0.224775
0.226571
0.227809
0.228636
0.229169
0.229504
0.229708
0.229831
0.229904
0.229946
0.22997
0.229983
0.229991
0.229995
0.229997
0.229999
0.229999
0.23
0.23
0.23
0.23
0.23
0.23
0.23
0.23
0.23
0.23
4.28299e-08
1.63279e-07
3.40636e-07
6.08293e-07
1.01017e-06
1.60904e-06
2.49342e-06
3.78456e-06
5.64162e-06
8.26265e-06
1.18843e-05
1.67929e-05
2.33431e-05
3.19562e-05
4.3074e-05
5.71456e-05
7.46407e-05
9.58951e-05
0.000120097
0.000148411
0.000180178
0.000215502
0.000254107
0.000296914
0.000341061
0.00038733
0.000435301
0.000485549
0.000535733
0.000587128
0.000638731
0.000689724
0.000740658
0.000791216
0.000841623
0.000891958
0.00094267
0.000994756
0.00104976
0.00110999
0.00117948
0.00126227
0.00136384
0.00149674
0.00167427
0.00191959
0.0022636
0.00277123
0.0035471
0.0047808
0.00683524
0.0104439
0.017054
0.0267973
0.0389962
0.0528794
0.0673544
0.0819862
0.0963917
0.110338
0.123686
0.136356
0.148297
0.159478
0.169978
0.17955
0.188276
0.196469
0.20367
0.209681
0.214697
0.218957
0.222285
0.224781
0.226576
0.227812
0.228638
0.229171
0.229504
0.229709
0.229832
0.229904
0.229946
0.22997
0.229983
0.229991
0.229995
0.229997
0.229999
0.229999
0.23
0.23
0.23
0.23
0.23
0.23
0.23
0.23
0.23
0.23
4.28298e-08
1.63279e-07
3.40635e-07
6.0829e-07
1.01017e-06
1.60903e-06
2.49341e-06
3.78455e-06
5.6416e-06
8.26262e-06
1.18843e-05
1.67928e-05
2.3343e-05
3.19561e-05
4.30739e-05
5.71455e-05
7.46407e-05
9.58951e-05
0.000120097
0.000148412
0.000180178
0.000215503
0.000254108
0.000296915
0.000341063
0.000387332
0.000435303
0.000485551
0.000535734
0.00058713
0.000638732
0.000689724
0.000740657
0.000791215
0.000841621
0.000891956
0.000942668
0.000994754
0.00104976
0.00110999
0.00117946
0.00126223
0.00136374
0.00149653
0.00167382
0.00191866
0.0022617
0.00276734
0.00353915
0.00476466
0.00680296
0.0104545
0.0170378
0.0267584
0.038929
0.0529494
0.0674005
0.0820151
0.0964095
0.110349
0.123693
0.136361
0.1483
0.15948
0.16998
0.179551
0.188276
0.19647
0.20367
0.209681
0.214697
0.218957
0.222285
0.224781
0.226576
0.227813
0.228638
0.229171
0.229504
0.229709
0.229832
0.229904
0.229946
0.22997
0.229983
0.229991
0.229995
0.229997
0.229999
0.229999
0.23
0.23
0.23
0.23
0.23
0.23
0.23
0.23
0.23
0.23
4.28406e-08
1.6332e-07
3.4072e-07
6.08441e-07
1.01042e-06
1.60942e-06
2.494e-06
3.78543e-06
5.64288e-06
8.26445e-06
1.18868e-05
1.67964e-05
2.33478e-05
3.19622e-05
4.30819e-05
5.71549e-05
7.46514e-05
9.59064e-05
0.000120108
0.000148426
0.00018019
0.000215512
0.000254111
0.000296911
0.000341049
0.000387307
0.000435263
0.000485495
0.000535661
0.000587036
0.000638616
0.000689585
0.000740493
0.000791026
0.000841407
0.000891715
0.000942401
0.000994458
0.00104944
0.00110963
0.00117907
0.00126178
0.00136323
0.00149593
0.00167313
0.0019179
0.00226098
0.00276698
0.00353995
0.00476834
0.00681312
0.0104102
0.0169933
0.026708
0.0388753
0.0529055
0.0673562
0.0819693
0.0963628
0.110302
0.123647
0.136316
0.148257
0.159439
0.169944
0.179518
0.188246
0.196442
0.203646
0.209664
0.214683
0.218946
0.222277
0.224775
0.226572
0.22781
0.228636
0.229169
0.229504
0.229708
0.229831
0.229904
0.229946
0.22997
0.229983
0.229991
0.229995
0.229997
0.229999
0.229999
0.23
0.23
0.23
0.23
0.23
0.23
0.23
0.23
0.23
0.23
4.2863e-08
1.63405e-07
3.40897e-07
6.08756e-07
1.01094e-06
1.61024e-06
2.49525e-06
3.78728e-06
5.64558e-06
8.26831e-06
1.18923e-05
1.68038e-05
2.33577e-05
3.19751e-05
4.30987e-05
5.71749e-05
7.4674e-05
9.59304e-05
0.000120132
0.000148455
0.000180216
0.00021553
0.000254119
0.000296903
0.000341022
0.000387256
0.000435184
0.000485383
0.000535513
0.00058685
0.000638385
0.000689307
0.000740166
0.000790647
0.000840974
0.000891227
0.000941855
0.000993851
0.00104876
0.00110888
0.00117821
0.00126079
0.00136206
0.00149448
0.00167123
0.0019153
0.00225726
0.00276136
0.00353097
0.00475324
0.00678649
0.0103921
0.0169475
0.0266399
0.0387909
0.0528121
0.0672576
0.0818684
0.0962619
0.110203
0.123551
0.136223
0.148168
0.159355
0.169871
0.17945
0.188184
0.196386
0.203598
0.209628
0.214653
0.218922
0.222259
0.224762
0.226562
0.227803
0.228632
0.229167
0.229502
0.229707
0.229831
0.229903
0.229946
0.22997
0.229983
0.229991
0.229995
0.229997
0.229999
0.229999
0.23
0.23
0.23
0.23
0.23
0.23
0.23
0.23
0.23
0.23
4.28977e-08
1.63537e-07
3.41172e-07
6.09245e-07
1.01174e-06
1.61151e-06
2.49719e-06
3.79017e-06
5.64979e-06
8.27434e-06
1.19007e-05
1.68155e-05
2.33732e-05
3.1995e-05
4.31246e-05
5.72054e-05
7.47088e-05
9.59677e-05
0.000120169
0.000148502
0.000180257
0.000215561
0.000254133
0.000296893
0.000340983
0.000387182
0.000435069
0.000485216
0.000535292
0.000586567
0.000638035
0.000688885
0.000739669
0.000790072
0.000840315
0.00089048
0.000941015
0.000992913
0.00104771
0.0011077
0.00117688
0.00125926
0.00136026
0.00149231
0.00166852
0.00191176
0.00225242
0.00275431
0.00351991
0.00473441
0.00675151
0.0103613
0.0168839
0.026546
0.0386708
0.0526648
0.0671028
0.081711
0.0961052
0.110049
0.123401
0.136078
0.14803
0.159225
0.16976
0.179346
0.188089
0.196301
0.203522
0.209573
0.214606
0.218885
0.222231
0.224742
0.226549
0.227794
0.228627
0.229163
0.2295
0.229706
0.22983
0.229903
0.229945
0.22997
0.229983
0.229991
0.229995
0.229997
0.229999
0.229999
0.23
0.23
0.23
0.23
0.23
0.23
0.23
0.23
0.23
0.23
4.29459e-08
1.63721e-07
3.41553e-07
6.09923e-07
1.01286e-06
1.61328e-06
2.4999e-06
3.7942e-06
5.65567e-06
8.28275e-06
1.19125e-05
1.68317e-05
2.33949e-05
3.20229e-05
4.31609e-05
5.72483e-05
7.47576e-05
9.60204e-05
0.000120223
0.00014857
0.00018032
0.000215609
0.00025416
0.000296886
0.000340936
0.000387086
0.000434915
0.000484995
0.000534996
0.000586189
0.000637567
0.000688323
0.000739005
0.000789293
0.000839416
0.000889459
0.000939865
0.000991625
0.00104627
0.00110609
0.00117506
0.00125719
0.00135787
0.00148948
0.00166512
0.00190763
0.00224741
0.00274834
0.00351319
0.00472774
0.00674677
0.0102916
0.0167979
0.0264491
0.0385946
0.0523775
0.0668526
0.0814771
0.095882
0.109835
0.123197
0.135884
0.147846
0.15905
0.169611
0.179209
0.187964
0.196189
0.203425
0.209503
0.214549
0.21884
0.222196
0.224716
0.22653
0.227782
0.228619
0.229158
0.229497
0.229704
0.229829
0.229902
0.229945
0.229969
0.229983
0.229991
0.229995
0.229997
0.229999
0.229999
0.23
0.23
0.23
0.23
0.23
0.23
0.23
0.23
0.23
0.23
4.30091e-08
1.63961e-07
3.42054e-07
6.10814e-07
1.01433e-06
1.6156e-06
2.50346e-06
3.79952e-06
5.66345e-06
8.29389e-06
1.19282e-05
1.68533e-05
2.34237e-05
3.20603e-05
4.32094e-05
5.73059e-05
7.48237e-05
9.60917e-05
0.000120296
0.000148661
0.000180401
0.000215675
0.0002542
0.000296887
0.00034089
0.000386981
0.000434738
0.00048473
0.000534636
0.000585731
0.000636994
0.00068763
0.000738189
0.000788352
0.000838335
0.000888235
0.000938485
0.000990074
0.00104453
0.00110411
0.0011728
0.00125457
0.00135478
0.00148577
0.00166056
0.00190175
0.00223951
0.00273705
0.00349598
0.00470018
0.00670078
0.0102024
0.0166402
0.0262183
0.0382765
0.0522221
0.066625
0.0812216
0.0956186
0.109575
0.122944
0.135641
0.147615
0.158834
0.169425
0.179036
0.187806
0.196048
0.203301
0.209412
0.214471
0.218778
0.22215
0.224682
0.226507
0.227767
0.228609
0.229152
0.229493
0.229702
0.229828
0.229902
0.229945
0.229969
0.229983
0.229991
0.229995
0.229997
0.229999
0.229999
0.23
0.23
0.23
0.23
0.23
0.23
0.23
0.23
0.23
0.23
4.30888e-08
1.64265e-07
3.42686e-07
6.11941e-07
1.0162e-06
1.61855e-06
2.50798e-06
3.80629e-06
5.67335e-06
8.30811e-06
1.19483e-05
1.6881e-05
2.34611e-05
3.21092e-05
4.32741e-05
5.73817e-05
7.49096e-05
9.61854e-05
0.000120396
0.000148786
0.000180516
0.000215771
0.000254266
0.000296905
0.000340849
0.000386868
0.00043454
0.000484426
0.000534218
0.000585186
0.000636302
0.000686787
0.000737184
0.000787179
0.000836986
0.000886686
0.000936751
0.000988134
0.00104236
0.00110167
0.00117002
0.00125138
0.00135104
0.00148123
0.00165487
0.00189446
0.00222983
0.00272358
0.00347612
0.00466864
0.00664655
0.010106
0.0164722
0.0259826
0.0379863
0.0519153
0.0662981
0.0808845
0.095278
0.109234
0.122613
0.135323
0.147312
0.158548
0.169179
0.178811
0.1876
0.195865
0.203143
0.209296
0.214376
0.218703
0.222092
0.224641
0.226478
0.227747
0.228596
0.229145
0.229489
0.229699
0.229826
0.229901
0.229944
0.229969
0.229983
0.229991
0.229995
0.229997
0.229999
0.229999
0.23
0.23
0.23
0.23
0.23
0.23
0.23
0.23
0.23
0.23
4.31867e-08
1.64638e-07
3.43463e-07
6.13324e-07
1.01849e-06
1.62218e-06
2.51354e-06
3.81462e-06
5.68553e-06
8.32559e-06
1.19729e-05
1.69148e-05
2.35064e-05
3.2168e-05
4.33503e-05
5.74782e-05
7.50226e-05
9.63111e-05
0.000120525
0.000148951
0.000180669
0.0002159
0.00025436
0.000296944
0.00034082
0.000386753
0.000434321
0.000484078
0.000533729
0.000584539
0.000635478
0.000685774
0.000735971
0.000785752
0.000835336
0.000884796
0.000934596
0.000985706
0.00103964
0.00109862
0.00116658
0.00124744
0.00134646
0.00147574
0.00164812
0.00188568
0.0022179
0.00270656
0.00345081
0.00462936
0.00658236
0.00999506
0.0162744
0.0257046
0.0376474
0.0515204
0.0658855
0.0804678
0.0948648
0.108829
0.122214
0.13494
0.146947
0.158202
0.168881
0.178536
0.187351
0.195642
0.202948
0.209154
0.21426
0.21861
0.222022
0.22459
0.226443
0.227724
0.228582
0.229135
0.229483
0.229696
0.229824
0.2299
0.229944
0.229969
0.229983
0.229991
0.229995
0.229997
0.229999
0.229999
0.23
0.23
0.23
0.23
0.23
0.23
0.23
0.23
0.23
0.23
4.33045e-08
1.65086e-07
3.44398e-07
6.14991e-07
1.02124e-06
1.62654e-06
2.52025e-06
3.82465e-06
5.70022e-06
8.34662e-06
1.20024e-05
1.69553e-05
2.35603e-05
3.22374e-05
4.34387e-05
5.75823e-05
7.51474e-05
9.64532e-05
0.000120679
0.000149145
0.00018086
0.000216072
0.000254497
0.000297015
0.00034081
0.000386639
0.000434083
0.000483685
0.000533173
0.000583799
0.000634519
0.000684588
0.000734541
0.000784059
0.00083336
0.000882531
0.000931984
0.00098278
0.00103637
0.00109497
0.00116245
0.00124272
0.00134094
0.00146903
0.00163974
0.0018748
0.00220302
0.00268481
0.00341691
0.00457344
0.00648522
0.00988387
0.0160417
0.0253629
0.0372187
0.0510536
0.0653929
0.0799606
0.0943562
0.10833
0.121732
0.134475
0.146503
0.157783
0.168516
0.178198
0.187044
0.19537
0.202712
0.208982
0.214116
0.218493
0.221935
0.224528
0.226401
0.227697
0.228564
0.229125
0.229477
0.229692
0.229822
0.229898
0.229943
0.229968
0.229983
0.22999
0.229995
0.229997
0.229999
0.229999
0.23
0.23
0.23
0.23
0.23
0.23
0.23
0.23
0.23
0.23
4.34442e-08
1.65618e-07
3.45507e-07
6.16969e-07
1.02452e-06
1.63174e-06
2.52824e-06
3.83664e-06
5.7178e-06
8.37188e-06
1.2038e-05
1.70044e-05
2.36263e-05
3.23238e-05
4.35516e-05
5.77188e-05
7.53055e-05
9.66329e-05
0.000120875
0.00014939
0.000181113
0.0002163
0.000254681
0.000297127
0.000340835
0.000386547
0.000433841
0.000483262
0.000532543
0.000582965