/*--------------------------------*- C++ -*----------------------------------*\
  =========                 |
  \\      /  F ield         | OpenFOAM: The Open Source CFD Toolbox
   \\    /   O peration     | Website:  https://openfoam.org
    \\  /    A nd           | Version:  10
     \\/     M anipulation  |
\*---------------------------------------------------------------------------*/
FoamFile
{
    format      ascii;
    class       volScalarField;
    location    "1";
    object      OH;
}
// * * * * * * * * * * * * * * * * * * * * * * * * * * * * * * * * * * * * * //

dimensions      [0 0 0 0 0 0 0];

internalField   nonuniform List<scalar> 
4000
(
8.81848e-19
5.81652e-18
2.08574e-17
6.14758e-17
1.62671e-16
4.0241e-16
9.50284e-16
2.16535e-15
4.78487e-15
1.02746e-14
2.14774e-14
4.38807e-14
8.81955e-14
1.75663e-13
3.48918e-13
6.92127e-13
1.37746e-12
2.73063e-12
5.21593e-12
9.86366e-12
1.74846e-11
2.93365e-11
4.67172e-11
7.00336e-11
1.04135e-10
1.63631e-10
2.8838e-10
5.75056e-10
1.2302e-09
2.71555e-09
5.94375e-09
1.26993e-08
2.64254e-08
5.34092e-08
1.0492e-07
2.00986e-07
3.7568e-07
6.87713e-07
1.23673e-06
2.19247e-06
3.86582e-06
6.75556e-06
1.16876e-05
2.00866e-05
3.46172e-05
5.93085e-05
0.000100674
0.000169639
0.000284546
0.000474676
0.000787057
0.00129511
0.00209623
0.002747
0.00293934
0.0027282
0.00228213
0.00176257
0.00127243
0.000863948
0.000551426
0.000331137
0.000186014
9.71861e-05
4.61334e-05
1.90866e-05
6.93114e-06
2.20597e-06
5.85283e-07
1.32042e-07
2.67204e-08
4.33542e-09
6.06504e-10
7.46631e-11
8.66338e-12
9.41792e-13
1.03383e-13
1.25136e-14
1.81576e-15
3.35832e-16
8.20648e-17
2.65582e-17
1.09165e-17
5.23678e-18
2.71689e-18
1.44611e-18
7.71718e-19
4.09246e-19
2.15251e-19
1.1234e-19
5.82781e-20
3.00649e-20
1.5431e-20
7.87555e-21
3.98832e-21
1.9937e-21
9.72268e-22
4.49973e-22
1.83016e-22
4.23044e-23
8.73465e-19
5.7608e-18
2.06569e-17
6.08903e-17
1.61138e-16
3.98593e-16
9.41114e-16
2.14364e-15
4.73357e-15
1.01533e-14
2.11908e-14
4.321e-14
8.66146e-14
1.72052e-13
3.40923e-13
6.74741e-13
1.33815e-12
2.6454e-12
5.05406e-12
9.59116e-12
1.7041e-11
2.86267e-11
4.57329e-11
6.88597e-11
1.0251e-10
1.60854e-10
2.8248e-10
5.63161e-10
1.20482e-09
2.66558e-09
5.85065e-09
1.25224e-08
2.61399e-08
5.30337e-08
1.04515e-07
2.00761e-07
3.76249e-07
6.90429e-07
1.24437e-06
2.21013e-06
3.90289e-06
6.82917e-06
1.18253e-05
2.03443e-05
3.50879e-05
6.01495e-05
0.000102117
0.00017211
0.000288778
0.000481795
0.000798849
0.0013142
0.00212594
0.00276213
0.00293636
0.00271272
0.00225674
0.00173666
0.00124911
0.000845015
0.000534777
0.000319333
0.000178373
9.25548e-05
4.34211e-05
1.78547e-05
6.41854e-06
2.01722e-06
5.2748e-07
1.17286e-07
2.34152e-08
3.75676e-09
5.22239e-10
6.36452e-11
7.38285e-12
8.04058e-13
8.87137e-14
1.08048e-14
1.57838e-15
2.94222e-16
7.27566e-17
2.39725e-17
1.00548e-17
4.93041e-18
2.59418e-18
1.39742e-18
7.53054e-19
4.02316e-19
2.12807e-19
1.11556e-19
5.8013e-20
2.99792e-20
1.54026e-20
7.86474e-21
3.98326e-21
1.99093e-21
9.70705e-22
4.49149e-22
1.82652e-22
4.22143e-23
8.65792e-19
5.71146e-18
2.04852e-17
6.03994e-17
1.59878e-16
3.95567e-16
9.33807e-16
2.12567e-15
4.6887e-15
1.004e-14
2.09022e-14
4.2471e-14
8.4881e-14
1.68113e-13
3.32122e-13
6.55617e-13
1.29869e-12
2.55903e-12
4.88111e-12
9.26839e-12
1.65105e-11
2.78814e-11
4.45719e-11
6.78317e-11
1.00917e-10
1.57935e-10
2.76044e-10
5.48909e-10
1.17374e-09
2.60313e-09
5.73299e-09
1.23177e-08
2.58241e-08
5.25952e-08
1.04121e-07
2.00789e-07
3.77686e-07
6.95463e-07
1.25729e-06
2.23989e-06
3.96367e-06
6.94762e-06
1.20499e-05
2.07685e-05
3.58646e-05
6.15406e-05
0.000104515
0.000176238
0.00029566
0.000493276
0.000817835
0.00134521
0.00216844
0.00278211
0.00292858
0.0026852
0.00221952
0.00169877
0.00121594
0.000819282
0.000512329
0.000304117
0.000168676
8.6659e-05
4.01229e-05
1.63306e-05
5.78538e-06
1.79057e-06
4.6077e-07
1.00941e-07
1.99143e-08
3.15341e-09
4.36599e-10
5.3296e-11
6.1865e-12
6.76516e-13
7.50735e-14
9.21091e-15
1.35638e-15
2.5392e-16
6.34226e-17
2.12898e-17
9.16238e-18
4.5996e-18
2.47037e-18
1.34984e-18
7.34429e-19
3.94871e-19
2.09809e-19
1.10336e-19
5.75431e-20
2.97851e-20
1.5319e-20
7.82697e-21
3.9653e-21
1.98206e-21
9.66298e-22
4.47048e-22
1.81775e-22
4.20087e-23
8.54739e-19
5.63852e-18
2.02205e-17
5.96018e-17
1.57695e-16
3.89909e-16
9.19779e-16
2.09201e-15
4.61012e-15
9.86139e-15
2.05082e-14
4.16315e-14
8.30657e-14
1.64173e-13
3.23582e-13
6.37307e-13
1.25995e-12
2.48476e-12
4.74213e-12
8.99406e-12
1.60527e-11
2.71895e-11
4.36226e-11
6.67068e-11
9.9432e-11
1.55337e-10
2.70343e-10
5.36404e-10
1.14687e-09
2.55044e-09
5.63577e-09
1.21512e-08
2.55801e-08
5.23031e-08
1.0402e-07
2.01413e-07
3.80335e-07
7.02845e-07
1.27504e-06
2.27718e-06
4.04069e-06
7.09956e-06
1.23356e-05
2.12881e-05
3.67995e-05
6.31883e-05
0.000107289
0.000180969
0.000303613
0.000506275
0.000838521
0.00138018
0.00221442
0.0028017
0.00291596
0.00264884
0.00217265
0.00165112
0.00117382
0.000785388
0.000487004
0.000286645
0.000157642
8.03418e-05
3.67245e-05
1.46875e-05
5.12782e-06
1.56124e-06
3.95241e-07
8.52645e-08
1.66258e-08
2.60744e-09
3.55347e-10
4.2915e-11
4.92843e-12
5.36364e-13
5.956e-14
7.34439e-15
1.09003e-15
2.08933e-16
5.36903e-17
1.85689e-17
8.25757e-18
4.26052e-18
2.33367e-18
1.29269e-18
7.1029e-19
3.84622e-19
2.05419e-19
1.08429e-19
5.66993e-20
2.94082e-20
1.51468e-20
7.74638e-21
3.92681e-21
1.96349e-21
9.57406e-22
4.42961e-22
1.80115e-22
4.16229e-23
8.43856e-19
5.56682e-18
1.99631e-17
5.88393e-17
1.55658e-16
3.84798e-16
9.07474e-16
2.06327e-15
4.54455e-15
9.71468e-15
2.01851e-14
4.09292e-14
8.15537e-14
1.60934e-13
3.16659e-13
6.22633e-13
1.22906e-12
2.42121e-12
4.61836e-12
8.76865e-12
1.56908e-11
2.66546e-11
4.28482e-11
6.57748e-11
9.81241e-11
1.52999e-10
2.65584e-10
5.26117e-10
1.12538e-09
2.5085e-09
5.56517e-09
1.20412e-08
2.54411e-08
5.21988e-08
1.04257e-07
2.02644e-07
3.84063e-07
7.12258e-07
1.29592e-06
2.32192e-06
4.1283e-06
7.26733e-06
1.26488e-05
2.18599e-05
3.78285e-05
6.50039e-05
0.000110344
0.000186149
0.000312377
0.000520813
0.000862427
0.00141537
0.00226031
0.00281926
0.00290105
0.00261208
0.00212766
0.00160643
0.00113512
0.000754835
0.000465344
0.000271979
0.000148254
7.46315e-05
3.36317e-05
1.32565e-05
4.5666e-06
1.37071e-06
3.41151e-07
7.24275e-08
1.39379e-08
2.14979e-09
2.90063e-10
3.48762e-11
3.98946e-12
4.34454e-13
4.84692e-14
6.02686e-15
9.04642e-16
1.74706e-16
4.56349e-17
1.63853e-17
7.54229e-18
3.99e-18
2.21819e-18
1.24172e-18
6.87449e-19
3.74258e-19
2.00674e-19
1.06235e-19
5.56773e-20
2.89239e-20
1.49139e-20
7.63323e-21
3.87155e-21
1.93657e-21
9.44495e-22
4.37048e-22
1.77724e-22
4.10715e-23
8.33003e-19
5.4949e-18
1.97038e-17
5.8069e-17
1.53599e-16
3.79641e-16
8.9512e-16
2.03464e-15
4.47999e-15
9.57229e-15
1.98769e-14
4.0273e-14
8.01755e-14
1.58065e-13
3.1071e-13
6.10434e-13
1.20429e-12
2.3723e-12
4.52742e-12
8.59544e-12
1.54074e-11
2.62328e-11
4.22109e-11
6.4993e-11
9.70525e-11
1.51289e-10
2.62049e-10
5.18533e-10
1.10948e-09
2.48017e-09
5.52084e-09
1.19826e-08
2.54006e-08
5.22867e-08
1.04806e-07
2.04435e-07
3.88791e-07
7.23192e-07
1.31956e-06
2.36916e-06
4.22152e-06
7.44612e-06
1.29723e-05
2.24433e-05
3.88734e-05
6.68453e-05
0.000113438
0.000191427
0.00032111
0.000535035
0.000884842
0.00144954
0.00230082
0.00283223
0.00288299
0.00257181
0.00207978
0.00155925
0.00109431
0.000723094
0.000443949
0.000257778
0.0001398
6.97613e-05
3.10935e-05
1.21096e-05
4.13921e-06
1.19614e-06
2.93763e-07
6.18301e-08
1.16537e-08
1.77866e-09
2.38036e-10
2.85416e-11
3.25541e-12
3.54992e-13
3.98153e-14
4.99676e-15
7.59696e-16
1.4932e-16
3.98916e-17
1.46513e-17
6.90916e-18
3.73082e-18
2.11304e-18
1.19576e-18
6.66487e-19
3.64414e-19
1.95976e-19
1.0397e-19
5.45783e-20
2.83828e-20
1.46407e-20
7.49711e-21
3.80429e-21
1.90365e-21
9.28703e-22
4.29824e-22
1.74807e-22
4.03997e-23
8.22763e-19
5.42691e-18
1.94586e-17
5.73421e-17
1.51663e-16
3.74815e-16
8.83628e-16
2.00821e-15
4.42089e-15
9.44313e-15
1.95999e-14
3.96887e-14
7.89589e-14
1.5555e-13
3.05526e-13
5.9982e-13
1.18265e-12
2.32911e-12
4.4456e-12
8.43722e-12
1.51514e-11
2.58752e-11
4.16799e-11
6.43403e-11
9.62669e-11
1.50068e-10
2.59626e-10
5.1354e-10
1.09952e-09
2.46344e-09
5.49862e-09
1.19656e-08
2.54363e-08
5.25071e-08
1.05552e-07
2.06486e-07
3.93812e-07
7.34347e-07
1.34284e-06
2.41624e-06
4.31449e-06
7.62025e-06
1.32869e-05
2.30046e-05
3.98597e-05
6.85377e-05
0.000116175
0.000195942
0.000330064
0.000549158
0.000907775
0.00148646
0.00234016
0.00284362
0.00286566
0.00253288
0.00203652
0.00151809
0.00105938
0.000694931
0.000428025
0.000246942
0.000132731
6.56724e-05
2.89896e-05
1.11787e-05
3.78307e-06
1.08001e-06
2.62395e-07
5.45779e-08
1.01678e-08
1.53874e-09
2.04531e-10
2.44509e-11
2.77963e-12
3.03247e-13
3.415e-14
4.31852e-15
6.63639e-16
1.32341e-16
3.60541e-17
1.3551e-17
6.51839e-18
3.56386e-18
2.02833e-18
1.15188e-18
6.43767e-19
3.52751e-19
1.90061e-19
1.01005e-19
5.31138e-20
2.76725e-20
1.43112e-20
7.34099e-21
3.7293e-21
1.8675e-21
9.11482e-22
4.2196e-22
1.71628e-22
3.96665e-23
8.13326e-19
5.36413e-18
1.92321e-17
5.66708e-17
1.49877e-16
3.70375e-16
8.73092e-16
1.98409e-15
4.36728e-15
9.32679e-15
1.93524e-14
3.9171e-14
7.78908e-14
1.53363e-13
3.01053e-13
5.90735e-13
1.16428e-12
2.2927e-12
4.37719e-12
8.30331e-12
1.49444e-11
2.55666e-11
4.12682e-11
6.38864e-11
9.57271e-11
1.49227e-10
2.57999e-10
5.10288e-10
1.09377e-09
2.45562e-09
5.49396e-09
1.19834e-08
2.55366e-08
5.28428e-08
1.06491e-07
2.0887e-07
3.99245e-07
7.46014e-07
1.36655e-06
2.46265e-06
4.40133e-06
7.78132e-06
1.35774e-05
2.35273e-05
4.07952e-05
7.01873e-05
0.000118987
0.000200665
0.000337421
0.000560922
0.000925805
0.00152453
0.0023754
0.00285324
0.00285085
0.00249904
0.00199934
0.00148281
0.00102935
0.000671847
0.000412056
0.000236364
0.000126454
6.20699e-05
2.70976e-05
1.03542e-05
3.47471e-06
9.74267e-07
2.34406e-07
4.83662e-08
8.92743e-09
1.34365e-09
1.77416e-10
2.11426e-11
2.39471e-12
2.61249e-13
2.95242e-14
3.75995e-15
5.83703e-16
1.18045e-16
3.27817e-17
1.25988e-17
6.17621e-18
3.41927e-18
1.96057e-18
1.11846e-18
6.26415e-19
3.4393e-19
1.85575e-19
9.87246e-20
5.19576e-20
2.70808e-20
1.40027e-20
7.18344e-21
3.65015e-21
1.82843e-21
8.92697e-22
4.13386e-22
1.6818e-22
3.88756e-23
8.04889e-19
5.30796e-18
1.90295e-17
5.60713e-17
1.48285e-16
3.66428e-16
8.63762e-16
1.96283e-15
4.32025e-15
9.22535e-15
1.9138e-14
3.87256e-14
7.69786e-14
1.5151e-13
2.97301e-13
5.83207e-13
1.14929e-12
2.26363e-12
4.32451e-12
8.19886e-12
1.47734e-11
2.53298e-11
4.09566e-11
6.35278e-11
9.53216e-11
1.48691e-10
2.57065e-10
5.08648e-10
1.09132e-09
2.45443e-09
5.50308e-09
1.20288e-08
2.56879e-08
5.32713e-08
1.07605e-07
2.11502e-07
4.05113e-07
7.58425e-07
1.3918e-06
2.51287e-06
4.49834e-06
7.96194e-06
1.39016e-05
2.41053e-05
4.18155e-05
7.19414e-05
0.000121958
0.000205684
0.000345375
0.000574144
0.000947105
0.00155579
0.00240327
0.00285882
0.00283471
0.0024698
0.00196547
0.00145074
0.00100284
0.00065182
0.000398124
0.000227526
0.000121137
5.90168e-05
2.54819e-05
9.6179e-06
3.19114e-06
8.84429e-07
2.10389e-07
4.28653e-08
7.79536e-09
1.16293e-09
1.52502e-10
1.81364e-11
2.04899e-12
2.23781e-13
2.54041e-14
3.26105e-15
5.1197e-16
1.05165e-16
2.9834e-17
1.17442e-17
5.87053e-18
3.29054e-18
1.9003e-18
1.08874e-18
6.11349e-19
3.36247e-19
1.81658e-19
9.6733e-20
5.09503e-20
2.65699e-20
1.37437e-20
7.05236e-21
3.58416e-21
1.79557e-21
8.76713e-22
4.05996e-22
1.65175e-22
3.81803e-23
7.97503e-19
5.25876e-18
1.88521e-17
5.55467e-17
1.46895e-16
3.62987e-16
8.5565e-16
1.94441e-15
4.2797e-15
9.13831e-15
1.8955e-14
3.83473e-14
7.62061e-14
1.4994e-13
2.94106e-13
5.76732e-13
1.13615e-12
2.23756e-12
4.27509e-12
8.10201e-12
1.46261e-11
2.51178e-11
4.07011e-11
6.32763e-11
9.50686e-11
1.48383e-10
2.56589e-10
5.0803e-10
1.09112e-09
2.45784e-09
5.52129e-09
1.20909e-08
2.58688e-08
5.3752e-08
1.08773e-07
2.14204e-07
4.11051e-07
7.70849e-07
1.41706e-06
2.56195e-06
4.59253e-06
8.13851e-06
1.42222e-05
2.46856e-05
4.28513e-05
7.37828e-05
0.000125188
0.000211234
0.000354319
0.000589598
0.000973628
0.00159024
0.00243144
0.00286542
0.00282255
0.00244521
0.00193814
0.00142566
0.000982217
0.000636176
0.000386858
0.000220078
0.000116717
5.67542e-05
2.39219e-05
8.97463e-06
2.95609e-06
8.12698e-07
1.91599e-07
3.88392e-08
6.99532e-09
1.03617e-09
1.35078e-10
1.6034e-11
1.80721e-12
1.97529e-13
2.25071e-14
2.90855e-15
4.60967e-16
9.59448e-17
2.77088e-17
1.11222e-17
5.6442e-18
3.19259e-18
1.85294e-18
1.06467e-18
5.98848e-19
3.29747e-19
1.78297e-19
9.50055e-20
5.0066e-20
2.61195e-20
1.35152e-20
6.93691e-21
3.52616e-21
1.76674e-21
8.62699e-22
3.99519e-22
1.6254e-22
3.75712e-23
7.91156e-19
5.21647e-18
1.86997e-17
5.50964e-17
1.45703e-16
3.60043e-16
8.48727e-16
1.92874e-15
4.24537e-15
9.06519e-15
1.88028e-14
3.80367e-14
7.55806e-14
1.48689e-13
2.91563e-13
5.71713e-13
1.12636e-12
2.21878e-12
4.23983e-12
8.03117e-12
1.4516e-11
2.49619e-11
4.05138e-11
6.30844e-11
9.49014e-11
1.48232e-10
2.56448e-10
5.08124e-10
1.09249e-09
2.46413e-09
5.54452e-09
1.21608e-08
2.60589e-08
5.42239e-08
1.09893e-07
2.16735e-07
4.16492e-07
7.82142e-07
1.43985e-06
2.60639e-06
4.67775e-06
8.2984e-06
1.45135e-05
2.52167e-05
4.38011e-05
7.54573e-05
0.000128031
0.00021606
0.000362196
0.000602796
0.000995251
0.00162495
0.00245725
0.00287103
0.00281077
0.00242452
0.00191451
0.00140332
0.000963622
0.000622107
0.000377155
0.000213826
0.000112905
5.45584e-05
2.28529e-05
8.49964e-06
2.77942e-06
7.57415e-07
1.77087e-07
3.57708e-08
6.39849e-09
9.42277e-10
1.22222e-10
1.4488e-11
1.62991e-12
1.78291e-13
2.03824e-14
2.64983e-15
4.23443e-16
8.91705e-17
2.61489e-17
1.06638e-17
5.47501e-18
3.1175e-18
1.81556e-18
1.04511e-18
5.88459e-19
3.24252e-19
1.75419e-19
9.35174e-20
4.9282e-20
2.57196e-20
1.33122e-20
6.83437e-21
3.47468e-21
1.74118e-21
8.50293e-22
3.93793e-22
1.60214e-22
3.70337e-23
7.85785e-19
5.18067e-18
1.85707e-17
5.47158e-17
1.44697e-16
3.57564e-16
8.42911e-16
1.91562e-15
4.21676e-15
9.00454e-15
1.86774e-14
3.77824e-14
7.50721e-14
1.47677e-13
2.89505e-13
5.67679e-13
1.11833e-12
2.20273e-12
4.20968e-12
7.97336e-12
1.44244e-11
2.48397e-11
4.03735e-11
6.29545e-11
9.48032e-11
1.48185e-10
2.56503e-10
5.08614e-10
1.09462e-09
2.4717e-09
5.56924e-09
1.22305e-08
2.62402e-08
5.46721e-08
1.10934e-07
2.1904e-07
4.21366e-07
7.92173e-07
1.45941e-06
2.64361e-06
4.74711e-06
8.42373e-06
1.47312e-05
2.57573e-05
4.46921e-05
7.69736e-05
0.000130586
0.000220326
0.00036929
0.000614508
0.00101433
0.00165508
0.0024789
0.00287577
0.00280119
0.00240639
0.00189399
0.00138426
0.00094787
0.000610211
0.00036885
0.000208387
0.000109631
5.26948e-05
2.1982e-05
8.12898e-06
2.64289e-06
7.15412e-07
1.66065e-07
3.35365e-08
5.96449e-09
8.76079e-10
1.1317e-10
1.33959e-11
1.50417e-12
1.64596e-13
1.8864e-14
2.46427e-15
3.9652e-16
8.42977e-17
2.50204e-17
1.03276e-17
5.34771e-18
3.05916e-18
1.7856e-18
1.02902e-18
5.7975e-19
3.1958e-19
1.72946e-19
9.22269e-20
4.86051e-20
2.53723e-20
1.31352e-20
6.74466e-21
3.42955e-21
1.71875e-21
8.39401e-22
3.88765e-22
1.58171e-22
3.65619e-23
7.81296e-19
5.15075e-18
1.8463e-17
5.4398e-17
1.43858e-16
3.55499e-16
8.38078e-16
1.90475e-15
4.1931e-15
8.95459e-15
1.85746e-14
3.75756e-14
7.46633e-14
1.46878e-13
2.87912e-13
5.64569e-13
1.11207e-12
2.19057e-12
4.18744e-12
7.92923e-12
1.43568e-11
2.47487e-11
4.02673e-11
6.28614e-11
9.47519e-11
1.48213e-10
2.5671e-10
5.09428e-10
1.09738e-09
2.48039e-09
5.59552e-09
1.23021e-08
2.64231e-08
5.51129e-08
1.11947e-07
2.21262e-07
4.26107e-07
8.01763e-07
1.47832e-06
2.68003e-06
4.81624e-06
8.55236e-06
1.49669e-05
2.61906e-05
4.54553e-05
7.83038e-05
0.000132866
0.000224204
0.00037578
0.000625177
0.00103154
0.0016951
0.00250412
0.00288219
0.0027935
0.00239056
0.00187612
0.00136795
0.00093456
0.000600278
0.000361894
0.000203954
0.000106965
5.11768e-05
2.12789e-05
7.83191e-06
2.53194e-06
6.81622e-07
1.57233e-07
3.17609e-08
5.61155e-09
8.20406e-10
1.05628e-10
1.24904e-11
1.4005e-12
1.53342e-13
1.76177e-14
2.31179e-15
3.7436e-16
8.02824e-17
2.40937e-17
1.00531e-17
5.24386e-18
3.01117e-18
1.76066e-18
1.01548e-18
5.72351e-19
3.15582e-19
1.70817e-19
9.11099e-20
4.80242e-20
2.5073e-20
1.29821e-20
6.66689e-21
3.39037e-21
1.69925e-21
8.29924e-22
3.84389e-22
1.56392e-22
3.61509e-23
7.77591e-19
5.12605e-18
1.8374e-17
5.41357e-17
1.43165e-16
3.53794e-16
8.34086e-16
1.89576e-15
4.17351e-15
8.91311e-15
1.84888e-14
3.74016e-14
7.43156e-14
1.46188e-13
2.86511e-13
5.61736e-13
1.10659e-12
2.18025e-12
4.1693e-12
7.89384e-12
1.43049e-11
2.46785e-11
4.019e-11
6.28016e-11
9.47388e-11
1.48291e-10
2.56998e-10
5.10377e-10
1.10032e-09
2.48908e-09
5.62041e-09
1.23673e-08
2.65916e-08
5.55158e-08
1.12876e-07
2.2331e-07
4.30434e-07
8.10597e-07
1.49586e-06
2.71409e-06
4.88166e-06
8.67612e-06
1.51962e-05
2.66101e-05
4.62064e-05
7.9632e-05
0.000135168
0.000228171
0.000382567
0.000636816
0.00105151
0.00172252
0.00252257
0.00288643
0.00278667
0.00237805
0.00186215
0.00135506
0.000924068
0.000592355
0.000356384
0.000200386
0.000104803
4.99453e-05
2.07092e-05
7.58989e-06
2.44334e-06
6.54859e-07
1.50338e-07
3.03734e-08
5.34242e-09
7.78614e-10
9.99697e-11
1.18103e-11
1.32256e-12
1.4487e-13
1.66784e-14
2.19686e-15
3.57671e-16
7.7254e-17
2.33892e-17
9.8406e-18
5.16127e-18
2.97199e-18
1.73991e-18
1.00408e-18
5.66079e-19
3.12178e-19
1.68999e-19
9.01536e-20
4.75263e-20
2.48161e-20
1.28506e-20
6.60002e-21
3.35665e-21
1.68247e-21
8.21766e-22
3.80621e-22
1.54861e-22
3.57971e-23
7.74589e-19
5.10605e-18
1.8302e-17
5.39233e-17
1.42605e-16
3.52416e-16
8.3086e-16
1.8885e-15
4.1577e-15
8.87961e-15
1.84195e-14
3.7261e-14
7.40345e-14
1.4563e-13
2.8538e-13
5.59611e-13
1.10256e-12
2.17261e-12
4.15537e-12
7.86619e-12
1.42623e-11
2.46233e-11
4.01315e-11
6.27639e-11
9.47493e-11
1.484e-10
2.57344e-10
5.11437e-10
1.10347e-09
2.4982e-09
5.64588e-09
1.24335e-08
2.67486e-08
5.58824e-08
1.13694e-07
2.25081e-07
4.34143e-07
8.18156e-07
1.51087e-06
2.74317e-06
4.93717e-06
8.77869e-06
1.5382e-05
2.6947e-05
4.68106e-05
8.07049e-05
0.000137038
0.000231416
0.00038816
0.000646378
0.00106774
0.00174324
0.00253616
0.00288906
0.00278068
0.00236733
0.00185015
0.00134408
0.000915103
0.000585729
0.000351779
0.00019739
0.000103009
4.89352e-05
2.0246e-05
7.39549e-06
2.37295e-06
6.33597e-07
1.44899e-07
2.92743e-08
5.13175e-09
7.45962e-10
9.55534e-11
1.128e-11
1.26186e-12
1.38273e-13
1.59463e-14
2.10706e-15
3.44586e-16
7.48748e-17
2.28349e-17
9.67218e-18
5.09483e-18
2.93995e-18
1.72273e-18
9.94565e-19
5.6082e-19
3.09315e-19
1.67466e-19
8.93459e-20
4.71053e-20
2.45987e-20
1.27392e-20
6.54336e-21
3.32808e-21
1.66824e-21
8.14851e-22
3.77427e-22
1.53564e-22
3.54973e-23
7.72223e-19
5.09027e-18
1.82452e-17
5.3756e-17
1.42164e-16
3.51333e-16
8.28331e-16
1.88282e-15
4.14535e-15
8.85352e-15
1.83657e-14
3.71527e-14
7.38209e-14
1.45215e-13
2.84546e-13
5.58e-13
1.09938e-12
2.16651e-12
4.1443e-12
7.84475e-12
1.42319e-11
2.45845e-11
4.00929e-11
6.27434e-11
9.47724e-11
1.48514e-10
2.57683e-10
5.12437e-10
1.10635e-09
2.50629e-09
5.66807e-09
1.24903e-08
2.68863e-08
5.62022e-08
1.14413e-07
2.26642e-07
4.37395e-07
8.24705e-07
1.52369e-06
2.76767e-06
4.98327e-06
8.86381e-06
1.55358e-05
2.7222e-05
4.7295e-05
8.1545e-05
0.000138458
0.00023378
0.00039205
0.000652628
0.00107743
0.00175707
0.0025453
0.00289052
0.00277571
0.00235884
0.00184062
0.00133523
0.000907873
0.000580296
0.000348005
0.000194977
0.000101563
4.8119e-05
1.98741e-05
7.23985e-06
2.31642e-06
6.16766e-07
1.40581e-07
2.84128e-08
4.9654e-09
7.20337e-10
9.21073e-11
1.08666e-11
1.21446e-12
1.33107e-13
1.537e-14
2.0359e-15
3.34154e-16
7.2969e-17
2.23889e-17
9.53635e-18
5.04121e-18
2.91405e-18
1.70879e-18
9.86812e-19
5.56517e-19
3.06964e-19
1.66204e-19
8.86795e-20
4.67575e-20
2.4419e-20
1.26471e-20
6.49649e-21
3.30443e-21
1.65647e-21
8.09128e-22
3.74785e-22
1.5249e-22
3.52492e-23
7.70428e-19
5.07831e-18
1.82022e-17
5.36294e-17
1.41831e-16
3.50517e-16
8.26431e-16
1.87858e-15
4.13622e-15
8.83444e-15
1.83269e-14
3.70751e-14
7.36682e-14
1.44911e-13
2.83919e-13
5.56756e-13
1.09693e-12
2.16187e-12
4.13605e-12
7.8285e-12
1.42079e-11
2.45545e-11
4.00644e-11
6.27324e-11
9.48001e-11
1.48624e-10
2.5799e-10
5.13311e-10
1.10882e-09
2.51308e-09
5.68624e-09
1.25358e-08
2.69959e-08
5.64568e-08
1.14982e-07
2.27857e-07
4.39911e-07
8.29755e-07
1.53356e-06
2.78649e-06
5.0187e-06
8.92903e-06
1.56539e-05
2.74358e-05
4.76749e-05
8.22115e-05
0.000139604
0.000235743
0.000395385
0.000658292
0.00108713
0.00177385
0.00255529
0.00289254
0.00277199
0.00235274
0.00183375
0.00132881
0.00090256
0.000576272
0.000345189
0.000193167
0.000100476
4.75014e-05
1.95933e-05
7.12223e-06
2.27375e-06
6.03949e-07
1.37284e-07
2.77474e-08
4.83664e-09
7.00473e-10
8.94296e-11
1.05458e-11
1.17785e-12
1.29132e-13
1.49287e-14
1.98167e-15
3.26233e-16
7.15228e-17
2.205e-17
9.43263e-18
4.99992e-18
2.89392e-18
1.69788e-18
9.80709e-19
5.53115e-19
3.051e-19
1.65201e-19
8.81497e-20
4.64807e-20
2.42759e-20
1.25737e-20
6.45917e-21
3.2856e-21
1.64709e-21
8.04572e-22
3.72681e-22
1.51635e-22
3.50516e-23
7.69152e-19
5.06982e-18
1.81717e-17
5.35401e-17
1.41597e-16
3.49947e-16
8.25112e-16
1.87564e-15
4.12988e-15
8.82101e-15
1.82989e-14
3.70176e-14
7.35513e-14
1.4468e-13
2.83454e-13
5.5588e-13
1.09526e-12
2.15873e-12
4.13045e-12
7.81749e-12
1.4192e-11
2.45349e-11
4.00465e-11
6.27276e-11
9.48243e-11
1.48709e-10
2.58223e-10
5.13969e-10
1.11065e-09
2.51814e-09
5.69972e-09
1.25698e-08
2.70775e-08
5.66438e-08
1.15398e-07
2.28744e-07
4.41745e-07
8.33432e-07
1.54073e-06
2.80017e-06
5.04442e-06
8.97633e-06
1.57389e-05
2.7588e-05
4.7944e-05
8.26807e-05
0.000140402
0.00023708
0.000397585
0.000661827
0.00109257
0.00178148
0.00256004
0.0028923
0.00276662
0.00235113
0.0018299
0.00132464
0.000898913
0.000573453
0.000343191
0.000191859
9.96815e-05
4.70492e-05
1.93871e-05
7.03609e-06
2.24203e-06
5.9449e-07
1.34882e-07
2.72651e-08
4.74427e-09
6.86236e-10
8.75165e-11
1.03165e-11
1.15167e-12
1.26285e-13
1.46115e-14
1.94252e-15
3.20487e-16
7.04717e-17
2.1804e-17
9.35762e-18
4.97015e-18
2.87941e-18
1.69e-18
9.76286e-19
5.5064e-19
3.03737e-19
1.64465e-19
8.77585e-20
4.62755e-20
2.41695e-20
1.2519e-20
6.43132e-21
3.27155e-21
1.64009e-21
8.01169e-22
3.71109e-22
1.50997e-22
3.49042e-23
7.68333e-19
5.06436e-18
1.81521e-17
5.34823e-17
1.41444e-16
3.49571e-16
8.2423e-16
1.87364e-15
4.12548e-15
8.81166e-15
1.82795e-14
3.69788e-14
7.34755e-14
1.44534e-13
2.83158e-13
5.55314e-13
1.09418e-12
2.15673e-12
4.12698e-12
7.8107e-12
1.41823e-11
2.45231e-11
4.00361e-11
6.27261e-11
9.48421e-11
1.48767e-10
2.5838e-10
5.14406e-10
1.11186e-09
2.5214e-09
5.70841e-09
1.25916e-08
2.71295e-08
5.67633e-08
1.15662e-07
2.29308e-07
4.42912e-07
8.35772e-07
1.5453e-06
2.80892e-06
5.061e-06
9.00711e-06
1.57951e-05
2.769e-05
4.81269e-05
8.30056e-05
0.000140968
0.000238062
0.000399275
0.000664712
0.00109744
0.00178948
0.00256514
0.00289361
0.00276517
0.00234867
0.00182703
0.00132184
0.000896522
0.000571602
0.000341873
0.000190998
9.91592e-05
4.67532e-05
1.92524e-05
6.97956e-06
2.22154e-06
5.88369e-07
1.33324e-07
2.6953e-08
4.6843e-09
6.7701e-10
8.62763e-11
1.0168e-11
1.13469e-12
1.24437e-13
1.4406e-14
1.91722e-15
3.16784e-16
6.9797e-17
2.1647e-17
9.30997e-18
4.95123e-18
2.87017e-18
1.68496e-18
9.73458e-19
5.49059e-19
3.02869e-19
1.63997e-19
8.75102e-20
4.61452e-20
2.41017e-20
1.2484e-20
6.41334e-21
3.26241e-21
1.63552e-21
7.98936e-22
3.70075e-22
1.50576e-22
3.48068e-23
7.67922e-19
5.06162e-18
1.81422e-17
5.34532e-17
1.41367e-16
3.49383e-16
8.23791e-16
1.87266e-15
4.12337e-15
8.80721e-15
1.82704e-14
3.69604e-14
7.34393e-14
1.44463e-13
2.83017e-13
5.55045e-13
1.09367e-12
2.15579e-12
4.12532e-12
7.80742e-12
1.41776e-11
2.45175e-11
4.00313e-11
6.27258e-11
9.48513e-11
1.48795e-10
2.58452e-10
5.14601e-10
1.11239e-09
2.52284e-09
5.7122e-09
1.26009e-08
2.71517e-08
5.68146e-08
1.15774e-07
2.29545e-07
4.43397e-07
8.36733e-07
1.54716e-06
2.81243e-06
5.06756e-06
9.01918e-06
1.58169e-05
2.77296e-05
4.8199e-05
8.31375e-05
0.00014121
0.000238517
0.000400161
0.00066651
0.00110127
0.00179816
0.00257051
0.00289592
0.00276603
0.00234673
0.00182542
0.00132034
0.000895231
0.000570602
0.000341163
0.000190536
9.88804e-05
4.65962e-05
1.91816e-05
6.95025e-06
2.21098e-06
5.85239e-07
1.32533e-07
2.67937e-08
4.65393e-09
6.72358e-10
8.56537e-11
1.00937e-11
1.12622e-12
1.23517e-13
1.43035e-14
1.90458e-15
3.14939e-16
6.94621e-17
2.15691e-17
9.28615e-18
4.94162e-18
2.86537e-18
1.68231e-18
9.71956e-19
5.48215e-19
3.02405e-19
1.63747e-19
8.7378e-20
4.60763e-20
2.40661e-20
1.24658e-20
6.40414e-21
3.25779e-21
1.63322e-21
7.97818e-22
3.69559e-22
1.50366e-22
3.47582e-23
7.67915e-19
5.06158e-18
1.81421e-17
5.34527e-17
1.41366e-16
3.49379e-16
8.23783e-16
1.87264e-15
4.12333e-15
8.80714e-15
1.82703e-14
3.69602e-14
7.34391e-14
1.44463e-13
2.83017e-13
5.55046e-13
1.09367e-12
2.15579e-12
4.12533e-12
7.80744e-12
1.41777e-11
2.45176e-11
4.00314e-11
6.27257e-11
9.48503e-11
1.48791e-10
2.58437e-10
5.14555e-10
1.11226e-09
2.52252e-09
5.71132e-09
1.25987e-08
2.71463e-08
5.68017e-08
1.15744e-07
2.29477e-07
4.43246e-07
8.36405e-07
1.54646e-06
2.81094e-06
5.06439e-06
9.01246e-06
1.58028e-05
2.76997e-05
4.81353e-05
8.30007e-05
0.000140918
0.000237884
0.000398776
0.000663439
0.00109436
0.0017964
0.00256913
0.00289619
0.00276772
0.00234381
0.00182343
0.00131914
0.000894561
0.000570246
0.000340984
0.000190451
9.88425e-05
4.65799e-05
1.91753e-05
6.948e-06
2.21027e-06
5.8505e-07
1.32491e-07
2.67846e-08
4.65229e-09
6.72118e-10
8.56226e-11
1.009e-11
1.12581e-12
1.23472e-13
1.42986e-14
1.90401e-15
3.14863e-16
6.94508e-17
2.15674e-17
9.2859e-18
4.94158e-18
2.86534e-18
1.68228e-18
9.71926e-19
5.48194e-19
3.02391e-19
1.63739e-19
8.73737e-20
4.60741e-20
2.40651e-20
1.24653e-20
6.40391e-21
3.25768e-21
1.63317e-21
7.97799e-22
3.69551e-22
1.50363e-22
3.47575e-23
7.68314e-19
5.06424e-18
1.81516e-17
5.34807e-17
1.4144e-16
3.49559e-16
8.242e-16
1.87358e-15
4.12535e-15
8.8114e-15
1.82791e-14
3.6978e-14
7.34743e-14
1.44532e-13
2.83156e-13
5.55313e-13
1.09419e-12
2.15675e-12
4.12702e-12
7.81074e-12
1.41824e-11
2.45233e-11
4.00364e-11
6.2726e-11
9.48396e-11
1.48756e-10
2.58341e-10
5.14285e-10
1.11152e-09
2.52047e-09
5.70594e-09
1.25853e-08
2.71143e-08
5.67278e-08
1.15581e-07
2.29126e-07
4.42515e-07
8.3493e-07
1.54356e-06
2.80538e-06
5.0539e-06
8.99322e-06
1.57684e-05
2.76391e-05
4.80318e-05
8.28311e-05
0.000140658
0.000237527
0.00039839
0.000663335
0.00109553
0.00178751
0.00256454
0.00289488
0.00276838
0.00234503
0.00182483
0.00132047
0.000895679
0.000571101
0.00034159
0.000190846
9.90828e-05
4.67175e-05
1.9238e-05
6.97433e-06
2.21984e-06
5.87909e-07
1.33221e-07
2.69306e-08
4.68032e-09
6.7642e-10
8.61996e-11
1.01592e-11
1.13372e-12
1.24332e-13
1.43943e-14
1.91579e-15
3.16588e-16
6.97662e-17
2.16415e-17
9.30876e-18
4.9508e-18
2.8699e-18
1.68477e-18
9.7333e-19
5.48978e-19
3.02822e-19
1.63971e-19
8.74965e-20
4.61384e-20
2.40984e-20
1.24825e-20
6.41268e-21
3.26213e-21
1.63539e-21
7.98883e-22
3.70053e-22
1.50567e-22
3.48049e-23
7.69144e-19
5.06977e-18
1.81715e-17
5.35392e-17
1.41593e-16
3.49936e-16
8.25078e-16
1.87554e-15
4.12961e-15
8.82038e-15
1.82976e-14
3.70153e-14
7.35483e-14
1.44677e-13
2.83452e-13
5.55884e-13
1.09528e-12
2.15878e-12
4.13057e-12
7.81771e-12
1.41924e-11
2.45356e-11
4.00472e-11
6.27277e-11
9.48212e-11
1.48694e-10
2.58174e-10
5.13817e-10
1.11022e-09
2.51693e-09
5.69651e-09
1.25617e-08
2.70579e-08
5.65981e-08
1.15293e-07
2.28512e-07
4.41244e-07
8.32377e-07
1.53856e-06
2.79581e-06
5.03578e-06
8.95952e-06
1.57069e-05
2.75269e-05
4.78294e-05
8.24686e-05
0.000140018
0.000236397
0.000396383
0.000659741
0.00108902
0.00178253
0.00256098
0.00289425
0.00277017
0.00234811
0.00182824
0.0013236
0.000898233
0.00057301
0.000342916
0.000191703
9.95975e-05
4.70082e-05
1.937e-05
7.02961e-06
2.23985e-06
5.93898e-07
1.34742e-07
2.72356e-08
4.73885e-09
6.85439e-10
8.7419e-11
1.03053e-11
1.15037e-12
1.26144e-13
1.45959e-14
1.94062e-15
3.2022e-16
7.04288e-17
2.17964e-17
9.3562e-18
4.96985e-18
2.87933e-18
1.68996e-18
9.76257e-19
5.50619e-19
3.03724e-19
1.64457e-19
8.77541e-20
4.62732e-20
2.41682e-20
1.25183e-20
6.43093e-21
3.27135e-21
1.63999e-21
8.01118e-22
3.71086e-22
1.50987e-22
3.49019e-23
7.70435e-19
5.07837e-18
1.82024e-17
5.36302e-17
1.41833e-16
3.50523e-16
8.26445e-16
1.8786e-15
4.13624e-15
8.83436e-15
1.83264e-14
3.70734e-14
7.36631e-14
1.44902e-13
2.83906e-13
5.56754e-13
1.09696e-12
2.16196e-12
4.1362e-12
7.82877e-12
1.42084e-11
2.45553e-11
4.00653e-11
6.27328e-11
9.47973e-11
1.4861e-10
2.57941e-10
5.13157e-10
1.10837e-09
2.51184e-09
5.68294e-09
1.25277e-08
2.6976e-08
5.64098e-08
1.14875e-07
2.27617e-07
4.39395e-07
8.28674e-07
1.53134e-06
2.78205e-06
5.00987e-06
8.91177e-06
1.56209e-05
2.73718e-05
4.75529e-05
8.19796e-05
0.000139167
0.000234911
0.000393792
0.000655204
0.00108098
0.00177522
0.0025558
0.00289321
0.00277263
0.00235287
0.0018336
0.00132852
0.000902247
0.000576012
0.000345005
0.000193043
0.000100404
4.74621e-05
1.95755e-05
7.11557e-06
2.27155e-06
6.03346e-07
1.37162e-07
2.77217e-08
4.83259e-09
6.9995e-10
8.93574e-11
1.05363e-11
1.17672e-12
1.29003e-13
1.49132e-14
1.97957e-15
3.25898e-16
7.14617e-17
2.20371e-17
9.42944e-18
4.99906e-18
2.8937e-18
1.69784e-18
9.80701e-19
5.5311e-19
3.05093e-19
1.65195e-19
8.81451e-20
4.64777e-20
2.42741e-20
1.25727e-20
6.45863e-21
3.28533e-21
1.64695e-21
8.04506e-22
3.7265e-22
1.51623e-22
3.50489e-23
7.72232e-19
5.09034e-18
1.82455e-17
5.3757e-17
1.42167e-16
3.51342e-16
8.28354e-16
1.88288e-15
4.14552e-15
8.85394e-15
1.83667e-14
3.71546e-14
7.38239e-14
1.45217e-13
2.84542e-13
5.57978e-13
1.09934e-12
2.16646e-12
4.14429e-12
7.84479e-12
1.42322e-11
2.45852e-11
4.00939e-11
6.27444e-11
9.47717e-11
1.48507e-10
2.57652e-10
5.12336e-10
1.10605e-09
2.50539e-09
5.66558e-09
1.24837e-08
2.68694e-08
5.61622e-08
1.14322e-07
2.26436e-07
4.36957e-07
8.23804e-07
1.52189e-06
2.76419e-06
4.97669e-06
8.85177e-06
1.55143e-05
2.71843e-05
4.72303e-05
8.14373e-05
0.000138289
0.00023354
0.000391762
0.000652452
0.00107799
0.00176039
0.0025465
0.0028899
0.00277302
0.00236192
0.00184192
0.00133569
0.000907929
0.000580199
0.000347872
0.000194871
0.000101496
4.80803e-05
1.98568e-05
7.23239e-06
2.3132e-06
6.1582e-07
1.40333e-07
2.83595e-08
4.95471e-09
7.18667e-10
9.18863e-11
1.08404e-11
1.21152e-12
1.32787e-13
1.53336e-14
2.03119e-15
3.33424e-16
7.28309e-17
2.23566e-17
9.52702e-18
5.03808e-18