/*--------------------------------*- C++ -*----------------------------------*\
  =========                 |
  \\      /  F ield         | OpenFOAM: The Open Source CFD Toolbox
   \\    /   O peration     | Website:  https://openfoam.org
    \\  /    A nd           | Version:  10
     \\/     M anipulation  |
\*---------------------------------------------------------------------------*/
FoamFile
{
    format      ascii;
    class       volScalarField;
    location    "1";
    object      OH*;
}
// * * * * * * * * * * * * * * * * * * * * * * * * * * * * * * * * * * * * * //

dimensions      [0 0 0 0 0 0 0];

internalField   nonuniform List<scalar> 
4000
(
5.84833e-36
4.1721e-35
1.60669e-34
5.0983e-34
1.46865e-33
4.02481e-33
1.07945e-32
2.89724e-32
7.97525e-32
2.32788e-31
7.52459e-31
2.79931e-30
1.20445e-29
5.78338e-29
2.94282e-28
1.65199e-27
8.92456e-27
4.57468e-26
2.14417e-25
9.78848e-25
4.06886e-24
1.59731e-23
6.00478e-23
2.07616e-22
6.79946e-22
2.10966e-21
6.23923e-21
1.76776e-20
4.74418e-20
1.23038e-19
3.06631e-19
7.36323e-19
1.71479e-18
3.8728e-18
8.50254e-18
1.82083e-17
3.80426e-17
7.7786e-17
1.55033e-16
3.02305e-16
5.81009e-16
1.0938e-15
2.01276e-15
3.63316e-15
6.50013e-15
1.14225e-14
1.96468e-14
3.31097e-14
5.46671e-14
8.78546e-14
1.35989e-13
1.98849e-13
2.66685e-13
3.27792e-13
2.86583e-13
1.97239e-13
1.17515e-13
6.39747e-14
3.25769e-14
1.57079e-14
7.17888e-15
3.12375e-15
1.28647e-15
4.98759e-16
1.81153e-16
6.03808e-17
1.85978e-17
5.23412e-18
1.27403e-18
2.71322e-19
5.24632e-20
8.46421e-21
1.18511e-21
1.45821e-22
1.59821e-23
1.60287e-24
1.50232e-25
1.34335e-26
1.16377e-27
9.86731e-29
8.25687e-30
6.83806e-31
5.62875e-32
4.60895e-33
3.76492e-34
3.06697e-35
2.49368e-36
2.02349e-37
1.63949e-38
1.32536e-39
1.07152e-40
8.65518e-42
6.9865e-43
5.63651e-44
4.54548e-45
3.6645e-46
2.95363e-47
2.3806e-48
1.92191e-49
1.31738e-50
5.74398e-36
4.09699e-35
1.57724e-34
5.0028e-34
1.44013e-33
3.94154e-33
1.05548e-32
2.82682e-32
7.75813e-32
2.25578e-31
7.26065e-31
2.69156e-30
1.15523e-29
5.5457e-29
2.8254e-28
1.58759e-27
8.58201e-27
4.40677e-26
2.07125e-25
9.4982e-25
3.95888e-24
1.55789e-23
5.87191e-23
2.04079e-22
6.70629e-22
2.08799e-21
6.18731e-21
1.76046e-20
4.7348e-20
1.2315e-19
3.07651e-19
7.39973e-19
1.72699e-18
3.90814e-18
8.59756e-18
1.84393e-17
3.85764e-17
7.89521e-17
1.5755e-16
3.07496e-16
5.91434e-16
1.11416e-15
2.0508e-15
3.70451e-15
6.63121e-15
1.16576e-14
2.00519e-14
3.37978e-14
5.58222e-14
8.9723e-14
1.38869e-13
2.02959e-13
2.7223e-13
3.29218e-13
2.84086e-13
1.94108e-13
1.14571e-13
6.21482e-14
3.1549e-14
1.51793e-14
6.87454e-15
2.97777e-15
1.22102e-15
4.71232e-16
1.69838e-16
5.652e-17
1.729e-17
4.82068e-18
1.15926e-18
2.43636e-19
4.64981e-20
7.43551e-21
1.03414e-21
1.25995e-22
1.3792e-23
1.38336e-24
1.29983e-25
1.16626e-26
1.01433e-27
8.63466e-29
7.25502e-30
6.03143e-31
4.97751e-32
4.08994e-33
3.34358e-34
2.72526e-35
2.21792e-36
1.8008e-37
1.46005e-38
1.18363e-39
9.57039e-41
7.73449e-42
6.24696e-43
5.04267e-44
4.06886e-45
3.28218e-46
2.64717e-47
2.13515e-48
1.7252e-49
1.18349e-50
5.61927e-36
4.00782e-35
1.54273e-34
4.89256e-34
1.40824e-33
3.85418e-33
1.03082e-32
2.7545e-32
7.53385e-32
2.18048e-31
6.98096e-31
2.57581e-30
1.10506e-29
5.31108e-29
2.71072e-28
1.52392e-27
8.2484e-27
4.23594e-26
1.99361e-25
9.16265e-25
3.82944e-24
1.5122e-23
5.69387e-23
2.02315e-22
6.64704e-22
2.07569e-21
6.16046e-21
1.76007e-20
4.74695e-20
1.23909e-19
3.10548e-19
7.48538e-19
1.75149e-18
3.9756e-18
8.7712e-18
1.8859e-17
3.95514e-17
8.08597e-17
1.6153e-16
3.15906e-16
6.08115e-16
1.14641e-15
2.11224e-15
3.82123e-15
6.84644e-15
1.20447e-14
2.07219e-14
3.4939e-14
5.76802e-14
9.2681e-14
1.43368e-13
2.09373e-13
2.80412e-13
3.30791e-13
2.798e-13
1.88881e-13
1.10591e-13
5.9646e-14
3.01488e-14
1.44754e-14
6.46704e-15
2.78989e-15
1.13811e-15
4.361e-16
1.55899e-16
5.16522e-17
1.56428e-17
4.31192e-18
1.02324e-18
2.12165e-19
4.00236e-20
6.3342e-21
8.77052e-22
1.06948e-22
1.1702e-23
1.17573e-24
1.10716e-25
9.962e-27
8.69101e-28
7.39764e-29
6.21904e-30
5.17369e-31
4.27581e-32
3.51674e-33
2.88163e-34
2.35404e-35
1.91958e-36
1.56012e-37
1.26555e-38
1.02504e-39
8.3009e-41
6.70837e-42
5.41646e-43
4.37078e-44
3.52551e-45
2.84294e-46
2.29223e-47
1.84843e-48
1.49336e-49
1.02448e-50
5.465e-36
3.89682e-35
1.49902e-34
4.7489e-34
1.36477e-33
3.72728e-33
9.94748e-33
2.65204e-32
7.23716e-32
2.091e-31
6.6927e-31
2.47414e-30
1.06398e-29
5.12998e-29
2.62747e-28
1.479e-27
8.01801e-27
4.13013e-26
1.94792e-25
8.97104e-25
3.76074e-24
1.48999e-23
5.6158e-23
2.00606e-22
6.61328e-22
2.0716e-21
6.16686e-21
1.76855e-20
4.78349e-20
1.25295e-19
3.15088e-19
7.61212e-19
1.78498e-18
4.05755e-18
8.97655e-18
1.93393e-17
4.06297e-17
8.31924e-17
1.66526e-16
3.25879e-16
6.28426e-16
1.1866e-15
2.18878e-15
3.96212e-15
7.10319e-15
1.25019e-14
2.15001e-14
3.62624e-14
5.98713e-14
9.61284e-14
1.48437e-13
2.16445e-13
2.89235e-13
3.31773e-13
2.74338e-13
1.82371e-13
1.05764e-13
5.6601e-14
2.84249e-14
1.35664e-14
6.01604e-15
2.57744e-15
1.0441e-15
3.9806e-16
1.41332e-16
4.63217e-17
1.38929e-17
3.78479e-18
8.86416e-19
1.81227e-19
3.38257e-20
5.30525e-21
7.23236e-22
8.69627e-23
9.40849e-24
9.37515e-25
8.77505e-26
7.86289e-27
6.84161e-28
5.85966e-29
4.95676e-30
4.13625e-31
3.42896e-32
2.82878e-33
2.32464e-34
1.90428e-35
1.55755e-36
1.26974e-37
1.03309e-38
8.3911e-40
6.80869e-41
5.5154e-42
4.46305e-43
3.60837e-44
2.91532e-45
2.35419e-46
1.90042e-47
1.53402e-48
1.24035e-49
8.51373e-51
5.32547e-36
3.79715e-35
1.46042e-34
4.62511e-34
1.32852e-33
3.62572e-33
9.66748e-33
2.5744e-32
7.01615e-32
2.0249e-31
6.47985e-31
2.39892e-30
1.03472e-29
5.00719e-29
2.57394e-28
1.45054e-27
7.87435e-27
4.06321e-26
1.91995e-25
8.85192e-25
3.72154e-24
1.47849e-23
5.5709e-23
1.99832e-22
6.60628e-22
2.07572e-21
6.19739e-21
1.78335e-20
4.8354e-20
1.27063e-19
3.20313e-19
7.75149e-19
1.82248e-18
4.1512e-18
9.20615e-18
1.98701e-17
4.18124e-17
8.5781e-17
1.71883e-16
3.37068e-16
6.50317e-16
1.22895e-15
2.26912e-15
4.11087e-15
7.37423e-15
1.2984e-14
2.23165e-14
3.76316e-14
6.21242e-14
9.96621e-14
1.53668e-13
2.23062e-13
2.9785e-13
3.3185e-13
2.68272e-13
1.75875e-13
1.01206e-13
5.3811e-14
2.68801e-14
1.27622e-14
5.63631e-15
2.40246e-15
9.66318e-16
3.64968e-16
1.28388e-16
4.16887e-17
1.23867e-17
3.33874e-18
7.71048e-19
1.55322e-19
2.86974e-20
4.42756e-21
5.9747e-22
7.12887e-23
7.67421e-24
7.62749e-25
7.1318e-26
6.39111e-27
5.56525e-28
4.75047e-29
4.00865e-30
3.35809e-31
2.79405e-32
2.3127e-33
1.90262e-34
1.5603e-35
1.27792e-36
1.04292e-37
8.49431e-39
6.90607e-40
5.6095e-41
4.54766e-42
3.68256e-43
2.97914e-44
2.40821e-45
1.94553e-46
1.57108e-47
1.26853e-48
1.02592e-49
7.04306e-51
5.19943e-36
3.70715e-35
1.42561e-34
4.5137e-34
1.296e-33
3.53491e-33
9.41799e-33
2.50555e-32
6.82157e-32
1.96743e-31
6.29883e-31
2.33717e-30
1.01188e-29
4.91748e-29
2.53796e-28
1.43225e-27
7.78688e-27
4.02533e-26
1.90544e-25
8.78173e-25
3.70127e-24
1.4739e-23
5.55072e-23
1.99834e-22
6.62487e-22
2.08732e-21
6.24886e-21
1.80366e-20
4.90263e-20
1.29159e-19
3.26353e-19
7.91245e-19
1.86321e-18
4.25093e-18
9.44476e-18
2.04216e-17
4.30447e-17
8.84023e-17
1.77355e-16
3.47925e-16
6.71966e-16
1.27118e-15
2.34707e-15
4.25399e-15
7.63425e-15
1.34463e-14
2.30977e-14
3.89498e-14
6.42415e-14
1.0291e-13
1.58206e-13
2.2852e-13
3.04825e-13
3.3077e-13
2.61884e-13
1.69126e-13
9.65011e-14
5.09191e-14
2.52693e-14
1.19291e-14
5.25782e-15
2.22861e-15
8.93152e-16
3.35396e-16
1.17281e-16
3.78103e-17
1.11909e-17
2.9133e-18
6.65727e-19
1.33081e-19
2.42193e-20
3.69727e-21
4.94787e-22
5.86817e-23
6.29183e-24
6.24099e-25
5.83048e-26
5.2256e-27
4.55395e-28
3.89302e-29
3.28434e-30
2.74605e-31
2.2812e-32
1.88596e-33
1.55722e-34
1.28127e-35
1.05281e-36
8.61526e-38
7.03374e-39
5.73063e-40
4.66397e-41
3.78699e-42
3.06817e-43
2.48321e-44
2.00806e-45
1.62273e-46
1.31071e-47
1.05847e-48
8.56124e-50
5.8777e-51
5.08799e-36
3.6276e-35
1.39487e-34
4.41549e-34
1.26739e-33
3.45524e-33
9.19991e-33
2.44564e-32
6.65327e-32
1.91813e-31
6.14538e-31
2.28571e-30
9.93304e-30
4.84678e-29
2.51082e-28
1.41875e-27
7.72405e-27
3.99937e-26
1.89622e-25
8.7354e-25
3.69109e-24
1.47325e-23
5.54489e-23
2.00282e-22
6.65564e-22
2.10177e-21
6.30595e-21
1.8245e-20
4.96929e-20
1.31189e-19
3.32088e-19
8.06396e-19
1.90147e-18
4.34342e-18
9.66152e-18
2.09137e-17
4.41345e-17
9.07189e-17
1.82126e-16
3.57643e-16
6.91449e-16
1.3084e-15
2.41581e-15
4.37888e-15
7.85681e-15
1.3831e-14
2.37199e-14
3.99571e-14
6.6121e-14
1.05616e-13
1.61882e-13
2.32744e-13
3.10589e-13
3.28846e-13
2.55669e-13
1.62489e-13
9.21893e-14
4.83869e-14
2.39007e-14
1.11991e-14
4.97952e-15
2.10048e-15
8.35089e-16
3.11638e-16
1.08338e-16
3.47107e-17
1.02025e-17
2.63026e-18
5.95784e-19
1.17807e-19
2.12689e-20
3.21914e-21
4.27823e-22
5.04455e-23
5.38591e-24
5.32879e-25
4.97065e-26
4.45202e-27
3.8795e-28
3.31802e-29
2.80058e-30
2.34293e-31
1.94753e-32
1.611e-33
1.32748e-34
1.09025e-35
8.9455e-37
7.30946e-38
5.95991e-39
4.85015e-40
3.94393e-41
3.19968e-42
2.59509e-43
2.10213e-44
1.70105e-45
1.37532e-46
1.11124e-47
8.97557e-49
7.26003e-50
4.984e-51
4.99012e-36
3.55775e-35
1.36789e-34
4.3293e-34
1.2423e-33
3.38551e-33
9.00952e-33
2.39353e-32
6.50759e-32
1.87574e-31
6.01458e-31
2.24239e-30
9.77923e-30
4.78964e-29
2.48968e-28
1.40848e-27
7.67795e-27
3.98141e-26
1.89048e-25
8.70451e-25
3.68666e-24
1.47442e-23
5.55106e-23
2.01036e-22
6.69373e-22
2.11807e-21
6.36683e-21
1.84593e-20
5.03415e-20
1.33105e-19
3.37481e-19
8.2046e-19
1.93678e-18
4.42836e-18
9.85942e-18
2.13659e-17
4.51086e-17
9.27703e-17
1.86309e-16
3.65948e-16
7.07281e-16
1.33837e-15
2.47084e-15
4.47932e-15
8.03804e-15
1.41503e-14
2.4258e-14
4.08343e-14
6.73949e-14
1.07399e-13
1.63917e-13
2.35383e-13
3.14479e-13
3.26327e-13
2.50062e-13
1.56608e-13
8.84321e-14
4.61936e-14
2.27061e-14
1.05907e-14
4.69474e-15
1.97108e-15
7.81072e-16
2.90028e-16
1.00154e-16
3.19178e-17
9.33214e-18
2.3696e-18
5.3259e-19
1.04546e-19
1.87634e-20
2.8243e-21
3.7285e-22
4.37045e-23
4.64505e-24
4.58214e-25
4.26553e-26
3.81596e-27
3.32326e-28
2.84219e-29
2.39901e-30
2.00734e-31
1.66903e-32
1.38108e-33
1.13842e-34
9.35535e-36
7.66576e-37
6.26603e-38
5.11078e-39
4.16029e-40
3.38425e-41
2.74606e-42
2.22531e-43
1.80129e-44
1.45672e-45
1.1772e-46
9.50802e-48
7.67755e-49
6.20905e-50
4.26226e-51
4.90561e-36
3.49744e-35
1.3446e-34
4.25502e-34
1.22072e-33
3.32566e-33
8.84662e-33
2.3491e-32
6.38394e-32
1.83994e-31
5.9048e-31
2.2063e-30
9.6524e-30
4.74315e-29
2.47282e-28
1.40042e-27
7.64243e-27
3.96804e-26
1.88645e-25
8.68099e-25
3.68336e-24
1.4755e-23
5.56417e-23
2.01907e-22
6.73358e-22
2.13381e-21
6.42356e-21
1.86545e-20
5.09396e-20
1.34895e-19
3.42502e-19
8.3341e-19
1.96876e-18
4.505e-18
1.00394e-17
2.17663e-17
4.59783e-17
9.46033e-17
1.90081e-16
3.73559e-16
7.22254e-16
1.36667e-15
2.52204e-15
4.57096e-15
8.19898e-15
1.44226e-14
2.47047e-14
4.15469e-14
6.8387e-14
1.08786e-13
1.65456e-13
2.35791e-13
3.16217e-13
3.23054e-13
2.44447e-13
1.5194e-13
8.5245e-14
4.42988e-14
2.16876e-14
1.00779e-14
4.45144e-15
1.86382e-15
7.35893e-16
2.71991e-16
9.32986e-17
2.94789e-17
8.54605e-18
2.14967e-18
4.78581e-19
9.28361e-20
1.64789e-20
2.45833e-21
3.22261e-22
3.75799e-23
3.97961e-24
3.91765e-25
3.64259e-26
3.25726e-27
2.83695e-28
2.42742e-29
2.05013e-30
1.71662e-31
1.42839e-32
1.18288e-33
9.75794e-35
8.02714e-36
6.58231e-37
5.38425e-38
4.39454e-39
3.5795e-40
2.91402e-41
2.36579e-42
1.91808e-43
1.55327e-44
1.25661e-45
1.01581e-46
8.20665e-48
6.62813e-49
5.36125e-50
3.68067e-51
4.83359e-36
3.44606e-35
1.32478e-34
4.19185e-34
1.2024e-33
3.27494e-33
8.70888e-33
2.31164e-32
6.2799e-32
1.80987e-31
5.81257e-31
2.17596e-30
9.54589e-30
4.70452e-29
2.45927e-28
1.39401e-27
7.61475e-27
3.9581e-26
1.88379e-25
8.66362e-25
3.68262e-24
1.47742e-23
5.57974e-23
2.02794e-22
6.77249e-22
2.14907e-21
6.47754e-21
1.88331e-20
5.14812e-20
1.3647e-19
3.46772e-19
8.44421e-19
1.99617e-18
4.57113e-18
1.01905e-17
2.21048e-17
4.67134e-17
9.61468e-17
1.93257e-16
3.79801e-16
7.34365e-16
1.38948e-15
2.56311e-15
4.64424e-15
8.32614e-15
1.46383e-14
2.50546e-14
4.2079e-14
6.90385e-14
1.09574e-13
1.66031e-13
2.33999e-13
3.16685e-13
3.19509e-13
2.39472e-13
1.47632e-13
8.25012e-14
4.27497e-14
2.0876e-14
9.67537e-15
4.25762e-15
1.77529e-15
6.98438e-16
2.58256e-16
8.65772e-17
2.72763e-17
7.87321e-18
1.96909e-18
4.35221e-19
8.40468e-20
1.48196e-20
2.19534e-21
2.8609e-22
3.32168e-23
3.50651e-24
3.44558e-25
3.19997e-26
2.86e-27
2.49057e-28
2.13155e-29
1.80084e-30
1.50852e-31
1.25582e-32
1.04048e-33
8.58721e-35
7.06891e-36
5.79914e-37
4.7456e-38
3.87478e-39
3.15727e-40
2.57115e-41
2.08797e-42
1.69321e-43
1.37141e-44
1.10964e-45
8.97086e-47
7.24787e-48
5.85383e-49
4.73481e-50
3.25042e-51
4.77301e-36
3.40285e-35
1.30812e-34
4.13882e-34
1.18704e-33
3.23252e-33
8.59393e-33
2.28041e-32
6.19297e-32
1.78444e-31
5.73215e-31
2.14778e-30
9.43594e-30
4.6578e-29
2.44951e-28
1.38985e-27
7.59822e-27
3.95304e-26
1.88295e-25
8.65561e-25
3.68421e-24
1.4798e-23
5.59527e-23
2.03626e-22
6.8072e-22
2.16231e-21
6.52367e-21
1.89877e-20
5.19453e-20
1.3777e-19
3.50334e-19
8.53551e-19
2.01866e-18
4.62335e-18
1.03098e-17
2.23697e-17
4.72816e-17
9.73354e-17
1.95679e-16
3.84582e-16
7.43631e-16
1.40694e-15
2.59462e-15
4.70134e-15
8.42428e-15
1.48006e-14
2.5303e-14
4.24378e-14
6.94436e-14
1.09926e-13
1.65813e-13
2.31872e-13
3.1642e-13
3.15837e-13
2.3455e-13
1.43914e-13
8.01188e-14
4.13783e-14
2.01493e-14
9.31418e-15
4.09033e-15
1.70156e-15
6.67202e-16
2.45707e-16
8.21402e-17
2.57228e-17
7.38567e-18
1.83426e-18
4.02575e-19
7.75031e-20
1.36016e-20
2.00317e-21
2.59716e-22
3.00457e-23
3.16332e-24
3.10344e-25
2.8792e-26
2.57208e-27
2.2388e-28
1.91632e-29
1.61933e-30
1.35687e-31
1.12994e-32
9.36502e-34
7.7317e-35
6.36749e-36
5.22538e-37
4.27735e-38
3.4934e-39
2.84753e-40
2.31759e-41
1.88244e-42
1.52679e-43
1.23679e-44
1.00082e-45
8.09166e-47
6.53775e-48
5.28029e-49
4.27075e-50
2.93168e-51
4.72256e-36
3.36688e-35
1.29426e-34
4.09475e-34
1.1743e-33
3.19741e-33
8.49903e-33
2.25471e-32
6.12171e-32
1.76368e-31
5.66672e-31
2.12492e-30
9.34696e-30
4.6201e-29
2.44279e-28
1.3872e-27
7.58854e-27
3.95083e-26
1.88325e-25
8.65242e-25
3.68703e-24
1.48234e-23
5.60994e-23
2.04362e-22
6.8374e-22
2.17357e-21
6.56249e-21
1.91147e-20
5.23224e-20
1.38832e-19
3.53232e-19
8.60875e-19
2.03637e-18
4.66522e-18
1.04044e-17
2.25761e-17
4.77154e-17
9.82248e-17
1.97402e-16
3.87822e-16
7.49526e-16
1.41708e-15
2.61068e-15
4.75777e-15
8.50692e-15
1.49282e-14
2.54935e-14
4.27028e-14
6.9764e-14
1.1018e-13
1.65571e-13
2.29943e-13
3.15744e-13
3.1261e-13
2.30615e-13
1.40835e-13
7.81482e-14
4.02552e-14
1.95555e-14
9.0186e-15
3.95147e-15
1.63903e-15
6.40856e-16
2.35171e-16
7.85106e-17
2.44934e-17
7.00444e-18
1.73072e-18
3.77551e-19
7.2697e-20
1.27075e-20
1.86651e-21
2.40995e-22
2.7789e-23
2.91834e-24
2.85841e-25
2.64872e-26
2.3645e-27
2.05712e-28
1.76053e-29
1.48757e-30
1.24646e-31
1.03805e-32
8.60417e-34
7.10421e-35
5.8516e-36
4.8025e-37
3.93156e-38
3.21126e-39
2.61796e-40
2.13003e-41
1.73019e-42
1.40335e-43
1.13682e-44
9.19911e-46
7.43733e-47
6.00879e-48
4.85274e-49
3.92459e-50
2.6938e-51
4.68088e-36
3.33716e-35
1.28281e-34
4.05839e-34
1.1638e-33
3.16851e-33
8.42113e-33
2.23369e-32
6.06376e-32
1.74696e-31
5.61488e-31
2.10724e-30
9.28031e-30
4.59289e-29
2.43967e-28
1.38638e-27
7.58806e-27
3.95301e-26
1.88541e-25
8.65877e-25
3.69319e-24
1.48595e-23
5.62791e-23
2.05188e-22
6.86992e-22
2.18531e-21
6.60162e-21
1.92399e-20
5.26853e-20
1.39831e-19
3.55928e-19
8.67698e-19
2.053e-18
4.70425e-18
1.04927e-17
2.27689e-17
4.81274e-17
9.90628e-17
1.99065e-16
3.91034e-16
7.55616e-16
1.42827e-15
2.63074e-15
4.79355e-15
8.56438e-15
1.50153e-14
2.56129e-14
4.28387e-14
6.98372e-14
1.09951e-13
1.6442e-13
2.2775e-13
3.14997e-13
3.09638e-13
2.27079e-13
1.38085e-13
7.64033e-14
3.92768e-14
1.90442e-14
8.76711e-15
3.83302e-15
1.58702e-15
6.19082e-16
2.26501e-16
7.55461e-17
2.34999e-17
6.69283e-18
1.64679e-18
3.57342e-19
6.88468e-20
1.19762e-20
1.75095e-21
2.25318e-22
2.5911e-23
2.71562e-24
2.65654e-25
2.45948e-26
2.19448e-27
1.90875e-28
1.63353e-29
1.38032e-30
1.15672e-31
9.63461e-33
7.98723e-34
6.59601e-35
5.43425e-36
4.46078e-37
3.65245e-38
2.98378e-39
2.43301e-40
1.97984e-41
1.6084e-42
1.30472e-43
1.05703e-44
8.55419e-46
6.91639e-47
5.58819e-48
4.5132e-49
3.65004e-50
2.50533e-51
4.64673e-36
3.31281e-35
1.27343e-34
4.02859e-34
1.15519e-33
3.14481e-33
8.35717e-33
2.21642e-32
6.01611e-32
1.73323e-31
5.57254e-31
2.09299e-30
9.22781e-30
4.57215e-29
2.43924e-28
1.38702e-27
7.59528e-27
3.9589e-26
1.88917e-25
8.67242e-25
3.70184e-24
1.49039e-23
5.64814e-23
2.06063e-22
6.90278e-22
2.19697e-21
6.63972e-21
1.936e-20
5.30311e-20
1.40782e-19
3.58448e-19
8.73972e-19
2.06876e-18
4.74122e-18
1.05774e-17
2.29558e-17
4.85257e-17
9.98848e-17
2.00714e-16
3.94259e-16
7.61814e-16
1.43988e-15
2.65177e-15
4.8307e-15
8.62724e-15
1.51176e-14
2.57698e-14
4.30638e-14
7.01222e-14
1.10218e-13
1.64394e-13
2.2607e-13
3.14294e-13
3.06981e-13
2.2405e-13
1.35868e-13
7.50259e-14
3.8502e-14
1.86428e-14
8.56896e-15
3.74084e-15
1.54613e-15
6.01879e-16
2.19642e-16
7.31982e-17
2.27059e-17
6.44817e-18
1.58113e-18
3.41703e-19
6.58609e-20
1.14205e-20
1.66446e-21
2.13589e-22
2.45049e-23
2.56367e-24
2.50502e-25
2.31721e-26
2.06647e-27
1.79687e-28
1.53761e-29
1.29919e-30
1.08874e-31
9.06866e-33
7.51847e-34
6.20933e-35
5.11625e-36
4.20006e-37
3.43924e-38
2.8098e-39
2.29136e-40
1.86469e-41
1.51494e-42
1.22897e-43
9.95689e-45
8.05801e-46
6.51531e-47
5.26415e-48
4.25145e-49
3.43826e-50
2.3599e-51
4.61922e-36
3.29319e-35
1.26588e-34
4.00458e-34
1.14825e-33
3.12573e-33
8.30575e-33
2.20256e-32
5.97804e-32
1.72236e-31
5.53957e-31
2.08223e-30
9.19006e-30
4.55828e-29
2.44154e-28
1.38909e-27
7.60961e-27
3.96812e-26
1.89438e-25
8.69383e-25
3.71353e-24
1.49587e-23
5.67194e-23
2.0704e-22
6.93881e-22
2.20932e-21
6.67976e-21
1.94847e-20
5.33919e-20
1.41777e-19
3.61096e-19
8.80649e-19
2.08425e-18
4.77723e-18
1.06579e-17
2.31316e-17
4.88994e-17
1.0066e-16
2.0228e-16
3.9734e-16
7.67763e-16
1.4509e-15
2.67165e-15
4.86618e-15
8.68904e-15
1.52223e-14
2.59396e-14
4.33277e-14
7.0502e-14
1.1069e-13
1.64784e-13
2.25271e-13
3.13952e-13
3.05051e-13
2.21744e-13
1.34125e-13
7.39188e-14
3.78785e-14
1.83159e-14
8.40951e-15
3.66645e-15
1.51289e-15
5.8797e-16
2.14133e-16
7.13213e-17
2.20761e-17
6.25509e-18
1.52929e-18
3.29426e-19
6.35068e-20
1.09868e-20
1.59709e-21
2.0446e-22
2.34122e-23
2.44572e-24
2.38748e-25
2.20691e-26
1.96724e-27
1.71014e-28
1.46323e-29
1.23628e-30
1.036e-31
8.6296e-33
7.15473e-34
5.90922e-35
4.86938e-36
3.99763e-37
3.27367e-38
2.67467e-39
2.18133e-40
1.77524e-41
1.44232e-42
1.1701e-43
9.48029e-45
7.67249e-46
6.20369e-47
5.01239e-48
4.0481e-49
3.27376e-50
2.24694e-51
4.5976e-36
3.27778e-35
1.25994e-34
3.98573e-34
1.14282e-33
3.11079e-33
8.26557e-33
2.19177e-32
5.94858e-32
1.71405e-31
5.51501e-31
2.07457e-30
9.16511e-30
4.55011e-29
2.44545e-28
1.39194e-27
7.6277e-27
3.97898e-26
1.90024e-25
8.71805e-25
3.72575e-24
1.50147e-23
5.69557e-23
2.08e-22
6.97348e-22
2.22109e-21
6.71764e-21
1.96018e-20
5.37263e-20
1.42692e-19
3.63518e-19
8.86727e-19
2.09891e-18
4.81126e-18
1.0735e-17
2.33016e-17
4.92611e-17
1.01406e-16
2.03779e-16
4.00275e-16
7.73408e-16
1.46148e-15
2.69092e-15
4.90076e-15
8.74961e-15
1.53258e-14
2.61094e-14
4.35961e-14
7.0905e-14
1.11231e-13
1.65331e-13
2.25285e-13
3.13898e-13
3.03712e-13
2.20036e-13
1.32821e-13
7.30843e-14
3.74021e-14
1.80663e-14
8.28568e-15
3.60835e-15
1.48722e-15
5.77201e-16
2.09842e-16
6.98648e-17
2.15876e-17
6.10483e-18
1.48941e-18
3.19941e-19
6.17135e-20
1.06532e-20
1.54548e-21
1.97497e-22
2.25791e-23
2.35576e-24
2.29782e-25
2.12274e-26
1.89151e-27
1.64392e-28
1.40643e-29
1.1882e-30
9.95694e-32
8.29383e-33
6.87646e-34
5.67953e-35
4.68037e-36
3.84258e-37
3.14681e-38
2.57112e-39
2.09698e-40
1.70664e-41
1.38664e-42
1.12495e-43
9.11467e-45
7.3767e-46
5.96457e-47
4.81921e-48
3.89207e-49
3.14753e-50
2.16026e-51
4.58121e-36
3.2661e-35
1.25545e-34
3.97147e-34
1.13871e-33
3.09953e-33
8.23543e-33
2.18374e-32
5.92695e-32
1.70807e-31
5.49786e-31
2.06948e-30
9.14986e-30
4.5459e-29
2.45001e-28
1.39507e-27
7.6468e-27
3.99005e-26
1.90604e-25
8.74296e-25
3.738e-24
1.50691e-23
5.718e-23
2.08887e-22
7.0053e-22
2.23185e-21
6.75174e-21
1.97054e-20
5.402e-20
1.43489e-19
3.65596e-19
8.91857e-19
2.11123e-18
4.84003e-18
1.08001e-17
2.34432e-17
4.95612e-17
1.02025e-16
2.05021e-16
4.02706e-16
7.78082e-16
1.4702e-15
2.70682e-15
4.92941e-15
8.7996e-15
1.54104e-14
2.6246e-14
4.3807e-14
7.12063e-14
1.1161e-13
1.65692e-13
2.25402e-13
3.14004e-13
3.02619e-13
2.18636e-13
1.31854e-13
7.24935e-14
3.70717e-14
1.78937e-14
8.20019e-15
3.56813e-15
1.46934e-15
5.69691e-16
2.06826e-16
6.88432e-17
2.12428e-17
5.99776e-18
1.46058e-18
3.13004e-19
6.03858e-20
1.04045e-20
1.50685e-21
1.92261e-22
2.1953e-23
2.28828e-24
2.23065e-25
2.05975e-26
1.83483e-27
1.59436e-28
1.3639e-29
1.1522e-30
9.65497e-32
8.04223e-33
6.6679e-34
5.50734e-35
4.53866e-36
3.72633e-37
3.05169e-38
2.49348e-39
2.03375e-40
1.65523e-41
1.34491e-42
1.09113e-43
8.84082e-45
7.15521e-46
5.78557e-47
4.67463e-48
3.77532e-49
3.05311e-50
2.09544e-51
4.56957e-36
3.25781e-35
1.25226e-34
3.96141e-34
1.13582e-33
3.09166e-33
8.21446e-33
2.17815e-32
5.91183e-32
1.70383e-31
5.48557e-31
2.06582e-30
9.13912e-30
4.54325e-29
2.45403e-28
1.39773e-27
7.6628e-27
3.99921e-26
1.9108e-25
8.76344e-25
3.74786e-24
1.51124e-23
5.73574e-23
2.09586e-22
7.03009e-22
2.24016e-21
6.77802e-21
1.97853e-20
5.42462e-20
1.44105e-19
3.67205e-19
8.95864e-19
2.12085e-18
4.86234e-18
1.08504e-17
2.35528e-17
4.97938e-17
1.02504e-16
2.05984e-16
4.04594e-16
7.81721e-16
1.47702e-15
2.71924e-15
4.95181e-15
8.83921e-15
1.54789e-14
2.63601e-14
4.3991e-14
7.14882e-14
1.12005e-13
1.6614e-13
2.25627e-13
3.14057e-13
3.01769e-13
2.17221e-13
1.31803e-13
7.23248e-14
3.6936e-14
1.78095e-14
8.15417e-15
3.54502e-15
1.4585e-15
5.64939e-16
2.04863e-16
6.81667e-17
2.10111e-17
5.92509e-18
1.4408e-18
3.08231e-19
5.9474e-20
1.02344e-20
1.4803e-21
1.88659e-22
2.15209e-23
2.24155e-24
2.18403e-25
2.01589e-26
1.79531e-27
1.55977e-28
1.33422e-29
1.12707e-30
9.44414e-32
7.86654e-33
6.52222e-34
5.38704e-35
4.43961e-36
3.64504e-37
2.98513e-38
2.4391e-39
1.98943e-40
1.61916e-41
1.3156e-42
1.06735e-43
8.64819e-45
6.99932e-46
5.65953e-47
4.57278e-48
3.69305e-49
2.98655e-50
2.04974e-51
4.56207e-36
3.25246e-35
1.25021e-34
3.95487e-34
1.13393e-33
3.08645e-33
8.20032e-33
2.17433e-32
5.90135e-32
1.70093e-31
5.47736e-31
2.06349e-30
9.13296e-30
4.54204e-29
2.45705e-28
1.3997e-27
7.6745e-27
4.00583e-26
1.91419e-25
8.77813e-25
3.75486e-24
1.5143e-23
5.74819e-23
2.10073e-22
7.04729e-22
2.24591e-21
6.79614e-21
1.98404e-20
5.44015e-20
1.44524e-19
3.68301e-19
8.98588e-19
2.12736e-18
4.87742e-18
1.08842e-17
2.36265e-17
4.99498e-17
1.02825e-16
2.06628e-16
4.05853e-16
7.84146e-16
1.48156e-15
2.72753e-15
4.96673e-15
8.86542e-15
1.55238e-14
2.64343e-14
4.41099e-14
7.16704e-14
1.12264e-13
1.66459e-13
2.25913e-13
3.14258e-13
3.01337e-13
2.16611e-13
1.31388e-13
7.20715e-14
3.67933e-14
1.77341e-14
8.11653e-15
3.52716e-15
1.45045e-15
5.61517e-16
2.03485e-16
6.76988e-17
2.08519e-17
5.87558e-18
1.42744e-18
3.05029e-19
5.88654e-20
1.01208e-20
1.46266e-21
1.8627e-22
2.1235e-23
2.21066e-24
2.15319e-25
1.98698e-26
1.76934e-27
1.53709e-28
1.31477e-29
1.11063e-30
9.3064e-32
7.75189e-33
6.42727e-34
5.30871e-35
4.3752e-36
3.59224e-37
2.94196e-38
2.40389e-39
1.96076e-40
1.59586e-41
1.29669e-42
1.05202e-43
8.52404e-45
6.89885e-46
5.57827e-47
4.5071e-48
3.63997e-49
2.9436e-50
2.02023e-51
4.55829e-36
3.24977e-35
1.24916e-34
3.95156e-34
1.13297e-33
3.08382e-33
8.19329e-33
2.17246e-32
5.89635e-32
1.69956e-31
5.47353e-31
2.06243e-30
9.13024e-30
4.54159e-29
2.45867e-28
1.40076e-27
7.68072e-27
4.00933e-26
1.91598e-25
8.78593e-25
3.75854e-24
1.51589e-23
5.75467e-23
2.10325e-22
7.05616e-22
2.24886e-21
6.80541e-21
1.98684e-20
5.448e-20
1.44736e-19
3.6885e-19
8.99941e-19
2.13058e-18
4.88481e-18
1.09007e-17
2.3662e-17
5.00245e-17
1.02978e-16
2.0693e-16
4.06436e-16
7.85249e-16
1.48358e-15
2.7311e-15
4.97292e-15
8.87576e-15
1.55404e-14
2.64591e-14
4.41447e-14
7.17151e-14
1.1232e-13
1.66558e-13
2.26251e-13
3.14577e-13
3.01201e-13
2.16448e-13
1.30882e-13
7.18192e-14
3.6665e-14
1.76708e-14
8.0866e-15
3.51363e-15
1.44464e-15
5.59144e-16
2.02565e-16
6.73916e-17
2.07511e-17
5.84511e-18
1.41945e-18
3.03165e-19
5.85096e-20
1.00557e-20
1.4527e-21
1.84939e-22
2.10773e-23
2.19376e-24
2.1364e-25
1.97121e-26
1.75513e-27
1.52464e-28
1.30408e-29
1.10157e-30
9.23032e-32
7.68847e-33
6.37468e-34
5.26528e-35
4.33945e-36
3.56291e-37
2.91797e-38
2.3843e-39
1.94481e-40
1.5829e-41
1.28618e-42
1.04351e-43
8.4552e-45
6.84324e-46
5.5334e-47
4.47091e-48
3.61078e-49
2.92003e-50
2.00407e-51
4.5582e-36
3.2497e-35
1.24914e-34
3.95148e-34
1.13295e-33
3.08376e-33
8.19313e-33
2.17242e-32
5.89626e-32
1.69953e-31
5.47345e-31
2.06239e-30
9.13002e-30
4.54145e-29
2.45863e-28
1.40073e-27
7.68059e-27
4.00925e-26
1.91594e-25
8.78571e-25
3.75844e-24
1.51585e-23
5.75447e-23
2.10317e-22
7.05584e-22
2.24875e-21
6.80502e-21
1.98671e-20
5.4476e-20
1.44728e-19
3.68824e-19
8.99869e-19
2.13039e-18
4.88433e-18
1.08995e-17
2.36592e-17
5.0018e-17
1.02963e-16
2.06898e-16
4.06368e-16
7.85106e-16
1.48329e-15
2.7305e-15
4.97169e-15
8.87329e-15
1.55354e-14
2.6449e-14
4.41234e-14
7.16672e-14
1.12201e-13
1.6623e-13
2.26494e-13
3.14668e-13
3.01666e-13
2.17119e-13
1.30579e-13
7.16517e-14
3.65854e-14
1.76357e-14
8.07183e-15
3.50769e-15
1.44235e-15
5.58311e-16
2.02278e-16
6.73007e-17
2.07243e-17
5.83779e-18
1.41772e-18
3.02804e-19
5.84404e-20
1.0044e-20
1.45103e-21
1.84727e-22
2.10533e-23
2.19127e-24
2.134e-25
1.969e-26
1.75317e-27
1.52296e-28
1.30265e-29
1.10037e-30
9.22035e-32
7.68024e-33
6.36791e-34
5.25973e-35
4.33491e-36
3.55921e-37
2.91497e-38
2.38187e-39
1.94284e-40
1.58131e-41
1.28489e-42
1.04247e-43
8.44686e-45
6.83654e-46
5.52802e-47
4.46659e-48
3.60733e-49
2.91725e-50
2.00218e-51
4.56182e-36
3.25228e-35
1.25013e-34
3.95461e-34
1.13385e-33
3.08622e-33
8.19974e-33
2.17418e-32
5.90102e-32
1.70085e-31
5.47712e-31
2.06341e-30
9.13258e-30
4.54183e-29
2.45709e-28
1.39973e-27
7.67461e-27
4.00588e-26
1.91421e-25
8.77814e-25
3.75485e-24
1.51428e-23
5.7481e-23
2.10067e-22
7.04702e-22
2.2458e-21
6.79571e-21
1.98389e-20
5.43967e-20
1.44511e-19
3.6826e-19
8.98473e-19
2.12705e-18
4.87661e-18
1.08822e-17
2.36216e-17
4.99385e-17
1.028e-16
2.06572e-16
4.05734e-16
7.83898e-16
1.48107e-15
2.72654e-15
4.9648e-15
8.86175e-15
1.5517e-14
2.64223e-14
4.40898e-14
7.16394e-14
1.12224e-13
1.66434e-13
2.26011e-13
3.14512e-13
3.01976e-13
2.17536e-13
1.30841e-13
7.17984e-14
3.6662e-14
1.76738e-14
8.09001e-15
3.51607e-15
1.44604e-15
5.5986e-16
2.02902e-16
6.75116e-17
2.0796e-17
5.86018e-18
1.42377e-18
3.04264e-19
5.87171e-20
1.00957e-20
1.45904e-21
1.85811e-22
2.11835e-23
2.20536e-24
2.14804e-25
1.9822e-26
1.76505e-27
1.53335e-28
1.31156e-29
1.10791e-30
9.28361e-32
7.73292e-33
6.41156e-34
5.29577e-35
4.36457e-36
3.58354e-37
2.93487e-38
2.39812e-39
1.95608e-40
1.59208e-41
1.29363e-42
1.04956e-43
8.50429e-45
6.88302e-46
5.5656e-47
4.49697e-48
3.63187e-49
2.93712e-50
2.01583e-51
4.56938e-36
3.25767e-35
1.2522e-34
3.96119e-34
1.13575e-33
3.09142e-33
8.21366e-33
2.1779e-32
5.91108e-32
1.70363e-31
5.48503e-31
2.06568e-30
9.13881e-30
4.54314e-29
2.45418e-28
1.39781e-27
7.66321e-27
3.9994e-26
1.91087e-25
8.76368e-25
3.74793e-24
1.51126e-23
5.73574e-23
2.09583e-22
7.0299e-22
2.24006e-21
6.77758e-21
1.97838e-20
5.4241e-20
1.44087e-19
3.6715e-19
8.95711e-19
2.12043e-18
4.86125e-18
1.08477e-17
2.35461e-17
4.97781e-17
1.02469e-16
2.05906e-16
4.04425e-16
7.81368e-16
1.4763e-15
2.7178e-15
4.94892e-15
8.83354e-15
1.54679e-14
2.63397e-14
4.39541e-14
7.14231e-14
1.11893e-13
1.6596e-13
2.25974e-13
3.14463e-13
3.02448e-13
2.1815e-13
1.31308e-13
7.20951e-14
3.68298e-14
1.77616e-14
8.13328e-15
3.53627e-15
1.45503e-15
5.63625e-16
2.04398e-16
6.80173e-17
2.09659e-17
5.91245e-18
1.43776e-18
3.07584e-19
5.93484e-20
1.02126e-20
1.47716e-21
1.8827e-22
2.14771e-23
2.23692e-24
2.17951e-25
2.01175e-26
1.79167e-27
1.55663e-28
1.33155e-29
1.12484e-30
9.4256e-32
7.85123e-33
6.50964e-34
5.37674e-35
4.43121e-36
3.63821e-37
2.9796e-38
2.43463e-39
1.98582e-40
1.61626e-41
1.31326e-42
1.06548e-43
8.63313e-45
6.98722e-46
5.64981e-47
4.56498e-48
3.68678e-49
2.98152e-50
2.0463e-51
4.58114e-36
3.26605e-35
1.25543e-34
3.97142e-34
1.13869e-33
3.0995e-33
8.23534e-33
2.1837e-32
5.92681e-32
1.70801e-31
5.49768e-31
2.06945e-30
9.15e-30
4.54616e-29
2.45048e-28
1.39533e-27
7.64819e-27
3.99076e-26
1.90638e-25
8.7444e-25
3.73859e-24
1.50713e-23
5.71879e-23
2.08913e-22
7.00602e-22
2.23204e-21
6.75217e-21
1.9706e-20
5.40205e-20
1.43486e-19
3.65577e-19
8.91802e-19
2.11104e-18
4.83943e-18
1.07984e-17
2.34385e-17
4.95496e-17
1.01997e-16
2.04956e-16
4.02559e-16
7.7776e-16
1.46951e-15
2.70538e-15
4.92639e-15
8.79351e-15
1.53983e-14
2.62228e-14
4.37625e-14
7.11225e-14
1.11451e-13
1.65368e-13
2.25892e-13
3.14321e-13
3.03022e-13
2.18951e-13
1.31998e-13
7.25545e-14
3.70948e-14
1.79017e-14
8.20269e-15
3.5689e-15
1.46948e-15
5.69696e-16
2.06805e-16
6.88304e-17
2.12382e-17
5.99626e-18
1.46016e-18
3.12944e-19
6.03713e-20
1.04028e-20
1.50672e-21
1.92232e-22
2.19471e-23
2.28751e-24
2.22981e-25
2.05889e-26
1.83404e-27
1.59365e-28
1.36329e-29
1.15169e-30
9.65063e-32
8.0386e-33
6.66488e-34
5.50483e-35
4.53657e-36
3.7246e-37
3.05026e-38
2.49228e-39
2.03276e-40
1.65441e-41
1.34422e-42
1.09056e-43
8.83613e-45
7.15135e-46
5.7824e-47
4.67202e-48
3.77318e-49
3.05136e-50
2.09423e-51
4.59752e-36
3.27773e-35
1.25992e-34
3.98568e-34
1.14281e-33
3.11078e-33
8.26562e-33
2.19181e-32
5.94886e-32
1.7142e-31
5.51581e-31
2.07502e-30
9.16763e-30
4.5516e-29
2.4465e-28
1.39256e-27
7.63108e-27
3.98073e-26
1.90107e-25
8.72178e-25
3.72737e-24
1.50212e-23
5.69803e-23
2.08088e-22
6.97641e-22
2.22201e-21
6.72035e-21
1.96094e-20
5.37457e-20
1.42736e-19
3.63618e-19
8.86917e-19
2.09926e-18
4.81197e-18
1.07365e-17
2.33037e-17
4.92643e-17
1.01411e-16
2.03786e-16
4.00283e-16
7.73415e-16
1.46148e-15
2.69086e-15
4.90051e-15
8.74865e-15
1.53228e-14
2.61012e-14
4.3576e-14
7.08583e-14
1.11137e-13
1.65189e-13
2.25253e-13
3.1397e-13
3.03558e-13
2.19495e-13
1.33497e-13
7.33828e-14
3.75303e-14
1.81192e-14
8.30674e-15
3.61625e-15
1.49007e-15
5.78198e-16
2.10171e-16
6.99701e-17
2.1617e-17
6.11185e-18
1.49084e-18
3.20163e-19
6.17466e-20