/*--------------------------------*- C++ -*----------------------------------*\
  =========                 |
  \\      /  F ield         | OpenFOAM: The Open Source CFD Toolbox
   \\    /   O peration     | Website:  https://openfoam.org
    \\  /    A nd           | Version:  10
     \\/     M anipulation  |
\*---------------------------------------------------------------------------*/
FoamFile
{
    format      ascii;
    class       surfaceScalarField;
    location    "1";
    object      phi;
}
// * * * * * * * * * * * * * * * * * * * * * * * * * * * * * * * * * * * * * //

dimensions      [1 0 -1 0 0 0 0];

internalField   nonuniform List<scalar> 
7860
(
5.44586e-07
-1.58098e-08
5.41514e-07
-4.75637e-08
5.37181e-07
-7.90913e-08
5.31558e-07
-1.10197e-07
5.24568e-07
-1.40861e-07
5.16097e-07
-1.71009e-07
5.06019e-07
-2.00519e-07
4.94204e-07
-2.2922e-07
4.80545e-07
-2.56888e-07
4.64986e-07
-2.83253e-07
4.47553e-07
-3.08003e-07
4.28312e-07
-3.30786e-07
4.07388e-07
-3.51219e-07
3.84972e-07
-3.68907e-07
3.61315e-07
-3.83488e-07
3.36715e-07
-3.94756e-07
3.11531e-07
-4.02532e-07
2.86149e-07
-4.0687e-07
2.60823e-07
-4.08768e-07
2.35824e-07
-4.07256e-07
2.11368e-07
-4.04156e-07
1.87674e-07
-3.9928e-07
1.64913e-07
-3.92497e-07
1.43118e-07
-3.85222e-07
1.22349e-07
-3.77345e-07
1.02585e-07
-3.69089e-07
8.38134e-08
-3.60594e-07
6.59536e-08
-3.51879e-07
4.89799e-08
-3.43444e-07
3.28429e-08
-3.35009e-07
1.74919e-08
-3.26774e-07
2.89475e-09
-3.18796e-07
-1.10055e-08
-3.10978e-07
-2.42592e-08
-3.03329e-07
-3.68967e-08
-2.95871e-07
-4.89458e-08
-2.88574e-07
-6.04385e-08
-2.81456e-07
-7.13887e-08
-2.74496e-07
-8.18209e-08
-2.67695e-07
-9.17536e-08
-2.61053e-07
-1.01202e-07
-2.54508e-07
-1.10186e-07
-2.48143e-07
-1.18728e-07
-2.42014e-07
-1.26844e-07
-2.36117e-07
-1.3455e-07
-2.3039e-07
-1.41872e-07
-2.24943e-07
-1.48843e-07
-2.19864e-07
-1.55509e-07
-2.15209e-07
-1.61926e-07
-2.11071e-07
-1.68182e-07
-2.07627e-07
-1.74413e-07
-2.05164e-07
-1.80816e-07
-2.04174e-07
-1.87559e-07
-2.05588e-07
-1.9481e-07
-2.09424e-07
-2.02654e-07
-2.1508e-07
-2.11275e-07
-2.22295e-07
-2.19969e-07
-2.3098e-07
-2.29543e-07
-2.41038e-07
-2.39988e-07
-2.52498e-07
-2.51333e-07
-2.65363e-07
-2.63591e-07
-2.79875e-07
-2.76949e-07
-2.95769e-07
-2.91662e-07
-3.13394e-07
-3.08072e-07
-3.32938e-07
-3.26218e-07
-3.54543e-07
-3.46668e-07
-3.78804e-07
-3.69683e-07
-4.05542e-07
-3.95788e-07
-4.35112e-07
-4.25557e-07
-4.69871e-07
-4.59139e-07
-5.07536e-07
-4.96699e-07
-5.44404e-07
-5.38595e-07
-5.83341e-07
-5.8418e-07
-6.1878e-07
-6.32409e-07
-6.47578e-07
-6.82295e-07
-6.67018e-07
-7.3231e-07
-6.7591e-07
-7.81138e-07
-6.74669e-07
-8.27751e-07
-6.6482e-07
-8.71475e-07
-6.48327e-07
-9.11936e-07
-6.27032e-07
-9.48985e-07
-6.02387e-07
-9.82606e-07
-5.75462e-07
-1.01285e-06
-5.46982e-07
-1.03977e-06
-5.1743e-07
-1.06334e-06
-4.87115e-07
-1.08383e-06
-4.56193e-07
-1.10156e-06
-4.2484e-07
-1.11681e-06
-3.93204e-07
-1.12986e-06
-3.61407e-07
-1.14094e-06
-3.29545e-07
-1.15029e-06
-2.97693e-07
-1.15812e-06
-2.65908e-07
-1.1646e-06
-2.34228e-07
-1.16992e-06
-2.02675e-07
-1.1742e-06
-1.71255e-07
-1.17759e-06
-1.39962e-07
-1.18019e-06
-1.08775e-07
-1.18207e-06
-7.76598e-08
-1.1833e-06
-4.6564e-08
-1.55019e-08
5.45527e-07
-1.5259e-08
5.43414e-07
-4.54512e-08
5.39656e-07
-7.5333e-08
5.34321e-07
-1.04862e-07
5.274e-07
-1.3394e-07
5.1885e-07
-1.62459e-07
5.08614e-07
-1.90283e-07
4.96637e-07
-2.17243e-07
4.82883e-07
-2.43134e-07
4.6735e-07
-2.6772e-07
4.50087e-07
-2.9074e-07
4.31184e-07
-3.11883e-07
4.10776e-07
-3.30811e-07
3.89043e-07
-3.47175e-07
3.66215e-07
-3.60659e-07
3.42549e-07
-3.71091e-07
3.18334e-07
-3.78317e-07
2.93899e-07
-3.82433e-07
2.69467e-07
-3.84335e-07
2.45288e-07
-3.83077e-07
2.21533e-07
-3.804e-07
1.98356e-07
-3.76101e-07
1.76023e-07
-3.70159e-07
1.54272e-07
-3.63469e-07
1.33381e-07
-3.56451e-07
1.1336e-07
-3.49049e-07
9.41981e-08
-3.41431e-07
7.58554e-08
-3.33536e-07
5.83383e-08
-3.25925e-07
4.16148e-08
-3.18282e-07
2.56572e-08
-3.10813e-07
1.04254e-08
-3.0358e-07
-4.12215e-09
-2.96451e-07
-1.80083e-08
-2.89447e-07
-3.1279e-08
-2.826e-07
-4.39535e-08
-2.75898e-07
-5.60491e-08
-2.6935e-07
-6.76025e-08
-2.62943e-07
-7.86273e-08
-2.56673e-07
-8.91425e-08
-2.50543e-07
-9.91659e-08
-2.44492e-07
-1.0872e-07
-2.38597e-07
-1.17829e-07
-2.32913e-07
-1.26522e-07
-2.27434e-07
-1.34823e-07
-2.22099e-07
-1.42766e-07
-2.17008e-07
-1.50387e-07
-2.1224e-07
-1.57752e-07
-2.07841e-07
-1.64927e-07
-2.03886e-07
-1.72005e-07
-2.00533e-07
-1.79092e-07
-1.9805e-07
-1.86311e-07
-1.96923e-07
-1.93732e-07
-1.98088e-07
-2.01547e-07
-2.01503e-07
-2.09818e-07
-2.06633e-07
-2.18606e-07
-2.13256e-07
-2.28415e-07
-2.21422e-07
-2.3888e-07
-2.30736e-07
-2.50097e-07
-2.41328e-07
-2.62254e-07
-2.53215e-07
-2.75336e-07
-2.66893e-07
-2.89742e-07
-2.81573e-07
-3.05506e-07
-2.97805e-07
-3.2263e-07
-3.15768e-07
-3.4157e-07
-3.35656e-07
-3.62728e-07
-3.57696e-07
-3.86125e-07
-3.8218e-07
-4.12018e-07
-4.09241e-07
-4.40792e-07
-4.41107e-07
-4.72701e-07
-4.75633e-07
-5.07745e-07
-5.09322e-07
-5.46238e-07
-5.44849e-07
-5.87765e-07
-5.77263e-07
-6.31433e-07
-6.03921e-07
-6.76318e-07
-6.22139e-07
-7.21391e-07
-6.3084e-07
-7.65705e-07
-6.30356e-07
-8.08495e-07
-6.22031e-07
-8.49216e-07
-6.07606e-07
-8.87531e-07
-5.88718e-07
-9.23264e-07
-5.66654e-07
-9.56354e-07
-5.42373e-07
-9.86807e-07
-5.16529e-07
-1.01465e-06
-4.89588e-07
-1.03986e-06
-4.61901e-07
-1.06251e-06
-4.33551e-07
-1.08267e-06
-4.04672e-07
-1.10049e-06
-3.75388e-07
-1.1161e-06
-3.45801e-07
-1.12965e-06
-3.15995e-07
-1.1413e-06
-2.86037e-07
-1.15122e-06
-2.55986e-07
-1.15957e-06
-2.25883e-07
-1.16648e-06
-1.95762e-07
-1.17209e-06
-1.65644e-07
-1.17652e-06
-1.35538e-07
-1.17985e-06
-1.05446e-07
-1.18215e-06
-7.53602e-08
-1.18344e-06
-4.52684e-08
-1.51224e-08
5.45164e-07
-1.43457e-08
5.42579e-07
-4.28659e-08
5.38354e-07
-7.11083e-08
5.32475e-07
-9.89829e-08
5.24933e-07
-1.26398e-07
5.15721e-07
-1.53247e-07
5.04838e-07
-1.794e-07
4.92298e-07
-2.04703e-07
4.78133e-07
-2.28969e-07
4.62393e-07
-2.51979e-07
4.45139e-07
-2.73486e-07
4.26472e-07
-2.93216e-07
4.06529e-07
-3.10867e-07
3.85486e-07
-3.26132e-07
3.63554e-07
-3.38728e-07
3.40964e-07
-3.48501e-07
3.17957e-07
-3.55309e-07
2.94772e-07
-3.59246e-07
2.71586e-07
-3.61145e-07
2.48683e-07
-3.60164e-07
2.26154e-07
-3.57863e-07
2.04093e-07
-3.54036e-07
1.82717e-07
-3.48785e-07
1.61771e-07
-3.42524e-07
1.41463e-07
-3.36147e-07
1.21803e-07
-3.29409e-07
1.02857e-07
-3.2249e-07
8.45994e-08
-3.15281e-07
6.70246e-08
-3.08354e-07
5.01159e-08
-3.01371e-07
3.38878e-08
-2.94556e-07
1.83342e-08
-2.87951e-07
3.41055e-09
-2.81438e-07
-1.09602e-08
-2.75056e-07
-2.47632e-08
-2.68794e-07
-3.80042e-08
-2.62658e-07
-5.07024e-08
-2.56654e-07
-6.28796e-08
-2.50769e-07
-7.45555e-08
-2.45003e-07
-8.57547e-08
-2.39354e-07
-9.64881e-08
-2.33764e-07
-1.06785e-07
-2.28305e-07
-1.16675e-07
-2.23031e-07
-1.26189e-07
-2.17928e-07
-1.35356e-07
-2.12937e-07
-1.44212e-07
-2.08152e-07
-1.528e-07
-2.03648e-07
-1.61178e-07
-1.99455e-07
-1.69416e-07
-1.95649e-07
-1.77585e-07
-1.92378e-07
-1.85762e-07
-1.89902e-07
-1.93947e-07
-1.88703e-07
-2.02293e-07
-1.89726e-07
-2.1095e-07
-1.92819e-07
-2.20034e-07
-1.97504e-07
-2.29571e-07
-2.03572e-07
-2.39869e-07
-2.11066e-07
-2.50874e-07
-2.1964e-07
-2.6269e-07
-2.29393e-07
-2.75505e-07
-2.4033e-07
-2.891e-07
-2.53079e-07
-3.03921e-07
-2.66627e-07
-3.20066e-07
-2.81623e-07
-3.37593e-07
-2.9821e-07
-3.56585e-07
-3.1661e-07
-3.77269e-07
-3.36985e-07
-3.99734e-07
-3.59704e-07
-4.24071e-07
-3.84898e-07
-4.5059e-07
-4.14581e-07
-4.79628e-07
-4.46585e-07
-5.11408e-07
-4.77565e-07
-5.45992e-07
-5.10249e-07
-5.8311e-07
-5.40128e-07
-6.22552e-07
-5.64473e-07
-6.63608e-07
-5.81081e-07
-7.05459e-07
-5.88988e-07
-7.47207e-07
-5.88609e-07
-7.88065e-07
-5.81174e-07
-8.27427e-07
-5.68245e-07
-8.6488e-07
-5.51265e-07
-9.00161e-07
-5.31372e-07
-9.33142e-07
-5.09392e-07
-9.63781e-07
-4.8589e-07
-9.92107e-07
-4.61262e-07
-1.01823e-06
-4.35777e-07
-1.04216e-06
-4.09619e-07
-1.06392e-06
-3.82915e-07
-1.08354e-06
-3.55764e-07
-1.1011e-06
-3.28244e-07
-1.11667e-06
-3.00422e-07
-1.13036e-06
-2.72356e-07
-1.14225e-06
-2.44095e-07
-1.15245e-06
-2.15682e-07
-1.16106e-06
-1.8715e-07
-1.16818e-06
-1.58527e-07
-1.17388e-06
-1.29831e-07
-1.17825e-06
-1.01077e-07
-1.18134e-06
-7.22716e-08
-1.18319e-06
-4.34155e-08
-1.44947e-08
5.45245e-07
-1.3513e-08
5.42709e-07
-4.03304e-08
5.38473e-07
-6.68716e-08
5.32547e-07
-9.30577e-08
5.24944e-07
-1.18795e-07
5.15676e-07
-1.43979e-07
5.04763e-07
-1.68487e-07
4.92233e-07
-1.92173e-07
4.78131e-07
-2.14867e-07
4.62518e-07
-2.36366e-07
4.45476e-07
-2.56444e-07
4.27113e-07
-2.74854e-07
4.07569e-07
-2.91323e-07
3.87011e-07
-3.05574e-07
3.65633e-07
-3.17349e-07
3.43643e-07
-3.26511e-07
3.21265e-07
-3.3293e-07
2.98698e-07
-3.36676e-07
2.76109e-07
-3.3855e-07
2.53737e-07
-3.37791e-07
2.31655e-07
-3.35784e-07
2.09979e-07
-3.32371e-07
1.88845e-07
-3.27667e-07
1.68208e-07
-3.21914e-07
1.48143e-07
-3.16087e-07
1.28692e-07
-3.09961e-07
1.09863e-07
-3.03662e-07
9.16507e-08
-2.97071e-07
7.40435e-08
-2.90748e-07
5.70443e-08
-2.84368e-07
4.06356e-08
-2.78143e-07
2.47335e-08
-2.72127e-07
9.4173e-09
-2.66174e-07
-5.32492e-09
-2.60328e-07
-1.95409e-08
-2.54583e-07
-3.32487e-08
-2.48952e-07
-4.6466e-08
-2.43438e-07
-5.92069e-08
-2.3803e-07
-7.14899e-08
-2.32722e-07
-8.33245e-08
-2.27509e-07
-9.47437e-08
-2.22342e-07
-1.05767e-07
-2.17283e-07
-1.16418e-07
-2.12382e-07
-1.26729e-07
-2.07621e-07
-1.36729e-07
-2.02942e-07
-1.46452e-07
-1.98433e-07
-1.5593e-07
-1.94172e-07
-1.65227e-07
-1.90171e-07
-1.74389e-07
-1.86507e-07
-1.83469e-07
-1.83328e-07
-1.92517e-07
-1.80893e-07
-2.01551e-07
-1.79689e-07
-2.10672e-07
-1.80635e-07
-2.20038e-07
-1.83486e-07
-2.29768e-07
-1.87821e-07
-2.39996e-07
-1.93458e-07
-2.50831e-07
-2.00385e-07
-2.62388e-07
-2.08318e-07
-2.7475e-07
-2.17314e-07
-2.87913e-07
-2.27383e-07
-3.02138e-07
-2.39168e-07
-3.17246e-07
-2.5164e-07
-3.33428e-07
-2.6544e-07
-3.50795e-07
-2.80683e-07
-3.69538e-07
-2.97647e-07
-3.8983e-07
-3.1656e-07
-4.11825e-07
-3.37639e-07
-4.35551e-07
-3.61141e-07
-4.61301e-07
-3.88818e-07
-4.89362e-07
-4.18521e-07
-5.19906e-07
-4.47024e-07
-5.52897e-07
-4.77259e-07
-5.88266e-07
-5.0476e-07
-6.25708e-07
-5.27032e-07
-6.64637e-07
-5.42153e-07
-7.04303e-07
-5.49323e-07
-7.43935e-07
-5.48977e-07
-7.82872e-07
-5.42238e-07
-8.20608e-07
-5.30509e-07
-8.56789e-07
-5.15084e-07
-8.91177e-07
-4.96985e-07
-9.23617e-07
-4.76952e-07
-9.5402e-07
-4.55488e-07
-9.82346e-07
-4.32936e-07
-1.0086e-06
-4.09525e-07
-1.0328e-06
-3.85417e-07
-1.05499e-06
-3.60727e-07
-1.0752e-06
-3.35547e-07
-1.0935e-06
-3.0995e-07
-1.10992e-06
-2.83998e-07
-1.12454e-06
-2.57744e-07
-1.1374e-06
-2.31235e-07
-1.14857e-06
-2.04512e-07
-1.15811e-06
-1.7761e-07
-1.16607e-06
-1.5056e-07
-1.17252e-06
-1.23386e-07
-1.17749e-06
-9.6109e-08
-1.18101e-06
-6.87454e-08
-1.18312e-06
-4.13072e-08
-1.37933e-08
5.45194e-07
-1.26291e-08
5.42573e-07
-3.771e-08
5.38236e-07
-6.25339e-08
5.32196e-07
-8.70181e-08
5.24475e-07
-1.11074e-07
5.15099e-07
-1.34603e-07
5.04101e-07
-1.57489e-07
4.91528e-07
-1.796e-07
4.77437e-07
-2.00776e-07
4.61903e-07
-2.20832e-07
4.45022e-07
-2.39563e-07
4.26907e-07
-2.56739e-07
4.07698e-07
-2.72115e-07
3.87557e-07
-2.85432e-07
3.66663e-07
-2.96456e-07
3.45207e-07
-3.05056e-07
3.23386e-07
-3.11112e-07
3.01389e-07
-3.14684e-07
2.79352e-07
-3.16521e-07
2.57485e-07
-3.15922e-07
2.35864e-07
-3.14136e-07
2.14572e-07
-3.11055e-07
1.93769e-07
-3.0684e-07
1.73445e-07
-3.01562e-07
1.53629e-07
-2.96268e-07
1.34349e-07
-2.90678e-07
1.15603e-07
-2.84915e-07
9.741e-08
-2.78874e-07
7.97619e-08
-2.73097e-07
6.26437e-08
-2.67257e-07
4.6017e-08
-2.61547e-07
2.99236e-08
-2.56034e-07
1.43382e-08
-2.50589e-07
-7.45325e-10
-2.45245e-07
-1.53518e-08
-2.39977e-07
-2.9492e-08
-2.34811e-07
-4.31803e-08
-2.29748e-07
-5.64305e-08
-2.24775e-07
-6.92564e-08
-2.19884e-07
-8.16895e-08
-2.15077e-07
-9.37345e-08
-2.10298e-07
-1.05413e-07
-2.05605e-07
-1.16749e-07
-2.01047e-07
-1.2777e-07
-1.96601e-07
-1.38505e-07
-1.92214e-07
-1.48993e-07
-1.87967e-07
-1.59218e-07
-1.83932e-07
-1.69278e-07
-1.80122e-07
-1.79206e-07
-1.7661e-07
-1.89047e-07
-1.73544e-07
-1.98852e-07
-1.71175e-07
-2.0854e-07
-1.69978e-07
-2.18352e-07
-1.7087e-07
-2.28396e-07
-1.73495e-07
-2.38739e-07
-1.77482e-07
-2.49403e-07
-1.82674e-07
-2.60576e-07
-1.89025e-07
-2.7236e-07
-1.96332e-07
-2.84935e-07
-2.04643e-07
-2.98393e-07
-2.13936e-07
-3.12773e-07
-2.24712e-07
-3.27963e-07
-2.36194e-07
-3.44291e-07
-2.48968e-07
-3.61834e-07
-2.63159e-07
-3.80686e-07
-2.78898e-07
-4.00852e-07
-2.96437e-07
-4.22528e-07
-3.15975e-07
-4.45355e-07
-3.38309e-07
-4.70215e-07
-3.63952e-07
-4.97251e-07
-3.91483e-07
-5.26315e-07
-4.17964e-07
-5.57645e-07
-4.45935e-07
-5.91293e-07
-4.71115e-07
-6.26905e-07
-4.91421e-07
-6.63932e-07
-5.05127e-07
-7.01715e-07
-5.11539e-07
-7.39593e-07
-5.111e-07
-7.76987e-07
-5.04844e-07
-8.13442e-07
-4.94055e-07
-8.48622e-07
-4.79904e-07
-8.82298e-07
-4.63309e-07
-9.14316e-07
-4.44934e-07
-9.44573e-07
-4.25231e-07
-9.73005e-07
-4.04504e-07
-9.99574e-07
-3.82956e-07
-1.02426e-06
-3.60728e-07
-1.04707e-06
-3.37922e-07
-1.068e-06
-3.14616e-07
-1.08707e-06
-2.90874e-07
-1.10432e-06
-2.66749e-07
-1.11978e-06
-2.4229e-07
-1.13347e-06
-2.1754e-07
-1.14545e-06
-1.92538e-07
-1.15574e-06
-1.6732e-07
-1.16438e-06
-1.41917e-07
-1.17141e-06
-1.16359e-07
-1.17685e-06
-9.0669e-08
-1.18072e-06
-6.48708e-08
-1.18304e-06
-3.8983e-08
-1.30162e-08
5.45206e-07
-1.17571e-08
5.42597e-07
-3.51012e-08
5.38268e-07
-5.82047e-08
5.3224e-07
-8.09906e-08
5.24541e-07
-1.03375e-07
5.15203e-07
-1.25265e-07
5.04267e-07
-1.46553e-07
4.91784e-07
-1.67117e-07
4.77817e-07
-1.86809e-07
4.62444e-07
-2.05459e-07
4.45759e-07
-2.22878e-07
4.27878e-07
-2.38858e-07
4.08935e-07
-2.53172e-07
3.89085e-07
-2.65583e-07
3.68503e-07
-2.75874e-07
3.4737e-07
-2.83923e-07
3.25877e-07
-2.8962e-07
3.04205e-07
-2.93014e-07
2.82483e-07
-2.94802e-07
2.60913e-07
-2.94367e-07
2.39524e-07
-2.92808e-07
2.18456e-07
-2.90017e-07
1.97838e-07
-2.86243e-07
1.77693e-07
-2.81426e-07
1.58015e-07
-2.76593e-07
1.38801e-07
-2.71467e-07
1.20082e-07
-2.66196e-07
1.01863e-07
-2.60657e-07
8.41446e-08
-2.55381e-07
6.69027e-08
-2.50025e-07
5.01273e-08
-2.44788e-07
3.38329e-08
-2.39745e-07
1.80042e-08
-2.34763e-07
2.63079e-09
-2.29873e-07
-1.23001e-08
-2.25046e-07
-2.68039e-08
-2.20308e-07
-4.08928e-08
-2.1566e-07
-5.45825e-08
-2.11087e-07
-6.78893e-08
-2.06584e-07
-8.08223e-08
-2.02146e-07
-9.33962e-08
-1.97725e-07
-1.05629e-07
-1.93372e-07
-1.1754e-07
-1.89134e-07
-1.29153e-07
-1.84986e-07
-1.40485e-07
-1.80877e-07
-1.5156e-07
-1.76882e-07
-1.62399e-07
-1.73081e-07
-1.73041e-07
-1.69472e-07
-1.83556e-07
-1.66129e-07
-1.93955e-07
-1.63205e-07
-2.04281e-07
-1.60937e-07
-2.14501e-07
-1.59797e-07
-2.24809e-07
-1.60662e-07
-2.35351e-07
-1.63105e-07
-2.46201e-07
-1.66791e-07
-2.57236e-07
-1.7165e-07
-2.68825e-07
-1.77484e-07
-2.81007e-07
-1.84224e-07
-2.93747e-07
-1.91875e-07
-3.07101e-07
-2.00441e-07
-3.21633e-07
-2.10234e-07
-3.37122e-07
-2.20904e-07
-3.53438e-07
-2.32705e-07
-3.70829e-07
-2.45789e-07
-3.89431e-07
-2.60309e-07
-4.09353e-07
-2.76522e-07
-4.30784e-07
-2.94547e-07
-4.53341e-07
-3.15741e-07
-4.77789e-07
-3.39503e-07
-5.04307e-07
-3.64968e-07
-5.32758e-07
-3.89527e-07
-5.63419e-07
-4.15287e-07
-5.96203e-07
-4.38342e-07
-6.30797e-07
-4.56833e-07
-6.66714e-07
-4.69211e-07
-7.03358e-07
-4.74897e-07
-7.40116e-07
-4.74342e-07
-7.76456e-07
-4.68505e-07
-8.11956e-07
-4.58555e-07
-8.46308e-07
-4.45553e-07
-8.79291e-07
-4.30326e-07
-9.1076e-07
-4.13465e-07
-9.40615e-07
-3.95376e-07
-9.6879e-07
-3.76329e-07
-9.95242e-07
-3.56504e-07
-1.01994e-06
-3.36026e-07
-1.04288e-06
-3.14985e-07
-1.06405e-06
-2.93449e-07
-1.08345e-06
-2.71475e-07
-1.10109e-06
-2.49112e-07
-1.11697e-06
-2.26403e-07
-1.13112e-06
-2.03388e-07
-1.14356e-06
-1.80104e-07
-1.15429e-06
-1.56587e-07
-1.16334e-06
-1.32867e-07
-1.17073e-06
-1.08974e-07
-1.17646e-06
-8.49373e-08
-1.18055e-06
-6.07811e-08
-1.183e-06
-3.65289e-08
-1.21972e-08
5.45204e-07
-1.08833e-08
5.42598e-07
-3.24954e-08
5.38279e-07
-5.38858e-08
5.32271e-07
-7.49822e-08
5.24602e-07
-9.57065e-08
5.1531e-07
-1.15972e-07
5.04438e-07
-1.35682e-07
4.92041e-07
-1.5472e-07
4.78186e-07
-1.72953e-07
4.62953e-07
-1.90226e-07
4.46438e-07
-2.06363e-07
4.28755e-07
-2.21176e-07
4.10036e-07
-2.34454e-07
3.90433e-07
-2.4598e-07
3.70113e-07
-2.55555e-07
3.49249e-07
-2.63062e-07
3.28024e-07
-2.68398e-07
3.06609e-07
-2.71607e-07
2.85127e-07
-2.73331e-07
2.63783e-07
-2.73034e-07
2.42643e-07
-2.71656e-07
2.21766e-07
-2.69145e-07
2.01277e-07
-2.65759e-07
1.81213e-07
-2.61366e-07
1.61565e-07
-2.56948e-07
1.42366e-07
-2.52269e-07
1.23626e-07
-2.47457e-07
1.05362e-07
-2.42388e-07
8.75554e-08
-2.37565e-07
7.01956e-08
-2.32661e-07
5.32774e-08
-2.27871e-07
3.67971e-08
-2.23268e-07
2.07467e-08
-2.18718e-07
5.11914e-09
-2.14247e-07
-1.0098e-08
-2.0983e-07
-2.4917e-08
-2.05489e-07
-3.93511e-08
-2.01226e-07
-5.34115e-08
-1.97027e-07
-6.71105e-08
-1.92885e-07
-8.046e-08
-1.88797e-07
-9.34704e-08
-1.84715e-07
-1.06156e-07
-1.80688e-07
-1.18533e-07
-1.76758e-07
-1.3062e-07
-1.72899e-07
-1.42433e-07
-1.69065e-07
-1.5399e-07
-1.65327e-07
-1.65315e-07
-1.61763e-07
-1.76446e-07
-1.58367e-07
-1.87384e-07
-1.552e-07
-1.98194e-07
-1.52432e-07
-2.08921e-07
-1.5028e-07
-2.19511e-07
-1.49204e-07
-2.30176e-07
-1.50029e-07
-2.41071e-07
-1.52295e-07
-2.52407e-07
-1.5568e-07
-2.63657e-07
-1.6011e-07
-2.75481e-07
-1.65421e-07
-2.87861e-07
-1.71624e-07
-3.00788e-07
-1.78681e-07
-3.14359e-07
-1.86633e-07
-3.28935e-07
-1.95547e-07
-3.44394e-07
-2.05421e-07
-3.60756e-07
-2.16358e-07
-3.78094e-07
-2.2847e-07
-3.96519e-07
-2.41894e-07
-4.16187e-07
-2.56856e-07
-4.3719e-07
-2.73539e-07
-4.59551e-07
-2.93335e-07
-4.83749e-07
-3.15278e-07
-5.09902e-07
-3.38809e-07
-5.38034e-07
-3.614e-07
-5.68245e-07
-3.85084e-07
-6.00378e-07
-4.06215e-07
-6.3417e-07
-4.23049e-07
-6.69187e-07
-4.34199e-07
-7.0489e-07
-4.39198e-07
-7.40724e-07
-4.38508e-07
-7.76205e-07
-4.33025e-07
-8.10943e-07
-4.23817e-07
-8.44649e-07
-4.11847e-07
-8.77115e-07
-3.9786e-07
-9.08192e-07
-3.82387e-07
-9.37777e-07
-3.65791e-07
-9.65796e-07
-3.4831e-07
-9.92195e-07
-3.30105e-07
-1.01694e-06
-3.11286e-07
-1.03999e-06
-2.9193e-07
-1.06134e-06
-2.72099e-07
-1.08097e-06
-2.51841e-07
-1.09889e-06
-2.312e-07
-1.11507e-06
-2.10215e-07
-1.12954e-06
-1.88923e-07
-1.14229e-06
-1.67358e-07
-1.15332e-06
-1.45554e-07
-1.16264e-06
-1.23541e-07
-1.17027e-06
-1.01351e-07
-1.1762e-06
-7.90101e-08
-1.18043e-06
-5.6547e-08
-1.18297e-06
-3.39863e-08
-1.13484e-08
5.45212e-07
-1.00175e-08
5.42626e-07
-2.99096e-08
5.38339e-07
-4.95986e-08
5.32375e-07
-6.90181e-08
5.24764e-07
-8.80962e-08
5.15545e-07
-1.06753e-07
5.04764e-07
-1.249e-07
4.92474e-07
-1.42431e-07
4.78745e-07
-1.59224e-07
4.63654e-07
-1.75136e-07
4.47299e-07
-1.90008e-07
4.29789e-07
-2.03667e-07
4.11255e-07
-2.1592e-07
3.91844e-07
-2.26569e-07
3.71717e-07
-2.35429e-07
3.51045e-07
-2.42391e-07
3.30005e-07
-2.4736e-07
3.08768e-07
-2.50371e-07
2.87448e-07
-2.52013e-07
2.66244e-07
-2.51826e-07
2.45242e-07
-2.50614e-07
2.24473e-07
-2.48367e-07
2.04039e-07
-2.45323e-07
1.84005e-07
-2.41332e-07
1.64378e-07
-2.3732e-07
1.45175e-07
-2.33068e-07
1.26402e-07
-2.2869e-07
1.08061e-07
-2.24071e-07
9.01454e-08
-2.19671e-07
7.26702e-08
-2.15192e-07
5.5619e-08
-2.10823e-07
3.89761e-08
-2.06629e-07
2.27403e-08
-2.02479e-07
6.89645e-09
-1.98402e-07
-8.56215e-09
-1.94371e-07
-2.36463e-08
-1.90405e-07
-3.83674e-08
-1.86505e-07
-5.27345e-08
-1.8266e-07
-6.67576e-08
-1.78863e-07
-8.04473e-08
-1.75109e-07
-9.38114e-08
-1.71353e-07
-1.06862e-07
-1.67639e-07
-1.19611e-07
-1.64011e-07
-1.32076e-07
-1.60436e-07
-1.44266e-07
-1.56875e-07
-1.56197e-07
-1.53396e-07
-1.67889e-07
-1.5007e-07
-1.79366e-07
-1.46892e-07
-1.90636e-07
-1.43925e-07
-2.0174e-07
-1.41322e-07
-2.12714e-07
-1.39296e-07
-2.23626e-07
-1.38296e-07
-2.34563e-07
-1.39076e-07
-2.456e-07
-1.41146e-07
-2.56607e-07
-1.44257e-07
-2.68695e-07
-1.48523e-07
-2.80892e-07
-1.53399e-07
-2.93491e-07
-1.59063e-07
-3.06713e-07
-1.65533e-07
-3.20612e-07
-1.72807e-07
-3.35172e-07
-1.80925e-07
-3.50595e-07
-1.89979e-07
-3.66988e-07
-2.00039e-07
-3.84318e-07
-2.11211e-07
-4.02633e-07
-2.23628e-07
-4.22114e-07
-2.37397e-07
-4.42864e-07
-2.52719e-07
-4.65118e-07
-2.71098e-07
-4.89038e-07
-2.91304e-07
-5.14858e-07
-3.12956e-07
-5.42615e-07
-3.33622e-07
-5.72472e-07
-3.55202e-07
-6.04276e-07
-3.74425e-07
-6.37693e-07
-3.89647e-07
-6.72261e-07
-3.9964e-07
-7.07446e-07
-4.04017e-07
-7.42718e-07
-4.03238e-07
-7.77621e-07
-3.98123e-07
-8.11796e-07
-3.89643e-07
-8.44978e-07
-3.78665e-07
-8.76977e-07
-3.65862e-07
-9.07656e-07
-3.51708e-07
-9.36918e-07
-3.36529e-07
-9.6469e-07
-3.20538e-07
-9.90918e-07
-3.03878e-07
-1.01556e-06
-2.86645e-07
-1.03858e-06
-2.6891e-07
-1.05995e-06
-2.50725e-07
-1.07966e-06
-2.32134e-07
-1.09768e-06
-2.13176e-07
-1.11401e-06
-1.93886e-07
-1.12864e-06
-1.74298e-07
-1.14155e-06
-1.54443e-07
-1.15275e-06
-1.34353e-07
-1.16223e-06
-1.14058e-07
-1.17e-06
-9.35869e-08
-1.17604e-06
-7.29675e-08
-1.18036e-06
-5.22272e-08
-1.18296e-06
-3.13915e-08
-1.04825e-08
5.45218e-07
-9.15804e-09
5.42652e-07
-2.73434e-08
5.38398e-07
-4.53442e-08
5.32479e-07
-6.30999e-08
5.24928e-07
-8.0545e-08
5.15782e-07
-9.76073e-08
5.05087e-07
-1.14205e-07
4.92898e-07
-1.30242e-07
4.79282e-07
-1.45608e-07
4.64318e-07
-1.60172e-07
4.481e-07
-1.7379e-07
4.30737e-07
-1.86304e-07
4.12355e-07
-1.97539e-07
3.93098e-07
-2.07313e-07
3.73126e-07
-2.15457e-07
3.52604e-07
-2.2187e-07
3.31708e-07
-2.26463e-07
3.10607e-07
-2.29267e-07
2.89419e-07
-2.3082e-07
2.68327e-07
-2.30733e-07
2.47356e-07
-2.29682e-07
2.26654e-07
-2.27668e-07
2.06262e-07
-2.2493e-07
1.86243e-07
-2.21311e-07
1.66604e-07
-2.17679e-07
1.47362e-07
-2.13821e-07
1.28541e-07
-2.09848e-07
1.10142e-07
-2.05651e-07
9.21462e-08
-2.01662e-07
7.45619e-08
-1.97603e-07
5.73818e-08
-1.93639e-07
4.05927e-08
-1.89834e-07
2.41848e-08
-1.8607e-07
8.15207e-09
-1.8237e-07
-7.51247e-09
-1.78707e-07
-2.2819e-08
-1.75099e-07
-3.77765e-08
-1.71549e-07
-5.23933e-08
-1.68044e-07
-6.66777e-08
-1.6458e-07
-8.06387e-08
-1.61149e-07
-9.42821e-08
-1.57711e-07
-1.07618e-07
-1.54306e-07
-1.20657e-07
-1.50974e-07
-1.33413e-07
-1.47684e-07
-1.45894e-07
-1.44399e-07
-1.58111e-07
-1.41183e-07
-1.70081e-07
-1.38101e-07
-1.81818e-07
-1.35151e-07
-1.93332e-07
-1.32397e-07
-2.04642e-07
-1.29973e-07
-2.15759e-07
-1.28096e-07
-2.26876e-07
-1.27201e-07
-2.37994e-07
-1.27947e-07
-2.4929e-07
-1.29861e-07
-2.6094e-07
-1.32714e-07
-2.72717e-07
-1.36539e-07
-2.85025e-07
-1.41006e-07
-2.97898e-07
-1.46217e-07
-3.11364e-07
-1.52145e-07
-3.25469e-07
-1.58798e-07
-3.40248e-07
-1.66208e-07
-3.55792e-07
-1.7444e-07
-3.72159e-07
-1.83596e-07
-3.89517e-07
-1.93795e-07
-4.07724e-07
-2.05397e-07
-4.27179e-07
-2.17973e-07
-4.48045e-07
-2.32023e-07
-4.70353e-07
-2.48864e-07
-4.94371e-07
-2.67387e-07
-5.20207e-07
-2.87171e-07
-5.47805e-07
-3.06051e-07
-5.77381e-07
-3.25653e-07
-6.08797e-07
-3.43009e-07
-6.41767e-07
-3.56675e-07
-6.75834e-07
-3.65575e-07
-7.10475e-07
-3.69379e-07
-7.4519e-07
-3.68526e-07
-7.79547e-07
-3.63766e-07
-8.13212e-07
-3.55979e-07
-8.45932e-07
-3.45945e-07
-8.77526e-07
-3.34268e-07
-9.07862e-07
-3.21373e-07
-9.36841e-07
-3.0755e-07
-9.6439e-07
-2.92989e-07
-9.90451e-07
-2.77817e-07
-1.01498e-06
-2.62119e-07
-1.03793e-06
-2.45957e-07
-1.05928e-06
-2.29377e-07
-1.07899e-06
-2.12417e-07
-1.09706e-06
-1.95113e-07
-1.11345e-06
-1.77496e-07
-1.12815e-06
-1.59596e-07
-1.14115e-06
-1.41443e-07
-1.15244e-06
-1.23064e-07
-1.16201e-06
-1.0449e-07
-1.16985e-06
-8.57462e-08
-1.17595e-06
-6.68605e-08
-1.18032e-06
-4.78593e-08
-1.18295e-06
-2.87674e-08
-9.60699e-09
5.45225e-07
-8.30577e-09
5.4268e-07
-2.4798e-08
5.38459e-07
-4.11236e-08
5.32588e-07
-5.72284e-08
5.25096e-07
-7.30531e-08
5.16021e-07
-8.85326e-08
5.05409e-07
-1.03593e-07
4.93314e-07
-1.18148e-07
4.79803e-07
-1.32096e-07
4.64952e-07
-1.45321e-07
4.48855e-07
-1.57693e-07
4.31617e-07
-1.69067e-07
4.13364e-07
-1.79286e-07
3.94235e-07
-1.88184e-07
3.74387e-07
-1.95609e-07
3.53983e-07
-2.01466e-07
3.33193e-07
-2.05673e-07
3.12182e-07
-2.08256e-07
2.9107e-07
-2.09705e-07
2.70038e-07
-2.09687e-07
2.49135e-07
-2.08769e-07
2.28457e-07
-2.06988e-07
2.08067e-07
-2.04539e-07
1.88038e-07
-2.01284e-07
1.68373e-07
-1.98018e-07
1.49093e-07
-1.94548e-07
1.30196e-07
-1.90971e-07
1.1172e-07
-1.87182e-07
9.36445e-08
-1.83585e-07
7.59668e-08
-1.79924e-07
5.86744e-08
-1.76347e-07
4.17551e-08
-1.72916e-07
2.52047e-08
-1.69521e-07
9.01529e-09
-1.66181e-07
-6.81984e-09
-1.62873e-07
-2.23083e-08
-1.59612e-07
-3.74582e-08
-1.564e-07
-5.22764e-08
-1.53228e-07
-6.67702e-08
-1.50088e-07
-8.09463e-08
-1.46975e-07
-9.48087e-08
-1.43851e-07
-1.08365e-07
-1.40753e-07
-1.21625e-07
-1.37717e-07
-1.346e-07
-1.34712e-07
-1.47293e-07
-1.31709e-07
-1.59714e-07
-1.28767e-07
-1.71877e-07
-1.25944e-07
-1.83798e-07
-1.23238e-07
-1.955e-07
-1.20716e-07
-2.07016e-07
-1.18494e-07
-2.18406e-07
-1.16776e-07
-2.29576e-07
-1.15956e-07
-2.40828e-07
-1.1666e-07
-2.52246e-07
-1.18419e-07
-2.63924e-07
-1.21005e-07
-2.76008e-07
-1.24455e-07
-2.88513e-07
-1.28505e-07
-3.01495e-07
-1.33245e-07
-3.15032e-07
-1.38638e-07
-3.29205e-07
-1.4469e-07
-3.44134e-07
-1.51436e-07
-3.59821e-07
-1.58915e-07
-3.76276e-07
-1.67194e-07
-3.93712e-07
-1.76369e-07
-4.12045e-07
-1.87063e-07
-4.31504e-07
-1.98474e-07
-4.52251e-07
-2.11221e-07
-4.74537e-07
-2.26568e-07
-4.98501e-07
-2.43405e-07
-5.24403e-07
-2.61263e-07
-5.52077e-07
-2.78367e-07
-5.8161e-07
-2.9611e-07
-6.12897e-07
-3.1173e-07
-6.45626e-07
-3.23951e-07
-6.79366e-07
-3.3184e-07
-7.13624e-07
-3.35125e-07
-7.47926e-07
-3.34227e-07
-7.81867e-07
-3.29827e-07
-8.15125e-07
-3.22721e-07
-8.47465e-07
-3.13605e-07
-8.78712e-07
-3.03021e-07
-9.08738e-07
-2.91347e-07
-9.3745e-07
-2.78839e-07
-9.64772e-07
-2.65666e-07
-9.90648e-07
-2.51941e-07
-1.01503e-06
-2.37739e-07
-1.03787e-06
-2.23113e-07
-1.05914e-06
-2.08104e-07
-1.07881e-06
-1.92748e-07
-1.09685e-06
-1.77073e-07
-1.11324e-06
-1.61108e-07
-1.12796e-06
-1.44881e-07
-1.14098e-06
-1.28417e-07
-1.1523e-06
-1.11744e-07
-1.16191e-06
-9.48876e-08
-1.16978e-06
-7.78729e-08
-1.17591e-06
-6.07252e-08
-1.1803e-06
-4.34697e-08
-1.18294e-06
-2.613e-08
-8.72717e-09
5.45232e-07
-7.45986e-09
5.42705e-07
-2.22714e-08
5.38515e-07
-3.69339e-08
5.32686e-07
-5.13993e-08
5.25248e-07
-6.56147e-08
5.16237e-07
-7.95217e-08
5.05698e-07
-9.30543e-08
4.93686e-07
-1.06135e-07
4.80264e-07
-1.18675e-07
4.6551e-07
-1.30567e-07
4.49513e-07
-1.41696e-07
4.32379e-07
-1.51933e-07
4.14229e-07
-1.61136e-07
3.952e-07
-1.69156e-07
3.7545e-07
-1.75857e-07
3.55136e-07
-1.81149e-07
3.34428e-07
-1.84961e-07
3.13488e-07
-1.87316e-07
2.92434e-07
-1.88656e-07
2.71421e-07
-1.88689e-07
2.50544e-07
-1.87897e-07
2.29877e-07
-1.86324e-07
2.09482e-07
-1.84147e-07
1.89439e-07
-1.81244e-07
1.69747e-07
-1.7833e-07
1.50426e-07
-1.75232e-07
1.31484e-07
-1.72038e-07
1.12946e-07
-1.6865e-07
9.47846e-08
-1.65436e-07
7.70128e-08
-1.62162e-07
5.96206e-08
-1.5896e-07
4.25914e-08
-1.55891e-07
2.59184e-08
-1.52854e-07
9.59807e-09
-1.49864e-07
-6.37692e-09
-1.469e-07
-2.20135e-08
-1.43977e-07
-3.73189e-08
-1.41096e-07
-5.22991e-08
-1.38249e-07
-6.69598e-08
-1.35429e-07
-8.13062e-08
-1.32631e-07
-9.53403e-08
-1.29819e-07
-1.09067e-07
-1.27029e-07
-1.22494e-07
-1.24292e-07
-1.35645e-07
-1.21563e-07
-1.48504e-07
-1.18853e-07
-1.61083e-07
-1.16192e-07
-1.73397e-07
-1.13638e-07
-1.85461e-07
-1.11189e-07
-1.973e-07
-1.08907e-07
-2.08952e-07
-1.06897e-07
-2.20488e-07
-1.05345e-07
-2.31779e-07
-1.04608e-07
-2.43135e-07
-1.05248e-07
-2.54578e-07
-1.06828e-07
-2.66042e-07
-1.09174e-07
-2.78654e-07
-1.1236e-07
-2.91436e-07
-1.16015e-07
-3.04604e-07
-1.20258e-07
-3.18243e-07
-1.2508e-07
-3.32462e-07
-1.30498e-07
-3.47363e-07
-1.36538e-07
-3.63008e-07
-1.43247e-07
-3.79521e-07
-1.50694e-07
-3.96944e-07
-1.58958e-07
-4.15435e-07
-1.68573e-07
-4.34989e-07
-1.78887e-07
-4.55925e-07
-1.90401e-07
-4.78218e-07
-2.04231e-07
-5.02195e-07
-2.1939e-07
-5.281e-07
-2.35325e-07
-5.55785e-07
-2.50666e-07
-5.85329e-07
-2.66568e-07
-6.16532e-07
-2.80542e-07
-6.49092e-07
-2.91396e-07
-6.82596e-07
-2.98338e-07
-7.1657e-07
-3.01153e-07
-7.50559e-07
-3.00239e-07
-7.84175e-07
-2.96212e-07
-8.17114e-07
-2.89783e-07
-8.49147e-07
-2.81572e-07
-8.80108e-07
-2.7206e-07
-9.09875e-07
-2.6158e-07
-9.38355e-07
-2.50359e-07
-9.65476e-07
-2.38546e-07
-9.91178e-07
-2.26239e-07
-1.01541e-06
-2.13503e-07
-1.03814e-06
-2.00387e-07
-1.05932e-06
-1.86926e-07
-1.07892e-06
-1.73149e-07
-1.09691e-06
-1.59084e-07
-1.11326e-06
-1.44755e-07
-1.12795e-06
-1.30187e-07
-1.14097e-06
-1.15403e-07
-1.15228e-06
-1.00428e-07
-1.16189e-06
-8.52837e-08
-1.16977e-06
-6.99949e-08
-1.17591e-06
-5.45845e-08
-1.1803e-06
-3.90753e-08
-1.18294e-06
-2.34895e-08
-7.8464e-09
5.45237e-07
-6.61957e-09
5.42727e-07
-1.97614e-08
5.38565e-07
-3.27715e-08
5.32773e-07
-4.56075e-08
5.25381e-07
-5.8223e-08
5.16426e-07
-7.05664e-08
5.05951e-07
-8.25793e-08
4.94009e-07
-9.41937e-08
4.80664e-07
-1.05329e-07
4.6599e-07
-1.15894e-07
4.50077e-07
-1.25783e-07
4.33028e-07
-1.34884e-07
4.14962e-07
-1.4307e-07
3.96014e-07
-1.50209e-07
3.76338e-07
-1.56181e-07
3.56087e-07
-1.60903e-07
3.35433e-07
-1.64313e-07
3.14545e-07
-1.66429e-07
2.93531e-07
-1.67643e-07
2.72548e-07
-1.67707e-07
2.51679e-07
-1.67029e-07
2.31005e-07
-1.65651e-07
2.10595e-07
-1.63738e-07
1.90527e-07
-1.61176e-07
1.70804e-07
-1.58606e-07
1.51445e-07
-1.55871e-07
1.32459e-07
-1.53048e-07
1.13865e-07
-1.50051e-07
9.56419e-08
-1.47209e-07
7.77947e-08
-1.44315e-07
6.03162e-08
-1.41484e-07
4.31925e-08
-1.38768e-07
2.64213e-08
-1.3608e-07
9.99153e-09
-1.33434e-07
-6.09949e-09
-1.3081e-07
-2.18574e-08
-1.2822e-07
-3.72886e-08
-1.25666e-07
-5.23987e-08
-1.23141e-07
-6.71923e-08
-1.20637e-07
-8.16739e-08
-1.18151e-07
-9.58443e-08
-1.15651e-07
-1.09707e-07
-1.13168e-07
-1.23268e-07
-1.10733e-07
-1.36547e-07
-1.08286e-07
-1.49533e-07
-1.05868e-07
-1.62236e-07
-1.0349e-07
-1.7467e-07
-1.01204e-07
-1.86848e-07
-9.90088e-08
-1.98789e-07
-9.69605e-08
-2.10516e-07
-9.51543e-08
-2.22064e-07
-9.3762e-08
-2.33478e-07
-9.31214e-08
-2.44937e-07
-9.36975e-08
-2.56528e-07
-9.51059e-08
-2.68246e-07
-9.71977e-08
-2.80799e-07
-1.00038e-07
-2.93617e-07
-1.03287e-07
-3.06852e-07
-1.07052e-07