/*--------------------------------*- C++ -*----------------------------------*\
  =========                 |
  \\      /  F ield         | OpenFOAM: The Open Source CFD Toolbox
   \\    /   O peration     | Website:  https://openfoam.org
    \\  /    A nd           | Version:  10
     \\/     M anipulation  |
\*---------------------------------------------------------------------------*/
FoamFile
{
    format      ascii;
    class       volScalarField;
    location    "1";
    object      RR.AR;
}
// * * * * * * * * * * * * * * * * * * * * * * * * * * * * * * * * * * * * * //

dimensions      [1 -3 -1 0 0 0 0];

internalField   nonuniform List<scalar> 
4000
(
-1.84895e-33
3.27744e-33
-7.03566e-33
-1.05918e-32
2.48303e-32
6.31626e-32
-1.12408e-31
-9.14158e-32
1.65516e-31
-9.96749e-32
-6.68604e-32
-4.59633e-31
-8.00767e-31
-7.60043e-31
1.76919e-30
-1.27004e-30
2.53593e-30
3.00009e-30
-2.58323e-30
2.79645e-30
1.91153e-30
-2.52336e-30
1.6184e-32
2.57956e-30
-4.5603e-30
5.86158e-30
-1.24614e-29
9.55439e-30
5.65316e-30
5.18135e-30
-1.48928e-29
-1.30868e-29
5.75359e-30
-1.89602e-31
-1.29463e-29
9.10574e-30
6.03114e-30
-2.57699e-31
-7.06129e-30
-1.48467e-29
-7.61955e-30
1.43712e-31
-3.7495e-30
8.20856e-30
-3.85207e-30
-1.31252e-29
4.59778e-30
-1.2933e-29
2.18597e-30
-1.4285e-29
7.79305e-15
3.9696e-13
3.37482e-14
-1.90905e-13
-5.86394e-14
-9.45685e-14
-2.72597e-14
8.87718e-30
-9.14113e-30
1.07276e-29
1.31904e-29
1.33198e-29
1.12143e-29
-1.30841e-29
-1.41715e-29
1.19256e-29
-4.84091e-30
5.04404e-30
5.37654e-30
6.60987e-30
1.03036e-30
-2.15495e-30
2.99452e-30
3.71273e-30
1.63652e-30
-1.22675e-30
-1.56411e-31
4.49544e-31
-3.4676e-31
8.17864e-32
-6.96408e-32
-2.62344e-32
1.47698e-32
8.50616e-33
7.30524e-33
-3.13443e-33
-1.90269e-33
1.5854e-33
-6.71625e-34
4.42764e-34
-1.53176e-35
7.07364e-35
-6.22652e-36
-1.59533e-35
1.40273e-35
4.07263e-36
6.76599e-37
6.2693e-38
-6.47915e-37
1.55159e-37
-1.11417e-33
-3.41455e-33
1.11375e-33
1.03815e-32
3.79143e-32
1.05689e-31
4.95966e-32
2.25194e-32
1.31743e-31
5.15841e-32
-5.44691e-32
6.16263e-31
-9.6015e-31
-4.60456e-31
-1.62161e-30
1.02507e-30
8.35578e-31
2.67947e-30
3.82578e-30
-6.46263e-30
4.22963e-30
3.73092e-30
-4.04909e-30
1.08604e-30
3.44689e-30
-1.27543e-29
-5.29238e-30
3.97193e-30
7.60906e-30
6.75107e-30
1.45101e-29
-2.08253e-30
-7.31226e-30
-1.06042e-29
-1.75986e-30
-2.56799e-30
-6.36751e-30
1.36806e-29
1.37399e-29
2.51524e-30
-7.56805e-30
9.02575e-30
6.10067e-30
-9.22909e-30
2.26062e-30
6.69005e-30
-8.17241e-31
1.46403e-29
1.11885e-29
-1.51199e-29
1.25732e-13
4.75434e-13
5.06549e-13
-3.23877e-14
7.35372e-14
5.427e-14
-8.25662e-14
-6.3583e-30
7.65544e-30
-1.07886e-29
4.36391e-30
-4.334e-30
1.11387e-29
-5.30202e-31
5.58555e-30
1.07621e-30
7.49392e-30
-4.83795e-30
3.82622e-30
4.23349e-30
7.64761e-30
2.50151e-30
3.80055e-30
3.01338e-30
1.42184e-31
9.06507e-31
-7.73811e-31
-4.71801e-31
2.37077e-31
3.38614e-32
-9.81725e-32
-2.8334e-32
-1.76193e-32
-4.07003e-33
5.08693e-33
-2.65326e-33
2.51773e-33
-5.30915e-34
2.1152e-35
-1.54142e-34
1.6366e-34
1.10706e-34
4.97261e-35
-1.41065e-35
-4.6005e-36
-2.81658e-36
-1.22881e-36
1.51816e-36
2.99633e-37
-1.96403e-37
1.57234e-34
1.06007e-33
8.77395e-33
1.13755e-32
-1.19761e-32
-6.42791e-32
5.08489e-32
4.16583e-32
5.60475e-32
-1.26409e-31
-2.89142e-31
4.50702e-31
-3.97394e-31
-8.63929e-31
-2.52399e-31
-8.70349e-31
1.28878e-30
2.76942e-30
-2.4047e-30
6.21897e-30
7.3071e-30
6.26423e-31
-7.30546e-30
7.82933e-31
-7.6728e-30
8.34191e-30
-9.47608e-30
-3.46942e-30
-1.12361e-29
-2.40367e-30
1.14228e-30
-8.25559e-30
-1.78673e-30
-6.55012e-30
-1.13044e-29
-1.52687e-29
1.45064e-29
3.33456e-30
5.14043e-30
-2.95131e-30
-1.43338e-29
-6.38159e-30
-1.27049e-29
-1.50011e-29
-8.03901e-30
-1.28742e-29
5.40806e-30
-5.43331e-30
5.54009e-30
-1.28924e-29
3.29853e-14
5.01913e-14
-7.42794e-14
-1.00548e-13
-4.59447e-14
-6.70442e-14
-9.55146e-14
5.95863e-31
-2.24337e-30
-1.29588e-29
3.37917e-30
-5.11982e-30
9.23854e-30
5.94551e-30
-8.02894e-30
-1.29229e-30
8.2227e-30
1.5709e-30
6.57178e-30
7.38411e-31
-3.43819e-30
-2.5186e-30
-3.43258e-30
3.06879e-30
1.56823e-30
-1.60032e-30
4.16404e-31
2.31047e-31
-3.42602e-32
-1.89403e-31
5.34471e-32
5.25814e-32
-2.03819e-32
-1.37433e-32
-1.32761e-33
6.67246e-33
2.76792e-35
-1.03294e-33
8.59261e-34
4.7008e-34
1.37099e-34
7.51974e-36
1.32775e-35
-2.7263e-35
8.40069e-36
2.14077e-36
-2.58821e-36
1.28881e-36
-4.08354e-37
-1.52701e-37
-6.08569e-34
4.30334e-33
5.94102e-33
-5.81519e-33
-3.88044e-32
-9.20397e-32
4.3024e-32
-1.89e-31
1.79941e-31
2.81127e-31
4.69096e-31
7.21258e-31
-8.06788e-31
9.37057e-31
-3.89057e-31
2.64025e-30
2.57582e-30
2.19289e-30
-2.94709e-30
-3.35178e-30
-2.87555e-30
-6.02035e-30
-2.47029e-30
2.06086e-30
-3.60622e-30
-2.61097e-31
7.52784e-30
1.16802e-29
4.91749e-30
-7.7986e-30
-6.91805e-30
-6.16962e-30
6.38132e-30
6.15739e-30
1.10354e-29
9.63674e-30
4.72657e-31
9.18729e-30
7.82734e-30
-1.52575e-29
-4.4468e-30
-2.59761e-30
-2.16605e-30
-1.67147e-30
-4.9697e-30
1.16521e-29
1.71596e-30
2.66147e-30
9.80473e-30
-1.20484e-29
-7.15071e-14
2.45454e-13
-9.35992e-14
4.42533e-14
4.17354e-14
1.03782e-13
-8.85129e-14
1.07982e-29
1.06241e-29
1.50423e-29
1.31417e-29
-1.37177e-29
1.50822e-29
1.37151e-29
1.14362e-30
6.65321e-30
-1.35592e-29
3.23266e-30
2.93718e-30
-7.30287e-30
-7.30234e-30
-3.72684e-30
8.80208e-31
-1.83534e-30
5.94835e-31
4.65014e-31
-3.33559e-31
-3.15652e-31
-1.78593e-31
1.1411e-32
-2.81536e-33
-1.66835e-32
9.11393e-33
-1.3515e-32
-9.1753e-33
2.70245e-33
-1.1338e-33
-1.30614e-33
1.95983e-34
-1.7263e-34
-1.27164e-34
-8.67634e-35
5.83011e-36
-2.5826e-35
-2.96532e-36
4.0179e-36
-3.21919e-36
3.55832e-37
3.89433e-37
1.1156e-37
-1.00336e-33
3.29418e-34
-4.81085e-35
2.30098e-32
1.10291e-32
4.50026e-32
-8.93452e-32
-1.39076e-31
1.68432e-31
-6.99665e-33
1.6501e-31
1.27611e-31
3.43859e-31
-1.85921e-30
-1.31401e-30
3.22802e-31
-2.50462e-30
-1.35357e-30
-9.20354e-31
-6.27002e-31
4.09519e-30
1.4923e-30
4.89312e-30
1.74021e-30
-4.46082e-30
-9.15602e-30
8.11834e-30
-4.64712e-30
6.26321e-30
1.57704e-30
-1.02755e-29
1.20034e-29
1.59162e-30
5.3857e-30
5.46848e-30
-8.30091e-30
-1.50222e-29
1.24939e-29
9.12968e-30
-1.34018e-29
-4.65989e-30
-1.00229e-29
-1.51925e-29
-4.62584e-30
-4.84945e-30
-5.85131e-30
6.30447e-30
-2.08823e-30
7.8549e-30
7.77284e-30
-3.48531e-14
-2.04564e-13
2.88505e-13
1.42196e-14
-5.2303e-14
-2.73703e-15
-1.43978e-29
2.29705e-30
-1.25644e-29
-2.11494e-30
6.18356e-30
8.62311e-30
-2.33756e-31
-1.23224e-29
-1.65021e-30
5.35696e-30
1.22197e-30
4.26853e-30
2.72273e-30
1.24685e-33
-6.22333e-30
1.90728e-30
3.12972e-30
2.0361e-30
-1.41068e-30
7.99852e-31
-4.94462e-31
-3.55119e-31
2.72583e-31
2.19889e-31
6.68882e-33
-4.03694e-34
-7.86206e-33
-6.52051e-33
1.63758e-33
5.37357e-33
2.09744e-33
-9.53609e-34
6.80786e-34
-3.85522e-34
1.52765e-34
9.72777e-35
2.87027e-35
2.53175e-35
-7.16401e-36
-6.02754e-36
-3.40272e-36
-1.30539e-36
4.71029e-37
-1.16401e-37
5.46329e-34
-3.51553e-34
6.82109e-33
-2.00927e-32
3.66585e-32
-1.34372e-32
9.06962e-32
1.45784e-31
-1.11059e-31
6.33017e-32
-2.82171e-31
-5.30001e-31
7.84833e-31
3.27511e-31
-1.65865e-30
1.67759e-30
-4.1015e-31
-1.70767e-30
3.25707e-31
-6.92004e-31
4.01665e-30
-3.50339e-31
-3.83325e-30
-2.69151e-30
-4.69529e-30
-8.8884e-30
1.27838e-31
-1.36902e-29
-1.95083e-30
-6.79743e-30
5.54476e-30
7.42931e-30
1.04005e-29
-1.12382e-29
7.89398e-30
-9.02831e-30
5.09643e-30
5.71123e-30
1.46353e-29
-1.49663e-29
2.70373e-30
-1.13604e-29
-3.55311e-30
1.08959e-29
-1.30759e-29
2.38926e-30
1.02834e-29
1.27327e-29
8.63544e-30
-1.51929e-30
-1.01331e-13
-1.60577e-13
-2.07418e-13
6.71475e-14
-2.26004e-15
-8.82195e-14
2.58846e-30
-1.26666e-29
1.26393e-29
1.21457e-29
3.35201e-30
-7.01633e-30
-5.65899e-30
5.96297e-30
4.68278e-31
-1.44641e-29
3.23563e-30
6.72304e-31
2.53222e-30
-5.93413e-30
3.26451e-30
-1.81432e-30
-1.39107e-30
3.51806e-30
5.88333e-31
1.78613e-30
1.65216e-32
1.99559e-32
8.58845e-32
2.19116e-31
2.18994e-32
4.09144e-32
-2.98581e-32
3.74526e-33
-1.45761e-32
6.18733e-33
3.61745e-33
1.96524e-34
9.85656e-35
2.17903e-34
-1.49712e-34
-8.74875e-35
2.70036e-36
-2.57058e-35
-1.46859e-35
-6.22033e-36
1.47544e-36
1.02663e-36
3.67808e-37
1.54694e-37
-6.28245e-34
1.46637e-33
1.37717e-32
1.8433e-32
5.32257e-32
-6.06603e-32
8.02622e-32
1.5767e-31
-1.51817e-31
2.35705e-31
-8.40453e-32
3.69971e-31
6.93398e-32
5.1309e-31
-6.30856e-31
-1.39102e-30
-3.52376e-30
-1.91734e-30
3.71663e-30
-5.46612e-30
-6.8728e-30
4.32558e-31
7.07488e-30
-7.23016e-31
6.02522e-30
1.44897e-29
-9.30269e-30
-4.56764e-30
-1.30045e-29
-1.42858e-29
-1.49102e-29
1.00044e-30
3.45207e-30
-8.37508e-31
1.45237e-29
-3.45429e-30
1.42329e-29
1.03995e-29
3.7121e-30
-3.73767e-30
-5.27423e-30
-1.5091e-29
8.78146e-30
-2.12738e-30
-6.71873e-30
1.5311e-29
-9.94984e-31
8.58951e-30
1.22049e-29
-1.4688e-29
-3.98118e-14
-2.84625e-14
-2.62804e-13
2.16591e-14
5.62779e-14
1.64286e-14
-8.70494e-30
2.18869e-30
-3.14576e-30
-1.08426e-29
1.00659e-29
1.15975e-29
-1.15266e-29
-7.40761e-30
3.68766e-30
-9.66129e-30
-5.15554e-30
-8.84939e-31
-1.85633e-30
7.45201e-30
5.12631e-30
2.41418e-30
-9.32229e-31
-5.34754e-31
1.52942e-30
7.07531e-32
9.04487e-33
-3.04781e-31
3.14826e-32
3.02406e-32
1.11135e-31
-4.85487e-32
7.42522e-33
1.91578e-33
7.20603e-34
-6.23861e-33
-1.85245e-33
2.72023e-34
2.89819e-34
4.00762e-34
-1.81352e-34
-9.86799e-35
-2.82853e-35
9.5355e-36
4.60884e-36
2.15682e-36
3.56959e-36
-1.19393e-36
-6.50071e-37
-1.8663e-37
-1.23559e-33
7.12611e-33
-2.15468e-33
2.18105e-32
2.20059e-32
-9.28212e-32
1.20284e-31
-7.17559e-32
6.86007e-32
-3.5863e-31
-4.4561e-32
-5.36528e-31
3.45147e-31
7.96964e-31
9.40708e-32
-8.09824e-31
-1.98448e-30
-3.81164e-30
1.9122e-30
-3.74608e-30
-3.25248e-30
8.11612e-31
-4.87971e-30
-2.45067e-30
-3.1007e-30
3.38604e-30
-1.18351e-30
6.71858e-30
1.44411e-29
7.62632e-30
-9.89078e-30
3.09017e-30
9.05349e-30
-1.74066e-30
7.30711e-32
7.07905e-30
-1.23494e-29
4.62762e-31
1.3283e-29
2.63894e-31
-5.39754e-30
-5.44781e-31
-4.7045e-30
-7.5598e-30
-4.09094e-30
8.25065e-30
-4.51699e-30
-8.09793e-30
8.66156e-30
-1.30415e-29
1.94381e-13
-5.05016e-14
1.26005e-13
-2.48024e-14
3.2708e-14
5.8239e-14
1.31327e-29
1.03503e-29
1.34608e-29
1.09268e-29
-1.38112e-29
-1.07765e-29
8.85302e-30
-1.35437e-29
-1.24577e-29
1.35294e-29
-4.49576e-30
2.54516e-30
-5.37083e-30
-4.27038e-30
-4.37167e-30
3.35093e-30
-9.31359e-31
-3.58973e-30
-1.55337e-30
7.60095e-31
3.56103e-31
2.39248e-31
4.12679e-32
-7.60427e-32
-7.48262e-32
-4.4702e-32
-9.84941e-33
-1.42434e-32
1.04818e-32
-5.31839e-33
3.13899e-34
1.01964e-33
-7.30948e-34
4.13155e-34
2.29356e-34
-1.47958e-35
-4.84498e-35
-1.57224e-35
-2.81271e-36
-6.83184e-36
-1.05531e-36
-8.0058e-38
3.75626e-37
-2.06523e-37
7.05897e-34
-6.82406e-34
-1.38477e-32
-4.32898e-33
3.84618e-32
-9.41326e-32
-6.89301e-33
-1.45865e-31
-1.12676e-31
-3.14095e-31
4.32247e-31
2.5227e-31
3.3678e-31
1.46545e-30
-1.9119e-33
-2.44029e-31
2.575e-30
2.78102e-31
1.90842e-30
7.54165e-30
5.01908e-30
-2.55414e-30
7.23311e-30
-3.28756e-30
-3.31432e-30
8.50607e-30
-9.65038e-30
-7.50763e-30
1.03094e-29
-3.56286e-30
-7.40366e-30
-1.40277e-30
1.25426e-29
-3.60629e-30
1.40781e-29
1.17343e-29
-6.73759e-30
1.44158e-29
-1.29383e-29
1.15404e-30
3.44195e-30
8.54919e-30
3.93527e-30
-1.26563e-29
1.47776e-29
7.28436e-30
1.27336e-30
-6.60883e-30
-3.17783e-30
4.38789e-30
-7.90918e-14
7.0523e-14
-1.22686e-13
-1.12225e-13
-1.0964e-13
2.09108e-14
-1.24338e-30
1.36285e-29
9.79727e-30
-3.17754e-30
1.23785e-29
-1.10992e-29
-1.37954e-29
5.18017e-30
8.37965e-30
-7.61853e-30
1.72513e-30
-5.19013e-30
5.16198e-30
4.74156e-30
7.17527e-30
-1.70645e-30
-3.62134e-30
-1.22065e-30
6.20964e-31
4.0043e-31
-2.60963e-31
4.19054e-31
2.04837e-31
8.57836e-32
-3.41892e-32
1.14432e-32
2.50754e-32
1.12963e-32
-6.61335e-34
6.70079e-33
-2.53745e-33
-4.91727e-34
-1.97308e-34
-1.11956e-34
8.8684e-35
6.24768e-35
4.30819e-35
2.75469e-35
7.10561e-36
5.747e-36
1.76264e-36
1.72734e-36
7.65174e-37
1.52114e-37
-4.97589e-34
-9.89189e-34
-1.80027e-33
-1.51205e-32
6.35669e-33
-4.52645e-32
-1.06332e-31
-1.21057e-31
-1.82782e-31
-7.95518e-32
8.36111e-32
2.43059e-31
-1.03e-31
-1.90536e-30
1.08765e-30
-1.70139e-30
2.02059e-31
-3.10209e-30
9.30709e-31
5.33681e-30
-3.32094e-30
-4.5928e-30
-4.53505e-30
3.14388e-30
-3.29673e-30
-4.49599e-30
-1.3161e-29
-7.33317e-30
1.34866e-29
-1.15383e-29
3.55907e-30
8.08369e-30
-9.76146e-30
1.00221e-29
6.40205e-30
9.75092e-30
-1.35792e-29
-2.21502e-30
1.24133e-29
-4.50707e-31
-1.13413e-29
2.95064e-30
-3.04573e-30
-1.21319e-29
1.52157e-29
-5.16431e-30
-1.53231e-29
5.39694e-30
-1.39192e-29
-1.27634e-29
-7.05823e-14
-2.40527e-13
-2.85471e-13
-9.08105e-14
-2.65821e-14
9.75513e-14
-8.36606e-30
4.89621e-31
-1.11713e-29
-5.56052e-30
7.6145e-30
-1.30625e-29
8.68296e-30
-1.18798e-30
1.45825e-29
1.87673e-30
5.26141e-30
-9.62328e-31
7.27342e-30
-2.76945e-30
-5.28425e-30
-3.65796e-30
-3.50451e-30
7.20504e-31
8.74349e-31
1.82966e-31
-2.73769e-31
-2.5468e-31
-2.11704e-31
2.34356e-31
-1.00152e-31
3.74451e-32
2.0614e-32
-1.36457e-33
-1.07424e-32
-4.93907e-33
-3.54705e-33
2.0484e-34
6.59184e-34
-2.25157e-34
9.52527e-35
3.9631e-35
2.4969e-36
-2.83715e-35
1.34386e-35
-2.819e-36
2.12123e-36
7.51424e-37
4.96335e-37
-1.57586e-37
1.69152e-33
-5.44186e-34
1.19843e-32
-9.82244e-33
-5.63147e-32
6.80948e-32
1.44834e-32
-9.36003e-32
2.11558e-31
4.48052e-31
1.18824e-31
-4.63127e-31
5.34774e-31
1.40453e-30
9.18304e-31
-1.06726e-30
4.88888e-31
-3.03333e-30
2.58148e-30
-2.46997e-30
-2.27704e-30
5.50572e-30
-1.74401e-30
-6.37703e-30
-2.16476e-30
5.11572e-30
-6.84532e-30
8.36474e-30
1.40321e-29
1.73778e-30
-1.42459e-29
-1.34692e-29
-1.46161e-29
-1.56841e-30
1.01578e-29
1.32468e-30
-1.30735e-29
-6.62592e-30
1.37404e-29
-4.48868e-30
-1.01121e-29
-6.64527e-30
-1.01419e-30
6.67339e-30
-9.18586e-30
-1.32854e-29
9.66911e-30
9.63266e-30
-7.26655e-30
1.34203e-29
-1.0376e-13
-2.05514e-13
1.49489e-13
1.80391e-14
5.20771e-14
-1.96476e-13
-6.12919e-30
-2.09204e-30
-9.64453e-30
-1.16099e-29
-3.65579e-30
3.66861e-30
-7.0336e-30
-1.11715e-29
-1.42667e-30
-9.46453e-30
2.61039e-31
-3.69736e-30
-3.82174e-30
4.33876e-30
4.02977e-30
-3.00278e-32
-9.4026e-31
-1.91132e-30
-5.25705e-31
2.17183e-31
1.65222e-32
-4.18384e-31
-1.70169e-31
-6.90013e-32
-1.1819e-31
-4.73475e-32
-8.05221e-33
-8.23078e-33
3.08567e-33
-1.70672e-33
-2.0587e-33
-1.16692e-33
-7.82665e-34
4.08629e-34
1.0379e-34
-1.04832e-34
2.3613e-35
6.93554e-38
5.03116e-36
9.08615e-37
1.26419e-36
-9.97631e-37
-3.3454e-37
2.09644e-37
-6.08784e-34
6.84889e-33
6.63155e-33
-1.04878e-32
-1.29393e-32
-1.48231e-32
-6.16138e-32
-1.9583e-31
2.38455e-31
-2.17328e-31
4.53874e-31
-2.36927e-31
-6.80472e-31
1.06176e-30
-4.18504e-31
1.03792e-31
-1.1764e-30
1.90416e-30
2.55137e-30
-4.67536e-30
4.42985e-30
-7.69955e-30
2.70351e-30
2.11279e-30
-1.49872e-31
-1.19531e-29
3.78717e-30
-1.44642e-29
-2.68231e-30
-1.0936e-29
9.21868e-30
1.16622e-29
-1.08537e-29
-2.10056e-30
1.43276e-29
-7.34916e-30
-7.87554e-30
-2.99697e-31
7.71457e-30
1.15044e-29
-1.25989e-29
5.32308e-30
-1.48552e-29
4.84204e-30
-8.24403e-30
-1.1774e-29
5.83233e-30
6.61537e-30
4.26885e-31
-1.00892e-29
2.31448e-13
-1.28855e-13
1.71965e-13
1.07039e-13
5.28606e-14
-4.40158e-15
-1.50019e-29
2.86074e-30
-8.74423e-30
1.88919e-30
5.56502e-30
-3.65861e-30
-2.97742e-30
-1.41643e-29
3.9947e-30
-1.13135e-29
4.10249e-30
6.5143e-30
1.76769e-30
4.46752e-30
2.81683e-30
8.14962e-31
-7.30461e-31
-1.6537e-30
-1.13201e-30
-6.45889e-31
-3.45359e-31
1.65472e-31
2.11087e-31
1.44905e-31
-9.57519e-32
4.94237e-32
4.27293e-33
8.75014e-33
5.36849e-33
-5.44483e-33
-1.42348e-33
-4.82789e-34
-8.74232e-34
1.10532e-34
-1.49737e-34
8.08798e-35
-4.70784e-35
2.9122e-35
-1.43963e-35
3.69551e-36
-6.08726e-37
-3.62996e-37
9.98426e-38
-1.17852e-37
6.18415e-35
-3.60747e-33
-3.36711e-33
-2.70488e-32
-2.05089e-32
-3.24238e-32
1.05387e-31
-1.0836e-31
1.52127e-31
-4.24543e-31
-2.21457e-31
1.53714e-31
-7.73375e-31
9.0825e-31
-4.19983e-31
-4.79042e-32
-3.7497e-30
-3.61268e-30
-5.83005e-31
4.56571e-30
5.84875e-30
6.5611e-30
5.83934e-31
7.14768e-30
7.33024e-30
2.19419e-30
7.5249e-30
1.9719e-30
-4.17673e-30
-1.22391e-29
-3.88412e-30
-6.17087e-30
1.12826e-29
1.65063e-30
-2.17963e-30
4.78258e-30
-3.53699e-30
-1.5456e-30
5.25285e-30
5.36331e-30
5.10988e-30
-1.0259e-29
2.47563e-30
-6.27684e-30
1.05897e-29
-1.80021e-30
-1.97176e-30
-1.53928e-29
-1.17568e-30
1.328e-29
1.61633e-13
-1.08475e-13
3.76159e-13
-3.8456e-14
5.44933e-15
2.86607e-14
-7.04869e-30
1.11558e-29
9.82807e-30
3.93364e-30
7.43057e-30
-5.91566e-30
1.39303e-29
-1.23428e-29
1.47775e-29
-1.2605e-29
3.91919e-30
7.55733e-30
-2.80378e-30
-3.48961e-30
-7.01902e-30
-3.00032e-31
8.48218e-31
-1.11395e-30
3.99194e-31
-1.6985e-31
4.31379e-31
-2.82656e-31
-9.3427e-32
1.52457e-31
-8.10838e-32
-3.06662e-33
-5.20563e-33
-1.19206e-32
2.34267e-33
-3.31913e-33
1.18571e-33
-1.79644e-33
9.3493e-34
-2.45711e-34
2.2072e-35
-1.067e-34
3.42567e-36
2.65335e-35
-3.22353e-36
-9.63515e-38
-3.62546e-36
1.022e-36
6.65117e-37
-5.57631e-38
9.49526e-34
-2.04677e-34
1.13967e-32
-2.86915e-32
-3.88628e-32
6.28049e-32
7.09522e-32
2.33134e-31
2.01989e-31
-2.34401e-31
-2.29001e-32
-8.68431e-31
-3.35585e-31
1.50394e-30
-1.57897e-31
-1.40193e-30
-3.46759e-30
-3.78624e-30
3.13366e-30
-1.04122e-30
1.64886e-31
1.77374e-30
-2.02131e-30
-6.54723e-30
2.56051e-30
2.76971e-30
-1.33448e-30
-1.14931e-29
6.3898e-30
8.24191e-30
-1.0658e-31
-1.2087e-30
-1.62622e-31
-1.05969e-29
-8.69442e-30
-1.52617e-29
1.6948e-31
-5.65329e-30
5.74782e-30
-1.41251e-29
-1.49555e-29
9.78535e-30
1.34869e-29
1.01006e-29
1.29153e-29
-5.21857e-30
7.59512e-30
-2.70496e-30
5.68539e-31
9.48945e-30
3.03983e-13
2.54597e-13
3.41879e-15
-7.76692e-14
1.66615e-13
-3.29526e-14
-4.13964e-30
-4.69363e-30
3.52683e-30
-1.023e-31
-1.37147e-29
5.34117e-30
-1.44736e-29
-1.59834e-30
1.31752e-29
8.54729e-30
-6.28684e-30
-4.64313e-30
5.93906e-30
2.59237e-30
6.82767e-30
-1.15206e-30
1.74843e-30
7.02125e-31
1.91187e-30
9.60064e-31
8.62526e-31
-4.7304e-31
1.27536e-31
-1.75669e-31
3.97676e-32
-1.78126e-32
-1.3355e-32
-3.46244e-33
-2.34818e-33
4.95107e-33
2.68158e-33
-1.80336e-33
6.37873e-34
-2.16696e-34
-1.5292e-34
1.1043e-35
-4.77189e-35
1.99299e-35
-1.44072e-36
-1.25942e-36
3.60592e-36
-3.72825e-37
8.44621e-37
-1.65393e-37
-1.42009e-34
-2.25681e-33
1.31385e-32
-6.46396e-33
-1.18929e-32
-1.12869e-31
-8.20403e-32
5.13949e-32
-1.30081e-31
4.42076e-31
5.32854e-32
9.62514e-32
2.30946e-31
-5.04363e-31
-9.53743e-32
9.98415e-31
9.29434e-31
-3.5622e-30
2.26523e-30
-4.53291e-30
-7.46979e-30
-1.35489e-30
6.6335e-30
1.37414e-30
-3.59566e-30
-1.16905e-29
-1.06098e-29
4.87224e-30
-9.75365e-30
-1.30255e-31
1.15228e-29
7.49822e-30
-9.83566e-30
-2.61843e-30
-4.08384e-30
8.05739e-30
3.01845e-30
8.8878e-30
-1.316e-29
1.44249e-30
-1.01057e-29
4.7151e-30
-1.6941e-31
-7.42757e-30
-7.34482e-30
-7.48259e-30
-1.37144e-29
5.67136e-30
7.65132e-30
-1.78393e-29
-2.95503e-13
-1.79239e-14
-8.46265e-14
2.3056e-14
8.36439e-14
5.1219e-14
-2.51392e-30
1.34823e-29
-5.46204e-30
3.24589e-30
6.00463e-30
1.28713e-29
-9.6693e-30
9.12421e-30
-1.40214e-29
7.04556e-30
-1.57194e-30
4.46905e-30
2.15134e-30
-1.51304e-30
-5.32402e-30
7.10095e-31
2.20153e-31
1.5822e-30
-8.66555e-31
-7.00263e-31
-3.02547e-31
-3.80575e-31
1.90201e-31
9.95002e-32
-7.85887e-32
1.91341e-32
1.52605e-32
1.48613e-32
-3.47553e-33
-5.70924e-33
-2.73678e-33
-1.51128e-33
3.72971e-34
2.42246e-34
1.6084e-34
2.81579e-35
-5.66202e-35
1.90209e-35
4.93371e-36
4.13041e-36
3.1245e-36
-1.72578e-36
1.05658e-37
1.51058e-37
-1.77218e-33
-1.71376e-33
6.74094e-35
3.75481e-33
-1.20016e-32
-1.11578e-31
-2.52288e-32
1.65315e-32
-3.00197e-32
4.24832e-31
-1.56949e-31
-4.83045e-31
-8.96247e-31
1.92284e-30
-1.73816e-30
-1.43668e-30
1.72953e-31
2.69481e-30
-1.92669e-30
1.30751e-30
-7.46752e-30
4.18794e-30
-5.50748e-30
-2.76148e-30
-2.61874e-30
6.67476e-31
-3.3766e-30
2.48437e-30
1.38446e-30
-1.4135e-29
-1.54031e-30
-1.42774e-29
8.94472e-30
6.78667e-30
-7.56244e-30
-1.00549e-29
-1.20706e-29
1.50423e-29
8.21697e-30
-1.16843e-29
-1.08745e-29
-2.03432e-31
1.12285e-29
-8.15557e-30
-4.08428e-30
7.1939e-30
3.33757e-30
-1.11191e-29
-1.21075e-29
-1.07076e-29
5.03552e-13
-2.0159e-13
1.29488e-13
-5.8771e-14
1.74941e-15
-3.92271e-14
1.20372e-29
1.43013e-29
-6.99919e-30
-9.55684e-30
-5.198e-30
5.88934e-30
3.57658e-31
-5.67398e-30
1.0912e-29
7.72443e-30
-3.28853e-30
-4.71985e-30
4.0473e-30
-7.05221e-30
-5.40015e-30
-3.64368e-31
-3.44349e-30
-7.6069e-31
-1.52172e-30
1.20531e-31
-9.11616e-31
3.1054e-31
-1.79565e-31
2.1526e-31
-9.09616e-32
2.72591e-33
-2.76697e-32
-5.82407e-33
-1.35496e-34
4.26413e-33
-1.40664e-33
1.8083e-33
2.59926e-34
-3.22967e-34
-6.71292e-35
5.39614e-35
5.84171e-35
-2.78977e-35
-1.2035e-35
-2.58906e-37
1.82488e-36
-7.07297e-37
-6.63493e-37
1.34141e-37
-7.68881e-34
-2.4308e-33
8.71239e-33
-1.17234e-32
-5.45469e-32
-3.0055e-32
1.0698e-32
-1.08076e-31
-3.61317e-32
-1.42411e-32
-4.4624e-31
-7.79599e-31
8.18944e-31
5.13176e-31
1.48652e-30
-5.03105e-31
-3.83069e-30
1.8183e-31
1.99418e-30
-4.84235e-31
1.86743e-30
-2.63038e-30
5.24682e-30
6.27211e-30
-2.70342e-30
3.95685e-30
-7.33553e-30
-6.83667e-30
2.53122e-31
-5.38532e-30
2.59501e-30
1.19408e-30
-1.492e-29
1.05352e-29
2.78791e-30
-4.36677e-30
9.8575e-30
9.91492e-30
-1.17941e-29
9.31089e-30
-7.5594e-30
1.42956e-29
6.41344e-30
2.3555e-30
8.0924e-30
9.54461e-30
1.28625e-29
1.20673e-29
-1.1443e-29
-3.5257e-30
-4.16721e-15
1.05222e-13
2.99773e-13
-3.07216e-14
4.41113e-14
-1.51016e-14
3.18567e-30
9.91976e-31
-7.08532e-30
4.96917e-30
-3.91235e-30
2.42572e-31
7.00259e-30
-2.861e-30
-9.90964e-30
-7.43792e-30
7.32891e-30
-5.92912e-30
3.53654e-30
-3.47945e-30
4.73432e-30
-3.77605e-30
3.20061e-30
-2.82408e-31
5.68108e-31
3.55723e-31
-5.07116e-31
-6.2092e-32
-2.41038e-32
1.26928e-32
-4.32682e-32
6.05978e-33
-5.82802e-33
-1.40272e-32
1.00992e-33
4.35737e-33
-1.30474e-33
-1.62179e-33
4.02656e-34
1.52484e-34
-5.10412e-35
9.74468e-35
-1.40175e-35
-2.20875e-35
-1.23671e-36
-1.57392e-37
-2.83549e-36
-9.21782e-37
-8.61072e-38
1.5559e-37
1.42365e-33
-5.54443e-35
-1.18759e-33
1.98559e-32
-5.03007e-32
1.53498e-32
-1.10083e-31
-7.56499e-32
1.72482e-32
-4.11392e-31
2.06623e-32
1.72682e-31
3.08715e-31
-1.57314e-30
3.46162e-31
-7.79762e-31
-1.15662e-30
3.40943e-31
1.43043e-30
-1.23606e-30
4.61293e-30
-6.90342e-30
-6.66843e-30
4.31312e-30
3.03026e-30
-1.35301e-29
-1.46743e-29
1.40128e-29
7.17712e-30
-4.84549e-31
-1.36811e-29
8.13317e-30
-5.50519e-30
-1.44698e-29
1.51796e-31
-1.0716e-29
3.38875e-30
-6.27485e-30
4.93013e-30
-1.4375e-29
-1.18953e-29
4.84752e-30
7.18544e-30
1.41128e-29
-1.01247e-29
1.48513e-29
-6.34139e-30
-5.83877e-30
1.44498e-29
1.16501e-29
-1.89062e-13
-8.74324e-14
-2.02631e-13
5.9745e-14
1.14117e-13
-1.10138e-13
9.54959e-30
-1.22914e-29
1.45852e-29
4.86127e-31
-3.66561e-30
1.48534e-30
-1.43579e-29
3.17177e-30
9.73491e-30
1.15157e-30
3.07582e-30
-3.10004e-30
-5.20066e-30
-7.37233e-30
5.42683e-30
1.45639e-30
1.99222e-30
-5.90053e-31
-4.30066e-31
2.70486e-31
-1.04826e-31
-4.71005e-31
1.41915e-31
-1.90213e-31
-1.04325e-31
-3.4677e-32
-2.42321e-32
-1.07634e-33
-6.48121e-33
-1.63345e-33
-2.35906e-33
4.71822e-34
-2.77279e-34
3.88906e-34
-1.29406e-34
-4.9576e-37
-4.82127e-35
-2.50474e-35
-1.25487e-35
-2.05986e-36
-2.89881e-36
4.90112e-37
5.59871e-37
-5.38562e-38
1.46035e-33
-6.72219e-33
-2.50561e-33
6.04828e-33
3.50507e-32
9.51743e-32
4.46577e-32
-1.42297e-31
6.05673e-32
-1.11422e-31
-2.17449e-31
-5.43145e-31
-5.98799e-31
-1.2235e-30
1.59613e-30
-1.83528e-30
-2.45522e-31
-3.5416e-30
2.0333e-30
-1.66546e-30
-5.3783e-30
8.08379e-32
-7.69964e-30
-2.47281e-30
2.24313e-30
1.78093e-30
-6.38367e-30
-1.49188e-29
-1.3835e-29
-4.63184e-30
7.92184e-30
1.13774e-29
1.18409e-29
-1.49985e-30
-1.29034e-29
1.09323e-29
-4.34441e-33
1.53158e-29
1.10289e-29
7.92618e-30
-3.07972e-31
-6.53236e-31
-1.34513e-29
-1.08419e-29
-1.18512e-29
6.36665e-31
-1.02034e-29
-1.02826e-29
6.71396e-30
-1.33364e-15
2.54522e-13
-6.56529e-14
-2.81849e-13
-2.42417e-14
-3.23588e-14
5.52372e-14
-4.47454e-31
-7.97055e-30
1.38888e-29
8.2707e-30
-1.4216e-29
-2.5301e-30
-1.0664e-29
-1.52016e-29
-1.27691e-29
3.8879e-30
2.71677e-30
6.96634e-30
6.42632e-30
-3.02079e-30
-3.78687e-31
-2.04102e-30
-7.56196e-32
5.89493e-31
1.27507e-30
-1.33235e-31
5.09133e-31
-3.56756e-31
9.28548e-33
1.84676e-31
1.1904e-31
-3.47139e-32
-1.98776e-32
1.49705e-33
5.83084e-34
3.14413e-33
-3.04479e-33
1.06538e-33
8.67313e-34
4.37465e-34
-1.61518e-34
-4.2584e-35
1.39008e-35
5.31432e-36
-1.30745e-35
4.94194e-36
-3.27142e-36
5.00275e-37
5.09901e-37
2.27946e-37
-6.83423e-34
-3.14051e-33
-3.14753e-33
2.08207e-32
-5.91443e-32
-6.38792e-32
-1.04252e-31
-9.7603e-32
4.09246e-32
-1.77823e-31
1.6081e-31
9.08609e-32
8.45352e-31
-8.4475e-31
1.53149e-30
-1.51756e-31
-3.53168e-30
6.05497e-31
2.02899e-30
7.52272e-30
-8.51239e-31
-4.11362e-31
-1.35027e-30
-6.494e-30
-3.13849e-30
-9.08636e-30
1.33702e-30
1.92581e-30
1.2688e-29
1.01177e-29
7.58434e-30
-1.1795e-29
-1.40354e-29
-1.25656e-29
7.39583e-30
-1.2663e-29
6.48881e-30
7.41736e-30
-7.72002e-30
-7.43322e-30
1.4787e-29
1.08778e-30
3.58841e-31
-3.21432e-30
2.12418e-30
-8.27208e-30
-8.75248e-30
5.44497e-31
-1.00352e-29
9.7401e-14
-1.98761e-13
1.10302e-13
1.56232e-13
1.5882e-14
1.34143e-14
1.61564e-14
9.81222e-30
2.62476e-30
-8.87814e-30
-9.62762e-30
-1.50776e-29
-1.24813e-29
1.38506e-29
1.11458e-29
5.67006e-30
2.71264e-30
-5.89879e-30
-2.13098e-30
3.7184e-30
-4.37504e-30
-1.34228e-30
3.5614e-30
1.01845e-30
1.64922e-30
-3.24655e-31
-3.04329e-31
9.2821e-31
5.47655e-33
3.56846e-32
-1.35532e-31
7.66771e-32
-1.44195e-32
4.21218e-34
5.76029e-33
-2.70212e-33
-3.34757e-33
1.3147e-33
1.91018e-35
8.25268e-34
2.51844e-34
-1.31985e-34
3.89515e-35
-3.30096e-35
1.36453e-35
3.37753e-36
-6.19888e-36
-1.65122e-36
-2.90788e-37
4.78793e-37
5.80341e-38
1.03601e-33
-4.41148e-33
-4.6369e-33
-5.09158e-33
-2.61929e-32
6.72377e-32
-5.06206e-32
5.5242e-32
1.77358e-31
3.5885e-31
7.28133e-32
-8.02389e-31
6.43497e-31
-5.29775e-31
-4.95623e-31
1.70573e-30
2.49051e-30
8.3355e-31
2.95126e-30
-4.59668e-31
4.95308e-30
-6.52415e-30
-4.77669e-30
-4.12479e-30
3.98699e-30
-1.45018e-29
1.12886e-29
-2.46171e-30
8.95248e-30
3.18305e-30
-4.38155e-30
-6.31216e-30
-1.06969e-29
1.65895e-30
1.12918e-29
5.68109e-30
1.277e-29
1.38291e-29
2.02002e-30
-1.04615e-29
-5.00541e-30
-2.40987e-30
-1.48723e-29
1.26954e-29
-1.37402e-29
-1.20305e-29
-9.9453e-31
-1.14953e-29
8.84785e-30
-6.25871e-14
-1.79009e-13
-2.41643e-13
1.31997e-13
2.4812e-14
-4.8282e-14
2.75786e-14
-3.69456e-30
6.38516e-30
3.39363e-30
-8.53849e-30
-5.15213e-32
-7.4308e-31
-7.14913e-31
5.88733e-30
-2.22575e-30
3.10553e-32
7.51918e-30
7.2272e-30
7.61075e-30
-6.69521e-30
-7.205e-30
-2.81118e-30
3.63899e-30
-3.05833e-31
1.3243e-30
6.07112e-31
7.31225e-31
4.04233e-31
-2.04085e-31
-2.02469e-31
-5.84906e-32
-2.77342e-32
-2.18928e-32
-1.14426e-32
7.06563e-33
4.14602e-33
3.29864e-33
1.44106e-33
-4.04916e-34
4.581e-34
-1.33268e-36
-1.96058e-35
-2.90637e-35
3.93818e-36
-3.53166e-36
4.03918e-36
4.64945e-37
-1.34237e-36
1.04655e-37
2.89663e-38
2.98371e-34
-1.29861e-33
6.54537e-33
1.01302e-32
3.5685e-32
3.42697e-32
-6.41681e-32
1.14501e-31
1.72766e-31
3.39445e-31
-1.37148e-31
-3.63154e-31
7.95854e-31
7.71572e-31
-1.58516e-31
-3.06518e-31
1.33133e-30
-2.6145e-30
2.98937e-30
-6.83626e-30
5.45574e-30
-4.31294e-30
-2.10434e-30
-4.13112e-30
7.61609e-30
1.4904e-29
1.38953e-29
1.6253e-30
7.93618e-30
-1.3748e-29
1.48253e-29
4.27518e-30
-2.78407e-30
-1.07879e-29
2.57449e-30
-2.12269e-31
7.81172e-30
-5.31118e-30
-1.25553e-29
6.60361e-30
1.76179e-30
-1.09826e-30
8.15252e-30
1.07777e-29
-7.6254e-30
7.32403e-30
-3.624e-30
6.68789e-30
3.28196e-30
1.07626e-29
-5.2451e-14
-1.33622e-13
-9.59294e-14
-6.31335e-14
4.55398e-14
-3.62701e-14
1.06099e-29
1.33464e-29
3.56524e-30
1.14292e-29
-1.52543e-29
-5.28817e-30
8.175e-30
1.03497e-29
-4.28129e-30
-1.31511e-29
6.86472e-30
6.36212e-30
-3.13383e-30
-4.16444e-30
7.2103e-30
2.4938e-30
-3.00438e-30
9.40248e-31
-1.28386e-30
-2.29737e-32
-6.5651e-31
1.67144e-31
-7.56743e-32
-6.6042e-32
5.38259e-32
1.78313e-32
8.55309e-33
9.81445e-33
-4.75065e-33
-3.07648e-33
1.87622e-33
1.71125e-33
7.0066e-35
-1.17389e-34
-5.02163e-35
4.25533e-35
-4.27232e-35
-1.89597e-35
7.21397e-36
-2.13523e-36
-5.44388e-37
-4.82909e-37
2.31017e-37
-1.58685e-37
-7.76663e-34
2.89555e-34
1.38654e-32
-2.93018e-33
-1.93759e-32
-5.63258e-32
8.08347e-32
2.26234e-32
-3.31261e-33
2.18218e-31
3.96167e-32
-8.24159e-31
4.83213e-31
-1.76431e-30
-6.0482e-31
1.36553e-30
1.07836e-30
3.18412e-30
-1.1389e-31
3.66882e-30
4.45757e-30
-1.40883e-30
1.49128e-30
-3.76532e-30
-7.16938e-30
-2.0684e-30
5.01045e-31
1.36846e-29
1.29258e-29
-6.16722e-30
-5.47458e-30
1.14566e-29
3.95026e-30
-8.50448e-31
1.29632e-29
5.30873e-30
-1.21732e-30
6.23492e-30
-2.82067e-30
3.34056e-30
1.37101e-29
-4.30699e-30
-1.04128e-29
-3.23216e-30
1.53882e-29
-8.94597e-31
-1.31426e-29
2.90562e-30
1.04326e-29
-1.37804e-29
2.95296e-13
4.03613e-13
1.17347e-13
-9.85957e-14
-6.62899e-14
4.21575e-14
-7.20261e-30
-1.51103e-29
7.69241e-31
6.97454e-30
-9.30261e-30
-1.17453e-29
1.23589e-30
-2.93793e-30
-1.03416e-29
8.35177e-30
-7.25509e-30
-4.23768e-30
-3.78766e-30
-6.89781e-30
-3.5609e-30
1.97156e-30
1.50887e-30
1.41262e-30
-1.24698e-31
-2.46635e-31
9.50973e-31
-2.28168e-31
-2.16829e-31
-1.06162e-31
-8.5409e-33
-4.11788e-32
-5.2089e-33
1.43412e-32
-5.40378e-33
-2.45147e-34
-3.05621e-33
-1.80763e-33
-5.22177e-34
-8.8433e-35
-2.13676e-35
1.67808e-35
4.44354e-36
1.30704e-35
-3.60981e-36
-2.26357e-37
-2.70339e-36
1.29211e-37
3.40794e-37
2.16926e-38
-1.41797e-33
-2.40112e-33
1.49338e-32
-2.86511e-32
3.97868e-32
-3.66919e-32
9.62191e-32
-2.02202e-31
-3.3171e-32
-3.86022e-31
1.13935e-31
-5.78566e-31
-4.85818e-31
-3.95179e-31
-8.59762e-31
1.46472e-30
-3.41796e-30
-4.5945e-31
-3.46969e-30
-7.43132e-31
5.76119e-30
-5.56046e-30
3.06535e-30
3.72736e-30
-1.69321e-30
7.02063e-30
-1.39428e-29
-2.86033e-30
3.65298e-30
-1.21782e-29
3.7723e-30
1.19191e-30
-4.69682e-30
9.3783e-30
-1.06557e-29
2.623e-30
1.50324e-29
-1.49823e-29
1.0669e-29
-1.33225e-29
-1.34418e-29
-1.45797e-29
1.48066e-29
1.09994e-29
6.21736e-30
7.59077e-30
1.3213e-29
-1.32531e-29
-5.63678e-30
-6.10497e-30
-6.33731e-14
-2.34539e-14
-5.82559e-14
1.31832e-14
-2.54055e-15
4.1043e-14
-7.87602e-30
-1.08036e-29
8.40194e-31
1.04298e-29
5.59227e-30
7.18112e-30
-1.30671e-29
-2.8341e-31
-5.68799e-30