/*--------------------------------*- C++ -*----------------------------------*\
  =========                 |
  \\      /  F ield         | OpenFOAM: The Open Source CFD Toolbox
   \\    /   O peration     | Website:  https://openfoam.org
    \\  /    A nd           | Version:  10
     \\/     M anipulation  |
\*---------------------------------------------------------------------------*/
FoamFile
{
    format      ascii;
    class       volScalarField;
    location    "1";
    object      RR.H2;
}
// * * * * * * * * * * * * * * * * * * * * * * * * * * * * * * * * * * * * * //

dimensions      [1 -3 -1 0 0 0 0];

internalField   nonuniform List<scalar> 
4000
(
-1.11735e-12
-4.29994e-12
-9.08275e-12
-1.65489e-11
-2.83661e-11
-4.72082e-11
-7.78511e-11
-1.28858e-10
-2.16487e-10
-3.72652e-10
-6.63634e-10
-1.23544e-09
-2.43002e-09
-5.09606e-09
-1.14459e-08
-2.73571e-08
-6.92297e-08
-1.81548e-07
-4.61728e-07
-1.16629e-06
-2.66131e-06
-5.51809e-06
-1.02507e-05
-1.64622e-05
-2.3497e-05
-3.04316e-05
-3.6735e-05
-4.42046e-05
-5.07613e-05
-5.84882e-05
-6.75738e-05
-7.858e-05
-9.12715e-05
-0.000100968
-0.000101123
-7.00523e-05
2.95076e-05
0.000251421
0.00065875
0.00133102
0.002407
0.00412172
0.00687413
0.0113432
0.0187526
0.0306697
0.0489804
0.0756814
0.111869
0.15509
0.195048
0.164485
-0.240003
-0.410723
-0.379291
-0.28876
-0.196318
-0.124518
-0.0747296
-0.0428257
-0.023435
-0.012073
-0.0056639
-0.0024007
-0.000876157
-0.000255296
-6.11683e-05
-1.20199e-05
-1.74802e-06
-1.94658e-07
-1.83875e-08
-1.38852e-09
-9.12126e-11
-5.42767e-12
-3.22097e-13
-2.15868e-14
-1.55111e-15
-1.25769e-16
-1.20707e-17
-1.45302e-18
-2.2461e-19
-4.20589e-20
-9.56442e-21
-2.91868e-21
-1.0937e-21
2.20772e-24
-7.58918e-26
-2.97441e-23
6.02287e-24
-1.3966e-23
5.48903e-24
1.84432e-24
-1.43126e-24
7.46703e-25
-4.71067e-25
2.43736e-26
1.51876e-26
-2.23204e-26
-1.53127e-26
2.20344e-28
-1.1207e-12
-4.2577e-12
-9.02811e-12
-1.64332e-11
-2.8152e-11
-4.68569e-11
-7.72413e-11
-1.27768e-10
-2.14432e-10
-3.68578e-10
-6.55118e-10
-1.21643e-09
-2.3837e-09
-4.97816e-09
-1.11346e-08
-2.65055e-08
-6.66667e-08
-1.7378e-07
-4.41145e-07
-1.1192e-06
-2.56236e-06
-5.32412e-06
-9.95703e-06
-1.61436e-05
-2.32128e-05
-3.02424e-05
-3.66399e-05
-4.41633e-05
-5.0745e-05
-5.84711e-05
-6.75287e-05
-7.88241e-05
-9.13068e-05
-0.000101089
-0.000101674
-7.13622e-05
2.7253e-05
0.000249488
0.000657379
0.00133388
0.00241813
0.00414815
0.00692704
0.0114463
0.0189463
0.0310191
0.0495574
0.0765795
0.113132
0.156617
0.196074
0.159311
-0.255009
-0.413619
-0.377524
-0.285541
-0.193792
-0.122537
-0.0733033
-0.0419072
-0.0227493
-0.0116391
-0.00541407
-0.00226817
-0.000811858
-0.000233719
-5.51082e-05
-1.05973e-05
-1.50188e-06
-1.63519e-07
-1.52196e-08
-1.15095e-09
-7.56647e-11
-4.48676e-12
-2.70219e-13
-1.82829e-14
-1.32733e-15
-1.0873e-16
-1.05452e-17
-1.27244e-18
-2.05805e-19
-3.87963e-20
-1.03741e-20
-3.4372e-21
-1.12842e-21
-1.37278e-22
7.83222e-23
2.4868e-23
2.85523e-23
-2.11986e-24
4.88738e-24
1.65575e-24
9.50689e-25
-6.51621e-25
2.92622e-25
1.29922e-25
4.18885e-26
-2.93568e-26
2.66987e-26
-5.35297e-28
-1.09201e-12
-4.23933e-12
-8.95547e-12
-1.6325e-11
-2.7971e-11
-4.65316e-11
-7.66735e-11
-1.26752e-10
-2.1248e-10
-3.64567e-10
-6.46232e-10
-1.19492e-09
-2.3321e-09
-4.84874e-09
-1.07912e-08
-2.55643e-08
-6.41217e-08
-1.66164e-07
-4.2008e-07
-1.06513e-06
-2.446e-06
-5.12229e-06
-9.61361e-06
-1.58499e-05
-2.29086e-05
-3.00117e-05
-3.64931e-05
-4.40688e-05
-5.07088e-05
-5.84644e-05
-6.751e-05
-7.87509e-05
-9.13006e-05
-0.000101373
-0.000102524
-7.31947e-05
2.41317e-05
0.000246
0.000656555
0.00134029
0.0024385
0.00419316
0.00701585
0.0116178
0.0192623
0.0315714
0.050453
0.0779412
0.115
0.158761
0.197105
0.148945
-0.276103
-0.417285
-0.374727
-0.281072
-0.189212
-0.11904
-0.0709516
-0.0405074
-0.0217306
-0.0110297
-0.00507841
-0.00209739
-0.000733824
-0.00020749
-4.78774e-05
-8.98418e-06
-1.2387e-06
-1.32095e-07
-1.21694e-08
-9.1902e-10
-6.07761e-11
-3.64952e-12
-2.22513e-13
-1.52172e-14
-1.11621e-15
-9.24539e-17
-9.09053e-18
-1.10783e-18
-1.78456e-19
-3.32959e-20
-9.68917e-21
-1.83463e-21
-2.54001e-22
1.01822e-22
-8.13856e-23
8.98342e-24
-5.37963e-24
-1.76642e-24
4.86412e-24
-1.60209e-24
-1.03291e-24
4.39555e-25
1.05055e-25
1.46811e-25
-1.61502e-26
-3.40463e-26
-5.18008e-27
2.48774e-27
-1.09039e-12
-4.20084e-12
-8.87551e-12
-1.61768e-11
-2.76639e-11
-4.60003e-11
-7.57542e-11
-1.25104e-10
-2.09421e-10
-3.58747e-10
-6.34679e-10
-1.17116e-09
-2.27866e-09
-4.71875e-09
-1.0454e-08
-2.46482e-08
-6.15392e-08
-1.59413e-07
-4.03093e-07
-1.01958e-06
-2.3465e-06
-4.936e-06
-9.32998e-06
-1.55378e-05
-2.26278e-05
-2.97947e-05
-3.63607e-05
-4.40023e-05
-5.0868e-05
-5.85077e-05
-6.75626e-05
-7.85153e-05
-9.14434e-05
-0.000101753
-0.000103487
-7.51105e-05
2.11976e-05
0.000243079
0.000657452
0.00135068
0.00246671
0.00425458
0.0071363
0.0118439
0.0196773
0.032305
0.0516373
0.0798092
0.117573
0.161672
0.198243
0.13664
-0.298609
-0.421276
-0.371411
-0.275687
-0.184194
-0.115141
-0.0682479
-0.0387404
-0.0206412
-0.0103563
-0.00470464
-0.00191521
-0.0006547
-0.000180033
-4.06842e-05
-7.42396e-06
-9.99007e-07
-1.04172e-07
-9.51552e-09
-7.17218e-10
-4.66152e-11
-2.78364e-12
-1.70832e-13
-1.17396e-14
-8.67537e-16
-7.25287e-17
-7.24528e-18
-9.02207e-19
-1.44786e-19
-2.78351e-20
-7.63802e-21
-2.09942e-21
-4.06377e-22
-1.07911e-22
-2.45893e-24
-3.52539e-23
-9.45217e-24
-6.91215e-24
-8.02535e-24
3.63566e-24
1.43883e-24
4.17332e-25
-5.44403e-26
-2.46356e-25
-1.09894e-27
-4.09667e-26
2.96123e-26
4.69284e-27
-1.08105e-12
-4.16003e-12
-8.79205e-12
-1.60225e-11
-2.74237e-11
-4.55685e-11
-7.49877e-11
-1.23756e-10
-2.07008e-10
-3.54144e-10
-6.25442e-10
-1.15156e-09
-2.23428e-09
-4.6118e-09
-1.018e-08
-2.39149e-08
-5.95019e-08
-1.53698e-07
-3.87822e-07
-9.81636e-07
-2.26696e-06
-4.78976e-06
-9.09148e-06
-1.52586e-05
-2.23491e-05
-2.95834e-05
-3.62641e-05
-4.39746e-05
-5.07724e-05
-5.86176e-05
-6.76867e-05
-7.65024e-05
-9.16775e-05
-0.000102214
-0.000104462
-7.68635e-05
1.8759e-05
0.000241457
0.000660216
0.00136406
0.00250043
0.00432464
0.00727119
0.0120948
0.0201339
0.0331057
0.0528638
0.0816566
0.120064
0.164415
0.198875
0.118982
-0.321211
-0.424193
-0.367191
-0.269678
-0.178848
-0.111078
-0.0654965
-0.037014
-0.0196085
-0.0097398
-0.00437046
-0.0017484
-0.000584176
-0.000157062
-3.48167e-05
-6.20703e-06
-8.12129e-07
-8.27436e-08
-7.50855e-09
-5.56824e-10
-3.61085e-11
-2.16715e-12
-1.34608e-13
-9.32856e-15
-6.95977e-16
-5.88118e-17
-5.95082e-18
-7.50801e-19
-1.23602e-19
-3.11927e-20
-8.17742e-21
-2.59319e-21
-7.96533e-22
2.03437e-22
1.29101e-22
3.50242e-23
6.70502e-24
4.43914e-24
-5.84112e-24
2.18579e-24
-1.33922e-24
7.08752e-26
-3.42668e-25
1.65216e-25
-5.26746e-26
-2.28588e-26
2.30571e-26
1.36103e-27
-1.07884e-12
-4.13009e-12
-8.7098e-12
-1.58947e-11
-2.71829e-11
-4.5164e-11
-7.42559e-11
-1.22481e-10
-2.04703e-10
-3.49829e-10
-6.16874e-10
-1.1335e-09
-2.19407e-09
-4.51672e-09
-9.94205e-09
-2.32951e-08
-5.78347e-08
-1.49209e-07
-3.76499e-07
-9.52631e-07
-2.20557e-06
-4.67443e-06
-8.89233e-06
-1.5017e-05
-2.21152e-05
-2.94318e-05
-3.62036e-05
-4.39773e-05
-5.08742e-05
-5.87899e-05
-6.79128e-05
-7.90726e-05
-9.20311e-05
-0.000102727
-0.000105386
-7.83533e-05
1.69376e-05
0.000240992
0.000665033
0.00138066
0.00253889
0.00440258
0.00741425
0.0123537
0.020594
0.0338905
0.0541468
0.0835713
0.12269
0.167341
0.199342
0.101599
-0.339966
-0.426291
-0.36308
-0.263881
-0.173839
-0.10729
-0.0628484
-0.0352756
-0.0186098
-0.00916035
-0.00407494
-0.00160738
-0.000527103
-0.000139253
-3.05184e-05
-5.13375e-06
-6.5934e-07
-6.64323e-08
-5.92987e-09
-4.36256e-10
-2.82452e-11
-1.70381e-12
-1.07006e-13
-7.47321e-15
-5.62697e-16
-4.80987e-17
-4.938e-18
-6.42959e-19
-1.03504e-19
-2.38719e-20
-6.55832e-21
-1.7076e-21
-7.01004e-22
2.5339e-22
1.75558e-23
-5.16671e-23
1.95597e-25
6.29884e-24
3.87934e-25
2.10046e-24
1.21445e-24
3.13219e-25
1.35767e-25
-8.16893e-26
4.11721e-26
1.52971e-27
-2.1071e-26
5.85736e-27
-1.06711e-12
-4.09931e-12
-8.65934e-12
-1.57595e-11
-2.6951e-11
-4.47672e-11
-7.36251e-11
-1.21354e-10
-2.02644e-10
-3.45982e-10
-6.09245e-10
-1.1176e-09
-2.1588e-09
-4.43379e-09
-9.73555e-09
-2.27589e-08
-5.63917e-08
-1.45294e-07
-3.66413e-07
-9.2608e-07
-2.14857e-06
-4.5748e-06
-8.72297e-06
-1.48121e-05
-2.19401e-05
-2.93244e-05
-3.61816e-05
-4.40142e-05
-5.09948e-05
-5.89667e-05
-6.81215e-05
-7.92714e-05
-9.2568e-05
-0.000103202
-0.000106183
-7.94821e-05
1.58779e-05
0.000242447
0.000671379
0.00139881
0.00257948
0.00448221
0.0075607
0.0126184
0.0210635
0.0346886
0.0553773
0.0853888
0.12534
0.17007
0.199465
0.0794411
-0.356989
-0.426896
-0.358357
-0.256955
-0.168327
-0.10339
-0.0603137
-0.0336484
-0.0178355
-0.00870448
-0.00382824
-0.00149022
-0.000480816
-0.000125149
-2.70538e-05
-4.46213e-06
-5.63168e-07
-5.57981e-08
-4.95916e-09
-3.61918e-10
-2.33583e-11
-1.41136e-12
-8.93123e-14
-6.2706e-15
-4.75475e-16
-4.1026e-17
-4.26639e-18
-5.55306e-19
-1.00591e-19
-2.61314e-20
-7.06491e-21
-1.62213e-21
-8.63684e-22
1.03053e-22
-2.92268e-23
4.81669e-23
-1.71173e-23
-9.31203e-24
-7.43249e-24
1.3018e-24
-5.12809e-25
8.10648e-25
-1.31348e-25
1.71346e-25
-6.98791e-26
-3.1965e-26
3.3634e-27
-1.17555e-27
-1.06079e-12
-4.07939e-12
-8.60004e-12
-1.56404e-11
-2.67426e-11
-4.44156e-11
-7.30187e-11
-1.20325e-10
-2.00835e-10
-3.42566e-10
-6.02527e-10
-1.10361e-09
-2.12799e-09
-4.3619e-09
-9.55769e-09
-2.22999e-08
-5.51638e-08
-1.41982e-07
-3.5795e-07
-9.03552e-07
-2.10275e-06
-4.48909e-06
-8.59142e-06
-1.46648e-05
-2.1808e-05
-2.92427e-05
-3.6179e-05
-4.40772e-05
-5.11354e-05
-5.91607e-05
-6.83578e-05
-7.95505e-05
-9.28096e-05
-0.000103717
-0.000106896
-8.03592e-05
1.5382e-05
0.000243737
0.000678697
0.00141752
0.00261785
0.00455512
0.00769274
0.0128572
0.0214914
0.0354296
0.0565755
0.0871796
0.127704
0.172657
0.199642
0.0576524
-0.370183
-0.426996
-0.353609
-0.252151
-0.164395
-0.100508
-0.0583887
-0.0324387
-0.0171044
-0.00827178
-0.00361018
-0.00138735
-0.000439631
-0.000112934
-2.40989e-05
-3.86564e-06
-4.81163e-07
-4.72146e-08
-4.1886e-09
-3.04373e-10
-1.95522e-11
-1.18184e-12
-7.52694e-14
-5.30771e-15
-4.04999e-16
-3.52576e-17
-3.69103e-18
-4.96065e-19
-8.39745e-20
-1.91574e-20
-5.83472e-21
-1.97331e-21
-6.34995e-22
-1.9392e-22
6.99042e-25
-3.2613e-23
-5.29955e-24
7.64798e-24
-9.49039e-25
2.41491e-24
8.98674e-25
3.13092e-25
-2.10195e-25
-3.48124e-26
3.49802e-26
-5.48152e-26
-2.85607e-27
1.84434e-27
-1.04055e-12
-4.02804e-12
-8.53867e-12
-1.55242e-11
-2.65722e-11
-4.41193e-11
-7.25125e-11
-1.19444e-10
-1.99252e-10
-3.39641e-10
-5.96753e-10
-1.09163e-09
-2.10183e-09
-4.30104e-09
-9.40814e-09
-2.19174e-08
-5.41533e-08
-1.3931e-07
-3.51408e-07
-8.8608e-07
-2.0655e-06
-4.42252e-06
-8.48711e-06
-1.45398e-05
-2.17025e-05
-2.91956e-05
-3.62004e-05
-4.415e-05
-5.13195e-05
-5.93448e-05
-6.85947e-05
-7.98206e-05
-9.32097e-05
-0.000104172
-0.000107497
-8.09421e-05
1.5432e-05
0.000245841
0.000687066
0.00143777
0.00265976
0.00463457
0.00783543
0.013112
0.0219401
0.0361832
0.0577712
0.0889703
0.13004
0.175387
0.200069
0.0390234
-0.379565
-0.426292
-0.349869
-0.246643
-0.160045
-0.0974988
-0.0564575
-0.0312664
-0.0164199
-0.0078975
-0.00342325
-0.00129963
-0.000404372
-0.000102104
-2.14461e-05
-3.37756e-06
-4.12974e-07
-3.97664e-08
-3.49633e-09
-2.52362e-10
-1.61768e-11
-9.81412e-13
-6.30488e-14
-4.47112e-15
-3.43638e-16
-3.01533e-17
-3.21191e-18
-4.5281e-19
-7.93616e-20
-1.75178e-20
-4.30672e-21
-5.28992e-22
-9.97571e-22
2.54372e-22
8.08703e-23
5.62985e-23
2.31773e-23
6.74099e-24
6.03073e-24
1.06313e-24
5.63951e-25
7.90791e-25
9.21821e-26
-7.22789e-27
-6.74988e-26
-2.34031e-26
6.65315e-27
-2.41073e-27
-1.04225e-12
-4.01806e-12
-8.48006e-12
-1.54594e-11
-2.64129e-11
-4.38808e-11
-7.20799e-11
-1.18685e-10
-1.97897e-10
-3.37118e-10
-5.91851e-10
-1.08156e-09
-2.07973e-09
-4.24969e-09
-9.28154e-09
-2.15914e-08
-5.32788e-08
-1.36948e-07
-3.45299e-07
-8.69689e-07
-2.03228e-06
-4.3625e-06
-8.40179e-06
-1.44508e-05
-2.16306e-05
-2.91675e-05
-3.62327e-05
-4.42301e-05
-5.15175e-05
-5.95305e-05
-6.88256e-05
-8.00888e-05
-9.39293e-05
-0.000104602
-0.00010798
-8.12921e-05
1.58826e-05
0.000246821
0.000695843
0.00145746
0.00269922
0.00470868
0.00796819
0.0133495
0.0223544
0.0368852
0.0588951
0.0906008
0.132003
0.17747
0.200188
0.0138186
-0.387867
-0.425067
-0.345834
-0.242629
-0.156893
-0.0953061
-0.0550492
-0.0304068
-0.0158949
-0.00759207
-0.00327067
-0.00123616
-0.000371227
-9.30229e-05
-1.93059e-05
-3.00428e-06
-3.62431e-07
-3.46997e-08
-3.03278e-09
-2.17335e-10
-1.38926e-11
-8.44636e-13
-5.46163e-14
-3.88956e-15
-3.00705e-16
-2.65921e-17
-2.8617e-18
-3.79636e-19
-6.81852e-20
-1.75031e-20
-5.42125e-21
-1.46168e-21
-9.67949e-22
2.42746e-22
5.60516e-23
-6.23586e-23
6.04538e-24
9.65513e-24
-7.61296e-24
-3.08694e-25
8.43546e-25
-4.73222e-25
4.43502e-25
2.15738e-25
-2.52789e-26
3.44516e-27
-7.77534e-27
-4.16971e-27
-1.04033e-12
-3.99237e-12
-8.44396e-12
-1.53774e-11
-2.62907e-11
-4.36569e-11
-7.17118e-11
-1.1805e-10
-1.96786e-10
-3.35054e-10
-5.8784e-10
-1.0733e-09
-2.06185e-09
-4.20867e-09
-9.17979e-09
-2.13345e-08
-5.26149e-08
-1.35229e-07
-3.40936e-07
-8.57812e-07
-2.00758e-06
-4.31747e-06
-8.33602e-06
-1.43774e-05
-2.15772e-05
-2.91548e-05
-3.62701e-05
-4.43093e-05
-5.16422e-05
-5.96972e-05
-6.90143e-05
-8.02723e-05
-9.39026e-05
-0.000104905
-0.000108344
-8.14989e-05
1.64451e-05
0.000249678
0.000703908
0.00147537
0.00273488
0.00477576
0.00808961
0.0135724
0.0227512
0.037565
0.0599714
0.0921948
0.134017
0.179682
0.200308
-0.00774308
-0.394649
-0.424149
-0.341964
-0.23955
-0.154336
-0.0934519
-0.0538181
-0.0296407
-0.0154332
-0.00733057
-0.00313899
-0.00117456
-0.000348952
-8.63173e-05
-1.77416e-05
-2.72002e-06
-3.24103e-07
-3.09292e-08
-2.69819e-09
-1.92259e-10
-1.22549e-11
-7.46299e-13
-4.85181e-14
-3.46754e-15
-2.69292e-16
-2.39458e-17
-2.58515e-18
-3.53629e-19
-6.65728e-20
-1.49233e-20
-4.64852e-21
-1.03162e-21
-5.42804e-22
8.48353e-23
7.80244e-23
3.80215e-24
-1.02564e-23
-9.85856e-24
-7.80689e-24
2.24422e-24
-1.52435e-24
-8.0088e-25
-3.17885e-25
-5.60865e-26
-9.47457e-26
-5.97319e-26
-1.09682e-26
-1.44363e-27
-1.04477e-12
-3.98539e-12
-8.39785e-12
-1.53218e-11
-2.61948e-11
-4.34866e-11
-7.14136e-11
-1.17534e-10
-1.9586e-10
-3.33351e-10
-5.84522e-10
-1.06658e-09
-2.04737e-09
-4.17552e-09
-9.09772e-09
-2.11301e-08
-5.20784e-08
-1.33758e-07
-3.37138e-07
-8.47884e-07
-1.98666e-06
-4.28149e-06
-8.28534e-06
-1.43235e-05
-2.15385e-05
-2.91511e-05
-3.63102e-05
-4.43857e-05
-5.17588e-05
-5.98494e-05
-6.92022e-05
-8.04934e-05
-9.41969e-05
-0.000105215
-0.000108649
-8.16063e-05
1.70874e-05
0.000252428
0.000711129
0.00149075
0.00276434
0.00482841
0.00817815
0.0138139
0.0231452
0.0382115
0.0609918
0.0937191
0.136136
0.182276
0.201064
-0.0225736
-0.39866
-0.422869
-0.339137
-0.236384
-0.151868
-0.0917452
-0.0527298
-0.0289801
-0.0150388
-0.00710781
-0.00302724
-0.0011231
-0.000331242
-8.13298e-05
-1.65455e-05
-2.50788e-06
-2.9568e-07
-2.82722e-08
-2.46101e-09
-1.7506e-10
-1.11168e-11
-6.77207e-13
-4.41949e-14
-3.16646e-15
-2.46838e-16
-2.21003e-17
-2.41523e-18
-3.44445e-19
-6.97505e-20
-1.44948e-20
-5.54121e-21
-1.50235e-21
-6.07132e-22
-2.36847e-22
1.95256e-23
-3.81296e-24
-8.01674e-24
-6.63506e-24
-2.85803e-24
-3.82363e-25
6.41206e-25
-7.59267e-25
-6.008e-26
2.31618e-25
-6.34739e-26
2.43157e-26
-1.12867e-26
5.57171e-28
-1.04274e-12
-3.98464e-12
-8.39133e-12
-1.52655e-11
-2.6102e-11
-4.33382e-11
-7.11654e-11
-1.17109e-10
-1.95094e-10
-3.31939e-10
-5.81846e-10
-1.06113e-09
-2.03571e-09
-4.14924e-09
-9.03395e-09
-2.09705e-08
-5.16505e-08
-1.32623e-07
-3.34304e-07
-8.40247e-07
-1.97097e-06
-4.25393e-06
-8.24489e-06
-1.428e-05
-2.15094e-05
-2.91548e-05
-3.63538e-05
-4.44634e-05
-5.18716e-05
-5.99877e-05
-6.93798e-05
-8.07105e-05
-9.42193e-05
-0.000105495
-0.000108891
-8.16137e-05
1.78556e-05
0.000255236
0.000718266
0.00150587
0.0027937
0.0048828
0.00827724
0.0139964
0.0234631
0.0387444
0.0618335
0.0949537
0.137726
0.183954
0.201339
-0.0447185
-0.402294
-0.421063
-0.336173
-0.233081
-0.149489
-0.090188
-0.0517722
-0.0284205
-0.0147115
-0.00692871
-0.00293857
-0.00108206
-0.000317291
-7.73354e-05
-1.56073e-05
-2.34284e-06
-2.73584e-07
-2.6202e-08
-2.2695e-09
-1.60686e-10
-1.01898e-11
-6.21403e-13
-4.07066e-14
-2.92345e-15
-2.28691e-16
-2.05532e-17
-2.27138e-18
-3.15852e-19
-5.44333e-20
-1.55982e-20
-4.49238e-21
-7.42491e-22
-6.72183e-22
-5.27064e-23
3.2332e-23
-4.4938e-23
2.37481e-23
-1.43084e-24
-7.27086e-24
1.11912e-24
-1.89869e-24
-8.02804e-25
1.35662e-25
6.06576e-26
1.06651e-26
3.7861e-26
-1.98878e-26
-7.82188e-28
-1.02201e-12
-3.95394e-12
-8.36689e-12
-1.52343e-11
-2.60169e-11
-4.32254e-11
-7.0956e-11
-1.16753e-10
-1.94467e-10
-3.30802e-10
-5.79607e-10
-1.05656e-09
-2.02583e-09
-4.12653e-09
-8.97751e-09
-2.08235e-08
-5.12688e-08
-1.31633e-07
-3.31931e-07
-8.34e-07
-1.95868e-06
-4.23221e-06
-8.21437e-06
-1.42492e-05
-2.14921e-05
-2.91634e-05
-3.6394e-05
-4.45329e-05
-5.19734e-05
-6.01215e-05
-6.95383e-05
-7.84149e-05
-9.45989e-05
-0.000105676
-0.000109058
-8.15542e-05
1.86502e-05
0.000257913
0.000724854
0.00151961
0.00282022
0.00493205
0.00836751
0.0141618
0.023756
0.0392437
0.0626338
0.096153
0.139384
0.185975
0.202283
-0.0599428
-0.404776
-0.419412
-0.333409
-0.23055
-0.147583
-0.0889179
-0.0509848
-0.0279512
-0.0144376
-0.00678032
-0.00286544
-0.00104873
-0.000306034
-7.41454e-05
-1.48542e-05
-2.21509e-06
-2.56818e-07
-2.46309e-08
-2.12747e-09
-1.50152e-10
-9.50509e-12
-5.79915e-13
-3.80982e-14
-2.74113e-15
-2.15008e-16
-1.94236e-17
-2.15491e-18
-3.15326e-19
-5.52825e-20
-1.54795e-20
-5.42659e-21
-1.28117e-21
-1.00696e-21
1.19873e-22
-2.11761e-23
5.64025e-23
-2.57594e-23
-2.75713e-24
-6.15222e-24
1.72314e-24
-1.7975e-24
-5.92045e-25
-1.75584e-25
1.69625e-25
-6.04088e-26
7.7696e-27
-3.07235e-26
7.48327e-28
-1.01827e-12
-3.95132e-12
-8.35072e-12
-1.51938e-11
-2.59697e-11
-4.31214e-11
-7.07893e-11
-1.16481e-10
-1.9398e-10
-3.29869e-10
-5.77811e-10
-1.05288e-09
-2.01783e-09
-4.10818e-09
-8.93157e-09
-2.07118e-08
-5.09867e-08
-1.30903e-07
-3.30114e-07
-8.29116e-07
-1.94848e-06
-4.2147e-06
-8.19013e-06
-1.42264e-05
-2.14818e-05
-2.91758e-05
-3.64331e-05
-4.4601e-05
-5.20882e-05
-6.03185e-05
-6.9947e-05
-8.18171e-05
-9.48674e-05
-0.000105977
-0.000109237
-8.14866e-05
1.93797e-05
0.000260277
0.000730586
0.00153152
0.00284332
0.00497499
0.00844457
0.0143002
0.0240001
0.0396601
0.0633039
0.0971644
0.140765
0.18759
0.202726
-0.072
-0.406771
-0.418284
-0.331498
-0.228806
-0.146188
-0.0879405
-0.050361
-0.0275754
-0.0142143
-0.00665582
-0.00280424
-0.00102118
-0.000296922
-7.16129e-05
-1.4275e-05
-2.1153e-06
-2.4387e-07
-2.3413e-08
-2.01861e-09
-1.42075e-10
-8.97909e-12
-5.47975e-13
-3.60838e-14
-2.59986e-15
-2.04301e-16
-1.85329e-17
-2.05343e-18
-3.03966e-19
-6.01483e-20
-1.32745e-20
-4.78632e-21
-1.1743e-21
-3.70844e-22
-1.59566e-22
1.13384e-22
3.16663e-23
2.41372e-23
-1.05878e-23
5.29222e-24
-7.35455e-25
1.59035e-25
-6.60634e-25
2.19986e-25
1.55088e-25
-1.01823e-25
1.26221e-26
2.17531e-26
-2.03058e-27
-1.03104e-12
-3.93178e-12
-8.32192e-12
-1.51691e-11
-2.59278e-11
-4.30543e-11
-7.06906e-11
-1.16258e-10
-1.9359e-10
-3.29156e-10
-5.76436e-10
-1.05006e-09
-2.01176e-09
-4.09443e-09
-8.89774e-09
-2.06278e-08
-5.07649e-08
-1.30317e-07
-3.28644e-07
-8.2524e-07
-1.94102e-06
-4.20199e-06
-8.173e-06
-1.42104e-05
-2.14757e-05
-2.91866e-05
-3.64622e-05
-4.46423e-05
-5.21303e-05
-6.03155e-05
-6.97835e-05
-8.10125e-05
-9.4954e-05
-0.000106013
-0.000109303
-8.13716e-05
2.00824e-05
0.000262428
0.000735665
0.00154185
0.00286286
0.00501037
0.00850802
0.0144139
0.0242008
0.040005
0.0638673
0.0980368
0.14201
0.189117
0.202862
-0.0771026
-0.408215
-0.417832
-0.330263
-0.227549
-0.145155
-0.0872033
-0.0498781
-0.0272781
-0.014036
-0.00655656
-0.00275513
-0.000999146
-0.000289651
-6.95892e-05
-1.38061e-05
-2.03524e-06
-2.33387e-07
-2.24332e-08
-1.93065e-09
-1.35581e-10
-8.55833e-12
-5.22503e-13
-3.44778e-14
-2.48746e-15
-1.95871e-16
-1.77689e-17
-1.97984e-18
-2.86441e-19
-6.13148e-20
-1.41143e-20
-4.76788e-21
-1.37158e-21
-5.47084e-22
6.06308e-23
-1.10885e-22
1.92614e-23
3.08821e-23
-2.46636e-24
-4.44064e-25
2.90218e-24
9.77769e-25
-4.20243e-25
7.85072e-26
9.40199e-26
6.37524e-26
-2.39342e-26
1.08263e-26
5.75425e-27
-1.02664e-12
-3.93453e-12
-8.32916e-12
-1.51506e-11
-2.58996e-11
-4.29922e-11
-7.05732e-11
-1.1611e-10
-1.93285e-10
-3.28652e-10
-5.75431e-10
-1.04803e-09
-2.00741e-09
-4.08447e-09
-8.87249e-09
-2.0563e-08
-5.05933e-08
-1.29867e-07
-3.27541e-07
-8.22291e-07
-1.93507e-06
-4.19191e-06
-8.15976e-06
-1.41988e-05
-2.14725e-05
-2.91975e-05
-3.64892e-05
-4.46821e-05
-5.21818e-05
-6.03683e-05
-6.98312e-05
-8.10512e-05
-9.50143e-05
-0.000106113
-0.000109375
-8.12771e-05
2.0658e-05
0.000264168
0.000739722
0.00155004
0.0028783
0.00503835
0.00855786
0.0145026
0.0243548
0.0402611
0.0642648
0.0986035
0.14272
0.189822
0.202871
-0.0875951
-0.409632
-0.417159
-0.328997
-0.226596
-0.144413
-0.08668
-0.0495382
-0.027068
-0.0139075
-0.00648416
-0.00271854
-0.000982385
-0.000284109
-6.80474e-05
-1.34594e-05
-1.97474e-06
-2.25537e-07
-2.17028e-08
-1.86468e-09
-1.30746e-10
-8.24564e-12
-5.0354e-13
-3.32791e-14
-2.40339e-15
-1.89616e-16
-1.72397e-17
-1.91879e-18
-2.7308e-19
-5.57089e-20
-1.57632e-20
-4.17068e-21
-9.19926e-22
-1.03853e-22
1.60796e-22
-1.08225e-22
4.48553e-23
2.38525e-23
1.10725e-23
2.72649e-25
2.90867e-24
-9.88833e-25
-2.62309e-25
-2.16845e-25
1.02162e-26
-1.75571e-26
1.15076e-26
2.47834e-26
1.51136e-27
-1.01581e-12
-3.94025e-12
-8.31857e-12
-1.51283e-11
-2.5871e-11
-4.29351e-11
-7.05202e-11
-1.1601e-10
-1.93112e-10
-3.28279e-10
-5.74717e-10
-1.04654e-09
-2.00412e-09
-4.07683e-09
-8.8535e-09
-2.05166e-08
-5.04744e-08
-1.29559e-07
-3.26783e-07
-8.20268e-07
-1.93106e-06
-4.18516e-06
-8.15093e-06
-1.41914e-05
-2.14712e-05
-2.92065e-05
-3.65096e-05
-4.47131e-05
-5.22246e-05
-6.04227e-05
-6.99041e-05
-8.11557e-05
-9.49293e-05
-0.000106231
-0.000109445
-8.12118e-05
2.10843e-05
0.000265453
0.000742699
0.00155601
0.00288952
0.00505858
0.00859373
0.0145659
0.0244649
0.0404475
0.0645645
0.099056
0.14333
0.190462
0.202355
-0.0908381
-0.410815
-0.417152
-0.328495
-0.225789
-0.14385
-0.0863127
-0.0493076
-0.026927
-0.0138204
-0.0064338
-0.00269248
-0.000970243
-0.000280091
-6.69343e-05
-1.31862e-05
-1.93159e-06
-2.19956e-07
-2.1181e-08
-1.81794e-09
-1.27307e-10
-8.02255e-12
-4.90003e-13
-3.24221e-14
-2.34312e-15
-1.85047e-16
-1.68794e-17
-1.88239e-18
-2.63604e-19
-5.91218e-20
-1.51324e-20
-4.97457e-21
-1.00802e-21
-5.59252e-22
-7.50484e-23
2.52304e-23
-6.09725e-23
2.49461e-23
1.04539e-23
-6.26622e-24
-2.80105e-24
1.96496e-25
-7.35342e-25
-4.72624e-25
-1.42853e-25
-1.22419e-26
5.43675e-26
4.83338e-27
7.38973e-27
-1.02239e-12
-3.93112e-12
-8.31108e-12
-1.51307e-11
-2.58637e-11
-4.29144e-11
-7.04768e-11
-1.15927e-10
-1.92958e-10
-3.28022e-10
-5.74229e-10
-1.04552e-09
-2.00195e-09
-4.07193e-09
-8.84135e-09
-2.04863e-08
-5.03969e-08
-1.29359e-07
-3.26305e-07
-8.19003e-07
-1.92857e-06
-4.18099e-06
-8.14551e-06
-1.41869e-05
-2.14708e-05
-2.92123e-05
-3.65217e-05
-4.47281e-05
-5.21834e-05
-6.04506e-05
-6.99422e-05
-8.12005e-05
-9.49793e-05
-0.000106286
-0.000109482
-8.1166e-05
2.13624e-05
0.000266284
0.000744614
0.00155983
0.00289666
0.0050714
0.0086162
0.0146053
0.0245328
0.0405606
0.0647417
0.0993145
0.143665
0.190809
0.202214
-0.0950529
-0.411636
-0.416988
-0.32798
-0.225367
-0.143479
-0.0860449
-0.0491326
-0.0268197
-0.0137566
-0.00639889
-0.00267512
-0.000962275
-0.000277455
-6.62018e-05
-1.30197e-05
-1.9033e-06
-2.16299e-07
-2.08414e-08
-1.78744e-09
-1.25069e-10
-7.87783e-12
-4.8121e-13
-3.18634e-14
-2.30381e-15
-1.82112e-16
-1.66103e-17
-1.85731e-18
-2.77228e-19
-5.93966e-20
-1.3907e-20
-5.04464e-21
-1.67879e-21
-9.4673e-22
2.40524e-22
5.28308e-23
3.68045e-23
2.66719e-23
7.43391e-24
-7.35576e-24
2.25964e-24
-1.81629e-24
-3.11135e-25
-3.10138e-25
-2.3454e-25
1.06391e-25
4.93992e-26
2.21851e-26
-3.21397e-27
-1.02457e-12
-3.93655e-12
-8.31738e-12
-1.5133e-11
-2.58518e-11
-4.29037e-11
-7.04416e-11
-1.15889e-10
-1.92895e-10
-3.27887e-10
-5.73981e-10
-1.04503e-09
-2.00092e-09
-4.06961e-09
-8.83556e-09
-2.04719e-08
-5.03597e-08
-1.29264e-07
-3.26073e-07
-8.18386e-07
-1.92735e-06
-4.17897e-06
-8.1429e-06
-1.41848e-05
-2.14706e-05
-2.9215e-05
-3.65263e-05
-4.47296e-05
-5.21639e-05
-6.04528e-05
-6.99405e-05
-8.11687e-05
-9.5201e-05
-0.000106262
-0.00010948
-8.11364e-05
2.15002e-05
0.000266687
0.000745536
0.00156166
0.00290004
0.00507737
0.00862644
0.0146226
0.0245604
0.0406007
0.06479
0.0993499
0.143635
0.190647
0.202271
-0.101536
-0.412343
-0.416726
-0.327208
-0.226059
-0.143823
-0.0861637
-0.0491552
-0.0268101
-0.0137387
-0.00638366
-0.00266608
-0.000957994
-0.000276057
-6.58208e-05
-1.29338e-05
-1.88889e-06
-2.14459e-07
-2.06693e-08
-1.77212e-09
-1.23948e-10
-7.8055e-12
-4.76821e-13
-3.15842e-14
-2.28408e-15
-1.80555e-16
-1.64982e-17
-1.84034e-18
-2.71247e-19
-4.54162e-20
-1.27398e-20
-4.06344e-21
-1.68918e-21
-1.04603e-21
1.59717e-22
6.18937e-23
5.36921e-24
-3.22169e-23
-4.48889e-25
-5.0689e-24
1.23193e-24
-3.31538e-25
4.9015e-25
3.82503e-25
3.84311e-26
7.24226e-26
-5.17277e-26
-5.88405e-27
2.40929e-27
-1.02174e-12
-3.9464e-12
-8.31122e-12
-1.51409e-11
-2.58561e-11
-4.29073e-11
-7.04448e-11
-1.15872e-10
-1.92895e-10
-3.27901e-10
-5.73991e-10
-1.04503e-09
-2.00091e-09
-4.0696e-09
-8.83553e-09
-2.04718e-08
-5.03596e-08
-1.29264e-07
-3.26073e-07
-8.18385e-07
-1.92735e-06
-4.17898e-06
-8.14294e-06
-1.41849e-05
-2.14709e-05
-2.92157e-05
-3.65282e-05
-4.4736e-05
-5.21624e-05
-6.04596e-05
-6.99444e-05
-8.11782e-05
-9.5174e-05
-0.00010627
-0.000109483
-8.11381e-05
2.14955e-05
0.000266673
0.000745506
0.00156161
0.00289998
0.00507737
0.0086267
0.0146238
0.0245644
0.0406124
0.0648199
0.0994215
0.14379
0.190918
0.202142
-0.0957713
-0.41173
-0.416991
-0.32802
-0.225255
-0.143323
-0.0859063
-0.0490332
-0.0267554
-0.0137162
-0.00637581
-0.00266375
-0.000957361
-0.000275908
-6.57894e-05
-1.29281e-05
-1.88809e-06
-2.14372e-07
-2.06607e-08
-1.7714e-09
-1.23898e-10
-7.8023e-12
-4.76622e-13
-3.15713e-14
-2.28309e-15
-1.80442e-16
-1.64553e-17
-1.84533e-18
-2.65065e-19
-5.06253e-20
-1.49301e-20
-3.93771e-21
-1.50085e-21
-7.10573e-22
9.73066e-23
-5.15296e-23
4.77965e-23
2.36864e-23
-1.4228e-24
1.42153e-24
8.6001e-26
7.64502e-25
4.40214e-25
4.62035e-25
2.34736e-25
-1.18351e-25
2.75837e-26
-8.8067e-27
2.26393e-27
-1.02869e-12
-3.93512e-12
-8.3187e-12
-1.51266e-11
-2.58525e-11
-4.29131e-11
-7.04788e-11
-1.15907e-10
-1.92955e-10
-3.27996e-10
-5.74205e-10
-1.0455e-09
-2.00192e-09
-4.07187e-09
-8.84122e-09
-2.0486e-08
-5.03963e-08
-1.29358e-07
-3.26303e-07
-8.18994e-07
-1.92856e-06
-4.18101e-06
-8.1456e-06
-1.41872e-05
-2.14713e-05
-2.92134e-05
-3.65239e-05
-4.4734e-05
-5.22519e-05
-6.04523e-05
-6.99323e-05
-8.11734e-05
-9.50413e-05
-0.000106259
-0.000109471
-8.11655e-05
2.13488e-05
0.000266238
0.000744506
0.00155962
0.0028963
0.00507088
0.00861552
0.0146047
0.0245325
0.0405606
0.0647401
0.0993039
0.143629
0.190723
0.202117
-0.0937936
-0.411409
-0.417212
-0.328412
-0.225631
-0.143591
-0.0860752
-0.049133
-0.0268124
-0.0137484
-0.00639296
-0.00267209
-0.000961115
-0.000277127
-6.61266e-05
-1.30053e-05
-1.90125e-06
-2.16082e-07
-2.08194e-08
-1.78562e-09
-1.24939e-10
-7.86953e-12
-4.80718e-13
-3.18311e-14
-2.30137e-15
-1.81872e-16
-1.65934e-17
-1.87056e-18
-2.63553e-19
-5.98178e-20
-1.5613e-20
-5.34326e-21
-1.00956e-21
-7.77471e-22
-1.77913e-22
-3.76382e-23
-3.70003e-23
-1.82282e-23
-1.20143e-23
-8.96407e-25
-1.73172e-24
-5.34756e-25
1.5473e-25
-4.00717e-25
1.17538e-25
1.11216e-25
3.98258e-26
-1.55664e-26
3.14362e-27
-1.01888e-12
-3.94688e-12
-8.31059e-12
-1.51307e-11
-2.58793e-11
-4.29393e-11
-7.05223e-11
-1.15983e-10
-1.93085e-10
-3.28252e-10
-5.74699e-10
-1.04648e-09
-2.00401e-09
-4.07669e-09
-8.85331e-09
-2.05163e-08
-5.04744e-08
-1.2956e-07
-3.26789e-07
-8.20285e-07
-1.93111e-06
-4.1853e-06
-8.1512e-06
-1.41918e-05
-2.14718e-05
-2.92072e-05
-3.65102e-05
-4.47137e-05
-5.22245e-05
-6.0419e-05
-6.98926e-05
-8.11294e-05
-9.49744e-05
-0.000106206
-0.000109435
-8.1216e-05
2.1055e-05
0.000265364
0.000742491
0.0015556
0.00288876
0.00505736
0.00859176
0.014563
0.0244611
0.0404425
0.0645554
0.0990351
0.143283
0.190377
0.202295
-0.089936
-0.410721
-0.417429
-0.328909
-0.226118
-0.14398
-0.0863453
-0.0493048
-0.0269159
-0.0138101
-0.00642698
-0.00268904
-0.000968839
-0.00027968
-6.68375e-05
-1.31677e-05
-1.92881e-06
-2.19635e-07
-2.11503e-08
-1.81526e-09
-1.27124e-10
-8.01215e-12
-4.89358e-13
-3.23777e-14
-2.33991e-15
-1.84776e-16
-1.68341e-17
-1.88722e-18
-2.74211e-19
-6.00903e-20
-1.45641e-20
-5.36833e-21
-1.66269e-21
-7.38162e-22
-3.43434e-23
-1.49494e-23
1.13024e-23
1.42278e-23
1.44252e-23
3.39656e-24
-3.21092e-24
7.6864e-25
-6.91274e-25
-5.01493e-25
-7.69989e-26
-1.05202e-25
2.46574e-26
2.93787e-26
6.31763e-27
-1.02836e-12
-3.93213e-12
-8.31291e-12
-1.51602e-11
-2.5889e-11
-4.29988e-11
-7.05722e-11
-1.16119e-10
-1.93281e-10
-3.28631e-10
-5.75425e-10
-1.04797e-09
-2.00727e-09
-4.08414e-09
-8.87183e-09
-2.05623e-08
-5.05941e-08
-1.29871e-07
-3.27551e-07
-8.22313e-07
-1.93514e-06
-4.19207e-06
-8.16007e-06
-1.41993e-05
-2.14731e-05
-2.91982e-05
-3.64897e-05
-4.46823e-05
-5.21814e-05
-6.03665e-05
-6.98272e-05
-8.1044e-05
-9.50157e-05
-0.000106106
-0.000109373
-8.1288e-05
2.06149e-05
0.000264046
0.000739437
0.00154946
0.0028772
0.00503635
0.00855449
0.0144968
0.0243458
0.0402484
0.0642485
0.0985875
0.14271
0.189822
0.202585
-0.0847368
-0.40968
-0.417704
-0.329578
-0.226772
-0.14457
-0.0867774
-0.0495865
-0.0270874
-0.0139115
-0.00648222
-0.00271599
-0.000980933
-0.000283644
-6.79375e-05
-1.34386e-05
-1.97199e-06
-2.25267e-07
-2.16771e-08
-1.86278e-09
-1.30625e-10
-8.23641e-12
-5.029e-13
-3.32372e-14
-2.40032e-15
-1.89319e-16
-1.72453e-17
-1.92362e-18
-2.7713e-19
-6.24535e-20
-1.48418e-20
-5.78916e-21
-9.8634e-22
-7.35166e-22
2.24768e-22
-1.22266e-22
-5.20394e-23
-2.76525e-23
1.5743e-23
-2.93791e-24
3.74587e-24
-1.24465e-24
-7.76165e-25
1.1527e-25
-1.52287e-26
1.1316e-25
-2.17676e-26
-1.35291e-26
-5.32366e-27
-1.02856e-12
-3.93105e-12
-8.32182e-12
-1.5169e-11
-2.59237e-11
-4.30531e-11
-7.06862e-11
-1.16264e-10
-1.93583e-10
-3.29177e-10
-5.76466e-10
-1.05009e-09
-2.01184e-09
-4.09453e-09