/*--------------------------------*- C++ -*----------------------------------*\
  =========                 |
  \\      /  F ield         | OpenFOAM: The Open Source CFD Toolbox
   \\    /   O peration     | Website:  https://openfoam.org
    \\  /    A nd           | Version:  10
     \\/     M anipulation  |
\*---------------------------------------------------------------------------*/
FoamFile
{
    format      ascii;
    class       volScalarField;
    location    "1";
    object      RR.H2O;
}
// * * * * * * * * * * * * * * * * * * * * * * * * * * * * * * * * * * * * * //

dimensions      [1 -3 -1 0 0 0 0];

internalField   nonuniform List<scalar> 
4000
(
5.17573e-13
5.92843e-12
2.45091e-11
7.64328e-11
2.083e-10
5.25145e-10
1.25832e-09
2.90491e-09
6.50327e-09
1.41586e-08
3.00389e-08
6.23548e-08
1.27422e-07
2.58063e-07
5.20907e-07
1.04893e-06
2.12005e-06
4.2841e-06
8.38745e-06
1.64406e-05
3.04621e-05
5.36717e-05
8.9217e-05
0.000135553
0.000191484
0.000254552
0.000324402
0.000404093
0.000499755
0.000627142
0.000808992
0.00108388
0.00151633
0.00220666
0.00330867
0.0050539
0.00775771
0.0118427
0.0178541
0.0265765
0.0393422
0.0580265
0.0856394
0.127396
0.193477
0.299076
0.46989
0.752645
1.23556
2.08554
3.6402
6.5029
8.04896
6.43863
4.83595
3.43548
2.31143
1.50059
0.944713
0.580062
0.34669
0.200918
0.111846
0.0587974
0.0271594
0.0102838
0.00339937
0.000987395
0.000231614
4.47936e-05
7.65737e-06
1.1172e-06
1.41903e-07
1.56013e-08
1.5688e-09
1.58882e-10
1.53517e-11
1.52085e-12
1.65734e-13
2.14658e-14
3.45436e-15
6.59139e-16
2.04524e-16
5.37921e-17
1.96915e-17
-3.66402e-18
3.51478e-19
-2.92557e-21
3.13725e-19
-2.60209e-20
-1.11381e-19
5.94429e-21
2.59873e-20
-1.09558e-20
1.48362e-20
-5.16848e-21
-2.43462e-21
4.81373e-23
-1.63916e-22
-1.00753e-22
5.12698e-13
5.87145e-12
2.42721e-11
7.57011e-11
2.06333e-10
5.20166e-10
1.24623e-09
2.87601e-09
6.43437e-09
1.39938e-08
2.96443e-08
6.14171e-08
1.25171e-07
2.52826e-07
5.0913e-07
1.02299e-06
2.06007e-06
4.14897e-06
8.11798e-06
1.59589e-05
2.96218e-05
5.22291e-05
8.71327e-05
0.000133218
0.000189097
0.000252412
0.0003225
0.000402577
0.000498123
0.000625115
0.000806057
0.00107899
0.00150868
0.00219665
0.00329708
0.00504328
0.00775556
0.0118672
0.0179219
0.0267295
0.039637
0.0585573
0.0865344
0.128925
0.196094
0.303597
0.477584
0.766003
1.2592
2.12882
3.72407
6.66422
8.02891
6.40276
4.79523
3.39584
2.28476
1.48027
0.929829
0.570006
0.338464
0.195304
0.1082
0.0563657
0.0255712
0.00958265
0.00313694
0.000897664
0.000206683
3.92972e-05
6.63014e-06
9.63589e-07
1.21601e-07
1.32276e-08
1.33491e-09
1.35389e-10
1.31512e-11
1.31257e-12
1.44442e-13
1.89713e-14
3.14145e-15
7.18424e-16
1.4095e-16
3.45685e-17
2.49774e-17
5.05923e-19
-2.02214e-18
7.22827e-19
-3.14911e-19
1.46143e-19
-9.39652e-20
1.17086e-19
4.7684e-20
-2.56599e-20
5.9453e-21
5.53435e-21
-9.29845e-22
7.63432e-22
-2.98385e-23
-2.41635e-23
5.07971e-13
5.82041e-12
2.4068e-11
7.50841e-11
2.04705e-10
5.16218e-10
1.23667e-09
2.85241e-09
6.37511e-09
1.38428e-08
2.92541e-08
6.03937e-08
1.22718e-07
2.47151e-07
4.96225e-07
9.94425e-07
2.00012e-06
4.01355e-06
7.8339e-06
1.53937e-05
2.86237e-05
5.07255e-05
8.47022e-05
0.000131193
0.000186804
0.000250222
0.000320472
0.000400828
0.000496309
0.000622906
0.000802765
0.00107355
0.00150056
0.00218527
0.00328474
0.0050346
0.00776267
0.0119102
0.0180422
0.026994
0.0401369
0.0594238
0.0879952
0.131422
0.200317
0.310696
0.489461
0.786308
1.29492
2.19364
3.84199
6.929
7.98547
6.34376
4.73367
3.34073
2.2352
1.44346
0.904648
0.554323
0.326008
0.187262
0.103156
0.0531155
0.023586
0.0087106
0.00281264
0.000790579
0.000178248
3.33241e-05
5.56407e-06
8.04164e-07
1.01087e-07
1.10154e-08
1.11629e-09
1.13592e-10
1.10921e-11
1.11756e-12
1.24426e-13
1.67451e-14
2.90405e-15
6.88807e-16
1.81261e-16
4.5946e-17
1.60236e-17
2.68626e-18
1.30459e-18
3.69034e-19
4.81079e-19
8.15656e-20
8.31461e-20
1.1212e-19
-2.20473e-20
-8.16631e-21
1.30867e-20
-3.76561e-21
3.86404e-21
1.57363e-21
2.71877e-22
9.47342e-23
5.01433e-13
5.74646e-12
2.37597e-11
7.41028e-11
2.01943e-10
5.08919e-10
1.21829e-09
2.80769e-09
6.26915e-09
1.3598e-08
2.87048e-08
5.92061e-08
1.20114e-07
2.41415e-07
4.83605e-07
9.66914e-07
1.94052e-06
3.89598e-06
7.60572e-06
1.49158e-05
2.77668e-05
4.93328e-05
8.27032e-05
0.00012895
0.000184597
0.000248212
0.00031871
0.000399461
0.000495081
0.000621587
0.000800902
0.00107035
0.00149559
0.00217813
0.00327887
0.00503652
0.00778742
0.0119846
0.0182224
0.0273507
0.0407785
0.0605522
0.0899209
0.134656
0.205802
0.320079
0.50522
0.814383
1.34476
2.28374
4.01287
7.20871
7.94784
6.28191
4.66412
3.27501
2.18119
1.40236
0.875481
0.53417
0.312553
0.17828
0.0973793
0.0495075
0.0215093
0.00777311
0.00247594
0.000681443
0.000150883
2.77075e-05
4.58733e-06
6.60491e-07
8.15985e-08
8.77892e-09
8.85519e-10
8.94581e-11
8.7184e-12
8.8021e-13
9.96799e-14
1.38261e-14
2.42929e-15
4.98686e-16
1.39282e-16
4.25959e-17
2.03177e-17
3.02452e-18
-9.68258e-19
1.02903e-18
2.95864e-19
-2.41455e-19
-1.927e-19
-9.14172e-20
-5.79867e-20
2.39887e-20
-7.49572e-21
5.67112e-21
-1.15845e-21
2.85615e-22
1.38645e-22
8.36722e-24
4.95032e-13
5.6736e-12
2.34584e-11
7.31597e-11
1.9935e-10
5.02293e-10
1.20211e-09
2.76941e-09
6.18068e-09
1.33972e-08
2.82558e-08
5.82144e-08
1.17944e-07
2.36697e-07
4.73376e-07
9.44925e-07
1.89336e-06
3.79612e-06
7.40252e-06
1.45216e-05
2.70861e-05
4.82511e-05
8.10608e-05
0.000127055
0.000182597
0.000246339
0.000317302
0.000398576
0.000494516
0.000621194
0.000800416
0.0010693
0.00149367
0.00217589
0.0032804
0.00504954
0.00782844
0.0120866
0.0184334
0.0277487
0.0414957
0.0617882
0.0920147
0.138166
0.211731
0.330177
0.521566
0.842379
1.39423
2.37418
4.17944
7.52959
7.87962
6.19825
4.58074
3.20056
2.12246
1.35865
0.845174
0.514045
0.299587
0.169957
0.0921509
0.046142
0.0196142
0.00696653
0.00219115
0.000593071
0.000128599
2.31863e-05
3.81401e-06
5.40955e-07
6.61448e-08
7.07809e-09
7.14885e-10
7.21411e-11
7.05097e-12
7.17175e-13
8.23386e-14
1.12815e-14
2.12116e-15
4.14118e-16
1.15626e-16
4.63371e-17
1.8368e-17
-1.50501e-18
-6.6614e-19
9.03265e-19
-2.56481e-19
-4.41819e-20
-2.4186e-19
1.19401e-19
1.67011e-20
-3.46131e-21
2.92651e-21
-5.69008e-21
2.15944e-21
-7.54753e-22
2.48874e-22
-2.79222e-23
4.88744e-13
5.60076e-12
2.31556e-11
7.22083e-11
1.96732e-10
4.95612e-10
1.18586e-09
2.73125e-09
6.09342e-09
1.32019e-08
2.78262e-08
5.72841e-08
1.15957e-07
2.32492e-07
4.64529e-07
9.26508e-07
1.85524e-06
3.71873e-06
7.25307e-06
1.42208e-05
2.65625e-05
4.74062e-05
7.97141e-05
0.000125454
0.000180904
0.000244971
0.000316362
0.000398192
0.000494595
0.00062169
0.000801123
0.00106995
0.00149482
0.0021785
0.00328863
0.00507269
0.00788452
0.0122062
0.0186692
0.0281879
0.0422688
0.0631176
0.0941823
0.141723
0.217639
0.340054
0.538405
0.8712
1.44622
2.47045
4.36202
7.80295
7.8263
6.12608
4.50563
3.13045
2.06785
1.31786
0.815746
0.493419
0.286796
0.161941
0.0873688
0.0431987
0.0180371
0.00632311
0.00197423
0.000512196
0.000109311
1.95185e-05
3.17179e-06
4.44727e-07
5.3919e-08
5.74755e-09
5.81638e-10
5.86577e-11
5.75259e-12
5.90485e-13
6.843e-14
9.73725e-15
1.87382e-15
4.95015e-16
1.33346e-16
4.60724e-17
1.2795e-17
1.16268e-19
-1.17015e-18
-1.33043e-19
2.10551e-20
-4.20021e-20
1.7808e-19
2.69399e-21
-7.5317e-21
2.33252e-20
-6.63197e-21
-8.17843e-21
4.07276e-21
-1.14294e-21
8.60308e-23
-6.91718e-23
4.82855e-13
5.532e-12
2.28695e-11
7.1311e-11
1.94271e-10
4.89358e-10
1.17075e-09
2.69601e-09
6.01353e-09
1.30247e-08
2.74401e-08
5.64557e-08
1.14203e-07
2.28811e-07
4.5683e-07
9.10537e-07
1.82213e-06
3.65087e-06
7.11927e-06
1.39449e-05
2.60779e-05
4.66797e-05
7.85743e-05
0.000124083
0.000179626
0.000243993
0.000315836
0.000398234
0.000495171
0.000622805
0.000802729
0.00107213
0.00149832
0.00218462
0.00330173
0.00510216
0.00794853
0.0123403
0.0189144
0.0286273
0.0430437
0.0644228
0.0963271
0.145254
0.223502
0.349845
0.554406
0.898644
1.49903
2.5633
4.5343
8.08363
7.75097
6.03881
4.42576
3.04689
2.00716
1.2755
0.787471
0.474103
0.276999
0.155719
0.0833671
0.0407031
0.0167332
0.00580372
0.00179537
0.00045903
9.66764e-05
1.70359e-05
2.75617e-06
3.82849e-07
4.60799e-08
4.89101e-09
4.95301e-10
4.98741e-11
4.9026e-12
5.06134e-13
5.97059e-14
8.81429e-15
1.72479e-15
3.61651e-16
1.2506e-16
5.4393e-17
1.53215e-17
-3.96967e-19
1.38216e-18
-8.05205e-19
-2.66995e-19
1.85555e-19
-2.57395e-19
4.26701e-20
2.84006e-21
-2.45635e-20
3.27522e-21
-4.29746e-22
-3.23527e-21
1.45303e-21
-3.81584e-22
1.06434e-22
4.77456e-13
5.46863e-12
2.26055e-11
7.04831e-11
1.92002e-10
4.83609e-10
1.1569e-09
2.66387e-09
5.94108e-09
1.28652e-08
2.70952e-08
5.57219e-08
1.12663e-07
2.25607e-07
4.50186e-07
8.96852e-07
1.79395e-06
3.5935e-06
7.00716e-06
1.37115e-05
2.56896e-05
4.60553e-05
7.76887e-05
0.000123115
0.000178725
0.000243328
0.000315608
0.000398597
0.00049609
0.000624299
0.00080491
0.00107524
0.00150311
0.00219319
0.00331841
0.00513703
0.00801763
0.0124707
0.0191569
0.0290518
0.0437454
0.065575
0.0981957
0.148335
0.228683
0.358673
0.569436
0.924623
1.54482
2.64729
4.69048
8.31186
7.68573
5.96316
4.34882
2.98965
1.96396
1.24408
0.765799
0.459581
0.267577
0.149658
0.0797354
0.0384823
0.0155648
0.00535035
0.00164043
0.000410798
8.55239e-05
1.49415e-05
2.41098e-06
3.32833e-07
3.97684e-08
4.2018e-09
4.25576e-10
4.27664e-11
4.2104e-12
4.36864e-13
5.23212e-14
7.96659e-15
1.62068e-15
4.22732e-16
1.061e-16
5.6015e-17
2.37529e-17
1.88112e-18
2.02539e-18
7.26399e-19
1.52352e-19
-4.972e-20
-8.71796e-20
5.02439e-20
4.92757e-20
2.45243e-20
4.21952e-21
8.14543e-21
3.6217e-21
1.05184e-21
3.3271e-22
4.09374e-23
4.72653e-13
5.41198e-12
2.23696e-11
6.97443e-11
1.89982e-10
4.78501e-10
1.14464e-09
2.63555e-09
5.87757e-09
1.27261e-08
2.67964e-08
5.50908e-08
1.11348e-07
2.22893e-07
4.44608e-07
8.85498e-07
1.77093e-06
3.54767e-06
6.92107e-06
1.35308e-05
2.53754e-05
4.55757e-05
7.70095e-05
0.000122328
0.000178012
0.000242914
0.000315621
0.000399153
0.000497189
0.00062604
0.000807543
0.0010791
0.00150903
0.00220329
0.00333755
0.005174
0.00808844
0.0126007
0.0193959
0.0294738
0.0444699
0.0667773
0.10014
0.15151
0.233935
0.36735
0.583922
0.949681
1.58812
2.7293
4.85007
8.48109
7.63845
5.90427
4.29496
2.92624
1.9169
1.21156
0.744222
0.445629
0.258845
0.144447
0.0766224
0.036578
0.0145618
0.0049471
0.00149882
0.000370149
7.60451e-05
1.30975e-05
2.09698e-06
2.86736e-07
3.40106e-08
3.58152e-09
3.63294e-10
3.64694e-11
3.59881e-12
3.76314e-13
4.51091e-14
7.02563e-15
1.4303e-15
4.1057e-16
8.68973e-17
4.54396e-17
2.41269e-17
-2.68383e-18
1.64732e-18
4.4002e-19
-4.7877e-19
-2.74984e-21
3.71422e-22
8.45186e-20
-2.33497e-20
8.87688e-21
-1.2595e-20
-7.01658e-21
-1.26382e-21
6.36206e-23
1.27423e-22
2.56474e-23
4.68459e-13
5.36244e-12
2.21632e-11
6.90985e-11
1.88218e-10
4.74053e-10
1.13399e-09
2.61103e-09
5.82284e-09
1.26069e-08
2.65418e-08
5.45556e-08
1.10237e-07
2.20602e-07
4.3988e-07
8.75798e-07
1.75093e-06
3.50694e-06
6.84069e-06
1.33624e-05
2.50974e-05
4.51451e-05
7.64507e-05
0.000121764
0.000177546
0.000242692
0.000315783
0.000399801
0.000498371
0.000627913
0.00081026
0.00108308
0.00151477
0.00221413
0.00335706
0.00521082
0.00815767
0.0127146
0.0196233
0.0298613
0.0451211
0.067853
0.10188
0.154362
0.238621
0.375189
0.597162
0.972001
1.62415
2.79353
4.96378
8.63758
7.5697
5.83644
4.2352
2.87969
1.8827
1.18782
0.728416
0.435316
0.252073
0.140104
0.0739811
0.0351466
0.0135969
0.00459685
0.00138021
0.000337824
6.86834e-05
1.17672e-05
1.87533e-06
2.54424e-07
2.99894e-08
3.14851e-09
3.19678e-10
3.20582e-11
3.16971e-12
3.33419e-13
4.08051e-14
6.27122e-15
1.21586e-15
3.29485e-16
1.49169e-16
2.80615e-17
1.889e-17
-1.35292e-19
-1.84708e-19
-2.73045e-19
9.20963e-20
-6.81345e-21
-4.42797e-21
1.03407e-19
4.60311e-20
-1.0276e-20
-8.16285e-21
6.57932e-21
1.90319e-21
3.93058e-23
1.65074e-22
4.56888e-23
4.64865e-13
5.31989e-12
2.19861e-11
6.85447e-11
1.86708e-10
4.70251e-10
1.12491e-09
2.5902e-09
5.77656e-09
1.25068e-08
2.63302e-08
5.41164e-08
1.09338e-07
2.18775e-07
4.36104e-07
8.68236e-07
1.73595e-06
3.47761e-06
6.78371e-06
1.32409e-05
2.48924e-05
4.48276e-05
7.60345e-05
0.000121319
0.000177214
0.000242602
0.000316045
0.000400521
0.0004996
0.000629737
0.00081295
0.0010871
0.00152171
0.00222455
0.00337549
0.00524477
0.0082196
0.0128264
0.0198214
0.0301998
0.0456894
0.0687938
0.103415
0.156933
0.242941
0.382521
0.609438
0.993111
1.65957
2.85808
5.08291
8.74118
7.51954
5.78084
4.17828
2.84404
1.8548
1.16762
0.714514
0.426072
0.246107
0.136393
0.0717192
0.033762
0.0129393
0.00433471
0.00129299
0.000312991
6.30285e-05
1.07594e-05
1.71067e-06
2.30615e-07
2.70349e-08
2.83136e-09
2.87735e-10
2.88309e-11
2.85497e-12
3.019e-13
3.6832e-14
5.67456e-15
1.3393e-15
3.44578e-16
6.47533e-17
3.04832e-17
1.19778e-18
3.982e-18
-1.54215e-18
-3.82424e-19
-3.98054e-19
2.15694e-19
5.01082e-20
3.11772e-20
6.16537e-20
2.91562e-20
1.05672e-20
-3.04355e-21
-3.32911e-21
-8.99002e-22
-1.663e-23
-1.26401e-22
4.61826e-13
5.28393e-12
2.18365e-11
6.80773e-11
1.85436e-10
4.67053e-10
1.1173e-09
2.57278e-09
5.73802e-09
1.24239e-08
2.6156e-08
5.37573e-08
1.08608e-07
2.17302e-07
4.33065e-07
8.62226e-07
1.72382e-06
3.4526e-06
6.73469e-06
1.31405e-05
2.47211e-05
4.45777e-05
7.57193e-05
0.000121005
0.000176996
0.000242602
0.000316362
0.00040124
0.000500773
0.00063145
0.000815463
0.00109081
0.00152749
0.00223428
0.00339258
0.0052758
0.00827531
0.0129266
0.0199929
0.0304848
0.0461532
0.0695292
0.104543
0.159562
0.247047
0.389242
0.620699
1.01259
1.69487
2.92567
5.21645
8.8134
7.49523
5.74653
4.14429
2.81042
1.82927
1.1496
0.702453
0.418195
0.241049
0.133233
0.0697795
0.0325837
0.0124057
0.00413871
0.00122513
0.000293977
5.87233e-05
1.00277e-05
1.59077e-06
2.13807e-07
2.49462e-08
2.60629e-09
2.64971e-10
2.65234e-11
2.63037e-12
2.79379e-13
3.46803e-14
5.33665e-15
1.0499e-15
3.24387e-16
8.92883e-17
3.53644e-17
-1.41356e-18
2.56017e-18
-1.79084e-18
3.8859e-19
9.25761e-21
2.28801e-20
4.28646e-20
-3.06826e-20
-2.52826e-20
-2.76074e-20
-1.13412e-20
6.11781e-21
-1.1973e-21
5.04952e-22
2.55775e-22
-9.71614e-23
4.59295e-13
5.25393e-12
2.17116e-11
6.76876e-11
1.84376e-10
4.64394e-10
1.11098e-09
2.55836e-09
5.70622e-09
1.23558e-08
2.60135e-08
5.34655e-08
1.08022e-07
2.16138e-07
4.30715e-07
8.57569e-07
1.71427e-06
3.43363e-06
6.69866e-06
1.30642e-05
2.45946e-05
4.43903e-05
7.54764e-05
0.000120767
0.000176855
0.000242669
0.000316725
0.000401974
0.000501906
0.000633061
0.000817788
0.00109423
0.00153262
0.0022433
0.00340854
0.00530455
0.00832748
0.0130182
0.0201504
0.0307488
0.0465905
0.0702448
0.105715
0.161531
0.250277
0.394582
0.62956
1.02752
1.72009
2.96877
5.28897
8.85276
7.43712
5.6943
4.10287
2.77204
1.80313
1.13254
0.691619
0.411461
0.236843
0.130686
0.068232
0.0316357
0.0119816
0.00397735
0.00117106
0.000279005
5.53324e-05
9.453e-06
1.49408e-06
1.99797e-07
2.32274e-08
2.42214e-09
2.46393e-10
2.46448e-11
2.44782e-12
2.59939e-13
3.28758e-14
5.2728e-15
1.12858e-15
3.13894e-16
9.1488e-17
1.40797e-17
6.52856e-18
-2.96712e-18
-2.00866e-18
3.83496e-19
-5.7096e-20
1.85886e-19
1.21601e-19
-1.40977e-20
1.18393e-20
1.13753e-20
-1.41038e-20
3.40884e-22
2.41619e-21
-3.77887e-22
3.56136e-22
-1.04939e-22
4.57207e-13
5.2292e-12
2.16087e-11
6.73665e-11
1.83503e-10
4.62203e-10
1.10577e-09
2.54647e-09
5.67996e-09
1.22994e-08
2.5895e-08
5.32211e-08
1.07525e-07
2.15138e-07
4.2865e-07
8.53337e-07
1.70594e-06
3.41752e-06
6.66928e-06
1.3003e-05
2.44973e-05
4.42452e-05
7.52969e-05
0.000120604
0.000176784
0.000242773
0.000317073
0.000402638
0.000502933
0.000634561
0.000819988
0.00109759
0.00153794
0.00225145
0.00342278
0.00533025
0.00837336
0.0130988
0.0202887
0.0309805
0.0469749
0.0708785
0.106765
0.163299
0.253241
0.399581
0.637998
1.04201
1.74585
3.01631
5.37777
8.88634
7.407
5.6595
4.06991
2.74524
1.78334
1.11916
0.68298
0.405961
0.2334
0.128602
0.0669552
0.0308594
0.0116364
0.00384793
0.00112669
0.000267164
5.27006e-05
9.00726e-06
1.42059e-06
1.89311e-07
2.19406e-08
2.2841e-09
2.3244e-10
2.32325e-11
2.30899e-12
2.46425e-13
3.10729e-14
4.94035e-15
1.12622e-15
3.4475e-16
1.0297e-16
1.12293e-17
3.40558e-19
3.67071e-18
-1.11948e-18
1.24277e-20
4.98467e-19
1.12268e-20
7.14792e-20
-1.37386e-20
-1.0897e-20
-3.15696e-20
-1.12667e-20
6.06539e-21
1.10506e-21
-3.33927e-22
1.93052e-22
-1.6606e-23
4.5552e-13
5.20919e-12
2.15255e-11
6.71069e-11
1.82797e-10
4.60434e-10
1.10157e-09
2.53689e-09
5.65882e-09
1.22539e-08
2.57995e-08
5.30241e-08
1.07125e-07
2.14332e-07
4.26985e-07
8.50164e-07
1.69983e-06
3.40567e-06
6.64682e-06
1.29553e-05
2.44174e-05
4.41305e-05
7.51583e-05
0.00012049
0.000176754
0.000242895
0.000317401
0.000403224
0.000503831
0.000635831
0.000821824
0.00110028
0.00154196
0.00225867
0.00343521
0.00535218
0.00841187
0.0131663
0.0204049
0.0311765
0.0473031
0.0714227
0.107651
0.164766
0.255692
0.403725
0.645036
1.05423
1.76754
3.05617
5.45161
8.90304
7.38359
5.63292
4.04576
2.72618
1.76851
1.1086
0.675925
0.401414
0.230517
0.126819
0.0658738
0.030214
0.0113556
0.00374429
0.00109232
0.00025781
5.06408e-05
8.65722e-06
1.36338e-06
1.81168e-07
2.09423e-08
2.17701e-09
2.21601e-10
2.21362e-11
2.20147e-12
2.35377e-13
2.94414e-14
4.72797e-15
1.17242e-15
3.39155e-16
1.02413e-16
2.19129e-17
8.01225e-19
1.74143e-18
-1.19824e-18
-1.26835e-19
-9.25343e-20
-4.55834e-20
-2.19735e-20
3.81508e-20
-3.6411e-22
-2.62502e-20
1.20703e-20
-9.20167e-22
-2.1015e-21
6.70143e-22
-1.97393e-22
3.21274e-23
4.5419e-13
5.19345e-12
2.14601e-11
6.69029e-11
1.82243e-10
4.59048e-10
1.09828e-09
2.52941e-09
5.64232e-09
1.22186e-08
2.57254e-08
5.28725e-08
1.06821e-07
2.13731e-07
4.25762e-07
8.47776e-07
1.69504e-06
3.39623e-06
6.629e-06
1.29183e-05
2.43603e-05
4.40492e-05
7.50641e-05
0.000120417
0.000176752
0.000243018
0.000317696
0.000403741
0.000504606
0.000636949
0.000823416
0.00110256
0.00154586
0.00226488
0.00344604
0.00537157
0.00844598
0.0132256
0.0205058
0.0313443
0.047579
0.0718697
0.108381
0.165975
0.257726
0.407215
0.6511
1.06513
1.78793
3.0964
5.53415
8.92201
7.38308
5.62426
4.03296
2.71405
1.75834
1.101
0.670611
0.397859
0.228217
0.125389
0.064999
0.0296952
0.0111311
0.0036613
0.00106439
0.000250246
4.89572e-05
8.37291e-06
1.31676e-06
1.74559e-07
2.01357e-08
2.09078e-09
2.12889e-10
2.1257e-11
2.11486e-12
2.26609e-13
2.8807e-14
4.74289e-15
1.09434e-15
3.27919e-16
5.17336e-17
1.01835e-17
3.40453e-18
3.21278e-18
-2.45068e-19
1.84885e-19
-2.47058e-19
9.98529e-20
3.18719e-20
-1.60672e-20
5.97865e-21
-3.04302e-20
-5.07687e-21
5.52597e-21
9.64497e-22
7.10886e-22
-2.54871e-22
-7.68423e-23
4.53185e-13
5.18151e-12
2.14105e-11
6.67485e-11
1.81825e-10
4.58002e-10
1.09581e-09
2.52382e-09
5.63012e-09
1.21927e-08
2.56719e-08
5.27639e-08
1.06604e-07
2.13296e-07
4.2485e-07
8.4594e-07
1.69137e-06
3.38908e-06
6.61576e-06
1.28903e-05
2.43152e-05
4.3986e-05
7.49933e-05
0.000120369
0.000176765
0.000243136
0.000317956
0.000404177
0.000505249
0.000637856
0.000824736
0.00110451
0.0015489
0.00226996
0.00345488
0.00538707
0.00847305
0.0132724
0.0205852
0.0314757
0.0477949
0.0722202
0.10895
0.166914
0.259283
0.409806
0.655392
1.07228
1.79997
3.1167
5.56689
8.91944
7.36111
5.60566
4.01659
2.70404
1.75081
1.09557
0.666881
0.395358
0.226565
0.124346
0.064345
0.0292987
0.0109595
0.00359775
0.00104366
0.000244486
4.76871e-05
8.15963e-06
1.28153e-06
1.69582e-07
1.95295e-08
2.02607e-09
2.06356e-10
2.05982e-11
2.05274e-12
2.19669e-13
2.78229e-14
4.80217e-15
1.00444e-15
2.87469e-16
1.07677e-16
2.88766e-17
-3.47857e-18
2.3679e-18
9.21657e-19
1.05673e-18
6.32561e-20
-6.29309e-20
5.56137e-20
-5.46984e-20
3.1667e-20
-1.92473e-20
6.1101e-21
-3.15909e-21
1.55523e-21
7.6702e-22
4.3802e-22
2.56855e-23
4.52468e-13
5.17305e-12
2.13754e-11
6.66395e-11
1.81531e-10
4.57272e-10
1.0941e-09
2.51996e-09
5.62168e-09
1.21746e-08
2.56336e-08
5.26842e-08
1.06439e-07
2.12964e-07
4.24171e-07
8.44645e-07
1.68886e-06
3.38425e-06
6.60679e-06
1.28714e-05
2.42853e-05
4.39445e-05
7.49478e-05
0.00012034
0.000176783
0.000243229
0.000318152
0.0004045
0.000505725
0.000638535
0.000825715
0.00110598
0.001551
0.00227376
0.00346142
0.00539852
0.00849297
0.0133068
0.0206431
0.0315713
0.0479514
0.072474
0.109362
0.167596
0.260432
0.411789
0.658863
1.07855
1.81164
3.13946
5.61225
8.92276
7.3581
5.59978
4.00984
2.69511
1.7449
1.0917
0.664332
0.393666
0.225437
0.123615
0.0638747
0.0290091
0.0108343
0.00355169
0.001027
0.000240369
4.67794e-05
8.00675e-06
1.25649e-06
1.6604e-07
1.90977e-08
1.97991e-09
2.01686e-10
2.01292e-11
2.00489e-12
2.14691e-13
2.73376e-14
4.42414e-15
9.33521e-16
2.15208e-16
1.04592e-16
3.60502e-17
5.46625e-18
-3.24284e-18
-1.39026e-18
-4.34908e-19
2.28445e-19
-1.93353e-19
-3.46809e-20
5.45774e-21
-1.2276e-20
-2.97941e-20
1.42986e-20
6.56258e-21
1.56445e-21
8.27282e-22
3.71824e-22
5.8996e-23
4.52006e-13
5.16763e-12
2.13528e-11
6.65693e-11
1.8134e-10
4.56794e-10
1.09296e-09
2.51734e-09
5.61585e-09
1.2162e-08
2.56072e-08
5.26301e-08
1.06332e-07
2.12753e-07
4.2374e-07
8.43808e-07
1.68725e-06
3.38117e-06
6.60123e-06
1.28597e-05
2.4267e-05
4.39194e-05
7.49209e-05
0.000120326
0.000176798
0.000243295
0.000318285
0.00040472
0.000506054
0.000638987
0.000826369
0.00110695
0.0015525
0.00227626
0.00346569
0.00540598
0.00850586
0.0133289
0.0206802
0.0316321
0.0480503
0.0726335
0.109619
0.168017
0.261133
0.412977
0.660898
1.08212
1.81811
3.15157
5.63491
8.92284
7.35154
5.59324
4.00344
2.69081
1.74122
1.089
0.66248
0.392439
0.224643
0.12312
0.0635636
0.0288189
0.0107521
0.00352128
0.00101695
0.00023766
4.61829e-05
7.90699e-06
1.24011e-06
1.63729e-07
1.88164e-08
1.94984e-09
1.98637e-10
1.98198e-11
1.97551e-12
2.12108e-13
2.73114e-14
4.56221e-15
9.40709e-16
2.40378e-16
8.91698e-17
1.29014e-17
-8.25219e-18
3.82617e-18
2.11438e-18
1.82502e-19
-1.74652e-19
-9.05998e-20
3.33853e-20
2.6521e-20
2.48737e-20
-8.2179e-21
-2.76059e-23
-6.35505e-21
-1.86705e-21
-8.69589e-22
3.43419e-22
1.24136e-22
4.51776e-13
5.1649e-12
2.13415e-11
6.6534e-11
1.81244e-10
4.56554e-10
1.09239e-09
2.51605e-09
5.61304e-09
1.2156e-08
2.55947e-08
5.26045e-08
1.06281e-07
2.12653e-07
4.23534e-07
8.43413e-07
1.68648e-06
3.37972e-06
6.59858e-06
1.28541e-05
2.42582e-05
4.39075e-05
7.49084e-05
0.00012032
0.000176808
0.000243331
0.000318356
0.000404835
0.00050622
0.000639222
0.000826711
0.00110747
0.00155361
0.00227754
0.00346782
0.00540965
0.00851219
0.0133397
0.0206982
0.0316612
0.0480969
0.0727065
0.109731
0.16819
0.261391
0.413344
0.661357
1.08252
1.81778
3.14817
5.62071
8.91146
7.33219
5.57925
3.98952
2.69772
1.74454
1.09004
0.662534
0.392174
0.224329
0.122865
0.0633904
0.0287147
0.0107081
0.00350537
0.00101174
0.000236268
4.58796e-05
7.85591e-06
1.23178e-06
1.62558e-07
1.86745e-08
1.93472e-09
1.97112e-10
1.9665e-11
1.95939e-12
2.10868e-13
2.65733e-14
4.36874e-15
9.77758e-16
2.11974e-16
7.15694e-17
1.8214e-17
2.07233e-18
-3.94693e-18
1.8501e-18
-2.10645e-19
6.85946e-20
-1.91416e-19
6.25912e-20
-3.54496e-20
2.93187e-20
-3.85157e-21
-7.29771e-21
-2.29812e-21
-1.46184e-21
-9.21538e-22
3.18688e-22
-5.49298e-23
4.51774e-13
5.16486e-12
2.13413e-11
6.65334e-11
1.81243e-10
4.5655e-10
1.09238e-09
2.51603e-09
5.61299e-09
1.21559e-08
2.55945e-08
5.26043e-08
1.0628e-07
2.12653e-07
4.23535e-07
8.43415e-07
1.68649e-06
3.37974e-06
6.59861e-06
1.28541e-05
2.42583e-05
4.39078e-05
7.49089e-05
0.000120321
0.000176809
0.000243333
0.000318358
0.000404835
0.000506215
0.000639221
0.000826705
0.00110745
0.0015535
0.0022775
0.00346779
0.00540962
0.00851214
0.0133396
0.0206981
0.0316614
0.0480977
0.0727092
0.109738
0.168208
0.261438
0.413467
0.661683
1.08341
1.82026
3.15522
5.64064
8.92097
7.34819
5.59106
4.00258
2.68896
1.73921
1.08726
0.661188
0.391552
0.224061
0.12276
0.0633514
0.0287008
0.0107038
0.00350408
0.00101138
0.000236185
4.5864e-05
7.85312e-06
1.23135e-06
1.62499e-07
1.86676e-08
1.934e-09
1.97037e-10
1.96589e-11
1.95786e-12
2.10792e-13
2.65721e-14
4.39171e-15
9.05821e-16
2.32654e-16
6.97317e-17
1.02935e-17
-1.34713e-18
2.34297e-18
9.81512e-19
5.59809e-19
-7.30827e-20
-7.8737e-21
-1.12038e-19
4.12094e-20
5.3114e-21
1.55399e-21
-5.10427e-21
4.71503e-21
1.39549e-21
-7.28142e-22
-5.05147e-22
-1.05151e-23
4.51994e-13
5.16749e-12
2.13523e-11
6.65675e-11
1.81335e-10
4.56779e-10
1.09292e-09
2.51726e-09
5.61568e-09
1.21617e-08
2.56066e-08
5.26291e-08
1.0633e-07
2.12752e-07
4.23738e-07
8.4381e-07
1.68726e-06
3.38121e-06
6.60131e-06
1.28598e-05
2.42673e-05
4.39201e-05
7.49222e-05
0.000120328
0.000176802
0.000243299
0.00031829
0.000404724
0.000506049
0.000638987
0.000826361
0.00110693
0.00155263
0.0022762
0.0034656
0.00540583
0.0085056
0.0133284
0.0206794
0.0316309
0.0480486
0.0726315
0.109615
0.168008
0.261108
0.412906
0.660713
1.08167
1.81702
3.1489
5.62798
8.91771
7.34997
5.59432
4.00644
2.69248
1.74174
1.08891
0.66222
0.392188
0.224453
0.122998
0.0634977
0.0287892
0.0107417
0.00351809
0.00101605
0.000237448
4.61435e-05
7.89987e-06
1.23902e-06
1.6358e-07
1.87988e-08
1.94803e-09
1.98456e-10
1.9801e-11
1.97269e-12
2.11762e-13
2.69991e-14
4.35376e-15
9.61708e-16
2.46999e-16
8.17497e-17
1.93516e-17
-6.32941e-18
2.01616e-20
1.87359e-19
-6.00805e-20
-1.68395e-19
-6.79435e-20
7.7393e-20
-3.15677e-20
-8.69316e-21
-4.86001e-21
2.1542e-21
-6.76942e-21
5.65366e-22
4.06539e-22
2.44592e-22
-1.16083e-22
4.5246e-13
5.17301e-12
2.13752e-11
6.66386e-11
1.81527e-10
4.5726e-10
1.09406e-09
2.51983e-09
5.62133e-09
1.21738e-08
2.56319e-08
5.2681e-08
1.06435e-07
2.1296e-07
4.2417e-07
8.44653e-07
1.6889e-06
3.38434e-06
6.60701e-06
1.28718e-05
2.42862e-05
4.39461e-05
7.49504e-05
0.000120344
0.000176787
0.000243234
0.000318155
0.000404503
0.000505725
0.000638529
0.0008257
0.00110595
0.00155108
0.00227365
0.00346121
0.00539814
0.00849225
0.0133055
0.0206408
0.0315675
0.0479452
0.0724648
0.109347
0.167568
0.260378
0.411675
0.658617
1.07802
1.81054
3.13708
5.60645
8.91862
7.35696
5.60102
4.01263
2.69755
1.74568
1.0917
0.664088
0.393405
0.225235
0.123484
0.0638006
0.028973
0.0108212
0.0035476
0.00102585
0.000240091
4.67241e-05
7.99714e-06
1.25495e-06
1.65835e-07
1.90753e-08
1.97757e-09
2.01439e-10
2.01031e-11
2.00244e-12
2.15036e-13
2.76373e-14
4.34381e-15
9.0495e-16
2.60638e-16
1.12523e-16
3.27923e-18
-5.93769e-18
-6.03229e-19
-1.92938e-18
-1.02798e-18
3.48017e-19
2.0386e-19
5.18013e-20
-1.87185e-21
5.56464e-21
-1.77733e-20
-8.901e-21
3.01487e-21
1.99652e-21
-1.39633e-22
4.67817e-22
-2.32406e-23
4.53184e-13
5.18156e-12
2.14107e-11
6.67494e-11
1.81828e-10
4.5801e-10
1.09583e-09
2.52385e-09
5.63016e-09
1.21927e-08
2.56714e-08
5.27619e-08
1.06598e-07
2.13283e-07
4.24832e-07
8.4594e-07
1.69143e-06
3.38924e-06
6.61604e-06
1.28909e-05
2.43162e-05
4.39878e-05
7.49962e-05
0.000120373
0.00017677
0.000243141
0.00031796
0.000404177
0.000505245
0.000637844
0.000824711
0.00110446
0.00154881
0.0022698
0.00345457
0.00538647
0.00847191
0.0132703
0.0205814
0.0314692
0.0477837
0.0722013
0.10892
0.166863
0.259201
0.409686
0.655244
1.07223
1.80045
3.11929
5.57619
8.9213
7.37007
5.61354
4.02329
2.70569
1.75244
1.0966
0.667371
0.395517
0.226557
0.124283
0.0642845
0.0292611
0.0109449
0.0035932
0.00104239
0.000244208
4.76386e-05
8.15126e-06
1.28035e-06
1.6944e-07
1.95114e-08
2.0239e-09
2.06125e-10
2.05725e-11
2.04909e-12
2.19896e-13
2.79519e-14
4.63153e-15
9.68173e-16
3.32387e-16
8.07108e-17
3.44824e-17
-5.76594e-18
-1.31104e-19
-1.27619e-18
6.79851e-19
1.48543e-19
-4.79369e-20
1.27327e-19
5.88588e-20
1.93331e-20
-1.33962e-20
-1.43504e-20
7.69965e-21
1.48257e-21
-9.03946e-22
4.60883e-22
-2.90681e-23
4.54192e-13
5.19349e-12
2.14603e-11
6.69039e-11
1.82246e-10
4.59057e-10
1.09831e-09
2.52948e-09
5.64253e-09
1.22191e-08
2.57268e-08
5.28753e-08
1.06826e-07
2.13736e-07
4.25762e-07
8.47753e-07
1.695e-06
3.39619e-06
6.62902e-06
1.29184e-05
2.43609e-05
4.40506e-05
7.50668e-05
0.000120421
0.000176758
0.000243024
0.000317703
0.000403745
0.000504604
0.000636936
0.000823399
0.00110253
0.00154577
0.0022647
0.00344569
0.00537081
0.00844453
0.0132229
0.0205011
0.031336
0.047565
0.0718462
0.108339
0.165899
0.257584
0.406927
0.650452
1.06355
1.78391
3.08571
5.50541
8.90444
7.36567
5.61635
4.02956
2.71236
1.75901
1.10192
0.671216
0.398136
0.228281
0.125359
0.0649451
0.0296543
0.0111129
0.00365507
0.0010616
0.000249758
4.8859e-05
8.35593e-06
1.31371e-06
1.74129e-07
2.00841e-08
2.08543e-09
2.12351e-10
2.12029e-11
2.11064e-12
2.2618e-13
2.84843e-14
4.87188e-15
1.18015e-15
3.15997e-16
7.06515e-17
2.95248e-17
-8.98241e-20
-2.66893e-18
-4.28164e-19
5.71487e-19
-3.71301e-19
-1.39733e-20
1.22517e-19
2.39618e-20
-5.68977e-21
2.36525e-20
5.14251e-21
2.91956e-21
9.36503e-22
8.62204e-22
4.83778e-22
-1.08122e-22
4.55519e-13
5.20921e-12
2.15257e-11
6.71075e-11
1.82799e-10
4.60441e-10
1.10159e-09
2.53695e-09
5.65898e-09
1.22544e-08
2.58006e-08
5.30268e-08
1.07131e-07
2.14344e-07
4.27006e-07
8.50175e-07
1.69976e-06
3.40535e-06
6.64592e-06
1.29537e-05
2.44166e-05
4.41308e-05
7.51603e-05
0.000120494
0.000176761
0.000242904
0.000317412
0.000403236
0.00050384
0.000635847
0.000821832
0.00110027
0.00154208
0.00225874
0.00343537
0.0053526
0.00841254
0.0131671
0.0204059
0.0311772
0.0473024
0.0714174
0.107644
0.164762
0.255713
0.403831
0.645443
1.05548
1.77107
3.06552
5.47588
8.91452
7.40556
5.64779
4.05404
2.73021
1.77083
1.10972
0.676302
0.401412
0.230382
0.126672
0.0657567
0.030144
0.0113264
0.00373445
0.0010891
0.000256968
5.04547e-05
8.6258e-06
1.35857e-06
1.80507e-07
2.08641e-08
2.16888e-09
2.20791e-10
2.20547e-11
2.19425e-12
2.34887e-13
2.9812e-14
4.71407e-15
1.08505e-15
3.06987e-16
1.00155e-16
6.06796e-18
-9.63237e-20
1.72794e-18
5.5191e-19
1.79305e-19
1.67697e-19
-2.10622e-19
1.09372e-19
-4.35627e-20
3.69282e-21
1.99213e-20
-7.8211e-21
-3.74886e-21
-3.9732e-21
1.4501e-22
-3.22869e-22
4.30105e-23
4.57205e-13
5.22918e-12
2.16087e-11
6.73667e-11
1.83504e-10
4.62207e-10
1.10578e-09
2.54652e-09
5.6801e-09
1.22997e-08
2.58959e-08
5.32235e-08
1.07531e-07
2.1515e-07
4.28677e-07
8.53383e-07
1.706e-06
3.41755e-06
6.66929e-06
1.30021e-05
2.44946e-05
4.4244e-05
7.52976e-05
0.000120608
0.000176792
0.000242784
0.000317089
0.000402658
0.000502961
0.000634582
0.000819989
0.00109748
0.00153784
0.00225161
0.003423
0.00533048
0.00837379
0.0130996
0.0202904
0.0309839
0.0469816
0.0708907
0.106782
0.163321
0.253295
0.399758
0.638527
1.04353
1.74986
3.02704
5.40604
8.89626
7.43023
5.67512
4.07993
2.75196
1.78611
1.11993
0.682953
0.405727
0.233144
0.128382
0.0668187
0.0307914
0.0116106
0.00383924