/*--------------------------------*- C++ -*----------------------------------*\
  =========                 |
  \\      /  F ield         | OpenFOAM: The Open Source CFD Toolbox
   \\    /   O peration     | Website:  https://openfoam.org
    \\  /    A nd           | Version:  10
     \\/     M anipulation  |
\*---------------------------------------------------------------------------*/
FoamFile
{
    format      ascii;
    class       volScalarField;
    location    "1";
    object      RR.HO2;
}
// * * * * * * * * * * * * * * * * * * * * * * * * * * * * * * * * * * * * * //

dimensions      [1 -3 -1 0 0 0 0];

internalField   nonuniform List<scalar> 
4000
(
-1.06275e-12
-1.54749e-11
-6.77228e-11
-2.17797e-10
-6.07058e-10
-1.55848e-09
-3.78713e-09
-8.81819e-09
-1.97572e-08
-4.25771e-08
-8.80578e-08
-1.74472e-07
-3.30492e-07
-5.95643e-07
-1.01102e-06
-1.5846e-06
-2.23122e-06
-2.65102e-06
-2.25655e-06
-1.98793e-07
4.0505e-06
1.02137e-05
1.64533e-05
1.96769e-05
1.87039e-05
1.44652e-05
9.05436e-06
3.88387e-06
4.95498e-07
-1.5816e-06
-2.63376e-06
-3.07401e-06
-3.26419e-06
-3.34321e-06
-3.57669e-06
-4.01927e-06
-4.73137e-06
-6.40778e-06
-8.30143e-06
-1.07924e-05
-1.378e-05
-1.69091e-05
-1.97932e-05
-2.2155e-05
-2.39332e-05
-2.54749e-05
-2.81752e-05
-3.54359e-05
-5.49831e-05
-0.000104201
-0.000224056
-0.000502863
-0.000751038
-0.000219476
0.000297683
0.000534116
0.00054042
0.000451463
0.000357523
0.000289687
0.000256376
0.000240833
0.000164463
-2.94857e-05
-0.000264556
-0.000294392
-0.000173578
-7.3283e-05
-2.35617e-05
-5.87949e-06
-1.28469e-06
-2.34151e-07
-3.66257e-08
-4.95597e-09
-5.86169e-10
-6.23295e-11
-5.98362e-12
-4.55962e-13
-6.66329e-14
-1.35116e-14
-2.45342e-15
1.34107e-16
7.34123e-16
7.57616e-16
5.95754e-16
4.06956e-16
2.53853e-16
1.48807e-16
8.36061e-17
4.56551e-17
2.43839e-17
1.28353e-17
6.68337e-18
3.44724e-18
1.75963e-18
8.84898e-19
4.33474e-19
2.01258e-19
8.20254e-20
1.89802e-20
-1.05248e-12
-1.53244e-11
-6.70628e-11
-2.15702e-10
-6.01311e-10
-1.54374e-09
-3.75107e-09
-8.7323e-09
-1.95558e-08
-4.21124e-08
-8.70112e-08
-1.72213e-07
-3.25803e-07
-5.86854e-07
-9.96733e-07
-1.56556e-06
-2.21275e-06
-2.65326e-06
-2.31687e-06
-3.58155e-07
3.76972e-06
9.83983e-06
1.61775e-05
1.96863e-05
1.89796e-05
1.48736e-05
9.45414e-06
4.15305e-06
6.5435e-07
-1.50195e-06
-2.59775e-06
-3.07554e-06
-3.26176e-06
-3.35272e-06
-3.58108e-06
-4.01906e-06
-4.73229e-06
-6.42551e-06
-8.33073e-06
-1.08523e-05
-1.38797e-05
-1.70541e-05
-1.99753e-05
-2.23658e-05
-2.4156e-05
-2.56987e-05
-2.8427e-05
-3.58596e-05
-5.59774e-05
-0.000106748
-0.000230639
-0.000519997
-0.000740813
-0.000195846
0.000314718
0.000539863
0.000539993
0.000450759
0.000358226
0.000292896
0.000262175
0.000244037
0.000158519
-4.74449e-05
-0.000277348
-0.0002897
-0.0001655
-6.82667e-05
-2.16654e-05
-5.25201e-06
-1.13181e-06
-2.04174e-07
-3.16791e-08
-4.23744e-09
-4.99825e-10
-5.31192e-11
-5.0911e-12
-3.95519e-13
-5.90075e-14
-1.20585e-14
-2.16735e-15
1.86224e-16
7.45692e-16
7.65874e-16
6.05958e-16
4.16817e-16
2.61457e-16
1.53791e-16
8.64972e-17
4.71287e-17
2.51919e-17
1.32508e-17
6.88934e-18
3.54671e-18
1.80657e-18
9.06539e-19
4.43177e-19
2.05408e-19
8.36109e-20
1.93318e-20
-1.04342e-12
-1.51944e-11
-6.65075e-11
-2.13965e-10
-5.96626e-10
-1.5322e-09
-3.7229e-09
-8.66293e-09
-1.93844e-08
-4.16908e-08
-8.59868e-08
-1.69771e-07
-3.20734e-07
-5.77399e-07
-9.81153e-07
-1.54462e-06
-2.19531e-06
-2.65937e-06
-2.38787e-06
-5.51713e-07
3.43477e-06
9.44389e-06
1.58239e-05
1.96737e-05
1.92011e-05
1.52504e-05
9.85334e-06
4.46673e-06
8.65411e-07
-1.37952e-06
-2.5338e-06
-3.05142e-06
-3.2614e-06
-3.35427e-06
-3.58165e-06
-4.01331e-06
-4.81225e-06
-6.43503e-06
-8.37709e-06
-1.09479e-05
-1.40408e-05
-1.72837e-05
-2.02692e-05
-2.27121e-05
-2.45235e-05
-2.60789e-05
-2.88886e-05
-3.66439e-05
-5.77195e-05
-0.000110975
-0.000240443
-0.000549662
-0.000723133
-0.00016136
0.00033816
0.000547496
0.000538024
0.000445784
0.0003541
0.000292601
0.000266547
0.000244842
0.000147554
-7.2509e-05
-0.000291214
-0.00028184
-0.000154396
-6.18523e-05
-1.93138e-05
-4.54917e-06
-9.6864e-07
-1.72715e-07
-2.66303e-08
-3.56068e-09
-4.19439e-10
-4.46414e-11
-4.26113e-12
-3.39264e-13
-5.17595e-14
-1.05554e-14
-1.84742e-15
2.53106e-16
7.61833e-16
7.74309e-16
6.13073e-16
4.22634e-16
2.65775e-16
1.56724e-16
8.83589e-17
4.82688e-17
2.57893e-17
1.35713e-17
7.05709e-18
3.632e-18
1.84889e-18
9.27045e-19
4.52817e-19
2.0971e-19
8.53083e-20
1.9717e-20
-1.0302e-12
-1.50009e-11
-6.56493e-11
-2.11146e-10
-5.88516e-10
-1.51045e-09
-3.66769e-09
-8.52878e-09
-1.90712e-08
-4.09904e-08
-8.45024e-08
-1.66842e-07
-3.15162e-07
-5.6748e-07
-9.6527e-07
-1.52334e-06
-2.17559e-06
-2.66272e-06
-2.44739e-06
-7.23864e-07
3.1312e-06
9.06059e-06
1.55302e-05
1.96668e-05
1.94537e-05
1.56306e-05
1.02541e-05
4.78459e-06
1.06317e-06
-1.25364e-06
-2.46891e-06
-3.01299e-06
-3.24654e-06
-3.34432e-06
-3.57103e-06
-3.99795e-06
-4.91292e-06
-6.44654e-06
-8.43865e-06
-1.1072e-05
-1.42382e-05
-1.75657e-05
-2.06303e-05
-2.31212e-05
-2.49432e-05
-2.64915e-05
-2.9366e-05
-3.75371e-05
-5.99159e-05
-0.000116611
-0.000254676
-0.000581175
-0.000701103
-0.000120685
0.000366091
0.000557479
0.000537897
0.000443206
0.000353035
0.000294194
0.000271534
0.000245708
0.000132169
-0.000102296
-0.000303673
-0.000270923
-0.000142087
-5.55582e-05
-1.68234e-05
-3.90554e-06
-8.21701e-07
-1.45001e-07
-2.19897e-08
-2.89379e-09
-3.36332e-10
-3.54619e-11
-3.30426e-12
-2.73532e-13
-4.29652e-14
-8.90003e-15
-1.49975e-15
3.30203e-16
7.79791e-16
7.80225e-16
6.16834e-16
4.25708e-16
2.6813e-16
1.58307e-16
8.93389e-17
4.88466e-17
2.61245e-17
1.37481e-17
7.14807e-18
3.67824e-18
1.8721e-18
9.38515e-19
4.58347e-19
2.12249e-19
8.63386e-20
1.99547e-20
-1.0169e-12
-1.48074e-11
-6.48018e-11
-2.0841e-10
-5.80835e-10
-1.49052e-09
-3.61862e-09
-8.41276e-09
-1.88067e-08
-4.0409e-08
-8.32743e-08
-1.64368e-07
-3.10463e-07
-5.59223e-07
-9.52268e-07
-1.50629e-06
-2.16045e-06
-2.66627e-06
-2.4995e-06
-8.65483e-07
2.88468e-06
8.74792e-06
1.52581e-05
1.96151e-05
1.96328e-05
1.59845e-05
1.06439e-05
5.10038e-06
1.29414e-06
-1.12719e-06
-2.40671e-06
-2.9143e-06
-3.22934e-06
-3.33293e-06
-3.56075e-06
-3.98672e-06
-4.98543e-06
-6.48183e-06
-8.51275e-06
-1.12062e-05
-1.44514e-05
-1.78636e-05
-2.10053e-05
-2.35438e-05
-2.53721e-05
-2.69112e-05
-2.98575e-05
-3.84253e-05
-6.20855e-05
-0.000122275
-0.000268538
-0.000619008
-0.00067134
-7.62431e-05
0.000394123
0.000566026
0.000535853
0.000438921
0.000349739
0.000293451
0.000274059
0.000243728
0.000116238
-0.000130394
-0.000312105
-0.00025921
-0.000130933
-4.98332e-05
-1.47604e-05
-3.37534e-06
-7.0213e-07
-1.2177e-07
-1.82413e-08
-2.3772e-09
-2.74428e-10
-2.88423e-11
-2.64838e-12
-2.27285e-13
-3.6604e-14
-7.49805e-15
-1.18135e-15
3.9734e-16
7.9437e-16
7.83586e-16
6.18059e-16
4.2664e-16
2.68984e-16
1.58972e-16
8.97952e-17
4.91318e-17
2.6293e-17
1.38412e-17
7.19742e-18
3.70366e-18
1.8849e-18
9.44825e-19
4.61377e-19
2.13634e-19
8.68976e-20
2.00835e-20
-1.00344e-12
-1.46112e-11
-6.39407e-11
-2.05625e-10
-5.73017e-10
-1.47027e-09
-3.56898e-09
-8.29621e-09
-1.85436e-08
-3.98378e-08
-8.20852e-08
-1.62012e-07
-3.06079e-07
-5.51688e-07
-9.40677e-07
-1.49144e-06
-2.14746e-06
-2.6685e-06
-2.53893e-06
-9.76113e-07
2.68876e-06
8.49036e-06
1.50113e-05
1.9549e-05
1.97954e-05
1.62997e-05
1.09923e-05
5.38688e-06
1.49494e-06
-1.01141e-06
-2.34686e-06
-2.96071e-06
-3.20872e-06
-3.32063e-06
-3.55099e-06
-3.97962e-06
-5.0404e-06
-6.53581e-06
-8.59376e-06
-1.13491e-05
-1.46713e-05
-1.81682e-05
-2.13729e-05
-2.39457e-05
-2.57683e-05
-2.72848e-05
-3.02956e-05
-3.92586e-05
-6.43114e-05
-0.000128269
-0.000283797
-0.000652048
-0.000642493
-3.50697e-05
0.000420401
0.000574824
0.000535573
0.000437893
0.00035009
0.000294245
0.00027489
0.000238364
9.85822e-05
-0.000154884
-0.000316521
-0.00024811
-0.000121906
-4.43814e-05
-1.28886e-05
-2.92127e-06
-5.98292e-07
-1.02489e-07
-1.51961e-08
-1.96473e-09
-2.2554e-10
-2.36439e-11
-2.13764e-12
-1.90437e-13
-3.1498e-14
-6.46113e-15
-9.4895e-16
4.54518e-16
8.07316e-16
7.84659e-16
6.16714e-16
4.2547e-16
2.68357e-16
1.58695e-16
8.96954e-17
4.91057e-17
2.62936e-17
1.38463e-17
7.20141e-18
3.70631e-18
1.88646e-18
9.45684e-19
4.6182e-19
2.13847e-19
8.69873e-20
2.01048e-20
-9.90602e-13
-1.44244e-11
-6.3122e-11
-2.02985e-10
-5.65631e-10
-1.45124e-09
-3.52261e-09
-8.18816e-09
-1.83017e-08
-3.93172e-08
-8.10106e-08
-1.59901e-07
-3.02179e-07
-5.45032e-07
-9.30497e-07
-1.47847e-06
-2.13628e-06
-2.67118e-06
-2.57612e-06
-1.0806e-06
2.50374e-06
8.26543e-06
1.48e-05
1.95043e-05
1.99582e-05
1.65854e-05
1.12988e-05
5.6332e-06
1.665e-06
-9.10643e-07
-2.29141e-06
-2.92866e-06
-3.18529e-06
-3.30978e-06
-3.54563e-06
-3.97856e-06
-5.07999e-06
-6.54279e-06
-8.67519e-06
-1.14884e-05
-1.48846e-05
-1.84553e-05
-2.17197e-05
-2.43242e-05
-2.61433e-05
-2.76516e-05
-3.07381e-05
-4.00904e-05
-6.66473e-05
-0.000134138
-0.000298184
-0.000688366
-0.000609355
4.46973e-06
0.000441373
0.000578349
0.000529143
0.00043089
0.000345511
0.000291727
0.000273877
0.000234565
8.30413e-05
-0.000176223
-0.000318631
-0.000237937
-0.000114928
-4.05787e-05
-1.16085e-05
-2.60154e-06
-5.28015e-07
-8.95786e-08
-1.3173e-08
-1.69104e-09
-1.93061e-10
-2.018e-11
-1.79664e-12
-1.65181e-13
-2.79336e-14
-5.72832e-15
-7.83494e-16
4.94417e-16
8.15894e-16
7.84176e-16
6.13892e-16
4.22756e-16
2.66459e-16
1.57553e-16
8.90716e-17
4.8785e-17
2.61371e-17
1.37719e-17
7.16759e-18
3.69065e-18
1.8791e-18
9.42202e-19
4.60187e-19
2.13111e-19
8.66931e-20
2.00376e-20
-9.78693e-13
-1.42511e-11
-6.2363e-11
-2.0054e-10
-5.58803e-10
-1.43369e-09
-3.47999e-09
-8.08925e-09
-1.80815e-08
-3.88462e-08
-8.00451e-08
-1.58018e-07
-2.98727e-07
-5.39182e-07
-9.21613e-07
-1.46723e-06
-2.12662e-06
-2.67342e-06
-2.60764e-06
-1.16934e-06
2.35268e-06
8.06957e-06
1.46408e-05
1.94869e-05
2.00886e-05
1.68181e-05
1.15575e-05
5.84791e-06
1.80679e-06
-8.27261e-07
-2.24176e-06
-2.90093e-06
-3.17374e-06
-3.30297e-06
-3.54287e-06
-3.98289e-06
-5.11624e-06
-6.60858e-06
-8.75681e-06
-1.16209e-05
-1.5072e-05
-1.86969e-05
-2.20027e-05
-2.46275e-05
-2.64383e-05
-2.79362e-05
-3.11049e-05
-4.0863e-05
-6.86104e-05
-0.000139328
-0.000311065
-0.000719462
-0.000578415
4.0007e-05
0.00046082
0.000581567
0.000526814
0.000428235
0.000344129
0.000292276
0.000275769
0.000229626
6.66392e-05
-0.000195384
-0.000319141
-0.000227838
-0.000108098
-3.69695e-05
-1.03906e-05
-2.31107e-06
-4.66023e-07
-7.85758e-08
-1.14699e-08
-1.46239e-09
-1.66041e-10
-1.73022e-11
-1.51584e-12
-1.4364e-13
-2.48223e-14
-5.08584e-15
-6.36584e-16
5.30643e-16
8.23373e-16
7.82873e-16
6.10415e-16
4.19609e-16
2.64092e-16
1.56106e-16
8.8255e-17
4.83464e-17
2.59102e-17
1.36554e-17
7.10804e-18
3.66074e-18
1.86429e-18
9.34978e-19
4.56751e-19
2.11556e-19
8.60723e-20
1.98959e-20
-9.67995e-13
-1.40954e-11
-6.16822e-11
-1.98351e-10
-5.52702e-10
-1.41805e-09
-3.44215e-09
-8.00183e-09
-1.78877e-08
-3.8434e-08
-7.92048e-08
-1.56389e-07
-2.95756e-07
-5.34174e-07
-9.14046e-07
-1.45769e-06
-2.11844e-06
-2.67501e-06
-2.63244e-06
-1.23985e-06
2.22816e-06
7.91506e-06
1.45081e-05
1.9464e-05
2.02083e-05
1.70284e-05
1.17819e-05
6.02875e-06
1.91538e-06
-7.49533e-07
-2.19567e-06
-2.87753e-06
-3.16325e-06
-3.29784e-06
-3.54409e-06
-3.99248e-06
-5.1505e-06
-6.66549e-06
-8.83552e-06
-1.17476e-05
-1.52573e-05
-1.89372e-05
-2.2281e-05
-2.49185e-05
-2.67126e-05
-2.81924e-05
-3.14364e-05
-4.15746e-05
-7.03885e-05
-0.000144262
-0.000324193
-0.000743677
-0.000553429
6.6368e-05
0.000472995
0.000581949
0.000520222
0.000421302
0.000338641
0.000288658
0.000272955
0.000221978
5.11653e-05
-0.000212025
-0.000318817
-0.000218501
-0.000101634
-3.4139e-05
-9.41015e-06
-2.06764e-06
-4.12033e-07
-6.87573e-08
-9.95162e-09
-1.26044e-09
-1.42414e-10
-1.48058e-11
-1.27663e-12
-1.24777e-13
-2.20257e-14
-4.50829e-15
-5.05e-16
5.63108e-16
8.29843e-16
7.81193e-16
6.06672e-16
4.16222e-16
2.61677e-16
1.54596e-16
8.73828e-17
4.78678e-17
2.56579e-17
1.35242e-17
7.04079e-18
3.62664e-18
1.84718e-18
9.26515e-19
4.52667e-19
2.09684e-19
8.5316e-20
1.97217e-20
-9.58594e-13
-1.39588e-11
-6.10847e-11
-1.96431e-10
-5.47362e-10
-1.40439e-09
-3.40919e-09
-7.92593e-09
-1.77202e-08
-3.80794e-08
-7.8486e-08
-1.55002e-07
-2.93236e-07
-5.29935e-07
-9.07637e-07
-1.44964e-06
-2.11166e-06
-2.67721e-06
-2.65668e-06
-1.30681e-06
2.1152e-06
7.77423e-06
1.44048e-05
1.94655e-05
2.03135e-05
1.72015e-05
1.19663e-05
6.17536e-06
2.01803e-06
-6.85371e-07
-2.16245e-06
-2.85886e-06
-3.16399e-06
-3.29475e-06
-3.54837e-06
-4.00356e-06
-5.18094e-06
-6.7056e-06
-8.91008e-06
-1.18623e-05
-1.54192e-05
-1.91436e-05
-2.25171e-05
-2.51615e-05
-2.6935e-05
-2.84027e-05
-3.17339e-05
-4.22454e-05
-7.19467e-05
-0.000148195
-0.000333248
-0.000770029
-0.000524916
9.31017e-05
0.000484918
0.000582556
0.000517026
0.000418292
0.000337092
0.000289279
0.000274217
0.000216529
3.66378e-05
-0.000225012
-0.000316751
-0.000209327
-9.43407e-05
-3.16342e-05
-8.58108e-06
-1.87621e-06
-3.71279e-07
-6.1486e-08
-8.83964e-09
-1.11363e-09
-1.25319e-10
-1.3004e-11
-1.10642e-12
-1.11262e-13
-1.99941e-14
-4.08304e-15
-4.06029e-16
5.88247e-16
8.3463e-16
7.79161e-16
6.02871e-16
4.12814e-16
2.59241e-16
1.53064e-16
8.64926e-17
4.73763e-17
2.53948e-17
1.33867e-17
6.96998e-18
3.59063e-18
1.82907e-18
9.17533e-19
4.48321e-19
2.07686e-19
8.45072e-20
1.95353e-20
-9.50492e-13
-1.3841e-11
-6.05703e-11
-1.94781e-10
-5.42777e-10
-1.39269e-09
-3.38101e-09
-7.86122e-09
-1.75781e-08
-3.77804e-08
-7.78852e-08
-1.53855e-07
-2.91179e-07
-5.26522e-07
-9.02446e-07
-1.44326e-06
-2.10653e-06
-2.67907e-06
-2.67489e-06
-1.35724e-06
2.02847e-06
7.66515e-06
1.43206e-05
1.94625e-05
2.0405e-05
1.73503e-05
1.21227e-05
6.30164e-06
2.10438e-06
-6.34284e-07
-2.13296e-06
-2.8424e-06
-3.14517e-06
-3.29557e-06
-3.55457e-06
-4.01541e-06
-5.20757e-06
-6.74393e-06
-8.9731e-06
-1.19583e-05
-1.55542e-05
-1.93167e-05
-2.27184e-05
-2.53703e-05
-2.71303e-05
-2.85974e-05
-3.20258e-05
-4.2928e-05
-7.36061e-05
-0.000152434
-0.000343429
-0.00078939
-0.000500479
0.000117298
0.000496365
0.000583122
0.000515112
0.000416288
0.000335874
0.000289331
0.000274277
0.000211225
2.40658e-05
-0.000236787
-0.000315162
-0.000202632
-9.0158e-05
-2.98178e-05
-7.96626e-06
-1.73491e-06
-3.4149e-07
-5.61949e-08
-8.03193e-09
-1.00741e-09
-1.12982e-10
-1.17052e-11
-9.83533e-13
-1.01255e-13
-1.84714e-14
-3.76479e-15
-3.30911e-16
6.07856e-16
8.38192e-16
7.77012e-16
5.9921e-16
4.09539e-16
2.56894e-16
1.51582e-16
8.56282e-17
4.68995e-17
2.51303e-17
1.32487e-17
6.89905e-18
3.55458e-18
1.81094e-18
9.08544e-19
4.43969e-19
2.05684e-19
8.36965e-20
1.93484e-20
-9.43617e-13
-1.37411e-11
-6.01343e-11
-1.93383e-10
-5.389e-10
-1.38281e-09
-3.35729e-09
-7.80694e-09
-1.74593e-08
-3.75318e-08
-7.73887e-08
-1.52914e-07
-2.89504e-07
-5.23765e-07
-8.98279e-07
-1.43827e-06
-2.10261e-06
-2.68102e-06
-2.69108e-06
-1.4e-06
1.95437e-06
7.5778e-06
1.42563e-05
1.94628e-05
2.0478e-05
1.74695e-05
1.22487e-05
6.40089e-06
2.17056e-06
-5.95378e-07
-2.11278e-06
-2.83421e-06
-3.14631e-06
-3.29885e-06
-3.561e-06
-4.02617e-06
-5.22974e-06
-6.777e-06
-9.02501e-06
-1.20327e-05
-1.56532e-05
-1.94381e-05
-2.28635e-05
-2.55467e-05
-2.72709e-05
-2.87235e-05
-3.22121e-05
-4.33932e-05
-7.49529e-05
-0.000156363
-0.000354303
-0.000801924
-0.000482819
0.000134442
0.000504464
0.000584343
0.000513207
0.000414374
0.000334794
0.000289666
0.000274785
0.000206795
1.30072e-05
-0.000246317
-0.000313256
-0.000197125
-8.68573e-05
-2.84147e-05
-7.4936e-06
-1.63091e-06
-3.1963e-07
-5.24254e-08
-7.45834e-09
-9.31904e-10
-1.04192e-10
-1.07772e-11
-8.95252e-13
-9.39427e-14
-1.73526e-14
-3.52887e-15
-2.73789e-16
6.23299e-16
8.40877e-16
7.74889e-16
5.95793e-16
4.06487e-16
2.54704e-16
1.50194e-16
8.48156e-17
4.6449e-17
2.48838e-17
1.31193e-17
6.8323e-18
3.52053e-18
1.79377e-18
9.00009e-19
4.3983e-19
2.03777e-19
8.29233e-20
1.91702e-20
-9.37858e-13
-1.36574e-11
-5.97693e-11
-1.92214e-10
-5.35661e-10
-1.37457e-09
-3.33754e-09
-7.76185e-09
-1.73608e-08
-3.73265e-08
-7.69803e-08
-1.52145e-07
-2.88148e-07
-5.21569e-07
-8.95035e-07
-1.43438e-06
-2.09951e-06
-2.68265e-06
-2.7037e-06
-1.4337e-06
1.8973e-06
7.50843e-06
1.42022e-05
1.9462e-05
2.05405e-05
1.75741e-05
1.23578e-05
6.48528e-06
2.22377e-06
-5.64533e-07
-2.09941e-06
-2.82986e-06
-3.14481e-06
-3.30064e-06
-3.5661e-06
-4.03551e-06
-5.25004e-06
-6.80798e-06
-9.07341e-06
-1.21039e-05
-1.57502e-05
-1.95603e-05
-2.3006e-05
-2.56963e-05
-2.74179e-05
-2.88955e-05
-3.25014e-05
-4.40284e-05
-7.63931e-05
-0.000159521
-0.00036062
-0.00081516
-0.000462211
0.000150659
0.000510609
0.000583211
0.00050905
0.000410462
0.000331921
0.000288355
0.000273829
0.000202138
3.55711e-06
-0.00025389
-0.000311404
-0.000192624
-8.37995e-05
-2.72724e-05
-7.11199e-06
-1.54771e-06
-3.01826e-07
-4.926e-08
-6.98063e-09
-8.69368e-10
-9.69547e-11
-1.00167e-11
-8.23794e-13
-8.79781e-14
-1.64317e-14
-3.33439e-15
-2.26591e-16
6.36137e-16
8.43009e-16
7.72892e-16
5.92683e-16
4.03718e-16
2.52715e-16
1.4893e-16
8.40733e-17
4.60358e-17
2.4661e-17
1.3002e-17
6.77149e-18
3.48943e-18
1.77805e-18
8.92177e-19
4.36026e-19
2.02023e-19
8.2211e-20
1.90057e-20
-9.33096e-13
-1.35883e-11
-5.94675e-11
-1.91248e-10
-5.32984e-10
-1.36776e-09
-3.32121e-09
-7.72453e-09
-1.72792e-08
-3.71557e-08
-7.6639e-08
-1.51498e-07
-2.86994e-07
-5.1967e-07
-8.92157e-07
-1.43078e-06
-2.09674e-06
-2.68409e-06
-2.71438e-06
-1.46145e-06
1.85192e-06
7.45287e-06
1.41617e-05
1.94658e-05
2.05931e-05
1.76569e-05
1.24431e-05
6.55155e-06
2.26666e-06
-5.40864e-07
-2.09031e-06
-2.74674e-06
-3.14449e-06
-3.305e-06
-3.57227e-06
-4.04492e-06
-5.2683e-06
-6.83542e-06
-9.11543e-06
-1.21648e-05
-1.58317e-05
-1.96607e-05
-2.31193e-05
-2.58105e-05
-2.75209e-05
-2.89984e-05
-3.26678e-05
-4.44454e-05
-7.75293e-05
-0.000162556
-0.000368178
-0.000824038
-0.0004468
0.000163333
0.000514439
0.00058077
0.000504563
0.000406161
0.00032861
0.000286385
0.000272013
0.000197411
-4.9421e-06
-0.000260184
-0.000309713
-0.000188867
-8.19239e-05
-2.64084e-05
-6.8229e-06
-1.48452e-06
-2.88517e-07
-4.69247e-08
-6.62825e-09
-8.23181e-10
-9.15994e-11
-9.45268e-12
-7.70664e-13
-8.3576e-14
-1.57451e-14
-3.18608e-15
-1.89512e-16
6.4651e-16
8.44668e-16
7.71073e-16
5.89921e-16
4.01264e-16
2.50951e-16
1.47808e-16
8.34133e-17
4.56676e-17
2.44623e-17
1.28972e-17
6.7172e-18
3.46164e-18
1.76399e-18
8.85169e-19
4.3262e-19
2.0045e-19
8.15726e-20
1.88583e-20
-9.29232e-13
-1.35321e-11
-5.92227e-11
-1.90464e-10
-5.30814e-10
-1.36224e-09
-3.30798e-09
-7.69433e-09
-1.72132e-08
-3.70175e-08
-7.63626e-08
-1.50973e-07
-2.86057e-07
-5.18129e-07
-8.8982e-07
-1.42811e-06
-2.09486e-06
-2.68556e-06
-2.72328e-06
-1.48431e-06
1.81313e-06
7.40745e-06
1.41298e-05
1.94719e-05
2.06397e-05
1.7726e-05
1.2512e-05
6.60332e-06
2.29906e-06
-5.254e-07
-2.09036e-06
-2.85884e-06
-3.15781e-06
-3.31214e-06
-3.57944e-06
-4.05415e-06
-5.28414e-06
-6.85853e-06
-9.15054e-06
-1.22158e-05
-1.59005e-05
-1.97457e-05
-2.32138e-05
-2.59079e-05
-2.76181e-05
-2.91118e-05
-3.28612e-05
-4.48902e-05
-7.86216e-05
-0.000165242
-0.000374505
-0.000829322
-0.000434106
0.000174524
0.00051987
0.000582508
0.000504631
0.000405866
0.000328476
0.000286883
0.000272206
0.000194319
-1.17683e-05
-0.000265047
-0.000308085
-0.000185726
-7.99768e-05
-2.56943e-05
-6.58875e-06
-1.4333e-06
-2.77862e-07
-4.5067e-08
-6.34913e-09
-7.86699e-10
-8.73776e-11
-9.00852e-12
-7.28963e-13
-8.00434e-14
-1.51928e-14
-3.06785e-15
-1.59813e-16
6.54925e-16
8.4596e-16
7.69463e-16
5.87524e-16
3.9914e-16
2.49424e-16
1.46837e-16
8.28411e-17
4.53481e-17
2.42896e-17
1.28062e-17
6.66995e-18
3.43744e-18
1.75174e-18
8.79059e-19
4.29649e-19
1.99079e-19
8.10155e-20
1.87296e-20
-9.26182e-13
-1.34878e-11
-5.90296e-11
-1.89846e-10
-5.29105e-10
-1.3579e-09
-3.29761e-09
-7.67067e-09
-1.71616e-08
-3.69098e-08
-7.61479e-08
-1.50568e-07
-2.85346e-07
-5.16985e-07
-8.88124e-07
-1.42614e-06
-2.09347e-06
-2.68685e-06
-2.73051e-06
-1.50215e-06
1.78488e-06
7.37436e-06
1.41074e-05
1.94778e-05
2.06765e-05
1.77802e-05
1.25668e-05
6.64586e-06
2.32723e-06
-5.06819e-07
-2.07444e-06
-2.81554e-06
-3.15097e-06
-3.31151e-06
-3.58276e-06
-4.06098e-06
-5.29746e-06
-6.87883e-06
-9.18104e-06
-1.22586e-05
-1.59572e-05
-1.98132e-05
-2.32881e-05
-2.59833e-05
-2.76918e-05
-2.91934e-05
-3.29965e-05
-4.52199e-05
-7.95309e-05
-0.000167824
-0.000381757
-0.000832308
-0.000427379
0.000181751
0.000523744
0.000583347
0.000504477
0.000405791
0.00032874
0.00028765
0.000272599
0.000191966
-1.72067e-05
-0.000268775
-0.000306645
-0.000183162
-7.83645e-05
-2.51115e-05
-6.3955e-06
-1.39123e-06
-2.69104e-07
-4.35455e-08
-6.12143e-09
-7.57053e-10
-8.39587e-11
-8.64976e-12
-6.95546e-13
-7.71685e-14
-1.4742e-14
-2.9717e-15
-1.35664e-16
6.61764e-16
8.46968e-16
7.68081e-16
5.85499e-16
3.97351e-16
2.48139e-16
1.46019e-16
8.23592e-17
4.50788e-17
2.41441e-17
1.27293e-17
6.63008e-18
3.417e-18
1.74139e-18
8.73899e-19
4.27139e-19
1.9792e-19
8.05447e-20
1.86208e-20
-9.23866e-13
-1.34542e-11
-5.88831e-11
-1.89378e-10
-5.27812e-10
-1.35463e-09
-3.2898e-09
-7.65298e-09
-1.71234e-08
-3.68309e-08
-7.59927e-08
-1.50279e-07
-2.8484e-07
-5.16161e-07
-8.8687e-07
-1.42465e-06
-2.09244e-06
-2.68796e-06
-2.73626e-06
-1.51639e-06
1.76163e-06
7.34769e-06
1.40904e-05
1.94841e-05
2.07066e-05
1.7824e-05
1.26103e-05
6.6784e-06
2.34768e-06
-4.95069e-07
-2.06826e-06
-2.81218e-06
-3.15034e-06
-3.31303e-06
-3.58633e-06
-4.06698e-06
-5.30829e-06
-6.89501e-06
-9.2051e-06
-1.22925e-05
-1.60017e-05
-1.98668e-05
-2.33479e-05
-2.6046e-05
-2.77575e-05
-2.92761e-05
-3.31429e-05
-4.55408e-05
-8.02508e-05
-0.000169369
-0.000384688
-0.000834939
-0.000418143
0.000189094
0.000526999
0.000583749
0.000504309
0.000405672
0.000328883
0.000288274
0.000273
0.000190277
-2.13225e-05
-0.000271575
-0.000305469
-0.000181166
-7.68767e-05
-2.4664e-05
-6.24862e-06
-1.35922e-06
-2.62391e-07
-4.23805e-08
-5.94745e-09
-7.34455e-10
-8.13566e-11
-8.37684e-12
-6.70349e-13
-7.49815e-14
-1.43952e-14
-2.89735e-15
-1.169e-16
6.67103e-16
8.47724e-16
7.66942e-16
5.83853e-16
3.95902e-16
2.47099e-16
1.45357e-16
8.19695e-17
4.4861e-17
2.40264e-17
1.26672e-17
6.59783e-18
3.40048e-18
1.73302e-18
8.69724e-19
4.25108e-19
1.96982e-19
8.01638e-20
1.85328e-20
-9.22217e-13
-1.34303e-11
-5.87791e-11
-1.89047e-10
-5.26903e-10
-1.35234e-09
-3.28438e-09
-7.64075e-09
-1.70969e-08
-3.67756e-08
-7.58815e-08
-1.50065e-07
-2.84454e-07
-5.15527e-07
-8.85923e-07
-1.42359e-06
-2.09176e-06
-2.6888e-06
-2.74034e-06
-1.5263e-06
1.74572e-06
7.32954e-06
1.40789e-05
1.94888e-05
2.07281e-05
1.78547e-05
1.26405e-05
6.70095e-06
2.36189e-06
-4.87124e-07
-2.06465e-06
-2.81106e-06
-3.14989e-06
-3.31478e-06
-3.58919e-06
-4.07142e-06
-5.31612e-06
-6.90668e-06
-9.22238e-06
-1.23169e-05
-1.60332e-05
-1.9904e-05
-2.33879e-05
-2.60839e-05
-2.77894e-05
-2.93055e-05
-3.31969e-05
-4.57085e-05
-8.07745e-05
-0.000170919
-0.000388995
-0.000836011
-0.000414299
0.000192931
0.000528539
0.000583273
0.00050331
0.000405076
0.000328816
0.000288788
0.000273495
0.000189216
-2.42907e-05
-0.000273558
-0.000304537
-0.000179645
-7.5823e-05
-2.42946e-05
-6.13236e-06
-1.33398e-06
-2.57195e-07
-4.14883e-08
-5.81519e-09
-7.17353e-10
-7.93948e-11
-8.17166e-12
-6.51763e-13
-7.34068e-14
-1.41472e-14
-2.84389e-15
-1.03375e-16
6.70947e-16
8.48258e-16
7.66104e-16
5.82646e-16
3.94836e-16
2.46331e-16
1.44866e-16
8.16792e-17
4.4698e-17
2.39379e-17
1.26204e-17
6.57347e-18
3.38799e-18
1.7267e-18
8.66567e-19
4.23573e-19
1.96273e-19
7.98758e-20
1.84663e-20
-9.21161e-13
-1.3415e-11
-5.87124e-11
-1.88834e-10
-5.26313e-10
-1.35084e-09
-3.28077e-09
-7.63244e-09
-1.70786e-08
-3.67369e-08
-7.58042e-08
-1.4992e-07
-2.842e-07
-5.15122e-07
-8.8532e-07
-1.4229e-06
-2.09134e-06
-2.68937e-06
-2.74296e-06
-1.53258e-06
1.7357e-06
7.31816e-06
1.40717e-05
1.94921e-05
2.07423e-05
1.78748e-05
1.26604e-05
6.71659e-06
2.37148e-06
-4.81351e-07
-2.0621e-06
-2.81016e-06
-3.1501e-06
-3.31578e-06
-3.59104e-06
-4.07434e-06
-5.32124e-06
-6.91434e-06
-9.23366e-06
-1.23331e-05
-1.60535e-05
-1.99277e-05
-2.34125e-05
-2.61057e-05
-2.78043e-05
-2.9313e-05
-3.32104e-05
-4.57744e-05
-8.10211e-05
-0.000171684
-0.000391035
-0.000836997
-0.000410514
0.00019582
0.000528826
0.000582006
0.000501764
0.000403724
0.000327837
0.000288233
0.000272991
0.00018796
-2.64818e-05
-0.00027492
-0.000303934
-0.00017867
-7.52864e-05
-2.40808e-05
-6.06231e-06
-1.31875e-06
-2.54026e-07
-4.09396e-08
-5.73335e-09
-7.06729e-10
-7.81708e-11
-8.04313e-12
-6.39857e-13
-7.2357e-14
-1.39809e-14
-2.80869e-15
-9.45779e-17
6.73415e-16
8.48562e-16
7.6552e-16
5.81835e-16
3.94129e-16
2.45827e-16
1.44546e-16
8.14908e-17
4.45926e-17
2.38808e-17
1.25901e-17
6.55763e-18
3.37981e-18
1.72253e-18
8.64479e-19
4.22553e-19
1.95801e-19
7.96838e-20
1.84219e-20
-9.20631e-13
-1.34073e-11
-5.86788e-11
-1.88726e-10
-5.26015e-10
-1.35008e-09
-3.27896e-09
-7.62834e-09
-1.70697e-08
-3.67185e-08
-7.57674e-08
-1.49851e-07
-2.84079e-07
-5.14928e-07
-8.85033e-07
-1.42258e-06
-2.09114e-06
-2.68967e-06
-2.74428e-06
-1.53572e-06
1.73072e-06
7.31257e-06
1.40683e-05
1.94939e-05
2.07497e-05
1.78853e-05
1.2671e-05
6.72563e-06
2.38206e-06
-4.77417e-07
-2.06014e-06
-2.80844e-06
-3.14854e-06
-3.3152e-06
-3.59158e-06
-4.07562e-06
-5.32367e-06
-6.91807e-06
-9.23924e-06
-1.23409e-05
-1.60637e-05
-1.99397e-05
-2.3425e-05
-2.61168e-05
-2.78123e-05
-2.93195e-05
-3.32217e-05
-4.57969e-05
-8.10274e-05
-0.000171459
-0.000389504
-0.000836903
-0.000404045
0.000201783
0.000533486
0.000586369
0.000507303
0.000408558
0.000331641
0.000291219
0.000275144
0.000188652
-2.71196e-05
-0.000275442
-0.000303544
-0.000178141
-7.50096e-05
-2.39709e-05
-6.02661e-06
-1.31096e-06
-2.52417e-07
-4.06627e-08
-5.69227e-09
-7.01423e-10
-7.75623e-11
-7.97936e-12
-6.33847e-13
-7.18191e-14
-1.38953e-14
-2.79049e-15
-8.99662e-17
6.7472e-16
8.48702e-16
7.65176e-16
5.81371e-16
3.9373e-16
2.45544e-16
1.44368e-16
8.13868e-17
4.45349e-17
2.38498e-17
1.25739e-17
6.54928e-18
3.37556e-18
1.72039e-18
8.63416e-19
4.22038e-19
1.95563e-19
7.95872e-20
1.83996e-20
-9.20623e-13
-1.34072e-11
-5.86783e-11
-1.88724e-10
-5.2601e-10
-1.35007e-09
-3.27892e-09
-7.62826e-09
-1.70695e-08
-3.67182e-08
-7.57669e-08
-1.4985e-07
-2.84078e-07
-5.14927e-07
-8.85034e-07
-1.42259e-06
-2.09116e-06
-2.68969e-06
-2.74433e-06
-1.53578e-06
1.73065e-06
7.31253e-06
1.40683e-05
1.9494e-05
2.07496e-05
1.7885e-05
1.26704e-05
6.72464e-06
2.38697e-06
-4.77949e-07
-2.0608e-06
-2.80981e-06
-3.15138e-06
-3.31622e-06
-3.59189e-06
-4.07564e-06
-5.32354e-06
-6.91784e-06
-9.23893e-06
-1.23402e-05
-1.60634e-05
-1.99395e-05
-2.34245e-05
-2.61155e-05
-2.78086e-05
-2.93108e-05
-3.32063e-05
-4.57859e-05
-8.1092e-05
-0.000171916
-0.000391577
-0.00083702
-0.000409219
0.000197584
0.000531364
0.000584743
0.000503951
0.000405482
0.000329254
0.000289446
0.000273804
0.000187806
-2.74939e-05
-0.000275523
-0.000303498
-0.000178094
-7.49934e-05
-2.39638e-05
-6.0244e-06
-1.31046e-06
-2.52319e-07
-4.06466e-08
-5.68996e-09
-7.01132e-10
-7.75295e-11
-7.97596e-12
-6.33536e-13
-7.17916e-14
-1.38905e-14
-2.7895e-15
-8.97372e-17
6.74773e-16
8.48695e-16
7.65144e-16
5.81336e-16
3.93701e-16
2.45525e-16
1.44357e-16
8.13805e-17
4.45317e-17
2.38483e-17
1.25731e-17
6.54894e-18
3.37541e-18
1.72032e-18
8.63386e-19
4.22025e-19
1.95558e-19
7.95853e-20
1.83991e-20
-9.2114e-13
-1.34146e-11
-5.87108e-11
-1.88828e-10
-5.26295e-10
-1.35079e-09
-3.28064e-09
-7.63215e-09
-1.7078e-08
-3.67358e-08
-7.5802e-08
-1.49916e-07
-2.84195e-07
-5.15117e-07
-8.85318e-07
-1.42291e-06
-2.09137e-06
-2.68944e-06
-2.74309e-06
-1.53278e-06
1.73546e-06
7.31803e-06
1.40718e-05
1.94924e-05
2.07426e-05
1.78748e-05
1.266e-05
6.71532e-06
2.3707e-06
-4.82497e-07
-2.06281e-06
-2.8108e-06
-3.15038e-06
-3.31595e-06
-3.59104e-06
-4.07416e-06
-5.32089e-06
-6.91385e-06
-9.2331e-06
-1.23326e-05
-1.60534e-05
-1.99282e-05
-2.34134e-05
-2.61064e-05
-2.78035e-05
-2.93099e-05
-3.32039e-05
-4.57617e-05
-8.0988e-05
-0.000171567
-0.000390545
-0.000836225
-0.000411056
0.000196033
0.000530986
0.000585239
0.000504604
0.000405979
0.000329545
0.000289528
0.000273882
0.000188297
-2.64858e-05
-0.000274889
-0.000303774
-0.000178541
-7.52406e-05
-2.40618e-05
-6.05662e-06
-1.31745e-06
-2.53774e-07
-4.08979e-08
-5.72734e-09
-7.05993e-10
-7.80896e-11
-8.03465e-12
-6.38995e-13
-7.22693e-14
-1.3966e-14
-2.80567e-15
-9.38704e-17
6.73588e-16
8.48544e-16
7.65424e-16
5.81728e-16
3.94045e-16
2.4577e-16
1.44513e-16
8.14726e-17
4.45833e-17
2.38762e-17
1.25879e-17
6.55666e-18
3.37938e-18
1.72234e-18
8.64399e-19
4.22519e-19
1.95787e-19
7.96786e-20
1.84207e-20
-9.22212e-13
-1.34302e-11
-5.87786e-11
-1.89045e-10
-5.26893e-10
-1.3523e-09
-3.28425e-09
-7.64034e-09
-1.70958e-08
-3.67729e-08
-7.58759e-08
-1.50056e-07
-2.84442e-07
-5.15516e-07
-8.85918e-07
-1.4236e-06
-2.09181e-06
-2.68889e-06
-2.74046e-06
-1.52641e-06
1.74568e-06
7.32969e-06
1.40792e-05
1.94893e-05
2.07285e-05
1.78548e-05
1.26402e-05
6.70048e-06
2.3613e-06
-4.8765e-07
-2.0651e-06
-2.81148e-06
-3.14993e-06
-3.31487e-06
-3.58913e-06
-4.07117e-06
-5.3156e-06
-6.90591e-06
-9.22136e-06
-1.23158e-05
-1.60323e-05
-1.99037e-05
-2.33878e-05
-2.60826e-05
-2.77838e-05
-2.92913e-05
-3.3169e-05
-4.56594e-05
-8.06927e-05
-0.000170774
-0.000388607
-0.000835485
-0.000414755
0.000192929
0.000529616
0.000585124
0.000504946
0.000406329
0.000329757
0.000289489
0.00027392
0.000189274
-2.4427e-05
-0.000273557
-0.000304336
-0.000179478
-7.57619e-05
-2.42695e-05
-6.12445e-06
-1.3322e-06
-2.56839e-07
-4.14293e-08
-5.80714e-09
-7.1636e-10
-7.92804e-11
-8.1597e-12
-6.50584e-13
-7.32668e-14
-1.41239e-14
-2.83984e-15
-1.02625e-16
6.7108e-16
8.48228e-16
7.66025e-16
5.82567e-16
3.94777e-16
2.46294e-16
1.44845e-16
8.1668e-17
4.46924e-17
2.39352e-17
1.26191e-17
6.57283e-18
3.38767e-18
1.72654e-18
8.66492e-19
4.23537e-19
1.96257e-19
7.98696e-20
1.84648e-20
-9.23879e-13
-1.34544e-11
-5.8884e-11
-1.89381e-10
-5.27823e-10
-1.35466e-09
-3.28987e-09
-7.65311e-09
-1.71235e-08
-3.68307e-08
-7.59909e-08
-1.50272e-07
-2.84823e-07
-5.16132e-07
-8.86838e-07
-1.42465e-06
-2.09249e-06
-2.68805e-06
-2.73638e-06
-1.51649e-06
1.76164e-06
7.34793e-06
1.40909e-05
1.94847e-05
2.07071e-05
1.78241e-05
1.261e-05
6.67779e-06
2.34702e-06
-4.95692e-07
-2.06877e-06
-2.81263e-06
-3.15078e-06
-3.31319e-06
-3.5863e-06
-4.06673e-06
-5.30766e-06
-6.89397e-06
-9.20357e-06
-1.22905e-05
-1.59995e-05
-1.98645e-05
-2.33455e-05