/*--------------------------------*- C++ -*----------------------------------*\
  =========                 |
  \\      /  F ield         | OpenFOAM: The Open Source CFD Toolbox
   \\    /   O peration     | Website:  https://openfoam.org
    \\  /    A nd           | Version:  10
     \\/     M anipulation  |
\*---------------------------------------------------------------------------*/
FoamFile
{
    format      ascii;
    class       volScalarField;
    location    "1";
    object      RR.HNO2;
}
// * * * * * * * * * * * * * * * * * * * * * * * * * * * * * * * * * * * * * //

dimensions      [1 -3 -1 0 0 0 0];

internalField   nonuniform List<scalar> 
4000
(
3.02862e-21
4.41714e-20
1.93245e-19
6.21078e-19
1.73334e-18
4.47784e-18
1.10472e-17
2.64809e-17
6.23152e-17
1.44939e-16
3.35173e-16
7.76427e-16
1.81808e-15
4.33829e-15
1.05938e-14
2.63284e-14
6.6525e-14
1.68285e-13
4.02978e-13
9.49507e-13
2.03647e-12
4.00892e-12
7.19579e-12
1.10563e-11
1.29592e-11
4.95799e-12
-1.6697e-11
-2.32496e-11
-1.18136e-11
-2.41164e-12
5.27445e-12
1.07852e-11
8.45672e-12
-7.12467e-12
-3.66387e-11
-7.74321e-11
-1.42476e-10
-2.85493e-10
-5.4056e-10
-1.01823e-09
-1.91355e-09
-3.55179e-09
-6.48818e-09
-1.1697e-08
-2.10236e-08
-3.73532e-08
-6.54592e-08
-1.13513e-07
-1.9562e-07
-3.35172e-07
-5.71267e-07
-9.6283e-07
-9.28149e-07
-2.71926e-07
-1.49459e-07
-5.04886e-07
-1.16432e-06
-2.11167e-06
-3.51785e-06
-5.65743e-06
-8.79869e-06
-1.28025e-05
-1.4564e-05
5.84297e-06
4.36675e-05
3.02978e-05
2.48085e-06
-1.39976e-05
-8.38002e-06
-1.06609e-06
-1.2705e-07
-1.59612e-08
-1.87844e-09
-1.93761e-10
-1.84514e-11
-1.79225e-12
-1.68396e-13
-1.63292e-14
-1.74915e-15
-2.21614e-16
-3.49625e-17
-6.93439e-18
-1.66404e-18
-4.48957e-19
-1.27977e-19
-3.71002e-20
-1.08138e-20
-3.17867e-21
-9.57494e-22
-3.03068e-22
-1.03767e-22
-3.9032e-23
-1.62181e-23
-7.29894e-24
-3.44392e-24
-1.65285e-24
-7.9534e-25
-3.63607e-25
-1.47319e-25
-3.3841e-26
3.00553e-21
4.38323e-20
1.91763e-19
6.16429e-19
1.72081e-18
4.44627e-18
1.09701e-17
2.62932e-17
6.18489e-17
1.43738e-16
3.31949e-16
7.67465e-16
1.7921e-15
4.2631e-15
1.03796e-14
2.5728e-14
6.47388e-14
1.63053e-13
3.89812e-13
9.21413e-13
1.98134e-12
3.90478e-12
7.03628e-12
1.09275e-11
1.31247e-11
5.9106e-12
-1.56672e-11
-2.39166e-11
-1.25188e-11
-2.88046e-12
4.93159e-12
1.0784e-11
9.10285e-12
-6.64317e-12
-3.65969e-11
-7.82793e-11
-1.44575e-10
-2.90798e-10
-5.50565e-10
-1.03815e-09
-1.95218e-09
-3.62544e-09
-6.62326e-09
-1.19474e-08
-2.14831e-08
-3.81864e-08
-6.69248e-08
-1.16064e-07
-2.00013e-07
-3.42721e-07
-5.84462e-07
-9.84971e-07
-9.06828e-07
-2.60007e-07
-1.6256e-07
-5.38663e-07
-1.21564e-06
-2.19545e-06
-3.65623e-06
-5.87616e-06
-9.13385e-06
-1.31627e-05
-1.43045e-05
9.33787e-06
4.48379e-05
2.8078e-05
8.19919e-07
-1.47594e-05
-7.32634e-06
-8.93228e-07
-1.07864e-07
-1.36648e-08
-1.60125e-09
-1.63542e-10
-1.5653e-11
-1.52441e-12
-1.44075e-13
-1.40814e-14
-1.52383e-15
-1.95609e-16
-3.14245e-17
-6.37827e-18
-1.5673e-18
-4.3288e-19
-1.2558e-19
-3.69445e-20
-1.08983e-20
-3.23046e-21
-9.7866e-22
-3.10223e-22
-1.06311e-22
-4.01944e-23
-1.66429e-23
-7.46986e-24
-3.5067e-24
-1.69306e-24
-8.08332e-25
-3.67914e-25
-1.48974e-25
-3.43557e-26
2.98953e-21
4.36054e-20
1.90818e-19
6.13565e-19
1.7133e-18
4.42803e-18
1.09256e-17
2.61788e-17
6.15363e-17
1.42838e-16
3.29229e-16
7.58855e-16
1.76642e-15
4.18782e-15
1.01592e-14
2.50968e-14
6.30477e-14
1.58223e-13
3.77223e-13
8.90938e-13
1.91869e-12
3.80194e-12
6.8599e-12
1.08424e-11
1.32922e-11
6.85446e-12
-1.44644e-11
-2.45225e-11
-1.33685e-11
-3.50194e-12
4.4438e-12
1.05525e-11
9.19378e-12
-6.00253e-12
-3.65654e-11
-7.95232e-11
-1.50267e-10
-2.98286e-10
-5.6668e-10
-1.07081e-09
-2.01526e-09
-3.74255e-09
-6.83872e-09
-1.23458e-08
-2.22016e-08
-3.94551e-08
-6.91117e-08
-1.19829e-07
-2.06493e-07
-3.53786e-07
-6.02768e-07
-1.02069e-06
-8.72982e-07
-2.441e-07
-1.82584e-07
-5.85926e-07
-1.29458e-06
-2.31545e-06
-3.84077e-06
-6.15515e-06
-9.56494e-06
-1.35843e-05
-1.37272e-05
1.40303e-05
4.55805e-05
2.51397e-05
-1.18869e-06
-1.53191e-05
-6.14323e-06
-7.24143e-07
-8.88639e-08
-1.13119e-08
-1.3237e-09
-1.35634e-10
-1.30489e-11
-1.27638e-12
-1.21333e-13
-1.19539e-14
-1.30703e-15
-1.69159e-16
-2.76082e-17
-5.73532e-18
-1.4488e-18
-4.10033e-19
-1.21406e-19
-3.62462e-20
-1.08083e-20
-3.22977e-21
-9.84605e-22
-3.14339e-22
-1.07753e-22
-4.07785e-23
-1.69897e-23
-7.63128e-24
-3.58164e-24
-1.71641e-24
-8.21365e-25
-3.75009e-25
-1.51396e-25
-3.49486e-26
2.96253e-21
4.32091e-20
1.89062e-19
6.07802e-19
1.6967e-18
4.38313e-18
1.08083e-17
2.58779e-17
6.07689e-17
1.40879e-16
3.24217e-16
7.46115e-16
1.73303e-15
4.09789e-15
9.91215e-15
2.44163e-14
6.11702e-14
1.53595e-13
3.666e-13
8.64801e-13
1.86527e-12
3.70698e-12
6.71741e-12
1.07314e-11
1.34371e-11
7.7204e-12
-1.32319e-11
-2.50337e-11
-1.4238e-11
-4.10559e-12
3.97982e-12
1.02692e-11
9.36815e-12
-5.47486e-12
-3.67083e-11
-8.1182e-11
-1.57874e-10
-3.08352e-10
-5.8796e-10
-1.11233e-09
-2.09454e-09
-3.89468e-09
-7.12277e-09
-1.28626e-08
-2.31398e-08
-4.11373e-08
-7.20226e-08
-1.25009e-07
-2.1539e-07
-3.68843e-07
-6.28586e-07
-1.0577e-06
-8.35041e-07
-2.28338e-07
-2.08399e-07
-6.44942e-07
-1.38822e-06
-2.46087e-06
-4.07106e-06
-6.51171e-06
-1.00525e-05
-1.40333e-05
-1.2709e-05
1.92912e-05
4.55487e-05
2.17605e-05
-3.28096e-06
-1.54877e-05
-5.02355e-06
-5.76242e-07
-7.1943e-08
-9.20782e-09
-1.06001e-09
-1.07335e-10
-1.02915e-11
-1.00109e-12
-9.50534e-14
-9.39708e-15
-1.03699e-15
-1.38281e-16
-2.33651e-17
-5.01762e-18
-1.31067e-18
-3.81309e-19
-1.152e-19
-3.49162e-20
-1.05331e-20
-3.17418e-21
-9.75446e-22
-3.13362e-22
-1.08143e-22
-4.08851e-23
-1.71396e-23
-7.64883e-24
-3.60524e-24
-1.73721e-24
-8.32245e-25
-3.8035e-25
-1.53383e-25
-3.54275e-26
2.93365e-21
4.27869e-20
1.87207e-19
6.01791e-19
1.67969e-18
4.33821e-18
1.06941e-17
2.55929e-17
6.0062e-17
1.39119e-16
3.19786e-16
7.34802e-16
1.70367e-15
4.02032e-15
9.7038e-15
2.38563e-14
5.96636e-14
1.49638e-13
3.56875e-13
8.42343e-13
1.82236e-12
3.63553e-12
6.60715e-12
1.0646e-11
1.35652e-11
8.55504e-12
-1.20272e-11
-2.54876e-11
-1.50585e-11
-4.70391e-12
3.5437e-12
9.98354e-12
9.50162e-12
-5.07344e-12
-3.7047e-11
-8.3206e-11
-1.65304e-10
-3.2039e-10
-6.10879e-10
-1.15709e-09
-2.18164e-09
-4.05945e-09
-7.42963e-09
-1.3423e-08
-2.41541e-08
-4.29454e-08
-7.50365e-08
-1.30169e-07
-2.24217e-07
-3.83839e-07
-6.53534e-07
-1.0988e-06
-7.88906e-07
-2.13555e-07
-2.37886e-07
-7.07185e-07
-1.48299e-06
-2.60469e-06
-4.28959e-06
-6.8354e-06
-1.04888e-05
-1.43956e-05
-1.13963e-05
2.43326e-05
4.47172e-05
1.85801e-05
-5.15258e-06
-1.52988e-05
-4.11943e-06
-4.63267e-07
-5.88465e-08
-7.476e-09
-8.53619e-10
-8.60949e-11
-8.2772e-12
-8.05442e-13
-7.67545e-14
-7.64291e-15
-8.52941e-16
-1.14731e-16
-1.9773e-17
-4.41967e-18
-1.1948e-18
-3.56259e-19
-1.0927e-19
-3.35009e-20
-1.02009e-20
-3.09842e-21
-9.56994e-22
-3.08896e-22
-1.074e-22
-4.0933e-23
-1.71047e-23
-7.69511e-24
-3.61844e-24
-1.74752e-24
-8.31666e-25
-3.80549e-25
-1.54468e-25
-3.54843e-26
2.90247e-21
4.23301e-20
1.85192e-19
5.95235e-19
1.66108e-18
4.28912e-18
1.05698e-17
2.52851e-17
5.93081e-17
1.37272e-16
3.15228e-16
7.23416e-16
1.67486e-15
3.94631e-15
9.51106e-15
2.33555e-14
5.8368e-14
1.46401e-13
3.49481e-13
8.24862e-13
1.78927e-12
3.58085e-12
6.51936e-12
1.05764e-11
1.36802e-11
9.23361e-12
-1.09724e-11
-2.58152e-11
-1.58333e-11
-5.25526e-12
3.12907e-12
9.83111e-12
9.78698e-12
-4.83491e-12
-3.75667e-11
-8.54901e-11
-1.7251e-10
-3.33228e-10
-6.34624e-10
-1.204e-09
-2.27169e-09
-4.23012e-09
-7.73827e-09
-1.39802e-08
-2.5155e-08
-4.47166e-08
-7.81521e-08
-1.35511e-07
-2.33469e-07
-3.99747e-07
-6.80584e-07
-1.13319e-06
-7.48329e-07
-2.02794e-07
-2.67452e-07
-7.68561e-07
-1.57651e-06
-2.74944e-06
-4.51437e-06
-7.15986e-06
-1.08833e-05
-1.46618e-05
-9.89295e-06
2.84431e-05
4.34126e-05
1.58901e-05
-6.69371e-06
-1.47262e-05
-3.37527e-06
-3.78049e-07
-4.82428e-08
-6.10312e-09
-6.92068e-10
-6.96148e-11
-6.71356e-12
-6.53676e-13
-6.25261e-14
-6.27313e-15
-7.08881e-16
-9.72051e-17
-1.71495e-17
-3.91738e-18
-1.08296e-18
-3.29431e-19
-1.03088e-19
-3.20163e-20
-9.83709e-21
-3.00767e-21
-9.34807e-22
-3.03036e-22
-1.0572e-22
-4.04612e-23
-1.69442e-23
-7.6505e-24
-3.61055e-24
-1.73373e-24
-8.29805e-25
-3.79808e-25
-1.54373e-25
-3.54116e-26
2.87162e-21
4.18787e-20
1.83205e-19
5.88789e-19
1.64287e-18
4.24134e-18
1.04496e-17
2.49903e-17
5.85933e-17
1.3554e-16
3.10998e-16
7.12969e-16
1.64871e-15
3.87984e-15
9.3395e-15
2.29127e-14
5.72261e-14
1.43537e-13
3.42817e-13
8.0861e-13
1.75761e-12
3.53189e-12
6.44249e-12
1.05143e-11
1.37749e-11
9.79445e-12
-1.00864e-11
-2.60694e-11
-1.64886e-11
-5.71857e-12
2.78721e-12
9.63245e-12
1.01128e-11
-4.6865e-12
-3.81584e-11
-8.7745e-11
-1.7894e-10
-3.42489e-10
-6.57617e-10
-1.24907e-09
-2.35959e-09
-4.3951e-09
-8.04016e-09
-1.45264e-08
-2.61341e-08
-4.6442e-08
-8.10668e-08
-1.4052e-07
-2.42733e-07
-4.14841e-07
-7.05688e-07
-1.16676e-06
-7.04995e-07
-1.95234e-07
-2.98735e-07
-8.36239e-07
-1.67341e-06
-2.8939e-06
-4.73259e-06
-7.47949e-06
-1.12419e-05
-1.49022e-05
-8.21381e-06
3.1881e-05
4.19255e-05
1.36122e-05
-7.93875e-06
-1.41082e-05
-2.90278e-06
-3.22348e-07
-4.15503e-08
-5.22979e-09
-5.89245e-10
-5.90618e-11
-5.70425e-12
-5.55091e-13
-5.32185e-14
-5.36953e-15
-6.12767e-16
-8.53135e-17
-1.53609e-17
-3.58723e-18
-1.00972e-18
-3.10642e-19
-9.7634e-20
-3.04442e-20
-9.39149e-21
-2.88339e-21
-9.00066e-22
-2.93891e-22
-1.0302e-22
-3.97456e-23
-1.67566e-23
-7.58075e-24
-3.58956e-24
-1.72618e-24
-8.25128e-25
-3.79096e-25
-1.5273e-25
-3.51588e-26
2.84226e-21
4.14491e-20
1.81316e-19
5.82669e-19
1.62561e-18
4.19617e-18
1.03365e-17
2.4714e-17
5.7927e-17
1.33937e-16
3.07115e-16
7.03465e-16
1.62515e-15
3.82051e-15
9.18778e-15
2.25244e-14
5.62325e-14
1.41061e-13
3.37095e-13
7.94408e-13
1.7314e-12
3.48775e-12
6.37994e-12
1.04698e-11
1.38495e-11
1.0244e-11
-9.34027e-12
-2.62764e-11
-1.70667e-11
-6.12253e-12
2.47453e-12
9.42178e-12
9.97024e-12
-4.6875e-12
-3.88777e-11
-9.00985e-11
-1.84967e-10
-3.54963e-10
-6.79203e-10
-1.29064e-09
-2.43695e-09
-4.53911e-09
-8.30327e-09
-1.50063e-08
-2.70073e-08
-4.80115e-08
-8.38153e-08
-1.45272e-07
-2.50827e-07
-4.28564e-07
-7.28502e-07
-1.19265e-06
-6.67747e-07
-1.90153e-07
-3.29297e-07
-8.88342e-07
-1.75175e-06
-3.01369e-06
-4.91555e-06
-7.74412e-06
-1.15704e-05
-1.50316e-05
-6.35529e-06
3.49266e-05
4.03668e-05
1.15359e-05
-9.11482e-06
-1.33487e-05
-2.49639e-06
-2.77296e-07
-3.60865e-08
-4.52945e-09
-5.06913e-10
-5.0607e-11
-4.89178e-12
-4.75461e-13
-4.56589e-14
-4.62957e-15
-5.33156e-16
-7.53115e-17
-1.38268e-17
-3.29737e-18
-9.44191e-19
-2.93872e-19
-9.30641e-20
-2.91873e-20
-9.02617e-21
-2.78252e-21
-8.72213e-22
-2.85734e-22
-1.00587e-22
-3.89382e-23
-1.65418e-23
-7.4772e-24
-3.55429e-24
-1.71068e-24
-8.16121e-25
-3.73554e-25
-1.51416e-25
-3.48842e-26
2.81541e-21
4.10567e-20
1.79592e-19
5.77094e-19
1.60993e-18
4.15525e-18
1.02344e-17
2.44657e-17
5.73315e-17
1.32512e-16
3.03686e-16
6.95129e-16
1.60462e-15
3.76917e-15
9.0574e-15
2.21934e-14
5.53951e-14
1.39015e-13
3.32593e-13
7.83276e-13
1.70985e-12
3.45348e-12
6.3336e-12
1.04366e-11
1.39209e-11
1.06214e-11
-8.73515e-12
-2.64396e-11
-1.74544e-11
-6.46396e-12
2.2115e-12
9.25981e-12
9.9915e-12
-4.74153e-12
-3.9663e-11
-9.24425e-11
-1.90734e-10
-3.66263e-10
-7.0045e-10
-1.33227e-09
-2.51691e-09
-4.6881e-09
-8.57281e-09
-1.5491e-08
-2.78731e-08
-4.9526e-08
-8.64326e-08
-1.49829e-07
-2.58499e-07
-4.4202e-07
-7.51865e-07
-1.21128e-06
-6.39313e-07
-1.87939e-07
-3.53308e-07
-9.4289e-07
-1.83068e-06
-3.13096e-06
-5.09107e-06
-7.99096e-06
-1.18654e-05
-1.51131e-05
-4.43721e-06
3.75642e-05
3.88663e-05
9.64245e-06
-1.01745e-05
-1.25181e-05
-2.15071e-06
-2.37713e-07
-3.11294e-08
-3.88632e-09
-4.32129e-10
-4.30303e-11
-4.16868e-12
-4.05123e-13
-3.90075e-14
-3.97904e-15
-4.63076e-16
-6.64818e-17
-1.24706e-17
-3.04071e-18
-8.85912e-19
-2.78869e-19
-8.89494e-20
-2.80317e-20
-8.69861e-21
-2.68953e-21
-8.46041e-22
-2.78508e-22
-9.87208e-23
-3.83101e-23
-1.61951e-23
-7.37381e-24
-3.4863e-24
-1.68871e-24
-8.06846e-25
-3.70988e-25
-1.49635e-25
-3.44647e-26
2.79151e-21
4.07075e-20
1.78059e-19
5.72143e-19
1.59602e-18
4.11904e-18
1.01442e-17
2.42473e-17
5.68097e-17
1.3127e-16
3.00716e-16
6.87951e-16
1.58703e-15
3.72532e-15
8.94597e-15
2.19097e-14
5.4669e-14
1.37207e-13
3.2837e-13
7.72667e-13
1.69024e-12
3.42133e-12
6.29295e-12
1.04119e-11
1.39778e-11
1.0918e-11
-8.2555e-12
-2.65691e-11
-1.79556e-11
-6.75023e-12
2.0088e-12
9.13674e-12
9.38493e-12
-4.83822e-12
-4.04463e-11
-9.46801e-11
-1.96056e-10
-3.76275e-10
-7.20373e-10
-1.3703e-09
-2.58901e-09
-4.82211e-09
-8.81457e-09
-1.59245e-08
-2.86381e-08
-5.08669e-08
-8.87425e-08
-1.53696e-07
-2.64549e-07
-4.5203e-07
-7.6786e-07
-1.22446e-06
-6.08477e-07
-1.86671e-07
-3.77899e-07
-9.85426e-07
-1.89351e-06
-3.22527e-06
-5.23344e-06
-8.19372e-06
-1.2107e-05
-1.51292e-05
-2.72052e-06
3.92371e-05
3.72036e-05
8.00266e-06
-1.10593e-05
-1.17664e-05
-1.89891e-06
-2.10742e-07
-2.76926e-08
-3.43833e-09
-3.80119e-10
-3.77572e-11
-3.66332e-12
-3.55874e-13
-3.43338e-14
-3.51934e-15
-4.13086e-16
-6.01055e-17
-1.1475e-17
-2.8478e-18
-8.40765e-19
-2.66851e-19
-8.5534e-20
-2.70534e-20
-8.41974e-21
-2.61019e-21
-8.22151e-22
-2.71479e-22
-9.65379e-23
-3.74629e-23
-1.59759e-23
-7.28817e-24
-3.45659e-24
-1.66938e-24
-7.97409e-25
-3.66187e-25
-1.48517e-25
-3.40684e-26
2.7707e-21
4.04036e-20
1.76726e-19
5.67841e-19
1.58395e-18
4.08767e-18
1.00663e-17
2.40589e-17
5.63614e-17
1.3021e-16
2.98201e-16
6.81939e-16
1.57248e-15
3.68951e-15
8.8543e-15
2.1681e-14
5.41067e-14
1.35875e-13
3.25351e-13
7.65034e-13
1.67591e-12
3.39806e-12
6.26402e-12
1.03952e-11
1.40303e-11
1.1163e-11
-7.86629e-12
-2.66796e-11
-1.82944e-11
-6.99015e-12
1.83498e-12
9.03143e-12
1.00302e-11
-4.95365e-12
-4.11915e-11
-9.67096e-11
-2.00733e-10
-3.85205e-10
-7.38043e-10
-1.40441e-09
-2.65414e-09
-4.94427e-09
-9.03771e-09
-1.63321e-08
-2.93716e-08
-5.21716e-08
-9.09849e-08
-1.57552e-07
-2.70863e-07
-4.62773e-07
-7.85801e-07
-1.23143e-06
-5.84243e-07
-1.87185e-07
-4.03326e-07
-1.02332e-06
-1.95323e-06
-3.31706e-06
-5.37257e-06
-8.38898e-06
-1.23339e-05
-1.51268e-05
-9.50261e-07
4.08605e-05
3.58889e-05
6.7085e-06
-1.17729e-05
-1.10949e-05
-1.7026e-06
-1.90414e-07
-2.51572e-08
-3.10936e-09
-3.42002e-10
-3.39019e-11
-3.29371e-12
-3.19878e-13
-3.09163e-14
-3.18287e-15
-3.7631e-16
-5.53909e-17
-1.07309e-17
-2.70092e-18
-8.05401e-19
-2.57164e-19
-8.27198e-20
-2.62175e-20
-8.17406e-21
-2.53888e-21
-8.0165e-22
-2.65276e-22
-9.43729e-23
-3.68688e-23
-1.57678e-23
-7.16569e-24
-3.42203e-24
-1.6563e-24
-7.87723e-25
-3.61907e-25
-1.46013e-25
-3.37505e-26
2.75291e-21
4.01437e-20
1.75587e-19
5.6417e-19
1.57366e-18
4.06099e-18
1.00001e-17
2.38994e-17
5.59832e-17
1.29319e-16
2.96102e-16
6.76953e-16
1.5605e-15
3.66027e-15
8.7798e-15
2.14987e-14
5.36542e-14
1.34738e-13
3.22707e-13
7.58599e-13
1.66361e-12
3.37926e-12
6.24199e-12
1.03852e-11
1.40761e-11
1.13611e-11
-7.5555e-12
-2.67748e-11
-1.85733e-11
-7.19032e-12
1.68418e-12
8.92615e-12
9.95639e-12
-5.11923e-12
-4.19103e-11
-9.85329e-11
-2.04817e-10
-3.9304e-10
-7.53101e-10
-1.4329e-09
-2.70734e-09
-5.04119e-09
-9.20874e-09
-1.67432e-08
-3.00649e-08
-5.33792e-08
-9.30784e-08
-1.61184e-07
-2.77233e-07
-4.74055e-07
-8.05815e-07
-1.23627e-06
-5.67855e-07
-1.87671e-07
-4.20545e-07
-1.05711e-06
-2.0047e-06
-3.39687e-06
-5.49506e-06
-8.56444e-06
-1.25411e-05
-1.51143e-05
6.69742e-07
4.20444e-05
3.46994e-05
5.6863e-06
-1.23283e-05
-1.05355e-05
-1.55691e-06
-1.75969e-07
-2.33232e-08
-2.87793e-09
-3.151e-10
-3.11687e-11
-3.03043e-12
-2.94143e-13
-2.84634e-14
-2.94028e-15
-3.49707e-16
-5.19455e-17
-1.01773e-17
-2.58852e-18
-7.77496e-19
-2.4927e-19
-8.03648e-20
-2.55153e-20
-7.96279e-21
-2.47651e-21
-7.84342e-22
-2.60149e-22
-9.28128e-23
-3.63511e-23
-1.55088e-23
-7.08394e-24
-3.38218e-24
-1.63623e-24
-7.79851e-25
-3.5726e-25
-1.45607e-25
-3.34182e-26
2.73792e-21
3.99249e-20
1.74629e-19
5.61082e-19
1.56502e-18
4.0386e-18
9.94473e-18
2.37661e-17
5.56678e-17
1.28578e-16
2.94361e-16
6.72839e-16
1.5507e-15
3.6367e-15
8.72114e-15
2.13549e-14
5.32881e-14
1.33848e-13
3.20722e-13
7.53644e-13
1.65451e-12
3.36544e-12
6.22577e-12
1.03797e-11
1.41188e-11
1.15336e-11
-7.29529e-12
-2.68636e-11
-1.88123e-11
-7.35392e-12
1.57178e-12
8.85795e-12
9.68678e-12
-5.28963e-12
-4.25947e-11
-1.00228e-10
-2.08636e-10
-4.00316e-10
-7.67266e-10
-1.46001e-09
-2.75862e-09
-5.13639e-09
-9.3825e-09
-1.70596e-08
-3.06202e-08
-5.43442e-08
-9.47237e-08
-1.63959e-07
-2.81786e-07
-4.81339e-07
-8.17006e-07
-1.23249e-06
-5.48165e-07
-1.89272e-07
-4.37893e-07
-1.09073e-06
-2.05247e-06
-3.46828e-06
-5.60254e-06
-8.71572e-06
-1.27184e-05
-1.50898e-05
2.07702e-06
4.2941e-05
3.36959e-05
4.84758e-06
-1.27868e-05
-1.00612e-05
-1.44219e-06
-1.64604e-07
-2.18387e-08
-2.68467e-09
-2.92966e-10
-2.89339e-11
-2.81568e-12
-2.73203e-13
-2.64675e-14
-2.74241e-15
-3.27962e-16
-4.91244e-17
-9.72382e-18
-2.49621e-18
-7.54402e-19
-2.42671e-19
-7.83704e-20
-2.49049e-20
-7.78446e-21
-2.42324e-21
-7.68686e-22
-2.55041e-22
-9.10837e-23
-3.58687e-23
-1.53025e-23
-7.02574e-24
-3.34964e-24
-1.61405e-24
-7.75733e-25
-3.55252e-25
-1.43689e-25
-3.30109e-26
2.72547e-21
3.97432e-20
1.73833e-19
5.58519e-19
1.55785e-18
4.02002e-18
9.89875e-18
2.36555e-17
5.54056e-17
1.27961e-16
2.92903e-16
6.69371e-16
1.54234e-15
3.61627e-15
8.66887e-15
2.12202e-14
5.29546e-14
1.33054e-13
3.19026e-13
7.49516e-13
1.6473e-12
3.35445e-12
6.2135e-12
1.03767e-11
1.41531e-11
1.16645e-11
-7.10143e-12
-2.69336e-11
-1.89986e-11
-7.48079e-12
1.49168e-12
8.77598e-12
9.95784e-12
-5.43307e-12
-4.32071e-11
-1.01752e-10
-2.12021e-10
-4.06853e-10
-7.80032e-10
-1.48451e-09
-2.80518e-09
-5.22348e-09
-9.54313e-09
-1.73536e-08
-3.11444e-08
-5.52659e-08
-9.63126e-08
-1.66684e-07
-2.86489e-07
-4.89492e-07
-8.31145e-07
-1.23066e-06
-5.33779e-07
-1.90521e-07
-4.53046e-07
-1.1175e-06
-2.09303e-06
-3.52991e-06
-5.69632e-06
-8.84952e-06
-1.2873e-05
-1.50583e-05
3.31364e-06
4.36165e-05
3.2837e-05
4.15928e-06
-1.31457e-05
-9.67489e-06
-1.35576e-06
-1.55932e-07
-2.07173e-08
-2.54032e-09
-2.76413e-10
-2.72594e-11
-2.65441e-12
-2.57462e-13
-2.49661e-14
-2.59346e-15
-3.11532e-16
-4.69715e-17
-9.3715e-18
-2.42275e-18
-7.35509e-19
-2.37176e-19
-7.66994e-20
-2.43918e-20
-7.62851e-21
-2.3758e-21
-7.53994e-22
-2.51143e-22
-9.00418e-23
-3.5436e-23
-1.51433e-23
-6.94223e-24
-3.30068e-24
-1.59939e-24
-7.63907e-25
-3.51705e-25
-1.42374e-25
-3.27641e-26
2.71534e-21
3.95954e-20
1.73185e-19
5.56435e-19
1.55202e-18
4.00493e-18
9.86141e-18
2.35656e-17
5.51927e-17
1.27459e-16
2.91716e-16
6.66539e-16
1.5355e-15
3.59947e-15
8.62553e-15
2.11165e-14
5.27072e-14
1.32472e-13
3.17745e-13
7.46341e-13
1.64138e-12
3.34567e-12
6.20395e-12
1.03755e-11
1.41833e-11
1.17694e-11
-6.95201e-12
-2.69937e-11
-1.91525e-11
-7.58965e-12
1.41412e-12
8.81031e-12
9.6153e-12
-5.61289e-12
-4.37904e-11
-1.03105e-10
-2.14961e-10
-4.12585e-10
-7.91336e-10
-1.50642e-09
-2.84721e-09
-5.30237e-09
-9.68629e-09
-1.7613e-08
-3.16088e-08
-5.60879e-08
-9.77381e-08
-1.6914e-07
-2.90665e-07
-4.96532e-07
-8.42772e-07
-1.22749e-06
-5.23032e-07
-1.91795e-07
-4.64652e-07
-1.13684e-06
-2.12324e-06
-3.57745e-06
-5.76974e-06
-8.95458e-06
-1.29953e-05
-1.50177e-05
4.36464e-06
4.41145e-05
3.21183e-05
3.60795e-06
-1.34211e-05
-9.36028e-06
-1.28894e-06
-1.49172e-07
-1.98474e-08
-2.42837e-09
-2.63583e-10
-2.59616e-11
-2.52923e-12
-2.45227e-13
-2.37958e-14
-2.47684e-15
-2.98617e-16
-4.52732e-17
-9.09172e-18
-2.36366e-18
-7.201e-19
-2.32626e-19
-7.52985e-20
-2.39719e-20
-7.49653e-21
-2.33808e-21
-7.4202e-22
-2.47309e-22
-8.86704e-23
-3.49514e-23
-1.50306e-23
-6.86491e-24
-3.28664e-24
-1.58408e-24
-7.59448e-25
-3.49992e-25
-1.41588e-25
-3.26186e-26
2.70733e-21
3.94785e-20
1.72673e-19
5.54788e-19
1.54742e-18
3.99302e-18
9.83202e-18
2.3495e-17
5.50256e-17
1.27065e-16
2.90788e-16
6.64341e-16
1.53026e-15
3.58688e-15
8.59376e-15
2.10392e-14
5.25143e-14
1.32006e-13
3.16703e-13
7.4378e-13
1.637e-12
3.3393e-12
6.19747e-12
1.03757e-11
1.42075e-11
1.18499e-11
-6.83881e-12
-2.70429e-11
-1.92734e-11
-7.6794e-12
1.34232e-12
8.68531e-12
9.77629e-12
-5.77576e-12
-4.43015e-11
-1.04291e-10
-2.17525e-10
-4.17563e-10
-8.01035e-10
-1.52498e-09
-2.8823e-09
-5.36737e-09
-9.8056e-09
-1.78311e-08
-3.20041e-08
-5.68e-08
-9.90024e-08
-1.71387e-07
-2.94663e-07
-5.03673e-07
-8.55538e-07
-1.22842e-06
-5.183e-07
-1.93214e-07
-4.73675e-07
-1.1529e-06
-2.14855e-06
-3.61703e-06
-5.83061e-06
-9.04018e-06
-1.30914e-05
-1.49722e-05
5.24038e-06
4.44864e-05
3.15318e-05
3.16053e-06
-1.36447e-05
-9.09809e-06
-1.23477e-06
-1.43713e-07
-1.91395e-08
-2.3376e-09
-2.53227e-10
-2.49174e-11
-2.42868e-12
-2.35424e-13
-2.28602e-14
-2.3838e-15
-2.88319e-16
-4.39156e-17
-8.8669e-18
-2.31597e-18
-7.07636e-19
-2.28949e-19
-7.41573e-20
-2.36154e-20
-7.38865e-21
-2.30528e-21
-7.3317e-22
-2.44455e-22
-8.77485e-23
-3.46125e-23
-1.48523e-23
-6.84167e-24
-3.25347e-24
-1.57792e-24
-7.58107e-25
-3.48013e-25
-1.4029e-25
-3.25161e-26
2.70123e-21
3.93895e-20
1.72284e-19
5.53537e-19
1.54393e-18
3.98402e-18
9.80984e-18
2.3442e-17
5.49014e-17
1.26776e-16
2.90115e-16
6.62766e-16
1.52654e-15
3.57782e-15
8.57027e-15
2.098e-14
5.23656e-14
1.31651e-13
3.15931e-13
7.41868e-13
1.63358e-12
3.33436e-12
6.19267e-12
1.03767e-11
1.42276e-11
1.19145e-11
-6.75161e-12
-2.70849e-11
-1.93677e-11
-7.74444e-12
1.29689e-12
8.65491e-12
9.73541e-12
-5.90073e-12
-4.47079e-11
-1.05223e-10
-2.19532e-10
-4.21455e-10
-8.08614e-10
-1.53947e-09
-2.9097e-09
-5.41813e-09
-9.89787e-09
-1.79979e-08
-3.22992e-08
-5.73112e-08
-9.98623e-08
-1.72804e-07
-2.96952e-07
-5.07238e-07
-8.60768e-07
-1.22259e-06
-5.1073e-07
-1.94877e-07
-4.82542e-07
-1.16569e-06
-2.16856e-06
-3.64815e-06
-5.87798e-06
-9.1067e-06
-1.31654e-05
-1.49299e-05
5.9381e-06
4.47619e-05
3.10734e-05
2.81642e-06
-1.38074e-05
-8.89523e-06
-1.1942e-06
-1.39631e-07
-1.86055e-08
-2.26931e-09
-2.45451e-10
-2.41343e-11
-2.35332e-12
-2.28083e-13
-2.21597e-14
-2.31398e-15
-2.80551e-16
-4.28852e-17
-8.69525e-18
-2.27922e-18
-6.98002e-19
-2.26065e-19
-7.32681e-20
-2.33373e-20
-7.30784e-21
-2.27956e-21
-7.25398e-22
-2.42082e-22
-8.73837e-23
-3.43513e-23
-1.48169e-23
-6.78664e-24
-3.23867e-24
-1.5709e-24
-7.524e-25
-3.45024e-25
-1.39711e-25
-3.22217e-26
2.69689e-21
3.93262e-20
1.72008e-19
5.52652e-19
1.54147e-18
3.97771e-18
9.79443e-18
2.34054e-17
5.48154e-17
1.26574e-16
2.89635e-16
6.61608e-16
1.52369e-15
3.57081e-15
8.5523e-15
2.09369e-14
5.22616e-14
1.31406e-13
3.15401e-13
7.40558e-13
1.63129e-12
3.33113e-12
6.18968e-12
1.0378e-11
1.42423e-11
1.19593e-11
-6.69263e-12
-2.71153e-11
-1.94332e-11
-7.78855e-12
1.2695e-12
8.64073e-12
9.48544e-12
-5.98911e-12
-4.5005e-11
-1.0591e-10
-2.21012e-10
-4.24325e-10
-8.1419e-10
-1.55011e-09
-2.92979e-09
-5.45527e-09
-9.96539e-09
-1.81198e-08
-3.25178e-08
-5.77012e-08
-1.00549e-07
-1.74016e-07
-2.99093e-07
-5.11053e-07
-8.6752e-07
-1.22187e-06
-5.08306e-07
-1.96452e-07
-4.88163e-07
-1.17709e-06
-2.18465e-06
-3.67223e-06
-5.914e-06
-9.15645e-06
-1.32192e-05
-1.48929e-05
6.46745e-06
4.49549e-05
3.07327e-05
2.56519e-06
-1.39339e-05
-8.74763e-06
-1.16537e-06
-1.36708e-07
-1.82257e-08
-2.22067e-09
-2.39904e-10
-2.3575e-11
-2.29936e-12
-2.22815e-13
-2.16549e-14
-2.26353e-15
-2.74936e-16
-4.21422e-17
-8.57166e-18
-2.25295e-18
-6.91065e-19
-2.23978e-19
-7.26175e-20
-2.31371e-20
-7.24476e-21
-2.26173e-21
-7.19218e-22
-2.40099e-22
-8.67851e-23
-3.41543e-23
-1.46893e-23
-6.7547e-24
-3.23154e-24
-1.5599e-24
-7.46143e-25
-3.42683e-25
-1.39768e-25
-3.21705e-26
2.6941e-21
3.92856e-20
1.7183e-19
5.52082e-19
1.53988e-18
3.97359e-18
9.78418e-18
2.33806e-17
5.47559e-17
1.26433e-16
2.89299e-16
6.6081e-16
1.5218e-15
3.56626e-15
8.54073e-15
2.09086e-14
5.21932e-14
1.31247e-13
3.15064e-13
7.39739e-13
1.62988e-12
3.32917e-12
6.18796e-12
1.03791e-11
1.42521e-11
1.1988e-11
-6.65569e-12
-2.71345e-11
-1.93546e-11
-7.81513e-12
1.25318e-12
8.63186e-12
9.44559e-12
-6.0489e-12
-4.52028e-11
-1.06368e-10
-2.21994e-10
-4.26233e-10
-8.17885e-10
-1.55714e-09
-2.94296e-09
-5.47945e-09
-1.00087e-08
-1.8197e-08
-3.26529e-08
-5.79346e-08
-1.00945e-07
-1.74685e-07
-3.00227e-07
-5.12992e-07
-8.7087e-07
-1.21952e-06
-5.05271e-07
-1.97698e-07
-4.92993e-07
-1.18478e-06
-2.19675e-06
-3.69036e-06
-5.94044e-06
-9.19204e-06
-1.32565e-05
-1.48657e-05
6.82388e-06
4.50795e-05
3.05067e-05
2.39898e-06
-1.40113e-05
-8.64952e-06
-1.14643e-06
-1.34802e-07
-1.79773e-08
-2.18892e-09
-2.36291e-10
-2.32106e-11
-2.26414e-12
-2.19368e-13
-2.13255e-14
-2.23068e-15
-2.71291e-16
-4.16611e-17
-8.4919e-18
-2.23587e-18
-6.86544e-19
-2.22637e-19
-7.2197e-20
-2.30115e-20
-7.20558e-21
-2.25091e-21
-7.16229e-22
-2.3973e-22
-8.64366e-23
-3.41043e-23
-1.46251e-23
-6.709e-24
-3.20798e-24
-1.55569e-24
-7.46811e-25
-3.4227e-25
-1.39221e-25
-3.18351e-26
2.69271e-21
3.92652e-20
1.71741e-19
5.51794e-19
1.53908e-18
3.97151e-18
9.77905e-18
2.33683e-17
5.4727e-17
1.26365e-16
2.89139e-16
6.60431e-16
1.52089e-15
3.56407e-15
8.53514e-15
2.0895e-14
5.21603e-14
1.31171e-13
3.14902e-13
7.39343e-13
1.6292e-12
3.32825e-12
6.18721e-12
1.03798e-11
1.42572e-11
1.20024e-11
-6.63767e-12
-2.71445e-11
-1.93906e-11
-7.82628e-12
1.25024e-12
8.63734e-12
9.75899e-12
-6.06539e-12
-4.52922e-11
-1.06592e-10
-2.22482e-10
-4.27182e-10
-8.19717e-10
-1.56059e-09
-2.94932e-09
-5.4908e-09
-1.00282e-08
-1.82294e-08
-3.27037e-08
-5.80073e-08
-1.01031e-07
-1.74745e-07
-3.00127e-07
-5.12376e-07
-8.68886e-07
-1.21363e-06
-5.00094e-07
-1.9832e-07
-4.98814e-07
-1.18149e-06
-2.1964e-06
-3.6931e-06
-5.9469e-06
-9.20226e-06
-1.32677e-05
-1.48473e-05
7.00589e-06
4.51349e-05
3.03879e-05
2.31438e-06
-1.40492e-05
-8.60002e-06
-1.13701e-06
-1.33836e-07
-1.78515e-08
-2.17287e-09
-2.34472e-10
-2.30278e-11
-2.24651e-12
-2.17646e-13
-2.11599e-14
-2.21409e-15
-2.69442e-16
-4.14159e-17
-8.45075e-18
-2.22699e-18
-6.84158e-19
-2.21921e-19
-7.19703e-20
-2.29388e-20
-7.18704e-21
-2.24358e-21
-7.14787e-22
-2.38868e-22
-8.6175e-23
-3.41235e-23
-1.46175e-23
-6.70918e-24
-3.21894e-24
-1.55654e-24
-7.46117e-25
-3.42933e-25
-1.39348e-25
-3.18904e-26
2.69269e-21
3.9265e-20
1.7174e-19
5.5179e-19
1.53907e-18
3.97147e-18
9.77896e-18
2.3368e-17
5.47265e-17
1.26364e-16
2.89136e-16
6.60424e-16
1.52088e-15
3.56405e-15
8.53508e-15
2.08949e-14
5.21601e-14
1.3117e-13
3.14903e-13
7.39344e-13
1.62921e-12
3.32828e-12
6.18728e-12
1.03799e-11
1.42574e-11
1.20025e-11
-6.63876e-12
-2.71534e-11
-1.94697e-11
-7.83939e-12
1.24016e-12
8.62288e-12
9.70293e-12
-6.07844e-12
-4.52994e-11
-1.0659e-10
-2.2247e-10
-4.2716e-10
-8.19687e-10
-1.56057e-09
-2.94939e-09
-5.49123e-09
-1.00297e-08
-1.8234e-08
-3.27168e-08
-5.80425e-08
-1.01122e-07
-1.74971e-07
-3.00682e-07
-5.13713e-07
-8.72003e-07
-1.21961e-06
-5.0487e-07
-1.98165e-07
-4.94246e-07
-1.18707e-06
-2.20046e-06
-3.69639e-06
-5.94993e-06
-9.20542e-06
-1.32709e-05
-1.48473e-05
7.01374e-06
4.5132e-05
3.03801e-05
2.31087e-06
-1.40496e-05
-8.59848e-06
-1.13672e-06
-1.33792e-07
-1.78454e-08
-2.1721e-09
-2.34386e-10
-2.30191e-11
-2.24567e-12
-2.17564e-13
-2.11521e-14
-2.21333e-15
-2.69364e-16
-4.14066e-17
-8.44932e-18
-2.22672e-18
-6.84042e-19
-2.21901e-19
-7.19569e-20
-2.29365e-20
-7.18168e-21
-2.2444e-21
-7.14482e-22
-2.39307e-22
-8.61639e-23
-3.40657e-23
-1.46527e-23
-6.73446e-24
-3.21933e-24
-1.56136e-24
-7.47833e-25
-3.4412e-25
-1.38801e-25
-3.2009e-26
2.69405e-21
3.92848e-20
1.71827e-19
5.52069e-19
1.53984e-18
3.97347e-18
9.78385e-18
2.33797e-17
5.4754e-17
1.26428e-16
2.89289e-16
6.60787e-16
1.52175e-15
3.56616e-15
8.54048e-15
2.09081e-14
5.21924e-14
1.31245e-13
3.15063e-13
7.39739e-13
1.62989e-12
3.32924e-12
6.18814e-12
1.03794e-11
1.42527e-11
1.19883e-11
-6.65657e-12
-2.71368e-11
-1.94777e-11
-7.81941e-12
1.2466e-12
8.62194e-12
9.63311e-12
-6.06143e-12
-4.52135e-11
-1.06375e-10
-2.22003e-10
-4.26261e-10
-8.17963e-10
-1.55733e-09
-2.94338e-09
-5.48038e-09
-1.00104e-08
-1.81999e-08
-3.26569e-08
-5.7938e-08
-1.00941e-07
-1.74653e-07
-3.0011e-07
-5.12646e-07
-8.69944e-07
-1.21973e-06
-5.06044e-07
-1.97747e-07
-4.92348e-07
-1.18386e-06
-2.19536e-06
-3.68847e-06
-5.93794e-06
-9.18862e-06
-1.32522e-05
-1.48578e-05
6.84673e-06
4.50734e-05
3.04866e-05
2.38984e-06
-1.40123e-05
-8.64554e-06
-1.14569e-06
-1.34688e-07
-1.79618e-08
-2.18694e-09
-2.3607e-10
-2.31891e-11
-2.26208e-12
-2.19164e-13
-2.13052e-14
-2.22862e-15
-2.71067e-16
-4.16332e-17
-8.4874e-18
-2.23488e-18
-6.86253e-19
-2.22544e-19
-7.21692e-20
-2.29988e-20
-7.20223e-21
-2.24959e-21
-7.15868e-22
-2.39149e-22
-8.64386e-23
-3.40727e-23
-1.46736e-23
-6.73066e-24
-3.21506e-24
-1.56328e-24
-7.47111e-25
-3.42913e-25
-1.39169e-25
-3.20464e-26
2.69688e-21
3.93261e-20
1.72007e-19
5.52649e-19
1.54146e-18
3.97764e-18
9.79412e-18
2.34043e-17
5.4812e-17
1.26565e-16
2.8961e-16
6.61549e-16
1.52357e-15
3.57059e-15
8.5519e-15
2.09362e-14
5.22608e-14
1.31406e-13
3.15405e-13
7.40574e-13
1.63134e-12
3.33126e-12
6.18996e-12
1.03785e-11
1.42429e-11
1.19592e-11
-6.69448e-12
-2.71159e-11
-1.9433e-11
-7.78972e-12
1.26585e-12
8.63422e-12
9.63702e-12
-5.99697e-12
-4.50068e-11
-1.05901e-10
-2.20985e-10
-4.24283e-10
-8.14124e-10
-1.55001e-09
-2.92964e-09
-5.4551e-09
-9.96485e-09
-1.81183e-08
-3.25132e-08
-5.76885e-08
-1.00516e-07
-1.73937e-07
-2.98915e-07
-5.10664e-07
-8.667e-07
-1.22185e-06
-5.08779e-07
-1.96852e-07
-4.88519e-07
-1.17749e-06
-2.18543e-06
-3.67301e-06
-5.91434e-06
-9.15545e-06
-1.32153e-05
-1.48795e-05
6.50655e-06
4.4953e-05
3.07075e-05
2.55343e-06
-1.39359e-05
-8.74198e-06
-1.16418e-06
-1.36551e-07
-1.82035e-08
-2.21793e-09
-2.39623e-10
-2.3547e-11
-2.29652e-12
-2.22534e-13
-2.1628e-14
-2.26089e-15
-2.74662e-16
-4.21107e-17
-8.56738e-18
-2.25218e-18
-6.9086e-19
-2.23938e-19
-7.26041e-20
-2.31322e-20
-7.24329e-21
-2.26137e-21
-7.19142e-22
-2.40494e-22
-8.67223e-23
-3.4275e-23
-1.47062e-23
-6.74959e-24
-3.23544e-24
-1.56127e-24
-7.47563e-25
-3.43716e-25
-1.3961e-25
-3.20996e-26
2.70128e-21
3.93902e-20
1.72288e-19
5.5355e-19
1.54397e-18
3.98412e-18
9.8101e-18
2.34426e-17
5.49023e-17
1.26777e-16
2.9011e-16
6.62734e-16
1.52641e-15
3.57744e-15
8.5694e-15
2.09788e-14
5.23653e-14
1.31653e-13
3.15938e-13
7.41886e-13
1.63364e-12
3.33451e-12
6.19298e-12
1.03773e-11
1.42282e-11
1.19142e-11
-6.75352e-12
-2.70854e-11
-1.93659e-11
-7.74259e-12
1.2984e-12
8.65596e-12
9.74084e-12
-5.89717e-12
-4.46941e-11
-1.05189e-10