/*--------------------------------*- C++ -*----------------------------------*\
  =========                 |
  \\      /  F ield         | OpenFOAM: The Open Source CFD Toolbox
   \\    /   O peration     | Website:  https://openfoam.org
    \\  /    A nd           | Version:  10
     \\/     M anipulation  |
\*---------------------------------------------------------------------------*/
FoamFile
{
    format      ascii;
    class       volScalarField;
    location    "1";
    object      RR.H2NN;
}
// * * * * * * * * * * * * * * * * * * * * * * * * * * * * * * * * * * * * * //

dimensions      [1 -3 -1 0 0 0 0];

internalField   nonuniform List<scalar> 
4000
(
-3.36582e-17
-4.87937e-16
-2.11442e-15
-6.70208e-15
-1.83501e-14
-4.61984e-14
-1.10119e-13
-2.52143e-13
-5.58403e-13
-1.19939e-12
-2.50286e-12
-5.09274e-12
-1.01653e-11
-2.00542e-11
-3.9422e-11
-7.7665e-11
-1.55348e-10
-3.17001e-10
-6.44378e-10
-1.35438e-09
-2.74373e-09
-5.41203e-09
-1.0464e-08
-1.92548e-08
-3.44796e-08
-6.02073e-08
-1.024e-07
-1.6756e-07
-2.52287e-07
-3.32824e-07
-3.59131e-07
-3.11055e-07
-2.37234e-07
-1.94557e-07
-2.19747e-07
-3.1875e-07
-4.68503e-07
-6.71458e-07
-8.43628e-07
-1.00222e-06
-1.14711e-06
-1.24278e-06
-1.20729e-06
-9.20939e-07
-1.99583e-07
1.14739e-06
3.23375e-06
5.99082e-06
8.83833e-06
1.00499e-05
6.06472e-06
-6.08641e-06
-7.56497e-06
-4.24461e-06
-2.37285e-06
-1.31503e-06
-7.1257e-07
-3.81075e-07
-1.99036e-07
-1.01186e-07
-4.97369e-08
-2.26069e-08
-9.23229e-09
-4.12708e-09
-2.06589e-09
-9.17426e-10
-3.47899e-10
-1.17769e-10
-3.45408e-11
-8.55684e-12
-1.98772e-12
-3.66234e-13
-6.17088e-14
-1.08189e-14
-2.07339e-15
-4.43552e-16
-1.06295e-16
-2.81044e-17
-8.02335e-18
-2.41283e-18
-7.49874e-19
-2.37081e-19
-7.56353e-20
-2.41895e-20
-7.74568e-21
-2.47574e-21
-7.89626e-22
-2.51169e-22
-7.96868e-23
-2.5205e-23
-7.96555e-24
-2.51305e-24
-7.91723e-25
-2.49138e-25
-7.83219e-26
-2.45972e-26
-7.70829e-27
-2.39425e-27
-7.08966e-28
-1.35682e-28
-3.33125e-17
-4.8289e-16
-2.09248e-15
-6.63322e-15
-1.81637e-14
-4.57251e-14
-1.08972e-13
-2.49426e-13
-5.52011e-13
-1.18439e-12
-2.46784e-12
-5.01207e-12
-9.97784e-12
-1.96322e-11
-3.85001e-11
-7.5669e-11
-1.50716e-10
-3.06208e-10
-6.2119e-10
-1.30795e-09
-2.65147e-09
-5.22257e-09
-1.01101e-08
-1.86853e-08
-3.35513e-08
-5.87791e-08
-1.00265e-07
-1.65017e-07
-2.49946e-07
-3.32641e-07
-3.62476e-07
-3.16511e-07
-2.41673e-07
-1.98028e-07
-2.2111e-07
-3.19188e-07
-4.69472e-07
-6.68623e-07
-8.4917e-07
-1.00907e-06
-1.15402e-06
-1.24796e-06
-1.20734e-06
-9.108e-07
-1.71175e-07
1.20523e-06
3.33196e-06
6.13251e-06
8.99846e-06
1.01457e-05
5.88822e-06
-6.54614e-06
-7.42467e-06
-4.16483e-06
-2.32693e-06
-1.2881e-06
-6.99889e-07
-3.73755e-07
-1.94822e-07
-9.892e-08
-4.82452e-08
-2.17072e-08
-8.82766e-09
-3.99225e-09
-2.00345e-09
-8.81753e-10
-3.31214e-10
-1.11059e-10
-3.21981e-11
-7.85021e-12
-1.78962e-12
-3.26236e-13
-5.50497e-14
-9.6556e-15
-1.87242e-15
-4.04618e-16
-9.80073e-17
-2.61624e-17
-7.53098e-18
-2.2796e-18
-7.12464e-19
-2.26319e-19
-7.24315e-20
-2.32561e-20
-7.45404e-21
-2.38518e-21
-7.61999e-22
-2.42749e-22
-7.71491e-23
-2.44776e-23
-7.73782e-24
-2.44286e-24
-7.70058e-25
-2.4242e-25
-7.62329e-26
-2.39474e-26
-7.50674e-27
-2.33245e-27
-6.9094e-28
-1.32267e-28
-3.29868e-17
-4.78217e-16
-2.07257e-15
-6.57136e-15
-1.79984e-14
-4.53237e-14
-1.08004e-13
-2.4707e-13
-5.46224e-13
-1.17006e-12
-2.43198e-12
-4.92116e-12
-9.76785e-12
-1.91643e-11
-3.74707e-11
-7.34381e-11
-1.46031e-10
-2.95282e-10
-5.96587e-10
-1.25332e-09
-2.54172e-09
-5.02457e-09
-9.69798e-09
-1.81643e-08
-3.26126e-08
-5.72391e-08
-9.78503e-08
-1.61745e-07
-2.46706e-07
-3.32021e-07
-3.67314e-07
-3.25366e-07
-2.50858e-07
-2.0338e-07
-2.23417e-07
-3.20175e-07
-4.73875e-07
-6.78899e-07
-8.5853e-07
-1.02045e-06
-1.16553e-06
-1.25667e-06
-1.20888e-06
-8.9747e-07
-1.31172e-07
1.28622e-06
3.46565e-06
6.32115e-06
9.20108e-06
1.02276e-05
5.57723e-06
-7.32361e-06
-7.2185e-06
-4.0503e-06
-2.26249e-06
-1.25211e-06
-6.77495e-07
-3.61318e-07
-1.88109e-07
-9.55578e-08
-4.60445e-08
-2.04562e-08
-8.30465e-09
-3.82099e-09
-1.91998e-09
-8.33818e-10
-3.09227e-10
-1.02465e-10
-2.93386e-11
-7.00928e-12
-1.56977e-12
-2.83026e-13
-4.80715e-14
-8.56314e-15
-1.67736e-15
-3.66673e-16
-8.96598e-17
-2.41298e-17
-6.98899e-18
-2.11705e-18
-6.63358e-19
-2.11363e-19
-6.79151e-20
-2.18849e-20
-7.04891e-21
-2.26535e-21
-7.26243e-22
-2.31873e-22
-7.38039e-23
-2.34292e-23
-7.42564e-24
-2.34603e-24
-7.39809e-25
-2.32961e-25
-7.32725e-26
-2.30201e-26
-7.21668e-27
-2.24256e-27
-6.64416e-28
-1.27212e-28
-3.25286e-17
-4.71535e-16
-2.04321e-15
-6.47615e-15
-1.77287e-14
-4.46109e-14
-1.06221e-13
-2.42777e-13
-5.36206e-13
-1.14739e-12
-2.38241e-12
-4.81733e-12
-9.54784e-12
-1.86961e-11
-3.64708e-11
-7.1298e-11
-1.41389e-10
-2.85814e-10
-5.76824e-10
-1.20713e-09
-2.44758e-09
-4.84198e-09
-9.36072e-09
-1.7613e-08
-3.17323e-08
-5.58179e-08
-9.55799e-08
-1.58674e-07
-2.43786e-07
-3.31681e-07
-3.72177e-07
-3.34038e-07
-2.5948e-07
-2.09178e-07
-2.26445e-07
-3.21699e-07
-4.80059e-07
-6.88018e-07
-8.6967e-07
-1.03391e-06
-1.17889e-06
-1.26663e-06
-1.20887e-06
-8.76775e-07
-7.29634e-08
1.40312e-06
3.65995e-06
6.60192e-06
9.49465e-06
1.03336e-05
5.07195e-06
-8.06317e-06
-7.00893e-06
-3.92833e-06
-2.19137e-06
-1.21054e-06
-6.53943e-07
-3.47879e-07
-1.8059e-07
-9.14058e-08
-4.37745e-08
-1.91031e-08
-7.7533e-09
-3.64638e-09
-1.82986e-09
-7.79464e-10
-2.85317e-10
-9.33225e-11
-2.63379e-11
-6.18575e-12
-1.36039e-12
-2.43054e-13
-4.10414e-14
-7.32224e-15
-1.4408e-15
-3.17037e-16
-7.79573e-17
-2.1083e-17
-6.1413e-18
-1.89241e-18
-6.00262e-19
-1.92375e-19
-6.21686e-20
-2.01413e-20
-6.51848e-21
-2.10409e-21
-6.77537e-22
-2.17236e-22
-6.94095e-23
-2.21049e-23
-7.02174e-24
-2.22393e-24
-7.02765e-25
-2.21651e-25
-6.97976e-26
-2.19471e-26
-6.88434e-27
-2.14008e-27
-6.34177e-28
-1.21424e-28
-3.20747e-17
-4.64954e-16
-2.01464e-15
-6.38514e-15
-1.74772e-14
-4.3969e-14
-1.04663e-13
-2.39127e-13
-5.27891e-13
-1.12886e-12
-2.34196e-12
-4.73049e-12
-9.36383e-12
-1.8309e-11
-3.56557e-11
-6.95768e-11
-1.3769e-10
-2.77726e-10
-5.59172e-10
-1.16901e-09
-2.37262e-09
-4.69921e-09
-9.08129e-09
-1.71409e-08
-3.09202e-08
-5.44423e-08
-9.35362e-08
-1.55948e-07
-2.41116e-07
-3.31521e-07
-3.76819e-07
-3.42985e-07
-2.67982e-07
-2.15235e-07
-2.30007e-07
-3.24029e-07
-4.87164e-07
-6.96368e-07
-8.81391e-07
-1.04791e-06
-1.19302e-06
-1.27684e-06
-1.20805e-06
-8.53314e-07
-9.29976e-09
1.52794e-06
3.85546e-06
6.8735e-06
9.77331e-06
1.04066e-05
4.54957e-06
-8.84081e-06
-6.75939e-06
-3.79014e-06
-2.11357e-06
-1.16614e-06
-6.29691e-07
-3.34227e-07
-1.73091e-07
-8.74061e-08
-4.1628e-08
-1.78853e-08
-7.28544e-09
-3.48722e-09
-1.73922e-09
-7.27974e-10
-2.63439e-10
-8.51601e-11
-2.36702e-11
-5.46992e-12
-1.18258e-12
-2.08216e-13
-3.52402e-14
-6.33866e-15
-1.25896e-15
-2.79864e-16
-6.94481e-17
-1.89338e-17
-5.54709e-18
-1.70546e-18
-5.41258e-19
-1.75262e-19
-5.70883e-20
-1.86058e-20
-6.03634e-21
-1.95395e-21
-6.31144e-22
-2.02941e-22
-6.50159e-23
-2.07555e-23
-6.60762e-24
-2.09651e-24
-6.6344e-25
-2.09485e-25
-6.60258e-26
-2.07758e-26
-6.52047e-27
-2.02781e-27
-6.01088e-28
-1.15107e-28
-3.16235e-17
-4.58406e-16
-1.98617e-15
-6.29436e-15
-1.72265e-14
-4.33305e-14
-1.0312e-13
-2.35537e-13
-5.19785e-13
-1.11102e-12
-2.30355e-12
-4.64945e-12
-9.19585e-12
-1.79646e-11
-3.49515e-11
-6.8137e-11
-1.34707e-10
-2.71472e-10
-5.46209e-10
-1.14006e-09
-2.31518e-09
-4.58795e-09
-8.85293e-09
-1.67428e-08
-3.02277e-08
-5.33761e-08
-9.19036e-08
-1.5376e-07
-2.38993e-07
-3.3163e-07
-3.81189e-07
-3.49953e-07
-2.75098e-07
-2.2129e-07
-2.33929e-07
-3.27032e-07
-4.94638e-07
-7.05659e-07
-8.93568e-07
-1.06258e-06
-1.20764e-06
-1.28744e-06
-1.20715e-06
-8.29779e-07
5.38805e-08
1.65161e-06
4.06097e-06
7.15628e-06
1.00526e-05
1.04565e-05
3.93093e-06
-9.39468e-06
-6.55068e-06
-3.67084e-06
-2.04503e-06
-1.12577e-06
-6.07344e-07
-3.21444e-07
-1.65781e-07
-8.33217e-08
-3.95135e-08
-1.67312e-08
-6.87369e-09
-3.3447e-09
-1.65601e-09
-6.83285e-10
-2.45777e-10
-7.69494e-11
-2.11044e-11
-4.83066e-12
-1.02347e-12
-1.78855e-13
-3.03803e-14
-5.51311e-15
-1.10588e-15
-2.48504e-16
-6.22655e-17
-1.71196e-17
-5.05081e-18
-1.5621e-18
-4.97063e-19
-1.60633e-19
-5.22771e-20
-1.70533e-20
-5.57467e-21
-1.81504e-21
-5.89057e-22
-1.90087e-22
-6.10702e-23
-1.95393e-23
-6.23192e-24
-1.97969e-24
-6.26437e-25
-1.97832e-25
-6.23688e-26
-1.96306e-26
-6.16269e-27
-1.91698e-27
-5.68333e-28
-1.08845e-28
-3.1198e-17
-4.52235e-16
-1.95938e-15
-6.20912e-15
-1.69918e-14
-4.27354e-14
-1.0169e-13
-2.32231e-13
-5.12377e-13
-1.09485e-12
-2.26901e-12
-4.57721e-12
-9.04733e-12
-1.76624e-11
-3.43375e-11
-6.68864e-11
-1.32113e-10
-2.65991e-10
-5.34636e-10
-1.11365e-09
-2.26248e-09
-4.49342e-09
-8.6624e-09
-1.64058e-08
-2.96961e-08
-5.25466e-08
-9.06654e-08
-1.52159e-07
-2.37535e-07
-3.31964e-07
-3.84972e-07
-3.56505e-07
-2.81268e-07
-2.265e-07
-2.37606e-07
-3.30184e-07
-5.01887e-07
-7.10501e-07
-9.05407e-07
-1.07644e-06
-1.22147e-06
-1.29703e-06
-1.20573e-06
-8.06854e-07
1.13682e-07
1.76553e-06
4.23972e-06
7.39926e-06
1.02882e-05
1.04366e-05
3.29444e-06
-9.87904e-06
-6.34119e-06
-3.55355e-06
-1.98172e-06
-1.08157e-06
-5.83894e-07
-3.08586e-07
-1.58842e-07
-7.94765e-08
-3.78935e-08
-1.58469e-08
-6.55089e-09
-3.23035e-09
-1.58566e-09
-6.46321e-10
-2.30439e-10
-7.1412e-11
-1.93805e-11
-4.39098e-12
-9.1861e-13
-1.59628e-13
-2.71843e-14
-4.96172e-15
-1.00214e-15
-2.26941e-16
-5.72499e-17
-1.58308e-17
-4.69137e-18
-1.4561e-18
-4.64565e-19
-1.50455e-19
-4.90489e-20
-1.60138e-20
-5.2207e-21
-1.69671e-21
-5.50076e-22
-1.77397e-22
-5.69818e-23
-1.82336e-23
-5.81858e-24
-1.85024e-24
-5.8745e-25
-1.85993e-25
-5.87486e-26
-1.85171e-26
-5.81894e-27
-1.81125e-27
-5.37186e-28
-1.02893e-28
-3.08057e-17
-4.46547e-16
-1.9347e-15
-6.13064e-15
-1.6776e-14
-4.21894e-14
-1.00381e-13
-2.29219e-13
-5.05664e-13
-1.08028e-12
-2.23813e-12
-4.51312e-12
-8.91669e-12
-1.73989e-11
-3.38063e-11
-6.58129e-11
-1.29903e-10
-2.61362e-10
-5.24969e-10
-1.09144e-09
-2.22056e-09
-4.41306e-09
-8.51558e-09
-1.61654e-08
-2.93033e-08
-5.19033e-08
-8.97037e-08
-1.50931e-07
-2.36565e-07
-3.32417e-07
-3.88354e-07
-3.62358e-07
-2.87649e-07
-2.31576e-07
-2.41338e-07
-3.33578e-07
-5.0874e-07
-7.21616e-07
-9.16311e-07
-1.0889e-06
-1.23295e-06
-1.30413e-06
-1.20247e-06
-7.83708e-07
1.70939e-07
1.873e-06
4.40823e-06
7.61749e-06
1.04791e-05
1.03975e-05
2.69779e-06
-1.01643e-05
-6.17638e-06
-3.4602e-06
-1.92568e-06
-1.05401e-06
-5.68178e-07
-2.99497e-07
-1.53741e-07
-7.67006e-08
-3.63264e-08
-1.50093e-08
-6.27328e-09
-3.1282e-09
-1.51971e-09
-6.12571e-10
-2.16579e-10
-6.6256e-11
-1.77578e-11
-4.01064e-12
-8.30279e-13
-1.43926e-13
-2.45602e-14
-4.50417e-15
-9.15001e-16
-2.08571e-16
-5.29126e-17
-1.46994e-17
-4.3717e-18
-1.36081e-18
-4.35129e-19
-1.4119e-19
-4.61075e-20
-1.50772e-20
-4.92239e-21
-1.60222e-21
-5.19432e-22
-1.67697e-22
-5.39162e-23
-1.72659e-23
-5.5137e-24
-1.75376e-24
-5.56263e-25
-1.7601e-25
-5.55772e-26
-1.75157e-26
-5.50464e-27
-1.71375e-27
-5.08402e-28
-9.74024e-29
-3.04544e-17
-4.41456e-16
-1.91262e-15
-6.06055e-15
-1.65836e-14
-4.1704e-14
-9.92218e-14
-2.2656e-13
-4.99766e-13
-1.06755e-12
-2.2113e-12
-4.45778e-12
-8.80461e-12
-1.71746e-11
-3.33584e-11
-6.4919e-11
-1.28095e-10
-2.57661e-10
-5.17544e-10
-1.07428e-09
-2.18674e-09
-4.35146e-09
-8.40148e-09
-1.59653e-08
-2.89758e-08
-5.1412e-08
-8.89986e-08
-1.50063e-07
-2.35683e-07
-3.33e-07
-3.91383e-07
-3.67421e-07
-2.92807e-07
-2.35837e-07
-2.44728e-07
-3.36786e-07
-5.15164e-07
-7.30905e-07
-9.26555e-07
-1.10083e-06
-1.24432e-06
-1.31105e-06
-1.1988e-06
-7.59983e-07
2.27514e-07
1.97505e-06
4.56396e-06
7.81643e-06
1.06462e-05
1.03426e-05
2.06412e-06
-1.03137e-05
-6.05983e-06
-3.39229e-06
-1.88936e-06
-1.02393e-06
-5.514e-07
-2.90226e-07
-1.48706e-07
-7.40405e-08
-3.48622e-08
-1.43022e-08
-6.04062e-09
-3.04247e-09
-1.46072e-09
-5.81273e-10
-2.0351e-10
-6.16222e-11
-1.62767e-11
-3.66725e-12
-7.47875e-13
-1.29077e-13
-2.21157e-14
-4.08502e-15
-8.35847e-16
-1.9193e-16
-4.89898e-17
-1.36791e-17
-4.08481e-18
-1.27574e-18
-4.09026e-19
-1.33027e-19
-4.35293e-20
-1.42597e-20
-4.66294e-21
-1.52026e-21
-4.93497e-22
-1.59508e-22
-5.13362e-23
-1.64543e-23
-5.25928e-24
-1.67392e-24
-5.31192e-25
-1.68134e-25
-5.31019e-26
-1.67374e-26
-5.26018e-27
-1.63757e-27
-4.85761e-28
-9.30561e-29
-3.01461e-17
-4.36989e-16
-1.89326e-15
-5.99916e-15
-1.64154e-14
-4.12801e-14
-9.82119e-14
-2.24252e-13
-4.94664e-13
-1.05659e-12
-2.18832e-12
-4.41059e-12
-8.70934e-12
-1.69839e-11
-3.29763e-11
-6.415e-11
-1.26512e-10
-2.54352e-10
-5.10589e-10
-1.05827e-09
-2.15687e-09
-4.29647e-09
-8.30834e-09
-1.58202e-08
-2.87441e-08
-5.10508e-08
-8.84866e-08
-1.49468e-07
-2.35602e-07
-3.33752e-07
-3.94084e-07
-3.71642e-07
-2.99858e-07
-2.39397e-07
-2.47653e-07
-3.39833e-07
-5.21039e-07
-7.38707e-07
-9.359e-07
-1.11132e-06
-1.25402e-06
-1.31664e-06
-1.19497e-06
-7.38537e-07
2.77198e-07
2.06325e-06
4.69333e-06
7.96313e-06
1.07326e-05
1.0226e-05
1.56913e-06
-1.03428e-05
-5.92681e-06
-3.31962e-06
-1.84898e-06
-1.00192e-06
-5.39155e-07
-2.83494e-07
-1.45081e-07
-7.21295e-08
-3.37494e-08
-1.37375e-08
-5.85925e-09
-2.98321e-09
-1.39874e-09
-5.51634e-10
-1.92565e-10
-5.77893e-11
-1.50909e-11
-3.40309e-12
-6.87309e-13
-1.18188e-13
-2.02988e-14
-3.76815e-15
-7.75273e-16
-1.791e-16
-4.59579e-17
-1.28909e-17
-3.86319e-18
-1.21e-18
-3.88808e-19
-1.26677e-19
-4.1513e-20
-1.36164e-20
-4.4575e-21
-1.45496e-21
-4.72727e-22
-1.52919e-22
-4.92518e-23
-1.57967e-23
-5.05191e-24
-1.60868e-24
-5.10693e-25
-1.61698e-25
-5.10818e-26
-1.61035e-26
-5.06143e-27
-1.57574e-27
-4.67408e-28
-8.95365e-29
-2.98803e-17
-4.33139e-16
-1.87659e-15
-5.94632e-15
-1.62707e-14
-4.09164e-14
-9.73472e-14
-2.22281e-13
-4.90327e-13
-1.04734e-12
-2.16908e-12
-4.37153e-12
-8.63151e-12
-1.68305e-11
-3.26687e-11
-6.35461e-11
-1.25319e-10
-2.51954e-10
-5.05624e-10
-1.04666e-09
-2.13467e-09
-4.25544e-09
-8.23734e-09
-1.57009e-08
-2.8561e-08
-5.07787e-08
-8.81112e-08
-1.49045e-07
-2.354e-07
-3.34371e-07
-3.96348e-07
-3.75102e-07
-3.00467e-07
-2.42228e-07
-2.50117e-07
-3.42537e-07
-5.26257e-07
-7.44974e-07
-9.43929e-07
-1.1201e-06
-1.26181e-06
-1.32041e-06
-1.18991e-06
-7.17152e-07
3.24145e-07
2.14502e-06
4.81014e-06
8.09645e-06
1.08085e-05
1.00989e-05
1.05009e-06
-1.0304e-05
-5.83349e-06
-3.26508e-06
-1.81445e-06
-9.8812e-07
-5.30776e-07
-2.7855e-07
-1.42256e-07
-7.05749e-08
-3.28351e-08
-1.3299e-08
-5.72256e-09
-2.92835e-09
-1.36065e-09
-5.31647e-10
-1.8434e-10
-5.49261e-11
-1.41804e-11
-3.20535e-12
-6.42607e-13
-1.10223e-13
-1.89693e-14
-3.53592e-15
-7.3074e-16
-1.69647e-16
-4.37214e-17
-1.23095e-17
-3.69881e-18
-1.16109e-18
-3.73691e-19
-1.21896e-19
-3.99825e-20
-1.31239e-20
-4.29884e-21
-1.40403e-21
-4.564e-22
-1.47704e-22
-4.75921e-23
-1.5272e-23
-4.88303e-24
-1.55542e-24
-4.93929e-25
-1.56427e-25
-4.9426e-26
-1.55836e-26
-4.89843e-27
-1.52505e-27
-4.52367e-28
-8.66533e-29
-2.96544e-17
-4.29868e-16
-1.86243e-15
-5.90149e-15
-1.61482e-14
-4.06088e-14
-9.66175e-14
-2.20623e-13
-4.86691e-13
-1.03961e-12
-2.15311e-12
-4.33931e-12
-8.56772e-12
-1.67055e-11
-3.24187e-11
-6.30611e-11
-1.24342e-10
-2.49888e-10
-5.01316e-10
-1.037e-09
-2.11598e-09
-4.22282e-09
-8.18253e-09
-1.56123e-08
-2.84219e-08
-5.05747e-08
-8.78374e-08
-1.48763e-07
-2.35326e-07
-3.35017e-07
-3.98261e-07
-3.78002e-07
-3.03687e-07
-2.44887e-07
-2.52379e-07
-3.45013e-07
-5.30862e-07
-7.50476e-07
-9.50595e-07
-1.12725e-06
-1.26789e-06
-1.32301e-06
-1.18537e-06
-6.94226e-07
3.69623e-07
2.22285e-06
4.92391e-06
8.23457e-06
1.09132e-05
1.00077e-05
5.02109e-07
-1.02756e-05
-5.77969e-06
-3.23103e-06
-1.79441e-06
-9.74114e-07
-5.22666e-07
-2.73929e-07
-1.39701e-07
-6.91934e-08
-3.20123e-08
-1.28958e-08
-5.59397e-09
-2.87584e-09
-1.3273e-09
-5.15306e-10
-1.77135e-10
-5.26354e-11
-1.34567e-11
-3.05568e-12
-6.09384e-13
-1.04536e-13
-1.80143e-14
-3.36828e-15
-6.98447e-16
-1.62747e-16
-4.20745e-17
-1.18771e-17
-3.57587e-18
-1.12418e-18
-3.62178e-19
-1.18223e-19
-3.87967e-20
-1.27393e-20
-4.17403e-21
-1.36366e-21
-4.43376e-22
-1.4352e-22
-4.6254e-23
-1.48467e-23
-4.74665e-24
-1.51225e-24
-4.80294e-25
-1.52129e-25
-4.80725e-26
-1.51579e-26
-4.7648e-27
-1.48345e-27
-4.40021e-28
-8.42865e-29
-2.94648e-17
-4.27123e-16
-1.85055e-15
-5.8639e-15
-1.60455e-14
-4.03513e-14
-9.60077e-14
-2.1924e-13
-4.83665e-13
-1.0332e-12
-2.13991e-12
-4.31286e-12
-8.51589e-12
-1.66056e-11
-3.22235e-11
-6.26817e-11
-1.23567e-10
-2.48308e-10
-4.98117e-10
-1.02959e-09
-2.10201e-09
-4.19791e-09
-8.13899e-09
-1.55408e-08
-2.83105e-08
-5.04152e-08
-8.76383e-08
-1.48589e-07
-2.35381e-07
-3.35819e-07
-4.00109e-07
-3.8065e-07
-3.06957e-07
-2.47037e-07
-2.5435e-07
-3.47273e-07
-5.35094e-07
-7.55371e-07
-9.566e-07
-1.13353e-06
-1.27324e-06
-1.32512e-06
-1.18089e-06
-6.78168e-07
4.01951e-07
2.27423e-06
4.99104e-06
8.29654e-06
1.09154e-05
9.85535e-06
1.48223e-07
-1.01381e-05
-5.69074e-06
-3.18433e-06
-1.77049e-06
-9.57633e-07
-5.13753e-07
-2.69129e-07
-1.37165e-07
-6.78906e-08
-3.1283e-08
-1.25696e-08
-5.49088e-09
-2.83092e-09
-1.29967e-09
-5.02156e-10
-1.71964e-10
-5.08583e-11
-1.28901e-11
-2.93877e-12
-5.82688e-13
-9.97421e-14
-1.722e-14
-3.229e-15
-6.71684e-16
-1.57057e-16
-4.07241e-17
-1.15241e-17
-3.47585e-18
-1.09412e-18
-3.52782e-19
-1.15217e-19
-3.78241e-20
-1.24232e-20
-4.07138e-21
-1.33043e-21
-4.32651e-22
-1.40073e-22
-4.515e-23
-1.4495e-23
-4.6348e-24
-1.47679e-24
-4.69076e-25
-1.48587e-25
-4.69564e-26
-1.48066e-26
-4.65446e-27
-1.4491e-27
-4.29822e-28
-8.23309e-29
-2.93076e-17
-4.24846e-16
-1.8407e-15
-5.83273e-15
-1.59604e-14
-4.01378e-14
-9.55016e-14
-2.18091e-13
-4.81146e-13
-1.02784e-12
-2.12883e-12
-4.29048e-12
-8.47157e-12
-1.65188e-11
-3.205e-11
-6.23332e-11
-1.22883e-10
-2.46953e-10
-4.95481e-10
-1.02361e-09
-2.09118e-09
-4.17843e-09
-8.10623e-09
-1.54887e-08
-2.82337e-08
-5.03076e-08
-8.75086e-08
-1.48491e-07
-2.35474e-07
-3.3644e-07
-4.01542e-07
-3.83056e-07
-3.08067e-07
-2.48404e-07
-2.55852e-07
-3.49181e-07
-5.3872e-07
-7.59585e-07
-9.61662e-07
-1.13863e-06
-1.27718e-06
-1.32559e-06
-1.17437e-06
-6.59498e-07
4.3862e-07
2.33283e-06
5.07138e-06
8.38396e-06
1.09619e-05
9.7534e-06
-2.15668e-07
-1.00546e-05
-5.63542e-06
-3.15224e-06
-1.75186e-06
-9.46743e-07
-5.0759e-07
-2.6573e-07
-1.35334e-07
-6.6916e-08
-3.07278e-08
-1.23278e-08
-5.41644e-09
-2.79623e-09
-1.2775e-09
-4.9144e-10
-1.67829e-10
-4.94472e-11
-1.24472e-11
-2.84651e-12
-5.62163e-13
-9.61203e-14
-1.6617e-14
-3.12265e-15
-6.51068e-16
-1.52625e-16
-3.96592e-17
-1.12419e-17
-3.39475e-18
-1.06944e-18
-3.44988e-19
-1.12707e-19
-3.70089e-20
-1.2158e-20
-3.98522e-21
-1.30256e-21
-4.23669e-22
-1.3719e-22
-4.42282e-23
-1.42015e-23
-4.54162e-24
-1.44727e-24
-4.59747e-25
-1.45644e-25
-4.60292e-26
-1.45149e-26
-4.56289e-27
-1.4206e-27
-4.21365e-28
-8.07101e-29
-2.91797e-17
-4.22994e-16
-1.83269e-15
-5.80737e-15
-1.58912e-14
-3.99641e-14
-9.50903e-14
-2.17157e-13
-4.79099e-13
-1.02349e-12
-2.11982e-12
-4.27225e-12
-8.43544e-12
-1.64481e-11
-3.19086e-11
-6.20687e-11
-1.22376e-10
-2.45943e-10
-4.93445e-10
-1.01891e-09
-2.08221e-09
-4.16284e-09
-8.08026e-09
-1.54491e-08
-2.81758e-08
-5.02314e-08
-8.74203e-08
-1.48432e-07
-2.35557e-07
-3.36885e-07
-4.02552e-07
-3.8379e-07
-3.10417e-07
-2.50022e-07
-2.57273e-07
-3.50824e-07
-5.41744e-07
-7.63077e-07
-9.65859e-07
-1.14286e-06
-1.28044e-06
-1.32594e-06
-1.16895e-06
-6.44187e-07
4.68506e-07
2.38048e-06
5.13615e-06
8.45394e-06
1.09963e-05
9.66247e-06
-5.25713e-07
-9.98396e-06
-5.59466e-06
-3.12914e-06
-1.73857e-06
-9.39525e-07
-5.03378e-07
-2.63326e-07
-1.34008e-07
-6.61996e-08
-3.02959e-08
-1.21309e-08
-5.35681e-09
-2.76772e-09
-1.25934e-09
-4.82756e-10
-1.64421e-10
-4.83114e-11
-1.20942e-11
-2.77239e-12
-5.45842e-13
-9.32261e-14
-1.61291e-14
-3.03606e-15
-6.34344e-16
-1.49046e-16
-3.88004e-17
-1.10135e-17
-3.32871e-18
-1.04923e-18
-3.38576e-19
-1.10636e-19
-3.63344e-20
-1.19381e-20
-3.91372e-21
-1.27941e-21
-4.16203e-22
-1.34793e-22
-4.34618e-23
-1.39576e-23
-4.46419e-24
-1.42276e-24
-4.52007e-25
-1.43205e-25
-4.52614e-26
-1.42735e-26
-4.48718e-27
-1.39706e-27
-4.14385e-28
-7.93728e-29
-2.90783e-17
-4.21526e-16
-1.82634e-15
-5.78731e-15
-1.58364e-14
-3.9827e-14
-9.47658e-14
-2.16421e-13
-4.77488e-13
-1.02007e-12
-2.11276e-12
-4.25807e-12
-8.40766e-12
-1.63947e-11
-3.18034e-11
-6.18672e-11
-1.21974e-10
-2.45131e-10
-4.91811e-10
-1.01522e-09
-2.07573e-09
-4.1516e-09
-8.06194e-09
-1.54207e-08
-2.81352e-08
-5.01787e-08
-8.73635e-08
-1.48413e-07
-2.35692e-07
-3.37422e-07
-4.0374e-07
-3.85781e-07
-3.11153e-07
-2.5129e-07
-2.58495e-07
-3.52304e-07
-5.44412e-07
-7.66151e-07
-9.6949e-07
-1.14654e-06
-1.28321e-06
-1.32621e-06
-1.16427e-06
-6.30804e-07
4.95195e-07
2.42494e-06
5.20108e-06
8.53409e-06
1.10588e-05
9.60927e-06
-8.51554e-07
-9.9686e-06
-5.57956e-06
-3.1179e-06
-1.73091e-06
-9.34957e-07
-5.00585e-07
-2.61668e-07
-1.33055e-07
-6.56661e-08
-2.9958e-08
-1.19723e-08
-5.3088e-09
-2.74528e-09
-1.24506e-09
-4.75896e-10
-1.61682e-10
-4.73937e-11
-1.18033e-11
-2.71152e-12
-5.32457e-13
-9.08699e-14
-1.57345e-14
-2.96625e-15
-6.20818e-16
-1.46135e-16
-3.80993e-17
-1.0827e-17
-3.275e-18
-1.03286e-18
-3.33406e-19
-1.0897e-19
-3.57924e-20
-1.17613e-20
-3.85614e-21
-1.26073e-21
-4.10166e-22
-1.32851e-22
-4.28398e-23
-1.37594e-23
-4.4012e-24
-1.40281e-24
-4.45707e-25
-1.41219e-25
-4.46367e-26
-1.40772e-26
-4.42566e-27
-1.37794e-27
-4.0872e-28
-7.82879e-29
-2.9001e-17
-4.20408e-16
-1.8215e-15
-5.77203e-15
-1.57948e-14
-3.97229e-14
-9.45202e-14
-2.15867e-13
-4.76286e-13
-1.01755e-12
-2.10761e-12
-4.24782e-12
-8.38768e-12
-1.63557e-11
-3.17243e-11
-6.17107e-11
-1.21662e-10
-2.44508e-10
-4.90583e-10
-1.01241e-09
-2.07055e-09
-4.14273e-09
-8.04776e-09
-1.53997e-08
-2.81061e-08
-5.01426e-08
-8.73307e-08
-1.48421e-07
-2.35827e-07
-3.37846e-07
-4.04591e-07
-3.8689e-07
-3.12168e-07
-2.52193e-07
-2.59425e-07
-3.53463e-07
-5.4653e-07
-7.6859e-07
-9.724e-07
-1.14955e-06
-1.28569e-06
-1.32708e-06
-1.16191e-06
-6.22834e-07
5.1129e-07
2.4507e-06
5.23499e-06
8.56635e-06
1.10623e-05
9.53861e-06
-1.00143e-06
-9.88909e-06
-5.53957e-06
-3.0971e-06
-1.71923e-06
-9.30148e-07
-4.97879e-07
-2.6016e-07
-1.32236e-07
-6.52261e-08
-2.96876e-08
-1.18462e-08
-5.27027e-09
-2.72788e-09
-1.23422e-09
-4.70657e-10
-1.59472e-10
-4.66647e-11
-1.15748e-11
-2.66443e-12
-5.22122e-13
-8.90749e-14
-1.5436e-14
-2.91309e-15
-6.10443e-16
-1.43895e-16
-3.75591e-17
-1.0683e-17
-3.23337e-18
-1.02015e-18
-3.29391e-19
-1.07677e-19
-3.53721e-20
-1.16243e-20
-3.81148e-21
-1.24622e-21
-4.0547e-22
-1.31337e-22
-4.23541e-23
-1.36044e-23
-4.35189e-24
-1.38718e-24
-4.40767e-25
-1.39662e-25
-4.41467e-26
-1.39234e-26
-4.37744e-27
-1.36296e-27
-4.04284e-28
-7.74386e-29
-2.89458e-17
-4.1961e-16
-1.81806e-15
-5.76119e-15
-1.57654e-14
-3.96498e-14
-9.4349e-14
-2.15483e-13
-4.75451e-13
-1.01577e-12
-2.1039e-12
-4.24025e-12
-8.3724e-12
-1.63257e-11
-3.16648e-11
-6.15992e-11
-1.21446e-10
-2.44083e-10
-4.89741e-10
-1.01048e-09
-2.06706e-09
-4.1368e-09
-8.03833e-09
-1.53859e-08
-2.80877e-08
-5.01218e-08
-8.73165e-08
-1.48443e-07
-2.35952e-07
-3.38201e-07
-4.05268e-07
-3.87759e-07
-3.13852e-07
-2.52781e-07
-2.60062e-07
-3.54298e-07
-5.48066e-07
-7.70381e-07
-9.74547e-07
-1.15176e-06
-1.28759e-06
-1.32788e-06
-1.16036e-06
-6.16801e-07
5.24804e-07
2.47506e-06
5.2726e-06
8.61359e-06
1.10964e-05
9.49821e-06
-1.19344e-06
-9.86689e-06
-5.52391e-06
-3.0871e-06
-1.71354e-06
-9.25505e-07
-4.95345e-07
-2.58803e-07
-1.31525e-07
-6.48587e-08
-2.94733e-08
-1.17478e-08
-5.24028e-09
-2.71508e-09
-1.2265e-09
-4.6701e-10
-1.5849e-10
-4.62167e-11
-1.14281e-11
-2.63326e-12
-5.15192e-13
-8.78422e-14
-1.52243e-14
-2.87463e-15
-6.02884e-16
-1.4226e-16
-3.71647e-17
-1.05784e-17
-3.20337e-18
-1.01106e-18
-3.26537e-19
-1.06762e-19
-3.50758e-20
-1.15278e-20
-3.78003e-21
-1.23599e-21
-4.02148e-22
-1.30262e-22
-4.20076e-23
-1.34932e-23
-4.31634e-24
-1.37586e-24
-4.37178e-25
-1.38527e-25
-4.37891e-26
-1.38109e-26
-4.34215e-27
-1.352e-27
-4.01033e-28
-7.68161e-29
-2.89104e-17
-4.19097e-16
-1.81585e-15
-5.75419e-15
-1.57462e-14
-3.96018e-14
-9.42348e-14
-2.15221e-13
-4.7487e-13
-1.01452e-12
-2.10132e-12
-4.23505e-12
-8.36229e-12
-1.63064e-11
-3.16266e-11
-6.15264e-11
-1.21307e-10
-2.43809e-10
-4.89213e-10
-1.00929e-09
-2.06491e-09
-4.13314e-09
-8.03251e-09
-1.53774e-08
-2.80766e-08
-5.01094e-08
-8.73083e-08
-1.48457e-07
-2.3571e-07
-3.38404e-07
-4.05639e-07
-3.88201e-07
-3.14418e-07
-2.53103e-07
-2.60439e-07
-3.54817e-07
-5.49038e-07
-7.71514e-07
-9.75906e-07
-1.15309e-06
-1.28886e-06
-1.32852e-06
-1.15958e-06
-6.13291e-07
5.32858e-07
2.48973e-06
5.29479e-06
8.64038e-06
1.11132e-05
9.47305e-06
-1.28537e-06
-9.83416e-06
-5.50478e-06
-3.07598e-06
-1.70709e-06
-9.22163e-07
-4.93702e-07
-2.57972e-07
-1.311e-07
-6.46407e-08
-2.93526e-08
-1.17e-08
-5.22726e-09
-2.70832e-09
-1.22188e-09
-4.64718e-10
-1.57552e-10
-4.59082e-11
-1.13277e-11
-2.61234e-12
-5.1056e-13
-8.70197e-14
-1.50839e-14
-2.8492e-15
-5.97897e-16
-1.41191e-16
-3.69119e-17
-1.0512e-17
-3.18439e-18
-1.00531e-18
-3.24727e-19
-1.06181e-19
-3.48875e-20
-1.14665e-20
-3.76008e-21
-1.22951e-21
-4.00047e-22
-1.29583e-22
-4.17892e-23
-1.34233e-23
-4.294e-24
-1.36874e-24
-4.34911e-25
-1.37808e-25
-4.3561e-26
-1.37387e-26
-4.31942e-27
-1.3449e-27
-3.98924e-28
-7.64114e-29
-2.88926e-17
-4.18839e-16
-1.81473e-15
-5.75066e-15
-1.57366e-14
-3.95776e-14
-9.41774e-14
-2.15092e-13
-4.74588e-13
-1.01393e-12
-2.10009e-12
-4.23257e-12
-8.35745e-12
-1.62971e-11
-3.16082e-11
-6.14915e-11
-1.21239e-10
-2.43678e-10
-4.88957e-10
-1.0087e-09
-2.06385e-09
-4.13136e-09
-8.0297e-09
-1.53733e-08
-2.80711e-08
-5.0103e-08
-8.73032e-08
-1.4846e-07
-2.35766e-07
-3.38473e-07
-4.05749e-07
-3.88256e-07
-3.13207e-07
-2.53078e-07
-2.60544e-07
-3.55033e-07
-5.49485e-07
-7.72043e-07
-9.76545e-07
-1.15377e-06
-1.2895e-06
-1.32897e-06
-1.15965e-06
-6.12801e-07
5.33915e-07
2.49063e-06
5.29341e-06
8.63187e-06
1.10919e-05
9.45112e-06
-1.23377e-06
-9.77106e-06
-5.47534e-06
-3.06075e-06
-1.69592e-06
-9.24881e-07
-4.94646e-07
-2.58243e-07
-1.31146e-07
-6.46226e-08
-2.93058e-08
-1.16668e-08
-5.21708e-09
-2.70396e-09
-1.21908e-09
-4.6338e-10
-1.57012e-10
-4.57361e-11
-1.12743e-11
-2.601e-12
-5.08078e-13
-8.65798e-14
-1.50094e-14
-2.83598e-15
-5.95353e-16
-1.40649e-16
-3.67819e-17
-1.04777e-17
-3.17458e-18
-1.00235e-18
-3.238e-19
-1.05884e-19
-3.47914e-20
-1.14353e-20
-3.74987e-21
-1.22618e-21
-3.98965e-22
-1.29232e-22
-4.16759e-23
-1.33868e-23
-4.28234e-24
-1.36502e-24
-4.33733e-25
-1.37435e-25
-4.34436e-26
-1.37018e-26
-4.30782e-27
-1.3413e-27
-3.97855e-28
-7.62065e-29
-2.88923e-17
-4.18835e-16
-1.81471e-15
-5.7506e-15
-1.57364e-14
-3.95771e-14
-9.41763e-14
-2.15089e-13
-4.74582e-13
-1.01392e-12
-2.10006e-12
-4.23253e-12
-8.35738e-12
-1.6297e-11
-3.1608e-11
-6.14912e-11
-1.21239e-10
-2.43678e-10
-4.88957e-10
-1.0087e-09
-2.06386e-09
-4.13138e-09
-8.02973e-09
-1.53733e-08
-2.8071e-08
-5.01028e-08
-8.7303e-08
-1.48462e-07
-2.3587e-07
-3.38432e-07
-4.05645e-07
-3.88159e-07
-3.13299e-07
-2.53241e-07
-2.60606e-07
-3.55047e-07
-5.49474e-07
-7.72008e-07
-9.76477e-07
-1.15372e-06
-1.28922e-06
-1.32843e-06
-1.1586e-06
-6.10829e-07
5.37502e-07
2.49701e-06
5.30457e-06
8.65011e-06
1.11159e-05
9.45723e-06
-1.31923e-06
-9.82077e-06
-5.4972e-06
-3.07176e-06
-1.70475e-06
-9.21159e-07
-4.93056e-07
-2.57576e-07
-1.3087e-07
-6.45101e-08
-2.92667e-08
-1.16594e-08
-5.21431e-09
-2.70174e-09
-1.21802e-09
-4.62995e-10
-1.56885e-10
-4.57024e-11
-1.12664e-11
-2.59931e-12
-5.07741e-13
-8.65221e-14
-1.50002e-14
-2.83458e-15
-5.95126e-16
-1.40609e-16
-3.67744e-17
-1.04765e-17
-3.17447e-18
-1.00238e-18
-3.23827e-19
-1.05897e-19
-3.47961e-20
-1.14368e-20
-3.75037e-21
-1.22633e-21
-3.99007e-22
-1.29244e-22
-4.16786e-23
-1.33874e-23
-4.28242e-24
-1.36502e-24
-4.33723e-25
-1.3743e-25
-4.34412e-26
-1.37009e-26
-4.30751e-27
-1.34119e-27
-3.97822e-28
-7.62001e-29
-2.89097e-17
-4.19086e-16
-1.81579e-15
-5.75401e-15
-1.57457e-14
-3.96002e-14
-9.42307e-14
-2.15212e-13
-4.7485e-13
-1.01448e-12
-2.10124e-12
-4.23489e-12
-8.36202e-12
-1.63059e-11
-3.16259e-11
-6.15253e-11
-1.21305e-10
-2.43807e-10
-4.89211e-10
-1.00928e-09
-2.06491e-09
-4.13317e-09
-8.03258e-09
-1.53775e-08
-2.80765e-08
-5.01086e-08
-8.73058e-08
-1.4845e-07
-2.36012e-07
-3.38367e-07
-4.05576e-07
-3.88157e-07
-3.1338e-07
-2.53215e-07
-2.60477e-07
-3.54804e-07
-5.48972e-07
-7.714e-07
-9.75718e-07
-1.15278e-06
-1.28834e-06
-1.3277e-06
-1.1582e-06
-6.113e-07
5.35348e-07
2.49213e-06
5.29624e-06
8.63951e-06
1.11091e-05
9.46896e-06
-1.27281e-06
-9.83403e-06
-5.50684e-06
-3.07804e-06
-1.70863e-06
-9.22844e-07
-4.93831e-07
-2.57946e-07
-1.31052e-07
-6.46021e-08
-2.9322e-08
-1.16842e-08
-5.2212e-09
-2.70508e-09
-1.22022e-09
-4.64074e-10
-1.57328e-10
-4.58482e-11
-1.13139e-11
-2.60911e-12
-5.09897e-13
-8.68995e-14
-1.50638e-14
-2.84612e-15
-5.97407e-16
-1.41103e-16
-3.68939e-17
-1.05085e-17
-3.1838e-18
-1.00526e-18
-3.24747e-19
-1.06196e-19
-3.48942e-20
-1.14691e-20
-3.76091e-21
-1.22977e-21
-4.00119e-22
-1.29601e-22
-4.1793e-23
-1.34238e-23
-4.29393e-24
-1.36865e-24
-4.34865e-25
-1.37788e-25
-4.35535e-26
-1.37361e-26
-4.3185e-27
-1.3446e-27
-3.98833e-28
-7.63938e-29
-2.89457e-17
-4.19607e-16
-1.81805e-15
-5.76112e-15
-1.57651e-14
-3.96487e-14
-9.43449e-14
-2.1547e-13
-4.75414e-13
-1.01568e-12
-2.1037e-12
-4.23986e-12
-8.37179e-12
-1.63249e-11
-3.16638e-11
-6.15981e-11
-1.21446e-10
-2.44085e-10
-4.8975e-10
-1.01051e-09
-2.06713e-09
-4.13695e-09
-8.03861e-09
-1.53863e-08
-2.80882e-08
-5.01219e-08
-8.73154e-08
-1.48439e-07
-2.35942e-07
-3.38177e-07
-4.05227e-07
-3.87728e-07
-3.13008e-07
-2.52842e-07
-2.60063e-07
-3.54247e-07
-5.47943e-07
-7.70201e-07
-9.74279e-07
-1.15136e-06
-1.28696e-06
-1.32687e-06
-1.15876e-06
-6.14381e-07
5.28142e-07
2.47912e-06
5.27675e-06
8.6167e-06
1.10969e-05
9.49723e-06
-1.18167e-06
-9.86467e-06
-5.52404e-06
-3.08772e-06
-1.71409e-06
-9.25768e-07
-4.95418e-07
-2.58794e-07
-1.31495e-07
-6.48316e-08
-2.94568e-08
-1.1745e-08
-5.23956e-09
-2.71324e-09
-1.22518e-09
-4.66448e-10
-1.58284e-10
-4.61585e-11
-1.14127e-11
-2.62961e-12
-5.14424e-13
-8.77025e-14
-1.5201e-14
-2.87067e-15
-6.02205e-16
-1.42145e-16
-3.71449e-17
-1.05749e-17
-3.20287e-18
-1.01107e-18
-3.26591e-19
-1.06794e-19
-3.50904e-20
-1.15335e-20
-3.78208e-21
-1.23668e-21