/*--------------------------------*- C++ -*----------------------------------*\
  =========                 |
  \\      /  F ield         | OpenFOAM: The Open Source CFD Toolbox
   \\    /   O peration     | Website:  https://openfoam.org
    \\  /    A nd           | Version:  10
     \\/     M anipulation  |
\*---------------------------------------------------------------------------*/
FoamFile
{
    format      ascii;
    class       volScalarField;
    location    "1";
    object      RR.HONO;
}
// * * * * * * * * * * * * * * * * * * * * * * * * * * * * * * * * * * * * * //

dimensions      [1 -3 -1 0 0 0 0];

internalField   nonuniform List<scalar> 
4000
(
2.49537e-16
3.62867e-15
1.58038e-14
5.04406e-14
1.39286e-13
3.54105e-13
8.5299e-13
1.97419e-12
4.41618e-12
9.56114e-12
2.00247e-11
4.05796e-11
7.96524e-11
1.51453e-10
2.78342e-10
4.90964e-10
8.29465e-10
1.33139e-09
1.98415e-09
2.80495e-09
3.65613e-09
4.42567e-09
4.97388e-09
5.16194e-09
4.97144e-09
4.46371e-09
3.77181e-09
3.02237e-09
2.53195e-09
2.63644e-09
3.15015e-09
3.11126e-09
4.73355e-10
-4.578e-09
-9.99339e-09
-1.36468e-08
-1.80691e-08
-3.25485e-08
-5.74507e-08
-1.05314e-07
-1.96091e-07
-3.62847e-07
-6.62185e-07
-1.19352e-06
-2.1454e-06
-3.81278e-06
-6.68396e-06
-1.15958e-05
-1.99959e-05
-3.42948e-05
-5.85634e-05
-9.9302e-05
-0.000117158
-9.78503e-05
-0.000134289
-0.000239735
-0.000432931
-0.00076395
-0.00135108
-0.00241046
-0.00431001
-0.00752504
-0.0118055
-0.00938351
0.00906515
0.0161729
0.0111091
0.00557312
0.00216132
0.000656877
0.000165879
3.44544e-05
5.90001e-06
8.4818e-07
1.17526e-07
1.99564e-08
4.53972e-09
1.32013e-09
4.21455e-10
1.36091e-10
4.33594e-11
1.35229e-11
4.12811e-12
1.23602e-12
3.62602e-13
1.04686e-13
2.97926e-14
8.36459e-15
2.32195e-15
6.38771e-16
1.73395e-16
4.66174e-17
1.24114e-17
3.2661e-18
8.4539e-19
2.12948e-19
5.09804e-20
1.09717e-20
1.82157e-21
9.73134e-23
2.47924e-16
3.60514e-15
1.57022e-14
5.01293e-14
1.38477e-13
3.52181e-13
8.48603e-13
1.96439e-12
4.39423e-12
9.51119e-12
1.99088e-11
4.03091e-11
7.903e-11
1.50112e-10
2.75698e-10
4.8622e-10
8.21137e-10
1.31791e-09
1.96626e-09
2.7877e-09
3.64405e-09
4.42582e-09
4.99385e-09
5.20597e-09
5.03619e-09
4.53831e-09
3.84621e-09
3.08469e-09
2.56389e-09
2.64602e-09
3.16699e-09
3.29934e-09
8.62774e-10
-4.39432e-09
-9.98683e-09
-1.38104e-08
-1.83482e-08
-3.32481e-08
-5.86158e-08
-1.07608e-07
-2.00519e-07
-3.71274e-07
-6.77637e-07
-1.22217e-06
-2.19802e-06
-3.90833e-06
-6.85253e-06
-1.18898e-05
-2.05037e-05
-3.51708e-05
-6.01039e-05
-0.000101966
-0.000117334
-9.96829e-05
-0.00013987
-0.000250455
-0.000450927
-0.000797604
-0.00141464
-0.00252785
-0.00453515
-0.00788071
-0.0121438
-0.00837657
0.0104497
0.0160774
0.0107002
0.00526791
0.00200055
0.000595716
0.000147682
3.0332e-05
5.13664e-06
7.32207e-07
1.03417e-07
1.82598e-08
4.35259e-09
1.30367e-09
4.22779e-10
1.37885e-10
4.42931e-11
1.39168e-11
4.28151e-12
1.28975e-12
3.82005e-13
1.11082e-13
3.17766e-14
8.94261e-15
2.4804e-15
6.78373e-16
1.8427e-16
4.94461e-17
1.31237e-17
3.44065e-18
8.86978e-19
2.22511e-19
5.30615e-20
1.13849e-20
1.88618e-21
1.00811e-22
2.47095e-16
3.59373e-15
1.56573e-14
5.00031e-14
1.38176e-13
3.51513e-13
8.47154e-13
1.96092e-12
4.38507e-12
9.48553e-12
1.98358e-11
4.01038e-11
7.85187e-11
1.48958e-10
2.73301e-10
4.81752e-10
8.14039e-10
1.30699e-09
1.95181e-09
2.77285e-09
3.63504e-09
4.43058e-09
5.01869e-09
5.2609e-09
5.11096e-09
4.62509e-09
3.93362e-09
3.16603e-09
2.61141e-09
2.6655e-09
3.19446e-09
3.41468e-09
1.02486e-09
-4.11677e-09
-9.96005e-09
-1.40192e-08
-1.93481e-08
-3.41175e-08
-6.04927e-08
-1.11355e-07
-2.07725e-07
-3.84634e-07
-7.0222e-07
-1.26763e-06
-2.28011e-06
-4.05352e-06
-7.10369e-06
-1.23235e-05
-2.12531e-05
-3.64578e-05
-6.22535e-05
-0.000106217
-0.000117322
-0.000102339
-0.000147812
-0.000265322
-0.000478204
-0.000845091
-0.00149869
-0.00267762
-0.00483111
-0.0083307
-0.0124885
-0.00684697
0.0119979
0.015835
0.0101342
0.00486913
0.00180101
0.000524295
0.000127716
2.59058e-05
4.34689e-06
6.22421e-07
9.00908e-08
1.66274e-08
4.14845e-09
1.27592e-09
4.19408e-10
1.37871e-10
4.46294e-11
1.41189e-11
4.36866e-12
1.32325e-12
3.92911e-13
1.14535e-13
3.28599e-14
9.27643e-15
2.5815e-15
7.0888e-16
1.92284e-16
5.16238e-17
1.37029e-17
3.5901e-18
9.24404e-19
2.3156e-19
5.51302e-20
1.18093e-20
1.9542e-21
1.04833e-22
2.45419e-16
3.5693e-15
1.55502e-14
4.96575e-14
1.37205e-13
3.48979e-13
8.40799e-13
1.94548e-12
4.34847e-12
9.40079e-12
1.96455e-11
3.96962e-11
7.76759e-11
1.47286e-10
2.70161e-10
4.7628e-10
8.05248e-10
1.29538e-09
1.93874e-09
2.76027e-09
3.62973e-09
4.44131e-09
5.05019e-09
5.31845e-09
5.1868e-09
4.71175e-09
4.02563e-09
3.25243e-09
2.66359e-09
2.69032e-09
3.2281e-09
3.4939e-09
1.26145e-09
-3.83287e-09
-9.92556e-09
-1.42505e-08
-2.06837e-08
-3.52932e-08
-6.2948e-08
-1.16102e-07
-2.16758e-07
-4.01951e-07
-7.34578e-07
-1.32655e-06
-2.38721e-06
-4.24583e-06
-7.43762e-06
-1.29189e-05
-2.22783e-05
-3.81986e-05
-6.52566e-05
-0.000110769
-0.00011754
-0.000105924
-0.000157826
-0.000284141
-0.000511346
-0.000904043
-0.00160616
-0.00287436
-0.00517508
-0.00885443
-0.0127491
-0.00490396
0.0134271
0.0154279
0.00946906
0.00442028
0.00159574
0.000453499
0.000108727
2.18387e-05
3.59632e-06
5.10983e-07
7.54364e-08
1.45445e-08
3.8063e-09
1.20477e-09
4.02835e-10
1.34423e-10
4.39506e-11
1.39981e-11
4.35785e-12
1.32706e-12
3.95794e-13
1.15807e-13
3.33287e-14
9.42831e-15
2.62811e-15
7.22775e-16
1.96416e-16
5.27367e-17
1.39957e-17
3.66585e-18
9.43636e-19
2.36305e-19
5.62455e-20
1.20475e-20
1.9924e-21
1.06481e-22
2.43531e-16
3.54184e-15
1.54305e-14
4.92744e-14
1.3614e-13
3.4624e-13
8.34091e-13
1.92962e-12
4.31203e-12
9.31915e-12
1.94672e-11
3.9319e-11
7.69096e-11
1.45803e-10
2.67452e-10
4.71709e-10
7.98171e-10
1.28566e-09
1.92729e-09
2.7495e-09
3.62678e-09
4.4533e-09
5.08094e-09
5.37253e-09
5.26278e-09
4.8065e-09
4.12174e-09
3.34218e-09
2.72414e-09
2.72261e-09
3.26648e-09
3.67431e-09
1.4982e-09
-3.56628e-09
-9.9094e-09
-1.45234e-08
-2.18941e-08
-3.677e-08
-6.55845e-08
-1.21209e-07
-2.2667e-07
-4.20696e-07
-7.69526e-07
-1.39043e-06
-2.50299e-06
-4.45261e-06
-7.78466e-06
-1.35145e-05
-2.33017e-05
-3.99484e-05
-6.81985e-05
-0.000115885
-0.000117327
-0.00010978
-0.000168404
-0.000303554
-0.000544608
-0.000962663
-0.00171011
-0.00305962
-0.00550047
-0.00934497
-0.0128941
-0.00287019
0.0145087
0.0149279
0.0088487
0.00403708
0.00142055
0.000394195
9.32512e-05
1.8374e-05
2.98253e-06
4.24087e-07
6.4446e-08
1.30454e-08
3.56497e-09
1.15281e-09
3.88967e-10
1.30297e-10
4.28269e-11
1.37413e-11
4.302e-12
1.31582e-12
3.93666e-13
1.15549e-13
3.33576e-14
9.45934e-15
2.64194e-15
7.27702e-16
1.98011e-16
5.32023e-17
1.4124e-17
3.69982e-18
9.52311e-19
2.38413e-19
5.67479e-20
1.21562e-20
2.01132e-21
1.07688e-22
2.41381e-16
3.51047e-15
1.52929e-14
4.88311e-14
1.34901e-13
3.43048e-13
8.26298e-13
1.91135e-12
4.27063e-12
9.22811e-12
1.92727e-11
3.89178e-11
7.61164e-11
1.44313e-10
2.64816e-10
4.67416e-10
7.91806e-10
1.27743e-09
1.91857e-09
2.74103e-09
3.62524e-09
4.46491e-09
5.10978e-09
5.42423e-09
5.33809e-09
4.89195e-09
4.21022e-09
3.42563e-09
2.78441e-09
2.75836e-09
3.30644e-09
3.73992e-09
1.81123e-09
-3.34711e-09
-9.91918e-09
-1.48253e-08
-2.29944e-08
-3.83828e-08
-6.83104e-08
-1.26556e-07
-2.36919e-07
-4.40127e-07
-8.04719e-07
-1.45406e-06
-2.6175e-06
-4.65567e-06
-8.14226e-06
-1.41292e-05
-2.4369e-05
-4.17909e-05
-7.13547e-05
-0.000120311
-0.000117403
-0.000113863
-0.000178996
-0.00032319
-0.00057842
-0.00102327
-0.0018198
-0.00325121
-0.00580717
-0.00977609
-0.0128755
-0.00102305
0.0152014
0.014417
0.00833279
0.00366638
0.00125827
0.000343239
7.9925e-05
1.54745e-05
2.48436e-06
3.54802e-07
5.56309e-08
1.17946e-08
3.34304e-09
1.09927e-09
3.736e-10
1.25695e-10
4.13778e-11
1.33011e-11
4.17675e-12
1.28284e-12
3.86024e-13
1.13783e-13
3.29605e-14
9.37001e-15
2.62218e-15
7.23397e-16
1.97107e-16
5.30042e-17
1.4077e-17
3.68896e-18
9.49773e-19
2.37854e-19
5.66158e-20
1.21255e-20
2.00533e-21
1.06918e-22
2.39198e-16
3.47865e-15
1.51538e-14
4.83842e-14
1.33659e-13
3.39869e-13
8.18599e-13
1.89348e-12
4.23057e-12
9.14104e-12
1.9089e-11
3.85433e-11
7.5385e-11
1.42955e-10
2.62439e-10
4.63583e-10
7.86176e-10
1.27021e-09
1.91095e-09
2.73357e-09
3.62465e-09
4.4769e-09
5.13761e-09
5.47539e-09
5.40579e-09
4.96924e-09
4.28932e-09
3.49908e-09
2.83888e-09
2.79422e-09
3.34716e-09
3.83386e-09
2.14747e-09
-3.15085e-09
-9.93919e-09
-1.5116e-08
-2.39141e-08
-3.92245e-08
-7.09306e-08
-1.31683e-07
-2.46913e-07
-4.58901e-07
-8.39142e-07
-1.51645e-06
-2.72961e-06
-4.85381e-06
-8.47876e-06
-1.471e-05
-2.54393e-05
-4.35485e-05
-7.43108e-05
-0.00012479
-0.000117246
-0.00011801
-0.000189195
-0.000343879
-0.000612395
-0.00108286
-0.00192605
-0.00344151
-0.00608501
-0.0101855
-0.0127582
0.000672596
0.0156653
0.013945
0.00788124
0.003403
0.00114748
0.000307732
7.09958e-05
1.3568e-05
2.16014e-06
3.09488e-07
4.97016e-08
1.08949e-08
3.16525e-09
1.05225e-09
3.59336e-10
1.21272e-10
4.00182e-11
1.28921e-11
4.05617e-12
1.24761e-12
3.75634e-13
1.10858e-13
3.21654e-14
9.15911e-15
2.56753e-15
7.09498e-16
1.93657e-16
5.21622e-17
1.38801e-17
3.64203e-18
9.38569e-19
2.35169e-19
5.59988e-20
1.19951e-20
1.98526e-21
1.05901e-22
2.37088e-16
3.44791e-15
1.50194e-14
4.79533e-14
1.32463e-13
3.36818e-13
8.1124e-13
1.87648e-12
4.19268e-12
9.05928e-12
1.89179e-11
3.81976e-11
7.47161e-11
1.41724e-10
2.60307e-10
4.60181e-10
7.81233e-10
1.26396e-09
1.90453e-09
2.72721e-09
3.62458e-09
4.48844e-09
5.16281e-09
5.51719e-09
5.4617e-09
5.03679e-09
4.36036e-09
3.5673e-09
2.88864e-09
2.82947e-09
3.38595e-09
3.91181e-09
2.22135e-09
-3.02463e-09
-9.99644e-09
-1.54276e-08
-2.47531e-08
-4.0839e-08
-7.33954e-08
-1.36405e-07
-2.55684e-07
-4.75233e-07
-8.6903e-07
-1.57105e-06
-2.82911e-06
-5.03303e-06
-8.79344e-06
-1.52557e-05
-2.63724e-05
-4.514e-05
-7.69872e-05
-0.000128477
-0.000117206
-0.00012199
-0.000199115
-0.000360238
-0.000640857
-0.00113371
-0.00201744
-0.00360381
-0.00635744
-0.0105478
-0.0125151
0.00227283
0.0160255
0.0134967
0.00747424
0.00315711
0.00104581
0.000276594
6.33477e-05
1.19908e-05
1.89508e-06
2.72467e-07
4.4771e-08
1.01154e-08
3.00165e-09
1.00694e-09
3.45207e-10
1.16799e-10
3.86185e-11
1.24645e-11
3.92875e-12
1.21054e-12
3.65092e-13
1.07941e-13
3.13192e-14
8.93182e-15
2.50715e-15
6.93607e-16
1.89527e-16
5.10853e-17
1.3598e-17
3.56967e-18
9.20378e-19
2.30729e-19
5.49638e-20
1.17829e-20
1.94898e-21
1.03755e-22
2.35143e-16
3.4196e-15
1.48959e-14
4.7558e-14
1.31369e-13
3.34035e-13
8.04552e-13
1.86109e-12
4.15858e-12
8.98613e-12
1.87658e-11
3.78924e-11
7.41296e-11
1.40653e-10
2.58464e-10
4.57263e-10
7.77048e-10
1.25879e-09
1.89955e-09
2.72238e-09
3.62489e-09
4.49797e-09
5.18594e-09
5.55717e-09
5.51614e-09
5.09791e-09
4.4223e-09
3.62528e-09
2.93616e-09
2.86209e-09
3.42503e-09
3.98755e-09
2.37095e-09
-2.91049e-09
-1.00613e-08
-1.57342e-08
-2.55312e-08
-4.22127e-08
-7.58105e-08
-1.41108e-07
-2.64706e-07
-4.92049e-07
-8.9949e-07
-1.62587e-06
-2.92712e-06
-5.2046e-06
-9.0902e-06
-1.57726e-05
-2.72458e-05
-4.66718e-05
-7.96583e-05
-0.000131281
-0.000117357
-0.000125352
-0.000206831
-0.000377196
-0.000668995
-0.00118276
-0.00210428
-0.00375462
-0.00660353
-0.0108602
-0.0121981
0.00375466
0.0163269
0.0130886
0.00708802
0.00294022
0.000957894
0.000249049
5.63712e-05
1.0525e-05
1.65009e-06
2.38631e-07
4.02813e-08
9.40553e-09
2.85193e-09
9.6533e-10
3.32191e-10
1.12646e-10
3.73076e-11
1.20595e-11
3.80649e-12
1.17445e-12
3.54655e-13
1.05005e-13
3.04996e-14
8.70663e-15
2.44613e-15
6.77265e-16
1.85218e-16
4.99525e-17
1.33028e-17
3.49357e-18
9.01049e-19
2.25943e-19
5.38408e-20
1.15418e-20
1.91095e-21
1.02233e-22
2.33404e-16
3.3943e-15
1.47856e-14
4.72054e-14
1.30395e-13
3.31562e-13
7.98624e-13
1.8475e-12
4.12858e-12
8.92211e-12
1.86336e-11
3.76288e-11
7.36261e-11
1.39737e-10
2.56891e-10
4.54781e-10
7.73484e-10
1.25441e-09
1.89522e-09
2.71823e-09
3.62596e-09
4.50823e-09
5.20817e-09
5.59084e-09
5.56014e-09
5.14924e-09
4.47502e-09
3.67401e-09
2.96914e-09
2.89203e-09
3.46088e-09
4.05376e-09
2.17209e-09
-2.81264e-09
-1.0129e-08
-1.60209e-08
-2.62279e-08
-4.33665e-08
-7.8069e-08
-1.45392e-07
-2.72818e-07
-5.07134e-07
-9.26754e-07
-1.67484e-06
-3.01371e-06
-5.35677e-06
-9.35316e-06
-1.62146e-05
-2.79438e-05
-4.78345e-05
-8.15445e-05
-0.000133814
-0.000117242
-0.000128635
-0.000214404
-0.00039053
-0.000691946
-0.00122313
-0.00217626
-0.00388143
-0.00681291
-0.0111044
-0.01183
0.00481339
0.0164769
0.0126627
0.00673681
0.00275786
0.000886121
0.000228152
5.12742e-05
9.47697e-06
1.4766e-06
2.14664e-07
3.70396e-08
8.87005e-09
2.73183e-09
9.30384e-10
3.20929e-10
1.08981e-10
3.61324e-11
1.16912e-11
3.69378e-12
1.14074e-12
3.4479e-13
1.02195e-13
2.9708e-14
8.48727e-15
2.38622e-15
6.61111e-16
1.80898e-16
4.8811e-17
1.30045e-17
3.41649e-18
8.81458e-19
2.21093e-19
5.26939e-20
1.12972e-20
1.86853e-21
9.96569e-23
2.31889e-16
3.37226e-15
1.46895e-14
4.68987e-14
1.29548e-13
3.29416e-13
7.9349e-13
1.83576e-12
4.10274e-12
8.86729e-12
1.85213e-11
3.74075e-11
7.32089e-11
1.3899e-10
2.5559e-10
4.52771e-10
7.70726e-10
1.25123e-09
1.89234e-09
2.71572e-09
3.62772e-09
4.51758e-09
5.22762e-09
5.62226e-09
5.60008e-09
5.19421e-09
4.52059e-09
3.71691e-09
3.00321e-09
2.92005e-09
3.49362e-09
4.1126e-09
2.63228e-09
-2.74183e-09
-1.02024e-08
-1.62814e-08
-2.68295e-08
-4.43915e-08
-8.00569e-08
-1.49206e-07
-2.80089e-07
-5.20777e-07
-9.51707e-07
-1.72045e-06
-3.09597e-06
-5.50343e-06
-9.60587e-06
-1.66505e-05
-2.86624e-05
-4.90641e-05
-8.36247e-05
-0.000135686
-0.000117523
-0.000132075
-0.000222326
-0.000402559
-0.00071397
-0.00126263
-0.00224712
-0.00400534
-0.00701498
-0.0113422
-0.0114489
0.00589734
0.0165678
0.0123449
0.00648076
0.00261776
0.000830678
0.000212174
4.74237e-05
8.69394e-06
1.34774e-06
1.96894e-07
3.46038e-08
8.45387e-09
2.63415e-09
9.01053e-10
3.11238e-10
1.05788e-10
3.50975e-11
1.13636e-11
3.59256e-12
1.1102e-12
3.35772e-13
9.95952e-14
2.89702e-14
8.28148e-15
2.32972e-15
6.45871e-16
1.76686e-16
4.76997e-17
1.27143e-17
3.34156e-18
8.62404e-19
2.16374e-19
5.15809e-20
1.10602e-20
1.83193e-21
9.78872e-23
2.30594e-16
3.35344e-15
1.46076e-14
4.66374e-14
1.28828e-13
3.27594e-13
7.8914e-13
1.82583e-12
4.08099e-12
8.82136e-12
1.84278e-11
3.72246e-11
7.28669e-11
1.38384e-10
2.54542e-10
4.51198e-10
7.68584e-10
1.24868e-09
1.89011e-09
2.71402e-09
3.62996e-09
4.52634e-09
5.24471e-09
5.64849e-09
5.63413e-09
5.23269e-09
4.55983e-09
3.75321e-09
3.03217e-09
2.94343e-09
3.52154e-09
4.15765e-09
2.68213e-09
-2.71464e-09
-1.02885e-08
-1.6517e-08
-2.73463e-08
-4.5285e-08
-8.17406e-08
-1.52371e-07
-2.85992e-07
-5.31543e-07
-9.70748e-07
-1.76566e-06
-3.17252e-06
-5.63695e-06
-9.83754e-06
-1.70527e-05
-2.93679e-05
-5.03144e-05
-8.58539e-05
-0.000137058
-0.000117961
-0.000134778
-0.00022818
-0.00041392
-0.000733654
-0.00129785
-0.00231046
-0.00411726
-0.00719867
-0.0115522
-0.0110705
0.00678749
0.0165896
0.0120987
0.00627782
0.00250709
0.000787464
0.000200318
4.45775e-05
8.13356e-06
1.25598e-06
1.8415e-07
3.28136e-08
8.133e-09
2.55471e-09
8.76383e-10
3.02989e-10
1.03036e-10
3.41968e-11
1.10761e-11
3.50304e-12
1.08299e-12
3.27688e-13
9.7246e-14
2.82998e-14
8.09348e-15
2.27784e-15
6.31795e-16
1.72841e-16
4.66801e-17
1.24468e-17
3.2723e-18
8.44744e-19
2.11982e-19
5.05357e-20
1.08396e-20
1.79374e-21
9.5474e-23
2.29508e-16
3.33765e-15
1.45389e-14
4.64184e-14
1.28225e-13
3.26071e-13
7.85513e-13
1.81758e-12
4.06294e-12
8.78335e-12
1.83507e-11
3.70745e-11
7.25887e-11
1.37898e-10
2.53723e-10
4.49974e-10
7.66881e-10
1.24674e-09
1.88858e-09
2.71298e-09
3.63225e-09
4.5341e-09
5.25998e-09
5.67217e-09
5.66512e-09
5.2679e-09
4.59501e-09
3.78558e-09
3.05751e-09
2.96271e-09
3.54595e-09
4.19682e-09
2.61367e-09
-2.68701e-09
-1.03635e-08
-1.67259e-08
-2.78158e-08
-4.61004e-08
-8.32988e-08
-1.55334e-07
-2.91584e-07
-5.41918e-07
-9.8968e-07
-1.80013e-06
-3.23304e-06
-5.7422e-06
-1.00172e-05
-1.73563e-05
-2.98676e-05
-5.11183e-05
-8.71072e-05
-0.000137856
-0.000117914
-0.000137106
-0.000233271
-0.00042434
-0.000751091
-0.00132856
-0.0023652
-0.00421281
-0.00735539
-0.0117247
-0.0107243
0.00751413
0.0165923
0.0118835
0.00611232
0.00241923
0.000753179
0.000190996
4.22951e-05
7.6682e-06
1.18009e-06
1.73633e-07
3.13314e-08
7.86507e-09
2.48759e-09
8.55368e-10
2.95937e-10
1.00672e-10
3.34191e-11
1.08265e-11
3.42497e-12
1.05914e-12
3.20569e-13
9.51677e-14
2.7704e-14
7.92572e-15
2.23136e-15
6.19126e-16
1.69424e-16
4.57696e-17
1.22072e-17
3.21013e-18
8.2882e-19
2.08023e-19
4.96003e-20
1.06399e-20
1.76118e-21
9.37547e-23
2.2861e-16
3.3246e-15
1.44821e-14
4.62376e-14
1.27728e-13
3.24816e-13
7.82522e-13
1.81077e-12
4.04805e-12
8.75196e-12
1.82868e-11
3.69495e-11
7.23552e-11
1.37485e-10
2.53008e-10
4.48848e-10
7.65359e-10
1.24507e-09
1.88739e-09
2.7123e-09
3.63444e-09
4.54101e-09
5.27294e-09
5.69177e-09
5.68965e-09
5.29564e-09
4.62283e-09
3.81139e-09
3.07839e-09
2.9808e-09
3.56869e-09
4.26743e-09
2.83171e-09
-2.65655e-09
-1.04264e-08
-1.69091e-08
-2.82235e-08
-4.68253e-08
-8.46906e-08
-1.5799e-07
-2.96621e-07
-5.51332e-07
-1.00704e-06
-1.8319e-06
-3.28965e-06
-5.84167e-06
-1.01885e-05
-1.76497e-05
-3.03734e-05
-5.19941e-05
-8.86307e-05
-0.000138587
-0.00011811
-0.000139209
-0.000237902
-0.000432771
-0.000765784
-0.00135464
-0.00241223
-0.00429618
-0.00749099
-0.0118698
-0.0104059
0.00810776
0.0165796
0.0117042
0.00596892
0.00234762
0.000725929
0.00018364
4.05331e-05
7.31629e-06
1.12294e-06
1.65685e-07
3.01925e-08
7.65267e-09
2.43268e-09
8.3786e-10
2.90007e-10
9.86712e-11
3.27579e-11
1.06135e-11
3.35802e-12
1.03861e-12
3.14418e-13
9.33653e-14
2.71857e-14
7.77934e-15
2.1907e-15
6.08012e-16
1.66423e-16
4.49691e-17
1.19963e-17
3.15527e-18
8.14798e-19
2.0453e-19
4.87827e-20
1.04635e-20
1.73017e-21
9.2507e-23
2.27884e-16
3.31405e-15
1.44362e-14
4.60914e-14
1.27326e-13
3.23802e-13
7.80109e-13
1.80528e-12
4.03606e-12
8.72665e-12
1.82352e-11
3.68483e-11
7.21656e-11
1.37148e-10
2.52418e-10
4.47991e-10
7.64263e-10
1.24394e-09
1.88669e-09
2.71211e-09
3.6368e-09
4.54738e-09
5.28456e-09
5.70867e-09
5.71082e-09
5.31859e-09
4.64554e-09
3.83214e-09
3.09542e-09
2.99534e-09
3.58591e-09
4.27583e-09
2.69356e-09
-2.66452e-09
-1.05039e-08
-1.70774e-08
-2.85754e-08
-4.74575e-08
-8.59178e-08
-1.60357e-07
-3.01153e-07
-5.59837e-07
-1.02247e-06
-1.85986e-06
-3.33971e-06
-5.93027e-06
-1.03422e-05
-1.79146e-05
-3.08245e-05
-5.27569e-05
-8.99031e-05
-0.000139065
-0.000118372
-0.000141031
-0.000241774
-0.000439565
-0.000777825
-0.00137628
-0.0024512
-0.00436498
-0.00760372
-0.0119882
-0.0101247
0.00858347
0.0165563
0.0115553
0.00585735
0.00229034
0.000704363
0.000177813
3.91492e-05
7.04149e-06
1.07842e-06
1.59478e-07
2.92936e-08
7.48175e-09
2.38765e-09
8.23354e-10
2.85068e-10
9.69986e-11
3.22034e-11
1.04342e-11
3.30155e-12
1.02125e-12
3.09203e-13
9.18332e-14
2.67441e-14
7.65437e-15
2.15592e-15
5.98489e-16
1.63848e-16
4.42816e-17
1.1815e-17
3.10808e-18
8.02708e-19
2.01525e-19
4.80613e-20
1.03103e-20
1.70603e-21
9.1281e-23
2.27312e-16
3.30574e-15
1.44001e-14
4.59765e-14
1.27011e-13
3.23007e-13
7.78222e-13
1.801e-12
4.02671e-12
8.70697e-12
1.81953e-11
3.67705e-11
7.2022e-11
1.36899e-10
2.51996e-10
4.47377e-10
7.6346e-10
1.24312e-09
1.88626e-09
2.71211e-09
3.63879e-09
4.55252e-09
5.29362e-09
5.72208e-09
5.72747e-09
5.33675e-09
4.66371e-09
3.84893e-09
3.10912e-09
3.00749e-09
3.60057e-09
4.26331e-09
2.83371e-09
-2.66889e-09
-1.0568e-08
-1.72219e-08
-2.88799e-08
-4.80083e-08
-8.69749e-08
-1.6237e-07
-3.04959e-07
-5.66889e-07
-1.03542e-06
-1.88355e-06
-3.38269e-06
-6.00775e-06
-1.04799e-05
-1.81596e-05
-3.12608e-05
-5.3538e-05
-9.13118e-05
-0.000139604
-0.000118885
-0.000142582
-0.000244958
-0.000445217
-0.000787865
-0.00139434
-0.00248383
-0.00442204
-0.0076955
-0.0120806
-0.00988264
0.00896229
0.0165341
0.0114353
0.00576635
0.00224355
0.000686583
0.000173049
3.80169e-05
6.81753e-06
1.04229e-06
1.54456e-07
2.85664e-08
7.34338e-09
2.3511e-09
8.11545e-10
2.81035e-10
9.56291e-11
3.17482e-11
1.02868e-11
3.25498e-12
1.0069e-12
3.04885e-13
9.05628e-14
2.63774e-14
7.55046e-15
2.12697e-15
5.90552e-16
1.617e-16
4.37074e-17
1.16633e-17
3.0686e-18
7.92589e-19
1.99008e-19
4.7469e-20
1.01814e-20
1.68473e-21
8.99207e-23
2.26879e-16
3.29945e-15
1.43728e-14
4.58897e-14
1.26773e-13
3.22409e-13
7.76807e-13
1.79781e-12
4.01981e-12
8.69263e-12
1.81666e-11
3.67154e-11
7.19216e-11
1.36725e-10
2.51692e-10
4.46925e-10
7.62875e-10
1.24256e-09
1.88606e-09
2.71233e-09
3.64073e-09
4.5571e-09
5.30143e-09
5.73315e-09
5.74106e-09
5.35172e-09
4.6785e-09
3.86228e-09
3.11991e-09
3.01697e-09
3.61239e-09
4.28049e-09
2.8495e-09
-2.66813e-09
-1.06167e-08
-1.73342e-08
-2.91176e-08
-4.84393e-08
-8.78033e-08
-1.63948e-07
-3.07941e-07
-5.72414e-07
-1.04548e-06
-1.90175e-06
-3.41493e-06
-6.06372e-06
-1.05743e-05
-1.83157e-05
-3.15142e-05
-5.39359e-05
-9.19064e-05
-0.000139726
-0.000119067
-0.000143917
-0.000247757
-0.000449549
-0.000795718
-0.00140845
-0.00250913
-0.00446646
-0.00776716
-0.0121509
-0.009686
0.00925614
0.0165147
0.011342
0.00569947
0.00220762
0.000673092
0.000169461
3.71577e-05
6.64786e-06
1.015e-06
1.50672e-07
2.80164e-08
7.23756e-09
2.32277e-09
8.02299e-10
2.77857e-10
9.45454e-11
3.13869e-11
1.01694e-11
3.21788e-12
9.95457e-13
3.01436e-13
8.95468e-14
2.60839e-14
7.46724e-15
2.10377e-15
5.8419e-16
1.59977e-16
4.32474e-17
1.1542e-17
3.03695e-18
7.84483e-19
1.96975e-19
4.69883e-20
1.0078e-20
1.66905e-21
8.883e-23
2.26572e-16
3.295e-15
1.43535e-14
4.58287e-14
1.26606e-13
3.21993e-13
7.7583e-13
1.79562e-12
4.01509e-12
8.68271e-12
1.81463e-11
3.66756e-11
7.18461e-11
1.36591e-10
2.51462e-10
4.466e-10
7.62476e-10
1.2422e-09
1.88598e-09
2.71258e-09
3.6422e-09
4.56044e-09
5.30707e-09
5.74116e-09
5.75082e-09
5.36233e-09
4.68894e-09
3.87172e-09
3.12756e-09
3.02378e-09
3.62087e-09
4.29353e-09
2.74104e-09
-2.6634e-09
-1.06498e-08
-1.74159e-08
-2.92925e-08
-4.87595e-08
-8.8419e-08
-1.65122e-07
-3.10157e-07
-5.7652e-07
-1.05296e-06
-1.9153e-06
-3.43929e-06
-6.1073e-06
-1.06512e-05
-1.84518e-05
-3.17552e-05
-5.43669e-05
-9.26784e-05
-0.000139934
-0.000119369
-0.000144825
-0.000249503
-0.000453209
-0.000801791
-0.00141914
-0.00252822
-0.00449976
-0.00782055
-0.0122019
-0.00953369
0.00947246
0.0164982
0.0112734
0.00564082
0.00218184
0.000663394
0.00016688
3.6545e-05
6.527e-06
9.95537e-07
1.47957e-07
2.7618e-08
7.16009e-09
2.30195e-09
7.95562e-10
2.75561e-10
9.37665e-11
3.11275e-11
1.00851e-11
3.19115e-12
9.87187e-13
2.98935e-13
8.88071e-14
2.58692e-14
7.40606e-15
2.08662e-15
5.79463e-16
1.58692e-16
4.29031e-17
1.14508e-17
3.01311e-18
7.78399e-19
1.95471e-19
4.66269e-20
1.00042e-20
1.65586e-21
8.85797e-23
2.26376e-16
3.29216e-15
1.43411e-14
4.57895e-14
1.26499e-13
3.21723e-13
7.75185e-13
1.79415e-12
4.01184e-12
8.67583e-12
1.81323e-11
3.66482e-11
7.17961e-11
1.36505e-10
2.51316e-10
4.46389e-10
7.62219e-10
1.24198e-09
1.88595e-09
2.71277e-09
3.6432e-09
4.56266e-09
5.31078e-09
5.74642e-09
5.7572e-09
5.36922e-09
4.6957e-09
3.87786e-09
3.13843e-09
3.02825e-09
3.62655e-09
4.30221e-09
2.73759e-09
-2.66076e-09
-1.06713e-08
-1.74697e-08
-2.94084e-08
-4.89734e-08
-8.883e-08
-1.65903e-07
-3.11625e-07
-5.79226e-07
-1.05783e-06
-1.92402e-06
-3.45465e-06
-6.134e-06
-1.06968e-05
-1.85293e-05
-3.18873e-05
-5.4594e-05
-9.30736e-05
-0.000140026
-0.00011954
-0.000145544
-0.000250889
-0.000455544
-0.00080593
-0.0014265
-0.0025413
-0.00452239
-0.00785634
-0.0122349
-0.00942963
0.00961543
0.0164871
0.0112278
0.00560737
0.00216483
0.000657012
0.000165194
3.61442e-05
6.44802e-06
9.8283e-07
1.46185e-07
2.7356e-08
7.10851e-09
2.28804e-09
7.91019e-10
2.74005e-10
9.32383e-11
3.09524e-11
1.00286e-11
3.17334e-12
9.81711e-13
2.97289e-13
8.83229e-14
2.57294e-14
7.36642e-15
2.07556e-15
5.76425e-16
1.57866e-16
4.26807e-17
1.13919e-17
2.9977e-18
7.74424e-19
1.94463e-19
4.63856e-20
9.94857e-21
1.64814e-21
8.8198e-23
2.26279e-16
3.29074e-15
1.4335e-14
4.57699e-14
1.26445e-13
3.21587e-13
7.74864e-13
1.79342e-12
4.01027e-12
8.67255e-12
1.81256e-11
3.66353e-11
7.17723e-11
1.36464e-10
2.51246e-10
4.4629e-10
7.62099e-10
1.24188e-09
1.88596e-09
2.7129e-09
3.64374e-09
4.56382e-09
5.3127e-09
5.74912e-09
5.76045e-09
5.37273e-09
4.69912e-09
3.88095e-09
3.14052e-09
3.03059e-09
3.62981e-09
4.30865e-09
2.91854e-09
-2.64997e-09
-1.06767e-08
-1.74944e-08
-2.94653e-08
-4.90797e-08
-8.90341e-08
-1.66288e-07
-3.12337e-07
-5.80505e-07
-1.06004e-06
-1.92775e-06
-3.46061e-06
-6.14287e-06
-1.07083e-05
-1.85402e-05
-3.18861e-05
-5.45479e-05
-9.29009e-05
-0.000139922
-0.000119551
-0.000146326
-0.000252851
-0.000455167
-0.000807112
-0.00142945
-0.00254703
-0.00453266
-0.00787303
-0.0122504
-0.00937554
0.00968582
0.0164788
0.0112033
0.00558972
0.00215596
0.000653729
0.000164324
3.59388e-05
6.40782e-06
9.76409e-07
1.45295e-07
2.72246e-08
7.08212e-09
2.28057e-09
7.88511e-10
2.73134e-10
9.29409e-11
3.08535e-11
9.99661e-12
3.16328e-12
9.78623e-13
2.96363e-13
8.80518e-14
2.56516e-14
7.34447e-15
2.06948e-15
5.74766e-16
1.5742e-16
4.25627e-17
1.13607e-17
2.98967e-18
7.72401e-19
1.93959e-19
4.62619e-20
9.92644e-21
1.64284e-21
8.79631e-23
2.26278e-16
3.29073e-15
1.43349e-14
4.57696e-14
1.26444e-13
3.21585e-13
7.74859e-13
1.79341e-12
4.01025e-12
8.6725e-12
1.81255e-11
3.66351e-11
7.17721e-11
1.36464e-10
2.51246e-10
4.46291e-10
7.62102e-10
1.24188e-09
1.88597e-09
2.71293e-09
3.64379e-09
4.56388e-09
5.31278e-09
5.74921e-09
5.76053e-09
5.37279e-09
4.69916e-09
3.88099e-09
3.13919e-09
3.03062e-09
3.62964e-09
4.30673e-09
2.88596e-09
-2.66227e-09
-1.06837e-08
-1.74971e-08
-2.9466e-08
-4.90801e-08
-8.90361e-08
-1.66296e-07
-3.12366e-07
-5.80593e-07
-1.06028e-06
-1.92839e-06
-3.46226e-06
-6.14701e-06
-1.07184e-05
-1.85648e-05
-3.1945e-05
-5.46872e-05
-9.32244e-05
-0.000140146
-0.000119693
-0.000145895
-0.000251545
-0.000456636
-0.000807879
-0.00142999
-0.00254758
-0.00453338
-0.00787396
-0.0122506
-0.00937204
0.00968746
0.0164764
0.011201
0.00558838
0.00215537
0.00065354
0.000164273
3.59274e-05
6.40574e-06
9.76095e-07
1.45253e-07
2.72189e-08
7.08096e-09
2.28021e-09
7.88371e-10
2.73081e-10
9.29215e-11
3.08468e-11
9.99439e-12
3.16257e-12
9.78407e-13
2.96299e-13
8.80334e-14
2.56465e-14
7.34309e-15
2.06912e-15
5.74674e-16
1.57398e-16
4.25573e-17
1.13595e-17
2.98932e-18
7.72317e-19
1.93947e-19
4.62679e-20
9.92785e-21
1.64304e-21
8.76782e-23
2.26373e-16
3.29212e-15
1.43409e-14
4.57887e-14
1.26496e-13
3.21716e-13
7.75167e-13
1.79411e-12
4.01175e-12
8.67565e-12
1.81319e-11
3.66476e-11
7.17951e-11
1.36504e-10
2.51315e-10
4.4639e-10
7.62226e-10
1.242e-09
1.886e-09
2.71285e-09
3.64332e-09
4.56284e-09
5.31101e-09
5.74667e-09
5.75742e-09
5.36938e-09
4.69578e-09
3.87789e-09
3.13256e-09
3.02824e-09
3.62633e-09
4.30073e-09
2.83858e-09
-2.67047e-09
-1.06783e-08
-1.74736e-08
-2.94116e-08
-4.89797e-08
-8.88446e-08
-1.65936e-07
-3.11694e-07
-5.79372e-07
-1.0581e-06
-1.92448e-06
-3.45536e-06
-6.1349e-06
-1.06974e-05
-1.85277e-05
-3.18784e-05
-5.45641e-05
-9.29889e-05
-0.000139992
-0.000119549
-0.000145526
-0.000250892
-0.000455626
-0.000806016
-0.00142658
-0.0025414
-0.00452251
-0.00785645
-0.0122337
-0.00941992
0.00962038
0.0164814
0.011222
0.00560394
0.00216331
0.000656534
0.000165064
3.61155e-05
6.44271e-06
9.82024e-07
1.46082e-07
2.73417e-08
7.10524e-09
2.28685e-09
7.9055e-10
2.73828e-10
9.31752e-11
3.0931e-11
1.00216e-11
3.17117e-12
9.81054e-13
2.97097e-13
8.82684e-14
2.57144e-14
7.36239e-15
2.07451e-15
5.76158e-16
1.57801e-16
4.26655e-17
1.13882e-17
2.99688e-18
7.74238e-19
1.94439e-19
4.6378e-20
9.95005e-21
1.64781e-21
8.81034e-23
2.26573e-16
3.29501e-15
1.43535e-14
4.58286e-14
1.26606e-13
3.2199e-13
7.75815e-13
1.79557e-12
4.01493e-12
8.68231e-12
1.81454e-11
3.66739e-11
7.18436e-11
1.36588e-10
2.5146e-10
4.46601e-10
7.62487e-10
1.24223e-09
1.88604e-09
2.71267e-09
3.64234e-09
4.56063e-09
5.30728e-09
5.74137e-09
5.75098e-09
5.3624e-09
4.68889e-09
3.87164e-09
3.12746e-09
3.02367e-09
3.62052e-09
4.29204e-09
2.82179e-09
-2.67117e-09
-1.06548e-08
-1.74179e-08
-2.92931e-08
-4.87621e-08
-8.84267e-08
-1.65141e-07
-3.102e-07
-5.76619e-07
-1.05312e-06
-1.91556e-06
-3.4396e-06
-6.10741e-06
-1.06504e-05
-1.84482e-05
-3.1745e-05
-5.43411e-05
-9.26181e-05
-0.000139922
-0.00011941
-0.000144902
-0.000249645
-0.00045344
-0.000802149
-0.00141964
-0.00252893
-0.00450066
-0.00782123
-0.0121998
-0.00951779
0.00948247
0.016492
0.0112663
0.00563665
0.00217994
0.000662755
0.000166708
3.65055e-05
6.51969e-06
9.94502e-07
1.47824e-07
2.75984e-08
7.15628e-09
2.30088e-09
7.95172e-10
2.75417e-10
9.37161e-11
3.11109e-11
1.00799e-11
3.18957e-12
9.86724e-13
2.98804e-13
8.87709e-14
2.58596e-14
7.40355e-15
2.08599e-15
5.79308e-16
1.58654e-16
4.28935e-17
1.14484e-17
3.01257e-18
7.78246e-19
1.95428e-19
4.66205e-20
1.00021e-20
1.65629e-21
8.82687e-23
2.26883e-16
3.29951e-15
1.4373e-14
4.58907e-14
1.26776e-13
3.22417e-13
7.76828e-13
1.79786e-12
4.0199e-12
8.69274e-12
1.81666e-11
3.6715e-11
7.19194e-11
1.3672e-10
2.51686e-10
4.46924e-10
7.62892e-10
1.2426e-09
1.88613e-09
2.71244e-09
3.64089e-09
4.55731e-09
5.30166e-09
5.73338e-09
5.74121e-09
5.35178e-09
4.67848e-09
3.86213e-09
3.11973e-09
3.01675e-09
3.61204e-09
4.27969e-09
2.85038e-09
-2.66979e-09
-1.0617e-08
-1.73329e-08
-2.91142e-08
-4.84356e-08
-8.77985e-08
-1.63942e-07
-3.07933e-07
-5.72402e-07
-1.04547e-06
-1.90172e-06
-3.41492e-06
-6.06401e-06
-1.05758e-05
-1.83218e-05
-3.15335e-05
-5.39936e-05
-9.2065e-05
-0.000139793
-0.000119226
-0.00014396
-0.000247726
-0.000450089
-0.0007962
-0.00140898
-0.00250972
-0.00446688
-0.00776673
-0.0121468
-0.00966655
0.00926948
0.0165081
0.0113342
0.00569477
0.00220563
0.000672497
0.000169304
3.71256e-05
6.64272e-06
1.01418e-06
1.50546e-07
2.79978e-08
7.23428e-09
2.32203e-09
8.02104e-10
2.77801e-10
9.45285e-11
3.13816e-11
1.01678e-11
3.21736e-12
9.953e-13
3.01388e-13
8.95325e-14
2.60796e-14
7.46597e-15
2.1034e-15
5.84084e-16
1.59948e-16
4.3239e-17
1.15396e-17
3.03633e-18
7.84328e-19
1.96963e-19
4.69795e-20
1.00809e-20
1.66935e-21
8.90628e-23
2.27315e-16
3.30579e-15
1.44003e-14
4.59774e-14
1.27014e-13
3.23016e-13
7.78247e-13
1.80107e-12
4.02689e-12
8.70743e-12
1.81964e-11
3.67729e-11
7.20265e-11
1.36906e-10
2.52005e-10
4.47388e-10
7.63479e-10
1.24316e-09
1.88634e-09
2.71223e-09
3.63897e-09
4.55276e-09
5.29389e-09
5.72234e-09
5.72769e-09
5.33689e-09
4.66377e-09
3.84887e-09
3.10893e-09
3.00724e-09
3.60026e-09
4.26271e-09
2.83132e-09