/*--------------------------------*- C++ -*----------------------------------*\
  =========                 |
  \\      /  F ield         | OpenFOAM: The Open Source CFD Toolbox
   \\    /   O peration     | Website:  https://openfoam.org
    \\  /    A nd           | Version:  10
     \\/     M anipulation  |
\*---------------------------------------------------------------------------*/
FoamFile
{
    format      ascii;
    class       volScalarField;
    location    "1";
    object      RR.HNOH;
}
// * * * * * * * * * * * * * * * * * * * * * * * * * * * * * * * * * * * * * //

dimensions      [1 -3 -1 0 0 0 0];

internalField   nonuniform List<scalar> 
4000
(
-2.01083e-17
-2.91965e-16
-1.26939e-15
-4.04509e-15
-1.11613e-14
-2.84021e-14
-6.86902e-14
-1.60388e-13
-3.64621e-13
-8.10824e-13
-1.77026e-12
-3.81441e-12
-8.16284e-12
-1.74436e-11
-3.7314e-11
-7.95818e-11
-1.6953e-10
-3.58387e-10
-7.29539e-10
-1.49466e-09
-2.94909e-09
-5.76048e-09
-1.1312e-08
-2.18185e-08
-4.23842e-08
-8.28217e-08
-1.60156e-07
-2.92569e-07
-4.61892e-07
-5.71111e-07
-4.89436e-07
-2.66388e-07
-8.22983e-08
3.9161e-08
3.60049e-08
-4.2765e-08
-2.13102e-07
-4.90846e-07
-8.87956e-07
-1.3916e-06
-1.95172e-06
-2.44199e-06
-2.68465e-06
-2.47036e-06
-1.54587e-06
3.24066e-07
3.26899e-06
7.22005e-06
1.16203e-05
1.47367e-05
1.24622e-05
-9.88035e-07
-1.32144e-05
-7.42358e-06
-4.16212e-06
-2.32678e-06
-1.29819e-06
-7.66564e-07
-5.45353e-07
-5.16264e-07
-3.1595e-07
2.64008e-07
6.23764e-07
4.61483e-07
-6.64387e-09
-2.03244e-07
-1.21997e-07
-4.35164e-08
-1.56267e-08
-7.23201e-09
-3.64674e-09
-1.75884e-09
-8.09574e-10
-3.49378e-10
-1.40727e-10
-5.35811e-11
-1.94661e-11
-6.8087e-12
-2.30566e-12
-7.58207e-13
-2.43012e-13
-7.59424e-14
-2.31958e-14
-6.94499e-15
-2.03686e-15
-5.87836e-16
-1.67225e-16
-4.69308e-17
-1.30222e-17
-3.58091e-18
-9.717e-19
-2.61156e-19
-6.95094e-20
-1.82863e-20
-4.73217e-21
-1.19173e-21
-2.85226e-22
-6.13868e-23
-1.01873e-23
-5.45201e-25
-1.98826e-17
-2.88662e-16
-1.25493e-15
-3.99919e-15
-1.10348e-14
-2.80733e-14
-6.7871e-14
-1.5838e-13
-3.59708e-13
-7.98766e-13
-1.74061e-12
-3.74198e-12
-7.98306e-12
-1.70095e-11
-3.63001e-11
-7.72704e-11
-1.64029e-10
-3.45683e-10
-7.03401e-10
-1.44499e-09
-2.852e-09
-5.55795e-09
-1.09115e-08
-2.10999e-08
-4.10231e-08
-8.03281e-08
-1.55821e-07
-2.871e-07
-4.57967e-07
-5.75194e-07
-5.0336e-07
-2.72365e-07
-8.56745e-08
3.53666e-08
3.5632e-08
-4.14733e-08
-2.1119e-07
-4.8954e-07
-8.9026e-07
-1.39849e-06
-1.96423e-06
-2.45925e-06
-2.70132e-06
-2.47707e-06
-1.52646e-06
3.90933e-07
3.40261e-06
7.42716e-06
1.18728e-05
1.49359e-05
1.2373e-05
-1.7474e-06
-1.30138e-05
-7.30882e-06
-4.09568e-06
-2.28793e-06
-1.28209e-06
-7.60873e-07
-5.49796e-07
-5.24978e-07
-2.9398e-07
3.0949e-07
6.42026e-07
4.49882e-07
-4.14612e-08
-2.07697e-07
-1.16299e-07
-4.03854e-08
-1.48227e-08
-6.93569e-09
-3.50344e-09
-1.6956e-09
-7.82804e-10
-3.38328e-10
-1.37351e-10
-5.27057e-11
-1.93081e-11
-6.80859e-12
-2.32367e-12
-7.69706e-13
-2.48469e-13
-7.81842e-14
-2.4059e-14
-7.24545e-15
-2.14494e-15
-6.23364e-16
-1.78222e-16
-5.0129e-17
-1.38976e-17
-3.79929e-18
-1.03155e-18
-2.767e-19
-7.34169e-20
-1.92424e-20
-4.95944e-21
-1.24389e-21
-2.96586e-22
-6.36274e-23
-1.05345e-23
-5.62958e-25
-1.96582e-17
-2.85426e-16
-1.24102e-15
-3.95539e-15
-1.09159e-14
-2.77788e-14
-6.71432e-14
-1.5656e-13
-3.55096e-13
-7.86913e-13
-1.70964e-12
-3.65933e-12
-7.7803e-12
-1.65263e-11
-3.51659e-11
-7.46829e-11
-1.58453e-10
-3.32772e-10
-6.75475e-10
-1.38617e-09
-2.73631e-09
-5.34523e-09
-1.04443e-08
-2.04381e-08
-3.96445e-08
-7.76363e-08
-1.50845e-07
-2.79714e-07
-4.51377e-07
-5.77704e-07
-5.18643e-07
-2.90533e-07
-1.02529e-07
3.22377e-08
3.58436e-08
-3.93537e-08
-2.1335e-07
-4.89994e-07
-8.95012e-07
-1.41055e-06
-1.98503e-06
-2.48689e-06
-2.729e-06
-2.49003e-06
-1.49971e-06
4.85462e-07
3.58564e-06
7.70246e-06
1.21932e-05
1.51383e-05
1.21471e-05
-3.14777e-06
-1.272e-05
-7.14364e-06
-4.00203e-06
-2.23636e-06
-1.25172e-06
-7.49466e-07
-5.54552e-07
-5.34126e-07
-2.57684e-07
3.68082e-07
6.57223e-07
4.26758e-07
-8.18992e-08
-2.11353e-07
-1.08431e-07
-3.67616e-08
-1.39396e-08
-6.61838e-09
-3.35769e-09
-1.62939e-09
-7.55712e-10
-3.28317e-10
-1.33723e-10
-5.15637e-11
-1.89946e-11
-6.73941e-12
-2.31454e-12
-7.70876e-13
-2.50506e-13
-7.93231e-14
-2.45411e-14
-7.42954e-15
-2.20456e-15
-6.42186e-16
-1.84116e-16
-5.1943e-17
-1.44465e-17
-3.96493e-18
-1.07501e-18
-2.88493e-19
-7.65489e-20
-2.00492e-20
-5.16109e-21
-1.2925e-21
-3.07679e-22
-6.59087e-23
-1.08994e-23
-5.82061e-25
-1.93535e-17
-2.80973e-16
-1.22136e-15
-3.89113e-15
-1.07318e-14
-2.72848e-14
-6.58835e-14
-1.53454e-13
-3.47623e-13
-7.69323e-13
-1.66923e-12
-3.56935e-12
-7.57512e-12
-1.60543e-11
-3.40809e-11
-7.22233e-11
-1.52949e-10
-3.21606e-10
-6.53076e-10
-1.33647e-09
-2.6372e-09
-5.1505e-09
-1.00644e-08
-1.97462e-08
-3.83613e-08
-7.51614e-08
-1.46162e-07
-2.72708e-07
-4.4504e-07
-5.79841e-07
-5.32566e-07
-3.12313e-07
-1.13422e-07
2.82084e-08
3.50909e-08
-3.84262e-08
-2.12233e-07
-4.92815e-07
-9.02477e-07
-1.42656e-06
-2.01095e-06
-2.52091e-06
-2.76106e-06
-2.49928e-06
-1.4532e-06
6.28836e-07
3.8561e-06
8.11709e-06
1.26671e-05
1.54282e-05
1.17661e-05
-4.61173e-06
-1.24049e-05
-6.9583e-06
-3.89337e-06
-2.17371e-06
-1.21943e-06
-7.38072e-07
-5.62296e-07
-5.42475e-07
-2.08689e-07
4.38328e-07
6.70009e-07
3.94273e-07
-1.21659e-07
-2.07153e-07
-9.9633e-08
-3.33574e-08
-1.31015e-08
-6.30402e-09
-3.20915e-09
-1.55692e-09
-7.16975e-10
-3.09925e-10
-1.26034e-10
-4.86997e-11
-1.80248e-11
-6.44022e-12
-2.23218e-12
-7.52504e-13
-2.46711e-13
-7.86005e-14
-2.44582e-14
-7.4425e-15
-2.21785e-15
-6.48398e-16
-1.86465e-16
-5.27129e-17
-1.46846e-17
-4.03635e-18
-1.09637e-18
-2.94248e-19
-7.80611e-20
-2.04403e-20
-5.26025e-21
-1.31692e-21
-3.134e-22
-6.71211e-23
-1.10992e-23
-5.92698e-25
-1.90581e-17
-2.76682e-16
-1.20266e-15
-3.83119e-15
-1.05646e-14
-2.68526e-14
-6.48161e-14
-1.50894e-13
-3.41597e-13
-7.55324e-13
-1.63696e-12
-3.49538e-12
-7.40602e-12
-1.56686e-11
-3.32046e-11
-7.02591e-11
-1.4859e-10
-3.12105e-10
-6.33097e-10
-1.29552e-09
-2.55826e-09
-4.99771e-09
-9.74899e-09
-1.91543e-08
-3.71845e-08
-7.2788e-08
-1.41958e-07
-2.66446e-07
-4.39376e-07
-5.82207e-07
-5.46206e-07
-3.12781e-07
-1.24797e-07
2.34954e-08
3.36512e-08
-3.84325e-08
-2.11608e-07
-4.96825e-07
-9.11644e-07
-1.44442e-06
-2.03948e-06
-2.55681e-06
-2.79323e-06
-2.50576e-06
-1.39906e-06
7.85222e-07
4.13316e-06
8.52421e-06
1.31301e-05
1.56954e-05
1.13827e-05
-6.40143e-06
-1.19971e-05
-6.73102e-06
-3.76527e-06
-2.10184e-06
-1.18363e-06
-7.25298e-07
-5.69014e-07
-5.44833e-07
-1.56393e-07
4.97443e-07
6.72073e-07
3.57544e-07
-1.54255e-07
-1.98663e-07
-9.14509e-08
-3.05155e-08
-1.238e-08
-6.01667e-09
-3.06949e-09
-1.48338e-09
-6.82748e-10
-2.952e-10
-1.20258e-10
-4.66116e-11
-1.73129e-11
-6.2079e-12
-2.1582e-12
-7.28932e-13
-2.40067e-13
-7.70385e-14
-2.41048e-14
-7.36658e-15
-2.20172e-15
-6.45683e-16
-1.86256e-16
-5.27812e-17
-1.47327e-17
-4.0559e-18
-1.10312e-18
-2.96271e-19
-7.86249e-20
-2.059e-20
-5.29842e-21
-1.32628e-21
-3.15579e-22
-6.75793e-23
-1.11742e-23
-5.96687e-25
-1.87708e-17
-2.72507e-16
-1.18445e-15
-3.77282e-15
-1.04021e-14
-2.64335e-14
-6.37855e-14
-1.48437e-13
-3.35867e-13
-7.42154e-13
-1.607e-12
-3.42776e-12
-7.25446e-12
-1.53308e-11
-3.24563e-11
-6.86286e-11
-1.45089e-10
-3.04771e-10
-6.18441e-10
-1.26443e-09
-2.49772e-09
-4.87843e-09
-9.49149e-09
-1.86575e-08
-3.6188e-08
-7.09509e-08
-1.38593e-07
-2.61384e-07
-4.34902e-07
-5.85401e-07
-5.61125e-07
-3.4339e-07
-1.35179e-07
1.77533e-08
3.15054e-08
-3.92247e-08
-2.12349e-07
-5.00978e-07
-9.22314e-07
-1.46424e-06
-2.06938e-06
-2.59335e-06
-2.82351e-06
-2.50861e-06
-1.34105e-06
9.43619e-07
4.42787e-06
8.95377e-06
1.36109e-05
1.59659e-05
1.09298e-05
-7.91493e-06
-1.16119e-05
-6.51141e-06
-3.64013e-06
-2.03017e-06
-1.14788e-06
-7.13032e-07
-5.76576e-07
-5.40754e-07
-9.41929e-08
5.55597e-07
6.70373e-07
3.22668e-07
-1.78012e-07
-1.91266e-07
-8.46967e-08
-2.77673e-08
-1.16914e-08
-5.74828e-09
-2.92891e-09
-1.41518e-09
-6.5079e-10
-2.81238e-10
-1.14596e-10
-4.44724e-11
-1.65472e-11
-5.94647e-12
-2.07255e-12
-7.01966e-13
-2.31395e-13
-7.43632e-14
-2.33335e-14
-7.16062e-15
-2.15323e-15
-6.34237e-16
-1.83603e-16
-5.21631e-17
-1.45898e-17
-4.02306e-18
-1.09571e-18
-2.94535e-19
-7.81928e-20
-2.04847e-20
-5.27307e-21
-1.32026e-21
-3.14203e-22
-6.72936e-23
-1.11281e-23
-5.94268e-25
-1.8504e-17
-2.68631e-16
-1.16757e-15
-3.71882e-15
-1.02521e-14
-2.60486e-14
-6.28441e-14
-1.46208e-13
-3.30704e-13
-7.30379e-13
-1.58042e-12
-3.36822e-12
-7.12194e-12
-1.50372e-11
-3.18092e-11
-6.72222e-11
-1.42062e-10
-2.98374e-10
-6.05404e-10
-1.23617e-09
-2.44259e-09
-4.77786e-09
-9.27791e-09
-1.82397e-08
-3.54241e-08
-6.95185e-08
-1.36021e-07
-2.57605e-07
-4.31629e-07
-5.87809e-07
-5.72011e-07
-3.57163e-07
-1.22661e-07
1.37913e-08
2.98616e-08
-4.01146e-08
-2.13969e-07
-5.04921e-07
-9.33459e-07
-1.48385e-06
-2.09867e-06
-2.62752e-06
-2.85111e-06
-2.50914e-06
-1.28328e-06
1.09406e-06
4.69061e-06
9.33471e-06
1.40462e-05
1.61583e-05
1.04576e-05
-9.63653e-06
-1.11826e-05
-6.2707e-06
-3.51041e-06
-1.94438e-06
-1.1062e-06
-6.98348e-07
-5.82124e-07
-5.32153e-07
-4.59745e-08
5.97129e-07
6.63982e-07
2.89704e-07
-1.96108e-07
-1.84574e-07
-7.86217e-08
-2.59975e-08
-1.12021e-08
-5.53286e-09
-2.82114e-09
-1.36079e-09
-6.24424e-10
-2.69245e-10
-1.09579e-10
-4.25292e-11
-1.58369e-11
-5.69924e-12
-1.98998e-12
-6.75489e-13
-2.23143e-13
-7.18624e-14
-2.25919e-14
-6.94275e-15
-2.08856e-15
-6.15908e-16
-1.78586e-16
-5.08234e-17
-1.42402e-17
-3.93349e-18
-1.07329e-18
-2.89027e-19
-7.68981e-20
-2.01754e-20
-5.1986e-21
-1.30248e-21
-3.10105e-22
-6.64337e-23
-1.09875e-23
-5.86814e-25
-1.82608e-17
-2.651e-16
-1.1522e-15
-3.66968e-15
-1.01158e-14
-2.56995e-14
-6.1993e-14
-1.44201e-13
-3.26081e-13
-7.19902e-13
-1.55693e-12
-3.31601e-12
-7.00663e-12
-1.47837e-11
-3.12542e-11
-6.60234e-11
-1.39498e-10
-2.92997e-10
-5.94566e-10
-1.21256e-09
-2.399e-09
-4.69307e-09
-9.1144e-09
-1.79415e-08
-3.48575e-08
-6.84024e-08
-1.34004e-07
-2.54668e-07
-4.29426e-07
-5.9021e-07
-5.8166e-07
-3.70551e-07
-1.48716e-07
8.51505e-09
2.76176e-08
-4.14425e-08
-2.16184e-07
-5.11728e-07
-9.44295e-07
-1.5019e-06
-2.12345e-06
-2.65521e-06
-2.87156e-06
-2.50471e-06
-1.22622e-06
1.23583e-06
4.93868e-06
9.68133e-06
1.4416e-05
1.63239e-05
1.0026e-05
-1.11003e-05
-1.07905e-05
-6.05043e-06
-3.38171e-06
-1.88154e-06
-1.0745e-06
-6.87597e-07
-5.87604e-07
-5.2288e-07
5.86496e-09
6.35634e-07
6.54219e-07
2.59213e-07
-2.1032e-07
-1.77609e-07
-7.30654e-08
-2.43386e-08
-1.07209e-08
-5.32144e-09
-2.71709e-09
-1.30973e-09
-5.99039e-10
-2.57552e-10
-1.0466e-10
-4.06153e-11
-1.51338e-11
-5.45286e-12
-1.90696e-12
-6.48558e-13
-2.14648e-13
-6.92597e-14
-2.18155e-14
-6.7167e-15
-2.02421e-15
-5.98071e-16
-1.73431e-16
-4.94358e-17
-1.38709e-17
-3.83608e-18
-1.04791e-18
-2.8239e-19
-7.51543e-20
-1.97267e-20
-5.08561e-21
-1.27483e-21
-3.0367e-22
-6.50829e-23
-1.07677e-23
-5.75199e-25
-1.8045e-17
-2.61968e-16
-1.13857e-15
-3.62618e-15
-9.99547e-15
-2.5392e-14
-6.12458e-14
-1.42446e-13
-3.22059e-13
-7.10837e-13
-1.53673e-12
-3.27137e-12
-6.90867e-12
-1.45698e-11
-3.07899e-11
-6.50315e-11
-1.3741e-10
-2.88712e-10
-5.86264e-10
-1.19433e-09
-2.3639e-09
-4.62805e-09
-8.98704e-09
-1.76935e-08
-3.43853e-08
-6.75435e-08
-1.32497e-07
-2.52511e-07
-4.27688e-07
-5.92127e-07
-5.89349e-07
-3.80523e-07
-1.53238e-07
5.30692e-09
2.61846e-08
-4.24936e-08
-2.18571e-07
-5.17132e-07
-9.55205e-07
-1.51992e-06
-2.14867e-06
-2.68277e-06
-2.89089e-06
-2.49796e-06
-1.16782e-06
1.37194e-06
5.16916e-06
1.00015e-05
1.47546e-05
1.64767e-05
9.56091e-06
-1.21903e-05
-1.04491e-05
-5.85839e-06
-3.27976e-06
-1.81047e-06
-1.0388e-06
-6.75098e-07
-5.90939e-07
-5.09721e-07
5.32732e-08
6.63486e-07
6.46158e-07
2.09972e-07
-2.19879e-07
-1.71012e-07
-6.8133e-08
-2.29791e-08
-1.02482e-08
-5.08278e-09
-2.59181e-09
-1.24904e-09
-5.70912e-10
-2.4546e-10
-9.9808e-11
-3.87845e-11
-1.44738e-11
-5.22386e-12
-1.83005e-12
-6.23513e-13
-2.06706e-13
-6.68056e-14
-2.10755e-14
-6.49856e-15
-1.96123e-15
-5.8036e-16
-1.68493e-16
-4.80805e-17
-1.35038e-17
-3.73784e-18
-1.022e-18
-2.75579e-19
-7.33791e-20
-1.92689e-20
-4.96931e-21
-1.24604e-21
-2.96881e-22
-6.36394e-23
-1.05302e-23
-5.62542e-25
-1.7857e-17
-2.59241e-16
-1.12672e-15
-3.58838e-15
-9.89102e-15
-2.51258e-14
-6.06005e-14
-1.40936e-13
-3.18612e-13
-7.03104e-13
-1.51958e-12
-3.23362e-12
-6.82604e-12
-1.43893e-11
-3.03962e-11
-6.41831e-11
-1.35593e-10
-2.84901e-10
-5.78524e-10
-1.17743e-09
-2.33311e-09
-4.57061e-09
-8.88409e-09
-1.75137e-08
-3.40479e-08
-6.69006e-08
-1.31368e-07
-2.50915e-07
-4.26521e-07
-5.93757e-07
-5.95054e-07
-3.8635e-07
-1.68968e-07
4.7241e-09
2.58194e-08
-4.32149e-08
-2.20834e-07
-5.2283e-07
-9.6522e-07
-1.53582e-06
-2.17031e-06
-2.70586e-06
-2.90617e-06
-2.48961e-06
-1.11449e-06
1.49161e-06
5.36343e-06
1.02431e-05
1.49589e-05
1.64878e-05
9.15986e-06
-1.34771e-05
-1.00996e-05
-5.66665e-06
-3.17429e-06
-1.75483e-06
-1.01122e-06
-6.66108e-07
-5.94423e-07
-4.97771e-07
9.64483e-08
6.91076e-07
6.40186e-07
1.6507e-07
-2.25816e-07
-1.64589e-07
-6.41676e-08
-2.18993e-08
-9.8456e-09
-4.89567e-09
-2.4945e-09
-1.2005e-09
-5.4822e-10
-2.35606e-10
-9.58098e-11
-3.72577e-11
-1.39162e-11
-5.02788e-12
-1.76325e-12
-6.0147e-13
-1.99626e-13
-6.45905e-14
-2.03994e-14
-6.29693e-15
-1.90237e-15
-5.6362e-16
-1.63786e-16
-4.67781e-17
-1.31486e-17
-3.64214e-18
-9.96431e-19
-2.68829e-19
-7.16156e-20
-1.88135e-20
-4.85352e-21
-1.21734e-21
-2.90105e-22
-6.21964e-23
-1.02924e-23
-5.49871e-25
-1.76962e-17
-2.56908e-16
-1.11658e-15
-3.55609e-15
-9.80193e-15
-2.48991e-14
-6.00526e-14
-1.39658e-13
-3.15709e-13
-6.96636e-13
-1.50537e-12
-3.20272e-12
-6.75922e-12
-1.42454e-11
-3.00818e-11
-6.35208e-11
-1.34227e-10
-2.82146e-10
-5.73007e-10
-1.16516e-09
-2.31023e-09
-4.52767e-09
-8.80536e-09
-1.73657e-08
-3.37807e-08
-6.64112e-08
-1.30521e-07
-2.49743e-07
-4.25801e-07
-5.95465e-07
-6.00416e-07
-3.92831e-07
-1.4847e-07
2.9727e-09
2.50147e-08
-4.40643e-08
-2.22948e-07
-5.27416e-07
-9.73625e-07
-1.54898e-06
-2.18798e-06
-2.72443e-06
-2.91795e-06
-2.48003e-06
-1.06408e-06
1.60129e-06
5.53645e-06
1.0459e-05
1.51372e-05
1.64652e-05
8.68767e-06
-1.43759e-05
-9.8381e-06
-5.51584e-06
-3.08368e-06
-1.71521e-06
-9.91118e-07
-6.6048e-07
-5.99159e-07
-4.87743e-07
1.29946e-07
7.07509e-07
6.32065e-07
1.23645e-07
-2.30054e-07
-1.60032e-07
-6.12118e-08
-2.10522e-08
-9.50854e-09
-4.73666e-09
-2.41563e-09
-1.1614e-09
-5.29876e-10
-2.276e-10
-9.25344e-11
-3.59947e-11
-1.34502e-11
-4.86251e-12
-1.706e-12
-5.82408e-13
-1.93446e-13
-6.26394e-14
-1.97985e-14
-6.11613e-15
-1.84914e-15
-5.48308e-16
-1.59449e-16
-4.55704e-17
-1.28175e-17
-3.55289e-18
-9.71826e-19
-2.6234e-19
-6.99216e-20
-1.83762e-20
-4.74238e-21
-1.1898e-21
-2.83603e-22
-6.08115e-23
-1.00642e-23
-5.37706e-25
-1.75604e-17
-2.54938e-16
-1.10803e-15
-3.52888e-15
-9.72696e-15
-2.47087e-14
-5.95937e-14
-1.38591e-13
-3.13295e-13
-6.91286e-13
-1.49368e-12
-3.17745e-12
-6.70493e-12
-1.41291e-11
-2.9828e-11
-6.2992e-11
-1.33116e-10
-2.79785e-10
-5.68243e-10
-1.15501e-09
-2.29109e-09
-4.49373e-09
-8.74477e-09
-1.72557e-08
-3.3577e-08
-6.60407e-08
-1.2989e-07
-2.4892e-07
-4.25428e-07
-5.97204e-07
-6.05632e-07
-4.00802e-07
-1.60484e-07
-9.15457e-10
2.34788e-08
-4.51501e-08
-2.24949e-07
-5.31318e-07
-9.80312e-07
-1.55881e-06
-2.20029e-06
-2.7363e-06
-2.92585e-06
-2.46435e-06
-1.0104e-06
1.70796e-06
5.70567e-06
1.06836e-05
1.53638e-05
1.65142e-05
8.21277e-06
-1.48667e-05
-9.63449e-06
-5.39859e-06
-3.01858e-06
-1.67636e-06
-9.71877e-07
-6.54753e-07
-6.01771e-07
-4.73605e-07
1.68386e-07
7.3039e-07
6.28505e-07
9.21558e-08
-2.32924e-07
-1.56362e-07
-5.88529e-08
-2.04039e-08
-9.2454e-09
-4.61973e-09
-2.35678e-09
-1.13342e-09
-5.15977e-10
-2.21306e-10
-8.98967e-11
-3.49601e-11
-1.30631e-11
-4.72347e-12
-1.65764e-12
-5.6614e-13
-1.88125e-13
-6.09453e-14
-1.92727e-14
-5.95679e-15
-1.80192e-15
-5.34616e-16
-1.55549e-16
-4.44783e-17
-1.25165e-17
-3.47129e-18
-9.49574e-19
-2.5644e-19
-6.83747e-20
-1.79755e-20
-4.64025e-21
-1.16444e-21
-2.77605e-22
-5.95324e-23
-9.85318e-24
-5.26458e-25
-1.7447e-17
-2.53295e-16
-1.1009e-15
-3.5062e-15
-9.66454e-15
-2.45504e-14
-5.92129e-14
-1.37708e-13
-3.11303e-13
-6.86885e-13
-1.48412e-12
-3.1569e-12
-6.66124e-12
-1.4037e-11
-2.96312e-11
-6.25809e-11
-1.32238e-10
-2.77986e-10
-5.64718e-10
-1.14724e-09
-2.27679e-09
-4.46776e-09
-8.69653e-09
-1.71666e-08
-3.34122e-08
-6.57431e-08
-1.29398e-07
-2.48295e-07
-4.25167e-07
-5.98381e-07
-6.08321e-07
-4.02147e-07
-1.7679e-07
1.96136e-11
2.3615e-08
-4.56423e-08
-2.26648e-07
-5.34862e-07
-9.86531e-07
-1.5683e-06
-2.21246e-06
-2.74855e-06
-2.93298e-06
-2.45632e-06
-9.76438e-07
1.7749e-06
5.80166e-06
1.07834e-05
1.54033e-05
1.63832e-05
7.83555e-06
-1.5386e-05
-9.4219e-06
-5.2833e-06
-2.9577e-06
-1.6385e-06
-9.53461e-07
-6.49114e-07
-6.03683e-07
-4.6323e-07
1.93472e-07
7.40442e-07
6.21107e-07
6.70042e-08
-2.35348e-07
-1.53332e-07
-5.69792e-08
-1.98791e-08
-9.03107e-09
-4.52387e-09
-2.30469e-09
-1.10706e-09
-5.03708e-10
-2.15915e-10
-8.76706e-11
-3.40913e-11
-1.27379e-11
-4.60628e-12
-1.61677e-12
-5.52324e-13
-1.83581e-13
-5.94906e-14
-1.88187e-14
-5.81849e-15
-1.76073e-15
-5.22614e-16
-1.52114e-16
-4.35123e-17
-1.22491e-17
-3.39847e-18
-9.29946e-19
-2.51214e-19
-6.69994e-20
-1.76182e-20
-4.54898e-21
-1.14173e-21
-2.72225e-22
-5.83839e-23
-9.66354e-24
-5.16336e-25
-1.73535e-17
-2.51939e-16
-1.09502e-15
-3.48749e-15
-9.61305e-15
-2.44199e-14
-5.88985e-14
-1.36978e-13
-3.09653e-13
-6.8323e-13
-1.47613e-12
-3.13962e-12
-6.6241e-12
-1.39575e-11
-2.94576e-11
-6.22059e-11
-1.31469e-10
-2.76452e-10
-5.61834e-10
-1.14101e-09
-2.26577e-09
-4.44757e-09
-8.66035e-09
-1.71016e-08
-3.32966e-08
-6.55348e-08
-1.29053e-07
-2.47856e-07
-4.2498e-07
-5.99158e-07
-6.09715e-07
-3.90714e-07
-1.44846e-07
4.47038e-10
2.362e-08
-4.61284e-08
-2.28171e-07
-5.3799e-07
-9.9192e-07
-1.57633e-06
-2.22242e-06
-2.75773e-06
-2.9362e-06
-2.44431e-06
-9.37863e-07
1.85012e-06
5.91521e-06
1.092e-05
1.55113e-05
1.63361e-05
7.46486e-06
-1.56178e-05
-9.26978e-06
-5.19787e-06
-2.90982e-06
-1.61232e-06
-9.40687e-07
-6.45682e-07
-6.05759e-07
-4.5491e-07
2.12047e-07
7.44999e-07
6.12156e-07
4.64736e-08
-2.37379e-07
-1.50759e-07
-5.54889e-08
-1.94632e-08
-8.86554e-09
-4.45093e-09
-2.26614e-09
-1.0875e-09
-4.94264e-10
-2.11654e-10
-8.58784e-11
-3.33834e-11
-1.24706e-11
-4.50932e-12
-1.58275e-12
-5.40758e-13
-1.79757e-13
-5.82606e-14
-1.84331e-14
-5.70049e-15
-1.72544e-15
-5.12288e-16
-1.49148e-16
-4.26757e-17
-1.20169e-17
-3.33504e-18
-9.12826e-19
-2.4665e-19
-6.5797e-20
-1.73055e-20
-4.469e-21
-1.12181e-21
-2.67505e-22
-5.73755e-23
-9.49698e-24
-5.07445e-25
-1.72778e-17
-2.50841e-16
-1.09025e-15
-3.47234e-15
-9.57138e-15
-2.43142e-14
-5.86444e-14
-1.36388e-13
-3.08321e-13
-6.80278e-13
-1.46968e-12
-3.12565e-12
-6.59407e-12
-1.38932e-11
-2.93172e-11
-6.19233e-11
-1.30902e-10
-2.75315e-10
-5.59614e-10
-1.13612e-09
-2.25668e-09
-4.43149e-09
-8.63181e-09
-1.70523e-08
-3.32103e-08
-6.53899e-08
-1.28831e-07
-2.47641e-07
-4.25179e-07
-6.00775e-07
-6.14102e-07
-4.04726e-07
-1.81343e-07
-1.68404e-09
2.26815e-08
-4.6908e-08
-2.29615e-07
-5.40698e-07
-9.96487e-07
-1.5831e-06
-2.23073e-06
-2.76519e-06
-2.93834e-06
-2.43426e-06
-9.07031e-07
1.90944e-06
6.00408e-06
1.10251e-05
1.55871e-05
1.62756e-05
7.12053e-06
-1.57359e-05
-9.17342e-06
-5.14309e-06
-2.87882e-06
-1.59611e-06
-9.32838e-07
-6.4415e-07
-6.07563e-07
-4.45219e-07
2.33286e-07
7.54037e-07
6.06537e-07
3.07308e-08
-2.3871e-07
-1.48562e-07
-5.42679e-08
-1.91278e-08
-8.73395e-09
-4.39333e-09
-2.23623e-09
-1.07212e-09
-4.86726e-10
-2.08222e-10
-8.44267e-11
-3.2807e-11
-1.22519e-11
-4.42962e-12
-1.55468e-12
-5.31176e-13
-1.76578e-13
-5.72343e-14
-1.81103e-14
-5.60141e-15
-1.69572e-15
-5.03568e-16
-1.46637e-16
-4.19658e-17
-1.18194e-17
-3.281e-18
-8.98218e-19
-2.4275e-19
-6.47685e-20
-1.70378e-20
-4.40049e-21
-1.10474e-21
-2.63457e-22
-5.65104e-23
-9.35407e-24
-4.99816e-25
-1.7218e-17
-2.49975e-16
-1.0865e-15
-3.46041e-15
-9.53858e-15
-2.42312e-14
-5.8445e-14
-1.35926e-13
-3.07279e-13
-6.77974e-13
-1.46465e-12
-3.11485e-12
-6.57114e-12
-1.3845e-11
-2.92133e-11
-6.17091e-11
-1.30454e-10
-2.74406e-10
-5.57844e-10
-1.13232e-09
-2.25014e-09
-4.41992e-09
-8.61164e-09
-1.70167e-08
-3.3149e-08
-6.52879e-08
-1.28679e-07
-2.47513e-07
-4.25376e-07
-6.01908e-07
-6.16341e-07
-4.15135e-07
-1.69279e-07
-4.47455e-09
2.14427e-08
-4.7808e-08
-2.31001e-07
-5.43104e-07
-1.00041e-06
-1.58865e-06
-2.23735e-06
-2.77064e-06
-2.93902e-06
-2.42407e-06
-8.78097e-07
1.96597e-06
6.09411e-06
1.11451e-05
1.57035e-05
1.62743e-05
6.76534e-06
-1.57965e-05
-9.13628e-06
-5.11751e-06
-2.86238e-06
-1.58703e-06
-9.28574e-07
-6.4408e-07
-6.09656e-07
-4.36529e-07
2.53124e-07
7.64375e-07
6.03631e-07
1.88457e-08
-2.39681e-07
-1.46725e-07
-5.3247e-08
-1.88518e-08
-8.62511e-09
-4.34651e-09
-2.21159e-09
-1.05947e-09
-4.80556e-10
-2.05436e-10
-8.32548e-11
-3.23429e-11
-1.20758e-11
-4.36528e-12
-1.53195e-12
-5.23391e-13
-1.73987e-13
-5.63955e-14
-1.78458e-14
-5.52002e-15
-1.67125e-15
-4.96375e-16
-1.44563e-16
-4.13783e-17
-1.16558e-17
-3.23616e-18
-8.86085e-19
-2.39508e-19
-6.39129e-20
-1.6815e-20
-4.34344e-21
-1.09052e-21
-2.60084e-22
-5.57896e-23
-9.23496e-24
-4.93456e-25
-1.71726e-17
-2.49317e-16
-1.08364e-15
-3.45135e-15
-9.51373e-15
-2.41684e-14
-5.82946e-14
-1.3558e-13
-3.06505e-13
-6.76281e-13
-1.46101e-12
-3.10708e-12
-6.55468e-12
-1.38098e-11
-2.91353e-11
-6.15433e-11
-1.30108e-10
-2.7371e-10
-5.56518e-10
-1.12942e-09
-2.24494e-09
-4.41082e-09
-8.59607e-09
-1.69903e-08
-3.31038e-08
-6.5212e-08
-1.28568e-07
-2.47419e-07
-4.255e-07
-6.02611e-07
-6.1764e-07
-4.16227e-07
-1.70876e-07
-4.59641e-09
2.13072e-08
-4.81649e-08
-2.31952e-07
-5.44958e-07
-1.00349e-06
-1.59304e-06
-2.2426e-06
-2.7751e-06
-2.94004e-06
-2.41734e-06
-8.58759e-07
2.00124e-06
6.14261e-06
1.11927e-05
1.57171e-05
1.61968e-05
6.56941e-06
-1.58187e-05
-9.06827e-06
-5.08201e-06
-2.84261e-06
-1.57918e-06
-9.25136e-07
-6.44185e-07
-6.11681e-07
-4.30745e-07
2.67468e-07
7.72192e-07
6.01782e-07
9.89389e-09
-2.40446e-07
-1.45284e-07
-5.24542e-08
-1.8642e-08
-8.54274e-09
-4.31109e-09
-2.19281e-09
-1.04998e-09
-4.75952e-10
-2.03334e-10
-8.23616e-11
-3.19863e-11
-1.19395e-11
-4.31517e-12
-1.51414e-12
-5.17268e-13
-1.71942e-13
-5.57318e-14
-1.7636e-14
-5.45538e-15
-1.65179e-15
-4.90646e-16
-1.42909e-16
-4.09096e-17
-1.15252e-17
-3.20035e-18
-8.76392e-19
-2.36918e-19
-6.32291e-20
-1.66368e-20
-4.29782e-21
-1.07915e-21
-2.57387e-22
-5.5213e-23
-9.13969e-24
-4.88369e-25
-1.71403e-17
-2.48849e-16
-1.08162e-15
-3.44494e-15
-9.49622e-15
-2.41244e-14
-5.819e-14
-1.3534e-13
-3.05968e-13
-6.75091e-13
-1.45839e-12
-3.10134e-12
-6.54214e-12
-1.37829e-11
-2.9077e-11
-6.14258e-11
-1.2987e-10
-2.73237e-10
-5.55611e-10
-1.12745e-09
-2.24145e-09
-4.40476e-09
-8.58572e-09
-1.69727e-08
-3.3074e-08
-6.51621e-08
-1.28492e-07
-2.47343e-07
-4.25523e-07
-6.02847e-07
-6.17662e-07
-4.14399e-07
-1.83544e-07
-2.326e-09
2.21536e-08
-4.80309e-08
-2.32464e-07
-5.46216e-07
-1.00566e-06
-1.59617e-06
-2.24623e-06
-2.77798e-06
-2.93999e-06
-2.41064e-06
-8.40417e-07
2.03673e-06
6.19826e-06
1.12641e-05
1.5779e-05
1.61763e-05
6.33848e-06
-1.58342e-05
-9.04918e-06
-5.06868e-06
-2.83486e-06
-1.57272e-06
-9.22342e-07
-6.44316e-07
-6.1357e-07
-4.27453e-07
2.7678e-07
7.77253e-07
6.00271e-07
3.29432e-09
-2.41077e-07
-1.4424e-07
-5.19175e-08
-1.84872e-08
-8.48273e-09
-4.28537e-09
-2.1793e-09
-1.04305e-09
-4.72529e-10
-2.01772e-10
-8.17008e-11
-3.17235e-11
-1.18396e-11
-4.27886e-12
-1.50135e-12
-5.12889e-13
-1.70481e-13
-5.52569e-14
-1.74855e-14
-5.40885e-15
-1.63773e-15
-4.86489e-16
-1.41703e-16
-4.05661e-17
-1.1429e-17
-3.17381e-18
-8.69176e-19
-2.34983e-19
-6.27173e-20
-1.65034e-20
-4.26363e-21
-1.07062e-21
-2.55364e-22
-5.47807e-23
-9.06827e-24
-4.84554e-25
-1.71195e-17
-2.48549e-16
-1.08032e-15
-3.44081e-15
-9.48486e-15
-2.40956e-14
-5.81203e-14
-1.35177e-13
-3.05595e-13
-6.7426e-13
-1.45657e-12
-3.09744e-12
-6.53392e-12
-1.37657e-11
-2.90399e-11
-6.13494e-11
-1.29717e-10
-2.72934e-10
-5.55045e-10
-1.12622e-09
-2.23929e-09
-4.40101e-09
-8.57931e-09
-1.69618e-08
-3.30557e-08
-6.51319e-08
-1.28448e-07
-2.47305e-07
-4.2548e-07
-6.03106e-07
-6.18052e-07
-4.14449e-07
-1.83553e-07
-1.90468e-09
2.23513e-08
-4.80668e-08
-2.32842e-07
-5.47047e-07
-1.00706e-06
-1.5983e-06
-2.24857e-06
-2.77985e-06
-2.93995e-06
-2.40637e-06
-8.2885e-07
2.05862e-06
6.2313e-06
1.13042e-05
1.58098e-05
1.61582e-05
6.2231e-06
-1.58323e-05
-9.02061e-06
-5.05211e-06
-2.82532e-06
-1.56806e-06
-9.20638e-07
-6.44651e-07
-6.15268e-07
-4.26883e-07
2.7898e-07
7.762e-07
5.97076e-07
-1.4796e-09
-2.41567e-07
-1.43554e-07
-5.15432e-08
-1.83855e-08
-8.44318e-09
-4.26855e-09
-2.1704e-09
-1.03848e-09
-4.70294e-10
-2.00746e-10
-8.12605e-11
-3.15474e-11
-1.17729e-11
-4.25443e-12
-1.4927e-12
-5.09928e-13
-1.69498e-13
-5.49391e-14
-1.73855e-14
-5.3781e-15
-1.62849e-15
-4.83773e-16
-1.40919e-16
-4.03439e-17
-1.1367e-17
-3.15678e-18
-8.64549e-19
-2.33739e-19
-6.23865e-20
-1.64166e-20
-4.24127e-21
-1.06502e-21
-2.5403e-22
-5.44948e-23
-9.02095e-24
-4.82026e-25
-1.71091e-17
-2.48398e-16
-1.07966e-15
-3.43873e-15
-9.47912e-15
-2.40811e-14
-5.80855e-14
-1.35097e-13
-3.05415e-13
-6.73864e-13
-1.45571e-12
-3.09559e-12
-6.53001e-12
-1.37575e-11
-2.9022e-11
-6.1313e-11
-1.29643e-10
-2.72789e-10
-5.54771e-10
-1.12562e-09
-2.23824e-09
-4.39919e-09
-8.57617e-09
-1.69564e-08
-3.30468e-08
-6.51174e-08
-1.28428e-07
-2.47295e-07
-4.25536e-07
-6.033e-07
-6.18404e-07
-4.14724e-07
-1.57309e-07
-1.90023e-09
2.22993e-08
-4.81678e-08
-2.33069e-07
-5.47467e-07
-1.00775e-06
-1.59929e-06
-2.24975e-06
-2.78093e-06
-2.94036e-06
-2.40543e-06
-8.26216e-07
2.06179e-06
6.23079e-06
1.12915e-05
1.57755e-05
1.61125e-05
6.26303e-06
-1.5789e-05
-8.97315e-06
-5.02774e-06
-2.80758e-06
-1.57265e-06
-9.22544e-07
-6.45817e-07
-6.16114e-07
-4.23905e-07
2.87257e-07
7.82797e-07
5.98402e-07
-3.27559e-09
-2.41617e-07
-1.4316e-07
-5.13452e-08
-1.83327e-08
-8.42317e-09
-4.26014e-09
-2.16606e-09
-1.03626e-09
-4.69204e-10
-2.00243e-10
-8.10402e-11
-3.1456e-11
-1.17367e-11
-4.24091e-12
-1.48786e-12
-5.08262e-13
-1.68943e-13
-5.47596e-14
-1.7329e-14
-5.36078e-15
-1.6233e-15
-4.82254e-16
-1.40483e-16
-4.02209e-17
-1.13329e-17
-3.1475e-18
-8.62053e-19
-2.33077e-19
-6.2213e-20
-1.63717e-20
-4.22983e-21
-1.06218e-21
-2.53358e-22
-5.43513e-23
-8.99725e-24
-4.8076e-25
-1.7109e-17
-2.48396e-16
-1.07965e-15
-3.43869e-15
-9.47902e-15
-2.40808e-14
-5.80848e-14
-1.35095e-13
-3.05412e-13
-6.73858e-13
-1.4557e-12
-3.09557e-12
-6.52997e-12
-1.37575e-11
-2.9022e-11
-6.13129e-11
-1.29643e-10
-2.72789e-10
-5.54772e-10
-1.12562e-09
-2.23824e-09
-4.3992e-09
-8.5762e-09
-1.69565e-08
-3.30473e-08
-6.51195e-08
-1.28436e-07
-2.47323e-07
-4.25659e-07
-6.03608e-07
-6.19462e-07
-4.17934e-07
-1.70841e-07
-4.63945e-09
2.12664e-08
-4.85833e-08
-2.33245e-07
-5.4752e-07
-1.00773e-06
-1.59911e-06
-2.24961e-06
-2.78068e-06
-2.93979e-06
-2.40407e-06
-8.23059e-07
2.06886e-06
6.24557e-06
1.13192e-05
1.58176e-05
1.6144e-05
6.18005e-06
-1.58208e-05
-9.00935e-06
-5.04598e-06
-2.82203e-06
-1.56686e-06
-9.2011e-07
-6.44849e-07
-6.15596e-07
-4.23725e-07
2.85361e-07
7.798e-07
5.96662e-07
-3.65458e-09
-2.41569e-07
-1.4312e-07
-5.13311e-08
-1.83287e-08
-8.42196e-09
-4.25972e-09
-2.16592e-09
-1.03621e-09
-4.69182e-10
-2.00231e-10
-8.1033e-11
-3.14523e-11
-1.17349e-11
-4.24014e-12
-1.48756e-12
-5.08153e-13
-1.68905e-13
-5.4747e-14
-1.7325e-14
-5.35956e-15
-1.62294e-15
-4.82151e-16
-1.40454e-16
-4.02131e-17
-1.13309e-17
-3.14698e-18
-8.61925e-19
-2.33046e-19
-6.22058e-20
-1.63701e-20
-4.22947e-21
-1.0621e-21
-2.53342e-22
-5.43482e-23
-8.99678e-24
-4.80737e-25
-1.71191e-17
-2.48542e-16
-1.08028e-15
-3.4407e-15
-9.48452e-15
-2.40947e-14
-5.81179e-14
-1.35172e-13
-3.05584e-13
-6.74237e-13
-1.45653e-12
-3.09736e-12
-6.53377e-12
-1.37655e-11
-2.90394e-11
-6.13488e-11
-1.29716e-10
-2.72934e-10
-5.55046e-10
-1.12622e-09
-2.23929e-09
-4.40104e-09
-8.57938e-09
-1.69621e-08
-3.3057e-08
-6.51366e-08
-1.28463e-07
-2.47353e-07
-4.25704e-07
-6.03478e-07
-6.19096e-07
-4.17082e-07
-1.7791e-07
-4.25969e-09
2.12999e-08
-4.85461e-08
-2.33058e-07
-5.47106e-07
-1.00703e-06
-1.59821e-06
-2.24846e-06
-2.77992e-06
-2.93983e-06
-2.40611e-06
-8.28393e-07
2.05899e-06
6.23084e-06
1.13014e-05
1.58035e-05
1.6151e-05
6.23511e-06
-1.5822e-05
-9.02556e-06
-5.05636e-06
-2.82835e-06
-1.56948e-06
-9.21058e-07
-6.44774e-07
-6.15039e-07
-4.24931e-07
2.82437e-07
7.78356e-07
5.97223e-07
-1.65053e-09
-2.41407e-07
-1.43461e-07
-5.15095e-08
-1.8376e-08
-8.44029e-09
-4.26752e-09
-2.17006e-09
-1.03834e-09
-4.70233e-10
-2.00717e-10
-8.12417e-11
-3.15356e-11
-1.17668e-11
-4.25185e-12
-1.49171e-12
-5.09571e-13
-1.69376e-13
-5.48997e-14
-1.73732e-14
-5.37439e-15
-1.6274e-15
-4.83466e-16
-1.40835e-16
-4.03211e-17
-1.13611e-17
-3.15529e-18
-8.64182e-19
-2.33652e-19
-6.23666e-20
-1.64121e-20
-4.24029e-21
-1.06481e-21
-2.53987e-22
-5.44866e-23
-9.01972e-24
-4.81963e-25
-1.71401e-17
-2.48847e-16
-1.08161e-15
-3.44489e-15
-9.49601e-15
-2.41237e-14
-5.81875e-14
-1.35332e-13
-3.05945e-13
-6.75034e-13
-1.45826e-12
-3.1011e-12
-6.54176e-12
-1.37825e-11
-2.90765e-11
-6.14255e-11
-1.29872e-10
-2.73242e-10
-5.55626e-10
-1.12748e-09
-2.24152e-09
-4.40491e-09
-8.58605e-09
-1.69734e-08
-3.30762e-08
-6.51685e-08
-1.2851e-07
-2.4739e-07
-4.25639e-07
-6.03143e-07
-6.18448e-07
-4.1637e-07
-1.78512e-07
-4.10513e-09
2.13566e-08
-4.8391e-08
-2.32605e-07
-5.46206e-07
-1.00553e-06
-1.59596e-06
-2.24599e-06
-2.77777e-06
-2.93975e-06
-2.41015e-06
-8.39309e-07
2.03864e-06
6.20067e-06
1.12662e-05
1.57793e-05
1.61741e-05
6.34898e-06
-1.58237e-05
-9.05128e-06
-5.07096e-06
-2.83658e-06
-1.5737e-06
-9.22875e-07
-6.44744e-07
-6.14065e-07
-4.2771e-07
2.75888e-07
7.75046e-07
5.98327e-07
2.53134e-09
-2.41012e-07
-1.44145e-07
-5.18767e-08
-1.84744e-08
-8.47836e-09
-4.28378e-09
-2.17866e-09
-1.04282e-09
-4.72467e-10
-2.01733e-10
-8.1675e-11
-3.17114e-11
-1.18345e-11
-4.27674e-12
-1.50054e-12
-5.12603e-13
-1.70387e-13
-5.52272e-14
-1.74766e-14
-5.40622e-15
-1.63698e-15
-4.86284e-16
-1.41648e-16
-4.05519e-17
-1.14254e-17
-3.17294e-18
-8.68963e-19
-2.34931e-19
-6.27042e-20
-1.65001e-20
-4.26282e-21
-1.07043e-21