/*--------------------------------*- C++ -*----------------------------------*\
  =========                 |
  \\      /  F ield         | OpenFOAM: The Open Source CFD Toolbox
   \\    /   O peration     | Website:  https://openfoam.org
    \\  /    A nd           | Version:  10
     \\/     M anipulation  |
\*---------------------------------------------------------------------------*/
FoamFile
{
    format      ascii;
    class       volScalarField;
    location    "1";
    object      RR.H2NO;
}
// * * * * * * * * * * * * * * * * * * * * * * * * * * * * * * * * * * * * * //

dimensions      [1 -3 -1 0 0 0 0];

internalField   nonuniform List<scalar> 
4000
(
-2.05753e-14
-2.94427e-13
-1.24219e-12
-3.77674e-12
-9.75943e-12
-2.27656e-11
-4.91608e-11
-9.89807e-11
-1.8448e-10
-3.09967e-10
-4.3723e-10
-3.91002e-10
3.74003e-10
3.29132e-09
1.16802e-08
3.21234e-08
7.59824e-08
1.56968e-07
2.72438e-07
4.00702e-07
4.63681e-07
4.51888e-07
6.11342e-07
1.50666e-06
3.54812e-06
6.50931e-06
9.65854e-06
1.23957e-05
1.39345e-05
1.42951e-05
1.33637e-05
1.13983e-05
8.82905e-06
5.76109e-06
2.39432e-06
-1.423e-06
-5.73399e-06
-1.02629e-05
-1.51754e-05
-2.00105e-05
-2.40113e-05
-2.58964e-05
-2.43264e-05
-1.80595e-05
-5.80576e-06
1.31337e-05
3.85963e-05
6.89442e-05
9.88002e-05
0.000114192
8.47203e-05
-2.64954e-05
-0.000113077
-6.36294e-05
-3.58621e-05
-2.03947e-05
-1.20423e-05
-8.36807e-06
-8.26156e-06
-1.13498e-05
-1.20803e-05
-2.01831e-06
1.16246e-05
1.62312e-05
9.27341e-06
2.29237e-07
1.40487e-06
-4.71953e-07
-8.35628e-07
-6.11814e-07
-3.72245e-07
-1.97259e-07
-9.46231e-08
-4.14968e-08
-1.68058e-08
-6.40853e-09
-2.32861e-09
-8.14331e-10
-2.75708e-10
-9.06574e-11
-2.90576e-11
-9.08205e-12
-2.77471e-12
-8.3104e-13
-2.43817e-13
-7.03931e-14
-2.00333e-14
-5.62461e-15
-1.56138e-15
-4.2955e-16
-1.16607e-16
-3.13521e-17
-8.34827e-18
-2.19737e-18
-5.69036e-19
-1.43464e-19
-3.44068e-20
-7.43741e-21
-1.24848e-21
-7.10532e-23
-2.03643e-14
-2.91393e-13
-1.22939e-12
-3.7384e-12
-9.66211e-12
-2.25387e-11
-4.86698e-11
-9.79815e-11
-1.82582e-10
-3.0676e-10
-4.33148e-10
-3.90738e-10
3.50902e-10
3.18303e-09
1.13315e-08
3.12098e-08
7.37639e-08
1.52358e-07
2.6564e-07
3.95187e-07
4.63238e-07
4.54808e-07
5.94944e-07
1.43723e-06
3.42298e-06
6.37252e-06
9.56262e-06
1.23831e-05
1.39943e-05
1.44202e-05
1.35347e-05
1.15831e-05
9.02228e-06
5.95424e-06
2.56428e-06
-1.28005e-06
-5.62905e-06
-1.02007e-05
-1.51811e-05
-2.00784e-05
-2.41341e-05
-2.60443e-05
-2.44255e-05
-1.80122e-05
-5.47884e-06
1.38874e-05
3.98776e-05
7.07241e-05
0.000100766
0.00011551
8.36071e-05
-3.25042e-05
-0.000111393
-6.26697e-05
-3.53158e-05
-2.00938e-05
-1.19573e-05
-8.42541e-06
-8.52096e-06
-1.18053e-05
-1.20668e-05
-1.04292e-06
1.26777e-05
1.66775e-05
8.75801e-06
-1.58697e-07
1.31186e-06
-5.4223e-07
-8.33672e-07
-5.96967e-07
-3.60266e-07
-1.90605e-07
-9.14596e-08
-4.01215e-08
-1.6376e-08
-6.29446e-09
-2.30689e-09
-8.13548e-10
-2.7767e-10
-9.19917e-11
-2.97038e-11
-9.35018e-12
-2.87855e-12
-8.67327e-13
-2.56907e-13
-7.47052e-14
-2.13703e-14
-6.01402e-15
-1.66811e-15
-4.56222e-16
-1.2393e-16
-3.3257e-17
-8.82796e-18
-2.31495e-18
-5.97047e-19
-1.49908e-19
-3.58142e-20
-7.7161e-21
-1.29197e-21
-7.33535e-23
-2.01597e-14
-2.88488e-13
-1.21731e-12
-3.70222e-12
-9.57059e-12
-2.2333e-11
-4.82231e-11
-9.704e-11
-1.80695e-10
-3.03316e-10
-4.28086e-10
-3.88159e-10
3.29873e-10
3.07218e-09
1.09567e-08
3.02039e-08
7.16248e-08
1.48081e-07
2.59055e-07
3.88691e-07
4.61647e-07
4.55459e-07
5.75544e-07
1.37299e-06
3.29895e-06
6.22455e-06
9.44138e-06
1.23401e-05
1.40441e-05
1.45654e-05
1.3769e-05
1.18698e-05
9.33452e-06
6.23658e-06
2.80992e-06
-1.08291e-06
-5.45025e-06
-1.01401e-05
-1.51955e-05
-2.01858e-05
-2.43293e-05
-2.62733e-05
-2.45911e-05
-1.79628e-05
-5.01392e-06
1.4946e-05
4.16051e-05
7.30333e-05
0.000103163
0.00011664
8.12265e-05
-4.34316e-05
-0.000108905
-6.1281e-05
-3.45437e-05
-1.96968e-05
-1.17792e-05
-8.48421e-06
-8.87196e-06
-1.23828e-05
-1.18931e-05
3.21474e-07
1.3916e-05
1.69797e-05
7.96994e-06
-6.81605e-07
1.13428e-06
-6.3184e-07
-8.32532e-07
-5.82302e-07
-3.48409e-07
-1.83637e-07
-8.8263e-08
-3.88837e-08
-1.59187e-08
-6.14936e-09
-2.26681e-09
-8.0459e-10
-2.76426e-10
-9.21085e-11
-2.99486e-11
-9.48939e-12
-2.93785e-12
-8.90018e-13
-2.64277e-13
-7.7036e-14
-2.2101e-14
-6.23907e-15
-1.73624e-15
-4.76778e-16
-1.2933e-16
-3.47243e-17
-9.21823e-18
-2.41566e-18
-6.22266e-19
-1.56e-19
-3.72083e-20
-8.00385e-21
-1.33833e-21
-7.5862e-23
-1.98763e-14
-2.84412e-13
-1.19989e-12
-3.64815e-12
-9.4264e-12
-2.1981e-11
-4.74303e-11
-9.53834e-11
-1.77525e-10
-2.98012e-10
-4.21364e-10
-3.86148e-10
3.05372e-10
2.95564e-09
1.05803e-08
2.92062e-08
6.93503e-08
1.44207e-07
2.54055e-07
3.83975e-07
4.61696e-07
4.59426e-07
5.62203e-07
1.30699e-06
3.17661e-06
6.07995e-06
9.32172e-06
1.22987e-05
1.41081e-05
1.47157e-05
1.40056e-05
1.21563e-05
9.62934e-06
6.52489e-06
3.07435e-06
-8.63136e-07
-5.247e-06
-1.00696e-05
-1.52243e-05
-2.03335e-05
-2.45661e-05
-2.65362e-05
-2.47526e-05
-1.78183e-05
-4.29276e-06
1.65169e-05
4.41517e-05
7.65246e-05
0.000106719
0.000118268
7.7386e-05
-5.48175e-05
-0.000106267
-5.9738e-05
-3.3657e-05
-1.92206e-05
-1.16068e-05
-8.58763e-06
-9.34651e-06
-1.3089e-05
-1.15156e-05
2.07433e-06
1.53227e-05
1.70324e-05
6.88401e-06
-2.55703e-07
8.66524e-07
-7.28564e-07
-8.3238e-07
-5.6689e-07
-3.35985e-07
-1.75866e-07
-8.36553e-08
-3.66296e-08
-1.4971e-08
-5.79727e-09
-2.14827e-09
-7.683e-10
-2.66533e-10
-8.99328e-11
-2.95114e-11
-9.41138e-12
-2.93121e-12
-8.92721e-13
-2.66251e-13
-7.79001e-14
-2.24184e-14
-6.34175e-15
-1.76772e-15
-4.86158e-16
-1.32118e-16
-3.5475e-17
-9.41561e-18
-2.46677e-18
-6.35244e-19
-1.59202e-19
-3.79606e-20
-8.16382e-21
-1.36486e-21
-7.73236e-23
-1.95963e-14
-2.80404e-13
-1.18296e-12
-3.59645e-12
-9.29173e-12
-2.16634e-11
-4.67358e-11
-9.39691e-11
-1.74876e-10
-2.9363e-10
-4.15728e-10
-3.8393e-10
2.86409e-10
2.86325e-09
1.02841e-08
2.84345e-08
6.76311e-08
1.40995e-07
2.4933e-07
3.79736e-07
4.616e-07
4.62204e-07
5.51579e-07
1.25287e-06
3.06888e-06
5.94336e-06
9.21497e-06
1.22679e-05
1.41584e-05
1.48749e-05
1.42409e-05
1.23733e-05
9.923e-06
6.81042e-06
3.33338e-06
-6.50223e-07
-5.07041e-06
-1.00099e-05
-1.52809e-05
-2.04959e-05
-2.48187e-05
-2.68068e-05
-2.49027e-05
-1.76375e-05
-3.50149e-06
1.81827e-05
4.67092e-05
7.98951e-05
0.000110146
0.00011968
7.35522e-05
-6.85556e-05
-0.000102869
-5.78557e-05
-3.26153e-05
-1.86727e-05
-1.14086e-05
-8.68332e-06
-9.80716e-06
-1.36631e-05
-1.09582e-05
3.69968e-06
1.64033e-05
1.67896e-05
5.7219e-06
6.64799e-07
5.93943e-07
-8.09547e-07
-8.29455e-07
-5.51476e-07
-3.23917e-07
-1.67923e-07
-7.96545e-08
-3.48683e-08
-1.42794e-08
-5.54919e-09
-2.06465e-09
-7.41356e-10
-2.58064e-10
-8.72657e-11
-2.87714e-11
-9.24124e-12
-2.89414e-12
-8.8527e-13
-2.64846e-13
-7.77339e-14
-2.24397e-14
-6.36309e-15
-1.77715e-15
-4.89503e-16
-1.33199e-16
-3.57903e-17
-9.50247e-18
-2.48974e-18
-6.41111e-19
-1.60647e-19
-3.82983e-20
-8.23523e-21
-1.37665e-21
-7.7974e-23
-1.93193e-14
-2.76438e-13
-1.16618e-12
-3.5452e-12
-9.15843e-12
-2.135e-11
-4.6054e-11
-9.25902e-11
-1.72316e-10
-2.89441e-10
-4.10412e-10
-3.81919e-10
2.68818e-10
2.77965e-09
1.00225e-08
2.77714e-08
6.62011e-08
1.38443e-07
2.45886e-07
3.7662e-07
4.61742e-07
4.64841e-07
5.44755e-07
1.2107e-06
2.97878e-06
5.83423e-06
9.12824e-06
1.22462e-05
1.42236e-05
1.50302e-05
1.44685e-05
1.26941e-05
1.01877e-05
7.07469e-06
3.57264e-06
-4.55204e-07
-4.92602e-06
-9.97223e-06
-1.53524e-05
-2.06729e-05
-2.50775e-05
-2.70803e-05
-2.50424e-05
-1.7442e-05
-2.7088e-06
1.98257e-05
4.93753e-05
8.34119e-05
0.000113657
0.000121061
6.91393e-05
-8.01028e-05
-9.97061e-05
-5.60604e-05
-3.16102e-05
-1.81339e-05
-1.12184e-05
-8.79841e-06
-1.03103e-05
-1.41524e-05
-1.00983e-05
5.46134e-06
1.73746e-05
1.64555e-05
4.76002e-06
1.20113e-06
3.75016e-07
-8.73451e-07
-8.22192e-07
-5.36465e-07
-3.11657e-07
-1.60714e-07
-7.60194e-08
-3.32458e-08
-1.36206e-08
-5.30175e-09
-1.97678e-09
-7.11603e-10
-2.48398e-10
-8.425e-11
-2.78079e-11
-8.94703e-12
-2.8103e-12
-8.63182e-13
-2.59728e-13
-7.65516e-14
-2.2174e-14
-6.30338e-15
-1.76396e-15
-4.86633e-16
-1.32598e-16
-3.56589e-17
-9.47135e-18
-2.48254e-18
-6.39453e-19
-1.60268e-19
-3.8214e-20
-8.2181e-21
-1.37394e-21
-7.78338e-23
-1.90584e-14
-2.72703e-13
-1.1504e-12
-3.49708e-12
-9.03355e-12
-2.10572e-11
-4.5419e-11
-9.13099e-11
-1.69943e-10
-2.85549e-10
-4.05385e-10
-3.79516e-10
2.54676e-10
2.70942e-09
9.80139e-09
2.72116e-08
6.49992e-08
1.36309e-07
2.43012e-07
3.74087e-07
4.62569e-07
4.68485e-07
5.40945e-07
1.17657e-06
2.90658e-06
5.74651e-06
9.06328e-06
1.22387e-05
1.42876e-05
1.51664e-05
1.46616e-05
1.29203e-05
1.03872e-05
7.29996e-06
3.77434e-06
-2.96079e-07
-4.8195e-06
-9.97373e-06
-1.54383e-05
-2.08518e-05
-2.53323e-05
-2.73301e-05
-2.51563e-05
-1.72322e-05
-1.93902e-06
2.13582e-05
5.1715e-05
8.6473e-05
0.000116713
0.000121797
6.46299e-05
-9.30886e-05
-9.61917e-05
-5.41009e-05
-3.05747e-05
-1.7482e-05
-1.09806e-05
-8.89048e-06
-1.07758e-05
-1.45353e-05
-9.435e-06
6.79386e-06
1.81311e-05
1.60685e-05
3.97299e-06
1.53057e-06
1.92806e-07
-9.12644e-07
-8.14267e-07
-5.23662e-07
-3.02405e-07
-1.55144e-07
-7.31295e-08
-3.19027e-08
-1.30567e-08
-5.08382e-09
-1.89743e-09
-6.841e-10
-2.39249e-10
-8.13285e-11
-2.69006e-11
-8.67315e-12
-2.72942e-12
-8.39537e-13
-2.52756e-13
-7.45887e-14
-2.16406e-14
-6.16192e-15
-1.72731e-15
-4.77314e-16
-1.30284e-16
-3.50945e-17
-9.33937e-18
-2.45114e-18
-6.31924e-19
-1.58475e-19
-3.78013e-20
-8.13147e-21
-1.35973e-21
-7.70613e-23
-1.88178e-14
-2.69259e-13
-1.13585e-12
-3.45271e-12
-8.91844e-12
-2.07876e-11
-4.48351e-11
-9.01345e-11
-1.67767e-10
-2.81975e-10
-4.00713e-10
-3.76956e-10
2.4322e-10
2.65032e-09
9.61456e-09
2.67396e-08
6.39892e-08
1.34524e-07
2.40647e-07
3.72007e-07
4.63715e-07
4.72986e-07
5.39335e-07
1.15118e-06
2.85189e-06
5.67814e-06
9.01421e-06
1.2242e-05
1.43535e-05
1.52877e-05
1.48311e-05
1.31196e-05
1.06195e-05
7.49781e-06
3.94679e-06
-1.63715e-07
-4.74511e-06
-9.97411e-06
-1.55325e-05
-2.10297e-05
-2.55583e-05
-2.75343e-05
-2.52251e-05
-1.70072e-05
-1.2105e-06
2.27831e-05
5.38971e-05
8.92127e-05
0.000119295
0.000122405
6.05536e-05
-0.00010403
-9.30119e-05
-5.23223e-05
-2.95505e-05
-1.70179e-05
-1.08148e-05
-8.99256e-06
-1.11949e-05
-1.48305e-05
-8.63469e-06
8.1682e-06
1.87573e-05
1.56592e-05
3.27126e-06
1.74515e-06
3.81411e-08
-9.41132e-07
-8.03731e-07
-5.11095e-07
-2.93769e-07
-1.50125e-07
-7.04504e-08
-3.06358e-08
-1.25186e-08
-4.8738e-09
-1.82016e-09
-6.57002e-10
-2.30113e-10
-7.83641e-11
-2.59652e-11
-8.38647e-12
-2.64389e-12
-8.14646e-13
-2.45675e-13
-7.26297e-14
-2.10723e-14
-6.00926e-15
-1.68676e-15
-4.66643e-16
-1.27511e-16
-3.43712e-17
-9.15e-18
-2.40254e-18
-6.19703e-19
-1.55487e-19
-3.7106e-20
-7.98536e-21
-1.33584e-21
-7.5764e-23
-1.86017e-14
-2.66167e-13
-1.12279e-12
-3.41292e-12
-8.81534e-12
-2.05464e-11
-4.43134e-11
-8.90854e-11
-1.65825e-10
-2.78775e-10
-3.96475e-10
-3.74356e-10
2.34158e-10
2.60123e-09
9.45799e-09
2.63438e-08
6.31479e-08
1.33067e-07
2.38856e-07
3.70527e-07
4.648e-07
4.76585e-07
5.38796e-07
1.13197e-06
2.80761e-06
5.62541e-06
8.98e-06
1.22509e-05
1.44132e-05
1.53937e-05
1.49807e-05
1.32939e-05
1.07916e-05
7.66178e-06
4.08891e-06
-6.30806e-08
-4.69598e-06
-9.99112e-06
-1.56258e-05
-2.11949e-05
-2.57747e-05
-2.77277e-05
-2.52826e-05
-1.67714e-05
-4.99347e-07
2.41104e-05
5.58791e-05
9.16976e-05
0.000121639
0.000122949
5.62461e-05
-0.000112153
-9.02785e-05
-5.07881e-05
-2.87517e-05
-1.64851e-05
-1.06147e-05
-9.075e-06
-1.15744e-05
-1.50182e-05
-7.85158e-06
9.23998e-06
1.92322e-05
1.50077e-05
2.65136e-06
1.88065e-06
-9.92963e-08
-9.59706e-07
-7.9019e-07
-4.96284e-07
-2.83475e-07
-1.44338e-07
-6.75765e-08
-2.93607e-08
-1.19988e-08
-4.676e-09
-1.74842e-09
-6.31995e-10
-2.21682e-10
-7.56089e-11
-2.50887e-11
-8.1149e-12
-2.56181e-12
-7.90402e-13
-2.38664e-13
-7.06567e-14
-2.05216e-14
-5.85797e-15
-1.64576e-15
-4.55662e-16
-1.24617e-16
-3.36102e-17
-8.95167e-18
-2.3514e-18
-6.06716e-19
-1.52272e-19
-3.63477e-20
-7.82393e-21
-1.30915e-21
-7.43003e-23
-1.84114e-14
-2.63444e-13
-1.11129e-12
-3.3779e-12
-8.72463e-12
-2.03343e-11
-4.38549e-11
-8.81636e-11
-1.64117e-10
-2.75949e-10
-3.92668e-10
-3.71707e-10
2.27496e-10
2.56207e-09
9.33088e-09
2.60204e-08
6.24539e-08
1.31854e-07
2.37275e-07
3.69251e-07
4.66222e-07
4.81046e-07
5.39745e-07
1.11732e-06
2.7744e-06
5.58585e-06
8.95642e-06
1.22623e-05
1.4472e-05
1.54891e-05
1.51074e-05
1.34345e-05
1.09755e-05
7.79452e-06
4.19914e-06
1.32128e-08
-4.66437e-06
-1.0014e-05
-1.57187e-05
-2.13474e-05
-2.59621e-05
-2.78852e-05
-2.5315e-05
-1.65415e-05
1.38941e-07
2.52656e-05
5.75134e-05
9.34781e-05
0.000122876
0.000122452
5.26409e-05
-0.000121552
-8.74245e-05
-4.92317e-05
-2.79102e-05
-1.60697e-05
-1.04665e-05
-9.15855e-06
-1.19022e-05
-1.51584e-05
-7.10237e-06
1.03038e-05
1.96384e-05
1.44247e-05
2.07988e-06
1.91367e-06
-2.11454e-07
-9.71403e-07
-7.78215e-07
-4.85295e-07
-2.75811e-07
-1.39857e-07
-6.53142e-08
-2.83396e-08
-1.15755e-08
-4.51222e-09
-1.68801e-09
-6.10593e-10
-2.14335e-10
-7.31713e-11
-2.43018e-11
-7.86769e-12
-2.48609e-12
-7.6775e-13
-2.32033e-13
-6.87682e-14
-1.99895e-14
-5.71054e-15
-1.60549e-15
-4.44806e-16
-1.21713e-16
-3.28431e-17
-8.75118e-18
-2.29961e-18
-5.93545e-19
-1.49007e-19
-3.55763e-20
-7.65938e-21
-1.2819e-21
-7.28041e-23
-1.82465e-14
-2.61085e-13
-1.10134e-12
-3.34759e-12
-8.64614e-12
-2.01509e-11
-4.34586e-11
-8.7367e-11
-1.62642e-10
-2.73504e-10
-3.89348e-10
-3.6923e-10
2.22598e-10
2.53138e-09
9.22844e-09
2.57639e-08
6.19252e-08
1.30983e-07
2.36204e-07
3.68446e-07
4.67449e-07
4.84629e-07
5.40882e-07
1.10645e-06
2.74839e-06
5.55555e-06
8.94012e-06
1.22765e-05
1.45214e-05
1.55713e-05
1.52159e-05
1.35551e-05
1.1036e-05
7.90032e-06
4.28423e-06
6.84749e-08
-4.64734e-06
-1.0044e-05
-1.57997e-05
-2.14741e-05
-2.61139e-05
-2.80072e-05
-2.5328e-05
-1.63175e-05
7.28817e-07
2.63071e-05
5.89507e-05
9.5054e-05
0.000123921
0.000121718
4.85358e-05
-0.000128071
-8.52917e-05
-4.80088e-05
-2.71876e-05
-1.57843e-05
-1.03775e-05
-9.26682e-06
-1.22347e-05
-1.53095e-05
-6.52812e-06
1.10515e-05
1.99259e-05
1.38686e-05
1.68807e-06
1.91845e-06
-2.93203e-07
-9.77206e-07
-7.66704e-07
-4.758e-07
-2.69658e-07
-1.36284e-07
-6.3494e-08
-2.75111e-08
-1.12281e-08
-4.37617e-09
-1.63722e-09
-5.924e-10
-2.07985e-10
-7.10434e-11
-2.36083e-11
-7.64768e-12
-2.41806e-12
-7.47213e-13
-2.2597e-13
-6.70204e-14
-1.94935e-14
-5.57219e-15
-1.56751e-15
-4.3456e-16
-1.18881e-16
-3.20959e-17
-8.55605e-18
-2.24923e-18
-5.80737e-19
-1.45832e-19
-3.48262e-20
-7.49933e-21
-1.25538e-21
-7.13476e-23
-1.81058e-14
-2.59071e-13
-1.09283e-12
-3.32171e-12
-8.57914e-12
-1.99944e-11
-4.31202e-11
-8.66865e-11
-1.61379e-10
-2.71401e-10
-3.86443e-10
-3.6684e-10
2.19373e-10
2.5082e-09
9.14942e-09
2.5569e-08
6.15186e-08
1.30263e-07
2.35286e-07
3.67847e-07
4.68692e-07
4.87854e-07
5.42174e-07
1.09844e-06
2.72878e-06
5.53303e-06
8.9296e-06
1.22912e-05
1.45645e-05
1.5641e-05
1.53073e-05
1.36582e-05
1.11462e-05
7.99003e-06
4.35277e-06
1.10531e-07
-4.63768e-06
-1.00737e-05
-1.58699e-05
-2.15734e-05
-2.62232e-05
-2.80872e-05
-2.53436e-05
-1.60433e-05
1.31278e-06
2.72901e-05
6.03557e-05
9.67592e-05
0.000125439
0.000121618
4.44058e-05
-0.00013163
-8.36604e-05
-4.70701e-05
-2.66762e-05
-1.55e-05
-1.02852e-05
-9.35299e-06
-1.25007e-05
-1.53334e-05
-5.7936e-06
1.19783e-05
2.03222e-05
1.34408e-05
1.37669e-06
1.90292e-06
-3.59591e-07
-9.81292e-07
-7.57465e-07
-4.68798e-07
-2.65012e-07
-1.33696e-07
-6.20941e-08
-2.68502e-08
-1.09445e-08
-4.26323e-09
-1.59448e-09
-5.76909e-10
-2.02555e-10
-6.9206e-11
-2.30041e-11
-7.45448e-12
-2.35787e-12
-7.28916e-13
-2.20534e-13
-6.54407e-14
-1.90427e-14
-5.44578e-15
-1.53263e-15
-4.25096e-16
-1.16296e-16
-3.14102e-17
-8.37617e-18
-2.20262e-18
-5.68855e-19
-1.4288e-19
-3.41276e-20
-7.35007e-21
-1.23063e-21
-6.99868e-23
-1.79869e-14
-2.57371e-13
-1.08566e-12
-3.29986e-12
-8.52256e-12
-1.98621e-11
-4.28342e-11
-8.61107e-11
-1.60307e-10
-2.69609e-10
-3.83937e-10
-3.64659e-10
2.17169e-10
2.49037e-09
9.08877e-09
2.54176e-08
6.11919e-08
1.29709e-07
2.34642e-07
3.67451e-07
4.69754e-07
4.90542e-07
5.43603e-07
1.09251e-06
2.71339e-06
5.51568e-06
8.9235e-06
1.23077e-05
1.46048e-05
1.57023e-05
1.53826e-05
1.37368e-05
1.12493e-05
8.05642e-06
4.40534e-06
1.41598e-07
-4.63552e-06
-1.01065e-05
-1.59372e-05
-2.16704e-05
-2.63307e-05
-2.81686e-05
-2.5348e-05
-1.58899e-05
1.68092e-06
2.78842e-05
6.10867e-05
9.73706e-05
0.000125411
0.000120179
4.12356e-05
-0.000135206
-8.18905e-05
-4.61186e-05
-2.61852e-05
-1.52141e-05
-1.01886e-05
-9.42108e-06
-1.27267e-05
-1.53813e-05
-5.32955e-06
1.25002e-05
2.04897e-05
1.3058e-05
1.12196e-06
1.87471e-06
-4.09877e-07
-9.83503e-07
-7.49367e-07
-4.62746e-07
-2.60702e-07
-1.31175e-07
-6.08323e-08
-2.62738e-08
-1.07011e-08
-4.1669e-09
-1.55804e-09
-5.63672e-10
-1.97908e-10
-6.76267e-11
-2.24823e-11
-7.28677e-12
-2.30537e-12
-7.12876e-13
-2.15746e-13
-6.40429e-14
-1.8642e-14
-5.33296e-15
-1.50137e-15
-4.16576e-16
-1.13998e-16
-3.0798e-17
-8.21502e-18
-2.16075e-18
-5.58154e-19
-1.40216e-19
-3.34962e-20
-7.21499e-21
-1.2082e-21
-6.87523e-23
-1.78879e-14
-2.55955e-13
-1.07967e-12
-3.28163e-12
-8.47531e-12
-1.97515e-11
-4.25946e-11
-8.56266e-11
-1.59402e-10
-2.68081e-10
-3.81767e-10
-3.62677e-10
2.15547e-10
2.4753e-09
9.03511e-09
2.52756e-08
6.08956e-08
1.29222e-07
2.34117e-07
3.67178e-07
4.70755e-07
4.93019e-07
5.45134e-07
1.08837e-06
2.70239e-06
5.50375e-06
8.92064e-06
1.23226e-05
1.46386e-05
1.57533e-05
1.54447e-05
1.37375e-05
1.12577e-05
8.10544e-06
4.44316e-06
1.61994e-07
-4.6393e-06
-1.0138e-05
-1.59961e-05
-2.17514e-05
-2.64142e-05
-2.82193e-05
-2.5316e-05
-1.57002e-05
2.09998e-06
2.85767e-05
6.20181e-05
9.83714e-05
0.000126041
0.000119473
3.81125e-05
-0.000136756
-8.06373e-05
-4.54178e-05
-2.58003e-05
-1.50205e-05
-1.01293e-05
-9.48812e-06
-1.29192e-05
-1.54271e-05
-4.99056e-06
1.28303e-05
2.05325e-05
1.27122e-05
9.11016e-07
1.84352e-06
-4.49983e-07
-9.85203e-07
-7.42964e-07
-4.58022e-07
-2.57414e-07
-1.29248e-07
-5.98352e-08
-2.58081e-08
-1.05014e-08
-4.08709e-09
-1.52764e-09
-5.52568e-10
-1.93992e-10
-6.62891e-11
-2.20384e-11
-7.14353e-12
-2.26034e-12
-6.99067e-13
-2.11608e-13
-6.28306e-14
-1.82934e-14
-5.23452e-15
-1.47403e-15
-4.09102e-16
-1.1198e-16
-3.02597e-17
-8.07319e-18
-2.12386e-18
-5.48717e-19
-1.37866e-19
-3.29386e-20
-7.09564e-21
-1.18838e-21
-6.76606e-23
-1.78069e-14
-2.54795e-13
-1.07478e-12
-3.2667e-12
-8.43661e-12
-1.96608e-11
-4.23978e-11
-8.52282e-11
-1.58654e-10
-2.66811e-10
-3.79939e-10
-3.60933e-10
2.14484e-10
2.4635e-09
8.99204e-09
2.51709e-08
6.06877e-08
1.28893e-07
2.3377e-07
3.67067e-07
4.71736e-07
4.9525e-07
5.46704e-07
1.08538e-06
2.69404e-06
5.49532e-06
8.92001e-06
1.23365e-05
1.46684e-05
1.57973e-05
1.55027e-05
1.38631e-05
1.13682e-05
8.15208e-06
4.47409e-06
1.75735e-07
-4.64562e-06
-1.01659e-05
-1.60453e-05
-2.18183e-05
-2.64828e-05
-2.826e-05
-2.52873e-05
-1.55483e-05
2.43007e-06
2.9118e-05
6.2741e-05
9.91294e-05
0.000126449
0.000118719
3.52482e-05
-0.00013749
-7.98318e-05
-4.49641e-05
-2.55506e-05
-1.49043e-05
-1.01025e-05
-9.55453e-06
-1.30741e-05
-1.54003e-05
-4.55226e-06
1.32838e-05
2.06463e-05
1.24398e-05
7.41557e-07
1.81103e-06
-4.82456e-07
-9.86258e-07
-7.37734e-07
-4.54183e-07
-2.54792e-07
-1.27694e-07
-5.90216e-08
-2.54259e-08
-1.0337e-08
-4.02117e-09
-1.50244e-09
-5.43337e-10
-1.90725e-10
-6.51702e-11
-2.1666e-11
-7.02302e-12
-2.22235e-12
-6.87387e-13
-2.081e-13
-6.18e-14
-1.79964e-14
-5.15047e-15
-1.45063e-15
-4.02697e-16
-1.10248e-16
-2.97973e-17
-7.95121e-18
-2.0921e-18
-5.4059e-19
-1.3584e-19
-3.24579e-20
-6.99272e-21
-1.17128e-21
-6.67184e-23
-1.77424e-14
-2.53872e-13
-1.07088e-12
-3.25481e-12
-8.40576e-12
-1.95885e-11
-4.22406e-11
-8.49093e-11
-1.58053e-10
-2.65781e-10
-3.78431e-10
-3.59392e-10
2.14092e-10
2.45558e-09
8.96238e-09
2.50963e-08
6.05301e-08
1.28633e-07
2.33487e-07
3.66965e-07
4.72499e-07
4.97001e-07
5.47948e-07
1.0833e-06
2.688e-06
5.48927e-06
8.92001e-06
1.23477e-05
1.46913e-05
1.58301e-05
1.554e-05
1.39084e-05
1.13799e-05
8.18706e-06
4.49822e-06
1.86107e-07
-4.65275e-06
-1.01917e-05
-1.60891e-05
-2.18739e-05
-2.65381e-05
-2.82869e-05
-2.52525e-05
-1.54026e-05
2.7402e-06
2.96446e-05
6.35036e-05
0.000100063
0.000127248
0.000118473
3.2298e-05
-0.000137907
-7.95219e-05
-4.47527e-05
-2.542e-05
-1.48437e-05
-1.00989e-05
-9.62078e-06
-1.32099e-05
-1.53621e-05
-4.12484e-06
1.37598e-05
2.08212e-05
1.22501e-05
6.1134e-07
1.78233e-06
-5.08542e-07
-9.86807e-07
-7.33247e-07
-4.50957e-07
-2.52565e-07
-1.26383e-07
-5.83429e-08
-2.51107e-08
-1.02025e-08
-3.96745e-09
-1.48193e-09
-5.35812e-10
-1.88057e-10
-6.42538e-11
-2.13603e-11
-6.92385e-12
-2.19103e-12
-6.77736e-13
-2.05195e-13
-6.09453e-14
-1.77497e-14
-5.08057e-15
-1.43116e-15
-3.97358e-16
-1.08803e-16
-2.94112e-17
-7.8493e-18
-2.06556e-18
-5.33794e-19
-1.34146e-19
-3.20557e-20
-6.90658e-21
-1.15697e-21
-6.59294e-23
-1.7693e-14
-2.53164e-13
-1.06789e-12
-3.24569e-12
-8.38209e-12
-1.9533e-11
-4.21201e-11
-8.46652e-11
-1.57594e-10
-2.64998e-10
-3.77278e-10
-3.58166e-10
2.14059e-10
2.45034e-09
8.94119e-09
2.504e-08
6.041e-08
1.28439e-07
2.33298e-07
3.66944e-07
4.73192e-07
4.98515e-07
5.49071e-07
1.08179e-06
2.68354e-06
5.48506e-06
8.921e-06
1.23578e-05
1.47106e-05
1.58567e-05
1.55715e-05
1.394e-05
1.14104e-05
8.21097e-06
4.51445e-06
1.91607e-07
-4.6605e-06
-1.02135e-05
-1.61242e-05
-2.19179e-05
-2.65814e-05
-2.83092e-05
-2.52295e-05
-1.53011e-05
2.94786e-06
2.99639e-05
6.38854e-05
0.000100371
0.000127215
0.000117701
3.07019e-05
-0.000137915
-7.89342e-05
-4.44489e-05
-2.52563e-05
-1.47888e-05
-1.00956e-05
-9.67601e-06
-1.3324e-05
-1.53539e-05
-3.81908e-06
1.41278e-05
2.09867e-05
1.21236e-05
5.16567e-07
1.75877e-06
-5.29048e-07
-9.87078e-07
-7.29721e-07
-4.48445e-07
-2.50829e-07
-1.25384e-07
-5.78286e-08
-2.48697e-08
-1.00988e-08
-3.92577e-09
-1.46593e-09
-5.29906e-10
-1.85952e-10
-6.35285e-11
-2.11176e-11
-6.84495e-12
-2.16606e-12
-6.70034e-13
-2.02874e-13
-6.02618e-14
-1.75523e-14
-5.02459e-15
-1.41555e-15
-3.93079e-16
-1.07645e-16
-2.91016e-17
-7.76758e-18
-2.04427e-18
-5.28341e-19
-1.32786e-19
-3.17329e-20
-6.83746e-21
-1.14548e-21
-6.52958e-23
-1.76575e-14
-2.52656e-13
-1.06574e-12
-3.23918e-12
-8.36526e-12
-1.94938e-11
-4.20355e-11
-8.44943e-11
-1.57273e-10
-2.64441e-10
-3.76438e-10
-3.5724e-10
2.14058e-10
2.44629e-09
8.92496e-09
2.49994e-08
6.03277e-08
1.28311e-07
2.33177e-07
3.66944e-07
4.73693e-07
4.99592e-07
5.49909e-07
1.08086e-06
2.68064e-06
5.48247e-06
8.92212e-06
1.23653e-05
1.47246e-05
1.58761e-05
1.55936e-05
1.39607e-05
1.14564e-05
8.22498e-06
4.52447e-06
1.94701e-07
-4.6666e-06
-1.02293e-05
-1.6149e-05
-2.19492e-05
-2.66098e-05
-2.83194e-05
-2.52008e-05
-1.52027e-05
3.15144e-06
3.03039e-05
6.43648e-05
0.000100925
0.000127617
0.00011738
2.88106e-05
-0.000137992
-7.87636e-05
-4.4333e-05
-2.51927e-05
-1.47433e-05
-1.00925e-05
-9.72055e-06
-1.34192e-05
-1.53724e-05
-3.62784e-06
1.43801e-05
2.11142e-05
1.20408e-05
4.51509e-07
1.74184e-06
-5.41077e-07
-9.86922e-07
-7.2707e-07
-4.46583e-07
-2.49558e-07
-1.24642e-07
-5.74417e-08
-2.4689e-08
-1.00215e-08
-3.89483e-09
-1.45412e-09
-5.256e-10
-1.84432e-10
-6.30071e-11
-2.09434e-11
-6.78826e-12
-2.14808e-12
-6.6447e-13
-2.01192e-13
-5.97642e-14
-1.74079e-14
-4.98343e-15
-1.40402e-15
-3.899e-16
-1.0678e-16
-2.88698e-17
-7.70625e-18
-2.02828e-18
-5.24244e-19
-1.31764e-19
-3.14903e-20
-6.7855e-21
-1.13685e-21
-6.48197e-23
-1.76346e-14
-2.52329e-13
-1.06436e-12
-3.23496e-12
-8.3543e-12
-1.94679e-11
-4.19788e-11
-8.43774e-11
-1.57047e-10
-2.64045e-10
-3.75839e-10
-3.56577e-10
2.1411e-10
2.44378e-09
8.91471e-09
2.49731e-08
6.02743e-08
1.28228e-07
2.33104e-07
3.66954e-07
4.74027e-07
5.00296e-07
5.50469e-07
1.0803e-06
2.67884e-06
5.48087e-06
8.92285e-06
1.237e-05
1.47262e-05
1.58883e-05
1.5608e-05
1.39749e-05
1.14707e-05
8.23474e-06
4.53081e-06
1.96318e-07
-4.671e-06
-1.02401e-05
-1.61658e-05
-2.19726e-05
-2.66289e-05
-2.83269e-05
-2.51831e-05
-1.51406e-05
3.27862e-06
3.05117e-05
6.46472e-05
0.000101233
0.000127811
0.000117159
2.78729e-05
-0.000137914
-7.85134e-05
-4.41893e-05
-2.51127e-05
-1.47096e-05
-1.0092e-05
-9.75354e-06
-1.34907e-05
-1.5418e-05
-3.59682e-06
1.44137e-05
2.11129e-05
1.19638e-05
4.06446e-07
1.73033e-06
-5.5003e-07
-9.86812e-07
-7.25301e-07
-4.45349e-07
-2.48711e-07
-1.24149e-07
-5.71873e-08
-2.45695e-08
-9.96969e-09
-3.87399e-09
-1.4462e-09
-5.22691e-10
-1.834e-10
-6.26534e-11
-2.08258e-11
-6.75022e-12
-2.1361e-12
-6.60785e-13
-2.00084e-13
-5.94383e-14
-1.73138e-14
-4.95677e-15
-1.39658e-15
-3.87856e-16
-1.06225e-16
-2.87204e-17
-7.66654e-18
-2.01786e-18
-5.2156e-19
-1.31092e-19
-3.133e-20
-6.75108e-21
-1.13112e-21
-6.45036e-23
-1.76231e-14
-2.52164e-13
-1.06366e-12
-3.23282e-12
-8.34873e-12
-1.94548e-11
-4.19501e-11
-8.43188e-11
-1.56936e-10
-2.63853e-10
-3.75547e-10
-3.56247e-10
2.14168e-10
2.44264e-09
8.90995e-09
2.49609e-08
6.02494e-08
1.28191e-07
2.33074e-07
3.66967e-07
4.74203e-07
5.00656e-07
5.5076e-07
1.08004e-06
2.67795e-06
5.48006e-06
8.92316e-06
1.23719e-05
1.4729e-05
1.58941e-05
1.56149e-05
1.39812e-05
1.14307e-05
8.2385e-06
4.53353e-06
1.96985e-07
-4.6732e-06
-1.02454e-05
-1.61743e-05
-2.19836e-05
-2.66403e-05
-2.8335e-05
-2.51828e-05
-1.51276e-05
3.30289e-06
3.05311e-05
6.4621e-05
0.000101094
0.000127501
0.000116801
2.82274e-05
-0.000137465
-7.81004e-05
-4.39788e-05
-2.4963e-05
-1.47487e-05
-1.01133e-05
-9.77623e-06
-1.35201e-05
-1.53815e-05
-3.40098e-06
1.46564e-05
2.12304e-05
1.19461e-05
3.85203e-07
1.72307e-06
-5.54878e-07
-9.86813e-07
-7.2444e-07
-4.4474e-07
-2.48297e-07
-1.23909e-07
-5.70628e-08
-2.45108e-08
-9.94368e-09
-3.86315e-09
-1.44189e-09
-5.21078e-10
-1.82822e-10
-6.24541e-11
-2.07593e-11
-6.72871e-12
-2.12933e-12
-6.58707e-13
-1.99461e-13
-5.9256e-14
-1.72614e-14
-4.942e-15
-1.39249e-15
-3.8674e-16
-1.05925e-16
-2.86409e-17
-7.6457e-18
-2.01247e-18
-5.20186e-19
-1.3075e-19
-3.12492e-20
-6.73378e-21
-1.12824e-21
-6.43447e-23
-1.76229e-14
-2.52161e-13
-1.06365e-12
-3.23278e-12
-8.34862e-12
-1.94545e-11
-4.19494e-11
-8.43173e-11
-1.56933e-10
-2.63847e-10
-3.75537e-10
-3.56229e-10
2.142e-10
2.4427e-09
8.91006e-09
2.49611e-08
6.025e-08
1.28192e-07
2.33077e-07
3.66973e-07
4.74212e-07
5.00669e-07
5.50776e-07
1.08007e-06
2.67804e-06
5.48026e-06
8.92348e-06
1.23725e-05
1.47293e-05
1.58946e-05
1.56161e-05
1.3985e-05
1.14493e-05
8.24272e-06
4.53519e-06
1.97834e-07
-4.67248e-06
-1.02446e-05
-1.61731e-05
-2.19797e-05
-2.66382e-05
-2.83321e-05
-2.51765e-05
-1.51133e-05
3.335e-06
3.06001e-05
6.4758e-05
0.000101338
0.000127845
0.000117017
2.7536e-05
-0.000137798
-7.84125e-05
-4.4135e-05
-2.50848e-05
-1.47018e-05
-1.00939e-05
-9.76916e-06
-1.35158e-05
-1.53791e-05
-3.44164e-06
1.45721e-05
2.11635e-05
1.19198e-05
3.8019e-07
1.72126e-06
-5.55289e-07
-9.86804e-07
-7.24405e-07
-4.44718e-07
-2.48288e-07
-1.23904e-07
-5.70605e-08
-2.45094e-08
-9.94286e-09
-3.86271e-09
-1.44168e-09
-5.20988e-10
-1.82787e-10
-6.24411e-11
-2.07548e-11
-6.72721e-12
-2.12885e-12
-6.58561e-13
-1.99418e-13
-5.92436e-14
-1.7258e-14
-4.94107e-15
-1.39225e-15
-3.86678e-16
-1.0591e-16
-2.86372e-17
-7.64484e-18
-2.01227e-18
-5.20142e-19
-1.30741e-19
-3.12472e-20
-6.73341e-21
-1.12819e-21
-6.43417e-23
-1.76341e-14
-2.52321e-13
-1.06433e-12
-3.23484e-12
-8.35394e-12
-1.9467e-11
-4.19764e-11
-8.43723e-11
-1.57037e-10
-2.64027e-10
-3.75806e-10
-3.56522e-10
2.14197e-10
2.44392e-09
8.91494e-09
2.49735e-08
6.02756e-08
1.28231e-07
2.33113e-07
3.6697e-07
4.74055e-07
5.00334e-07
5.50511e-07
1.08036e-06
2.67896e-06
5.48113e-06
8.92329e-06
1.23707e-05
1.47341e-05
1.58889e-05
1.56089e-05
1.39775e-05
1.14541e-05
8.23776e-06
4.53222e-06
1.97274e-07
-4.66994e-06
-1.02388e-05
-1.61643e-05
-2.19714e-05
-2.66287e-05
-2.83308e-05
-2.51854e-05
-1.51434e-05
3.27479e-06
3.05033e-05
6.46273e-05
0.000101194
0.000127749
0.000117106
2.79925e-05
-0.000137832
-7.8552e-05
-4.42237e-05
-2.51376e-05
-1.47213e-05
-1.00957e-05
-9.75514e-06
-1.34872e-05
-1.53778e-05
-3.50357e-06
1.44961e-05
2.11279e-05
1.1948e-05
4.01088e-07
1.72677e-06
-5.51026e-07
-9.86815e-07
-7.2522e-07
-4.4529e-07
-2.48684e-07
-1.24135e-07
-5.71807e-08
-2.45663e-08
-9.96751e-09
-3.87261e-09
-1.44548e-09
-5.22385e-10
-1.83282e-10
-6.2611e-11
-2.08114e-11
-6.74554e-12
-2.13464e-12
-6.60343e-13
-1.99955e-13
-5.94017e-14
-1.73037e-14
-4.95406e-15
-1.39588e-15
-3.87677e-16
-1.06181e-16
-2.871e-17
-7.66415e-18
-2.01733e-18
-5.21442e-19
-1.31066e-19
-3.13248e-20
-6.75009e-21
-1.13097e-21
-6.44952e-23
-1.76573e-14
-2.52653e-13
-1.06573e-12
-3.23912e-12
-8.36504e-12
-1.9493e-11
-4.20331e-11
-8.44876e-11
-1.57256e-10
-2.64405e-10
-3.76373e-10
-3.57143e-10
2.14172e-10
2.44643e-09
8.92518e-09
2.5e-08
6.033e-08
1.28316e-07
2.3319e-07
3.66965e-07
4.73723e-07
4.99625e-07
5.49938e-07
1.08091e-06
2.68076e-06
5.48269e-06
8.92238e-06
1.23656e-05
1.47248e-05
1.58761e-05
1.5594e-05
1.39623e-05
1.14421e-05
8.22682e-06
4.5252e-06
1.95321e-07
-4.6655e-06
-1.02276e-05
-1.61467e-05
-2.19468e-05
-2.66082e-05
-2.83191e-05
-2.52011e-05
-1.52015e-05
3.15642e-06
3.03129e-05
6.43747e-05
0.000100932
0.000127615
0.000117373
2.89216e-05
-0.000137903
-7.87766e-05
-4.43499e-05
-2.52062e-05
-1.47516e-05
-1.00984e-05
-9.72794e-06
-1.3431e-05
-1.53807e-05
-3.64236e-06
1.43326e-05
2.10557e-05
1.20064e-05
4.44201e-07
1.7381e-06
-5.42133e-07
-9.86858e-07
-7.26907e-07
-4.46479e-07
-2.49501e-07
-1.24618e-07
-5.74351e-08
-2.46846e-08
-1.00185e-08
-3.89341e-09
-1.45352e-09
-5.2535e-10
-1.84336e-10
-6.29733e-11
-2.09323e-11
-6.78474e-12
-2.14702e-12
-6.64158e-13
-2.01103e-13
-5.97398e-14
-1.74014e-14
-4.98174e-15
-1.4036e-15
-3.89795e-16
-1.06755e-16
-2.88635e-17
-7.70467e-18
-2.02788e-18
-5.24147e-19
-1.31741e-19
-3.1485e-20
-6.78439e-21
-1.13667e-21
-6.481e-23
-1.76931e-14
-2.53166e-13
-1.0679e-12
-3.24573e-12
-8.3822e-12
-1.95333e-11
-4.21206e-11
-8.46655e-11
-1.57592e-10
-2.64986e-10
-3.7724e-10
-3.58081e-10
2.1418e-10
2.45036e-09
8.9409e-09
2.504e-08
6.04128e-08
1.28447e-07
2.33313e-07
3.66967e-07
4.73225e-07
4.98549e-07
5.49099e-07
1.08183e-06
2.68365e-06
5.48527e-06
8.92126e-06
1.23579e-05
1.47105e-05
1.58564e-05
1.55709e-05
1.39393e-05
1.1409e-05
8.21033e-06
4.51392e-06
1.91597e-07
-4.65959e-06
-1.02115e-05
-1.6121e-05
-2.19138e-05
-2.65771e-05
-2.8305e-05