/*--------------------------------*- C++ -*----------------------------------*\
  =========                 |
  \\      /  F ield         | OpenFOAM: The Open Source CFD Toolbox
   \\    /   O peration     | Website:  https://openfoam.org
    \\  /    A nd           | Version:  10
     \\/     M anipulation  |
\*---------------------------------------------------------------------------*/
FoamFile
{
    format      ascii;
    class       volScalarField;
    location    "1";
    object      RR.HNO3;
}
// * * * * * * * * * * * * * * * * * * * * * * * * * * * * * * * * * * * * * //

dimensions      [1 -3 -1 0 0 0 0];

internalField   nonuniform List<scalar> 
4000
(
5.27156e-16
7.50482e-15
3.25309e-14
1.03479e-13
2.84686e-13
7.20281e-13
1.7237e-12
3.95336e-12
8.7344e-12
1.85989e-11
3.81249e-11
7.52049e-11
1.42846e-10
2.61254e-10
4.59209e-10
7.71245e-10
1.23634e-09
1.87852e-09
2.65395e-09
3.54845e-09
4.37541e-09
4.99655e-09
5.26596e-09
5.11653e-09
4.63069e-09
3.95803e-09
3.23289e-09
2.48642e-09
1.54256e-09
-1.84877e-10
-3.35022e-09
-7.09629e-09
-8.0976e-09
-5.34712e-09
-2.70315e-09
-1.24686e-09
-6.29908e-10
-3.9551e-10
-3.9122e-10
-5.73027e-10
-1.00183e-09
-1.82979e-09
-3.33692e-09
-6.02358e-09
-1.08469e-08
-1.93057e-08
-3.38857e-08
-5.88571e-08
-1.01642e-07
-1.74702e-07
-2.99536e-07
-5.14758e-07
-8.93486e-07
-1.57003e-06
-2.80668e-06
-5.12392e-06
-9.63568e-06
-1.84417e-05
-3.63298e-05
-7.37729e-05
-0.0001545
-0.000329266
-0.000691592
-0.00126928
-0.000799285
0.00129074
0.00139599
0.000744589
0.000290563
8.89599e-05
2.2379e-05
4.52517e-06
7.31451e-07
9.46394e-08
1.05477e-08
1.1362e-09
1.13893e-10
1.14744e-11
1.25557e-12
1.61124e-13
2.5711e-14
5.16519e-15
1.25401e-15
3.40772e-16
9.71944e-17
2.7966e-17
7.98476e-18
2.24826e-18
6.2457e-19
1.71375e-19
4.65059e-20
1.24629e-20
3.31517e-21
8.69628e-22
2.2283e-22
5.80845e-23
1.31316e-23
3.10987e-24
4.22735e-25
3.11995e-26
5.22777e-16
7.4426e-15
3.22621e-14
1.02644e-13
2.82462e-13
7.14784e-13
1.71073e-12
3.9235e-12
8.66633e-12
1.84447e-11
3.77784e-11
7.44452e-11
1.41216e-10
2.58003e-10
4.53287e-10
7.61379e-10
1.22025e-09
1.85479e-09
2.62563e-09
3.52392e-09
4.36098e-09
5.00115e-09
5.29747e-09
5.17267e-09
4.70196e-09
4.03082e-09
3.30056e-09
2.54573e-09
1.61267e-09
-7.7914e-11
-3.20795e-09
-7.00887e-09
-8.19815e-09
-5.51352e-09
-2.79841e-09
-1.28936e-09
-6.51399e-10
-4.08811e-10
-4.04286e-10
-5.92337e-10
-1.03629e-09
-1.89415e-09
-3.45484e-09
-6.24267e-09
-1.12512e-08
-2.00453e-08
-3.52046e-08
-6.11763e-08
-1.05684e-07
-1.81747e-07
-3.12084e-07
-5.37549e-07
-9.34937e-07
-1.64488e-06
-2.94548e-06
-5.38784e-06
-1.01243e-05
-1.94591e-05
-3.84968e-05
-7.84014e-05
-0.000165343
-0.000352158
-0.000736745
-0.00132085
-0.00063467
0.0013854
0.00136227
0.000705373
0.000269396
8.0765e-05
1.99144e-05
3.97387e-06
6.33596e-07
8.07362e-08
8.99864e-09
9.69212e-10
9.75769e-11
9.90141e-12
1.09455e-12
1.4245e-13
2.3194e-14
4.77899e-15
1.18974e-15
3.31016e-16
9.60955e-17
2.8048e-17
8.09876e-18
2.29805e-18
6.41386e-19
1.7614e-19
4.78658e-20
1.28623e-20
3.39671e-21
8.99887e-22
2.28359e-22
5.76933e-23
1.39072e-23
2.85085e-24
4.33764e-25
5.18216e-26
5.19418e-16
7.39653e-15
3.20708e-14
1.02064e-13
2.80952e-13
7.11185e-13
1.70225e-12
3.90308e-12
8.61622e-12
1.83206e-11
3.74711e-11
7.36896e-11
1.39571e-10
2.54708e-10
4.47163e-10
7.5104e-10
1.20511e-09
1.83296e-09
2.5988e-09
3.49815e-09
4.3464e-09
5.00842e-09
5.33372e-09
5.23453e-09
4.77943e-09
4.11217e-09
3.37755e-09
2.62e-09
1.70244e-09
6.22948e-11
-3.00787e-09
-6.88501e-09
-8.33097e-09
-5.75094e-09
-2.93838e-09
-1.35208e-09
-6.74927e-10
-4.28153e-10
-4.23628e-10
-6.22516e-10
-1.09053e-09
-1.99293e-09
-3.63593e-09
-6.57753e-09
-1.18579e-08
-2.11227e-08
-3.70906e-08
-6.44674e-08
-1.11447e-07
-1.9182e-07
-3.29347e-07
-5.7163e-07
-9.92566e-07
-1.74834e-06
-3.13553e-06
-5.74422e-06
-1.08432e-05
-2.08621e-05
-4.13106e-05
-8.42305e-05
-0.000179667
-0.000382024
-0.000794361
-0.00137262
-0.000405247
0.00147997
0.00130794
0.000653325
0.000242953
7.11526e-05
1.72078e-05
3.3832e-06
5.32753e-07
6.76233e-08
7.54665e-09
8.14278e-10
8.2327e-11
8.41425e-12
9.39834e-13
1.23494e-13
2.04818e-14
4.33077e-15
1.10948e-15
3.16213e-16
9.35644e-17
2.76814e-17
8.07202e-18
2.30734e-18
6.47576e-19
1.78813e-19
4.86868e-20
1.30659e-20
3.48112e-21
9.10093e-22
2.34626e-22
5.92685e-23
1.48331e-23
3.1646e-24
4.89862e-25
3.79187e-26
5.14116e-16
7.32154e-15
3.17427e-14
1.01003e-13
2.77954e-13
7.03306e-13
1.6826e-12
3.856e-12
8.50738e-12
1.80782e-11
3.69551e-11
7.26564e-11
1.37559e-10
2.50953e-10
4.40538e-10
7.402e-10
1.1888e-09
1.8128e-09
2.57696e-09
3.47757e-09
4.33724e-09
5.02141e-09
5.37391e-09
5.30077e-09
4.85798e-09
4.19329e-09
3.45785e-09
2.69672e-09
1.79162e-09
1.94765e-10
-2.82153e-09
-6.76631e-09
-8.44372e-09
-5.97628e-09
-3.07903e-09
-1.41648e-09
-7.00668e-10
-4.4978e-10
-4.4783e-10
-6.60219e-10
-1.15835e-09
-2.12144e-09
-3.87636e-09
-7.01669e-09
-1.26592e-08
-2.25679e-08
-3.96195e-08
-6.89865e-08
-1.19258e-07
-2.05141e-07
-3.52487e-07
-6.10228e-07
-1.06266e-06
-1.87599e-06
-3.37257e-06
-6.19482e-06
-1.17215e-05
-2.26135e-05
-4.49334e-05
-9.19826e-05
-0.000196577
-0.000417937
-0.000859841
-0.00140652
-0.000137116
0.00155392
0.00123635
0.000593991
0.000215623
6.15904e-05
1.4631e-05
2.84082e-06
4.37021e-07
5.44438e-08
6.0204e-09
6.43212e-10
6.47705e-11
6.63201e-12
7.47485e-13
1.01334e-13
1.7449e-14
3.82389e-15
1.01355e-15
2.96653e-16
8.94524e-17
2.68247e-17
7.90128e-18
2.27492e-18
6.4198e-19
1.77986e-19
4.86562e-20
1.3107e-20
3.47539e-21
9.14027e-22
2.33546e-22
6.01443e-23
1.47213e-23
2.83291e-24
4.93417e-25
2.70813e-26
5.08618e-16
7.24398e-15
3.14067e-14
9.99311e-14
2.74987e-13
6.95722e-13
1.6642e-12
3.81313e-12
8.41085e-12
1.78678e-11
3.65123e-11
7.17597e-11
1.35825e-10
2.47772e-10
4.35045e-10
7.31429e-10
1.17593e-09
1.79597e-09
2.558e-09
3.46119e-09
4.33238e-09
5.03623e-09
5.41248e-09
5.36274e-09
4.93677e-09
4.28166e-09
3.54093e-09
2.7746e-09
1.87703e-09
3.20481e-10
-2.65479e-09
-6.6551e-09
-8.54609e-09
-6.189e-09
-3.21413e-09
-1.47789e-09
-7.28596e-10
-4.70812e-10
-4.72471e-10
-6.99508e-10
-1.23082e-09
-2.25713e-09
-4.12983e-09
-7.48103e-09
-1.35037e-08
-2.40821e-08
-4.2202e-08
-7.34428e-08
-1.26983e-07
-2.18516e-07
-3.75342e-07
-6.52992e-07
-1.13612e-06
-2.00768e-06
-3.6156e-06
-6.65516e-06
-1.26034e-05
-2.4374e-05
-4.85227e-05
-9.95702e-05
-0.000213374
-0.000453848
-0.000925442
-0.0014181
0.000124229
0.00158943
0.00116518
0.000543222
0.000192247
5.35645e-05
1.253e-05
2.37957e-06
3.59193e-07
4.4238e-08
4.87948e-09
5.1973e-10
5.2418e-11
5.40062e-12
6.15748e-13
8.44001e-14
1.48774e-14
3.39933e-15
9.32169e-16
2.79274e-16
8.53825e-17
2.58719e-17
7.68223e-18
2.22524e-18
6.30894e-19
1.75495e-19
4.80215e-20
1.29774e-20
3.46832e-21
9.08291e-22
2.34569e-22
5.96066e-23
1.47673e-23
2.89146e-24
4.38929e-25
3.20302e-26
5.02855e-16
7.16233e-15
3.10517e-14
9.87947e-14
2.71834e-13
6.8767e-13
1.64474e-12
3.76809e-12
8.31054e-12
1.76523e-11
3.6066e-11
7.08737e-11
1.34151e-10
2.44782e-10
4.30039e-10
7.23715e-10
1.16511e-09
1.78265e-09
2.54436e-09
3.44922e-09
4.33037e-09
5.05123e-09
5.44895e-09
5.42204e-09
5.01434e-09
4.36093e-09
3.6171e-09
2.84592e-09
1.95631e-09
4.28228e-10
-2.51202e-09
-6.56094e-09
-8.63203e-09
-6.3739e-09
-3.33512e-09
-1.53316e-09
-7.56153e-10
-4.90953e-10
-4.96929e-10
-7.40084e-10
-1.30544e-09
-2.39763e-09
-4.38503e-09
-7.94449e-09
-1.43424e-08
-2.55791e-08
-4.48443e-08
-7.80036e-08
-1.34933e-07
-2.323e-07
-3.99167e-07
-6.91936e-07
-1.20743e-06
-2.13807e-06
-3.85887e-06
-7.12334e-06
-1.35014e-05
-2.61933e-05
-5.23121e-05
-0.000107484
-0.000229531
-0.000487171
-0.000982271
-0.00140249
0.000343365
0.00159596
0.00110339
0.000493892
0.000170511
4.66515e-05
1.07204e-05
1.99489e-06
2.96367e-07
3.61705e-08
3.98433e-09
4.23384e-10
4.27829e-11
4.4372e-12
5.12405e-13
7.1731e-14
1.29801e-14
3.03767e-15
8.52034e-16
2.60135e-16
8.10022e-17
2.48215e-17
7.42641e-18
2.16175e-18
6.14997e-19
1.71607e-19
4.71296e-20
1.27401e-20
3.39001e-21
8.91502e-22
2.28513e-22
5.70106e-23
1.41816e-23
3.14221e-24
4.01993e-25
5.05863e-26
4.9725e-16
7.08292e-15
3.0707e-14
9.76945e-14
2.68794e-13
6.79945e-13
1.6262e-12
3.72553e-12
8.21656e-12
1.74523e-11
3.56559e-11
7.00674e-11
1.32642e-10
2.42111e-10
4.25603e-10
7.1693e-10
1.15564e-09
1.77103e-09
2.53248e-09
3.43879e-09
4.32982e-09
5.06687e-09
5.48432e-09
5.48047e-09
5.08392e-09
4.4327e-09
3.68506e-09
2.9079e-09
2.02225e-09
5.15131e-10
-2.399e-09
-6.48506e-09
-8.70212e-09
-6.52822e-09
-3.43782e-09
-1.57984e-09
-7.80369e-10
-5.12231e-10
-5.20026e-10
-7.78426e-10
-1.37726e-09
-2.53162e-09
-4.63141e-09
-8.39289e-09
-1.51528e-08
-2.7022e-08
-4.73325e-08
-8.23612e-08
-1.42882e-07
-2.45586e-07
-4.2202e-07
-7.33001e-07
-1.27929e-06
-2.26637e-06
-4.0927e-06
-7.62032e-06
-1.44189e-05
-2.80228e-05
-5.60802e-05
-0.00011558
-0.000244458
-0.000519595
-0.00103694
-0.00136674
0.00052926
0.00158963
0.00104807
0.000458782
0.000155642
4.18265e-05
9.50787e-06
1.74241e-06
2.55642e-07
3.09509e-08
3.4031e-09
3.60582e-10
3.6467e-11
3.80082e-12
4.43376e-13
6.31163e-14
1.16799e-14
2.79712e-15
7.98544e-16
2.46382e-16
7.70165e-17
2.36795e-17
7.10601e-18
2.07399e-18
5.91726e-19
1.65499e-19
4.55557e-20
1.23556e-20
3.30237e-21
8.67556e-22
2.25758e-22
5.69404e-23
1.33004e-23
2.8872e-24
4.43999e-25
3.19583e-26
4.91979e-16
7.0082e-15
3.03828e-14
9.66607e-14
2.65942e-13
6.72716e-13
1.6089e-12
3.68599e-12
8.12975e-12
1.72688e-11
3.52823e-11
6.93387e-11
1.3129e-10
2.39739e-10
4.21698e-10
7.11011e-10
1.14747e-09
1.76114e-09
2.52259e-09
3.43015e-09
4.3303e-09
5.08221e-09
5.51607e-09
5.5283e-09
5.14184e-09
4.49586e-09
3.74623e-09
2.96498e-09
2.07885e-09
5.85187e-10
-2.30918e-09
-6.42631e-09
-8.76316e-09
-6.6565e-09
-3.52341e-09
-1.61986e-09
-8.01453e-10
-5.26604e-10
-5.41022e-10
-8.13567e-10
-1.44038e-09
-2.6485e-09
-4.84584e-09
-8.78556e-09
-1.58704e-08
-2.83182e-08
-4.96171e-08
-8.63372e-08
-1.49741e-07
-2.57421e-07
-4.42337e-07
-7.6917e-07
-1.34359e-06
-2.38438e-06
-4.31644e-06
-8.01199e-06
-1.51869e-05
-2.95917e-05
-5.93606e-05
-0.000122626
-0.000259728
-0.000551529
-0.00108752
-0.00131778
0.000699222
0.00157669
0.000997265
0.000425901
0.000141953
3.75858e-05
8.4692e-06
1.53398e-06
2.22481e-07
2.67254e-08
2.93225e-09
3.09665e-10
3.13267e-11
3.2792e-12
3.86175e-13
5.58646e-14
1.05619e-14
2.58474e-15
7.50196e-16
2.3395e-16
7.3622e-17
2.27398e-17
6.8355e-18
2.00015e-18
5.71648e-19
1.60068e-19
4.41525e-20
1.19882e-20
3.18825e-21
8.39743e-22
2.20072e-22
5.4172e-23
1.30196e-23
2.92407e-24
4.70471e-25
3.2733e-26
4.87203e-16
6.9405e-15
3.00893e-14
9.57265e-14
2.63371e-13
6.66216e-13
1.59341e-12
3.65073e-12
8.0527e-12
1.71067e-11
3.49544e-11
6.87032e-11
1.30118e-10
2.37697e-10
4.18365e-10
7.06015e-10
1.14069e-09
1.75318e-09
2.51517e-09
3.4239e-09
4.33156e-09
5.09558e-09
5.54541e-09
5.57418e-09
5.19806e-09
4.55275e-09
3.79939e-09
3.01308e-09
2.12628e-09
6.43234e-10
-2.23599e-09
-6.38163e-09
-8.81734e-09
-6.76293e-09
-3.59568e-09
-1.65322e-09
-8.19541e-10
-5.41519e-10
-5.60752e-10
-8.4794e-10
-1.5046e-09
-2.76772e-09
-5.06237e-09
-9.17603e-09
-1.657e-08
-2.95453e-08
-5.1744e-08
-9.00444e-08
-1.56058e-07
-2.68479e-07
-4.61688e-07
-7.98367e-07
-1.39727e-06
-2.48141e-06
-4.49401e-06
-8.42477e-06
-1.5957e-05
-3.11201e-05
-6.25046e-05
-0.000129246
-0.000273773
-0.000580379
-0.00113374
-0.00125599
0.000853545
0.00156199
0.000947943
0.000396748
0.000130073
3.38246e-05
7.52008e-06
1.34038e-06
1.91955e-07
2.28958e-08
2.50983e-09
2.64468e-10
2.67919e-11
2.82006e-12
3.358e-13
4.946e-14
9.57188e-15
2.39582e-15
7.06903e-16
2.22717e-16
7.05224e-17
2.18732e-17
6.59273e-18
1.93292e-18
5.53289e-19
1.55214e-19
4.28292e-20
1.1616e-20
3.11844e-21
8.19797e-22
2.10724e-22
5.27574e-23
1.31496e-23
2.58114e-24
4.11742e-25
4.93595e-26
4.8298e-16
6.88064e-15
2.98301e-14
9.4902e-14
2.61105e-13
6.60501e-13
1.57982e-12
3.6199e-12
7.98561e-12
1.69664e-11
3.46721e-11
6.81592e-11
1.2912e-10
2.35964e-10
4.15534e-10
7.01769e-10
1.13489e-09
1.74634e-09
2.50863e-09
3.41862e-09
4.33386e-09
5.10968e-09
5.5731e-09
5.61249e-09
5.24356e-09
4.60074e-09
3.84468e-09
3.05334e-09
2.16626e-09
6.919e-10
-2.17995e-09
-6.35082e-09
-8.86365e-09
-6.85002e-09
-3.65383e-09
-1.68037e-09
-8.34779e-10
-5.54233e-10
-5.78883e-10
-8.79157e-10
-1.56246e-09
-2.87521e-09
-5.25773e-09
-9.5288e-09
-1.71976e-08
-3.06561e-08
-5.36797e-08
-9.33318e-08
-1.61392e-07
-2.77526e-07
-4.76852e-07
-8.30217e-07
-1.44984e-06
-2.57397e-06
-4.66144e-06
-8.74105e-06
-1.65743e-05
-3.23646e-05
-6.50941e-05
-0.000134798
-0.000285792
-0.000604413
-0.00116704
-0.00119893
0.000984492
0.00153468
0.000902224
0.000372169
0.000120346
3.09684e-05
6.82741e-06
1.20231e-06
1.70434e-07
2.02099e-08
2.21341e-09
2.32761e-10
2.36032e-11
2.49555e-12
2.9985e-13
4.48247e-14
8.84084e-15
2.25251e-15
6.72918e-16
2.13582e-16
6.79207e-17
2.11271e-17
6.37918e-18
1.87317e-18
5.36964e-19
1.50661e-19
4.16027e-20
1.13011e-20
3.02176e-21
7.97251e-22
2.03896e-22
5.15955e-23
1.22094e-23
2.52121e-24
4.98891e-25
5.07108e-26
4.79326e-16
6.82884e-15
2.96058e-14
9.41897e-14
2.59149e-13
6.55577e-13
1.56814e-12
3.59346e-12
7.92832e-12
1.68473e-11
3.44347e-11
6.7707e-11
1.28301e-10
2.34564e-10
4.13235e-10
6.98411e-10
1.13053e-09
1.74153e-09
2.50437e-09
3.41559e-09
4.33692e-09
5.12246e-09
5.59741e-09
5.6482e-09
5.28465e-09
4.64264e-09
3.88382e-09
3.08866e-09
2.20023e-09
7.30529e-10
-2.1366e-09
-6.32956e-09
-8.90387e-09
-6.92212e-09
-3.70098e-09
-1.70244e-09
-8.47254e-10
-5.65143e-10
-5.94352e-10
-9.06302e-10
-1.61311e-09
-2.96983e-09
-5.4309e-09
-9.84482e-09
-1.77688e-08
-3.16766e-08
-5.54411e-08
-9.63785e-08
-1.66468e-07
-2.86282e-07
-4.92031e-07
-8.57789e-07
-1.50004e-06
-2.66732e-06
-4.84093e-06
-9.03561e-06
-1.71807e-05
-3.3603e-05
-6.76856e-05
-0.000140333
-0.000297677
-0.000628596
-0.00120188
-0.00112979
0.00107903
0.00151355
0.000868799
0.000353283
0.000112828
2.87828e-05
6.30447e-06
1.09936e-06
1.54508e-07
1.82349e-08
1.99595e-09
2.09554e-10
2.12704e-11
2.25801e-12
2.73389e-13
4.13897e-14
8.29162e-15
2.14232e-15
6.46022e-16
2.06138e-16
6.57441e-17
2.04873e-17
6.19306e-18
1.82018e-18
5.22132e-19
1.46713e-19
4.05081e-20
1.10063e-20
2.94764e-21
7.72268e-22
2.0029e-22
4.95855e-23
1.22724e-23
2.88946e-24
4.25114e-25
4.76568e-26
4.76217e-16
6.78478e-15
2.94152e-14
9.35848e-14
2.57492e-13
6.5141e-13
1.55827e-12
3.57121e-12
7.88028e-12
1.67479e-11
3.42378e-11
6.73347e-11
1.27633e-10
2.33432e-10
4.11387e-10
6.95774e-10
1.12709e-09
1.73761e-09
2.50105e-09
3.41364e-09
4.34058e-09
5.13436e-09
5.61865e-09
5.67795e-09
5.31969e-09
4.6785e-09
3.91748e-09
3.11844e-09
2.22836e-09
7.61433e-10
-2.10383e-09
-6.31702e-09
-8.94104e-09
-6.98025e-09
-3.73831e-09
-1.72002e-09
-8.57383e-10
-5.74326e-10
-6.07329e-10
-9.28892e-10
-1.65471e-09
-3.04616e-09
-5.56755e-09
-1.0156e-08
-1.83046e-08
-3.2619e-08
-5.70858e-08
-9.92426e-08
-1.71485e-07
-2.95107e-07
-5.07648e-07
-8.79142e-07
-1.54051e-06
-2.74138e-06
-4.97692e-06
-9.31862e-06
-1.77302e-05
-3.47196e-05
-7.0016e-05
-0.000145334
-0.000308441
-0.000650312
-0.00123132
-0.00106191
0.00114994
0.00149657
0.000842247
0.000338381
0.000106969
2.71618e-05
5.91835e-06
1.02586e-06
1.43204e-07
1.68317e-08
1.84096e-09
1.92963e-10
1.95967e-11
2.08682e-12
2.54244e-13
3.88746e-14
7.88072e-15
2.05729e-15
6.24537e-16
2.00012e-16
6.39122e-17
1.99396e-17
6.03214e-18
1.77393e-18
5.09095e-19
1.43027e-19
3.95327e-20
1.07623e-20
2.88521e-21
7.67028e-22
1.9771e-22
4.97791e-23
1.14764e-23
2.76239e-24
5.06502e-25
3.72862e-26
4.73612e-16
6.74785e-15
2.92556e-14
9.30784e-14
2.56105e-13
6.4793e-13
1.55005e-12
3.5527e-12
7.84043e-12
1.66657e-11
3.40756e-11
6.70299e-11
1.27091e-10
2.3253e-10
4.09952e-10
6.93733e-10
1.12441e-09
1.73472e-09
2.49889e-09
3.41269e-09
4.34431e-09
5.14497e-09
5.6377e-09
5.70489e-09
5.35162e-09
4.71131e-09
3.94763e-09
3.14491e-09
2.25236e-09
7.86541e-10
-2.07926e-09
-6.31065e-09
-8.97354e-09
-7.02604e-09
-3.76741e-09
-1.73384e-09
-8.65759e-10
-5.82088e-10
-6.18626e-10
-9.4873e-10
-1.69135e-09
-3.11358e-09
-5.68987e-09
-1.03773e-08
-1.86917e-08
-3.32905e-08
-5.82324e-08
-1.0119e-07
-1.74736e-07
-3.00501e-07
-5.16634e-07
-9.00984e-07
-1.57602e-06
-2.8043e-06
-5.09302e-06
-9.57461e-06
-1.82117e-05
-3.56859e-05
-7.20212e-05
-0.000149597
-0.000317651
-0.000668691
-0.00125551
-0.000999995
0.00120552
0.00147957
0.00082046
0.00032655
0.000102319
2.58867e-05
5.60849e-06
9.64806e-07
1.33879e-07
1.56808e-08
1.71427e-09
1.79448e-10
1.82342e-11
1.94717e-12
2.38591e-13
3.68126e-14
7.5432e-15
1.98711e-15
6.06648e-16
1.94848e-16
6.23521e-17
1.94687e-17
5.8928e-18
1.73378e-18
4.97704e-19
1.39898e-19
3.86455e-20
1.05149e-20
2.82624e-21
7.45094e-22
1.89497e-22
4.68896e-23
1.23422e-23
2.4912e-24
4.60993e-25
2.85287e-26
4.71458e-16
6.71731e-15
2.91235e-14
9.26599e-14
2.5496e-13
6.45055e-13
1.54326e-12
3.53741e-12
7.80746e-12
1.65976e-11
3.39406e-11
6.67746e-11
1.26633e-10
2.31757e-10
4.08691e-10
6.9187e-10
1.12206e-09
1.73233e-09
2.49734e-09
3.41229e-09
4.34789e-09
5.15443e-09
5.65383e-09
5.7271e-09
5.37687e-09
4.73722e-09
3.97155e-09
3.16605e-09
2.27169e-09
8.06579e-10
-2.06059e-09
-6.30767e-09
-9.0008e-09
-7.06337e-09
-3.79028e-09
-1.74486e-09
-8.72591e-10
-5.888e-10
-6.28825e-10
-9.67051e-10
-1.72573e-09
-3.17797e-09
-5.809e-09
-1.0596e-08
-1.90827e-08
-3.39783e-08
-5.9415e-08
-1.03202e-07
-1.78154e-07
-3.06285e-07
-5.26422e-07
-9.18658e-07
-1.60737e-06
-2.86099e-06
-5.19916e-06
-9.78233e-06
-1.86184e-05
-3.65055e-05
-7.37399e-05
-0.00015331
-0.00032564
-0.000684589
-0.00127559
-0.000944643
0.0012491
0.00146494
0.000801491
0.000316907
9.86208e-05
2.48806e-05
5.36949e-06
9.1871e-07
1.26874e-07
1.48168e-08
1.61907e-09
1.69288e-10
1.72096e-11
1.84208e-12
2.26766e-13
3.52379e-14
7.28029e-15
1.93101e-15
5.91981e-16
1.9054e-16
6.10344e-17
1.9068e-17
5.77304e-18
1.69899e-18
4.87941e-19
1.37233e-19
3.79078e-20
1.02986e-20
2.77008e-21
7.26904e-22
1.91779e-22
4.71141e-23
1.22348e-23
2.33706e-24
5.03947e-25
2.91022e-26
4.69712e-16
6.69256e-15
2.90165e-14
9.23208e-14
2.54032e-13
6.42729e-13
1.53776e-12
3.52505e-12
7.78083e-12
1.65425e-11
3.38314e-11
6.6568e-11
1.26262e-10
2.3113e-10
4.07666e-10
6.90473e-10
1.12039e-09
1.7307e-09
2.4964e-09
3.41239e-09
4.35152e-09
5.16303e-09
5.6682e-09
5.74619e-09
5.3986e-09
4.75861e-09
3.99107e-09
3.18302e-09
2.28718e-09
8.2177e-10
-2.04746e-09
-6.30777e-09
-9.02521e-09
-7.0927e-09
-3.80798e-09
-1.75341e-09
-8.77963e-10
-5.94199e-10
-6.37187e-10
-9.82208e-10
-1.75429e-09
-3.23136e-09
-5.90588e-09
-1.07719e-08
-1.93984e-08
-3.45393e-08
-6.03938e-08
-1.04904e-07
-1.81092e-07
-3.11354e-07
-5.3519e-07
-9.33785e-07
-1.63439e-06
-2.90979e-06
-5.28815e-06
-9.95407e-06
-1.89605e-05
-3.72015e-05
-7.51939e-05
-0.000156434
-0.000332393
-0.000698055
-0.00129183
-0.000896954
0.00128231
0.00145206
0.000786674
0.00030918
9.56903e-05
2.4083e-05
5.18181e-06
8.8274e-07
1.21426e-07
1.41459e-08
1.5451e-09
1.61388e-10
1.64108e-11
1.75981e-12
2.1747e-13
3.39952e-14
7.07124e-15
1.88579e-15
5.79971e-16
1.86971e-16
5.99352e-17
1.8732e-17
5.67287e-18
1.67003e-18
4.79673e-19
1.34946e-19
3.73148e-20
1.01578e-20
2.72924e-21
7.16007e-22
1.86234e-22
4.8368e-23
1.18506e-23
2.51086e-24
4.41934e-25
4.45524e-26
4.68335e-16
6.67304e-15
2.89322e-14
9.20538e-14
2.53302e-13
6.40901e-13
1.53346e-12
3.51537e-12
7.76002e-12
1.64996e-11
3.37466e-11
6.64086e-11
1.2598e-10
2.30665e-10
4.06923e-10
6.89451e-10
1.11912e-09
1.72949e-09
2.49582e-09
3.4127e-09
4.35458e-09
5.16996e-09
5.67943e-09
5.76136e-09
5.41572e-09
4.77559e-09
4.00674e-09
3.19679e-09
2.29949e-09
8.3374e-10
-2.03802e-09
-6.30946e-09
-9.04376e-09
-7.11524e-09
-3.82136e-09
-1.76007e-09
-8.82354e-10
-5.9881e-10
-6.44421e-10
-9.95268e-10
-1.77866e-09
-3.27642e-09
-5.98852e-09
-1.09227e-08
-1.96712e-08
-3.50299e-08
-6.12641e-08
-1.06451e-07
-1.83849e-07
-3.16311e-07
-5.44299e-07
-9.43186e-07
-1.65455e-06
-2.94869e-06
-5.36341e-06
-1.00975e-05
-1.92451e-05
-3.77829e-05
-7.64162e-05
-0.000159045
-0.000337965
-0.000709032
-0.00130464
-0.000856856
0.00130822
0.00144142
0.000774552
0.000302863
9.32721e-05
2.34306e-05
5.02822e-06
8.53442e-07
1.17012e-07
1.36045e-08
1.48557e-09
1.55051e-10
1.57719e-11
1.69418e-12
2.1006e-13
3.30014e-14
6.9031e-15
1.84923e-15
5.70238e-16
1.84064e-16
5.90368e-17
1.84575e-17
5.59114e-18
1.64621e-18
4.72769e-19
1.33094e-19
3.67805e-20
1.00102e-20
2.69354e-21
7.11268e-22
1.81407e-22
4.53863e-23
1.12847e-23
2.25134e-24
4.77724e-25
4.46564e-26
4.67291e-16
6.65824e-15
2.88683e-14
9.18515e-14
2.5275e-13
6.39522e-13
1.53022e-12
3.50814e-12
7.74461e-12
1.64682e-11
3.36854e-11
6.6295e-11
1.25781e-10
2.30333e-10
4.0638e-10
6.88684e-10
1.11819e-09
1.72865e-09
2.49554e-09
3.4132e-09
4.35742e-09
5.17605e-09
5.68901e-09
5.77381e-09
5.42965e-09
4.78957e-09
4.01948e-09
3.20771e-09
2.30907e-09
8.42615e-10
-2.03142e-09
-6.31178e-09
-9.05918e-09
-7.13217e-09
-3.83126e-09
-1.76499e-09
-8.85643e-10
-6.02319e-10
-6.49983e-10
-1.00533e-09
-1.79743e-09
-3.31111e-09
-6.05164e-09
-1.1037e-08
-1.98742e-08
-3.53836e-08
-6.18651e-08
-1.07458e-07
-1.85525e-07
-3.19053e-07
-5.48731e-07
-9.54588e-07
-1.67296e-06
-2.98207e-06
-5.42695e-06
-1.02051e-05
-1.94649e-05
-3.82331e-05
-7.736e-05
-0.000161078
-0.000342342
-0.000717629
-0.00131445
-0.000824471
0.00132775
0.0014329
0.000765585
0.000298004
9.14361e-05
2.29392e-05
4.9117e-06
8.31267e-07
1.13683e-07
1.31976e-08
1.4409e-09
1.50304e-10
1.52937e-11
1.64493e-12
2.0447e-13
3.22467e-14
6.77443e-15
1.82098e-15
5.62643e-16
1.81787e-16
5.83316e-17
1.82398e-17
5.52529e-18
1.62688e-18
4.67441e-19
1.3153e-19
3.63387e-20
9.87204e-21
2.65445e-21
7.03737e-22
1.82645e-22
4.52881e-23
1.06143e-23
2.37067e-24
4.14825e-25
3.98125e-26
4.66548e-16
6.64773e-15
2.8823e-14
9.17087e-14
2.52363e-13
6.3856e-13
1.52797e-12
3.50316e-12
7.73398e-12
1.64463e-11
3.36419e-11
6.6212e-11
1.2563e-10
2.30079e-10
4.05971e-10
6.8814e-10
1.11756e-09
1.72812e-09
2.49543e-09
3.41368e-09
4.35956e-09
5.18047e-09
5.6959e-09
5.7828e-09
5.43964e-09
4.79945e-09
4.02846e-09
3.21544e-09
2.31582e-09
8.488e-10
-2.02717e-09
-6.31405e-09
-9.07125e-09
-7.14407e-09
-3.83809e-09
-1.76843e-09
-8.88026e-10
-6.04977e-10
-6.54313e-10
-1.01329e-09
-1.81246e-09
-3.33919e-09
-6.10329e-09
-1.11315e-08
-2.00452e-08
-3.56911e-08
-6.24088e-08
-1.08418e-07
-1.87215e-07
-3.22058e-07
-5.54148e-07
-9.59943e-07
-1.68449e-06
-3.00365e-06
-5.46659e-06
-1.02948e-05
-1.96313e-05
-3.85689e-05
-7.80647e-05
-0.000162596
-0.000345614
-0.000724049
-0.00132153
-0.000799769
0.00134165
0.00142653
0.0007577
0.000294522
9.01162e-05
2.25855e-05
4.82861e-06
8.15474e-07
1.11311e-07
1.29071e-08
1.40893e-09
1.46897e-10
1.49489e-11
1.60934e-12
2.0043e-13
3.17027e-14
6.68193e-15
1.80071e-15
5.57188e-16
1.80144e-16
5.78193e-17
1.80822e-17
5.47777e-18
1.61299e-18
4.63444e-19
1.30481e-19
3.60511e-20
9.80669e-21
2.63384e-21
6.94506e-22
1.82049e-22
4.52355e-23
1.1014e-23
2.2968e-24
4.14395e-25
3.65043e-26
4.66073e-16
6.64099e-15
2.87939e-14
9.16168e-14
2.52112e-13
6.3793e-13
1.52648e-12
3.49978e-12
7.72664e-12
1.6431e-11
3.36116e-11
6.61551e-11
1.25531e-10
2.29916e-10
4.05711e-10
6.87789e-10
1.11716e-09
1.72779e-09
2.49541e-09
3.41405e-09
4.36101e-09
5.18339e-09
5.70042e-09
5.78869e-09
5.44615e-09
4.80586e-09
4.03427e-09
3.22046e-09
2.32026e-09
8.52677e-10
-2.02467e-09
-6.31586e-09
-9.0788e-09
-7.1517e-09
-3.84238e-09
-1.7706e-09
-8.89532e-10
-6.0667e-10
-6.57091e-10
-1.01842e-09
-1.82221e-09
-3.35755e-09
-6.13712e-09
-1.11936e-08
-2.01576e-08
-3.58913e-08
-6.2758e-08
-1.09022e-07
-1.88246e-07
-3.23803e-07
-5.57084e-07
-9.65172e-07
-1.69345e-06
-3.01956e-06
-5.4952e-06
-1.03479e-05
-1.97403e-05
-3.87916e-05
-7.85334e-05
-0.000163607
-0.00034779
-0.000728298
-0.0013261
-0.000783117
0.00135074
0.00142224
0.00075322
0.000292222
8.92471e-05
2.23545e-05
4.77424e-06
8.05155e-07
1.09763e-07
1.27176e-08
1.38805e-09
1.44668e-10
1.4724e-11
1.58617e-12
1.97805e-13
3.13498e-14
6.62197e-15
1.78756e-15
5.53646e-16
1.79078e-16
5.74876e-17
1.79792e-17
5.44691e-18
1.60388e-18
4.60838e-19
1.29657e-19
3.58412e-20
9.74664e-21
2.62183e-21
6.93769e-22
1.80146e-22
4.63178e-23
1.03536e-23
2.45646e-24
4.34193e-25
3.28129e-26
4.65835e-16
6.63762e-15
2.87794e-14
9.15706e-14
2.51985e-13
6.37614e-13
1.52574e-12
3.49812e-12
7.72308e-12
1.64237e-11
3.35972e-11
6.61282e-11
1.25483e-10
2.29838e-10
4.05588e-10
6.87626e-10
1.11698e-09
1.72766e-09
2.49543e-09
3.41428e-09
4.3618e-09
5.18491e-09
5.70276e-09
5.79169e-09
5.44945e-09
4.8091e-09
4.0372e-09
3.22297e-09
2.32242e-09
8.54572e-10
-2.02353e-09
-6.3169e-09
-9.08145e-09
-7.15538e-09
-3.84442e-09
-1.77161e-09
-8.90208e-10
-6.07389e-10
-6.58235e-10
-1.02051e-09
-1.82614e-09
-3.36487e-09
-6.15047e-09
-1.12177e-08
-2.01998e-08
-3.5963e-08
-6.28739e-08
-1.09198e-07
-1.88488e-07
-3.24061e-07
-5.57132e-07
-9.72729e-07
-1.70464e-06
-3.04065e-06
-5.539e-06
-1.03407e-05
-1.97796e-05
-3.88986e-05
-7.87711e-05
-0.000164123
-0.000348896
-0.000730444
-0.00132834
-0.000774634
0.00135493
0.00141982
0.000750839
0.000291019
8.87994e-05
2.22352e-05
4.7464e-06
7.99907e-07
1.08981e-07
1.26224e-08
1.3776e-09
1.43555e-10
1.4611e-11
1.57447e-12
1.96473e-13
3.11693e-14
6.59086e-15
1.78059e-15
5.51741e-16
1.78496e-16
5.73058e-17
1.79244e-17
5.43062e-18
1.59935e-18
4.59436e-19
1.29299e-19
3.57327e-20
9.73799e-21
2.60323e-21
6.92375e-22
1.80891e-22
4.45916e-23
1.11074e-23
2.14112e-24
4.9176e-25
3.26327e-26
4.65832e-16
6.63758e-15
2.87791e-14
9.15699e-14
2.51983e-13
6.37608e-13
1.52572e-12
3.49808e-12
7.72302e-12
1.64236e-11
3.3597e-11
6.61279e-11
1.25483e-10
2.29838e-10
4.05588e-10
6.87628e-10
1.11699e-09
1.72767e-09
2.49546e-09
3.41432e-09
4.36186e-09
5.18499e-09
5.70285e-09
5.79176e-09
5.44951e-09
4.80914e-09
4.03721e-09
3.22296e-09
2.32237e-09
8.54531e-10
-2.02361e-09
-6.31703e-09
-9.08188e-09
-7.15552e-09
-3.84446e-09
-1.77161e-09
-8.90177e-10
-6.07317e-10
-6.58094e-10
-1.02025e-09
-1.82566e-09
-3.36404e-09
-6.14914e-09
-1.12158e-08
-2.01977e-08
-3.59631e-08
-6.28829e-08
-1.09236e-07
-1.88606e-07
-3.24391e-07
-5.58007e-07
-9.6655e-07
-1.69652e-06
-3.02592e-06
-5.50867e-06
-1.0377e-05
-1.97975e-05
-3.8909e-05
-7.87803e-05
-0.000164136
-0.000348916
-0.000730459
-0.00132827
-0.000774251
0.00135475
0.00141947
0.000750631
0.000290933
8.87724e-05
2.22281e-05
4.74485e-06
7.99636e-07
1.08942e-07
1.26178e-08
1.37709e-09
1.43501e-10
1.46056e-11
1.57393e-12
1.96416e-13
3.11621e-14
6.58968e-15
1.78033e-15
5.51662e-16
1.78475e-16
5.72987e-17
1.79219e-17
5.42989e-18
1.59895e-18
4.59302e-19
1.2923e-19
3.57484e-20
9.74076e-21
2.60986e-21
6.88346e-22
1.78463e-22
4.62636e-23
1.07088e-23
2.42326e-24
4.96417e-25
4.17397e-26
4.66064e-16
6.64087e-15
2.87933e-14
9.16146e-14
2.52105e-13
6.37911e-13
1.52643e-12
3.49967e-12
7.72641e-12
1.64306e-11
3.36108e-11
6.61538e-11
1.25529e-10
2.29914e-10
4.05711e-10
6.87794e-10
1.11718e-09
1.72783e-09
2.49548e-09
3.41416e-09
4.36118e-09
5.18361e-09
5.70067e-09
5.78891e-09
5.4463e-09
4.80594e-09
4.03428e-09
3.22043e-09
2.32012e-09
8.52559e-10
-2.02489e-09
-6.31614e-09
-9.07842e-09
-7.15172e-09
-3.84234e-09
-1.77054e-09
-8.8942e-10
-6.0646e-10
-6.56693e-10
-1.01769e-09
-1.82087e-09
-3.35519e-09
-6.13302e-09
-1.11865e-08
-2.01453e-08
-3.58703e-08
-6.27218e-08
-1.08958e-07
-1.88128e-07
-3.23569e-07
-5.56585e-07
-9.64048e-07
-1.69213e-06
-3.01797e-06
-5.49396e-06
-1.03496e-05
-1.97435e-05
-3.87988e-05
-7.85487e-05
-0.000163637
-0.000347843
-0.000728348
-0.00132592
-0.000782075
0.00135034
0.00142136
0.00075269
0.000291999
8.91787e-05
2.23363e-05
4.77033e-06
8.04462e-07
1.09664e-07
1.27061e-08
1.38681e-09
1.44536e-10
1.47101e-11
1.58471e-12
1.97641e-13
3.13281e-14
6.61821e-15
1.78667e-15
5.53383e-16
1.78991e-16
5.74599e-17
1.79708e-17
5.44452e-18
1.60342e-18
4.60729e-19
1.29677e-19
3.58288e-20
9.7503e-21
2.62149e-21
6.93418e-22
1.77442e-22
4.45472e-23
1.1179e-23
2.22175e-24
4.28969e-25
2.864e-26
4.66547e-16
6.64771e-15
2.88229e-14
9.1708e-14
2.5236e-13
6.38547e-13
1.52793e-12
3.50301e-12
7.73356e-12
1.64452e-11
3.36398e-11
6.62083e-11
1.25625e-10
2.30074e-10
4.0597e-10
6.88147e-10
1.11759e-09
1.72817e-09
2.49553e-09
3.41382e-09
4.35976e-09
5.18069e-09
5.69611e-09
5.78295e-09
5.43971e-09
4.79943e-09
4.02834e-09
3.21531e-09
2.31568e-09
8.48584e-10
-2.02751e-09
-6.31443e-09
-9.07099e-09
-7.14403e-09
-3.838e-09
-1.76834e-09
-8.87886e-10
-6.04742e-10
-6.53898e-10
-1.01257e-09
-1.81127e-09
-3.33739e-09
-6.10057e-09
-1.11277e-08
-2.00403e-08
-3.56851e-08
-6.24019e-08
-1.08409e-07
-1.87194e-07
-3.21981e-07
-5.53865e-07
-9.59337e-07
-1.68383e-06
-3.00276e-06
-5.46538e-06
-1.02943e-05
-1.96338e-05
-3.85757e-05
-7.80818e-05
-0.000162635
-0.000345689
-0.000724118
-0.00132124
-0.000798094
0.0013413
0.00142543
0.000757047
0.000294241
9.00243e-05
2.25613e-05
4.82318e-06
8.14517e-07
1.11183e-07
1.28921e-08
1.40722e-09
1.46713e-10
1.49304e-11
1.60746e-12
2.00229e-13
3.16785e-14
6.67834e-15
1.79999e-15
5.57005e-16
1.8009e-16
5.78018e-17
1.80772e-17
5.47659e-18
1.61249e-18
4.63256e-19
1.30401e-19
3.60523e-20
9.81681e-21
2.63065e-21
6.96357e-22
1.83186e-22
4.48382e-23
1.031e-23
2.38668e-24
4.18879e-25
5.30473e-26
4.67298e-16
6.65834e-15
2.88688e-14
9.18533e-14
2.52756e-13
6.39537e-13
1.53025e-12
3.50821e-12
7.74471e-12
1.64682e-11
3.3685e-11
6.62932e-11
1.25776e-10
2.30323e-10
4.06368e-10
6.88687e-10
1.11822e-09
1.72872e-09
2.49565e-09
3.41336e-09
4.35764e-09
5.17629e-09
5.68923e-09
5.77397e-09
5.42971e-09
4.78952e-09
4.01937e-09
3.20753e-09
2.30886e-09
8.42307e-10
-2.03186e-09
-6.31218e-09
-9.05914e-09
-7.13189e-09
-3.83106e-09
-1.76486e-09
-8.85515e-10
-6.02151e-10
-6.49728e-10
-1.00496e-09
-1.79695e-09
-3.31064e-09
-6.05176e-09
-1.10388e-08
-1.98807e-08
-3.54025e-08
-6.19126e-08
-1.07573e-07
-1.85782e-07
-3.19625e-07
-5.49975e-07
-9.52828e-07
-1.67167e-06
-2.98031e-06
-5.42299e-06
-1.02117e-05
-1.94672e-05
-3.8236e-05
-7.73682e-05
-0.000161099
-0.000342384
-0.000717627
-0.00131401
-0.000822407
0.00132733
0.00143164
0.000764836
0.000297704
9.13488e-05
2.29167e-05
4.90727e-06
8.30591e-07
1.13582e-07
1.31839e-08
1.4393e-09
1.50124e-10
1.52745e-11
1.6429e-12
2.04251e-13
3.22213e-14
6.77095e-15
1.82039e-15
5.62526e-16
1.81757e-16
5.83236e-17
1.82379e-17
5.52463e-18
1.62701e-18
4.67285e-19
1.31502e-19
3.63528e-20
9.89909e-21
2.65352e-21
6.99619e-22
1.80776e-22
4.44572e-23
1.09359e-23
2.19919e-24
4.00657e-25
2.50191e-26
4.68343e-16
6.67316e-15
2.89328e-14