/*--------------------------------*- C++ -*----------------------------------*\
  =========                 |
  \\      /  F ield         | OpenFOAM: The Open Source CFD Toolbox
   \\    /   O peration     | Website:  https://openfoam.org
    \\  /    A nd           | Version:  10
     \\/     M anipulation  |
\*---------------------------------------------------------------------------*/
FoamFile
{
    format      ascii;
    class       volScalarField;
    location    "1";
    object      RR.HON;
}
// * * * * * * * * * * * * * * * * * * * * * * * * * * * * * * * * * * * * * //

dimensions      [1 -3 -1 0 0 0 0];

internalField   nonuniform List<scalar> 
4000
(
-2.68061e-18
-9.90981e-18
-1.97355e-17
-3.27483e-17
-4.82227e-17
-6.21333e-17
-6.18005e-17
-1.26813e-17
1.74318e-16
7.2492e-16
2.21306e-15
6.12746e-15
1.64185e-14
4.37196e-14
1.16478e-13
3.07123e-13
7.91719e-13
1.92955e-12
4.15613e-12
7.77478e-12
1.10385e-11
1.04075e-11
4.02171e-12
-2.57165e-12
-5.11566e-12
-5.11545e-12
-4.46083e-12
-3.40731e-12
-2.59429e-12
-1.98156e-12
-1.62759e-12
-1.52922e-12
-1.65604e-12
-2.17072e-12
-3.11453e-12
-4.87996e-12
-8.07883e-12
-1.39276e-11
-2.45784e-11
-4.38931e-11
-7.89096e-11
-1.41137e-10
-2.49725e-10
-4.37566e-10
-7.65379e-10
-1.32336e-09
-2.25238e-09
-3.77449e-09
-6.2227e-09
-1.00041e-08
-1.53582e-08
-2.11052e-08
2.12482e-08
4.99434e-08
2.38433e-08
1.51835e-09
-7.3071e-09
-8.30478e-09
-6.60397e-09
-4.50654e-09
-2.78498e-09
-1.60355e-09
-8.85595e-10
-4.80438e-10
-2.58649e-10
-1.2634e-10
-5.45999e-11
-2.17569e-11
-6.40599e-12
-1.69322e-12
-3.69854e-13
-6.73888e-14
-1.05752e-14
-1.35895e-15
-1.70667e-16
-2.456e-17
-3.78825e-18
-6.2133e-19
-1.07538e-19
-1.93561e-20
-3.57621e-21
-6.69777e-22
-1.26445e-22
-2.39153e-23
-4.53427e-24
-8.58806e-25
-1.62463e-25
-3.06789e-26
-5.78331e-27
-1.08672e-27
-2.04344e-28
-3.83838e-29
-7.20374e-30
-1.35106e-30
-2.53263e-31
-4.74585e-32
-8.89096e-33
-1.66483e-33
-3.09141e-34
-4.25891e-35
-2.67168e-18
-9.87979e-18
-1.96863e-17
-3.26998e-17
-4.82426e-17
-6.24186e-17
-6.2866e-17
-1.59026e-17
1.65221e-16
6.99735e-16
2.14338e-15
5.93396e-15
1.58625e-14
4.21373e-14
1.12065e-13
2.95124e-13
7.5877e-13
1.84877e-12
4.00454e-12
7.57939e-12
1.09127e-11
1.05969e-11
4.54055e-12
-2.22472e-12
-5.04439e-12
-5.15734e-12
-4.53821e-12
-3.48753e-12
-2.6528e-12
-2.02113e-12
-1.65297e-12
-1.53354e-12
-1.66788e-12
-2.18486e-12
-3.13614e-12
-4.92081e-12
-8.1606e-12
-1.409e-11
-2.48887e-11
-4.44912e-11
-8.00455e-11
-1.43266e-10
-2.53565e-10
-4.4457e-10
-7.77969e-10
-1.34563e-09
-2.29018e-09
-3.83733e-09
-6.32349e-09
-1.01572e-08
-1.5568e-08
-2.1218e-08
2.43076e-08
4.95622e-08
2.27236e-08
8.84469e-10
-7.47557e-09
-8.29356e-09
-6.53316e-09
-4.43337e-09
-2.71517e-09
-1.5563e-09
-8.57462e-10
-4.64934e-10
-2.48831e-10
-1.20769e-10
-5.15835e-11
-2.02623e-11
-5.99448e-12
-1.50371e-12
-3.23851e-13
-5.83986e-14
-9.0925e-15
-1.14786e-15
-1.46237e-16
-2.12117e-17
-3.29893e-18
-5.45371e-19
-9.51132e-20
-1.72367e-20
-3.20489e-21
-6.03616e-22
-1.14333e-22
-2.17308e-23
-4.12071e-24
-7.80567e-25
-1.47776e-25
-2.79264e-26
-5.27077e-27
-9.95258e-28
-1.87151e-28
-3.51862e-29
-6.6107e-30
-1.24114e-30
-2.3291e-31
-4.36945e-32
-8.196e-33
-1.53682e-33
-2.85797e-34
-3.94209e-35
-2.66682e-18
-9.86666e-18
-1.96757e-17
-3.27242e-17
-4.83856e-17
-6.28758e-17
-6.4167e-17
-1.94552e-17
1.55542e-16
6.72905e-16
2.06675e-15
5.70627e-15
1.52266e-14
4.03703e-14
1.07155e-13
2.8186e-13
7.25529e-13
1.76527e-12
3.83347e-12
7.32428e-12
1.07487e-11
1.0755e-11
5.0681e-12
-1.92098e-12
-4.98043e-12
-5.19341e-12
-4.60531e-12
-3.56369e-12
-2.71438e-12
-2.06679e-12
-1.68747e-12
-1.56018e-12
-1.69015e-12
-2.20908e-12
-3.17268e-12
-4.9878e-12
-8.29537e-12
-1.43413e-11
-2.53788e-11
-4.54586e-11
-8.18744e-11
-1.466e-10
-2.59585e-10
-4.55504e-10
-7.9727e-10
-1.37882e-09
-2.34519e-09
-3.92737e-09
-6.46633e-09
-1.03678e-08
-1.58256e-08
-2.13038e-08
2.86174e-08
4.88428e-08
2.1132e-08
5.53401e-11
-7.71102e-09
-8.24423e-09
-6.40841e-09
-4.32118e-09
-2.61157e-09
-1.48984e-09
-8.18931e-10
-4.44042e-10
-2.35831e-10
-1.13242e-10
-4.86072e-11
-1.8127e-11
-5.46455e-12
-1.28689e-12
-2.73991e-13
-4.88602e-14
-7.56626e-15
-9.5019e-16
-1.22775e-16
-1.80198e-17
-2.83014e-18
-4.72071e-19
-8.29472e-20
-1.50503e-20
-2.80449e-21
-5.2948e-22
-1.0066e-22
-1.91863e-23
-3.65698e-24
-6.96055e-25
-1.32292e-25
-2.5057e-26
-4.73555e-27
-8.93421e-28
-1.6854e-28
-3.17041e-29
-5.95684e-30
-1.11843e-30
-2.09889e-31
-3.93775e-32
-7.38686e-33
-1.38534e-33
-2.57707e-34
-3.55602e-35
-2.65766e-18
-9.83742e-18
-1.96324e-17
-3.26966e-17
-4.84735e-17
-6.33713e-17
-6.58379e-17
-2.42969e-17
1.42414e-16
6.38456e-16
1.978e-15
5.48104e-15
1.46263e-14
3.87281e-14
1.02632e-13
2.69666e-13
6.94109e-13
1.69641e-12
3.69959e-12
7.10767e-12
1.05952e-11
1.09345e-11
5.59494e-12
-1.54738e-12
-4.90212e-12
-5.22523e-12
-4.66528e-12
-3.63551e-12
-2.76448e-12
-2.11272e-12
-1.72302e-12
-1.5992e-12
-1.715e-12
-2.2401e-12
-3.22166e-12
-5.07769e-12
-8.46643e-12
-1.46707e-11
-2.60255e-11
-4.66779e-11
-8.41442e-11
-1.50865e-10
-2.67382e-10
-4.69408e-10
-8.21927e-10
-1.42176e-09
-2.41638e-09
-4.04734e-09
-6.65516e-09
-1.06404e-08
-1.61579e-08
-2.12127e-08
3.3178e-08
4.78754e-08
1.93124e-08
-8.8161e-10
-7.93421e-09
-8.16196e-09
-6.24729e-09
-4.16932e-09
-2.49775e-09
-1.4154e-09
-7.75225e-10
-4.20882e-10
-2.21691e-10
-1.04858e-10
-4.42334e-11
-1.63323e-11
-4.72369e-12
-1.09713e-12
-2.30977e-13
-4.07824e-14
-6.21578e-15
-7.61811e-16
-9.98065e-17
-1.47266e-17
-2.31875e-18
-3.87314e-19
-6.81327e-20
-1.25338e-20
-2.36181e-21
-4.4824e-22
-8.56558e-23
-1.64077e-23
-3.14175e-24
-6.00542e-25
-1.14654e-25
-2.18156e-26
-4.14097e-27
-7.84246e-28
-1.48298e-28
-2.79829e-29
-5.27236e-30
-9.92182e-31
-1.86535e-31
-3.50458e-32
-6.58146e-33
-1.23527e-33
-2.29908e-34
-3.17301e-35
-2.64773e-18
-9.80499e-18
-1.95813e-17
-3.265e-17
-4.85095e-17
-6.37105e-17
-6.70605e-17
-2.7891e-17
1.32642e-16
6.12661e-16
1.91024e-15
5.30152e-15
1.41436e-14
3.74132e-14
9.9037e-14
2.60043e-13
6.69375e-13
1.63825e-12
3.58473e-12
6.94268e-12
1.04894e-11
1.10716e-11
6.01105e-12
-1.22317e-12
-4.80233e-12
-5.23573e-12
-4.71971e-12
-3.70735e-12
-2.83251e-12
-2.15975e-12
-1.76004e-12
-1.76974e-12
-1.74374e-12
-2.27611e-12
-3.2782e-12
-5.17986e-12
-8.65705e-12
-1.50389e-11
-2.67131e-11
-4.79685e-11
-8.65846e-11
-1.55372e-10
-2.7557e-10
-4.84019e-10
-8.47694e-10
-1.46627e-09
-2.48639e-09
-4.16013e-09
-6.82921e-09
-1.08835e-08
-1.64168e-08
-2.08937e-08
3.77205e-08
4.6532e-08
1.73983e-08
-1.79508e-09
-8.12566e-09
-8.06096e-09
-6.07814e-09
-4.01919e-09
-2.38974e-09
-1.34737e-09
-7.35766e-10
-3.99039e-10
-2.08149e-10
-9.71831e-11
-4.04109e-11
-1.46548e-11
-4.17529e-12
-9.55212e-13
-1.98738e-13
-3.44836e-14
-5.19416e-15
-6.2618e-16
-8.32745e-17
-1.23819e-17
-1.9616e-18
-3.29527e-19
-5.82337e-20
-1.06728e-20
-2.00646e-21
-3.83882e-22
-7.38577e-23
-1.42274e-23
-2.72932e-24
-5.22773e-25
-1.00042e-25
-1.90766e-26
-3.62868e-27
-6.88587e-28
-1.3046e-28
-2.4657e-29
-4.65216e-30
-8.76493e-31
-1.64949e-31
-3.10157e-32
-5.82848e-33
-1.09453e-33
-2.038e-34
-2.81342e-35
-2.63673e-18
-9.76795e-18
-1.95189e-17
-3.25788e-17
-4.84944e-17
-6.39428e-17
-6.80539e-17
-3.09729e-17
1.24078e-16
5.89881e-16
1.85042e-15
5.14406e-15
1.37255e-14
3.62943e-14
9.60441e-14
2.52241e-13
6.49968e-13
1.59449e-12
3.50214e-12
6.81785e-12
1.0405e-11
1.11643e-11
6.34174e-12
-9.29745e-13
-4.69975e-12
-5.24915e-12
-4.76875e-12
-3.76981e-12
-2.8856e-12
-2.20367e-12
-1.79326e-12
-1.64831e-12
-1.77082e-12
-2.31358e-12
-3.33843e-12
-5.28914e-12
-8.86079e-12
-1.54162e-11
-2.74208e-11
-4.93072e-11
-8.90715e-11
-1.5995e-10
-2.83602e-10
-4.9811e-10
-8.72223e-10
-1.5081e-09
-2.55695e-09
-4.27354e-09
-7.00658e-09
-1.11335e-08
-1.66827e-08
-2.04007e-08
4.14028e-08
4.51564e-08
1.56762e-08
-2.57971e-09
-8.23696e-09
-7.92472e-09
-5.88976e-09
-3.85426e-09
-2.28014e-09
-1.28141e-09
-6.99467e-10
-3.79317e-10
-1.96196e-10
-9.06726e-11
-3.73272e-11
-1.30436e-11
-3.68117e-12
-8.34695e-13
-1.71045e-13
-2.93192e-14
-4.3732e-15
-5.19971e-16
-7.00882e-17
-1.04973e-17
-1.6733e-18
-2.82748e-19
-5.0229e-20
-9.25043e-21
-1.74278e-21
-3.3259e-22
-6.38597e-23
-1.22884e-23
-2.37281e-24
-4.56959e-25
-8.78653e-26
-1.68182e-26
-3.20911e-27
-6.10526e-28
-1.15925e-28
-2.1944e-29
-4.14e-30
-7.80003e-31
-1.46795e-31
-2.76032e-32
-5.18732e-33
-9.74123e-34
-1.81376e-34
-2.50376e-35
-2.62578e-18
-9.73067e-18
-1.94546e-17
-3.25008e-17
-4.84578e-17
-6.41147e-17
-6.88848e-17
-3.3625e-17
1.16643e-16
5.70067e-16
1.79844e-15
5.00757e-15
1.33642e-14
3.53301e-14
9.3469e-14
2.45521e-13
6.33145e-13
1.55594e-12
3.42734e-12
6.70215e-12
1.03372e-11
1.12758e-11
6.65999e-12
-6.41572e-13
-4.61334e-12
-5.26576e-12
-4.81627e-12
-3.82752e-12
-2.93302e-12
-2.2428e-12
-1.82433e-12
-1.67677e-12
-1.79497e-12
-2.35297e-12
-3.39902e-12
-5.39629e-12
-9.05931e-12
-1.57912e-11
-2.81101e-11
-5.05887e-11
-9.14778e-11
-1.64315e-10
-2.91316e-10
-5.11611e-10
-8.9555e-10
-1.54742e-09
-2.61914e-09
-4.37189e-09
-7.17329e-09
-1.13445e-08
-1.68697e-08
-1.9593e-08
4.4687e-08
4.35739e-08
1.40738e-08
-3.37958e-09
-8.35297e-09
-7.80283e-09
-5.72583e-09
-3.70966e-09
-2.19978e-09
-1.2313e-09
-6.69879e-10
-3.6288e-10
-1.86181e-10
-8.53952e-11
-3.41794e-11
-1.19379e-11
-3.35698e-12
-7.52767e-13
-1.52874e-13
-2.5955e-14
-3.84078e-15
-4.51119e-16
-6.13631e-17
-9.23259e-18
-1.47739e-18
-2.50555e-19
-4.46464e-20
-8.24349e-21
-1.55595e-21
-2.97377e-22
-5.71672e-23
-1.10085e-23
-2.11842e-24
-4.06816e-25
-7.80513e-26
-1.49112e-26
-2.84097e-27
-5.39859e-28
-1.02433e-28
-1.9383e-29
-3.66686e-30
-6.92376e-31
-1.30529e-31
-2.45769e-32
-4.62306e-33
-8.68732e-34
-1.61815e-34
-2.23402e-35
-2.61537e-18
-9.69496e-18
-1.93923e-17
-3.24221e-17
-4.84103e-17
-6.42439e-17
-6.95846e-17
-3.59103e-17
1.10194e-16
5.52874e-16
1.75344e-15
4.88984e-15
1.30539e-14
3.45054e-14
9.12755e-14
2.39818e-13
6.18924e-13
1.52356e-12
3.36517e-12
6.6072e-12
1.02866e-11
1.13903e-11
6.95535e-12
-4.06307e-13
-4.54034e-12
-5.27343e-12
-4.85303e-12
-3.87908e-12
-2.97734e-12
-2.27684e-12
-1.85079e-12
-1.69949e-12
-1.82212e-12
-2.38845e-12
-3.45798e-12
-5.50382e-12
-9.25296e-12
-1.61453e-11
-2.87625e-11
-5.17835e-11
-9.36129e-11
-1.68147e-10
-2.98065e-10
-5.23507e-10
-9.16399e-10
-1.58328e-09
-2.67843e-09
-4.4666e-09
-7.31523e-09
-1.1533e-08
-1.7033e-08
-1.8638e-08
4.71858e-08
4.2137e-08
1.26243e-08
-3.88956e-09
-8.40112e-09
-7.68818e-09
-5.58637e-09
-3.59387e-09
-2.11971e-09
-1.18226e-09
-6.43098e-10
-3.48132e-10
-1.77035e-10
-8.06157e-11
-3.24751e-11
-1.08223e-11
-3.06069e-12
-6.80632e-13
-1.37228e-13
-2.31395e-14
-3.39855e-15
-3.93903e-16
-5.39107e-17
-8.13593e-18
-1.30576e-18
-2.22112e-19
-3.96774e-20
-7.34124e-21
-1.38766e-21
-2.65522e-22
-5.10963e-23
-9.84901e-24
-1.89708e-24
-3.64746e-25
-6.99395e-26
-1.33734e-26
-2.55004e-27
-4.8492e-28
-9.20782e-29
-1.74308e-29
-3.29355e-30
-6.2133e-31
-1.17061e-31
-2.20322e-32
-4.14355e-33
-7.78608e-34
-1.45046e-34
-2.00293e-35
-2.60592e-18
-9.66246e-18
-1.93351e-17
-3.23489e-17
-4.83614e-17
-6.4344e-17
-7.01713e-17
-3.78513e-17
1.04705e-16
5.3826e-16
1.71532e-15
4.7905e-15
1.27934e-14
3.38173e-14
8.94602e-14
2.35152e-13
6.07489e-13
1.49816e-12
3.31806e-12
6.53327e-12
1.02477e-11
1.14807e-11
7.18707e-12
-1.99605e-13
-4.47376e-12
-5.28856e-12
-4.89205e-12
-3.92548e-12
-3.00494e-12
-2.30502e-12
-1.87413e-12
-1.72228e-12
-1.84551e-12
-2.42414e-12
-3.51729e-12
-5.60857e-12
-9.44275e-12
-1.64912e-11
-2.94098e-11
-5.29935e-11
-9.58514e-11
-1.72178e-10
-3.05106e-10
-5.35758e-10
-9.37521e-10
-1.61871e-09
-2.73649e-09
-4.56051e-09
-7.4542e-09
-1.17314e-08
-1.72349e-08
-1.77115e-08
4.89861e-08
4.09368e-08
1.16147e-08
-4.39876e-09
-8.44576e-09
-7.57874e-09
-5.45745e-09
-3.48966e-09
-2.04997e-09
-1.14174e-09
-6.20673e-10
-3.35654e-10
-1.69259e-10
-7.62768e-11
-3.09846e-11
-9.98327e-12
-2.80383e-12
-6.15413e-13
-1.22548e-13
-2.04411e-14
-2.97656e-15
-3.40282e-16
-4.68986e-17
-7.11202e-18
-1.1472e-18
-1.9611e-19
-3.51805e-20
-6.53163e-21
-1.23799e-21
-2.37431e-22
-4.57848e-23
-8.84206e-24
-1.70615e-24
-3.28672e-25
-6.31238e-26
-1.20884e-26
-2.30825e-27
-4.39502e-28
-8.35643e-29
-1.58356e-29
-2.9948e-30
-5.65385e-31
-1.06583e-31
-2.00693e-32
-3.77561e-33
-7.09618e-34
-1.32208e-34
-1.82567e-35
-2.59762e-18
-9.63384e-18
-1.92846e-17
-3.22835e-17
-4.83152e-17
-6.44226e-17
-7.06603e-17
-3.94825e-17
1.00088e-16
5.25985e-16
1.68335e-15
4.70731e-15
1.25751e-14
3.32387e-14
8.79223e-14
2.31153e-13
5.97479e-13
1.47531e-12
3.27389e-12
6.46649e-12
1.02196e-11
1.15841e-11
7.42148e-12
-2.37378e-14
-4.42253e-12
-5.30061e-12
-4.92519e-12
-3.96377e-12
-3.04102e-12
-2.33099e-12
-1.8953e-12
-1.74201e-12
-1.844e-12
-2.458e-12
-3.57315e-12
-5.70797e-12
-9.6238e-12
-1.68053e-11
-3.00281e-11
-5.41206e-11
-9.791e-11
-1.75876e-10
-3.11552e-10
-5.46946e-10
-9.56541e-10
-1.65059e-09
-2.7883e-09
-4.64009e-09
-7.55969e-09
-1.18632e-08
-1.73254e-08
-1.63027e-08
5.05478e-08
3.96971e-08
1.06072e-08
-4.75339e-09
-8.46842e-09
-7.49069e-09
-5.35729e-09
-3.40896e-09
-1.994e-09
-1.10778e-09
-6.01873e-10
-3.25995e-10
-1.61285e-10
-7.18602e-11
-2.68091e-11
-8.92655e-12
-2.5116e-12
-5.4967e-13
-1.08854e-13
-1.80432e-14
-2.61282e-15
-3.01491e-16
-4.21583e-17
-6.44486e-18
-1.04451e-18
-1.79151e-19
-3.22188e-20
-5.99459e-21
-1.13817e-21
-2.18604e-22
-4.22065e-23
-8.15969e-24
-1.57592e-24
-3.03894e-25
-5.84083e-26
-1.11927e-26
-2.1385e-27
-4.07399e-28
-7.74949e-29
-1.46908e-29
-2.77911e-30
-5.24783e-31
-9.89446e-32
-1.86324e-32
-3.50535e-33
-6.58785e-34
-1.22723e-34
-1.69446e-35
-2.59052e-18
-9.60934e-18
-1.92414e-17
-3.22272e-17
-4.82743e-17
-6.44854e-17
-7.10644e-17
-4.08336e-17
9.6274e-17
5.15907e-16
1.65734e-15
4.64035e-15
1.24015e-14
3.27849e-14
8.67156e-14
2.28089e-13
5.90097e-13
1.45905e-12
3.24271e-12
6.41789e-12
1.01984e-11
1.16624e-11
7.60211e-12
1.27676e-13
-4.37966e-12
-5.31389e-12
-4.95491e-12
-3.99765e-12
-3.06956e-12
-2.35323e-12
-1.91451e-12
-1.76256e-12
-1.89006e-12
-2.49193e-12
-3.62523e-12
-5.79872e-12
-9.78699e-12
-1.71057e-11
-3.05882e-11
-5.51553e-11
-9.98151e-11
-1.79337e-10
-3.17676e-10
-5.57817e-10
-9.75404e-10
-1.68275e-09
-2.84066e-09
-4.72356e-09
-7.67955e-09
-1.2026e-08
-1.74753e-08
-1.48837e-08
5.18126e-08
3.86395e-08
9.6767e-09
-5.02713e-09
-8.50011e-09
-7.42761e-09
-5.2772e-09
-3.34152e-09
-1.94742e-09
-1.07987e-09
-5.86334e-10
-3.17029e-10
-1.5608e-10
-6.90097e-11
-2.57423e-11
-8.4147e-12
-2.35307e-12
-5.12946e-13
-1.01066e-13
-1.66595e-14
-2.3843e-15
-2.78316e-16
-3.90839e-17
-5.98761e-18
-9.72389e-19
-1.67133e-19
-3.01029e-20
-5.60926e-21
-1.06621e-21
-2.0497e-22
-3.96044e-23
-7.66168e-24
-1.48058e-24
-2.85683e-25
-5.49334e-26
-1.05311e-26
-2.01277e-27
-3.8361e-28
-7.29366e-29
-1.38294e-29
-2.61652e-30
-4.94121e-31
-9.31658e-32
-1.75438e-32
-3.30029e-33
-6.2017e-34
-1.15511e-34
-1.59464e-35
-2.58459e-18
-9.58889e-18
-1.92052e-17
-3.21803e-17
-4.82404e-17
-6.45377e-17
-7.13993e-17
-4.19488e-17
9.31402e-17
5.07666e-16
1.63617e-15
4.58612e-15
1.22615e-14
3.242e-14
8.57445e-14
2.25639e-13
5.84061e-13
1.44514e-12
3.2164e-12
6.37955e-12
1.01875e-11
1.17399e-11
7.75859e-12
2.51195e-13
-4.34212e-12
-5.32363e-12
-4.98015e-12
-4.02672e-12
-3.09393e-12
-2.37263e-12
-1.93041e-12
-1.77746e-12
-1.90524e-12
-2.51895e-12
-3.67122e-12
-5.88061e-12
-9.93443e-12
-1.73782e-11
-3.10825e-11
-5.60501e-11
-1.01423e-10
-1.82164e-10
-3.22489e-10
-5.69591e-10
-9.94478e-10
-1.71475e-09
-2.89373e-09
-4.81027e-09
-7.81836e-09
-1.22345e-08
-1.77266e-08
-1.37874e-08
5.26379e-08
3.78189e-08
9.04105e-09
-5.27803e-09
-8.50401e-09
-7.35443e-09
-5.19899e-09
-3.28e-09
-1.90628e-09
-1.05559e-09
-5.72976e-10
-3.09294e-10
-1.51795e-10
-6.69074e-11
-2.79068e-11
-8.24539e-12
-2.27907e-12
-4.95665e-13
-9.70627e-14
-1.59244e-14
-2.24701e-15
-2.63217e-16
-3.68896e-17
-5.64593e-18
-9.17425e-19
-1.57879e-19
-2.84664e-20
-5.30918e-21
-1.00983e-21
-1.94231e-22
-3.75461e-23
-7.26648e-24
-1.40476e-24
-2.71167e-25
-5.21605e-26
-1.00027e-26
-1.91233e-27
-3.64589e-28
-6.93117e-29
-1.31443e-29
-2.4872e-30
-4.69736e-31
-8.85714e-32
-1.66786e-32
-3.13739e-33
-5.89515e-34
-1.09789e-34
-1.51551e-35
-2.57973e-18
-9.57216e-18
-1.91758e-17
-3.21423e-17
-4.82138e-17
-6.45832e-17
-7.16786e-17
-4.28696e-17
9.05692e-17
5.00944e-16
1.61902e-15
4.54253e-15
1.21502e-14
3.21344e-14
8.49995e-14
2.23755e-13
5.79375e-13
1.43479e-12
3.19742e-12
6.35135e-12
1.01814e-11
1.17996e-11
7.88563e-12
3.57859e-13
-4.30753e-12
-5.33291e-12
-5.00445e-12
-4.0546e-12
-3.11708e-12
-2.39124e-12
-1.94483e-12
-1.79081e-12
-1.92698e-12
-2.54344e-12
-3.71413e-12
-5.95818e-12
-1.00782e-11
-1.76425e-11
-3.15716e-11
-5.69516e-11
-1.03079e-10
-1.85159e-10
-3.27831e-10
-5.79109e-10
-1.01078e-09
-1.7423e-09
-2.93912e-09
-4.88311e-09
-7.92854e-09
-1.23844e-08
-1.78819e-08
-1.19085e-08
5.32989e-08
3.69182e-08
8.41333e-09
-5.55064e-09
-8.53035e-09
-7.30441e-09
-5.13978e-09
-3.23276e-09
-1.8744e-09
-1.03688e-09
-5.62657e-10
-3.03146e-10
-1.48323e-10
-6.50361e-11
-2.65897e-11
-7.83915e-12
-2.15582e-12
-4.69003e-13
-9.14383e-14
-1.49373e-14
-2.09302e-15
-2.47042e-16
-3.4765e-17
-5.33449e-18
-8.68656e-19
-1.49772e-19
-2.70472e-20
-5.05106e-21
-9.61704e-22
-1.8513e-22
-3.58124e-23
-6.93527e-24
-1.34147e-24
-2.59085e-25
-4.98577e-26
-9.56473e-27
-1.8292e-27
-3.48852e-28
-6.63361e-29
-1.25826e-29
-2.38132e-30
-4.49803e-31
-8.48222e-32
-1.59738e-32
-3.00498e-33
-5.64646e-34
-1.05157e-34
-1.45153e-35
-2.57582e-18
-9.55872e-18
-1.91523e-17
-3.21123e-17
-4.81939e-17
-6.46237e-17
-7.19132e-17
-4.36352e-17
8.84365e-17
4.95361e-16
1.60471e-15
4.50592e-15
1.20558e-14
3.18891e-14
8.43474e-14
2.22066e-13
5.75374e-13
1.42628e-12
3.18268e-12
6.33068e-12
1.01803e-11
1.18533e-11
7.99223e-12
4.43005e-13
-4.283e-12
-5.34132e-12
-5.02369e-12
-4.0756e-12
-3.13424e-12
-2.40477e-12
-1.95661e-12
-1.97967e-12
-1.94032e-12
-2.56807e-12
-3.75363e-12
-6.02969e-12
-1.02106e-11
-1.78895e-11
-3.20332e-11
-5.78092e-11
-1.04668e-10
-1.88068e-10
-3.33097e-10
-5.88576e-10
-1.02734e-09
-1.77076e-09
-2.98673e-09
-4.96131e-09
-8.05472e-09
-1.25787e-08
-1.81475e-08
-1.03849e-08
5.37838e-08
3.61588e-08
7.87552e-09
-5.74801e-09
-8.56303e-09
-7.27654e-09
-5.10035e-09
-3.1988e-09
-1.8508e-09
-1.02267e-09
-5.54598e-10
-2.9822e-10
-1.45483e-10
-6.34033e-11
-2.54395e-11
-7.47261e-12
-2.04689e-12
-4.45497e-13
-8.6611e-14
-1.41086e-14
-1.96846e-15
-2.34035e-16
-3.31036e-17
-5.09663e-18
-8.31876e-19
-1.43684e-19
-2.59808e-20
-4.85653e-21
-9.25293e-22
-1.78212e-22
-3.44879e-23
-6.68087e-24
-1.29258e-24
-2.49704e-25
-4.8061e-26
-9.22149e-27
-1.7638e-27
-3.36433e-28
-6.39826e-29
-1.21376e-29
-2.29737e-30
-4.3399e-31
-8.18478e-32
-1.54149e-32
-2.90002e-33
-5.44947e-34
-1.01491e-34
-1.40093e-35
-2.57274e-18
-9.54818e-18
-1.91339e-17
-3.20892e-17
-4.81796e-17
-6.46592e-17
-7.21061e-17
-4.42567e-17
8.67164e-17
4.90874e-16
1.59324e-15
4.47662e-15
1.19804e-14
3.16935e-14
8.38288e-14
2.20811e-13
5.72435e-13
1.41993e-12
3.17116e-12
6.31394e-12
1.01799e-11
1.19006e-11
8.08421e-12
5.13419e-13
-4.26523e-12
-5.35155e-12
-5.04129e-12
-4.09297e-12
-3.14699e-12
-2.41014e-12
-1.94623e-12
-1.75661e-12
-1.93506e-12
-2.57997e-12
-3.78532e-12
-6.09129e-12
-1.03261e-11
-1.81075e-11
-3.24455e-11
-5.85844e-11
-1.06119e-10
-1.90734e-10
-3.37844e-10
-5.97025e-10
-1.04219e-09
-1.79652e-09
-3.03032e-09
-5.03382e-09
-8.17122e-09
-1.27545e-08
-1.83725e-08
-9.02003e-09
5.41185e-08
3.55733e-08
7.46236e-09
-5.8858e-09
-8.56707e-09
-7.23746e-09
-5.05828e-09
-3.16586e-09
-1.82894e-09
-1.00979e-09
-5.47535e-10
-2.93996e-10
-1.43138e-10
-6.21676e-11
-2.49586e-11
-7.27652e-12
-1.9808e-12
-4.30976e-13
-8.35697e-14
-1.35774e-14
-1.88559e-15
-2.25432e-16
-3.19901e-17
-4.93724e-18
-8.07438e-19
-1.39661e-19
-2.52748e-20
-4.72668e-21
-9.00681e-22
-1.73468e-22
-3.35656e-23
-6.5011e-24
-1.25757e-24
-2.42907e-25
-4.67459e-26
-8.96813e-27
-1.71519e-27
-3.27148e-28
-6.22144e-29
-1.18019e-29
-2.23381e-30
-4.2198e-31
-7.95822e-32
-1.49881e-32
-2.81967e-33
-5.29837e-34
-9.86732e-35
-1.36199e-35
-2.57039e-18
-9.54013e-18
-1.91199e-17
-3.20719e-17
-4.817e-17
-6.46893e-17
-7.22608e-17
-4.47474e-17
8.53679e-17
4.87375e-16
1.58434e-15
4.45401e-15
1.19228e-14
3.15464e-14
8.34427e-14
2.1985e-13
5.70105e-13
1.41488e-12
3.16231e-12
6.3024e-12
1.01829e-11
1.19395e-11
8.1547e-12
5.67915e-13
-4.25147e-12
-5.35925e-12
-5.05527e-12
-4.10789e-12
-3.16077e-12
-2.42652e-12
-1.97343e-12
-1.82635e-12
-1.95813e-12
-2.60387e-12
-3.81765e-12
-6.14768e-12
-1.04299e-11
-1.83015e-11
-3.28087e-11
-5.92588e-11
-1.07363e-10
-1.92989e-10
-3.419e-10
-6.04291e-10
-1.05509e-09
-1.8192e-09
-3.06937e-09
-5.10027e-09
-8.28156e-09
-1.29279e-08
-1.86004e-08
-8.40715e-09
5.43657e-08
3.52241e-08
7.17049e-09
-5.99338e-09
-8.57568e-09
-7.21018e-09
-5.02599e-09
-3.13954e-09
-1.81125e-09
-9.99369e-10
-5.41814e-10
-2.90591e-10
-1.41269e-10
-6.12056e-11
-2.45188e-11
-7.14639e-12
-1.93384e-12
-4.20949e-13
-8.14667e-14
-1.32099e-14
-1.82533e-15
-2.18902e-16
-3.1088e-17
-4.8023e-18
-7.86361e-19
-1.36192e-19
-2.46711e-20
-4.61677e-21
-8.80029e-22
-1.69514e-22
-3.28016e-23
-6.35301e-24
-1.22889e-24
-2.37364e-25
-4.56787e-26
-8.76341e-27
-1.67606e-27
-3.19698e-28
-6.07998e-29
-1.1534e-29
-2.18317e-30
-4.12428e-31
-7.77827e-32
-1.46494e-32
-2.75599e-33
-5.1787e-34
-9.64435e-35
-1.33119e-35
-2.56865e-18
-9.53422e-18
-1.91098e-17
-3.20595e-17
-4.81638e-17
-6.4714e-17
-7.23802e-17
-4.51195e-17
8.43594e-17
4.8479e-16
1.57783e-15
4.43764e-15
1.18812e-14
3.14381e-14
8.31506e-14
2.19105e-13
5.6831e-13
1.41106e-12
3.15569e-12
6.29342e-12
1.01853e-11
1.1972e-11
8.21281e-12
6.10834e-13
-4.24093e-12
-5.36597e-12
-5.06749e-12
-4.12044e-12
-3.1713e-12
-2.43586e-12
-1.98299e-12
-1.83758e-12
-1.97e-12
-2.61897e-12
-3.8424e-12
-6.19184e-12
-1.05113e-11
-1.84536e-11
-3.30928e-11
-5.97859e-11
-1.08335e-10
-1.94752e-10
-3.45046e-10
-6.09878e-10
-1.06479e-09
-1.83569e-09
-3.09647e-09
-5.14347e-09
-8.3477e-09
-1.30208e-08
-1.87107e-08
-7.04216e-09
5.45398e-08
3.48203e-08
6.88376e-09
-6.07927e-09
-8.58435e-09
-7.19188e-09
-5.00367e-09
-3.12106e-09
-1.79858e-09
-9.91847e-10
-5.3764e-10
-2.88062e-10
-1.39913e-10
-6.06641e-11
-2.4789e-11
-7.22688e-12
-1.93538e-12
-4.20432e-13
-8.10803e-14
-1.31068e-14
-1.79905e-15
-2.15837e-16
-3.05683e-17
-4.71185e-18
-7.70768e-19
-1.33461e-19
-2.41791e-20
-4.52565e-21
-8.62818e-22
-1.66223e-22
-3.21688e-23
-6.23113e-24
-1.20543e-24
-2.32858e-25
-4.48155e-26
-8.59851e-27
-1.64465e-27
-3.13732e-28
-5.96691e-29
-1.13202e-29
-2.14281e-30
-4.04822e-31
-7.63513e-32
-1.43803e-32
-2.70543e-33
-5.08379e-34
-9.46769e-35
-1.30681e-35
-2.56745e-18
-9.53014e-18
-1.91028e-17
-3.20513e-17
-4.81603e-17
-6.47326e-17
-7.24654e-17
-4.53812e-17
8.36514e-17
4.82957e-16
1.57313e-15
4.42552e-15
1.18496e-14
3.13563e-14
8.29363e-14
2.18587e-13
5.67097e-13
1.4085e-12
3.15129e-12
6.2876e-12
1.01877e-11
1.19949e-11
8.25327e-12
6.40843e-13
-4.23409e-12
-5.37117e-12
-5.07622e-12
-4.1291e-12
-3.17824e-12
-2.44157e-12
-1.98766e-12
-1.84179e-12
-1.98069e-12
-2.62821e-12
-3.85961e-12
-6.22354e-12
-1.057e-11
-1.85632e-11
-3.32974e-11
-6.01648e-11
-1.09033e-10
-1.96015e-10
-3.47293e-10
-6.13849e-10
-1.07174e-09
-1.84771e-09
-3.11677e-09
-5.1772e-09
-8.40173e-09
-1.31007e-08
-1.87966e-08
-6.5999e-09
5.47051e-08
3.46503e-08
6.74932e-09
-6.14731e-09
-8.5895e-09
-7.17873e-09
-4.98814e-09
-3.10823e-09
-1.78973e-09
-9.8654e-10
-5.34677e-10
-2.8622e-10
-1.38828e-10
-5.98793e-11
-2.19748e-11
-6.92062e-12
-1.85571e-12
-4.03882e-13
-7.79051e-14
-1.25938e-14
-1.73245e-15
-2.09233e-16
-2.98497e-17
-4.62154e-18
-7.57586e-19
-1.31309e-19
-2.38014e-20
-4.45645e-21
-8.49812e-22
-1.63744e-22
-3.16931e-23
-6.13962e-24
-1.18783e-24
-2.29482e-25
-4.41692e-26
-8.47512e-27
-1.62115e-27
-3.0927e-28
-5.88235e-29
-1.11603e-29
-2.11264e-30
-3.99138e-31
-7.52824e-32
-1.41795e-32
-2.66773e-33
-5.01305e-34
-9.33609e-35
-1.28865e-35
-2.56669e-18
-9.52758e-18
-1.90985e-17
-3.20462e-17
-4.81584e-17
-6.47455e-17
-7.25235e-17
-4.5561e-17
8.31585e-17
4.81682e-16
1.5699e-15
4.41739e-15
1.18292e-14
3.13047e-14
8.2801e-14
2.18254e-13
5.66327e-13
1.4069e-12
3.14864e-12
6.28421e-12
1.01896e-11
1.20098e-11
8.27913e-12
6.59989e-13
-4.22986e-12
-5.3747e-12
-5.08194e-12
-4.13459e-12
-3.17701e-12
-2.44527e-12
-1.99098e-12
-1.84541e-12
-1.98515e-12
-2.63513e-12
-3.87108e-12
-6.24402e-12
-1.06075e-11
-1.86328e-11
-3.34265e-11
-6.04025e-11
-1.09468e-10
-1.96796e-10
-3.48668e-10
-6.16258e-10
-1.07589e-09
-1.85473e-09
-3.12836e-09
-5.19595e-09
-8.43114e-09
-1.31438e-08
-1.88491e-08
-6.00234e-09
5.48096e-08
3.44824e-08
6.63951e-09
-6.18518e-09
-8.60839e-09
-7.18229e-09
-4.98484e-09
-3.10326e-09
-1.78554e-09
-9.8374e-10
-5.32984e-10
-2.85096e-10
-1.38173e-10
-5.95065e-11
-2.18539e-11
-6.85149e-12
-1.83083e-12
-3.98299e-13
-7.67321e-14
-1.23905e-14
-1.70274e-15
-2.06063e-16
-2.9451e-17
-4.56533e-18
-7.48981e-19
-1.29888e-19
-2.35526e-20
-4.411e-21
-8.41289e-22
-1.62122e-22
-3.13819e-23
-6.0798e-24
-1.17634e-24
-2.27277e-25
-4.37474e-26
-8.39467e-27
-1.60585e-27
-3.06371e-28
-5.8275e-29
-1.10567e-29
-2.0931e-30
-3.95455e-31
-7.45888e-32
-1.4049e-32
-2.64318e-33
-4.96692e-34
-9.25013e-35
-1.27678e-35
-2.56632e-18
-9.52633e-18
-1.90964e-17
-3.20437e-17
-4.81577e-17
-6.47523e-17
-7.25529e-17
-4.56499e-17
8.29219e-17
4.81079e-16
1.56839e-15
4.41358e-15
1.18195e-14
3.12802e-14
8.27366e-14
2.18096e-13
5.6596e-13
1.40615e-12
3.14738e-12
6.2826e-12
1.01906e-11
1.20172e-11
8.292e-12
6.69369e-13
-4.22791e-12
-5.3767e-12
-5.08523e-12
-4.13828e-12
-3.18256e-12
-2.44831e-12
-1.99388e-12
-1.85e-12
-1.98547e-12
-2.6412e-12
-3.87773e-12
-6.25446e-12
-1.0626e-11
-1.86666e-11
-3.34883e-11
-6.05142e-11
-1.09667e-10
-1.97142e-10
-3.49248e-10
-6.17205e-10
-1.07735e-09
-1.85683e-09
-3.1309e-09
-5.19795e-09
-8.42957e-09
-1.31321e-08
-1.88262e-08
-5.04523e-09
5.4852e-08
3.42483e-08
6.42823e-09
-6.15838e-09
-8.59758e-09
-7.17221e-09
-4.97599e-09
-3.09656e-09
-1.78114e-09
-9.8127e-10
-5.31713e-10
-2.84367e-10
-1.37787e-10
-5.93072e-11
-2.18183e-11
-6.82323e-12
-1.82026e-12
-3.95957e-13
-7.62433e-14
-1.23057e-14
-1.68989e-15
-2.04659e-16
-2.92632e-17
-4.5376e-18
-7.44595e-19
-1.29153e-19
-2.34226e-20
-4.38712e-21
-8.36788e-22
-1.61262e-22
-3.12165e-23
-6.04795e-24
-1.17021e-24
-2.26103e-25
-4.3523e-26
-8.35193e-27
-1.59774e-27
-3.04836e-28
-5.79853e-29
-1.10021e-29
-2.08286e-30
-3.93536e-31
-7.42295e-32
-1.39817e-32
-2.6306e-33
-4.94337e-34
-9.2064e-35
-1.27075e-35
-2.56632e-18
-9.52631e-18
-1.90963e-17
-3.20437e-17
-4.81577e-17
-6.47525e-17
-7.25536e-17
-4.56514e-17
8.29188e-17
4.81073e-16
1.56838e-15
4.41357e-15
1.18195e-14
3.12803e-14
8.27368e-14
2.18097e-13
5.65963e-13
1.40616e-12
3.14741e-12
6.28267e-12
1.01908e-11
1.20174e-11
8.29198e-12
6.69067e-13
-4.22831e-12
-5.37697e-12
-5.08549e-12
-4.13911e-12
-3.18768e-12
-2.44891e-12
-1.99384e-12
-1.84895e-12
-1.98369e-12
-2.63992e-12
-3.87726e-12
-6.25427e-12
-1.0626e-11
-1.86668e-11
-3.34895e-11
-6.05179e-11
-1.09678e-10
-1.97172e-10
-3.49327e-10
-6.17405e-10
-1.07785e-09
-1.85803e-09
-3.13372e-09
-5.20447e-09
-8.44424e-09
-1.31628e-08
-1.88746e-08
-5.90814e-09
5.48226e-08
3.4444e-08
6.59987e-09
-6.21122e-09
-8.60368e-09
-7.16925e-09
-4.97286e-09
-3.09463e-09
-1.78017e-09
-9.80769e-10
-5.31436e-10
-2.84219e-10
-1.37718e-10
-5.92782e-11
-2.18212e-11
-6.82047e-12
-1.81941e-12
-3.95768e-13
-7.62067e-14
-1.22998e-14
-1.68904e-15
-2.04563e-16
-2.92498e-17
-4.53559e-18
-7.44286e-19
-1.29103e-19
-2.34144e-20
-4.38574e-21
-8.36555e-22
-1.61222e-22
-3.12101e-23
-6.04691e-24
-1.17005e-24
-2.26078e-25
-4.35194e-26
-8.35142e-27
-1.59767e-27
-3.04828e-28
-5.79847e-29
-1.10022e-29
-2.08288e-30
-3.93543e-31
-7.42312e-32
-1.39821e-32
-2.63067e-33
-4.94352e-34
-9.20668e-35
-1.27079e-35
-2.56668e-18
-9.52753e-18
-1.90984e-17
-3.20461e-17
-4.81585e-17
-6.47462e-17
-7.2526e-17
-4.55673e-17
8.31457e-17
4.81656e-16
1.56985e-15
4.41731e-15
1.1829e-14
3.13047e-14
8.28011e-14
2.18255e-13
5.66335e-13
1.40693e-12
3.14871e-12
6.28437e-12
1.01899e-11
1.20102e-11
8.2792e-12
6.59261e-13
-4.23088e-12
-5.37548e-12
-5.08249e-12
-4.13528e-12
-3.18347e-12
-2.4459e-12
-1.99156e-12
-1.84623e-12
-1.9844e-12
-2.6357e-12
-3.87125e-12
-6.24409e-12
-1.06076e-11
-1.86331e-11
-3.34274e-11
-6.04044e-11
-1.09472e-10
-1.96808e-10
-3.48689e-10
-6.16296e-10
-1.07595e-09
-1.85481e-09
-3.12837e-09
-5.19563e-09
-8.42967e-09
-1.31392e-08
-1.88391e-08
-6.18507e-09
5.47755e-08
3.45402e-08
6.66678e-09
-6.17974e-09
-8.59524e-09
-7.16995e-09
-4.97604e-09
-3.09779e-09
-1.78248e-09
-9.82207e-10
-5.32309e-10
-2.84751e-10
-1.38018e-10
-5.94409e-11
-2.18579e-11
-6.84493e-12
-1.82882e-12
-3.97842e-13
-7.66443e-14
-1.2376e-14
-1.70069e-15
-2.05832e-16
-2.94191e-17
-4.56053e-18
-7.48215e-19
-1.29762e-19
-2.3531e-20
-4.4072e-21
-8.40611e-22
-1.62e-22
-3.13604e-23
-6.07603e-24
-1.17568e-24
-2.27166e-25
-4.37288e-26
-8.39158e-27
-1.60535e-27
-3.0629e-28
-5.82623e-29
-1.10548e-29
-2.09283e-30
-3.95421e-31
-7.45852e-32
-1.40488e-32
-2.64321e-33
-4.96709e-34
-9.25059e-35
-1.27685e-35
-2.56744e-18
-9.53011e-18
-1.91028e-17
-3.20512e-17
-4.81604e-17
-6.47333e-17
-7.24685e-17
-4.53914e-17
8.36204e-17
4.82877e-16
1.57295e-15
4.42515e-15
1.18491e-14
3.13561e-14
8.29375e-14
2.18593e-13
5.67123e-13
1.40857e-12
3.15147e-12
6.28795e-12
1.01882e-11
1.19952e-11
8.25268e-12
6.39445e-13
-4.23548e-12
-5.3722e-12
-5.07681e-12
-4.12946e-12
-3.17854e-12
-2.44187e-12
-1.9881e-12
-1.84259e-12
-1.98029e-12
-2.62866e-12
-3.85937e-12
-6.22263e-12
-1.05681e-11
-1.85594e-11
-3.329e-11
-6.01506e-11
-1.09006e-10
-1.95968e-10
-3.47204e-10
-6.1368e-10
-1.07141e-09
-1.84707e-09
-3.11553e-09
-5.17477e-09
-8.39714e-09
-1.30923e-08
-1.87857e-08
-6.72108e-09
5.46944e-08
3.47021e-08
6.78027e-09
-6.13951e-09
-8.59073e-09
-7.17816e-09
-4.98621e-09
-3.10619e-09
-1.7882e-09
-9.85606e-10
-5.34199e-10
-2.85919e-10
-1.38677e-10
-5.9811e-11
-2.19777e-11
-6.9131e-12
-1.85316e-12
-4.03301e-13
-7.7787e-14
-1.2574e-14
-1.7299e-15
-2.08925e-16
-2.98046e-17
-4.61486e-18
-7.56602e-19
-1.31158e-19
-2.37772e-20
-4.45241e-21
-8.49121e-22
-1.63626e-22
-3.1673e-23
-6.1363e-24
-1.1873e-24
-2.29402e-25
-4.41578e-26
-8.47368e-27
-1.62101e-27
-3.09271e-28
-5.8828e-29
-1.11619e-29
-2.11307e-30
-3.99239e-31
-7.53044e-32
-1.41841e-32
-2.66864e-33
-5.01483e-34
-9.33946e-35
-1.28912e-35
-2.56865e-18
-9.53422e-18
-1.91098e-17
-3.20596e-17
-4.81639e-17
-6.47142e-17
-7.23805e-17
-4.512e-17