/*--------------------------------*- C++ -*----------------------------------*\
  =========                 |
  \\      /  F ield         | OpenFOAM: The Open Source CFD Toolbox
   \\    /   O peration     | Website:  https://openfoam.org
    \\  /    A nd           | Version:  10
     \\/     M anipulation  |
\*---------------------------------------------------------------------------*/
FoamFile
{
    format      ascii;
    class       volScalarField;
    location    "1";
    object      RR.HNO;
}
// * * * * * * * * * * * * * * * * * * * * * * * * * * * * * * * * * * * * * //

dimensions      [1 -3 -1 0 0 0 0];

internalField   nonuniform List<scalar> 
4000
(
2.95039e-14
4.28576e-13
1.86413e-12
5.93931e-12
1.63603e-11
4.14456e-11
9.93304e-11
2.28238e-10
5.0547e-10
1.07978e-09
2.22299e-09
4.41128e-09
8.44832e-09
1.56275e-08
2.78862e-08
4.77108e-08
7.80249e-08
1.20398e-07
1.69469e-07
2.16028e-07
2.31022e-07
1.80408e-07
3.48874e-08
-1.88316e-07
-4.37845e-07
-6.37395e-07
-7.28761e-07
-6.93573e-07
-5.82787e-07
-4.86005e-07
-5.39365e-07
-8.97615e-07
-1.78928e-06
-3.2922e-06
-5.72834e-06
-9.25475e-06
-1.41933e-05
-2.20573e-05
-3.18533e-05
-4.56959e-05
-6.53776e-05
-9.23016e-05
-0.000127561
-0.000171597
-0.000222646
-0.000269918
-0.000288503
-0.00022581
2.11777e-05
0.000623351
0.00174979
0.00257035
-0.0014654
-0.000823372
-0.000461533
-0.000257967
-0.000141712
-7.84587e-05
-4.58534e-05
-2.77636e-05
-5.10294e-06
1.07631e-05
6.28129e-06
-2.01728e-07
-3.11673e-06
-4.09776e-06
-2.8081e-06
-1.18832e-06
-6.46715e-08
3.25489e-07
3.00283e-07
1.80606e-07
9.01314e-08
4.00519e-08
1.63015e-08
6.22966e-09
2.26598e-09
7.92848e-10
2.68501e-10
8.82935e-11
2.82974e-11
8.84202e-12
2.69982e-12
8.07723e-13
2.36484e-13
6.80076e-14
1.921e-14
5.3162e-15
1.43477e-15
3.73087e-16
8.99205e-17
1.8253e-17
1.78607e-18
-1.1173e-18
-1.1041e-18
-6.92961e-19
-3.74043e-19
-1.81891e-19
-7.58487e-20
-1.77606e-20
2.92483e-14
4.24843e-13
1.84792e-12
5.88873e-12
1.6225e-11
4.11093e-11
9.85336e-11
2.26398e-10
5.01271e-10
1.07027e-09
2.20164e-09
4.36445e-09
8.34735e-09
1.54241e-08
2.75105e-08
4.70771e-08
7.69837e-08
1.18879e-07
1.67855e-07
2.15478e-07
2.33091e-07
1.87149e-07
4.65567e-08
-1.75356e-07
-4.27902e-07
-6.35284e-07
-7.3624e-07
-7.07469e-07
-5.98558e-07
-4.99462e-07
-5.47456e-07
-8.79811e-07
-1.75059e-06
-3.28175e-06
-5.72632e-06
-9.28299e-06
-1.42729e-05
-2.20673e-05
-3.21474e-05
-4.61564e-05
-6.60727e-05
-9.33212e-05
-0.000128954
-0.00017345
-0.00022488
-0.000272098
-0.000289408
-0.000222851
3.28883e-05
0.000651475
0.00179538
0.00252566
-0.0014612
-0.000820399
-0.000459483
-0.000256383
-0.000141156
-7.81367e-05
-4.58024e-05
-2.74631e-05
-3.725e-06
1.1201e-05
5.88133e-06
-4.28727e-07
-3.33977e-06
-4.1398e-06
-2.72579e-06
-1.09848e-06
-1.2432e-08
3.35635e-07
2.95098e-07
1.7526e-07
8.72278e-08
3.87409e-08
1.58869e-08
6.11911e-09
2.2449e-09
7.92091e-10
2.70412e-10
8.9593e-11
2.89267e-11
9.10309e-12
2.8009e-12
8.43021e-13
2.49202e-13
7.21883e-14
2.05009e-14
5.68931e-15
1.53552e-15
3.97536e-16
9.62487e-17
1.97045e-17
2.05601e-18
-1.09723e-18
-1.12117e-18
-7.07078e-19
-3.81801e-19
-1.85521e-19
-7.72963e-20
-1.80887e-20
2.90407e-14
4.21886e-13
1.83549e-12
5.85075e-12
1.61254e-11
4.08709e-11
9.79706e-11
2.25049e-10
4.9799e-10
1.06223e-09
2.18194e-09
4.3162e-09
8.24217e-09
1.52121e-08
2.71118e-08
4.63952e-08
7.59906e-08
1.17515e-07
1.66467e-07
2.15146e-07
2.35646e-07
1.94479e-07
6.0761e-08
-1.62207e-07
-4.15708e-07
-6.29853e-07
-7.40167e-07
-7.2002e-07
-6.16011e-07
-5.16049e-07
-5.5862e-07
-8.81261e-07
-1.76355e-06
-3.27117e-06
-5.73163e-06
-9.33641e-06
-1.44584e-05
-2.24638e-05
-3.26274e-05
-4.69144e-05
-6.72093e-05
-9.49514e-05
-0.000131231
-0.000176524
-0.000228611
-0.000275887
-0.000291677
-0.000220053
4.75841e-05
0.000688523
0.00185152
0.00241419
-0.00145526
-0.00081602
-0.000456528
-0.000254494
-0.000139466
-7.72694e-05
-4.55349e-05
-2.68509e-05
-1.77838e-06
1.15617e-05
5.25826e-06
-7.6258e-07
-3.61828e-06
-4.16465e-06
-2.60289e-06
-9.78837e-07
5.02669e-08
3.47286e-07
2.90025e-07
1.69639e-07
8.42928e-08
3.75612e-08
1.54455e-08
5.97841e-09
2.20595e-09
7.83376e-10
2.69201e-10
8.97064e-11
2.9165e-11
9.23857e-12
2.85859e-12
8.65085e-13
2.5636e-13
7.44471e-14
2.12061e-14
5.90482e-15
1.59979e-15
4.16367e-16
1.00911e-16
2.08217e-17
2.27531e-18
-1.08018e-18
-1.13661e-18
-7.20471e-19
-3.89515e-19
-1.89285e-19
-7.88461e-20
-1.8448e-20
2.87197e-14
4.17202e-13
1.81489e-12
5.78388e-12
1.5936e-11
4.03723e-11
9.67258e-11
2.22066e-10
4.91094e-10
1.04687e-09
2.14919e-09
4.25042e-09
8.11312e-09
1.49679e-08
2.66725e-08
4.56582e-08
7.48559e-08
1.16136e-07
1.65233e-07
2.14863e-07
2.38003e-07
2.01412e-07
7.27792e-08
-1.48302e-07
-4.04241e-07
-6.24308e-07
-7.43297e-07
-7.31976e-07
-6.33562e-07
-5.33585e-07
-5.70906e-07
-8.92971e-07
-1.76786e-06
-3.26972e-06
-5.74982e-06
-9.4086e-06
-1.4715e-05
-2.28761e-05
-3.32266e-05
-4.78513e-05
-6.86027e-05
-9.70051e-05
-0.000134094
-0.00018025
-0.000233007
-0.00028002
-0.00029309
-0.000213364
7.26013e-05
0.000746677
0.00193861
0.00226621
-0.00144437
-0.000808431
-0.000451506
-0.000251132
-0.000137401
-7.61726e-05
-4.51514e-05
-2.57415e-05
4.93513e-07
1.18983e-05
4.54791e-06
-1.16692e-06
-3.91355e-06
-4.12318e-06
-2.44973e-06
-8.44973e-07
1.16328e-07
3.58534e-07
2.84299e-07
1.63252e-07
8.00238e-08
3.54049e-08
1.45295e-08
5.63672e-09
2.09069e-09
7.48055e-10
2.59566e-10
8.75867e-11
2.87388e-11
9.16245e-12
2.85208e-12
8.67694e-13
2.5827e-13
7.5282e-14
2.15116e-14
6.00279e-15
1.62934e-15
4.24896e-16
1.0329e-16
2.13805e-17
2.38028e-18
-1.07435e-18
-1.14592e-18
-7.28164e-19
-3.93986e-19
-1.91517e-19
-7.97885e-20
-1.867e-20
2.83868e-14
4.12366e-13
1.79383e-12
5.71652e-12
1.57492e-11
3.9894e-11
9.55636e-11
2.19352e-10
4.8497e-10
1.03349e-09
2.12088e-09
4.19272e-09
8.0003e-09
1.47575e-08
2.63005e-08
4.50474e-08
7.39383e-08
1.14941e-07
1.64037e-07
2.14469e-07
2.39905e-07
2.07241e-07
8.35663e-08
-1.3508e-07
-3.91903e-07
-6.17807e-07
-7.465e-07
-7.44015e-07
-6.50549e-07
-5.51459e-07
-5.83775e-07
-8.84076e-07
-1.77667e-06
-3.27891e-06
-5.78289e-06
-9.50216e-06
-1.5005e-05
-2.32782e-05
-3.38721e-05
-4.88374e-05
-7.00907e-05
-9.91473e-05
-0.000137028
-0.000184007
-0.000237278
-0.000283653
-0.000293317
-0.000204513
0.000101274
0.000811037
0.00203048
0.0020272
-0.00141875
-0.000793354
-0.000442596
-0.000245704
-0.000134349
-7.45901e-05
-4.44848e-05
-2.43674e-05
2.5749e-06
1.19146e-05
3.84667e-06
-1.55312e-06
-4.16409e-06
-4.03735e-06
-2.29642e-06
-7.18854e-07
1.73838e-07
3.66444e-07
2.77973e-07
1.56577e-07
7.63027e-08
3.37183e-08
1.38608e-08
5.39588e-09
2.00936e-09
7.21822e-10
2.51316e-10
8.49874e-11
2.80175e-11
8.99655e-12
2.81591e-12
8.60419e-13
2.56896e-13
7.51173e-14
2.15307e-14
6.02264e-15
1.63798e-15
4.2785e-16
1.04173e-16
2.15965e-17
2.41746e-18
-1.07615e-18
-1.15231e-18
-7.32706e-19
-3.96509e-19
-1.92749e-19
-8.03023e-20
-1.87903e-20
2.80396e-14
4.07313e-13
1.77176e-12
5.64574e-12
1.55525e-11
3.93908e-11
9.43451e-11
2.16525e-10
4.78645e-10
1.01982e-09
2.0924e-09
4.13558e-09
7.89071e-09
1.45575e-08
2.59555e-08
4.44956e-08
7.31337e-08
1.13934e-07
1.63095e-07
2.14127e-07
2.4144e-07
2.12099e-07
9.29669e-08
-1.23181e-07
-3.80929e-07
-6.12924e-07
-7.49479e-07
-7.54628e-07
-6.66753e-07
-5.69353e-07
-6.00769e-07
-9.08243e-07
-1.77412e-06
-3.30115e-06
-5.82962e-06
-9.61264e-06
-1.53123e-05
-2.37038e-05
-3.45357e-05
-4.98603e-05
-7.15915e-05
-0.000101279
-0.000139789
-0.000187368
-0.000240773
-0.000285901
-0.000291185
-0.000191596
0.000137014
0.000888164
0.00214103
0.00177282
-0.00138156
-0.000771817
-0.000430148
-0.000238224
-0.000130209
-7.24375e-05
-4.34651e-05
-2.24436e-05
4.77196e-06
1.18627e-05
3.24336e-06
-1.8872e-06
-4.33808e-06
-3.96342e-06
-2.16242e-06
-5.92702e-07
2.23933e-07
3.71071e-07
2.70774e-07
1.50419e-07
7.29061e-08
3.21621e-08
1.32233e-08
5.15556e-09
1.92386e-09
6.92848e-10
2.41898e-10
8.20484e-11
2.70783e-11
8.70976e-12
2.73419e-12
8.38893e-13
2.5191e-13
7.39665e-14
2.12724e-14
5.96472e-15
1.62521e-15
4.25074e-16
1.03585e-16
2.14632e-17
2.38321e-18
-1.08571e-18
-1.15541e-18
-7.33886e-19
-3.97008e-19
-1.92966e-19
-8.03892e-20
-1.88105e-20
2.77022e-14
4.02408e-13
1.75037e-12
5.57734e-12
1.53632e-11
3.89086e-11
9.31843e-11
2.13849e-10
4.7271e-10
1.00711e-09
2.06611e-09
4.08329e-09
7.7912e-09
1.43771e-08
2.56461e-08
4.40026e-08
7.24155e-08
1.1303e-07
1.62235e-07
2.1377e-07
2.4275e-07
2.1619e-07
1.00951e-07
-1.12902e-07
-3.72478e-07
-6.09379e-07
-7.52711e-07
-7.64219e-07
-6.807e-07
-5.84601e-07
-6.14575e-07
-9.19779e-07
-1.74944e-06
-3.32437e-06
-5.88124e-06
-9.72719e-06
-1.56093e-05
-2.40485e-05
-3.51739e-05
-5.0821e-05
-7.30144e-05
-0.000103236
-0.00014231
-0.000190354
-0.000243659
-0.000287161
-0.000287482
-0.000176143
0.000179108
0.000970865
0.00225563
0.00140352
-0.00132613
-0.000740348
-0.000412997
-0.00022676
-0.000124157
-6.9393e-05
-4.20067e-05
-2.03154e-05
6.36838e-06
1.1673e-05
2.73535e-06
-2.19131e-06
-4.47536e-06
-3.87703e-06
-2.03733e-06
-5.02748e-07
2.57485e-07
3.72631e-07
2.64942e-07
1.45584e-07
7.01927e-08
3.08715e-08
1.26771e-08
4.94379e-09
1.84664e-09
6.66059e-10
2.32983e-10
7.92007e-11
2.61939e-11
8.44279e-12
2.65536e-12
8.15856e-13
2.45121e-13
7.20579e-14
2.07551e-14
5.82821e-15
1.59017e-15
4.16321e-16
1.01486e-16
2.09852e-17
2.28696e-18
-1.10143e-18
-1.15579e-18
-7.32352e-19
-3.95874e-19
-1.92359e-19
-8.01266e-20
-1.87481e-20
2.73847e-14
3.97794e-13
1.73026e-12
5.51307e-12
1.51855e-11
3.84572e-11
9.21009e-11
2.11362e-10
4.67217e-10
9.95411e-10
2.04206e-09
4.03578e-09
7.70141e-09
1.42155e-08
2.53706e-08
4.35658e-08
7.17812e-08
1.1223e-07
1.6146e-07
2.13363e-07
2.43715e-07
2.19586e-07
1.07096e-07
-1.05413e-07
-3.65871e-07
-6.06307e-07
-7.55463e-07
-7.73059e-07
-6.93321e-07
-5.98247e-07
-6.2944e-07
-9.38085e-07
-1.79661e-06
-3.36042e-06
-5.94113e-06
-9.84724e-06
-1.5889e-05
-2.44846e-05
-3.5757e-05
-5.1674e-05
-7.41921e-05
-0.000104817
-0.000144276
-0.000192565
-0.000245499
-0.000287028
-0.000281897
-0.000158211
0.000221624
0.00105496
0.00237201
0.00100967
-0.00125911
-0.000702726
-0.000391293
-0.000215658
-0.000118133
-6.63047e-05
-4.04541e-05
-1.82953e-05
7.98932e-06
1.14334e-05
2.26624e-06
-2.46203e-06
-4.57916e-06
-3.78147e-06
-1.922e-06
-4.16886e-07
2.864e-07
3.72558e-07
2.5921e-07
1.4118e-07
6.76686e-08
2.96527e-08
1.21557e-08
4.73963e-09
1.77142e-09
6.3966e-10
2.24079e-10
7.63113e-11
2.5282e-11
8.16336e-12
2.57202e-12
7.91611e-13
2.38231e-13
7.01545e-14
2.02046e-14
5.68121e-15
1.55156e-15
4.06377e-16
9.90092e-17
2.03937e-17
2.15949e-18
-1.12037e-18
-1.15369e-18
-7.28454e-19
-3.93318e-19
-1.9104e-19
-7.95666e-20
-1.86163e-20
2.70962e-14
3.93604e-13
1.71202e-12
5.45487e-12
1.5025e-11
3.80503e-11
9.11274e-11
2.09136e-10
4.62321e-10
9.85029e-10
2.02083e-09
3.99405e-09
7.62292e-09
1.40748e-08
2.51318e-08
4.31892e-08
7.12378e-08
1.11553e-07
1.60833e-07
2.13029e-07
2.44477e-07
2.22256e-07
1.12204e-07
-9.87791e-08
-3.6023e-07
-6.04426e-07
-7.58514e-07
-7.80774e-07
-7.02997e-07
-6.10339e-07
-6.42237e-07
-9.52245e-07
-1.8119e-06
-3.39266e-06
-6.00053e-06
-9.96238e-06
-1.61518e-05
-2.48698e-05
-3.63106e-05
-5.24986e-05
-7.5371e-05
-0.000106379
-0.000146166
-0.000194547
-0.000246848
-0.000286018
-0.000274975
-0.000138094
0.000267101
0.00114523
0.00249945
0.000666246
-0.00118292
-0.000660859
-0.000368954
-0.0002016
-0.000110612
-6.25118e-05
-3.85052e-05
-1.61262e-05
9.30713e-06
1.10772e-05
1.86791e-06
-2.70427e-06
-4.65301e-06
-3.67695e-06
-1.80767e-06
-3.40727e-07
3.104e-07
3.70109e-07
2.51914e-07
1.36035e-07
6.49522e-08
2.84245e-08
1.16517e-08
4.54731e-09
1.70158e-09
6.15298e-10
2.15862e-10
7.36258e-11
2.44277e-11
7.89868e-12
2.49204e-12
7.68e-13
2.31409e-13
6.82381e-14
1.96715e-14
5.53563e-15
1.51257e-15
3.96174e-16
9.64402e-17
1.97797e-17
2.0307e-18
-1.1378e-18
-1.15018e-18
-7.2361e-19
-3.90213e-19
-1.89436e-19
-7.88819e-20
-1.8454e-20
2.68403e-14
3.89887e-13
1.69585e-12
5.40333e-12
1.4883e-11
3.76911e-11
9.027e-11
2.0718e-10
4.58036e-10
9.75985e-10
2.00243e-09
3.95804e-09
7.55545e-09
1.39541e-08
2.49266e-08
4.28642e-08
7.07637e-08
1.10953e-07
1.60238e-07
2.12671e-07
2.45105e-07
2.24574e-07
1.16296e-07
-9.40154e-08
-3.56249e-07
-6.03145e-07
-7.61256e-07
-7.872e-07
-7.13167e-07
-6.2106e-07
-6.52654e-07
-9.62612e-07
-1.90596e-06
-3.42073e-06
-6.05528e-06
-1.00701e-05
-1.63945e-05
-2.51881e-05
-3.68126e-05
-5.32228e-05
-7.6391e-05
-0.000107725
-0.000147795
-0.00019624
-0.000247958
-0.000285081
-0.000268891
-0.000120986
0.000303567
0.00121452
0.00259169
0.000150631
-0.00110691
-0.000618924
-0.000345872
-0.000189187
-0.000103998
-5.91954e-05
-3.68076e-05
-1.42732e-05
1.05075e-05
1.08541e-05
1.54728e-06
-2.9165e-06
-4.69546e-06
-3.57023e-06
-1.70703e-06
-2.78579e-07
3.28177e-07
3.67814e-07
2.4635e-07
1.32022e-07
6.2809e-08
2.74404e-08
1.12411e-08
4.38804e-09
1.64276e-09
5.94446e-10
2.08703e-10
7.125e-11
2.36608e-11
7.65777e-12
2.41827e-12
7.45942e-13
2.24959e-13
6.64043e-14
1.91566e-14
5.39386e-15
1.47433e-15
3.86107e-16
9.3874e-17
1.91662e-17
1.90323e-18
-1.15405e-18
-1.14589e-18
-7.18326e-19
-3.86875e-19
-1.87718e-19
-7.81485e-20
-1.82804e-20
2.66177e-14
3.86655e-13
1.6818e-12
5.35859e-12
1.47599e-11
3.73801e-11
8.9529e-11
2.05494e-10
4.54353e-10
9.68253e-10
1.98682e-09
3.9278e-09
7.49938e-09
1.3855e-08
2.47567e-08
4.26002e-08
7.03931e-08
1.10507e-07
1.59814e-07
2.12432e-07
2.45626e-07
2.26419e-07
1.19621e-07
-8.98701e-08
-3.53034e-07
-6.02378e-07
-7.63796e-07
-7.92903e-07
-7.20997e-07
-6.29626e-07
-6.61959e-07
-9.72552e-07
-1.82229e-06
-3.4466e-06
-6.10462e-06
-1.01647e-05
-1.66014e-05
-2.54628e-05
-3.72305e-05
-5.38258e-05
-7.72383e-05
-0.000108842
-0.000149148
-0.000197633
-0.000248758
-0.000283874
-0.000262876
-0.000104678
0.000338194
0.00127981
0.00267424
-0.000271584
-0.0010422
-0.000581981
-0.00032447
-0.000178465
-9.81503e-05
-5.6214e-05
-3.52449e-05
-1.26203e-05
1.13438e-05
1.04977e-05
1.24882e-06
-3.10967e-06
-4.7364e-06
-3.49939e-06
-1.62695e-06
-2.28759e-07
3.41474e-07
3.65281e-07
2.41799e-07
1.28807e-07
6.10824e-08
2.66414e-08
1.09041e-08
4.25574e-09
1.5933e-09
5.76723e-10
2.02514e-10
6.91761e-11
2.29849e-11
7.44338e-12
2.352e-12
7.25948e-13
2.19062e-13
6.47074e-14
1.86767e-14
5.26089e-15
1.43829e-15
3.7662e-16
9.13786e-17
1.85725e-17
1.78111e-18
-1.16889e-18
-1.14123e-18
-7.12946e-19
-3.83512e-19
-1.85993e-19
-7.74125e-20
-1.81063e-20
2.64272e-14
3.83891e-13
1.66979e-12
5.32038e-12
1.46549e-11
3.71153e-11
8.88992e-11
2.04065e-10
4.51242e-10
9.61746e-10
1.97375e-09
3.90263e-09
7.45303e-09
1.37737e-08
2.4618e-08
4.23888e-08
7.00939e-08
1.10125e-07
1.59437e-07
2.12218e-07
2.46044e-07
2.27885e-07
1.22241e-07
-8.66803e-08
-3.50471e-07
-6.01815e-07
-7.65996e-07
-7.9768e-07
-7.27553e-07
-6.37391e-07
-6.71421e-07
-9.86804e-07
-1.85253e-06
-3.47839e-06
-6.15198e-06
-1.02488e-05
-1.67778e-05
-2.56937e-05
-3.75673e-05
-5.42876e-05
-7.78516e-05
-0.000109587
-0.000149966
-0.000198856
-0.000249021
-0.000281832
-0.000255671
-8.65991e-05
0.000377393
0.00135465
0.00277165
-0.000520589
-0.000977519
-0.000546691
-0.000305417
-0.000167834
-9.2521e-05
-5.33771e-05
-3.3715e-05
-1.09433e-05
1.23081e-05
1.03692e-05
1.0762e-06
-3.24932e-06
-4.75821e-06
-3.42696e-06
-1.55786e-06
-1.89177e-07
3.51621e-07
3.63348e-07
2.38333e-07
1.26474e-07
5.97533e-08
2.6004e-08
1.0629e-08
4.14592e-09
1.55169e-09
5.61634e-10
1.97224e-10
6.73857e-11
2.23962e-11
7.25515e-12
2.29337e-12
7.08136e-13
2.13775e-13
6.31741e-14
1.82407e-14
5.13944e-15
1.4052e-15
3.67868e-16
8.9106e-17
1.80303e-17
1.66985e-18
-1.18194e-18
-1.13658e-18
-7.07777e-19
-3.80297e-19
-1.84345e-19
-7.67101e-20
-1.79401e-20
2.62664e-14
3.81558e-13
1.65966e-12
5.28816e-12
1.45664e-11
3.68925e-11
8.83702e-11
2.02866e-10
4.48637e-10
9.56311e-10
1.96286e-09
3.88176e-09
7.41493e-09
1.37077e-08
2.45081e-08
4.22208e-08
6.98496e-08
1.09822e-07
1.59153e-07
2.12058e-07
2.4639e-07
2.29088e-07
1.24445e-07
-8.39719e-08
-3.48331e-07
-6.01486e-07
-7.68107e-07
-8.02006e-07
-7.33231e-07
-6.44242e-07
-6.78494e-07
-9.94833e-07
-1.90167e-06
-3.50092e-06
-6.19273e-06
-1.03241e-05
-1.69385e-05
-2.59018e-05
-3.78745e-05
-5.47286e-05
-7.84589e-05
-0.000110377
-0.000150927
-0.000199841
-0.000249582
-0.000281112
-0.000251993
-7.68242e-05
0.000398152
0.00139168
0.00281194
-0.000871029
-0.000928423
-0.000519054
-0.000290166
-0.00015894
-8.77891e-05
-5.09961e-05
-3.2432e-05
-9.66465e-06
1.28539e-05
1.01112e-05
8.93976e-07
-3.37177e-06
-4.77529e-06
-3.38043e-06
-1.50431e-06
-1.57136e-07
3.59567e-07
3.615e-07
2.35063e-07
1.24192e-07
5.85544e-08
2.5448e-08
1.03929e-08
4.05225e-09
1.51622e-09
5.48741e-10
1.92697e-10
6.58468e-11
2.18877e-11
7.09177e-12
2.24224e-12
6.92523e-13
2.09119e-13
6.18175e-14
1.78532e-14
5.03109e-15
1.37558e-15
3.59997e-16
8.70895e-17
1.75481e-17
1.57113e-18
-1.19319e-18
-1.13214e-18
-7.02991e-19
-3.77333e-19
-1.82827e-19
-7.60626e-20
-1.77868e-20
2.61325e-14
3.79616e-13
1.65123e-12
5.26135e-12
1.44928e-11
3.6707e-11
8.79295e-11
2.01866e-10
4.46462e-10
9.51759e-10
1.9537e-09
3.86407e-09
7.38224e-09
1.36502e-08
2.44094e-08
4.20621e-08
6.96245e-08
1.09547e-07
1.58903e-07
2.11909e-07
2.46653e-07
2.30041e-07
1.2613e-07
-8.19752e-08
-3.46888e-07
-6.01427e-07
-7.69889e-07
-8.0545e-07
-7.37652e-07
-6.48845e-07
-6.81805e-07
-9.83998e-07
-1.85121e-06
-3.5155e-06
-6.229e-06
-1.03888e-05
-1.70768e-05
-2.60814e-05
-3.81401e-05
-5.51101e-05
-7.89808e-05
-0.000111047
-0.000151716
-0.000200582
-0.000249827
-0.000279933
-0.000247539
-6.56576e-05
0.000421896
0.00143492
0.00286078
-0.00105195
-0.000886004
-0.000495953
-0.000277523
-0.000152093
-8.41823e-05
-4.92148e-05
-3.14684e-05
-8.67301e-06
1.31943e-05
9.82534e-06
7.12976e-07
-3.48349e-06
-4.79035e-06
-3.33588e-06
-1.4619e-06
-1.31317e-07
3.65746e-07
3.60025e-07
2.3256e-07
1.22445e-07
5.76067e-08
2.49987e-08
1.01992e-08
3.97466e-09
1.48663e-09
5.37927e-10
1.88881e-10
6.45437e-11
2.14553e-11
6.95223e-12
2.19839e-12
6.79083e-13
2.05096e-13
6.06411e-14
1.75162e-14
4.93657e-15
1.34967e-15
3.53099e-16
8.53216e-17
1.71256e-17
1.48499e-18
-1.20273e-18
-1.12804e-18
-6.98676e-19
-3.74671e-19
-1.81465e-19
-7.5482e-20
-1.76494e-20
2.60232e-14
3.78031e-13
1.64434e-12
5.23946e-12
1.44327e-11
3.65557e-11
8.75702e-11
2.01052e-10
4.44688e-10
9.48041e-10
1.9462e-09
3.84955e-09
7.35534e-09
1.36027e-08
2.43273e-08
4.19395e-08
6.94574e-08
1.09348e-07
1.5872e-07
2.1181e-07
2.46888e-07
2.30823e-07
1.27499e-07
-8.04237e-08
-3.45829e-07
-6.01553e-07
-7.71469e-07
-8.08324e-07
-7.41504e-07
-6.53679e-07
-6.8925e-07
-1.00006e-06
-1.92563e-06
-3.53894e-06
-6.26447e-06
-1.04448e-05
-1.71921e-05
-2.62319e-05
-3.83642e-05
-5.54355e-05
-7.94309e-05
-0.000111628
-0.000152392
-0.00020124
-0.000250153
-0.000279256
-0.000244502
-5.76939e-05
0.000438969
0.00146562
0.00288952
-0.00116748
-0.000861978
-0.000482258
-0.000269806
-0.000147879
-8.19011e-05
-4.80643e-05
-3.07849e-05
-7.80001e-06
1.35964e-05
9.67381e-06
5.98604e-07
-3.56288e-06
-4.79588e-06
-3.29736e-06
-1.42561e-06
-1.10595e-07
3.70505e-07
3.58762e-07
2.30551e-07
1.21033e-07
5.68331e-08
2.46301e-08
1.00398e-08
3.91058e-09
1.46211e-09
5.28938e-10
1.857e-10
6.34537e-11
2.10925e-11
6.83485e-12
2.1614e-12
6.67716e-13
2.01685e-13
5.96412e-14
1.72291e-14
4.85589e-15
1.32752e-15
3.47191e-16
8.38066e-17
1.67637e-17
1.41145e-18
-1.21067e-18
-1.12438e-18
-6.94891e-19
-3.72343e-19
-1.80276e-19
-7.49752e-20
-1.75294e-20
2.59365e-14
3.76772e-13
1.63888e-12
5.22211e-12
1.43851e-11
3.6436e-11
8.72862e-11
2.00408e-10
4.43289e-10
9.45115e-10
1.94032e-09
3.83823e-09
7.33465e-09
1.35669e-08
2.42668e-08
4.18477e-08
6.93265e-08
1.09187e-07
1.58568e-07
2.11717e-07
2.47049e-07
2.31396e-07
1.28494e-07
-7.92755e-08
-3.45081e-07
-6.01717e-07
-7.72782e-07
-8.10713e-07
-7.44725e-07
-6.57901e-07
-6.95236e-07
-1.02417e-06
-1.90389e-06
-3.55933e-06
-6.29583e-06
-1.04948e-05
-1.72933e-05
-2.63638e-05
-3.8559e-05
-5.57112e-05
-7.98133e-05
-0.000112116
-0.000152977
-0.000201827
-0.000250487
-0.000278758
-0.000241924
-5.05029e-05
0.000455312
0.00149677
0.00291827
-0.00121061
-0.000851053
-0.000475569
-0.000265803
-0.000145608
-8.0645e-05
-4.74356e-05
-3.0365e-05
-7.10701e-06
1.39554e-05
9.5872e-06
5.22626e-07
-3.62239e-06
-4.79802e-06
-3.26526e-06
-1.3953e-06
-9.35663e-08
3.74342e-07
3.57657e-07
2.28834e-07
1.19842e-07
5.61875e-08
2.43259e-08
9.90935e-09
3.85837e-09
1.44215e-09
5.21611e-10
1.83101e-10
6.25611e-11
2.07947e-11
6.73826e-12
2.1309e-12
6.58324e-13
1.98862e-13
5.8812e-14
1.69906e-14
4.78881e-15
1.30908e-15
3.4227e-16
8.25442e-17
1.64623e-17
1.35039e-18
-1.21711e-18
-1.12122e-18
-6.91677e-19
-3.70373e-19
-1.7927e-19
-7.45467e-20
-1.7428e-20
2.58702e-14
3.75811e-13
1.63471e-12
5.20888e-12
1.43489e-11
3.6345e-11
8.70711e-11
1.99924e-10
4.42245e-10
9.42955e-10
1.93603e-09
3.83008e-09
7.31986e-09
1.3541e-08
2.42218e-08
4.1777e-08
6.92253e-08
1.09064e-07
1.58458e-07
2.11657e-07
2.47193e-07
2.31866e-07
1.29286e-07
-7.84012e-08
-3.44533e-07
-6.019e-07
-7.73892e-07
-8.12637e-07
-7.47205e-07
-6.6085e-07
-6.98913e-07
-1.02929e-06
-1.91309e-06
-3.57231e-06
-6.31975e-06
-1.05341e-05
-1.73733e-05
-2.64695e-05
-3.87162e-05
-5.59383e-05
-8.01363e-05
-0.00011255
-0.000153537
-0.000202491
-0.000251147
-0.000279156
-0.000241505
-4.82828e-05
0.000460694
0.00150568
0.00291998
-0.00128354
-0.000842014
-0.0004707
-0.00026304
-0.000144307
-7.99389e-05
-4.71008e-05
-3.01329e-05
-6.64481e-06
1.41922e-05
9.51076e-06
4.61442e-07
-3.67164e-06
-4.80074e-06
-3.24019e-06
-1.37001e-06
-8.04281e-08
3.7718e-07
3.56755e-07
2.27487e-07
1.18932e-07
5.56982e-08
2.40935e-08
9.80881e-09
3.81785e-09
1.42658e-09
5.1586e-10
1.81051e-10
6.18545e-11
2.05584e-11
6.66142e-12
2.10659e-12
6.5083e-13
1.96606e-13
5.81489e-14
1.67998e-14
4.73509e-15
1.29431e-15
3.38328e-16
8.15332e-17
1.62211e-17
1.30167e-18
-1.22216e-18
-1.11862e-18
-6.89067e-19
-3.68777e-19
-1.78456e-19
-7.42e-20
-1.7346e-20
2.58228e-14
3.75125e-13
1.63174e-12
5.19948e-12
1.43233e-11
3.62812e-11
8.69211e-11
1.99588e-10
4.4152e-10
9.41439e-10
1.93296e-09
3.82406e-09
7.30851e-09
1.35208e-08
2.41872e-08
4.17254e-08
6.91542e-08
1.08979e-07
1.58382e-07
2.11618e-07
2.47295e-07
2.32191e-07
1.29834e-07
-7.77983e-08
-3.44173e-07
-6.02063e-07
-7.74703e-07
-8.1402e-07
-7.48968e-07
-6.62847e-07
-7.00934e-07
-1.03069e-06
-1.955e-06
-3.57847e-06
-6.33579e-06
-1.05625e-05
-1.74316e-05
-2.65473e-05
-3.88331e-05
-5.61119e-05
-8.03843e-05
-0.00011289
-0.000153987
-0.000203038
-0.000251712
-0.000279501
-0.000241055
-4.58307e-05
0.000467271
0.00151878
0.00292658
-0.00130722
-0.000841755
-0.00047002
-0.000262493
-0.000143706
-7.96023e-05
-4.69527e-05
-3.00224e-05
-6.359e-06
1.43299e-05
9.43983e-06
4.09347e-07
-3.71219e-06
-4.80444e-06
-3.22252e-06
-1.35598e-06
-7.10597e-08
3.79178e-07
3.56073e-07
2.26499e-07
1.18256e-07
5.533e-08
2.39192e-08
9.73382e-09
3.78778e-09
1.41509e-09
5.11668e-10
1.79571e-10
6.13467e-11
2.03887e-11
6.60621e-12
2.08908e-12
6.45415e-13
1.9497e-13
5.76662e-14
1.66603e-14
4.69561e-15
1.2834e-15
3.35401e-16
8.07791e-17
1.60408e-17
1.26527e-18
-1.22587e-18
-1.11663e-18
-6.87087e-19
-3.67569e-19
-1.7784e-19
-7.39378e-20
-1.72839e-20
2.57924e-14
3.74684e-13
1.62983e-12
5.19342e-12
1.43067e-11
3.62392e-11
8.68211e-11
1.99359e-10
4.41015e-10
9.40373e-10
1.9308e-09
3.8199e-09
7.30092e-09
1.35077e-08
2.41649e-08
4.16913e-08
6.91074e-08
1.08924e-07
1.58334e-07
2.11593e-07
2.47361e-07
2.32399e-07
1.30182e-07
-7.74178e-08
-3.43954e-07
-6.02183e-07
-7.75234e-07
-8.14912e-07
-7.48808e-07
-6.6401e-07
-7.02095e-07
-1.03182e-06
-1.96109e-06
-3.58303e-06
-6.34623e-06
-1.05809e-05
-1.74693e-05
-2.65982e-05
-3.891e-05
-5.62328e-05
-8.05497e-05
-0.000113121
-0.000154297
-0.000203429
-0.000252142
-0.000279834
-0.000240962
-4.46494e-05
0.000470583
0.00152501
0.00292864
-0.00133068
-0.000839372
-0.000468647
-0.000261686
-0.000143286
-7.94165e-05
-4.68932e-05
-2.99893e-05
-6.25383e-06
1.42984e-05
9.31188e-06
3.44193e-07
-3.74731e-06
-4.80868e-06
-3.21092e-06
-1.34467e-06
-6.48247e-08
3.80488e-07
3.55617e-07
2.2584e-07
1.17807e-07
5.5088e-08
2.38039e-08
9.68357e-09
3.76752e-09
1.40738e-09
5.08836e-10
1.78566e-10
6.10022e-11
2.02741e-11
6.56917e-12
2.07742e-12
6.4183e-13
1.93893e-13
5.73502e-14
1.65694e-14
4.67003e-15
1.27636e-15
3.33518e-16
8.0295e-17
1.59248e-17
1.24177e-18
-1.22825e-18
-1.11531e-18
-6.85775e-19
-3.66766e-19
-1.7743e-19
-7.37629e-20
-1.72425e-20
2.57771e-14
3.74462e-13
1.62887e-12
5.19036e-12
1.42983e-11
3.6218e-11
8.67708e-11
1.99245e-10
4.40769e-10
9.3986e-10
1.92977e-09
3.81791e-09
7.29728e-09
1.35014e-08
2.41541e-08
4.1675e-08
6.90848e-08
1.08898e-07
1.58312e-07
2.11583e-07
2.47395e-07
2.32505e-07
1.30357e-07
-7.7229e-08
-3.43847e-07
-6.02245e-07
-7.75495e-07
-8.15336e-07
-7.49421e-07
-6.64294e-07
-7.01824e-07
-1.02996e-06
-1.89865e-06
-3.58218e-06
-6.35004e-06
-1.05893e-05
-1.74872e-05
-2.66225e-05
-3.89467e-05
-5.62874e-05
-8.06292e-05
-0.000113235
-0.000154454
-0.000203644
-0.00025243
-0.000280224
-0.000241534
-4.56951e-05
0.000468124
0.00151879
0.00291932
-0.00135623
-0.000834954
-0.000466415
-0.000260062
-0.000143733
-7.95763e-05
-4.69522e-05
-2.99809e-05
-6.07399e-06
1.44934e-05
9.37729e-06
3.58229e-07
-3.75104e-06
-4.8061e-06
-3.20361e-06
-1.33859e-06
-6.16276e-08
3.81154e-07
3.55394e-07
2.25519e-07
1.17588e-07
5.49696e-08
2.37472e-08
9.65835e-09
3.75699e-09
1.40319e-09
5.07266e-10
1.78003e-10
6.08081e-11
2.02093e-11
6.54822e-12
2.07082e-12
6.39808e-13
1.93288e-13
5.71733e-14
1.65188e-14
4.65586e-15
1.27249e-15
3.32492e-16
8.00337e-17
1.58631e-17
1.22946e-18
-1.22947e-18
-1.11463e-18
-6.85106e-19
-3.66359e-19
-1.77223e-19
-7.3675e-20
-1.72217e-20
2.57769e-14
3.74459e-13
1.62885e-12
5.1903e-12
1.42981e-11
3.62176e-11
8.67698e-11
1.99243e-10
4.40764e-10
9.39848e-10
1.92974e-09
3.81787e-09
7.29721e-09
1.35013e-08
2.4154e-08
4.16748e-08
6.90846e-08
1.08898e-07
1.58312e-07
2.11584e-07
2.47397e-07
2.32507e-07
1.3036e-07
-7.72258e-08
-3.43844e-07
-6.02237e-07
-7.75478e-07
-8.15311e-07
-7.49875e-07
-6.64483e-07
-7.02769e-07
-1.03383e-06
-1.91895e-06
-3.58798e-06
-6.35232e-06
-1.059e-05
-1.74871e-05
-2.66214e-05
-3.89441e-05
-5.62764e-05
-8.06196e-05
-0.000113218
-0.000154417
-0.000203567
-0.000252264
-0.000279861
-0.000240733
-4.38767e-05
0.000472254
0.00152761
0.00292911
-0.00133397
-0.00083835
-0.000468118
-0.000261413
-0.000143186
-7.93546e-05
-4.68665e-05
-2.99362e-05
-6.07937e-06
1.44088e-05
9.31177e-06
3.36493e-07
-3.75471e-06
-4.80526e-06
-3.20264e-06
-1.33813e-06
-6.14888e-08
3.81168e-07
3.55385e-07
2.25511e-07
1.17584e-07
5.49674e-08
2.37459e-08
9.65755e-09
3.75656e-09
1.40299e-09
5.07178e-10
1.77968e-10
6.07955e-11
2.0205e-11
6.54676e-12
2.07036e-12
6.39666e-13
1.93246e-13
5.71613e-14
1.65154e-14
4.65497e-15
1.27226e-15
3.32435e-16
8.00203e-17
1.58602e-17
1.22895e-18
-1.22951e-18
-1.11461e-18
-6.85087e-19
-3.66349e-19
-1.77219e-19
-7.36732e-20
-1.72213e-20
2.57919e-14
3.74675e-13
1.62979e-12
5.19327e-12
1.43062e-11
3.62378e-11
8.68175e-11
1.9935e-10
4.40997e-10
9.40334e-10
1.93072e-09
3.81975e-09
7.30067e-09
1.35074e-08
2.41643e-08
4.16906e-08
6.91066e-08
1.08923e-07
1.58335e-07
2.11595e-07
2.47365e-07
2.32407e-07
1.30192e-07
-7.7409e-08
-3.43947e-07
-6.02169e-07
-7.75199e-07
-8.14847e-07
-7.50021e-07
-6.6418e-07
-7.03027e-07
-1.03484e-06
-1.93311e-06
-3.58738e-06
-6.34812e-06
-1.05812e-05
-1.74682e-05
-2.65955e-05
-3.89049e-05
-5.62241e-05
-8.05349e-05
-0.000113105
-0.000154253
-0.000203353
-0.000252019
-0.000279645
-0.0002407
-4.43392e-05
0.000470771
0.00152455
0.00292706
-0.0013241
-0.000840264
-0.000469274
-0.000262097
-0.000143487
-7.94863e-05
-4.69149e-05
-2.99719e-05
-6.16909e-06
1.43744e-05
9.33922e-06
3.53988e-07
-3.74212e-06
-4.80422e-06
-3.20814e-06
-1.34342e-06
-6.44382e-08
3.80536e-07
3.55594e-07
2.2582e-07
1.17795e-07
5.50818e-08
2.38008e-08
9.68145e-09
3.76618e-09
1.40669e-09
5.08538e-10
1.78451e-10
6.09609e-11
2.02601e-11
6.56461e-12
2.07599e-12
6.414e-13
1.93768e-13
5.73146e-14
1.65596e-14
4.66743e-15
1.27569e-15
3.33354e-16
8.02568e-17
1.59168e-17
1.24037e-18
-1.22837e-18
-1.11525e-18
-6.85724e-19
-3.66739e-19
-1.77418e-19
-7.37582e-20
-1.72414e-20
2.58228e-14
3.75124e-13
1.63173e-12
5.19943e-12
1.43231e-11
3.62802e-11
8.69177e-11
1.99576e-10
4.41487e-10
9.41357e-10
1.93278e-09
3.82372e-09
7.30796e-09
1.35201e-08
2.41863e-08
4.17242e-08
6.91533e-08
1.08979e-07
1.58383e-07
2.1162e-07
2.47299e-07
2.32196e-07
1.29837e-07
-7.77965e-08
-3.4417e-07
-6.02051e-07
-7.74664e-07
-8.13956e-07
-7.4892e-07
-6.62971e-07
-7.01662e-07
-1.03299e-06
-1.93208e-06
-3.58151e-06
-6.33675e-06
-1.05619e-05
-1.7429e-05
-2.65428e-05
-3.88257e-05
-5.61005e-05
-8.03675e-05
-0.000112867
-0.00015395
-0.00020298
-0.000251619
-0.000279348
-0.000240804
-4.54419e-05
0.000467751
0.00151892
0.00292556
-0.00130177
-0.000842272
-0.000470495
-0.000262837
-0.000143912
-7.97161e-05
-4.7016e-05
-3.00552e-05
-6.37155e-06
1.42822e-05
9.38648e-06
3.87887e-07
-3.71629e-06
-4.80176e-06
-3.21944e-06
-1.35438e-06
-7.05235e-08
3.79242e-07
3.56027e-07
2.26456e-07
1.18235e-07
5.53239e-08
2.39149e-08
9.73093e-09
3.7864e-09
1.41451e-09
5.11425e-10
1.79477e-10
6.13138e-11
2.03778e-11
6.60279e-12
2.08805e-12
6.45112e-13
1.94884e-13
5.76426e-14
1.6654e-14
4.69399e-15
1.283e-15
3.35304e-16
8.07569e-17
1.6036e-17
1.26435e-18
-1.22595e-18
-1.11658e-18
-6.87039e-19
-3.67541e-19
-1.77826e-19
-7.39321e-20
-1.72826e-20
2.58707e-14
3.75818e-13
1.63474e-12
5.20899e-12
1.43493e-11
3.63459e-11
8.70731e-11
1.99928e-10
4.42248e-10
9.42947e-10
1.93597e-09
3.82986e-09
7.31923e-09
1.35397e-08
2.42198e-08
4.1775e-08
6.92244e-08
1.09064e-07
1.58458e-07
2.11659e-07
2.47197e-07
2.3187e-07
1.29289e-07
-7.84e-08
-3.44532e-07
-6.01889e-07
-7.73858e-07
-8.12564e-07
-7.47101e-07
-6.60753e-07
-6.98917e-07
-1.02953e-06
-1.91271e-06
-3.57244e-06
-6.31905e-06
-1.05323e-05
-1.73691e-05
-2.64634e-05
-3.87073e-05
-5.59262e-05
-8.01218e-05
-0.000112535
-0.000153526
-0.000202485
-0.000251145
-0.000279124
-0.000241332
-4.76424e-05
0.000462533
0.00151004
0.00292422
-0.00126788
-0.000845439
-0.000472475
-0.00026405
-0.000144619
-8.01075e-05
-4.71969e-05
-3.01866e-05
-6.61424e-06
1.42803e-05
9.56359e-06
4.79641e-07
-3.66751e-06
-4.7963e-06
-3.23625e-06
-1.36809e-06
-7.9922e-08
3.77195e-07
3.567e-07
2.27458e-07
1.18919e-07
5.56858e-08
2.40863e-08
9.80596e-09
3.81679e-09
1.42621e-09
5.15745e-10
1.81016e-10
6.18436e-11