/*--------------------------------*- C++ -*----------------------------------*\
  =========                 |
  \\      /  F ield         | OpenFOAM: The Open Source CFD Toolbox
   \\    /   O peration     | Website:  https://openfoam.org
    \\  /    A nd           | Version:  10
     \\/     M anipulation  |
\*---------------------------------------------------------------------------*/
FoamFile
{
    format      ascii;
    class       volScalarField;
    location    "1";
    object      RR.H2O2;
}
// * * * * * * * * * * * * * * * * * * * * * * * * * * * * * * * * * * * * * //

dimensions      [1 -3 -1 0 0 0 0];

internalField   nonuniform List<scalar> 
4000
(
5.7307e-14
8.32095e-13
3.61718e-12
1.15163e-11
3.16954e-11
8.02193e-11
1.92075e-10
4.40964e-10
9.75975e-10
2.08464e-09
4.29533e-09
8.5449e-09
1.64499e-08
3.07177e-08
5.57072e-08
9.78716e-08
1.67038e-07
2.75767e-07
4.30478e-07
6.50501e-07
9.17135e-07
1.20955e-06
1.47455e-06
1.6367e-06
1.68017e-06
1.59038e-06
1.41542e-06
1.26825e-06
1.33332e-06
1.86214e-06
3.10725e-06
5.1285e-06
7.46596e-06
8.69683e-06
6.85982e-06
1.55146e-06
-4.04433e-06
-6.3491e-06
-5.87626e-06
-4.67931e-06
-3.61239e-06
-2.92934e-06
-2.74732e-06
-3.20784e-06
-4.61842e-06
-7.52281e-06
-1.28496e-05
-2.22218e-05
-3.84874e-05
-6.64477e-05
-0.000114339
-0.000195757
-0.000175854
3.9123e-05
0.000135943
0.000127969
8.02298e-05
3.37785e-05
3.20101e-06
-4.89039e-06
1.52292e-05
5.1563e-05
0.000129878
0.000181491
6.52506e-05
-1.96434e-05
-4.13371e-05
-1.60618e-05
-3.1957e-06
-5.31352e-07
-7.9777e-08
-1.02691e-08
-1.16075e-09
-1.14794e-10
-1.05552e-11
-9.984e-13
-9.21106e-14
-8.82803e-15
-9.38889e-16
-1.18278e-16
-1.85019e-17
-3.61499e-18
-8.4703e-19
-2.22081e-19
-6.07887e-20
-1.68021e-20
-4.64807e-21
-1.25351e-21
-3.32685e-22
-8.70962e-23
-2.43594e-23
-5.20663e-24
-1.64164e-24
-2.23634e-25
1.68649e-25
-5.96269e-26
2.25117e-26
-7.74454e-27
7.78931e-27
-1.50481e-27
5.67729e-14
8.24295e-13
3.58327e-12
1.14101e-11
3.14096e-11
7.95022e-11
1.90361e-10
4.36971e-10
9.66786e-10
2.06366e-09
4.24799e-09
8.44056e-09
1.62225e-08
3.02504e-08
5.48109e-08
9.62537e-08
1.64066e-07
2.70576e-07
4.227e-07
6.4085e-07
9.06154e-07
1.19832e-06
1.46804e-06
1.63736e-06
1.68975e-06
1.60636e-06
1.43241e-06
1.27719e-06
1.32642e-06
1.83121e-06
3.0504e-06
5.0497e-06
7.40891e-06
8.73562e-06
7.0195e-06
1.75392e-06
-3.93438e-06
-6.34545e-06
-5.92516e-06
-4.7275e-06
-3.65386e-06
-2.9669e-06
-2.78709e-06
-3.26224e-06
-4.707e-06
-7.67845e-06
-1.31232e-05
-2.27022e-05
-3.93233e-05
-6.78992e-05
-0.000116908
-0.000200237
-0.000168074
4.59512e-05
0.000137597
0.0001265
7.8295e-05
3.24349e-05
2.86975e-06
-3.35919e-06
1.93685e-05
5.66427e-05
0.000139746
0.000179393
5.59172e-05
-2.14702e-05
-4.31707e-05
-1.44071e-05
-2.81352e-06
-4.60932e-07
-6.84331e-08
-8.79444e-09
-9.89368e-10
-9.69437e-11
-8.96367e-12
-8.50369e-13
-7.89249e-14
-7.6237e-15
-8.18863e-16
-1.04434e-16
-1.66098e-17
-3.31373e-18
-7.93445e-19
-2.11835e-19
-5.93666e-20
-1.67006e-20
-4.60715e-21
-1.2558e-21
-3.28071e-22
-8.36971e-23
-2.31584e-23
-3.40261e-24
-1.8277e-24
-2.27962e-25
-9.94819e-26
-1.12681e-25
-2.73744e-26
1.12677e-27
6.5153e-28
-6.00113e-29
5.63072e-14
8.17638e-13
3.55509e-12
1.13232e-11
3.11796e-11
7.8948e-11
1.89042e-10
4.33795e-10
9.59077e-10
2.04486e-09
4.20209e-09
8.32834e-09
1.59771e-08
2.97482e-08
5.38347e-08
9.4475e-08
1.61137e-07
2.65559e-07
4.14881e-07
6.29878e-07
8.93129e-07
1.18687e-06
1.4604e-06
1.6406e-06
1.70165e-06
1.62554e-06
1.45379e-06
1.29204e-06
1.32259e-06
1.79553e-06
2.97489e-06
4.94805e-06
7.34104e-06
8.78874e-06
7.24196e-06
2.03702e-06
-3.77867e-06
-6.36199e-06
-5.99261e-06
-4.79618e-06
-3.71528e-06
-3.02257e-06
-2.84781e-06
-3.34696e-06
-4.84387e-06
-7.91306e-06
-1.35276e-05
-2.34045e-05
-4.05446e-05
-7.00079e-05
-0.000120442
-0.000207543
-0.000155858
5.55553e-05
0.000139629
0.00012449
7.50542e-05
2.96638e-05
1.39597e-06
-2.24122e-06
2.41836e-05
6.2764e-05
0.000151305
0.000173273
4.37757e-05
-2.35887e-05
-4.27366e-05
-1.24937e-05
-2.39186e-06
-3.86461e-07
-5.69088e-08
-7.28604e-09
-8.18133e-10
-8.04582e-11
-7.48066e-12
-7.12998e-13
-6.65674e-14
-6.48116e-15
-7.03102e-16
-9.03098e-17
-1.4562e-17
-2.96464e-18
-7.28224e-19
-1.99369e-19
-5.68286e-20
-1.62594e-20
-4.51404e-21
-1.21378e-21
-3.28244e-22
-8.68998e-23
-2.30307e-23
-4.08154e-24
-1.3867e-24
-4.50051e-25
6.88195e-26
-1.56958e-26
7.32273e-27
9.17023e-27
6.32019e-27
5.53246e-28
5.56159e-14
8.07548e-13
3.51069e-12
1.1179e-11
3.0771e-11
7.787e-11
1.86349e-10
4.27346e-10
9.44174e-10
2.01168e-09
4.13136e-09
8.18593e-09
1.56945e-08
2.92016e-08
5.28127e-08
9.26474e-08
1.58006e-07
2.60902e-07
4.08385e-07
6.20492e-07
8.82003e-07
1.17626e-06
1.45448e-06
1.64276e-06
1.71297e-06
1.64442e-06
1.47647e-06
1.30909e-06
1.32233e-06
1.76563e-06
2.90888e-06
4.8606e-06
7.28005e-06
8.8405e-06
7.4647e-06
2.3305e-06
-3.60799e-06
-6.37012e-06
-6.06458e-06
-4.87512e-06
-3.78396e-06
-3.08702e-06
-2.92283e-06
-3.45378e-06
-5.02034e-06
-8.22248e-06
-1.40643e-05
-2.43696e-05
-4.22214e-05
-7.28794e-05
-0.00012544
-0.000215045
-0.000141589
6.64395e-05
0.000141989
0.000122334
7.20508e-05
2.74485e-05
9.30239e-07
2.50492e-07
2.97376e-05
7.05851e-05
0.000162805
0.000162432
3.0812e-05
-2.5462e-05
-4.0052e-05
-1.06e-05
-1.99651e-06
-3.17682e-07
-4.64742e-08
-5.93475e-09
-6.55127e-10
-6.36937e-11
-5.9054e-12
-5.60024e-13
-5.22373e-14
-5.10285e-15
-5.58291e-16
-7.37657e-17
-1.22799e-17
-2.57618e-18
-6.52855e-19
-1.83323e-19
-5.32458e-20
-1.53295e-20
-4.37205e-21
-1.17886e-21
-3.32421e-22
-8.61302e-23
-2.02643e-23
-5.25867e-24
-1.94692e-24
-3.54411e-25
1.36263e-25
-8.19418e-26
2.01978e-26
9.67524e-27
3.25627e-27
-7.45798e-29
5.49106e-14
7.97308e-13
3.46613e-12
1.10366e-11
3.0376e-11
7.68596e-11
1.83896e-10
4.21621e-10
9.31251e-10
1.9834e-09
4.07139e-09
8.06289e-09
1.54508e-08
2.87364e-08
5.19577e-08
9.11474e-08
1.55483e-07
2.56882e-07
4.02407e-07
6.12447e-07
8.73097e-07
1.16847e-06
1.45043e-06
1.64593e-06
1.72507e-06
1.66509e-06
1.49989e-06
1.32744e-06
1.32479e-06
1.74069e-06
2.85309e-06
4.78227e-06
7.22814e-06
8.89042e-06
7.66923e-06
2.60098e-06
-3.45089e-06
-6.37795e-06
-6.14029e-06
-4.94983e-06
-3.85075e-06
-3.15111e-06
-2.99964e-06
-3.56645e-06
-5.20835e-06
-8.55182e-06
-1.46148e-05
-2.5322e-05
-4.38689e-05
-7.57111e-05
-0.000130215
-0.000223492
-0.000124725
7.7547e-05
0.000143917
0.000119739
6.86572e-05
2.49905e-05
2.45203e-07
2.45669e-06
3.44658e-05
7.80644e-05
0.000172867
0.000150751
1.91197e-05
-2.67426e-05
-3.65744e-05
-9.09563e-06
-1.68013e-06
-2.63015e-07
-3.82893e-08
-4.81916e-09
-5.27286e-10
-5.10745e-11
-4.74939e-12
-4.50643e-13
-4.21876e-14
-4.15012e-15
-4.58897e-16
-6.10688e-17
-1.03391e-17
-2.25175e-18
-5.90068e-19
-1.69331e-19
-4.97227e-20
-1.45379e-20
-4.10013e-21
-1.14353e-21
-2.99653e-22
-8.26018e-23
-1.55738e-23
-6.34932e-24
-1.11396e-24
-5.17238e-25
-2.02907e-25
-8.59552e-26
1.85152e-26
2.82824e-26
2.37505e-27
-1.15172e-28
5.41883e-14
7.86805e-13
3.4203e-12
1.08898e-11
2.99689e-11
7.58191e-11
1.81379e-10
4.1578e-10
9.18182e-10
1.95513e-09
4.01223e-09
7.94343e-09
1.52188e-08
2.83037e-08
5.11832e-08
8.98289e-08
1.53345e-07
2.53629e-07
3.97887e-07
6.06197e-07
8.66274e-07
1.1627e-06
1.44764e-06
1.64951e-06
1.73686e-06
1.6832e-06
1.52121e-06
1.34509e-06
1.3296e-06
1.72256e-06
2.80894e-06
4.72388e-06
7.18769e-06
8.93736e-06
7.84705e-06
2.83548e-06
-3.31586e-06
-6.38983e-06
-6.20653e-06
-5.01817e-06
-3.91255e-06
-3.21333e-06
-3.07481e-06
-3.67716e-06
-5.39283e-06
-8.87296e-06
-1.51822e-05
-2.63043e-05
-4.55903e-05
-7.87066e-05
-0.000135391
-0.000230548
-0.000109431
8.7224e-05
0.000145605
0.000117585
6.61356e-05
2.37052e-05
9.25727e-07
5.65408e-06
3.85244e-05
8.43769e-05
0.000178794
0.000138205
9.4872e-06
-2.74328e-05
-3.34117e-05
-7.74059e-06
-1.41132e-06
-2.19317e-07
-3.15566e-08
-3.93089e-09
-4.26946e-10
-4.12526e-11
-3.84883e-12
-3.65486e-13
-3.4346e-14
-3.40371e-15
-3.80858e-16
-5.1585e-17
-8.92181e-18
-1.97906e-18
-5.28323e-19
-1.55442e-19
-4.64889e-20
-1.37128e-20
-3.98386e-21
-1.12405e-21
-3.00676e-22
-7.4364e-23
-1.7292e-23
-4.27072e-24
-2.03148e-24
-5.75518e-25
5.41107e-26
-3.64274e-26
-4.04419e-26
2.95986e-26
-6.12897e-27
1.84147e-27
5.34936e-14
7.76713e-13
3.37635e-12
1.07494e-11
2.95805e-11
7.4831e-11
1.79002e-10
4.10302e-10
9.06015e-10
1.92901e-09
3.95801e-09
7.83484e-09
1.50095e-08
2.7916e-08
5.04932e-08
8.86587e-08
1.51447e-07
2.50726e-07
3.93777e-07
6.00338e-07
8.59702e-07
1.15752e-06
1.44524e-06
1.65295e-06
1.74708e-06
1.69918e-06
1.53985e-06
1.36067e-06
1.33529e-06
1.71068e-06
2.77698e-06
4.67956e-06
7.15797e-06
8.98015e-06
7.99386e-06
3.0227e-06
-3.21159e-06
-6.40046e-06
-6.26257e-06
-5.07615e-06
-3.96692e-06
-3.26883e-06
-3.14472e-06
-3.78285e-06
-5.57061e-06
-9.18235e-06
-1.57066e-05
-2.7213e-05
-4.72984e-05
-8.15137e-05
-0.000140123
-0.000237556
-9.33661e-05
9.57016e-05
0.00014593
0.000113729
6.19142e-05
2.08257e-05
2.16982e-07
7.71701e-06
4.13193e-05
9.13589e-05
0.000184201
0.000126479
1.85759e-06
-2.76942e-05
-3.0553e-05
-6.86654e-06
-1.23716e-06
-1.89937e-07
-2.72333e-08
-3.36243e-09
-3.62776e-10
-3.49336e-11
-3.26481e-12
-3.09922e-13
-2.91945e-14
-2.9093e-15
-3.28573e-16
-4.51317e-17
-7.95005e-18
-1.79995e-18
-4.88759e-19
-1.44812e-19
-4.36005e-20
-1.28402e-20
-3.77501e-21
-1.03329e-21
-2.90063e-22
-7.56602e-23
-1.94097e-23
-6.58479e-24
-9.49676e-25
-9.96438e-25
-1.95836e-26
7.50078e-26
1.3839e-26
4.98094e-27
-3.40269e-27
-9.80317e-28
5.28443e-14
7.67283e-13
3.33529e-12
1.06183e-11
2.92185e-11
7.3912e-11
1.76797e-10
4.05239e-10
8.94825e-10
1.90513e-09
3.90874e-09
7.7368e-09
1.48219e-08
2.75709e-08
4.98832e-08
8.76305e-08
1.49789e-07
2.48201e-07
3.90221e-07
5.95174e-07
8.54232e-07
1.15278e-06
1.44324e-06
1.65584e-06
1.75566e-06
1.71319e-06
1.55651e-06
1.37522e-06
1.34127e-06
1.70305e-06
2.75402e-06
4.64805e-06
7.1431e-06
9.02009e-06
8.11494e-06
3.17518e-06
-3.13311e-06
-6.41651e-06
-6.31121e-06
-5.12679e-06
-4.01278e-06
-3.31511e-06
-3.20346e-06
-3.87354e-06
-5.72673e-06
-9.46046e-06
-1.61962e-05
-2.8067e-05
-4.87648e-05
-8.40225e-05
-0.00014435
-0.000242939
-7.93472e-05
0.000103059
0.000146171
0.000111243
5.95241e-05
1.94719e-05
5.18105e-07
1.03648e-05
4.50909e-05
9.8144e-05
0.000187099
0.000115688
-4.27659e-06
-2.75628e-05
-2.79337e-05
-6.07866e-06
-1.08464e-06
-1.65339e-07
-2.36654e-08
-2.90538e-09
-3.11277e-10
-2.98578e-11
-2.79338e-12
-2.64918e-13
-2.49993e-14
-2.5034e-15
-2.85177e-16
-3.96937e-17
-7.11767e-18
-1.6429e-18
-4.53515e-19
-1.35873e-19
-4.1303e-20
-1.2195e-20
-3.49472e-21
-9.86902e-22
-2.66254e-22
-6.8465e-23
-2.01096e-23
-3.29237e-24
-1.97564e-24
-4.99865e-25
2.72272e-26
1.06623e-25
-2.15793e-26
-4.91678e-27
-1.59394e-27
7.60423e-28
5.22568e-14
7.58755e-13
3.2982e-12
1.05001e-11
2.88926e-11
7.30867e-11
1.74823e-10
4.00724e-10
8.84885e-10
1.88401e-09
3.86538e-09
7.65099e-09
1.46586e-08
2.7272e-08
4.93579e-08
8.67521e-08
1.4839e-07
2.46114e-07
3.87421e-07
5.91115e-07
8.4973e-07
1.14917e-06
1.44221e-06
1.65905e-06
1.76394e-06
1.72545e-06
1.57062e-06
1.38751e-06
1.34718e-06
1.69841e-06
2.73715e-06
4.62492e-06
7.13345e-06
9.05602e-06
8.21499e-06
3.29201e-06
-3.07716e-06
-6.43296e-06
-6.35076e-06
-5.16745e-06
-4.0524e-06
-3.3582e-06
-3.26087e-06
-3.96338e-06
-5.88027e-06
-9.72761e-06
-1.66609e-05
-2.88833e-05
-5.01476e-05
-8.64789e-05
-0.000148697
-0.000246767
-6.85797e-05
0.000107865
0.000145638
0.000107868
5.60069e-05
1.7015e-05
-3.26197e-07
1.15664e-05
4.698e-05
0.000103634
0.000189203
0.000106538
-8.69404e-06
-2.70245e-05
-2.54481e-05
-5.41951e-06
-9.55274e-07
-1.43636e-07
-2.04096e-08
-2.48368e-09
-2.64361e-10
-2.53011e-11
-2.37326e-12
-2.25123e-13
-2.13049e-14
-2.14628e-15
-2.46951e-16
-3.48863e-17
-6.37977e-18
-1.50244e-18
-4.21772e-19
-1.27909e-19
-3.91071e-20
-1.16349e-20
-3.36997e-21
-9.40944e-22
-2.43243e-22
-6.74537e-23
-1.97304e-23
-4.68473e-24
-1.10792e-24
-6.46162e-26
1.62479e-25
-2.22951e-26
-5.02008e-26
-8.25973e-27
4.17145e-27
1.91365e-27
5.17369e-14
7.51211e-13
3.26541e-12
1.03956e-11
2.86052e-11
7.23602e-11
1.73089e-10
3.96769e-10
8.7621e-10
1.86566e-09
3.8279e-09
7.57712e-09
1.45184e-08
2.70158e-08
4.89065e-08
8.5993e-08
1.47164e-07
2.44248e-07
3.84768e-07
5.87221e-07
8.4562e-07
1.14574e-06
1.4412e-06
1.66159e-06
1.77054e-06
1.73565e-06
1.58246e-06
1.39784e-06
1.35292e-06
1.69562e-06
2.7253e-06
4.60948e-06
7.13633e-06
9.08839e-06
8.29403e-06
3.37991e-06
-3.03868e-06
-6.44907e-06
-6.38346e-06
-5.20114e-06
-4.08498e-06
-3.39421e-06
-3.31001e-06
-4.04129e-06
-6.01265e-06
-9.95897e-06
-1.70623e-05
-2.95603e-05
-5.12046e-05
-8.82368e-05
-0.000151526
-0.000249493
-5.70833e-05
0.000112695
0.000145113
0.000105533
5.38923e-05
1.58459e-05
-6.97188e-08
1.37361e-05
4.98127e-05
0.000108871
0.000188593
9.83923e-05
-1.28637e-05
-2.65674e-05
-2.33207e-05
-4.89926e-06
-8.55444e-07
-1.28089e-07
-1.81192e-08
-2.1882e-09
-2.31578e-10
-2.21157e-11
-2.07838e-12
-1.97147e-13
-1.86991e-14
-1.893e-15
-2.19595e-16
-3.14082e-17
-5.83494e-18
-1.39849e-18
-3.98232e-19
-1.21703e-19
-3.72265e-20
-1.11709e-20
-3.19515e-21
-9.04911e-22
-2.53782e-22
-6.72449e-23
-1.91554e-23
-4.20344e-24
-1.84876e-24
-1.97282e-25
8.3631e-26
8.83431e-26
-4.85644e-26
1.40373e-26
-5.38953e-27
1.24264e-27
5.12856e-14
7.44662e-13
3.23696e-12
1.03051e-11
2.83564e-11
7.17322e-11
1.71594e-10
3.93366e-10
8.68771e-10
1.85001e-09
3.79618e-09
7.51525e-09
1.44023e-08
2.68063e-08
4.85358e-08
8.53826e-08
1.46217e-07
2.42874e-07
3.8287e-07
5.84416e-07
8.42636e-07
1.14336e-06
1.44082e-06
1.66423e-06
1.7765e-06
1.74441e-06
1.59252e-06
1.40685e-06
1.35802e-06
1.69413e-06
2.71713e-06
4.59914e-06
7.12815e-06
9.11677e-06
8.35643e-06
3.44516e-06
-3.01343e-06
-6.46308e-06
-6.40874e-06
-5.2273e-06
-4.11119e-06
-3.42468e-06
-3.35352e-06
-4.1122e-06
-6.1365e-06
-1.01791e-05
-1.7443e-05
-3.02193e-05
-5.22836e-05
-9.00884e-05
-0.000154664
-0.000250504
-4.72976e-05
0.000117193
0.000144687
0.000103648
5.21899e-05
1.48736e-05
1.86933e-07
1.56464e-05
5.22834e-05
0.000114304
0.00018915
9.13727e-05
-1.52149e-05
-2.59034e-05
-2.16939e-05
-4.49278e-06
-7.77748e-07
-1.16177e-07
-1.64069e-08
-1.96941e-09
-2.07406e-10
-1.97751e-11
-1.86174e-12
-1.76621e-13
-1.67872e-14
-1.70707e-15
-1.99408e-16
-2.88302e-17
-5.4306e-18
-1.31885e-18
-3.79241e-19
-1.16309e-19
-3.56911e-20
-1.07062e-20
-3.14141e-21
-8.83009e-22
-2.28569e-22
-6.74175e-23
-1.41144e-23
-5.1987e-24
-3.25788e-25
-1.13813e-25
1.45672e-25
-8.48943e-26
1.0233e-26
-5.34662e-27
3.42133e-27
1.41013e-27
5.08997e-14
7.39066e-13
3.21266e-12
1.02279e-11
2.81444e-11
7.11978e-11
1.70324e-10
3.90483e-10
8.62491e-10
1.83685e-09
3.76966e-09
7.46382e-09
1.43065e-08
2.66346e-08
4.82329e-08
8.48923e-08
1.45446e-07
2.41689e-07
3.81199e-07
5.82046e-07
8.40077e-07
1.14146e-06
1.44065e-06
1.66655e-06
1.78165e-06
1.75187e-06
1.60108e-06
1.41443e-06
1.3625e-06
1.69351e-06
2.71165e-06
4.59293e-06
7.13139e-06
9.1416e-06
8.40533e-06
3.49294e-06
-2.99721e-06
-6.47538e-06
-6.43005e-06
-5.2471e-06
-4.13111e-06
-3.44857e-06
-3.3889e-06
-4.18169e-06
-6.25449e-06
-1.0387e-05
-1.78071e-05
-3.08573e-05
-5.3413e-05
-9.2112e-05
-0.000158323
-0.000250969
-4.07236e-05
0.000119855
0.000144278
0.000102116
5.08223e-05
1.41876e-05
5.54864e-07
1.74046e-05
5.45021e-05
0.000119277
0.000189343
8.56003e-05
-1.65791e-05
-3.20308e-05
-2.03478e-05
-4.17377e-06
-7.17679e-07
-1.07427e-07
-1.51509e-08
-1.81457e-09
-1.90251e-10
-1.81071e-11
-1.70669e-12
-1.61887e-13
-1.54102e-14
-1.5726e-15
-1.84772e-16
-2.69432e-17
-5.1302e-18
-1.25814e-18
-3.64299e-19
-1.12131e-19
-3.4529e-20
-1.03662e-20
-2.95167e-21
-8.27893e-22
-2.24202e-22
-5.77082e-23
-1.62708e-23
-3.97847e-24
-7.98646e-25
4.5712e-25
-8.91874e-26
7.25096e-26
1.2524e-26
6.81682e-27
-6.74131e-27
2.46045e-29
5.0574e-14
7.34343e-13
3.19217e-12
1.01628e-11
2.79658e-11
7.07482e-11
1.69257e-10
3.88065e-10
8.57234e-10
1.82586e-09
3.74757e-09
7.42122e-09
1.42278e-08
2.64956e-08
4.79934e-08
8.45037e-08
1.44822e-07
2.40765e-07
3.7995e-07
5.80231e-07
8.38217e-07
1.14016e-06
1.44076e-06
1.66881e-06
1.78638e-06
1.75864e-06
1.60863e-06
1.4211e-06
1.36647e-06
1.69347e-06
2.70804e-06
4.58927e-06
7.13808e-06
9.16243e-06
8.44315e-06
3.52661e-06
-2.98915e-06
-6.48855e-06
-6.44655e-06
-5.26449e-06
-4.14859e-06
-3.47027e-06
-3.42141e-06
-4.23612e-06
-6.34826e-06
-1.05502e-05
-1.8087e-05
-3.13316e-05
-5.41934e-05
-9.33608e-05
-0.000160242
-0.000249472
-3.3324e-05
0.000122293
0.000143561
9.99961e-05
4.88699e-05
1.29173e-05
2.78079e-07
1.8388e-05
5.60471e-05
0.000123367
0.000189366
8.10086e-05
-1.75271e-05
-3.59563e-05
-1.92697e-05
-3.922e-06
-6.70251e-07
-1.00518e-07
-1.41292e-08
-1.68452e-09
-1.76114e-10
-1.67441e-11
-1.58042e-12
-1.49921e-13
-1.42919e-14
-1.46314e-15
-1.72838e-16
-2.54034e-17
-4.8824e-18
-1.20803e-18
-3.5188e-19
-1.08704e-19
-3.36125e-20
-1.00981e-20
-2.88935e-21
-8.52202e-22
-2.36499e-22
-6.02517e-23
-1.36564e-23
-4.05165e-24
-9.83354e-25
2.77228e-25
1.43872e-25
8.45544e-26
5.20526e-26
-1.69504e-28
3.51004e-27
-1.03519e-27
5.03027e-14
7.30409e-13
3.1751e-12
1.01086e-11
2.7817e-11
7.03736e-11
1.68367e-10
3.86047e-10
8.52838e-10
1.81664e-09
3.72895e-09
7.38501e-09
1.41601e-08
2.63741e-08
4.77784e-08
8.4139e-08
1.44255e-07
2.39946e-07
3.78892e-07
5.7873e-07
8.36759e-07
1.13915e-06
1.44093e-06
1.67068e-06
1.79007e-06
1.76391e-06
1.61453e-06
1.4264e-06
1.36983e-06
1.69385e-06
2.7058e-06
4.58575e-06
7.13861e-06
9.17995e-06
8.47196e-06
3.54957e-06
-2.98713e-06
-6.50057e-06
-6.45975e-06
-5.27838e-06
-4.1629e-06
-3.48905e-06
-3.45108e-06
-4.28775e-06
-6.43956e-06
-1.07117e-05
-1.83675e-05
-3.18161e-05
-5.50356e-05
-9.48358e-05
-0.000162851
-0.000248336
-2.79969e-05
0.000123881
0.00014244
9.7935e-05
4.68994e-05
1.14677e-05
-3.1892e-07
1.88804e-05
5.71053e-05
0.000126828
0.000189144
7.70859e-05
-1.83459e-05
-3.8457e-05
-1.84017e-05
-3.72632e-06
-6.33929e-07
-9.52165e-08
-1.33605e-08
-1.58797e-09
-1.65584e-10
-1.57257e-11
-1.48578e-12
-1.40939e-13
-1.34518e-14
-1.38082e-15
-1.63822e-16
-2.4227e-17
-4.68971e-18
-1.16919e-18
-3.42268e-19
-1.06232e-19
-3.26471e-20
-9.984e-21
-2.81485e-21
-8.10991e-22
-2.17951e-22
-5.57931e-23
-1.51717e-23
-4.21215e-24
-7.84532e-25
-2.46882e-26
-1.91004e-25
-4.37527e-26
-2.44698e-26
-4.12886e-27
-2.3879e-27
-8.08844e-28
5.00811e-14
7.27196e-13
3.16115e-12
1.00643e-11
2.76955e-11
7.00679e-11
1.67641e-10
3.844e-10
8.49249e-10
1.80911e-09
3.7137e-09
7.35531e-09
1.41045e-08
2.62739e-08
4.76004e-08
8.38586e-08
1.43834e-07
2.39342e-07
3.78087e-07
5.77572e-07
8.3557e-07
1.13838e-06
1.44115e-06
1.67231e-06
1.79324e-06
1.7682e-06
1.61927e-06
1.43062e-06
1.37262e-06
1.69449e-06
2.70497e-06
4.58702e-06
7.14833e-06
9.19544e-06
8.49427e-06
3.5648e-06
-2.98849e-06
-6.51116e-06
-6.46985e-06
-5.28908e-06
-4.17444e-06
-3.50496e-06
-3.47652e-06
-4.33211e-06
-6.51873e-06
-1.08528e-05
-1.86145e-05
-3.22454e-05
-5.57717e-05
-9.60864e-05
-0.00016494
-0.000246778
-2.36146e-05
0.000125576
0.000142346
9.74856e-05
4.65213e-05
1.13721e-05
1.11511e-07
2.00089e-05
5.84112e-05
0.000129755
0.000188528
7.36456e-05
-1.90777e-05
-4.00491e-05
-1.7737e-05
-3.57386e-06
-6.0582e-07
-9.10926e-08
-1.27676e-08
-1.51352e-09
-1.57461e-10
-1.49394e-11
-1.41256e-12
-1.33978e-13
-1.27986e-14
-1.31653e-15
-1.56754e-16
-2.32991e-17
-4.53928e-18
-1.13792e-18
-3.33839e-19
-1.03446e-19
-3.21267e-20
-9.61545e-21
-2.81092e-21
-7.99415e-22
-2.0524e-22
-5.72299e-23
-1.52384e-23
-3.85808e-24
-1.12554e-24
6.90074e-26
-2.38979e-25
-3.91121e-26
-7.0411e-27
1.14123e-26
4.77188e-27
-1.0578e-27
4.99049e-14
7.24642e-13
3.15007e-12
1.00291e-11
2.75992e-11
6.98256e-11
1.67067e-10
3.83099e-10
8.46416e-10
1.80317e-09
3.70173e-09
7.33213e-09
1.40616e-08
2.61983e-08
4.74685e-08
8.36467e-08
1.43501e-07
2.38854e-07
3.77429e-07
5.76639e-07
8.34696e-07
1.13784e-06
1.44139e-06
1.67366e-06
1.79575e-06
1.77159e-06
1.62306e-06
1.43404e-06
1.37492e-06
1.6952e-06
2.70462e-06
4.58855e-06
7.15062e-06
9.20802e-06
8.51123e-06
3.57495e-06
-2.99172e-06
-6.52047e-06
-6.47811e-06
-5.29698e-06
-4.18377e-06
-3.51794e-06
-3.49789e-06
-4.37008e-06
-6.58754e-06
-1.09776e-05
-1.88378e-05
-3.26453e-05
-5.64889e-05
-9.73825e-05
-0.000167309
-0.00024637
-2.11985e-05
0.000126658
0.000142181
9.69226e-05
4.61001e-05
1.1314e-05
5.84351e-07
2.10829e-05
5.95863e-05
0.000132176
0.000187882
7.08346e-05
-1.96597e-05
-4.11022e-05
-1.72022e-05
-3.45203e-06
-5.83071e-07
-8.77717e-08
-1.22876e-08
-1.45348e-09
-1.50937e-10
-1.43098e-11
-1.35402e-12
-1.28425e-13
-1.22783e-14
-1.26541e-15
-1.51126e-16
-2.25604e-17
-4.41908e-18
-1.11241e-18
-3.27181e-19
-1.01881e-19
-3.14517e-20
-9.51659e-21
-2.74873e-21
-7.60921e-22
-2.13858e-22
-5.34277e-23
-1.3623e-23
-5.77537e-24
-1.17591e-24
-6.54702e-26
-1.79477e-26
7.35346e-27
-2.4002e-26
-8.88407e-28
-3.01676e-27
1.79213e-28
4.97703e-14
7.22691e-13
3.14162e-12
1.00023e-11
2.75258e-11
6.96414e-11
1.66631e-10
3.82118e-10
8.443e-10
1.79878e-09
3.69299e-09
7.3154e-09
1.40308e-08
2.61433e-08
4.73698e-08
8.34825e-08
1.43242e-07
2.38479e-07
3.7694e-07
5.75941e-07
8.3402e-07
1.13745e-06
1.44164e-06
1.67478e-06
1.7978e-06
1.77439e-06
1.62612e-06
1.43674e-06
1.37674e-06
1.69585e-06
2.7046e-06
4.58946e-06
7.15515e-06
9.21796e-06
8.52386e-06
3.58128e-06
-2.99547e-06
-6.52801e-06
-6.48408e-06
-5.30286e-06
-4.19049e-06
-3.52748e-06
-3.51364e-06
-4.39787e-06
-6.63677e-06
-1.10635e-05
-1.89831e-05
-3.28855e-05
-5.68766e-05
-9.79835e-05
-0.000168184
-0.000244304
-1.80247e-05
0.000127769
0.000141958
9.64324e-05
4.57568e-05
1.12337e-05
9.16832e-07
2.1927e-05
6.05775e-05
0.000134152
0.00018743
6.86916e-05
-2.01005e-05
-4.17737e-05
-1.68087e-05
-3.36024e-06
-5.66047e-07
-8.52964e-08
-1.19272e-08
-1.40857e-09
-1.46066e-10
-1.38398e-11
-1.3103e-12
-1.24278e-13
-1.18898e-14
-1.22713e-15
-1.46904e-16
-2.2008e-17
-4.32551e-18
-1.09273e-18
-3.22477e-19
-1.00514e-19
-3.12768e-20
-9.27603e-21
-2.78021e-21
-7.73937e-22
-2.03196e-22
-5.85085e-23
-1.49358e-23
-5.17777e-24
-1.23228e-24
2.1122e-25
4.09314e-26
5.20531e-26
-1.20163e-26
6.98061e-27
2.3325e-27
5.07624e-28
4.9674e-14
7.21297e-13
3.13558e-12
9.98322e-12
2.74739e-11
6.95119e-11
1.66327e-10
3.81436e-10
8.42827e-10
1.7957e-09
3.6867e-09
7.30301e-09
1.40072e-08
2.61005e-08
4.72944e-08
8.33635e-08
1.43062e-07
2.38221e-07
3.76605e-07
5.75465e-07
8.33574e-07
1.13721e-06
1.44186e-06
1.67562e-06
1.79929e-06
1.77637e-06
1.62828e-06
1.43866e-06
1.37806e-06
1.6964e-06
2.70475e-06
4.59033e-06
7.16166e-06
9.22525e-06
8.53262e-06
3.58513e-06
-2.99866e-06
-6.53315e-06
-6.48771e-06
-5.30688e-06
-4.19501e-06
-3.53412e-06
-3.52477e-06
-4.41769e-06
-6.6726e-06
-1.11283e-05
-1.90987e-05
-3.30917e-05
-5.72448e-05
-9.86493e-05
-0.000169396
-0.000243709
-1.64743e-05
0.000128449
0.000141815
9.57912e-05
4.52454e-05
1.10168e-05
1.10526e-06
2.25842e-05
6.14096e-05
0.000135709
0.000187116
6.71288e-05
-2.04227e-05
-4.21876e-05
-1.64982e-05
-3.29496e-06
-5.53945e-07
-8.35287e-08
-1.16717e-08
-1.37666e-09
-1.42597e-10
-1.35047e-11
-1.27905e-12
-1.21308e-13
-1.16104e-14
-1.19953e-15
-1.43857e-16
-2.16051e-17
-4.26104e-18
-1.07879e-18
-3.18659e-19
-9.9261e-20
-3.09635e-20
-9.36582e-21
-2.6689e-21
-7.7179e-22
-2.11712e-22
-5.57172e-23
-1.55091e-23
-5.34964e-24
-1.51992e-24
-9.44267e-26
5.07759e-26
-1.02029e-27
1.86985e-26
3.91884e-27
4.65827e-27
-3.9938e-28
4.96121e-14
7.204e-13
3.1317e-12
9.97089e-12
2.74401e-11
6.94268e-11
1.66124e-10
3.80971e-10
8.418e-10
1.79352e-09
3.68229e-09
7.29444e-09
1.39914e-08
2.60727e-08
4.72458e-08
8.32852e-08
1.42943e-07
2.38054e-07
3.76393e-07
5.7517e-07
8.33304e-07
1.13708e-06
1.44202e-06
1.67618e-06
1.80026e-06
1.77765e-06
1.62968e-06
1.43991e-06
1.37884e-06
1.69679e-06
2.70494e-06
4.59105e-06
7.16442e-06
9.23009e-06
8.53813e-06
3.58724e-06
-3.00106e-06
-6.53669e-06
-6.49031e-06
-5.31051e-06
-4.19794e-06
-3.53818e-06
-3.53137e-06
-4.42922e-06
-6.69305e-06
-1.11644e-05
-1.91615e-05
-3.3201e-05
-5.74357e-05
-9.89868e-05
-0.000170003
-0.000242854
-1.51044e-05
0.00012885
0.000141424
9.51282e-05
4.45492e-05
1.04937e-05
8.84424e-07
2.27384e-05
6.18206e-05
0.00013678
0.000186952
6.61152e-05
-2.0631e-05
-4.24308e-05
-1.63096e-05
-3.25218e-06
-5.46016e-07
-8.23779e-08
-1.1505e-08
-1.35587e-09
-1.40341e-10
-1.32868e-11
-1.25869e-12
-1.19367e-13
-1.14283e-14
-1.18159e-15
-1.41874e-16
-2.13433e-17
-4.21588e-18
-1.06977e-18
-3.16376e-19
-9.87083e-20
-3.05266e-20
-9.12158e-21
-2.65391e-21
-7.62059e-22
-2.13316e-22
-6.06713e-23
-1.30462e-23
-1.93068e-24
-1.60061e-24
1.78069e-26
1.04064e-25
2.75875e-26
-8.0713e-27
-4.74061e-27
6.05011e-27
2.46576e-28
4.9581e-14
7.19949e-13
3.12974e-12
9.96466e-12
2.7423e-11
6.93837e-11
1.66022e-10
3.8074e-10
8.413e-10
1.79248e-09
3.68018e-09
7.29035e-09
1.39839e-08
2.60593e-08
4.72222e-08
8.32476e-08
1.42886e-07
2.37974e-07
3.76292e-07
5.75027e-07
8.33176e-07
1.13702e-06
1.44211e-06
1.67648e-06
1.80076e-06
1.77832e-06
1.63039e-06
1.44055e-06
1.37928e-06
1.69699e-06
2.70501e-06
4.59131e-06
7.16112e-06
9.23233e-06
8.54072e-06
3.58812e-06
-3.00234e-06
-6.53845e-06
-6.4916e-06
-5.31183e-06
-4.19936e-06
-3.54006e-06
-3.5341e-06
-4.43331e-06
-6.69884e-06
-1.11715e-05
-1.91667e-05
-3.31935e-05
-5.73854e-05
-9.88146e-05
-0.000169514
-0.000241042
-1.29838e-05
0.00013007
0.000141985
9.65503e-05
4.61584e-05
1.19349e-05
2.1558e-06
2.38769e-05
6.26363e-05
0.000137423
0.00018675
6.55177e-05
-2.07585e-05
-4.25394e-05
-1.62126e-05
-3.23039e-06
-5.42014e-07
-8.17926e-08
-1.14207e-08
-1.34539e-09
-1.39208e-10
-1.31776e-11
-1.24851e-12
-1.18397e-13
-1.13367e-14
-1.17253e-15
-1.40877e-16
-2.12121e-17
-4.19428e-18
-1.06459e-18
-3.15001e-19
-9.86745e-20
-3.06511e-20
-9.20256e-21
-2.68881e-21
-7.78654e-22
-2.05357e-22
-5.36068e-23
-1.60597e-23
-2.48134e-24
-1.06487e-24
7.9635e-26
7.08775e-26
-1.32917e-26
2.24017e-26
-1.79029e-27
-5.68573e-27
1.5922e-27
4.95806e-14
7.19942e-13
3.12971e-12
9.96456e-12
2.74227e-11
6.93828e-11
1.6602e-10
3.80735e-10
8.41289e-10
1.79245e-09
3.68013e-09
7.29027e-09
1.39837e-08
2.60591e-08
4.72219e-08
8.32472e-08
1.42886e-07
2.37974e-07
3.76292e-07
5.75028e-07
8.33179e-07
1.13703e-06
1.44212e-06
1.67649e-06
1.80078e-06
1.77833e-06
1.63041e-06
1.44056e-06
1.37931e-06
1.69702e-06
2.70509e-06
4.59155e-06
7.16227e-06
9.23257e-06
8.54079e-06
3.58819e-06
-3.00218e-06
-6.53827e-06
-6.49145e-06
-5.31092e-06
-4.19947e-06
-3.54051e-06
-3.53509e-06
-4.43543e-06
-6.70346e-06
-1.11818e-05
-1.91896e-05
-3.32459e-05
-5.75063e-05
-9.90967e-05
-0.000170171
-0.000242709
-1.47003e-05
0.000129279
0.000142
9.57292e-05
4.51378e-05
1.10718e-05
1.48452e-06
2.33583e-05
6.22864e-05
0.000137313
0.000186659
6.54384e-05
-2.0779e-05
-4.25364e-05
-1.62069e-05
-3.22925e-06
-5.41826e-07
-8.1763e-08
-1.14166e-08
-1.3449e-09
-1.39156e-10
-1.31725e-11
-1.24802e-12
-1.18351e-13
-1.13324e-14
-1.1721e-15
-1.40831e-16
-2.12067e-17
-4.19574e-18
-1.0647e-18
-3.15141e-19
-9.82943e-20
-3.06193e-20
-9.22245e-21
-2.64814e-21
-7.7115e-22
-2.03267e-22
-6.0607e-23
-1.54307e-23
-3.32018e-24
-1.15314e-24
1.97649e-25
-3.99469e-26
-2.13941e-26
3.91675e-28
-1.52074e-26
6.61376e-27
1.56526e-27
4.96109e-14
7.20382e-13
3.13161e-12
9.97057e-12
2.74391e-11
6.94239e-11
1.66116e-10
3.80953e-10
8.41762e-10
1.79344e-09
3.68213e-09
7.29415e-09
1.39909e-08
2.6072e-08
4.72445e-08
8.32835e-08
1.42941e-07
2.38052e-07
3.76393e-07
5.75171e-07
8.33311e-07
1.13709e-06
1.44205e-06
1.67622e-06
1.80031e-06
1.7777e-06
1.62972e-06
1.43995e-06
1.37898e-06
1.69687e-06
2.70508e-06
4.5913e-06
7.16215e-06
9.23024e-06
8.53812e-06
3.58733e-06
-3.0007e-06
-6.5363e-06
-6.4901e-06
-5.31052e-06
-4.19818e-06
-3.53868e-06
-3.53214e-06
-4.43035e-06
-6.69457e-06
-1.11662e-05
-1.91628e-05
-3.3199e-05
-5.74217e-05
-9.8936e-05
-0.000169846
-0.000243016
-1.53628e-05
0.000129078
0.000142161
9.60673e-05
4.54232e-05
1.1247e-05
1.52458e-06
2.32543e-05
6.21081e-05
0.000136857
0.000186776
6.59263e-05
-2.06816e-05
-4.24244e-05
-1.62949e-05
-3.24923e-06
-5.45542e-07
-8.2302e-08
-1.14945e-08
-1.35459e-09
-1.40206e-10
-1.32741e-11
-1.2575e-12
-1.19251e-13
-1.14169e-14
-1.18044e-15
-1.41756e-16
-2.13316e-17
-4.21374e-18
-1.06931e-18
-3.16222e-19
-9.8616e-20
-3.06428e-20
-9.19759e-21
-2.66804e-21
-7.7032e-22
-2.04319e-22
-5.52063e-23
-1.48866e-23
-2.30926e-24
-1.21268e-24
-9.1454e-26
4.52044e-26
-1.98041e-26
2.282e-26
-6.11242e-27
5.30505e-27
-1.65116e-27
4.96738e-14
7.21293e-13
3.13556e-12
9.9831e-12
2.74733e-11
6.95098e-11
1.6632e-10
3.81412e-10
8.42758e-10
1.79553e-09
3.68633e-09
7.3023e-09
1.40061e-08
2.6099e-08
4.72925e-08
8.33612e-08
1.4306e-07
2.38221e-07
3.76608e-07
5.75472e-07
8.3359e-07
1.13723e-06
1.44189e-06
1.67566e-06
1.79933e-06
1.7764e-06
1.6283e-06
1.43869e-06
1.37812e-06
1.6965e-06
2.70493e-06
4.5906e-06
7.15987e-06
9.22534e-06
8.53252e-06
3.58524e-06
-2.9981e-06
-6.53255e-06
-6.48739e-06
-5.3068e-06
-4.19518e-06
-3.53447e-06
-3.52522e-06
-4.41815e-06
-6.67286e-06
-1.11279e-05
-1.90963e-05
-3.30847e-05
-5.72272e-05
-9.86067e-05
-0.000169294
-0.000243863
-1.66768e-05
0.000128588
0.000142233
9.63207e-05
4.56596e-05
1.13692e-05
1.45393e-06
2.29476e-05
6.17185e-05
0.000135967
0.000187062
6.69487e-05
-2.04765e-05
-4.21819e-05
-1.64794e-05
-3.29099e-06
-5.53261e-07
-8.34244e-08
-1.16568e-08
-1.37489e-09
-1.42425e-10
-1.34882e-11
-1.27742e-12
-1.21148e-13
-1.15955e-14
-1.19809e-15
-1.43703e-16
-2.15865e-17
-4.25802e-18
-1.07798e-18
-3.18614e-19
-9.93628e-20
-3.0873e-20
-9.33462e-21
-2.68785e-21
-7.6701e-22
-2.10259e-22
-5.95804e-23
-1.62774e-23
-4.57717e-24
-1.17472e-24
-1.85267e-25
-1.11877e-25
-1.37568e-27
-2.31344e-26
-3.16455e-27
-1.51844e-27
-4.636e-28
4.97712e-14
7.22705e-13
3.14168e-12
1.00025e-11
2.75264e-11
6.96431e-11
1.66635e-10
3.82124e-10
8.44304e-10
1.79876e-09
3.69285e-09
7.31493e-09
1.40295e-08
2.61406e-08
4.73657e-08
8.34786e-08
1.43241e-07
2.3848e-07
3.76944e-07
5.75948e-07
8.34037e-07
1.13748e-06
1.44168e-06
1.67483e-06
1.79785e-06
1.77443e-06
1.62615e-06
1.43676e-06
1.37679e-06
1.69594e-06
2.70476e-06
4.58964e-06
7.15519e-06
9.21784e-06
8.52358e-06
3.58133e-06
-2.99484e-06
-6.52731e-06
-6.4837e-06
-5.3027e-06
-4.1905e-06
-3.52751e-06
-3.51358e-06
-4.39747e-06
-6.6359e-06
-1.10624e-05
-1.89831e-05
-3.28922e-05
-5.69054e-05
-9.80813e-05
-0.000168471
-0.000244958
-1.87032e-05
0.000127693
0.000142133
9.64558e-05
4.59152e-05
1.15584e-05
1.41292e-06
2.25736e-05
6.12084e-05
0.000134628
0.000187522
6.85629e-05
-2.01497e-05
-4.1764e-05
-1.67883e-05
-3.35642e-06
-5.65474e-07