/*--------------------------------*- C++ -*----------------------------------*\
  =========                 |
  \\      /  F ield         | OpenFOAM: The Open Source CFD Toolbox
   \\    /   O peration     | Website:  https://openfoam.org
    \\  /    A nd           | Version:  10
     \\/     M anipulation  |
\*---------------------------------------------------------------------------*/
FoamFile
{
    format      ascii;
    class       volScalarField;
    location    "1";
    object      RR.HONO2;
}
// * * * * * * * * * * * * * * * * * * * * * * * * * * * * * * * * * * * * * //

dimensions      [1 -3 -1 0 0 0 0];

internalField   nonuniform List<scalar> 
4000
(
1.64989e-21
6.97375e-20
5.95024e-19
3.28641e-18
1.47394e-17
5.85086e-17
2.13877e-16
7.33362e-16
2.37505e-15
7.26759e-15
2.09757e-14
5.71151e-14
1.47106e-13
3.5942e-13
8.34088e-13
1.83076e-12
3.8056e-12
7.4087e-12
1.30552e-11
2.12152e-11
3.02201e-11
3.77043e-11
4.07223e-11
3.81908e-11
3.19978e-11
2.50822e-11
1.96413e-11
1.58887e-11
1.19532e-11
1.00438e-12
-2.49041e-11
-5.54838e-11
-5.84908e-11
-3.78124e-11
-3.30731e-11
-4.6337e-11
-7.93409e-11
-1.49746e-10
-2.89832e-10
-5.54668e-10
-1.05222e-09
-1.96509e-09
-3.60515e-09
-6.51823e-09
-1.17425e-08
-2.09011e-08
-3.66845e-08
-6.37137e-08
-1.10019e-07
-1.89084e-07
-3.24158e-07
-5.57005e-07
-9.66798e-07
-1.69941e-06
-3.03919e-06
-5.55056e-06
-1.04426e-05
-1.99975e-05
-3.94279e-05
-8.01744e-05
-0.00016832
-0.000360584
-0.000768013
-0.00149089
-0.0017345
0.00150939
0.0021508
0.00108224
0.000382317
0.00010626
2.46083e-05
4.63244e-06
7.09796e-07
8.87633e-08
9.73066e-09
1.04366e-09
1.04735e-10
1.05597e-11
1.14946e-12
1.44981e-13
2.24169e-14
4.34006e-15
1.02431e-15
2.74122e-16
7.7698e-17
2.2296e-17
6.35217e-18
1.78428e-18
4.94165e-19
1.35259e-19
3.64907e-20
9.76734e-21
2.57683e-21
6.77081e-22
1.71396e-22
4.23538e-23
1.04203e-23
2.44714e-24
1.95698e-25
6.80865e-26
1.63011e-21
6.88878e-20
5.87771e-19
3.24723e-18
1.45693e-17
5.7849e-17
2.11497e-16
7.25153e-16
2.34751e-15
7.17731e-15
2.06878e-14
5.62343e-14
1.44509e-13
3.52368e-13
8.16642e-13
1.79124e-12
3.71877e-12
7.2403e-12
1.27983e-11
2.09254e-11
2.9985e-11
3.76944e-11
4.10981e-11
3.88645e-11
3.27664e-11
2.5741e-11
2.0122e-11
1.6224e-11
1.23604e-11
1.82175e-12
-2.36901e-11
-5.4664e-11
-5.94363e-11
-3.92213e-11
-3.41536e-11
-4.779e-11
-8.19255e-11
-1.54702e-10
-2.99599e-10
-5.73704e-10
-1.08902e-09
-2.03531e-09
-3.73452e-09
-6.75899e-09
-1.21871e-08
-2.17147e-08
-3.81361e-08
-6.62669e-08
-1.1447e-07
-1.96842e-07
-3.37979e-07
-5.8209e-07
-1.01244e-06
-1.78185e-06
-3.19207e-06
-5.84125e-06
-1.09815e-05
-2.11195e-05
-4.18191e-05
-8.52888e-05
-0.000180333
-0.000386196
-0.000820266
-0.00157052
-0.00160003
0.00173243
0.0020986
0.00101761
0.000351554
9.5752e-05
2.17651e-05
4.05139e-06
6.13336e-07
7.56299e-08
8.29866e-09
8.90224e-10
8.97183e-11
9.10624e-12
1.00007e-12
1.27566e-13
2.00453e-14
3.96805e-15
9.59571e-16
2.63296e-16
7.60352e-17
2.21576e-17
6.39019e-18
1.811e-18
5.04182e-19
1.38152e-19
3.74297e-20
1.00158e-20
2.65238e-21
6.87523e-22
1.77839e-22
4.58709e-23
1.09685e-23
2.25031e-24
2.92293e-25
3.39988e-26
1.61392e-21
6.82503e-20
5.82617e-19
3.2203e-18
1.44553e-17
5.74234e-17
2.09963e-16
7.19604e-16
2.32738e-15
7.10491e-15
2.04324e-14
5.53578e-14
1.41884e-13
3.45196e-13
7.98517e-13
1.74964e-12
3.63501e-12
7.07614e-12
1.2533e-11
2.05939e-11
2.97253e-11
3.76891e-11
4.14974e-11
3.95591e-11
3.35679e-11
2.64601e-11
2.0661e-11
1.66426e-11
1.2868e-11
2.88939e-12
-2.1972e-11
-5.39253e-11
-6.13045e-11
-4.12359e-11
-3.57975e-11
-5.01122e-11
-8.4521e-11
-1.62326e-10
-3.14634e-10
-6.03824e-10
-1.14707e-09
-2.14301e-09
-3.93296e-09
-7.12652e-09
-1.28533e-08
-2.28984e-08
-4.0209e-08
-6.98858e-08
-1.20811e-07
-2.07932e-07
-3.56997e-07
-6.19591e-07
-1.07593e-06
-1.89595e-06
-3.40179e-06
-6.23477e-06
-1.17754e-05
-2.26706e-05
-4.49345e-05
-9.1758e-05
-0.000196281
-0.00041988
-0.000888146
-0.00166711
-0.0013721
0.00197054
0.00201073
0.000933669
0.000314016
8.36617e-05
1.86861e-05
3.43372e-06
5.14409e-07
6.32754e-08
6.95707e-09
7.47867e-10
7.5685e-11
7.73294e-12
8.56767e-13
1.09966e-13
1.75158e-14
3.54562e-15
8.82364e-16
2.48498e-16
7.33412e-17
2.17028e-17
6.32899e-18
1.80766e-18
5.06355e-19
1.39568e-19
3.78786e-20
1.01259e-20
2.6951e-21
7.0886e-22
1.82567e-22
4.46164e-23
1.03686e-23
2.18062e-24
4.21448e-25
5.99047e-26
1.58948e-21
6.72315e-20
5.73873e-19
3.17127e-18
1.42299e-17
5.64947e-17
2.06425e-16
7.0693e-16
2.28439e-15
6.96699e-15
2.00174e-14
5.42023e-14
1.38792e-13
3.37324e-13
7.79641e-13
1.7077e-12
3.54932e-12
6.93079e-12
1.23154e-11
2.03095e-11
2.95096e-11
3.77393e-11
4.19378e-11
4.03212e-11
3.43919e-11
2.7178e-11
2.12286e-11
1.70856e-11
1.33324e-11
3.87089e-12
-2.03625e-11
-5.33037e-11
-6.28352e-11
-4.32664e-11
-3.76197e-11
-5.28376e-11
-8.88742e-11
-1.71883e-10
-3.34209e-10
-6.41793e-10
-1.21977e-09
-2.28303e-09
-4.19609e-09
-7.60771e-09
-1.37319e-08
-2.44833e-08
-4.29837e-08
-7.48459e-08
-1.29387e-07
-2.22562e-07
-3.8242e-07
-6.62057e-07
-1.1531e-06
-2.03658e-06
-3.66315e-06
-6.73201e-06
-1.27455e-05
-2.46075e-05
-4.89478e-05
-0.00010037
-0.000215174
-0.000460617
-0.000966729
-0.00176403
-0.00105546
0.00217603
0.00189258
0.000840131
0.000275887
7.17913e-05
1.57801e-05
2.86887e-06
4.20465e-07
5.08451e-08
5.54639e-09
5.90719e-10
5.9539e-11
6.08931e-12
6.79143e-13
8.95214e-14
1.47246e-14
3.07995e-15
7.93979e-16
2.30316e-16
6.94541e-17
2.08717e-17
6.15669e-18
1.77261e-18
4.99627e-19
1.38287e-19
3.76365e-20
1.01369e-20
2.68282e-21
6.9936e-22
1.81943e-22
4.48172e-23
1.07623e-23
2.61912e-24
2.37866e-25
4.32245e-26
1.56471e-21
6.61904e-20
5.65002e-19
3.12217e-18
1.40084e-17
5.56074e-17
2.0314e-16
6.95487e-16
2.24661e-15
6.84856e-15
1.96652e-14
5.32116e-14
1.36163e-13
3.30752e-13
7.64189e-13
1.67398e-12
3.48128e-12
6.80781e-12
1.2126e-11
2.0079e-11
2.93467e-11
3.77925e-11
4.23152e-11
4.09878e-11
3.51869e-11
2.79566e-11
2.18286e-11
1.75497e-11
1.3863e-11
4.80448e-12
-1.89118e-11
-5.22521e-11
-6.42363e-11
-4.52662e-11
-3.94831e-11
-5.56683e-11
-9.40347e-11
-1.82221e-10
-3.54726e-10
-6.81684e-10
-1.29749e-09
-2.43062e-09
-4.47279e-09
-8.11521e-09
-1.46553e-08
-2.61395e-08
-4.58095e-08
-7.9723e-08
-1.37845e-07
-2.37213e-07
-4.07466e-07
-7.08924e-07
-1.23366e-06
-2.18113e-06
-3.93008e-06
-7.23802e-06
-1.37161e-05
-2.6548e-05
-5.29129e-05
-0.000108781
-0.000233921
-0.00050138
-0.0010461
-0.00185212
-0.000698513
0.00229956
0.00177425
0.000760902
0.000243637
6.19209e-05
1.34263e-05
2.39095e-06
3.44533e-07
4.12542e-08
4.49328e-09
4.77284e-10
4.81741e-11
4.95334e-12
5.57548e-13
7.39512e-14
1.23777e-14
2.69533e-15
7.20624e-16
2.14654e-16
6.57735e-17
2.00039e-17
5.95509e-18
1.72547e-18
4.88911e-19
1.35775e-19
3.70936e-20
9.99848e-21
2.66017e-21
6.99815e-22
1.76963e-22
4.63821e-23
1.0494e-23
2.38238e-24
1.94318e-25
6.78081e-26
1.53934e-21
6.51067e-20
5.557e-19
3.07043e-18
1.37744e-17
5.467e-17
1.99682e-16
6.83536e-16
2.20763e-15
6.72827e-15
1.93143e-14
5.22471e-14
1.33673e-13
3.24717e-13
7.50484e-13
1.64519e-12
3.42566e-12
6.7123e-12
1.19878e-11
1.99023e-11
2.9224e-11
3.78443e-11
4.26485e-11
4.16087e-11
3.59722e-11
2.86624e-11
2.23862e-11
1.79834e-11
1.43335e-11
5.60641e-12
-1.76806e-11
-5.18633e-11
-6.53715e-11
-4.71694e-11
-4.13386e-11
-5.85501e-11
-9.94591e-11
-1.92823e-10
-3.7574e-10
-7.23175e-10
-1.37749e-09
-2.58308e-09
-4.75062e-09
-8.62026e-09
-1.55696e-08
-2.77718e-08
-4.86911e-08
-8.46974e-08
-1.46513e-07
-2.52244e-07
-4.33448e-07
-7.51398e-07
-1.31148e-06
-2.32349e-06
-4.19576e-06
-7.74919e-06
-1.46973e-05
-2.85376e-05
-5.70636e-05
-0.000117475
-0.00025179
-0.000538895
-0.001115
-0.00191326
-0.000363315
0.00235551
0.00167168
0.000684823
0.000214162
5.35379e-05
1.1416e-05
1.99564e-06
2.83518e-07
3.36882e-08
3.66751e-09
3.88783e-10
3.931e-11
4.065e-12
4.62316e-13
6.23522e-14
1.06665e-14
2.37517e-15
6.50756e-16
1.98096e-16
6.19908e-17
1.90966e-17
5.73205e-18
1.67065e-18
4.75192e-19
1.32293e-19
3.62384e-20
9.79777e-21
2.60728e-21
6.78787e-22
1.77631e-22
4.37961e-23
1.05356e-23
2.14835e-24
3.56257e-25
1.7316e-26
1.51505e-21
6.40623e-20
5.46734e-19
3.02066e-18
1.35502e-17
5.37762e-17
1.96408e-16
6.72313e-16
2.17136e-15
6.6175e-15
1.89945e-14
5.13775e-14
1.31451e-13
3.19386e-13
7.38474e-13
1.62011e-12
3.37721e-12
6.62854e-12
1.18646e-11
1.97427e-11
2.91239e-11
3.79193e-11
4.29787e-11
4.22298e-11
3.66831e-11
2.93055e-11
2.28921e-11
1.83697e-11
1.47314e-11
6.25532e-12
-1.66922e-11
-5.13529e-11
-6.59576e-11
-4.87688e-11
-4.30284e-11
-6.12487e-11
-1.04607e-10
-2.03238e-10
-3.95892e-10
-7.62482e-10
-1.45437e-09
-2.72811e-09
-5.01808e-09
-9.10739e-09
-1.64501e-08
-2.93398e-08
-5.1395e-08
-8.94325e-08
-1.55151e-07
-2.66679e-07
-4.58273e-07
-7.96e-07
-1.38955e-06
-2.46288e-06
-4.44982e-06
-8.28948e-06
-1.56949e-05
-3.05279e-05
-6.11677e-05
-0.000126316
-0.00026817
-0.000575101
-0.00118122
-0.00195365
-5.41376e-05
0.00237754
0.0015799
0.000631592
0.000194187
4.7724e-05
1.00791e-05
1.73735e-06
2.44059e-07
2.87978e-08
3.13152e-09
3.31102e-10
3.35008e-11
3.47867e-12
3.98851e-13
5.45107e-14
9.50644e-15
2.16608e-15
6.05309e-16
1.86568e-16
5.86622e-17
1.81404e-17
5.46429e-18
1.59722e-18
4.55578e-19
1.2718e-19
3.49549e-20
9.45085e-21
2.51815e-21
6.58478e-22
1.70759e-22
4.35856e-23
1.07447e-23
2.57177e-24
3.81702e-25
4.34914e-26
1.49248e-21
6.30872e-20
5.38359e-19
2.97419e-18
1.3341e-17
5.29447e-17
1.93372e-16
6.61956e-16
2.13809e-15
6.51659e-15
1.87056e-14
5.05988e-14
1.2948e-13
3.14703e-13
7.28026e-13
1.59848e-12
3.33584e-12
6.55783e-12
1.17626e-11
1.96114e-11
2.90525e-11
3.80072e-11
4.32876e-11
4.27368e-11
3.72639e-11
2.98641e-11
2.33479e-11
1.87323e-11
1.50779e-11
6.7956e-12
-1.59082e-11
-5.10015e-11
-6.72134e-11
-5.02788e-11
-4.46389e-11
-6.38581e-11
-1.09466e-10
-2.12591e-10
-4.14649e-10
-7.98624e-10
-1.52188e-09
-2.8544e-09
-5.25038e-09
-9.5331e-09
-1.72282e-08
-3.07454e-08
-5.38725e-08
-9.37441e-08
-1.62589e-07
-2.79512e-07
-4.80301e-07
-8.35209e-07
-1.4593e-06
-2.59094e-06
-4.6927e-06
-8.7146e-06
-1.65291e-05
-3.22337e-05
-6.4741e-05
-0.000134016
-0.000284975
-0.000610982
-0.00124372
-0.00198251
0.000246482
0.00238139
0.00149556
0.000581977
0.000175959
4.26597e-05
8.94184e-06
1.52513e-06
2.12007e-07
2.48434e-08
2.69748e-09
2.84338e-10
2.8773e-11
2.99825e-12
3.46334e-13
4.79342e-14
8.51639e-15
1.98353e-15
5.64791e-16
1.76305e-16
5.5875e-17
1.73714e-17
5.24246e-18
1.53667e-18
4.39042e-19
1.22879e-19
3.38075e-20
9.13193e-21
2.4288e-21
6.39859e-22
1.66433e-22
4.11279e-23
9.39679e-24
2.21088e-24
2.56264e-25
2.89481e-26
1.47222e-21
6.221e-20
5.30826e-19
2.93246e-18
1.31536e-17
5.22017e-17
1.9067e-16
6.52774e-16
2.10874e-15
6.42812e-15
1.8454e-14
4.99253e-14
1.27789e-13
3.10718e-13
7.19226e-13
1.58052e-12
3.30213e-12
6.50184e-12
1.16854e-11
1.95111e-11
2.89996e-11
3.80822e-11
4.35608e-11
4.32121e-11
3.78285e-11
3.03732e-11
2.37501e-11
1.90429e-11
1.54411e-11
7.2305e-12
-1.52631e-11
-5.07225e-11
-6.7983e-11
-5.15408e-11
-4.61226e-11
-6.62837e-11
-1.14074e-10
-2.21749e-10
-4.32771e-10
-8.34239e-10
-1.59058e-09
-2.98301e-09
-5.4845e-09
-9.95558e-09
-1.79854e-08
-3.20736e-08
-5.6175e-08
-9.7758e-08
-1.6943e-07
-2.91491e-07
-5.01269e-07
-8.66806e-07
-1.51745e-06
-2.69616e-06
-4.88538e-06
-9.16337e-06
-1.7367e-05
-3.38992e-05
-6.81741e-05
-0.000141272
-0.000300489
-0.000643581
-0.00130204
-0.00199469
0.000533965
0.00237729
0.00141377
0.000538415
0.000160194
3.81707e-05
7.90296e-06
1.32832e-06
1.82561e-07
2.12642e-08
2.30827e-09
2.42827e-10
2.46014e-11
2.57532e-12
3.00092e-13
4.21309e-14
7.64158e-15
1.82189e-15
5.2878e-16
1.67121e-16
5.33607e-17
1.66702e-17
5.04684e-18
1.48284e-18
4.24419e-19
1.18924e-19
3.27728e-20
8.87451e-21
2.37108e-21
6.21648e-22
1.64251e-22
4.04823e-23
9.45326e-24
1.78737e-24
4.19389e-25
2.59422e-26
1.45446e-21
6.14395e-20
5.24212e-19
2.89585e-18
1.29894e-17
5.15521e-17
1.88313e-16
6.44795e-16
2.08335e-15
6.35198e-15
1.82387e-14
4.93525e-14
1.26357e-13
3.0735e-13
7.11772e-13
1.56522e-12
3.27302e-12
6.45262e-12
1.16152e-11
1.94226e-11
2.89645e-11
3.81766e-11
4.38354e-11
4.36179e-11
3.82845e-11
3.07999e-11
2.40935e-11
1.93052e-11
1.55788e-11
7.58667e-12
-1.47647e-11
-5.05217e-11
-6.92456e-11
-5.25728e-11
-4.74224e-11
-6.8496e-11
-1.18337e-10
-2.30185e-10
-4.49633e-10
-8.66618e-10
-1.65238e-09
-3.0987e-09
-5.69517e-09
-1.03362e-08
-1.86627e-08
-3.32725e-08
-5.82642e-08
-1.01306e-07
-1.75185e-07
-3.01252e-07
-5.17633e-07
-9.01244e-07
-1.57433e-06
-2.79637e-06
-5.06682e-06
-9.50651e-06
-1.80378e-05
-3.52544e-05
-7.10025e-05
-0.000147365
-0.000313812
-0.000670993
-0.00134609
-0.00199154
0.00079302
0.00234597
0.00133899
0.000502192
0.000147451
3.48033e-05
7.15073e-06
1.18853e-06
1.61848e-07
1.87564e-08
2.03524e-09
2.13707e-10
2.16684e-11
2.27661e-12
2.67162e-13
3.79538e-14
7.00277e-15
1.70134e-15
5.01072e-16
1.59794e-16
5.12852e-17
1.60734e-17
4.87699e-18
1.43515e-18
4.11346e-19
1.15245e-19
3.17647e-20
8.61459e-21
2.28745e-21
6.03441e-22
1.5875e-22
3.78873e-23
9.4893e-24
1.81085e-24
3.66538e-25
-4.44113e-27
1.43921e-21
6.07768e-20
5.18524e-19
2.86439e-18
1.28486e-17
5.09957e-17
1.86298e-16
6.37994e-16
2.0618e-15
6.28778e-15
1.8059e-14
4.88805e-14
1.25194e-13
3.04662e-13
7.058e-13
1.5533e-12
3.25136e-12
6.41774e-12
1.15669e-11
1.93618e-11
2.89458e-11
3.82618e-11
4.40676e-11
4.39892e-11
3.86954e-11
3.11732e-11
2.43918e-11
1.95381e-11
1.57961e-11
7.89261e-12
-1.43778e-11
-5.03966e-11
-6.89616e-11
-5.34448e-11
-4.85417e-11
-7.04051e-11
-1.22e-10
-2.37496e-10
-4.64152e-10
-8.94776e-10
-1.70633e-09
-3.2002e-09
-5.88123e-09
-1.06759e-08
-1.92768e-08
-3.43694e-08
-6.01572e-08
-1.0458e-07
-1.80637e-07
-3.10654e-07
-5.33929e-07
-9.30885e-07
-1.62833e-06
-2.89686e-06
-5.26017e-06
-9.82366e-06
-1.86916e-05
-3.65914e-05
-7.38064e-05
-0.000153377
-0.000326826
-0.000698142
-0.00139113
-0.00197314
0.000988104
0.00232056
0.00128394
0.000474296
0.000137605
3.22311e-05
6.58485e-06
1.08458e-06
1.46544e-07
1.69138e-08
1.83499e-09
1.92394e-10
1.95229e-11
2.05806e-12
2.42971e-13
3.48748e-14
6.52792e-15
1.61016e-15
4.79528e-16
1.53919e-16
4.9574e-17
1.55707e-17
4.7294e-18
1.39294e-18
3.99567e-19
1.12194e-19
3.09246e-20
8.3865e-21
2.23432e-21
5.90382e-22
1.52564e-22
3.78874e-23
9.62254e-24
1.80652e-24
2.13245e-25
-2.57132e-26
1.42632e-21
6.02164e-20
5.13717e-19
2.83783e-18
1.27298e-17
5.05274e-17
1.84607e-16
6.32301e-16
2.04384e-15
6.23454e-15
1.79109e-14
4.84942e-14
1.2425e-13
3.02499e-13
7.01012e-13
1.5439e-12
3.23406e-12
6.38872e-12
1.15275e-11
1.93158e-11
2.89402e-11
3.83473e-11
4.42719e-11
4.4295e-11
3.90411e-11
3.14904e-11
2.46489e-11
1.97369e-11
1.59788e-11
8.12872e-12
-1.40885e-11
-5.03785e-11
-6.96722e-11
-5.42941e-11
-4.9557e-11
-7.20633e-11
-1.25152e-10
-2.43791e-10
-4.7636e-10
-9.18142e-10
-1.75047e-09
-3.28168e-09
-6.0273e-09
-1.10097e-08
-1.98512e-08
-3.53795e-08
-6.19198e-08
-1.07649e-07
-1.86014e-07
-3.20115e-07
-5.50675e-07
-9.5365e-07
-1.67156e-06
-2.97601e-06
-5.40552e-06
-1.01264e-05
-1.92798e-05
-3.77878e-05
-7.63078e-05
-0.000158763
-0.000338509
-0.00072231
-0.00142952
-0.00194343
0.0011411
0.00229887
0.00124024
0.000452443
0.000129975
3.03332e-05
6.16846e-06
1.01057e-06
1.35693e-07
1.56051e-08
1.69228e-09
1.77159e-10
1.7984e-11
1.90069e-12
2.25515e-13
3.26348e-14
6.17707e-15
1.54095e-15
4.62628e-16
1.49167e-16
4.81518e-17
1.51436e-17
4.60338e-18
1.35678e-18
3.89156e-19
1.09246e-19
3.01712e-20
8.18263e-21
2.17451e-21
5.77528e-22
1.50099e-22
3.75025e-23
8.06874e-24
1.60406e-24
2.43181e-25
5.16561e-27
1.41557e-21
5.9749e-20
5.09709e-19
2.8157e-18
1.26309e-17
5.01383e-17
1.83204e-16
6.27593e-16
2.02902e-15
6.19078e-15
1.77897e-14
4.81804e-14
1.23491e-13
3.00791e-13
6.97326e-13
1.53669e-12
3.22066e-12
6.36731e-12
1.15e-11
1.92837e-11
2.89422e-11
3.84222e-11
4.44506e-11
4.45674e-11
3.93532e-11
3.178e-11
2.48803e-11
1.99157e-11
1.61374e-11
8.30551e-12
-1.38679e-11
-5.03662e-11
-7.0428e-11
-5.48932e-11
-5.03909e-11
-7.35028e-11
-1.27957e-10
-2.49297e-10
-4.8709e-10
-9.38674e-10
-1.78927e-09
-3.35348e-09
-6.15771e-09
-1.12457e-08
-2.02636e-08
-3.60941e-08
-6.31387e-08
-1.09717e-07
-1.89461e-07
-3.25824e-07
-5.60171e-07
-9.76947e-07
-1.70938e-06
-3.04298e-06
-5.5291e-06
-1.03999e-05
-1.9794e-05
-3.8821e-05
-7.84562e-05
-0.000163347
-0.000348497
-0.000742781
-0.00146169
-0.00191017
0.00126401
0.00227537
0.00120449
0.000435114
0.000123927
2.88405e-05
5.83385e-06
9.49048e-07
1.26748e-07
1.45323e-08
1.57565e-09
1.64749e-10
1.67312e-11
1.77235e-12
2.11251e-13
3.08021e-14
5.89019e-15
1.48427e-15
4.48668e-16
1.45185e-16
4.69482e-17
1.47804e-17
4.49535e-18
1.32533e-18
3.80777e-19
1.06811e-19
2.94306e-20
7.9842e-21
2.14665e-21
5.61562e-22
1.43932e-22
3.59752e-23
8.26622e-24
1.88799e-24
3.08878e-25
-2.65755e-26
1.40673e-21
5.93645e-20
5.06411e-19
2.79749e-18
1.25496e-17
4.98184e-17
1.82051e-16
6.23721e-16
2.01682e-15
6.15469e-15
1.76894e-14
4.7919e-14
1.22854e-13
2.99336e-13
6.94116e-13
1.53021e-12
3.2092e-12
6.34987e-12
1.14793e-11
1.92612e-11
2.89498e-11
3.84924e-11
4.46046e-11
4.47941e-11
3.96006e-11
3.20082e-11
2.50638e-11
2.00589e-11
1.62663e-11
8.46303e-12
-1.36914e-11
-5.01463e-11
-7.0162e-11
-5.53439e-11
-5.10947e-11
-7.47768e-11
-1.30465e-10
-2.54306e-10
-4.9695e-10
-9.5774e-10
-1.82574e-09
-3.42211e-09
-6.28484e-09
-1.14792e-08
-2.06808e-08
-3.68279e-08
-6.43998e-08
-1.11861e-07
-1.93103e-07
-3.31983e-07
-5.70586e-07
-9.95737e-07
-1.74273e-06
-3.10335e-06
-5.64219e-06
-1.06218e-05
-2.02287e-05
-3.96983e-05
-8.03001e-05
-0.000167347
-0.00035718
-0.000760552
-0.00148911
-0.00187613
0.00136269
0.00225448
0.00117369
0.000421092
0.000119146
2.76674e-05
5.57668e-06
9.02696e-07
1.20033e-07
1.37273e-08
1.48802e-09
1.5542e-10
1.57893e-11
1.67583e-12
2.00499e-13
2.94094e-14
5.66863e-15
1.43946e-15
4.37329e-16
1.41886e-16
4.59398e-17
1.44693e-17
4.40258e-18
1.29872e-18
3.73032e-19
1.0478e-19
2.88883e-20
7.84142e-21
2.10235e-21
5.53714e-22
1.43906e-22
3.68449e-23
8.64654e-24
1.88472e-24
1.84279e-25
5.75618e-27
1.3996e-21
5.90541e-20
5.0375e-19
2.78281e-18
1.24841e-17
4.95606e-17
1.81123e-16
6.20606e-16
2.00702e-15
6.12567e-15
1.76087e-14
4.77086e-14
1.22341e-13
2.98168e-13
6.91536e-13
1.52539e-12
3.20095e-12
6.3374e-12
1.14644e-11
1.92457e-11
2.89612e-11
3.85586e-11
4.47436e-11
4.499e-11
3.98146e-11
3.21975e-11
2.52144e-11
2.01747e-11
1.63706e-11
8.5822e-12
-1.35815e-11
-5.03397e-11
-7.11423e-11
-5.5858e-11
-5.17436e-11
-7.58489e-11
-1.32533e-10
-2.58431e-10
-5.05092e-10
-9.73537e-10
-1.85604e-09
-3.47899e-09
-6.38817e-09
-1.16667e-08
-2.10176e-08
-3.74262e-08
-6.54437e-08
-1.13676e-07
-1.96235e-07
-3.3739e-07
-5.7994e-07
-1.01187e-06
-1.77158e-06
-3.15548e-06
-5.73731e-06
-1.08051e-05
-2.05947e-05
-4.04444e-05
-8.18624e-05
-0.000170718
-0.000364534
-0.000775661
-0.00151184
-0.00184405
0.00143971
0.00223557
0.00114962
0.00040989
0.000115366
2.67395e-05
5.37514e-06
8.66568e-07
1.14815e-07
1.31022e-08
1.41994e-09
1.48166e-10
1.5055e-11
1.6003e-12
1.92056e-13
2.83137e-14
5.49347e-15
1.40354e-15
4.28095e-16
1.39166e-16
4.51e-17
1.4213e-17
4.32537e-18
1.27607e-18
3.66556e-19
1.03009e-19
2.84113e-20
7.72303e-21
2.06657e-21
5.47181e-22
1.37382e-22
3.53644e-23
8.20586e-24
1.80868e-24
3.41848e-25
-1.46412e-26
1.39399e-21
5.88102e-20
5.0166e-19
2.77128e-18
1.24327e-17
4.93588e-17
1.80398e-16
6.18177e-16
1.99939e-15
6.10314e-15
1.75463e-14
4.75472e-14
1.21953e-13
2.97303e-13
6.89662e-13
1.52183e-12
3.19465e-12
6.32796e-12
1.14538e-11
1.92361e-11
2.8974e-11
3.86135e-11
4.48522e-11
4.51448e-11
3.9982e-11
3.23468e-11
2.5335e-11
2.0269e-11
1.64542e-11
8.67722e-12
-1.34985e-11
-5.05752e-11
-7.11312e-11
-5.62651e-11
-5.22955e-11
-7.67884e-11
-1.34361e-10
-2.62059e-10
-5.12197e-10
-9.87188e-10
-1.88193e-09
-3.52708e-09
-6.47645e-09
-1.18279e-08
-2.13092e-08
-3.79507e-08
-6.63742e-08
-1.15331e-07
-1.99185e-07
-3.42698e-07
-5.89703e-07
-1.02185e-06
-1.79308e-06
-3.19705e-06
-5.81785e-06
-1.09587e-05
-2.09e-05
-4.10688e-05
-8.31786e-05
-0.000173542
-0.000370619
-0.000788028
-0.00153025
-0.00181511
0.00150072
0.00221975
0.00112994
0.000400752
0.000112255
2.59816e-05
5.21036e-06
8.37168e-07
1.1059e-07
1.25981e-08
1.36516e-09
1.42348e-10
1.44677e-11
1.54004e-12
1.85328e-13
2.74384e-14
5.35282e-15
1.37458e-15
4.2064e-16
1.36958e-16
4.44121e-17
1.39994e-17
4.26234e-18
1.2577e-18
3.61016e-19
1.01656e-19
2.80168e-20
7.61583e-21
2.03249e-21
5.37064e-22
1.36883e-22
3.67438e-23
8.22645e-24
2.04134e-24
3.74264e-25
-2.71112e-26
1.38975e-21
5.86257e-20
5.0008e-19
2.76258e-18
1.2394e-17
4.92071e-17
1.79854e-16
6.16367e-16
1.99375e-15
6.0867e-15
1.75013e-14
4.74322e-14
1.21678e-13
2.96683e-13
6.88284e-13
1.51914e-12
3.18994e-12
6.32112e-12
1.14467e-11
1.92303e-11
2.89873e-11
3.86627e-11
4.49458e-11
4.52722e-11
4.01181e-11
3.24698e-11
2.54335e-11
2.03446e-11
1.65202e-11
8.74852e-12
-1.34385e-11
-5.06225e-11
-7.1353e-11
-5.65374e-11
-5.27093e-11
-7.75105e-11
-1.35774e-10
-2.64866e-10
-5.17686e-10
-9.9772e-10
-1.90189e-09
-3.56411e-09
-6.54387e-09
-1.195e-08
-2.15259e-08
-3.83283e-08
-6.70156e-08
-1.16406e-07
-2.00973e-07
-3.45619e-07
-5.94421e-07
-1.03407e-06
-1.81281e-06
-3.23283e-06
-5.88604e-06
-1.1074e-05
-2.1136e-05
-4.15533e-05
-8.41969e-05
-0.000175745
-0.00037541
-0.000797749
-0.00154467
-0.00179053
0.00154717
0.00220693
0.00111534
0.000393738
0.000109895
2.54112e-05
5.08548e-06
8.14942e-07
1.07406e-07
1.22193e-08
1.32406e-09
1.37989e-10
1.40281e-11
1.49484e-12
1.80257e-13
2.6775e-14
5.24557e-15
1.35231e-15
4.14842e-16
1.35224e-16
4.38754e-17
1.38338e-17
4.21117e-18
1.24283e-18
3.57096e-19
1.0036e-19
2.7673e-20
7.50833e-21
2.00284e-21
5.22107e-22
1.3724e-22
3.33704e-23
7.94672e-24
1.54777e-24
3.29299e-25
2.28591e-26
1.38675e-21
5.8495e-20
4.98963e-19
2.75645e-18
1.23668e-17
4.91013e-17
1.79478e-16
6.15122e-16
1.98987e-15
6.07527e-15
1.74695e-14
4.73485e-14
1.21472e-13
2.96215e-13
6.87264e-13
1.51727e-12
3.1868e-12
6.3167e-12
1.14423e-11
1.92273e-11
2.8998e-11
3.86987e-11
4.50131e-11
4.5364e-11
4.02157e-11
3.25568e-11
2.55031e-11
2.03983e-11
1.6567e-11
8.79857e-12
-1.33983e-11
-5.06464e-11
-7.18126e-11
-5.66912e-11
-5.30008e-11
-7.80553e-11
-1.36864e-10
-2.67054e-10
-5.22005e-10
-1.00609e-09
-1.91791e-09
-3.59414e-09
-6.59919e-09
-1.20512e-08
-2.17092e-08
-3.86578e-08
-6.75983e-08
-1.17434e-07
-2.02784e-07
-3.4884e-07
-6.00228e-07
-1.03978e-06
-1.82514e-06
-3.25594e-06
-5.9285e-06
-1.11704e-05
-2.13149e-05
-4.19149e-05
-8.49575e-05
-0.00017739
-0.000378993
-0.000805017
-0.00155528
-0.00177092
0.00158066
0.00219726
0.00110275
0.000388715
0.000108201
2.50011e-05
4.99646e-06
7.99113e-07
1.05136e-07
1.19489e-08
1.29463e-09
1.34861e-10
1.37112e-11
1.46217e-12
1.76592e-13
2.62966e-14
5.1685e-15
1.33631e-15
4.10674e-16
1.33984e-16
4.34852e-17
1.37138e-17
4.17522e-18
1.2317e-18
3.53944e-19
9.94518e-20
2.74892e-20
7.44369e-21
1.99212e-21
5.26532e-22
1.33357e-22
3.28638e-23
8.8715e-24
1.65478e-24
1.77599e-25
7.43015e-27
1.38482e-21
5.84114e-20
4.98248e-19
2.75251e-18
1.23493e-17
4.90323e-17
1.79229e-16
6.14282e-16
1.9872e-15
6.06734e-15
1.74474e-14
4.72915e-14
1.21337e-13
2.95917e-13
6.86621e-13
1.51607e-12
3.18483e-12
6.31401e-12
1.14399e-11
1.9226e-11
2.90056e-11
3.87226e-11
4.50571e-11
4.54241e-11
4.02792e-11
3.26132e-11
2.55481e-11
2.04333e-11
1.6713e-11
8.8303e-12
-1.33743e-11
-5.06681e-11
-7.19246e-11
-5.68e-11
-5.31889e-11
-7.84018e-11
-1.37558e-10
-2.68454e-10
-5.24781e-10
-1.01149e-09
-1.92831e-09
-3.61379e-09
-6.63544e-09
-1.21178e-08
-2.18296e-08
-3.88725e-08
-6.79725e-08
-1.18081e-07
-2.03889e-07
-3.50709e-07
-6.03369e-07
-1.04538e-06
-1.83473e-06
-3.27296e-06
-5.95909e-06
-1.12276e-05
-2.14322e-05
-4.21548e-05
-8.54638e-05
-0.000178487
-0.000381379
-0.000809841
-0.00156225
-0.00175735
0.00160266
0.00219073
0.0010955
0.0003854
0.000107086
2.47333e-05
4.93823e-06
7.88772e-07
1.03656e-07
1.17726e-08
1.27543e-09
1.32814e-10
1.35044e-11
1.44091e-12
1.74212e-13
2.59869e-14
5.11873e-15
1.326e-15
4.07994e-16
1.33178e-16
4.3235e-17
1.36341e-17
4.15074e-18
1.22516e-18
3.51936e-19
9.89647e-20
2.72859e-20
7.43244e-21
1.98344e-21
5.26756e-22
1.34128e-22
3.36563e-23
8.64075e-24
1.80292e-24
3.46953e-25
1.3097e-26
1.38386e-21
5.83696e-20
4.97889e-19
2.75053e-18
1.23405e-17
4.89977e-17
1.79105e-16
6.13868e-16
1.98592e-15
6.06356e-15
1.7437e-14
4.72647e-14
1.21273e-13
2.95776e-13
6.86316e-13
1.51551e-12
3.18391e-12
6.31279e-12
1.14389e-11
1.92256e-11
2.90099e-11
3.87351e-11
4.50798e-11
4.54546e-11
4.03114e-11
3.26418e-11
2.5571e-11
2.0451e-11
1.67203e-11
8.84633e-12
-1.33607e-11
-5.06633e-11
-7.13634e-11
-5.68044e-11
-5.32477e-11
-7.85381e-11
-1.3784e-10
-2.69024e-10
-5.25908e-10
-1.01368e-09
-1.9325e-09
-3.62162e-09
-6.64972e-09
-1.21436e-08
-2.18748e-08
-3.89492e-08
-6.80964e-08
-1.18269e-07
-2.04146e-07
-3.50979e-07
-6.03406e-07
-1.05357e-06
-1.84686e-06
-3.29583e-06
-6.00665e-06
-1.12192e-05
-2.1474e-05
-4.22697e-05
-8.57202e-05
-0.000179047
-0.000382591
-0.000812277
-0.00156573
-0.00175029
0.00161316
0.002187
0.00109167
0.000383675
0.000106514
2.45952e-05
4.90846e-06
7.83519e-07
1.02909e-07
1.1684e-08
1.26581e-09
1.31792e-10
1.34006e-11
1.43018e-12
1.73008e-13
2.58295e-14
5.09312e-15
1.32062e-15
4.06559e-16
1.32744e-16
4.3097e-17
1.35913e-17
4.1378e-18
1.22132e-18
3.51088e-19
9.87193e-20
2.72069e-20
7.39489e-21
1.9721e-21
5.19464e-22
1.34598e-22
3.28797e-23
8.18522e-24
2.04426e-24
2.41552e-25
-2.7702e-26
1.38384e-21
5.8369e-20
4.97884e-19
2.7505e-18
1.23403e-17
4.89971e-17
1.79103e-16
6.13861e-16
1.9859e-15
6.06351e-15
1.74369e-14
4.72645e-14
1.21272e-13
2.95776e-13
6.86318e-13
1.51552e-12
3.18394e-12
6.31286e-12
1.1439e-11
1.92259e-11
2.90103e-11
3.87358e-11
4.50806e-11
4.54554e-11
4.0312e-11
3.26422e-11
2.55712e-11
2.04511e-11
1.6693e-11
8.8458e-12
-1.33646e-11
-5.06944e-11
-7.16158e-11
-5.68998e-11
-5.32848e-11
-7.85352e-11
-1.37806e-10
-2.68947e-10
-5.25754e-10
-1.01338e-09
-1.93197e-09
-3.6207e-09
-6.64824e-09
-1.21414e-08
-2.18725e-08
-3.89489e-08
-6.81057e-08
-1.18309e-07
-2.04272e-07
-3.51335e-07
-6.04353e-07
-1.04684e-06
-1.838e-06
-3.27977e-06
-5.97356e-06
-1.12587e-05
-2.14934e-05
-4.22808e-05
-8.57295e-05
-0.000179059
-0.00038261
-0.000812292
-0.00156567
-0.00174983
0.00161306
0.00218644
0.00109136
0.000383558
0.000106481
2.45872e-05
4.90683e-06
7.8325e-07
1.02872e-07
1.16797e-08
1.26534e-09
1.31743e-10
1.33957e-11
1.42969e-12
1.72956e-13
2.58234e-14
5.09224e-15
1.32045e-15
4.06506e-16
1.3273e-16
4.3092e-17
1.35907e-17
4.13775e-18
1.22095e-18
3.50853e-19
9.86683e-20
2.72025e-20
7.36644e-21
1.97655e-21
5.19813e-22
1.34807e-22
3.37944e-23
8.4167e-24
1.87683e-24
4.18718e-25
-3.86221e-27
1.38478e-21
5.84097e-20
4.98233e-19
2.75242e-18
1.23488e-17
4.90303e-17
1.79221e-16
6.14256e-16
1.98713e-15
6.06714e-15
1.74469e-14
4.72905e-14
1.21335e-13
2.95916e-13
6.86623e-13
1.51609e-12
3.1849e-12
6.31419e-12
1.14403e-11
1.92267e-11
2.90069e-11
3.87246e-11
4.50595e-11
4.54264e-11
4.02809e-11
3.26142e-11
2.55486e-11
2.04335e-11
1.65973e-11
8.82938e-12
-1.33783e-11
-5.06872e-11
-7.16976e-11
-5.68406e-11
-5.31838e-11
-7.83536e-11
-1.37446e-10
-2.68228e-10
-5.24347e-10
-1.01068e-09
-1.92684e-09
-3.6112e-09
-6.63092e-09
-1.211e-08
-2.18161e-08
-3.88493e-08
-6.79327e-08
-1.1801e-07
-2.03758e-07
-3.50451e-07
-6.02823e-07
-1.04415e-06
-1.83328e-06
-3.2712e-06
-5.95769e-06
-1.12291e-05
-2.1435e-05
-4.21615e-05
-8.54783e-05
-0.000178516
-0.000381429
-0.000809889
-0.00156212
-0.00175612
0.00160251
0.00218933
0.00109471
0.0003851
0.000107003
2.47128e-05
4.93412e-06
7.88085e-07
1.03562e-07
1.17619e-08
1.27429e-09
1.32692e-10
1.34917e-11
1.43958e-12
1.74066e-13
2.59688e-14
5.11588e-15
1.32539e-15
4.07815e-16
1.33119e-16
4.32142e-17
1.36286e-17
4.14943e-18
1.22452e-18
3.51926e-19
9.87951e-20
2.73084e-20
7.41582e-21
1.99677e-21
5.21936e-22
1.32744e-22
3.41534e-23
8.54387e-24
1.80594e-24
2.77997e-25
-2.32959e-26
1.38673e-21
5.84946e-20
4.98959e-19
2.75642e-18
1.23666e-17
4.90999e-17
1.79471e-16
6.15087e-16
1.98973e-15
6.07479e-15
1.74681e-14
4.73453e-14
1.21467e-13
2.96211e-13
6.8727e-13
1.51731e-12
3.18693e-12
6.31701e-12
1.1443e-11
1.92284e-11
2.89996e-11
3.87008e-11
4.50152e-11
4.53657e-11
4.02167e-11
3.25571e-11
2.55026e-11
2.03978e-11
1.65663e-11
8.79689e-12
-1.34033e-11
-5.06638e-11
-7.16225e-11
-5.67138e-11
-5.29816e-11
-7.79937e-11
-1.36734e-10
-2.66806e-10
-5.21553e-10
-1.0053e-09
-1.91659e-09
-3.59213e-09
-6.59612e-09
-1.20469e-08
-2.17035e-08
-3.86506e-08
-6.75894e-08
-1.17422e-07
-2.02756e-07
-3.48749e-07
-5.99906e-07
-1.03909e-06
-1.82436e-06
-3.25485e-06
-5.92694e-06
-1.11695e-05
-2.13167e-05
-4.19204e-05
-8.49725e-05
-0.000177426
-0.000379062
-0.000805082
-0.00155505
-0.00176897
0.0015808
0.00219554
0.00110177
0.000388333
0.000108088
2.49738e-05
4.99075e-06
7.98164e-07
1.05015e-07
1.1935e-08
1.29306e-09
1.34692e-10
1.36942e-11
1.46045e-12
1.76409e-13
2.62756e-14
5.16564e-15
1.33581e-15
4.10562e-16
1.33944e-16
4.34731e-17
1.37099e-17
4.17352e-18
1.232e-18
3.53757e-19
9.95105e-20
2.74741e-20
7.46324e-21
1.98308e-21
5.24249e-22
1.34277e-22
3.42694e-23
8.79769e-24
1.56596e-24
2.31061e-25
5.26485e-28
1.38977e-21
5.86267e-20
5.00091e-19
2.76265e-18
1.23943e-17
4.92086e-17
1.7986e-16
6.16386e-16
1.9938e-15
6.08675e-15
1.75012e-14
4.74308e-14
1.21672e-13
2.96669e-13
6.8827e-13
1.51918e-12
3.19013e-12
6.32154e-12
1.14474e-11
1.92316e-11
2.89892e-11
3.86651e-11
4.49482e-11
4.52741e-11
4.01191e-11
3.24699e-11
2.54332e-11
2.03439e-11
1.65191e-11
8.74626e-12
-1.34428e-11
-5.06276e-11
-7.13462e-11
-5.65285e-11
-5.26834e-11
-7.74598e-11
-1.35679e-10
-2.64699e-10
-5.17412e-10
-9.97306e-10
-1.90134e-09
-3.56353e-09
-6.54387e-09
-1.19517e-08
-2.15326e-08
-3.8348e-08
-6.70655e-08
-1.16527e-07
-2.01246e-07
-3.46229e-07
-5.95751e-07
-1.03212e-06
-1.81132e-06
-3.23076e-06
-5.88143e-06
-1.10807e-05
-2.11373e-05
-4.15541e-05
-8.42011e-05
-0.000175758
-0.000375438
-0.000797722
-0.00154426
-0.00178805
0.00154732
0.00220495
0.00111423
0.000393338
0.00010979
2.53863e-05
5.08088e-06
8.14276e-07
1.07309e-07
1.22065e-08
1.32258e-09
1.37824e-10
1.40104e-11
1.49296e-12
1.80055e-13
2.67516e-14
5.24244e-15
1.35179e-15
4.14751e-16
1.35208e-16
4.38692e-17
1.38327e-17
4.21092e-18
1.24252e-18
3.57188e-19
1.00387e-19
2.76731e-20
7.49267e-21
2.01615e-21
5.22523e-22
1.37707e-22
3.30438e-23
8.45698e-24
1.88719e-24
1.86175e-25
1.7036e-26
1.39401e-21
5.88112e-20
5.01671e-19
2.77136e-18
1.24331e-17
4.93606e-17