/*--------------------------------*- C++ -*----------------------------------*\
  =========                 |
  \\      /  F ield         | OpenFOAM: The Open Source CFD Toolbox
   \\    /   O peration     | Website:  https://openfoam.org
    \\  /    A nd           | Version:  10
     \\/     M anipulation  |
\*---------------------------------------------------------------------------*/
FoamFile
{
    format      ascii;
    class       volScalarField;
    location    "1";
    object      RR.NH2OH;
}
// * * * * * * * * * * * * * * * * * * * * * * * * * * * * * * * * * * * * * //

dimensions      [1 -3 -1 0 0 0 0];

internalField   nonuniform List<scalar> 
4000
(
-8.73432e-19
-1.27305e-17
-5.57403e-17
-1.79493e-16
-5.02211e-16
-1.3006e-15
-3.21355e-15
-7.69844e-15
-1.804e-14
-4.15574e-14
-9.4459e-14
-2.12868e-13
-4.78282e-13
-1.07631e-12
-2.43037e-12
-5.48482e-12
-1.24226e-11
-2.81741e-11
-6.22145e-11
-1.41778e-10
-3.18394e-10
-7.24585e-10
-1.67841e-09
-3.73039e-09
-7.98261e-09
-1.627e-08
-3.15845e-08
-5.85627e-08
-1.02718e-07
-1.71949e-07
-2.71274e-07
-3.9823e-07
-5.15928e-07
-3.78298e-07
-2.34199e-07
9.79158e-08
6.05619e-07
1.10784e-06
1.50605e-06
1.48341e-06
9.65069e-07
2.20792e-07
-3.2544e-07
-4.70169e-07
-2.44963e-07
2.52008e-07
9.59623e-07
1.89865e-06
3.14497e-06
4.72516e-06
6.17982e-06
3.80233e-06
-8.24553e-06
-4.64588e-06
-2.62516e-06
-1.50291e-06
-9.04751e-07
-6.5907e-07
-6.96441e-07
-9.53391e-07
-6.55835e-07
7.9519e-07
1.75288e-06
1.52332e-06
-7.43609e-07
-6.24924e-07
-1.90689e-07
-5.20462e-08
-1.1812e-08
-2.26891e-09
-3.96806e-10
-6.13572e-11
-8.51308e-12
-1.03224e-12
-1.10436e-13
-1.00378e-14
-1.89014e-16
2.74274e-16
1.24716e-16
4.3984e-17
1.43968e-17
4.5354e-18
1.391e-18
4.17718e-19
1.2278e-19
3.55086e-20
1.01215e-20
2.84594e-21
7.91122e-22
2.17932e-22
5.92182e-23
1.59352e-23
4.24589e-24
1.11878e-24
2.89359e-25
7.29403e-26
1.75014e-26
3.75221e-27
6.17797e-28
3.33567e-29
-8.64007e-19
-1.2592e-17
-5.51299e-17
-1.77535e-16
-4.96749e-16
-1.28619e-15
-3.17693e-15
-7.60642e-15
-1.78079e-14
-4.09663e-14
-9.29411e-14
-2.0897e-13
-4.68068e-13
-1.05018e-12
-2.36548e-12
-5.32692e-12
-1.20171e-11
-2.71414e-11
-5.9822e-11
-1.36501e-10
-3.06143e-10
-6.9348e-10
-1.60356e-09
-3.57807e-09
-7.6814e-09
-1.57265e-08
-3.0643e-08
-5.71899e-08
-1.0071e-07
-1.69312e-07
-2.68255e-07
-3.95348e-07
-5.16476e-07
-3.83756e-07
-2.44167e-07
8.49396e-08
5.93796e-07
1.11699e-06
1.51518e-06
1.50416e-06
9.90312e-07
2.42561e-07
-3.08822e-07
-4.53484e-07
-2.23038e-07
2.84213e-07
1.00635e-06
1.96277e-06
3.2288e-06
4.82624e-06
6.23996e-06
3.46913e-06
-8.16551e-06
-4.59949e-06
-2.59836e-06
-1.48834e-06
-9.03335e-07
-6.67781e-07
-7.21724e-07
-9.86958e-07
-6.07213e-07
9.15235e-07
1.80831e-06
1.51345e-06
-9.22199e-07
-5.85487e-07
-1.77129e-07
-4.78957e-08
-1.0718e-08
-2.03194e-09
-3.51827e-10
-5.42071e-11
-7.46608e-12
-8.9383e-13
-9.46699e-14
-8.23606e-15
3.40591e-18
2.97499e-16
1.29083e-16
4.52988e-17
1.48725e-17
4.70921e-18
1.45394e-18
4.3885e-19
1.30208e-19
3.79159e-20
1.08591e-20
3.059e-21
8.49157e-22
2.32394e-22
6.31738e-23
1.69615e-23
4.50285e-24
1.18102e-24
3.0451e-25
7.65022e-26
1.82097e-26
3.8839e-27
6.53558e-28
3.69417e-29
-8.54951e-19
-1.24611e-17
-5.45648e-17
-1.75744e-16
-4.91832e-16
-1.27381e-15
-3.14569e-15
-7.5261e-15
-1.75971e-14
-4.04016e-14
-9.13939e-14
-2.0462e-13
-4.56769e-13
-1.02157e-12
-2.29389e-12
-5.15215e-12
-1.16118e-11
-2.61151e-11
-5.73386e-11
-1.30421e-10
-2.9186e-10
-6.61909e-10
-1.52028e-09
-3.44729e-09
-7.40003e-09
-1.51879e-08
-2.96715e-08
-5.55932e-08
-9.82399e-08
-1.65904e-07
-2.64132e-07
-3.9164e-07
-5.18369e-07
-3.91455e-07
-2.58198e-07
6.68254e-08
5.75262e-07
1.10532e-06
1.52797e-06
1.53419e-06
1.02721e-06
2.73499e-07
-2.85319e-07
-4.30745e-07
-1.94001e-07
3.24996e-07
1.06239e-06
2.03756e-06
3.32439e-06
4.934e-06
6.27581e-06
2.79934e-06
-8.04657e-06
-4.53159e-06
-2.5602e-06
-1.4698e-06
-8.97323e-07
-6.78778e-07
-7.56368e-07
-1.0273e-06
-5.24535e-07
1.06716e-06
1.851e-06
1.46309e-06
-1.07739e-06
-5.42166e-07
-1.61929e-07
-4.32254e-08
-9.50003e-09
-1.77468e-09
-3.04336e-10
-4.66118e-11
-6.37091e-12
-7.58555e-13
-7.95491e-14
-6.55375e-15
1.75931e-16
3.15861e-16
1.31881e-16
4.60686e-17
1.51693e-17
4.8244e-18
1.49554e-18
4.53366e-19
1.34692e-19
3.92842e-20
1.12772e-20
3.18554e-21
8.87012e-22
2.43687e-22
6.61288e-23
1.77588e-23
4.71699e-24
1.23643e-24
3.18111e-25
7.97614e-26
1.89742e-26
4.07734e-27
6.76776e-28
3.65929e-29
-8.42446e-19
-1.22775e-17
-5.37487e-17
-1.73048e-16
-4.84001e-16
-1.25242e-15
-3.08991e-15
-7.38464e-15
-1.7245e-14
-3.95382e-14
-8.93143e-14
-1.99737e-13
-4.45003e-13
-9.92908e-13
-2.22395e-12
-4.9831e-12
-1.12046e-11
-2.52144e-11
-5.53411e-11
-1.25314e-10
-2.79743e-10
-6.32983e-10
-1.45225e-09
-3.30733e-09
-7.13373e-09
-1.46961e-08
-2.87708e-08
-5.41119e-08
-9.59605e-08
-1.62826e-07
-2.60507e-07
-3.8855e-07
-5.19904e-07
-3.99015e-07
-2.72363e-07
4.83153e-08
5.54743e-07
1.09553e-06
1.54443e-06
1.56907e-06
1.06807e-06
3.09174e-07
-2.55891e-07
-3.99885e-07
-1.51376e-07
3.87447e-07
1.15111e-06
2.15935e-06
3.47549e-06
5.10107e-06
6.32594e-06
2.03217e-06
-7.91155e-06
-4.45065e-06
-2.5131e-06
-1.44545e-06
-8.92183e-07
-6.94179e-07
-8.02138e-07
-1.07093e-06
-4.08611e-07
1.2481e-06
1.88106e-06
1.3747e-06
-1.17979e-06
-5.00495e-07
-1.47265e-07
-3.85616e-08
-8.32501e-09
-1.52743e-09
-2.59416e-10
-3.95584e-11
-5.32515e-12
-6.23663e-13
-6.39575e-14
-4.79591e-15
3.38827e-16
3.25265e-16
1.31151e-16
4.57325e-17
1.51143e-17
4.82615e-18
1.50272e-18
4.57452e-19
1.36391e-19
3.99008e-20
1.14832e-20
3.2488e-21
9.05741e-22
2.4915e-22
6.77145e-23
1.81878e-23
4.82727e-24
1.26428e-24
3.25648e-25
8.13822e-26
1.93815e-26
4.17774e-27
6.98132e-28
3.61117e-29
-8.30239e-19
-1.20995e-17
-5.29674e-17
-1.70516e-16
-4.76836e-16
-1.23354e-15
-3.04217e-15
-7.26675e-15
-1.69578e-14
-3.88433e-14
-8.76368e-14
-1.9569e-13
-4.35239e-13
-9.69356e-13
-2.16721e-12
-4.84778e-12
-1.08825e-11
-2.44497e-11
-5.35543e-11
-1.21093e-10
-2.70162e-10
-6.10795e-10
-1.39764e-09
-3.19217e-09
-6.89615e-09
-1.42224e-08
-2.79509e-08
-5.27783e-08
-9.39642e-08
-1.60075e-07
-2.57475e-07
-3.86068e-07
-5.21409e-07
-4.11644e-07
-2.85278e-07
3.1637e-08
5.36413e-07
1.09321e-06
1.56201e-06
1.60289e-06
1.10724e-06
3.42617e-07
-2.27744e-07
-3.68726e-07
-1.07333e-07
4.51641e-07
1.23867e-06
2.27894e-06
3.62993e-06
5.27437e-06
6.38415e-06
9.73597e-07
-7.71133e-06
-4.33865e-06
-2.45091e-06
-1.41367e-06
-8.83954e-07
-7.08495e-07
-8.46087e-07
-1.09936e-06
-2.81728e-07
1.39719e-06
1.87909e-06
1.26769e-06
-1.22645e-06
-4.65937e-07
-1.35123e-07
-3.47673e-08
-7.34457e-09
-1.32163e-09
-2.22621e-10
-3.34672e-11
-4.43921e-12
-5.12437e-13
-5.13865e-14
-3.42903e-15
4.58335e-16
3.29749e-16
1.29295e-16
4.4865e-17
1.48571e-17
4.76781e-18
1.49093e-18
4.55489e-19
1.36162e-19
3.99429e-20
1.15268e-20
3.26802e-21
9.12644e-22
2.5138e-22
6.8407e-23
1.83832e-23
4.87854e-24
1.27776e-24
3.29356e-25
8.22088e-26
1.95987e-26
4.1806e-27
6.95584e-28
3.50831e-29
-8.18264e-19
-1.19248e-17
-5.21991e-17
-1.68025e-16
-4.69788e-16
-1.21502e-15
-2.9955e-15
-7.15223e-15
-1.66812e-14
-3.81814e-14
-8.60598e-14
-1.91946e-13
-4.26381e-13
-9.48465e-13
-2.11814e-12
-4.734e-12
-1.06204e-11
-2.38526e-11
-5.22346e-11
-1.17877e-10
-2.62825e-10
-5.93594e-10
-1.35337e-09
-3.09512e-09
-6.68981e-09
-1.38484e-08
-2.72904e-08
-5.17021e-08
-9.22946e-08
-1.57893e-07
-2.55078e-07
-3.84195e-07
-5.22643e-07
-4.33704e-07
-2.96379e-07
1.75064e-08
5.21142e-07
1.0923e-06
1.57979e-06
1.63487e-06
1.14254e-06
3.72111e-07
-2.03638e-07
-3.40636e-07
-6.54495e-08
5.15543e-07
1.33334e-06
2.41157e-06
3.80129e-06
5.47542e-06
6.46014e-06
-3.27767e-08
-7.49746e-06
-4.21686e-06
-2.3829e-06
-1.37813e-06
-8.74158e-07
-7.23519e-07
-8.93059e-07
-1.11257e-06
-1.27902e-07
1.54034e-06
1.86182e-06
1.15966e-06
-1.23571e-06
-4.38507e-07
-1.26034e-07
-3.1009e-08
-6.42753e-09
-1.14198e-09
-1.9009e-10
-2.81754e-11
-3.68913e-12
-4.20339e-13
-4.11637e-14
-2.35835e-15
5.40387e-16
3.28203e-16
1.26027e-16
4.3585e-17
1.44191e-17
4.63301e-18
1.4526e-18
4.45453e-19
1.33856e-19
3.94164e-20
1.14107e-20
3.24249e-21
9.07207e-22
2.50246e-22
6.81793e-23
1.83325e-23
4.86977e-24
1.27544e-24
3.28712e-25
8.22544e-26
1.95954e-26
4.20365e-27
6.89855e-28
3.68141e-29
-8.07083e-19
-1.17617e-17
-5.14834e-17
-1.65709e-16
-4.63258e-16
-1.19793e-15
-2.95268e-15
-7.04785e-15
-1.6431e-14
-3.75872e-14
-8.46552e-14
-1.88636e-13
-4.18606e-13
-9.30246e-13
-2.07555e-12
-4.63553e-12
-1.03932e-11
-2.33307e-11
-5.10576e-11
-1.1494e-10
-2.56047e-10
-5.78772e-10
-1.31581e-09
-3.01055e-09
-6.52626e-09
-1.3549e-08
-2.67729e-08
-5.08822e-08
-9.10629e-08
-1.56296e-07
-2.53394e-07
-3.83072e-07
-5.24058e-07
-4.50775e-07
-3.05609e-07
6.32897e-09
5.09654e-07
1.10004e-06
1.59667e-06
1.66272e-06
1.17259e-06
3.96373e-07
-1.82656e-07
-3.14802e-07
-2.64884e-08
5.74041e-07
1.41761e-06
2.53297e-06
3.97051e-06
5.66792e-06
6.53971e-06
-1.34115e-06
-7.22852e-06
-4.06634e-06
-2.30342e-06
-1.32908e-06
-8.58031e-07
-7.3517e-07
-9.35011e-07
-1.11309e-06
-8.01251e-09
1.64334e-06
1.83509e-06
1.05885e-06
-1.22594e-06
-4.14655e-07
-1.17674e-07
-2.84011e-08
-5.78929e-09
-1.01294e-09
-1.67475e-10
-2.45449e-11
-3.18091e-12
-3.58416e-13
-3.43652e-14
-1.67361e-15
5.82633e-16
3.22644e-16
1.22291e-16
4.22174e-17
1.3977e-17
4.49761e-18
1.41239e-18
4.33688e-19
1.30402e-19
3.84474e-20
1.1148e-20
3.17299e-21
8.89212e-22
2.45687e-22
6.70516e-23
1.80576e-23
4.80569e-24
1.2605e-24
3.25231e-25
8.15347e-26
1.93573e-26
4.15744e-27
6.99894e-28
3.51858e-29
-7.96866e-19
-1.16127e-17
-5.08297e-17
-1.63595e-16
-4.57306e-16
-1.18238e-15
-2.91387e-15
-6.95363e-15
-1.62064e-14
-3.70571e-14
-8.34106e-14
-1.85725e-13
-4.11818e-13
-9.14456e-13
-2.03889e-12
-4.55127e-12
-1.02e-11
-2.28898e-11
-5.00726e-11
-1.1246e-10
-2.50623e-10
-5.66021e-10
-1.28635e-09
-2.94942e-09
-6.4055e-09
-1.33164e-08
-2.63646e-08
-5.02244e-08
-9.01345e-08
-1.55152e-07
-2.52243e-07
-3.82491e-07
-5.25872e-07
-4.6412e-07
-3.1334e-07
-2.82065e-09
5.01086e-07
1.09851e-06
1.61227e-06
1.68639e-06
1.19545e-06
4.1422e-07
-1.65885e-07
-2.91444e-07
1.08198e-08
6.31253e-07
1.50067e-06
2.65004e-06
4.12992e-06
5.86254e-06
6.63941e-06
-2.62329e-06
-6.94939e-06
-3.91032e-06
-2.21433e-06
-1.28843e-06
-8.44053e-07
-7.45267e-07
-9.70726e-07
-1.10576e-06
1.26019e-07
1.74332e-06
1.80923e-06
9.82031e-07
-1.19495e-06
-3.89175e-07
-1.09043e-07
-2.56973e-08
-5.16359e-09
-8.94197e-10
-1.47283e-10
-2.14257e-11
-2.75043e-12
-3.06531e-13
-2.87333e-14
-1.12561e-15
6.09799e-16
3.15269e-16
1.18244e-16
4.07631e-17
1.35049e-17
4.35163e-18
1.36871e-18
4.20962e-19
1.26781e-19
3.74457e-20
1.08574e-20
3.09498e-21
8.68508e-22
2.40223e-22
6.56371e-23
1.76903e-23
4.70934e-24
1.23575e-24
3.18847e-25
7.99791e-26
1.89992e-26
4.11235e-27
6.80294e-28
3.76224e-29
-7.8779e-19
-1.14804e-17
-5.02498e-17
-1.61723e-16
-4.52045e-16
-1.16868e-15
-2.87977e-15
-6.87121e-15
-1.60108e-14
-3.6598e-14
-8.2339e-14
-1.83233e-13
-4.06042e-13
-9.01105e-13
-2.00813e-12
-4.48124e-12
-1.00416e-11
-2.25358e-11
-4.93139e-11
-1.10541e-10
-2.46238e-10
-5.56232e-10
-1.26347e-09
-2.8982e-09
-6.30171e-09
-1.31309e-08
-2.60531e-08
-4.97438e-08
-8.94588e-08
-1.54328e-07
-2.51488e-07
-3.82348e-07
-5.27699e-07
-4.74588e-07
-3.19917e-07
-9.99548e-09
4.94745e-07
1.09991e-06
1.62661e-06
1.70713e-06
1.21549e-06
4.29564e-07
-1.50663e-07
-2.70312e-07
4.4662e-08
6.83214e-07
1.57753e-06
2.76331e-06
4.29079e-06
6.07161e-06
6.75516e-06
-3.6908e-06
-6.67005e-06
-3.75574e-06
-2.13357e-06
-1.23819e-06
-8.24877e-07
-7.51837e-07
-1.0001e-06
-1.08477e-06
2.55166e-07
1.83404e-06
1.84385e-06
6.07891e-07
-1.11508e-06
-3.54819e-07
-9.85617e-08
-2.2953e-08
-4.55855e-09
-7.79125e-10
-1.27522e-10
-1.83942e-11
-2.34118e-12
-2.58365e-13
-2.36028e-14
-6.40425e-16
6.31299e-16
3.07872e-16
1.14386e-16
3.93812e-17
1.30547e-17
4.21132e-18
1.32626e-18
4.08428e-19
1.23159e-19
3.64271e-20
1.05733e-20
3.01699e-21
8.4738e-22
2.34582e-22
6.41442e-23
1.72969e-23
4.60677e-24
1.20938e-24
3.12228e-25
7.8185e-26
1.86851e-26
4.01889e-27
6.56731e-28
3.45964e-29
-7.79889e-19
-1.13653e-17
-4.97455e-17
-1.60096e-16
-4.47483e-16
-1.15682e-15
-2.85034e-15
-6.80032e-15
-1.58433e-14
-3.62066e-14
-8.14296e-14
-1.81126e-13
-4.01172e-13
-8.89845e-13
-1.98207e-12
-4.42149e-12
-9.90423e-12
-2.22222e-11
-4.86062e-11
-1.08749e-10
-2.42345e-10
-5.47365e-10
-1.24422e-09
-2.85974e-09
-6.22666e-09
-1.2992e-08
-2.58197e-08
-4.9395e-08
-8.89688e-08
-1.53739e-07
-2.5106e-07
-3.8252e-07
-5.30176e-07
-4.82886e-07
-3.25298e-07
-1.56719e-08
4.89994e-07
1.11036e-06
1.63894e-06
1.72386e-06
1.23068e-06
4.4092e-07
-1.38371e-07
-2.52247e-07
7.3095e-08
7.26453e-07
1.63756e-06
2.84288e-06
4.39339e-06
6.19961e-06
6.82096e-06
-5.18614e-06
-6.38269e-06
-3.59827e-06
-2.04825e-06
-1.19562e-06
-8.08635e-07
-7.5731e-07
-1.02384e-06
-1.06129e-06
3.79087e-07
1.93224e-06
1.89406e-06
2.20821e-07
-1.01842e-06
-3.20671e-07
-8.8704e-08
-2.05604e-08
-4.05253e-09
-6.91243e-10
-1.1283e-10
-1.61747e-11
-2.0459e-12
-2.23999e-13
-1.99868e-14
-3.1293e-16
6.40272e-16
3.00392e-16
1.1086e-16
3.81311e-17
1.26453e-17
4.08246e-18
1.28685e-18
3.96662e-19
1.19721e-19
3.54497e-20
1.02983e-20
2.94087e-21
8.26607e-22
2.28982e-22
6.26497e-23
1.6903e-23
4.5035e-24
1.18282e-24
3.05313e-25
7.65456e-26
1.82441e-26
3.90799e-27
6.39586e-28
3.51745e-29
-7.73136e-19
-1.12669e-17
-4.93149e-17
-1.58709e-16
-4.43596e-16
-1.14674e-15
-2.82539e-15
-6.7404e-15
-1.57024e-14
-3.58796e-14
-8.06768e-14
-1.79402e-13
-3.97233e-13
-8.8086e-13
-1.9612e-12
-4.37464e-12
-9.80055e-12
-2.19949e-11
-4.81023e-11
-1.07454e-10
-2.39463e-10
-5.40774e-10
-1.22963e-09
-2.82798e-09
-6.166e-09
-1.28839e-08
-2.56422e-08
-4.91298e-08
-8.86172e-08
-1.53354e-07
-2.5085e-07
-3.82875e-07
-5.31306e-07
-4.89273e-07
-3.296e-07
-1.99496e-08
4.86753e-07
1.11472e-06
1.6492e-06
1.7371e-06
1.24245e-06
4.50092e-07
-1.27316e-07
-2.36055e-07
9.94705e-08
7.65419e-07
1.69117e-06
2.91593e-06
4.4883e-06
6.31516e-06
6.8541e-06
-6.37571e-06
-6.15083e-06
-3.46602e-06
-1.9717e-06
-1.16229e-06
-7.96521e-07
-7.64489e-07
-1.04782e-06
-1.04092e-06
4.77471e-07
1.9996e-06
1.93421e-06
-1.1113e-07
-9.44542e-07
-2.93887e-07
-8.11049e-08
-1.86485e-08
-3.65245e-09
-6.22558e-10
-1.01698e-10
-1.45142e-11
-1.82692e-12
-1.98733e-13
-1.73569e-14
-8.38667e-17
6.42788e-16
2.93461e-16
1.07743e-16
3.70315e-17
1.22834e-17
3.96773e-18
1.25146e-18
3.86007e-19
1.16583e-19
3.45464e-20
1.00423e-20
2.86955e-21
8.07057e-22
2.23705e-22
6.1195e-23
1.65188e-23
4.40237e-24
1.1579e-24
2.98671e-25
7.4963e-26
1.78914e-26
3.85817e-27
6.3929e-28
3.31393e-29
-7.67447e-19
-1.11841e-17
-4.89525e-17
-1.57543e-16
-4.40334e-16
-1.1383e-15
-2.80454e-15
-6.69052e-15
-1.55855e-14
-3.56098e-14
-8.00591e-14
-1.77995e-13
-3.94039e-13
-8.73613e-13
-1.94439e-12
-4.33739e-12
-9.71671e-12
-2.18008e-11
-4.76662e-11
-1.06378e-10
-2.37034e-10
-5.35506e-10
-1.21829e-09
-2.80432e-09
-6.11972e-09
-1.28016e-08
-2.55076e-08
-4.89363e-08
-8.83716e-08
-1.53107e-07
-2.50786e-07
-3.8331e-07
-5.32875e-07
-4.94111e-07
-3.33022e-07
-2.31751e-08
4.84511e-07
1.1187e-06
1.6574e-06
1.74674e-06
1.2504e-06
4.56775e-07
-1.17031e-07
-2.22619e-07
1.23096e-07
8.03163e-07
1.74895e-06
3.0034e-06
4.61631e-06
6.47837e-06
6.91869e-06
-7.07412e-06
-5.93928e-06
-3.3486e-06
-1.90864e-06
-1.12855e-06
-7.8391e-07
-7.69571e-07
-1.06558e-06
-1.0103e-06
5.84993e-07
2.07622e-06
1.96833e-06
-3.48855e-07
-8.88034e-07
-2.74518e-07
-7.53861e-08
-1.72285e-08
-3.35511e-09
-5.73434e-10
-9.36865e-11
-1.33569e-11
-1.67351e-12
-1.80982e-13
-1.55192e-14
6.90256e-17
6.40856e-16
2.87148e-16
1.05043e-16
3.60807e-17
1.19689e-17
3.86732e-18
1.22027e-18
3.76552e-19
1.1378e-19
3.37334e-20
9.81057e-21
2.80462e-21
7.89151e-22
2.18858e-22
5.98722e-23
1.61669e-23
4.31153e-24
1.13363e-24
2.92746e-25
7.3311e-26
1.7557e-26
3.73265e-27
6.13266e-28
3.00734e-29
-7.62713e-19
-1.11151e-17
-4.86511e-17
-1.56573e-16
-4.37627e-16
-1.1313e-15
-2.7873e-15
-6.64936e-15
-1.54894e-14
-3.53884e-14
-7.95546e-14
-1.76854e-13
-3.91472e-13
-8.67875e-13
-1.93136e-12
-4.30841e-12
-9.65026e-12
-2.16522e-11
-4.73429e-11
-1.05554e-10
-2.35222e-10
-5.315e-10
-1.20931e-09
-2.78515e-09
-6.08195e-09
-1.27344e-08
-2.54017e-08
-4.87887e-08
-8.81992e-08
-1.52959e-07
-2.50828e-07
-3.83811e-07
-5.34488e-07
-4.97787e-07
-3.35777e-07
-2.56047e-08
4.83035e-07
1.12274e-06
1.66492e-06
1.75526e-06
1.25694e-06
4.614e-07
-1.11214e-07
-2.13847e-07
1.36544e-07
8.21401e-07
1.77201e-06
3.03076e-06
4.64834e-06
6.51032e-06
6.8927e-06
-8.00411e-06
-5.75449e-06
-3.24676e-06
-1.85446e-06
-1.09823e-06
-7.72608e-07
-7.73991e-07
-1.08103e-06
-9.88911e-07
6.55321e-07
2.11366e-06
1.9783e-06
-5.2162e-07
-8.46435e-07
-2.59938e-07
-7.10981e-08
-1.61576e-08
-3.12877e-09
-5.35843e-10
-8.73358e-11
-1.24045e-11
-1.5491e-12
-1.66689e-13
-1.40486e-14
1.88909e-16
6.38269e-16
2.81701e-16
1.0274e-16
3.52679e-17
1.16989e-17
3.78066e-18
1.19321e-18
3.68305e-19
1.11323e-19
3.3017e-20
9.60552e-21
2.74688e-21
7.7317e-22
2.14492e-22
5.86962e-23
1.58561e-23
4.22936e-24
1.11173e-24
2.87063e-25
7.20058e-26
1.71943e-26
3.70318e-27
6.07369e-28
3.04537e-29
-7.5882e-19
-1.10585e-17
-4.84033e-17
-1.55777e-16
-4.35401e-16
-1.12554e-15
-2.77311e-15
-6.61546e-15
-1.541e-14
-3.52053e-14
-7.91348e-14
-1.75896e-13
-3.89295e-13
-8.62932e-13
-1.91987e-12
-4.28189e-12
-9.59161e-12
-2.15244e-11
-4.70756e-11
-1.04886e-10
-2.33809e-10
-5.28334e-10
-1.20242e-09
-2.77074e-09
-6.05491e-09
-1.26872e-08
-2.53285e-08
-4.86908e-08
-8.80931e-08
-1.52894e-07
-2.50955e-07
-3.84422e-07
-5.35678e-07
-5.0063e-07
-3.37956e-07
-2.73959e-08
4.82174e-07
1.12655e-06
1.67145e-06
1.76236e-06
1.26237e-06
4.65903e-07
-1.04277e-07
-2.01848e-07
1.54967e-07
8.47811e-07
1.80892e-06
3.08105e-06
4.71505e-06
6.58507e-06
6.89104e-06
-8.4784e-06
-5.60648e-06
-3.16552e-06
-1.81039e-06
-1.07607e-06
-7.64815e-07
-7.78543e-07
-1.09422e-06
-9.71761e-07
7.07137e-07
2.13332e-06
1.9751e-06
-6.51148e-07
-8.15046e-07
-2.48898e-07
-6.77918e-08
-1.5352e-08
-2.96018e-09
-5.07743e-10
-8.26664e-11
-1.17107e-11
-1.4579e-12
-1.56174e-13
-1.29706e-14
2.73404e-16
6.34615e-16
2.77007e-16
1.00795e-16
3.45824e-17
1.14704e-17
3.70704e-18
1.17013e-18
3.61239e-19
1.09209e-19
3.23983e-20
9.42766e-21
2.6967e-21
7.59232e-22
2.10688e-22
5.76678e-23
1.55807e-23
4.15682e-24
1.09336e-24
2.8239e-25
7.08159e-26
1.69082e-26
3.61774e-27
6.05137e-28
3.24327e-29
-7.55677e-19
-1.10127e-17
-4.82033e-17
-1.55134e-16
-4.33605e-16
-1.12091e-15
-2.76169e-15
-6.58818e-15
-1.53462e-14
-3.50578e-14
-7.87967e-14
-1.75124e-13
-3.87539e-13
-8.5894e-13
-1.91056e-12
-4.26188e-12
-9.54844e-12
-2.14301e-11
-4.6871e-11
-1.04364e-10
-2.32639e-10
-5.2578e-10
-1.19685e-09
-2.75945e-09
-6.03372e-09
-1.26522e-08
-2.52761e-08
-4.86249e-08
-8.80289e-08
-1.52875e-07
-2.51094e-07
-3.84849e-07
-5.36954e-07
-5.02749e-07
-3.39641e-07
-2.86592e-08
4.81735e-07
1.12988e-06
1.67686e-06
1.76805e-06
1.26651e-06
4.69075e-07
-9.95024e-08
-1.92986e-07
1.68835e-07
8.67703e-07
1.83638e-06
3.11769e-06
4.7615e-06
6.63133e-06
6.8535e-06
-8.77314e-06
-5.51864e-06
-3.11584e-06
-1.78303e-06
-1.0629e-06
-7.6094e-07
-7.83547e-07
-1.10441e-06
-9.49855e-07
7.65099e-07
2.16178e-06
1.9738e-06
-7.46227e-07
-7.9062e-07
-2.40495e-07
-6.53373e-08
-1.47394e-08
-2.83232e-09
-4.86308e-10
-7.91239e-11
-1.11831e-11
-1.38838e-12
-1.48151e-13
-1.21503e-14
3.36009e-16
6.30937e-16
2.73068e-16
9.91785e-17
3.40118e-17
1.12797e-17
3.64542e-18
1.15074e-18
3.5529e-19
1.07423e-19
3.18744e-20
9.2767e-21
2.65401e-21
7.47357e-22
2.07431e-22
5.67834e-23
1.5344e-23
4.0955e-24
1.0764e-24
2.78142e-25
6.99251e-26
1.6602e-26
3.60238e-27
5.84689e-28
3.3824e-29
-7.53206e-19
-1.09768e-17
-4.80461e-17
-1.54629e-16
-4.32197e-16
-1.11727e-15
-2.75276e-15
-6.56688e-15
-1.52965e-14
-3.49432e-14
-7.85348e-14
-1.7453e-13
-3.86203e-13
-8.55958e-13
-1.90371e-12
-4.24681e-12
-9.51455e-12
-2.13548e-11
-4.6707e-11
-1.03953e-10
-2.31788e-10
-5.23924e-10
-1.19289e-09
-2.75126e-09
-6.01857e-09
-1.26272e-08
-2.52394e-08
-4.8581e-08
-8.79942e-08
-1.52889e-07
-2.51255e-07
-3.8529e-07
-5.37765e-07
-5.04373e-07
-3.41005e-07
-2.96061e-08
4.8159e-07
1.13289e-06
1.68148e-06
1.7725e-06
1.26935e-06
4.71099e-07
-9.55054e-08
-1.84913e-07
1.81909e-07
8.87909e-07
1.86664e-06
3.16174e-06
4.82177e-06
6.69553e-06
6.81031e-06
-8.89124e-06
-5.48177e-06
-3.09238e-06
-1.76909e-06
-1.05631e-06
-7.60037e-07
-7.89104e-07
-1.11366e-06
-9.29671e-07
8.18867e-07
2.19199e-06
1.97546e-06
-8.15738e-07
-7.71794e-07
-2.34012e-07
-6.34072e-08
-1.42583e-08
-2.7304e-09
-4.69294e-10
-7.62924e-11
-1.0762e-11
-1.33301e-12
-1.41774e-13
-1.14998e-14
3.85155e-16
6.27808e-16
2.69861e-16
9.78632e-17
3.35467e-17
1.11239e-17
3.59492e-18
1.13482e-18
3.5039e-19
1.0595e-19
3.14412e-20
9.15173e-21
2.61855e-21
7.37469e-22
2.04726e-22
5.605e-23
1.51498e-23
4.04365e-24
1.06375e-24
2.74554e-25
6.90095e-26
1.64179e-26
3.5171e-27
5.76134e-28
3.23937e-29
-7.51336e-19
-1.09495e-17
-4.79273e-17
-1.54247e-16
-4.31135e-16
-1.11454e-15
-2.74605e-15
-6.55099e-15
-1.52597e-14
-3.48594e-14
-7.83453e-14
-1.74104e-13
-3.85248e-13
-8.53795e-13
-1.8986e-12
-4.23521e-12
-9.48841e-12
-2.12973e-11
-4.65845e-11
-1.03642e-10
-2.31111e-10
-5.2245e-10
-1.18978e-09
-2.74504e-09
-6.00723e-09
-1.26085e-08
-2.5213e-08
-4.85521e-08
-8.79777e-08
-1.52919e-07
-2.51411e-07
-3.8569e-07
-5.38575e-07
-5.0555e-07
-3.42026e-07
-3.02349e-08
4.81602e-07
1.13532e-06
1.68503e-06
1.77576e-06
1.27115e-06
4.71998e-07
-9.36321e-08
-1.809e-07
1.87864e-07
8.95826e-07
1.87574e-06
3.17057e-06
4.82737e-06
6.68964e-06
6.7567e-06
-9.05919e-06
-5.43653e-06
-3.0687e-06
-1.75633e-06
-1.05191e-06
-7.60039e-07
-7.94207e-07
-1.12198e-06
-9.16446e-07
8.57954e-07
2.21484e-06
1.97722e-06
-8.66451e-07
-7.57937e-07
-2.29211e-07
-6.20162e-08
-1.39008e-08
-2.65502e-09
-4.56754e-10
-7.41866e-11
-1.04491e-11
-1.29188e-12
-1.37039e-13
-1.10182e-14
4.208e-16
6.25107e-16
2.67325e-16
9.68271e-17
3.31796e-17
1.10006e-17
3.55486e-18
1.12216e-18
3.46489e-19
1.04776e-19
3.10954e-20
9.05185e-21
2.59026e-21
7.2957e-22
2.02562e-22
5.54681e-23
1.49937e-23
4.00222e-24
1.05246e-24
2.7184e-25
6.82612e-26
1.6258e-26
3.51134e-27
5.90709e-28
3.13997e-29
-7.50007e-19
-1.09302e-17
-4.78431e-17
-1.53978e-16
-4.30388e-16
-1.11263e-15
-2.7414e-15
-6.54002e-15
-1.52343e-14
-3.48006e-14
-7.82096e-14
-1.73791e-13
-3.84523e-13
-8.52142e-13
-1.89477e-12
-4.22696e-12
-9.47043e-12
-2.12582e-11
-4.65008e-11
-1.03429e-10
-2.30655e-10
-5.21463e-10
-1.18768e-09
-2.74083e-09
-5.99964e-09
-1.25964e-08
-2.51963e-08
-4.85352e-08
-8.79721e-08
-1.52951e-07
-2.51541e-07
-3.86007e-07
-5.39363e-07
-5.06349e-07
-3.42728e-07
-3.06251e-08
4.817e-07
1.13712e-06
1.68759e-06
1.77804e-06
1.27232e-06
4.72589e-07
-9.2084e-08
-1.77148e-07
1.94709e-07
9.06435e-07
1.89105e-06
3.19098e-06
4.85131e-06
6.70711e-06
6.70062e-06
-9.11832e-06
-5.42953e-06
-3.06274e-06
-1.75286e-06
-1.0494e-06
-7.60591e-07
-7.98668e-07
-1.1294e-06
-9.0922e-07
8.83723e-07
2.23005e-06
1.97789e-06
-9.02695e-07
-7.48265e-07
-2.25824e-07
-6.09212e-08
-1.36486e-08
-2.60185e-09
-4.47874e-10
-7.27056e-11
-1.02286e-11
-1.26281e-12
-1.33689e-13
-1.06776e-14
4.45615e-16
6.23015e-16
2.6548e-16
9.60812e-17
3.29165e-17
1.09122e-17
3.52612e-18
1.11306e-18
3.43675e-19
1.03925e-19
3.0844e-20
8.97885e-21
2.56946e-21
7.23745e-22
2.00956e-22
5.50268e-23
1.48723e-23
3.96942e-24
1.04468e-24
2.70042e-25
6.77287e-26
1.62447e-26
3.47951e-27
5.69691e-28
3.37733e-29
-7.49157e-19
-1.09179e-17
-4.77891e-17
-1.53805e-16
-4.29905e-16
-1.11138e-15
-2.73831e-15
-6.53258e-15
-1.52167e-14
-3.47598e-14
-7.81158e-14
-1.73578e-13
-3.84048e-13
-8.51087e-13
-1.89234e-12
-4.2216e-12
-9.4588e-12
-2.1233e-11
-4.64484e-11
-1.03296e-10
-2.30373e-10
-5.20852e-10
-1.18639e-09
-2.73823e-09
-5.995e-09
-1.25891e-08
-2.51866e-08
-4.85262e-08
-8.79722e-08
-1.52977e-07
-2.51632e-07
-3.86222e-07
-5.39794e-07
-5.06845e-07
-3.43169e-07
-3.08492e-08
4.818e-07
1.13829e-06
1.68919e-06
1.77947e-06
1.27286e-06
4.72639e-07
-9.15886e-08
-1.75386e-07
1.98085e-07
9.12096e-07
1.89918e-06
3.20163e-06
4.86294e-06
6.71347e-06
6.67102e-06
-9.16934e-06
-5.41364e-06
-3.05368e-06
-1.7479e-06
-1.04754e-06
-7.61146e-07
-8.02001e-07
-1.13528e-06
-9.08404e-07
8.90601e-07
2.22876e-06
1.97236e-06
-9.26675e-07
-7.4214e-07
-2.23642e-07
-6.02705e-08
-1.34852e-08
-2.56733e-09
-4.42142e-10
-7.17462e-11
-1.00857e-11
-1.244e-12
-1.3152e-13
-1.04575e-14
4.61392e-16
6.21523e-16
2.64222e-16
9.55738e-17
3.27379e-17
1.08526e-17
3.50685e-18
1.10699e-18
3.41813e-19
1.03366e-19
3.06794e-20
8.93137e-21
2.556e-21
7.19995e-22
1.99917e-22
5.47468e-23
1.47991e-23
3.94933e-24
1.0391e-24
2.68478e-25
6.75168e-26
1.60281e-26
3.46868e-27
5.68887e-28
3.2808e-29
-7.48731e-19
-1.09117e-17
-4.7762e-17
-1.53718e-16
-4.29661e-16
-1.11075e-15
-2.73677e-15
-6.52892e-15
-1.52082e-14
-3.47403e-14
-7.80715e-14
-1.73478e-13
-3.83822e-13
-8.50583e-13
-1.89117e-12
-4.21905e-12
-9.45323e-12
-2.1221e-11
-4.64232e-11
-1.03232e-10
-2.30236e-10
-5.20556e-10
-1.18576e-09
-2.73698e-09
-5.99278e-09
-1.25856e-08
-2.51822e-08
-4.85226e-08
-8.7974e-08
-1.52994e-07
-2.51684e-07
-3.86341e-07
-5.39827e-07
-5.07096e-07
-3.43388e-07
-3.09532e-08
4.81859e-07
1.13885e-06
1.68994e-06
1.78005e-06
1.27293e-06
4.72264e-07
-9.22125e-08
-1.76152e-07
1.96976e-07
9.09687e-07
1.8942e-06
3.1918e-06
4.84525e-06
6.68746e-06
6.66541e-06
-9.20817e-06
-5.38541e-06
-3.03937e-06
-1.73782e-06
-1.05026e-06
-7.62793e-07
-8.03942e-07
-1.13724e-06
-9.00494e-07
9.13274e-07
2.24672e-06
1.97721e-06
-9.37037e-07
-7.38633e-07
-2.22481e-07
-5.99331e-08
-1.34018e-08
-2.5499e-09
-4.3923e-10
-7.12618e-11
-1.00138e-11
-1.23456e-12
-1.30434e-13
-1.03478e-14
4.68982e-16
6.2059e-16
2.63509e-16
9.52877e-17
3.26371e-17
1.08189e-17
3.49595e-18
1.10357e-18
3.40763e-19
1.03052e-19
3.05876e-20
8.90492e-21
2.54858e-21
7.17919e-22
1.99356e-22
5.45984e-23
1.47606e-23
3.93953e-24
1.0368e-24
2.67843e-25
6.73729e-26
1.60007e-26
3.44264e-27
5.67165e-28
3.38109e-29
-7.48724e-19
-1.09115e-17
-4.77615e-17
-1.53716e-16
-4.29657e-16
-1.11074e-15
-2.73674e-15
-6.52885e-15
-1.5208e-14
-3.47401e-14
-7.8071e-14
-1.73477e-13
-3.83821e-13
-8.50581e-13
-1.89117e-12
-4.21905e-12
-9.45324e-12
-2.12211e-11
-4.64233e-11
-1.03232e-10
-2.30236e-10
-5.20558e-10
-1.18577e-09
-2.73699e-09
-5.99281e-09
-1.25857e-08
-2.51824e-08
-4.85229e-08
-8.7974e-08
-1.52993e-07
-2.51681e-07
-3.86327e-07
-5.39788e-07
-5.07076e-07
-3.43382e-07
-3.09563e-08
4.81847e-07
1.13883e-06
1.68993e-06
1.78002e-06
1.27309e-06
4.72657e-07
-9.14558e-08
-1.74754e-07
1.99489e-07
9.14229e-07
1.90225e-06
3.20556e-06
4.86686e-06
6.71481e-06
6.66048e-06
-9.17144e-06
-5.40678e-06
-3.05008e-06
-1.74614e-06
-1.04717e-06
-7.61538e-07
-8.03519e-07
-1.13679e-06
-9.00479e-07
9.07723e-07
2.23829e-06
1.97217e-06
-9.37622e-07
-7.38258e-07
-2.22383e-07
-5.99091e-08
-1.33966e-08
-2.54896e-09
-4.39069e-10
-7.12369e-11
-1.00103e-11
-1.23412e-12
-1.30384e-13
-1.03424e-14
4.69368e-16
6.20537e-16
2.63466e-16
9.52694e-17
3.26303e-17
1.08165e-17
3.49518e-18
1.10332e-18
3.40688e-19
1.03029e-19
3.05812e-20
8.90321e-21
2.54811e-21
7.17813e-22
1.99331e-22
5.45879e-23
1.47588e-23
3.93891e-24
1.0364e-24
2.67776e-25
6.73054e-26
1.60869e-26
3.4179e-27
5.70044e-28
3.14731e-29
-7.49138e-19
-1.09176e-17
-4.77877e-17
-1.538e-16
-4.2989e-16
-1.11134e-15
-2.7382e-15
-6.53233e-15
-1.52161e-14
-3.47587e-14
-7.81137e-14
-1.73574e-13
-3.84041e-13
-8.51076e-13
-1.89232e-12
-4.22157e-12
-9.45879e-12
-2.1233e-11
-4.64485e-11
-1.03296e-10
-2.30373e-10
-5.20854e-10
-1.1864e-09
-2.73826e-09
-5.99509e-09
-1.25893e-08
-2.51871e-08
-4.85272e-08
-8.79734e-08
-1.52979e-07
-2.51631e-07
-3.8621e-07
-5.39608e-07
-5.06823e-07
-3.43163e-07
-3.08648e-08
4.81759e-07
1.1382e-06
1.68909e-06
1.77946e-06
1.27302e-06
4.73191e-07
-9.12347e-08
-1.75054e-07
1.98398e-07
9.12072e-07
1.89882e-06
3.20089e-06
4.86157e-06
6.71144e-06
6.67298e-06
-9.1495e-06
-5.41672e-06
-3.05627e-06
-1.74975e-06
-1.04844e-06
-7.61469e-07
-8.02142e-07
-1.13463e-06
-9.03154e-07
8.99859e-07
2.23413e-06
1.97243e-06
-9.27074e-07
-7.41213e-07
-2.23405e-07
-6.02121e-08
-1.34724e-08
-2.56502e-09
-4.41733e-10
-7.1683e-11
-1.00768e-11
-1.24287e-12
-1.31393e-13
-1.04446e-14
4.62174e-16
6.21293e-16
2.64073e-16
9.55127e-17
3.27158e-17
1.08451e-17
3.50444e-18
1.10624e-18
3.41587e-19
1.033e-19
3.06609e-20
8.92632e-21
2.55463e-21
7.19639e-22
1.99834e-22
5.47251e-23
1.47929e-23
3.95002e-24
1.03998e-24
2.68522e-25
6.74801e-26
1.60989e-26
3.4801e-27
5.68795e-28
3.14036e-29
-7.49998e-19
-1.09301e-17
-4.78424e-17
-1.53975e-16
-4.30378e-16
-1.11259e-15
-2.74128e-15
-6.53965e-15
-1.52332e-14
-3.47979e-14
-7.82035e-14
-1.73779e-13
-3.84503e-13
-8.52118e-13
-1.89475e-12
-4.22695e-12
-9.47056e-12
-2.12586e-11
-4.65021e-11
-1.03432e-10
-2.30662e-10
-5.2148e-10
-1.18773e-09
-2.74093e-09
-5.99988e-09
-1.25969e-08
-2.51973e-08
-4.85368e-08
-8.79743e-08
-1.52953e-07
-2.51539e-07
-3.85996e-07
-5.39209e-07
-5.06315e-07
-3.42711e-07
-3.0638e-08
4.81639e-07
1.13695e-06
1.68737e-06
1.77792e-06
1.27243e-06
4.72901e-07
-9.16498e-08
-1.76585e-07
1.95423e-07
9.07327e-07
1.89221e-06
3.19258e-06
4.85324e-06
6.70867e-06
6.70482e-06
-9.10037e-06
-5.43047e-06
-3.06417e-06
-1.75408e-06
-1.05022e-06
-7.61225e-07
-7.99452e-07
-1.13046e-06
-9.09365e-07
8.82255e-07
2.22469e-06
1.97278e-06
-9.04668e-07
-7.47262e-07
-2.25532e-07
-6.08482e-08
-1.3632e-08
-2.59861e-09
-4.47314e-10
-7.26142e-11
-1.02159e-11
-1.26133e-12
-1.33522e-13
-1.06597e-14
4.47012e-16
6.22904e-16
2.65365e-16
9.60316e-17
3.28986e-17
1.09063e-17
3.52428e-18
1.1125e-18
3.43514e-19
1.0388e-19
3.08314e-20
8.97562e-21
2.56859e-21
7.23546e-22
2.009e-22
5.50152e-23
1.48723e-23
3.96962e-24
1.04482e-24
2.70003e-25
6.78121e-26
1.61917e-26
3.46586e-27
5.63653e-28
3.30979e-29
-7.51339e-19
-1.09496e-17
-4.79276e-17
-1.54249e-16
-4.31139e-16
-1.11455e-15
-2.74609e-15
-6.55107e-15
-1.52598e-14
-3.48591e-14
-7.83433e-14
-1.74096e-13
-3.8522e-13
-8.53726e-13
-1.89848e-12
-4.23514e-12
-9.48868e-12
-2.12982e-11
-4.65862e-11
-1.03645e-10
-2.31119e-10
-5.2247e-10
-1.18983e-09
-2.74515e-09
-6.00751e-09
-1.26091e-08
-2.5214e-08
-4.8554e-08
-8.79802e-08
-1.52921e-07
-2.51411e-07
-3.8568e-07
-5.38544e-07
-5.05504e-07
-3.41995e-07
-3.02382e-08
4.81531e-07
1.13507e-06
1.6847e-06
1.77551e-06
1.27115e-06
4.72232e-07
-9.32184e-08
-1.80129e-07
1.89555e-07
8.98794e-07
1.88094e-06
3.17939e-06
4.84101e-06