/*--------------------------------*- C++ -*----------------------------------*\
  =========                 |
  \\      /  F ield         | OpenFOAM: The Open Source CFD Toolbox
   \\    /   O peration     | Website:  https://openfoam.org
    \\  /    A nd           | Version:  10
     \\/     M anipulation  |
\*---------------------------------------------------------------------------*/
FoamFile
{
    format      ascii;
    class       volScalarField;
    location    "1";
    object      RR.N2H3;
}
// * * * * * * * * * * * * * * * * * * * * * * * * * * * * * * * * * * * * * //

dimensions      [1 -3 -1 0 0 0 0];

internalField   nonuniform List<scalar> 
4000
(
-1.05412e-14
-2.69364e-14
-1.58673e-14
7.92894e-14
3.9864e-13
1.27209e-12
3.46344e-12
8.7305e-12
2.11258e-11
5.00688e-11
1.17822e-10
2.78489e-10
6.67279e-10
1.62735e-09
4.01504e-09
9.75485e-09
2.21447e-08
4.03309e-08
3.9056e-08
-8.48098e-09
-2.97037e-08
-2.21597e-08
-1.48564e-08
-1.02626e-08
-1.03606e-08
-1.05977e-08
-1.51992e-08
-2.87442e-08
-5.74131e-08
-1.14113e-07
-2.20277e-07
-4.08982e-07
-7.29644e-07
-1.24026e-06
-2.00771e-06
-3.08514e-06
-4.48656e-06
-6.17985e-06
-7.99835e-06
-9.70002e-06
-1.08923e-05
-1.09972e-05
-9.1973e-06
-4.63449e-06
3.66712e-06
1.5778e-05
3.01149e-05
4.31076e-05
4.86776e-05
3.86111e-05
6.14062e-06
-3.67102e-05
-3.07024e-05
-1.72271e-05
-9.63057e-06
-5.33728e-06
-2.89206e-06
-1.54652e-06
-8.07481e-07
-4.09951e-07
-2.01103e-07
-9.38942e-08
-3.9903e-08
-1.63263e-08
-7.21624e-09
-3.16017e-09
-1.1929e-09
-4.59616e-10
-2.19796e-10
-5.35026e-11
-3.11781e-12
-1.16092e-13
-1.88578e-14
-7.87479e-15
-2.46708e-15
-4.6087e-16
-9.47862e-17
-2.17361e-17
-5.51054e-18
-1.50465e-18
-4.30304e-19
-1.25628e-19
-3.68689e-20
-1.07814e-20
-3.1191e-21
-8.92778e-22
-2.52686e-22
-7.06873e-23
-1.95725e-23
-5.37394e-24
-1.45695e-24
-3.9134e-25
-1.04117e-25
-2.73828e-26
-7.08485e-27
-1.78406e-27
-4.27016e-28
-9.19092e-29
-1.52517e-29
-8.15936e-31
-1.04991e-14
-2.69484e-14
-1.64308e-14
7.68253e-14
3.90837e-13
1.25004e-12
3.40523e-12
8.58045e-12
2.07394e-11
4.90643e-11
1.15178e-10
2.71466e-10
6.47942e-10
1.57465e-09
3.87524e-09
9.40299e-09
2.13339e-08
3.92579e-08
3.99387e-08
-6.08565e-09
-2.95932e-08
-2.2401e-08
-1.51449e-08
-1.04372e-08
-1.02865e-08
-1.07062e-08
-1.49717e-08
-2.82095e-08
-5.63581e-08
-1.12277e-07
-2.17284e-07
-4.0416e-07
-7.23348e-07
-1.23381e-06
-2.00262e-06
-3.08449e-06
-4.49575e-06
-6.20527e-06
-8.0416e-06
-9.7614e-06
-1.09637e-05
-1.10616e-05
-9.2237e-06
-4.5818e-06
3.84927e-06
1.61282e-05
3.06188e-05
4.36621e-05
4.90348e-05
3.84047e-05
4.97415e-06
-3.78053e-05
-3.01419e-05
-1.69069e-05
-9.4456e-06
-5.22856e-06
-2.84082e-06
-1.5169e-06
-7.90402e-07
-4.00728e-07
-1.95123e-07
-9.05402e-08
-3.81687e-08
-1.56187e-08
-6.94954e-09
-3.03413e-09
-1.13639e-09
-4.42182e-10
-2.14423e-10
-4.377e-11
-2.46222e-12
-9.45347e-14
-1.75728e-14
-7.42192e-15
-2.2862e-15
-4.33675e-16
-9.06971e-17
-2.11377e-17
-5.43669e-18
-1.50239e-18
-4.34158e-19
-1.27918e-19
-3.78764e-20
-1.11568e-20
-3.25992e-21
-9.40331e-22
-2.67707e-22
-7.51219e-23
-2.08009e-23
-5.68363e-24
-1.54265e-24
-4.13757e-25
-1.09786e-25
-2.87778e-26
-7.41821e-27
-1.86069e-27
-4.43673e-28
-9.52189e-29
-1.57695e-29
-8.42655e-31
-1.04633e-14
-2.70002e-14
-1.71129e-14
7.40752e-14
3.82495e-13
1.22807e-12
3.3484e-12
8.43317e-12
2.03528e-11
4.80281e-11
1.12316e-10
2.63251e-10
6.2581e-10
1.51555e-09
3.71859e-09
9.01043e-09
2.05041e-08
3.80304e-08
4.03193e-08
-3.47636e-09
-2.93555e-08
-2.26808e-08
-1.54499e-08
-1.0582e-08
-1.0186e-08
-1.07824e-08
-1.46783e-08
-2.74998e-08
-5.49548e-08
-1.09773e-07
-2.13142e-07
-3.97985e-07
-7.15474e-07
-1.22536e-06
-1.99703e-06
-3.08597e-06
-4.52074e-06
-6.24358e-06
-8.10859e-06
-9.85799e-06
-1.10763e-05
-1.11598e-05
-9.26338e-06
-4.49791e-06
4.13264e-06
1.66562e-05
3.13481e-05
4.44287e-05
4.94592e-05
3.79203e-05
3.22276e-06
-3.94557e-05
-2.92924e-05
-1.64365e-05
-9.18171e-06
-5.08155e-06
-2.74958e-06
-1.46631e-06
-7.631e-07
-3.87015e-07
-1.86322e-07
-8.58378e-08
-3.58621e-08
-1.47211e-08
-6.61183e-09
-2.86406e-09
-1.06277e-09
-4.19668e-10
-2.07178e-10
-3.45058e-11
-1.88993e-12
-7.47176e-14
-1.62478e-14
-6.99998e-15
-2.10528e-15
-4.04788e-16
-8.5904e-17
-2.03231e-17
-5.29755e-18
-1.47831e-18
-4.31574e-19
-1.28311e-19
-3.82857e-20
-1.13564e-20
-3.33187e-21
-9.64633e-22
-2.75672e-22
-7.76485e-23
-2.15816e-23
-5.92247e-24
-1.60602e-24
-4.31119e-25
-1.14432e-25
-2.99818e-26
-7.7205e-27
-1.93395e-27
-4.60506e-28
-9.86815e-29
-1.63203e-29
-8.72501e-31
-1.0409e-14
-2.70348e-14
-1.79425e-14
7.04647e-14
3.70815e-13
1.19451e-12
3.25893e-12
8.2039e-12
1.9778e-11
4.66049e-11
1.08826e-10
2.54798e-10
6.04336e-10
1.45956e-09
3.57232e-09
8.64598e-09
1.9722e-08
3.70903e-08
4.07283e-08
-1.14106e-09
-2.90378e-08
-2.29487e-08
-1.57657e-08
-1.07838e-08
-1.01314e-08
-1.08796e-08
-1.44193e-08
-2.68698e-08
-5.37036e-08
-1.07666e-07
-2.0976e-07
-3.93172e-07
-7.09066e-07
-1.2186e-06
-1.99423e-06
-3.09286e-06
-4.54587e-06
-6.29489e-06
-8.19585e-06
-9.9766e-06
-1.12076e-05
-1.12714e-05
-9.29609e-06
-4.36542e-06
4.53183e-06
1.73922e-05
3.23679e-05
4.554e-05
5.00588e-05
3.71988e-05
5.7604e-07
-4.09071e-05
-2.84356e-05
-1.59399e-05
-8.89311e-06
-4.91326e-06
-2.65441e-06
-1.41205e-06
-7.32726e-07
-3.70184e-07
-1.77377e-07
-8.07998e-08
-3.33765e-08
-1.38036e-08
-6.26317e-09
-2.67294e-09
-9.84261e-10
-3.97034e-10
-1.98874e-10
-2.63843e-11
-1.40041e-12
-5.60472e-14
-1.43187e-14
-6.3829e-15
-1.81619e-15
-3.5532e-16
-7.69393e-17
-1.85945e-17
-4.95096e-18
-1.41401e-18
-4.19246e-19
-1.259e-19
-3.78851e-20
-1.13172e-20
-3.33955e-21
-9.71492e-22
-2.7874e-22
-7.87319e-23
-2.19312e-23
-6.03007e-24
-1.63871e-24
-4.40046e-25
-1.16806e-25
-3.06013e-26
-7.87884e-27
-1.97308e-27
-4.69688e-28
-1.00629e-28
-1.66425e-29
-8.89997e-31
-1.03532e-14
-2.70495e-14
-1.86714e-14
6.72681e-14
3.60678e-13
1.16642e-12
3.18622e-12
8.02219e-12
1.93307e-11
4.55056e-11
1.06103e-10
2.47955e-10
5.86839e-10
1.4142e-09
3.45483e-09
8.35511e-09
1.90925e-08
3.62335e-08
4.11197e-08
1.04151e-09
-2.87709e-08
-2.32179e-08
-1.60295e-08
-1.09324e-08
-1.00479e-08
-1.09773e-08
-1.4207e-08
-2.63425e-08
-5.27251e-08
-1.05929e-07
-2.07125e-07
-3.89186e-07
-7.04374e-07
-1.21458e-06
-1.99526e-06
-3.1048e-06
-4.57695e-06
-6.35534e-06
-8.2899e-06
-1.00999e-05
-1.13436e-05
-1.13807e-05
-9.31576e-06
-4.20387e-06
4.97927e-06
1.81871e-05
3.33972e-05
4.65968e-05
5.05795e-05
3.6346e-05
-2.0317e-06
-4.21925e-05
-2.7449e-05
-1.53933e-05
-8.58506e-06
-4.73721e-06
-2.55817e-06
-1.35776e-06
-7.02819e-07
-3.54148e-07
-1.69063e-07
-7.62312e-08
-3.12055e-08
-1.29895e-08
-5.93224e-09
-2.49389e-09
-9.14474e-10
-3.7598e-10
-1.90616e-10
-2.0079e-11
-1.02594e-12
-4.08378e-14
-1.29254e-14
-5.91977e-15
-1.61921e-15
-3.22243e-16
-7.09923e-17
-1.74348e-17
-4.70134e-18
-1.35261e-18
-4.04534e-19
-1.22782e-19
-3.7231e-20
-1.11858e-20
-3.31419e-21
-9.67827e-22
-2.78691e-22
-7.89401e-23
-2.20393e-23
-6.07067e-24
-1.6522e-24
-4.44052e-25
-1.17924e-25
-3.09009e-26
-7.95576e-27
-1.99222e-27
-4.74201e-28
-1.01562e-28
-1.68019e-29
-8.96187e-31
-1.02956e-14
-2.7044e-14
-1.93161e-14
6.43392e-14
3.51303e-13
1.14039e-12
3.11894e-12
7.85464e-12
1.89204e-11
4.45041e-11
1.03643e-10
2.41844e-10
5.71458e-10
1.37509e-09
3.35589e-09
8.11712e-09
1.85972e-08
3.56062e-08
4.14633e-08
2.78892e-09
-2.85374e-08
-2.34441e-08
-1.6234e-08
-1.10482e-08
-9.9871e-09
-1.10895e-08
-1.40517e-08
-2.59338e-08
-5.19351e-08
-1.04645e-07
-2.052e-07
-3.8671e-07
-7.01746e-07
-1.21363e-06
-1.99995e-06
-3.12142e-06
-4.61402e-06
-6.42034e-06
-8.38757e-06
-1.02271e-05
-1.14798e-05
-1.14858e-05
-9.32361e-06
-4.03032e-06
5.42794e-06
1.89608e-05
3.44527e-05
4.76611e-05
5.10437e-05
3.53471e-05
-4.93946e-06
-4.29545e-05
-2.66476e-05
-1.4933e-05
-8.31946e-06
-4.57991e-06
-2.47084e-06
-1.30757e-06
-6.73957e-07
-3.37915e-07
-1.61025e-07
-7.18951e-08
-2.92763e-08
-1.22936e-08
-5.63982e-09
-2.33919e-09
-8.60125e-10
-3.53706e-10
-1.8222e-10
-1.5607e-11
-7.48513e-13
-3.25299e-14
-1.20076e-14
-5.55942e-15
-1.45814e-15
-2.94217e-16
-6.57587e-17
-1.6372e-17
-4.46566e-18
-1.29642e-18
-3.89551e-19
-1.1865e-19
-3.61257e-20
-1.09064e-20
-3.25139e-21
-9.53732e-22
-2.75625e-22
-7.82766e-23
-2.18996e-23
-6.04216e-24
-1.64678e-24
-4.42996e-25
-1.177e-25
-3.08555e-26
-7.94631e-27
-1.99029e-27
-4.73835e-28
-1.01502e-28
-1.6802e-29
-8.94054e-31
-1.02399e-14
-2.7027e-14
-1.9877e-14
6.17276e-14
3.42899e-13
1.11706e-12
3.05878e-12
7.70539e-12
1.85567e-11
4.36209e-11
1.01485e-10
2.36508e-10
5.58089e-10
1.34124e-09
3.27042e-09
7.91126e-09
1.81641e-08
3.5032e-08
4.17039e-08
4.43919e-09
-2.82633e-08
-2.36852e-08
-1.64395e-08
-1.11798e-08
-9.96513e-09
-1.12083e-08
-1.39542e-08
-2.56562e-08
-5.14039e-08
-1.03793e-07
-2.03999e-07
-3.85322e-07
-7.00766e-07
-1.21517e-06
-2.00757e-06
-3.14087e-06
-4.65282e-06
-6.48685e-06
-8.48231e-06
-1.03465e-05
-1.16063e-05
-1.15771e-05
-9.31895e-06
-3.84822e-06
5.87215e-06
1.96969e-05
3.53753e-05
4.85413e-05
5.12681e-05
3.41298e-05
-7.76091e-06
-4.33938e-05
-2.58394e-05
-1.44802e-05
-8.07506e-06
-4.40708e-06
-2.37906e-06
-1.25708e-06
-6.46573e-07
-3.22637e-07
-1.54934e-07
-6.8535e-08
-2.77205e-08
-1.17419e-08
-5.39671e-09
-2.21114e-09
-8.14294e-10
-3.40372e-10
-1.77254e-10
-1.28008e-11
-6.03705e-13
-2.9091e-14
-1.15494e-14
-5.33478e-15
-1.34343e-15
-2.73619e-16
-6.17878e-17
-1.55363e-17
-4.27269e-18
-1.24842e-18
-3.76875e-19
-1.15192e-19
-3.51658e-20
-1.06359e-20
-3.17317e-21
-9.3202e-22
-2.69793e-22
-7.67457e-23
-2.15069e-23
-5.9433e-24
-1.62252e-24
-4.37132e-25
-1.16339e-25
-3.05335e-26
-7.86979e-27
-1.97234e-27
-4.69623e-28
-1.00649e-28
-1.66508e-29
-8.91684e-31
-1.01879e-14
-2.70038e-14
-2.03638e-14
5.94151e-14
3.35422e-13
1.09629e-12
3.00529e-12
7.57306e-12
1.82355e-11
4.28448e-11
9.95985e-11
2.3187e-10
5.46537e-10
1.31214e-09
3.19731e-09
7.73581e-09
1.77958e-08
3.45442e-08
4.19102e-08
5.93405e-09
-2.79954e-08
-2.39113e-08
-1.66507e-08
-1.13112e-08
-9.95496e-09
-1.13094e-08
-1.38888e-08
-2.54645e-08
-5.10605e-08
-1.03268e-07
-2.03331e-07
-3.84798e-07
-7.01298e-07
-1.2185e-06
-2.0172e-06
-3.16252e-06
-4.69233e-06
-6.54917e-06
-8.57058e-06
-1.04537e-05
-1.17106e-05
-1.16447e-05
-9.29824e-06
-3.66818e-06
6.28857e-06
2.03803e-05
3.6237e-05
4.93089e-05
5.14178e-05
3.29983e-05
-1.02748e-05
-4.34306e-05
-2.52019e-05
-1.41179e-05
-7.85639e-06
-4.29978e-06
-2.31756e-06
-1.22129e-06
-6.26362e-07
-3.11575e-07
-1.49019e-07
-6.52784e-08
-2.63397e-08
-1.12558e-08
-5.16925e-09
-2.09426e-09
-7.75079e-10
-3.29595e-10
-1.61669e-10
-1.08831e-11
-5.15316e-13
-2.83819e-14
-1.13312e-14
-5.16766e-15
-1.24677e-15
-2.55761e-16
-5.82483e-17
-1.47688e-17
-4.08977e-18
-1.20142e-18
-3.64086e-19
-1.11611e-19
-3.41533e-20
-1.03504e-20
-3.09351e-21
-9.10264e-22
-2.63487e-22
-7.50624e-23
-2.10619e-23
-5.82667e-24
-1.59234e-24
-4.29288e-25
-1.14292e-25
-3.0009e-26
-7.73836e-27
-1.94006e-27
-4.62226e-28
-9.90719e-29
-1.63867e-29
-8.7783e-31
-1.01409e-14
-2.69784e-14
-2.07805e-14
5.74078e-14
3.28914e-13
1.07822e-12
2.95886e-12
7.45859e-12
1.79588e-11
4.21791e-11
9.7988e-11
2.27931e-10
5.36776e-10
1.28771e-09
3.13639e-09
7.59124e-09
1.74979e-08
3.41664e-08
4.20915e-08
7.13256e-09
-2.77526e-08
-2.41057e-08
-1.68109e-08
-1.14141e-08
-9.95329e-09
-1.14154e-08
-1.38579e-08
-2.53459e-08
-5.08334e-08
-1.02967e-07
-2.0307e-07
-3.84967e-07
-7.02737e-07
-1.22309e-06
-2.02838e-06
-3.18493e-06
-4.73151e-06
-6.60916e-06
-8.65493e-06
-1.05567e-05
-1.18127e-05
-1.17069e-05
-9.26658e-06
-3.47314e-06
6.71357e-06
2.10396e-05
3.70309e-05
4.99795e-05
5.14999e-05
3.18601e-05
-1.28344e-05
-4.33285e-05
-2.47434e-05
-1.3849e-05
-7.71213e-06
-4.17894e-06
-2.25001e-06
-1.18388e-06
-6.05974e-07
-3.00784e-07
-1.43398e-07
-6.24226e-08
-2.5153e-08
-1.08369e-08
-4.96885e-09
-1.98664e-09
-7.3959e-10
-3.21605e-10
-1.41779e-10
-9.1869e-12
-4.33182e-13
-2.79253e-14
-1.11481e-14
-5.0142e-15
-1.15848e-15
-2.39531e-16
-5.50309e-17
-1.40684e-17
-3.92175e-18
-1.15777e-18
-3.52081e-19
-1.08206e-19
-3.31765e-20
-1.00705e-20
-3.01393e-21
-8.88112e-22
-2.57338e-22
-7.33785e-23
-2.06066e-23
-5.70487e-24
-1.56029e-24
-4.20862e-25
-1.12098e-25
-2.94436e-26
-7.59488e-27
-1.90469e-27
-4.53767e-28
-9.72921e-29
-1.60982e-29
-8.6099e-31
-1.00995e-14
-2.69533e-14
-2.11334e-14
5.56896e-14
3.23334e-13
1.06273e-12
2.91915e-12
7.36096e-12
1.77236e-11
4.16154e-11
9.6629e-11
2.24615e-10
5.28562e-10
1.26709e-09
3.08463e-09
7.46679e-09
1.72342e-08
3.38081e-08
4.22255e-08
8.30505e-09
-2.75028e-08
-2.43038e-08
-1.69919e-08
-1.15294e-08
-9.96693e-09
-1.15069e-08
-1.3846e-08
-2.52764e-08
-5.07021e-08
-1.02843e-07
-2.03115e-07
-3.85558e-07
-7.04571e-07
-1.22836e-06
-2.03978e-06
-3.20667e-06
-4.76842e-06
-6.66093e-06
-8.73149e-06
-1.06464e-05
-1.18984e-05
-1.1755e-05
-9.22937e-06
-3.28835e-06
7.10006e-06
2.16308e-05
3.7718e-05
5.04689e-05
5.13873e-05
3.07586e-05
-1.46806e-05
-4.27742e-05
-2.41818e-05
-1.35427e-05
-7.54229e-06
-4.08649e-06
-2.1987e-06
-1.15572e-06
-5.90808e-07
-2.92805e-07
-1.39082e-07
-6.00977e-08
-2.41965e-08
-1.05365e-08
-4.7579e-09
-1.88428e-09
-7.08075e-10
-3.14468e-10
-1.2695e-10
-8.13089e-12
-3.84002e-13
-2.75723e-14
-1.09607e-14
-4.89039e-15
-1.08968e-15
-2.26687e-16
-5.24383e-17
-1.34921e-17
-3.78002e-18
-1.12008e-18
-3.41485e-19
-1.0514e-19
-3.22804e-20
-9.80928e-21
-2.93854e-21
-8.66812e-22
-2.51358e-22
-7.1724e-23
-2.01549e-23
-5.58309e-24
-1.52771e-24
-4.12251e-25
-1.09847e-25
-2.88624e-26
-7.44689e-27
-1.86811e-27
-4.45145e-28
-9.54235e-29
-1.58048e-29
-8.46152e-31
-1.00638e-14
-2.69301e-14
-2.14292e-14
5.42387e-14
3.18619e-13
1.04966e-12
2.88571e-12
7.27903e-12
1.75272e-11
4.11478e-11
9.55121e-11
2.21919e-10
5.21964e-10
1.25075e-09
3.0436e-09
7.37051e-09
1.70387e-08
3.35549e-08
4.23247e-08
9.16944e-09
-2.72971e-08
-2.44543e-08
-1.71236e-08
-1.16193e-08
-9.98256e-09
-1.15909e-08
-1.38477e-08
-2.52429e-08
-5.06576e-08
-1.02839e-07
-2.03341e-07
-3.86411e-07
-7.06963e-07
-1.23358e-06
-2.05038e-06
-3.22604e-06
-4.80019e-06
-6.70825e-06
-8.79502e-06
-1.07201e-05
-1.1967e-05
-1.17898e-05
-9.18835e-06
-3.11079e-06
7.46275e-06
2.2174e-05
3.83269e-05
5.0896e-05
5.12447e-05
2.96477e-05
-1.65351e-05
-4.22418e-05
-2.3764e-05
-1.33006e-05
-7.39102e-06
-4.02478e-06
-2.16169e-06
-1.1341e-06
-5.78533e-07
-2.86104e-07
-1.3544e-07
-5.81865e-08
-2.34178e-08
-1.02569e-08
-4.62567e-09
-1.81438e-09
-6.86204e-10
-3.09378e-10
-1.14839e-10
-7.30756e-12
-3.48909e-13
-2.72754e-14
-1.07974e-14
-4.79233e-15
-1.0354e-15
-2.1644e-16
-5.03383e-17
-1.30174e-17
-3.66034e-18
-1.08772e-18
-3.32241e-19
-1.02425e-19
-3.14765e-20
-9.57213e-21
-2.86934e-21
-8.46983e-22
-2.45743e-22
-7.01588e-23
-1.97252e-23
-5.46716e-24
-1.49553e-24
-4.03764e-25
-1.0763e-25
-2.82898e-26
-7.30153e-27
-1.83185e-27
-4.36585e-28
-9.36575e-29
-1.54902e-29
-8.29994e-31
-1.00335e-14
-2.69096e-14
-2.16755e-14
5.30257e-14
3.14677e-13
1.03875e-12
2.85787e-12
7.21102e-12
1.73648e-11
4.0763e-11
9.45973e-11
2.19722e-10
5.16612e-10
1.23755e-09
3.01042e-09
7.29312e-09
1.68767e-08
3.33305e-08
4.24199e-08
9.93135e-09
-2.71126e-08
-2.46033e-08
-1.72479e-08
-1.16974e-08
-9.9975e-09
-1.16619e-08
-1.3857e-08
-2.52334e-08
-5.0658e-08
-1.0291e-07
-2.03669e-07
-3.8737e-07
-7.09291e-07
-1.23858e-06
-2.06008e-06
-3.24317e-06
-4.82748e-06
-6.74802e-06
-8.84557e-06
-1.07756e-05
-1.20146e-05
-1.18098e-05
-9.16223e-06
-2.90787e-06
7.81464e-06
2.26672e-05
3.88752e-05
5.13054e-05
5.11727e-05
2.86216e-05
-1.85138e-05
-4.19391e-05
-2.3511e-05
-1.31428e-05
-7.2988e-06
-3.962e-06
-2.1256e-06
-1.11367e-06
-5.67285e-07
-2.80089e-07
-1.32177e-07
-5.64537e-08
-2.27086e-08
-1.00043e-08
-4.5101e-09
-1.75801e-09
-6.68174e-10
-3.05382e-10
-1.05657e-10
-6.73648e-12
-3.2409e-13
-2.70595e-14
-1.06598e-14
-4.71563e-15
-9.92672e-16
-2.08249e-16
-4.86284e-17
-1.26229e-17
-3.55963e-18
-1.06001e-18
-3.24215e-19
-1.0004e-19
-3.07631e-20
-9.35983e-21
-2.80692e-21
-8.28932e-22
-2.406e-22
-6.87167e-23
-1.9327e-23
-5.3591e-24
-1.46594e-24
-3.9591e-25
-1.05568e-25
-2.77557e-26
-7.16547e-27
-1.79828e-27
-4.28732e-28
-9.19348e-29
-1.52191e-29
-8.14808e-31
-1.00082e-14
-2.68923e-14
-2.18796e-14
5.20191e-14
3.11408e-13
1.02972e-12
2.83484e-12
7.15491e-12
1.72312e-11
4.04475e-11
9.38511e-11
2.17942e-10
5.1232e-10
1.22712e-09
2.98474e-09
7.23304e-09
1.675e-08
3.31659e-08
4.25014e-08
1.05298e-08
-2.69725e-08
-2.47181e-08
-1.73426e-08
-1.1759e-08
-1.001e-08
-1.17266e-08
-1.38723e-08
-2.52408e-08
-5.069e-08
-1.03034e-07
-2.04061e-07
-3.88371e-07
-7.11664e-07
-1.2434e-06
-2.06929e-06
-3.25913e-06
-4.85299e-06
-6.7844e-06
-8.89239e-06
-1.08278e-05
-1.20603e-05
-1.18279e-05
-9.12152e-06
-2.76516e-06
8.08021e-06
2.30329e-05
3.92457e-05
5.14899e-05
5.08948e-05
2.76987e-05
-1.96588e-05
-4.12178e-05
-2.31101e-05
-1.29316e-05
-7.18992e-06
-3.88884e-06
-2.08611e-06
-1.09246e-06
-5.56102e-07
-2.74388e-07
-1.29206e-07
-5.49812e-08
-2.21253e-08
-9.79195e-09
-4.41263e-09
-1.7124e-09
-6.54191e-10
-3.02075e-10
-9.81486e-11
-6.25534e-12
-2.99551e-13
-2.64737e-14
-1.05034e-14
-4.64373e-15
-9.55771e-16
-2.01223e-16
-4.71639e-17
-1.22843e-17
-3.473e-18
-1.03604e-18
-3.17231e-19
-9.79539e-20
-3.01358e-20
-9.17222e-21
-2.7515e-21
-8.12832e-22
-2.35993e-22
-6.74195e-23
-1.89674e-23
-5.261e-24
-1.43947e-24
-3.88851e-25
-1.0371e-25
-2.72721e-26
-7.04197e-27
-1.76742e-27
-4.21442e-28
-9.03883e-29
-1.49648e-29
-7.96587e-31
-9.98747e-15
-2.68781e-14
-2.20478e-14
5.11902e-14
3.08716e-13
1.02227e-12
2.81586e-12
7.1086e-12
1.71206e-11
4.01855e-11
9.32278e-11
2.16443e-10
5.08667e-10
1.21811e-09
2.96209e-09
7.17855e-09
1.66407e-08
3.3035e-08
4.25993e-08
1.10565e-08
-2.68576e-08
-2.48177e-08
-1.74252e-08
-1.18141e-08
-1.00253e-08
-1.178e-08
-1.38902e-08
-2.52588e-08
-5.0741e-08
-1.03188e-07
-2.04492e-07
-3.89401e-07
-7.13767e-07
-1.24785e-06
-2.0776e-06
-3.27341e-06
-4.87535e-06
-6.81617e-06
-8.93283e-06
-1.0872e-05
-1.20972e-05
-1.18374e-05
-9.0742e-06
-2.62305e-06
8.34104e-06
2.33966e-05
3.9631e-05
5.17347e-05
5.07493e-05
2.69001e-05
-2.08858e-05
-4.07914e-05
-2.28523e-05
-1.27828e-05
-7.10403e-06
-3.83911e-06
-2.05815e-06
-1.07714e-06
-5.4788e-07
-2.70065e-07
-1.26918e-07
-5.3847e-08
-2.16806e-08
-9.62887e-09
-4.33417e-09
-1.67513e-09
-6.43473e-10
-2.9941e-10
-9.246e-11
-5.8945e-12
-2.81954e-13
-2.60286e-14
-1.03748e-14
-4.58546e-15
-9.26115e-16
-1.95512e-16
-4.59584e-17
-1.20019e-17
-3.39993e-18
-1.01563e-18
-3.11243e-19
-9.61559e-20
-2.9593e-20
-9.00935e-21
-2.70323e-21
-7.98765e-22
-2.31955e-22
-6.62796e-23
-1.86507e-23
-5.17439e-24
-1.41606e-24
-3.82606e-25
-1.02064e-25
-2.6844e-26
-6.9322e-27
-1.74018e-27
-4.14969e-28
-8.9002e-29
-1.47354e-29
-7.87498e-31
-9.97073e-15
-2.68668e-14
-2.21841e-14
5.05198e-14
3.06541e-13
1.01626e-12
2.80055e-12
7.07125e-12
1.70315e-11
3.99744e-11
9.27255e-11
2.15236e-10
5.05723e-10
1.21085e-09
2.94386e-09
7.13763e-09
1.65599e-08
3.29346e-08
4.26636e-08
1.14651e-08
-2.67541e-08
-2.49029e-08
-1.7498e-08
-1.18632e-08
-1.00419e-08
-1.18268e-08
-1.39094e-08
-2.52823e-08
-5.08005e-08
-1.03346e-07
-2.049e-07
-3.90335e-07
-7.15926e-07
-1.25186e-06
-2.08484e-06
-3.28556e-06
-4.89407e-06
-6.84267e-06
-8.96655e-06
-1.09088e-05
-1.21274e-05
-1.18435e-05
-9.0323e-06
-2.50502e-06
8.5534e-06
2.36897e-05
3.99388e-05
5.1924e-05
5.06097e-05
2.62166e-05
-2.19107e-05
-4.04435e-05
-2.26588e-05
-1.26734e-05
-7.04142e-06
-3.80514e-06
-2.03856e-06
-1.06607e-06
-5.41828e-07
-2.66859e-07
-1.25171e-07
-5.29418e-08
-2.13278e-08
-9.50052e-09
-4.27115e-09
-1.6453e-09
-6.34516e-10
-2.97124e-10
-8.79685e-11
-5.60951e-12
-2.68315e-13
-2.56203e-14
-1.02603e-14
-4.53636e-15
-9.01917e-16
-1.9084e-16
-4.49671e-17
-1.1768e-17
-3.33892e-18
-9.98481e-19
-3.06188e-19
-9.46325e-20
-2.91318e-20
-8.87062e-21
-2.66203e-21
-7.86729e-22
-2.28494e-22
-6.53008e-23
-1.83782e-23
-5.09975e-24
-1.39587e-24
-3.77212e-25
-1.00642e-25
-2.64738e-26
-6.83757e-27
-1.71647e-27
-4.09415e-28
-8.77998e-29
-1.454e-29
-7.72986e-31
-9.95758e-15
-2.68581e-14
-2.22917e-14
4.99917e-14
3.04829e-13
1.01154e-12
2.78853e-12
7.042e-12
1.69619e-11
3.98096e-11
9.23346e-11
2.14301e-10
5.0347e-10
1.20538e-09
2.93028e-09
7.10625e-09
1.64951e-08
3.2853e-08
4.27225e-08
1.18072e-08
-2.66817e-08
-2.4974e-08
-1.75554e-08
-1.19014e-08
-1.00558e-08
-1.18639e-08
-1.39271e-08
-2.53076e-08
-5.0862e-08
-1.03506e-07
-2.05292e-07
-3.91296e-07
-7.17671e-07
-1.25542e-06
-2.09127e-06
-3.29635e-06
-4.9106e-06
-6.86573e-06
-8.99533e-06
-1.09394e-05
-1.21515e-05
-1.18469e-05
-8.99559e-06
-2.40459e-06
8.73483e-06
2.39475e-05
4.02306e-05
5.21507e-05
5.05801e-05
2.56473e-05
-2.30013e-05
-4.0337e-05
-2.25743e-05
-1.26148e-05
-7.00314e-06
-3.78273e-06
-2.02516e-06
-1.05826e-06
-5.37398e-07
-2.64444e-07
-1.23818e-07
-5.22239e-08
-2.10442e-08
-9.39893e-09
-4.22122e-09
-1.62158e-09
-6.27122e-10
-2.95189e-10
-8.42744e-11
-5.37768e-12
-2.57038e-13
-2.52761e-14
-1.01644e-14
-4.49548e-15
-8.82228e-16
-1.87037e-16
-4.41579e-17
-1.15765e-17
-3.28883e-18
-9.84367e-19
-3.02019e-19
-9.33731e-20
-2.87497e-20
-8.75544e-21
-2.62775e-21
-7.76699e-22
-2.25606e-22
-6.44829e-23
-1.81503e-23
-5.03727e-24
-1.37895e-24
-3.72689e-25
-9.94469e-26
-2.61622e-26
-6.7579e-27
-1.69673e-27
-4.04666e-28
-8.68172e-29
-1.43682e-29
-7.667e-31
-9.94763e-15
-2.68516e-14
-2.23738e-14
4.95904e-14
3.03531e-13
1.00796e-12
2.77947e-12
7.02004e-12
1.691e-11
3.96883e-11
9.20497e-11
2.13625e-10
5.01842e-10
1.20136e-09
2.92001e-09
7.08183e-09
1.64449e-08
3.27912e-08
4.27672e-08
1.2069e-08
-2.66189e-08
-2.50318e-08
-1.76041e-08
-1.19338e-08
-1.00679e-08
-1.18945e-08
-1.39434e-08
-2.53317e-08
-5.09188e-08
-1.03645e-07
-2.05627e-07
-3.92028e-07
-7.19184e-07
-1.25832e-06
-2.09649e-06
-3.30493e-06
-4.92363e-06
-6.88382e-06
-9.01785e-06
-1.09634e-05
-1.21707e-05
-1.18507e-05
-8.96983e-06
-2.33225e-06
8.86343e-06
2.41211e-05
4.04042e-05
5.22355e-05
5.04503e-05
2.52299e-05
-2.34538e-05
-3.9976e-05
-2.23923e-05
-1.25195e-05
-6.94977e-06
-3.75999e-06
-2.01246e-06
-1.05125e-06
-5.33619e-07
-2.62455e-07
-1.22727e-07
-5.16531e-08
-2.08165e-08
-9.31731e-09
-4.18197e-09
-1.60347e-09
-6.21309e-10
-2.93707e-10
-8.14789e-11
-5.20202e-12
-2.48397e-13
-2.5004e-14
-1.00881e-14
-4.4634e-15
-8.67093e-16
-1.84097e-16
-4.35288e-17
-1.14264e-17
-3.24932e-18
-9.73174e-19
-2.98699e-19
-9.23676e-20
-2.8444e-20
-8.66315e-21
-2.60026e-21
-7.68647e-22
-2.23285e-22
-6.38256e-23
-1.79671e-23
-4.98701e-24
-1.36535e-24
-3.69054e-25
-9.84862e-26
-2.59121e-26
-6.69365e-27
-1.6807e-27
-4.00935e-28
-8.60065e-29
-1.42341e-29
-7.61776e-31
-9.94059e-15
-2.68471e-14
-2.24324e-14
4.93056e-14
3.02615e-13
1.00546e-12
2.77315e-12
7.0048e-12
1.68739e-11
3.96027e-11
9.18444e-11
2.13125e-10
5.00603e-10
1.1983e-09
2.91239e-09
7.06465e-09
1.64107e-08
3.275e-08
4.28007e-08
1.22529e-08
-2.65763e-08
-2.50724e-08
-1.76378e-08
-1.19566e-08
-1.00771e-08
-1.19165e-08
-1.39559e-08
-2.53511e-08
-5.09636e-08
-1.03754e-07
-2.05879e-07
-3.92572e-07
-7.20385e-07
-1.26048e-06
-2.10034e-06
-3.31123e-06
-4.93316e-06
-6.89696e-06
-9.03414e-06
-1.09808e-05
-1.21846e-05
-1.18537e-05
-8.9513e-06
-2.2788e-06
8.96349e-06
2.42695e-05
4.058e-05
5.2377e-05
5.04304e-05
2.48744e-05
-2.40543e-05
-3.98568e-05
-2.23132e-05
-1.24703e-05
-6.92203e-06
-3.73869e-06
-2.00088e-06
-1.04507e-06
-5.30386e-07
-2.60806e-07
-1.21855e-07
-5.12063e-08
-2.06389e-08
-9.2547e-09
-4.15286e-09
-1.59035e-09
-6.18012e-10
-2.92609e-10
-7.9469e-11
-5.07417e-12
-2.42033e-13
-2.47718e-14
-1.00271e-14
-4.43187e-15
-8.55868e-16
-1.81925e-16
-4.30653e-17
-1.13168e-17
-3.22066e-18
-9.65089e-19
-2.96304e-19
-9.16418e-20
-2.82229e-20
-8.59623e-21
-2.58026e-21
-7.62766e-22
-2.21583e-22
-6.3341e-23
-1.78313e-23
-4.9496e-24
-1.35517e-24
-3.66323e-25
-9.77643e-26
-2.5724e-26
-6.64546e-27
-1.66863e-27
-3.98095e-28
-8.53854e-29
-1.41441e-29
-7.56031e-31
-9.93609e-15
-2.68444e-14
-2.24702e-14
4.91214e-14
3.02019e-13
1.00381e-12
2.76893e-12
6.99443e-12
1.68489e-11
3.9543e-11
9.17026e-11
2.12787e-10
4.99795e-10
1.19636e-09
2.90754e-09
7.05353e-09
1.63889e-08
3.27249e-08
4.28253e-08
1.23712e-08
-2.65498e-08
-2.50985e-08
-1.76593e-08
-1.19712e-08
-1.00832e-08
-1.19309e-08
-1.39649e-08
-2.53661e-08
-5.10079e-08
-1.0383e-07
-2.06054e-07
-3.92949e-07
-7.21139e-07
-1.2619e-06
-2.10284e-06
-3.3153e-06
-4.93926e-06
-6.90533e-06
-9.04444e-06
-1.09917e-05
-1.21934e-05
-1.18555e-05
-8.93955e-06
-2.24475e-06
9.02716e-06
2.43625e-05
4.06861e-05
5.24551e-05
5.04069e-05
2.46741e-05
-2.43367e-05
-3.97071e-05
-2.22264e-05
-1.24202e-05
-6.89304e-06
-3.72361e-06
-1.9934e-06
-1.04127e-06
-5.28436e-07
-2.59815e-07
-1.2134e-07
-5.09582e-08
-2.05455e-08
-9.22018e-09
-4.13514e-09
-1.58206e-09
-6.15476e-10
-2.91891e-10
-7.81404e-11
-4.98993e-12
-2.37763e-13
-2.46069e-14
-9.98555e-15
-4.39153e-15
-8.48387e-16
-1.80473e-16
-4.27571e-17
-1.12435e-17
-3.20139e-18
-9.59642e-19
-2.94694e-19
-9.11561e-20
-2.80758e-20
-8.55194e-21
-2.56709e-21
-7.58915e-22
-2.20474e-22
-6.30269e-23
-1.77437e-23
-4.92551e-24
-1.34862e-24
-3.64562e-25
-9.72955e-26
-2.5601e-26
-6.61379e-27
-1.66084e-27
-3.96114e-28
-8.49741e-29
-1.40771e-29
-7.54431e-31
-9.93383e-15
-2.6843e-14
-2.24894e-14
4.90283e-14
3.01718e-13
1.00298e-12
2.76682e-12
6.98932e-12
1.68368e-11
3.95147e-11
9.16355e-11
2.12627e-10
4.99411e-10
1.19542e-09
2.90522e-09
7.04825e-09
1.63785e-08
3.27129e-08
4.28371e-08
1.24292e-08
-2.65369e-08
-2.51117e-08
-1.76701e-08
-1.19785e-08
-1.00864e-08
-1.19383e-08
-1.39701e-08
-2.53755e-08
-5.10322e-08
-1.03874e-07
-2.06152e-07
-3.93159e-07
-7.21416e-07
-1.26262e-06
-2.10405e-06
-3.31726e-06
-4.94217e-06
-6.9093e-06
-9.0493e-06
-1.09968e-05
-1.21975e-05
-1.18565e-05
-8.93482e-06
-2.23179e-06
9.04826e-06
2.43853e-05
4.06944e-05
5.24249e-05
5.03309e-05
2.4638e-05
-2.4141e-05
-3.94463e-05
-2.21044e-05
-1.23568e-05
-6.8469e-06
-3.734e-06
-1.99689e-06
-1.04219e-06
-5.2853e-07
-2.59707e-07
-1.21188e-07
-5.08336e-08
-2.04909e-08
-9.2016e-09
-4.12564e-09
-1.57738e-09
-6.13943e-10
-2.91444e-10
-7.74773e-11
-4.94816e-12
-2.3572e-13
-2.45306e-14
-9.96569e-15
-4.3718e-15
-8.44677e-16
-1.79733e-16
-4.25936e-17
-1.12037e-17
-3.19078e-18
-9.56616e-19
-2.93796e-19
-9.08842e-20
-2.79933e-20
-8.52713e-21
-2.55973e-21
-7.5677e-22
-2.19859e-22
-6.28536e-23
-1.76956e-23
-4.91241e-24
-1.34509e-24
-3.63626e-25
-9.70501e-26
-2.55377e-26
-6.59757e-27
-1.65662e-27
-3.95195e-28
-8.47876e-29
-1.40309e-29
-7.49988e-31
-9.9338e-15
-2.6843e-14
-2.24898e-14
4.90263e-14
3.01711e-13
1.00296e-12
2.76677e-12
6.98922e-12
1.68366e-11
3.95143e-11
9.16347e-11
2.12626e-10
4.99408e-10
1.19542e-09
2.90521e-09
7.04824e-09
1.63785e-08
3.2713e-08
4.28376e-08
1.24298e-08
-2.65372e-08
-2.51122e-08
-1.76705e-08
-1.19788e-08
-1.00865e-08
-1.19383e-08
-1.39698e-08
-2.53743e-08
-5.10329e-08
-1.03872e-07
-2.06149e-07
-3.93154e-07
-7.21443e-07
-1.26259e-06
-2.10401e-06
-3.31717e-06
-4.94202e-06
-6.90908e-06
-9.04898e-06
-1.09963e-05
-1.21966e-05
-1.18549e-05
-8.93138e-06
-2.22467e-06
9.06193e-06
2.44095e-05
4.07334e-05
5.24796e-05
5.0376e-05
2.45709e-05
-2.44386e-05
-3.96496e-05
-2.21938e-05
-1.24018e-05
-6.88283e-06
-3.71913e-06
-1.99055e-06
-1.03954e-06
-5.27436e-07
-2.59262e-07
-1.21019e-07
-5.07861e-08
-2.04783e-08
-9.19498e-09
-4.12221e-09
-1.57611e-09
-6.13545e-10
-2.91321e-10
-7.74476e-11
-4.94647e-12
-2.35653e-13
-2.45262e-14
-9.96476e-15
-4.37123e-15
-8.44561e-16
-1.79708e-16
-4.25872e-17
-1.1202e-17
-3.19028e-18
-9.56463e-19
-2.93747e-19
-9.08687e-20
-2.79884e-20
-8.52564e-21
-2.55928e-21
-7.56641e-22
-2.19823e-22
-6.28437e-23
-1.7693e-23
-4.91174e-24
-1.34493e-24
-3.63584e-25
-9.70399e-26
-2.55353e-26
-6.5973e-27
-1.65671e-27
-3.95151e-28
-8.48001e-29
-1.40304e-29
-7.46974e-31
-9.93598e-15
-2.68443e-14
-2.24715e-14
4.91153e-14
3.01998e-13
1.00375e-12
2.76877e-12
6.99405e-12
1.68481e-11
3.95414e-11
9.16992e-11
2.1278e-10
4.99782e-10
1.19633e-09
2.90749e-09
7.05347e-09
1.63889e-08
3.27253e-08
4.28267e-08
1.23734e-08
-2.65506e-08
-2.51e-08
-1.76604e-08
-1.19719e-08
-1.00836e-08
-1.1931e-08
-1.39647e-08
-2.53651e-08
-5.09953e-08
-1.03828e-07
-2.06052e-07
-3.92944e-07
-7.21088e-07
-1.26183e-06
-2.10268e-06
-3.31502e-06
-4.93878e-06
-6.90461e-06
-9.04343e-06
-1.09903e-05
-1.21915e-05
-1.18526e-05
-8.93453e-06
-2.23628e-06
9.03953e-06
2.43766e-05
4.06962e-05
5.24538e-05
5.03919e-05
2.46651e-05
-2.42877e-05
-3.97139e-05
-2.22385e-05
-1.24304e-05
-6.90026e-06
-3.72685e-06
-1.99417e-06
-1.04128e-06
-5.28299e-07
-2.59692e-07
-1.21249e-07
-5.09046e-08
-2.05246e-08
-9.21155e-09
-4.13042e-09
-1.57991e-09
-6.14701e-10
-2.91636e-10
-7.8075e-11
-4.98598e-12
-2.37614e-13
-2.45962e-14
-9.98322e-15
-4.39021e-15
-8.481e-16
-1.80398e-16
-4.27359e-17
-1.12376e-17
-3.19965e-18
-9.59116e-19
-2.94531e-19
-9.11056e-20
-2.80602e-20
-8.54727e-21
-2.56572e-21
-7.58525e-22
-2.20366e-22
-6.29977e-23
-1.7736e-23
-4.92357e-24
-1.34814e-24
-3.64448e-25
-9.72698e-26
-2.55952e-26
-6.61278e-27
-1.66052e-27
-3.96052e-28
-8.49546e-29
-1.40699e-29
-7.51388e-31
-9.94054e-15
-2.68472e-14
-2.24332e-14
4.93013e-14
3.02598e-13
1.0054e-12
2.77296e-12
7.00422e-12
1.68723e-11
3.95985e-11
9.18347e-11
2.13105e-10
5.00569e-10
1.19826e-09
2.91235e-09
7.06467e-09
1.64111e-08
3.27513e-08
4.28032e-08
1.22539e-08
-2.65783e-08
-2.50742e-08
-1.7639e-08
-1.19573e-08
-1.00776e-08
-1.19165e-08
-1.39559e-08
-2.53508e-08
-5.09625e-08
-1.03751e-07
-2.05871e-07
-3.92555e-07
-7.20309e-07
-1.26034e-06
-2.10006e-06
-3.31073e-06
-4.93232e-06
-6.89571e-06
-9.03242e-06
-1.09786e-05
-1.2182e-05
-1.18502e-05
-8.9456e-06
-2.26872e-06
8.98002e-06
2.42917e-05
4.06019e-05
5.23891e-05
5.04262e-05
2.48678e-05
-2.40108e-05
-3.98557e-05
-2.23177e-05
-1.24749e-05
-6.9253e-06
-3.74027e-06
-2.00144e-06
-1.04516e-06
-5.30323e-07
-2.60724e-07
-1.21796e-07
-5.11832e-08
-2.0634e-08
-9.25039e-09
-4.1489e-09
-1.58835e-09
-6.17256e-10
-2.92335e-10
-7.93683e-11
-5.06829e-12
-2.41739e-13
-2.47504e-14
-1.00227e-14
-4.42986e-15
-8.55438e-16
-1.81842e-16
-4.30477e-17
-1.13123e-17
-3.21936e-18
-9.64701e-19
-2.96188e-19
-9.16068e-20
-2.82125e-20
-8.59318e-21
-2.57938e-21
-7.62525e-22
-2.21518e-22
-6.33242e-23
-1.78271e-23
-4.94856e-24
-1.35491e-24
-3.6626e-25
-9.7748e-26
-2.572e-26
-6.64453e-27
-1.66854e-27
-3.97984e-28
-8.53663e-29
-1.41205e-29
-7.5855e-31
-9.94764e-15
-2.68517e-14
-2.23739e-14
4.95902e-14
3.03531e-13
1.00797e-12
2.77948e-12
7.02005e-12
1.69099e-11
3.96872e-11
9.20451e-11
2.13609e-10
5.01787e-10
1.20123e-09
2.91978e-09
7.08173e-09
1.64456e-08