/*--------------------------------*- C++ -*----------------------------------*\
  =========                 |
  \\      /  F ield         | OpenFOAM: The Open Source CFD Toolbox
   \\    /   O peration     | Website:  https://openfoam.org
    \\  /    A nd           | Version:  10
     \\/     M anipulation  |
\*---------------------------------------------------------------------------*/
FoamFile
{
    format      ascii;
    class       volScalarField;
    location    "1";
    object      RR.N;
}
// * * * * * * * * * * * * * * * * * * * * * * * * * * * * * * * * * * * * * //

dimensions      [1 -3 -1 0 0 0 0];

internalField   nonuniform List<scalar> 
4000
(
-2.72568e-16
-3.95986e-15
-1.72323e-14
-5.49647e-14
-1.51723e-13
-3.85745e-13
-9.29872e-13
-2.1558e-12
-4.83829e-12
-1.05365e-11
-2.22905e-11
-4.59302e-11
-9.25581e-11
-1.83206e-10
-3.57293e-10
-6.85886e-10
-1.30278e-09
-2.44171e-09
-4.40106e-09
-7.88364e-09
-1.34158e-08
-2.19201e-08
-3.44048e-08
-5.1021e-08
-7.3183e-08
-1.02755e-07
-1.43098e-07
-2.00628e-07
-2.8496e-07
-4.17137e-07
-6.27535e-07
-9.6359e-07
-1.4784e-06
-2.2707e-06
-3.34233e-06
-4.6941e-06
-6.24789e-06
-8.66349e-06
-1.19202e-05
-1.73636e-05
-2.64005e-05
-4.06348e-05
-6.19074e-05
-9.25293e-05
-0.000135051
-0.000188503
-0.000245075
-0.000279494
-0.000223238
9.20175e-05
0.00104826
0.00271561
-0.0011156
-0.00062826
-0.000354
-0.000197863
-0.000107935
-5.8043e-05
-3.04564e-05
-1.54901e-05
-7.54718e-06
-3.56006e-06
-1.61788e-06
-6.94803e-07
-2.79688e-07
-1.03854e-07
-3.57799e-08
-1.13161e-08
-3.12539e-09
-7.57565e-10
-1.65905e-10
-3.03215e-11
-4.75489e-12
-6.445e-13
-7.64025e-14
-8.12633e-15
-7.94014e-16
-7.30124e-17
-6.44729e-18
-5.41994e-19
-4.75189e-20
-4.52826e-21
-5.07466e-22
-6.93683e-23
-1.16526e-23
-2.36236e-24
-5.62538e-25
-1.51786e-25
-4.46745e-26
-1.38531e-26
-4.45353e-27
-1.45758e-27
-4.81561e-28
-1.59878e-28
-5.32085e-29
-1.77232e-29
-5.89389e-30
-1.93905e-30
-6.03472e-31
-1.19224e-31
-2.69233e-16
-3.91101e-15
-1.70183e-14
-5.42837e-14
-1.49842e-13
-3.80856e-13
-9.17775e-13
-2.1266e-12
-4.76864e-12
-1.0372e-11
-2.19072e-11
-4.50578e-11
-9.05707e-11
-1.78876e-10
-3.48319e-10
-6.67955e-10
-1.2655e-09
-2.36681e-09
-4.26831e-09
-7.67378e-09
-1.30882e-08
-2.14115e-08
-3.37202e-08
-5.02434e-08
-7.22761e-08
-1.01705e-07
-1.41754e-07
-1.99075e-07
-2.82747e-07
-4.13946e-07
-6.22799e-07
-9.63531e-07
-1.47892e-06
-2.26824e-06
-3.35063e-06
-4.72043e-06
-6.30067e-06
-8.74586e-06
-1.20549e-05
-1.75658e-05
-2.67222e-05
-4.11613e-05
-6.27438e-05
-9.38623e-05
-0.000137094
-0.000191429
-0.000248761
-0.000283043
-0.000223697
0.000102746
0.00108601
0.00273338
-0.00112524
-0.000633303
-0.000356357
-0.000198672
-0.000108534
-5.82277e-05
-3.04809e-05
-1.54707e-05
-7.47758e-06
-3.51557e-06
-1.59045e-06
-6.79091e-07
-2.71363e-07
-1.00498e-07
-3.43901e-08
-1.07841e-08
-2.94468e-09
-7.04552e-10
-1.52217e-10
-2.75117e-11
-4.27644e-12
-5.73532e-13
-6.77552e-14
-7.19777e-15
-7.04335e-16
-6.4946e-17
-5.75507e-18
-4.85783e-19
-4.27784e-20
-4.09051e-21
-4.5878e-22
-6.28239e-23
-1.05079e-23
-2.11936e-24
-5.02653e-25
-1.35289e-25
-3.98436e-26
-1.24602e-26
-4.00509e-27
-1.31361e-27
-4.35203e-28
-1.4491e-28
-4.83744e-29
-1.6164e-29
-5.39292e-30
-1.78004e-30
-5.55629e-31
-1.09988e-31
-2.65699e-16
-3.8599e-15
-1.67976e-14
-5.35866e-14
-1.47948e-13
-3.76188e-13
-9.0636e-13
-2.09865e-12
-4.70012e-12
-1.02038e-11
-2.14928e-11
-4.40267e-11
-8.82538e-11
-1.73911e-10
-3.38003e-10
-6.47355e-10
-1.22706e-09
-2.28989e-09
-4.12531e-09
-7.42298e-09
-1.26941e-08
-2.08708e-08
-3.29035e-08
-4.95795e-08
-7.14384e-08
-1.00725e-07
-1.40527e-07
-1.97627e-07
-2.80655e-07
-4.11164e-07
-6.1881e-07
-9.58431e-07
-1.4698e-06
-2.26986e-06
-3.36652e-06
-4.76157e-06
-6.38429e-06
-8.89603e-06
-1.22626e-05
-1.78933e-05
-2.72463e-05
-4.20003e-05
-6.40904e-05
-9.60181e-05
-0.000140369
-0.000196067
-0.000254641
-0.000288969
-0.000225519
0.000117037
0.00113632
0.00274077
-0.00113925
-0.000640349
-0.000359645
-0.000200158
-0.000108728
-5.81864e-05
-3.03764e-05
-1.53927e-05
-7.34694e-06
-3.44295e-06
-1.5494e-06
-6.57058e-07
-2.60432e-07
-9.5957e-08
-3.25309e-08
-1.00909e-08
-2.71952e-09
-6.41587e-10
-1.3682e-10
-2.44227e-11
-3.7671e-12
-5.03936e-13
-5.93916e-14
-6.30919e-15
-6.17993e-16
-5.70969e-17
-5.07211e-18
-4.27999e-19
-3.77257e-20
-3.61034e-21
-4.05412e-22
-5.5524e-23
-9.31731e-24
-1.88619e-24
-4.48661e-25
-1.20884e-25
-3.5601e-26
-1.11019e-26
-3.5865e-27
-1.17701e-27
-3.89979e-28
-1.29892e-28
-4.33811e-29
-1.45039e-29
-4.84243e-30
-1.59971e-30
-4.99813e-31
-9.90159e-32
-2.60973e-16
-3.79077e-15
-1.64921e-14
-5.25875e-14
-1.45088e-13
-3.68539e-13
-8.87032e-13
-2.05174e-12
-4.59008e-12
-9.95438e-12
-2.09491e-11
-4.28996e-11
-8.59031e-11
-1.69045e-10
-3.28078e-10
-6.27583e-10
-1.18846e-09
-2.22225e-09
-4.00922e-09
-7.20825e-09
-1.23518e-08
-2.03725e-08
-3.22431e-08
-4.88444e-08
-7.06407e-08
-9.98497e-08
-1.39513e-07
-1.96515e-07
-2.78997e-07
-4.09119e-07
-6.16605e-07
-9.53227e-07
-1.46867e-06
-2.27618e-06
-3.3895e-06
-4.81284e-06
-6.50485e-06
-9.05918e-06
-1.25264e-05
-1.82967e-05
-2.78848e-05
-4.30537e-05
-6.5795e-05
-9.86793e-05
-0.000144387
-0.000201728
-0.000261553
-0.000295358
-0.000224516
0.000143551
0.0012208
0.00271832
-0.00115094
-0.000645956
-0.000361962
-0.000200846
-0.000108824
-5.80228e-05
-3.01663e-05
-1.52097e-05
-7.21782e-06
-3.36449e-06
-1.50269e-06
-6.32427e-07
-2.48616e-07
-9.06771e-08
-3.04245e-08
-9.32599e-09
-2.47911e-09
-5.76155e-10
-1.2128e-10
-2.14027e-11
-3.24967e-12
-4.28167e-13
-4.98218e-14
-5.24202e-15
-5.09882e-16
-4.6888e-17
-4.15344e-18
-3.51983e-19
-3.12633e-20
-3.01004e-21
-3.40439e-22
-4.69781e-23
-7.93982e-24
-1.61809e-24
-3.87541e-25
-1.0515e-25
-3.11708e-26
-9.77322e-27
-3.16702e-27
-1.04411e-27
-3.47317e-28
-1.1603e-28
-3.88355e-29
-1.30038e-29
-4.34588e-30
-1.43644e-30
-4.48866e-31
-8.89107e-32
-2.56388e-16
-3.72412e-15
-1.62013e-14
-5.16549e-14
-1.42489e-13
-3.61844e-13
-8.70627e-13
-2.01296e-12
-4.50097e-12
-9.75471e-12
-2.0512e-11
-4.19642e-11
-8.39428e-11
-1.65018e-10
-3.19959e-10
-6.1161e-10
-1.1576e-09
-2.16407e-09
-3.90414e-09
-7.02901e-09
-1.2076e-08
-1.99774e-08
-3.16896e-08
-4.82169e-08
-6.99297e-08
-9.90589e-08
-1.38701e-07
-1.95711e-07
-2.78104e-07
-4.07913e-07
-6.15764e-07
-9.60304e-07
-1.47087e-06
-2.28657e-06
-3.41763e-06
-4.86982e-06
-6.64247e-06
-9.23335e-06
-1.27994e-05
-1.87124e-05
-2.85539e-05
-4.4134e-05
-6.75192e-05
-0.000101348
-0.000148342
-0.000207127
-0.000267634
-0.000299847
-0.000220272
0.000175983
0.00131092
0.00262947
-0.00115264
-0.000646141
-0.000361307
-0.000199884
-0.000108073
-5.74182e-05
-2.97341e-05
-1.49202e-05
-7.05105e-06
-3.27145e-06
-1.45088e-06
-6.05524e-07
-2.35983e-07
-8.52738e-08
-2.83391e-08
-8.59127e-09
-2.25175e-09
-5.15203e-10
-1.07142e-10
-1.85922e-11
-2.78684e-12
-3.6341e-13
-4.19769e-14
-4.39691e-15
-4.26612e-16
-3.91925e-17
-3.47174e-18
-2.92937e-19
-2.59939e-20
-2.52519e-21
-2.88457e-22
-4.01833e-23
-6.82234e-24
-1.39692e-24
-3.36191e-25
-9.16147e-26
-2.72666e-26
-8.57953e-27
-2.78896e-27
-9.21878e-28
-3.07286e-28
-1.02825e-28
-3.44618e-29
-1.15515e-29
-3.86366e-30
-1.27783e-30
-3.9947e-31
-7.91428e-32
-2.51961e-16
-3.65976e-15
-1.59205e-14
-5.07544e-14
-1.39984e-13
-3.55408e-13
-8.54915e-13
-1.976e-12
-4.41661e-12
-9.56721e-12
-2.01056e-11
-4.11049e-11
-8.2171e-11
-1.61449e-10
-3.12931e-10
-5.98151e-10
-1.13242e-09
-2.11847e-09
-3.826e-09
-6.89112e-09
-1.18613e-08
-1.96638e-08
-3.12298e-08
-4.76875e-08
-6.9341e-08
-9.84981e-08
-1.3817e-07
-1.95274e-07
-2.77563e-07
-4.07087e-07
-6.14456e-07
-9.551e-07
-1.4779e-06
-2.29979e-06
-3.4493e-06
-4.93054e-06
-6.78517e-06
-9.40657e-06
-1.30699e-05
-1.91285e-05
-2.92069e-05
-4.51716e-05
-6.90892e-05
-0.000103683
-0.000151639
-0.000211317
-0.000271917
-0.000301214
-0.000210246
0.000220141
0.00142499
0.00249306
-0.00114054
-0.000638692
-0.000356508
-0.000196582
-0.000106087
-5.61541e-05
-2.89363e-05
-1.44267e-05
-6.80859e-06
-3.14673e-06
-1.38844e-06
-5.7552e-07
-2.22684e-07
-7.98366e-08
-2.64087e-08
-7.75221e-09
-2.00717e-09
-4.54763e-10
-9.31426e-11
-1.59568e-11
-2.36622e-12
-3.05973e-13
-3.51267e-14
-3.66548e-15
-3.54846e-16
-3.25679e-17
-2.88489e-18
-2.43391e-19
-2.16276e-20
-2.10529e-21
-2.41433e-22
-3.38057e-23
-5.82503e-24
-1.20708e-24
-2.93262e-25
-8.04605e-26
-2.40632e-26
-7.5973e-27
-2.47563e-27
-8.19315e-28
-2.72719e-28
-9.11915e-29
-3.05525e-29
-1.02399e-29
-3.42495e-30
-1.13277e-30
-3.54132e-31
-7.01609e-32
-2.4786e-16
-3.60017e-15
-1.56608e-14
-4.99233e-14
-1.37678e-13
-3.49504e-13
-8.40566e-13
-1.94242e-12
-4.34042e-12
-9.39892e-12
-1.9743e-11
-4.03432e-11
-8.06098e-11
-1.58322e-10
-3.06797e-10
-5.86428e-10
-1.11043e-09
-2.07829e-09
-3.75574e-09
-6.7643e-09
-1.16634e-08
-1.93969e-08
-3.08454e-08
-4.72473e-08
-6.89135e-08
-9.81146e-08
-1.37871e-07
-1.95153e-07
-2.77597e-07
-4.07367e-07
-6.15444e-07
-9.57962e-07
-1.49697e-06
-2.3165e-06
-3.48263e-06
-4.99007e-06
-6.91817e-06
-9.60259e-06
-1.33204e-05
-1.95028e-05
-2.97936e-05
-4.60738e-05
-7.04359e-05
-0.000105621
-0.000154218
-0.00021421
-0.000273749
-0.000298469
-0.000192493
0.000274894
0.00155003
0.00224013
-0.00110854
-0.000620258
-0.000346269
-0.000189096
-0.00010202
-5.38796e-05
-2.76799e-05
-1.37146e-05
-6.52673e-06
-3.00506e-06
-1.31655e-06
-5.42234e-07
-2.08562e-07
-7.42825e-08
-2.43985e-08
-7.09065e-09
-1.81867e-09
-4.07374e-10
-8.26462e-11
-1.40158e-11
-2.06057e-12
-2.64461e-13
-3.01837e-14
-3.13718e-15
-3.02883e-16
-2.77549e-17
-2.4567e-18
-2.07074e-19
-1.84471e-20
-1.80553e-21
-2.08462e-22
-2.93663e-23
-5.05725e-24
-1.04727e-24
-2.54255e-25
-6.96886e-26
-2.08205e-26
-6.56788e-27
-2.13958e-27
-7.08755e-28
-2.37446e-28
-7.9769e-29
-2.68148e-29
-9.00809e-30
-3.01754e-30
-9.98914e-31
-3.12407e-31
-6.18969e-32
-2.44125e-16
-3.54592e-15
-1.54244e-14
-4.91674e-14
-1.35582e-13
-3.4415e-13
-8.27587e-13
-1.91216e-12
-4.27205e-12
-9.24869e-12
-1.94213e-11
-3.96715e-11
-7.92421e-11
-1.556e-10
-3.0149e-10
-5.76342e-10
-1.09163e-09
-2.04416e-09
-3.69669e-09
-6.65714e-09
-1.15054e-08
-1.9171e-08
-3.05548e-08
-4.69461e-08
-6.86261e-08
-9.78798e-08
-1.37756e-07
-1.9525e-07
-2.77898e-07
-4.08151e-07
-6.16728e-07
-9.60356e-07
-1.49611e-06
-2.33277e-06
-3.51578e-06
-5.0482e-06
-7.03677e-06
-9.73138e-06
-1.3538e-05
-1.98192e-05
-3.02546e-05
-4.67548e-05
-7.14042e-05
-0.000106934
-0.000155781
-0.00021548
-0.000273064
-0.000291619
-0.000169511
0.000337062
0.00168315
0.00191695
-0.00105742
-0.000591358
-0.000329316
-0.000180375
-9.71782e-05
-5.11919e-05
-2.62213e-05
-1.29412e-05
-6.13907e-06
-2.81422e-06
-1.22834e-06
-5.0327e-07
-1.92296e-07
-6.81218e-08
-2.2248e-08
-6.37132e-09
-1.62034e-09
-3.60036e-10
-7.25373e-11
-1.22196e-11
-1.78227e-12
-2.27058e-13
-2.57589e-14
-2.66573e-15
-2.56561e-16
-2.34619e-17
-2.07417e-18
-1.74604e-19
-1.5595e-20
-1.53489e-21
-1.78399e-22
-2.52924e-23
-4.38057e-24
-9.1181e-25
-2.2191e-25
-6.10064e-26
-1.8264e-26
-5.7691e-27
-1.88097e-27
-6.23022e-28
-2.08081e-28
-6.97609e-29
-2.34221e-29
-7.86407e-30
-2.63431e-30
-8.72405e-31
-2.73014e-31
-5.41235e-32
-2.40806e-16
-3.49771e-15
-1.52146e-14
-4.84971e-14
-1.33728e-13
-3.39421e-13
-8.16157e-13
-1.88559e-12
-4.21229e-12
-9.11796e-12
-1.91426e-11
-3.90927e-11
-7.80696e-11
-1.5328e-10
-2.97001e-10
-5.67895e-10
-1.07611e-09
-2.01662e-09
-3.65101e-09
-6.57371e-09
-1.1377e-08
-1.89959e-08
-3.033e-08
-4.67046e-08
-6.84124e-08
-9.77534e-08
-1.37778e-07
-1.95544e-07
-2.78994e-07
-4.09339e-07
-6.1905e-07
-9.6477e-07
-1.50626e-06
-2.35075e-06
-3.54926e-06
-5.10278e-06
-7.14382e-06
-9.8696e-06
-1.37353e-05
-2.01096e-05
-3.06856e-05
-4.73734e-05
-7.22312e-05
-0.000107939
-0.000156713
-0.000215544
-0.000270263
-0.00028106
-0.00014037
0.000410222
0.00183749
0.00159777
-0.000988051
-0.000553345
-0.000308912
-0.000167631
-9.02682e-05
-4.75017e-05
-2.42862e-05
-1.19549e-05
-5.6658e-06
-2.59758e-06
-1.13123e-06
-4.61616e-07
-1.75309e-07
-6.15936e-08
-1.99649e-08
-5.6663e-09
-1.4279e-09
-3.13331e-10
-6.23762e-11
-1.04009e-11
-1.504e-12
-1.90317e-13
-2.14819e-14
-2.21594e-15
-2.12824e-16
-1.94409e-17
-1.71814e-18
-1.44575e-19
-1.29598e-20
-1.28378e-21
-1.50348e-22
-2.14786e-23
-3.74693e-24
-7.85221e-25
-1.92177e-25
-5.30807e-26
-1.59523e-26
-5.05459e-27
-1.65239e-27
-5.48412e-28
-1.83434e-28
-6.15624e-29
-2.06841e-29
-6.94788e-30
-2.32797e-30
-7.71027e-31
-2.41288e-31
-4.7831e-32
-2.37906e-16
-3.45562e-15
-1.50314e-14
-4.79126e-14
-1.32113e-13
-3.3531e-13
-8.06245e-13
-1.86263e-12
-4.16079e-12
-9.00576e-12
-1.89045e-11
-3.85997e-11
-7.70732e-11
-1.51308e-10
-2.93166e-10
-5.60618e-10
-1.06252e-09
-1.99195e-09
-3.60803e-09
-6.49568e-09
-1.12637e-08
-1.88419e-08
-3.01533e-08
-4.65424e-08
-6.82866e-08
-9.77115e-08
-1.3789e-07
-1.9593e-07
-2.79182e-07
-4.10695e-07
-6.21886e-07
-9.70568e-07
-1.50415e-06
-2.36995e-06
-3.58117e-06
-5.15354e-06
-7.23949e-06
-9.96242e-06
-1.39094e-05
-2.03549e-05
-3.1039e-05
-4.78685e-05
-7.28673e-05
-0.000108656
-0.000157221
-0.000215054
-0.000266775
-0.000270028
-0.000112798
0.000474838
0.00196291
0.00106002
-0.000912686
-0.000511692
-0.000285881
-0.000155214
-8.35758e-05
-4.39692e-05
-2.24654e-05
-1.10393e-05
-5.21821e-06
-2.38503e-06
-1.03504e-06
-4.22501e-07
-1.57251e-07
-5.5111e-08
-1.77767e-08
-5.01905e-09
-1.25509e-09
-2.74224e-10
-5.41834e-11
-8.96246e-12
-1.28702e-12
-1.61957e-13
-1.82032e-14
-1.87253e-15
-1.79505e-16
-1.63805e-17
-1.44662e-18
-1.21872e-19
-1.09605e-20
-1.0919e-21
-1.28721e-22
-1.85119e-23
-3.25011e-24
-6.85259e-25
-1.68565e-25
-4.6754e-26
-1.40979e-26
-4.47884e-27
-1.46722e-27
-4.87767e-28
-1.63367e-28
-5.48857e-29
-1.8456e-29
-6.20322e-30
-2.07933e-30
-6.88843e-31
-2.15588e-31
-4.2736e-32
-2.35413e-16
-3.41943e-15
-1.48741e-14
-4.74108e-14
-1.30728e-13
-3.31793e-13
-7.9778e-13
-1.84307e-12
-4.11712e-12
-8.91116e-12
-1.87053e-11
-3.81916e-11
-7.62574e-11
-1.49713e-10
-2.90064e-10
-5.54856e-10
-1.05216e-09
-1.97392e-09
-3.57711e-09
-6.43864e-09
-1.11791e-08
-1.87268e-08
-3.00203e-08
-4.64175e-08
-6.82084e-08
-9.77232e-08
-1.38055e-07
-1.96361e-07
-2.79992e-07
-4.12214e-07
-6.24475e-07
-9.75448e-07
-1.53209e-06
-2.38618e-06
-3.60867e-06
-5.1964e-06
-7.31756e-06
-1.00614e-05
-1.40483e-05
-2.05499e-05
-3.13148e-05
-4.82452e-05
-7.33322e-05
-0.00010914
-0.000157385
-0.000214047
-0.000262688
-0.000258471
-8.49629e-05
0.000539157
0.0020878
0.000577623
-0.000841387
-0.000471146
-0.000262525
-0.000143255
-7.70117e-05
-4.0455e-05
-2.06261e-05
-1.01083e-05
-4.77117e-06
-2.17772e-06
-9.42823e-07
-3.83558e-07
-1.42379e-07
-4.95928e-08
-1.59358e-08
-4.46643e-09
-1.10914e-09
-2.41293e-10
-4.74472e-11
-7.79562e-12
-1.11308e-12
-1.39464e-13
-1.56231e-14
-1.6037e-15
-1.53514e-16
-1.39996e-17
-1.23351e-18
-1.04706e-19
-9.44378e-21
-9.45666e-22
-1.12183e-22
-1.62371e-23
-2.86783e-24
-6.07945e-25
-1.50223e-25
-4.18187e-26
-1.26455e-26
-4.02648e-27
-1.32043e-27
-4.39524e-28
-1.47352e-28
-4.95422e-29
-1.66687e-29
-5.60487e-30
-1.87931e-30
-6.22685e-31
-1.94893e-31
-3.86328e-32
-2.33296e-16
-3.3887e-15
-1.47405e-14
-4.69855e-14
-1.29556e-13
-3.2882e-13
-7.90643e-13
-1.82663e-12
-4.08052e-12
-8.83224e-12
-1.854e-11
-3.78547e-11
-7.5588e-11
-1.48412e-10
-2.87538e-10
-5.50223e-10
-1.04368e-09
-1.95833e-09
-3.55017e-09
-6.39119e-09
-1.11084e-08
-1.8637e-08
-2.99216e-08
-4.63337e-08
-6.81678e-08
-9.77692e-08
-1.38245e-07
-1.96783e-07
-2.80732e-07
-4.13385e-07
-6.2636e-07
-9.78189e-07
-1.53506e-06
-2.39893e-06
-3.63222e-06
-5.23289e-06
-7.38226e-06
-1.0142e-05
-1.41554e-05
-2.06889e-05
-3.14897e-05
-4.84379e-05
-7.34788e-05
-0.000109544
-0.000157157
-0.000212316
-0.000257409
-0.000245003
-5.29685e-05
0.000612864
0.0022336
0.000275341
-0.000763183
-0.000428853
-0.000239763
-0.000130781
-7.0377e-05
-3.69702e-05
-1.88407e-05
-9.21795e-06
-4.34773e-06
-1.98277e-06
-8.56949e-07
-3.47748e-07
-1.28964e-07
-4.47985e-08
-1.43293e-08
-3.99944e-09
-9.87553e-10
-2.14777e-10
-4.20859e-11
-6.90129e-12
-9.80942e-13
-1.22457e-13
-1.36776e-14
-1.40121e-15
-1.3394e-16
-1.22051e-17
-1.07321e-18
-9.16875e-20
-8.28924e-21
-8.34013e-22
-9.95359e-23
-1.44927e-23
-2.57309e-24
-5.47917e-25
-1.35901e-25
-3.79484e-26
-1.15027e-26
-3.66944e-27
-1.20461e-27
-4.01356e-28
-1.3465e-28
-4.5295e-29
-1.52455e-29
-5.12769e-30
-1.71962e-30
-5.69822e-31
-1.78349e-31
-3.53521e-32
-2.31517e-16
-3.3629e-15
-1.46285e-14
-4.66287e-14
-1.28573e-13
-3.2633e-13
-7.84674e-13
-1.8129e-12
-4.05004e-12
-8.7667e-12
-1.84033e-11
-3.75778e-11
-7.50432e-11
-1.4737e-10
-2.85561e-10
-5.46588e-10
-1.03692e-09
-1.94635e-09
-3.53011e-09
-6.35475e-09
-1.10555e-08
-1.85687e-08
-2.98453e-08
-4.62733e-08
-6.81536e-08
-9.78444e-08
-1.38464e-07
-1.97238e-07
-2.81532e-07
-4.14613e-07
-6.29005e-07
-9.83394e-07
-1.53412e-06
-2.41327e-06
-3.65468e-06
-5.26622e-06
-7.44141e-06
-1.02159e-05
-1.42562e-05
-2.08285e-05
-3.16811e-05
-4.86883e-05
-7.37744e-05
-0.000109804
-0.000157092
-0.000211303
-0.000254062
-0.000236287
-3.26302e-05
0.000657669
0.00231329
-0.000180173
-0.000704289
-0.000395499
-0.000221174
-0.000120195
-6.46778e-05
-3.39644e-05
-1.72993e-05
-8.46036e-06
-3.9885e-06
-1.81985e-06
-7.86025e-07
-3.18238e-07
-1.17992e-07
-4.09138e-08
-1.3042e-08
-3.62549e-09
-8.90549e-10
-1.93694e-10
-3.77475e-11
-6.15702e-12
-8.71976e-13
-1.08528e-13
-1.20942e-14
-1.23724e-15
-1.18152e-16
-1.0762e-17
-9.4492e-19
-8.12101e-20
-7.35994e-21
-7.43955e-22
-8.93162e-23
-1.30845e-23
-2.33616e-24
-4.99938e-25
-1.24512e-25
-3.48806e-26
-1.0598e-26
-3.38674e-27
-1.11314e-27
-3.71205e-28
-1.24615e-28
-4.19399e-29
-1.41214e-29
-4.75092e-30
-1.59355e-30
-5.28096e-31
-1.6529e-31
-3.27624e-32
-2.3004e-16
-3.34147e-15
-1.45354e-14
-4.63322e-14
-1.27757e-13
-3.24261e-13
-7.7971e-13
-1.80147e-12
-4.02461e-12
-8.71182e-12
-1.82882e-11
-3.73429e-11
-7.45761e-11
-1.46462e-10
-2.83799e-10
-5.43228e-10
-1.03091e-09
-1.93602e-09
-3.51359e-09
-6.32545e-09
-1.10149e-08
-1.85165e-08
-2.97911e-08
-4.62374e-08
-6.81611e-08
-9.79321e-08
-1.38684e-07
-1.9769e-07
-2.82375e-07
-4.1624e-07
-6.32457e-07
-9.95202e-07
-1.55905e-06
-2.42622e-06
-3.6745e-06
-5.29564e-06
-7.49276e-06
-1.0281e-05
-1.43463e-05
-2.09546e-05
-3.18554e-05
-4.89161e-05
-7.40372e-05
-0.000110015
-0.000156983
-0.000210264
-0.000250684
-0.000227504
-1.16866e-05
0.000705257
0.00240205
-0.000425739
-0.000649875
-0.000366027
-0.000205096
-0.000111564
-6.00935e-05
-3.15904e-05
-1.60962e-05
-7.86409e-06
-3.70656e-06
-1.69148e-06
-7.2966e-07
-2.94871e-07
-1.09266e-07
-3.77868e-08
-1.20184e-08
-3.33158e-09
-8.15625e-10
-1.77449e-10
-3.44803e-11
-5.60676e-12
-7.91774e-13
-9.8305e-14
-1.09341e-14
-1.1172e-15
-1.06598e-16
-9.70587e-18
-8.51077e-19
-7.35265e-20
-6.67891e-21
-6.77982e-22
-8.18135e-23
-1.20453e-23
-2.16021e-24
-4.64068e-25
-1.15936e-25
-3.25535e-26
-9.90697e-27
-3.16948e-27
-1.04256e-27
-3.47885e-28
-1.16847e-28
-3.93426e-29
-1.32517e-29
-4.45959e-30
-1.49613e-30
-4.95863e-31
-1.55205e-31
-3.07626e-32
-2.28836e-16
-3.324e-15
-1.44594e-14
-4.60905e-14
-1.27091e-13
-3.22574e-13
-7.75664e-13
-1.79215e-12
-4.00388e-12
-8.66706e-12
-1.81943e-11
-3.7151e-11
-7.4194e-11
-1.45719e-10
-2.82354e-10
-5.40667e-10
-1.02645e-09
-1.92833e-09
-3.50082e-09
-6.30242e-09
-1.09816e-08
-1.84758e-08
-2.9751e-08
-4.62168e-08
-6.81805e-08
-9.80193e-08
-1.38876e-07
-1.9804e-07
-2.82928e-07
-4.16961e-07
-6.33111e-07
-9.94027e-07
-1.54681e-06
-2.43563e-06
-3.69095e-06
-5.32043e-06
-7.53586e-06
-1.03369e-05
-1.44256e-05
-2.1069e-05
-3.20191e-05
-4.91389e-05
-7.43097e-05
-0.000110288
-0.000157095
-0.000209808
-0.000248694
-0.000221759
2.69407e-06
0.000739031
0.00246381
-0.000586
-0.000618081
-0.00034795
-0.000194935
-0.000106025
-5.7076e-05
-2.9987e-05
-1.52699e-05
-7.45348e-06
-3.51143e-06
-1.60087e-06
-6.89791e-07
-2.78267e-07
-1.03066e-07
-3.55778e-08
-1.12983e-08
-3.12402e-09
-7.62716e-10
-1.65935e-10
-3.21743e-11
-5.21829e-12
-7.3512e-13
-9.10785e-14
-1.01135e-14
-1.03222e-15
-9.84125e-17
-8.95695e-18
-7.84418e-19
-6.80433e-20
-6.18818e-21
-6.29811e-22
-7.62796e-23
-1.12762e-23
-2.03001e-24
-4.37533e-25
-1.09584e-25
-3.08244e-26
-9.39161e-27
-3.00692e-27
-9.89613e-28
-3.30355e-28
-1.11e-28
-3.73862e-29
-1.25964e-29
-4.24002e-30
-1.42269e-30
-4.71564e-31
-1.47601e-31
-2.92548e-32
-2.27879e-16
-3.31011e-15
-1.43991e-14
-4.58986e-14
-1.26563e-13
-3.21238e-13
-7.72462e-13
-1.78479e-12
-3.98752e-12
-8.63179e-12
-1.81205e-11
-3.70012e-11
-7.38994e-11
-1.45156e-10
-2.81279e-10
-5.38716e-10
-1.0229e-09
-1.92213e-09
-3.49059e-09
-6.28455e-09
-1.09578e-08
-1.84473e-08
-2.97249e-08
-4.6207e-08
-6.82049e-08
-9.81006e-08
-1.39045e-07
-1.98337e-07
-2.83386e-07
-4.17635e-07
-6.34176e-07
-9.9018e-07
-1.5597e-06
-2.44326e-06
-3.70529e-06
-5.34268e-06
-7.57452e-06
-1.0388e-05
-1.44988e-05
-2.11747e-05
-3.21745e-05
-4.93566e-05
-7.45981e-05
-0.00011063
-0.000157397
-0.000209797
-0.00024764
-0.000217823
1.39842e-05
0.000768592
0.00252293
-0.00064246
-0.00060174
-0.000338315
-0.000189311
-0.000102882
-5.53262e-05
-2.90366e-05
-1.47647e-05
-7.19545e-06
-3.38716e-06
-1.54299e-06
-6.64044e-07
-2.67482e-07
-9.90183e-08
-3.41227e-08
-1.0812e-08
-2.98293e-09
-7.25913e-10
-1.57939e-10
-3.05574e-11
-4.94517e-12
-6.95218e-13
-8.59832e-14
-9.53455e-15
-9.72267e-16
-9.26366e-17
-8.42849e-18
-7.37315e-19
-6.41631e-20
-5.83915e-21
-5.95268e-22
-7.22665e-23
-1.07125e-23
-1.93413e-24
-4.18012e-25
-1.04929e-25
-2.95628e-26
-9.01678e-27
-2.88889e-27
-9.51193e-28
-3.17633e-28
-1.06753e-28
-3.59638e-29
-1.21193e-29
-4.07995e-30
-1.36909e-30
-4.53805e-31
-1.42039e-31
-2.81509e-32
-2.27147e-16
-3.2995e-15
-1.4353e-14
-4.57521e-14
-1.2616e-13
-3.2022e-13
-7.70031e-13
-1.77923e-12
-3.97526e-12
-8.60567e-12
-1.80664e-11
-3.68927e-11
-7.36867e-11
-1.44744e-10
-2.80468e-10
-5.37194e-10
-1.02013e-09
-1.91736e-09
-3.48289e-09
-6.27089e-09
-1.0939e-08
-1.84254e-08
-2.97063e-08
-4.62037e-08
-6.82312e-08
-9.81777e-08
-1.392e-07
-1.98614e-07
-2.83846e-07
-4.18395e-07
-6.35532e-07
-9.92582e-07
-1.5636e-06
-2.45084e-06
-3.71766e-06
-5.36109e-06
-7.60615e-06
-1.04307e-05
-1.45616e-05
-2.12697e-05
-3.23199e-05
-4.95746e-05
-7.49156e-05
-0.000111074
-0.000157963
-0.000210394
-0.000247947
-0.000216995
1.79264e-05
0.000779846
0.00254133
-0.000748821
-0.000590923
-0.000332343
-0.000185898
-0.000101149
-5.43585e-05
-2.85076e-05
-1.44839e-05
-7.05115e-06
-3.31658e-06
-1.50973e-06
-6.48975e-07
-2.6101e-07
-9.65731e-08
-3.3232e-08
-1.05132e-08
-2.89513e-09
-7.02931e-10
-1.52935e-10
-2.9528e-11
-4.76987e-12
-6.69448e-13
-8.26776e-14
-9.15758e-15
-9.33102e-16
-8.88537e-17
-8.08151e-18
-7.06264e-19
-6.16132e-20
-5.60873e-21
-5.72178e-22
-6.95321e-23
-1.03222e-23
-1.86721e-24
-4.04344e-25
-1.01663e-25
-2.86767e-26
-8.75345e-27
-2.80602e-27
-9.24247e-28
-3.08719e-28
-1.03779e-28
-3.49673e-29
-1.17847e-29
-3.96757e-30
-1.33139e-30
-4.41296e-31
-1.38115e-31
-2.73716e-32
-2.26623e-16
-3.2919e-15
-1.43201e-14
-4.56479e-14
-1.25875e-13
-3.19504e-13
-7.68331e-13
-1.77536e-12
-3.96672e-12
-8.58721e-12
-1.80274e-11
-3.6812e-11
-7.35233e-11
-1.44425e-10
-2.79854e-10
-5.36103e-10
-1.01822e-09
-1.9141e-09
-3.47761e-09
-6.26159e-09
-1.09265e-08
-1.84111e-08
-2.96948e-08
-4.62037e-08
-6.82537e-08
-9.82383e-08
-1.39323e-07
-1.9884e-07
-2.84248e-07
-4.19138e-07
-6.37004e-07
-9.95656e-07
-1.55876e-06
-2.45787e-06
-3.72745e-06
-5.37523e-06
-7.63014e-06
-1.04638e-05
-1.46113e-05
-2.13473e-05
-3.24418e-05
-4.97639e-05
-7.52031e-05
-0.000111496
-0.000158549
-0.00021112
-0.000248601
-0.000216867
2.08419e-05
0.000791115
0.00256508
-0.00078029
-0.000590043
-0.000331263
-0.000185071
-0.000100433
-5.39261e-05
-2.82582e-05
-1.43453e-05
-6.97758e-06
-3.27981e-06
-1.49188e-06
-6.40674e-07
-2.57363e-07
-9.51862e-08
-3.27201e-08
-1.03385e-08
-2.84303e-09
-6.89094e-10
-1.49905e-10
-2.89031e-11
-4.66252e-12
-6.53537e-13
-8.06211e-14
-8.92171e-15
-9.08496e-16
-8.64671e-17
-7.86215e-18
-6.86568e-19
-5.99994e-20
-5.46205e-21
-5.57318e-22
-6.7748e-23
-1.00652e-23
-1.82299e-24
-3.95303e-25
-9.94994e-26
-2.80882e-26
-8.57822e-27
-2.75082e-27
-9.06282e-28
-3.02774e-28
-1.01795e-28
-3.43024e-29
-1.15615e-29
-3.89251e-30
-1.30619e-30
-4.3292e-31
-1.35484e-31
-2.68488e-32
-2.26285e-16
-3.28701e-15
-1.42989e-14
-4.55803e-14
-1.25689e-13
-3.19031e-13
-7.67192e-13
-1.77271e-12
-3.96074e-12
-8.57422e-12
-1.80001e-11
-3.67566e-11
-7.3415e-11
-1.44219e-10
-2.7946e-10
-5.35391e-10
-1.01698e-09
-1.912e-09
-3.47432e-09
-6.25584e-09
-1.09189e-08
-1.84025e-08
-2.96882e-08
-4.62052e-08
-6.82705e-08
-9.82809e-08
-1.39407e-07
-1.98993e-07
-2.85148e-07
-4.19603e-07
-6.37862e-07
-9.97233e-07
-1.56077e-06
-2.462e-06
-3.73375e-06
-5.38452e-06
-7.64593e-06
-1.04859e-05
-1.4645e-05
-2.14015e-05
-3.25266e-05
-4.98978e-05
-7.54094e-05
-0.000111806
-0.000158988
-0.000211677
-0.000249149
-0.00021698
2.22997e-05
0.00079697
0.00257642
-0.000814607
-0.000587436
-0.000329785
-0.000184206
-9.99664e-05
-5.36836e-05
-2.81293e-05
-1.42762e-05
-6.94147e-06
-3.26185e-06
-1.483e-06
-6.36464e-07
-2.55471e-07
-9.44603e-08
-3.24466e-08
-1.02442e-08
-2.81451e-09
-6.81394e-10
-1.48228e-10
-2.85531e-11
-4.60177e-12
-6.44457e-13
-7.94405e-14
-8.78552e-15
-8.94223e-16
-8.50834e-17
-7.73501e-18
-6.75114e-19
-5.90678e-20
-5.37696e-21
-5.48616e-22
-6.66943e-23
-9.91293e-24
-1.7968e-24
-3.89943e-25
-9.82147e-26
-2.77385e-26
-8.47425e-27
-2.71816e-27
-8.95688e-28
-2.99273e-28
-1.00625e-28
-3.39094e-29
-1.14289e-29
-3.84774e-30
-1.29108e-30
-4.27876e-31
-1.33894e-31
-2.65321e-32
-2.26115e-16
-3.28454e-15
-1.42882e-14
-4.55461e-14
-1.25595e-13
-3.18792e-13
-7.66617e-13
-1.77139e-12
-3.95783e-12
-8.56797e-12
-1.79871e-11
-3.67301e-11
-7.33631e-11
-1.4412e-10
-2.7927e-10
-5.35051e-10
-1.01638e-09
-1.911e-09
-3.47272e-09
-6.25303e-09
-1.09151e-08
-1.83984e-08
-2.96853e-08
-4.62066e-08
-6.828e-08
-9.83039e-08
-1.39451e-07
-1.99069e-07
-2.85213e-07
-4.1984e-07
-6.38323e-07
-9.9817e-07
-1.57759e-06
-2.46408e-06
-3.73676e-06
-5.38896e-06
-7.65351e-06
-1.04965e-05
-1.46611e-05
-2.14269e-05
-3.25674e-05
-4.99628e-05
-7.55108e-05
-0.000111962
-0.000159218
-0.000212004
-0.000249595
-0.000217619
2.10782e-05
0.000793366
0.0025651
-0.000856804
-0.000583822
-0.000327933
-0.0001829
-0.000100204
-5.37574e-05
-2.8144e-05
-1.42733e-05
-6.9355e-06
-3.25747e-06
-1.48035e-06
-6.35021e-07
-2.54763e-07
-9.41791e-08
-3.23365e-08
-1.02049e-08
-2.8023e-09
-6.78037e-10
-1.47488e-10
-2.83973e-11
-4.57453e-12
-6.40367e-13
-7.89072e-14
-8.72392e-15
-8.87751e-16
-8.44499e-17
-7.6763e-18
-6.69754e-19
-5.86329e-20
-5.33667e-21
-5.44466e-22
-6.61926e-23
-9.84031e-24
-1.78417e-24
-3.87317e-25
-9.75774e-26
-2.7564e-26
-8.42239e-27
-2.70193e-27
-8.90455e-28
-2.97557e-28
-1.00057e-28
-3.37199e-29
-1.13654e-29
-3.82636e-30
-1.28388e-30
-4.25474e-31
-1.33137e-31
-2.63811e-32
-2.26112e-16
-3.28449e-15
-1.42879e-14
-4.55453e-14
-1.25592e-13
-3.18786e-13
-7.66603e-13
-1.77136e-12
-3.95776e-12
-8.56782e-12
-1.79868e-11
-3.67296e-11
-7.33622e-11
-1.44119e-10
-2.79268e-10
-5.35048e-10
-1.01638e-09
-1.911e-09
-3.47273e-09
-6.25304e-09
-1.09152e-08
-1.83986e-08
-2.96856e-08
-4.6207e-08
-6.82805e-08
-9.83035e-08
-1.39445e-07
-1.99042e-07
-2.84909e-07
-4.19637e-07
-6.3774e-07
-9.96456e-07
-1.57074e-06
-2.46229e-06
-3.73603e-06
-5.38853e-06
-7.65307e-06
-1.04958e-05
-1.46599e-05
-2.14237e-05
-3.25629e-05
-4.99541e-05
-7.5493e-05
-0.000111925
-0.000159141
-0.000211839
-0.000249229
-0.00021675
2.33254e-05
0.000799725
0.00258027
-0.000819728
-0.000586232
-0.000329161
-0.000183881
-9.98269e-05
-5.36e-05
-2.80803e-05
-1.42481e-05
-6.92603e-06
-3.25409e-06
-1.47912e-06
-6.34591e-07
-2.54622e-07
-9.41369e-08
-3.23246e-08
-1.02017e-08
-2.80158e-09
-6.77889e-10
-1.47459e-10
-2.83923e-11
-4.57378e-12
-6.40269e-13
-7.88958e-14
-8.72271e-15
-8.87634e-16
-8.44394e-17
-7.67539e-18
-6.69683e-19
-5.86329e-20
-5.33727e-21
-5.44606e-22
-6.62132e-23
-9.84201e-24
-1.78405e-24
-3.87216e-25
-9.75432e-26
-2.75545e-26
-8.42e-27
-2.70139e-27
-8.9035e-28
-2.97541e-28
-1.00056e-28
-3.37201e-29
-1.13655e-29
-3.82633e-30
-1.28384e-30
-4.25451e-31
-1.33127e-31
-2.63787e-32
-2.26276e-16
-3.28688e-15
-1.42983e-14
-4.55781e-14
-1.25682e-13
-3.19012e-13
-7.67141e-13
-1.77259e-12
-3.96049e-12
-8.57371e-12
-1.79991e-11
-3.67547e-11
-7.34118e-11
-1.44214e-10
-2.79452e-10
-5.35381e-10
-1.01697e-09
-1.91199e-09
-3.47432e-09
-6.25584e-09
-1.09189e-08
-1.84028e-08
-2.96888e-08
-4.62062e-08
-6.82717e-08
-9.82809e-08
-1.39401e-07
-1.98969e-07
-2.84436e-07
-4.19385e-07
-6.37281e-07
-9.95803e-07
-1.5659e-06
-2.46035e-06
-3.73277e-06
-5.38366e-06
-7.64486e-06
-1.04843e-05
-1.46424e-05
-2.13969e-05
-3.25184e-05
-4.98839e-05
-7.53849e-05
-0.000111764
-0.000158916
-0.00021156
-0.000248967
-0.000216726
2.253e-05
0.000796669
0.00257377
-0.000805247
-0.000588434
-0.00033042
-0.000184604
-0.000100169
-5.37682e-05
-2.81646e-05
-1.42909e-05
-6.9475e-06
-3.26442e-06
-1.48405e-06
-6.3687e-07
-2.55624e-07
-9.4517e-08
-3.24661e-08
-1.02503e-08
-2.81619e-09
-6.81819e-10
-1.48316e-10
-2.85703e-11
-4.60445e-12
-6.44821e-13
-7.94867e-14
-8.79075e-15
-8.9474e-16
-8.51289e-17
-7.73883e-18
-6.75418e-19
-5.91069e-20
-5.38123e-21
-5.49124e-22
-6.675e-23
-9.91643e-24
-1.79621e-24
-3.8959e-25
-9.80953e-26
-2.77037e-26
-8.46484e-27
-2.71578e-27
-8.95124e-28
-2.9915e-28
-1.00601e-28
-3.39047e-29
-1.14279e-29
-3.84741e-30
-1.29093e-30
-4.27809e-31
-1.33867e-31
-2.65257e-32
-2.26618e-16
-3.29183e-15
-1.43198e-14
-4.56464e-14
-1.2587e-13
-3.19486e-13
-7.68274e-13
-1.77519e-12
-3.96625e-12
-8.5861e-12
-1.8025e-11
-3.68075e-11
-7.35161e-11
-1.44415e-10
-2.79843e-10
-5.36093e-10
-1.01822e-09
-1.91412e-09
-3.47768e-09
-6.26175e-09
-1.09268e-08
-1.84117e-08
-2.96957e-08
-4.6205e-08
-6.82549e-08
-9.82378e-08
-1.39316e-07
-1.98817e-07
-2.84182e-07
-4.1896e-07
-6.36552e-07
-9.94559e-07
-1.56311e-06
-2.45648e-06
-3.72647e-06
-5.3742e-06
-7.6287e-06
-1.04619e-05
-1.46086e-05
-2.13431e-05
-3.24355e-05
-4.97553e-05
-7.51905e-05
-0.000111479
-0.000158521
-0.00021107
-0.0002485
-0.000216675
2.11347e-05
0.000791249
0.00256347
-0.000772782
-0.000590718
-0.000331827
-0.000185469
-0.000100674
-5.406e-05
-2.83285e-05
-1.43803e-05
-6.99433e-06
-3.28754e-06
-1.4952e-06
-6.42037e-07
-2.5789e-07
-9.53833e-08
-3.27884e-08
-1.03604e-08
-2.849e-09
-6.90519e-10
-1.50211e-10
-2.89611e-11
-4.67178e-12
-6.54879e-13
-8.07881e-14
-8.93975e-15
-9.10309e-16
-8.66401e-17
-7.87792e-18
-6.87964e-19
-6.01376e-20
-5.47525e-21
-5.58545e-22
-6.78506e-23
-1.00705e-23