/*--------------------------------*- C++ -*----------------------------------*\
  =========                 |
  \\      /  F ield         | OpenFOAM: The Open Source CFD Toolbox
   \\    /   O peration     | Website:  https://openfoam.org
    \\  /    A nd           | Version:  10
     \\/     M anipulation  |
\*---------------------------------------------------------------------------*/
FoamFile
{
    format      ascii;
    class       volScalarField;
    location    "1";
    object      RR.N2H2;
}
// * * * * * * * * * * * * * * * * * * * * * * * * * * * * * * * * * * * * * //

dimensions      [1 -3 -1 0 0 0 0];

internalField   nonuniform List<scalar> 
4000
(
-5.03076e-16
-7.24934e-15
-3.10015e-14
-9.63125e-14
-2.56957e-13
-6.2784e-13
-1.45119e-12
-3.2367e-12
-7.07115e-12
-1.53404e-11
-3.35056e-11
-7.46603e-11
-1.713e-10
-4.0528e-10
-9.82489e-10
-2.40647e-09
-5.93095e-09
-1.45499e-08
-3.41136e-08
-8.00328e-08
-1.75766e-07
-3.66834e-07
-7.26442e-07
-1.31069e-06
-2.1984e-06
-3.46338e-06
-5.2187e-06
-7.68246e-06
-1.12343e-05
-1.67472e-05
-2.57174e-05
-4.14919e-05
-6.29187e-05
-9.07477e-05
-0.00012248
-0.000150179
-0.000166858
-0.00017878
-0.00019291
-0.000213417
-0.00022839
-0.000221575
-0.000175021
-6.5953e-05
0.000129307
0.0004175
0.000779686
0.00116816
0.00147529
0.0014723
0.000732748
-0.00107534
-0.0012347
-0.000692751
-0.000387252
-0.000214605
-0.000116281
-6.21782e-05
-3.24642e-05
-1.64793e-05
-8.06276e-06
-3.76877e-06
-1.69363e-06
-7.05953e-07
-2.55493e-07
-8.17075e-08
-2.51736e-08
-7.45701e-09
-1.96131e-09
-4.63352e-10
-1.02504e-10
-1.94256e-11
-3.33392e-12
-5.34092e-13
-8.27946e-14
-1.31341e-14
-2.23529e-15
-4.23775e-16
-9.06243e-17
-2.15827e-17
-5.57833e-18
-1.51599e-18
-4.23179e-19
-1.19266e-19
-3.3608e-20
-9.41724e-21
-2.61843e-21
-7.21409e-22
-1.9704e-22
-5.33956e-23
-1.43362e-23
-3.81754e-24
-1.00834e-24
-2.6362e-25
-6.78816e-26
-1.69695e-26
-4.03857e-27
-8.61036e-28
-1.47466e-28
-7.5085e-30
-4.9904e-16
-7.19115e-15
-3.07557e-14
-9.55787e-14
-2.55105e-13
-6.23546e-13
-1.44166e-12
-3.21567e-12
-7.02283e-12
-1.52204e-11
-3.31802e-11
-7.3718e-11
-1.68442e-10
-3.96759e-10
-9.5802e-10
-2.33869e-09
-5.73709e-09
-1.40138e-08
-3.28151e-08
-7.72111e-08
-1.69811e-07
-3.54238e-07
-7.03302e-07
-1.27729e-06
-2.15324e-06
-3.40808e-06
-5.15059e-06
-7.60617e-06
-1.11325e-05
-1.66043e-05
-2.55025e-05
-4.09551e-05
-6.24684e-05
-9.05781e-05
-0.000122703
-0.000151002
-0.00016822
-0.000179504
-0.000194364
-0.000214729
-0.000229511
-0.000222177
-0.000174481
-6.3349e-05
0.000135156
0.000427806
0.000795078
0.00118787
0.00149487
0.00148073
0.000703357
-0.00114217
-0.00121157
-0.000679583
-0.00037967
-0.000210161
-0.000114183
-6.09682e-05
-3.17673e-05
-1.61025e-05
-7.81695e-06
-3.63855e-06
-1.63007e-06
-6.72804e-07
-2.40174e-07
-7.66185e-08
-2.35104e-08
-6.90508e-09
-1.79565e-09
-4.19496e-10
-9.19093e-11
-1.7351e-11
-2.97198e-12
-4.73641e-13
-7.39018e-14
-1.18259e-14
-2.03853e-15
-3.92069e-16
-8.50824e-17
-2.05352e-17
-5.3734e-18
-1.47644e-18
-4.16086e-19
-1.18345e-19
-3.36184e-20
-9.48877e-21
-2.65558e-21
-7.35092e-22
-2.01338e-22
-5.45662e-23
-1.46749e-23
-3.90846e-24
-1.03134e-24
-2.6912e-25
-6.89853e-26
-1.72968e-26
-4.12923e-27
-8.81724e-28
-1.44274e-28
-8.32523e-30
-4.95985e-16
-7.14847e-15
-3.05836e-14
-9.50844e-14
-2.5391e-13
-6.20949e-13
-1.43611e-12
-3.20308e-12
-6.99128e-12
-1.51314e-11
-3.29023e-11
-7.27901e-11
-1.65531e-10
-3.87935e-10
-9.32055e-10
-2.26582e-09
-5.54685e-09
-1.34883e-08
-3.14818e-08
-7.39786e-08
-1.62855e-07
-3.41377e-07
-6.76977e-07
-1.24924e-06
-2.11139e-06
-3.35369e-06
-5.08114e-06
-7.52029e-06
-1.10141e-05
-1.64289e-05
-2.52146e-05
-4.03929e-05
-6.21797e-05
-9.03742e-05
-0.0001231
-0.00015229
-0.000170231
-0.0001825
-0.00019664
-0.000216841
-0.000231332
-0.000223163
-0.000173757
-5.95133e-05
0.000143786
0.00044268
0.000816444
0.00121427
0.00151921
0.00148516
0.000654008
-0.00125441
-0.00117728
-0.000660547
-0.000368967
-0.000204187
-0.000110476
-5.89106e-05
-3.06563e-05
-1.55429e-05
-7.45577e-06
-3.45696e-06
-1.54354e-06
-6.29037e-07
-2.2112e-07
-7.02133e-08
-2.14273e-08
-6.23639e-09
-1.60332e-09
-3.70731e-10
-8.06224e-11
-1.51302e-11
-2.59416e-12
-4.16364e-13
-6.53644e-14
-1.05657e-14
-1.84266e-15
-3.58975e-16
-7.88615e-17
-1.91717e-17
-5.06639e-18
-1.40642e-18
-4.00535e-19
-1.15025e-19
-3.29598e-20
-9.37075e-21
-2.63869e-21
-7.34027e-22
-2.01912e-22
-5.49387e-23
-1.48008e-23
-3.9475e-24
-1.04222e-24
-2.71876e-25
-6.97959e-26
-1.74617e-26
-4.16103e-27
-8.80546e-28
-1.47734e-28
-8.0105e-30
-4.91192e-16
-7.07955e-15
-3.02897e-14
-9.4174e-14
-2.51479e-13
-6.14947e-13
-1.42196e-12
-3.1703e-12
-6.91434e-12
-1.49441e-11
-3.24254e-11
-7.15429e-11
-1.62115e-10
-3.78402e-10
-9.05522e-10
-2.19357e-09
-5.35384e-09
-1.30238e-08
-3.04023e-08
-7.12507e-08
-1.56929e-07
-3.29523e-07
-6.5548e-07
-1.21808e-06
-2.07108e-06
-3.30386e-06
-5.01888e-06
-7.44538e-06
-1.09142e-05
-1.62853e-05
-2.49792e-05
-3.99871e-05
-6.19175e-05
-9.02677e-05
-0.000123622
-0.000153757
-0.000172571
-0.000185537
-0.000199338
-0.00021933
-0.000233369
-0.000224112
-0.000172401
-5.39874e-05
0.000155909
0.000463618
0.000846983
0.00125334
0.00155446
0.00149014
0.000575073
-0.00136104
-0.00114229
-0.000640221
-0.000357136
-0.000197283
-0.000106569
-5.66838e-05
-2.94104e-05
-1.48513e-05
-7.08586e-06
-3.26456e-06
-1.44861e-06
-5.81958e-07
-2.01533e-07
-6.33042e-08
-1.92335e-08
-5.54226e-09
-1.41109e-09
-3.22705e-10
-6.97015e-11
-1.30098e-11
-2.20305e-12
-3.50854e-13
-5.49566e-14
-8.91389e-15
-1.5667e-15
-3.08608e-16
-6.88202e-17
-1.72105e-17
-4.64471e-18
-1.306e-18
-3.76433e-19
-1.09256e-19
-3.15887e-20
-9.05121e-21
-2.5666e-21
-7.1809e-22
-1.98466e-22
-5.42101e-23
-1.46518e-23
-3.91681e-24
-1.03566e-24
-2.70632e-25
-6.9416e-26
-1.73458e-26
-4.13336e-27
-8.90525e-28
-1.44318e-28
-7.53072e-30
-4.86225e-16
-7.00833e-15
-2.99881e-14
-9.32486e-14
-2.49041e-13
-6.09044e-13
-1.40833e-12
-3.13942e-12
-6.84382e-12
-1.47773e-11
-3.20103e-11
-7.04589e-11
-1.59192e-10
-3.70412e-10
-8.83722e-10
-2.13526e-09
-5.20029e-09
-1.26293e-08
-2.944e-08
-6.89942e-08
-1.52244e-07
-3.2045e-07
-6.38185e-07
-1.1924e-06
-2.03522e-06
-3.25683e-06
-4.96514e-06
-7.38414e-06
-1.08363e-05
-1.61731e-05
-2.48032e-05
-3.95371e-05
-6.17567e-05
-9.03008e-05
-0.000124274
-0.000155321
-0.000175137
-0.000188411
-0.000202141
-0.00022187
-0.000235454
-0.000224971
-0.000170712
-4.77305e-05
0.000169205
0.000485958
0.00087763
0.00129088
0.00158752
0.0014906
0.000494585
-0.00147279
-0.00110093
-0.000617318
-0.000344244
-0.00018993
-0.000102554
-5.44253e-05
-2.81695e-05
-1.41858e-05
-6.74011e-06
-3.09044e-06
-1.36259e-06
-5.38187e-07
-1.83643e-07
-5.72756e-08
-1.73378e-08
-4.95655e-09
-1.24704e-09
-2.8187e-10
-6.04982e-11
-1.11404e-11
-1.878e-12
-2.98856e-13
-4.69868e-14
-7.68457e-15
-1.36649e-15
-2.72881e-16
-6.16308e-17
-1.54836e-17
-4.21692e-18
-1.20821e-18
-3.53003e-19
-1.0346e-19
-3.00869e-20
-8.67323e-21
-2.47383e-21
-6.95543e-22
-1.93025e-22
-5.29028e-23
-1.4338e-23
-3.84043e-24
-1.0169e-24
-2.65928e-25
-6.83092e-26
-1.70763e-26
-4.04213e-27
-8.69827e-28
-1.45052e-28
-8.02622e-30
-4.81017e-16
-6.93343e-15
-2.96691e-14
-9.22626e-14
-2.46425e-13
-6.02676e-13
-1.3936e-12
-3.10616e-12
-6.76871e-12
-1.46033e-11
-3.15898e-11
-6.93975e-11
-1.56431e-10
-3.63128e-10
-8.64531e-10
-2.0857e-09
-5.07468e-09
-1.23207e-08
-2.87292e-08
-6.72731e-08
-1.4866e-07
-3.13438e-07
-6.24174e-07
-1.17083e-06
-2.00451e-06
-3.22108e-06
-4.92494e-06
-7.34114e-06
-1.0784e-05
-1.61075e-05
-2.47095e-05
-3.94048e-05
-6.16563e-05
-9.04931e-05
-0.000125028
-0.000156919
-0.000177778
-0.000191226
-0.000204924
-0.000224489
-0.000237577
-0.000225818
-0.000168937
-4.14444e-05
0.000182288
0.000507779
0.000909371
0.00132953
0.00162009
0.0014874
0.000400308
-0.00155209
-0.00106636
-0.000597555
-0.000332893
-0.00018325
-9.88569e-05
-5.23117e-05
-2.69601e-05
-1.35065e-05
-6.40422e-06
-2.92557e-06
-1.28382e-06
-5.00049e-07
-1.68777e-07
-5.24301e-08
-1.58883e-08
-4.39407e-09
-1.09863e-09
-2.47275e-10
-5.23998e-11
-9.58377e-12
-1.61e-12
-2.56285e-13
-4.0467e-14
-6.67518e-15
-1.20088e-15
-2.43056e-16
-5.56421e-17
-1.41507e-17
-3.88071e-18
-1.11382e-18
-3.26694e-19
-9.64026e-20
-2.83828e-20
-8.25224e-21
-2.36893e-21
-6.69145e-22
-1.86379e-22
-5.12238e-23
-1.39157e-23
-3.73342e-24
-9.88702e-25
-2.58647e-25
-6.65491e-26
-1.66171e-26
-3.97919e-27
-8.51694e-28
-1.42931e-28
-7.814e-30
-4.75956e-16
-6.86065e-15
-2.93592e-14
-9.13057e-14
-2.43889e-13
-5.96522e-13
-1.37942e-12
-3.07436e-12
-6.69756e-12
-1.44406e-11
-3.1202e-11
-6.84333e-11
-1.53958e-10
-3.56683e-10
-8.47705e-10
-2.04248e-09
-4.96515e-09
-1.20496e-08
-2.80928e-08
-6.56942e-08
-1.4533e-07
-3.07377e-07
-6.12278e-07
-1.15217e-06
-1.98077e-06
-3.19393e-06
-4.89654e-06
-7.31407e-06
-1.07551e-05
-1.60734e-05
-2.46578e-05
-3.92847e-05
-6.15168e-05
-9.0766e-05
-0.000125824
-0.000158444
-0.000180245
-0.000193618
-0.000207548
-0.000226923
-0.000239519
-0.000226456
-0.000167011
-3.51759e-05
0.000194896
0.000528059
0.000936866
0.00136216
0.00164555
0.0014745
0.000304187
-0.00162086
-0.00103159
-0.000578089
-0.000322381
-0.000175943
-9.49785e-05
-5.01857e-05
-2.5812e-05
-1.28676e-05
-6.1483e-06
-2.79825e-06
-1.21856e-06
-4.68531e-07
-1.56735e-07
-4.85411e-08
-1.46741e-08
-4.02575e-09
-9.9944e-10
-2.22962e-10
-4.69949e-11
-8.54153e-12
-1.42984e-12
-2.27353e-13
-3.5982e-14
-5.97067e-15
-1.08322e-15
-2.21395e-16
-5.11751e-17
-1.31283e-17
-3.62556e-18
-1.04633e-18
-3.08138e-19
-9.11178e-20
-2.67939e-20
-7.79407e-21
-2.24091e-21
-6.34308e-22
-1.77084e-22
-4.87994e-23
-1.32928e-23
-3.57635e-24
-9.52098e-25
-2.49854e-25
-6.43958e-26
-1.61397e-26
-3.82036e-27
-8.25521e-28
-1.37898e-28
-7.30322e-30
-4.71195e-16
-6.7922e-15
-2.90677e-14
-9.04051e-14
-2.41503e-13
-5.90732e-13
-1.3661e-12
-3.04458e-12
-6.63131e-12
-1.42903e-11
-3.08479e-11
-6.75643e-11
-1.51758e-10
-3.51019e-10
-8.33069e-10
-2.00523e-09
-4.87147e-09
-1.18196e-08
-2.75577e-08
-6.43538e-08
-1.42652e-07
-3.0213e-07
-6.02962e-07
-1.1389e-06
-1.96384e-06
-3.17427e-06
-4.87724e-06
-7.29851e-06
-1.07438e-05
-1.60657e-05
-2.4655e-05
-3.92718e-05
-6.17905e-05
-9.1156e-05
-0.000126661
-0.000159929
-0.000182512
-0.000196229
-0.000209905
-0.000229089
-0.000241087
-0.000226758
-0.00016494
-2.91233e-05
0.000206792
0.000547083
0.000962701
0.00139111
0.00166584
0.00146022
0.000214643
-0.00166047
-0.0010042
-0.000562576
-0.000313081
-0.00017136
-9.23681e-05
-4.86782e-05
-2.49656e-05
-1.24045e-05
-5.90368e-06
-2.67655e-06
-1.15942e-06
-4.40661e-07
-1.46013e-07
-4.51361e-08
-1.36106e-08
-3.68475e-09
-9.09831e-10
-2.01979e-10
-4.24175e-11
-7.68184e-12
-1.28063e-12
-2.03265e-13
-3.22172e-14
-5.37235e-15
-9.81754e-16
-2.02366e-16
-4.7173e-17
-1.21953e-17
-3.38942e-18
-9.83406e-19
-2.90909e-19
-8.63529e-20
-2.54767e-20
-7.43362e-21
-2.13941e-21
-6.06964e-22
-1.6979e-22
-4.68578e-23
-1.27838e-23
-3.44236e-24
-9.15837e-25
-2.40252e-25
-6.18951e-26
-1.55612e-26
-3.69658e-27
-7.92041e-28
-1.30568e-28
-7.06276e-30
-4.66881e-16
-6.73018e-15
-2.88037e-14
-8.95901e-14
-2.39346e-13
-5.85508e-13
-1.35411e-12
-3.01787e-12
-6.57219e-12
-1.41571e-11
-3.05369e-11
-6.68084e-11
-1.49863e-10
-3.46188e-10
-8.20712e-10
-1.97414e-09
-4.79451e-09
-1.16346e-08
-2.71452e-08
-6.33157e-08
-1.40486e-07
-2.98114e-07
-5.95866e-07
-1.12809e-06
-1.94998e-06
-3.16006e-06
-4.86537e-06
-7.2924e-06
-1.07402e-05
-1.6075e-05
-2.46756e-05
-3.92939e-05
-6.1953e-05
-9.1561e-05
-0.000127495
-0.000161291
-0.000184537
-0.000198495
-0.000212034
-0.000231108
-0.000242578
-0.000226943
-0.000162664
-2.28502e-05
0.00021865
0.000565183
0.000986438
0.00141703
0.00168302
0.00144397
0.000119736
-0.00168056
-0.000984692
-0.000551223
-0.000307002
-0.000166374
-8.95875e-05
-4.71421e-05
-2.41303e-05
-1.19611e-05
-5.67599e-06
-2.57043e-06
-1.10806e-06
-4.16999e-07
-1.36901e-07
-4.21156e-08
-1.26337e-08
-3.39456e-09
-8.31635e-10
-1.82736e-10
-3.80517e-11
-6.85148e-12
-1.13874e-12
-1.80776e-13
-2.87479e-14
-4.82541e-15
-8.89416e-16
-1.85107e-16
-4.35595e-17
-1.1357e-17
-3.17864e-18
-9.27509e-19
-2.75636e-19
-8.21269e-20
-2.43056e-20
-7.11228e-21
-2.05145e-21
-5.83111e-22
-1.63374e-22
-4.51511e-23
-1.23317e-23
-3.32313e-24
-8.84767e-25
-2.32179e-25
-5.9786e-26
-1.50155e-26
-3.57606e-27
-7.65323e-28
-1.29218e-28
-6.52809e-30
-4.63067e-16
-6.67536e-15
-2.85703e-14
-8.88703e-14
-2.37442e-13
-5.80901e-13
-1.34356e-12
-2.99443e-12
-6.52051e-12
-1.40413e-11
-3.02685e-11
-6.6161e-11
-1.48249e-10
-3.42081e-10
-8.10185e-10
-1.94749e-09
-4.72753e-09
-1.14703e-08
-2.67599e-08
-6.23448e-08
-1.3856e-07
-2.9447e-07
-5.89926e-07
-1.12017e-06
-1.94053e-06
-3.1507e-06
-4.85906e-06
-7.2928e-06
-1.07538e-05
-1.60959e-05
-2.47094e-05
-3.93355e-05
-6.2433e-05
-9.19618e-05
-0.000128271
-0.000162513
-0.000186304
-0.000200379
-0.000213908
-0.000232845
-0.000243799
-0.000226974
-0.000160488
-1.71313e-05
0.00022918
0.000581006
0.00100627
0.00143569
0.00168977
0.001421
4.62682e-05
-0.00168172
-0.000962496
-0.000539094
-0.000300265
-0.000162702
-8.7548e-05
-4.60217e-05
-2.35263e-05
-1.16411e-05
-5.50596e-06
-2.48695e-06
-1.06661e-06
-3.99973e-07
-1.27919e-07
-3.94261e-08
-1.17975e-08
-3.15951e-09
-7.69695e-10
-1.6866e-10
-3.49259e-11
-6.25382e-12
-1.0361e-12
-1.64401e-13
-2.62007e-14
-4.41999e-15
-8.20316e-16
-1.72078e-16
-4.08023e-17
-1.07093e-17
-3.01325e-18
-8.82874e-19
-2.6322e-19
-7.8632e-20
-2.33217e-20
-6.83847e-21
-1.97562e-21
-5.6234e-22
-1.57753e-22
-4.3645e-23
-1.19305e-23
-3.21807e-24
-8.56763e-25
-2.25099e-25
-5.81355e-26
-1.45903e-26
-3.46634e-27
-7.47452e-28
-1.24416e-28
-6.37746e-30
-4.59766e-16
-6.62792e-15
-2.83685e-14
-8.8248e-14
-2.35798e-13
-5.76927e-13
-1.33447e-12
-2.97428e-12
-6.47629e-12
-1.39431e-11
-3.00434e-11
-6.56253e-11
-1.46934e-10
-3.3879e-10
-8.01722e-10
-1.92657e-09
-4.677e-09
-1.13515e-08
-2.64863e-08
-6.16463e-08
-1.37145e-07
-2.91798e-07
-5.85528e-07
-1.11386e-06
-1.93342e-06
-3.14457e-06
-4.85653e-06
-7.29739e-06
-1.0768e-05
-1.61215e-05
-2.47554e-05
-3.94036e-05
-6.22417e-05
-9.2351e-05
-0.000128975
-0.000163577
-0.000187813
-0.000201933
-0.00021547
-0.000234258
-0.000244707
-0.00022677
-0.000158245
-1.15861e-05
0.000239078
0.000595591
0.00102401
0.00145245
0.00169524
0.00139685
-3.03354e-05
-0.00167335
-0.000946815
-0.000529948
-0.000294499
-0.000160377
-8.61416e-05
-4.51946e-05
-2.30536e-05
-1.13798e-05
-5.36659e-06
-2.41952e-06
-1.03228e-06
-3.83792e-07
-1.22189e-07
-3.74977e-08
-1.11922e-08
-2.9789e-09
-7.21418e-10
-1.57861e-10
-3.25801e-11
-5.80706e-12
-9.59227e-13
-1.52139e-13
-2.42896e-14
-4.1147e-15
-7.67994e-16
-1.6215e-16
-3.86747e-17
-1.02044e-17
-2.88264e-18
-8.47102e-19
-2.53117e-19
-7.57463e-20
-2.24986e-20
-6.60609e-21
-1.91062e-21
-5.44385e-22
-1.52852e-22
-4.23305e-23
-1.15707e-23
-3.12258e-24
-8.32266e-25
-2.18676e-25
-5.64949e-26
-1.41522e-26
-3.40486e-27
-7.20421e-28
-1.19609e-28
-6.98228e-30
-4.56958e-16
-6.58758e-15
-2.8197e-14
-8.77193e-14
-2.34402e-13
-5.73558e-13
-1.32678e-12
-2.95728e-12
-6.43914e-12
-1.3861e-11
-2.98564e-11
-6.5184e-11
-1.45859e-10
-3.36119e-10
-7.94874e-10
-1.90988e-09
-4.63605e-09
-1.125e-08
-2.62503e-08
-6.10668e-08
-1.35956e-07
-2.89681e-07
-5.82175e-07
-1.10937e-06
-1.92847e-06
-3.1409e-06
-4.85664e-06
-7.3046e-06
-1.07853e-05
-1.61531e-05
-2.48137e-05
-3.951e-05
-6.25253e-05
-9.27559e-05
-0.000129621
-0.000164501
-0.000189094
-0.000203244
-0.000216754
-0.000235378
-0.000245375
-0.000226544
-0.000156522
-5.67282e-06
0.00024845
0.000609029
0.00104071
0.00146956
0.00170438
0.00137718
-0.00011188
-0.00166757
-0.000937679
-0.000524193
-0.00029112
-0.000158035
-8.4788e-05
-4.44242e-05
-2.26271e-05
-1.11489e-05
-5.24427e-06
-2.36016e-06
-1.00211e-06
-3.69854e-07
-1.17506e-07
-3.60441e-08
-1.07182e-08
-2.83975e-09
-6.84148e-10
-1.49967e-10
-3.08551e-11
-5.4898e-12
-9.04091e-13
-1.4326e-13
-2.28924e-14
-3.88897e-15
-7.28754e-16
-1.54579e-16
-3.70314e-17
-9.8079e-18
-2.77845e-18
-8.18139e-19
-2.44823e-19
-7.33482e-20
-2.18069e-20
-6.40871e-21
-1.85493e-21
-5.28896e-22
-1.48595e-22
-4.11796e-23
-1.12593e-23
-3.03985e-24
-8.1053e-25
-2.13095e-25
-5.49509e-26
-1.3796e-26
-3.29803e-27
-6.99045e-28
-1.19974e-28
-5.33062e-30
-4.54604e-16
-6.55375e-15
-2.80532e-14
-8.72765e-14
-2.33234e-13
-5.70742e-13
-1.32036e-12
-2.94313e-12
-6.40826e-12
-1.37929e-11
-2.97023e-11
-6.48229e-11
-1.44989e-10
-3.33993e-10
-7.89544e-10
-1.89687e-09
-4.60359e-09
-1.11725e-08
-2.60758e-08
-6.06256e-08
-1.3508e-07
-2.881e-07
-5.79598e-07
-1.10593e-06
-1.9249e-06
-3.1389e-06
-4.85864e-06
-7.31369e-06
-1.08039e-05
-1.61856e-05
-2.48658e-05
-3.95909e-05
-6.28632e-05
-9.30922e-05
-0.00013019
-0.000165308
-0.000190222
-0.000204374
-0.000217861
-0.000236341
-0.00024592
-0.000226213
-0.000154639
-1.40831e-06
0.000255452
0.000618438
0.00105099
0.00147682
0.00170099
0.00135177
-0.000163732
-0.00164436
-0.000922921
-0.000516434
-0.000287137
-0.000155306
-8.33121e-05
-4.36294e-05
-2.22063e-05
-1.09321e-05
-5.13376e-06
-2.30869e-06
-9.76788e-07
-3.58461e-07
-1.13782e-07
-3.48538e-08
-1.03417e-08
-2.72922e-09
-6.5429e-10
-1.43631e-10
-2.94158e-11
-5.21338e-12
-8.56963e-13
-1.35726e-13
-2.17135e-14
-3.69951e-15
-6.96007e-16
-1.48294e-16
-3.56735e-17
-9.48018e-18
-2.69208e-18
-7.94033e-19
-2.37889e-19
-7.13332e-20
-2.1223e-20
-6.24118e-21
-1.80744e-21
-5.15618e-22
-1.44937e-22
-4.0183e-23
-1.09897e-23
-2.9689e-24
-7.91318e-25
-2.08187e-25
-5.36533e-26
-1.35057e-26
-3.21731e-27
-6.95923e-28
-1.13161e-28
-6.02049e-30
-4.52657e-16
-6.52579e-15
-2.79343e-14
-8.69104e-14
-2.32268e-13
-5.68413e-13
-1.31505e-12
-2.93141e-12
-6.38267e-12
-1.37364e-11
-2.95736e-11
-6.45188e-11
-1.44249e-10
-3.32155e-10
-7.84831e-10
-1.88494e-09
-4.57494e-09
-1.11057e-08
-2.59317e-08
-6.02684e-08
-1.344e-07
-2.86867e-07
-5.77671e-07
-1.10348e-06
-1.9227e-06
-3.13831e-06
-4.86166e-06
-7.32296e-06
-1.08215e-05
-1.62135e-05
-2.49047e-05
-3.95739e-05
-6.27629e-05
-9.33745e-05
-0.000130677
-0.000165997
-0.000191165
-0.000205307
-0.000218774
-0.000237106
-0.000246263
-0.00022568
-0.00015255
3.04274e-06
0.000262822
0.00062855
0.0010628
0.00148737
0.00170357
0.00133292
-0.000217624
-0.00163026
-0.00091369
-0.000511085
-0.000284034
-0.000153495
-8.22887e-05
-4.30652e-05
-2.19017e-05
-1.07697e-05
-5.0498e-06
-2.26905e-06
-9.56633e-07
-3.49309e-07
-1.10769e-07
-3.38961e-08
-1.00324e-08
-2.64104e-09
-6.309e-10
-1.38676e-10
-2.83189e-11
-5.00595e-12
-8.21445e-13
-1.30021e-13
-2.08149e-14
-3.55371e-15
-6.70489e-16
-1.43323e-16
-3.4582e-17
-9.21274e-18
-2.62079e-18
-7.73987e-19
-2.32096e-19
-6.96447e-20
-2.07322e-20
-6.09992e-21
-1.76726e-21
-5.04355e-22
-1.41824e-22
-3.9332e-23
-1.07617e-23
-2.90805e-24
-7.75787e-25
-2.03925e-25
-5.26439e-26
-1.32214e-26
-3.1274e-27
-6.80161e-28
-1.134e-28
-5.97348e-30
-4.5108e-16
-6.50313e-15
-2.7838e-14
-8.66138e-14
-2.31486e-13
-5.66529e-13
-1.31076e-12
-2.92194e-12
-6.362e-12
-1.36907e-11
-2.94695e-11
-6.42728e-11
-1.43649e-10
-3.30668e-10
-7.81006e-10
-1.87593e-09
-4.55382e-09
-1.10566e-08
-2.58218e-08
-5.9991e-08
-1.33843e-07
-2.85889e-07
-5.76165e-07
-1.10171e-06
-1.92128e-06
-3.13852e-06
-4.86521e-06
-7.33233e-06
-1.08399e-05
-1.62464e-05
-2.49688e-05
-3.9722e-05
-6.32155e-05
-9.36793e-05
-0.000131115
-0.000166573
-0.000191931
-0.000206061
-0.000219514
-0.000237726
-0.000246528
-0.000225207
-0.000150803
6.69101e-06
0.000268823
0.000636754
0.00107232
0.00149576
0.00170516
0.00131646
-0.000263414
-0.00161841
-0.000906882
-0.000507227
-0.000281817
-0.000152291
-8.15876e-05
-4.26656e-05
-2.16808e-05
-1.06507e-05
-4.98702e-06
-2.23845e-06
-9.40581e-07
-3.4183e-07
-1.08297e-07
-3.31175e-08
-9.78833e-09
-2.57051e-09
-6.12336e-10
-1.34716e-10
-2.74509e-11
-4.8416e-12
-7.93249e-13
-1.25488e-13
-2.01009e-14
-3.43791e-15
-6.50182e-16
-1.39343e-16
-3.36999e-17
-8.99462e-18
-2.56225e-18
-7.57448e-19
-2.27301e-19
-6.82428e-20
-2.03237e-20
-5.98207e-21
-1.7337e-21
-4.94916e-22
-1.39208e-22
-3.86181e-23
-1.05694e-23
-2.85685e-24
-7.62203e-25
-2.00576e-25
-5.18017e-26
-1.29755e-26
-3.09275e-27
-6.6446e-28
-1.10821e-28
-5.47189e-30
-4.49835e-16
-6.48526e-15
-2.77621e-14
-8.63803e-14
-2.30871e-13
-5.65049e-13
-1.30739e-12
-2.91453e-12
-6.34585e-12
-1.36551e-11
-2.93886e-11
-6.40828e-11
-1.43192e-10
-3.29554e-10
-7.78187e-10
-1.86914e-09
-4.53725e-09
-1.10174e-08
-2.57341e-08
-5.97739e-08
-1.33441e-07
-2.8519e-07
-5.75133e-07
-1.10052e-06
-1.92052e-06
-3.13922e-06
-4.86887e-06
-7.34119e-06
-1.08566e-05
-1.6276e-05
-2.50205e-05
-3.98856e-05
-6.32319e-05
-9.39432e-05
-0.000131496
-0.000167075
-0.000192591
-0.000206705
-0.000220149
-0.000238272
-0.000246765
-0.00022483
-0.000149348
9.77598e-06
0.000274019
0.000644201
0.00108173
0.00150573
0.00171093
0.00130536
-0.000311564
-0.00161564
-0.000904285
-0.000505321
-0.000280528
-0.000151525
-8.11208e-05
-4.23892e-05
-2.15218e-05
-1.05621e-05
-4.93922e-06
-2.215e-06
-9.28114e-07
-3.35976e-07
-1.06337e-07
-3.24904e-08
-9.58737e-09
-2.51267e-09
-5.96942e-10
-1.31465e-10
-2.67379e-11
-4.70752e-12
-7.70384e-13
-1.21828e-13
-1.95253e-14
-3.34438e-15
-6.33732e-16
-1.36114e-16
-3.29852e-17
-8.81839e-18
-2.51502e-18
-7.44094e-19
-2.2342e-19
-6.71047e-20
-1.9991e-20
-5.88591e-21
-1.70623e-21
-4.87186e-22
-1.37066e-22
-3.80334e-23
-1.04094e-23
-2.81397e-24
-7.50754e-25
-1.97683e-25
-5.10991e-26
-1.28459e-26
-3.05546e-27
-6.56085e-28
-1.08421e-28
-5.69494e-30
-4.48891e-16
-6.47171e-15
-2.77045e-14
-8.62033e-14
-2.30405e-13
-5.63931e-13
-1.30486e-12
-2.90898e-12
-6.33387e-12
-1.3629e-11
-2.933e-11
-6.39467e-11
-1.42866e-10
-3.28747e-10
-7.76086e-10
-1.86392e-09
-4.52452e-09
-1.09876e-08
-2.5669e-08
-5.96102e-08
-1.33124e-07
-2.84647e-07
-5.7435e-07
-1.0997e-06
-1.92014e-06
-3.14014e-06
-4.87233e-06
-7.34888e-06
-1.08704e-05
-1.6299e-05
-2.50594e-05
-3.99508e-05
-6.33568e-05
-9.41392e-05
-0.000131796
-0.000167467
-0.000193106
-0.00020721
-0.000220654
-0.00023872
-0.000247005
-0.000224646
-0.000148424
1.17995e-05
0.000277361
0.00064871
0.00108672
0.00150944
0.00170966
0.00129371
-0.000333391
-0.00160249
-0.000897667
-0.000501876
-0.000278595
-0.000150724
-8.06708e-05
-4.21387e-05
-2.13854e-05
-1.0489e-05
-4.90063e-06
-2.19646e-06
-9.18555e-07
-3.31563e-07
-1.04866e-07
-3.20143e-08
-9.43774e-09
-2.46853e-09
-5.85264e-10
-1.28997e-10
-2.61919e-11
-4.60537e-12
-7.5303e-13
-1.1905e-13
-1.90878e-14
-3.27315e-15
-6.2117e-16
-1.33636e-16
-3.24335e-17
-8.68161e-18
-2.47822e-18
-7.33654e-19
-2.20376e-19
-6.62101e-20
-1.97291e-20
-5.80998e-21
-1.68454e-21
-4.81079e-22
-1.35372e-22
-3.75669e-23
-1.02844e-23
-2.7805e-24
-7.42107e-25
-1.95191e-25
-5.04604e-26
-1.26658e-26
-3.01591e-27
-6.54227e-28
-1.11211e-28
-5.32928e-30
-4.4822e-16
-6.46207e-15
-2.76637e-14
-8.60782e-14
-2.30078e-13
-5.63149e-13
-1.3031e-12
-2.90515e-12
-6.32561e-12
-1.36108e-11
-2.92882e-11
-6.38468e-11
-1.42619e-10
-3.28131e-10
-7.74515e-10
-1.86022e-09
-4.51577e-09
-1.09674e-08
-2.56248e-08
-5.94991e-08
-1.32914e-07
-2.8429e-07
-5.73844e-07
-1.09919e-06
-1.91999e-06
-3.14099e-06
-4.87509e-06
-7.35477e-06
-1.08808e-05
-1.63157e-05
-2.5085e-05
-3.99877e-05
-6.35893e-05
-9.42663e-05
-0.000132008
-0.00016775
-0.000193478
-0.000207574
-0.000221022
-0.000239051
-0.000247205
-0.000224558
-0.000147809
1.32559e-05
0.000279998
0.000652767
0.00109217
0.00151538
0.00171281
0.00128613
-0.000361358
-0.00159874
-0.000895044
-0.000500207
-0.000277648
-0.000149958
-8.02527e-05
-4.19147e-05
-2.12676e-05
-1.0428e-05
-4.86949e-06
-2.18187e-06
-9.11405e-07
-3.28391e-07
-1.03817e-07
-3.16713e-08
-9.31942e-09
-2.43626e-09
-5.76753e-10
-1.2719e-10
-2.57955e-11
-4.53104e-12
-7.40343e-13
-1.17018e-13
-1.87682e-14
-3.22114e-15
-6.11985e-16
-1.31831e-16
-3.20341e-17
-8.58323e-18
-2.45188e-18
-7.26202e-19
-2.18204e-19
-6.55707e-20
-1.95412e-20
-5.7554e-21
-1.66885e-21
-4.76632e-22
-1.34129e-22
-3.72259e-23
-1.01932e-23
-2.75573e-24
-7.35643e-25
-1.93482e-25
-5.01038e-26
-1.2523e-26
-3.00648e-27
-6.34293e-28
-1.03241e-28
-6.12681e-30
-4.4779e-16
-6.4559e-15
-2.76375e-14
-8.59978e-14
-2.29866e-13
-5.6264e-13
-1.30193e-12
-2.90257e-12
-6.31991e-12
-1.35981e-11
-2.92593e-11
-6.37789e-11
-1.42456e-10
-3.27737e-10
-7.73511e-10
-1.8578e-09
-4.51011e-09
-1.09545e-08
-2.55972e-08
-5.94303e-08
-1.32785e-07
-2.84073e-07
-5.73543e-07
-1.09891e-06
-1.91997e-06
-3.14165e-06
-4.877e-06
-7.35876e-06
-1.08828e-05
-1.63265e-05
-2.51021e-05
-4.00148e-05
-6.36543e-05
-9.43536e-05
-0.000132146
-0.000167931
-0.000193713
-0.000207804
-0.000221256
-0.000239252
-0.000247342
-0.000224523
-0.000147453
1.41373e-05
0.000281613
0.000655239
0.00109539
0.0015187
0.00171418
0.00128154
-0.000374778
-0.00159336
-0.000891899
-0.00049838
-0.000276587
-0.000149408
-7.99819e-05
-4.17774e-05
-2.1197e-05
-1.03916e-05
-4.85108e-06
-2.17331e-06
-9.07058e-07
-3.26386e-07
-1.03138e-07
-3.14454e-08
-9.24632e-09
-2.41503e-09
-5.7114e-10
-1.26003e-10
-2.5534e-11
-4.48195e-12
-7.31985e-13
-1.1568e-13
-1.85571e-14
-3.1868e-15
-6.0599e-16
-1.30659e-16
-3.17749e-17
-8.51929e-18
-2.43473e-18
-7.21349e-19
-2.16792e-19
-6.51558e-20
-1.94198e-20
-5.72021e-21
-1.65879e-21
-4.73798e-22
-1.33341e-22
-3.70109e-23
-1.01341e-23
-2.74003e-24
-7.31426e-25
-1.92535e-25
-4.97422e-26
-1.24874e-26
-2.97116e-27
-6.44005e-28
-1.04808e-28
-5.84854e-30
-4.47575e-16
-6.45281e-15
-2.76244e-14
-8.59574e-14
-2.2976e-13
-5.62383e-13
-1.30135e-12
-2.90129e-12
-6.31716e-12
-1.35921e-11
-2.92456e-11
-6.37466e-11
-1.42378e-10
-3.27547e-10
-7.73029e-10
-1.85666e-09
-4.50741e-09
-1.09483e-08
-2.55839e-08
-5.93971e-08
-1.32723e-07
-2.8397e-07
-5.73402e-07
-1.09878e-06
-1.91998e-06
-3.14201e-06
-4.87799e-06
-7.36075e-06
-1.08866e-05
-1.63311e-05
-2.51077e-05
-4.00183e-05
-6.341e-05
-9.43833e-05
-0.000132208
-0.000168016
-0.000193825
-0.000207912
-0.000221365
-0.000239351
-0.000247408
-0.000224522
-0.000147346
1.43831e-05
0.00028197
0.000655541
0.00109525
0.00151741
0.00171112
0.00127874
-0.000367027
-0.00158311
-0.000887121
-0.000495907
-0.000274775
-0.000149847
-8.0134e-05
-4.18208e-05
-2.1204e-05
-1.03887e-05
-4.84659e-06
-2.17017e-06
-9.04934e-07
-3.25246e-07
-1.02739e-07
-3.13181e-08
-9.2067e-09
-2.4039e-09
-5.68261e-10
-1.25393e-10
-2.54018e-11
-4.45735e-12
-7.27826e-13
-1.15017e-13
-1.84528e-14
-3.1697e-15
-6.02932e-16
-1.30049e-16
-3.16385e-17
-8.48534e-18
-2.42556e-18
-7.18738e-19
-2.16028e-19
-6.49306e-20
-1.93537e-20
-5.70105e-21
-1.65331e-21
-4.72258e-22
-1.32915e-22
-3.68949e-23
-1.01027e-23
-2.73178e-24
-7.29355e-25
-1.91958e-25
-4.96448e-26
-1.24671e-26
-2.96652e-27
-6.32677e-28
-1.03165e-28
-5.98635e-30
-4.47572e-16
-6.45277e-15
-2.76242e-14
-8.59567e-14
-2.29758e-13
-5.62379e-13
-1.30134e-12
-2.90127e-12
-6.31711e-12
-1.3592e-11
-2.92454e-11
-6.37461e-11
-1.42377e-10
-3.27546e-10
-7.73026e-10
-1.85666e-09
-4.50741e-09
-1.09484e-08
-2.55841e-08
-5.93975e-08
-1.32724e-07
-2.83973e-07
-5.73408e-07
-1.09879e-06
-1.92e-06
-3.14202e-06
-4.87802e-06
-7.36088e-06
-1.0889e-05
-1.63324e-05
-2.51129e-05
-4.00388e-05
-6.35112e-05
-9.44136e-05
-0.000132218
-0.000168017
-0.000193821
-0.000207905
-0.000221353
-0.00023934
-0.000247361
-0.000224427
-0.000147167
1.47128e-05
0.000282547
0.000656513
0.00109684
0.00151987
0.00171411
0.00127889
-0.000379682
-0.0015912
-0.000890676
-0.000497698
-0.000276209
-0.000149246
-7.98774e-05
-4.17132e-05
-2.11595e-05
-1.03706e-05
-4.83961e-06
-2.16758e-06
-9.03919e-07
-3.24911e-07
-1.02655e-07
-3.12988e-08
-9.20235e-09
-2.40296e-09
-5.68068e-10
-1.25352e-10
-2.53941e-11
-4.45605e-12
-7.27622e-13
-1.14986e-13
-1.84481e-14
-3.16895e-15
-6.02808e-16
-1.30028e-16
-3.16346e-17
-8.48454e-18
-2.42536e-18
-7.18677e-19
-2.16007e-19
-6.49233e-20
-1.93512e-20
-5.70029e-21
-1.65308e-21
-4.72189e-22
-1.32898e-22
-3.68915e-23
-1.00999e-23
-2.73123e-24
-7.29075e-25
-1.91835e-25
-4.95677e-26
-1.24864e-26
-2.98074e-27
-6.39764e-28
-1.06769e-28
-5.80875e-30
-4.47782e-16
-6.45578e-15
-2.76369e-14
-8.59959e-14
-2.2986e-13
-5.62625e-13
-1.3019e-12
-2.90249e-12
-6.31974e-12
-1.35977e-11
-2.92585e-11
-6.37771e-11
-1.42452e-10
-3.2773e-10
-7.73498e-10
-1.85779e-09
-4.51011e-09
-1.09545e-08
-2.55975e-08
-5.9431e-08
-1.32787e-07
-2.84079e-07
-5.73556e-07
-1.09893e-06
-1.92001e-06
-3.14168e-06
-4.87701e-06
-7.35876e-06
-1.08879e-05
-1.63279e-05
-2.51074e-05
-4.00306e-05
-6.35487e-05
-9.43737e-05
-0.00013215
-0.000167924
-0.000193697
-0.000207781
-0.00022122
-0.000239192
-0.000247242
-0.00022435
-0.000147192
1.45211e-05
0.000282106
0.000655747
0.00109574
0.00151868
0.00171367
0.00128106
-0.000372858
-0.00159344
-0.000892288
-0.000498742
-0.000276852
-0.000149526
-8.00067e-05
-4.17751e-05
-2.11901e-05
-1.0386e-05
-4.84751e-06
-2.17131e-06
-9.05861e-07
-3.25829e-07
-1.02966e-07
-3.14021e-08
-9.23602e-09
-2.41276e-09
-5.70671e-10
-1.25901e-10
-2.55146e-11
-4.47862e-12
-7.3146e-13
-1.15605e-13
-1.85461e-14
-3.18496e-15
-6.05643e-16
-1.3059e-16
-3.17603e-17
-8.51585e-18
-2.43381e-18
-7.21077e-19
-2.16706e-19
-6.51284e-20
-1.94112e-20
-5.7176e-21
-1.65805e-21
-4.73591e-22
-1.33283e-22
-3.69962e-23
-1.01306e-23
-2.73912e-24
-7.3126e-25
-1.92412e-25
-4.97293e-26
-1.24503e-26
-2.97873e-27
-6.36953e-28
-1.05666e-28
-5.79087e-30
-4.48218e-16
-6.46204e-15
-2.76635e-14
-8.60775e-14
-2.30075e-13
-5.63139e-13
-1.30306e-12
-2.90504e-12
-6.32528e-12
-1.36099e-11
-2.92862e-11
-6.38423e-11
-1.4261e-10
-3.28119e-10
-7.74498e-10
-1.86021e-09
-4.51584e-09
-1.09677e-08
-2.56257e-08
-5.95015e-08
-1.3292e-07
-2.84304e-07
-5.73872e-07
-1.09924e-06
-1.92005e-06
-3.14105e-06
-4.8751e-06
-7.35475e-06
-1.08809e-05
-1.63167e-05
-2.5089e-05
-3.99992e-05
-6.35e-05
-9.42773e-05
-0.000132004
-0.000167733
-0.000193449
-0.000207539
-0.000220972
-0.000238977
-0.000247092
-0.000224377
-0.000147519
1.37106e-05
0.000280646
0.000653559
0.00109295
0.00151592
0.00171289
0.001286
-0.000359599
-0.00159851
-0.000895132
-0.000500342
-0.000277754
-0.000150009
-8.0269e-05
-4.19154e-05
-2.12638e-05
-1.04241e-05
-4.86695e-06
-2.18047e-06
-9.10472e-07
-3.27909e-07
-1.03651e-07
-3.16241e-08
-9.30725e-09
-2.43334e-09
-5.7609e-10
-1.27045e-10
-2.57656e-11
-4.52589e-12
-7.39599e-13
-1.16909e-13
-1.87514e-14
-3.2186e-15
-6.11599e-16
-1.31766e-16
-3.20222e-17
-8.58095e-18
-2.45141e-18
-7.26088e-19
-2.18171e-19
-6.55599e-20
-1.95376e-20
-5.75428e-21
-1.66852e-21
-4.76539e-22
-1.34105e-22
-3.72226e-23
-1.0191e-23
-2.75559e-24
-7.3518e-25
-1.93564e-25
-5.00491e-26
-1.25393e-26
-2.99728e-27