/*--------------------------------*- C++ -*----------------------------------*\
  =========                 |
  \\      /  F ield         | OpenFOAM: The Open Source CFD Toolbox
   \\    /   O peration     | Website:  https://openfoam.org
    \\  /    A nd           | Version:  10
     \\/     M anipulation  |
\*---------------------------------------------------------------------------*/
FoamFile
{
    format      ascii;
    class       volScalarField;
    location    "1";
    object      RR.NH;
}
// * * * * * * * * * * * * * * * * * * * * * * * * * * * * * * * * * * * * * //

dimensions      [1 -3 -1 0 0 0 0];

internalField   nonuniform List<scalar> 
4000
(
-3.73287e-15
-5.41554e-14
-2.35525e-13
-7.50774e-13
-2.07097e-12
-5.26118e-12
-1.26717e-11
-2.93506e-11
-6.58076e-11
-1.43164e-10
-3.02535e-10
-6.2256e-10
-1.25232e-09
-2.4719e-09
-4.79936e-09
-9.15142e-09
-1.72228e-08
-3.19408e-08
-5.71176e-08
-1.02325e-07
-1.76941e-07
-3.00533e-07
-5.02616e-07
-8.02972e-07
-1.23357e-06
-1.81642e-06
-2.58809e-06
-3.64491e-06
-5.20371e-06
-7.70869e-06
-1.17614e-05
-1.81161e-05
-2.75607e-05
-4.07445e-05
-5.75297e-05
-7.7119e-05
-9.77715e-05
-0.000125459
-0.000157716
-0.000207002
-0.000283442
-0.000392763
-0.000535268
-0.000705535
-0.000882866
-0.00100625
-0.000959965
-0.00052796
0.000661239
0.00311988
0.00706802
0.00818747
-0.00559389
-0.00314416
-0.00176076
-0.000977572
-0.000530161
-0.000283943
-0.000149181
-7.60178e-05
-3.50762e-05
-1.5344e-05
-7.74833e-06
-3.97784e-06
-1.81937e-06
-7.15029e-07
-2.49844e-07
-7.91811e-08
-2.18541e-08
-5.29298e-09
-1.15814e-09
-2.1144e-10
-3.31244e-11
-4.48683e-12
-5.31405e-13
-5.64749e-14
-5.51351e-15
-5.06578e-16
-4.46534e-17
-3.82693e-18
-3.2233e-19
-2.67997e-20
-2.21122e-21
-1.8133e-22
-1.48254e-23
-1.20841e-24
-9.82938e-26
-7.97851e-27
-6.46606e-28
-5.22875e-29
-4.22961e-30
-3.40912e-31
-2.62147e-32
-2.4633e-33
-2.93822e-34
-4.58249e-35
-9.2387e-36
-2.17159e-36
-5.45643e-37
-1.08583e-37
-3.68761e-15
-5.34934e-14
-2.32626e-13
-7.41555e-13
-2.04553e-12
-5.19511e-12
-1.25083e-11
-2.89564e-11
-6.48683e-11
-1.40949e-10
-2.97382e-10
-6.10868e-10
-1.22583e-09
-2.41463e-09
-4.68191e-09
-8.91983e-09
-1.67489e-08
-3.10015e-08
-5.54573e-08
-9.96407e-08
-1.7249e-07
-2.92848e-07
-4.90657e-07
-7.87453e-07
-1.21439e-06
-1.79538e-06
-2.5645e-06
-3.61912e-06
-5.16487e-06
-7.64946e-06
-1.16756e-05
-1.80524e-05
-2.74735e-05
-4.06963e-05
-5.7626e-05
-7.7446e-05
-9.84109e-05
-0.000126909
-0.000159126
-0.000208865
-0.000285983
-0.000396325
-0.000540046
-0.00071175
-0.000889986
-0.0010121
-0.00095913
-0.000509659
0.000715277
0.00323461
0.00722467
0.00794621
-0.00555656
-0.00312152
-0.00174645
-0.00096792
-0.000526056
-0.00028125
-0.000147473
-7.49286e-05
-3.41243e-05
-1.49875e-05
-7.61527e-06
-3.87817e-06
-1.75026e-06
-6.82751e-07
-2.36621e-07
-7.43267e-08
-2.02804e-08
-4.8479e-09
-1.04622e-09
-1.88926e-10
-2.93419e-11
-3.93064e-12
-4.64011e-13
-4.92553e-14
-4.81662e-15
-4.43845e-16
-3.92667e-17
-3.37824e-18
-2.85676e-19
-2.38415e-20
-1.97222e-21
-1.62284e-22
-1.32802e-23
-1.08318e-24
-8.81971e-26
-7.16372e-27
-5.80989e-28
-4.71063e-29
-3.81199e-30
-3.05908e-31
-2.38367e-32
-2.30177e-33
-2.7966e-34
-4.45878e-35
-9.12729e-36
-2.15954e-36
-5.43633e-37
-1.08205e-37
-3.64002e-15
-5.28061e-14
-2.29662e-13
-7.32196e-13
-2.02012e-12
-5.13251e-12
-1.23553e-11
-2.85818e-11
-6.395e-11
-1.38696e-10
-2.91841e-10
-5.97137e-10
-1.19514e-09
-2.34939e-09
-4.54778e-09
-8.65557e-09
-1.62627e-08
-3.00409e-08
-5.36759e-08
-9.64502e-08
-1.67174e-07
-2.84739e-07
-4.76511e-07
-7.73751e-07
-1.19547e-06
-1.7735e-06
-2.53982e-06
-3.5917e-06
-5.12454e-06
-7.58885e-06
-1.15841e-05
-1.7931e-05
-2.73465e-05
-4.06717e-05
-5.77971e-05
-7.79158e-05
-0.000100379
-0.00012833
-0.000161376
-0.000211926
-0.00029018
-0.000402093
-0.000547924
-0.000722172
-0.000902075
-0.00102278
-0.000961099
-0.000487828
0.000786559
0.00338859
0.00741483
0.00740382
-0.0055023
-0.00308826
-0.00172577
-0.000955438
-0.000516678
-0.000275748
-0.000144344
-7.31453e-05
-3.26792e-05
-1.44821e-05
-7.41451e-06
-3.73528e-06
-1.65896e-06
-6.40146e-07
-2.19401e-07
-6.81276e-08
-1.83467e-08
-4.32428e-09
-9.21269e-10
-1.64325e-10
-2.53375e-11
-3.3882e-12
-3.99164e-13
-4.23869e-14
-4.15024e-15
-3.8329e-16
-3.40016e-17
-2.92481e-18
-2.47461e-19
-2.06662e-20
-1.71194e-21
-1.41002e-22
-1.1564e-23
-9.4522e-25
-7.71085e-26
-6.26902e-27
-5.08675e-28
-4.12103e-29
-3.34044e-30
-2.66896e-31
-2.09694e-32
-2.09681e-33
-2.60631e-34
-4.2697e-35
-8.90665e-36
-2.12562e-36
-5.36711e-37
-1.06917e-37
-3.57639e-15
-5.18764e-14
-2.25555e-13
-7.18778e-13
-1.98173e-12
-5.02994e-12
-1.20963e-11
-2.7954e-11
-6.24791e-11
-1.35367e-10
-2.84604e-10
-5.8218e-10
-1.16409e-09
-2.28557e-09
-4.41896e-09
-8.40251e-09
-1.57768e-08
-2.92014e-08
-5.22384e-08
-9.37428e-08
-1.62616e-07
-2.77369e-07
-4.65162e-07
-7.58966e-07
-1.1777e-06
-1.75351e-06
-2.51825e-06
-3.56965e-06
-5.0921e-06
-7.5432e-06
-1.15232e-05
-1.78363e-05
-2.73023e-05
-4.07234e-05
-5.80793e-05
-7.85467e-05
-0.000102869
-0.000130231
-0.000164266
-0.000215716
-0.000295302
-0.000409331
-0.000557835
-0.000734773
-0.00091611
-0.00103367
-0.000957773
-0.000447517
0.000901327
0.00362321
0.00769855
0.006739
-0.00542812
-0.00304155
-0.00169634
-0.000936819
-0.000505504
-0.000269006
-0.000140369
-7.0578e-05
-3.11383e-05
-1.39352e-05
-7.17086e-06
-3.56778e-06
-1.55864e-06
-5.91735e-07
-2.00396e-07
-6.14811e-08
-1.63344e-08
-3.79333e-09
-7.98123e-10
-1.40822e-10
-2.13656e-11
-2.81298e-12
-3.27078e-13
-3.43886e-14
-3.34255e-15
-3.07163e-16
-2.71633e-17
-2.34934e-18
-1.99907e-19
-1.67412e-20
-1.39072e-21
-1.14867e-22
-9.44594e-24
-7.7408e-25
-6.3327e-26
-5.16313e-27
-4.20109e-28
-3.41238e-29
-2.7721e-30
-2.20453e-31
-1.75932e-32
-1.83865e-33
-2.35993e-34
-4.0056e-35
-8.55485e-36
-2.06402e-36
-5.2334e-37
-1.04397e-37
-3.5148e-15
-5.09824e-14
-2.21658e-13
-7.06287e-13
-1.94696e-12
-4.94044e-12
-1.18772e-11
-2.74368e-11
-6.12926e-11
-1.32714e-10
-2.78808e-10
-5.69816e-10
-1.1383e-09
-2.23295e-09
-4.31396e-09
-8.19876e-09
-1.53894e-08
-2.84817e-08
-5.09453e-08
-9.14963e-08
-1.58968e-07
-2.71568e-07
-4.5569e-07
-7.46225e-07
-1.16132e-06
-1.73474e-06
-2.50059e-06
-3.55358e-06
-5.07339e-06
-7.51344e-06
-1.14889e-05
-1.78671e-05
-2.73186e-05
-4.08594e-05
-5.84735e-05
-7.9327e-05
-0.000105067
-0.000132738
-0.000167267
-0.000219668
-0.000300765
-0.000416891
-0.000567992
-0.000747402
-0.000929467
-0.00104223
-0.000949839
-0.000399463
0.00102854
0.00387802
0.00799392
0.00573303
-0.00529684
-0.00296617
-0.00165223
-0.000910573
-0.000490741
-0.000260483
-0.000135553
-6.76658e-05
-2.95654e-05
-1.33862e-05
-6.90883e-06
-3.39119e-06
-1.45707e-06
-5.45412e-07
-1.82735e-07
-5.54604e-08
-1.45316e-08
-3.32322e-09
-6.91129e-10
-1.19877e-10
-1.79606e-11
-2.34101e-12
-2.70282e-13
-2.82983e-14
-2.74447e-15
-2.52024e-16
-2.22923e-17
-1.92145e-18
-1.63096e-19
-1.37083e-20
-1.14274e-21
-9.46857e-23
-7.79411e-24
-6.39358e-25
-5.23711e-26
-4.27417e-27
-3.48113e-28
-2.83015e-29
-2.3022e-30
-1.81841e-31
-1.48507e-32
-1.58534e-33
-2.10905e-34
-3.71566e-35
-8.12469e-36
-1.9814e-36
-5.04543e-37
-1.00804e-37
-3.45541e-15
-5.012e-14
-2.17898e-13
-6.9424e-13
-1.91347e-12
-4.8545e-12
-1.16677e-11
-2.69446e-11
-6.01712e-11
-1.30226e-10
-2.73431e-10
-5.58486e-10
-1.11506e-09
-2.18648e-09
-4.2234e-09
-8.02776e-09
-1.50747e-08
-2.79207e-08
-4.99898e-08
-8.97775e-08
-1.5615e-07
-2.67008e-07
-4.47898e-07
-7.35508e-07
-1.14767e-06
-1.72107e-06
-2.48841e-06
-3.54464e-06
-5.06332e-06
-7.49839e-06
-1.14692e-05
-1.78224e-05
-2.7395e-05
-4.10679e-05
-5.89522e-05
-8.02154e-05
-0.000107074
-0.000135429
-0.000170314
-0.000223751
-0.000306316
-0.000424472
-0.000577593
-0.000758642
-0.00094003
-0.00104583
-0.000932909
-0.000336609
0.0011806
0.00417481
0.00833718
0.00472036
-0.00513172
-0.00287133
-0.00159741
-0.000878021
-0.000472596
-0.000250126
-0.000129599
-6.40098e-05
-2.7776e-05
-1.27449e-05
-6.6046e-06
-3.2081e-06
-1.36023e-06
-5.03432e-07
-1.67752e-07
-4.93006e-08
-1.27664e-08
-2.89304e-09
-5.92484e-10
-1.01492e-10
-1.50483e-11
-1.94565e-12
-2.23338e-13
-2.33025e-14
-2.25559e-15
-2.06994e-16
-1.83136e-17
-1.58025e-18
-1.34066e-19
-1.1246e-20
-9.35963e-22
-7.74586e-23
-6.39876e-24
-5.26597e-25
-4.32728e-26
-3.54096e-27
-2.89073e-28
-2.35502e-29
-1.92018e-30
-1.5067e-31
-1.25987e-32
-1.37303e-33
-1.88876e-34
-3.43851e-35
-7.6698e-36
-1.8875e-36
-4.82438e-37
-9.65288e-38
-3.40046e-15
-4.93226e-14
-2.14425e-13
-6.83136e-13
-1.88269e-12
-4.7758e-12
-1.14767e-11
-2.64983e-11
-5.91605e-11
-1.27999e-10
-2.68646e-10
-5.48469e-10
-1.09463e-09
-2.14587e-09
-4.14459e-09
-7.87932e-09
-1.48011e-08
-2.74288e-08
-4.91357e-08
-8.82082e-08
-1.53579e-07
-2.63171e-07
-4.41445e-07
-7.26611e-07
-1.13759e-06
-1.71129e-06
-2.48104e-06
-3.54172e-06
-5.06317e-06
-7.50057e-06
-1.148e-05
-1.78594e-05
-2.75528e-05
-4.13249e-05
-5.94624e-05
-8.10957e-05
-0.000108772
-0.000136881
-0.000173154
-0.000227562
-0.00031157
-0.000431497
-0.000586457
-0.00076873
-0.000948717
-0.00104642
-0.000911667
-0.000267033
0.0013528
0.0044843
0.0086842
0.00333023
-0.00490738
-0.00274433
-0.00152785
-0.000832198
-0.00044811
-0.000236871
-0.000122504
-5.9884e-05
-2.6124e-05
-1.2121e-05
-6.28667e-06
-3.02676e-06
-1.26964e-06
-4.65708e-07
-1.54005e-07
-4.48294e-08
-1.15052e-08
-2.57832e-09
-5.23281e-10
-8.87711e-11
-1.30537e-11
-1.67566e-12
-1.91281e-13
-1.98844e-14
-1.92008e-15
-1.75975e-16
-1.5561e-17
-1.34295e-18
-1.13963e-19
-9.56368e-21
-7.96348e-22
-6.59348e-23
-5.43551e-24
-4.46499e-25
-3.66366e-26
-2.99349e-27
-2.4406e-28
-1.98601e-29
-1.61848e-30
-1.25965e-31
-1.0767e-32
-1.19636e-33
-1.69674e-34
-3.17995e-35
-7.21801e-36
-1.7908e-36
-4.59305e-37
-9.20223e-38
-3.3505e-15
-4.85976e-14
-2.11269e-13
-6.7305e-13
-1.85476e-12
-4.70451e-12
-1.13041e-11
-2.60967e-11
-5.82551e-11
-1.26015e-10
-2.64408e-10
-5.39654e-10
-1.07678e-09
-2.11061e-09
-4.07661e-09
-7.75201e-09
-1.4568e-08
-2.70129e-08
-4.84224e-08
-8.68921e-08
-1.51545e-07
-2.59952e-07
-4.36582e-07
-7.20444e-07
-1.13048e-06
-1.7045e-06
-2.47714e-06
-3.54311e-06
-5.06907e-06
-7.51388e-06
-1.15061e-05
-1.79177e-05
-2.76621e-05
-4.16113e-05
-5.99988e-05
-8.20057e-05
-0.000110342
-0.000139395
-0.000175783
-0.00023099
-0.000315999
-0.000437239
-0.000593431
-0.000776202
-0.000953972
-0.00104271
-0.000884908
-0.000191083
0.0015195
0.00478982
0.00902861
0.00191989
-0.0046562
-0.00260339
-0.00144627
-0.000790425
-0.000425183
-0.000224329
-0.00011575
-5.61123e-05
-2.43035e-05
-1.14053e-05
-5.94186e-06
-2.84229e-06
-1.17963e-06
-4.29348e-07
-1.41092e-07
-4.04814e-08
-1.03028e-08
-2.29051e-09
-4.61701e-10
-7.7818e-11
-1.13558e-11
-1.44743e-12
-1.64283e-13
-1.70092e-14
-1.63778e-15
-1.49835e-16
-1.32361e-17
-1.14194e-18
-9.68888e-20
-8.13113e-21
-6.77174e-22
-5.60813e-23
-4.6245e-24
-3.80084e-25
-3.11436e-26
-2.54548e-27
-2.07594e-28
-1.6897e-29
-1.37803e-30
-1.06357e-31
-9.29747e-33
-1.05219e-33
-1.53407e-34
-2.94599e-35
-6.77935e-36
-1.69252e-36
-4.35355e-37
-8.73452e-38
-3.30615e-15
-4.79543e-14
-2.08471e-13
-6.64119e-13
-1.83008e-12
-4.64166e-12
-1.11524e-11
-2.57449e-11
-5.74652e-11
-1.24291e-10
-2.60745e-10
-5.32077e-10
-1.06151e-09
-2.08065e-09
-4.01928e-09
-7.64579e-09
-1.43764e-08
-2.66792e-08
-4.78738e-08
-8.58728e-08
-1.49904e-07
-2.57476e-07
-4.32842e-07
-7.15454e-07
-1.12495e-06
-1.70027e-06
-2.47622e-06
-3.54793e-06
-5.08423e-06
-7.53412e-06
-1.15457e-05
-1.79958e-05
-2.78258e-05
-4.19163e-05
-6.05501e-05
-8.28895e-05
-0.000111802
-0.000141452
-0.000178293
-0.000234334
-0.000320483
-0.000443025
-0.00060027
-0.000783073
-0.000957784
-0.00103644
-0.00085458
-0.000109773
0.00169139
0.00510846
0.00939354
0.000732442
-0.0043879
-0.00245543
-0.00136702
-0.000740072
-0.000397905
-0.000209803
-0.000108093
-5.19965e-05
-2.24178e-05
-1.06811e-05
-5.59501e-06
-2.66469e-06
-1.09586e-06
-3.9491e-07
-1.2875e-07
-3.66024e-08
-9.23064e-09
-2.02758e-09
-4.03952e-10
-6.7397e-11
-9.75242e-12
-1.23491e-12
-1.39481e-13
-1.43972e-14
-1.38362e-15
-1.26465e-16
-1.1169e-17
-9.63855e-19
-8.18169e-20
-6.87055e-21
-5.726e-22
-4.74567e-23
-3.91627e-24
-3.22202e-25
-2.64204e-26
-2.16098e-27
-1.76356e-28
-1.43636e-29
-1.17292e-30
-8.96527e-32
-8.06019e-33
-9.32255e-34
-1.40085e-34
-2.75734e-35
-6.42745e-36
-1.61307e-36
-4.15707e-37
-8.34542e-38
-3.26747e-15
-4.73934e-14
-2.06032e-13
-6.56343e-13
-1.80861e-12
-4.58711e-12
-1.10211e-11
-2.54412e-11
-5.67858e-11
-1.22815e-10
-2.57623e-10
-5.25639e-10
-1.04857e-09
-2.05524e-09
-3.97044e-09
-7.55458e-09
-1.42093e-08
-2.63818e-08
-4.73613e-08
-8.49282e-08
-1.48472e-07
-2.55321e-07
-4.29911e-07
-7.12036e-07
-1.12142e-06
-1.69791e-06
-2.47713e-06
-3.55441e-06
-5.09181e-06
-7.55696e-06
-1.15895e-05
-1.80813e-05
-2.7944e-05
-4.2225e-05
-6.10732e-05
-8.37169e-05
-0.000113128
-0.000142758
-0.000180594
-0.000237318
-0.000324444
-0.000448147
-0.000606342
-0.000789231
-0.000961293
-0.00103139
-0.000828823
-4.18532e-05
0.00182661
0.00534688
0.00964556
-0.000966821
-0.00412746
-0.00231159
-0.00128759
-0.000697308
-0.000374849
-0.000197633
-0.000101762
-4.86266e-05
-2.08367e-05
-1.00358e-05
-5.2795e-06
-2.51543e-06
-1.01243e-06
-3.63073e-07
-1.17734e-07
-3.32867e-08
-8.33215e-09
-1.8215e-09
-3.60318e-10
-5.96531e-11
-8.57368e-12
-1.07982e-12
-1.21467e-13
-1.25051e-14
-1.1997e-15
-1.09556e-16
-9.67175e-18
-8.34722e-19
-7.08728e-20
-5.95377e-21
-4.96416e-22
-4.11623e-23
-3.39845e-24
-2.79795e-25
-2.29535e-26
-1.87822e-27
-1.53342e-28
-1.24943e-29
-1.02041e-30
-7.74807e-32
-7.14658e-33
-8.42449e-34
-1.29828e-34
-2.6065e-35
-6.13749e-36
-1.54662e-36
-3.99178e-37
-8.01744e-38
-3.23425e-15
-4.6912e-14
-2.0394e-13
-6.49679e-13
-1.79025e-12
-4.54051e-12
-1.09092e-11
-2.51831e-11
-5.6211e-11
-1.21574e-10
-2.55018e-10
-5.20326e-10
-1.03802e-09
-2.03479e-09
-3.9311e-09
-7.48271e-09
-1.40827e-08
-2.61657e-08
-4.69954e-08
-8.4243e-08
-1.47412e-07
-2.53728e-07
-4.27719e-07
-7.0936e-07
-1.11896e-06
-1.69687e-06
-2.4793e-06
-3.56204e-06
-5.10645e-06
-7.58265e-06
-1.16343e-05
-1.81643e-05
-2.81686e-05
-4.25007e-05
-6.15344e-05
-8.443e-05
-0.000114228
-0.00014422
-0.000182507
-0.000239826
-0.000327776
-0.000452456
-0.000611455
-0.000794384
-0.000963891
-0.0010257
-0.000804056
2.19686e-05
0.00195419
0.00557045
0.00986023
-0.0023065
-0.00391456
-0.00218959
-0.0012163
-0.000661913
-0.000355197
-0.000187008
-9.60956e-05
-4.55816e-05
-1.94562e-05
-9.48109e-06
-5.00699e-06
-2.37739e-06
-9.52203e-07
-3.39081e-07
-1.09432e-07
-3.07205e-08
-7.63566e-09
-1.66252e-09
-3.27172e-10
-5.38196e-11
-7.69067e-12
-9.6438e-13
-1.08118e-13
-1.11068e-14
-1.064e-15
-9.709e-17
-8.56586e-18
-7.39311e-19
-6.27828e-20
-5.27568e-21
-4.40032e-22
-3.65007e-23
-3.01471e-24
-2.48319e-25
-2.03787e-26
-1.6681e-27
-1.3623e-28
-1.11064e-29
-9.02823e-31
-6.93253e-32
-6.51737e-33
-7.78897e-34
-1.222e-34
-2.48713e-35
-5.89715e-36
-1.49031e-36
-3.85067e-37
-7.73698e-38
-3.2061e-15
-4.6504e-14
-2.02169e-13
-6.44041e-13
-1.77473e-12
-4.5012e-12
-1.0815e-11
-2.49665e-11
-5.57303e-11
-1.2054e-10
-2.52862e-10
-5.15953e-10
-1.02938e-09
-2.01815e-09
-3.89917e-09
-7.42514e-09
-1.39795e-08
-2.59801e-08
-4.66794e-08
-8.36779e-08
-1.46536e-07
-2.52497e-07
-4.26093e-07
-7.07503e-07
-1.11736e-06
-1.69666e-06
-2.4821e-06
-3.56976e-06
-5.12064e-06
-7.60618e-06
-1.16762e-05
-1.82395e-05
-2.83018e-05
-4.27474e-05
-6.19419e-05
-8.50488e-05
-0.000115159
-0.000145457
-0.000184067
-0.000241803
-0.000330274
-0.000455443
-0.000614652
-0.000799156
-0.000964759
-0.00101753
-0.000776295
8.93265e-05
0.00209398
0.00582037
0.0101082
-0.00308254
-0.00371254
-0.00207856
-0.00115597
-0.000627831
-0.000336868
-0.000177286
-9.10056e-05
-4.28664e-05
-1.82224e-05
-8.97913e-06
-4.76308e-06
-2.25604e-06
-9.00888e-07
-3.19523e-07
-1.02684e-07
-2.86841e-08
-7.08765e-09
-1.54243e-09
-3.023e-10
-4.95835e-11
-7.05297e-12
-8.81115e-13
-9.84851e-14
-1.00965e-14
-9.65767e-16
-8.80465e-17
-7.76341e-18
-6.69918e-19
-5.68857e-20
-4.78029e-21
-3.9875e-22
-3.30807e-23
-2.73263e-24
-2.2513e-25
-1.84784e-26
-1.51277e-27
-1.2356e-28
-1.0077e-29
-8.16227e-31
-6.32841e-32
-6.04367e-33
-7.30291e-34
-1.1619e-34
-2.38963e-35
-5.69563e-36
-1.44249e-36
-3.73024e-37
-7.49726e-38
-3.1825e-15
-4.6162e-14
-2.00684e-13
-6.39319e-13
-1.76174e-12
-4.46835e-12
-1.07364e-11
-2.47862e-11
-5.5331e-11
-1.19684e-10
-2.51084e-10
-5.12368e-10
-1.02238e-09
-2.00487e-09
-3.87426e-09
-7.38014e-09
-1.38975e-08
-2.58383e-08
-4.6446e-08
-8.32476e-08
-1.45888e-07
-2.51571e-07
-4.24843e-07
-7.06115e-07
-1.11634e-06
-1.69711e-06
-2.48549e-06
-3.57784e-06
-5.13479e-06
-7.62812e-06
-1.1718e-05
-1.83158e-05
-2.8404e-05
-4.29776e-05
-6.23132e-05
-8.56046e-05
-0.000115998
-0.00014656
-0.000185489
-0.00024367
-0.000332744
-0.000458613
-0.000618451
-0.000803009
-0.000966848
-0.00101456
-0.000761815
0.000126374
0.00216828
0.00594108
0.0101917
-0.00412868
-0.0035578
-0.00199155
-0.001108
-0.000599379
-0.000321524
-0.00016917
-8.67712e-05
-4.06677e-05
-1.72513e-05
-8.58795e-06
-4.57125e-06
-2.15982e-06
-8.60504e-07
-3.04241e-07
-9.74118e-08
-2.70984e-08
-6.66062e-09
-1.44933e-09
-2.82605e-10
-4.61182e-11
-6.53469e-12
-8.1374e-13
-9.07285e-14
-9.2862e-15
-8.87232e-16
-8.0833e-17
-7.12502e-18
-6.14797e-19
-5.22073e-20
-4.38773e-21
-3.66071e-22
-3.0376e-23
-2.50977e-24
-2.06826e-25
-1.69798e-26
-1.39037e-27
-1.13586e-28
-9.26696e-30
-7.49009e-31
-5.84683e-32
-5.66376e-33
-6.91058e-34
-1.11274e-34
-2.30852e-35
-5.52586e-36
-1.40195e-36
-3.62786e-37
-7.29324e-38
-3.16293e-15
-4.58784e-14
-1.99453e-13
-6.35404e-13
-1.75097e-12
-4.44109e-12
-1.06711e-11
-2.46363e-11
-5.49984e-11
-1.18969e-10
-2.4959e-10
-5.09336e-10
-1.01638e-09
-1.99333e-09
-3.85215e-09
-7.33878e-09
-1.38253e-08
-2.57173e-08
-4.62558e-08
-8.2905e-08
-1.45396e-07
-2.5087e-07
-4.23954e-07
-7.05223e-07
-1.1159e-06
-1.69799e-06
-2.48896e-06
-3.58559e-06
-5.14868e-06
-7.65233e-06
-1.17632e-05
-1.84344e-05
-2.85804e-05
-4.31801e-05
-6.26361e-05
-8.60882e-05
-0.000116713
-0.00014751
-0.000186717
-0.000245284
-0.000334873
-0.00046131
-0.000621575
-0.000805917
-0.000967778
-0.00101004
-0.000744994
0.000167475
0.0022516
0.00608155
0.0102989
-0.00465659
-0.00343048
-0.00192172
-0.00106946
-0.000578321
-0.000310199
-0.000163239
-8.36855e-05
-3.90391e-05
-1.65459e-05
-8.30397e-06
-4.42677e-06
-2.08598e-06
-8.2916e-07
-2.92176e-07
-9.32737e-08
-2.58656e-08
-6.33328e-09
-1.37809e-09
-2.67846e-10
-4.3564e-11
-6.15364e-12
-7.64238e-13
-8.50282e-14
-8.69034e-15
-8.29425e-16
-7.55179e-17
-6.6541e-18
-5.74087e-19
-4.87481e-20
-4.09713e-21
-3.41852e-22
-2.83691e-23
-2.34422e-24
-1.93213e-25
-1.58641e-26
-1.29916e-27
-1.06146e-28
-8.66169e-30
-6.9914e-31
-5.47319e-32
-5.36581e-33
-6.59975e-34
-1.07306e-34
-2.2417e-35
-5.38407e-36
-1.36786e-36
-3.54155e-37
-7.12111e-38
-3.147e-15
-4.56476e-14
-1.98451e-13
-6.32216e-13
-1.7422e-12
-4.41892e-12
-1.0618e-11
-2.45144e-11
-5.4728e-11
-1.18387e-10
-2.48374e-10
-5.06865e-10
-1.0115e-09
-1.98393e-09
-3.83411e-09
-7.30743e-09
-1.3772e-08
-2.56277e-08
-4.611e-08
-8.26381e-08
-1.44996e-07
-2.5033e-07
-4.23296e-07
-7.04643e-07
-1.11578e-06
-1.69907e-06
-2.49223e-06
-3.59232e-06
-5.16017e-06
-7.67016e-06
-1.17912e-05
-1.84701e-05
-2.86316e-05
-4.33549e-05
-6.29108e-05
-8.64915e-05
-0.0001173
-0.000148296
-0.000187746
-0.000246656
-0.000336706
-0.000463645
-0.000624244
-0.000808416
-0.000968852
-0.0010071
-0.000732935
0.000197877
0.00231348
0.00618355
0.0103512
-0.00498642
-0.00336006
-0.00188133
-0.0010465
-0.000565744
-0.00030322
-0.000159465
-8.16624e-05
-3.79366e-05
-1.60678e-05
-8.11109e-06
-4.32539e-06
-2.03235e-06
-8.06182e-07
-2.83358e-07
-9.0275e-08
-2.49651e-08
-6.09387e-09
-1.32577e-09
-2.57043e-10
-4.16928e-11
-5.87407e-12
-7.27867e-13
-8.08343e-14
-8.25143e-15
-7.86799e-16
-7.15946e-17
-6.30616e-18
-5.4398e-19
-4.61875e-20
-3.88182e-21
-3.23893e-22
-2.68799e-23
-2.22128e-24
-1.83097e-25
-1.50344e-26
-1.23129e-27
-1.00607e-28
-8.21081e-30
-6.6208e-31
-5.1949e-32
-5.13996e-33
-6.36035e-34
-1.04173e-34
-2.18755e-35
-5.26729e-36
-1.33958e-36
-3.46975e-37
-6.97778e-38
-3.13437e-15
-4.54645e-14
-1.97656e-13
-6.29691e-13
-1.73526e-12
-4.40138e-12
-1.05761e-11
-2.44182e-11
-5.4515e-11
-1.1793e-10
-2.47421e-10
-5.04942e-10
-1.00775e-09
-1.97684e-09
-3.82073e-09
-7.28362e-09
-1.37298e-08
-2.5556e-08
-4.59943e-08
-8.2433e-08
-1.44714e-07
-2.49955e-07
-4.22863e-07
-7.04301e-07
-1.11586e-06
-1.70017e-06
-2.4952e-06
-3.59827e-06
-5.17021e-06
-7.68678e-06
-1.18202e-05
-1.8482e-05
-2.87488e-05
-4.35031e-05
-6.31491e-05
-8.68458e-05
-0.000117816
-0.000148984
-0.000188642
-0.00024784
-0.00033828
-0.000465627
-0.000626541
-0.000810613
-0.000969905
-0.00100472
-0.000722366
0.000225916
0.0023739
0.00628944
0.0104013
-0.00511503
-0.00333157
-0.00186314
-0.00103524
-0.000559242
-0.000299466
-0.00015736
-8.04716e-05
-3.72418e-05
-1.57678e-05
-7.99399e-06
-4.26031e-06
-1.99613e-06
-7.90314e-07
-2.77171e-07
-8.81095e-08
-2.43106e-08
-5.91562e-09
-1.28695e-09
-2.48954e-10
-4.02876e-11
-5.6638e-12
-7.00494e-13
-7.76784e-14
-7.92131e-15
-7.54752e-16
-6.86461e-17
-6.04472e-18
-5.21362e-19
-4.42641e-20
-3.72012e-21
-3.10406e-22
-2.57616e-23
-2.12896e-24
-1.75501e-25
-1.44115e-26
-1.18034e-27
-9.64489e-29
-7.87241e-30
-6.3433e-31
-4.98626e-32
-4.9684e-33
-6.17638e-34
-1.01718e-34
-2.14432e-35
-5.17291e-36
-1.31661e-36
-3.41131e-37
-6.86101e-38
-3.12472e-15
-4.53248e-14
-1.9705e-13
-6.27766e-13
-1.72998e-12
-4.38805e-12
-1.05443e-11
-2.43457e-11
-5.43558e-11
-1.17592e-10
-2.46725e-10
-5.03551e-10
-1.00504e-09
-1.97165e-09
-3.81064e-09
-7.26512e-09
-1.3697e-08
-2.55012e-08
-4.59079e-08
-8.22776e-08
-1.44494e-07
-2.49671e-07
-4.22554e-07
-7.04102e-07
-1.11604e-06
-1.70124e-06
-2.49786e-06
-3.60338e-06
-5.17883e-06
-7.70092e-06
-1.18449e-05
-1.85247e-05
-2.88217e-05
-4.36267e-05
-6.33436e-05
-8.71286e-05
-0.000118224
-0.000149532
-0.000189365
-0.00024882
-0.000339622
-0.000467408
-0.000628782
-0.000813183
-0.000972305
-0.00100579
-0.000719768
0.000235983
0.00239544
0.00631978
0.0103875
-0.00531346
-0.00330376
-0.00184826
-0.00102671
-0.000555403
-0.000297278
-0.000156137
-7.9779e-05
-3.68275e-05
-1.5594e-05
-7.9295e-06
-4.22166e-06
-1.97287e-06
-7.79854e-07
-2.73019e-07
-8.66588e-08
-2.38667e-08
-5.79435e-09
-1.26051e-09
-2.43354e-10
-3.93084e-11
-5.51666e-12
-6.81292e-13
-7.54597e-14
-7.68874e-15
-7.32136e-16
-6.65613e-17
-5.85951e-18
-5.05309e-19
-4.28966e-20
-3.60498e-21
-3.00789e-22
-2.49631e-23
-2.06297e-24
-1.70066e-25
-1.39653e-26
-1.14382e-27
-9.34658e-29
-7.62943e-30
-6.14384e-31
-4.83549e-32
-4.84291e-33
-6.04026e-34
-9.98663e-35
-2.11103e-35
-5.09938e-36
-1.29861e-36
-3.36542e-37
-6.76927e-38
-3.11782e-15
-4.52249e-14
-1.96618e-13
-6.26398e-13
-1.72624e-12
-4.37868e-12
-1.05221e-11
-2.42953e-11
-5.42448e-11
-1.17353e-10
-2.46223e-10
-5.02519e-10
-1.00297e-09
-1.96765e-09
-3.80305e-09
-7.25192e-09
-1.36745e-08
-2.5464e-08
-4.58492e-08
-8.21726e-08
-1.44349e-07
-2.49487e-07
-4.22361e-07
-7.04003e-07
-1.11624e-06
-1.70209e-06
-2.49988e-06
-3.60725e-06
-5.18539e-06
-7.71193e-06
-1.18642e-05
-1.85596e-05
-2.88525e-05
-4.37213e-05
-6.3488e-05
-8.73377e-05
-0.000118524
-0.000149939
-0.000189907
-0.00024957
-0.000340667
-0.00046883
-0.000630623
-0.000815353
-0.000974396
-0.00100671
-0.000717029
0.000247196
0.00242233
0.00636708
0.0103854
-0.00538214
-0.00330416
-0.00184668
-0.00102527
-0.000553463
-0.000296119
-0.000155474
-7.93915e-05
-3.65877e-05
-1.54983e-05
-7.89638e-06
-4.19968e-06
-1.95852e-06
-7.73233e-07
-2.70347e-07
-8.56722e-08
-2.357e-08
-5.71279e-09
-1.24267e-09
-2.39587e-10
-3.86473e-11
-5.41691e-12
-6.68216e-13
-7.39443e-14
-7.52955e-15
-7.16617e-16
-6.51295e-17
-5.73233e-18
-4.94293e-19
-4.19589e-20
-3.52607e-21
-2.94202e-22
-2.44164e-23
-2.0178e-24
-1.66346e-25
-1.366e-26
-1.11882e-27
-9.14236e-29
-7.463e-30
-6.00722e-31
-4.73189e-32
-4.75567e-33
-5.94464e-34
-9.85429e-35
-2.08686e-35
-5.04543e-36
-1.28535e-36
-3.33153e-37
-6.70147e-38
-3.11338e-15
-4.51606e-14
-1.96339e-13
-6.25512e-13
-1.7238e-12
-4.3725e-12
-1.05073e-11
-2.42609e-11
-5.41674e-11
-1.17186e-10
-2.45872e-10
-5.01811e-10
-1.0016e-09
-1.96508e-09
-3.79819e-09
-7.24333e-09
-1.36599e-08
-2.54402e-08
-4.58129e-08
-8.2108e-08
-1.44261e-07
-2.49377e-07
-4.22251e-07
-7.03961e-07
-1.1164e-06
-1.7027e-06
-2.50127e-06
-3.60989e-06
-5.19592e-06
-7.7192e-06
-1.18767e-05
-1.85813e-05
-2.88883e-05
-4.37819e-05
-6.35814e-05
-8.74729e-05
-0.000118718
-0.000150202
-0.000190261
-0.000250066
-0.000341367
-0.000469801
-0.000631906
-0.000816928
-0.00097603
-0.00100774
-0.000716031
0.000252854
0.00243593
0.00638908
0.0103802
-0.00544552
-0.00329671
-0.00184226
-0.00102261
-0.000552068
-0.000295443
-0.00015513
-7.91998e-05
-3.64747e-05
-1.54654e-05
-7.8879e-06
-4.18999e-06
-1.95077e-06
-7.69472e-07
-2.68783e-07
-8.51092e-08
-2.33938e-08
-5.66363e-09
-1.23198e-09
-2.37304e-10
-3.82437e-11
-5.35569e-12
-6.60162e-13
-7.30072e-14
-7.43077e-15
-7.06999e-16
-6.4243e-17
-5.65359e-18
-4.87471e-19
-4.13782e-20
-3.4772e-21
-2.90123e-22
-2.4078e-23
-1.98985e-24
-1.64045e-25
-1.34712e-26
-1.10338e-27
-9.01632e-29
-7.36039e-30
-5.92322e-31
-4.66826e-32
-4.70176e-33
-5.88519e-34
-9.77108e-35
-2.07145e-35
-5.01067e-36
-1.27673e-36
-3.30941e-37
-6.65708e-38
-3.11114e-15
-4.51282e-14
-1.96198e-13
-6.25064e-13
-1.72257e-12
-4.36938e-12
-1.04998e-11
-2.42438e-11
-5.41298e-11
-1.17105e-10
-2.45705e-10
-5.01474e-10
-1.00094e-09
-1.96384e-09
-3.79586e-09
-7.23924e-09
-1.36529e-08
-2.54289e-08
-4.57954e-08
-8.20768e-08
-1.44218e-07
-2.49325e-07
-4.22201e-07
-7.0395e-07
-1.1165e-06
-1.70303e-06
-2.502e-06
-3.61124e-06
-5.19766e-06
-7.72286e-06
-1.18829e-05
-1.85915e-05
-2.89462e-05
-4.38104e-05
-6.36262e-05
-8.75378e-05
-0.000118811
-0.000150327
-0.000190428
-0.000250299
-0.0003417
-0.000470275
-0.00063256
-0.000817809
-0.000977162
-0.00100917
-0.000717924
0.000249481
0.00242748
0.00636742
0.0103568
-0.00550574
-0.0032803
-0.00183394
-0.00101641
-0.000553992
-0.000296171
-0.000155382
-7.92654e-05
-3.64598e-05
-1.5449e-05
-7.88286e-06
-4.18534e-06
-1.94694e-06
-7.67581e-07
-2.67998e-07
-8.48254e-08
-2.33051e-08
-5.63902e-09
-1.22658e-09
-2.3616e-10
-3.80422e-11
-5.32525e-12
-6.56176e-13
-7.25451e-14
-7.38211e-15
-7.0223e-16
-6.38005e-17
-5.61408e-18
-4.84034e-19
-4.10845e-20
-3.45241e-21
-2.88049e-22
-2.39054e-23
-1.97557e-24
-1.62868e-25
-1.33745e-26
-1.09545e-27
-8.95151e-29
-7.30756e-30
-5.88018e-31
-4.63576e-32
-4.67399e-33
-5.85446e-34
-9.72817e-35
-2.06358e-35
-4.99308e-36
-1.27241e-36
-3.29836e-37
-6.63496e-38
-3.1111e-15
-4.51276e-14
-1.96196e-13
-6.25054e-13
-1.72254e-12
-4.3693e-12
-1.04996e-11
-2.42434e-11
-5.41289e-11
-1.17104e-10
-2.45702e-10
-5.01469e-10
-1.00093e-09
-1.96383e-09
-3.79584e-09
-7.23922e-09
-1.36529e-08
-2.54289e-08
-4.57956e-08
-8.20771e-08
-1.44219e-07
-2.49327e-07
-4.22204e-07
-7.03955e-07
-1.11651e-06
-1.70303e-06
-2.50197e-06
-3.61105e-06
-5.19523e-06
-7.72234e-06
-1.1882e-05
-1.85894e-05
-2.8934e-05
-4.38079e-05
-6.36241e-05
-8.7535e-05
-0.000118806
-0.000150319
-0.000190415
-0.000250272
-0.000341651
-0.000470179
-0.000632372
-0.000817437
-0.000976421
-0.00100766
-0.000714771
0.000256295
0.00244248
0.0063977
0.0103766
-0.00545376
-0.00329349
-0.00184058
-0.00102173
-0.000551774
-0.000295235
-0.000154995
-7.91051e-05
-3.64011e-05
-1.54365e-05
-7.8786e-06
-4.18257e-06
-1.94559e-06
-7.67081e-07
-2.67835e-07
-8.47771e-08
-2.32925e-08
-5.63612e-09
-1.22596e-09
-2.36043e-10
-3.80237e-11
-5.32268e-12
-6.5586e-13
-7.25104e-14
-7.3786e-15
-7.01898e-16
-6.37705e-17
-5.61147e-18
-4.83812e-19
-4.10658e-20
-3.45086e-21
-2.87921e-22
-2.3895e-23
-1.97472e-24
-1.62798e-25
-1.33689e-26
-1.09499e-27
-8.94785e-29
-7.30462e-30
-5.87794e-31
-4.63421e-32
-4.67269e-33
-5.85306e-34
-9.72645e-35
-2.06332e-35
-4.99261e-36
-1.27231e-36
-3.29815e-37
-6.63456e-38
-3.11326e-15
-4.51589e-14
-1.96331e-13
-6.25483e-13
-1.72371e-12
-4.37226e-12
-1.05066e-11
-2.42594e-11
-5.41644e-11
-1.1718e-10
-2.4586e-10
-5.01789e-10
-1.00156e-09
-1.96503e-09
-3.79812e-09
-7.24325e-09
-1.36599e-08
-2.54402e-08
-4.58132e-08
-8.21085e-08
-1.44262e-07
-2.49381e-07
-4.22258e-07
-7.03974e-07
-1.11642e-06
-1.70272e-06
-2.50128e-06
-3.60984e-06
-5.18962e-06
-7.71871e-06
-1.18755e-05
-1.85783e-05
-2.89033e-05
-4.37765e-05
-6.35753e-05
-8.74642e-05
-0.000118705
-0.000150181
-0.000190226
-0.000250006
-0.000341264
-0.000469628
-0.00063162
-0.00081647
-0.000975327
-0.00100673
-0.00071466
0.000254412
0.00243695
0.00638766
0.0103764
-0.00542718
-0.00329945
-0.00184434
-0.00102402
-0.000552762
-0.000295685
-0.000155208
-7.92165e-05
-3.64669e-05
-1.54597e-05
-7.88589e-06
-4.18835e-06
-1.94958e-06
-7.68946e-07
-2.68596e-07
-8.50499e-08
-2.33776e-08
-5.65983e-09
-1.23112e-09
-2.3714e-10
-3.82167e-11
-5.35181e-12
-6.59692e-13
-7.29558e-14
-7.42543e-15
-7.06464e-16
-6.41921e-17
-5.64894e-18
-4.8706e-19
-4.13426e-20
-3.47416e-21
-2.89867e-22
-2.40565e-23
-1.98807e-24
-1.63898e-25
-1.34591e-26
-1.10238e-27
-9.00824e-29
-7.35383e-30
-5.91816e-31
-4.66465e-32
-4.69865e-33
-5.88181e-34
-9.7668e-35
-2.07079e-35
-5.00945e-36
-1.27647e-36
-3.30883e-37
-6.65601e-38
-3.11776e-15
-4.5224e-14
-1.96613e-13
-6.26379e-13
-1.72617e-12
-4.37845e-12
-1.05214e-11
-2.42932e-11
-5.4239e-11
-1.1734e-10
-2.46194e-10
-5.02464e-10
-1.00288e-09
-1.96755e-09
-3.80294e-09
-7.25185e-09
-1.36746e-08
-2.54645e-08
-4.58505e-08
-8.2175e-08
-1.44354e-07
-2.49495e-07
-4.22375e-07
-7.04022e-07
-1.11626e-06
-1.70211e-06
-2.49987e-06
-3.60718e-06
-5.18518e-06
-7.71139e-06
-1.18628e-05
-1.85565e-05
-2.88638e-05
-4.37144e-05
-6.34788e-05
-8.7324e-05
-0.000118504
-0.000149908
-0.000189862
-0.000249498
-0.000340554
-0.000468656
-0.000630353
-0.00081494
-0.000973764
-0.00100574
-0.000715565
0.000249236
0.00242456
0.00636779
0.0103837
-0.00536655
-0.0033056
-0.00184812
-0.00102634
-0.0005541
-0.000296456
-0.00015564
-7.9468e-05
-3.66225e-05
-1.55205e-05
-7.9069e-06
-4.20248e-06
-1.95879e-06
-7.73198e-07
-2.70318e-07
-8.56623e-08
-2.35666e-08
-5.71173e-09
-1.2424e-09
-2.39524e-10
-3.86359e-11
-5.41551e-12
-6.68045e-13
-7.3922e-14
-7.52707e-15
-7.16381e-16
-6.51081e-17
-5.73043e-18
-4.94128e-19
-4.19449e-20
-3.5249e-21
-2.94106e-22
-2.44085e-23
-2.01716e-24
-1.66295e-25
-1.36559e-26
-1.11849e-27
-9.13977e-29
-7.46098e-30
-6.00568e-31
-4.73073e-32
-4.7547e-33
-5.94354e-34
-9.85266e-35
-2.08653e-35
-5.04464e-36
-1.28514e-36
-3.33097e-37