/*--------------------------------*- C++ -*----------------------------------*\
  =========                 |
  \\      /  F ield         | OpenFOAM: The Open Source CFD Toolbox
   \\    /   O peration     | Website:  https://openfoam.org
    \\  /    A nd           | Version:  10
     \\/     M anipulation  |
\*---------------------------------------------------------------------------*/
FoamFile
{
    format      ascii;
    class       volScalarField;
    location    "1";
    object      RR.NNH;
}
// * * * * * * * * * * * * * * * * * * * * * * * * * * * * * * * * * * * * * //

dimensions      [1 -3 -1 0 0 0 0];

internalField   nonuniform List<scalar> 
4000
(
-8.74436e-20
-2.84212e-19
-6.57841e-19
-1.50764e-18
-3.46168e-18
-7.96515e-18
-1.83825e-17
-4.26198e-17
-9.9461e-17
-2.34109e-16
-5.56877e-16
-1.34005e-15
-3.25757e-15
-7.96182e-15
-1.94191e-14
-4.68632e-14
-1.11589e-13
-2.59975e-13
-5.85337e-13
-1.3171e-12
-2.8445e-12
-5.99293e-12
-1.22386e-11
-2.3737e-11
-4.50442e-11
-8.46368e-11
-1.59217e-10
-2.99593e-10
-5.61997e-10
-1.05704e-09
-1.97819e-09
-3.68043e-09
-6.71192e-09
-1.19261e-08
-2.04194e-08
-3.34191e-08
-5.20735e-08
-7.82992e-08
-1.15352e-07
-1.68493e-07
-2.43254e-07
-3.41878e-07
-4.60735e-07
-5.84875e-07
-6.77455e-07
-6.62182e-07
-4.28741e-07
1.63331e-07
1.23625e-06
2.68048e-06
3.53872e-06
6.16409e-07
-1.24283e-06
-3.4854e-07
-5.37505e-07
-6.0328e-07
-4.98218e-07
-3.47017e-07
-2.17781e-07
-1.26727e-07
-6.49864e-08
-2.77632e-08
-1.26331e-08
-7.27631e-09
-4.35291e-09
-2.26584e-09
-9.65122e-10
-3.40328e-10
-9.92633e-11
-2.45376e-11
-5.36519e-12
-9.78663e-13
-1.53195e-13
-2.07396e-14
-2.45453e-15
-2.60682e-16
-2.54329e-17
-2.33529e-18
-2.05726e-19
-1.76218e-20
-1.48736e-21
-1.17585e-22
-1.06419e-23
-1.15104e-24
-1.76437e-25
-3.8478e-26
-1.01049e-26
-2.81336e-27
-7.90055e-28
-2.2101e-28
-6.12885e-29
-1.67989e-29
-4.56145e-30
-1.22886e-30
-3.28823e-31
-8.74775e-32
-2.31571e-32
-6.10626e-33
-1.607e-33
-3.27929e-34
-8.65727e-20
-2.81367e-19
-6.51235e-19
-1.49235e-18
-3.42518e-18
-7.87561e-18
-1.81564e-17
-4.20279e-17
-9.78677e-17
-2.29745e-16
-5.44834e-16
-1.30675e-15
-3.16603e-15
-7.71806e-15
-1.87828e-14
-4.52097e-14
-1.0733e-13
-2.49906e-13
-5.63705e-13
-1.27136e-12
-2.74554e-12
-5.78915e-12
-1.18731e-11
-2.31447e-11
-4.4053e-11
-8.30215e-11
-1.56492e-10
-2.95451e-10
-5.55003e-10
-1.04609e-09
-1.9615e-09
-3.65142e-09
-6.6779e-09
-1.19042e-08
-2.04402e-08
-3.35443e-08
-5.24017e-08
-7.88899e-08
-1.16388e-07
-1.70097e-07
-2.45641e-07
-3.45272e-07
-4.65119e-07
-5.9002e-07
-6.82062e-07
-6.63109e-07
-4.20272e-07
1.89667e-07
1.28872e-06
2.75627e-06
3.57281e-06
4.26148e-07
-1.15019e-06
-3.55053e-07
-5.48916e-07
-6.04606e-07
-4.94807e-07
-3.42539e-07
-2.13941e-07
-1.23965e-07
-6.25112e-08
-2.64215e-08
-1.21997e-08
-7.10824e-09
-4.23442e-09
-2.18018e-09
-9.14965e-10
-3.18036e-10
-9.15971e-11
-2.21918e-11
-4.78497e-12
-8.63505e-13
-1.34028e-13
-1.79389e-14
-2.1166e-15
-2.2456e-16
-2.19495e-17
-2.02176e-18
-1.78792e-19
-1.53767e-20
-1.30383e-21
-1.02647e-22
-9.4414e-24
-1.06074e-24
-1.71457e-25
-3.90515e-26
-1.05035e-26
-2.96134e-27
-8.37803e-28
-2.34429e-28
-6.4851e-29
-1.77831e-29
-4.82543e-30
-1.29742e-30
-3.46145e-31
-9.17488e-32
-2.41887e-32
-6.35147e-33
-1.66499e-33
-3.38793e-34
-8.58099e-20
-2.78934e-19
-6.45757e-19
-1.48008e-18
-3.397e-18
-7.80522e-18
-1.79659e-17
-4.1492e-17
-9.63222e-17
-2.25221e-16
-5.31594e-16
-1.26935e-15
-3.06593e-15
-7.4525e-15
-1.80944e-14
-4.34887e-14
-1.03087e-13
-2.39243e-13
-5.39081e-13
-1.21674e-12
-2.63321e-12
-5.56896e-12
-1.14297e-11
-2.25881e-11
-4.30033e-11
-8.12274e-11
-1.53308e-10
-2.9019e-10
-5.46182e-10
-1.0322e-09
-1.94045e-09
-3.6202e-09
-6.64881e-09
-1.18911e-08
-2.05017e-08
-3.37742e-08
-5.29388e-08
-7.99277e-08
-1.18049e-07
-1.72738e-07
-2.49579e-07
-3.50751e-07
-4.72304e-07
-5.98603e-07
-6.89965e-07
-6.65767e-07
-4.09954e-07
2.24725e-07
1.35921e-06
2.85313e-06
3.5955e-06
6.19956e-08
-1.02688e-06
-3.66124e-07
-5.63966e-07
-6.0539e-07
-4.87346e-07
-3.34185e-07
-2.07495e-07
-1.19719e-07
-5.88762e-08
-2.46342e-08
-1.16404e-08
-6.88037e-09
-4.07342e-09
-2.06411e-09
-8.49031e-10
-2.89763e-10
-8.25415e-11
-1.94491e-11
-4.14269e-12
-7.38855e-13
-1.13931e-13
-1.5235e-14
-1.79478e-15
-1.90577e-16
-1.86589e-17
-1.7231e-18
-1.52845e-19
-1.31452e-20
-1.11593e-21
-8.70305e-23
-8.15651e-24
-9.57249e-25
-1.64278e-25
-3.89227e-26
-1.06515e-26
-3.02654e-27
-8.60348e-28
-2.42107e-28
-6.72625e-29
-1.84592e-29
-5.0146e-30
-1.34935e-30
-3.60013e-31
-9.53607e-32
-2.511e-32
-6.58282e-33
-1.72267e-33
-3.50066e-34
-8.46919e-20
-2.75208e-19
-6.36733e-19
-1.45807e-18
-3.34244e-18
-7.66951e-18
-1.76273e-17
-4.06401e-17
-9.41663e-17
-2.19752e-16
-5.17693e-16
-1.23343e-15
-2.97075e-15
-7.2031e-15
-1.74552e-14
-4.19078e-14
-9.9353e-14
-2.30866e-13
-5.1968e-13
-1.17123e-12
-2.53905e-12
-5.38609e-12
-1.10959e-11
-2.20419e-11
-4.20825e-11
-7.96152e-11
-1.50487e-10
-2.85701e-10
-5.38878e-10
-1.02181e-09
-1.92633e-09
-3.60324e-09
-6.63763e-09
-1.19078e-08
-2.06185e-08
-3.41059e-08
-5.36558e-08
-8.12506e-08
-1.20232e-07
-1.76065e-07
-2.54441e-07
-3.57689e-07
-4.81426e-07
-6.09056e-07
-6.99014e-07
-6.66962e-07
-3.92168e-07
2.79476e-07
1.46465e-06
2.99159e-06
3.6081e-06
-3.11787e-07
-9.02197e-07
-3.78927e-07
-5.79344e-07
-6.04593e-07
-4.78388e-07
-3.24381e-07
-1.99843e-07
-1.14181e-07
-5.48944e-08
-2.26979e-08
-1.10269e-08
-6.62301e-09
-3.89263e-09
-1.93001e-09
-7.76125e-10
-2.59954e-10
-7.26852e-11
-1.68774e-11
-3.55116e-12
-6.26642e-13
-9.50573e-14
-1.25127e-14
-1.45463e-15
-1.52909e-16
-1.48599e-17
-1.36531e-18
-1.20719e-19
-1.04426e-20
-8.92569e-22
-6.87479e-23
-6.63545e-24
-8.28817e-25
-1.53137e-25
-3.79598e-26
-1.05951e-26
-3.03689e-27
-8.67188e-28
-2.44728e-28
-6.81841e-29
-1.87574e-29
-5.10091e-30
-1.37315e-30
-3.66418e-31
-9.70544e-32
-2.55518e-32
-6.69719e-33
-1.7523e-33
-3.56057e-34
-8.36036e-20
-2.71647e-19
-6.28367e-19
-1.43842e-18
-3.29575e-18
-7.55722e-18
-1.73535e-17
-3.99621e-17
-9.24593e-17
-2.15386e-16
-5.06384e-16
-1.20393e-15
-2.89386e-15
-7.00431e-15
-1.69496e-14
-4.06532e-14
-9.63117e-14
-2.23719e-13
-5.03678e-13
-1.13606e-12
-2.46625e-12
-5.24045e-12
-1.08095e-11
-2.15533e-11
-4.12269e-11
-7.8163e-11
-1.48188e-10
-2.82182e-10
-5.33743e-10
-1.01471e-09
-1.9186e-09
-3.60344e-09
-6.64534e-09
-1.19571e-08
-2.07853e-08
-3.4511e-08
-5.44829e-08
-8.27319e-08
-1.22582e-07
-1.7962e-07
-2.59712e-07
-3.65048e-07
-4.90946e-07
-6.19754e-07
-7.07709e-07
-6.66531e-07
-3.71886e-07
3.36805e-07
1.57257e-06
3.13005e-06
3.61418e-06
-7.72677e-07
-7.70272e-07
-3.87934e-07
-5.90171e-07
-6.00283e-07
-4.6768e-07
-3.13799e-07
-1.91938e-07
-1.08679e-07
-5.11604e-08
-2.10392e-08
-1.05054e-08
-6.37585e-09
-3.70901e-09
-1.80218e-09
-7.09968e-10
-2.33919e-10
-6.42441e-11
-1.46944e-11
-3.05673e-12
-5.30234e-13
-7.94468e-14
-1.03557e-14
-1.19567e-15
-1.2519e-16
-1.21418e-17
-1.11503e-18
-9.86328e-20
-8.50279e-21
-7.26556e-22
-5.53328e-23
-5.51262e-24
-7.31074e-25
-1.43652e-25
-3.68368e-26
-1.04326e-26
-3.01138e-27
-8.63572e-28
-2.44451e-28
-6.82766e-29
-1.88193e-29
-5.12468e-30
-1.38071e-30
-3.68607e-31
-9.76534e-32
-2.571e-32
-6.73815e-33
-1.76285e-33
-3.58182e-34
-8.25201e-20
-2.68096e-19
-6.2002e-19
-1.41885e-18
-3.24946e-18
-7.44672e-18
-1.70872e-17
-3.93125e-17
-9.08528e-17
-2.11357e-16
-4.96168e-16
-1.17791e-15
-2.82775e-15
-6.8381e-15
-1.65398e-14
-3.96715e-14
-9.4021e-14
-2.18524e-13
-4.92183e-13
-1.10936e-12
-2.4099e-12
-5.12439e-12
-1.0573e-11
-2.11522e-11
-4.05604e-11
-7.71308e-11
-1.46521e-10
-2.79749e-10
-5.30374e-10
-1.0113e-09
-1.91699e-09
-3.59936e-09
-6.67102e-09
-1.20374e-08
-2.09928e-08
-3.49742e-08
-5.53975e-08
-8.4282e-08
-1.2504e-07
-1.83377e-07
-2.65179e-07
-3.72605e-07
-5.00249e-07
-6.29731e-07
-7.14957e-07
-6.63824e-07
-3.46617e-07
4.01425e-07
1.68962e-06
3.27641e-06
3.60143e-06
-1.14865e-06
-6.59325e-07
-3.93568e-07
-5.9668e-07
-5.93656e-07
-4.55828e-07
-3.02864e-07
-1.83746e-07
-1.02753e-07
-4.73989e-08
-1.94679e-08
-1.00111e-08
-6.1355e-09
-3.53699e-09
-1.68959e-09
-6.56622e-10
-2.08739e-10
-5.64399e-11
-1.27952e-11
-2.62136e-12
-4.49177e-13
-6.66179e-14
-8.61531e-15
-9.89166e-16
-1.0323e-16
-9.99442e-18
-9.1738e-19
-8.11822e-20
-7.01199e-21
-5.90351e-22
-4.75855e-23
-4.81876e-24
-6.61902e-25
-1.35154e-25
-3.54753e-26
-1.01646e-26
-2.95247e-27
-8.50054e-28
-2.41315e-28
-6.75584e-29
-1.86563e-29
-5.08672e-30
-1.37151e-30
-3.66374e-31
-9.71109e-32
-2.55772e-32
-6.7053e-33
-1.75465e-33
-3.56568e-34
-8.15026e-20
-2.6477e-19
-6.12233e-19
-1.4007e-18
-3.20683e-18
-7.34588e-18
-1.68465e-17
-3.87313e-17
-8.94293e-17
-2.07817e-16
-4.87262e-16
-1.15537e-15
-2.7708e-15
-6.69543e-15
-1.61881e-14
-3.88257e-14
-9.20273e-14
-2.13933e-13
-4.81897e-13
-1.08562e-12
-2.3619e-12
-5.03231e-12
-1.03848e-11
-2.08439e-11
-4.00965e-11
-7.64149e-11
-1.45453e-10
-2.78383e-10
-5.28881e-10
-1.01086e-09
-1.9203e-09
-3.61222e-09
-6.70751e-09
-1.21368e-08
-2.12212e-08
-3.54509e-08
-5.63093e-08
-8.58206e-08
-1.27448e-07
-1.86999e-07
-2.70506e-07
-3.79864e-07
-5.09267e-07
-6.39376e-07
-7.21858e-07
-6.60993e-07
-3.23167e-07
4.61771e-07
1.80579e-06
3.40726e-06
3.57101e-06
-1.55976e-06
-5.55706e-07
-3.9642e-07
-5.98467e-07
-5.83507e-07
-4.42488e-07
-2.91686e-07
-1.75995e-07
-9.72362e-08
-4.45466e-08
-1.83094e-08
-9.62238e-09
-5.93494e-09
-3.3892e-09
-1.59474e-09
-6.10772e-10
-1.91567e-10
-5.11997e-11
-1.14794e-11
-2.33091e-12
-3.95618e-13
-5.81973e-14
-7.47329e-15
-8.53397e-16
-8.87443e-17
-8.57225e-18
-7.85904e-19
-6.95187e-20
-6.01019e-21
-4.98424e-22
-4.26368e-23
-4.37465e-24
-6.16219e-25
-1.28738e-25
-3.41699e-26
-9.837e-27
-2.86462e-27
-8.26449e-28
-2.35065e-28
-6.5935e-29
-1.82397e-29
-4.98326e-30
-1.34677e-30
-3.6044e-31
-9.5668e-32
-2.52211e-32
-6.61622e-33
-1.73206e-33
-3.52061e-34
-8.05692e-20
-2.61721e-19
-6.05107e-19
-1.38413e-18
-3.16809e-18
-7.25473e-18
-1.66304e-17
-3.82137e-17
-8.81724e-17
-2.04719e-16
-4.79531e-16
-1.13596e-15
-2.72212e-15
-6.57435e-15
-1.58919e-14
-3.81188e-14
-9.03764e-14
-2.1017e-13
-4.73547e-13
-1.0665e-12
-2.32442e-12
-4.95951e-12
-1.02532e-11
-2.06375e-11
-3.97713e-11
-7.59212e-11
-1.44792e-10
-2.77755e-10
-5.28732e-10
-1.01257e-09
-1.9272e-09
-3.63123e-09
-6.75843e-09
-1.22491e-08
-2.14631e-08
-3.59414e-08
-5.71998e-08
-8.72875e-08
-1.297e-07
-1.90318e-07
-2.75117e-07
-3.8602e-07
-5.16768e-07
-6.47203e-07
-7.26933e-07
-6.56852e-07
-2.99112e-07
5.19923e-07
1.90625e-06
3.5214e-06
3.5302e-06
-1.88216e-06
-4.74125e-07
-3.98466e-07
-5.98637e-07
-5.74945e-07
-4.31923e-07
-2.82816e-07
-1.69771e-07
-9.28868e-08
-4.18121e-08
-1.72417e-08
-9.28358e-09
-5.7553e-09
-3.25217e-09
-1.50782e-09
-5.69964e-10
-1.75727e-10
-4.6422e-11
-1.03235e-11
-2.08152e-12
-3.50953e-13
-5.12364e-14
-6.53375e-15
-7.41922e-16
-7.68501e-17
-7.40295e-18
-6.77558e-19
-5.98799e-20
-5.17879e-21
-4.22992e-22
-3.8068e-23
-3.95937e-24
-5.72439e-25
-1.22477e-25
-3.29161e-26
-9.51772e-27
-2.77806e-27
-8.03027e-28
-2.28777e-28
-6.42699e-29
-1.78028e-29
-4.86809e-30
-1.31623e-30
-3.52431e-31
-9.35909e-32
-2.46872e-32
-6.4798e-33
-1.69724e-33
-3.45122e-34
-7.974e-20
-2.59017e-19
-5.98802e-19
-1.36953e-18
-3.13409e-18
-7.17518e-18
-1.6443e-17
-3.77677e-17
-8.70965e-17
-2.02084e-16
-4.72997e-16
-1.11967e-15
-2.68154e-15
-6.47434e-15
-1.56501e-14
-3.75516e-14
-8.90805e-14
-2.0729e-13
-4.67235e-13
-1.05163e-12
-2.29474e-12
-4.90298e-12
-1.01502e-11
-2.04742e-11
-3.95411e-11
-7.56334e-11
-1.44487e-10
-2.77699e-10
-5.29423e-10
-1.01577e-09
-1.93676e-09
-3.65465e-09
-6.8124e-09
-1.2368e-08
-2.17133e-08
-3.64219e-08
-5.80624e-08
-8.86957e-08
-1.31891e-07
-1.93624e-07
-2.79876e-07
-3.92373e-07
-5.24384e-07
-6.54895e-07
-7.31462e-07
-6.5196e-07
-2.75061e-07
5.76521e-07
2.00043e-06
3.62825e-06
3.46991e-06
-2.09778e-06
-4.13606e-07
-3.99314e-07
-5.96757e-07
-5.65113e-07
-4.20627e-07
-2.73877e-07
-1.63712e-07
-8.87659e-08
-3.93878e-08
-1.63874e-08
-9.00285e-09
-5.60052e-09
-3.13271e-09
-1.42858e-09
-5.32217e-10
-1.62002e-10
-4.23004e-11
-9.29804e-12
-1.85341e-12
-3.0935e-13
-4.47846e-14
-5.67361e-15
-6.41125e-16
-6.62076e-17
-6.36559e-18
-5.82078e-19
-5.14303e-20
-4.45034e-21
-3.62024e-22
-3.28621e-23
-3.49765e-24
-5.25742e-25
-1.16139e-25
-3.16815e-26
-9.21373e-27
-2.69623e-27
-7.8059e-28
-2.22646e-28
-6.26171e-29
-1.73611e-29
-4.75082e-30
-1.2853e-30
-3.44317e-31
-9.14739e-32
-2.41372e-32
-6.33727e-33
-1.66031e-33
-3.37664e-34
-7.90191e-20
-2.56669e-19
-5.93339e-19
-1.35691e-18
-3.10482e-18
-7.10697e-18
-1.62831e-17
-3.73892e-17
-8.61885e-17
-1.99872e-16
-4.6753e-16
-1.10605e-15
-2.64756e-15
-6.39006e-15
-1.54443e-14
-3.70606e-14
-8.79322e-14
-2.04672e-13
-4.61444e-13
-1.03855e-12
-2.27012e-12
-4.85804e-12
-1.00789e-11
-2.03737e-11
-3.94045e-11
-7.54813e-11
-1.4441e-10
-2.77994e-10
-5.30679e-10
-1.01985e-09
-1.94727e-09
-3.67895e-09
-6.86779e-09
-1.24872e-08
-2.19524e-08
-3.68752e-08
-5.88665e-08
-8.99511e-08
-1.33916e-07
-1.96605e-07
-2.84125e-07
-3.9806e-07
-5.31239e-07
-6.61902e-07
-7.35806e-07
-6.48498e-07
-2.55718e-07
6.20618e-07
2.06564e-06
3.68777e-06
3.39945e-06
-2.31825e-06
-3.64568e-07
-4.03025e-07
-5.95894e-07
-5.5772e-07
-4.12303e-07
-2.67278e-07
-1.59243e-07
-8.56761e-08
-3.7497e-08
-1.56939e-08
-8.76883e-09
-5.48215e-09
-3.00777e-09
-1.35416e-09
-4.99501e-10
-1.50642e-10
-3.89626e-11
-8.51881e-12
-1.68606e-12
-2.79262e-13
-4.01547e-14
-5.05953e-15
-5.69382e-16
-5.8643e-17
-5.62838e-18
-5.14184e-19
-4.54115e-20
-3.93056e-21
-3.18534e-22
-2.91248e-23
-3.16057e-24
-4.90147e-25
-1.1093e-25
-3.05925e-26
-8.93438e-27
-2.61946e-27
-7.59265e-28
-2.1677e-28
-6.10141e-29
-1.69278e-29
-4.63497e-30
-1.25461e-30
-3.36253e-31
-8.93673e-32
-2.35892e-32
-6.19511e-33
-1.62341e-33
-3.30202e-34
-7.84046e-20
-2.5467e-19
-5.88698e-19
-1.34621e-18
-3.08009e-18
-7.04957e-18
-1.61491e-17
-3.70741e-17
-8.54388e-17
-1.98065e-16
-4.63122e-16
-1.09522e-15
-2.62094e-15
-6.325e-15
-1.52872e-14
-3.67001e-14
-8.71196e-14
-2.02853e-13
-4.57383e-13
-1.02913e-12
-2.25213e-12
-4.8252e-12
-1.00257e-11
-2.03e-11
-3.93234e-11
-7.54273e-11
-1.4449e-10
-2.78544e-10
-5.32394e-10
-1.02432e-09
-1.95823e-09
-3.70357e-09
-6.91961e-09
-1.25961e-08
-2.21667e-08
-3.72736e-08
-5.95597e-08
-9.10672e-08
-1.3564e-07
-1.99158e-07
-2.87767e-07
-4.02955e-07
-5.37181e-07
-6.6796e-07
-7.39342e-07
-6.44694e-07
-2.37576e-07
6.61253e-07
2.12579e-06
3.73853e-06
3.30586e-06
-2.43504e-06
-3.3481e-07
-4.11216e-07
-5.97476e-07
-5.53208e-07
-4.06478e-07
-2.62288e-07
-1.55665e-07
-8.30977e-08
-3.59917e-08
-1.5198e-08
-8.60552e-09
-5.3785e-09
-2.92793e-09
-1.30238e-09
-4.75738e-10
-1.42168e-10
-3.64412e-11
-7.93691e-12
-1.56237e-12
-2.57142e-13
-3.67572e-14
-4.61081e-15
-5.171e-16
-5.3139e-17
-5.09224e-18
-4.64818e-19
-4.1023e-20
-3.55127e-21
-2.86846e-22
-2.63883e-23
-2.91003e-24
-4.62624e-25
-1.06636e-25
-2.96433e-26
-8.68331e-27
-2.54934e-27
-7.39579e-28
-2.11332e-28
-5.94951e-29
-1.65118e-29
-4.52341e-30
-1.22506e-30
-3.28486e-31
-8.73389e-32
-2.30618e-32
-6.05829e-33
-1.58789e-33
-3.23019e-34
-7.78894e-20
-2.52995e-19
-5.84818e-19
-1.3373e-18
-3.05955e-18
-7.00209e-18
-1.60389e-17
-3.68161e-17
-8.48288e-17
-1.96603e-16
-4.59581e-16
-1.08657e-15
-2.59979e-15
-6.27346e-15
-1.51626e-14
-3.64114e-14
-8.64468e-14
-2.0132e-13
-4.54078e-13
-1.02172e-12
-2.23828e-12
-4.80169e-12
-9.98938e-12
-2.02537e-11
-3.92803e-11
-7.54307e-11
-1.44655e-10
-2.79187e-10
-5.34185e-10
-1.02875e-09
-1.96879e-09
-3.72676e-09
-6.96919e-09
-1.26952e-08
-2.23577e-08
-3.76219e-08
-6.01556e-08
-9.20165e-08
-1.37052e-07
-2.01183e-07
-2.90546e-07
-4.06517e-07
-5.41373e-07
-6.73329e-07
-7.41244e-07
-6.39051e-07
-2.17904e-07
7.0325e-07
2.19313e-06
3.80175e-06
3.20733e-06
-2.48054e-06
-3.20204e-07
-4.20315e-07
-5.99807e-07
-5.49201e-07
-4.00858e-07
-2.57612e-07
-1.52419e-07
-8.07728e-08
-3.46146e-08
-1.47167e-08
-8.43881e-09
-5.27826e-09
-2.85734e-09
-1.26003e-09
-4.56243e-10
-1.35533e-10
-3.44799e-11
-7.50522e-12
-1.47098e-12
-2.41284e-13
-3.43308e-14
-4.29008e-15
-4.79649e-16
-4.91859e-17
-4.70606e-18
-4.29148e-19
-3.78501e-20
-3.27623e-21
-2.63868e-22
-2.43893e-23
-2.72363e-24
-4.4125e-25
-1.03092e-25
-2.88226e-26
-8.46109e-27
-2.48656e-27
-7.21823e-28
-2.06387e-28
-5.81194e-29
-1.61352e-29
-4.42202e-30
-1.19807e-30
-3.21365e-31
-8.5473e-32
-2.25753e-32
-5.93182e-33
-1.555e-33
-3.16361e-34
-7.74629e-20
-2.51611e-19
-5.81615e-19
-1.32996e-18
-3.04268e-18
-6.96321e-18
-1.59489e-17
-3.66066e-17
-8.4336e-17
-1.9543e-16
-4.56761e-16
-1.07977e-15
-2.58339e-15
-6.23409e-15
-1.50678e-14
-3.61899e-14
-8.59388e-14
-2.0021e-13
-4.51694e-13
-1.01625e-12
-2.22825e-12
-4.78422e-12
-9.96256e-12
-2.0223e-11
-3.92635e-11
-7.54771e-11
-1.44881e-10
-2.79902e-10
-5.35999e-10
-1.03304e-09
-1.97861e-09
-3.74782e-09
-7.01619e-09
-1.27863e-08
-2.25338e-08
-3.79406e-08
-6.07058e-08
-9.28798e-08
-1.38358e-07
-2.03092e-07
-2.93237e-07
-4.10083e-07
-5.45677e-07
-6.77617e-07
-7.43617e-07
-6.36705e-07
-2.07172e-07
7.25297e-07
2.22156e-06
3.80874e-06
3.11557e-06
-2.48717e-06
-3.08486e-07
-4.29742e-07
-6.02367e-07
-5.4572e-07
-3.96003e-07
-2.53662e-07
-1.49714e-07
-7.89046e-08
-3.35781e-08
-1.4388e-08
-8.32397e-09
-5.20142e-09
-2.80148e-09
-1.22678e-09
-4.41355e-10
-1.30365e-10
-3.29427e-11
-7.16905e-12
-1.39812e-12
-2.2819e-13
-3.23381e-14
-4.02757e-15
-4.49129e-16
-4.59764e-17
-4.39341e-18
-4.0033e-19
-3.52933e-20
-3.05486e-21
-2.45418e-22
-2.27823e-23
-2.57278e-24
-4.23631e-25
-1.00089e-25
-2.8113e-26
-8.26678e-27
-2.43129e-27
-7.06115e-28
-2.01982e-28
-5.69008e-29
-1.58022e-29
-4.3321e-30
-1.17405e-30
-3.15008e-31
-8.38027e-32
-2.21388e-32
-5.81811e-33
-1.52538e-33
-3.10358e-34
-7.71143e-20
-2.50479e-19
-5.78998e-19
-1.32396e-18
-3.02889e-18
-6.93144e-18
-1.58753e-17
-3.64349e-17
-8.39302e-17
-1.94458e-16
-4.54402e-16
-1.074e-15
-2.56927e-15
-6.19957e-15
-1.49836e-14
-3.59971e-14
-8.55218e-14
-1.99331e-13
-4.49878e-13
-1.01213e-12
-2.22098e-12
-4.7719e-12
-9.94566e-12
-2.02086e-11
-3.92701e-11
-7.55514e-11
-1.45133e-10
-2.80616e-10
-5.37741e-10
-1.03709e-09
-1.98773e-09
-3.77581e-09
-7.05353e-09
-1.28666e-08
-2.26883e-08
-3.82207e-08
-6.11828e-08
-9.36302e-08
-1.39492e-07
-2.04745e-07
-2.9555e-07
-4.13106e-07
-5.49216e-07
-6.80886e-07
-7.44791e-07
-6.32789e-07
-1.93957e-07
7.51971e-07
2.26006e-06
3.83308e-06
3.02812e-06
-2.46311e-06
-3.07735e-07
-4.41784e-07
-6.05956e-07
-5.43691e-07
-3.92803e-07
-2.50929e-07
-1.47778e-07
-7.74991e-08
-3.28118e-08
-1.41632e-08
-8.24572e-09
-5.14265e-09
-2.75648e-09
-1.19937e-09
-4.29341e-10
-1.26232e-10
-3.17307e-11
-6.90429e-12
-1.34194e-12
-2.18267e-13
-3.08325e-14
-3.82937e-15
-4.26075e-16
-4.35497e-17
-4.15672e-18
-3.78485e-19
-3.33524e-20
-2.88655e-21
-2.31398e-22
-2.15551e-23
-2.45606e-24
-4.09592e-25
-9.76057e-26
-2.75114e-26
-8.1001e-27
-2.38359e-27
-6.92506e-28
-1.98152e-28
-5.58381e-29
-1.55113e-29
-4.25345e-30
-1.15302e-30
-3.09435e-31
-8.23365e-32
-2.17553e-32
-5.71812e-33
-1.49932e-33
-3.05073e-34
-7.68347e-20
-2.49571e-19
-5.76901e-19
-1.31916e-18
-3.01787e-18
-6.90608e-18
-1.58167e-17
-3.62981e-17
-8.36071e-17
-1.93684e-16
-4.52522e-16
-1.06941e-15
-2.55807e-15
-6.17261e-15
-1.49204e-14
-3.58599e-14
-8.52209e-14
-1.98677e-13
-4.48481e-13
-1.00892e-12
-2.21531e-12
-4.76303e-12
-9.93475e-12
-2.02035e-11
-3.92891e-11
-7.56383e-11
-1.45389e-10
-2.81287e-10
-5.3932e-10
-1.04055e-09
-1.99518e-09
-3.78201e-09
-7.09221e-09
-1.29375e-08
-2.28209e-08
-3.84563e-08
-6.15798e-08
-9.42557e-08
-1.40442e-07
-2.06137e-07
-2.97501e-07
-4.15633e-07
-5.52071e-07
-6.83417e-07
-7.45576e-07
-6.29451e-07
-1.8318e-07
7.73574e-07
2.29067e-06
3.85014e-06
2.94684e-06
-2.42922e-06
-3.1093e-07
-4.52968e-07
-6.10095e-07
-5.43007e-07
-3.90535e-07
-2.48787e-07
-1.46206e-07
-7.63234e-08
-3.2144e-08
-1.39511e-08
-8.17035e-09
-5.0897e-09
-2.71783e-09
-1.17667e-09
-4.19527e-10
-1.2291e-10
-3.07646e-11
-6.69267e-12
-1.29749e-12
-2.1045e-13
-2.96497e-14
-3.67393e-15
-4.08014e-16
-4.16495e-17
-3.97143e-18
-3.61382e-19
-3.18324e-20
-2.75467e-21
-2.20422e-22
-2.05917e-23
-2.3637e-24
-3.98279e-25
-9.55584e-26
-2.70079e-26
-7.95957e-27
-2.34322e-27
-6.80954e-28
-1.94893e-28
-5.49319e-29
-1.52628e-29
-4.18617e-30
-1.135e-30
-3.04655e-31
-8.10782e-32
-2.14259e-32
-5.63219e-33
-1.47691e-33
-3.00527e-34
-7.66163e-20
-2.48863e-19
-5.75267e-19
-1.31543e-18
-3.00933e-18
-6.88648e-18
-1.57715e-17
-3.6193e-17
-8.33602e-17
-1.93095e-16
-4.51107e-16
-1.06599e-15
-2.54987e-15
-6.15298e-15
-1.48735e-14
-3.5754e-14
-8.49843e-14
-1.98173e-13
-4.47446e-13
-1.00664e-12
-2.21161e-12
-4.75744e-12
-9.92886e-12
-2.02046e-11
-3.93151e-11
-7.57309e-11
-1.45648e-10
-2.81961e-10
-5.40923e-10
-1.04428e-09
-2.00355e-09
-3.80137e-09
-7.1223e-09
-1.29998e-08
-2.29374e-08
-3.86643e-08
-6.19286e-08
-9.47992e-08
-1.41257e-07
-2.07312e-07
-2.99113e-07
-4.17671e-07
-5.5436e-07
-6.85375e-07
-7.45944e-07
-6.25994e-07
-1.72409e-07
7.96205e-07
2.32645e-06
3.87919e-06
2.86448e-06
-2.41956e-06
-3.1736e-07
-4.62654e-07
-6.14341e-07
-5.43123e-07
-3.89176e-07
-2.47322e-07
-1.4505e-07
-7.54e-08
-3.16007e-08
-1.37733e-08
-8.10685e-09
-5.04699e-09
-2.68699e-09
-1.15856e-09
-4.11566e-10
-1.20222e-10
-2.99708e-11
-6.51979e-12
-1.26113e-12
-2.04076e-13
-2.8689e-14
-3.54814e-15
-3.93447e-16
-4.01213e-17
-3.82274e-18
-3.47679e-19
-3.06161e-20
-2.64924e-21
-2.11658e-22
-1.98224e-23
-2.28976e-24
-3.89153e-25
-9.38897e-26
-2.65945e-26
-7.84372e-27
-2.30985e-27
-6.7139e-28
-1.9219e-28
-5.41795e-29
-1.50562e-29
-4.13019e-30
-1.11999e-30
-3.00672e-31
-8.00289e-32
-2.1151e-32
-5.56048e-33
-1.4582e-33
-2.96731e-34
-7.64521e-20
-2.48332e-19
-5.74042e-19
-1.31263e-18
-3.00297e-18
-6.87197e-18
-1.57384e-17
-3.6117e-17
-8.31838e-17
-1.92679e-16
-4.50109e-16
-1.06357e-15
-2.54394e-15
-6.13837e-15
-1.48378e-14
-3.5673e-14
-8.48076e-14
-1.97803e-13
-4.46689e-13
-1.00493e-12
-2.20882e-12
-4.75354e-12
-9.92563e-12
-2.02087e-11
-3.93415e-11
-7.58159e-11
-1.45873e-10
-2.82519e-10
-5.42205e-10
-1.04712e-09
-2.00972e-09
-3.81407e-09
-7.14795e-09
-1.30498e-08
-2.30312e-08
-3.88289e-08
-6.22039e-08
-9.52283e-08
-1.41902e-07
-2.08251e-07
-3.00424e-07
-4.19379e-07
-5.56373e-07
-6.87347e-07
-7.47071e-07
-6.24941e-07
-1.67432e-07
8.0628e-07
2.33854e-06
3.87805e-06
2.81531e-06
-2.37185e-06
-3.19229e-07
-4.69772e-07
-6.17069e-07
-5.4304e-07
-3.88112e-07
-2.4623e-07
-1.44209e-07
-7.47325e-08
-3.12077e-08
-1.3647e-08
-8.06286e-09
-5.0168e-09
-2.66448e-09
-1.14505e-09
-4.05492e-10
-1.18188e-10
-2.9375e-11
-6.3902e-12
-1.23367e-12
-1.9927e-13
-2.79659e-14
-3.45368e-15
-3.82526e-16
-3.89761e-17
-3.71135e-18
-3.37411e-19
-2.97039e-20
-2.57009e-21
-2.0508e-22
-1.92432e-23
-2.23369e-24
-3.82127e-25
-9.25823e-26
-2.62673e-26
-7.75159e-27
-2.28326e-27
-6.63759e-28
-1.90032e-28
-5.35783e-29
-1.48911e-29
-4.08542e-30
-1.10799e-30
-2.97485e-31
-7.91891e-32
-2.0931e-32
-5.50305e-33
-1.44322e-33
-2.93691e-34
-7.63364e-20
-2.47958e-19
-5.73186e-19
-1.3107e-18
-2.99859e-18
-6.86203e-18
-1.57157e-17
-3.60644e-17
-8.30591e-17
-1.92377e-16
-4.49365e-16
-1.06173e-15
-2.53945e-15
-6.1277e-15
-1.48129e-14
-3.56192e-14
-8.46917e-14
-1.97561e-13
-4.46195e-13
-1.00382e-12
-2.20707e-12
-4.75121e-12
-9.92414e-12
-2.02131e-11
-3.93632e-11
-7.58813e-11
-1.46042e-10
-2.82931e-10
-5.43138e-10
-1.04917e-09
-2.01412e-09
-3.82312e-09
-7.16904e-09
-1.30864e-08
-2.31001e-08
-3.89503e-08
-6.24064e-08
-9.55441e-08
-1.42379e-07
-2.08948e-07
-3.01405e-07
-4.20673e-07
-5.57921e-07
-6.88882e-07
-7.47927e-07
-6.23797e-07
-1.62104e-07
8.18566e-07
2.35798e-06
3.89118e-06
2.75985e-06
-2.36049e-06
-3.20542e-07
-4.73851e-07
-6.18721e-07
-5.42573e-07
-3.87066e-07
-2.45333e-07
-1.43571e-07
-7.42505e-08
-3.09318e-08
-1.35611e-08
-8.03452e-09
-4.997e-09
-2.64915e-09
-1.13571e-09
-4.01734e-10
-1.16809e-10
-2.89645e-11
-6.30037e-12
-1.21468e-12
-1.95935e-13
-2.74625e-14
-3.38766e-15
-3.74873e-16
-3.81719e-17
-3.63293e-18
-3.30175e-19
-2.90611e-20
-2.51434e-21
-2.00451e-22
-1.88355e-23
-2.19415e-24
-3.77147e-25
-9.16487e-26
-2.6032e-26
-7.68504e-27
-2.26396e-27
-6.58191e-28
-1.88448e-28
-5.31345e-29
-1.47685e-29
-4.05203e-30
-1.09902e-30
-2.95097e-31
-7.85592e-32
-2.07659e-32
-5.45995e-33
-1.43198e-33
-2.91409e-34
-7.62623e-20
-2.47718e-19
-5.72633e-19
-1.30943e-18
-2.99568e-18
-6.85532e-18
-1.57e-17
-3.60277e-17
-8.29726e-17
-1.92172e-16
-4.48874e-16
-1.06056e-15
-2.53666e-15
-6.12105e-15
-1.47972e-14
-3.5585e-14
-8.46195e-14
-1.97413e-13
-4.45902e-13
-1.00317e-12
-2.20606e-12
-4.74994e-12
-9.92363e-12
-2.02168e-11
-3.93791e-11
-7.59274e-11
-1.46159e-10
-2.83216e-10
-5.43835e-10
-1.05056e-09
-2.01709e-09
-3.82926e-09
-7.18156e-09
-1.31104e-08
-2.31448e-08
-3.90287e-08
-6.25369e-08
-9.57472e-08
-1.42686e-07
-2.09396e-07
-3.02042e-07
-4.21522e-07
-5.58949e-07
-6.89934e-07
-7.48584e-07
-6.23243e-07
-1.59097e-07
8.25411e-07
2.36801e-06
3.89609e-06
2.7315e-06
-2.33936e-06
-3.21052e-07
-4.76751e-07
-6.19391e-07
-5.42138e-07
-3.86683e-07
-2.44979e-07
-1.43285e-07
-7.40167e-08
-3.0816e-08
-1.35423e-08
-8.03006e-09
-4.98823e-09
-2.64029e-09
-1.12989e-09
-3.99098e-10
-1.15915e-10
-2.86977e-11
-6.24244e-12
-1.20242e-12
-1.9378e-13
-2.71371e-14
-3.34501e-15
-3.69923e-16
-3.76511e-17
-3.58231e-18
-3.25514e-19
-2.86474e-20
-2.47848e-21
-1.97478e-22
-1.85734e-23
-2.16859e-24
-3.73897e-25
-9.10347e-26
-2.58773e-26
-7.64139e-27
-2.25136e-27
-6.54576e-28
-1.87425e-28
-5.28493e-29
-1.469e-29
-4.03063e-30
-1.09324e-30
-2.93551e-31
-7.81488e-32
-2.06577e-32
-5.43156e-33
-1.42454e-33
-2.89898e-34
-7.62253e-20
-2.47598e-19
-5.72356e-19
-1.3088e-18
-2.99424e-18
-6.85202e-18
-1.56925e-17
-3.60105e-17
-8.29324e-17
-1.92076e-16
-4.48645e-16
-1.06001e-15
-2.53534e-15
-6.11793e-15
-1.47898e-14
-3.5569e-14
-8.45858e-14
-1.97345e-13
-4.45764e-13
-1.00286e-12
-2.2056e-12
-4.7494e-12
-9.92356e-12
-2.02191e-11
-3.93878e-11
-7.59521e-11
-1.46222e-10
-2.83368e-10
-5.44191e-10
-1.05128e-09
-2.01864e-09
-3.83249e-09
-7.18415e-09
-1.31222e-08
-2.31664e-08
-3.90663e-08
-6.25992e-08
-9.58437e-08
-1.42831e-07
-2.09608e-07
-3.0234e-07
-4.2192e-07
-5.59445e-07
-6.90492e-07
-7.49121e-07
-6.23691e-07
-1.59632e-07
8.23688e-07
2.36209e-06
3.88379e-06
2.73858e-06
-2.29669e-06
-3.18771e-07
-4.78758e-07
-6.20256e-07
-5.43572e-07
-3.874e-07
-2.45175e-07
-1.4327e-07
-7.39016e-08
-3.07014e-08
-1.34937e-08
-8.01343e-09
-4.979e-09
-2.63404e-09
-1.12634e-09
-3.97574e-10
-1.15414e-10
-2.85523e-11
-6.21075e-12
-1.19581e-12
-1.92632e-13
-2.69655e-14
-3.32272e-15
-3.67355e-16
-3.7382e-17
-3.55603e-18
-3.23083e-19
-2.84309e-20
-2.45965e-21
-1.95916e-22
-1.84349e-23
-2.15494e-24
-3.72126e-25
-9.06938e-26
-2.57906e-26
-7.61696e-27
-2.24433e-27
-6.52565e-28
-1.86859e-28
-5.26924e-29
-1.46472e-29
-4.01909e-30
-1.09017e-30
-2.92741e-31
-7.79367e-32
-2.06024e-32
-5.41718e-33
-1.42079e-33
-2.89137e-34
-7.62247e-20
-2.47596e-19
-5.72351e-19
-1.30879e-18
-2.99421e-18
-6.85197e-18
-1.56924e-17
-3.60103e-17
-8.29322e-17
-1.92076e-16
-4.48646e-16
-1.06001e-15
-2.53535e-15
-6.11797e-15
-1.47899e-14
-3.55694e-14
-8.45867e-14
-1.97347e-13
-4.45769e-13
-1.00287e-12
-2.20562e-12
-4.74944e-12
-9.92363e-12
-2.02192e-11
-3.93879e-11
-7.5952e-11
-1.46221e-10
-2.83365e-10
-5.442e-10
-1.05129e-09
-2.01868e-09
-3.83261e-09
-7.18512e-09
-1.31221e-08
-2.31657e-08
-3.90648e-08
-6.25963e-08
-9.58386e-08
-1.42821e-07
-2.09592e-07
-3.02307e-07
-4.21855e-07
-5.59312e-07
-6.90217e-07
-7.48551e-07
-6.22506e-07
-1.57162e-07
8.28795e-07
2.37188e-06
3.89638e-06
2.71965e-06
-2.33437e-06
-3.20831e-07
-4.77249e-07
-6.20018e-07
-5.42603e-07
-3.86521e-07
-2.44679e-07
-1.43025e-07
-7.37959e-08
-3.0682e-08
-1.34961e-08
-8.01254e-09
-4.97676e-09
-2.63262e-09
-1.12573e-09
-3.9736e-10
-1.15355e-10
-2.85376e-11
-6.2075e-12
-1.19519e-12
-1.92531e-13
-2.69512e-14
-3.32095e-15
-3.67158e-16
-3.73618e-17
-3.5541e-18
-3.22907e-19
-2.84154e-20
-2.45831e-21
-1.95805e-22
-1.84252e-23
-2.15401e-24
-3.72007e-25
-9.06712e-26
-2.57849e-26
-7.61533e-27
-2.24387e-27
-6.52436e-28
-1.86825e-28
-5.26831e-29
-1.46448e-29
-4.0185e-30
-1.09002e-30
-2.92707e-31
-7.79289e-32
-2.06006e-32
-5.41677e-33
-1.4207e-33
-2.89121e-34
-7.62605e-20
-2.47712e-19
-5.72617e-19
-1.30939e-18
-2.99558e-18
-6.8551e-18
-1.56996e-17
-3.6027e-17
-8.29713e-17
-1.9217e-16
-4.48872e-16
-1.06056e-15
-2.53668e-15
-6.12116e-15
-1.47974e-14
-3.55859e-14
-8.4622e-14
-1.97419e-13
-4.45914e-13
-1.00319e-12
-2.20611e-12
-4.75004e-12
-9.92381e-12
-2.02171e-11
-3.93794e-11
-7.59273e-11
-1.46158e-10
-2.83211e-10
-5.43771e-10
-1.05056e-09
-2.01711e-09
-3.82933e-09
-7.17978e-09
-1.31095e-08
-2.31424e-08
-3.90239e-08
-6.25281e-08
-9.5732e-08
-1.4266e-07
-2.09351e-07
-3.01964e-07
-4.21389e-07
-5.58722e-07
-6.89546e-07
-7.47954e-07
-6.22308e-07
-1.57904e-07
8.26493e-07
2.36811e-06
3.89439e-06
2.73274e-06
-2.34401e-06
-3.20084e-07
-4.75641e-07
-6.19721e-07
-5.42699e-07
-3.86752e-07
-2.44891e-07
-1.43183e-07
-7.39248e-08
-3.07546e-08
-1.35161e-08
-8.01899e-09
-4.98218e-09
-2.63716e-09
-1.12856e-09
-3.98627e-10
-1.15782e-10
-2.86648e-11
-6.23508e-12
-1.20101e-12
-1.93549e-13
-2.71042e-14
-3.34099e-15
-3.6948e-16
-3.76055e-17
-3.57782e-18
-3.25093e-19
-2.86095e-20
-2.47514e-21
-1.972e-22
-1.85484e-23
-2.16607e-24
-3.73556e-25
-9.09668e-26
-2.58598e-26
-7.63653e-27
-2.24999e-27
-6.54197e-28
-1.87324e-28
-5.28225e-29
-1.46832e-29
-4.02895e-30
-1.09284e-30
-2.93458e-31
-7.81275e-32
-2.06529e-32
-5.43048e-33
-1.4243e-33
-2.89852e-34
-7.63354e-20
-2.47954e-19
-5.73174e-19
-1.31066e-18
-2.99848e-18
-6.86171e-18
-1.57148e-17
-3.6062e-17
-8.30537e-17
-1.92366e-16
-4.49347e-16
-1.06172e-15
-2.53948e-15
-6.1279e-15
-1.48135e-14
-3.5621e-14
-8.46966e-14
-1.97572e-13
-4.46221e-13
-1.00388e-12
-2.20718e-12
-4.7514e-12
-9.92443e-12
-2.02134e-11
-3.93634e-11
-7.58809e-11
-1.4604e-10
-2.82925e-10
-5.43124e-10
-1.04914e-09
-2.01405e-09
-3.82298e-09
-7.16712e-09
-1.30845e-08
-2.30959e-08
-3.89421e-08
-6.2392e-08
-9.55201e-08
-1.4234e-07
-2.08887e-07
-3.01309e-07
-4.20524e-07
-5.57681e-07
-6.88486e-07
-7.47269e-07
-6.22743e-07
-1.60584e-07
8.20366e-07
2.35929e-06
3.89086e-06
2.76134e-06
-2.36294e-06
-3.1926e-07
-4.72716e-07
-6.18683e-07
-5.42939e-07
-3.87353e-07
-2.45445e-07
-1.43594e-07
-7.42422e-08
-3.0935e-08
-1.35719e-08
-8.03797e-09
-4.99548e-09
-2.64728e-09
-1.13469e-09
-4.01339e-10
-1.1669e-10
-2.89327e-11
-6.29318e-12
-1.21324e-12
-1.95696e-13
-2.74297e-14
-3.38361e-15
-3.74405e-16
-3.81232e-17
-3.62829e-18
-3.29753e-19
-2.90238e-20
-2.51111e-21
-2.00183e-22