/*--------------------------------*- C++ -*----------------------------------*\
  =========                 |
  \\      /  F ield         | OpenFOAM: The Open Source CFD Toolbox
   \\    /   O peration     | Website:  https://openfoam.org
    \\  /    A nd           | Version:  10
     \\/     M anipulation  |
\*---------------------------------------------------------------------------*/
FoamFile
{
    format      ascii;
    class       volScalarField;
    location    "1";
    object      RR.NO;
}
// * * * * * * * * * * * * * * * * * * * * * * * * * * * * * * * * * * * * * //

dimensions      [1 -3 -1 0 0 0 0];

internalField   nonuniform List<scalar> 
4000
(
-4.18371e-13
-6.07837e-12
-2.64549e-11
-8.43774e-11
-2.32772e-10
-5.90826e-10
-1.41943e-09
-3.27138e-09
-7.2726e-09
-1.56121e-08
-3.23493e-08
-6.47469e-08
-1.25422e-07
-2.35494e-07
-4.28419e-07
-7.51581e-07
-1.2716e-06
-2.06275e-06
-3.14748e-06
-4.65842e-06
-6.58799e-06
-9.23247e-06
-1.32725e-05
-1.95304e-05
-2.9385e-05
-4.42153e-05
-6.56105e-05
-9.5732e-05
-0.000136722
-0.000193827
-0.000273479
-0.000385941
-0.000547522
-0.000782052
-0.00112471
-0.00162996
-0.00237381
-0.00346397
-0.00504512
-0.00733461
-0.0107014
-0.0156543
-0.0229912
-0.0340547
-0.0513567
-0.0783858
-0.120559
-0.186548
-0.289666
-0.447261
-0.672741
-0.870773
0.265866
0.961749
0.876281
0.586946
0.334015
0.169434
0.0755925
0.0288805
0.0105626
0.00766608
0.00644631
-0.00553282
-0.02316
-0.0217881
-0.0119418
-0.0051713
-0.00180034
-0.000510041
-0.000123398
-2.50012e-05
-4.21103e-06
-5.86191e-07
-7.2164e-08
-8.73361e-09
-1.03599e-09
-1.34862e-10
-2.09799e-11
-3.99063e-12
-8.94614e-13
-2.22714e-13
-5.85381e-14
-1.55013e-14
-3.93853e-15
-8.68574e-16
-1.09701e-16
4.24288e-17
5.08676e-17
3.47693e-17
2.03715e-17
1.11933e-17
5.95042e-18
3.10039e-18
1.59139e-18
8.02386e-19
3.93497e-19
1.82859e-19
7.45596e-20
1.72484e-20
-4.14859e-13
-6.02708e-12
-2.6232e-11
-8.36812e-11
-2.30907e-10
-5.86178e-10
-1.40836e-09
-3.24558e-09
-7.21295e-09
-1.54746e-08
-3.20341e-08
-6.40383e-08
-1.23851e-07
-2.3222e-07
-4.22093e-07
-7.40193e-07
-1.25108e-06
-2.02823e-06
-3.09781e-06
-4.59687e-06
-6.50745e-06
-9.10924e-06
-1.3072e-05
-1.92347e-05
-2.89493e-05
-4.36382e-05
-6.48739e-05
-9.49649e-05
-0.000135857
-0.000192921
-0.000272554
-0.000384975
-0.000546656
-0.000781788
-0.00112579
-0.00163348
-0.00238215
-0.00348117
-0.0050758
-0.00738796
-0.0107902
-0.0157998
-0.023221
-0.0344283
-0.0519674
-0.0793864
-0.122155
-0.189089
-0.29364
-0.45328
-0.68092
-0.868895
0.317552
0.972905
0.870297
0.578052
0.328314
0.165662
0.0733637
0.0278164
0.0102064
0.00771816
0.00606228
-0.00712832
-0.0240172
-0.021206
-0.0113604
-0.00484345
-0.0016562
-0.000460776
-0.000109623
-2.19913e-05
-3.65945e-06
-5.02518e-07
-6.19106e-08
-7.508e-09
-8.98725e-10
-1.18666e-10
-1.87763e-11
-3.62877e-12
-8.25148e-13
-2.0797e-13
-5.51817e-14
-1.47481e-14
-3.75181e-15
-8.18831e-16
-9.39506e-17
4.88039e-17
5.38847e-17
3.6177e-17
2.11193e-17
1.15731e-17
6.1372e-18
3.19137e-18
1.63326e-18
8.22042e-19
4.02248e-19
1.86592e-19
7.59606e-20
1.7565e-20
-4.12144e-13
-5.9885e-12
-2.60702e-11
-8.31878e-11
-2.29612e-10
-5.83063e-10
-1.40094e-09
-3.22749e-09
-7.16801e-09
-1.53616e-08
-3.17495e-08
-6.33226e-08
-1.22244e-07
-2.28861e-07
-4.15476e-07
-7.28123e-07
-1.23147e-06
-1.99562e-06
-3.04866e-06
-4.52805e-06
-6.41538e-06
-8.98412e-06
-1.28414e-05
-1.90032e-05
-2.85581e-05
-4.30844e-05
-6.41341e-05
-9.41148e-05
-0.000134893
-0.000191941
-0.000271631
-0.000384175
-0.000546376
-0.000782578
-0.00112892
-0.00164077
-0.00239697
-0.00350911
-0.0051263
-0.00747743
-0.0109389
-0.0160364
-0.0235969
-0.0350405
-0.0529548
-0.0809631
-0.124623
-0.192954
-0.299613
-0.462105
-0.691687
-0.861131
0.390639
0.986259
0.860301
0.565488
0.317756
0.158985
0.0697102
0.0262089
0.00968501
0.00773942
0.00541986
-0.00925277
-0.0248125
-0.0203535
-0.0105939
-0.00443133
-0.00148034
-0.000403778
-9.4578e-05
-1.8762e-05
-3.08848e-06
-4.23136e-07
-5.22686e-08
-6.3678e-09
-7.69475e-10
-1.0303e-10
-1.65506e-11
-3.22237e-12
-7.39655e-13
-1.88378e-13
-5.05806e-14
-1.36476e-14
-3.49453e-15
-7.56225e-16
-7.68646e-17
5.45875e-17
5.63068e-17
3.7394e-17
2.16979e-17
1.18738e-17
6.29333e-18
3.26979e-18
1.67263e-18
8.40611e-19
4.11126e-19
1.90511e-19
7.75437e-20
1.79169e-20
-4.079e-13
-5.92655e-12
-2.57975e-11
-8.23018e-11
-2.27098e-10
-5.76421e-10
-1.38426e-09
-3.18724e-09
-7.07402e-09
-1.51496e-08
-3.12903e-08
-6.23813e-08
-1.20348e-07
-2.25156e-07
-4.08532e-07
-7.15836e-07
-1.21098e-06
-1.96645e-06
-3.00955e-06
-4.47255e-06
-6.34281e-06
-8.88193e-06
-1.2674e-05
-1.87532e-05
-2.81985e-05
-4.25966e-05
-6.3504e-05
-9.34259e-05
-0.000134182
-0.000191347
-0.000271322
-0.000384263
-0.000547342
-0.000785053
-0.00113476
-0.00165241
-0.00241885
-0.00354834
-0.00519677
-0.00759486
-0.0111279
-0.0163447
-0.024095
-0.0358402
-0.0542521
-0.0830701
-0.127937
-0.198359
-0.308018
-0.474467
-0.707216
-0.84699
0.468141
1.00014
0.848605
0.550536
0.30639
0.151633
0.065549
0.0242061
0.00918337
0.00774045
0.00449581
-0.0116352
-0.0253475
-0.0192835
-0.00973249
-0.00396067
-0.00130173
-0.000347724
-8.0323e-05
-1.57981e-05
-2.54674e-06
-3.4329e-07
-4.20694e-08
-5.08864e-09
-6.15628e-10
-8.30837e-11
-1.35225e-11
-2.71772e-12
-6.39803e-13
-1.65356e-13
-4.50286e-14
-1.22784e-14
-3.15223e-15
-6.69956e-16
-5.45486e-17
6.08718e-17
5.83691e-17
3.81911e-17
2.20705e-17
1.20502e-17
6.37977e-18
3.31219e-18
1.69335e-18
8.50943e-19
4.16206e-19
1.92765e-19
7.84612e-20
1.81344e-20
-4.03519e-13
-5.86293e-12
-2.55204e-11
-8.14148e-11
-2.24634e-10
-5.70097e-10
-1.36884e-09
-3.15105e-09
-6.99176e-09
-1.4968e-08
-3.09011e-08
-6.15739e-08
-1.18734e-07
-2.22056e-07
-4.02846e-07
-7.06005e-07
-1.19497e-06
-1.94223e-06
-2.9756e-06
-4.42814e-06
-6.28914e-06
-8.80987e-06
-1.25464e-05
-1.85555e-05
-2.78921e-05
-4.21637e-05
-6.3001e-05
-9.29286e-05
-0.000133755
-0.000191159
-0.000271599
-0.000385265
-0.000549486
-0.000789258
-0.00114304
-0.00166755
-0.00244566
-0.00359588
-0.00527596
-0.00772409
-0.011339
-0.016684
-0.0246405
-0.0367161
-0.0556693
-0.0853656
-0.13141
-0.203813
-0.316441
-0.486819
-0.721818
-0.820461
0.547551
1.00956
0.833122
0.533337
0.293991
0.143842
0.0612943
0.0222821
0.00875609
0.00771171
0.00349915
-0.0139087
-0.0255398
-0.0182149
-0.00895623
-0.00357988
-0.0011507
-0.000300988
-6.87262e-05
-1.32756e-05
-2.10383e-06
-2.80873e-07
-3.43768e-08
-4.15872e-09
-5.06924e-10
-6.93327e-11
-1.14485e-11
-2.30664e-12
-5.46881e-13
-1.44819e-13
-4.01359e-14
-1.10568e-14
-2.83011e-15
-5.86143e-16
-3.26044e-17
6.67897e-17
6.01186e-17
3.87702e-17
2.23061e-17
1.2157e-17
6.42834e-18
3.33628e-18
1.7059e-18
8.56798e-19
4.18919e-19
1.94055e-19
7.89652e-20
1.82562e-20
-3.98946e-13
-5.79637e-12
-2.52296e-11
-8.04811e-11
-2.22035e-10
-5.63435e-10
-1.35266e-09
-3.11336e-09
-6.90706e-09
-1.47838e-08
-3.05133e-08
-6.07859e-08
-1.17196e-07
-2.19187e-07
-3.97751e-07
-6.97521e-07
-1.18176e-06
-1.92339e-06
-2.95132e-06
-4.39539e-06
-6.25063e-06
-8.75887e-06
-1.24505e-05
-1.84024e-05
-2.76533e-05
-4.18658e-05
-6.26684e-05
-9.26541e-05
-0.000133624
-0.00019138
-0.000272389
-0.000386888
-0.000552699
-0.000794962
-0.00115327
-0.00168563
-0.00247701
-0.00364824
-0.00536222
-0.00786577
-0.0115668
-0.01705
-0.0252078
-0.0376093
-0.0570936
-0.0876398
-0.135075
-0.209593
-0.325596
-0.500565
-0.738525
-0.789448
0.613539
1.01662
0.818998
0.517476
0.282709
0.136712
0.0572467
0.0203728
0.00834716
0.00760257
0.00245898
-0.0157899
-0.0254404
-0.0172548
-0.00832981
-0.0032177
-0.0010126
-0.000261097
-5.87656e-05
-1.11681e-05
-1.74467e-06
-2.31241e-07
-2.83073e-08
-3.42862e-09
-4.21413e-10
-5.8457e-11
-9.81408e-12
-2.00781e-12
-4.80115e-13
-1.27002e-13
-3.52484e-14
-9.7451e-15
-2.51162e-15
-5.07203e-16
-1.27382e-17
7.17807e-17
6.13772e-17
3.90897e-17
2.23939e-17
1.21822e-17
6.43764e-18
3.34073e-18
1.7076e-18
8.57887e-19
4.1935e-19
1.94232e-19
7.90766e-20
1.82723e-20
-3.94511e-13
-5.7319e-12
-2.49484e-11
-7.95809e-11
-2.19541e-10
-5.57073e-10
-1.33732e-09
-3.07792e-09
-6.82815e-09
-1.46139e-08
-3.01592e-08
-6.00738e-08
-1.15821e-07
-2.16647e-07
-3.93283e-07
-6.90144e-07
-1.17036e-06
-1.90719e-06
-2.93035e-06
-4.36675e-06
-6.21818e-06
-8.7211e-06
-1.23791e-05
-1.82877e-05
-2.74927e-05
-4.16708e-05
-6.24813e-05
-9.25696e-05
-0.000133747
-0.000191904
-0.000273554
-0.000389064
-0.000556669
-0.0008016
-0.00116458
-0.00170485
-0.00250973
-0.00370369
-0.00545091
-0.0080081
-0.0117979
-0.0174162
-0.0257821
-0.0385176
-0.0585429
-0.0899495
-0.138629
-0.215185
-0.335074
-0.513988
-0.754184
-0.742653
0.674654
1.01847
0.803089
0.498428
0.270146
0.129332
0.0534203
0.0186822
0.0081172
0.00754466
0.00141773
-0.0174014
-0.0252114
-0.0164207
-0.00779791
-0.00296615
-0.000919058
-0.000233406
-5.21121e-05
-9.78363e-06
-1.51124e-06
-1.99009e-07
-2.43455e-08
-2.94855e-09
-3.64486e-10
-5.10797e-11
-8.67664e-12
-1.79386e-12
-4.32521e-13
-1.15153e-13
-3.20789e-14
-8.85113e-15
-2.24337e-15
-4.30306e-16
7.86921e-18
7.68125e-17
6.24273e-17
3.924e-17
2.23674e-17
1.21444e-17
6.41584e-18
3.32791e-18
1.70152e-18
8.54725e-19
4.17902e-19
1.93624e-19
7.87986e-20
1.82077e-20
-3.90351e-13
-5.67143e-12
-2.46848e-11
-7.8738e-11
-2.17208e-10
-5.5114e-10
-1.32306e-09
-3.04514e-09
-6.75559e-09
-1.44588e-08
-2.98384e-08
-5.94343e-08
-1.14598e-07
-2.1441e-07
-3.89388e-07
-6.83782e-07
-1.16064e-06
-1.89362e-06
-2.91325e-06
-4.34347e-06
-6.19458e-06
-8.69371e-06
-1.23336e-05
-1.82202e-05
-2.73964e-05
-4.15586e-05
-6.24042e-05
-9.26282e-05
-0.000134046
-0.000192623
-0.000274965
-0.000391557
-0.000560909
-0.000808833
-0.00117667
-0.00172545
-0.00254338
-0.003758
-0.00553848
-0.00814662
-0.0120103
-0.0177461
-0.0262953
-0.0393338
-0.0598649
-0.0921056
-0.1421
-0.220727
-0.343703
-0.526895
-0.76953
-0.69109
0.722691
1.01843
0.787287
0.485323
0.26117
0.123861
0.050505
0.0174417
0.00790968
0.00740114
0.000340679
-0.0188377
-0.0249188
-0.0156617
-0.00732829
-0.00273353
-0.000833841
-0.000209235
-4.64278e-05
-8.63929e-06
-1.32068e-06
-1.7282e-07
-2.1121e-08
-2.55657e-09
-3.17581e-10
-4.4906e-11
-7.70561e-12
-1.60763e-12
-3.90526e-13
-1.04643e-13
-2.92935e-14
-8.09503e-15
-2.03756e-15
-3.76251e-16
2.1584e-17
7.98072e-17
6.28471e-17
3.91554e-17
2.22437e-17
1.206e-17
6.36707e-18
3.30269e-18
1.68797e-18
8.48351e-19
4.14827e-19
1.92146e-19
7.82146e-20
1.80793e-20
-3.86588e-13
-5.61679e-12
-2.44469e-11
-7.79784e-11
-2.15112e-10
-5.45823e-10
-1.31033e-09
-3.016e-09
-6.69142e-09
-1.43224e-08
-2.95582e-08
-5.88796e-08
-1.13545e-07
-2.125e-07
-3.86093e-07
-6.78471e-07
-1.15269e-06
-1.88287e-06
-2.90054e-06
-4.32632e-06
-6.17717e-06
-8.67538e-06
-1.23068e-05
-1.81778e-05
-2.73377e-05
-4.15082e-05
-6.24111e-05
-9.27872e-05
-0.000134463
-0.000193481
-0.000276588
-0.000394342
-0.000565484
-0.000816345
-0.00118929
-0.00174608
-0.00257697
-0.00381185
-0.00562575
-0.00828728
-0.0122351
-0.018099
-0.0268419
-0.0401931
-0.0612328
-0.0942709
-0.145529
-0.226232
-0.352202
-0.540191
-0.786347
-0.644432
0.758304
1.01768
0.776505
0.471234
0.25172
0.118378
0.0477019
0.0163133
0.00773769
0.00724736
-0.00070629
-0.0201043
-0.0246248
-0.0149763
-0.00688234
-0.0025291
-0.000760522
-0.000187897
-4.12526e-05
-7.57681e-06
-1.14492e-06
-1.48973e-07
-1.82116e-08
-2.2062e-09
-2.75826e-10
-3.9414e-11
-6.84328e-12
-1.44319e-12
-3.53844e-13
-9.55625e-14
-2.69073e-14
-7.45123e-15
-1.86415e-15
-3.30684e-16
3.26092e-17
8.20102e-17
6.3031e-17
3.89755e-17
2.2083e-17
1.19551e-17
6.31175e-18
3.273e-18
1.67242e-18
8.40553e-19
4.11102e-19
1.90495e-19
7.75301e-20
1.79222e-20
-3.83269e-13
-5.5686e-12
-2.42372e-11
-7.73098e-11
-2.13269e-10
-5.4116e-10
-1.2992e-09
-2.9906e-09
-6.63576e-09
-1.42047e-08
-2.9318e-08
-5.84071e-08
-1.12652e-07
-2.10886e-07
-3.83313e-07
-6.73988e-07
-1.14594e-06
-1.87368e-06
-2.88935e-06
-4.3115e-06
-6.16423e-06
-8.66378e-06
-1.2293e-05
-1.81585e-05
-2.73149e-05
-4.15035e-05
-6.24737e-05
-9.30031e-05
-0.000134939
-0.000194418
-0.000278224
-0.000397071
-0.000569708
-0.000823859
-0.00120144
-0.00176592
-0.00260929
-0.00386054
-0.00570964
-0.00841879
-0.0124421
-0.0184237
-0.0273461
-0.0409885
-0.0624894
-0.0962783
-0.148725
-0.231181
-0.35928
-0.550454
-0.797767
-0.573798
0.790988
1.01377
0.763647
0.460568
0.244729
0.114348
0.0456493
0.0154939
0.00761738
0.00707017
-0.00163425
-0.0209384
-0.024197
-0.0143201
-0.0064782
-0.00235931
-0.000701065
-0.000171777
-3.7476e-05
-6.80923e-06
-1.02047e-06
-1.32156e-07
-1.61561e-08
-1.95802e-09
-2.46037e-10
-3.54572e-11
-6.21518e-12
-1.32222e-12
-3.26549e-13
-8.87117e-14
-2.50772e-14
-6.94979e-15
-1.72729e-15
-2.95136e-16
4.11318e-17
8.35611e-17
6.30127e-17
3.8734e-17
2.18988e-17
1.18498e-17
6.2501e-18
3.24154e-18
1.6566e-18
8.32295e-19
4.07121e-19
1.88663e-19
7.68235e-20
1.77582e-20
-3.80403e-13
-5.52699e-12
-2.40563e-11
-7.67337e-11
-2.11684e-10
-5.37155e-10
-1.28966e-09
-2.9689e-09
-6.58839e-09
-1.41053e-08
-2.9117e-08
-5.80166e-08
-1.11925e-07
-2.09594e-07
-3.81075e-07
-6.70481e-07
-1.14092e-06
-1.86727e-06
-2.88198e-06
-4.30195e-06
-6.15676e-06
-8.65901e-06
-1.22888e-05
-1.81533e-05
-2.73136e-05
-4.1529e-05
-6.2572e-05
-9.32582e-05
-0.000135451
-0.00019534
-0.000279825
-0.000399734
-0.000574417
-0.000830784
-0.00121252
-0.00178379
-0.00263786
-0.00390632
-0.00578315
-0.00853508
-0.012626
-0.0187143
-0.027803
-0.041724
-0.0636768
-0.0982049
-0.151776
-0.236029
-0.366542
-0.561316
-0.810378
-0.512093
0.817035
1.01006
0.751005
0.452138
0.238832
0.110813
0.0438152
0.0147787
0.00753656
0.00690898
-0.00253775
-0.0217783
-0.0238748
-0.0138163
-0.00619195
-0.00222917
-0.000655304
-0.00015949
-3.46317e-05
-6.23737e-06
-9.28247e-07
-1.19763e-07
-1.46441e-08
-1.77567e-09
-2.24112e-10
-3.25365e-11
-5.74841e-12
-1.23191e-12
-3.06021e-13
-8.3496e-14
-2.36654e-14
-6.55731e-15
-1.61949e-15
-2.6683e-16
4.77308e-17
8.46639e-17
6.28541e-17
3.84758e-17
2.17055e-17
1.17365e-17
6.18839e-18
3.20919e-18
1.64003e-18
8.24399e-19
4.03122e-19
1.86909e-19
7.60424e-20
1.75845e-20
-3.7797e-13
-5.49169e-12
-2.39029e-11
-7.62457e-11
-2.10343e-10
-5.33775e-10
-1.28163e-09
-2.9507e-09
-6.54882e-09
-1.40226e-08
-2.89511e-08
-5.76967e-08
-1.11335e-07
-2.08556e-07
-3.79288e-07
-6.67745e-07
-1.13699e-06
-1.86208e-06
-2.87618e-06
-4.29504e-06
-6.15254e-06
-8.65876e-06
-1.22912e-05
-1.81584e-05
-2.73273e-05
-4.15734e-05
-6.26901e-05
-9.35217e-05
-0.000135952
-0.000196212
-0.000281311
-0.000402152
-0.000578289
-0.000837023
-0.00122249
-0.00179975
-0.00266319
-0.00394697
-0.00584645
-0.00863291
-0.0127767
-0.0189443
-0.0281493
-0.0424694
-0.064803
-0.0999858
-0.154623
-0.240609
-0.373955
-0.573058
-0.825415
-0.470481
0.835609
1.00886
0.744294
0.445027
0.233956
0.107906
0.0423068
0.0141854
0.00746581
0.00674951
-0.00335185
-0.0224293
-0.0235587
-0.0134433
-0.00597704
-0.00212722
-0.000619805
-0.000150403
-3.25328e-05
-5.82885e-06
-8.62697e-07
-1.10946e-07
-1.35644e-08
-1.64481e-09
-2.08258e-10
-3.04013e-11
-5.40367e-12
-1.16426e-12
-2.90415e-13
-7.94731e-14
-2.25619e-14
-6.24583e-15
-1.53263e-15
-2.44057e-16
5.2931e-17
8.53585e-17
6.2664e-17
3.82334e-17
2.15273e-17
1.16287e-17
6.12983e-18
3.17907e-18
1.62512e-18
8.16869e-19
3.99433e-19
1.85131e-19
7.53652e-20
1.74215e-20
-3.75935e-13
-5.46218e-12
-2.37747e-11
-7.58382e-11
-2.09225e-10
-5.3096e-10
-1.27495e-09
-2.93561e-09
-6.51612e-09
-1.39546e-08
-2.88151e-08
-5.74363e-08
-1.1086e-07
-2.07735e-07
-3.77911e-07
-6.65646e-07
-1.13395e-06
-1.8583e-06
-2.87235e-06
-4.29058e-06
-6.15099e-06
-8.66122e-06
-1.22976e-05
-1.81704e-05
-2.73522e-05
-4.16332e-05
-6.28242e-05
-9.37971e-05
-0.000136444
-0.000197036
-0.000282677
-0.000404339
-0.000581634
-0.00084264
-0.00123154
-0.00181425
-0.00268663
-0.00398395
-0.00590471
-0.00872408
-0.0129197
-0.0191687
-0.028504
-0.0430424
-0.065711
-0.101435
-0.156924
-0.244244
-0.379492
-0.580957
-0.83392
-0.405901
0.852479
1.00301
0.734714
0.436033
0.228497
0.104965
0.0409116
0.0136977
0.00743006
0.00661729
-0.00404273
-0.0229429
-0.0232879
-0.0131117
-0.00579351
-0.00204634
-0.000591656
-0.000143253
-3.08487e-05
-5.48943e-06
-8.08506e-07
-1.03683e-07
-1.26768e-08
-1.53749e-09
-1.95265e-10
-2.8653e-11
-5.12266e-12
-1.10937e-12
-2.77789e-13
-7.62203e-14
-2.1665e-14
-5.99379e-15
-1.4625e-15
-2.25631e-16
5.71481e-17
8.59226e-17
6.24782e-17
3.79722e-17
2.13584e-17
1.15313e-17
6.07857e-18
3.1516e-18
1.61058e-18
8.0981e-19
3.9594e-19
1.83555e-19
7.47163e-20
1.72719e-20
-3.74256e-13
-5.43783e-12
-2.3669e-11
-7.55023e-11
-2.08303e-10
-5.28641e-10
-1.26946e-09
-2.92317e-09
-6.48915e-09
-1.38983e-08
-2.87023e-08
-5.7219e-08
-1.1046e-07
-2.07034e-07
-3.76711e-07
-6.63753e-07
-1.13134e-06
-1.85523e-06
-2.86959e-06
-4.28766e-06
-6.15106e-06
-8.66542e-06
-1.23063e-05
-1.81856e-05
-2.73807e-05
-4.1695e-05
-6.29532e-05
-9.40528e-05
-0.000136898
-0.000197809
-0.000283958
-0.000406428
-0.000585019
-0.000847597
-0.00123944
-0.00182698
-0.00270698
-0.00401626
-0.00595569
-0.00880395
-0.0130454
-0.0193673
-0.0288214
-0.0435579
-0.0665431
-0.102779
-0.159075
-0.247667
-0.384929
-0.589365
-0.844634
-0.362122
0.86693
1.00043
0.727941
0.430216
0.224603
0.102751
0.039832
0.0133185
0.00741272
0.00650255
-0.00464003
-0.0233476
-0.0230505
-0.012846
-0.00562838
-0.00198084
-0.000569357
-0.00013762
-2.95494e-05
-5.23295e-06
-7.67738e-07
-9.82249e-08
-1.2009e-08
-1.4566e-09
-1.85426e-10
-2.73173e-11
-4.90475e-12
-1.06602e-12
-2.67658e-13
-7.35842e-14
-2.09347e-14
-5.78626e-15
-1.40491e-15
-2.10439e-16
6.04513e-17
8.62137e-17
6.22497e-17
3.77434e-17
2.12012e-17
1.1443e-17
6.02962e-18
3.1266e-18
1.59799e-18
8.0315e-19
3.92967e-19
1.82143e-19
7.41204e-20
1.71372e-20
-3.72898e-13
-5.41813e-12
-2.35836e-11
-7.52307e-11
-2.07558e-10
-5.26769e-10
-1.26502e-09
-2.91315e-09
-6.46743e-09
-1.38531e-08
-2.86114e-08
-5.7044e-08
-1.10138e-07
-2.06471e-07
-3.75744e-07
-6.6235e-07
-1.1295e-06
-1.85315e-06
-2.86782e-06
-4.28599e-06
-6.15224e-06
-8.67072e-06
-1.23165e-05
-1.82028e-05
-2.74116e-05
-4.17559e-05
-6.30735e-05
-9.4281e-05
-0.0001373
-0.000198467
-0.000285029
-0.000408116
-0.000587537
-0.000851893
-0.00124619
-0.00183767
-0.00272387
-0.0040431
-0.00599837
-0.00887152
-0.0131528
-0.019538
-0.0290894
-0.0439868
-0.0672364
-0.103908
-0.160901
-0.250618
-0.389608
-0.596451
-0.852853
-0.32793
0.877226
0.997887
0.722516
0.425882
0.22165
0.101011
0.0389528
0.0129984
0.00738841
0.00639284
-0.00514419
-0.0236574
-0.0228439
-0.0126287
-0.00550684
-0.00192864
-0.000551753
-0.000133165
-2.85299e-05
-5.03283e-06
-7.36001e-07
-9.39784e-08
-1.14889e-08
-1.39352e-09
-1.7773e-10
-2.62668e-11
-4.73207e-12
-1.0314e-12
-2.5952e-13
-7.14497e-14
-2.03411e-14
-5.61755e-15
-1.35749e-15
-1.98378e-16
6.31861e-17
8.65756e-17
6.2041e-17
3.75501e-17
2.1066e-17
1.13684e-17
5.99042e-18
3.10569e-18
1.58719e-18
7.97799e-19
3.90192e-19
1.80872e-19
7.36454e-20
1.70241e-20
-3.71829e-13
-5.40264e-12
-2.35163e-11
-7.50174e-11
-2.06974e-10
-5.25302e-10
-1.26155e-09
-2.90533e-09
-6.45052e-09
-1.38179e-08
-2.85411e-08
-5.69098e-08
-1.09895e-07
-2.06056e-07
-3.75048e-07
-6.61329e-07
-1.12812e-06
-1.85163e-06
-2.86668e-06
-4.28511e-06
-6.15389e-06
-8.67596e-06
-1.23261e-05
-1.82192e-05
-2.74405e-05
-4.18111e-05
-6.31808e-05
-9.44821e-05
-0.000137646
-0.00019904
-0.000285942
-0.000409504
-0.000589929
-0.00085552
-0.00125198
-0.00184699
-0.00273871
-0.0040666
-0.00603538
-0.00892933
-0.0132431
-0.0196783
-0.0293105
-0.0443414
-0.0678138
-0.104859
-0.162467
-0.253209
-0.393863
-0.603187
-0.860737
-0.313675
0.884484
0.998177
0.720136
0.423454
0.21979
0.099824
0.0383065
0.0127453
0.00735862
0.00629003
-0.00556277
-0.0238964
-0.0226736
-0.0124536
-0.00540823
-0.00188614
-0.000537268
-0.000129527
-2.76965e-05
-4.86992e-06
-7.10281e-07
-9.05502e-08
-1.107e-08
-1.34285e-09
-1.71553e-10
-2.54235e-11
-4.59359e-12
-1.00373e-12
-2.53034e-13
-6.9753e-14
-1.98672e-14
-5.48288e-15
-1.31986e-15
-1.88345e-16
6.51723e-17
8.66896e-17
6.18607e-17
3.73721e-17
2.09534e-17
1.12995e-17
5.95422e-18
3.08673e-18
1.57764e-18
7.93298e-19
3.87815e-19
1.79889e-19
7.3221e-20
1.69225e-20
-3.7102e-13
-5.39091e-12
-2.34655e-11
-7.48561e-11
-2.06533e-10
-5.24198e-10
-1.25895e-09
-2.8995e-09
-6.43803e-09
-1.37922e-08
-2.84905e-08
-5.68143e-08
-1.09723e-07
-2.0576e-07
-3.7454e-07
-6.60566e-07
-1.12711e-06
-1.85057e-06
-2.86604e-06
-4.28483e-06
-6.15588e-06
-8.68123e-06
-1.23354e-05
-1.82344e-05
-2.74669e-05
-4.18611e-05
-6.32746e-05
-9.4652e-05
-0.000137933
-0.000199506
-0.000286696
-0.000410684
-0.000591775
-0.000858443
-0.00125664
-0.00185437
-0.00275038
-0.00408506
-0.00606443
-0.00897469
-0.0133141
-0.0197892
-0.0294845
-0.0446193
-0.0682579
-0.105566
-0.163571
-0.254899
-0.396358
-0.606557
-0.863871
-0.283306
0.891213
0.996099
0.716445
0.421217
0.218315
0.0989449
0.037844
0.0125658
0.00733653
0.00620573
-0.00589451
-0.0240791
-0.0225401
-0.0123184
-0.00534194
-0.00185365
-0.000526311
-0.000126794
-2.70652e-05
-4.74667e-06
-6.90872e-07
-8.79709e-08
-1.07553e-08
-1.3048e-09
-1.66908e-10
-2.47867e-11
-4.48837e-12
-9.82589e-13
-2.48061e-13
-6.84484e-14
-1.95031e-14
-5.37881e-15
-1.29103e-15
-1.8064e-16
6.67094e-17
8.68197e-17
6.1704e-17
3.72119e-17
2.08546e-17
1.12509e-17
5.92703e-18
3.07255e-18
1.57026e-18
7.89163e-19
3.85968e-19
1.78926e-19
7.28721e-20
1.68379e-20
-3.70446e-13
-5.38259e-12
-2.34295e-11
-7.47424e-11
-2.06224e-10
-5.23428e-10
-1.25715e-09
-2.89549e-09
-6.42943e-09
-1.37744e-08
-2.84546e-08
-5.67447e-08
-1.09594e-07
-2.05535e-07
-3.74161e-07
-6.60032e-07
-1.12644e-06
-1.84991e-06
-2.86573e-06
-4.28485e-06
-6.15759e-06
-8.68539e-06
-1.23426e-05
-1.82464e-05
-2.74874e-05
-4.1899e-05
-6.33447e-05
-9.47779e-05
-0.000138145
-0.000199853
-0.000287252
-0.000411563
-0.000593027
-0.000860596
-0.00126004
-0.00185975
-0.00275888
-0.0040985
-0.0060856
-0.00900785
-0.0133662
-0.0198708
-0.029613
-0.0448239
-0.0685873
-0.106101
-0.164436
-0.256298
-0.398585
-0.609922
-0.867058
-0.274362
0.894809
0.99549
0.714738
0.419115
0.217083
0.0982792
0.0375135
0.0124418
0.00732155
0.00613961
-0.00614626
-0.0242118
-0.0224401
-0.0122194
-0.00526516
-0.00183019
-0.000518402
-0.000124819
-2.66134e-05
-4.65862e-06
-6.76997e-07
-8.61225e-08
-1.05291e-08
-1.27737e-09
-1.63545e-10
-2.43248e-11
-4.41231e-12
-9.67411e-13
-2.44514e-13
-6.75245e-14
-1.92466e-14
-5.30495e-15
-1.26994e-15
-1.75427e-16
6.78577e-17
8.6838e-17
6.15628e-17
3.71158e-17
2.07905e-17
1.12075e-17
5.90373e-18
3.06158e-18
1.5647e-18
7.86459e-19
3.84641e-19
1.78315e-19
7.25959e-20
1.67853e-20
-3.70078e-13
-5.37727e-12
-2.34064e-11
-7.46693e-11
-2.06024e-10
-5.22925e-10
-1.25596e-09
-2.89278e-09
-6.4235e-09
-1.3762e-08
-2.84298e-08
-5.66973e-08
-1.09509e-07
-2.05392e-07
-3.73922e-07
-6.59691e-07
-1.12602e-06
-1.84952e-06
-2.86561e-06
-4.28499e-06
-6.15887e-06
-8.68833e-06
-1.23477e-05
-1.82548e-05
-2.75016e-05
-4.19248e-05
-6.33919e-05
-9.48627e-05
-0.000138292
-0.000200082
-0.000287619
-0.000412139
-0.000593911
-0.000861995
-0.00126223
-0.0018632
-0.00276432
-0.0041071
-0.00609915
-0.00902905
-0.0133995
-0.0199229
-0.0296942
-0.0449519
-0.0687889
-0.106418
-0.164926
-0.257047
-0.399698
-0.611468
-0.868396
-0.261613
0.898455
0.99503
0.713311
0.418086
0.216321
0.0978169
0.03728
0.0123627
0.00731979
0.00609899
-0.00631348
-0.0242986
-0.0223739
-0.0121539
-0.00522933
-0.00181483
-0.000513221
-0.000123534
-2.63188e-05
-4.60121e-06
-6.67954e-07
-8.49179e-08
-1.03814e-08
-1.25942e-09
-1.61356e-10
-2.40265e-11
-4.36355e-12
-9.57728e-13
-2.42256e-13
-6.69356e-14
-1.90815e-14
-5.25784e-15
-1.25709e-15
-1.71986e-16
6.8642e-17
8.68994e-17
6.14812e-17
3.70377e-17
2.07517e-17
1.11831e-17
5.89086e-18
3.05397e-18
1.56085e-18
7.84489e-19
3.8372e-19
1.77862e-19
7.2425e-20
1.67445e-20
-3.69895e-13
-5.37461e-12
-2.33949e-11
-7.46326e-11
-2.05923e-10
-5.22673e-10
-1.25536e-09
-2.89144e-09
-6.42064e-09
-1.37561e-08
-2.8418e-08
-5.66749e-08
-1.09469e-07
-2.05324e-07
-3.73809e-07
-6.59533e-07
-1.12583e-06
-1.84936e-06
-2.86559e-06
-4.28512e-06
-6.15961e-06
-8.68995e-06
-1.23504e-05
-1.82593e-05
-2.75092e-05
-4.19383e-05
-6.34164e-05
-9.4906e-05
-0.000138363
-0.000200199
-0.000287807
-0.000412438
-0.000594564
-0.000862696
-0.0012633
-0.00186488
-0.00276697
-0.00411127
-0.00610569
-0.00903922
-0.0134152
-0.0199471
-0.0297305
-0.0450061
-0.0688669
-0.106523
-0.165046
-0.257132
-0.399596
-0.610825
-0.86715
-0.242327
0.901431
0.992903
0.70968
0.419249
0.216794
0.0979181
0.0372555
0.0123273
0.00730695
0.00607142
-0.00639961
-0.0243379
-0.0223364
-0.0121191
-0.00521056
-0.00180684
-0.00051056
-0.000122871
-2.61678e-05
-4.572e-06
-6.63382e-07
-8.43123e-08
-1.03075e-08
-1.25047e-09
-1.60256e-10
-2.38753e-11
-4.33865e-12
-9.5275e-13
-2.41091e-13
-6.66296e-14
-1.89949e-14
-5.23365e-15
-1.2499e-15
-1.70362e-16
6.89176e-17
8.693e-17
6.14624e-17
3.69933e-17
2.07206e-17
1.11673e-17
5.88283e-18
3.05006e-18
1.55871e-18
7.83728e-19
3.83232e-19
1.77686e-19
7.23482e-20
1.67242e-20
-3.69892e-13
-5.37457e-12
-2.33947e-11
-7.4632e-11
-2.05921e-10
-5.22668e-10
-1.25535e-09
-2.89142e-09
-6.42059e-09
-1.3756e-08
-2.84179e-08
-5.66747e-08
-1.09469e-07
-2.05325e-07
-3.7381e-07
-6.59537e-07
-1.12584e-06
-1.84938e-06
-2.86563e-06
-4.28518e-06
-6.15971e-06
-8.6901e-06
-1.23506e-05
-1.82595e-05
-2.75095e-05
-4.19387e-05
-6.34167e-05
-9.4906e-05
-0.00013836
-0.000200197
-0.000287801
-0.00041242
-0.00059449
-0.000862671
-0.00126329
-0.00186487
-0.00276697
-0.00411128
-0.00610573
-0.00903933
-0.0134155
-0.0199478
-0.0297324
-0.0450113
-0.0688807
-0.106559
-0.165139
-0.257364
-0.400157
-0.612093
-0.868997
-0.259791
0.898842
0.994594
0.712835
0.417557
0.215885
0.0975251
0.0371178
0.0122973
0.00730837
0.00607138
-0.0064026
-0.0243355
-0.0223314
-0.012116
-0.00520915
-0.00180629
-0.000510402
-0.000122831
-2.61591e-05
-4.57043e-06
-6.63147e-07
-8.42816e-08
-1.03038e-08
-1.25004e-09
-1.60206e-10
-2.38694e-11
-4.33799e-12
-9.52688e-13
-2.41094e-13
-6.6632e-14
-1.89945e-14
-5.23373e-15
-1.25022e-15
-1.70234e-16
6.89655e-17
8.69757e-17
6.14605e-17
3.70019e-17
2.07186e-17
1.11668e-17
5.88345e-18
3.04997e-18
1.55866e-18
7.83682e-19
3.83284e-19
1.77702e-19
7.23319e-20
1.67257e-20
-3.70072e-13
-5.37717e-12
-2.34059e-11
-7.46676e-11
-2.06018e-10
-5.2291e-10
-1.25592e-09
-2.89269e-09
-6.42333e-09
-1.37617e-08
-2.84292e-08
-5.66964e-08
-1.09508e-07
-2.05392e-07
-3.73924e-07
-6.597e-07
-1.12605e-06
-1.84958e-06
-2.86572e-06
-4.28516e-06
-6.15915e-06
-8.68875e-06
-1.23482e-05
-1.82555e-05
-2.75024e-05
-4.19256e-05
-6.33925e-05
-9.48627e-05
-0.000138286
-0.000200078
-0.000287608
-0.000412117
-0.00059398
-0.000861952
-0.00126218
-0.00186314
-0.00276425
-0.004107
-0.00609902
-0.00902887
-0.0133992
-0.0199225
-0.0296931
-0.0449493
-0.0687829
-0.106405
-0.164896
-0.256983
-0.399556
-0.611144
-0.867749
-0.264855
0.897362
0.994877
0.713563
0.418157
0.216281
0.0977526
0.0372318
0.0123387
0.00731233
0.00609106
-0.00632436
-0.0242945
-0.0223618
-0.0121462
-0.00522583
-0.00181346
-0.00051283
-0.000123433
-2.62972e-05
-4.59727e-06
-6.67357e-07
-8.48425e-08
-1.03725e-08
-1.25836e-09
-1.61226e-10
-2.40098e-11
-4.36131e-12
-9.57404e-13
-2.42207e-13
-6.69219e-14
-1.90772e-14
-5.25673e-15
-1.25684e-15
-1.71888e-16
6.8572e-17
8.68674e-17
6.14798e-17
3.70357e-17
2.07406e-17
1.11809e-17
5.89e-18
3.05259e-18
1.56074e-18
7.84653e-19
3.83748e-19
1.77865e-19
7.24115e-20
1.67467e-20
-3.70445e-13
-5.38257e-12
-2.34294e-11
-7.47418e-11
-2.06221e-10
-5.23417e-10
-1.25711e-09
-2.89537e-09
-6.4291e-09
-1.37736e-08
-2.8453e-08
-5.67419e-08
-1.0959e-07
-2.05533e-07
-3.74163e-07
-6.60046e-07
-1.12648e-06
-1.85e-06
-2.86589e-06
-4.2851e-06
-6.15795e-06
-8.68589e-06
-1.23432e-05
-1.82471e-05
-2.74882e-05
-4.18994e-05
-6.33442e-05
-9.47761e-05
-0.000138141
-0.000199844
-0.000287235
-0.000411533
-0.000593062
-0.000860522
-0.00125993
-0.00185959
-0.00275865
-0.00409817
-0.00608516
-0.00900726
-0.0133653
-0.0198697
-0.0296104
-0.0448179
-0.0685728
-0.106068
-0.164362
-0.256142
-0.39827
-0.60931
-0.86604
-0.275843
0.894651
0.995647
0.714979
0.419269
0.217026
0.0981906
0.0374574
0.0124233
0.0073221
0.00613298
-0.00616331
-0.0242102
-0.0224257
-0.0122099
-0.00526095
-0.00182851
-0.000517886
-0.000124688
-2.65841e-05
-4.65325e-06
-6.76232e-07
-8.60247e-08
-1.05168e-08
-1.2759e-09
-1.63376e-10
-2.4305e-11
-4.40998e-12
-9.67181e-13
-2.44512e-13
-6.75324e-14
-1.92472e-14
-5.30589e-15
-1.27066e-15
-1.75455e-16
6.78133e-17
8.69006e-17
6.15606e-17
3.70866e-17
2.0791e-17
1.12066e-17
5.90442e-18
3.06023e-18
1.56428e-18
7.86433e-19
3.84641e-19
1.78329e-19
7.25905e-20
1.67824e-20
-3.71025e-13
-5.39099e-12
-2.34658e-11
-7.48574e-11
-2.06537e-10
-5.24209e-10
-1.25898e-09
-2.89956e-09
-6.43812e-09
-1.37923e-08
-2.84903e-08
-5.6813e-08
-1.09719e-07
-2.05753e-07
-3.74533e-07
-6.60578e-07
-1.12716e-06
-1.85067e-06
-2.86622e-06
-4.28511e-06
-6.15628e-06
-8.68178e-06
-1.2336e-05
-1.82352e-05
-2.74676e-05
-4.18615e-05
-6.3274e-05
-9.46488e-05
-0.000137926
-0.000199492
-0.000286672
-0.000410642
-0.000591708
-0.00085834
-0.00125648
-0.00185412
-0.00275001
-0.00408452
-0.00606372
-0.00897378
-0.0133129
-0.0197874
-0.0294815
-0.0446122
-0.0682421
-0.105534
-0.163512
-0.254807
-0.396238
-0.606464
-0.863538
-0.290751
0.890724
0.997421
0.717824
0.421438
0.218535
0.0990658
0.0378816
0.0125627
0.00732425
0.0061885
-0.0059183
-0.02408
-0.0225243
-0.0123079
-0.00533712
-0.00185191
-0.000525837
-0.000126675
-2.70416e-05
-4.74289e-06
-6.90269e-07
-8.78813e-08
-1.07437e-08
-1.30333e-09
-1.66724e-10
-2.47623e-11
-4.48506e-12
-9.82187e-13
-2.48039e-13
-6.84602e-14
-1.95082e-14
-5.3801e-15
-1.29123e-15
-1.81146e-16
6.67004e-17
8.67574e-17
6.16992e-17
3.72024e-17
2.08558e-17
1.12482e-17
5.92723e-18
3.07247e-18
1.5703e-18
7.89162e-19
3.85997e-19
1.78913e-19
7.28398e-20
1.68425e-20
-3.71835e-13
-5.40272e-12
-2.35167e-11
-7.50188e-11
-2.06979e-10
-5.25315e-10
-1.26159e-09
-2.90543e-09
-6.45078e-09
-1.38186e-08
-2.85427e-08
-5.69131e-08
-1.09901e-07
-2.06064e-07
-3.75058e-07
-6.6134e-07
-1.12815e-06
-1.85171e-06
-2.86685e-06
-4.28539e-06
-6.15433e-06
-8.67657e-06
-1.23268e-05
-1.822e-05
-2.74414e-05
-4.18118e-05
-6.31809e-05
-9.44803e-05
-0.000137639
-0.000199026
-0.000285921
-0.000409469
-0.000589859
-0.000855399
-0.00125179
-0.00184667
-0.00273822
-0.00406594
-0.00603458
-0.00892845
-0.0132423
-0.0196775
-0.0293085
-0.0443357
-0.067796
-0.104807
-0.16232
-0.25283
-0.392937
-0.601057
-0.856814
-0.298472
0.885349