/*--------------------------------*- C++ -*----------------------------------*\
  =========                 |
  \\      /  F ield         | OpenFOAM: The Open Source CFD Toolbox
   \\    /   O peration     | Website:  https://openfoam.org
    \\  /    A nd           | Version:  10
     \\/     M anipulation  |
\*---------------------------------------------------------------------------*/
FoamFile
{
    format      ascii;
    class       volScalarField;
    location    "1";
    object      RR.NO2;
}
// * * * * * * * * * * * * * * * * * * * * * * * * * * * * * * * * * * * * * //

dimensions      [1 -3 -1 0 0 0 0];

internalField   nonuniform List<scalar> 
4000
(
4.97972e-13
7.23162e-12
3.14424e-11
1.00117e-10
2.75511e-10
6.96864e-10
1.66609e-09
3.81423e-09
8.4013e-09
1.78055e-08
3.62477e-08
7.0811e-08
1.32724e-07
2.38432e-07
4.09158e-07
6.65303e-07
1.01968e-06
1.45331e-06
1.87364e-06
2.17738e-06
2.18313e-06
1.80744e-06
1.10752e-06
3.17855e-07
-3.6563e-07
-8.1885e-07
-1.03216e-06
-1.055e-06
-9.7438e-07
-8.42941e-07
-6.96775e-07
-5.57756e-07
-4.41943e-07
-3.55135e-07
-3.06878e-07
-3.01865e-07
-3.47916e-07
-4.52345e-07
-6.42648e-07
-9.67453e-07
-1.52705e-06
-2.47654e-06
-4.07336e-06
-6.77234e-06
-1.14663e-05
-1.9578e-05
-3.35165e-05
-5.74817e-05
-9.88246e-05
-0.000169952
-0.00029232
-0.000501458
-0.000754834
-0.000954969
-0.00124432
-0.00173244
-0.00252489
-0.00372286
-0.00547982
-0.00791253
-0.0109015
-0.0122072
-0.00431454
0.0156771
0.0266278
0.0148518
0.00465909
0.00111012
0.000154151
-3.47084e-06
-8.19372e-06
-2.41873e-06
-4.56366e-07
-8.26348e-08
-2.22866e-08
-8.25461e-09
-3.10076e-09
-1.11588e-09
-3.84565e-10
-1.27723e-10
-4.11654e-11
-1.29058e-11
-3.94942e-12
-1.18386e-12
-3.47425e-13
-1.00302e-13
-2.85381e-14
-8.00931e-15
-2.2223e-15
-6.11054e-16
-1.65772e-16
-4.45404e-17
-1.18511e-17
-3.11654e-18
-8.06192e-19
-2.02934e-19
-4.85551e-20
-1.04483e-20
-1.73244e-21
-9.26112e-23
4.94006e-13
7.17375e-12
3.11917e-11
9.93396e-11
2.73449e-10
6.91806e-10
1.65426e-09
3.7873e-09
8.3407e-09
1.76702e-08
3.59491e-08
7.01692e-08
1.31384e-07
2.35863e-07
4.04745e-07
6.58611e-07
1.01027e-06
1.44239e-06
1.86624e-06
2.18225e-06
2.20667e-06
1.85103e-06
1.15738e-06
3.57505e-07
-3.43313e-07
-8.16389e-07
-1.04472e-06
-1.07265e-06
-9.91143e-07
-8.57197e-07
-7.07799e-07
-5.64661e-07
-4.48731e-07
-3.61108e-07
-3.1094e-07
-3.04928e-07
-3.51341e-07
-4.56785e-07
-6.51159e-07
-9.82332e-07
-1.55342e-06
-2.52361e-06
-4.15512e-06
-6.91781e-06
-1.17255e-05
-2.00404e-05
-3.43256e-05
-5.8893e-05
-0.000101275
-0.000174213
-0.000299883
-0.000514882
-0.000768504
-0.000972157
-0.00127125
-0.00177549
-0.00258892
-0.00382804
-0.00564213
-0.00814278
-0.0111793
-0.0121351
-0.00323171
0.0173554
0.0264587
0.0138642
0.00424704
0.000986975
0.000128321
-5.59825e-06
-7.62307e-06
-2.14069e-06
-4.03711e-07
-7.55822e-08
-2.16439e-08
-8.17536e-09
-3.0946e-09
-1.12053e-09
-3.88653e-10
-1.2993e-10
-4.21633e-11
-1.33084e-11
-4.10315e-12
-1.23715e-12
-3.66544e-13
-1.06578e-13
-3.04785e-14
-8.57328e-15
-2.37661e-15
-6.49557e-16
-1.76332e-16
-4.72839e-17
-1.25409e-17
-3.28561e-18
-8.46457e-19
-2.12208e-19
-5.05736e-20
-1.08425e-20
-1.79499e-21
-9.57807e-23
4.91107e-13
7.13275e-12
3.10214e-11
9.88267e-11
2.72123e-10
6.88673e-10
1.64696e-09
3.76989e-09
8.29834e-09
1.75662e-08
3.56944e-08
6.95527e-08
1.30073e-07
2.33335e-07
4.00315e-07
6.51815e-07
1.00198e-06
1.43413e-06
1.86299e-06
2.19231e-06
2.23655e-06
1.90056e-06
1.22206e-06
4.03009e-07
-3.09713e-07
-8.02242e-07
-1.04591e-06
-1.08252e-06
-1.00488e-06
-8.71093e-07
-7.21241e-07
-5.77131e-07
-4.59975e-07
-3.69039e-07
-3.16819e-07
-3.09731e-07
-3.56074e-07
-4.64801e-07
-6.64554e-07
-1.00656e-06
-1.5965e-06
-2.59863e-06
-4.28638e-06
-7.15111e-06
-1.21346e-05
-2.07514e-05
-3.55473e-05
-6.10031e-05
-0.000104939
-0.000180553
-0.000310548
-0.000536701
-0.000787761
-0.000996854
-0.00130989
-0.00183665
-0.0026881
-0.00397358
-0.00584841
-0.00842493
-0.0115165
-0.0119296
-0.0016648
0.0193926
0.0259442
0.0126064
0.00374965
0.000850238
0.000100581
-7.33976e-06
-6.8933e-06
-1.84145e-06
-3.50328e-07
-6.92479e-08
-2.09868e-08
-8.04886e-09
-3.06148e-09
-1.11345e-09
-3.88188e-10
-1.30427e-10
-4.25984e-11
-1.353e-11
-4.19386e-12
-1.27116e-12
-3.77477e-13
-1.1001e-13
-3.15483e-14
-8.90144e-15
-2.47564e-15
-6.79358e-16
-1.84146e-16
-4.94038e-17
-1.31045e-17
-3.43081e-18
-8.82735e-19
-2.20975e-19
-5.25838e-20
-1.12622e-20
-1.86225e-21
-9.92104e-23
4.86396e-13
7.06408e-12
3.07198e-11
9.78506e-11
2.69371e-10
6.81462e-10
1.62903e-09
3.72716e-09
8.20021e-09
1.73496e-08
3.52391e-08
6.86571e-08
1.28378e-07
2.30298e-07
3.95267e-07
6.44274e-07
9.92218e-07
1.42544e-06
1.86047e-06
2.20344e-06
2.26751e-06
1.95103e-06
1.27971e-06
4.50873e-07
-2.77833e-07
-7.85002e-07
-1.04243e-06
-1.08971e-06
-1.01769e-06
-8.84903e-07
-7.34438e-07
-5.89704e-07
-4.69223e-07
-3.76042e-07
-3.22367e-07
-3.14841e-07
-3.61642e-07
-4.74712e-07
-6.82062e-07
-1.03746e-06
-1.65061e-06
-2.6959e-06
-4.45921e-06
-7.45391e-06
-1.26699e-05
-2.16975e-05
-3.7182e-05
-6.39267e-05
-0.000110013
-0.000189264
-0.000325752
-0.000560652
-0.000811543
-0.00102836
-0.00135964
-0.00191633
-0.00281172
-0.00415904
-0.00611815
-0.00879264
-0.0118796
-0.0115944
0.000301807
0.021429
0.0250618
0.0112218
0.00323923
0.000684747
7.53239e-05
-8.45659e-06
-6.12189e-06
-1.563e-06
-2.98096e-07
-6.17555e-08
-1.97272e-08
-7.65874e-09
-2.92492e-09
-1.06947e-09
-3.75854e-10
-1.27699e-10
-4.20613e-11
-1.34409e-11
-4.19022e-12
-1.27657e-12
-3.80704e-13
-1.11351e-13
-3.20291e-14
-9.05496e-15
-2.52231e-15
-6.93177e-16
-1.88232e-16
-5.05014e-17
-1.33923e-17
-3.50517e-18
-9.01626e-19
-2.25619e-19
-5.36816e-20
-1.14889e-20
-1.89834e-21
-1.01735e-22
4.81445e-13
6.9922e-12
3.04072e-11
9.68525e-11
2.66608e-10
6.74412e-10
1.61198e-09
3.68758e-09
8.11169e-09
1.71587e-08
3.48427e-08
6.78705e-08
1.269e-07
2.27696e-07
3.9104e-07
6.38146e-07
9.84623e-07
1.4185e-06
1.85846e-06
2.21298e-06
2.29536e-06
1.99795e-06
1.33809e-06
5.04491e-07
-2.35729e-07
-7.61711e-07
-1.03869e-06
-1.09714e-06
-1.02991e-06
-8.99126e-07
-7.47642e-07
-5.98719e-07
-4.78174e-07
-3.8291e-07
-3.27898e-07
-3.20162e-07
-3.679e-07
-4.85643e-07
-7.01255e-07
-1.07074e-06
-1.71017e-06
-2.8017e-06
-4.64686e-06
-7.78416e-06
-1.32527e-05
-2.27236e-05
-3.88992e-05
-6.6886e-05
-0.000115142
-0.000198139
-0.000340863
-0.000588366
-0.000835761
-0.00106094
-0.00141168
-0.00199826
-0.00293427
-0.0043399
-0.00636827
-0.0091144
-0.0121593
-0.0111312
0.0022859
0.0231861
0.0239637
0.0100119
0.00281233
0.000574788
5.57563e-05
-9.10759e-06
-5.46112e-06
-1.3232e-06
-2.55847e-07
-5.62235e-08
-1.88486e-08
-7.39042e-09
-2.82886e-09
-1.03631e-09
-3.64949e-10
-1.24191e-10
-4.10815e-11
-1.32161e-11
-4.14185e-12
-1.26713e-12
-3.79029e-13
-1.11202e-13
-3.20831e-14
-9.09161e-15
-2.53736e-15
-6.9836e-16
-1.89878e-16
-5.09774e-17
-1.35226e-17
-3.53964e-18
-9.10362e-19
-2.27778e-19
-5.41793e-20
-1.15987e-20
-1.91808e-21
-1.02017e-22
4.76186e-13
6.91569e-12
3.00732e-11
9.5782e-11
2.63638e-10
6.66832e-10
1.5937e-09
3.64546e-09
8.01845e-09
1.69602e-08
3.44373e-08
6.70807e-08
1.25447e-07
2.25198e-07
3.87088e-07
6.32576e-07
9.77949e-07
1.41271e-06
1.8573e-06
2.2212e-06
2.31959e-06
2.04024e-06
1.39367e-06
5.57028e-07
-1.96593e-07
-7.42841e-07
-1.03408e-06
-1.10169e-06
-1.04046e-06
-9.12323e-07
-7.60215e-07
-6.10398e-07
-4.85854e-07
-3.89324e-07
-3.33085e-07
-3.25397e-07
-3.74734e-07
-4.97036e-07
-7.21139e-07
-1.10585e-06
-1.77219e-06
-2.91225e-06
-4.83705e-06
-8.11491e-06
-1.38321e-05
-2.37363e-05
-4.06758e-05
-6.99538e-05
-0.000120522
-0.000207548
-0.000357205
-0.000613049
-0.000859329
-0.00109353
-0.00146448
-0.00208299
-0.00306255
-0.00453262
-0.00663927
-0.00944396
-0.0123739
-0.0105516
0.00415843
0.0244659
0.0228287
0.00903818
0.00249035
0.000477082
4.01872e-05
-9.29782e-06
-4.85457e-06
-1.12022e-06
-2.21592e-07
-5.16831e-08
-1.80169e-08
-7.10762e-09
-2.72197e-09
-9.97956e-10
-3.52028e-10
-1.20077e-10
-3.97516e-11
-1.28089e-11
-4.02582e-12
-1.23662e-12
-3.7198e-13
-1.09582e-13
-3.17218e-14
-9.01113e-15
-2.51978e-15
-6.94594e-16
-1.89107e-16
-5.08128e-17
-1.34842e-17
-3.53082e-18
-9.08408e-19
-2.27323e-19
-5.40854e-20
-1.15764e-20
-1.91244e-21
-1.02436e-22
4.71034e-13
6.84081e-12
2.97469e-11
9.47392e-11
2.60757e-10
6.59518e-10
1.57619e-09
3.60541e-09
7.9306e-09
1.6775e-08
3.40625e-08
6.63576e-08
1.24129e-07
2.22952e-07
3.8356e-07
6.27644e-07
9.72098e-07
1.40776e-06
1.85672e-06
2.22933e-06
2.34246e-06
2.07755e-06
1.44287e-06
6.03531e-07
-1.65469e-07
-7.27072e-07
-1.03091e-06
-1.10624e-06
-1.04922e-06
-9.22752e-07
-7.69877e-07
-6.18683e-07
-4.90765e-07
-3.94704e-07
-3.37775e-07
-3.30326e-07
-3.81339e-07
-5.08463e-07
-7.40611e-07
-1.13976e-06
-1.83314e-06
-3.01939e-06
-5.02364e-06
-8.44047e-06
-1.44021e-05
-2.47306e-05
-4.23605e-05
-7.28748e-05
-0.000125948
-0.000216576
-0.000372594
-0.000638921
-0.000881446
-0.0011235
-0.00151149
-0.00216599
-0.00318106
-0.00470674
-0.00688102
-0.00974333
-0.0125389
-0.0100157
0.00591356
0.0254282
0.0217465
0.0082458
0.00223539
0.000415523
3.06207e-05
-9.28223e-06
-4.4176e-06
-9.85631e-07
-1.98945e-07
-4.84233e-08
-1.73017e-08
-6.84604e-09
-2.62145e-09
-9.61483e-10
-3.39552e-10
-1.16032e-10
-3.8485e-11
-1.24249e-11
-3.91219e-12
-1.20339e-12
-3.62196e-13
-1.06832e-13
-3.09757e-14
-8.81364e-15
-2.46871e-15
-6.81634e-16
-1.85898e-16
-5.00305e-17
-1.33017e-17
-3.48755e-18
-8.98019e-19
-2.24862e-19
-5.35152e-20
-1.14591e-20
-1.8937e-21
-1.0101e-22
4.66163e-13
6.77005e-12
2.94387e-11
9.37555e-11
2.58043e-10
6.52646e-10
1.55979e-09
3.56806e-09
7.84909e-09
1.66043e-08
3.37194e-08
6.57003e-08
1.2294e-07
2.20941e-07
3.80428e-07
6.23297e-07
9.66976e-07
1.40345e-06
1.85616e-06
2.23593e-06
2.36119e-06
2.10989e-06
1.48176e-06
6.39308e-07
-1.37731e-07
-7.10174e-07
-1.0258e-06
-1.11012e-06
-1.05765e-06
-9.31348e-07
-7.77571e-07
-6.25354e-07
-4.97567e-07
-3.99545e-07
-3.41946e-07
-3.35085e-07
-3.87849e-07
-5.19111e-07
-7.58963e-07
-1.17128e-06
-1.88671e-06
-3.11243e-06
-5.18496e-06
-8.72403e-06
-1.49057e-05
-2.56263e-05
-4.39306e-05
-7.56138e-05
-0.000130677
-0.000224754
-0.000386556
-0.000661378
-0.000901006
-0.00115163
-0.0015578
-0.00223279
-0.00328405
-0.00485867
-0.00708992
-0.00999962
-0.0126774
-0.00936526
0.0075874
0.0261851
0.0206797
0.00755943
0.00202226
0.000361219
2.27541e-05
-9.10114e-06
-4.02218e-06
-8.73669e-07
-1.80218e-07
-4.55878e-08
-1.66175e-08
-6.58854e-09
-2.52192e-09
-9.25141e-10
-3.26997e-10
-1.11903e-10
-3.71722e-11
-1.2021e-11
-3.79142e-12
-1.16821e-12
-3.52185e-13
-1.04063e-13
-3.01722e-14
-8.59799e-15
-2.41149e-15
-6.6659e-16
-1.81992e-16
-4.90136e-17
-1.30359e-17
-3.41929e-18
-8.80911e-19
-2.20666e-19
-5.25425e-20
-1.1254e-20
-1.86327e-21
-9.93361e-23
4.61734e-13
6.70575e-12
2.9159e-11
9.2864e-11
2.55589e-10
6.4645e-10
1.54505e-09
3.53464e-09
7.77651e-09
1.6453e-08
3.34171e-08
6.51248e-08
1.21905e-07
2.19201e-07
3.77733e-07
6.19581e-07
9.62637e-07
1.39986e-06
1.85585e-06
2.24158e-06
2.3772e-06
2.13681e-06
1.51696e-06
6.7383e-07
-1.12781e-07
-6.97986e-07
-1.02325e-06
-1.11353e-06
-1.06253e-06
-9.37641e-07
-7.83657e-07
-6.31184e-07
-5.02336e-07
-4.03547e-07
-3.45722e-07
-3.39533e-07
-3.93968e-07
-5.29232e-07
-7.76467e-07
-1.2021e-06
-1.94146e-06
-3.20798e-06
-5.34931e-06
-9.0081e-06
-1.54003e-05
-2.64799e-05
-4.54019e-05
-7.81861e-05
-0.000135057
-0.000232518
-0.000400268
-0.000679065
-0.000917283
-0.00117373
-0.00159231
-0.00229912
-0.00337874
-0.00499476
-0.00727357
-0.0102138
-0.0127451
-0.00871377
0.00912357
0.0267597
0.0196799
0.00695055
0.00182129
0.000314199
1.65418e-05
-8.87307e-06
-3.64422e-06
-7.67959e-07
-1.62433e-07
-4.28912e-08
-1.5961e-08
-6.3456e-09
-2.42933e-09
-8.91545e-10
-3.15389e-10
-1.08058e-10
-3.59395e-11
-1.16373e-11
-3.6752e-12
-1.13383e-12
-3.42239e-13
-1.01264e-13
-2.93912e-14
-8.3835e-15
-2.35339e-15
-6.5104e-16
-1.77897e-16
-4.79374e-17
-1.27556e-17
-3.34711e-18
-8.62621e-19
-2.16172e-19
-5.14692e-20
-1.10248e-20
-1.82509e-21
-9.7475e-23
4.57808e-13
6.64876e-12
2.89112e-11
9.20755e-11
2.53422e-10
6.40989e-10
1.53209e-09
3.50535e-09
7.71316e-09
1.63216e-08
3.31561e-08
6.46308e-08
1.21021e-07
2.17721e-07
3.75443e-07
6.16436e-07
9.58987e-07
1.39695e-06
1.85591e-06
2.24707e-06
2.39189e-06
2.16111e-06
1.54531e-06
6.98818e-07
-9.37423e-08
-6.87223e-07
-1.02061e-06
-1.11562e-06
-1.06787e-06
-9.43316e-07
-7.89267e-07
-6.35903e-07
-5.08414e-07
-4.06787e-07
-3.49004e-07
-3.43474e-07
-3.99516e-07
-5.39063e-07
-7.92621e-07
-1.22995e-06
-1.99028e-06
-3.29304e-06
-5.49554e-06
-9.26073e-06
-1.58358e-05
-2.72359e-05
-4.67071e-05
-8.03936e-05
-0.000138576
-0.000238449
-0.000410013
-0.000697523
-0.000931924
-0.00119463
-0.00162608
-0.00235217
-0.00345879
-0.00511056
-0.00743174
-0.0104058
-0.0128099
-0.0081159
0.0103773
0.0270446
0.0186604
0.00642915
0.00164091
0.000277486
1.20178e-05
-8.60456e-06
-3.36365e-06
-7.05185e-07
-1.49922e-07
-4.08943e-08
-1.54294e-08
-6.14159e-09
-2.35029e-09
-8.62491e-10
-3.05197e-10
-1.04635e-10
-3.48274e-11
-1.12867e-11
-3.56759e-12
-1.10161e-12
-3.32804e-13
-9.85769e-14
-2.86344e-14
-8.17389e-15
-2.29618e-15
-6.35625e-16
-1.73777e-16
-4.685e-17
-1.24715e-17
-3.27395e-18
-8.43982e-19
-2.11537e-19
-5.03876e-20
-1.07951e-20
-1.78553e-21
-9.57865e-23
4.54402e-13
6.59935e-12
2.86966e-11
9.13929e-11
2.51549e-10
6.36275e-10
1.52093e-09
3.48018e-09
7.65892e-09
1.62098e-08
3.2936e-08
6.42186e-08
1.20293e-07
2.16519e-07
3.73567e-07
6.13918e-07
9.56204e-07
1.39495e-06
1.85637e-06
2.25191e-06
2.40421e-06
2.1815e-06
1.57012e-06
7.22184e-07
-7.74904e-08
-6.78763e-07
-1.01861e-06
-1.1177e-06
-1.07205e-06
-9.4801e-07
-7.93796e-07
-6.39912e-07
-5.08794e-07
-4.09922e-07
-3.51989e-07
-3.46992e-07
-4.04353e-07
-5.47087e-07
-8.06526e-07
-1.25416e-06
-2.03305e-06
-3.36832e-06
-5.6268e-06
-9.49196e-06
-1.62435e-05
-2.79557e-05
-4.79474e-05
-8.25484e-05
-0.000142165
-0.000244673
-0.000420706
-0.000712805
-0.00094678
-0.00121677
-0.00166163
-0.00239888
-0.00353453
-0.00522196
-0.00758288
-0.0105814
-0.0128463
-0.00753417
0.0115706
0.0272949
0.0179113
0.00602019
0.0015228
0.000249694
8.77261e-06
-8.34039e-06
-3.13914e-06
-6.56119e-07
-1.40384e-07
-3.93189e-08
-1.49883e-08
-5.96951e-09
-2.28306e-09
-8.37597e-10
-2.96335e-10
-1.01634e-10
-3.38437e-11
-1.09737e-11
-3.47066e-12
-1.07233e-12
-3.24159e-13
-9.60852e-14
-2.79276e-14
-7.97686e-15
-2.24213e-15
-6.21054e-16
-1.69752e-16
-4.57888e-17
-1.21949e-17
-3.20259e-18
-8.25827e-19
-2.07041e-19
-4.93296e-20
-1.05727e-20
-1.7507e-21
-9.31589e-23
4.51501e-13
6.55726e-12
2.85139e-11
9.08124e-11
2.49958e-10
6.3228e-10
1.51149e-09
3.45896e-09
7.61334e-09
1.61163e-08
3.27529e-08
6.38784e-08
1.19697e-07
2.15546e-07
3.72058e-07
6.11953e-07
9.54067e-07
1.39343e-06
1.857e-06
2.25628e-06
2.41509e-06
2.1985e-06
1.59046e-06
7.41318e-07
-6.32411e-08
-6.71175e-07
-1.01689e-06
-1.11975e-06
-1.07587e-06
-9.52376e-07
-7.9791e-07
-6.43586e-07
-5.12301e-07
-4.12751e-07
-3.54592e-07
-3.50046e-07
-4.08538e-07
-5.54085e-07
-8.18317e-07
-1.27396e-06
-2.06706e-06
-3.42624e-06
-5.72419e-06
-9.71553e-06
-1.66129e-05
-2.85917e-05
-4.90476e-05
-8.44658e-05
-0.000145555
-0.000250756
-0.000431722
-0.000723963
-0.000958594
-0.0012333
-0.00168787
-0.00244364
-0.00360101
-0.00531817
-0.00771328
-0.0107348
-0.0128712
-0.00700278
0.0126015
0.0274252
0.0172786
0.00573135
0.00144755
0.000228834
6.46917e-06
-8.10457e-06
-2.96867e-06
-6.20208e-07
-1.33459e-07
-3.81003e-08
-1.46237e-08
-5.82434e-09
-2.22586e-09
-8.1625e-10
-2.88724e-10
-9.90345e-11
-3.29847e-11
-1.06983e-11
-3.38477e-12
-1.04621e-12
-3.16396e-13
-9.38303e-14
-2.72844e-14
-7.79661e-15
-2.19242e-15
-6.0758e-16
-1.66074e-16
-4.48139e-17
-1.19393e-17
-3.13636e-18
-8.08998e-19
-2.02869e-19
-4.8337e-20
-1.03619e-20
-1.7132e-21
-9.13131e-23
4.49064e-13
6.52193e-12
2.83606e-11
9.03259e-11
2.48626e-10
6.28939e-10
1.50361e-09
3.44129e-09
7.57548e-09
1.60388e-08
3.26019e-08
6.35992e-08
1.19212e-07
2.14767e-07
3.70881e-07
6.10425e-07
9.52375e-07
1.39231e-06
1.85772e-06
2.26009e-06
2.42417e-06
2.21304e-06
1.60859e-06
7.58717e-07
-5.02187e-08
-6.64479e-07
-1.01579e-06
-1.12212e-06
-1.07978e-06
-9.56762e-07
-8.01722e-07
-6.46712e-07
-5.16338e-07
-4.14702e-07
-3.56572e-07
-3.52555e-07
-4.12227e-07
-5.60312e-07
-8.28841e-07
-1.29211e-06
-2.0986e-06
-3.48106e-06
-5.81959e-06
-9.88309e-06
-1.69e-05
-2.90849e-05
-4.98875e-05
-8.58898e-05
-0.000147913
-0.000254575
-0.000437705
-0.000734941
-0.000967359
-0.00124611
-0.00170847
-0.00248135
-0.00365584
-0.00539699
-0.00781948
-0.0108577
-0.0128793
-0.00654375
0.0134509
0.0274932
0.0167598
0.00547432
0.00137357
0.000212293
4.65355e-06
-7.92625e-06
-2.83304e-06
-5.90466e-07
-1.27699e-07
-3.70781e-08
-1.43138e-08
-5.7006e-09
-2.17702e-09
-7.97975e-10
-2.822e-10
-9.67972e-11
-3.2242e-11
-1.0459e-11
-3.30976e-12
-1.02328e-12
-3.09553e-13
-9.18334e-14
-2.67123e-14
-7.63561e-15
-2.14785e-15
-5.95439e-16
-1.62802e-16
-4.39432e-17
-1.17103e-17
-3.07697e-18
-7.93846e-19
-1.9911e-19
-4.74356e-20
-1.01682e-20
-1.68349e-21
-8.98782e-23
4.47048e-13
6.4927e-12
2.82338e-11
8.99234e-11
2.47524e-10
6.26177e-10
1.49709e-09
3.42667e-09
7.54414e-09
1.59746e-08
3.2476e-08
6.33652e-08
1.18803e-07
2.14098e-07
3.69845e-07
6.09014e-07
9.50861e-07
1.39135e-06
1.85839e-06
2.26332e-06
2.43161e-06
2.225e-06
1.62288e-06
7.71945e-07
-4.07644e-08
-6.59497e-07
-1.01481e-06
-1.12359e-06
-1.08237e-06
-9.59728e-07
-8.04467e-07
-6.47661e-07
-5.15861e-07
-4.16398e-07
-3.5827e-07
-3.54727e-07
-4.15388e-07
-5.65653e-07
-8.37942e-07
-1.3079e-06
-2.12615e-06
-3.52934e-06
-5.90449e-06
-1.00329e-05
-1.71607e-05
-2.9537e-05
-5.06636e-05
-8.72221e-05
-0.000150223
-0.000258612
-0.000444803
-0.000743877
-0.000975664
-0.00125762
-0.00172674
-0.0025104
-0.00369952
-0.00546086
-0.00790764
-0.010961
-0.0128796
-0.00614452
0.0141647
0.0275178
0.0163283
0.00527737
0.00129984
0.000199379
3.30797e-06
-7.77402e-06
-2.72777e-06
-5.67864e-07
-1.23333e-07
-3.62673e-08
-1.40575e-08
-5.59714e-09
-2.13604e-09
-7.82597e-10
-2.76692e-10
-9.49004e-11
-3.16097e-11
-1.02545e-11
-3.24541e-12
-1.00354e-12
-3.03637e-13
-9.01005e-14
-2.62143e-14
-7.49507e-15
-2.10883e-15
-5.84783e-16
-1.59927e-16
-4.31772e-17
-1.15086e-17
-3.02445e-18
-7.80411e-19
-1.95766e-19
-4.66515e-20
-1.00013e-20
-1.6538e-21
-8.84228e-23
4.45412e-13
6.46898e-12
2.81309e-11
8.9597e-11
2.46631e-10
6.2394e-10
1.49182e-09
3.41484e-09
7.51879e-09
1.59226e-08
3.23741e-08
6.31754e-08
1.1847e-07
2.13553e-07
3.68995e-07
6.0795e-07
9.49795e-07
1.39079e-06
1.85917e-06
2.26627e-06
2.43825e-06
2.23512e-06
1.63481e-06
7.82577e-07
-3.33885e-08
-6.5609e-07
-1.01444e-06
-1.12497e-06
-1.0846e-06
-9.62219e-07
-8.06882e-07
-6.49944e-07
-5.20273e-07
-4.1814e-07
-3.59909e-07
-3.56677e-07
-4.18087e-07
-5.70184e-07
-8.45743e-07
-1.32169e-06
-2.15066e-06
-3.57271e-06
-5.97983e-06
-1.01651e-05
-1.73924e-05
-2.9943e-05
-5.13672e-05
-8.84405e-05
-0.000152315
-0.000262191
-0.000450855
-0.000751003
-0.000983027
-0.00126855
-0.00174484
-0.00253848
-0.00374083
-0.00551915
-0.00798518
-0.0110494
-0.0128763
-0.00579515
0.0147543
0.0275118
0.0159737
0.00512038
0.00125323
0.000189335
2.30735e-06
-7.64242e-06
-2.64346e-06
-5.49978e-07
-1.19897e-07
-3.56143e-08
-1.38462e-08
-5.51132e-09
-2.10196e-09
-7.69784e-10
-2.72092e-10
-9.33124e-11
-3.10791e-11
-1.00824e-11
-3.19109e-12
-9.86832e-13
-2.98619e-13
-8.86269e-14
-2.57898e-14
-7.37502e-15
-2.07545e-15
-5.75649e-16
-1.57459e-16
-4.25186e-17
-1.1335e-17
-2.97937e-18
-7.68912e-19
-1.92895e-19
-4.59703e-20
-9.85473e-21
-1.63037e-21
-8.7081e-23
4.44121e-13
6.45026e-12
2.80498e-11
8.93399e-11
2.45928e-10
6.22181e-10
1.48768e-09
3.40558e-09
7.49897e-09
1.5882e-08
3.22949e-08
6.30289e-08
1.18216e-07
2.1315e-07
3.68383e-07
6.07182e-07
9.49013e-07
1.39042e-06
1.85988e-06
2.2686e-06
2.44322e-06
2.24279e-06
1.64382e-06
7.90874e-07
-2.7629e-08
-6.5328e-07
-1.01398e-06
-1.12601e-06
-1.08637e-06
-9.64325e-07
-8.08968e-07
-6.5396e-07
-5.20357e-07
-4.19555e-07
-3.61186e-07
-3.58268e-07
-4.20394e-07
-5.74101e-07
-8.52476e-07
-1.33335e-06
-2.17126e-06
-3.60865e-06
-6.04314e-06
-1.02773e-05
-1.75922e-05
-3.03005e-05
-5.20031e-05
-8.95799e-05
-0.000154368
-0.000265923
-0.00045772
-0.000755877
-0.000989862
-0.00127831
-0.00175962
-0.00256117
-0.00377512
-0.00556853
-0.00805149
-0.0111235
-0.0128696
-0.0055029
0.0152302
0.0274911
0.0156867
0.00499462
0.00121608
0.000181317
1.52619e-06
-7.52704e-06
-2.57333e-06
-5.35163e-07
-1.17071e-07
-3.50763e-08
-1.36729e-08
-5.44131e-09
-2.07421e-09
-7.59338e-10
-2.68333e-10
-9.20113e-11
-3.06432e-11
-9.94071e-12
-3.14628e-12
-9.73022e-13
-2.94463e-13
-8.74045e-14
-2.54371e-14
-7.27516e-15
-2.04765e-15
-5.68035e-16
-1.55399e-16
-4.19687e-17
-1.119e-17
-2.94156e-18
-7.59188e-19
-1.90495e-19
-4.54041e-20
-9.73598e-21
-1.61182e-21
-8.591e-23
4.43141e-13
6.43606e-12
2.79882e-11
8.9145e-11
2.45396e-10
6.20853e-10
1.48457e-09
3.39865e-09
7.48429e-09
1.58523e-08
3.22377e-08
6.29246e-08
1.18038e-07
2.12864e-07
3.67938e-07
6.06611e-07
9.48444e-07
1.3902e-06
1.86056e-06
2.27065e-06
2.4475e-06
2.24918e-06
1.65112e-06
7.9735e-07
-2.30981e-08
-6.51099e-07
-1.01385e-06
-1.12712e-06
-1.08798e-06
-9.66023e-07
-8.10545e-07
-6.55342e-07
-5.21537e-07
-4.20486e-07
-3.62131e-07
-3.59498e-07
-4.22192e-07
-5.77176e-07
-8.57739e-07
-1.34249e-06
-2.1874e-06
-3.63686e-06
-6.09241e-06
-1.03639e-05
-1.77427e-05
-3.05596e-05
-5.24403e-05
-9.03064e-05
-0.000155553
-0.000267792
-0.000460508
-0.000760938
-0.000994832
-0.001286
-0.00177189
-0.00257793
-0.00380166
-0.00560678
-0.00810262
-0.0111815
-0.0128651
-0.00527662
0.0155977
0.0274673
0.0154649
0.00489861
0.00119839
0.000175405
9.85182e-07
-7.43124e-06
-2.51851e-06
-5.2369e-07
-1.14923e-07
-3.46663e-08
-1.35392e-08
-5.38689e-09
-2.05252e-09
-7.51129e-10
-2.65366e-10
-9.09809e-11
-3.0297e-11
-9.82794e-12
-3.11056e-12
-9.61998e-13
-2.91142e-13
-8.64266e-14
-2.51548e-14
-7.19517e-15
-2.02536e-15
-5.61928e-16
-1.53748e-16
-4.15277e-17
-1.10738e-17
-2.9113e-18
-7.51502e-19
-1.88574e-19
-4.49456e-20
-9.63498e-21
-1.59413e-21
-8.53398e-23
4.42444e-13
6.42597e-12
2.79446e-11
8.90074e-11
2.45023e-10
6.19927e-10
1.48241e-09
3.39388e-09
7.47417e-09
1.58316e-08
3.21971e-08
6.28484e-08
1.17903e-07
2.12644e-07
3.67601e-07
6.06201e-07
9.4806e-07
1.39008e-06
1.86109e-06
2.27213e-06
2.45054e-06
2.25368e-06
1.65628e-06
8.01944e-07
-1.99643e-08
-6.49655e-07
-1.0138e-06
-1.1279e-06
-1.08911e-06
-9.67237e-07
-8.11649e-07
-6.56213e-07
-5.23822e-07
-4.21001e-07
-3.62742e-07
-3.60351e-07
-4.23477e-07
-5.79397e-07
-8.6158e-07
-1.34928e-06
-2.19937e-06
-3.65788e-06
-6.12928e-06
-1.04287e-05
-1.78573e-05
-3.07634e-05
-5.28013e-05
-9.09511e-05
-0.00015671
-0.000269897
-0.000464364
-0.000763341
-0.000998584
-0.0012913
-0.00177935
-0.00259108
-0.0038209
-0.00563477
-0.00814077
-0.0112251
-0.0128626
-0.00510815
0.0158696
0.0274446
0.0153017
0.00482891
0.00115403
0.000170913
5.41387e-07
-7.37481e-06
-2.48187e-06
-5.15911e-07
-1.13428e-07
-3.43704e-08
-1.34401e-08
-5.3465e-09
-2.03651e-09
-7.45144e-10
-2.63223e-10
-9.02402e-11
-3.00485e-11
-9.74689e-12
-3.08483e-12
-9.54032e-13
-2.88733e-13
-8.57145e-14
-2.49483e-14
-7.13635e-15
-2.00889e-15
-5.57391e-16
-1.52515e-16
-4.11972e-17
-1.09864e-17
-2.88857e-18
-7.45664e-19
-1.87101e-19
-4.46028e-20
-9.56465e-21
-1.58222e-21
-8.43697e-23
4.41998e-13
6.41951e-12
2.79167e-11
8.89188e-11
2.44781e-10
6.1932e-10
1.48098e-09
3.39065e-09
7.46717e-09
1.58172e-08
3.21688e-08
6.2796e-08
1.17813e-07
2.12502e-07
3.67386e-07
6.05936e-07
9.47815e-07
1.39002e-06
1.86145e-06
2.27311e-06
2.45251e-06
2.2566e-06
1.65963e-06
8.04917e-07
-1.79619e-08
-6.48754e-07
-1.01379e-06
-1.12843e-06
-1.08864e-06
-9.68063e-07
-8.12395e-07
-6.56834e-07
-5.24437e-07
-4.21399e-07
-3.63159e-07
-3.60912e-07
-4.24322e-07
-5.80869e-07
-8.64143e-07
-1.35397e-06
-2.20734e-06
-3.67186e-06
-6.15351e-06
-1.04709e-05
-1.79304e-05
-3.08896e-05
-5.30168e-05
-9.13198e-05
-0.000157343
-0.000270993
-0.00046629
-0.000765663
-0.00100133
-0.00129529
-0.00178497
-0.00259905
-0.00383259
-0.00565259
-0.00816546
-0.0112532
-0.0128594
-0.00499462
0.0160492
0.0274275
0.015194
0.00478308
0.001141
0.000168114
2.87047e-07
-7.33021e-06
-2.45645e-06
-5.10611e-07
-1.12428e-07
-3.41733e-08
-1.33735e-08
-5.31919e-09
-2.02574e-09
-7.41093e-10
-2.61766e-10
-8.97371e-11
-2.98805e-11
-9.69247e-12
-3.06767e-12
-9.48754e-13
-2.87147e-13
-8.52482e-14
-2.48137e-14
-7.09823e-15
-1.99826e-15
-5.54474e-16
-1.51724e-16
-4.09847e-17
-1.09297e-17
-2.87372e-18
-7.41845e-19
-1.86138e-19
-4.43843e-20
-9.51473e-21
-1.57462e-21
-8.44442e-23
4.41775e-13
6.41628e-12
2.79026e-11
8.88743e-11
2.44659e-10
6.19016e-10
1.48026e-09
3.38905e-09
7.46378e-09
1.58103e-08
3.21553e-08
6.27712e-08
1.1777e-07
2.12434e-07
3.67284e-07
6.05812e-07
9.47703e-07
1.39e-06
1.86165e-06
2.27363e-06
2.45353e-06
2.25809e-06
1.66133e-06
8.06413e-07
-1.69646e-08
-6.48324e-07
-1.01382e-06
-1.12876e-06
-1.08927e-06
-9.6854e-07
-8.12828e-07
-6.57211e-07
-5.2236e-07
-4.2159e-07
-3.6336e-07
-3.61185e-07
-4.24738e-07
-5.816e-07
-8.65423e-07
-1.35623e-06
-2.2113e-06
-3.67868e-06
-6.16491e-06
-1.04897e-05
-1.79602e-05
-3.09344e-05
-5.3077e-05
-9.13835e-05
-0.000157359
-0.000270808
-0.000465501
-0.000768412
-0.00100371
-0.00130054
-0.00179578
-0.00260246
-0.00384471
-0.00566958
-0.00818602
-0.011275
-0.0128631
-0.00493655
0.0161404
0.0274144
0.0151372
0.00475937
0.00113435
0.000166694
1.62214e-07
-7.30651e-06
-2.44343e-06
-5.07922e-07
-1.11929e-07
-3.40758e-08
-1.33399e-08
-5.30492e-09
-2.01987e-09
-7.38839e-10
-2.60948e-10
-8.94532e-11
-2.97855e-11
-9.66166e-12
-3.05797e-12
-9.45777e-13
-2.86255e-13
-8.4987e-14
-2.47388e-14
-7.07711e-15
-1.99242e-15
-5.52882e-16
-1.51295e-16
-4.08711e-17
-1.09001e-17
-2.86609e-18
-7.39894e-19
-1.85682e-19
-4.42673e-20
-9.49287e-21
-1.57062e-21
-8.37772e-23
4.41772e-13
6.41623e-12
2.79024e-11
8.88736e-11
2.44657e-10
6.19011e-10
1.48025e-09
3.38902e-09
7.46372e-09
1.58102e-08
3.21551e-08
6.27709e-08
1.1777e-07
2.12434e-07
3.67284e-07
6.05814e-07
9.47709e-07
1.39001e-06
1.86167e-06
2.27366e-06
2.45358e-06
2.25814e-06
1.66137e-06
8.0643e-07
-1.69696e-08
-6.48346e-07
-1.01385e-06
-1.1288e-06
-1.08984e-06
-9.68586e-07
-8.12837e-07
-6.57255e-07
-5.22982e-07
-4.21753e-07
-3.6342e-07
-3.612e-07
-4.24736e-07
-5.81595e-07
-8.6543e-07
-1.35614e-06
-2.21149e-06
-3.67923e-06
-6.16628e-06
-1.04931e-05
-1.79686e-05
-3.09548e-05
-5.31261e-05
-9.15019e-05
-0.000157644
-0.000271493
-0.000467123
-0.000766832
-0.00100303
-0.00129832
-0.00179028
-0.00260615
-0.0038429
-0.00566595
-0.0081818
-0.0112702
-0.0128548
-0.00492469
0.0161466
0.0274102
0.0151324
0.00475763
0.00113392
0.00016659
1.49934e-07
-7.30667e-06
-2.44312e-06
-5.07862e-07
-1.11922e-07
-3.40746e-08
-1.3339e-08
-5.30435e-09
-2.01957e-09
-7.3871e-10
-2.60897e-10
-8.94344e-11
-2.97789e-11
-9.6595e-12
-3.05728e-12
-9.45566e-13
-2.86192e-13
-8.49692e-14
-2.47338e-14
-7.07578e-15
-1.99207e-15
-5.52792e-16
-1.51273e-16
-4.08659e-17
-1.08988e-17
-2.86577e-18
-7.39803e-19
-1.85643e-19
-4.42529e-20
-9.48916e-21
-1.57104e-21
-8.35936e-23
4.4199e-13
6.41939e-12
2.79161e-11
8.89168e-11
2.44775e-10
6.19303e-10
1.48093e-09
3.39054e-09
7.46695e-09
1.58168e-08
3.2168e-08
6.27947e-08
1.17811e-07
2.125e-07
3.67385e-07
6.05939e-07
9.47827e-07
1.39005e-06
1.86151e-06
2.2732e-06
2.45264e-06
2.25673e-06
1.65974e-06
8.04956e-07
-1.79956e-08
-6.48838e-07
-1.01388e-06
-1.12851e-06
-1.08994e-06
-9.68084e-07
-8.12416e-07
-6.56917e-07
-5.2333e-07
-4.21562e-07
-3.63221e-07
-3.60928e-07
-4.24328e-07
-5.80902e-07
-8.64257e-07
-1.35426e-06
-2.20795e-06
-3.67323e-06
-6.15564e-06
-1.04746e-05
-1.79362e-05
-3.08978e-05
-5.30261e-05
-9.13236e-05
-0.00015732
-0.000270885
-0.000465942
-0.000765039
-0.00100101
-0.00129586
-0.00178737
-0.00260357
-0.00383818
-0.00565814
-0.00817061
-0.0112573
-0.0128567
-0.00497846
0.0160615
0.0274174
0.0151823
0.00477886
0.00114001
0.000167895
2.67383e-07
-7.32821e-06
-2.45521e-06
-5.10383e-07
-1.12398e-07
-3.41695e-08
-1.3371e-08
-5.31736e-09
-2.02475e-09
-7.40657e-10
-2.61596e-10
-8.9676e-11
-2.98597e-11
-9.6857e-12
-3.06556e-12
-9.48117e-13
-2.8696e-13
-8.51954e-14
-2.47992e-14
-7.09434e-15
-1.99725e-15
-5.54219e-16
-1.5166e-16
-4.09697e-17
-1.09263e-17
-2.87297e-18
-7.41711e-19
-1.86119e-19
-4.43702e-20
-9.51393e-21
-1.57248e-21
-8.44646e-23
4.42444e-13
6.42596e-12
2.79445e-11
8.90068e-11
2.4502e-10
6.19915e-10
1.48237e-09
3.39374e-09
7.47377e-09
1.58307e-08
3.21951e-08
6.28448e-08
1.17898e-07
2.12639e-07
3.67598e-07
6.06204e-07
9.48077e-07
1.39012e-06
1.86116e-06
2.27223e-06
2.45065e-06
2.25378e-06
1.65633e-06
8.01924e-07
-2.00527e-08
-6.49797e-07
-1.01394e-06
-1.12799e-06
-1.08916e-06
-9.67252e-07
-8.11658e-07
-6.56274e-07
-5.22904e-07
-4.21111e-07
-3.62765e-07
-3.60332e-07
-4.23447e-07
-5.79394e-07
-8.61667e-07
-1.34956e-06
-2.19999e-06
-3.65917e-06
-6.13151e-06
-1.04324e-05
-1.78628e-05
-3.07705e-05
-5.28078e-05
-9.09506e-05
-0.000156686
-0.00026981
-0.000464124
-0.000762959
-0.000998538
-0.00129218
-0.0017818
-0.0025953
-0.00382591
-0.00564047
-0.00814686
-0.0112306
-0.0128611
-0.00508965
0.0158866
0.0274328
0.0152869
0.0048236
0.0011529
0.00017067
5.25953e-07
-7.36902e-06
-2.47946e-06
-5.15489e-07
-1.13383e-07
-3.43644e-08
-1.34367e-08
-5.34467e-09
-2.03569e-09
-7.4479e-10
-2.63085e-10
-9.01913e-11
-3.00323e-11
-9.74178e-12
-3.08329e-12
-9.5358e-13
-2.88605e-13
-8.56793e-14
-2.49389e-14
-7.13392e-15
-2.00828e-15
-5.5724e-16
-1.52478e-16
-4.11884e-17
-1.09841e-17
-2.88803e-18
-7.45487e-19
-1.87065e-19
-4.4595e-20
-9.56235e-21
-1.58333e-21
-8.4164e-23
4.43148e-13
6.43617e-12
2.79888e-11
8.91469e-11
2.45402e-10
6.20868e-10
1.4846e-09
3.39873e-09
7.4844e-09
1.58524e-08
3.22374e-08
6.29229e-08
1.18033e-07
2.12854e-07
3.67927e-07
6.0661e-07
9.48465e-07
1.39024e-06
1.86063e-06
2.27074e-06
2.44761e-06
2.24927e-06
1.65116e-06
7.97314e-07
-2.3215e-08
-6.51256e-07
-1.01402e-06
-1.12725e-06
-1.08806e-06
-9.66057e-07
-8.10549e-07
-6.55333e-07
-5.21485e-07
-4.20458e-07
-3.62078e-07
-3.59424e-07
-4.22114e-07
-5.7712e-07
-8.57768e-07
-1.3427e-06
-2.18794e-06
-3.63798e-06
-6.09456e-06
-1.03674e-05
-1.77488e-05
-3.0571e-05
-5.24633e-05
-9.03604e-05
-0.000155684
-0.000268134
-0.000461397
-0.000760006
-0.000995024
-0.00128653
-0.00177262
-0.0025813
-0.00380609
-0.00561281
-0.00811032
-0.0111902
-0.0128691
-0.00526352
0.0156144
0.0274543