/*--------------------------------*- C++ -*----------------------------------*\
  =========                 |
  \\      /  F ield         | OpenFOAM: The Open Source CFD Toolbox
   \\    /   O peration     | Website:  https://openfoam.org
    \\  /    A nd           | Version:  10
     \\/     M anipulation  |
\*---------------------------------------------------------------------------*/
FoamFile
{
    format      ascii;
    class       volScalarField;
    location    "1";
    object      RR.NH3;
}
// * * * * * * * * * * * * * * * * * * * * * * * * * * * * * * * * * * * * * //

dimensions      [1 -3 -1 0 0 0 0];

internalField   nonuniform List<scalar> 
4000
(
9.38846e-12
3.92551e-11
9.24198e-11
1.92687e-10
3.9224e-10
7.97785e-10
1.64259e-09
3.41465e-09
7.12221e-09
1.47749e-08
3.02392e-08
6.07428e-08
1.19346e-07
2.28515e-07
4.24213e-07
7.58416e-07
1.31313e-06
2.23634e-06
3.81793e-06
7.0416e-06
1.3485e-05
2.61271e-05
4.81815e-05
7.88945e-05
0.000116218
0.000157011
0.000200792
0.000265666
0.000334571
0.000422981
0.000524348
0.000625577
0.000693712
0.000638291
0.00032989
-0.000512448
-0.00232437
-0.00572834
-0.0114299
-0.0202474
-0.0336201
-0.0538867
-0.0850908
-0.134171
-0.214032
-0.342374
-0.544642
-0.85902
-1.34262
-2.07843
-3.20657
-4.71392
-3.97415
-2.22964
-1.24638
-0.69074
-0.374311
-0.200274
-0.104709
-0.0533466
-0.0261307
-0.011979
-0.00508866
-0.00206249
-0.000775454
-0.000247314
-6.70618e-05
-1.53128e-05
-2.69449e-06
-3.78339e-07
-4.64905e-08
-4.77647e-09
-4.33566e-10
-3.5669e-11
-3.03265e-12
-3.43902e-13
-5.95963e-14
-1.50684e-14
-4.50558e-15
-1.40411e-15
-4.38012e-16
-1.34839e-16
-4.08254e-17
-1.21554e-17
-3.55341e-18
-1.02329e-18
-2.90648e-19
-8.14895e-20
-2.25815e-20
-6.18361e-21
-1.68423e-21
-4.5275e-22
-1.21197e-22
-3.18114e-23
-8.60468e-24
-1.59643e-24
-3.22935e-25
-8.23506e-26
-2.97009e-27
-1.02887e-27
9.34617e-12
3.9149e-11
9.14228e-11
1.91151e-10
3.88129e-10
7.89121e-10
1.62259e-09
3.36878e-09
7.01635e-09
1.45296e-08
2.96792e-08
5.95021e-08
1.16636e-07
2.2297e-07
4.13702e-07
7.39742e-07
1.27936e-06
2.17511e-06
3.70578e-06
6.82726e-06
1.30462e-05
2.52339e-05
4.67646e-05
7.72508e-05
0.000114582
0.000155621
0.000199523
0.000264256
0.000332948
0.000421244
0.000522786
0.000627582
0.000696232
0.000644377
0.000342456
-0.000491842
-0.00229745
-0.00570981
-0.0114406
-0.0203326
-0.0338383
-0.0543332
-0.0859051
-0.135647
-0.216671
-0.347038
-0.552508
-0.872125
-1.36401
-2.11317
-3.26297
-4.78422
-3.90522
-2.1904
-1.22368
-0.677321
-0.367998
-0.196622
-0.102602
-0.0522056
-0.0253554
-0.0115487
-0.00487895
-0.00196511
-0.000728685
-0.000230086
-6.15202e-05
-1.37857e-05
-2.37258e-06
-3.268e-07
-3.96324e-08
-4.0684e-09
-3.68477e-10
-3.02023e-11
-2.62107e-12
-3.08932e-13
-5.63963e-14
-1.47692e-14
-4.49521e-15
-1.41579e-15
-4.4543e-16
-1.3816e-16
-4.21594e-17
-1.26314e-17
-3.72749e-18
-1.08092e-18
-3.08713e-19
-8.6712e-20
-2.39973e-20
-6.56685e-21
-1.78113e-21
-4.7576e-22
-1.24968e-22
-3.26019e-23
-8.67127e-24
-2.59438e-24
-6.42641e-25
-6.73643e-26
-5.62899e-28
2.67148e-27
9.38601e-12
3.88679e-11
9.05161e-11
1.89529e-10
3.84272e-10
7.80657e-10
1.60357e-09
3.32445e-09
6.91118e-09
1.42774e-08
2.90722e-08
5.80403e-08
1.13494e-07
2.16636e-07
4.01651e-07
7.18375e-07
1.24451e-06
2.11228e-06
3.58718e-06
6.57837e-06
1.2531e-05
2.42987e-05
4.50988e-05
7.56815e-05
0.000112757
0.000153907
0.00019782
0.000262194
0.000330708
0.000418947
0.000520749
0.000626622
0.000698578
0.000653188
0.000359671
-0.000464846
-0.00226536
-0.00568895
-0.0114749
-0.0204919
-0.0342184
-0.0550726
-0.0872463
-0.138072
-0.220944
-0.354373
-0.56467
-0.892025
-1.39611
-2.16452
-3.34031
-4.88992
-3.79787
-2.13122
-1.19056
-0.658922
-0.356541
-0.190195
-0.0991125
-0.0504437
-0.0241841
-0.0109387
-0.00459511
-0.00183799
-0.0006708
-0.000208647
-5.4745e-05
-1.20037e-05
-2.01589e-06
-2.7262e-07
-3.27345e-08
-3.35047e-09
-3.03851e-10
-2.51589e-11
-2.2341e-12
-2.75215e-13
-5.29278e-14
-1.4319e-14
-4.42731e-15
-1.40625e-15
-4.46073e-16
-1.39382e-16
-4.27976e-17
-1.28993e-17
-3.81727e-18
-1.11042e-18
-3.18036e-19
-8.96246e-20
-2.49301e-20
-6.84404e-21
-1.85378e-21
-4.97464e-22
-1.35561e-22
-3.30838e-23
-8.60741e-24
-2.39158e-24
-5.75509e-25
-1.24332e-25
-2.83931e-26
9.51333e-28
9.14649e-12
3.83075e-11
8.96574e-11
1.87118e-10
3.78505e-10
7.67501e-10
1.57266e-09
3.25423e-09
6.75302e-09
1.39297e-08
2.83323e-08
5.65447e-08
1.10471e-07
2.1069e-07
3.90462e-07
6.98463e-07
1.21044e-06
2.05804e-06
3.49231e-06
6.36949e-06
1.2093e-05
2.345e-05
4.37386e-05
7.40757e-05
0.000111122
0.000152298
0.000196215
0.000260342
0.000330075
0.00041704
0.00051921
0.000624004
0.000701492
0.000661642
0.000376065
-0.000440299
-0.00224059
-0.00568523
-0.0115469
-0.0207219
-0.0347215
-0.0560545
-0.0890367
-0.14124
-0.226531
-0.36411
-0.580818
-0.919503
-1.44076
-2.23549
-3.45015
-4.9968
-3.68772
-2.06778
-1.15381
-0.637524
-0.344402
-0.183237
-0.0952031
-0.0482587
-0.022975
-0.0102836
-0.00428476
-0.00170219
-0.000611064
-0.000185617
-4.77807e-05
-1.02117e-05
-1.67851e-06
-2.22499e-07
-2.64961e-08
-2.70618e-09
-2.41751e-10
-1.99418e-11
-1.80546e-12
-2.32787e-13
-4.73851e-14
-1.32997e-14
-4.20026e-15
-1.35907e-15
-4.36251e-16
-1.37357e-16
-4.24635e-17
-1.28743e-17
-3.829e-18
-1.11838e-18
-3.21442e-19
-9.08594e-20
-2.53341e-20
-6.95613e-21
-1.89985e-21
-5.07767e-22
-1.35296e-22
-3.52292e-23
-9.74513e-24
-2.24335e-24
-4.78489e-25
-1.7988e-25
-4.01098e-26
1.17957e-27
9.11365e-12
3.79052e-11
8.87592e-11
1.84636e-10
3.73458e-10
7.56246e-10
1.54787e-09
3.19836e-09
6.62962e-09
1.366e-08
2.77537e-08
5.53331e-08
1.0801e-07
2.05878e-07
3.8148e-07
6.82597e-07
1.18344e-06
2.01175e-06
3.40675e-06
6.19518e-06
1.17414e-05
2.27757e-05
4.25723e-05
7.25882e-05
0.000109442
0.000150702
0.000194868
0.000258792
0.000327332
0.000415658
0.000518285
0.000606146
0.000704574
0.000669425
0.000390053
-0.00042126
-0.00222608
-0.00570091
-0.0116472
-0.0209933
-0.0352991
-0.0571472
-0.0910069
-0.144712
-0.232617
-0.374652
-0.597569
-0.946845
-1.4848
-2.30592
-3.55508
-5.10247
-3.55679
-1.99472
-1.11251
-0.61389
-0.331256
-0.175778
-0.091099
-0.046051
-0.0217984
-0.00967324
-0.00400251
-0.0015751
-0.000556154
-0.000165698
-4.19123e-05
-8.77191e-06
-1.40674e-06
-1.82694e-07
-2.16238e-08
-2.17711e-09
-1.93416e-10
-1.60304e-11
-1.49097e-12
-2.02515e-13
-4.35446e-14
-1.25868e-14
-4.02309e-15
-1.30765e-15
-4.22286e-16
-1.34121e-16
-4.17313e-17
-1.2715e-17
-3.79473e-18
-1.11224e-18
-3.20787e-19
-9.08478e-20
-2.53282e-20
-6.98467e-21
-1.89489e-21
-5.10342e-22
-1.34596e-22
-3.53764e-23
-9.09129e-24
-2.57582e-24
-4.73367e-25
-1.94204e-25
-3.81945e-26
1.5819e-27
9.015e-12
3.76026e-11
8.77705e-11
1.82434e-10
3.68568e-10
7.4562e-10
1.52434e-09
3.14672e-09
6.51557e-09
1.34128e-08
2.72299e-08
5.42502e-08
1.05846e-07
2.01732e-07
3.73913e-07
6.69556e-07
1.16184e-06
1.97592e-06
3.3436e-06
6.06198e-06
1.1469e-05
2.2239e-05
4.15876e-05
7.12904e-05
0.000108041
0.000149526
0.00019384
0.00025761
0.000326355
0.000415013
0.000518346
0.000626886
0.000708155
0.000676195
0.000401122
-0.000408447
-0.00222245
-0.00573469
-0.0117746
-0.021307
-0.0359359
-0.0583381
-0.0930665
-0.148258
-0.238711
-0.384978
-0.614921
-0.975029
-1.53102
-2.38065
-3.66822
-5.18316
-3.44882
-1.93276
-1.07671
-0.592677
-0.319598
-0.169118
-0.0872902
-0.0438914
-0.0206942
-0.00911228
-0.00375467
-0.0014664
-0.000510629
-0.000149838
-3.75141e-05
-7.45524e-06
-1.17513e-06
-1.51065e-07
-1.76462e-08
-1.76025e-09
-1.55747e-10
-1.2991e-11
-1.24342e-12
-1.77838e-13
-4.01421e-14
-1.18872e-14
-3.83855e-15
-1.25489e-15
-4.06143e-16
-1.29245e-16
-4.03415e-17
-1.23468e-17
-3.70855e-18
-1.092e-18
-3.16052e-19
-8.98087e-20
-2.51469e-20
-6.92884e-21
-1.88285e-21
-5.03188e-22
-1.33843e-22
-3.56586e-23
-9.96394e-24
-2.54083e-24
-6.95121e-25
-1.3711e-25
-3.24373e-26
1.57012e-27
9.21308e-12
3.72181e-11
8.68489e-11
1.80741e-10
3.64361e-10
7.3614e-10
1.50322e-09
3.10011e-09
6.41435e-09
1.31949e-08
2.67697e-08
5.33051e-08
1.03967e-07
1.98145e-07
3.6738e-07
6.58305e-07
1.14316e-06
1.94471e-06
3.28768e-06
5.9412e-06
1.12197e-05
2.17815e-05
4.07576e-05
7.02096e-05
0.000106999
0.000148653
0.000193159
0.000256863
0.000325821
0.000414714
0.000518486
0.000627586
0.000712747
0.000681468
0.000409073
-0.00040171
-0.00222898
-0.00578431
-0.0119186
-0.0216323
-0.0365872
-0.0595248
-0.0951295
-0.151814
-0.244821
-0.395303
-0.631446
-1.00181
-1.57777
-2.45213
-3.77326
-5.24735
-3.33268
-1.8677
-1.04142
-0.568313
-0.306601
-0.162007
-0.0834678
-0.0417621
-0.0198153
-0.00866459
-0.00354688
-0.00137533
-0.00047305
-0.000136998
-3.3874e-05
-6.61101e-06
-1.026e-06
-1.29968e-07
-1.51204e-08
-1.49595e-09
-1.31806e-10
-1.10375e-11
-1.08047e-12
-1.60684e-13
-3.75307e-14
-1.12966e-14
-3.67346e-15
-1.20602e-15
-3.91532e-16
-1.24919e-16
-3.90786e-17
-1.19777e-17
-3.59985e-18
-1.06112e-18
-3.07579e-19
-8.75626e-20
-2.4519e-20
-6.76063e-21
-1.84433e-21
-4.93473e-22
-1.3497e-22
-3.62055e-23
-8.16692e-24
-2.24681e-24
-6.31413e-25
-2.03496e-25
-2.65023e-26
-2.20653e-27
8.67101e-12
3.68978e-11
8.6402e-11
1.78803e-10
3.60456e-10
7.27681e-10
1.48439e-09
3.0586e-09
6.32442e-09
1.30034e-08
2.63673e-08
5.2483e-08
1.02343e-07
1.95062e-07
3.61797e-07
6.4873e-07
1.12735e-06
1.91848e-06
3.24125e-06
5.83998e-06
1.10217e-05
2.13951e-05
4.01245e-05
6.94332e-05
0.00010619
0.000147948
0.000192663
0.000256409
0.000325654
0.000414841
0.00051908
0.00062903
0.000714675
0.000686282
0.000414754
-0.000399426
-0.00224269
-0.00584103
-0.0120696
-0.021955
-0.0371867
-0.0605866
-0.0969496
-0.154956
-0.250278
-0.404701
-0.647128
-1.02739
-1.61844
-2.51699
-3.86804
-5.28488
-3.23717
-1.81294
-1.00861
-0.551962
-0.297509
-0.156856
-0.0806227
-0.0402089
-0.0189776
-0.00823928
-0.00336234
-0.00129449
-0.000439054
-0.000125675
-3.07108e-05
-5.84721e-06
-8.95798e-07
-1.12452e-07
-1.3057e-08
-1.28554e-09
-1.12736e-10
-9.47396e-12
-9.47958e-13
-1.46245e-13
-3.52049e-14
-1.07442e-14
-3.51426e-15
-1.15781e-15
-3.7684e-16
-1.20502e-16
-3.77742e-17
-1.16018e-17
-3.49259e-18
-1.03137e-18
-2.99087e-19
-8.52692e-20
-2.3904e-20
-6.62204e-21
-1.8003e-21
-4.88388e-22
-1.28857e-22
-3.31767e-23
-7.95727e-24
-2.57492e-24
-6.89784e-25
-2.03221e-25
6.02321e-28
-2.63919e-27
8.89499e-12
3.66192e-11
8.54938e-11
1.7749e-10
3.57195e-10
7.20232e-10
1.46783e-09
3.02321e-09
6.24726e-09
1.28384e-08
2.60237e-08
5.17843e-08
1.0097e-07
1.9247e-07
3.57135e-07
6.40819e-07
1.11447e-06
1.89756e-06
3.20563e-06
5.76179e-06
1.08612e-05
2.10929e-05
3.96128e-05
6.87621e-05
0.000105539
0.000147488
0.000192401
0.000256184
0.00032606
0.000415093
0.000519832
0.000630431
0.000717699
0.000689988
0.000418408
-0.000400947
-0.00226206
-0.00590417
-0.012227
-0.0222863
-0.0378181
-0.0617108
-0.0988675
-0.158231
-0.255871
-0.414033
-0.662385
-1.05224
-1.65714
-2.58082
-3.96495
-5.30385
-3.16716
-1.77287
-0.987187
-0.534931
-0.288052
-0.151659
-0.0778146
-0.0387098
-0.0181918
-0.00786872
-0.0032028
-0.0012248
-0.000409518
-0.000115489
-2.78147e-05
-5.20831e-06
-7.85742e-07
-9.70737e-08
-1.11849e-08
-1.09282e-09
-9.55017e-11
-8.07867e-12
-8.2994e-13
-1.33358e-13
-3.31172e-14
-1.02457e-14
-3.36988e-15
-1.11367e-15
-3.63265e-16
-1.1637e-16
-3.65389e-17
-1.12395e-17
-3.38831e-18
-1.00215e-18
-2.90895e-19
-8.29927e-20
-2.33009e-20
-6.43598e-21
-1.7626e-21
-4.76192e-22
-1.29477e-22
-3.38649e-23
-7.87879e-24
-2.49538e-24
-4.81645e-25
-5.93838e-26
-1.19139e-27
1.15107e-27
8.72496e-12
3.62873e-11
8.48335e-11
1.76214e-10
3.54363e-10
7.13956e-10
1.45407e-09
2.99248e-09
6.18131e-09
1.26992e-08
2.57335e-08
5.11962e-08
9.98153e-08
1.90286e-07
3.53183e-07
6.34049e-07
1.10328e-06
1.87904e-06
3.17261e-06
5.68926e-06
1.072e-05
2.08264e-05
3.92067e-05
6.82936e-05
0.000105086
0.000147168
0.000192277
0.000256153
0.000326764
0.00041553
0.000520744
0.000631931
0.000723083
0.000693089
0.000420464
-0.000404978
-0.00228456
-0.00596499
-0.0123822
-0.0225969
-0.0383945
-0.06273
-0.100605
-0.161207
-0.260917
-0.422545
-0.676436
-1.07447
-1.68929
-2.63026
-4.03272
-5.29058
-3.08767
-1.72974
-0.963522
-0.522305
-0.281149
-0.147913
-0.0758156
-0.0376437
-0.01761
-0.00757712
-0.00307556
-0.00117498
-0.000380755
-0.000106648
-2.54065e-05
-4.70744e-06
-7.01891e-07
-8.62498e-08
-9.89126e-09
-9.59751e-10
-8.35898e-11
-7.10817e-12
-7.46272e-13
-1.23837e-13
-3.14726e-14
-9.8322e-15
-3.24621e-15
-1.07509e-15
-3.51204e-16
-1.12651e-16
-3.541e-17
-1.09035e-17
-3.29018e-18
-9.74343e-19
-2.82978e-19
-8.08237e-20
-2.27144e-20
-6.28155e-21
-1.72594e-21
-4.61003e-22
-1.22701e-22
-3.3695e-23
-8.56069e-24
-2.44031e-24
-5.95174e-25
-6.51981e-26
-1.31533e-26
3.11402e-27
8.87055e-12
3.64608e-11
8.45943e-11
1.75042e-10
3.51899e-10
7.08347e-10
1.44211e-09
2.9668e-09
6.12661e-09
1.25835e-08
2.54949e-08
5.0718e-08
9.88879e-08
1.88556e-07
3.5005e-07
6.28803e-07
1.0949e-06
1.86568e-06
3.14911e-06
5.63672e-06
1.06148e-05
2.06249e-05
3.88876e-05
6.7901e-05
0.000104743
0.000146959
0.000192232
0.000256192
0.000326983
0.00041601
0.000521472
0.000632814
0.000722556
0.00069494
0.00042123
-0.000410197
-0.00230666
-0.00602594
-0.012521
-0.0228727
-0.0389036
-0.0636314
-0.102155
-0.163927
-0.265625
-0.430584
-0.689559
-1.09561
-1.72105
-2.68008
-4.10288
-5.26558
-3.0258
-1.69336
-0.941018
-0.512498
-0.275305
-0.144556
-0.0739511
-0.0366294
-0.0170703
-0.00731865
-0.00296388
-0.00112562
-0.000361749
-0.000100164
-2.36513e-05
-4.32506e-06
-6.37853e-07
-7.81422e-08
-8.94393e-09
-8.6296e-10
-7.49203e-11
-6.40057e-12
-6.84575e-13
-1.16612e-13
-3.01657e-14
-9.49121e-15
-3.14125e-15
-1.04184e-15
-3.40675e-16
-1.09365e-16
-3.44047e-17
-1.06011e-17
-3.20091e-18
-9.48617e-19
-2.75757e-19
-7.87841e-20
-2.22159e-20
-6.13774e-21
-1.68883e-21
-4.57499e-22
-1.19153e-22
-3.13091e-23
-8.13265e-24
-1.76933e-24
-5.00511e-25
-8.62511e-26
1.03737e-26
-8.45352e-28
8.67767e-12
3.60796e-11
8.43148e-11
1.74121e-10
3.49908e-10
7.03907e-10
1.43258e-09
2.94558e-09
6.08104e-09
1.2488e-08
2.53002e-08
5.03293e-08
9.81376e-08
1.87161e-07
3.47528e-07
6.24618e-07
1.0881e-06
1.85427e-06
3.12884e-06
5.59324e-06
1.05266e-05
2.04651e-05
3.86427e-05
6.7609e-05
0.000104484
0.000146821
0.000192245
0.0002563
0.000327271
0.000416532
0.000522356
0.000634148
0.000724649
0.000696795
0.000421432
-0.000415958
-0.00232796
-0.00608229
-0.012643
-0.0231065
-0.0393202
-0.0643344
-0.103283
-0.166777
-0.270178
-0.438045
-0.701703
-1.11525
-1.75305
-2.73323
-4.18372
-5.25036
-2.99067
-1.67247
-0.929121
-0.504498
-0.270779
-0.142016
-0.0725575
-0.0358651
-0.016652
-0.00711108
-0.00287136
-0.00108431
-0.000346495
-9.53236e-05
-2.23012e-05
-4.0361e-06
-5.89705e-07
-7.23466e-08
-8.26305e-09
-7.95472e-10
-6.88336e-11
-5.89899e-12
-6.39977e-13
-1.11158e-13
-2.91201e-14
-9.20719e-15
-3.05247e-15
-1.01335e-15
-3.31562e-16
-1.06492e-16
-3.35163e-17
-1.03323e-17
-3.12214e-18
-9.25731e-19
-2.69291e-19
-7.69774e-20
-2.16461e-20
-6.0087e-21
-1.64096e-21
-4.4646e-22
-1.15745e-22
-3.0881e-23
-8.38969e-24
-2.01404e-24
-7.09841e-25
-1.17498e-25
-1.22405e-26
1.93087e-27
8.92745e-12
3.60798e-11
8.36239e-11
1.73548e-10
3.48041e-10
7.00362e-10
1.4244e-09
2.92818e-09
6.04358e-09
1.24102e-08
2.51414e-08
5.0015e-08
9.75368e-08
1.86062e-07
3.45579e-07
6.21373e-07
1.08275e-06
1.8456e-06
3.1139e-06
5.5599e-06
1.04603e-05
2.03415e-05
3.84443e-05
6.73685e-05
0.000104277
0.000146736
0.000192309
0.000256472
0.000327626
0.000417064
0.000523276
0.000635519
0.000724388
0.000698318
0.000421066
-0.000422262
-0.00234942
-0.0061361
-0.0127584
-0.0233282
-0.0397211
-0.0650341
-0.104492
-0.168904
-0.273772
-0.444022
-0.711367
-1.13049
-1.77598
-2.76666
-4.22602
-5.18987
-2.93595
-1.64298
-0.913557
-0.494201
-0.265364
-0.139176
-0.0710902
-0.0351148
-0.016267
-0.00693339
-0.00279572
-0.001051
-0.000334413
-9.14079e-05
-2.12342e-05
-3.8102e-06
-5.52037e-07
-6.7815e-08
-7.71396e-09
-7.39173e-10
-6.38425e-11
-5.48937e-12
-6.03384e-13
-1.06628e-13
-2.8238e-14
-8.96524e-15
-2.97658e-15
-9.88854e-16
-3.23694e-16
-1.04003e-16
-3.2746e-17
-1.00981e-17
-3.05178e-18
-9.0538e-19
-2.63375e-19
-7.53369e-20
-2.1189e-20
-5.89915e-21
-1.60056e-21
-4.31766e-22
-1.15463e-22
-3.10011e-23
-7.95513e-24
-1.91317e-24
-6.1248e-25
-1.23774e-25
-8.86299e-28
7.21153e-28
8.69384e-12
3.58847e-11
8.36132e-11
1.72657e-10
3.46843e-10
6.96933e-10
1.4176e-09
2.91382e-09
6.01295e-09
1.23457e-08
2.50085e-08
4.97497e-08
9.70241e-08
1.85111e-07
3.43857e-07
6.18425e-07
1.0781e-06
1.83827e-06
3.10168e-06
5.53298e-06
1.04088e-05
2.02448e-05
3.82957e-05
6.71989e-05
0.000104148
0.000146702
0.000192398
0.000256669
0.000327999
0.000417666
0.000524122
0.000615748
0.000727135
0.000699038
0.000420221
-0.000428564
-0.00236935
-0.00618512
-0.0128621
-0.0235259
-0.040078
-0.0656601
-0.105584
-0.170821
-0.277074
-0.449612
-0.720549
-1.14525
-1.79955
-2.80436
-4.2807
-5.15334
-2.9029
-1.62379
-0.902463
-0.487764
-0.261595
-0.137064
-0.0699465
-0.0345005
-0.0159466
-0.00678534
-0.00273278
-0.00102374
-0.000324608
-8.8267e-05
-2.03657e-05
-3.6333e-06
-5.23092e-07
-6.43328e-08
-7.30078e-09
-6.97367e-10
-6.0122e-11
-5.18226e-12
-5.75555e-13
-1.03076e-13
-2.75208e-14
-8.76416e-15
-2.91285e-15
-9.68173e-16
-3.17014e-16
-1.01885e-16
-3.20851e-17
-9.89679e-18
-2.99202e-18
-8.87735e-19
-2.58337e-19
-7.39167e-20
-2.08177e-20
-5.76474e-21
-1.58038e-21
-4.26015e-22
-1.15447e-22
-3.17533e-23
-6.90344e-24
-2.0015e-24
-5.57728e-25
-5.58197e-26
1.18448e-26
1.20902e-28
8.80417e-12
3.5653e-11
8.33526e-11
1.72258e-10
3.45665e-10
6.9465e-10
1.41233e-09
2.90213e-09
5.98783e-09
1.22931e-08
2.49009e-08
4.95359e-08
9.66115e-08
1.84346e-07
3.42477e-07
6.16229e-07
1.0747e-06
1.83289e-06
3.09237e-06
5.51209e-06
1.03664e-05
2.01673e-05
3.81781e-05
6.70723e-05
0.000104063
0.000146709
0.000192515
0.000256927
0.000328579
0.000418926
0.000527216
0.000644115
0.000729115
0.000700855
0.000419717
-0.000434148
-0.00238664
-0.00622711
-0.0129506
-0.0236948
-0.0403848
-0.0662003
-0.106508
-0.172414
-0.279807
-0.454247
-0.728198
-1.15767
-1.81929
-2.83558
-4.32465
-5.1194
-2.87708
-1.60865
-0.893756
-0.483024
-0.258856
-0.135514
-0.0690964
-0.0340386
-0.0156981
-0.00666483
-0.00268042
-0.00100097
-0.000316561
-8.57457e-05
-1.96945e-05
-3.49414e-06
-5.00569e-07
-6.16125e-08
-6.9811e-09
-6.65059e-10
-5.72459e-11
-4.94435e-12
-5.53819e-13
-1.00236e-13
-2.69364e-14
-8.59831e-15
-2.85999e-15
-9.50938e-16
-3.11431e-16
-1.00105e-16
-3.15279e-17
-9.72696e-18
-2.94118e-18
-8.72749e-19
-2.5404e-19
-7.2692e-20
-2.04531e-20
-5.66969e-21
-1.55355e-21
-4.23625e-22
-1.14049e-22
-2.90549e-23
-6.99626e-24
-1.88709e-24
-4.5459e-25
-9.44533e-26
-1.189e-26
-3.30593e-28
8.70268e-12
3.57936e-11
8.31153e-11
1.71878e-10
3.44611e-10
6.92736e-10
1.40821e-09
2.89289e-09
5.96854e-09
1.22527e-08
2.48182e-08
4.93712e-08
9.62975e-08
1.83774e-07
3.41456e-07
6.14558e-07
1.07201e-06
1.8286e-06
3.08496e-06
5.49571e-06
1.03356e-05
2.01112e-05
3.80945e-05
6.69814e-05
0.000104005
0.000146714
0.000192584
0.000257014
0.000328622
0.000418578
0.000525562
0.000637167
0.000729622
0.00070053
0.000418477
-0.000439576
-0.00240242
-0.00626454
-0.013028
-0.02384
-0.0406432
-0.0666446
-0.107269
-0.173727
-0.28207
-0.458128
-0.734739
-1.16865
-1.8377
-2.86687
-4.37259
-5.11226
-2.86868
-1.60267
-0.889568
-0.480464
-0.257246
-0.134548
-0.0685375
-0.0337196
-0.0155193
-0.00657558
-0.00264008
-0.000982934
-0.000310122
-8.37199e-05
-1.91484e-05
-3.38172e-06
-4.82203e-07
-5.94092e-08
-6.72125e-09
-6.38918e-10
-5.49293e-11
-4.75323e-12
-5.36356e-13
-9.7953e-14
-2.64651e-14
-8.46405e-15
-2.81699e-15
-9.36866e-16
-3.06863e-16
-9.8647e-17
-3.10724e-17
-9.58775e-18
-2.89882e-18
-8.6055e-19
-2.50571e-19
-7.16708e-20
-2.02085e-20
-5.6047e-21
-1.53843e-21
-4.1428e-22
-1.11033e-22
-2.78448e-23
-7.36837e-24
-1.61893e-24
-4.6632e-25
-6.58438e-26
1.14856e-26
2.29821e-27
8.77644e-12
3.576e-11
8.29566e-11
1.71574e-10
3.44126e-10
6.91219e-10
1.405e-09
2.88629e-09
5.95436e-09
1.22229e-08
2.47576e-08
4.92524e-08
9.60713e-08
1.83353e-07
3.40684e-07
6.1326e-07
1.06993e-06
1.82532e-06
3.07945e-06
5.48331e-06
1.03112e-05
2.00669e-05
3.80301e-05
6.69156e-05
0.000103967
0.000146731
0.000192664
0.000257142
0.000328812
0.000418777
0.000525749
0.000637316
0.000729908
0.000700837
0.000417607
-0.000443941
-0.00241506
-0.00629431
-0.0130892
-0.0239541
-0.0408457
-0.0669932
-0.107863
-0.174747
-0.283801
-0.461008
-0.739362
-1.17582
-1.84841
-2.8822
-4.3911
-5.07319
-2.84725
-1.59182
-0.883598
-0.478049
-0.255928
-0.133821
-0.0681407
-0.033499
-0.0153953
-0.00651351
-0.00261126
-0.00096949
-0.000305235
-8.21712e-05
-1.87442e-05
-3.29626e-06
-4.68376e-07
-5.77589e-08
-6.52537e-09
-6.19299e-10
-5.31942e-11
-4.61004e-12
-5.23228e-13
-9.62199e-14
-2.61024e-14
-8.35953e-15
-2.78329e-15
-9.25786e-16
-3.03247e-16
-9.7489e-17
-3.07097e-17
-9.47478e-18
-2.86527e-18
-8.5075e-19
-2.47684e-19
-7.09327e-20
-1.99706e-20
-5.54511e-21
-1.52599e-21
-4.07896e-22
-1.08291e-22
-2.92274e-23
-7.15264e-24
-1.55947e-24
-3.65695e-25
-5.25768e-26
-1.54825e-26
8.52798e-28
8.83523e-12
3.57578e-11
8.30887e-11
1.71269e-10
3.43469e-10
6.90302e-10
1.40279e-09
2.88139e-09
5.94414e-09
1.22019e-08
2.47144e-08
4.91645e-08
9.58984e-08
1.83033e-07
3.40112e-07
6.12348e-07
1.06852e-06
1.82312e-06
3.0757e-06
5.47485e-06
1.02947e-05
2.00372e-05
3.79869e-05
6.68721e-05
0.000103946
0.000146751
0.00019273
0.000257253
0.000328999
0.00041906
0.000526209
0.000638059
0.000728962
0.000701414
0.000417083
-0.000447154
-0.00242442
-0.00631623
-0.0131339
-0.0240371
-0.0409925
-0.0672452
-0.108292
-0.175483
-0.285067
-0.463183
-0.743035
-1.18198
-1.85859
-2.89905
-4.41489
-5.06383
-2.83981
-1.58705
-0.880858
-0.475742
-0.254784
-0.133243
-0.0678454
-0.0333432
-0.0153106
-0.0064715
-0.00259156
-0.000960016
-0.00030173
-8.10537e-05
-1.84184e-05
-3.23513e-06
-4.58504e-07
-5.65761e-08
-6.38607e-09
-6.05321e-10
-5.19544e-11
-4.50741e-12
-5.13753e-13
-9.49585e-14
-2.58375e-14
-8.28384e-15
-2.75907e-15
-9.17861e-16
-3.00664e-16
-9.66592e-17
-3.0448e-17
-9.39514e-18
-2.84157e-18
-8.43369e-19
-2.45731e-19
-7.03226e-20
-1.98007e-20
-5.51805e-21
-1.49337e-21
-4.0463e-22
-1.09456e-22
-2.80108e-23
-6.94162e-24
-1.90751e-24
-4.11524e-25
-1.68353e-26
4.3909e-27
-3.16584e-27
8.61126e-12
3.58579e-11
8.25974e-11
1.71097e-10
3.43134e-10
6.8951e-10
1.40115e-09
2.87805e-09
5.9373e-09
1.21872e-08
2.46842e-08
4.9105e-08
9.57861e-08
1.82829e-07
3.39749e-07
6.1176e-07
1.06762e-06
1.82171e-06
3.07336e-06
5.4696e-06
1.02846e-05
2.00189e-05
3.79602e-05
6.68456e-05
0.000103933
0.000146762
0.000192762
0.000257282
0.000328531
0.000419182
0.000526432
0.00063835
0.000729253
0.000701596
0.000416652
-0.000449296
-0.00243052
-0.00633039
-0.0131626
-0.0240898
-0.0410852
-0.0674038
-0.10856
-0.17594
-0.285845
-0.464498
-0.745202
-1.1855
-1.86423
-2.90802
-4.42726
-5.04896
-2.83148
-1.5826
-0.878464
-0.474607
-0.254017
-0.132779
-0.0675842
-0.0332014
-0.0152375
-0.00643842
-0.00257748
-0.000953651
-0.000299421
-8.03183e-05
-1.82228e-05
-3.19505e-06
-4.52033e-07
-5.58061e-08
-6.29518e-09
-5.96218e-10
-5.11489e-11
-4.44066e-12
-5.07552e-13
-9.41249e-14
-2.56618e-14
-8.23312e-15
-2.74272e-15
-9.12511e-16
-2.98927e-16
-9.61035e-17
-3.0275e-17
-9.34161e-18
-2.82577e-18
-8.38699e-19
-2.4435e-19
-6.99363e-20
-1.9692e-20
-5.47486e-21
-1.50935e-21
-4.08641e-22
-1.07771e-22
-2.88684e-23
-7.60688e-24
-1.95804e-24
-4.88222e-25
-2.20026e-26
1.21184e-26
2.12999e-27
8.52934e-12
3.57247e-11
8.26134e-11
1.7106e-10
3.43228e-10
6.89154e-10
1.40048e-09
2.87672e-09
5.93416e-09
1.218e-08
2.467e-08
4.9077e-08
9.57325e-08
1.82732e-07
3.39576e-07
6.11482e-07
1.06718e-06
1.82105e-06
3.07224e-06
5.46705e-06
1.02796e-05
2.00099e-05
3.79473e-05
6.68328e-05
0.000103926
0.000146764
0.000192764
0.000257244
0.00032831
0.000419143
0.000526366
0.000638032
0.00073106
0.000701231
0.000416252
-0.000450441
-0.00243357
-0.00633734
-0.0131765
-0.0241152
-0.041129
-0.0674767
-0.108678
-0.176131
-0.286142
-0.464925
-0.745727
-1.18591
-1.86384
-2.9051
-4.41921
-5.01927
-2.81595
-1.57425
-0.872466
-0.475877
-0.254556
-0.132981
-0.0676469
-0.0332105
-0.0152274
-0.00642724
-0.00257051
-0.000950126
-0.00029815
-7.99272e-05
-1.81208e-05
-3.17448e-06
-4.48757e-07
-5.54139e-08
-6.24928e-09
-5.9164e-10
-5.07457e-11
-4.40739e-12
-5.04469e-13
-9.37037e-14
-2.55688e-14
-8.20543e-15
-2.73367e-15
-9.09523e-16
-2.97951e-16
-9.57921e-17
-3.01778e-17
-9.31223e-18
-2.81645e-18
-8.36431e-19
-2.43588e-19
-6.96859e-20
-1.96193e-20
-5.43557e-21
-1.49417e-21
-4.02878e-22
-1.06661e-22
-2.77994e-23
-7.18509e-24
-1.98298e-24
-5.2087e-25
-1.38863e-26
5.6235e-27
-1.40823e-27
8.43353e-12
3.58557e-11
8.25853e-11
1.71052e-10
3.43253e-10
6.89174e-10
1.40034e-09
2.87671e-09
5.93379e-09
1.21802e-08
2.46698e-08
4.90768e-08
9.57324e-08
1.82732e-07
3.39576e-07
6.11482e-07
1.06719e-06
1.82105e-06
3.07225e-06
5.46706e-06
1.02796e-05
2.001e-05
3.79474e-05
6.68334e-05
0.000103928
0.000146769
0.000192779
0.000257298
0.000328302
0.000419201
0.000526403
0.000638128
0.0007309
0.000701326
0.000416273
-0.000450444
-0.00243357
-0.00633732
-0.0131765
-0.0241153
-0.0411297
-0.0674792
-0.108686
-0.176151
-0.286195
-0.465064
-0.746084
-1.18682
-1.86613
-2.91066
-4.43
-5.04512
-2.82878
-1.58099
-0.877518
-0.473913
-0.253613
-0.132544
-0.0674514
-0.0331259
-0.0151943
-0.00641636
-0.00256741
-0.000949318
-0.000297965
-7.98873e-05
-1.81128e-05
-3.17317e-06
-4.48585e-07
-5.53926e-08
-6.247e-09
-5.9143e-10
-5.07281e-11
-4.40599e-12
-5.0435e-13
-9.36891e-14
-2.55654e-14
-8.2042e-15
-2.73321e-15
-9.09347e-16
-2.97893e-16
-9.57719e-17
-3.01718e-17
-9.30994e-18
-2.81589e-18
-8.36073e-19
-2.43583e-19
-6.96692e-20
-1.96362e-20
-5.45411e-21
-1.4982e-21
-3.98815e-22
-1.06002e-22
-2.79581e-23
-6.93551e-24
-1.85727e-24
-3.5817e-25
-9.62913e-26
4.86943e-28
-1.70391e-27
8.42678e-12
3.564e-11
8.27821e-11
1.71104e-10
3.4315e-10
6.89517e-10
1.40118e-09
2.87827e-09
5.93705e-09
1.21869e-08
2.46836e-08
4.9104e-08
9.57843e-08
1.82828e-07
3.39747e-07
6.11761e-07
1.06762e-06
1.82172e-06
3.07338e-06
5.4696e-06
1.02846e-05
2.0019e-05
3.79606e-05
6.6847e-05
0.000103936
0.000146769
0.000192779
0.000257331
0.000329116
0.000419197
0.000526352
0.000638131
0.000729843
0.000701373
0.000416544
-0.000449343
-0.00243048
-0.00633014
-0.013162
-0.0240887
-0.0410834
-0.0674016
-0.108557
-0.175934
-0.285831
-0.464455
-0.745077
-1.18515
-1.86334
-2.90589
-4.42253
-5.05017
-2.83177
-1.58268
-0.878524
-0.474495
-0.253945
-0.132728
-0.06755
-0.0331791
-0.015223
-0.00643039
-0.00257389
-0.000952363
-0.000299061
-8.02312e-05
-1.8204e-05
-3.19183e-06
-4.51607e-07
-5.57519e-08
-6.28939e-09
-5.95672e-10
-5.1103e-11
-4.43714e-12
-5.07255e-13
-9.40832e-14
-2.56501e-14
-8.22882e-15
-2.74114e-15
-9.11938e-16
-2.98734e-16
-9.60423e-17
-3.02551e-17
-9.33511e-18
-2.82364e-18
-8.38373e-19
-2.44186e-19
-6.98952e-20
-1.96935e-20
-5.46307e-21
-1.50261e-21
-4.0821e-22
-1.09265e-22
-2.77639e-23
-6.81403e-24
-1.68604e-24
-5.10431e-25
-3.85145e-26
-3.67913e-28
-3.75938e-27
8.73976e-12
3.58184e-11
8.29008e-11
1.71448e-10
3.43412e-10
6.90389e-10
1.40268e-09
2.88108e-09
5.94389e-09
1.22008e-08
2.47122e-08
4.9161e-08
9.58942e-08
1.83029e-07
3.40111e-07
6.12355e-07
1.06854e-06
1.82316e-06
3.07578e-06
5.47499e-06
1.0295e-05
2.00378e-05
3.79881e-05
6.68743e-05
0.000103949
0.000146755
0.000192735
0.000257259
0.000329
0.000419031
0.000526116
0.000637844
0.00072939
0.000701197
0.000416989
-0.000447127
-0.00242414
-0.00631539
-0.013132
-0.0240334
-0.0409861
-0.0672354
-0.108276
-0.175457
-0.285023
-0.463098
-0.74285
-1.18156
-1.85768
-2.89715
-4.41101
-5.06437
-2.83967
-1.5868
-0.880734
-0.475658
-0.2546
-0.13309
-0.0677456
-0.0332856
-0.0152813
-0.00645898
-0.00258698
-0.000958478
-0.000301299
-8.09464e-05
-1.83952e-05
-3.23094e-06
-4.57899e-07
-5.65015e-08
-6.37763e-09
-6.04543e-10
-5.18946e-11
-4.50268e-12
-5.13326e-13
-9.49087e-14
-2.5828e-14
-8.28073e-15
-2.75792e-15
-9.17447e-16
-3.0053e-16
-9.6615e-17
-3.04359e-17
-9.39071e-18
-2.8403e-18
-8.42964e-19
-2.45555e-19
-7.02825e-20
-1.98258e-20
-5.49261e-21
-1.50255e-21
-4.0718e-22
-1.08094e-22
-2.95877e-23
-7.17446e-24
-1.6797e-24
-5.46868e-25
-8.71481e-26
3.85141e-27
1.08378e-27
8.84742e-12
3.56962e-11
8.30601e-11
1.71626e-10
3.44185e-10
6.91355e-10
1.40474e-09
2.88626e-09
5.95441e-09
1.22226e-08
2.47568e-08
4.92493e-08
9.60633e-08
1.8334e-07
3.40669e-07
6.13261e-07
1.06997e-06
1.8254e-06
3.07955e-06
5.48348e-06
1.03115e-05
2.00676e-05
3.80315e-05
6.6918e-05
0.000103971
0.000146735
0.000192668
0.000257144
0.000328811
0.000418765
0.000525718
0.000637257
0.000729916
0.000700774
0.0004176
-0.000443795
-0.00241452
-0.00629287
-0.013086
-0.0239478
-0.0408343
-0.0669731
-0.10783
-0.174692
-0.283715
-0.460891
-0.739228
-1.17578
-1.84876
-2.88391
-4.39525
-5.08452
-2.85312
-1.59469
-0.885258
-0.478113
-0.256104
-0.133955
-0.0682192
-0.0335377
-0.0154094
-0.00651623
-0.00261046
-0.000968449
-0.000304791
-8.20462e-05
-1.87168e-05
-3.29186e-06
-4.67828e-07
-5.76916e-08
-6.5187e-09
-6.18744e-10
-5.31421e-11
-4.60534e-12
-5.22813e-13
-9.61762e-14
-2.60968e-14
-8.35864e-15
-2.78307e-15
-9.25715e-16
-3.03221e-16
-9.74787e-17
-3.07053e-17
-9.47523e-18
-2.86542e-18
-8.50276e-19
-2.47713e-19
-7.09331e-20
-1.99688e-20
-5.55975e-21
-1.51262e-21
-4.14605e-22
-1.09794e-22
-2.84025e-23
-7.26522e-24
-1.66824e-24
-4.18349e-25
-6.10808e-26
-7.10894e-27
1.52846e-28
8.74574e-12
3.56771e-11
8.30926e-11
1.71949e-10
3.44864e-10
6.92779e-10
1.40816e-09
2.8931e-09
5.96899e-09
1.22532e-08
2.48192e-08
4.93732e-08
9.63001e-08
1.83774e-07
3.41448e-07
6.14531e-07
1.07198e-06
1.82857e-06
3.08496e-06
5.49569e-06
1.03357e-05
2.01117e-05
3.80958e-05
6.69839e-05
0.000104009
0.000146719
0.000192589
0.00025702
0.000328627
0.000418577
0.000525548
0.000637135
0.000729538
0.000700501
0.000418505
-0.000439349
-0.00240169
-0.00626268
-0.013024
-0.0238323
-0.0406292
-0.0666198
-0.107223
-0.173644
-0.281915
-0.457817
-0.734051
-1.16703
-1.8338
-2.85766
-4.35355
-5.08426
-2.85564
-1.59714
-0.887227
-0.479315
-0.256961
-0.134523
-0.0685708
-0.0337512
-0.0155369
-0.00658195
-0.00264057
-0.000981931
-0.000309544
-8.35378e-05
-1.90887e-05
-3.37376e-06
-4.81056e-07
-5.92696e-08
-6.70361e-09
-6.37197e-10
-5.47827e-11
-4.74178e-12
-5.3541e-13
-9.7862e-14
-2.64542e-14
-8.46207e-15
-2.81645e-15
-9.36695e-16
-3.06803e-16
-9.86278e-17
-3.10659e-17
-9.58491e-18
-2.89841e-18
-8.60302e-19
-2.50396e-19
-7.16897e-20