/*--------------------------------*- C++ -*----------------------------------*\
  =========                 |
  \\      /  F ield         | OpenFOAM: The Open Source CFD Toolbox
   \\    /   O peration     | Website:  https://openfoam.org
    \\  /    A nd           | Version:  10
     \\/     M anipulation  |
\*---------------------------------------------------------------------------*/
FoamFile
{
    format      ascii;
    class       volScalarField;
    location    "1";
    object      RR.N2H4;
}
// * * * * * * * * * * * * * * * * * * * * * * * * * * * * * * * * * * * * * //

dimensions      [1 -3 -1 0 0 0 0];

internalField   nonuniform List<scalar> 
4000
(
1.78313e-15
2.61006e-14
1.15525e-13
3.78425e-13
1.0833e-12
2.88607e-12
7.37711e-12
1.84009e-11
4.52597e-11
1.10568e-10
2.69901e-10
6.62388e-10
1.64179e-09
4.10924e-09
1.03084e-08
2.54483e-08
6.09179e-08
1.37406e-07
2.77266e-07
5.07083e-07
7.88537e-07
1.06994e-06
1.40107e-06
2.40123e-06
5.81077e-06
1.46406e-05
3.30658e-05
6.60402e-05
0.000117697
0.000193182
0.000294907
0.000424059
0.000574398
0.000724926
0.000816397
0.000750446
0.000442666
-4.83001e-05
-0.000464369
-0.000611163
-0.00054956
-0.000416738
-0.000296457
-0.000201398
-0.000131888
-8.42626e-05
-5.29969e-05
-3.29859e-05
-2.08066e-05
-1.47161e-05
-1.39107e-05
-1.63781e-05
-1.16253e-05
-6.52817e-06
-3.65258e-06
-2.02617e-06
-1.09902e-06
-5.8863e-07
-3.08207e-07
-1.5784e-07
-7.93979e-08
-3.55875e-08
-1.04119e-08
-2.92695e-09
-2.79867e-09
-2.46407e-09
-1.28077e-09
-4.38952e-10
-1.12466e-10
-2.34001e-11
-4.14029e-12
-6.13226e-13
-7.55218e-14
-5.47985e-15
5.47761e-16
1.6865e-16
4.7255e-17
1.31557e-17
3.76568e-18
1.10835e-18
3.31955e-19
9.97531e-20
2.98235e-20
8.83461e-21
2.57856e-21
7.43199e-22
2.11545e-22
5.94606e-23
1.65329e-23
4.55727e-24
1.23909e-24
3.33659e-25
8.8959e-26
2.34442e-26
6.07578e-27
1.53169e-27
3.67105e-28
7.91531e-29
1.30833e-29
6.88334e-31
1.75909e-15
2.57454e-14
1.13936e-13
3.73188e-13
1.06811e-12
2.8439e-12
7.26384e-12
1.80981e-11
4.44421e-11
1.08328e-10
2.63681e-10
6.45028e-10
1.59207e-09
3.97002e-09
9.93299e-09
2.44796e-08
5.8425e-08
1.3167e-07
2.66804e-07
4.92126e-07
7.70196e-07
1.05175e-06
1.38172e-06
2.33005e-06
5.57699e-06
1.41175e-05
3.2121e-05
6.47514e-05
0.000115968
0.000191191
0.000292846
0.000422935
0.000574563
0.000727331
0.000823259
0.000762996
0.000459126
-3.28855e-05
-0.000460416
-0.000614022
-0.000554417
-0.000421027
-0.000299534
-0.000203397
-0.000133101
-8.49578e-05
-5.3385e-05
-3.31835e-05
-2.09209e-05
-1.484e-05
-1.41561e-05
-1.6612e-05
-1.15018e-05
-6.45686e-06
-3.61015e-06
-1.99972e-06
-1.08733e-06
-5.81497e-07
-3.03929e-07
-1.55555e-07
-7.77484e-08
-3.41379e-08
-9.53597e-09
-2.79092e-09
-2.88812e-09
-2.46074e-09
-1.237e-09
-4.12564e-10
-1.0374e-10
-2.1138e-11
-3.67834e-12
-5.40325e-13
-6.54883e-14
-4.29052e-15
5.92854e-16
1.7411e-16
4.80313e-17
1.33449e-17
3.83293e-18
1.13409e-18
3.41767e-19
1.03364e-19
3.11331e-20
9.27583e-21
2.73445e-21
7.93993e-22
2.27194e-22
6.40064e-23
1.77782e-23
4.86885e-24
1.3249e-24
3.56028e-25
9.46166e-26
2.48324e-26
6.40818e-27
1.60863e-27
3.83478e-28
8.23861e-29
1.37062e-29
7.27907e-31
1.73343e-15
2.53713e-14
1.12289e-13
3.67822e-13
1.05286e-12
2.804e-12
7.15816e-12
1.78122e-11
4.36501e-11
1.06076e-10
2.5709e-10
6.25101e-10
1.53599e-09
3.81534e-09
9.51441e-09
2.34014e-08
5.58998e-08
1.25742e-07
2.55117e-07
4.73245e-07
7.47418e-07
1.02803e-06
1.3479e-06
2.24409e-06
5.3042e-06
1.35028e-05
3.09732e-05
6.29919e-05
0.00011353
0.000188326
0.000289854
0.000420518
0.000573636
0.000730606
0.000832951
0.000780658
0.00048116
-1.69023e-05
-0.000455223
-0.000618141
-0.000561596
-0.000427278
-0.000304032
-0.000206367
-0.000134944
-8.60294e-05
-5.40046e-05
-3.35256e-05
-2.11497e-05
-1.50959e-05
-1.45599e-05
-1.6931e-05
-1.13026e-05
-6.34699e-06
-3.54795e-06
-1.96486e-06
-1.06388e-06
-5.67993e-07
-2.96448e-07
-1.51878e-07
-7.5125e-08
-3.20297e-08
-8.44469e-09
-2.69306e-09
-3.00954e-09
-2.43972e-09
-1.17382e-09
-3.75618e-10
-9.32443e-11
-1.85434e-11
-3.17726e-12
-4.62084e-13
-5.49975e-14
-3.13867e-15
6.28631e-16
1.76317e-16
4.79739e-17
1.33249e-17
3.84434e-18
1.14365e-18
3.47056e-19
1.05653e-19
3.19963e-20
9.58386e-21
2.83115e-21
8.23877e-22
2.36411e-22
6.68162e-23
1.86225e-23
5.12183e-24
1.39133e-24
3.74094e-25
9.94348e-26
2.60818e-26
6.72064e-27
1.68477e-27
4.01394e-28
8.60015e-29
1.42392e-29
7.58981e-31
1.70068e-15
2.48887e-14
1.1012e-13
3.60524e-13
1.03112e-12
2.74262e-12
6.99207e-12
1.73723e-11
4.2497e-11
1.03071e-10
2.49312e-10
6.05243e-10
1.48316e-09
3.67286e-09
9.13361e-09
2.24216e-08
5.35223e-08
1.20873e-07
2.46088e-07
4.57597e-07
7.28087e-07
1.01039e-06
1.32815e-06
2.17175e-06
5.06662e-06
1.2935e-05
2.98732e-05
6.13082e-05
0.000111199
0.00018569
0.000287276
0.000418308
0.000573268
0.000733983
0.000842973
0.000799216
0.000504697
8.08134e-07
-0.000449478
-0.000623206
-0.000569494
-0.000433983
-0.000308991
-0.000209647
-0.000136955
-8.71857e-05
-5.46504e-05
-3.38797e-05
-2.14062e-05
-1.541e-05
-1.5092e-05
-1.72781e-05
-1.11187e-05
-6.23739e-06
-3.48204e-06
-1.92488e-06
-1.04045e-06
-5.53958e-07
-2.88288e-07
-1.47336e-07
-7.25026e-08
-2.9629e-08
-7.28897e-09
-2.67129e-09
-3.14533e-09
-2.40561e-09
-1.09722e-09
-3.4523e-10
-8.22014e-11
-1.59508e-11
-2.69605e-12
-3.89033e-13
-4.49457e-14
-2.03068e-15
5.9014e-16
1.65405e-16
4.52972e-17
1.27281e-17
3.7231e-18
1.12376e-18
3.44425e-19
1.05597e-19
3.21771e-20
9.68897e-21
2.87465e-21
8.39543e-22
2.41605e-22
6.84064e-23
1.90923e-23
5.25802e-24
1.43085e-24
3.8466e-25
1.02199e-25
2.67994e-26
6.90291e-27
1.72925e-27
4.12258e-28
8.82542e-29
1.46034e-29
7.90318e-31
1.67038e-15
2.44459e-14
1.08159e-13
3.54075e-13
1.01248e-12
2.69214e-12
6.8599e-12
1.70314e-11
4.16202e-11
1.00803e-10
2.43377e-10
5.89526e-10
1.44112e-09
3.56017e-09
8.83496e-09
2.1659e-08
5.16775e-08
1.16795e-07
2.38251e-07
4.45244e-07
7.12872e-07
9.93973e-07
1.30366e-06
2.09444e-06
4.82942e-06
1.23758e-05
2.88748e-05
5.97967e-05
0.00010923
0.000183422
0.000285295
0.000417472
0.00057353
0.00073776
0.000852821
0.000816764
0.000526336
1.7984e-05
-0.000445282
-0.000628362
-0.000577042
-0.000440315
-0.000313626
-0.000212717
-0.000138834
-8.82436e-05
-5.53227e-05
-3.4244e-05
-2.16667e-05
-1.5741e-05
-1.56326e-05
-1.75561e-05
-1.08759e-05
-6.10112e-06
-3.40374e-06
-1.87876e-06
-1.01415e-06
-5.38465e-07
-2.79507e-07
-1.42644e-07
-6.98188e-08
-2.73653e-08
-6.37493e-09
-2.72419e-09
-3.26361e-09
-2.35788e-09
-1.02266e-09
-3.11798e-10
-7.26736e-11
-1.37642e-11
-2.30216e-12
-3.26426e-13
-3.65829e-14
-1.13091e-15
5.85801e-16
1.61098e-16
4.39074e-17
1.23639e-17
3.63095e-18
1.09997e-18
3.39076e-19
1.04643e-19
3.20489e-20
9.69006e-21
2.88428e-21
8.44909e-22
2.43844e-22
6.91891e-23
1.93438e-23
5.33432e-24
1.4532e-24
3.90894e-25
1.03875e-25
2.72351e-26
7.01479e-27
1.75756e-27
4.1814e-28
8.94538e-29
1.48126e-29
7.86711e-31
1.6423e-15
2.40352e-14
1.0634e-13
3.48095e-13
9.95221e-13
2.64555e-12
6.7384e-12
1.67198e-11
4.08248e-11
9.87639e-11
2.38103e-10
5.75749e-10
1.40491e-09
3.4651e-09
8.58884e-09
2.10473e-08
5.02439e-08
1.13747e-07
2.32654e-07
4.35995e-07
7.00999e-07
9.79699e-07
1.28098e-06
2.02909e-06
4.63647e-06
1.19493e-05
2.80725e-05
5.85694e-05
0.000107588
0.000181698
0.000283827
0.000416536
0.000574815
0.000741766
0.000862125
0.00083274
0.00054567
3.1989e-05
-0.000442224
-0.000633332
-0.000583951
-0.000446255
-0.000317913
-0.000215503
-0.000140511
-8.91957e-05
-5.58116e-05
-3.45035e-05
-2.18763e-05
-1.60582e-05
-1.61738e-05
-1.77629e-05
-1.06888e-05
-5.99097e-06
-3.33805e-06
-1.83768e-06
-9.91255e-07
-5.24859e-07
-2.71457e-07
-1.38082e-07
-6.72084e-08
-2.51826e-08
-5.6302e-09
-2.80861e-09
-3.34851e-09
-2.29977e-09
-9.61156e-10
-2.7789e-10
-6.37811e-11
-1.18876e-11
-1.96163e-12
-2.73612e-13
-2.96853e-14
-4.00787e-16
5.78622e-16
1.5606e-16
4.23248e-17
1.19402e-17
3.52054e-18
1.07114e-18
3.30883e-19
1.02422e-19
3.14806e-20
9.55622e-21
2.85704e-21
8.39715e-22
2.43033e-22
6.91017e-23
1.93515e-23
5.34356e-24
1.45743e-24
3.92313e-25
1.04306e-25
2.73565e-26
7.04724e-27
1.76553e-27
4.20659e-28
9.00337e-29
1.48908e-29
7.94273e-31
1.61715e-15
2.36676e-14
1.04714e-13
3.42759e-13
9.79862e-13
2.60423e-12
6.63118e-12
1.64465e-11
4.01314e-11
9.6998e-11
2.33561e-10
5.6395e-10
1.37405e-09
3.38442e-09
8.38056e-09
2.05299e-08
4.90273e-08
1.11134e-07
2.27766e-07
4.27861e-07
6.9149e-07
9.70817e-07
1.26762e-06
1.98618e-06
4.50135e-06
1.16242e-05
2.74643e-05
5.76602e-05
0.000106407
0.000180485
0.000282915
0.000416374
0.000576924
0.000745937
0.000870675
0.00084647
0.000561405
4.56749e-05
-0.000440555
-0.000637994
-0.000590072
-0.000451276
-0.000321511
-0.000217838
-0.000141912
-8.99791e-05
-5.62651e-05
-3.47761e-05
-2.20516e-05
-1.63664e-05
-1.66891e-05
-1.78585e-05
-1.04702e-05
-5.86859e-06
-3.27256e-06
-1.78607e-06
-9.63778e-07
-5.09525e-07
-2.63049e-07
-1.33381e-07
-6.51598e-08
-2.34858e-08
-5.09507e-09
-2.9395e-09
-3.4203e-09
-2.24249e-09
-9.01281e-10
-2.54381e-10
-5.78031e-11
-1.05911e-11
-1.73472e-12
-2.3877e-13
-2.5151e-14
8.22292e-17
5.65066e-16
1.50808e-16
4.08333e-17
1.15472e-17
3.41643e-18
1.04305e-18
3.23101e-19
1.00247e-19
3.08724e-20
9.38625e-21
2.80942e-21
8.26918e-22
2.39717e-22
6.82617e-23
1.91444e-23
5.29356e-24
1.44577e-24
3.89611e-25
1.03702e-25
2.7218e-26
7.01479e-27
1.75748e-27
4.19011e-28
8.98524e-29
1.48035e-29
7.87878e-31
1.59493e-15
2.33428e-14
1.03277e-13
3.38045e-13
9.6631e-13
2.56785e-12
6.53706e-12
1.62075e-11
3.95284e-11
9.54713e-11
2.29659e-10
5.53875e-10
1.34787e-09
3.31636e-09
8.20583e-09
2.00982e-08
4.80183e-08
1.08989e-07
2.23837e-07
4.21482e-07
6.84916e-07
9.66474e-07
1.26404e-06
1.96151e-06
4.40187e-06
1.1369e-05
2.69851e-05
5.69508e-05
0.000105562
0.000179709
0.000282399
0.000416559
0.00057813
0.000749992
0.000878414
0.000858518
0.000574241
5.2291e-05
-0.000440248
-0.000642735
-0.000595379
-0.00045535
-0.000324273
-0.000219552
-0.0001429
-9.05154e-05
-5.65473e-05
-3.49382e-05
-2.22121e-05
-1.66458e-05
-1.71453e-05
-1.78734e-05
-1.02897e-05
-5.76285e-06
-3.20648e-06
-1.7546e-06
-9.45824e-07
-4.98897e-07
-2.56991e-07
-1.30118e-07
-6.30203e-08
-2.1795e-08
-4.67741e-09
-3.07108e-09
-3.46873e-09
-2.17949e-09
-8.47957e-10
-2.32908e-10
-5.22973e-11
-9.45776e-12
-1.54061e-12
-2.09838e-13
-2.14017e-14
4.85926e-16
5.51089e-16
1.45692e-16
3.93891e-17
1.11611e-17
3.31159e-18
1.01385e-18
3.14735e-19
9.78292e-20
3.01758e-20
9.1877e-21
2.75373e-21
8.11729e-22
2.35246e-22
6.70739e-23
1.88323e-23
5.21239e-24
1.42498e-24
3.84272e-25
1.02326e-25
2.68697e-26
6.92843e-27
1.73719e-27
4.13812e-28
8.87468e-29
1.46664e-29
7.90609e-31
1.57574e-15
2.30625e-14
1.02038e-13
3.33985e-13
9.54662e-13
2.53666e-12
6.45664e-12
1.60042e-11
3.90178e-11
9.41848e-11
2.26387e-10
5.45468e-10
1.32613e-09
3.2602e-09
8.06281e-09
1.97488e-08
4.7216e-08
1.07327e-07
2.20913e-07
4.16668e-07
6.79917e-07
9.63147e-07
1.26028e-06
1.94126e-06
4.32498e-06
1.11819e-05
2.66385e-05
5.6449e-05
0.00010507
0.000179173
0.00028222
0.000417163
0.000580157
0.000754066
0.000885641
0.000868865
0.000584747
5.74018e-05
-0.000440369
-0.000646658
-0.000599807
-0.000458835
-0.000326693
-0.000221066
-0.000143774
-9.09761e-05
-5.67703e-05
-3.50448e-05
-2.23494e-05
-1.68962e-05
-1.75721e-05
-1.78716e-05
-1.01714e-05
-5.69322e-06
-3.17007e-06
-1.71789e-06
-9.25205e-07
-4.87393e-07
-2.50708e-07
-1.2684e-07
-6.09158e-08
-2.03936e-08
-4.38464e-09
-3.1959e-09
-3.49935e-09
-2.11299e-09
-7.98127e-10
-2.14907e-10
-4.7465e-11
-8.44381e-12
-1.36221e-12
-1.82835e-13
-1.7912e-14
8.60424e-16
5.39106e-16
1.41183e-16
3.80953e-17
1.08099e-17
3.21455e-18
9.86206e-19
3.06657e-19
9.54452e-20
2.94735e-20
8.9828e-21
2.69476e-21
7.95201e-22
2.30628e-22
6.58039e-23
1.84878e-23
5.12001e-24
1.4007e-24
3.77889e-25
1.00661e-25
2.64476e-26
6.82149e-27
1.71143e-27
4.07312e-28
8.75179e-29
1.44921e-29
7.71862e-31
1.55947e-15
2.28249e-14
1.00989e-13
3.3055e-13
9.44821e-13
2.51036e-12
6.38904e-12
1.58339e-11
3.85918e-11
9.31157e-11
2.23676e-10
5.38519e-10
1.30816e-09
3.21365e-09
7.94344e-09
1.94543e-08
4.65272e-08
1.05869e-07
2.18253e-07
4.12489e-07
6.76346e-07
9.62976e-07
1.26379e-06
1.93434e-06
4.2753e-06
1.1046e-05
2.63855e-05
5.60942e-05
0.000104508
0.000178841
0.00028232
0.000417996
0.000580096
0.000758018
0.000892051
0.000877679
0.000593455
5.7953e-05
-0.000440893
-0.000650205
-0.000603452
-0.000461596
-0.000328583
-0.000222232
-0.000144423
-9.13188e-05
-5.69561e-05
-3.51643e-05
-2.25192e-05
-1.71474e-05
-1.79084e-05
-1.77032e-05
-1.0002e-05
-5.60264e-06
-3.12056e-06
-1.69152e-06
-9.10585e-07
-4.79295e-07
-2.46326e-07
-1.24571e-07
-5.92743e-08
-1.91936e-08
-4.16896e-09
-3.31563e-09
-3.50131e-09
-2.03968e-09
-7.55018e-10
-1.99897e-10
-4.3567e-11
-7.68675e-12
-1.23298e-12
-1.63554e-13
-1.54365e-14
1.12155e-15
5.26221e-16
1.3698e-16
3.69276e-17
1.04928e-17
3.12565e-18
9.60493e-19
2.99026e-19
9.31596e-20
2.87907e-20
8.78085e-21
2.63588e-21
7.78469e-22
2.25907e-22
6.44925e-23
1.81289e-23
5.02315e-24
1.37475e-24
3.71005e-25
9.88644e-26
2.59842e-26
6.70265e-27
1.6816e-27
4.00728e-28
8.58259e-29
1.42353e-29
7.72878e-31
1.54592e-15
2.26271e-14
1.00115e-13
3.27695e-13
9.36657e-13
2.4886e-12
6.33326e-12
1.56939e-11
3.82435e-11
9.22481e-11
2.21498e-10
5.32995e-10
1.29404e-09
3.17753e-09
7.8506e-09
1.92306e-08
4.60235e-08
1.04841e-07
2.16398e-07
4.09493e-07
6.73714e-07
9.62758e-07
1.26576e-06
1.92914e-06
4.23902e-06
1.09463e-05
2.62006e-05
5.58406e-05
0.000104251
0.000178741
0.000282572
0.000418929
0.000584526
0.000761537
0.000897411
0.000884599
0.000599571
6.07756e-05
-0.000442126
-0.000653244
-0.000606335
-0.000463747
-0.000330073
-0.000223062
-0.000144844
-9.15147e-05
-5.70504e-05
-3.5231e-05
-2.26526e-05
-1.73766e-05
-1.82234e-05
-1.75562e-05
-9.87004e-06
-5.52303e-06
-3.06899e-06
-1.67142e-06
-8.97938e-07
-4.71741e-07
-2.42045e-07
-1.22303e-07
-5.77191e-08
-1.82177e-08
-4.03128e-09
-3.43185e-09
-3.51652e-09
-1.98922e-09
-7.21584e-10
-1.88534e-10
-4.05776e-11
-7.1185e-12
-1.13689e-12
-1.49283e-13
-1.36058e-14
1.31172e-15
5.13769e-16
1.33196e-16
3.58941e-17
1.02122e-17
3.0457e-18
9.3716e-19
2.92035e-19
9.10453e-20
2.81531e-20
8.59059e-21
2.57994e-21
7.6236e-22
2.21328e-22
6.32125e-23
1.77767e-23
4.92801e-24
1.34822e-24
3.64031e-25
9.70472e-26
2.55074e-26
6.58463e-27
1.65227e-27
3.93686e-28
8.45966e-29
1.39551e-29
7.45045e-31
1.53479e-15
2.24647e-14
9.93988e-14
3.25356e-13
9.2998e-13
2.47084e-12
6.2879e-12
1.55805e-11
3.79625e-11
9.15516e-11
2.19758e-10
5.28599e-10
1.28285e-09
3.14898e-09
7.77706e-09
1.90548e-08
4.56189e-08
1.03977e-07
2.14861e-07
4.07194e-07
6.72053e-07
9.63723e-07
1.2689e-06
1.92646e-06
4.21196e-06
1.08715e-05
2.60646e-05
5.5667e-05
0.0001041
0.000178727
0.000282904
0.000419825
0.000586192
0.000764542
0.000901877
0.000890116
0.000604088
6.24101e-05
-0.00044357
-0.000655733
-0.000608503
-0.000465403
-0.000331594
-0.000223129
-0.000144825
-9.14618e-05
-5.69929e-05
-3.5189e-05
-2.26696e-05
-1.75209e-05
-1.851e-05
-1.74881e-05
-9.8084e-06
-5.48465e-06
-3.0467e-06
-1.65424e-06
-8.87977e-07
-4.66003e-07
-2.38854e-07
-1.20598e-07
-5.63875e-08
-1.72797e-08
-3.85306e-09
-3.51262e-09
-3.52201e-09
-1.94871e-09
-6.91018e-10
-1.79755e-10
-3.82804e-11
-6.7045e-12
-1.06667e-12
-1.39132e-13
-1.23101e-14
1.4431e-15
5.01345e-16
1.29722e-16
3.497e-17
9.96225e-18
2.97484e-18
9.16321e-19
2.85744e-19
8.91291e-20
2.75713e-20
8.41589e-21
2.52827e-21
7.47363e-22
2.17042e-22
6.20084e-23
1.74437e-23
4.83752e-24
1.32339e-24
3.57414e-25
9.53094e-26
2.50595e-26
6.47078e-27
1.62328e-27
3.86797e-28
8.30246e-29
1.37485e-29
7.34272e-31
1.52576e-15
2.23329e-14
9.88175e-14
3.2346e-13
9.24573e-13
2.45649e-12
6.25131e-12
1.54893e-11
3.77374e-11
9.09954e-11
2.18374e-10
5.25126e-10
1.27409e-09
3.12695e-09
7.72133e-09
1.89209e-08
4.53078e-08
1.03341e-07
2.1377e-07
4.05514e-07
6.70899e-07
9.64376e-07
1.27129e-06
1.92461e-06
4.19113e-06
1.08138e-05
2.59641e-05
5.55487e-05
0.000104024
0.000178758
0.000283298
0.000420752
0.000587081
0.000767278
0.000905771
0.00089472
0.000607569
6.3213e-05
-0.000445251
-0.00065807
-0.000610381
-0.000466735
-0.000332468
-0.000223583
-0.000145038
-9.15675e-05
-5.70623e-05
-3.52713e-05
-2.27971e-05
-1.77084e-05
-1.87119e-05
-1.7248e-05
-9.67019e-06
-5.41113e-06
-3.0086e-06
-1.6275e-06
-8.74001e-07
-4.5869e-07
-2.35108e-07
-1.18755e-07
-5.51688e-08
-1.65923e-08
-3.77025e-09
-3.59298e-09
-3.52617e-09
-1.91555e-09
-6.6974e-10
-1.7284e-10
-3.64744e-11
-6.38048e-12
-1.01044e-12
-1.30718e-13
-1.1243e-14
1.54869e-15
4.90234e-16
1.26687e-16
3.41653e-17
9.74383e-18
2.91277e-18
8.97971e-19
2.80176e-19
8.74254e-20
2.70518e-20
8.25916e-21
2.48173e-21
7.33796e-22
2.1315e-22
6.09103e-23
1.7139e-23
4.7543e-24
1.30089e-24
3.51433e-25
9.37356e-26
2.46505e-26
6.36639e-27
1.59711e-27
3.8078e-28
8.16691e-29
1.3524e-29
7.29568e-31
1.5185e-15
2.22269e-14
9.83503e-14
3.21935e-13
9.20225e-13
2.44495e-12
6.22185e-12
1.54157e-11
3.75552e-11
9.05432e-11
2.17241e-10
5.22256e-10
1.26676e-09
3.10824e-09
7.67305e-09
1.88024e-08
4.5046e-08
1.02829e-07
2.12947e-07
4.04323e-07
6.70322e-07
9.65595e-07
1.27454e-06
1.92572e-06
4.17946e-06
1.0777e-05
2.59001e-05
5.54806e-05
0.000104006
0.000178889
0.000283761
0.000422049
0.000589822
0.000769743
0.000909104
0.000898505
0.000610145
6.34812e-05
-0.000446903
-0.000660023
-0.0006118
-0.000467654
-0.000333002
-0.00022386
-0.000145153
-9.16038e-05
-5.70636e-05
-3.52734e-05
-2.28405e-05
-1.7834e-05
-1.89109e-05
-1.71239e-05
-9.59278e-06
-5.36559e-06
-2.98192e-06
-1.61175e-06
-8.64519e-07
-4.53273e-07
-2.32161e-07
-1.17217e-07
-5.41456e-08
-1.60647e-08
-3.74011e-09
-3.67136e-09
-3.52988e-09
-1.88777e-09
-6.56328e-10
-1.67285e-10
-3.50623e-11
-6.12632e-12
-9.67218e-13
-1.24365e-13
-1.04431e-14
1.6251e-15
4.80179e-16
1.24029e-16
3.34692e-17
9.5555e-18
2.8592e-18
8.82092e-19
2.75344e-19
8.59418e-20
2.65978e-20
8.12178e-21
2.4408e-21
7.21825e-22
2.09706e-22
5.99365e-23
1.6868e-23
4.68019e-24
1.28086e-24
3.4608e-25
9.23219e-26
2.42842e-26
6.27288e-27
1.57408e-27
3.75434e-28
8.04484e-29
1.33444e-29
7.10662e-31
1.51277e-15
2.21433e-14
9.79816e-14
3.20733e-13
9.16797e-13
2.43585e-12
6.19867e-12
1.53579e-11
3.74121e-11
9.0188e-11
2.1635e-10
5.19997e-10
1.261e-09
3.09355e-09
7.63524e-09
1.87158e-08
4.48579e-08
1.02456e-07
2.12325e-07
4.03415e-07
6.69998e-07
9.67049e-07
1.2782e-06
1.92826e-06
4.17306e-06
1.07538e-05
2.58604e-05
5.54468e-05
0.000104023
0.000179032
0.00028414
0.000422792
0.000589988
0.000771729
0.000911784
0.000901437
0.000611959
6.34432e-05
-0.000448356
-0.000661574
-0.000612869
-0.000468335
-0.000333379
-0.000224037
-0.00014522
-9.16205e-05
-5.7064e-05
-3.52813e-05
-2.28837e-05
-1.79431e-05
-1.90691e-05
-1.70202e-05
-9.53067e-06
-5.32872e-06
-2.96054e-06
-1.60004e-06
-8.57609e-07
-4.49289e-07
-2.29964e-07
-1.16048e-07
-5.32719e-08
-1.55505e-08
-3.6776e-09
-3.72125e-09
-3.52584e-09
-1.86313e-09
-6.4229e-10
-1.62817e-10
-3.39433e-11
-5.92487e-12
-9.33249e-13
-1.19395e-13
-9.82031e-15
1.68306e-15
4.71552e-16
1.21777e-16
3.28815e-17
9.39636e-18
2.81383e-18
8.68607e-19
2.7123e-19
8.46755e-20
2.62094e-20
8.004e-21
2.40563e-21
7.11517e-22
2.06735e-22
5.90949e-23
1.66334e-23
4.61589e-24
1.26347e-24
3.41431e-25
9.10979e-26
2.39626e-26
6.19058e-27
1.55392e-27
3.70623e-28
7.95674e-29
1.31538e-29
6.87345e-31
1.50836e-15
2.20789e-14
9.76981e-14
3.19809e-13
9.14167e-13
2.42889e-12
6.18095e-12
1.53138e-11
3.73032e-11
8.99183e-11
2.15675e-10
5.18296e-10
1.2567e-09
3.08275e-09
7.60765e-09
1.86509e-08
4.47115e-08
1.02167e-07
2.11863e-07
4.02815e-07
6.69985e-07
9.68464e-07
1.28127e-06
1.93075e-06
4.16931e-06
1.07382e-05
2.58343e-05
5.54287e-05
0.000104051
0.000179167
0.000284472
0.000422891
0.000591869
0.000773428
0.000914062
0.000903884
0.000613341
6.31625e-05
-0.000449791
-0.000662941
-0.000613772
-0.000468864
-0.000333645
-0.00022414
-0.000145237
-9.15991e-05
-5.70281e-05
-3.52486e-05
-2.28826e-05
-1.80163e-05
-1.92143e-05
-1.70139e-05
-9.51931e-06
-5.31821e-06
-2.95191e-06
-1.59441e-06
-8.53823e-07
-4.46913e-07
-2.28567e-07
-1.15263e-07
-5.25976e-08
-1.51073e-08
-3.60124e-09
-3.7517e-09
-3.51853e-09
-1.84201e-09
-6.30415e-10
-1.59146e-10
-3.30177e-11
-5.75989e-12
-9.05418e-13
-1.15344e-13
-9.31612e-15
1.72897e-15
4.64472e-16
1.19937e-16
3.24006e-17
9.26568e-18
2.77641e-18
8.57444e-19
2.67814e-19
8.36215e-20
2.58855e-20
7.90561e-21
2.37621e-21
7.02883e-22
2.04243e-22
5.83882e-23
1.64363e-23
4.56179e-24
1.2488e-24
3.37506e-25
9.00547e-26
2.36927e-26
6.11926e-27
1.53681e-27
3.66552e-28
7.87557e-29
1.30261e-29
6.97066e-31
1.50508e-15
2.20312e-14
9.74878e-14
3.19124e-13
9.12222e-13
2.42374e-12
6.16792e-12
1.52815e-11
3.72243e-11
8.97246e-11
2.15195e-10
5.17089e-10
1.25364e-09
3.07491e-09
7.58702e-09
1.8601e-08
4.46001e-08
1.01952e-07
2.11528e-07
4.02374e-07
6.70039e-07
9.6981e-07
1.28418e-06
1.93336e-06
4.16732e-06
1.07279e-05
2.58184e-05
5.54246e-05
0.000104092
0.000179304
0.000284788
0.000423468
0.000592791
0.000774828
0.000915866
0.000905718
0.000614255
6.27784e-05
-0.000451017
-0.000664043
-0.000614469
-0.000469275
-0.000333859
-0.000224239
-0.000145281
-9.16193e-05
-5.70432e-05
-3.52721e-05
-2.29293e-05
-1.80928e-05
-1.92943e-05
-1.68925e-05
-9.46184e-06
-5.28974e-06
-2.93624e-06
-1.58861e-06
-8.50633e-07
-4.45123e-07
-2.27589e-07
-1.14737e-07
-5.21236e-08
-1.47817e-08
-3.541e-09
-3.7753e-09
-3.5125e-09
-1.82505e-09
-6.1793e-10
-1.56297e-10
-3.23132e-11
-5.63547e-12
-8.84282e-13
-1.1227e-13
-8.93513e-15
1.76298e-15
4.58936e-16
1.18492e-16
3.20215e-17
9.16215e-18
2.74663e-18
8.48524e-19
2.65076e-19
8.27751e-20
2.5625e-20
7.82641e-21
2.35251e-21
6.95922e-22
2.02233e-22
5.78181e-23
1.62771e-23
4.51814e-24
1.23698e-24
3.3435e-25
8.92211e-26
2.34808e-26
6.06431e-27
1.52262e-27
3.62943e-28
7.80584e-29
1.28754e-29
6.97336e-31
1.50279e-15
2.19978e-14
9.73412e-14
3.18648e-13
9.10875e-13
2.4202e-12
6.159e-12
1.52595e-11
3.71701e-11
8.95895e-11
2.14852e-10
5.16207e-10
1.25135e-09
3.06905e-09
7.57205e-09
1.85668e-08
4.4526e-08
1.0181e-07
2.1131e-07
4.02099e-07
6.70128e-07
9.70807e-07
1.28628e-06
1.93541e-06
4.16648e-06
1.07219e-05
2.58097e-05
5.54262e-05
0.000104128
0.000179415
0.000285035
0.000423929
0.000592669
0.000775882
0.000917169
0.000907005
0.000614833
6.24118e-05
-0.000451956
-0.000664865
-0.000614969
-0.00046957
-0.000334016
-0.00022431
-0.000145303
-9.16167e-05
-5.7029e-05
-3.52617e-05
-2.29436e-05
-1.81521e-05
-1.93771e-05
-1.68797e-05
-9.44904e-06
-5.28031e-06
-2.9306e-06
-1.58279e-06
-8.4779e-07
-4.43698e-07
-2.26875e-07
-1.14381e-07
-5.18063e-08
-1.45574e-08
-3.50112e-09
-3.7959e-09
-3.50967e-09
-1.81302e-09
-6.16924e-10
-1.54249e-10
-3.1807e-11
-5.54589e-12
-8.69198e-13
-1.1008e-13
-8.66399e-15
1.77933e-15
4.54699e-16
1.17409e-16
3.17409e-17
9.08646e-18
2.72503e-18
8.42075e-19
2.63097e-19
8.21623e-20
2.5436e-20
7.76876e-21
2.3352e-21
6.90819e-22
2.00753e-22
5.73961e-23
1.6159e-23
4.4855e-24
1.22809e-24
3.31967e-25
8.85869e-26
2.33139e-26
6.02324e-27
1.51296e-27
3.60826e-28
7.72673e-29
1.28358e-29
6.8087e-31
1.50134e-15
2.19766e-14
9.72479e-14
3.18345e-13
9.10009e-13
2.4179e-12
6.15311e-12
1.52447e-11
3.71331e-11
8.94973e-11
2.14621e-10
5.15624e-10
1.24989e-09
3.06541e-09
7.56271e-09
1.85451e-08
4.44796e-08
1.01723e-07
2.11183e-07
4.01944e-07
6.70214e-07
9.71471e-07
1.28766e-06
1.93679e-06
4.16611e-06
1.07184e-05
2.5805e-05
5.54286e-05
0.000104313
0.000179493
0.000285205
0.000424237
0.000593055
0.000776566
0.000918003
0.000907809
0.000615163
6.21364e-05
-0.000452583
-0.000665451
-0.000615308
-0.000469779
-0.000334136
-0.000224375
-0.000145332
-9.16224e-05
-5.70233e-05
-3.52541e-05
-2.29489e-05
-1.81814e-05
-1.94199e-05
-1.68371e-05
-9.42782e-06
-5.26911e-06
-2.92458e-06
-1.58014e-06
-8.4584e-07
-4.42472e-07
-2.26178e-07
-1.14019e-07
-5.15727e-08
-1.44541e-08
-3.507e-09
-3.81795e-09
-3.5089e-09
-1.80516e-09
-6.12533e-10
-1.52905e-10
-3.14753e-11
-5.48765e-12
-8.59371e-13
-1.08654e-13
-8.48729e-15
1.76982e-15
4.51817e-16
1.16672e-16
3.15511e-17
9.03491e-18
2.71025e-18
8.37668e-19
2.61752e-19
8.17487e-20
2.53093e-20
7.73038e-21
2.32375e-21
6.87462e-22
1.99785e-22
5.71216e-23
1.60823e-23
4.46441e-24
1.22236e-24
3.30431e-25
8.81786e-26
2.32042e-26
5.99496e-27
1.5048e-27
3.59045e-28
7.69542e-29
1.27431e-29
6.74447e-31
1.50062e-15
2.19661e-14
9.72013e-14
3.18193e-13
9.09577e-13
2.41676e-12
6.15021e-12
1.52376e-11
3.71157e-11
8.94544e-11
2.14514e-10
5.15355e-10
1.24921e-09
3.0637e-09
7.55832e-09
1.8535e-08
4.44578e-08
1.01683e-07
2.11124e-07
4.01874e-07
6.70267e-07
9.71814e-07
1.28836e-06
1.93748e-06
4.16591e-06
1.07167e-05
2.58027e-05
5.54298e-05
0.000104312
0.000179538
0.000285307
0.000424433
0.000594573
0.000776959
0.000918434
0.000908205
0.000615317
6.19922e-05
-0.000452896
-0.000665723
-0.000615488
-0.000469905
-0.000334222
-0.000224434
-0.000145374
-9.16532e-05
-5.70483e-05
-3.52778e-05
-2.29723e-05
-1.81931e-05
-1.94076e-05
-1.67354e-05
-9.37791e-06
-5.24245e-06
-2.90534e-06
-1.58462e-06
-8.47791e-07
-4.43233e-07
-2.26441e-07
-1.14081e-07
-5.14673e-08
-1.43107e-08
-3.45806e-09
-3.81456e-09
-3.5046e-09
-1.8002e-09
-6.10118e-10
-1.52199e-10
-3.1304e-11
-5.45756e-12
-8.54349e-13
-1.07931e-13
-8.39823e-15
1.76536e-15
4.50369e-16
1.16284e-16
3.14467e-17
9.00609e-18
2.70192e-18
8.35175e-19
2.60989e-19
8.15141e-20
2.52375e-20
7.7087e-21
2.3173e-21
6.85581e-22
1.99245e-22
5.69694e-23
1.60401e-23
4.45287e-24
1.21927e-24
3.29609e-25
8.79657e-26
2.31513e-26
5.97941e-27
1.50088e-27
3.5777e-28
7.67431e-29
1.278e-29
6.72962e-31
1.5006e-15
2.19658e-14
9.72003e-14
3.1819e-13
9.09568e-13
2.41674e-12
6.15017e-12
1.52375e-11
3.71156e-11
8.94545e-11
2.14514e-10
5.15357e-10
1.24922e-09
3.06373e-09
7.55839e-09
1.85352e-08
4.44584e-08
1.01684e-07
2.11127e-07
4.0188e-07
6.7028e-07
9.71835e-07
1.28839e-06
1.93751e-06
4.16597e-06
1.07168e-05
2.5803e-05
5.54304e-05
0.000104267
0.000179536
0.000285296
0.000424387
0.000594283
0.000776884
0.000918395
0.000908181
0.000615308
6.19999e-05
-0.000452873
-0.000665657
-0.000615469
-0.000469898
-0.000334216
-0.000224427
-0.000145364
-9.16392e-05
-5.70291e-05
-3.52558e-05
-2.29515e-05
-1.81883e-05
-1.94254e-05
-1.68245e-05
-9.41971e-06
-5.26442e-06
-2.9219e-06
-1.57803e-06
-8.44623e-07
-4.41767e-07
-2.25783e-07
-1.13796e-07
-5.13723e-08
-1.43222e-08
-3.47728e-09
-3.81736e-09
-3.50267e-09
-1.79914e-09
-6.09793e-10
-1.52129e-10
-3.12907e-11
-5.45537e-12
-8.54041e-13
-1.07893e-13
-8.3938e-15
1.76549e-15
4.50351e-16
1.16272e-16
3.14424e-17
9.00464e-18
2.70145e-18
8.3502e-19
2.60939e-19
8.14981e-20
2.52326e-20
7.70721e-21
2.31686e-21
6.85456e-22
1.99211e-22
5.696e-23
1.60376e-23
4.45231e-24
1.21912e-24
3.29565e-25
8.79584e-26
2.31469e-26
5.98117e-27
1.50178e-27
3.57759e-28
7.68151e-29
1.27606e-29
6.72086e-31
1.5013e-15
2.1976e-14
9.72449e-14
3.18335e-13
9.0998e-13
2.41783e-12
6.15293e-12
1.52444e-11
3.71325e-11
8.94966e-11
2.1462e-10
5.15627e-10
1.2499e-09
3.06547e-09
7.56288e-09
1.85456e-08
4.44811e-08
1.01727e-07
2.11192e-07
4.01962e-07
6.70251e-07
9.71532e-07
1.28774e-06
1.93687e-06
4.16617e-06
1.07186e-05
2.58054e-05
5.54296e-05
0.000104155
0.00017949
0.000285192
0.000424198
0.000593722
0.00077649
0.000917939
0.000907755
0.000615142
6.21557e-05
-0.000452535
-0.000665418
-0.000615306
-0.000469807
-0.000334167
-0.000224407
-0.000145361
-9.16464e-05
-5.70411e-05
-3.52667e-05
-2.29545e-05
-1.81764e-05
-1.94001e-05
-1.68369e-05
-9.42612e-06
-5.26812e-06
-2.92422e-06
-1.57942e-06
-8.45441e-07
-4.42227e-07
-2.2603e-07
-1.13923e-07
-5.14798e-08
-1.43921e-08
-3.48912e-09
-3.8122e-09
-3.50459e-09
-1.80309e-09
-6.11838e-10
-1.52744e-10
-3.14433e-11
-5.48218e-12
-8.58591e-13
-1.08556e-13
-8.47583e-15
1.7702e-15
4.51749e-16
1.16628e-16
3.15349e-17
9.02976e-18
2.70863e-18
8.37157e-19
2.61591e-19
8.16987e-20
2.52941e-20
7.72585e-21
2.32244e-21
6.87093e-22
1.99684e-22
5.70944e-23
1.60752e-23
4.46262e-24
1.22193e-24
3.30331e-25
8.81629e-26
2.32006e-26
5.99392e-27
1.50495e-27
3.59049e-28
7.68536e-29
1.27712e-29
6.83358e-31
1.50276e-15
2.19973e-14
9.73387e-14
3.1864e-13
9.10848e-13
2.42012e-12
6.15875e-12
1.52588e-11
3.71682e-11
8.95851e-11
2.14843e-10
5.16193e-10
1.25135e-09
3.06914e-09
7.57239e-09
1.85679e-08
4.45292e-08
1.01818e-07
2.11328e-07
4.02132e-07
6.70185e-07
9.70883e-07
1.28636e-06
1.93545e-06
4.16648e-06
1.07219e-05
2.58097e-05
5.54258e-05
0.000104126
0.000179409
0.000285017
0.000423884
0.000593181
0.000775785
0.000917066
0.000906902
0.000614778
6.24303e-05
-0.000451888
-0.000664822
-0.000614975
-0.000469607
-0.000334068
-0.000224362
-0.000145345
-9.16453e-05
-5.70454e-05
-3.52678e-05
-2.29409e-05
-1.81403e-05
-1.9356e-05
-1.68754e-05
-9.44523e-06
-5.2779e-06
-2.92941e-06
-1.58214e-06
-8.4701e-07
-4.43113e-07
-2.26508e-07
-1.14175e-07
-5.17017e-08
-1.4539e-08
-3.51271e-09
-3.7987e-09
-3.50622e-09
-1.81063e-09
-6.1607e-10
-1.54048e-10
-3.17649e-11
-5.53854e-12
-8.68077e-13
-1.09937e-13
-8.64833e-15
1.77985e-15
4.54616e-16
1.17373e-16
3.17297e-17
9.08274e-18
2.72381e-18
8.41687e-19
2.62975e-19
8.21254e-20
2.5425e-20
7.76559e-21
2.33431e-21
6.90576e-22
2.00689e-22
5.73796e-23
1.61548e-23
4.48444e-24
1.22783e-24
3.31904e-25
8.858e-26
2.33119e-26
6.02048e-27
1.51203e-27
3.60644e-28
7.7287e-29
1.28339e-29
6.76178e-31
1.50506e-15
2.20309e-14
9.74867e-14
3.19122e-13
9.12217e-13
2.42374e-12
6.16793e-12
1.52816e-11
3.72244e-11
8.97243e-11
2.15192e-10
5.17078e-10
1.25359e-09
3.07482e-09
7.58705e-09
1.86021e-08
4.46045e-08
1.01962e-07
2.11549e-07
4.02415e-07
6.70107e-07
9.69904e-07
1.28427e-06
1.93342e-06
4.1673e-06
1.07278e-05
2.58181e-05
5.54238e-05
0.000104089
0.000179297
0.000284771
0.000423432
0.000592745
0.000774736
0.000915741
0.000905577
0.000614167
6.27839e-05
-0.000450952
-0.000664009
-0.000614493
-0.000469329
-0.000333927
-0.000224301
-0.000145324
-9.1641e-05
-5.7045e-05
-3.52591e-05
-2.29091e-05
-1.80768e-05
-1.92905e-05
-1.69288e-05
-9.47851e-06
-5.29779e-06
-2.94096e-06
-1.58843e-06
-8.51008e-07
-4.45462e-07
-2.27797e-07
-1.14842e-07
-5.21201e-08
-1.47117e-08
-3.50044e-09
-3.7645e-09
-3.50632e-09
-1.82142e-09
-6.16705e-10
-1.56043e-10
-3.2268e-11
-5.62776e-12
-8.83206e-13
-1.12149e-13
-8.92179e-15
1.76439e-15
4.58853e-16
1.18474e-16
3.20175e-17
9.16119e-18
2.74634e-18
8.48427e-19
2.65042e-19
8.27637e-20
2.56214e-20
7.82529e-21
2.35218e-21
6.95824e-22
2.02205e-22
5.78097e-23
1.62748e-23
4.51745e-24
1.23678e-24
3.34295e-25
8.92104e-26
2.34747e-26