/*--------------------------------*- C++ -*----------------------------------*\
  =========                 |
  \\      /  F ield         | OpenFOAM: The Open Source CFD Toolbox
   \\    /   O peration     | Website:  https://openfoam.org
    \\  /    A nd           | Version:  10
     \\/     M anipulation  |
\*---------------------------------------------------------------------------*/
FoamFile
{
    format      ascii;
    class       volScalarField;
    location    "1";
    object      RR.NO3;
}
// * * * * * * * * * * * * * * * * * * * * * * * * * * * * * * * * * * * * * //

dimensions      [1 -3 -1 0 0 0 0];

internalField   nonuniform List<scalar> 
4000
(
-1.37328e-17
-5.14935e-17
-1.27796e-16
-3.02656e-16
-6.99052e-16
-1.56591e-15
-3.36932e-15
-6.88198e-15
-1.31551e-14
-2.31326e-14
-3.66215e-14
-5.05211e-14
-5.6706e-14
-4.10809e-14
1.33784e-14
1.17743e-13
2.65669e-13
4.18507e-13
5.24896e-13
5.15585e-13
3.43018e-13
4.83302e-14
-2.45155e-13
-3.67545e-13
-3.07381e-13
-1.60886e-13
-2.42369e-14
1.26874e-13
2.13974e-13
2.56157e-13
1.59904e-13
-1.15215e-13
-3.62506e-13
-3.9499e-13
-3.8782e-13
-6.03496e-13
-1.09647e-12
-2.09448e-12
-4.07352e-12
-7.81216e-12
-1.48385e-11
-2.77411e-11
-5.09463e-11
-9.22213e-11
-1.66326e-10
-2.96399e-10
-5.2085e-10
-9.0574e-10
-1.56598e-09
-2.69494e-09
-4.62717e-09
-7.964e-09
-1.37138e-08
-2.21443e-08
-3.42744e-08
-5.32105e-08
-8.26352e-08
-1.22488e-07
-1.6281e-07
-1.65833e-07
-6.87963e-08
1.55875e-07
4.59477e-07
5.50369e-07
1.35328e-07
-1.85254e-07
-2.49949e-07
-3.57181e-07
-5.85182e-07
-3.7049e-07
8.41046e-07
4.35929e-07
1.12771e-07
2.3372e-08
4.30149e-09
7.53417e-10
1.32682e-10
2.46163e-11
4.94501e-12
1.08351e-12
2.57231e-13
6.486e-14
1.70367e-14
4.56879e-15
1.2395e-15
3.36334e-16
9.09502e-17
2.44499e-17
6.52917e-18
1.73082e-18
4.56956e-19
1.19888e-19
3.12373e-20
8.06641e-21
2.05439e-21
5.10514e-22
1.20888e-22
2.58104e-23
4.26098e-24
2.27411e-25
-1.358e-17
-5.09176e-17
-1.26357e-16
-2.99236e-16
-6.91069e-16
-1.54768e-15
-3.32939e-15
-6.7988e-15
-1.29942e-14
-2.28547e-14
-3.62237e-14
-5.0136e-14
-5.67636e-14
-4.24427e-14
9.59554e-15
1.1038e-13
2.5448e-13
4.08112e-13
5.23022e-13
5.23961e-13
3.58725e-13
7.04066e-14
-2.28856e-13
-3.665e-13
-3.16074e-13
-1.70787e-13
-3.07306e-14
1.25452e-13
2.13353e-13
2.60102e-13
1.69523e-13
-9.33182e-14
-3.5917e-13
-4.06118e-13
-3.98063e-13
-6.19393e-13
-1.1254e-12
-2.14993e-12
-4.18189e-12
-8.02344e-12
-1.52465e-11
-2.8518e-11
-5.23721e-11
-9.48655e-11
-1.71186e-10
-3.05236e-10
-5.36485e-10
-9.33053e-10
-1.61328e-09
-2.77688e-09
-4.77236e-09
-8.22661e-09
-1.41671e-08
-2.28196e-08
-3.53306e-08
-5.48956e-08
-8.5055e-08
-1.25877e-07
-1.65952e-07
-1.6476e-07
-5.70595e-08
1.7852e-07
4.83978e-07
5.40438e-07
1.01326e-07
-1.9695e-07
-2.54227e-07
-3.71447e-07
-6.33583e-07
-2.34694e-07
8.48325e-07
3.9732e-07
1.00784e-07
2.06205e-08
3.79629e-09
6.67093e-10
1.18312e-10
2.21191e-11
4.47587e-12
9.86606e-13
2.3566e-13
5.97925e-14
1.57824e-14
4.26478e-15
1.15922e-15
3.1571e-16
8.58248e-17
2.31988e-17
6.23228e-18
1.66429e-18
4.40124e-19
1.15726e-19
3.02053e-20
7.80932e-21
1.99063e-21
4.9501e-22
1.17287e-22
2.50569e-23
4.13876e-24
2.20991e-25
-1.34301e-17
-5.0363e-17
-1.25013e-16
-2.96134e-16
-6.84044e-16
-1.53186e-15
-3.29353e-15
-6.72034e-15
-1.28336e-14
-2.2559e-14
-3.57668e-14
-4.96628e-14
-5.6812e-14
-4.39598e-14
5.38895e-15
1.02734e-13
2.43125e-13
3.94328e-13
5.13801e-13
5.27645e-13
3.77392e-13
9.33072e-14
-2.10085e-13
-3.65634e-13
-3.2454e-13
-1.81348e-13
-3.88274e-14
1.22226e-13
2.11041e-13
2.64091e-13
1.81702e-13
-7.7787e-14
-3.6087e-13
-4.22075e-13
-4.14367e-13
-6.46277e-13
-1.14441e-12
-2.23716e-12
-4.35352e-12
-8.36777e-12
-1.59107e-11
-2.97518e-11
-5.46465e-11
-9.90768e-11
-1.78803e-10
-3.18737e-10
-5.59949e-10
-9.73701e-10
-1.68386e-09
-2.89893e-09
-4.97861e-09
-8.64676e-09
-1.48241e-08
-2.37931e-08
-3.68445e-08
-5.72827e-08
-8.87821e-08
-1.30543e-07
-1.69577e-07
-1.6233e-07
-4.00344e-08
2.08552e-07
5.12668e-07
5.18626e-07
5.87823e-08
-2.09697e-07
-2.60267e-07
-3.7332e-07
-6.91331e-07
-7.43929e-08
8.24339e-07
3.52814e-07
8.79754e-08
1.79989e-08
3.31691e-09
5.85644e-10
1.04424e-10
1.96245e-11
3.98425e-12
8.74164e-13
2.08776e-13
5.31447e-14
1.4137e-14
3.85384e-15
1.06065e-15
2.91999e-16
8.00421e-17
2.17565e-17
5.86842e-18
1.5712e-18
4.17893e-19
1.10089e-19
2.87659e-20
7.44342e-21
1.89846e-21
4.72263e-22
1.11926e-22
2.39175e-23
3.95177e-24
2.11065e-25
-1.32163e-17
-4.9547e-17
-1.22929e-16
-2.91033e-16
-6.71865e-16
-1.50387e-15
-3.23286e-15
-6.59787e-15
-1.26093e-14
-2.22008e-14
-3.53048e-14
-4.92727e-14
-5.69286e-14
-4.54398e-14
1.44168e-15
9.56882e-14
2.34367e-13
3.86795e-13
5.07798e-13
5.29778e-13
3.93023e-13
1.17179e-13
-1.92064e-13
-3.64085e-13
-3.33577e-13
-1.92157e-13
-4.71975e-14
1.19061e-13
2.19374e-13
2.67351e-13
1.92476e-13
-7.16571e-14
-3.6122e-13
-4.38538e-13
-4.32445e-13
-6.76598e-13
-1.19847e-12
-2.34566e-12
-4.57853e-12
-8.80428e-12
-1.67447e-11
-3.13547e-11
-5.76496e-11
-1.04555e-10
-1.88784e-10
-3.36707e-10
-5.91318e-10
-1.02982e-09
-1.7809e-09
-3.06468e-09
-5.26753e-09
-9.12215e-09
-1.56299e-08
-2.50107e-08
-3.87638e-08
-6.0339e-08
-9.33038e-08
-1.36147e-07
-1.7352e-07
-1.57355e-07
-1.90461e-08
2.44638e-07
5.41273e-07
4.83182e-07
1.37475e-08
-2.21373e-07
-2.67119e-07
-3.81546e-07
-7.23501e-07
9.24391e-08
7.8473e-07
3.10258e-07
7.5286e-08
1.51394e-08
2.75889e-09
4.84187e-10
8.60522e-11
1.61299e-11
3.27305e-12
7.33029e-13
1.77751e-13
4.55374e-14
1.22321e-14
3.3717e-15
9.38101e-16
2.61033e-16
7.23259e-17
1.98563e-17
5.4017e-18
1.45593e-18
3.89063e-19
1.02989e-19
2.70091e-20
7.00631e-21
1.78983e-21
4.45672e-22
1.05682e-22
2.25878e-23
3.73201e-24
1.9929e-25
-1.30115e-17
-4.87784e-17
-1.21019e-16
-2.86509e-16
-6.6144e-16
-1.4807e-15
-3.18382e-15
-6.50068e-15
-1.2433e-14
-2.19184e-14
-3.49329e-14
-4.89526e-14
-5.70384e-14
-4.66655e-14
-1.77155e-15
8.98805e-14
2.26308e-13
3.78578e-13
5.03924e-13
5.35072e-13
4.07419e-13
1.36366e-13
-1.76412e-13
-3.61241e-13
-3.40207e-13
-2.01992e-13
-5.50002e-14
1.16131e-13
2.0693e-13
2.7109e-13
2.02983e-13
-1.24379e-13
-3.61138e-13
-4.54714e-13
-4.51434e-13
-7.09121e-13
-1.25946e-12
-2.46682e-12
-4.82063e-12
-9.27585e-12
-1.76641e-11
-3.30994e-11
-6.0914e-11
-1.10538e-10
-1.9966e-10
-3.56196e-10
-6.24378e-10
-1.08683e-09
-1.87957e-09
-3.2351e-09
-5.55893e-09
-9.67293e-09
-1.64949e-08
-2.62916e-08
-4.07702e-08
-6.34735e-08
-9.77593e-08
-1.41391e-07
-1.76292e-07
-1.50785e-07
2.08941e-09
2.78516e-07
5.65558e-07
4.44369e-07
-2.6359e-08
-2.30351e-07
-2.74451e-07
-3.92836e-07
-7.41821e-07
2.50481e-07
7.4092e-07
2.71749e-07
6.44664e-08
1.28396e-08
2.33169e-09
4.09553e-10
7.29945e-11
1.37231e-11
2.78509e-12
6.15672e-13
1.48536e-13
3.87824e-14
1.05793e-14
2.9508e-15
8.25622e-16
2.3157e-16
6.47206e-17
1.79107e-17
4.90701e-18
1.33055e-18
3.57347e-19
9.49597e-20
2.49749e-20
6.49292e-21
1.66153e-21
4.14264e-22
9.83264e-23
2.10293e-23
3.47602e-24
1.85629e-25
-1.28116e-17
-4.80284e-17
-1.19156e-16
-2.82099e-16
-6.51304e-16
-1.45827e-15
-3.13668e-15
-6.4082e-15
-1.22675e-14
-2.16579e-14
-3.45976e-14
-4.86745e-14
-5.7146e-14
-4.7709e-14
-4.36402e-15
8.54882e-14
2.20764e-13
3.73767e-13
5.02172e-13
5.39214e-13
4.18486e-13
1.51607e-13
-1.62336e-13
-3.57273e-13
-3.45633e-13
-2.10626e-13
-6.20255e-14
1.13412e-13
2.05647e-13
2.75239e-13
2.13887e-13
-3.95554e-14
-3.58972e-13
-4.69555e-13
-4.70473e-13
-7.42865e-13
-1.32325e-12
-2.59323e-12
-5.0715e-12
-9.77118e-12
-1.86183e-11
-3.4916e-11
-6.42192e-11
-1.16536e-10
-2.10495e-10
-3.7549e-10
-6.58448e-10
-1.14567e-09
-1.98227e-09
-3.41375e-09
-5.86901e-09
-1.01739e-08
-1.73311e-08
-2.75581e-08
-4.27855e-08
-6.6662e-08
-1.02259e-07
-1.46588e-07
-1.78411e-07
-1.4213e-07
2.36417e-08
3.08915e-07
5.80556e-07
4.04091e-07
-5.86958e-08
-2.36336e-07
-2.80504e-07
-4.03074e-07
-7.34212e-07
3.73953e-07
6.89779e-07
2.37691e-07
5.54184e-08
1.09603e-08
1.98639e-09
3.49501e-10
6.25082e-11
1.17967e-11
2.40192e-12
5.32335e-13
1.28128e-13
3.30712e-14
8.97841e-15
2.51599e-15
7.18963e-16
2.04668e-16
5.7832e-17
1.6133e-17
4.44738e-18
1.21179e-18
3.26727e-19
8.70439e-20
2.28998e-20
5.96067e-21
1.52756e-21
3.81381e-22
9.06223e-23
1.93978e-23
3.20797e-24
1.71383e-25
-1.26256e-17
-4.7332e-17
-1.17432e-16
-2.78036e-16
-6.42017e-16
-1.43786e-15
-3.09409e-15
-6.32531e-15
-1.21205e-14
-2.14286e-14
-3.43058e-14
-4.84379e-14
-5.72528e-14
-4.8639e-14
-6.65709e-15
8.15723e-14
2.15653e-13
3.68866e-13
4.99585e-13
5.42568e-13
4.30193e-13
1.66644e-13
-1.49075e-13
-3.53579e-13
-3.50975e-13
-2.18385e-13
-6.80529e-14
1.11278e-13
2.04669e-13
2.78273e-13
2.21432e-13
-3.12825e-14
-3.54797e-13
-4.83698e-13
-4.88735e-13
-7.75115e-13
-1.3846e-12
-2.72047e-12
-5.3153e-12
-1.02471e-11
-1.95495e-11
-3.66731e-11
-6.74579e-11
-1.22432e-10
-2.21139e-10
-3.944e-10
-6.90841e-10
-1.20198e-09
-2.08557e-09
-3.58555e-09
-6.16301e-09
-1.07039e-08
-1.81571e-08
-2.87628e-08
-4.46331e-08
-6.98707e-08
-1.06527e-07
-1.51247e-07
-1.79816e-07
-1.33255e-07
4.16922e-08
3.36726e-07
5.93435e-07
3.65641e-07
-8.50494e-08
-2.40216e-07
-2.85731e-07
-4.13456e-07
-7.19773e-07
4.61383e-07
6.47251e-07
2.14319e-07
4.93337e-08
9.69413e-09
1.75212e-09
3.08383e-10
5.52535e-11
1.04487e-11
2.13008e-12
4.72356e-13
1.13707e-13
2.93635e-14
7.97501e-15
2.23097e-15
6.32057e-16
1.7927e-16
5.06412e-17
1.41516e-17
3.91331e-18
1.07057e-18
2.9011e-19
7.77929e-20
2.06822e-20
5.4214e-21
1.3959e-21
3.49588e-22
8.32274e-23
1.78347e-23
2.95087e-24
1.57648e-25
-1.2456e-17
-4.66977e-17
-1.15864e-16
-2.74349e-16
-6.33611e-16
-1.41945e-15
-3.05587e-15
-6.25141e-15
-1.19904e-14
-2.12275e-14
-3.4053e-14
-4.82383e-14
-5.73571e-14
-4.94579e-14
-8.64566e-15
7.82076e-14
2.11315e-13
3.64844e-13
4.97719e-13
5.46448e-13
4.40435e-13
1.80455e-13
-1.3813e-13
-3.51358e-13
-3.55287e-13
-2.24737e-13
-7.31423e-14
1.09672e-13
2.04233e-13
2.81481e-13
2.27862e-13
-2.38457e-14
-3.5777e-13
-4.95354e-13
-5.05363e-13
-8.05875e-13
-1.44204e-12
-2.83128e-12
-5.54032e-12
-1.06811e-11
-2.03607e-11
-3.81912e-11
-7.02502e-11
-1.27552e-10
-2.30507e-10
-4.11345e-10
-7.20746e-10
-1.25414e-09
-2.17539e-09
-3.74029e-09
-6.42815e-09
-1.11748e-08
-1.88934e-08
-2.98779e-08
-4.64304e-08
-7.24196e-08
-1.10102e-07
-1.55036e-07
-1.80428e-07
-1.24929e-07
6.08586e-08
3.62693e-07
5.99733e-07
3.28969e-07
-1.07163e-07
-2.42944e-07
-2.91866e-07
-4.25034e-07
-6.9319e-07
5.25346e-07
6.05466e-07
1.94472e-07
4.42684e-08
8.64258e-09
1.55695e-09
2.73895e-10
4.91099e-11
9.29363e-12
1.89438e-12
4.19836e-13
1.01021e-13
2.6111e-14
7.10924e-15
1.99598e-15
5.67801e-16
1.61739e-16
4.57936e-17
1.28422e-17
3.56183e-18
9.76742e-19
2.65158e-19
7.11355e-20
1.88755e-20
4.94567e-21
1.27399e-21
3.19353e-22
7.61159e-23
1.63286e-23
2.70422e-24
1.44581e-25
-1.23058e-17
-4.61366e-17
-1.1448e-16
-2.71104e-16
-6.26241e-16
-1.40337e-15
-3.02266e-15
-6.18754e-15
-1.18787e-14
-2.10563e-14
-3.38402e-14
-4.80751e-14
-5.7457e-14
-5.0162e-14
-1.03083e-14
7.54965e-14
2.08055e-13
3.62258e-13
4.96724e-13
5.49268e-13
4.48952e-13
1.91588e-13
-1.28726e-13
-3.48651e-13
-3.58994e-13
-2.3038e-13
-7.7471e-14
1.08174e-13
2.07238e-13
2.83579e-13
2.33196e-13
-1.80713e-14
-3.57687e-13
-5.06013e-13
-5.21151e-13
-8.34688e-13
-1.4968e-12
-2.94123e-12
-5.75822e-12
-1.11095e-11
-2.11875e-11
-3.97392e-11
-7.30664e-11
-1.32635e-10
-2.39616e-10
-4.27325e-10
-7.48441e-10
-1.30245e-09
-2.25749e-09
-3.88438e-09
-6.68147e-09
-1.15512e-08
-1.9502e-08
-3.07705e-08
-4.77982e-08
-7.49841e-08
-1.1345e-07
-1.58382e-07
-1.80594e-07
-1.17055e-07
7.74158e-08
3.8383e-07
6.03152e-07
2.96124e-07
-1.24653e-07
-2.43982e-07
-2.98773e-07
-4.39412e-07
-6.57608e-07
5.99299e-07
5.67192e-07
1.75394e-07
3.94357e-08
7.65728e-09
1.37698e-09
2.42451e-10
4.35491e-11
8.25431e-12
1.68404e-12
3.73518e-13
9.00154e-14
2.33368e-14
6.38162e-15
1.80083e-15
5.1496e-16
1.47447e-16
4.19319e-17
1.18049e-17
3.28493e-18
9.03266e-19
2.4578e-19
6.60399e-20
1.75407e-20
4.59863e-21
1.18494e-21
2.97056e-22
7.07979e-23
1.5186e-23
2.51463e-24
1.34414e-25
-1.21754e-17
-4.56501e-17
-1.13282e-16
-2.68301e-16
-6.19893e-16
-1.38957e-15
-2.99427e-15
-6.13321e-15
-1.17843e-14
-2.09128e-14
-3.36639e-14
-4.79447e-14
-5.75551e-14
-5.07863e-14
-1.1791e-14
7.29971e-14
2.04824e-13
3.59211e-13
4.95326e-13
5.52563e-13
4.57576e-13
2.02744e-13
-1.20546e-13
-3.47363e-13
-3.62368e-13
-2.35009e-13
-8.08702e-14
1.0756e-13
2.13154e-13
2.85889e-13
2.38121e-13
-1.30756e-14
-3.51276e-13
-5.14926e-13
-5.35124e-13
-8.60922e-13
-1.54725e-12
-3.04163e-12
-5.95925e-12
-1.14953e-11
-2.19233e-11
-4.11149e-11
-7.5566e-11
-1.37143e-10
-2.47622e-10
-4.41462e-10
-7.73006e-10
-1.344e-09
-2.32406e-09
-3.99643e-09
-6.86735e-09
-1.19622e-08
-2.00855e-08
-3.16195e-08
-4.91201e-08
-7.69963e-08
-1.16165e-07
-1.60992e-07
-1.80333e-07
-1.09801e-07
9.26502e-08
4.01952e-07
6.00304e-07
2.67563e-07
-1.40593e-07
-2.44628e-07
-3.04267e-07
-4.50387e-07
-6.18322e-07
6.33922e-07
5.35271e-07
1.61324e-07
3.59191e-08
6.94112e-09
1.24578e-09
2.19432e-10
3.94677e-11
7.49239e-12
1.53031e-12
3.39763e-13
8.19854e-14
2.12997e-14
5.84184e-15
1.65428e-15
4.74779e-16
1.3645e-16
3.893e-17
1.09914e-17
3.06626e-18
8.44955e-19
2.30315e-19
6.19725e-20
1.64786e-20
4.32363e-21
1.11467e-21
2.79517e-22
6.66233e-23
1.42895e-23
2.36586e-24
1.26431e-25
-1.20642e-17
-4.52359e-17
-1.12264e-16
-2.65925e-16
-6.14523e-16
-1.37793e-15
-2.97042e-15
-6.08784e-15
-1.17061e-14
-2.07954e-14
-3.35229e-14
-4.78459e-14
-5.76446e-14
-5.12887e-14
-1.29335e-14
7.12092e-14
2.02729e-13
3.57356e-13
4.94444e-13
5.54855e-13
4.64073e-13
2.11454e-13
-1.13705e-13
-3.45805e-13
-3.65263e-13
-2.39005e-13
-8.38118e-14
1.06804e-13
2.13086e-13
2.88152e-13
2.41434e-13
-1.10176e-14
-3.59453e-13
-5.24214e-13
-5.47816e-13
-8.83743e-13
-1.59062e-12
-3.12874e-12
-6.13247e-12
-1.18318e-11
-2.25693e-11
-4.23331e-11
-7.78042e-11
-1.41246e-10
-2.5506e-10
-4.54788e-10
-7.9609e-10
-1.38408e-09
-2.39089e-09
-4.112e-09
-7.06723e-09
-1.23166e-08
-2.06388e-08
-3.24669e-08
-5.04802e-08
-7.87649e-08
-1.18715e-07
-1.63473e-07
-1.79987e-07
-1.02788e-07
1.06747e-07
4.18852e-07
5.99057e-07
2.41259e-07
-1.51926e-07
-2.45696e-07
-3.11036e-07
-4.62859e-07
-5.77519e-07
6.62532e-07
5.09617e-07
1.50602e-07
3.3269e-08
6.40494e-09
1.14785e-09
2.02273e-10
3.6429e-11
6.92689e-12
1.41638e-12
3.14868e-13
7.60691e-14
1.97923e-14
5.4388e-15
1.5436e-15
4.44067e-16
1.27938e-16
3.65829e-17
1.03498e-17
2.8926e-18
7.98454e-19
2.17778e-19
5.86711e-20
1.56162e-20
4.1005e-21
1.05772e-21
2.65331e-22
6.32528e-23
1.35669e-23
2.24614e-24
1.20041e-25
-1.19709e-17
-4.48884e-17
-1.11411e-16
-2.6394e-16
-6.10051e-16
-1.36828e-15
-2.95073e-15
-6.05059e-15
-1.16424e-14
-2.07009e-14
-3.34115e-14
-4.77726e-14
-5.77286e-14
-5.17115e-14
-1.38836e-14
6.9673e-14
2.00709e-13
3.55463e-13
4.93904e-13
5.57234e-13
4.70183e-13
2.18982e-13
-1.08217e-13
-3.44662e-13
-3.67533e-13
-2.42229e-13
-8.62238e-14
1.0618e-13
2.13087e-13
2.89685e-13
2.44276e-13
-8.5819e-15
-3.60433e-13
-5.31008e-13
-5.58251e-13
-9.03039e-13
-1.62733e-12
-3.20238e-12
-6.27488e-12
-1.21033e-11
-2.30795e-11
-4.32689e-11
-7.94674e-11
-1.45152e-10
-2.61702e-10
-4.66394e-10
-8.16257e-10
-1.41913e-09
-2.45246e-09
-4.2214e-09
-7.26472e-09
-1.25758e-08
-2.10704e-08
-3.31165e-08
-5.14921e-08
-8.04223e-08
-1.20868e-07
-1.65404e-07
-1.79313e-07
-9.63636e-08
1.19256e-07
4.33447e-07
5.96299e-07
2.18061e-07
-1.61329e-07
-2.46334e-07
-3.17917e-07
-4.7389e-07
-5.41183e-07
6.78305e-07
4.8964e-07
1.42847e-07
3.13697e-08
6.01932e-09
1.077e-09
1.89775e-10
3.41991e-11
6.50903e-12
1.33205e-12
2.96371e-13
7.16545e-14
1.86596e-14
5.13296e-15
1.45865e-15
4.20231e-16
1.21258e-16
3.47237e-17
9.83763e-18
2.75302e-18
7.60862e-19
2.07663e-19
5.59965e-20
1.49155e-20
3.91884e-21
1.01131e-21
2.53765e-22
6.05067e-23
1.29789e-23
2.14872e-24
1.14829e-25
-1.18934e-17
-4.46003e-17
-1.10705e-16
-2.62299e-16
-6.06365e-16
-1.36035e-15
-2.93461e-15
-6.02026e-15
-1.15909e-14
-2.06254e-14
-3.33246e-14
-4.77204e-14
-5.78065e-14
-5.2057e-14
-1.46388e-14
6.84474e-14
1.9921e-13
3.54305e-13
4.93683e-13
5.59222e-13
4.74982e-13
2.24944e-13
-1.03501e-13
-3.43474e-13
-3.69385e-13
-2.45031e-13
-8.82872e-14
1.0575e-13
2.1339e-13
2.90811e-13
2.46947e-13
-6.26052e-15
-3.67788e-13
-5.36362e-13
-5.67204e-13
-9.20023e-13
-1.6604e-12
-3.26783e-12
-6.40285e-12
-1.23491e-11
-2.35461e-11
-4.41369e-11
-8.10538e-11
-1.48043e-10
-2.6678e-10
-4.7523e-10
-8.31349e-10
-1.44465e-09
-2.49457e-09
-4.28949e-09
-7.37271e-09
-1.28517e-08
-2.14358e-08
-3.36393e-08
-5.23004e-08
-8.18568e-08
-1.22697e-07
-1.67024e-07
-1.78721e-07
-9.10932e-08
1.2945e-07
4.4505e-07
5.93245e-07
1.99197e-07
-1.68522e-07
-2.47058e-07
-3.2307e-07
-4.84019e-07
-5.05289e-07
6.93749e-07
4.73783e-07
1.3621e-07
2.97466e-08
5.69181e-09
1.01728e-09
1.79324e-10
3.23517e-11
6.16651e-12
1.26376e-12
2.81531e-13
6.81366e-14
1.77607e-14
4.89061e-15
1.39129e-15
4.01274e-16
1.15922e-16
3.32316e-17
9.42449e-18
2.6399e-18
7.3026e-19
1.99461e-19
5.38206e-20
1.4344e-20
3.77043e-21
9.73352e-22
2.44302e-22
5.82573e-23
1.24972e-23
2.06895e-24
1.10584e-25
-1.18299e-17
-4.43639e-17
-1.10126e-16
-2.60954e-16
-6.03342e-16
-1.35384e-15
-2.92139e-15
-5.99538e-15
-1.15487e-14
-2.05636e-14
-3.32542e-14
-4.76817e-14
-5.78855e-14
-5.23834e-14
-1.53511e-14
6.73603e-14
1.9809e-13
3.53697e-13
4.93994e-13
5.61344e-13
4.79123e-13
2.29937e-13
-9.97558e-14
-3.42737e-13
-3.71017e-13
-2.47271e-13
-8.98928e-14
1.05477e-13
2.1378e-13
2.92347e-13
2.49145e-13
-8.42526e-14
-3.67038e-13
-5.41893e-13
-5.75134e-13
-9.34788e-13
-1.68902e-12
-3.32497e-12
-6.51484e-12
-1.25646e-11
-2.3956e-11
-4.49037e-11
-8.24668e-11
-1.50624e-10
-2.7137e-10
-4.83273e-10
-8.45158e-10
-1.46822e-09
-2.53506e-09
-4.35952e-09
-7.49559e-09
-1.30713e-08
-2.17592e-08
-3.41103e-08
-5.30326e-08
-8.29884e-08
-1.242e-07
-1.68391e-07
-1.78317e-07
-8.68052e-08
1.3779e-07
4.54527e-07
5.89847e-07
1.83367e-07
-1.74301e-07
-2.47402e-07
-3.27012e-07
-4.92621e-07
-4.76049e-07
7.02516e-07
4.60998e-07
1.31185e-07
2.85271e-08
5.44557e-09
9.72196e-10
1.71382e-10
3.09362e-11
5.90148e-12
1.21031e-12
2.69778e-13
6.53244e-14
1.70386e-14
4.69578e-15
1.33716e-15
3.86042e-16
1.1163e-16
3.2029e-17
9.09064e-18
2.54823e-18
7.05387e-19
1.92782e-19
5.20455e-20
1.38772e-20
3.64907e-21
9.42294e-22
2.36554e-22
5.64178e-23
1.21032e-23
2.00368e-24
1.07103e-25
-1.17786e-17
-4.41736e-17
-1.0966e-16
-2.59872e-16
-6.00914e-16
-1.34862e-15
-2.91081e-15
-5.97551e-15
-1.1515e-14
-2.05146e-14
-3.31992e-14
-4.76539e-14
-5.79543e-14
-5.2648e-14
-1.5888e-14
6.66114e-14
1.97282e-13
3.5312e-13
4.94023e-13
5.62821e-13
4.82603e-13
2.34195e-13
-9.66287e-14
-3.42245e-13
-3.7251e-13
-2.49181e-13
-9.11624e-14
1.05504e-13
2.15092e-13
2.96303e-13
2.59586e-13
1.82817e-14
-3.62476e-13
-5.42781e-13
-5.80629e-13
-9.47095e-13
-1.71365e-12
-3.37478e-12
-6.61358e-12
-1.27566e-11
-2.4325e-11
-4.55972e-11
-8.37259e-11
-1.52906e-10
-2.75454e-10
-4.90498e-10
-8.57685e-10
-1.48982e-09
-2.57188e-09
-4.42204e-09
-7.60164e-09
-1.32519e-08
-2.20305e-08
-3.45197e-08
-5.36811e-08
-8.3943e-08
-1.25409e-07
-1.69337e-07
-1.77545e-07
-8.26607e-08
1.45293e-07
4.62569e-07
5.86164e-07
1.70074e-07
-1.78938e-07
-2.47688e-07
-3.30518e-07
-5.00018e-07
-4.50753e-07
7.08325e-07
4.50512e-07
1.27182e-07
2.75596e-08
5.25044e-09
9.36544e-10
1.6512e-10
2.98219e-11
5.69245e-12
1.16791e-12
2.60398e-13
6.30698e-14
1.64585e-14
4.53906e-15
1.29359e-15
3.73773e-16
1.0817e-16
3.10585e-17
8.82094e-18
2.47409e-18
6.85244e-19
1.87367e-19
5.0605e-20
1.3498e-20
3.55044e-21
9.17045e-22
2.30255e-22
5.49206e-23
1.17826e-23
1.95075e-24
1.04263e-25
-1.17385e-17
-4.40244e-17
-1.09296e-16
-2.59026e-16
-5.99022e-16
-1.34456e-15
-2.90261e-15
-5.96018e-15
-1.14893e-14
-2.04776e-14
-3.31587e-14
-4.76363e-14
-5.80125e-14
-5.28561e-14
-1.63163e-14
6.59596e-14
1.96536e-13
3.52619e-13
4.94199e-13
5.64362e-13
4.8548e-13
2.37462e-13
-9.43041e-14
-3.41872e-13
-3.73666e-13
-2.50665e-13
-9.2249e-14
1.05002e-13
2.14527e-13
2.94265e-13
2.52325e-13
-7.83118e-15
-3.66207e-13
-5.49403e-13
-5.87652e-13
-9.58661e-13
-1.73562e-12
-3.41845e-12
-6.69917e-12
-1.29213e-11
-2.46379e-11
-4.61792e-11
-8.47982e-11
-1.54872e-10
-2.7903e-10
-4.96961e-10
-8.69201e-10
-1.51037e-09
-2.60862e-09
-4.48826e-09
-7.72344e-09
-1.33699e-08
-2.22528e-08
-3.48677e-08
-5.42227e-08
-8.47393e-08
-1.26425e-07
-1.70117e-07
-1.76811e-07
-7.90297e-08
1.51644e-07
4.69125e-07
5.82837e-07
1.59431e-07
-1.82472e-07
-2.47848e-07
-3.33435e-07
-5.06691e-07
-4.28756e-07
7.12354e-07
4.41882e-07
1.23925e-07
2.6777e-08
5.09326e-09
9.07877e-10
1.60078e-10
2.89222e-11
5.52359e-12
1.13382e-12
2.52917e-13
6.12873e-14
1.6002e-14
4.41581e-15
1.25924e-15
3.64072e-16
1.05427e-16
3.02873e-17
8.60625e-18
2.41501e-18
6.69179e-19
1.83045e-19
4.94548e-20
1.31951e-20
3.47163e-21
8.96863e-22
2.25219e-22
5.37255e-23
1.15267e-23
1.90834e-24
1.02002e-25
-1.17082e-17
-4.39119e-17
-1.09021e-16
-2.58392e-16
-5.97607e-16
-1.34155e-15
-2.89657e-15
-5.94904e-15
-1.14709e-14
-2.04516e-14
-3.31312e-14
-4.76266e-14
-5.80599e-14
-5.30216e-14
-1.66667e-14
6.54243e-14
1.95957e-13
3.52277e-13
4.94343e-13
5.65483e-13
4.87786e-13
2.40146e-13
-9.24627e-14
-3.41669e-13
-3.74623e-13
-2.51864e-13
-9.30907e-14
1.04763e-13
2.146e-13
2.9434e-13
2.52031e-13
-9.37255e-15
-3.68869e-13
-5.52729e-13
-5.92577e-13
-9.67568e-13
-1.75284e-12
-3.45277e-12
-6.76642e-12
-1.30506e-11
-2.48837e-11
-4.66366e-11
-8.56332e-11
-1.56389e-10
-2.81724e-10
-5.01652e-10
-8.77138e-10
-1.52355e-09
-2.63013e-09
-4.52228e-09
-7.77523e-09
-1.35117e-08
-2.24439e-08
-3.51558e-08
-5.468e-08
-8.53389e-08
-1.27225e-07
-1.70747e-07
-1.76273e-07
-7.6236e-08
1.56634e-07
4.74324e-07
5.80334e-07
1.51351e-07
-1.85066e-07
-2.47939e-07
-3.35721e-07
-5.1224e-07
-4.1105e-07
7.15316e-07
4.35207e-07
1.21429e-07
2.61817e-08
4.9741e-09
8.86151e-10
1.56256e-10
2.824e-11
5.39532e-12
1.10785e-12
2.47211e-13
5.99272e-14
1.56537e-14
4.32166e-15
1.23295e-15
3.56625e-16
1.03316e-16
2.96929e-17
8.44064e-18
2.3694e-18
6.56775e-19
1.79707e-19
4.85664e-20
1.29611e-20
3.41072e-21
8.81262e-22
2.21325e-22
5.27995e-23
1.13285e-23
1.87559e-24
1.0025e-25
-1.16867e-17
-4.38327e-17
-1.08829e-16
-2.5795e-16
-5.96626e-16
-1.33947e-15
-2.89241e-15
-5.94132e-15
-1.14579e-14
-2.0433e-14
-3.3111e-14
-4.76194e-14
-5.8097e-14
-5.31459e-14
-1.69099e-14
6.50841e-14
1.95604e-13
3.52078e-13
4.94481e-13
5.66313e-13
4.89415e-13
2.42013e-13
-9.11758e-14
-3.41529e-13
-3.75318e-13
-2.52717e-13
-9.36838e-14
1.04609e-13
2.14755e-13
2.94828e-13
2.52879e-13
-8.47675e-15
-3.74968e-13
-5.54106e-13
-5.95786e-13
-9.74121e-13
-1.76585e-12
-3.47881e-12
-6.81748e-12
-1.31489e-11
-2.50707e-11
-4.69851e-11
-8.62718e-11
-1.57551e-10
-2.83826e-10
-5.05433e-10
-8.83853e-10
-1.5355e-09
-2.65146e-09
-4.56084e-09
-7.84614e-09
-1.35761e-08
-2.25662e-08
-3.53426e-08
-5.4958e-08
-8.58335e-08
-1.27841e-07
-1.71244e-07
-1.759e-07
-7.41366e-08
1.60455e-07
4.7836e-07
5.78536e-07
1.45526e-07
-1.86836e-07
-2.47909e-07
-3.37306e-07
-5.16315e-07
-3.97709e-07
7.17098e-07
4.30302e-07
1.19615e-07
2.57481e-08
4.88717e-09
8.70325e-10
1.53474e-10
2.77428e-11
5.30201e-12
1.08906e-12
2.43114e-13
5.89593e-14
1.54077e-14
4.25552e-15
1.21451e-15
3.51401e-16
1.01831e-16
2.92734e-17
8.32319e-18
2.33689e-18
6.47883e-19
1.77302e-19
4.79235e-20
1.27913e-20
3.36643e-21
8.699e-22
2.18487e-22
5.2125e-23
1.11841e-23
1.85158e-24
9.89624e-26
-1.1673e-17
-4.37816e-17
-1.08704e-16
-2.5766e-16
-5.95974e-16
-1.33806e-15
-2.88954e-15
-5.93593e-15
-1.14489e-14
-2.04202e-14
-3.30977e-14
-4.76159e-14
-5.8123e-14
-5.32276e-14
-1.70695e-14
6.48625e-14
1.95391e-13
3.51992e-13
4.94621e-13
5.66873e-13
4.90459e-13
2.432e-13
-9.03572e-14
-3.41447e-13
-3.7578e-13
-2.5331e-13
-9.42092e-14
1.03966e-13
2.0848e-13
2.94562e-13
2.53069e-13
-8.47569e-15
-3.75866e-13
-5.55538e-13
-5.9819e-13
-9.78679e-13
-1.77479e-12
-3.49666e-12
-6.85243e-12
-1.3216e-11
-2.51979e-11
-4.72214e-11
-8.67002e-11
-1.58325e-10
-2.852e-10
-5.07846e-10
-8.88012e-10
-1.54266e-09
-2.66377e-09
-4.58219e-09
-7.88389e-09
-1.36441e-08
-2.26686e-08
-3.54933e-08
-5.51771e-08
-8.61514e-08
-1.28279e-07
-1.71657e-07
-1.7578e-07
-7.28996e-08
1.6282e-07
4.80929e-07
5.77309e-07
1.41729e-07
-1.87957e-07
-2.4787e-07
-3.38385e-07
-5.1911e-07
-3.88521e-07
7.18253e-07
4.27053e-07
1.18413e-07
2.54613e-08
4.82983e-09
8.59887e-10
1.51644e-10
2.74206e-11
5.24233e-12
1.07717e-12
2.40538e-13
5.83527e-14
1.52536e-14
4.21407e-15
1.20296e-15
3.48133e-16
1.00904e-16
2.9012e-17
8.25018e-18
2.31672e-18
6.42371e-19
1.7581e-19
4.75227e-20
1.26847e-20
3.33839e-21
8.62654e-22
2.16666e-22
5.16899e-23
1.10903e-23
1.83608e-24
9.81249e-26
-1.1666e-17
-4.37558e-17
-1.08641e-16
-2.57514e-16
-5.95648e-16
-1.33737e-15
-2.88816e-15
-5.93338e-15
-1.14447e-14
-2.04144e-14
-3.30918e-14
-4.76149e-14
-5.81362e-14
-5.32678e-14
-1.71471e-14
6.4755e-14
1.95287e-13
3.51947e-13
4.94683e-13
5.67146e-13
4.90981e-13
2.43789e-13
-8.99532e-14
-3.41414e-13
-3.76023e-13
-2.53639e-13
-9.45834e-14
1.03187e-13
2.05598e-13
2.93868e-13
2.52613e-13
-9.72818e-15
-3.71194e-13
-5.57354e-13
-5.99853e-13
-9.81169e-13
-1.77946e-12
-3.50588e-12
-6.8704e-12
-1.32502e-11
-2.5262e-11
-4.73378e-11
-8.69047e-11
-1.58676e-10
-2.8578e-10
-5.08752e-10
-8.89311e-10
-1.54427e-09
-2.66515e-09
-4.58145e-09
-7.87572e-09
-1.37324e-08
-2.27732e-08
-3.56782e-08
-5.55352e-08
-8.61596e-08
-1.28458e-07
-1.7173e-07
-1.75366e-07
-7.16828e-08
1.64688e-07
4.82631e-07
5.76628e-07
1.39663e-07
-1.88569e-07
-2.47846e-07
-3.38886e-07
-5.20509e-07
-3.84124e-07
7.18517e-07
4.25355e-07
1.17804e-07
2.53177e-08
4.80133e-09
8.54725e-10
1.50738e-10
2.72584e-11
5.21199e-12
1.07112e-12
2.39234e-13
5.8047e-14
1.51761e-14
4.19312e-15
1.19708e-15
3.46451e-16
1.00424e-16
2.88756e-17
8.21196e-18
2.30616e-18
6.39492e-19
1.75035e-19
4.73165e-20
1.26304e-20
3.32429e-21
8.59041e-22
2.15763e-22
5.14742e-23
1.10441e-23
1.8285e-24
9.77278e-26
-1.16659e-17
-4.37553e-17
-1.08639e-16
-2.57511e-16
-5.95641e-16
-1.33736e-15
-2.88813e-15
-5.93335e-15
-1.14447e-14
-2.04144e-14
-3.3092e-14
-4.76154e-14
-5.81372e-14
-5.32692e-14
-1.71487e-14
6.4754e-14
1.95288e-13
3.5195e-13
4.94686e-13
5.67153e-13
4.9099e-13
2.43796e-13
-8.99539e-14
-3.41425e-13
-3.76035e-13
-2.53625e-13
-9.44581e-14
1.03814e-13
2.05538e-13
2.94483e-13
2.52817e-13
-9.50496e-15
-3.7106e-13
-5.57233e-13
-5.9988e-13
-9.81298e-13
-1.77976e-12
-3.50656e-12
-6.87196e-12
-1.32538e-11
-2.527e-11
-4.73558e-11
-8.69449e-11
-1.58766e-10
-2.85982e-10
-5.09208e-10
-8.90329e-10
-1.54656e-09
-2.67031e-09
-4.59317e-09
-7.90255e-09
-1.36761e-08
-2.27214e-08
-3.55827e-08
-5.53273e-08
-8.63426e-08
-1.2848e-07
-1.71704e-07
-1.75349e-07
-7.17529e-08
1.64514e-07
4.8239e-07
5.76282e-07
1.39412e-07
-1.88615e-07
-2.47814e-07
-3.38827e-07
-5.20468e-07
-3.84126e-07
7.18272e-07
4.25215e-07
1.17766e-07
2.53095e-08
4.7998e-09
8.5446e-10
1.50694e-10
2.72514e-11
5.21102e-12
1.07103e-12
2.39242e-13
5.80548e-14
1.51789e-14
4.19386e-15
1.19724e-15
3.46479e-16
1.00426e-16
2.88751e-17
8.21157e-18
2.30601e-18
6.39444e-19
1.75021e-19
4.73131e-20
1.26296e-20
3.32411e-21
8.58996e-22
2.15753e-22
5.14728e-23
1.1044e-23
1.82834e-24
9.76787e-26
-1.16726e-17
-4.37799e-17
-1.08699e-16
-2.57649e-16
-5.95949e-16
-1.33801e-15
-2.88945e-15
-5.9358e-15
-1.14488e-14
-2.04202e-14
-3.30981e-14
-4.76173e-14
-5.81257e-14
-5.32316e-14
-1.70741e-14
6.48602e-14
1.95394e-13
3.51999e-13
4.94631e-13
5.6689e-13
4.90485e-13
2.43214e-13
-9.03653e-14
-3.41478e-13
-3.75806e-13
-2.53291e-13
-9.40675e-14
1.04533e-13
2.14881e-13
2.9501e-13
2.52929e-13
-9.1871e-15
-3.73328e-13
-5.56312e-13
-5.98672e-13
-9.79182e-13
-1.7757e-12
-3.49853e-12
-6.85635e-12
-1.3224e-11
-2.52139e-11
-4.72529e-11
-8.67585e-11
-1.5843e-10
-2.85381e-10
-5.08141e-10
-8.88453e-10
-1.54323e-09
-2.66432e-09
-4.58209e-09
-7.88129e-09
-1.36339e-08
-2.26602e-08
-3.54998e-08
-5.52193e-08
-8.62219e-08
-1.28307e-07
-1.7155e-07
-1.7544e-07
-7.23363e-08
1.63435e-07
4.81246e-07
5.76983e-07
1.41239e-07
-1.88045e-07
-2.4778e-07
-3.38231e-07
-5.18994e-07
-3.8856e-07
7.17616e-07
4.26702e-07
1.18317e-07
2.54407e-08
4.82617e-09
8.5928e-10
1.51541e-10
2.74025e-11
5.23943e-12
1.07678e-12
2.40511e-13
5.83586e-14
1.52569e-14
4.21496e-15
1.20311e-15
3.48133e-16
1.00893e-16
2.90061e-17
8.24805e-18
2.31606e-18
6.4219e-19
1.75764e-19
4.75118e-20
1.26822e-20
3.33787e-21
8.62542e-22
2.16641e-22
5.16844e-23
1.1089e-23
1.83594e-24
9.81232e-26
-1.16865e-17
-4.38315e-17
-1.08825e-16
-2.5794e-16
-5.96598e-16
-1.3394e-15
-2.89223e-15
-5.94095e-15
-1.14573e-14
-2.04323e-14
-3.31109e-14
-4.76211e-14
-5.81011e-14
-5.31511e-14
-1.69129e-14
6.50888e-14
1.9562e-13
3.52101e-13
4.94507e-13
5.66333e-13
4.89422e-13
2.41996e-13
-9.12178e-14
-3.41578e-13
-3.75354e-13
-2.52731e-13
-9.36688e-14
1.04663e-13
2.14839e-13
2.94767e-13
2.52562e-13
-9.23317e-15
-3.73058e-13
-5.54883e-13
-5.96357e-13
-9.74799e-13
-1.76711e-12
-3.48139e-12
-6.82281e-12
-1.31596e-11
-2.5092e-11
-4.7027e-11
-8.63486e-11
-1.5769e-10
-2.84068e-10
-5.05837e-10
-8.84491e-10
-1.53647e-09
-2.65286e-09
-4.56268e-09
-7.84811e-09
-1.35765e-08
-2.25734e-08
-3.53687e-08
-5.50172e-08
-8.59259e-08
-1.27928e-07
-1.71251e-07
-1.75687e-07
-7.36227e-08
1.61139e-07
4.78879e-07
5.78346e-07
1.45068e-07
-1.86839e-07
-2.47729e-07
-3.37077e-07
-5.16124e-07
-3.97427e-07
7.16291e-07
4.29789e-07
1.19468e-07
2.57187e-08
4.88194e-09
8.69412e-10
1.53326e-10
2.77206e-11
5.29883e-12
1.0887e-12
2.43113e-13
5.89782e-14
1.5416e-14
4.2581e-15
1.21519e-15
3.51556e-16
1.01864e-16
2.928e-17
8.32456e-18
2.3372e-18
6.47961e-19
1.77323e-19
4.79284e-20
1.27923e-20
3.36661e-21
8.6992e-22
2.18486e-22
5.21224e-23
1.11836e-23
1.85141e-24
9.8947e-26
-1.17082e-17
-4.3912e-17
-1.09022e-16
-2.58394e-16
-5.97611e-16
-1.34156e-15
-2.89658e-15
-5.94902e-15
-1.14708e-14
-2.04515e-14
-3.31312e-14
-4.76279e-14
-5.80649e-14
-5.30306e-14
-1.66712e-14
6.54401e-14
1.95991e-13
3.52305e-13
4.94365e-13
5.65503e-13
4.87791e-13
2.4012e-13
-9.25163e-14
-3.4173e-13
-3.74669e-13
-2.51885e-13
-9.30961e-14
1.04765e-13
2.14609e-13
2.94311e-13
2.51927e-13
-9.56138e-15
-3.68929e-13
-5.52975e-13
-5.9298e-13
-9.68282e-13
-1.7543e-12
-3.45577e-12
-6.77251e-12
-1.30627e-11
-2.49074e-11
-4.66817e-11
-8.57188e-11
-1.56544e-10
-2.82012e-10
-5.02194e-10
-8.78176e-10
-1.52565e-09
-2.6345e-09
-4.53188e-09
-7.79705e-09
-1.34938e-08
-2.24464e-08
-3.51713e-08
-5.47031e-08
-8.54594e-08
-1.27336e-07
-1.70783e-07
-1.7605e-07