/*--------------------------------*- C++ -*----------------------------------*\
  =========                 |
  \\      /  F ield         | OpenFOAM: The Open Source CFD Toolbox
   \\    /   O peration     | Website:  https://openfoam.org
    \\  /    A nd           | Version:  10
     \\/     M anipulation  |
\*---------------------------------------------------------------------------*/
FoamFile
{
    format      ascii;
    class       volScalarField;
    location    "1";
    object      RR.NH2;
}
// * * * * * * * * * * * * * * * * * * * * * * * * * * * * * * * * * * * * * //

dimensions      [1 -3 -1 0 0 0 0];

internalField   nonuniform List<scalar> 
4000
(
-8.93154e-12
-3.77433e-11
-9.0325e-11
-1.93127e-10
-4.01716e-10
-8.36508e-10
-1.75784e-09
-3.72088e-09
-7.88244e-09
-1.65798e-08
-3.43892e-08
-7.00664e-08
-1.39967e-07
-2.73601e-07
-5.21605e-07
-9.64293e-07
-1.73567e-06
-3.05779e-06
-5.25728e-06
-9.39331e-06
-1.70537e-05
-3.12725e-05
-5.57343e-05
-9.1189e-05
-0.000138751
-0.000199758
-0.000279576
-0.000402942
-0.000561293
-0.000782199
-0.00107308
-0.00144123
-0.00189452
-0.00240128
-0.00291945
-0.00333349
-0.0035234
-0.00343971
-0.00325414
-0.00320904
-0.00334175
-0.00352912
-0.00347832
-0.00281308
-0.000984322
0.00263706
0.00868742
0.0178024
0.0300855
0.0433882
0.0484974
0.0115997
-0.0484707
-0.0272072
-0.0152161
-0.00843796
-0.00457818
-0.00245795
-0.00130167
-0.000681183
-0.000301898
-7.67618e-05
-1.97907e-05
-2.5817e-05
-2.82048e-05
-2.03648e-05
-1.03111e-05
-3.98663e-06
-1.2323e-06
-3.14388e-07
-6.87291e-08
-1.2534e-08
-1.96159e-09
-2.65522e-10
-3.14188e-11
-3.34001e-12
-3.1936e-13
-3.06063e-14
-2.90319e-15
-3.03552e-16
-3.8955e-17
-6.47051e-18
-1.34968e-18
-3.25456e-19
-8.45791e-20
-2.26472e-20
-6.11606e-21
-1.64771e-21
-4.40873e-22
-1.16935e-22
-3.06538e-23
-7.93441e-24
-2.02263e-24
-5.05078e-25
-1.22189e-25
-2.79403e-26
-5.67197e-27
-8.2153e-28
3.06848e-29
5.38126e-29
-8.87141e-12
-3.74646e-11
-8.95887e-11
-1.91399e-10
-3.97782e-10
-8.27444e-10
-1.73698e-09
-3.67256e-09
-7.76965e-09
-1.63164e-08
-3.37803e-08
-6.8695e-08
-1.36905e-07
-2.67157e-07
-5.0892e-07
-9.40652e-07
-1.69063e-06
-2.97392e-06
-5.10995e-06
-9.13291e-06
-1.65546e-05
-3.03015e-05
-5.41891e-05
-8.92697e-05
-0.00013652
-0.000197305
-0.000276613
-0.000399385
-0.000556834
-0.00077705
-0.00106757
-0.00143914
-0.00189233
-0.0024026
-0.0029283
-0.00335225
-0.00355246
-0.00347918
-0.00328172
-0.00322881
-0.00335357
-0.00353213
-0.00346745
-0.00277817
-0.000906871
0.00278727
0.00895145
0.0182253
0.0306798
0.0440563
0.0486107
0.0087638
-0.0477032
-0.0267669
-0.0149595
-0.00828472
-0.00450678
-0.00241635
-0.00127812
-0.000667594
-0.000287709
-6.96366e-05
-1.97006e-05
-2.67386e-05
-2.84221e-05
-1.99605e-05
-9.87572e-06
-3.7472e-06
-1.14494e-06
-2.83447e-07
-6.10961e-08
-1.10227e-08
-1.71051e-09
-2.28882e-10
-2.70018e-11
-2.86785e-12
-2.74251e-13
-2.64779e-14
-2.52997e-15
-2.6764e-16
-3.49949e-17
-5.95776e-18
-1.27281e-18
-3.13609e-19
-8.27247e-20
-2.24325e-20
-6.12383e-21
-1.66345e-21
-4.47734e-22
-1.19104e-22
-3.13418e-23
-8.13184e-24
-2.07603e-24
-5.18977e-25
-1.25713e-25
-2.88199e-26
-5.88971e-27
-8.7504e-28
1.80359e-29
5.18421e-29
-8.80723e-12
-3.71709e-11
-8.88253e-11
-1.89626e-10
-3.93824e-10
-8.18826e-10
-1.71743e-09
-3.62667e-09
-7.65967e-09
-1.60496e-08
-3.31289e-08
-6.70998e-08
-1.33399e-07
-2.59884e-07
-4.94546e-07
-9.13911e-07
-1.64467e-06
-2.8885e-06
-4.95364e-06
-8.82878e-06
-1.59674e-05
-2.92803e-05
-5.23644e-05
-8.74538e-05
-0.000134102
-0.000194457
-0.000273001
-0.000394582
-0.000550835
-0.000770145
-0.00106015
-0.00143245
-0.00188826
-0.00240596
-0.00294267
-0.00338085
-0.00359298
-0.00352295
-0.00332205
-0.00325976
-0.00337345
-0.00353895
-0.00345477
-0.00273107
-0.000798747
0.00299633
0.00931205
0.0187992
0.0314753
0.0448856
0.0485286
0.00333349
-0.0465737
-0.0261283
-0.014594
-0.00807781
-0.00437502
-0.00234292
-0.00123911
-0.000646394
-0.000266781
-6.07646e-05
-2.00229e-05
-2.79455e-05
-2.85681e-05
-1.93415e-05
-9.28423e-06
-3.43921e-06
-1.04625e-06
-2.46699e-07
-5.25678e-08
-9.37899e-09
-1.4466e-09
-1.93485e-10
-2.27986e-11
-2.42441e-12
-2.32144e-13
-2.24757e-14
-2.16401e-15
-2.30969e-16
-3.07528e-17
-5.37189e-18
-1.17957e-18
-2.97208e-19
-7.98283e-20
-2.19299e-20
-6.04475e-21
-1.65405e-21
-4.47962e-22
-1.19856e-22
-3.16535e-23
-8.24031e-24
-2.11004e-24
-5.28967e-25
-1.2854e-25
-2.96048e-26
-6.10638e-27
-9.34711e-28
2.15275e-30
4.90588e-29
-8.72345e-12
-3.67832e-11
-8.77945e-11
-1.87151e-10
-3.8801e-10
-8.05134e-10
-1.6855e-09
-3.55293e-09
-7.49166e-09
-1.56752e-08
-3.23217e-08
-6.544e-08
-1.29976e-07
-2.52966e-07
-4.81056e-07
-8.88799e-07
-1.59958e-06
-2.81496e-06
-4.82916e-06
-8.57445e-06
-1.54701e-05
-2.83628e-05
-5.08927e-05
-8.55987e-05
-0.000131922
-0.000191811
-0.000269616
-0.000390185
-0.000546686
-0.000764213
-0.00105427
-0.00142548
-0.00188689
-0.00241137
-0.00296029
-0.00341448
-0.00363936
-0.00357383
-0.00337145
-0.00329638
-0.00339573
-0.0035446
-0.00343346
-0.00266154
-0.000641013
0.00330348
0.00984399
0.019665
0.0326547
0.0460839
0.0482678
-0.0025191
-0.0453154
-0.0253884
-0.014158
-0.00782056
-0.00422843
-0.0022594
-0.00119338
-0.00061803
-0.000243537
-5.13736e-05
-2.06078e-05
-2.92243e-05
-2.85919e-05
-1.85596e-05
-8.60904e-06
-3.11334e-06
-9.25349e-07
-2.14904e-07
-4.52243e-08
-7.98096e-09
-1.21085e-09
-1.59414e-10
-1.85355e-11
-1.95141e-12
-1.85202e-13
-1.78171e-14
-1.72152e-15
-1.8828e-16
-2.59629e-17
-4.70322e-18
-1.06807e-18
-2.76085e-19
-7.55094e-20
-2.10199e-20
-5.85476e-21
-1.61515e-21
-4.40283e-22
-1.18428e-22
-3.14231e-23
-8.20932e-24
-2.10853e-24
-5.30145e-25
-1.29251e-25
-2.99045e-26
-6.21986e-27
-9.75729e-28
-1.17164e-29
4.60931e-29
-8.64411e-12
-3.64185e-11
-8.68379e-11
-1.849e-10
-3.82871e-10
-7.93489e-10
-1.65919e-09
-3.49372e-09
-7.35941e-09
-1.53832e-08
-3.16877e-08
-6.40916e-08
-1.27182e-07
-2.4736e-07
-4.70228e-07
-8.68829e-07
-1.56397e-06
-2.75244e-06
-4.71774e-06
-8.36394e-06
-1.50727e-05
-2.76345e-05
-4.96319e-05
-8.38969e-05
-0.000129747
-0.000189226
-0.000266686
-0.00038642
-0.000541177
-0.000759537
-0.00105023
-0.00140651
-0.00188793
-0.00241938
-0.00298021
-0.00344981
-0.00368707
-0.0036297
-0.00341995
-0.00333226
-0.00341834
-0.0035498
-0.00340892
-0.00258275
-0.000465183
0.00363969
0.0103984
0.0205391
0.0338507
0.0472933
0.0480169
-0.0100781
-0.0436698
-0.0244684
-0.0136363
-0.00752145
-0.00406463
-0.00216792
-0.00114434
-0.0005882
-0.000221232
-4.39393e-05
-2.15008e-05
-3.03023e-05
-2.83914e-05
-1.77385e-05
-7.97863e-06
-2.82538e-06
-8.21663e-07
-1.87967e-07
-3.9102e-08
-6.78372e-09
-1.01657e-09
-1.32525e-10
-1.53038e-11
-1.60494e-12
-1.51823e-13
-1.45908e-14
-1.4195e-15
-1.56766e-16
-2.21009e-17
-4.15988e-18
-9.75421e-19
-2.5775e-19
-7.13973e-20
-2.00733e-20
-5.63706e-21
-1.56524e-21
-4.28972e-22
-1.15902e-22
-3.08724e-23
-8.09084e-24
-2.08378e-24
-5.25333e-25
-1.28469e-25
-2.98478e-26
-6.2543e-27
-1.00173e-27
-2.37942e-29
4.30197e-29
-8.56893e-12
-3.60726e-11
-8.59302e-11
-1.82764e-10
-3.78e-10
-7.82481e-10
-1.63441e-09
-3.43822e-09
-7.23634e-09
-1.5114e-08
-3.11094e-08
-6.28785e-08
-1.24712e-07
-2.42505e-07
-4.61064e-07
-8.52361e-07
-1.53547e-06
-2.70422e-06
-4.63603e-06
-8.20368e-06
-1.47657e-05
-2.70559e-05
-4.85718e-05
-8.24271e-05
-0.000127942
-0.000187303
-0.000264423
-0.000383513
-0.000537968
-0.000756577
-0.00104828
-0.00142473
-0.00189221
-0.0024296
-0.00300141
-0.00348545
-0.00373492
-0.00368152
-0.00346644
-0.00336827
-0.00344177
-0.00355615
-0.00338464
-0.00250274
-0.000285799
0.00398397
0.0110037
0.0214887
0.0351434
0.0486104
0.0476561
-0.016717
-0.0420566
-0.0235501
-0.0131115
-0.00721552
-0.00389622
-0.00207345
-0.00109202
-0.000554221
-0.000197912
-3.6892e-05
-2.20643e-05
-3.09523e-05
-2.79965e-05
-1.69502e-05
-7.45997e-06
-2.54178e-06
-7.24973e-07
-1.64361e-07
-3.36766e-08
-5.77118e-09
-8.56014e-10
-1.10714e-10
-1.27131e-11
-1.329e-12
-1.25322e-13
-1.2032e-14
-1.17944e-15
-1.32547e-16
-1.91691e-17
-3.69914e-18
-8.85927e-19
-2.38014e-19
-6.70994e-20
-1.90829e-20
-5.40248e-21
-1.50865e-21
-4.15264e-22
-1.1259e-22
-3.0081e-23
-7.90172e-24
-2.03832e-24
-5.1498e-25
-1.26278e-25
-2.94469e-26
-6.2088e-27
-1.01089e-27
-3.30738e-29
4.01142e-29
-8.50027e-12
-3.57568e-11
-8.51023e-11
-1.80819e-10
-3.73576e-10
-7.72515e-10
-1.61207e-09
-3.38848e-09
-7.12671e-09
-1.48757e-08
-3.06007e-08
-6.18177e-08
-1.22563e-07
-2.38301e-07
-4.53156e-07
-8.38173e-07
-1.51088e-06
-2.66233e-06
-4.56386e-06
-8.05907e-06
-1.44875e-05
-2.65688e-05
-4.7689e-05
-8.12186e-05
-0.000126609
-0.000185869
-0.000262831
-0.000381547
-0.000535944
-0.000754856
-0.0010475
-0.00142568
-0.00189965
-0.00244087
-0.00302256
-0.00351888
-0.0037785
-0.00373876
-0.00350889
-0.00340095
-0.00346335
-0.00356088
-0.00335952
-0.0024236
-0.00011179
0.00431188
0.0115551
0.0223619
0.0364001
0.0497889
0.0472103
-0.0245784
-0.040237
-0.0225284
-0.0125555
-0.00685033
-0.0037023
-0.00196915
-0.00103745
-0.000519523
-0.000179401
-3.18036e-05
-2.2642e-05
-3.14591e-05
-2.75735e-05
-1.62464e-05
-7.00045e-06
-2.34653e-06
-6.59831e-07
-1.47943e-07
-3.00412e-08
-5.09909e-09
-7.5014e-10
-9.63336e-11
-1.10016e-11
-1.14609e-12
-1.07634e-13
-1.03341e-14
-1.01881e-15
-1.16084e-16
-1.71501e-17
-3.38563e-18
-8.24933e-19
-2.23883e-19
-6.33111e-20
-1.80522e-20
-5.12412e-21
-1.4347e-21
-3.96022e-22
-1.07692e-22
-2.88688e-23
-7.61212e-24
-1.97363e-24
-5.00605e-25
-1.23175e-25
-2.88281e-26
-6.11063e-27
-1.00785e-27
-3.99267e-29
3.74591e-29
-8.43852e-12
-3.54728e-11
-8.43575e-11
-1.7907e-10
-3.69601e-10
-7.63578e-10
-1.59209e-09
-3.34416e-09
-7.0295e-09
-1.46657e-08
-3.01549e-08
-6.0894e-08
-1.20705e-07
-2.34687e-07
-4.46396e-07
-8.26109e-07
-1.4901e-06
-2.62723e-06
-4.50422e-06
-7.9388e-06
-1.42687e-05
-2.6163e-05
-4.70262e-05
-8.03632e-05
-0.000125597
-0.000184747
-0.000261656
-0.000380206
-0.000534822
-0.000754256
-0.00104793
-0.00142823
-0.00190449
-0.00245321
-0.00304352
-0.00355113
-0.00381849
-0.00377572
-0.00354633
-0.00342996
-0.00348108
-0.00356243
-0.00333251
-0.00234496
5.74555e-05
0.00462857
0.0120915
0.02319
0.0375077
0.0508754
0.046799
-0.0314729
-0.038553
-0.0215835
-0.0120048
-0.00657163
-0.0035483
-0.00188432
-0.000992113
-0.000490844
-0.000160995
-2.72132e-05
-2.32269e-05
-3.1842e-05
-2.70996e-05
-1.5563e-05
-6.58004e-06
-2.16424e-06
-5.99694e-07
-1.33358e-07
-2.68881e-08
-4.53342e-09
-6.61858e-10
-8.44038e-11
-9.58482e-12
-9.94696e-13
-9.29757e-14
-8.92465e-15
-8.84599e-16
-1.02159e-16
-1.54089e-17
-3.1081e-18
-7.69571e-19
-2.11014e-19
-6.0065e-20
-1.72081e-20
-4.89383e-21
-1.37416e-21
-3.80206e-22
-1.03596e-22
-2.78205e-23
-7.34435e-24
-1.90514e-24
-4.83785e-25
-1.19242e-25
-2.79764e-26
-5.95392e-27
-9.91451e-28
-4.41095e-29
3.51213e-29
-8.3843e-12
-3.52234e-11
-8.37041e-11
-1.77536e-10
-3.66123e-10
-7.55775e-10
-1.5747e-09
-3.30573e-09
-6.94557e-09
-1.44851e-08
-2.97738e-08
-6.01084e-08
-1.19133e-07
-2.31649e-07
-4.40756e-07
-8.16153e-07
-1.47322e-06
-2.59935e-06
-4.45875e-06
-7.84635e-06
-1.40923e-05
-2.58471e-05
-4.6495e-05
-7.96348e-05
-0.000124793
-0.000183989
-0.000260928
-0.000379415
-0.000534741
-0.000754212
-0.00104916
-0.00143162
-0.00191195
-0.00246567
-0.00306409
-0.00358079
-0.00385449
-0.00380903
-0.00357961
-0.0034563
-0.0034981
-0.00356373
-0.00330497
-0.00226578
0.000224706
0.00493295
0.0125994
0.0239761
0.0385488
0.0519206
0.0462558
-0.0366725
-0.0370599
-0.0207482
-0.0115574
-0.00626643
-0.00338171
-0.00179515
-0.000945258
-0.000461969
-0.000144309
-2.37994e-05
-2.37461e-05
-3.20954e-05
-2.66249e-05
-1.49022e-05
-6.17817e-06
-2.00205e-06
-5.47056e-07
-1.20255e-07
-2.39717e-08
-4.00118e-09
-5.79271e-10
-7.33881e-11
-8.29346e-12
-8.58199e-13
-7.9884e-14
-7.67474e-15
-7.65846e-16
-8.9806e-17
-1.38592e-17
-2.86015e-18
-7.19893e-19
-1.9941e-19
-5.71232e-20
-1.64393e-20
-4.68976e-21
-1.32009e-21
-3.65983e-22
-9.9891e-23
-2.68688e-23
-7.10189e-24
-1.84423e-24
-4.68801e-25
-1.15676e-25
-2.71774e-26
-5.79689e-27
-9.70728e-28
-4.60578e-29
3.33434e-29
-8.33757e-12
-3.50085e-11
-8.31409e-11
-1.76216e-10
-3.63131e-10
-7.49074e-10
-1.5598e-09
-3.27291e-09
-6.87415e-09
-1.43322e-08
-2.94522e-08
-5.94476e-08
-1.17812e-07
-2.29093e-07
-4.35987e-07
-8.07663e-07
-1.4586e-06
-2.57477e-06
-4.41681e-06
-7.76142e-06
-1.39392e-05
-2.55737e-05
-4.60835e-05
-7.91365e-05
-0.000124244
-0.000183466
-0.000260491
-0.000379034
-0.000534983
-0.000754681
-0.00105096
-0.0014355
-0.0019195
-0.00247808
-0.00308308
-0.00360753
-0.00388674
-0.00382145
-0.00360946
-0.00347935
-0.00351277
-0.00356469
-0.00328086
-0.002197
0.000368443
0.00519311
0.013024
0.0245898
0.039266
0.0525084
0.0456331
-0.043018
-0.0356186
-0.0199543
-0.011118
-0.00602921
-0.00325277
-0.00172672
-0.000909677
-0.00043967
-0.000130863
-2.09036e-05
-2.41336e-05
-3.22739e-05
-2.60433e-05
-1.42604e-05
-5.83458e-06
-1.86836e-06
-5.04661e-07
-1.10335e-07
-2.18375e-08
-3.61692e-09
-5.20072e-10
-6.55297e-11
-7.37472e-12
-7.61194e-13
-7.05816e-14
-6.78486e-15
-6.80755e-16
-8.0847e-17
-1.27112e-17
-2.6709e-18
-6.80728e-19
-1.8999e-19
-5.46751e-20
-1.5786e-20
-4.51345e-21
-1.27271e-21
-3.5337e-22
-9.65722e-23
-2.60041e-23
-6.87998e-24
-1.78821e-24
-4.54946e-25
-1.12354e-25
-2.64234e-26
-5.64444e-27
-9.48526e-28
-4.67344e-29
3.1952e-29
-8.298e-12
-3.48264e-11
-8.26638e-11
-1.75098e-10
-3.60599e-10
-7.43415e-10
-1.54725e-09
-3.24535e-09
-6.81447e-09
-1.42052e-08
-2.91879e-08
-5.89105e-08
-1.16752e-07
-2.27069e-07
-4.32206e-07
-8.01091e-07
-1.4477e-06
-2.55715e-06
-4.38721e-06
-7.70034e-06
-1.38259e-05
-2.53685e-05
-4.57627e-05
-7.87257e-05
-0.000123835
-0.000183121
-0.000260242
-0.000378876
-0.000535136
-0.000755482
-0.00105281
-0.00143899
-0.0019269
-0.00248881
-0.00309947
-0.00363002
-0.00391269
-0.00384769
-0.00363259
-0.00349734
-0.00352344
-0.00356258
-0.00325544
-0.00213062
0.000503417
0.00543306
0.0134072
0.0251489
0.039925
0.0530098
0.0447606
-0.0474577
-0.034558
-0.0193422
-0.0107505
-0.00585901
-0.0031558
-0.00167328
-0.000880831
-0.000420926
-0.000120454
-1.9455e-05
-2.48238e-05
-3.24955e-05
-2.56894e-05
-1.38108e-05
-5.57628e-06
-1.76702e-06
-4.72141e-07
-1.02831e-07
-2.02419e-08
-3.33149e-09
-4.7622e-10
-5.97366e-11
-6.69964e-12
-6.90049e-13
-6.37709e-14
-6.13413e-15
-6.18324e-16
-7.42385e-17
-1.18522e-17
-2.52576e-18
-6.49823e-19
-1.82363e-19
-5.2651e-20
-1.52353e-20
-4.36268e-21
-1.23171e-21
-3.42354e-22
-9.36582e-23
-2.52216e-23
-6.67862e-24
-1.7372e-24
-4.42278e-25
-1.09299e-25
-2.57234e-26
-5.5002e-27
-9.26233e-28
-4.66131e-29
3.08484e-29
-8.26495e-12
-3.46742e-11
-8.2265e-11
-1.74164e-10
-3.58486e-10
-7.38698e-10
-1.53681e-09
-3.2225e-09
-6.7652e-09
-1.41009e-08
-2.89719e-08
-5.84743e-08
-1.15896e-07
-2.25443e-07
-4.29172e-07
-7.95872e-07
-1.4389e-06
-2.54219e-06
-4.36196e-06
-7.65043e-06
-1.37325e-05
-2.52087e-05
-4.55207e-05
-7.84256e-05
-0.000123534
-0.000182891
-0.000260128
-0.000378895
-0.000535487
-0.000756428
-0.00105488
-0.00144279
-0.00193337
-0.00249877
-0.0031139
-0.00364923
-0.00393435
-0.00386951
-0.00365149
-0.00351208
-0.00353216
-0.0035604
-0.00323313
-0.00206294
0.000632289
0.00566077
0.0137767
0.025703
0.0406448
0.053614
0.0438127
-0.0498874
-0.0337272
-0.0188672
-0.0104859
-0.0056992
-0.00306769
-0.0016257
-0.000855464
-0.000403961
-0.000110543
-1.74819e-05
-2.50413e-05
-3.25177e-05
-2.53271e-05
-1.34302e-05
-5.35649e-06
-1.68696e-06
-4.46662e-07
-9.72247e-08
-1.90555e-08
-3.12566e-09
-4.4473e-10
-5.55748e-11
-6.21372e-12
-6.38712e-13
-5.8847e-14
-5.66254e-15
-5.73037e-16
-6.94058e-17
-1.12122e-17
-2.41434e-18
-6.25312e-19
-1.76149e-19
-5.0969e-20
-1.47702e-20
-4.23389e-21
-1.19636e-21
-3.32774e-22
-9.1104e-23
-2.45398e-23
-6.50186e-24
-1.69212e-24
-4.31013e-25
-1.06564e-25
-2.50912e-26
-5.36803e-27
-9.04979e-28
-4.60253e-29
2.99684e-29
-8.23768e-12
-3.45485e-11
-8.19353e-11
-1.73391e-10
-3.56739e-10
-7.34801e-10
-1.5282e-09
-3.20369e-09
-6.72475e-09
-1.40156e-08
-2.87961e-08
-5.81217e-08
-1.15211e-07
-2.24163e-07
-4.26833e-07
-7.9184e-07
-1.432e-06
-2.53092e-06
-4.34356e-06
-7.61258e-06
-1.3663e-05
-2.50861e-05
-4.53268e-05
-7.81831e-05
-0.000123302
-0.000182748
-0.00026012
-0.000379055
-0.000535997
-0.000757434
-0.00105702
-0.00144656
-0.00193657
-0.00250786
-0.00312675
-0.00366599
-0.00395317
-0.00388777
-0.00366718
-0.00352421
-0.00353911
-0.00355804
-0.00321426
-0.00201634
0.000721146
0.00580913
0.0139999
0.0260005
0.0409444
0.0536801
0.0429225
-0.0525982
-0.0329425
-0.0184375
-0.0102557
-0.00555311
-0.0029888
-0.00158397
-0.000833581
-0.000390137
-0.000103395
-1.66199e-05
-2.545e-05
-3.25781e-05
-2.50361e-05
-1.31307e-05
-5.19322e-06
-1.62483e-06
-4.26674e-07
-9.28537e-08
-1.81084e-08
-2.95552e-09
-4.18845e-10
-5.21654e-11
-5.81736e-12
-5.96997e-13
-5.48574e-14
-5.28067e-15
-5.36302e-16
-6.54638e-17
-1.06867e-17
-2.32225e-18
-6.04921e-19
-1.70943e-19
-4.95501e-20
-1.43754e-20
-4.12393e-21
-1.16602e-21
-3.2451e-22
-8.8889e-23
-2.39535e-23
-6.34906e-24
-1.65296e-24
-4.2118e-25
-1.04164e-25
-2.45331e-26
-5.25019e-27
-8.8555e-28
-4.52281e-29
2.92581e-29
-8.21541e-12
-3.44458e-11
-8.16655e-11
-1.72758e-10
-3.55305e-10
-7.316e-10
-1.52112e-09
-3.1882e-09
-6.69134e-09
-1.39449e-08
-2.86494e-08
-5.78253e-08
-1.14629e-07
-2.23059e-07
-4.24774e-07
-7.8819e-07
-1.42604e-06
-2.52148e-06
-4.32876e-06
-7.58254e-06
-1.361e-05
-2.4992e-05
-4.51849e-05
-7.80174e-05
-0.000123162
-0.000182687
-0.000260184
-0.000379293
-0.00053658
-0.000758602
-0.00105913
-0.00143077
-0.00194465
-0.00251551
-0.00313771
-0.00368026
-0.00396872
-0.00390264
-0.0036797
-0.0035334
-0.00354308
-0.00355226
-0.00319091
-0.00196311
0.000819746
0.00597185
0.0142469
0.026342
0.0413332
0.0538779
0.0420336
-0.0538549
-0.0323872
-0.0181255
-0.0100794
-0.00545381
-0.00293416
-0.00155492
-0.000818177
-0.000379913
-9.83718e-05
-1.64222e-05
-2.5992e-05
-3.26832e-05
-2.48054e-05
-1.28822e-05
-5.06268e-06
-1.57541e-06
-4.10936e-07
-8.94149e-08
-1.73788e-08
-2.82665e-09
-3.99292e-10
-4.95915e-11
-5.51801e-12
-5.65424e-13
-5.18613e-14
-4.99381e-15
-5.08684e-16
-6.24853e-17
-1.02836e-17
-2.24991e-18
-5.88509e-19
-1.66675e-19
-4.83721e-20
-1.40448e-20
-4.03136e-21
-1.14037e-21
-3.17503e-22
-8.70044e-23
-2.34536e-23
-6.21852e-24
-1.61943e-24
-4.12738e-25
-1.02099e-25
-2.40509e-26
-5.14779e-27
-8.68421e-28
-4.43964e-29
2.86787e-29
-8.19756e-12
-3.43633e-11
-8.14487e-11
-1.72249e-10
-3.54152e-10
-7.29025e-10
-1.51542e-09
-3.17573e-09
-6.66447e-09
-1.3888e-08
-2.85315e-08
-5.75868e-08
-1.14162e-07
-2.22175e-07
-4.23129e-07
-7.85478e-07
-1.42171e-06
-2.5146e-06
-4.3176e-06
-7.55946e-06
-1.35669e-05
-2.49181e-05
-4.50754e-05
-7.78981e-05
-0.000123076
-0.000182684
-0.000260303
-0.000379618
-0.000537375
-0.000760344
-0.00106316
-0.00145948
-0.00194871
-0.00252322
-0.00314732
-0.0036921
-0.00398118
-0.0039144
-0.00368959
-0.00354072
-0.0035463
-0.00354769
-0.00317226
-0.00192038
0.000899311
0.00610272
0.0144447
0.0266146
0.0416347
0.0539944
0.0411466
-0.054553
-0.0320591
-0.0179373
-0.00997123
-0.00539467
-0.00290043
-0.00153635
-0.000807892
-0.000372224
-9.41482e-05
-1.60704e-05
-2.63464e-05
-3.27241e-05
-2.45931e-05
-1.26731e-05
-4.95358e-06
-1.53543e-06
-3.98308e-07
-8.66488e-08
-1.67982e-08
-2.7246e-09
-3.83859e-10
-4.75642e-11
-5.2828e-12
-5.40018e-13
-4.96762e-14
-4.78366e-15
-4.88316e-16
-6.02645e-17
-9.97801e-18
-2.19381e-18
-5.75494e-19
-1.63231e-19
-4.74101e-20
-1.37728e-20
-3.95475e-21
-1.11906e-21
-3.11662e-22
-8.54293e-23
-2.3035e-23
-6.10896e-24
-1.59124e-24
-4.0563e-25
-1.00356e-25
-2.36432e-26
-5.0609e-27
-8.53768e-28
-4.36227e-29
2.82054e-29
-8.18362e-12
-3.42988e-11
-8.1279e-11
-1.7185e-10
-3.53249e-10
-7.2701e-10
-1.51097e-09
-3.16601e-09
-6.64355e-09
-1.38438e-08
-2.84402e-08
-5.74036e-08
-1.13807e-07
-2.21515e-07
-4.21916e-07
-7.8343e-07
-1.41831e-06
-2.50916e-06
-4.30885e-06
-7.54169e-06
-1.35363e-05
-2.48656e-05
-4.49992e-05
-7.78151e-05
-0.000123022
-0.00018269
-0.000260389
-0.000379791
-0.00053765
-0.000760523
-0.00106258
-0.00145414
-0.00195311
-0.0025281
-0.00315495
-0.0037021
-0.00399184
-0.00392446
-0.00369816
-0.00354739
-0.00354979
-0.00354473
-0.00315714
-0.00188405
0.000969201
0.00622236
0.0146355
0.0268977
0.0419884
0.0542131
0.0402012
-0.054902
-0.0319516
-0.017859
-0.00991853
-0.00536326
-0.00288149
-0.00152545
-0.000801463
-0.000366649
-9.08341e-05
-1.57393e-05
-2.66027e-05
-3.27534e-05
-2.44224e-05
-1.25052e-05
-4.86457e-06
-1.50293e-06
-3.87858e-07
-8.43727e-08
-1.63201e-08
-2.64091e-09
-3.71255e-10
-4.5915e-11
-5.09216e-12
-5.19521e-13
-4.79139e-14
-4.61465e-15
-4.71975e-16
-5.84858e-17
-9.73294e-18
-2.14865e-18
-5.64975e-19
-1.6044e-19
-4.66293e-20
-1.35516e-20
-3.89235e-21
-1.10167e-21
-3.06886e-22
-8.41396e-23
-2.26917e-23
-6.01904e-24
-1.56808e-24
-3.99784e-25
-9.89213e-26
-2.33071e-26
-4.98913e-27
-8.416e-28
-4.29479e-29
2.7824e-29
-8.17313e-12
-3.42502e-11
-8.11511e-11
-1.7155e-10
-3.52569e-10
-7.25494e-10
-1.50763e-09
-3.15875e-09
-6.62808e-09
-1.38115e-08
-2.83741e-08
-5.7272e-08
-1.13552e-07
-2.21032e-07
-4.21005e-07
-7.81847e-07
-1.4157e-06
-2.50506e-06
-4.30242e-06
-7.5284e-06
-1.35124e-05
-2.4825e-05
-4.49419e-05
-7.77573e-05
-0.000122989
-0.000182714
-0.000260492
-0.000380001
-0.000538045
-0.000761156
-0.00106362
-0.00145579
-0.00195589
-0.00253266
-0.0031613
-0.00371004
-0.00400018
-0.0039324
-0.00370512
-0.00355327
-0.00355393
-0.00354513
-0.00315031
-0.00186454
0.00100812
0.0062878
0.0147333
0.0270221
0.042093
0.0541577
0.0396369
-0.0551551
-0.0317377
-0.0177476
-0.00985537
-0.00533743
-0.00286683
-0.00151738
-0.000796893
-0.000362712
-8.85065e-05
-1.55642e-05
-2.68325e-05
-3.28006e-05
-2.4303e-05
-1.23796e-05
-4.79406e-06
-1.47783e-06
-3.79878e-07
-8.26393e-08
-1.59543e-08
-2.57704e-09
-3.61669e-10
-4.46651e-11
-4.94799e-12
-5.04021e-13
-4.65821e-14
-4.48715e-15
-4.59636e-16
-5.71352e-17
-9.54517e-18
-2.11373e-18
-5.56782e-19
-1.58255e-19
-4.60156e-20
-1.33773e-20
-3.84311e-21
-1.08793e-21
-3.03111e-22
-8.31192e-23
-2.242e-23
-5.94782e-24
-1.54973e-24
-3.95147e-25
-9.77824e-26
-2.304e-26
-4.93198e-27
-8.31869e-28
-4.23854e-29
2.75273e-29
-8.16571e-12
-3.42158e-11
-8.10608e-11
-1.71338e-10
-3.52092e-10
-7.24436e-10
-1.50531e-09
-3.15373e-09
-6.61733e-09
-1.37887e-08
-2.83266e-08
-5.71746e-08
-1.13358e-07
-2.20665e-07
-4.2033e-07
-7.80739e-07
-1.41393e-06
-2.50231e-06
-4.29811e-06
-7.51946e-06
-1.34965e-05
-2.47981e-05
-4.49042e-05
-7.77204e-05
-0.000122974
-0.000182741
-0.000260581
-0.00038018
-0.00053839
-0.000761767
-0.0010647
-0.00145765
-0.00195595
-0.0025364
-0.00316609
-0.00371587
-0.00400623
-0.00393817
-0.0037103
-0.00355788
-0.00355765
-0.00354659
-0.00314682
-0.00185112
0.00103932
0.00634814
0.014837
0.0271799
0.0422833
0.0542442
0.0389951
-0.0552873
-0.0316965
-0.0177143
-0.00983477
-0.00531667
-0.00285523
-0.00151118
-0.000793515
-0.000359952
-8.69446e-05
-1.55112e-05
-2.70429e-05
-3.28613e-05
-2.42289e-05
-1.22948e-05
-4.75858e-06
-1.46169e-06
-3.74527e-07
-8.14668e-08
-1.57064e-08
-2.53352e-09
-3.551e-10
-4.38037e-11
-4.84826e-12
-4.93302e-13
-4.5655e-14
-4.39765e-15
-4.50876e-16
-5.61654e-17
-9.40973e-18
-2.0886e-18
-5.50904e-19
-1.56687e-19
-4.55746e-20
-1.32516e-20
-3.80745e-21
-1.07793e-21
-3.00346e-22
-8.23674e-23
-2.22187e-23
-5.89484e-24
-1.53603e-24
-3.91683e-25
-9.69303e-26
-2.28399e-26
-4.88906e-27
-8.24515e-28
-4.19368e-29
2.73117e-29
-8.16096e-12
-3.41939e-11
-8.10029e-11
-1.71202e-10
-3.51782e-10
-7.23741e-10
-1.50377e-09
-3.15032e-09
-6.60988e-09
-1.37729e-08
-2.82937e-08
-5.71089e-08
-1.13232e-07
-2.20433e-07
-4.19903e-07
-7.80026e-07
-1.41281e-06
-2.50058e-06
-4.29546e-06
-7.51397e-06
-1.34868e-05
-2.47817e-05
-4.48813e-05
-7.76985e-05
-0.000122965
-0.000182758
-0.000260629
-0.000380258
-0.000538219
-0.000762117
-0.00106535
-0.0014587
-0.0019574
-0.00253868
-0.00316912
-0.00371959
-0.00401008
-0.00394185
-0.00371365
-0.00356099
-0.00356045
-0.00354834
-0.0031459
-0.00184449
0.0010565
0.00638236
0.0148954
0.027265
0.0423747
0.05426
0.0386574
-0.0553464
-0.0316127
-0.017665
-0.00980569
-0.00530173
-0.00284807
-0.00150769
-0.000791729
-0.000358604
-8.65078e-05
-1.58803e-05
-2.73414e-05
-3.2948e-05
-2.41927e-05
-1.22419e-05
-4.72882e-06
-1.4509e-06
-3.70968e-07
-8.06944e-08
-1.55434e-08
-2.50495e-09
-3.50795e-10
-4.32404e-11
-4.78306e-12
-4.86297e-13
-4.5051e-14
-4.33942e-15
-4.45175e-16
-5.55337e-17
-9.32128e-18
-2.07215e-18
-5.47049e-19
-1.5566e-19
-4.52865e-20
-1.31699e-20
-3.78435e-21
-1.07148e-21
-2.98571e-22
-8.1886e-23
-2.20899e-23
-5.86081e-24
-1.52718e-24
-3.89427e-25
-9.63712e-26
-2.27077e-26
-4.86052e-27
-8.19578e-28
-4.16179e-29
2.7173e-29
-8.15859e-12
-3.41828e-11
-8.09737e-11
-1.71133e-10
-3.51626e-10
-7.23392e-10
-1.503e-09
-3.14864e-09
-6.6063e-09
-1.37653e-08
-2.82782e-08
-5.70779e-08
-1.13172e-07
-2.20322e-07
-4.197e-07
-7.7969e-07
-1.41227e-06
-2.49977e-06
-4.29421e-06
-7.51134e-06
-1.34821e-05
-2.47738e-05
-4.48703e-05
-7.76882e-05
-0.000122961
-0.000182764
-0.000260642
-0.000380249
-0.000538056
-0.000762207
-0.00106554
-0.00145885
-0.00196125
-0.00253945
-0.00317047
-0.00372134
-0.0040119
-0.00394358
-0.00371522
-0.00356248
-0.00356193
-0.00354971
-0.00314701
-0.00184511
0.00105628
0.00638139
0.0148889
0.0272393
0.0423035
0.0541343
0.0387371
-0.0552547
-0.0314547
-0.017584
-0.00974525
-0.00531937
-0.00285463
-0.00150991
-0.00079228
-0.000357987
-8.56011e-05
-1.55557e-05
-2.72993e-05
-3.2929e-05
-2.41511e-05
-1.22069e-05
-4.71105e-06
-1.44474e-06
-3.69014e-07
-8.02692e-08
-1.5455e-08
-2.48965e-09
-3.48514e-10
-4.29447e-11
-4.74907e-12
-4.82655e-13
-4.47363e-14
-4.30903e-15
-4.42207e-16
-5.52056e-17
-9.27508e-18
-2.06341e-18
-5.44965e-19
-1.55099e-19
-4.51281e-20
-1.31248e-20
-3.77164e-21
-1.06794e-21
-2.976e-22
-8.16242e-23
-2.20204e-23
-5.84269e-24
-1.52254e-24
-3.88258e-25
-9.60849e-26
-2.26406e-26
-4.84613e-27
-8.17104e-28
-4.14613e-29
2.71026e-29
-8.15854e-12
-3.41826e-11
-8.09732e-11
-1.71131e-10
-3.51622e-10
-7.23385e-10
-1.50298e-09
-3.14861e-09
-6.60624e-09
-1.37652e-08
-2.82781e-08
-5.70777e-08
-1.13172e-07
-2.20323e-07
-4.19701e-07
-7.79693e-07
-1.41228e-06
-2.49978e-06
-4.29424e-06
-7.51138e-06
-1.34821e-05
-2.4774e-05
-4.48706e-05
-7.7689e-05
-0.000122963
-0.00018277
-0.000260657
-0.000380301
-0.000538003
-0.000762258
-0.00106556
-0.00145887
-0.00196072
-0.00253944
-0.00317042
-0.00372127
-0.00401181
-0.00394344
-0.00371498
-0.00356202
-0.00356095
-0.00354781
-0.00314349
-0.00183877
0.00106744
0.00640096
0.0149235
0.0273011
0.0424059
0.0542502
0.0385235
-0.0553294
-0.0315825
-0.0176486
-0.00979676
-0.0052985
-0.00284578
-0.00150624
-0.000790731
-0.000357414
-8.57012e-05
-1.57557e-05
-2.73659e-05
-3.293e-05
-2.41416e-05
-1.22013e-05
-4.70877e-06
-1.44408e-06
-3.6884e-07
-8.02303e-08
-1.54475e-08
-2.48843e-09
-3.48341e-10
-4.2923e-11
-4.74665e-12
-4.82403e-13
-4.47148e-14
-4.30699e-15
-4.42016e-16
-5.51868e-17
-9.27276e-18
-2.06299e-18
-5.44863e-19
-1.55071e-19
-4.51201e-20
-1.31225e-20
-3.77097e-21
-1.06775e-21
-2.97548e-22
-8.16106e-23
-2.20169e-23
-5.84184e-24
-1.52234e-24
-3.88212e-25
-9.6075e-26
-2.26386e-26
-4.84577e-27
-8.17059e-28
-4.14632e-29
2.71e-29
-8.16083e-12
-3.41932e-11
-8.10011e-11
-1.71197e-10
-3.51771e-10
-7.23716e-10
-1.50371e-09
-3.1502e-09
-6.60966e-09
-1.37724e-08
-2.8293e-08
-5.71078e-08
-1.13231e-07
-2.20432e-07
-4.19903e-07
-7.80031e-07
-1.41282e-06
-2.50062e-06
-4.29553e-06
-7.51406e-06
-1.34869e-05
-2.4782e-05
-4.48821e-05
-7.77003e-05
-0.000122969
-0.000182766
-0.000260647
-0.000380306
-0.000538618
-0.000762127
-0.00106526
-0.00145844
-0.0019587
-0.00253834
-0.00316888
-0.00371935
-0.0040098
-0.00394147
-0.00371307
-0.00355996
-0.00355864
-0.0035453
-0.00314121
-0.00183781
0.00106501
0.00639207
0.0149049
0.0272721
0.0423752
0.0542526
0.038688
-0.0553075
-0.0316338
-0.0176819
-0.00981738
-0.0053072
-0.00284968
-0.00150802
-0.000791637
-0.000358195
-8.6117e-05
-1.57329e-05
-2.7291e-05
-3.29107e-05
-2.41657e-05
-1.22282e-05
-4.72338e-06
-1.44932e-06
-3.70554e-07
-8.06016e-08
-1.55255e-08
-2.50203e-09
-3.50379e-10
-4.31894e-11
-4.77745e-12
-4.85705e-13
-4.49997e-14
-4.33442e-15
-4.44695e-16
-5.54837e-17
-9.3146e-18
-2.07085e-18
-5.4672e-19
-1.55569e-19
-4.52604e-20
-1.31624e-20
-3.78225e-21
-1.0709e-21
-2.98413e-22
-8.18447e-23
-2.20794e-23
-5.85827e-24
-1.52659e-24
-3.89293e-25
-9.63424e-26
-2.27019e-26
-4.85947e-27
-8.19438e-28
-4.16203e-29
2.7166e-29
-8.16562e-12
-3.42154e-11
-8.10597e-11
-1.71335e-10
-3.52083e-10
-7.24412e-10
-1.50525e-09
-3.15355e-09
-6.61685e-09
-1.37876e-08
-2.83244e-08
-5.7171e-08
-1.13354e-07
-2.20663e-07
-4.20332e-07
-7.80753e-07
-1.41397e-06
-2.5024e-06
-4.29827e-06
-7.51973e-06
-1.3497e-05
-2.4799e-05
-4.49059e-05
-7.7723e-05
-0.000122977
-0.000182745
-0.000260585
-0.000380184
-0.000538388
-0.000761729
-0.00106459
-0.00145738
-0.00195692
-0.00253602
-0.00316575
-0.00371549
-0.00400579
-0.00393765
-0.0037096
-0.00355677
-0.00355576
-0.00354344
-0.00314184
-0.00184368
0.00104964
0.00636136
0.0148524
0.0271956
0.0422941
0.0542444
0.039023
-0.055249
-0.0317076
-0.0177244
-0.00984192
-0.00532056
-0.00285703
-0.00151192
-0.000793787
-0.000360019
-8.71373e-05
-1.5763e-05
-2.71596e-05
-3.28774e-05
-2.42161e-05
-1.22842e-05
-4.75371e-06
-1.46018e-06
-3.7409e-07
-8.13683e-08
-1.56866e-08
-2.53025e-09
-3.54651e-10
-4.37483e-11
-4.8419e-12
-4.92635e-13
-4.55982e-14
-4.39213e-15
-4.50332e-16
-5.61079e-17
-9.40265e-18
-2.08744e-18
-5.50648e-19
-1.56621e-19
-4.55569e-20
-1.32469e-20
-3.80616e-21
-1.07758e-21
-3.00252e-22
-8.23425e-23
-2.22121e-23
-5.8931e-24
-1.53558e-24
-3.91568e-25
-9.69026e-26
-2.28336e-26
-4.88781e-27
-8.24326e-28
-4.19335e-29
2.7304e-29
-8.1731e-12
-3.42501e-11
-8.1151e-11
-1.7155e-10
-3.5257e-10
-7.25498e-10
-1.50764e-09
-3.15877e-09
-6.62805e-09
-1.38112e-08
-2.83732e-08
-5.7269e-08
-1.13544e-07
-2.21018e-07
-4.2099e-07
-7.81854e-07
-1.41576e-06
-2.50519e-06
-4.30263e-06
-7.52873e-06
-1.35129e-05
-2.4826e-05
-4.49438e-05
-7.77602e-05
-0.000122993
-0.000182718
-0.000260496
-0.000380002
-0.000538039
-0.000761131
-0.00106356
-0.00145567
-0.00195579
-0.0025324
-0.00316096
-0.00370958
-0.00399967
-0.00393187
-0.00370455
-0.00355251
-0.00355279
-0.00354335
-0.00314752
-0.00185993
0.00101625
0.00630259
0.0147595
0.0270674
0.042163
0.0542352
0.0395283
-0.0551488
-0.0318068
-0.0177792
-0.00987332
-0.0053379
-0.00286699
-0.00151747
-0.000796958