/*--------------------------------*- C++ -*----------------------------------*\
  =========                 |
  \\      /  F ield         | OpenFOAM: The Open Source CFD Toolbox
   \\    /   O peration     | Website:  https://openfoam.org
    \\  /    A nd           | Version:  10
     \\/     M anipulation  |
\*---------------------------------------------------------------------------*/
FoamFile
{
    format      ascii;
    class       volScalarField;
    location    "1";
    object      RR.N2O;
}
// * * * * * * * * * * * * * * * * * * * * * * * * * * * * * * * * * * * * * //

dimensions      [1 -3 -1 0 0 0 0];

internalField   nonuniform List<scalar> 
4000
(
1.06868e-14
1.55264e-13
6.75909e-13
2.15728e-12
5.96016e-12
1.51701e-11
3.66163e-11
8.50153e-11
1.91107e-10
4.16867e-10
8.83176e-10
1.82101e-09
3.66515e-09
7.21765e-09
1.39095e-08
2.61196e-08
4.7882e-08
8.5359e-08
1.45031e-07
2.43647e-07
3.93264e-07
6.23437e-07
9.80443e-07
1.50163e-06
2.26737e-06
3.36644e-06
4.89894e-06
6.94489e-06
9.44654e-06
1.22615e-05
1.48354e-05
1.60351e-05
1.37401e-05
4.10755e-06
-1.90033e-05
-6.49921e-05
-0.000146592
-0.000280275
-0.000484315
-0.000778118
-0.00119074
-0.00174575
-0.00245161
-0.00327738
-0.00409988
-0.00450609
-0.00363643
-7.15577e-05
0.00799394
0.0219239
0.0400438
0.0406445
-0.0383147
-0.0236486
-0.0170598
-0.0156821
-0.0108479
0.00134878
0.00902923
0.00926809
0.00595195
0.00265693
0.000888805
0.000256166
6.72678e-05
1.59263e-05
3.93822e-06
9.51824e-07
2.03639e-07
4.11795e-08
8.20643e-09
1.42083e-09
2.13112e-10
2.73477e-11
3.00705e-12
2.97009e-13
2.62597e-14
2.57724e-15
3.33712e-16
6.76701e-17
1.8287e-17
5.41286e-18
1.59753e-18
4.66881e-19
1.36391e-19
4.10184e-20
1.17019e-20
3.4115e-21
3.70828e-22
4.2753e-22
-1.98832e-23
-1.04017e-23
-7.05123e-24
-3.5215e-24
-1.242e-24
-5.28391e-25
1.68794e-24
1.79717e-25
-7.61847e-26
-2.03519e-27
1.05646e-14
1.53476e-13
6.68081e-13
2.13241e-12
5.89171e-12
1.49928e-11
3.61787e-11
8.39602e-11
1.88591e-10
4.1092e-10
8.69303e-10
1.78943e-09
3.5936e-09
7.06379e-09
1.35982e-08
2.55213e-08
4.67091e-08
8.31736e-08
1.41448e-07
2.38342e-07
3.85169e-07
6.10456e-07
9.61115e-07
1.47658e-06
2.23449e-06
3.32663e-06
4.85332e-06
6.90846e-06
9.429e-06
1.22924e-05
1.49555e-05
1.63226e-05
1.43116e-05
5.06204e-06
-1.75476e-05
-6.29221e-05
-0.000143852
-0.000276958
-0.000481146
-0.000775627
-0.00118966
-0.00174699
-0.00245537
-0.00328264
-0.0041012
-0.00448798
-0.00356232
0.000117164
0.00837212
0.0225427
0.0407065
0.0390418
-0.0380731
-0.0235791
-0.0171497
-0.0158276
-0.0105397
0.00188885
0.00932512
0.00929087
0.00581783
0.00253681
0.00083477
0.000237941
6.16536e-05
1.46091e-05
3.62125e-06
8.68804e-07
1.84399e-07
3.70216e-08
7.31969e-09
1.25705e-09
1.87023e-10
2.37173e-11
2.60453e-12
2.56912e-13
2.29365e-14
2.30811e-15
3.13535e-16
6.65455e-17
1.83978e-17
5.50458e-18
1.64289e-18
4.9031e-19
1.47482e-19
4.22075e-20
1.19454e-20
3.2199e-21
9.78185e-22
3.7341e-22
2.4123e-23
5.07171e-23
1.17607e-24
-1.01369e-23
-7.69409e-25
2.9455e-24
9.69134e-25
8.64959e-25
-3.79171e-26
1.32331e-26
1.04412e-14
1.51695e-13
6.60418e-13
2.10829e-12
5.82632e-12
1.48318e-11
3.5785e-11
8.29933e-11
1.86208e-10
4.05035e-10
8.54727e-10
1.75314e-09
3.51233e-09
6.89149e-09
1.32479e-08
2.48473e-08
4.55167e-08
8.09518e-08
1.3762e-07
2.32064e-07
3.75566e-07
5.968e-07
9.38223e-07
1.45537e-06
2.20326e-06
3.28657e-06
4.80538e-06
6.86636e-06
9.41208e-06
1.23435e-05
1.51455e-05
1.67512e-05
1.51228e-05
6.42783e-06
-1.54882e-05
-6.00421e-05
-0.000140175
-0.000272853
-0.00047715
-0.000772789
-0.00118929
-0.00175045
-0.0024631
-0.00329352
-0.0041074
-0.00446714
-0.00347014
0.000355479
0.00884507
0.0232799
0.0413719
0.0355952
-0.0377279
-0.0234858
-0.0172967
-0.0160441
-0.00992975
0.00274706
0.00968867
0.00925909
0.00559249
0.00236681
0.000763982
0.000215159
5.49887e-05
1.30174e-05
3.23978e-06
7.70858e-07
1.62464e-07
3.22791e-08
6.3442e-09
1.07956e-09
1.59629e-10
2.02153e-11
2.21974e-12
2.18962e-13
1.97657e-14
2.03988e-15
2.9166e-16
6.4687e-17
1.82598e-17
5.51248e-18
1.67066e-18
5.15318e-19
1.47014e-19
4.22208e-20
1.3003e-20
3.87699e-21
9.66015e-22
4.47512e-22
3.91639e-25
1.37821e-23
-1.20331e-24
-1.57264e-23
4.09748e-24
3.94258e-24
-9.41456e-25
5.67109e-25
2.4994e-25
3.99664e-26
1.02735e-14
1.49243e-13
6.49582e-13
2.07287e-12
5.72498e-12
1.45609e-11
3.51e-11
8.13289e-11
1.82297e-10
3.96148e-10
8.35322e-10
1.71286e-09
3.42863e-09
6.72029e-09
1.29072e-08
2.41957e-08
4.43184e-08
7.90025e-08
1.34518e-07
2.26729e-07
3.67365e-07
5.84589e-07
9.20324e-07
1.43239e-06
2.17426e-06
3.25066e-06
4.76412e-06
6.83384e-06
9.40966e-06
1.24129e-05
1.53554e-05
1.71879e-05
1.59277e-05
7.79384e-06
-1.33874e-05
-5.70936e-05
-0.000136425
-0.000268811
-0.000473373
-0.000770801
-0.00119051
-0.00175635
-0.00247383
-0.00330619
-0.00410931
-0.00442517
-0.0033143
0.000744617
0.00958747
0.0244212
0.042387
0.0314327
-0.0372916
-0.0233601
-0.0174802
-0.0162704
-0.00913772
0.0037975
0.0101392
0.00920466
0.00534542
0.00218209
0.00068823
0.000191796
4.84197e-05
1.1334e-05
2.84454e-06
6.67994e-07
1.4086e-07
2.78726e-08
5.44658e-09
9.19035e-10
1.33657e-10
1.66353e-11
1.80584e-12
1.7584e-13
1.59639e-14
1.69359e-15
2.58356e-16
6.09694e-17
1.77403e-17
5.43328e-18
1.67052e-18
5.09358e-19
1.47299e-19
4.34892e-20
1.30153e-20
4.08615e-21
1.03164e-21
2.46667e-22
1.28087e-22
-4.26718e-23
-1.24966e-23
8.91578e-24
-2.04192e-24
-1.16768e-24
-4.36593e-25
6.88253e-25
1.03096e-26
-2.63416e-26
1.01102e-14
1.4687e-13
6.39235e-13
2.03968e-12
5.63251e-12
1.43226e-11
3.45158e-11
7.99467e-11
1.79117e-10
3.89016e-10
8.19698e-10
1.67946e-09
3.35899e-09
6.57905e-09
1.26294e-08
2.36711e-08
4.33632e-08
7.73343e-08
1.31742e-07
2.22313e-07
3.60828e-07
5.75037e-07
9.05508e-07
1.41289e-06
2.14818e-06
3.21789e-06
4.73135e-06
6.81339e-06
9.42171e-06
1.25026e-05
1.55786e-05
1.76324e-05
1.6719e-05
9.09805e-06
-1.14275e-05
-5.43989e-05
-0.000133114
-0.000265251
-0.000470621
-0.000770149
-0.00119348
-0.00176444
-0.00248704
-0.00332045
-0.00410923
-0.00437259
-0.00313682
0.00116774
0.0103921
0.0256531
0.0434871
0.0253938
-0.03653
-0.0230871
-0.0176105
-0.0163972
-0.00823002
0.00478818
0.0104699
0.00907235
0.00508449
0.00201187
0.000622195
0.000171025
4.26795e-05
9.91107e-06
2.51103e-06
5.85454e-07
1.22651e-07
2.41694e-08
4.69036e-09
7.79117e-10
1.11909e-10
1.37756e-11
1.48762e-12
1.44081e-13
1.32393e-14
1.45073e-15
2.34491e-16
5.76e-17
1.70778e-17
5.27835e-18
1.62771e-18
4.93528e-19
1.44742e-19
4.43084e-20
1.16885e-20
4.0611e-21
1.4552e-21
3.78299e-22
-3.80224e-23
3.06294e-23
9.87014e-25
7.53545e-24
7.30706e-24
-3.90278e-24
-1.51956e-24
1.07152e-25
2.28829e-25
-1.64108e-26
9.95126e-15
1.4456e-13
6.29152e-13
2.00735e-12
5.5425e-12
1.40913e-11
3.39508e-11
7.86171e-11
1.76082e-10
3.8227e-10
8.05083e-10
1.64864e-09
3.29588e-09
6.45378e-09
1.2389e-08
2.32299e-08
4.25866e-08
7.60345e-08
1.29694e-07
2.18933e-07
3.55785e-07
5.67565e-07
8.9343e-07
1.3968e-06
2.1271e-06
3.19495e-06
4.70985e-06
6.80589e-06
9.44902e-06
1.26033e-05
1.58033e-05
1.8051e-05
1.74435e-05
1.02726e-05
-9.68574e-06
-5.2051e-05
-0.000130302
-0.000262563
-0.000469002
-0.000770982
-0.00119854
-0.00177559
-0.00250358
-0.0033372
-0.00410781
-0.00430677
-0.00291291
0.00169007
0.0113667
0.0271721
0.0448924
0.0194598
-0.0356117
-0.0227247
-0.0176965
-0.016415
-0.00718837
0.00582984
0.0108257
0.00892972
0.00482914
0.00185613
0.000565967
0.000153992
3.81115e-05
9.17584e-06
2.25797e-06
5.07783e-07
1.06051e-07
2.09243e-08
4.01367e-09
6.59093e-10
9.36812e-11
1.14261e-11
1.22878e-12
1.18458e-13
1.10314e-14
1.25149e-15
2.13859e-16
5.44496e-17
1.63717e-17
5.13235e-18
1.55451e-18
4.96635e-19
1.49266e-19
4.5059e-20
1.29099e-20
4.01928e-21
1.28838e-21
1.68241e-22
-4.17828e-23
5.64367e-23
1.0914e-23
-1.29402e-23
-2.21943e-24
3.43516e-24
-9.04183e-25
8.75883e-25
1.73947e-25
-2.1677e-26
9.80346e-15
1.42412e-13
6.19794e-13
1.97739e-12
5.45937e-12
1.38785e-11
3.34336e-11
7.74071e-11
1.73338e-10
3.76213e-10
7.92054e-10
1.62135e-09
3.24037e-09
6.34425e-09
1.21799e-08
2.2847e-08
4.19117e-08
7.48961e-08
1.27868e-07
2.15858e-07
3.5123e-07
5.61377e-07
8.83606e-07
1.38385e-06
2.11222e-06
3.17946e-06
4.69822e-06
6.80949e-06
9.48629e-06
1.27071e-05
1.60174e-05
1.84412e-05
1.80969e-05
1.12977e-05
-8.21211e-06
-5.01526e-05
-0.000128176
-0.000260626
-0.000468432
-0.000772963
-0.00120484
-0.00178765
-0.00252058
-0.00335357
-0.00410463
-0.00423804
-0.00269085
0.00221017
0.0124134
0.0287143
0.0463269
0.0114689
-0.0343822
-0.0221861
-0.0176706
-0.0162356
-0.00609618
0.0066698
0.0109938
0.00871007
0.00461425
0.00173212
0.000519774
0.000140175
3.44655e-05
8.31225e-06
2.04929e-06
4.56196e-07
9.48377e-08
1.86312e-08
3.55168e-09
5.77856e-10
8.14292e-11
9.84831e-12
1.05452e-12
1.01156e-13
9.5226e-15
1.11109e-15
1.97935e-16
5.17938e-17
1.57233e-17
4.8891e-18
1.52702e-18
4.74377e-19
1.36164e-19
3.72423e-20
1.19952e-20
3.98705e-21
1.3071e-21
4.17333e-22
-2.39804e-23
5.51745e-23
-2.77829e-23
-5.55682e-24
-1.95751e-24
1.03713e-24
-8.41005e-25
6.34895e-25
4.98982e-26
1.14635e-26
9.66862e-15
1.40454e-13
6.1126e-13
1.9501e-12
5.38372e-12
1.36851e-11
3.29651e-11
7.63153e-11
1.70874e-10
3.70807e-10
7.80496e-10
1.59731e-09
3.19181e-09
6.24909e-09
1.19994e-08
2.25186e-08
4.13371e-08
7.39356e-08
1.26349e-07
2.13294e-07
3.47657e-07
5.5627e-07
8.76409e-07
1.37522e-06
2.10229e-06
3.16966e-06
4.69371e-06
6.82162e-06
9.5307e-06
1.28099e-05
1.62201e-05
1.87971e-05
1.86844e-05
1.21911e-05
-6.9646e-06
-4.857e-05
-0.00012656
-0.000259576
-0.000468721
-0.000775934
-0.00121175
-0.00179933
-0.00253556
-0.00336563
-0.00409381
-0.00415579
-0.00244311
0.00277197
0.0134611
0.0303253
0.0478821
0.00351098
-0.033032
-0.0215779
-0.0175764
-0.0160336
-0.00520043
0.00735597
0.0111355
0.00854253
0.00440481
0.00161539
0.000479917
0.0001283
3.12627e-05
7.56557e-06
1.86125e-06
4.08526e-07
8.45729e-08
1.65883e-08
3.14756e-09
5.08865e-10
7.11217e-11
8.52926e-12
9.09124e-13
8.6754e-14
8.26048e-15
9.91997e-16
1.84215e-16
4.92959e-17
1.5063e-17
4.73843e-18
1.47405e-18
4.5707e-19
1.37485e-19
4.01452e-20
1.29446e-20
3.89677e-21
1.19549e-21
2.01155e-22
7.10386e-23
4.28048e-23
-2.62265e-23
8.78771e-24
2.69374e-24
3.99621e-24
-4.30024e-25
7.71722e-25
-7.43353e-26
-4.41741e-26
9.54878e-15
1.38714e-13
6.03685e-13
1.9259e-12
5.31677e-12
1.35145e-11
3.25529e-11
7.53584e-11
1.68724e-10
3.66111e-10
7.70513e-10
1.57666e-09
3.15034e-09
6.16836e-09
1.18474e-08
2.22453e-08
4.08665e-08
7.31679e-08
1.25186e-07
2.11314e-07
3.44792e-07
5.52368e-07
8.71024e-07
1.36857e-06
2.09522e-06
3.16459e-06
4.69505e-06
6.83922e-06
9.57789e-06
1.29127e-05
1.64177e-05
1.91346e-05
1.92107e-05
1.29662e-05
-5.8947e-06
-4.73057e-05
-0.000125362
-0.000259021
-0.000469502
-0.000779372
-0.00121944
-0.00181241
-0.00255263
-0.00338035
-0.00408555
-0.00407405
-0.00218941
0.003361
0.014571
0.0320955
0.0496393
-0.00308718
-0.0316097
-0.0209126
-0.0174167
-0.0156789
-0.0042217
0.00796674
0.011201
0.00834742
0.00420345
0.00151563
0.000446346
0.000118393
2.85547e-05
6.89681e-06
1.68578e-06
3.67247e-07
7.56298e-08
1.47427e-08
2.7712e-09
4.43601e-10
6.14456e-11
7.31048e-12
7.76542e-13
7.38247e-14
7.13516e-15
8.86887e-16
1.71814e-16
4.70596e-17
1.4562e-17
4.59441e-18
1.43412e-18
4.27719e-19
1.29672e-19
4.01686e-20
1.1768e-20
4.04838e-21
4.66922e-22
3.26562e-22
-1.28936e-22
-2.96152e-23
-1.71569e-23
4.1873e-24
-9.03661e-25
1.39476e-24
6.90297e-25
-5.80649e-25
-4.78435e-26
-2.00946e-26
9.44424e-15
1.37196e-13
5.97084e-13
1.90484e-12
5.25857e-12
1.33664e-11
3.21961e-11
7.45328e-11
1.66876e-10
3.62094e-10
7.62009e-10
1.55914e-09
3.11524e-09
6.10001e-09
1.17183e-08
2.20112e-08
4.0457e-08
7.24866e-08
1.24107e-07
2.09497e-07
3.42332e-07
5.4907e-07
8.6701e-07
1.36435e-06
2.09126e-06
3.16286e-06
4.69997e-06
6.85929e-06
9.6272e-06
1.30135e-05
1.65966e-05
1.94283e-05
1.96839e-05
1.36366e-05
-5.02387e-06
-4.63181e-05
-0.000124513
-0.00025903
-0.000470717
-0.000783095
-0.00122695
-0.00182464
-0.00256831
-0.00339418
-0.00407953
-0.00400658
-0.00198487
0.00380755
0.0153465
0.0332649
0.0507262
-0.0124772
-0.0302276
-0.0202674
-0.0172485
-0.0153797
-0.00347607
0.00844231
0.0112691
0.00821192
0.00405181
0.00143668
0.000419902
0.000111415
2.60059e-05
6.31786e-06
1.53711e-06
3.33839e-07
6.84512e-08
1.33375e-08
2.4924e-09
3.9586e-10
5.44273e-11
6.43212e-12
6.81252e-13
6.45575e-14
6.32421e-15
8.09377e-16
1.62405e-16
4.52084e-17
1.39699e-17
4.44814e-18
1.37143e-18
4.28741e-19
1.27584e-19
3.9403e-20
1.15082e-20
3.34798e-21
7.40659e-22
3.84415e-22
-5.55327e-23
2.10262e-23
-1.72595e-23
1.9406e-24
7.6796e-24
-3.0877e-24
-7.32741e-25
-2.68146e-25
5.59152e-27
-5.49147e-26
9.35455e-15
1.35895e-13
5.91426e-13
1.8868e-12
5.20881e-12
1.32401e-11
3.18924e-11
7.38321e-11
1.65314e-10
3.58721e-10
7.54933e-10
1.54472e-09
3.0867e-09
6.04521e-09
1.16146e-08
2.18275e-08
4.01483e-08
7.19944e-08
1.23342e-07
2.08189e-07
3.40534e-07
5.46688e-07
8.64125e-07
1.36132e-06
2.08906e-06
3.16342e-06
4.70724e-06
6.88129e-06
9.67529e-06
1.3105e-05
1.67582e-05
1.96907e-05
2.00691e-05
1.41867e-05
-4.33769e-06
-4.55917e-05
-0.000124001
-0.000259158
-0.000472196
-0.00078683
-0.00123394
-0.0018354
-0.00258123
-0.00340461
-0.00406977
-0.00393549
-0.00177883
0.00425629
0.0161247
0.0344069
0.0516341
-0.0199225
-0.0291321
-0.0197524
-0.0171263
-0.0151381
-0.00289277
0.00879113
0.0112811
0.00806245
0.00390886
0.00136777
0.000397132
0.000104693
2.43417e-05
5.87368e-06
1.42973e-06
3.08265e-07
6.29303e-08
1.22657e-08
2.28253e-09
3.60174e-10
4.92035e-11
5.78236e-12
6.10982e-13
5.77434e-14
5.72466e-15
7.51224e-16
1.54805e-16
4.34371e-17
1.35806e-17
4.32282e-18
1.33464e-18
4.09613e-19
1.30609e-19
3.99699e-20
1.06242e-20
4.07471e-21
5.91709e-22
2.654e-22
4.09634e-23
-4.2765e-23
3.12732e-23
-9.31481e-24
4.69564e-24
-3.09804e-24
-1.6236e-24
6.49316e-25
1.57041e-25
-3.96253e-27
9.27866e-15
1.34794e-13
5.86642e-13
1.87156e-12
5.16684e-12
1.31337e-11
3.16373e-11
7.32454e-11
1.64012e-10
3.55921e-10
7.49093e-10
1.53289e-09
3.06344e-09
6.00082e-09
1.15307e-08
2.16809e-08
3.98981e-08
7.15749e-08
1.2269e-07
2.07125e-07
3.39082e-07
5.44913e-07
8.62109e-07
1.35946e-06
2.08816e-06
3.16536e-06
4.71569e-06
6.90298e-06
9.72001e-06
1.31873e-05
1.68997e-05
1.99134e-05
2.03958e-05
1.46315e-05
-3.80386e-06
-4.50738e-05
-0.000123748
-0.000259602
-0.000473992
-0.000790765
-0.00124079
-0.00184497
-0.00258996
-0.00342112
-0.0040658
-0.00386604
-0.00156201
0.00474781
0.0170453
0.0358214
0.0528396
-0.0242891
-0.0280899
-0.0192687
-0.0170014
-0.0148198
-0.00218974
0.00923047
0.0113573
0.00796234
0.0037971
0.00131186
0.000378335
9.91462e-05
2.30234e-05
5.57462e-06
1.34751e-06
2.88546e-07
5.8659e-08
1.14658e-08
2.12616e-09
3.34402e-10
4.54455e-11
5.31494e-12
5.60334e-13
5.28192e-14
5.28726e-15
7.07003e-16
1.48647e-16
4.22403e-17
1.31974e-17
4.16029e-18
1.32188e-18
4.0808e-19
1.16662e-19
3.34531e-20
1.03597e-20
2.76799e-21
7.5515e-22
2.00838e-22
1.05772e-22
-6.45741e-23
2.57874e-24
1.51312e-23
-2.12528e-24
2.20584e-24
-1.49597e-24
8.50686e-25
3.959e-26
-6.10735e-26
9.21518e-15
1.33873e-13
5.82643e-13
1.85884e-12
5.13181e-12
1.30451e-11
3.1425e-11
7.27583e-11
1.62934e-10
3.5361e-10
7.44294e-10
1.52324e-09
3.04466e-09
5.96555e-09
1.14656e-08
2.1567e-08
3.97007e-08
7.12571e-08
1.22213e-07
2.06323e-07
3.38026e-07
5.43616e-07
8.60649e-07
1.3583e-06
2.08818e-06
3.16846e-06
4.72521e-06
6.92504e-06
9.76244e-06
1.32626e-05
1.70241e-05
2.0104e-05
2.06733e-05
1.49951e-05
-3.3799e-06
-4.46952e-05
-0.00012365
-0.000260184
-0.000475842
-0.000794623
-0.00124749
-0.00185494
-0.00260242
-0.00343285
-0.0040635
-0.00381977
-0.00142254
0.0050402
0.0175202
0.03642
0.0531397
-0.0302857
-0.0272556
-0.0188743
-0.016891
-0.014534
-0.00170071
0.00945257
0.0113261
0.00783784
0.00369335
0.00126519
0.000363325
9.47561e-05
2.19951e-05
5.30276e-06
1.28185e-06
2.73182e-07
5.53355e-08
1.08439e-08
2.00177e-09
3.13202e-10
4.23772e-11
4.93528e-12
5.19387e-13
4.8857e-14
4.93451e-15
6.71198e-16
1.43431e-16
4.11963e-17
1.28921e-17
4.09477e-18
1.29723e-18
3.83939e-19
1.14789e-19
3.26125e-20
9.67385e-21
2.37995e-21
5.30337e-22
2.61915e-22
-2.00729e-23
2.31617e-23
-1.93042e-23
1.1099e-23
2.03676e-25
8.20615e-25
6.92183e-25
7.37222e-25
-1.00329e-25
-2.95245e-26
9.16269e-15
1.33112e-13
5.79336e-13
1.84831e-12
5.10284e-12
1.29717e-11
3.12494e-11
7.23549e-11
1.62039e-10
3.51687e-10
7.40281e-10
1.51511e-09
3.02867e-09
5.93508e-09
1.14082e-08
2.14631e-08
3.95283e-08
7.09891e-08
1.2183e-07
2.05696e-07
3.37245e-07
5.4268e-07
8.59713e-07
1.35779e-06
2.08886e-06
3.17195e-06
4.73436e-06
6.94516e-06
9.80068e-06
1.33305e-05
1.71365e-05
2.02752e-05
2.09061e-05
1.52917e-05
-3.0513e-06
-4.44286e-05
-0.000123665
-0.000260831
-0.000477641
-0.000798219
-0.0012536
-0.00186392
-0.00261348
-0.00344183
-0.00405713
-0.00376757
-0.00126996
0.00537116
0.0181067
0.0372535
0.0537136
-0.0334483
-0.026553
-0.0185536
-0.0167988
-0.0142766
-0.00128439
0.00963732
0.0112983
0.00773183
0.00360676
0.00122689
0.000351085
9.12317e-05
2.11742e-05
5.10238e-06
1.22759e-06
2.61174e-07
5.27952e-08
1.03633e-08
1.90758e-09
2.97412e-10
4.00971e-11
4.65331e-12
4.88937e-13
4.59112e-14
4.67082e-15
6.44121e-16
1.39332e-16
4.00396e-17
1.25759e-17
4.03072e-18
1.25586e-18
3.9243e-19
1.16083e-19
3.5914e-20
1.0243e-20
2.7175e-21
5.69668e-22
3.05794e-22
3.33465e-23
-2.98177e-23
-1.30273e-23
-2.52663e-24
4.74024e-24
6.17542e-25
-1.77708e-24
-4.14929e-26
-1.40535e-25
-1.46449e-26
9.12007e-15
1.32494e-13
5.76651e-13
1.83977e-12
5.07934e-12
1.29122e-11
3.11071e-11
7.20281e-11
1.61314e-10
3.50129e-10
7.37028e-10
1.50851e-09
3.0157e-09
5.9104e-09
1.13616e-08
2.13848e-08
3.94019e-08
7.07924e-08
1.2154e-07
2.05214e-07
3.36629e-07
5.41999e-07
8.59112e-07
1.35769e-06
2.08994e-06
3.17555e-06
4.74286e-06
6.96277e-06
9.83348e-06
1.33859e-05
1.72254e-05
2.04056e-05
2.10976e-05
1.55288e-05
-2.80158e-06
-4.42529e-05
-0.000123748
-0.000261461
-0.000479262
-0.000801412
-0.00125908
-0.00187218
-0.00262375
-0.00345028
-0.00405218
-0.00372309
-0.00114091
0.00564432
0.0185642
0.0378405
0.0539129
-0.035538
-0.0261731
-0.0183977
-0.0167995
-0.0141175
-0.00090928
0.00985052
0.011312
0.00765928
0.00353961
0.0011957
0.00034103
8.83439e-05
2.05126e-05
4.94484e-06
1.18737e-06
2.51935e-07
5.0854e-08
9.99549e-09
1.83605e-09
2.85447e-10
3.8371e-11
4.43998e-12
4.65888e-13
4.37444e-14
4.47373e-15
6.23094e-16
1.35988e-16
3.94525e-17
1.23405e-17
3.93215e-18
1.23665e-18
3.77218e-19
1.15205e-19
3.45582e-20
8.80301e-21
2.34782e-21
6.24341e-22
3.72854e-22
-5.26216e-23
2.55774e-24
1.84847e-23
-8.32188e-24
-1.703e-24
-3.20383e-24
-9.63228e-25
9.08291e-25
-1.55923e-25
4.40723e-26
9.08636e-15
1.32005e-13
5.74529e-13
1.83302e-12
5.06079e-12
1.28654e-11
3.0995e-11
7.17712e-11
1.60745e-10
3.48909e-10
7.3449e-10
1.5034e-09
3.00579e-09
5.89186e-09
1.13272e-08
2.13258e-08
3.93027e-08
7.06369e-08
1.21315e-07
2.04852e-07
3.3621e-07
5.41557e-07
8.58784e-07
1.35781e-06
2.09112e-06
3.1789e-06
4.75043e-06
6.97819e-06
9.86147e-06
1.34338e-05
1.73006e-05
2.05192e-05
2.12433e-05
1.57171e-05
-2.60832e-06
-4.41333e-05
-0.000123873
-0.000262096
-0.000480808
-0.000804388
-0.0012641
-0.00187957
-0.00263294
-0.00345794
-0.00404819
-0.00368408
-0.00102439
0.00590085
0.0190203
0.0384671
0.0540898
-0.0363868
-0.0260325
-0.0183564
-0.0168408
-0.0139945
-0.000588675
0.010057
0.0113524
0.00761555
0.00349095
0.00117225
0.000333254
8.6081e-05
1.99918e-05
4.8216e-06
1.15569e-06
2.44719e-07
4.93229e-08
9.70813e-09
1.78e-09
2.76088e-10
3.70237e-11
4.27389e-12
4.47965e-13
4.20604e-14
4.32102e-15
6.06939e-16
1.33615e-16
3.87606e-17
1.2235e-17
3.87077e-18
1.21563e-18
3.78693e-19
1.20053e-19
3.28405e-20
9.08928e-21
2.2067e-21
5.61342e-22
4.09362e-22
-1.77179e-23
6.69245e-24
2.76252e-23
-5.7141e-25
-3.50852e-24
-3.01994e-24
-7.24085e-25
-1.6721e-25
-2.35034e-25
-3.51991e-26
9.06071e-15
1.31633e-13
5.72915e-13
1.82789e-12
5.04671e-12
1.28298e-11
3.09103e-11
7.15782e-11
1.60322e-10
3.48011e-10
7.32643e-10
1.49972e-09
2.99867e-09
5.87836e-09
1.13014e-08
2.12802e-08
3.92264e-08
7.05193e-08
1.21149e-07
2.04582e-07
3.35893e-07
5.41247e-07
8.58608e-07
1.35806e-06
2.09229e-06
3.18198e-06
4.75708e-06
6.99119e-06
9.88457e-06
1.34721e-05
1.73615e-05
2.06075e-05
2.13623e-05
1.58603e-05
-2.46841e-06
-4.40665e-05
-0.000124018
-0.00026267
-0.000482139
-0.000806897
-0.0012683
-0.00188585
-0.00264113
-0.00346643
-0.00405185
-0.00367213
-0.000980966
0.00598945
0.0191459
0.0385653
0.0539132
-0.0377275
-0.0258804
-0.0183192
-0.016879
-0.0139204
-0.000378664
0.0101953
0.0113803
0.00758579
0.00345679
0.00115566
0.000327637
8.44e-05
1.96019e-05
4.7296e-06
1.13372e-06
2.39408e-07
4.82086e-08
9.50063e-09
1.73921e-09
2.69276e-10
3.60436e-11
4.15321e-12
4.34928e-13
4.0835e-14
4.20854e-15
5.94528e-16
1.31509e-16
3.82445e-17
1.20684e-17
3.81312e-18
1.20742e-18
3.70647e-19
1.06595e-19
3.44814e-20
1.02492e-20
2.01885e-21
6.93427e-22
2.70226e-22
-1.58026e-23
-3.93681e-23
-9.18188e-24
-6.36195e-24
4.79698e-24
-1.79894e-24
-3.58233e-26
-1.77214e-25
1.41313e-25
2.49223e-27
9.04239e-15
1.31368e-13
5.71766e-13
1.82426e-12
5.03677e-12
1.28049e-11
3.08514e-11
7.14443e-11
1.60028e-10
3.47379e-10
7.31316e-10
1.497e-09
2.99323e-09
5.86801e-09
1.12821e-08
2.12479e-08
3.91743e-08
7.04402e-08
1.21038e-07
2.04403e-07
3.35691e-07
5.41061e-07
8.58534e-07
1.35832e-06
2.09325e-06
3.18434e-06
4.76205e-06
7.00082e-06
9.90158e-06
1.35005e-05
1.74058e-05
2.0672e-05
2.14555e-05
1.59605e-05
-2.37683e-06
-4.40364e-05
-0.000124156
-0.000263137
-0.000483172
-0.000808795
-0.00127143
-0.00189045
-0.00264713
-0.0034727
-0.0040547
-0.00366305
-0.000944558
0.00607491
0.0192976
0.0387529
0.0537578
-0.0381985
-0.0258978
-0.0183447
-0.0169267
-0.013866
-0.000247508
0.0102718
0.0113915
0.0075633
0.00343299
0.00114419
0.000323736
8.32128e-05
1.93248e-05
4.66475e-06
1.11414e-06
2.35748e-07
4.74462e-08
9.35932e-09
1.71156e-09
2.64643e-10
3.5374e-11
4.07034e-12
4.25943e-13
3.99875e-14
4.13082e-15
5.86002e-16
1.30263e-16
3.79849e-17
1.20118e-17
3.76976e-18
1.19907e-18
3.74142e-19
1.11227e-19
3.31266e-20
8.88185e-21
1.98134e-21
7.10422e-22
2.61078e-22
-3.13531e-23
7.15871e-24
1.60478e-23
-1.28179e-23
-3.49418e-24
-3.81023e-24
-2.1182e-25
4.58637e-25
1.58796e-25
5.79307e-26
9.03062e-15
1.31197e-13
5.71027e-13
1.82191e-12
5.03031e-12
1.27885e-11
3.0812e-11
7.13532e-11
1.59823e-10
3.46937e-10
7.30392e-10
1.49514e-09
2.98966e-09
5.86139e-09
1.12698e-08
2.1227e-08
3.91409e-08
7.03901e-08
1.2097e-07
2.04294e-07
3.35571e-07
5.40958e-07
8.58512e-07
1.35853e-06
2.09394e-06
3.18597e-06
4.76543e-06
7.0073e-06
9.91208e-06
1.35191e-05
1.74347e-05
2.07135e-05
2.15111e-05
1.60227e-05
-2.32361e-06
-4.40281e-05
-0.000124264
-0.000263467
-0.000483878
-0.000810069
-0.00127352
-0.0018936
-0.00265145
-0.00347802
-0.00405987
-0.0036648
-0.000936239
0.00610288
0.0193521
0.0388171
0.0536631
-0.0386376
-0.0258551
-0.0183391
-0.0169436
-0.0138354
-0.000194401
0.0102882
0.0113758
0.00753622
0.00341292
0.00113573
0.000321072
8.24327e-05
1.91447e-05
4.62281e-06
1.10365e-06
2.33403e-07
4.6959e-08
9.27006e-09
1.69407e-09
2.61709e-10
3.49495e-11
4.01778e-12
4.20228e-13
3.94466e-14
4.08017e-15
5.80031e-16
1.29286e-16
3.77626e-17
1.19341e-17
3.7712e-18
1.19049e-18
3.79065e-19
1.03772e-19
3.54987e-20
1.03611e-20
2.66652e-21
5.24128e-22
3.12598e-22
-4.10046e-23
5.8914e-23
1.8589e-23
-3.72403e-26
9.64456e-25
1.15474e-24
-7.59318e-25
2.66435e-25
1.79237e-25
1.89376e-26
9.02471e-15
1.31111e-13
5.70654e-13
1.82072e-12
5.02704e-12
1.27803e-11
3.07922e-11
7.1308e-11
1.59724e-10
3.46725e-10
7.29953e-10
1.49426e-09
2.98796e-09
5.85822e-09
1.12639e-08
2.1217e-08
3.9125e-08
7.03666e-08
1.20938e-07
2.04243e-07
3.35516e-07
5.40914e-07
8.58513e-07
1.35865e-06
2.09431e-06
3.18684e-06
4.76719e-06
7.01064e-06
9.91794e-06
1.35286e-05
1.74493e-05
2.07348e-05
2.15321e-05
1.60529e-05
-2.29964e-06
-4.40282e-05
-0.000124323
-0.00026364
-0.000484244
-0.000810733
-0.00127463
-0.00189533
-0.00265404
-0.00348189
-0.00406593
-0.00367555
-0.000958555
0.006052
0.0192414
0.0386165
0.0535087
-0.0391012
-0.025765
-0.0183254
-0.0169823
-0.0139278
-0.000186615
0.0103593
0.0114196
0.00754672
0.00340956
0.00113231
0.000319678
8.19994e-05
1.90457e-05
4.60047e-06
1.09813e-06
2.32185e-07
4.67063e-08
9.22319e-09
1.68497e-09
2.60194e-10
3.4732e-11
3.99106e-12
4.17335e-13
3.91728e-14
4.05504e-15
5.7739e-16
1.28883e-16
3.75889e-17
1.18077e-17
3.77656e-18
1.17955e-18
3.65234e-19
1.03811e-19
3.59146e-20
1.03622e-20
2.20861e-21
7.34602e-22
3.68429e-22
-2.17855e-23
-1.06701e-23
2.10944e-23
3.61665e-24
-2.67786e-25
-2.03949e-25
-1.77803e-24
4.6577e-26
2.35574e-25
-6.22589e-27
9.02461e-15
1.3111e-13
5.70647e-13
1.82069e-12
5.02697e-12
1.27801e-11
3.07917e-11
7.13069e-11
1.59722e-10
3.46721e-10
7.29946e-10
1.49425e-09
2.98794e-09
5.85821e-09
1.12639e-08
2.12171e-08
3.91251e-08
7.03669e-08
1.20939e-07
2.04244e-07
3.35519e-07
5.40919e-07
8.58522e-07
1.35867e-06
2.09433e-06
3.18685e-06
4.76717e-06
7.01052e-06
9.91764e-06
1.35283e-05
1.74487e-05
2.07332e-05
2.15281e-05
1.60508e-05
-2.3012e-06
-4.40294e-05
-0.000124324
-0.000263638
-0.000484238
-0.000810721
-0.00127459
-0.00189522
-0.00265366
-0.0034806
-0.00406184
-0.00366374
-0.000928248
0.00612151
0.0193805
0.0388423
0.0536258
-0.038702
-0.0258433
-0.0183495
-0.0169805
-0.0138425
-0.000122746
0.0103451
0.0113888
0.00752628
0.00340125
0.00113014
0.000319241
8.19194e-05
1.90321e-05
4.59794e-06
1.09758e-06
2.32073e-07
4.6684e-08
9.21868e-09
1.68416e-09
2.60068e-10
3.47151e-11
3.98909e-12
4.17129e-13
3.91538e-14
4.05385e-15
5.77045e-16
1.28803e-16
3.76417e-17
1.18311e-17
3.75699e-18
1.16428e-18
3.71677e-19
1.1115e-19
3.54337e-20
1.07285e-20
2.66567e-21
4.70816e-22
4.16262e-22
-1.21431e-24
-1.55216e-23
-2.51371e-23
-8.84249e-24
6.81819e-24
1.80929e-24
-8.81274e-25
3.69363e-25
-8.80409e-26
-4.80851e-26
9.03033e-15
1.31193e-13
5.71006e-13
1.82183e-12
5.03008e-12
1.27879e-11
3.08104e-11
7.13495e-11
1.59816e-10
3.46922e-10
7.30364e-10
1.49509e-09
2.98959e-09
5.8613e-09
1.12697e-08
2.12269e-08
3.91411e-08
7.0391e-08
1.20972e-07
2.04298e-07
3.35578e-07
5.40971e-07
8.58535e-07
1.35856e-06
2.09398e-06
3.18602e-06
4.76545e-06
7.00726e-06
9.91272e-06
1.35186e-05
1.74335e-05
2.07111e-05
2.15007e-05
1.60184e-05
-2.32856e-06
-4.40334e-05
-0.000124268
-0.000263468
-0.000483874
-0.000810061
-0.00127351
-0.00189361
-0.00265145
-0.0034778
-0.00405869
-0.00366088
-0.000927052
0.00611839
0.0193687
0.0388208
0.0536601
-0.0384979
-0.0258688
-0.0183544
-0.0169704
-0.0138749
-0.000185058
0.0103091
0.0113824
0.0075336
0.00340908
0.00113383
0.000320481
8.22908e-05
1.91172e-05
4.61765e-06
1.10253e-06
2.33181e-07
4.69163e-08
9.26143e-09
1.69252e-09
2.61466e-10
3.49163e-11
4.014e-12
4.19835e-13
3.94108e-14
4.07681e-15
5.79708e-16
1.29062e-16
3.76682e-17
1.1917e-17
3.78104e-18
1.18722e-18
3.71892e-19
1.04411e-19
3.53045e-20
9.52947e-21
2.34449e-21
5.67162e-22
2.63594e-22
-1.92383e-23
5.70965e-23
-2.64876e-23
-5.50796e-24
-3.79112e-24
-2.8303e-24
7.07649e-26
-7.68354e-26
4.79097e-26
4.37255e-26
9.04224e-15
1.31365e-13
5.71755e-13
1.82421e-12
5.0366e-12
1.28044e-11
3.08496e-11
7.1439e-11
1.60013e-10
3.47345e-10
7.31244e-10
1.49687e-09
2.99305e-09
5.86782e-09
1.1282e-08
2.1248e-08
3.91751e-08
7.04422e-08
1.21042e-07
2.04411e-07
3.35704e-07
5.41082e-07
8.58566e-07
1.35836e-06
2.0933e-06
3.18438e-06
4.76202e-06
7.00066e-06
9.90118e-06
1.34996e-05
1.7404e-05
2.06688e-05
2.14451e-05
1.59533e-05
-2.38637e-06
-4.4048e-05
-0.000124167
-0.000263142
-0.000483161
-0.000808756
-0.00127136
-0.00189042
-0.00264722
-0.00347309
-0.00405539
-0.00366323
-0.00094211
0.00608252
0.0193099
0.0387633
0.0537741
-0.0380667
-0.0258955
-0.018351
-0.0169423
-0.0139124
-0.000289199
0.0102446
0.0113713
0.00754877
0.00342522
0.00114146
0.000323024
8.30497e-05
1.92935e-05
4.65916e-06
1.11303e-06
2.35537e-07
4.74075e-08
9.35206e-09
1.71022e-09
2.64433e-10
3.53476e-11
4.0673e-12
4.25601e-13
3.99549e-14
4.1278e-15
5.85775e-16
1.29979e-16
3.79706e-17
1.19878e-17
3.77289e-18
1.19183e-18
3.79168e-19
1.08114e-19
3.62755e-20
8.7699e-21
1.98142e-21
8.12228e-22
3.52641e-22
3.56188e-23
1.86312e-23
-2.66521e-23
-8.20414e-24
1.57508e-24
-4.79055e-25
-1.81652e-24
4.40665e-25
2.19005e-25
-3.87503e-26
9.06072e-15
1.31633e-13
5.72917e-13
1.8279e-12
5.04674e-12
1.28299e-11
3.09105e-11
7.15783e-11
1.60321e-10
3.48003e-10
7.32611e-10
1.49962e-09
2.99841e-09
5.87786e-09
1.13008e-08
2.128e-08
3.92277e-08
7.05225e-08
1.21154e-07
2.04591e-07
3.35909e-07
5.41272e-07
8.58644e-07
1.35811e-06
2.09234e-06
3.18201e-06
4.75704e-06
6.99095e-06
9.88399e-06
1.34709e-05
1.73591e-05
2.06033e-05
2.13554e-05
1.58505e-05
-2.4822e-06
-4.4084e-05
-0.000124036
-0.000262678
-0.000482117
-0.000806816
-0.00126814
-0.0018856
-0.00264098
-0.00346674
-0.00405315
-0.00367452
-0.000982203
0.00599722
0.0191786
0.0386394
0.0539339
-0.0374326
-0.0259416
-0.0183497
-0.0168993
-0.0139417
-0.000393123
0.010207
0.0113997
0.00759729
0.00345993
0.00115576
0.000327379
8.42714e-05
1.95695e-05
4.72368e-06
1.13262e-06
2.3925e-07
4.81903e-08
9.4979e-09
1.73895e-09
2.69266e-10
3.60407e-11
4.1524e-12
4.3481e-13
4.08233e-14
4.20765e-15
5.94521e-16
1.31546e-16
3.82768e-17
1.20529e-17
3.82547e-18
1.19926e-18
3.74388e-19
1.08706e-19
3.44674e-20
9.12629e-21
2.73964e-21
7.61479e-22
4.03089e-22
5.97804e-23
2.82751e-23
-1.10126e-23
-1.49796e-23
1.39034e-24
-3.96365e-24
-1.9413e-24
2.67825e-25
-5.73844e-26
5.83183e-26
9.08637e-15
1.32005e-13
5.74531e-13
1.83303e-12
5.06082e-12
1.28655e-11
3.09953e-11
7.17723e-11
1.60749e-10
3.4892e-10
7.34518e-10
1.50346e-09
3.00588e-09
5.89191e-09
1.1327e-08
2.1325e-08
3.93017e-08
7.06368e-08
1.21317e-07
2.04858e-07
3.36225e-07
5.41583e-07
8.58823e-07
1.35786e-06
2.09118e-06
3.17895e-06
4.75045e-06
6.97806e-06
9.86093e-06
1.34324e-05
1.72985e-05
2.05153e-05
2.12362e-05
1.57055e-05
-2.62477e-06
-4.41548e-05
-0.000123892
-0.000262098
-0.000480764
-0.000804254
-0.00126383
-0.00187921
-0.0026327
-0.00345884
-0.00405325
-0.0037012
-0.00107135
0.00578799
0.018786
0.0380709
0.0537261
-0.0370431
-0.0260424
-0.0183715
-0.0168555
-0.0140344
-0.000683996
0.0100064
0.0113483
0.00762301
0.00349508
0.00117316
0.000333175
8.59555e-05
1.99516e-05
4.81362e-06
1.15235e-06
2.44457e-07
4.92857e-08
9.70246e-09
1.77858e-09
2.75828e-10
3.6985e-11
4.26929e-12
4.47464e-13
4.20151e-14
4.31713e-15
6.06489e-16