/*--------------------------------*- C++ -*----------------------------------*\
  =========                 |
  \\      /  F ield         | OpenFOAM: The Open Source CFD Toolbox
   \\    /   O peration     | Website:  https://openfoam.org
    \\  /    A nd           | Version:  10
     \\/     M anipulation  |
\*---------------------------------------------------------------------------*/
FoamFile
{
    format      ascii;
    class       volScalarField;
    location    "1";
    object      RR.N2;
}
// * * * * * * * * * * * * * * * * * * * * * * * * * * * * * * * * * * * * * //

dimensions      [1 -3 -1 0 0 0 0];

internalField   nonuniform List<scalar> 
4000
(
1.13632e-13
1.19827e-12
5.34452e-12
1.71698e-11
4.76568e-11
1.22255e-10
2.98654e-10
7.03845e-10
1.61239e-09
3.60256e-09
7.86441e-09
1.68214e-08
3.53673e-08
7.32094e-08
1.48928e-07
2.95477e-07
5.70856e-07
1.0658e-06
1.8782e-06
3.24656e-06
5.35232e-06
8.66787e-06
1.40289e-05
2.22791e-05
3.49978e-05
5.40153e-05
8.18982e-05
0.000122599
0.000181043
0.000267895
0.000398304
0.00059775
0.000914433
0.0014284
0.00227926
0.00370646
0.00607268
0.00986884
0.0156825
0.02436
0.0373616
0.0568666
0.0863801
0.131873
0.204531
0.319656
0.499487
0.777813
1.20623
1.86159
2.87431
4.23713
3.21968
1.42861
0.643209
0.313516
0.164529
0.0887079
0.0485395
0.0283754
0.0177697
0.0107823
0.0057888
0.00277016
0.00117296
0.00041309
0.000119996
3.01603e-05
6.21324e-06
1.17576e-06
2.22615e-07
3.71157e-08
5.35319e-09
6.55159e-10
6.90879e-11
7.03618e-12
5.42051e-13
2.11908e-13
-8.60286e-14
7.29705e-14
-2.23371e-13
2.22948e-13
1.82888e-13
-9.94221e-14
1.06021e-14
3.70073e-14
-2.17219e-13
-9.84578e-15
2.51023e-14
2.2316e-13
-1.49111e-13
2.12821e-13
-1.6841e-13
1.35062e-13
-2.72839e-13
-1.75689e-13
3.29718e-14
-2.32215e-13
-1.9881e-13
1.71765e-13
9.042e-14
1.22413e-12
5.27892e-12
1.68841e-11
4.70729e-11
1.21126e-10
2.95601e-10
6.96421e-10
1.59432e-09
3.55817e-09
7.75557e-09
1.65575e-08
3.47281e-08
7.17327e-08
1.45709e-07
2.88825e-07
5.56986e-07
1.03866e-06
1.83212e-06
3.17654e-06
5.24231e-06
8.48315e-06
1.3732e-05
2.18585e-05
3.43957e-05
5.3211e-05
8.08216e-05
0.000121356
0.000179445
0.000265883
0.00039571
0.000593974
0.00090893
0.00142142
0.00227048
0.00369632
0.00606563
0.00988266
0.0157272
0.0244766
0.0376005
0.0573139
0.0871583
0.133241
0.206925
0.323815
0.506412
0.789254
1.22484
1.89187
2.92382
4.29786
3.13799
1.39067
0.627162
0.306593
0.161759
0.0871245
0.0477052
0.0280134
0.0175263
0.010568
0.00562207
0.00266419
0.00111086
0.000387
0.000110736
2.74229e-05
5.57228e-06
1.0442e-06
1.96357e-07
3.2494e-08
4.64725e-09
5.61876e-10
5.93567e-11
6.05146e-12
7.14281e-13
9.49398e-14
3.7469e-14
-2.49354e-14
-2.71232e-13
-7.4949e-14
-4.22908e-14
-2.33688e-13
7.83243e-14
2.32236e-13
-2.15641e-13
2.59343e-13
-1.11446e-13
-1.14216e-13
-4.81165e-14
1.63874e-13
-2.14906e-13
-1.76217e-13
2.39675e-13
-9.93518e-14
-1.93473e-13
-1.5749e-14
2.53419e-13
-7.91493e-14
3.64482e-14
1.2141e-12
5.22243e-12
1.67683e-11
4.67708e-11
1.20137e-10
2.93273e-10
6.904e-10
1.57889e-09
3.51771e-09
7.64868e-09
1.62728e-08
3.40408e-08
7.01543e-08
1.42229e-07
2.81596e-07
5.4327e-07
1.01168e-06
1.78381e-06
3.09502e-06
5.11406e-06
8.29187e-06
1.33869e-05
2.15103e-05
3.38371e-05
5.24181e-05
7.97136e-05
0.000119933
0.000177567
0.000263472
0.000392524
0.000589634
0.000903095
0.00141341
0.00226101
0.00368688
0.00606382
0.0099047
0.0158119
0.0246839
0.0380128
0.0580542
0.0884437
0.135499
0.210819
0.330391
0.51718
0.806729
1.25294
1.93684
2.9919
4.38878
3.01431
1.33512
0.604346
0.297288
0.156787
0.0843968
0.0463608
0.0274474
0.0171263
0.010241
0.00538661
0.00252237
0.00103282
0.000354213
9.93448e-05
2.41804e-05
4.8585e-06
8.95785e-07
1.67696e-07
2.75196e-08
3.91221e-09
4.72375e-10
4.9986e-11
4.89465e-12
4.62226e-13
7.25292e-14
1.55883e-13
2.67188e-14
-2.67765e-13
-9.7973e-14
1.20855e-13
2.05015e-13
-1.14278e-13
1.68215e-13
1.11624e-13
-1.64595e-13
9.00002e-14
-1.55831e-13
2.76467e-13
5.5511e-14
-3.14513e-14
-9.81148e-14
8.13771e-14
-2.61448e-13
-1.03028e-13
-7.71564e-14
-2.70204e-14
1.50231e-13
1.2037e-13
1.22173e-12
5.15217e-12
1.65396e-11
4.60438e-11
1.18296e-10
2.88877e-10
6.79359e-10
1.55204e-09
3.45419e-09
7.50229e-09
1.59488e-08
3.33187e-08
6.85647e-08
1.38825e-07
2.74627e-07
5.29658e-07
9.88392e-07
1.74529e-06
3.027e-06
5.00676e-06
8.12456e-06
1.31209e-05
2.11341e-05
3.33171e-05
5.1707e-05
7.8737e-05
0.000118711
0.000176019
0.000261604
0.000390255
0.000586807
0.000899353
0.00140835
0.00225623
0.00368538
0.00607593
0.00995136
0.0159457
0.0249699
0.0385502
0.0590301
0.0901524
0.138439
0.215892
0.339085
0.531419
0.830775
1.29193
1.99893
3.08877
4.47868
2.88608
1.27568
0.579297
0.286593
0.151509
0.0814303
0.044872
0.0267657
0.0167209
0.00988044
0.0051214
0.00236741
0.000951077
0.000317615
8.75504e-05
2.08938e-05
4.1661e-06
7.65165e-07
1.42787e-07
2.3256e-08
3.24921e-09
3.84752e-10
3.99029e-11
4.24492e-12
5.24592e-13
-7.73267e-15
-6.80718e-14
4.48726e-14
2.15568e-13
2.01421e-13
1.30522e-13
-1.98764e-13
-2.44938e-13
1.75695e-13
-1.89755e-13
1.61495e-13
1.63847e-13
1.08885e-13
-2.08748e-13
-2.06787e-13
1.25431e-13
-7.19675e-14
-1.75608e-13
-2.43201e-13
-1.37753e-13
3.55366e-14
5.76761e-14
3.83209e-14
1.30717e-13
1.09181e-12
5.08586e-12
1.63096e-11
4.54667e-11
1.16837e-10
2.84932e-10
6.70045e-10
1.53014e-09
3.40301e-09
7.38459e-09
1.5682e-08
3.27245e-08
6.7272e-08
1.36095e-07
2.69111e-07
5.18996e-07
9.68859e-07
1.71166e-06
2.97194e-06
4.92326e-06
7.99683e-06
1.29054e-05
2.08217e-05
3.28562e-05
5.1052e-05
7.79179e-05
0.000117738
0.000174866
0.000260298
0.000388924
0.00058535
0.000897754
0.00140684
0.00225707
0.00369283
0.00610188
0.0100234
0.0161082
0.025296
0.0391607
0.0601126
0.0920296
0.141657
0.221411
0.348494
0.546188
0.854693
1.33035
2.06049
3.18108
4.56492
2.73924
1.21013
0.552147
0.274999
0.145793
0.0782839
0.0433318
0.0260589
0.0162862
0.00951443
0.00486774
0.00221817
0.000874588
0.000285023
7.75201e-05
1.82071e-05
3.59447e-06
6.59095e-07
1.22361e-07
1.96247e-08
2.70794e-09
3.17783e-10
3.31464e-11
3.66062e-12
6.51741e-13
2.74434e-13
4.6469e-14
-2.73416e-13
1.9952e-13
-2.29006e-13
3.01936e-14
-8.98381e-14
-2.56714e-13
-1.49634e-13
-7.4695e-14
-1.31667e-13
-1.50405e-13
3.89596e-14
5.3189e-14
-2.37188e-13
-4.86192e-14
-2.26392e-14
-9.55484e-14
2.27795e-13
-2.12957e-13
5.47501e-14
1.43301e-14
-1.056e-13
5.98926e-14
1.13932e-12
5.09669e-12
1.60777e-11
4.49539e-11
1.15378e-10
2.81229e-10
6.60995e-10
1.50882e-09
3.35387e-09
7.27337e-09
1.54346e-08
3.21862e-08
6.61306e-08
1.33752e-07
2.64528e-07
5.10459e-07
9.53921e-07
1.68736e-06
2.9304e-06
4.85988e-06
7.89855e-06
1.27322e-05
2.0566e-05
3.24802e-05
5.05779e-05
7.73296e-05
0.00011708
0.000174138
0.000259654
0.000388484
0.000585255
0.000898339
0.00140893
0.00226314
0.0037088
0.00614126
0.0101126
0.0162963
0.0256639
0.0398292
0.0612909
0.0939916
0.144941
0.226934
0.357693
0.561455
0.879307
1.37069
2.1259
3.28097
4.62766
2.61743
1.15472
0.528839
0.264689
0.140686
0.0754535
0.0419257
0.0253907
0.0158718
0.00916307
0.00463702
0.00208737
0.000810052
0.000259053
6.99278e-05
1.57147e-05
3.08835e-06
5.68875e-07
1.04583e-07
1.65853e-08
2.26492e-09
2.63142e-10
2.71085e-11
2.77302e-12
4.41065e-14
-1.3566e-13
1.51105e-13
1.8516e-13
-2.37734e-13
3.31514e-14
3.16682e-14
2.06345e-13
2.27441e-13
1.26288e-14
-2.3663e-13
-1.99356e-13
9.9245e-14
-9.56223e-14
2.75861e-13
-6.79329e-14
2.37339e-13
1.19249e-13
-2.7366e-13
1.07759e-13
-4.18818e-15
-1.46967e-13
-2.93428e-14
1.23012e-13
4.6225e-14
1.13773e-12
4.95267e-12
1.59636e-11
4.44267e-11
1.13931e-10
2.77702e-10
6.52683e-10
1.48949e-09
3.30989e-09
7.17462e-09
1.52168e-08
3.17161e-08
6.51415e-08
1.31735e-07
2.60596e-07
5.03138e-07
9.41026e-07
1.66605e-06
2.89322e-06
4.80385e-06
7.81894e-06
1.25932e-05
2.03603e-05
3.22098e-05
5.0241e-05
7.69429e-05
0.000116707
0.000173825
0.000259554
0.000388789
0.000586261
0.000900608
0.00141368
0.00227316
0.00373056
0.00618906
0.0102201
0.0164972
0.0260386
0.0405092
0.0624633
0.0959574
0.14824
0.232482
0.366917
0.576035
0.902742
1.41158
2.18857
3.37374
4.67237
2.49071
1.09896
0.506661
0.253078
0.13501
0.0724776
0.0405109
0.0246835
0.0155138
0.00886917
0.00443861
0.00197593
0.000756159
0.000237878
6.35929e-05
1.40929e-05
2.75577e-06
5.06875e-07
9.27699e-08
1.45795e-08
1.97377e-09
2.27271e-10
2.39575e-11
2.57052e-12
-1.58259e-14
-5.80855e-14
-1.37294e-13
2.7589e-13
9.96705e-14
-2.5994e-13
2.36123e-13
9.11271e-14
-5.93163e-14
2.13899e-13
-2.18202e-13
9.10514e-14
1.52091e-13
2.48565e-13
9.44765e-14
1.82714e-13
3.31932e-14
2.21491e-13
1.32249e-13
-6.28383e-14
2.31808e-13
-2.29207e-13
9.90414e-14
6.15419e-14
1.29536e-13
1.14666e-12
4.95067e-12
1.57848e-11
4.37851e-11
1.12609e-10
2.74504e-10
6.4527e-10
1.47216e-09
3.2706e-09
7.08732e-09
1.5026e-08
3.13079e-08
6.42896e-08
1.30011e-07
2.57264e-07
4.96987e-07
9.30317e-07
1.64865e-06
2.86279e-06
4.76087e-06
7.75489e-06
1.24935e-05
2.02247e-05
3.20285e-05
5.00144e-05
7.67062e-05
0.000116535
0.000173803
0.000259836
0.000389625
0.000588057
0.000904096
0.00142037
0.00228618
0.00375727
0.00624259
0.0103231
0.0167002
0.0264062
0.0411328
0.0635101
0.0976888
0.151149
0.237429
0.375302
0.589873
0.925169
1.4472
2.2456
3.45782
4.69213
2.38707
1.05254
0.486418
0.245343
0.131025
0.070329
0.0394853
0.0241905
0.015166
0.00858019
0.0042575
0.00187534
0.000706871
0.000219132
5.80507e-05
1.26152e-05
2.45802e-06
4.5283e-07
8.26213e-08
1.29039e-08
1.73268e-09
1.97629e-10
2.04118e-11
1.67704e-12
1.8273e-13
2.25796e-13
-5.75667e-14
-8.59059e-14
-1.38866e-13
-2.28054e-13
2.64072e-13
-1.90282e-13
-2.32436e-13
-1.57495e-13
1.04266e-13
-1.90748e-13
-1.76982e-13
-1.29677e-13
1.58239e-14
2.3462e-13
-2.02597e-13
-5.04115e-15
1.09317e-13
-2.76283e-13
1.29898e-14
1.74956e-13
1.15863e-13
2.42038e-13
2.24093e-14
1.17013e-12
4.81124e-12
1.56525e-11
4.3455e-11
1.11561e-10
2.7177e-10
6.38612e-10
1.45709e-09
3.23681e-09
7.01258e-09
1.48639e-08
3.09634e-08
6.35764e-08
1.28581e-07
2.54537e-07
4.92044e-07
9.21936e-07
1.63561e-06
2.83971e-06
4.72711e-06
7.7069e-06
1.24209e-05
2.01217e-05
3.18953e-05
4.98735e-05
7.65927e-05
0.000116527
0.000173983
0.000260385
0.000390869
0.000590462
0.000908413
0.0014283
0.00230136
0.00378641
0.00629923
0.0104289
0.016905
0.0267789
0.0417874
0.0646189
0.0995162
0.154187
0.24251
0.383647
0.603358
0.946995
1.48116
2.30187
3.54427
4.69631
2.31029
1.01859
0.473238
0.237375
0.126889
0.0681841
0.0384742
0.02369
0.0148107
0.00831476
0.00409684
0.0017879
0.00066364
0.00020221
5.29487e-05
1.13628e-05
2.20223e-06
4.04566e-07
7.32553e-08
1.13315e-08
1.50809e-09
1.71065e-10
1.74564e-11
1.83624e-12
2.72888e-13
2.71175e-13
1.27545e-13
-3.04724e-14
1.29755e-13
6.79111e-14
-2.96226e-15
9.21397e-15
2.24098e-13
1.63109e-14
1.88126e-13
5.05225e-14
-2.64353e-13
-2.16261e-13
2.19853e-13
-1.42646e-13
-1.4712e-14
1.35462e-13
-2.49997e-13
1.52276e-13
-1.62081e-13
2.0657e-13
1.21773e-13
-4.83255e-14
6.23047e-14
1.12063e-12
4.89263e-12
1.54913e-11
4.31288e-11
1.10534e-10
2.69416e-10
6.32998e-10
1.44429e-09
3.2083e-09
6.94967e-09
1.47279e-08
3.06756e-08
6.2981e-08
1.27384e-07
2.52238e-07
4.87821e-07
9.14655e-07
1.62383e-06
2.81912e-06
4.69914e-06
7.66803e-06
1.23689e-05
2.00569e-05
3.18175e-05
4.97995e-05
7.65645e-05
0.000116623
0.000174297
0.000261106
0.000392287
0.000593059
0.000912851
0.00143687
0.00231701
0.00381604
0.00635599
0.0105153
0.0171036
0.0271264
0.0423847
0.0656258
0.101176
0.156958
0.247112
0.391293
0.615855
0.966667
1.50961
2.34577
3.60487
4.66631
2.22714
0.983632
0.459184
0.23153
0.123887
0.0666525
0.0377757
0.0233561
0.0145578
0.00810622
0.00396734
0.00172513
0.000621035
0.000187457
4.86897e-05
1.03694e-05
2.00214e-06
3.68721e-07
6.6461e-08
1.02022e-08
1.34795e-09
1.51669e-10
1.60826e-11
1.71261e-12
2.28708e-13
1.26171e-13
1.29149e-13
-2.81509e-14
1.89877e-13
-2.47729e-13
-1.48578e-13
7.00538e-14
1.31028e-13
-2.55048e-13
2.54057e-14
1.22228e-13
-1.76046e-13
-9.90007e-14
-7.51777e-14
1.05069e-13
1.48591e-14
-4.80899e-15
2.10817e-13
-8.18276e-14
-1.94543e-13
-1.36434e-13
-1.83016e-13
-2.53663e-13
9.79742e-14
1.01596e-12
4.72218e-12
1.53027e-11
4.27266e-11
1.09643e-10
2.67365e-10
6.28368e-10
1.43363e-09
3.18461e-09
6.89812e-09
1.46181e-08
3.04462e-08
6.25141e-08
1.26441e-07
2.50476e-07
4.8472e-07
9.09543e-07
1.61574e-06
2.80476e-06
4.67949e-06
7.64128e-06
1.23332e-05
2.00119e-05
3.17707e-05
4.97707e-05
7.65938e-05
0.000116787
0.000174694
0.000261892
0.000393782
0.000595751
0.000917822
0.00144515
0.00233188
0.00384356
0.00640715
0.0106105
0.0172779
0.0274326
0.0429104
0.0665145
0.102655
0.159487
0.251408
0.398527
0.627559
0.985446
1.53788
2.39038
3.66835
4.62749
2.16216
0.954404
0.446085
0.227063
0.121378
0.0653042
0.0371259
0.0230228
0.0143079
0.00791563
0.00385231
0.00166231
0.000592851
0.000176672
4.55712e-05
9.61188e-06
1.84891e-06
3.41676e-07
6.13968e-08
9.36591e-09
1.22882e-09
1.37262e-10
1.37362e-11
1.29022e-12
1.49304e-14
2.28833e-13
-6.69818e-14
3.50908e-16
-1.18225e-13
-1.09248e-13
-9.94457e-14
7.3051e-14
1.44743e-13
-2.39483e-13
-2.63e-13
-1.07669e-13
4.66729e-14
-1.11303e-14
2.53176e-13
1.27731e-13
1.17004e-13
2.46001e-13
-1.20037e-13
3.92907e-14
-7.58786e-14
5.7697e-14
-2.03164e-13
1.03563e-13
6.21815e-14
1.01813e-12
4.80214e-12
1.52556e-11
4.25102e-11
1.08976e-10
2.65645e-10
6.24484e-10
1.42478e-09
3.16526e-09
6.85645e-09
1.45296e-08
3.0263e-08
6.21437e-08
1.25695e-07
2.49101e-07
4.82266e-07
9.05323e-07
1.60914e-06
2.79357e-06
4.66452e-06
7.62278e-06
1.23101e-05
1.99858e-05
3.17481e-05
4.97726e-05
7.66592e-05
0.000116986
0.000175117
0.000262684
0.000395243
0.000598318
0.000922269
0.00145294
0.00234574
0.00386891
0.00645355
0.0106964
0.0174297
0.0276915
0.0433407
0.067209
0.103734
0.162131
0.255554
0.405228
0.638363
1.00284
1.56626
2.43783
3.74159
4.60159
2.12291
0.9369
0.439042
0.223425
0.119406
0.064276
0.0366653
0.0227981
0.0141242
0.00776306
0.00375591
0.00160903
0.000570022
0.000168557
4.31365e-05
9.03334e-06
1.73141e-06
3.21694e-07
5.76496e-08
8.7655e-09
1.14394e-09
1.27608e-10
1.31412e-11
1.12643e-12
-7.98864e-14
2.23206e-13
9.70785e-14
-2.30436e-13
2.46207e-13
-1.65355e-15
4.7293e-14
8.9984e-14
-6.83191e-14
2.51791e-13
1.27179e-14
3.16471e-14
1.32508e-13
-1.23066e-13
-1.33092e-13
2.71566e-13
4.59577e-14
-9.70686e-14
-1.07779e-13
-1.68365e-13
2.58379e-13
5.28581e-14
1.91059e-14
5.97189e-14
1.15842e-13
1.00113e-12
4.7073e-12
1.51795e-11
4.2233e-11
1.0839e-10
2.64395e-10
6.2127e-10
1.41772e-09
3.14953e-09
6.82282e-09
1.4459e-08
3.01184e-08
6.18564e-08
1.25129e-07
2.48058e-07
4.80388e-07
9.02241e-07
1.60452e-06
2.78549e-06
4.65426e-06
7.61017e-06
1.22948e-05
1.99709e-05
3.1742e-05
4.97972e-05
7.67522e-05
0.000117213
0.000175557
0.000263467
0.000396631
0.000600702
0.000926289
0.00146017
0.00235874
0.00389259
0.00649748
0.0107758
0.0175709
0.0279345
0.0437526
0.067898
0.104889
0.164115
0.258851
0.410647
0.647073
1.01657
1.58704
2.46842
3.78081
4.52946
2.06857
0.914627
0.430374
0.218816
0.117119
0.0631571
0.0361538
0.0225401
0.0139357
0.00762713
0.00367619
0.00156583
0.000551895
0.00016201
4.12294e-05
8.58172e-06
1.64e-06
3.06108e-07
5.46539e-08
8.26768e-09
1.07446e-09
1.19176e-10
1.20522e-11
1.17181e-12
-1.95666e-13
-4.02573e-14
-1.58423e-13
1.42747e-13
1.34728e-13
-1.64919e-13
2.61835e-13
-2.61744e-13
-2.50892e-13
-1.99611e-13
-2.39017e-13
-1.16869e-13
2.10368e-13
2.32056e-13
-2.74838e-13
-2.23435e-13
-3.36489e-14
-1.95329e-13
-1.9778e-13
1.95014e-13
-8.39005e-14
1.77724e-13
-6.71244e-16
1.27136e-13
1.30103e-13
1.04268e-12
4.69431e-12
1.51353e-11
4.19982e-11
1.07976e-10
2.63308e-10
6.18699e-10
1.41194e-09
3.13674e-09
6.7953e-09
1.44007e-08
2.9998e-08
6.16143e-08
1.24641e-07
2.47138e-07
4.78811e-07
8.99764e-07
1.60103e-06
2.77948e-06
4.64721e-06
7.60201e-06
1.22864e-05
1.99657e-05
3.17481e-05
4.9834e-05
7.68528e-05
0.000117437
0.000175981
0.000264227
0.000397969
0.000602993
0.000930186
0.00146669
0.00237037
0.00391388
0.00653641
0.0108463
0.0176958
0.028149
0.0441161
0.0685096
0.105923
0.16589
0.261858
0.415682
0.655283
1.02974
1.60813
2.50247
3.83104
4.4829
2.03351
0.89946
0.424145
0.215966
0.115525
0.0623293
0.0357583
0.0223258
0.0137739
0.00751181
0.00360938
0.00153037
0.000537153
0.00015675
3.96812e-05
8.22671e-06
1.57019e-06
2.93923e-07
5.23554e-08
7.89244e-09
1.02227e-09
1.12203e-10
1.17698e-11
1.39779e-12
-2.53815e-13
-2.63254e-13
-4.62143e-14
-2.72553e-13
-1.08889e-13
-1.95758e-13
2.30598e-14
-1.64217e-13
-2.48628e-13
2.70896e-13
-2.44421e-13
1.9701e-13
-4.91169e-14
-1.96903e-13
1.58511e-13
1.16398e-13
-1.45547e-13
-9.41201e-14
2.7369e-13
7.93462e-14
2.15057e-13
-1.77239e-14
3.26737e-14
1.14298e-14
9.02903e-15
1.09925e-12
4.6487e-12
1.50811e-11
4.19772e-11
1.07602e-10
2.62413e-10
6.16711e-10
1.40732e-09
3.12669e-09
6.77346e-09
1.43547e-08
2.99029e-08
6.14234e-08
1.24258e-07
2.46466e-07
4.77693e-07
8.98014e-07
1.59851e-06
2.7751e-06
4.6421e-06
7.59693e-06
1.22824e-05
1.99665e-05
3.17614e-05
4.98764e-05
7.69531e-05
0.000117645
0.000176369
0.000264895
0.000399126
0.000604948
0.000933478
0.0014725
0.00238052
0.0039321
0.00656926
0.0109057
0.0178013
0.0283315
0.0444283
0.0690377
0.1068
0.167369
0.264352
0.419866
0.662148
1.04087
1.62592
2.53085
3.8716
4.44148
2.00683
0.88787
0.419392
0.213928
0.114387
0.0617333
0.0354846
0.0221816
0.0136545
0.00741825
0.00355328
0.00150049
0.000525002
0.000152517
3.84716e-05
7.94573e-06
1.51499e-06
2.842e-07
5.05351e-08
7.5965e-09
9.80447e-10
1.07896e-10
1.09347e-11
9.91685e-13
-2.15991e-14
-6.74427e-14
7.27081e-14
1.26933e-13
-1.81436e-13
-1.54387e-13
-1.92753e-13
3.87843e-14
7.45697e-14
9.98951e-14
4.30586e-14
-5.30389e-14
-4.62201e-14
-2.55392e-13
-8.5485e-14
-5.19607e-14
1.25446e-14
1.05862e-13
-1.21754e-13
2.54813e-13
-2.68496e-13
-1.06072e-13
4.15724e-14
-1.98581e-13
1.31578e-13
1.06612e-12
4.715e-12
1.50529e-11
4.18278e-11
1.073e-10
2.61674e-10
6.15181e-10
1.40374e-09
3.11896e-09
6.75678e-09
1.43199e-08
2.9832e-08
6.12838e-08
1.23982e-07
2.45973e-07
4.76846e-07
8.96697e-07
1.5967e-06
2.77204e-06
4.63905e-06
7.59433e-06
1.22814e-05
1.99705e-05
3.17772e-05
4.99183e-05
7.70465e-05
0.000117834
0.00017671
0.000265489
0.000400132
0.000606643
0.000936406
0.00147752
0.00238941
0.00394829
0.00659856
0.0109583
0.0178937
0.0284887
0.0446921
0.0694731
0.107524
0.168587
0.266415
0.423363
0.667996
1.05066
1.64236
2.55901
3.91535
4.42999
1.99631
0.882692
0.417025
0.212847
0.113718
0.0613687
0.0353239
0.0220998
0.0135765
0.00735084
0.00351018
0.00147677
0.000515263
0.000149119
3.74872e-05
7.71853e-06
1.46964e-06
2.76238e-07
4.9041e-08
7.35473e-09
9.47164e-10
1.03775e-10
1.02191e-11
1.13172e-12
-2.18544e-13
-1.14454e-13
6.75741e-14
-1.71671e-13
2.23803e-13
8.93606e-14
2.36778e-13
-1.11239e-13
-3.45799e-14
4.73444e-14
1.32765e-13
1.97401e-13
2.67982e-13
1.60694e-15
1.07704e-13
5.96736e-14
-2.12515e-13
-2.18012e-13
1.96857e-13
7.28688e-14
-2.33165e-13
-1.29948e-13
4.77409e-14
4.96013e-14
2.02287e-14
1.04304e-12
4.71335e-12
1.4938e-11
4.17103e-11
1.07067e-10
2.61213e-10
6.13989e-10
1.40115e-09
3.11338e-09
6.74495e-09
1.42952e-08
2.97821e-08
6.11841e-08
1.23779e-07
2.45604e-07
4.76218e-07
8.95749e-07
1.59545e-06
2.76991e-06
4.63703e-06
7.59311e-06
1.22821e-05
1.99762e-05
3.17937e-05
4.99583e-05
7.71307e-05
0.000117997
0.000176999
0.000265979
0.000400972
0.000608044
0.000938766
0.00148161
0.00239667
0.0039613
0.00662193
0.0110001
0.0179669
0.028613
0.0449005
0.0698182
0.108095
0.169545
0.268014
0.425994
0.672193
1.05716
1.65214
2.57314
3.93266
4.38507
1.9752
0.874594
0.413797
0.211835
0.113183
0.0611001
0.035214
0.0220487
0.0135261
0.0073054
0.00347972
0.00145911
0.000507882
0.000146527
3.67513e-05
7.54526e-06
1.43518e-06
2.70205e-07
4.79018e-08
7.17023e-09
9.21701e-10
1.00427e-10
1.01405e-11
1.36835e-12
-2.76869e-13
-4.27328e-15
-1.2996e-13
-5.07816e-14
7.06134e-14
-2.69211e-13
1.57516e-13
1.85241e-13
-8.25658e-14
-5.59404e-14
2.52406e-13
9.4835e-14
2.07671e-13
1.94998e-13
2.37894e-13
-2.14444e-13
8.92438e-14
5.31063e-14
2.18049e-13
-5.09841e-14
1.55321e-13
1.58166e-13
1.03584e-13
2.00866e-13
3.82914e-14
1.11973e-12
4.67802e-12
1.49656e-11
4.1615e-11
1.06928e-10
2.60817e-10
6.13141e-10
1.39946e-09
3.10951e-09
6.73655e-09
1.42773e-08
2.97448e-08
6.11097e-08
1.23632e-07
2.4535e-07
4.75806e-07
8.95142e-07
1.59467e-06
2.76859e-06
4.63593e-06
7.59275e-06
1.22834e-05
1.99815e-05
3.18075e-05
4.99896e-05
7.71949e-05
0.000118119
0.000177215
0.000266347
0.000401594
0.000609089
0.000940481
0.00148464
0.00240202
0.0039709
0.00663916
0.0110309
0.0180205
0.0287039
0.0450526
0.0700696
0.10851
0.17024
0.269185
0.427972
0.675496
1.06267
1.66126
2.58833
3.95438
4.37371
1.96738
0.870939
0.412352
0.210868
0.112729
0.0608918
0.0351324
0.0220138
0.0134935
0.00727574
0.00345925
0.00144673
0.000502605
0.000144668
3.61936e-05
7.42432e-06
1.41138e-06
2.6607e-07
4.71249e-08
7.0445e-09
9.0396e-10
9.85505e-11
1.04756e-11
1.35524e-12
4.12815e-14
2.01697e-13
-1.45879e-13
-6.78392e-14
-1.30157e-13
-3.38328e-14
1.79328e-13
7.87137e-14
2.71081e-13
-1.40636e-13
3.16243e-14
-3.89309e-14
-1.52648e-14
-6.86441e-14
2.23561e-13
-1.13046e-13
-1.27091e-13
-1.80691e-13
9.50399e-14
-2.03476e-13
7.95647e-15
8.85383e-14
4.68171e-14
-6.99748e-15
6.71736e-14
1.08299e-12
4.7477e-12
1.49575e-11
4.16045e-11
1.06906e-10
2.60613e-10
6.12651e-10
1.39819e-09
3.10687e-09
6.73086e-09
1.42654e-08
2.97209e-08
6.10634e-08
1.2354e-07
2.45191e-07
4.7555e-07
8.94777e-07
1.59423e-06
2.76784e-06
4.63539e-06
7.59279e-06
1.22847e-05
1.99856e-05
3.18174e-05
5.00115e-05
7.72388e-05
0.000118202
0.000177361
0.000266593
0.000402009
0.000609782
0.000941637
0.00148663
0.00240551
0.00397713
0.00665031
0.0110508
0.018055
0.028762
0.0451495
0.0702292
0.108771
0.170674
0.269907
0.429171
0.677447
1.06581
1.66629
2.59635
3.96554
4.35596
1.95872
0.867444
0.411032
0.210383
0.112417
0.0607203
0.0350463
0.0219657
0.0134573
0.00725049
0.00344448
0.00143846
0.000499147
0.000143449
3.5845e-05
7.3447e-06
1.39566e-06
2.63358e-07
4.66141e-08
6.96125e-09
8.92186e-10
9.76623e-11
9.66555e-12
1.45424e-12
1.37087e-13
-3.4651e-14
-2.56702e-13
-1.64787e-13
-1.35025e-14
1.48779e-13
1.96047e-13
6.83349e-14
1.10662e-13
5.02727e-14
9.3957e-14
5.9032e-14
-2.09243e-13
2.44343e-13
-2.07304e-13
-1.60549e-14
1.92871e-13
-2.32375e-13
7.6809e-14
2.02644e-13
3.62083e-14
-2.41379e-13
-5.74301e-14
8.3166e-14
1.16407e-14
1.09613e-12
4.63555e-12
1.50059e-11
4.16153e-11
1.06799e-10
2.60569e-10
6.12404e-10
1.39767e-09
3.10562e-09
6.72822e-09
1.42599e-08
2.97097e-08
6.10417e-08
1.23497e-07
2.45117e-07
4.75433e-07
8.94614e-07
1.59404e-06
2.76752e-06
4.6352e-06
7.59294e-06
1.22855e-05
1.9988e-05
3.18229e-05
5.00232e-05
7.72618e-05
0.000118245
0.000177435
0.000266718
0.000402221
0.000610136
0.0009423
0.00148763
0.00240723
0.00398019
0.00665575
0.0110604
0.0180717
0.0287899
0.0451954
0.0703034
0.108889
0.17086
0.270193
0.429581
0.677957
1.06625
1.66607
2.59391
3.9584
4.32286
1.94434
0.861482
0.40776
0.210963
0.112646
0.0608018
0.0350901
0.0219923
0.0134627
0.00724385
0.00343707
0.00143374
0.000497205
0.00014279
3.56594e-05
7.30284e-06
1.38735e-06
2.61891e-07
4.63407e-08
6.91778e-09
8.86359e-10
9.66489e-11
1.00148e-11
1.09022e-12
-1.13368e-13
-1.3419e-13
-2.52948e-13
-8.96273e-14
3.83407e-14
-7.92473e-14
2.34376e-13
2.39415e-13
1.45602e-13
-5.18516e-14
-1.32498e-13
-2.48831e-13
2.35111e-13
2.6807e-13
-2.7001e-13
-1.2303e-13
-1.27385e-13
2.13695e-13
2.68028e-13
2.04885e-13
2.67634e-14
1.80211e-13
1.09558e-13
-8.16336e-14
1.056e-13
1.02918e-12
4.7333e-12
1.49989e-11
4.16437e-11
1.06885e-10
2.60569e-10
6.12382e-10
1.39763e-09
3.10553e-09
6.72817e-09
1.42599e-08
2.97098e-08
6.10421e-08
1.23498e-07
2.4512e-07
4.75439e-07
8.94626e-07
1.59406e-06
2.76756e-06
4.63527e-06
7.59305e-06
1.22857e-05
1.99882e-05
3.18233e-05
5.00236e-05
7.72622e-05
0.000118245
0.000177434
0.000266717
0.000402219
0.000610132
0.00094228
0.00148762
0.00240721
0.00398015
0.00665568
0.0110603
0.0180714
0.0287896
0.0451952
0.0703039
0.108893
0.170872
0.270229
0.429685
0.67824
1.067
1.66801
2.5988
3.96822
4.352
1.95628
0.866315
0.410492
0.210062
0.112244
0.0606307
0.0350105
0.021948
0.013438
0.007233
0.00343331
0.00143262
0.000496914
0.00014272
3.56435e-05
7.29973e-06
1.38674e-06
2.61769e-07
4.63192e-08
6.91452e-09
8.86235e-10
9.63056e-11
9.65022e-12
1.45847e-12
1.84741e-13
1.13266e-13
1.41112e-13
9.61139e-14
-2.58097e-13
9.0824e-14
2.25024e-13
-2.38281e-13
1.96668e-14
1.5218e-13
1.42408e-13
-1.15299e-13
2.13911e-13
-5.43059e-14
2.53081e-13
-1.30835e-13
4.49996e-14
-1.96551e-14
-6.58111e-14
-2.38531e-13
-1.14559e-13
-2.04747e-13
-2.56315e-13
-2.50287e-13
1.11926e-13
1.03383e-12
4.63779e-12
1.4944e-11
4.1681e-11
1.06897e-10
2.60557e-10
6.12519e-10
1.39818e-09
3.10681e-09
6.73085e-09
1.42654e-08
2.9721e-08
6.10643e-08
1.23542e-07
2.45197e-07
4.75565e-07
8.94809e-07
1.59429e-06
2.76795e-06
4.63558e-06
7.5931e-06
1.22852e-05
1.99863e-05
3.18183e-05
5.00125e-05
7.72396e-05
0.000118203
0.00017736
0.00026659
0.000402003
0.000609769
0.000941658
0.00148659
0.00240542
0.00397696
0.00664999
0.0110501
0.0180538
0.0287599
0.045146
0.0702242
0.108764
0.170661
0.269883
0.429117
0.677314
1.06548
1.66547
2.59446
3.96133
4.35832
1.9595
0.867607
0.410994
0.21029
0.112374
0.0606969
0.035038
0.0219612
0.0134501
0.00724337
0.00344018
0.00143663
0.000498568
0.000143294
3.58074e-05
7.33715e-06
1.3942e-06
2.63065e-07
4.65627e-08
6.95325e-09
8.91107e-10
9.73777e-11
9.92061e-12
1.19239e-12
-1.06419e-13
2.2129e-14
-8.00463e-14
-2.45987e-13
6.0387e-14
1.68302e-13
-8.80095e-14
-2.00696e-13
-8.91761e-14
-1.71734e-13
-1.57075e-13
4.01526e-14
3.84696e-14
-1.63789e-13
9.26405e-14
-1.2816e-13
2.28184e-13
-2.89051e-14
-1.92619e-13
-1.073e-13
1.92941e-13
-2.67929e-13
8.79032e-14
-1.63201e-13
3.03831e-14
1.03452e-12
4.76372e-12
1.50414e-11
4.16537e-11
1.07006e-10
2.60757e-10
6.13118e-10
1.39941e-09
3.10936e-09
6.73632e-09
1.4277e-08
2.97446e-08
6.11108e-08
1.23636e-07
2.45361e-07
4.75832e-07
8.95196e-07
1.59477e-06
2.76876e-06
4.63621e-06
7.59318e-06
1.2284e-05
1.99823e-05
3.18084e-05
4.99904e-05
7.71949e-05
0.000118118
0.000177211
0.00026634
0.000401581
0.000609065
0.00094047
0.00148454
0.00240183
0.00397053
0.00663845
0.0110295
0.018018
0.0286994
0.045045
0.0700579
0.108491
0.170208
0.269131
0.427873
0.675292
1.06223
1.66035
2.58647
3.95068
4.37471
1.96735
0.870681
0.412156
0.210763
0.112634
0.0608278
0.0350918
0.0219864
0.0134742
0.00726431
0.00345398
0.00144466
0.000501944
0.000144487
3.61504e-05
7.41543e-06
1.40967e-06
2.65748e-07
4.70654e-08
7.03569e-09
9.03065e-10
9.87175e-11
9.87083e-12
1.48102e-12
2.75644e-13
-2.73731e-13
1.37047e-13
7.36069e-14
-7.81571e-14
-2.62514e-13
8.05583e-14
-5.30899e-14
-2.71404e-14
1.62028e-13
-7.54412e-14
-1.55312e-13
1.18378e-13
2.54169e-13
-1.0294e-13
-5.51113e-14
-1.3506e-13
-2.58547e-13
2.66348e-13
1.65166e-13
-1.61967e-13
-1.2199e-13
3.67278e-14
-1.68788e-13
1.11905e-13
1.06659e-12
4.72714e-12
1.49899e-11
4.17643e-11
1.07064e-10
2.61129e-10
6.13924e-10
1.4012e-09
3.11334e-09
6.74493e-09
1.42951e-08
2.97815e-08
6.11834e-08
1.2378e-07
2.45615e-07
4.76253e-07
8.9582e-07
1.59557e-06
2.77011e-06
4.63736e-06
7.5936e-06
1.22828e-05
1.9977e-05
3.17947e-05
4.99591e-05
7.71307e-05
0.000117994
0.000176993
0.000265967
0.000400948
0.000607998
0.000938683
0.00148146
0.00239639
0.00396076
0.00662089
0.0109982
0.0179632
0.0286066
0.0448893
0.069799
0.108064
0.169492
0.26793
0.42587
0.67203
1.05704
1.65228
2.57437
3.93599
4.3976
1.98038
0.876398
0.414552
0.211802
0.113236
0.0611491
0.0352515
0.0220773
0.0135421
0.00731008
0.00347915
0.00145771
0.000507196
0.000146319
3.67015e-05
7.53611e-06
1.43366e-06
2.69922e-07
4.78558e-08
7.1636e-09
9.20949e-10
1.00444e-10
1.03662e-11
1.37997e-12
-1.83666e-14
-1.66955e-13
-2.7741e-13
-1.3542e-13
-1.68777e-13
-9.83633e-14
3.21571e-14
1.50869e-13
-4.74044e-15
-1.99871e-13
9.47462e-14
-1.80113e-14
1.37154e-13
-1.31237e-13
-2.58547e-13
5.07851e-15
-2.04e-13
1.67219e-13
-1.96249e-13
-2.45612e-13
-2.1616e-13
-5.77152e-14
-6.3554e-14
1.81285e-13
1.27586e-14
1.05503e-12
4.65139e-12
1.51143e-11
4.18732e-11
1.07297e-10
2.61695e-10
6.15146e-10
1.40386e-09
3.1191e-09
6.75726e-09
1.43208e-08
2.98338e-08
6.12868e-08
1.23986e-07
2.4598e-07
4.76863e-07
8.96746e-07
1.59681e-06
2.77223e-06
4.6394e-06
7.59487e-06
1.22821e-05
1.99715e-05
3.17784e-05
4.99194e-05
7.70472e-05
0.000117833
0.000176706
0.000265477
0.000400113
0.000606606
0.000936324
0.00147735
0.0023891
0.00394764
0.00659729
0.010956
0.0178895
0.0284815
0.0446799
0.0694527
0.107487
0.168521
0.266293
0.423113
0.66743
1.0493
1.63903
2.55091
3.89805
4.40048
1.98511
0.878954
0.415738
0.212305
0.113607
0.0613643
0.0353393
0.0221214
0.0135948
0.00735968
0.00351146
0.0014755
0.0005144
0.000148825
3.73996e-05
7.70289e-06
1.46687e-06
2.75741e-07
4.89399e-08
7.33782e-09
9.44323e-10
1.03666e-10
1.06451e-11
1.04548e-12
-9.79962e-14
-9.64623e-14
-2.54134e-13
-1.69321e-14
2.38455e-13
-1.85827e-13
1.21595e-13
-7.23428e-14
-7.27084e-14
-2.02926e-13
-1.52419e-13
-1.60268e-13
2.28029e-13
5.82951e-14
2.34417e-13
2.16464e-13
1.43135e-13
2.17599e-14
-9.57816e-14
-2.1825e-13
-1.53297e-13
2.26133e-13
2.0993e-13
-2.40674e-13
4.55633e-14
1.06531e-12
4.6871e-12
1.49909e-11
4.18896e-11
1.07583e-10
2.62329e-10
6.1664e-10
1.40728e-09
3.1268e-09
6.77371e-09
1.43555e-08
2.99049e-08
6.14277e-08
1.24266e-07
2.46478e-07
4.77701e-07
8.98018e-07
1.59853e-06
2.77517e-06
4.64243e-06
7.59752e-06
1.22832e-05
1.99677e-05
3.1763e-05
4.98784e-05
7.69553e-05
0.000117647
0.00017637
0.000264898
0.000399124
0.000604941
0.000933505
0.00147254
0.00238061
0.00393237
0.00656973
0.0109063
0.0178021
0.028332
0.0444274
0.069032
0.106791
0.167359
0.264358
0.41993
0.662439
1.04178
1.62841
2.53686
3.88342
4.4677
2.01836
0.892003
0.420957
0.214524
0.114664
0.0618644
0.0355573
0.0222285
0.013679
0.00742488
0.00355138
0.00149748
0.000523492
0.000152037
3.83429e-05
7.91821e-06
1.50955e-06
2.83222e-07
5.0363e-08
7.56959e-09
9.76589e-10
1.07269e-10
1.09061e-11
1.06196e-12
-1.61634e-13
-2.21092e-14
-1.8817e-13
2.18181e-13
8.27397e-15
-1.82609e-13
9.81138e-14
6.80758e-15
1.91915e-13
-1.58279e-13
-2.37388e-13
-1.97793e-13
-1.196e-13
1.66968e-13
3.969e-14
-1.53338e-13
-3.30445e-14
-2.71159e-13
9.84797e-15
-1.49648e-13
1.91363e-13
-1.7299e-13
-5.10883e-14
1.30749e-13
8.70438e-14
1.07689e-12
4.66374e-12
1.5119e-11
4.20726e-11