/*--------------------------------*- C++ -*----------------------------------*\
  =========                 |
  \\      /  F ield         | OpenFOAM: The Open Source CFD Toolbox
   \\    /   O peration     | Website:  https://openfoam.org
    \\  /    A nd           | Version:  10
     \\/     M anipulation  |
\*---------------------------------------------------------------------------*/
FoamFile
{
    format      ascii;
    class       volScalarField;
    location    "1";
    object      RR.OH*;
}
// * * * * * * * * * * * * * * * * * * * * * * * * * * * * * * * * * * * * * //

dimensions      [1 -3 -1 0 0 0 0];

internalField   nonuniform List<scalar> 
4000
(
-1.07725e-32
-3.71201e-32
-9.35233e-32
-2.37169e-31
-6.13355e-31
-1.63289e-30
-4.55628e-30
-1.37156e-29
-4.62455e-29
-1.80086e-28
-8.09422e-28
-4.05163e-27
-2.15357e-26
-1.16806e-25
-7.23701e-25
-3.93744e-24
-2.04956e-23
-1.00661e-22
-4.50663e-22
-1.95458e-21
-7.71001e-21
-2.86705e-20
-1.01891e-19
-3.33594e-19
-1.03562e-18
-3.05072e-18
-8.58172e-18
-2.31315e-17
-5.93429e-17
-1.47417e-16
-3.52765e-16
-8.15323e-16
-1.83104e-15
-4.00727e-15
-8.52385e-15
-1.77172e-14
-3.5991e-14
-7.01587e-14
-1.35102e-13
-2.54478e-13
-4.7228e-13
-8.58708e-13
-1.52668e-12
-2.66124e-12
-4.5839e-12
-7.71152e-12
-1.25663e-11
-1.96621e-11
-2.89912e-11
-3.84725e-11
-4.02927e-11
-1.97043e-11
6.75882e-12
2.28577e-10
1.12717e-10
-1.45177e-11
-5.05875e-11
-4.31015e-11
-2.77989e-11
-1.55976e-11
-7.99283e-12
-3.84056e-12
-1.73998e-12
-7.42964e-13
-2.9801e-13
-1.10356e-13
-3.79363e-14
-1.19794e-14
-3.30377e-15
-7.99732e-16
-1.74901e-16
-3.19123e-17
-4.99663e-18
-6.76558e-19
-8.00881e-20
-8.50738e-21
-8.30167e-22
-7.62411e-23
-6.71756e-24
-5.75478e-25
-4.84515e-26
-4.02692e-27
-3.3215e-28
-2.72284e-29
-2.22561e-30
-1.81366e-31
-1.47493e-32
-1.19695e-33
-9.69859e-35
-7.84058e-36
-6.33901e-37
-5.1204e-38
-4.13324e-39
-3.3346e-40
-2.68916e-41
-2.16797e-42
-1.74741e-43
-1.4084e-44
-1.13704e-45
-7.79388e-47
-1.05789e-32
-3.6436e-32
-9.17316e-32
-2.32365e-31
-5.99845e-31
-1.59313e-30
-4.43226e-30
-1.32917e-29
-4.46317e-29
-1.73208e-28
-7.77038e-28
-3.88763e-27
-2.06696e-26
-1.12246e-25
-6.95486e-25
-3.78854e-24
-1.97405e-23
-9.71682e-23
-4.36409e-22
-1.90153e-21
-7.52252e-21
-2.80534e-20
-9.99875e-20
-3.29033e-19
-1.02486e-18
-3.02899e-18
-8.53654e-18
-2.30978e-17
-5.93701e-17
-1.47874e-16
-3.54635e-16
-8.2094e-16
-1.84628e-15
-4.04872e-15
-8.62849e-15
-1.79596e-14
-3.65291e-14
-7.12768e-14
-1.37409e-13
-2.59039e-13
-4.81078e-13
-8.75301e-13
-1.55657e-12
-2.71517e-12
-4.67902e-12
-7.87445e-12
-1.28302e-11
-2.00655e-11
-2.95506e-11
-3.9112e-11
-4.06951e-11
-1.97132e-11
1.99224e-11
2.28983e-10
1.05671e-10
-1.81429e-11
-5.10335e-11
-4.26809e-11
-2.72761e-11
-1.52217e-11
-7.72608e-12
-3.69457e-12
-1.66646e-12
-7.07876e-13
-2.81936e-13
-1.04216e-13
-3.5604e-14
-1.11478e-14
-3.03941e-15
-7.26139e-16
-1.56609e-16
-2.82665e-17
-4.38799e-18
-5.87436e-19
-6.93185e-20
-7.35514e-21
-7.18985e-22
-6.62301e-23
-5.85736e-24
-5.03763e-25
-4.25865e-26
-3.55304e-27
-2.93817e-28
-2.41701e-29
-1.9772e-30
-1.61212e-31
-1.31225e-32
-1.06557e-33
-8.63987e-35
-7.00432e-36
-5.66351e-37
-4.57708e-38
-3.6968e-39
-2.98413e-40
-2.40784e-41
-1.9423e-42
-1.56651e-43
-1.26351e-44
-1.02091e-45
-7.00345e-47
-1.03486e-32
-3.56343e-32
-8.96874e-32
-2.27122e-31
-5.86031e-31
-1.55377e-30
-4.30828e-30
-1.28652e-29
-4.30009e-29
-1.66244e-28
-7.44358e-28
-3.72437e-27
-1.98377e-26
-1.07922e-25
-6.6789e-25
-3.64117e-24
-1.9002e-23
-9.35855e-23
-4.21079e-22
-1.83968e-21
-7.30037e-21
-2.7321e-20
-9.73395e-20
-3.2717e-19
-1.01903e-18
-3.02084e-18
-8.52623e-18
-2.31645e-17
-5.97035e-17
-1.49221e-16
-3.59001e-16
-8.32703e-16
-1.87789e-15
-4.12546e-15
-8.81339e-15
-1.83848e-14
-3.69909e-14
-7.30934e-14
-1.41051e-13
-2.66415e-13
-4.95277e-13
-9.01428e-13
-1.60388e-12
-2.80055e-12
-4.8275e-12
-8.12315e-12
-1.32267e-11
-2.06683e-11
-3.03912e-11
-4.00718e-11
-4.12811e-11
-1.96707e-11
3.96915e-11
2.28268e-10
9.5532e-11
-2.28638e-11
-5.14794e-11
-4.18214e-11
-2.63958e-11
-1.46518e-11
-7.33366e-12
-3.49032e-12
-1.56674e-12
-6.61558e-13
-2.61508e-13
-9.6259e-14
-3.25869e-14
-1.00936e-14
-2.71628e-15
-6.39897e-16
-1.36258e-16
-2.42947e-17
-3.74544e-18
-5.0076e-19
-5.89836e-20
-6.26223e-21
-6.13037e-22
-5.66055e-23
-5.02049e-24
-4.31701e-25
-3.65128e-26
-3.04833e-27
-2.52443e-28
-2.07866e-29
-1.70434e-30
-1.39278e-31
-1.13594e-32
-9.23319e-34
-7.4902e-35
-6.06687e-36
-4.91308e-37
-3.97051e-38
-3.20586e-39
-2.58693e-40
-2.08663e-41
-1.68263e-42
-1.35668e-43
-1.09401e-44
-8.83846e-46
-6.06336e-47
-1.00622e-32
-3.46159e-32
-8.69838e-32
-2.19786e-31
-5.65534e-31
-1.49519e-30
-4.13529e-30
-1.23231e-29
-4.11617e-29
-1.59367e-28
-7.15828e-28
-3.59464e-27
-1.92052e-26
-1.04797e-25
-6.47925e-25
-3.53786e-24
-1.84986e-23
-9.14025e-23
-4.1221e-22
-1.80544e-21
-7.18844e-21
-2.69989e-20
-9.63058e-20
-3.25368e-19
-1.01662e-18
-3.02256e-18
-8.55658e-18
-2.33316e-17
-6.02947e-17
-1.51171e-16
-3.64805e-16
-8.47647e-16
-1.91612e-15
-4.21752e-15
-9.03423e-15
-1.88811e-14
-3.80747e-14
-7.53652e-14
-1.45764e-13
-2.75614e-13
-5.12784e-13
-9.34706e-13
-1.66496e-12
-2.90884e-12
-5.01673e-12
-8.4437e-12
-1.37365e-11
-2.14582e-11
-3.14561e-11
-4.11719e-11
-4.1624e-11
-1.98371e-11
6.23319e-11
2.2609e-10
8.37427e-11
-2.81181e-11
-5.18017e-11
-4.07799e-11
-2.53524e-11
-1.39276e-11
-6.91646e-12
-3.26765e-12
-1.45622e-12
-6.1145e-13
-2.40048e-13
-8.74711e-14
-2.93308e-14
-8.98134e-15
-2.38519e-15
-5.5373e-16
-1.16489e-16
-2.05534e-17
-3.11728e-18
-4.10272e-19
-4.76873e-20
-5.01204e-21
-4.87002e-22
-4.47384e-23
-3.95515e-24
-3.42086e-25
-2.91089e-26
-2.43748e-27
-2.0247e-28
-1.67219e-29
-1.37503e-30
-1.12676e-31
-9.21766e-33
-7.51507e-34
-6.1147e-35
-4.96662e-36
-4.03002e-37
-3.26452e-38
-2.64163e-39
-2.13574e-40
-1.72552e-41
-1.39338e-42
-1.1248e-43
-9.07932e-45
-7.34113e-46
-5.03892e-47
-9.8044e-33
-3.37184e-32
-8.468e-32
-2.13788e-31
-5.49504e-31
-1.45091e-30
-4.0071e-30
-1.1927e-29
-3.98305e-29
-1.54436e-28
-6.95684e-28
-3.50546e-27
-1.87906e-26
-1.02847e-25
-6.35167e-25
-3.47298e-24
-1.81886e-23
-9.00518e-23
-4.06997e-22
-1.78502e-21
-7.12874e-21
-2.68519e-20
-9.57825e-20
-3.24928e-19
-1.01815e-18
-3.03665e-18
-8.62082e-18
-2.35847e-17
-6.10877e-17
-1.53638e-16
-3.7162e-16
-8.66518e-16
-1.96011e-15
-4.32092e-15
-9.27603e-15
-1.94181e-14
-3.92353e-14
-7.78185e-14
-1.50661e-13
-2.85174e-13
-5.31301e-13
-9.69354e-13
-1.72826e-12
-3.02132e-12
-5.21235e-12
-8.77224e-12
-1.42372e-11
-2.21979e-11
-3.2429e-11
-4.21101e-11
-4.16869e-11
-2.0445e-11
8.71335e-11
2.21592e-10
7.14554e-11
-3.30042e-11
-5.18809e-11
-3.96519e-11
-2.4298e-11
-1.32327e-11
-6.52911e-12
-3.06606e-12
-1.35706e-12
-5.65185e-13
-2.20121e-13
-7.95173e-14
-2.6429e-14
-8.01101e-15
-2.09868e-15
-4.79904e-16
-9.98214e-17
-1.73121e-17
-2.59346e-18
-3.37989e-19
-3.9017e-20
-4.08447e-21
-3.96073e-22
-3.63669e-23
-3.2164e-24
-2.77205e-25
-2.35276e-26
-1.9777e-27
-1.64879e-28
-1.36629e-29
-1.12474e-30
-9.22701e-32
-7.5586e-33
-6.16929e-34
-5.02502e-35
-4.08559e-36
-3.31861e-37
-2.69045e-38
-2.17866e-39
-1.76251e-40
-1.42475e-41
-1.15102e-42
-9.2949e-44
-7.50495e-45
-6.06962e-46
-4.16686e-47
-9.5717e-33
-3.29099e-32
-8.26117e-32
-2.08424e-31
-5.35222e-31
-1.41159e-30
-3.89387e-30
-1.15806e-29
-3.86873e-29
-1.50324e-28
-6.79588e-28
-3.43796e-27
-1.84967e-26
-1.01572e-25
-6.26784e-25
-3.43258e-24
-1.80079e-23
-8.93351e-23
-4.0454e-22
-1.77401e-21
-7.10325e-21
-2.68206e-20
-9.56526e-20
-3.25671e-19
-1.02345e-18
-3.06051e-18
-8.71131e-18
-2.3903e-17
-6.20598e-17
-1.56443e-16
-3.7918e-16
-8.84213e-16
-2.00622e-15
-4.42872e-15
-9.52292e-15
-1.99656e-14
-4.04163e-14
-8.0233e-14
-1.55498e-13
-2.94709e-13
-5.49466e-13
-1.00326e-12
-1.78811e-12
-3.12595e-12
-5.39182e-12
-9.06924e-12
-1.47098e-11
-2.2884e-11
-3.33001e-11
-4.28152e-11
-4.11864e-11
-2.16552e-11
1.08933e-10
2.15894e-10
6.02274e-11
-3.71012e-11
-5.16363e-11
-3.84461e-11
-2.3214e-11
-1.25082e-11
-6.14745e-12
-2.87337e-12
-1.26676e-12
-5.24514e-13
-2.03017e-13
-7.2824e-14
-2.41067e-14
-7.07857e-15
-1.83333e-15
-4.15584e-16
-8.5124e-17
-1.45836e-17
-2.16254e-18
-2.79625e-19
-3.21e-20
-3.34947e-21
-3.24237e-22
-2.97571e-23
-2.63292e-24
-2.27207e-25
-1.92774e-26
-1.6172e-27
-1.34605e-28
-1.11407e-29
-9.20444e-31
-7.57597e-32
-6.22634e-33
-5.09559e-34
-4.16041e-35
-3.38973e-36
-2.75884e-37
-2.24011e-38
-1.81492e-39
-1.4689e-40
-1.18783e-41
-9.59903e-43
-7.7533e-44
-6.26123e-45
-5.06429e-46
-3.47688e-47
-9.36602e-33
-3.21963e-32
-8.07902e-32
-2.03713e-31
-5.22726e-31
-1.37735e-30
-3.79581e-30
-1.1283e-29
-3.7716e-29
-1.46887e-28
-6.66416e-28
-3.38418e-27
-1.82702e-26
-1.00634e-25
-6.20526e-25
-3.40322e-24
-1.78816e-23
-8.88688e-23
-4.03149e-22
-1.76759e-21
-7.0966e-21
-2.68583e-20
-9.5752e-20
-3.27118e-19
-1.03037e-18
-3.08793e-18
-8.80802e-18
-2.42243e-17
-6.30165e-17
-1.59161e-16
-3.86395e-16
-9.02276e-16
-2.04981e-15
-4.52982e-15
-9.75086e-15
-2.04647e-14
-4.14883e-14
-8.24393e-14
-1.59896e-13
-3.03244e-13
-5.65886e-13
-1.03342e-12
-1.84166e-12
-3.21909e-12
-5.54976e-12
-9.32573e-12
-1.50907e-11
-2.34141e-11
-3.39556e-11
-4.30993e-11
-4.00491e-11
-2.43339e-11
1.30446e-10
2.08701e-10
5.00557e-11
-4.08126e-11
-5.12221e-11
-3.72432e-11
-2.22194e-11
-1.18543e-11
-5.85815e-12
-2.72402e-12
-1.19245e-12
-4.90877e-13
-1.88946e-13
-6.73776e-14
-2.21558e-14
-6.44497e-15
-1.65463e-15
-3.70944e-16
-7.53114e-17
-1.27804e-17
-1.87982e-18
-2.41361e-19
-2.75581e-20
-2.86539e-21
-2.76747e-22
-2.53691e-23
-2.24377e-24
-1.93681e-25
-1.6439e-26
-1.37981e-27
-1.14915e-28
-9.51629e-30
-7.84637e-31
-6.44646e-32
-5.29036e-33
-4.32329e-34
-3.5253e-35
-2.86898e-36
-2.33299e-37
-1.89277e-38
-1.53514e-39
-1.24354e-40
-1.00628e-41
-8.13601e-43
-6.57384e-44
-5.30974e-45
-4.29489e-46
-2.94844e-47
-9.18541e-33
-3.15699e-32
-7.91922e-32
-1.99586e-31
-5.11803e-31
-1.34751e-30
-3.71078e-30
-1.10264e-29
-3.68854e-29
-1.43978e-28
-6.5542e-28
-3.34009e-27
-1.80891e-26
-9.99112e-26
-6.15699e-25
-3.38127e-24
-1.77916e-23
-8.85661e-23
-4.02422e-22
-1.76396e-21
-7.09895e-21
-2.6924e-20
-9.60233e-20
-3.28882e-19
-1.03788e-18
-3.11667e-18
-8.90606e-18
-2.45426e-17
-6.39195e-17
-1.61677e-16
-3.93099e-16
-9.18932e-16
-2.0899e-15
-4.62183e-15
-9.95677e-15
-2.0918e-14
-4.24308e-14
-8.4352e-14
-1.63651e-13
-3.10401e-13
-5.78962e-13
-1.05709e-12
-1.88315e-12
-3.29101e-12
-5.67149e-12
-9.52251e-12
-1.53828e-11
-2.37913e-11
-3.42882e-11
-4.29355e-11
-3.82797e-11
-2.84505e-11
1.48542e-10
2.02034e-10
4.10855e-11
-4.30375e-11
-5.0731e-11
-3.62445e-11
-2.14119e-11
-1.13458e-11
-5.57961e-12
-2.58042e-12
-1.12537e-12
-4.60986e-13
-1.76304e-13
-6.25299e-14
-2.04471e-14
-5.86419e-15
-1.49287e-15
-3.3199e-16
-6.69374e-17
-1.12854e-17
-1.64742e-18
-2.10057e-19
-2.38497e-20
-2.47013e-21
-2.3792e-22
-2.17733e-23
-1.92399e-24
-1.6604e-25
-1.40917e-26
-1.18293e-27
-9.85421e-29
-8.16294e-30
-6.73278e-31
-5.53484e-32
-4.53612e-33
-3.70825e-34
-3.02476e-35
-2.46231e-36
-2.00305e-37
-1.62535e-38
-1.31713e-39
-1.06617e-40
-8.62225e-42
-6.96781e-43
-5.62776e-44
-4.54431e-45
-3.67511e-46
-2.52281e-47
-9.02948e-33
-3.10296e-32
-7.78163e-32
-1.96041e-31
-5.02449e-31
-1.32206e-30
-3.63853e-30
-1.08095e-29
-3.61871e-29
-1.41549e-28
-6.46315e-28
-3.30397e-27
-1.7943e-26
-9.93413e-26
-6.11898e-25
-3.36435e-24
-1.77245e-23
-8.8355e-23
-4.01989e-22
-1.76142e-21
-7.10243e-21
-2.69816e-20
-9.63951e-20
-3.30828e-19
-1.04573e-18
-3.14468e-18
-8.99891e-18
-2.48369e-17
-6.47566e-17
-1.64013e-16
-3.99301e-16
-9.34163e-16
-2.12564e-15
-4.70394e-15
-1.0142e-14
-2.13147e-14
-4.32606e-14
-8.60346e-14
-1.66977e-13
-3.16834e-13
-5.91046e-13
-1.07881e-12
-1.92044e-12
-3.35375e-12
-5.77347e-12
-9.67746e-12
-1.55959e-11
-2.40298e-11
-3.43639e-11
-4.23568e-11
-3.57868e-11
-3.30404e-11
1.62688e-10
1.96044e-10
3.48906e-11
-4.49337e-11
-5.00388e-11
-3.51929e-11
-2.06147e-11
-1.08623e-11
-5.32251e-12
-2.45541e-12
-1.06731e-12
-4.354e-13
-1.65524e-13
-5.82473e-14
-1.89053e-14
-5.37168e-15
-1.35492e-15
-2.97763e-16
-5.9345e-17
-9.90405e-18
-1.43362e-18
-1.81597e-19
-2.0518e-20
-2.11859e-21
-2.03669e-22
-1.86216e-23
-1.6451e-24
-1.42011e-25
-1.2058e-26
-1.01284e-27
-8.44323e-29
-6.99936e-30
-5.77737e-31
-4.75419e-32
-3.89916e-33
-3.18976e-34
-2.60356e-35
-2.12073e-36
-1.72647e-37
-1.40166e-38
-1.1364e-39
-9.20257e-41
-7.44492e-42
-6.01821e-43
-4.86201e-44
-3.92678e-45
-3.17618e-46
-2.18053e-47
-8.89662e-33
-3.05696e-32
-7.66469e-32
-1.93035e-31
-4.94535e-31
-1.30058e-30
-3.57769e-30
-1.0627e-29
-3.55987e-29
-1.39494e-28
-6.38571e-28
-3.27314e-27
-1.78187e-26
-9.88666e-26
-6.08826e-25
-3.35087e-24
-1.76724e-23
-8.82033e-23
-4.01783e-22
-1.75984e-21
-7.10904e-21
-2.70486e-20
-9.67765e-20
-3.3262e-19
-1.05277e-18
-3.16993e-18
-9.08147e-18
-2.50944e-17
-6.54967e-17
-1.66048e-16
-4.04523e-16
-9.46981e-16
-2.15623e-15
-4.7747e-15
-1.02974e-14
-2.16495e-14
-4.39595e-14
-8.74441e-14
-1.6976e-13
-3.2206e-13
-6.00692e-13
-1.096e-12
-1.94952e-12
-3.4019e-12
-5.84912e-12
-9.78818e-12
-1.57337e-11
-2.41342e-11
-3.42192e-11
-4.14976e-11
-3.31923e-11
-4.23163e-11
1.76604e-10
1.90342e-10
2.91585e-11
-4.60707e-11
-4.94331e-11
-3.43701e-11
-2.00065e-11
-1.04969e-11
-5.12309e-12
-2.3537e-12
-1.01929e-12
-4.15839e-13
-1.54866e-13
-5.43164e-14
-1.7544e-14
-4.95693e-15
-1.24108e-15
-2.71349e-16
-5.36999e-17
-8.89346e-18
-1.27866e-18
-1.61096e-19
-1.81274e-20
-1.86683e-21
-1.79156e-22
-1.63654e-23
-1.44518e-24
-1.24762e-25
-1.05959e-26
-8.90346e-28
-7.42534e-29
-6.15841e-30
-5.08557e-31
-4.18777e-32
-3.43613e-33
-2.81214e-34
-2.29622e-35
-1.87106e-36
-1.5237e-37
-1.23736e-38
-1.00342e-39
-8.12716e-41
-6.57582e-42
-5.31619e-43
-4.2951e-44
-3.46897e-45
-2.80582e-46
-1.92617e-47
-8.78489e-33
-3.01832e-32
-7.56661e-32
-1.90519e-31
-4.87927e-31
-1.28266e-30
-3.52686e-30
-1.0473e-29
-3.50896e-29
-1.37624e-28
-6.30926e-28
-3.23905e-27
-1.76585e-26
-9.88645e-26
-6.06632e-25
-3.34238e-24
-1.76434e-23
-8.81433e-23
-4.01876e-22
-1.75969e-21
-7.11842e-21
-2.71176e-20
-9.71379e-20
-3.34305e-19
-1.05913e-18
-3.19224e-18
-9.15371e-18
-2.53184e-17
-6.61247e-17
-1.67715e-16
-4.08854e-16
-9.57557e-16
-2.18113e-15
-4.83048e-15
-1.042e-14
-2.19121e-14
-4.45008e-14
-8.85335e-14
-1.71891e-13
-3.26086e-13
-6.08129e-13
-1.1093e-12
-1.97213e-12
-3.43998e-12
-5.90835e-12
-9.87197e-12
-1.58282e-11
-2.41812e-11
-3.40156e-11
-4.05757e-11
-3.05176e-11
-5.13948e-11
1.88512e-10
1.85529e-10
2.40625e-11
-4.67575e-11
-4.89064e-11
-3.36769e-11
-1.94834e-11
-1.01777e-11
-4.9509e-12
-2.26751e-12
-9.78819e-13
-3.9782e-13
-1.47759e-13
-5.15285e-14
-1.6565e-14
-4.64792e-15
-1.15542e-15
-2.51631e-16
-4.95296e-17
-8.15079e-18
-1.16502e-18
-1.46128e-19
-1.63868e-20
-1.68383e-21
-1.61346e-22
-1.47265e-23
-1.29956e-24
-1.12189e-25
-9.52916e-27
-8.009e-28
-6.68134e-29
-5.54314e-30
-4.57897e-31
-3.77222e-32
-3.09613e-33
-2.53464e-34
-2.07018e-35
-1.68748e-36
-1.37342e-37
-1.11555e-38
-9.04785e-40
-7.32927e-41
-5.93085e-42
-4.79509e-43
-3.87422e-44
-3.12904e-45
-2.53079e-46
-1.73727e-47
-8.69186e-33
-2.98618e-32
-7.48517e-32
-1.88434e-31
-4.82467e-31
-1.26791e-30
-3.48513e-30
-1.03469e-29
-3.46729e-29
-1.3609e-28
-6.24626e-28
-3.21077e-27
-1.75248e-26
-9.89145e-26
-6.0516e-25
-3.33728e-24
-1.76288e-23
-8.81402e-23
-4.02183e-22
-1.76032e-21
-7.12949e-21
-2.71858e-20
-9.74687e-20
-3.35766e-19
-1.06462e-18
-3.21115e-18
-9.21442e-18
-2.55039e-17
-6.66454e-17
-1.69099e-16
-4.12438e-16
-9.66217e-16
-2.20125e-15
-4.87543e-15
-1.05174e-14
-2.21169e-14
-4.49137e-14
-8.9346e-14
-1.73396e-13
-3.2878e-13
-6.12761e-13
-1.11676e-12
-1.98312e-12
-3.47597e-12
-5.95375e-12
-9.92706e-12
-1.58741e-11
-2.41475e-11
-3.36947e-11
-3.94114e-11
-2.73004e-11
-5.70643e-11
1.97248e-10
1.81643e-10
2.06534e-11
-4.73245e-11
-4.82813e-11
-3.29762e-11
-1.89905e-11
-9.88827e-12
-4.798e-12
-2.19184e-12
-9.43585e-13
-3.82265e-13
-1.41787e-13
-4.92822e-14
-1.5772e-14
-4.40462e-15
-1.08841e-15
-2.36897e-16
-4.64294e-17
-7.61558e-18
-1.08349e-18
-1.35386e-19
-1.51355e-20
-1.55197e-21
-1.4848e-22
-1.3539e-23
-1.194e-24
-1.0305e-25
-8.75177e-27
-7.35548e-28
-6.13644e-29
-5.09149e-30
-4.20631e-31
-3.46578e-32
-2.84493e-33
-2.32924e-34
-1.90261e-35
-1.55114e-36
-1.26207e-37
-1.02517e-38
-8.31521e-40
-6.73596e-41
-5.45077e-42
-4.40687e-43
-3.56043e-44
-2.87543e-45
-2.32548e-46
-1.59619e-47
-8.61502e-33
-2.95964e-32
-7.418e-32
-1.86718e-31
-4.77982e-31
-1.25583e-30
-3.45113e-30
-1.0245e-29
-3.43401e-29
-1.34886e-28
-6.19789e-28
-3.18958e-27
-1.74271e-26
-9.90439e-26
-6.04495e-25
-3.33606e-24
-1.76328e-23
-8.82192e-23
-4.028e-22
-1.76247e-21
-7.14506e-21
-2.72659e-20
-9.78319e-20
-3.37294e-19
-1.0702e-18
-3.22994e-18
-9.27303e-18
-2.568e-17
-6.71283e-17
-1.70367e-16
-4.15677e-16
-9.74008e-16
-2.2193e-15
-4.91669e-15
-1.06076e-14
-2.23071e-14
-4.53041e-14
-9.01112e-14
-1.74855e-13
-3.31479e-13
-6.17635e-13
-1.12524e-12
-1.99735e-12
-3.49915e-12
-5.98658e-12
-9.96697e-12
-1.59037e-11
-2.4109e-11
-3.3432e-11
-3.85536e-11
-2.51865e-11
-6.64909e-11
2.05383e-10
1.77728e-10
1.76781e-11
-4.785e-11
-4.77436e-11
-3.23801e-11
-1.85752e-11
-9.64901e-12
-4.67213e-12
-2.13047e-12
-9.15289e-13
-3.69746e-13
-1.37019e-13
-4.74998e-14
-1.51481e-14
-4.21266e-15
-1.03545e-15
-2.25325e-16
-4.39404e-17
-7.17122e-18
-1.01622e-18
-1.26559e-19
-1.41123e-20
-1.44456e-21
-1.38032e-22
-1.25769e-23
-1.1087e-24
-9.56748e-26
-8.12518e-27
-6.82928e-28
-5.6981e-29
-4.72848e-30
-3.90705e-31
-3.21989e-32
-2.64353e-33
-2.1647e-34
-1.76848e-35
-1.44207e-36
-1.17349e-37
-9.5333e-39
-7.73336e-40
-6.2652e-41
-5.07022e-42
-4.09946e-43
-3.3122e-44
-2.67502e-45
-2.16341e-46
-1.48493e-47
-8.55206e-33
-2.9379e-32
-7.36295e-32
-1.8531e-31
-4.74301e-31
-1.24591e-30
-3.4232e-30
-1.01613e-29
-3.40681e-29
-1.33911e-28
-6.15936e-28
-3.17305e-27
-1.73528e-26
-9.92631e-26
-6.04458e-25
-3.3382e-24
-1.76537e-23
-8.83752e-23
-4.03726e-22
-1.76592e-21
-7.16457e-21
-2.73584e-20
-9.8223e-20
-3.38865e-19
-1.07572e-18
-3.24833e-18
-9.32966e-18
-2.58483e-17
-6.75882e-17
-1.71577e-16
-4.18756e-16
-9.82527e-16
-2.23656e-15
-4.95505e-15
-1.06919e-14
-2.24865e-14
-4.56701e-14
-9.08344e-14
-1.76239e-13
-3.34043e-13
-6.22271e-13
-1.1333e-12
-2.01086e-12
-3.52073e-12
-6.01783e-12
-1.00055e-11
-1.59327e-11
-2.40729e-11
-3.31765e-11
-3.76929e-11
-2.2994e-11
-7.10507e-11
2.11787e-10
1.74181e-10
1.50667e-11
-4.81326e-11
-4.73229e-11
-3.19269e-11
-1.82586e-11
-9.46247e-12
-4.57314e-12
-2.08166e-12
-8.92451e-13
-3.59629e-13
-1.33143e-13
-4.60299e-14
-1.46389e-14
-4.05772e-15
-9.93412e-16
-2.16155e-16
-4.20119e-17
-6.8331e-18
-9.65226e-19
-1.19877e-19
-1.33378e-20
-1.36324e-21
-1.30115e-22
-1.18471e-23
-1.04392e-24
-9.0067e-26
-7.64814e-27
-6.42816e-28
-5.36355e-29
-4.45108e-30
-3.67809e-31
-3.03154e-32
-2.48909e-33
-2.0384e-34
-1.66542e-35
-1.35816e-36
-1.10528e-37
-8.9797e-39
-7.28464e-40
-5.90191e-41
-4.77635e-42
-3.86192e-43
-3.12029e-44
-2.52001e-45
-2.038e-46
-1.3988e-47
-8.50134e-33
-2.92038e-32
-7.3186e-32
-1.84177e-31
-4.71342e-31
-1.23795e-30
-3.40088e-30
-1.0095e-29
-3.38559e-29
-1.33172e-28
-6.13126e-28
-3.16163e-27
-1.73049e-26
-9.95761e-26
-6.05064e-25
-3.3435e-24
-1.7689e-23
-8.85926e-23
-4.04899e-22
-1.77065e-21
-7.18878e-21
-2.74648e-20
-9.86562e-20
-3.40525e-19
-1.08145e-18
-3.26675e-18
-9.38571e-18
-2.60123e-17
-6.80349e-17
-1.72721e-16
-4.21632e-16
-9.88246e-16
-2.25294e-15
-4.99186e-15
-1.07712e-14
-2.26532e-14
-4.60092e-14
-9.15095e-14
-1.77545e-13
-3.36497e-13
-6.26775e-13
-1.14125e-12
-2.02418e-12
-3.54245e-12
-6.0513e-12
-1.00524e-11
-1.59857e-11
-2.40974e-11
-3.30653e-11
-3.71631e-11
-2.15073e-11
-7.34397e-11
2.16478e-10
1.71491e-10
1.30456e-11
-4.83507e-11
-4.69508e-11
-3.15325e-11
-1.79873e-11
-9.30616e-12
-4.4913e-12
-2.04117e-12
-8.73716e-13
-3.51378e-13
-1.30008e-13
-4.48565e-14
-1.42371e-14
-3.93569e-15
-9.60514e-16
-2.08955e-16
-4.05099e-17
-6.5706e-18
-9.25708e-19
-1.14705e-19
-1.27386e-20
-1.30032e-21
-1.23989e-22
-1.12823e-23
-9.93755e-25
-8.57224e-26
-7.27834e-27
-6.11703e-28
-5.1039e-29
-4.23567e-30
-3.5002e-31
-2.88512e-32
-2.36898e-33
-1.94013e-34
-1.5852e-35
-1.29283e-36
-1.05215e-37
-8.54841e-39
-6.93498e-40
-5.61876e-41
-4.54729e-42
-3.67674e-43
-2.97068e-44
-2.39916e-45
-1.94023e-46
-1.33166e-47
-8.46148e-33
-2.90662e-32
-7.28382e-32
-1.8329e-31
-4.69029e-31
-1.23175e-30
-3.38361e-30
-1.00443e-29
-3.36976e-29
-1.32643e-28
-6.11243e-28
-3.15465e-27
-1.72793e-26
-9.9931e-26
-6.06109e-25
-3.35086e-24
-1.77343e-23
-8.88539e-23
-4.06249e-22
-1.77611e-21
-7.21459e-21
-2.75758e-20
-9.90963e-20
-3.42201e-19
-1.08716e-18
-3.285e-18
-9.44127e-18
-2.6175e-17
-6.84778e-17
-1.7389e-16
-4.24564e-16
-9.95326e-16
-2.26865e-15
-5.02693e-15
-1.08476e-14
-2.28158e-14
-4.63409e-14
-9.21672e-14
-1.78811e-13
-3.38865e-13
-6.31103e-13
-1.14889e-12
-2.03736e-12
-3.56463e-12
-6.0872e-12
-1.01071e-11
-1.60594e-11
-2.41719e-11
-3.30616e-11
-3.68324e-11
-2.02808e-11
-7.38772e-11
2.19388e-10
1.69647e-10
1.15146e-11
-4.85465e-11
-4.66928e-11
-3.12419e-11
-1.778e-11
-9.18391e-12
-4.42683e-12
-2.00942e-12
-8.5902e-13
-3.44938e-13
-1.27567e-13
-4.39418e-14
-1.39185e-14
-3.83893e-15
-9.34024e-16
-2.03188e-16
-3.93034e-17
-6.36012e-18
-8.94105e-19
-1.10579e-19
-1.22619e-20
-1.25039e-21
-1.19137e-22
-1.08355e-23
-9.54114e-25
-8.22916e-26
-6.9865e-27
-5.87161e-28
-4.89918e-29
-4.0659e-30
-3.36004e-31
-2.7698e-32
-2.27441e-33
-1.86277e-34
-1.52208e-35
-1.24144e-36
-1.01038e-37
-8.20937e-39
-6.66021e-40
-5.39633e-41
-4.36741e-42
-3.53139e-43
-2.85329e-44
-2.30438e-45
-1.86358e-46
-1.27905e-47
-8.43128e-33
-2.8962e-32
-7.25751e-32
-1.8262e-31
-4.67291e-31
-1.22713e-30
-3.37088e-30
-1.00077e-29
-3.35868e-29
-1.3229e-28
-6.1008e-28
-3.15087e-27
-1.72686e-26
-1.00285e-25
-6.07332e-25
-3.35898e-24
-1.77823e-23
-8.91217e-23
-4.07591e-22
-1.7817e-21
-7.24048e-21
-2.76841e-20
-9.95161e-20
-3.43757e-19
-1.09241e-18
-3.30174e-18
-9.49133e-18
-2.63188e-17
-6.88642e-17
-1.74886e-16
-4.27062e-16
-1.00123e-15
-2.28227e-15
-5.05754e-15
-1.09145e-14
-2.29565e-14
-4.66281e-14
-9.27388e-14
-1.79918e-13
-3.4095e-13
-6.34955e-13
-1.15578e-12
-2.04934e-12
-3.58503e-12
-6.12035e-12
-1.01577e-11
-1.61283e-11
-2.42472e-11
-3.30962e-11
-3.66987e-11
-1.97869e-11
-7.46291e-11
2.22176e-10
1.67692e-10
1.00855e-11
-4.86972e-11
-4.65094e-11
-3.10329e-11
-1.76317e-11
-9.09647e-12
-4.38027e-12
-1.98644e-12
-8.48321e-13
-3.40191e-13
-1.25766e-13
-4.32647e-14
-1.36839e-14
-3.76751e-15
-9.14594e-16
-1.98958e-16
-3.841e-17
-6.20415e-18
-8.70696e-19
-1.07527e-19
-1.19095e-20
-1.21347e-21
-1.15547e-22
-1.05047e-23
-9.24736e-25
-7.97458e-26
-6.7697e-27
-5.6891e-28
-4.74677e-29
-3.93939e-30
-3.25552e-31
-2.68373e-32
-2.20378e-33
-1.80497e-34
-1.47488e-35
-1.20299e-36
-9.79116e-38
-7.9556e-39
-6.4545e-40
-5.22978e-41
-4.23269e-42
-3.42251e-43
-2.76534e-44
-2.23336e-45
-1.80614e-46
-1.23962e-47
-8.40983e-33
-2.88883e-32
-7.23897e-32
-1.82151e-31
-4.6608e-31
-1.22392e-30
-3.36204e-30
-9.98213e-30
-3.35086e-29
-1.3204e-28
-6.09276e-28
-3.14842e-27
-1.72631e-26
-1.00585e-25
-6.08421e-25
-3.36596e-24
-1.78229e-23
-8.93443e-23
-4.08697e-22
-1.78632e-21
-7.26146e-21
-2.7771e-20
-9.98512e-20
-3.44996e-19
-1.09655e-18
-3.31485e-18
-9.53056e-18
-2.64317e-17
-6.91682e-17
-1.75675e-16
-4.2903e-16
-1.00593e-15
-2.29311e-15
-5.08185e-15
-1.09675e-14
-2.30686e-14
-4.68575e-14
-9.31969e-14
-1.80809e-13
-3.4264e-13
-6.38101e-13
-1.16147e-12
-2.05937e-12
-3.6024e-12
-6.1496e-12
-1.0205e-11
-1.61995e-11
-2.43417e-11
-3.31851e-11
-3.66611e-11
-1.93308e-11
-7.4592e-11
2.23819e-10
1.66809e-10
9.39713e-12
-4.88084e-11
-4.63555e-11
-3.08749e-11
-1.75236e-11
-9.03397e-12
-4.34731e-12
-1.97019e-12
-8.40758e-13
-3.36836e-13
-1.24499e-13
-4.27893e-14
-1.35185e-14
-3.71715e-15
-9.00886e-16
-1.95964e-16
-3.77816e-17
-6.09446e-18
-8.54213e-19
-1.05373e-19
-1.16605e-20
-1.18735e-21
-1.13004e-22
-1.02703e-23
-9.03929e-25
-7.79446e-26
-6.61643e-27
-5.56018e-28
-4.6392e-29
-3.85015e-30
-3.1818e-31
-2.62304e-32
-2.15398e-33
-1.76421e-34
-1.4416e-35
-1.17587e-36
-9.57049e-38
-7.77636e-39
-6.30913e-40
-5.11204e-41
-4.13743e-42
-3.3455e-43
-2.70313e-44
-2.18312e-45
-1.7655e-46
-1.21172e-47
-8.39601e-33
-2.88406e-32
-7.2269e-32
-1.81842e-31
-4.65271e-31
-1.22173e-30
-3.35593e-30
-9.96439e-30
-3.34555e-29
-1.31878e-28
-6.08793e-28
-3.14717e-27
-1.72618e-26
-1.008e-25
-6.09226e-25
-3.37107e-24
-1.78522e-23
-8.95042e-23
-4.0948e-22
-1.7896e-21
-7.27623e-21
-2.78319e-20
-1.00085e-19
-3.45856e-19
-1.09942e-18
-3.32389e-18
-9.55753e-18
-2.65093e-17
-6.93761e-17
-1.76213e-16
-4.30375e-16
-1.00914e-15
-2.3005e-15
-5.09834e-15
-1.10032e-14
-2.31441e-14
-4.70117e-14
-9.35042e-14
-1.81405e-13
-3.43766e-13
-6.40192e-13
-1.16524e-12
-2.06595e-12
-3.61367e-12
-6.16821e-12
-1.02343e-11
-1.62415e-11
-2.43935e-11
-3.3226e-11
-3.66225e-11
-1.90864e-11
-7.44594e-11
2.25115e-10
1.65907e-10
8.80378e-12
-4.88671e-11
-4.63149e-11
-3.08127e-11
-1.74737e-11
-9.00237e-12
-4.32969e-12
-1.96114e-12
-8.3643e-13
-3.34868e-13
-1.23746e-13
-4.25017e-14
-1.3418e-14
-3.68625e-15
-8.92398e-16
-1.94121e-16
-3.73919e-17
-6.0261e-18
-8.43906e-19
-1.04023e-19
-1.1504e-20
-1.17089e-21
-1.11405e-22
-1.01231e-23
-8.90868e-25
-7.6814e-26
-6.52025e-27
-5.47929e-28
-4.57171e-29
-3.79418e-30
-3.1356e-31
-2.58502e-32
-2.1228e-33
-1.73871e-34
-1.42079e-35
-1.15893e-36
-9.43278e-38
-7.66457e-39
-6.21847e-40
-5.03859e-41
-4.07798e-42
-3.2974e-43
-2.66424e-44
-2.15168e-45
-1.74005e-46
-1.19423e-47
-8.38904e-33
-2.88164e-32
-7.22079e-32
-1.81686e-31
-4.64865e-31
-1.22065e-30
-3.35298e-30
-9.95605e-30
-3.34311e-29
-1.31807e-28
-6.08594e-28
-3.14677e-27
-1.72623e-26
-1.00918e-25
-6.09656e-25
-3.37378e-24
-1.78678e-23
-8.95881e-23
-4.09891e-22
-1.79134e-21
-7.28399e-21
-2.78637e-20
-1.00207e-19
-3.46301e-19
-1.1009e-18
-3.32855e-18
-9.57138e-18
-2.6549e-17
-6.94822e-17
-1.76486e-16
-4.31055e-16
-1.01075e-15
-2.3042e-15
-5.10655e-15
-1.10209e-14
-2.31813e-14
-4.70872e-14
-9.36532e-14
-1.81691e-13
-3.44299e-13
-6.4116e-13
-1.16693e-12
-2.06879e-12
-3.61827e-12
-6.17514e-12
-1.02436e-11
-1.62519e-11
-2.44005e-11
-3.32232e-11
-3.66213e-11
-1.92093e-11
-7.38929e-11
2.26447e-10
1.64964e-10
7.72528e-12
-4.8867e-11
-4.63636e-11
-3.08188e-11
-1.74634e-11
-8.99171e-12
-4.32256e-12
-1.95714e-12
-8.3441e-13
-3.3392e-13
-1.23379e-13
-4.23601e-14
-1.33679e-14
-3.67079e-15
-8.88156e-16
-1.9319e-16
-3.71962e-17
-5.99184e-18
-8.38757e-19
-1.03352e-19
-1.14264e-20
-1.16274e-21
-1.10607e-22
-1.00492e-23
-8.84272e-25
-7.62404e-26
-6.47126e-27
-5.43795e-28
-4.53712e-29
-3.76541e-30
-3.11179e-31
-2.56539e-32
-2.10667e-33
-1.72549e-34
-1.40999e-35
-1.15012e-36
-9.36113e-38
-7.60638e-39
-6.1713e-40
-5.0004e-41
-4.0471e-42
-3.27247e-43
-2.64411e-44
-2.13543e-45
-1.72692e-46
-1.18522e-47
-8.38887e-33
-2.88159e-32
-7.22063e-32
-1.81682e-31
-4.64855e-31
-1.22063e-30
-3.35293e-30
-9.95597e-30
-3.34311e-29
-1.31808e-28
-6.08605e-28
-3.14685e-27
-1.72628e-26
-1.00924e-25
-6.09674e-25
-3.37389e-24
-1.78683e-23
-8.95909e-23
-4.09904e-22
-1.79139e-21
-7.28421e-21
-2.78645e-20
-1.0021e-19
-3.46312e-19
-1.10093e-18
-3.32864e-18
-9.57166e-18
-2.65498e-17
-6.94842e-17
-1.76491e-16
-4.31066e-16
-1.01077e-15
-2.30426e-15
-5.10669e-15
-1.10213e-14
-2.3182e-14
-4.70889e-14
-9.36573e-14
-1.817e-13
-3.44321e-13
-6.41212e-13
-1.16706e-12
-2.06908e-12
-3.61893e-12
-6.17666e-12
-1.0247e-11
-1.6259e-11
-2.44134e-11
-3.3239e-11
-3.66048e-11
-1.90148e-11
-7.44497e-11
2.25352e-10
1.65739e-10
8.56531e-12
-4.89919e-11
-4.62897e-11
-3.07588e-11
-1.74324e-11
-8.97788e-12
-4.31683e-12
-1.95487e-12
-8.33553e-13
-3.33612e-13
-1.23276e-13
-4.23275e-14
-1.33583e-14
-3.6683e-15
-8.87583e-16
-1.93068e-16
-3.71733e-17
-5.98822e-18
-8.38257e-19
-1.03291e-19
-1.14197e-20
-1.16206e-21
-1.10543e-22
-1.00434e-23
-8.83769e-25
-7.61975e-26
-6.46766e-27
-5.43496e-28
-4.53466e-29
-3.7634e-30
-3.11014e-31
-2.56405e-32
-2.10559e-33
-1.72461e-34
-1.40928e-35
-1.14955e-36
-9.35651e-38
-7.60267e-39
-6.16832e-40
-4.99802e-41
-4.0452e-42
-3.27094e-43
-2.64289e-44
-2.13446e-45
-1.72614e-46
-1.18469e-47
-8.39554e-33
-2.88388e-32
-7.22641e-32
-1.81829e-31
-4.65236e-31
-1.22165e-30
-3.35573e-30
-9.96399e-30
-3.3455e-29
-1.31881e-28
-6.08822e-28
-3.1474e-27
-1.72633e-26
-1.00821e-25
-6.09271e-25
-3.37134e-24
-1.78537e-23
-8.95116e-23
-4.09515e-22
-1.78975e-21
-7.27685e-21
-2.78342e-20
-1.00093e-19
-3.45884e-19
-1.0995e-18
-3.32413e-18
-9.55822e-18
-2.65113e-17
-6.93814e-17
-1.76225e-16
-4.30405e-16
-1.0092e-15
-2.30065e-15
-5.09868e-15
-1.1004e-14
-2.31458e-14
-4.70152e-14
-9.35113e-14
-1.81419e-13
-3.43794e-13
-6.40246e-13
-1.16535e-12
-2.06614e-12
-3.61398e-12
-6.16866e-12
-1.02348e-11
-1.62421e-11
-2.43943e-11
-3.32289e-11
-3.66396e-11
-1.91722e-11
-7.45763e-11
2.24765e-10
1.66339e-10
8.93266e-12
-4.89446e-11
-4.63293e-11
-3.08027e-11
-1.74626e-11
-8.9953e-12
-4.32597e-12
-1.95939e-12
-8.35662e-13
-3.34556e-13
-1.23632e-13
-4.24628e-14
-1.34057e-14
-3.68289e-15
-8.91604e-16
-1.93942e-16
-3.73578e-17
-6.02049e-18
-8.43104e-19
-1.03926e-19
-1.14933e-20
-1.16979e-21
-1.11295e-22
-1.01128e-23
-8.89931e-25
-7.67314e-26
-6.51311e-27
-5.47321e-28
-4.56659e-29
-3.78989e-30
-3.13204e-31
-2.58208e-32
-2.12038e-33
-1.73673e-34
-1.41917e-35
-1.15761e-36
-9.42209e-38
-7.65594e-39
-6.21153e-40
-5.03303e-41
-4.07354e-42
-3.29387e-43
-2.66143e-44
-2.14944e-45
-1.73827e-46
-1.19303e-47
-8.40947e-33
-2.88868e-32
-7.23853e-32
-1.82137e-31
-4.66037e-31
-1.22378e-30
-3.36161e-30
-9.98089e-30
-3.35055e-29
-1.32035e-28
-6.09286e-28
-3.14861e-27
-1.72647e-26
-1.00608e-25
-6.08476e-25
-3.36628e-24
-1.78246e-23
-8.93532e-23
-4.08737e-22
-1.78649e-21
-7.26217e-21
-2.77737e-20
-9.98611e-20
-3.4503e-19
-1.09666e-18
-3.31518e-18
-9.53147e-18
-2.64345e-17
-6.91758e-17
-1.75694e-16
-4.29078e-16
-1.00604e-15
-2.29334e-15
-5.08227e-15
-1.09683e-14
-2.30705e-14
-4.68614e-14
-9.32051e-14
-1.80826e-13
-3.42674e-13
-6.38171e-13
-1.16162e-12
-2.05961e-12
-3.60278e-12
-6.15008e-12
-1.02054e-11
-1.61993e-11
-2.43401e-11
-3.31825e-11
-3.66673e-11
-1.94048e-11
-7.46781e-11
2.23628e-10
1.67176e-10
9.5201e-12
-4.8876e-11
-4.64209e-11
-3.09031e-11
-1.75326e-11
-9.03601e-12
-4.3474e-12
-1.96992e-12
-8.40548e-13
-3.36718e-13
-1.24452e-13
-4.2772e-14
-1.3513e-14
-3.71548e-15
-9.00439e-16
-1.95859e-16
-3.77595e-17
-6.09069e-18
-8.53713e-19
-1.05311e-19
-1.16531e-20
-1.18656e-21
-1.12929e-22
-1.02635e-23
-9.03324e-25
-7.78922e-26