/*--------------------------------*- C++ -*----------------------------------*\
  =========                 |
  \\      /  F ield         | OpenFOAM: The Open Source CFD Toolbox
   \\    /   O peration     | Website:  https://openfoam.org
    \\  /    A nd           | Version:  10
     \\/     M anipulation  |
\*---------------------------------------------------------------------------*/
FoamFile
{
    format      ascii;
    class       volScalarField;
    location    "1";
    object      RR.O2;
}
// * * * * * * * * * * * * * * * * * * * * * * * * * * * * * * * * * * * * * //

dimensions      [1 -3 -1 0 0 0 0];

internalField   nonuniform List<scalar> 
4000
(
5.15998e-13
7.53412e-12
3.31837e-11
1.07726e-10
3.03675e-10
7.89029e-10
1.93935e-09
4.55848e-09
1.02739e-08
2.21516e-08
4.54687e-08
8.82932e-08
1.60482e-07
2.66792e-07
3.83681e-07
4.00336e-07
-3.99122e-09
-1.57727e-06
-5.56883e-06
-1.44535e-05
-3.03466e-05
-5.55896e-05
-9.09444e-05
-0.000131992
-0.000176164
-0.000221451
-0.000268424
-0.000319721
-0.000380659
-0.000461762
-0.000578797
-0.00075856
-0.00104582
-0.00151025
-0.00225802
-0.00344967
-0.00530205
-0.00809169
-0.012155
-0.0179458
-0.0262251
-0.038033
-0.0550416
-0.080196
-0.11943
-0.181815
-0.283239
-0.45389
-0.75383
-1.30454
-2.37348
-4.53799
-7.4671
-7.26673
-5.75458
-3.9715
-2.45511
-1.39942
-0.732742
-0.346075
-0.138632
-0.0363224
0.0046998
0.00954234
0.00344195
0.000692965
0.000237692
0.000132786
7.13706e-05
2.708e-05
8.1845e-06
1.94981e-06
4.05316e-07
7.57592e-08
1.30537e-08
2.22279e-09
3.93657e-10
7.56261e-11
1.59817e-11
3.83568e-12
9.38857e-13
3.3178e-13
-7.34795e-14
9.83893e-14
-9.16753e-14
7.70846e-14
6.31177e-14
-1.07255e-13
1.71861e-14
-3.49316e-14
1.01089e-13
1.10197e-13
-8.63025e-14
1.16279e-13
-1.0672e-13
1.01938e-13
1.2655e-13
8.07793e-14
7.8574e-14
-1.01946e-13
5.10657e-13
7.45566e-12
3.2837e-11
1.06613e-10
3.00575e-10
7.80947e-10
1.91931e-09
4.5103e-09
1.01607e-08
2.18931e-08
4.49021e-08
8.71372e-08
1.58331e-07
2.63619e-07
3.81311e-07
4.06019e-07
3.1865e-08
-1.45711e-06
-5.27949e-06
-1.38933e-05
-2.93749e-05
-5.40318e-05
-8.89527e-05
-0.000130078
-0.000174502
-0.000220193
-0.000267462
-0.000319027
-0.000379844
-0.000460581
-0.000576827
-0.000754929
-0.00103984
-0.00150198
-0.00224772
-0.00343868
-0.00529493
-0.00810137
-0.0121911
-0.0180367
-0.0264072
-0.0383652
-0.0556032
-0.0811548
-0.121077
-0.184686
-0.288204
-0.462716
-0.76997
-1.33533
-2.43649
-4.67511
-7.5378
-7.25688
-5.70587
-3.9145
-2.41604
-1.37155
-0.714415
-0.335436
-0.131804
-0.0329058
0.00564406
0.009114
0.00304437
0.000622538
0.000220531
0.000128082
6.70976e-05
2.48413e-05
7.36586e-06
1.73526e-06
3.59785e-07
6.65879e-08
1.15264e-08
1.97589e-09
3.53529e-10
6.87383e-11
1.48642e-11
3.43519e-12
8.19353e-13
1.06558e-13
2.44242e-14
-1.02416e-13
-1.34874e-13
-9.46886e-14
-3.50423e-14
3.26236e-15
1.45212e-14
-3.62982e-14
4.12207e-14
-4.17626e-14
-3.2653e-15
-7.8231e-14
2.40026e-15
-5.57593e-14
-1.16902e-13
6.68035e-14
1.20513e-13
2.33174e-14
5.05722e-13
7.38453e-12
3.25304e-11
1.05642e-10
2.9792e-10
7.74325e-10
1.90296e-09
4.46987e-09
1.00613e-08
2.16525e-08
4.43364e-08
8.58674e-08
1.55974e-07
2.60158e-07
3.78658e-07
4.12154e-07
6.82823e-08
-1.33416e-06
-4.96948e-06
-1.32313e-05
-2.82183e-05
-5.24022e-05
-8.6602e-05
-0.000128394
-0.000172858
-0.000218856
-0.000266392
-0.000318213
-0.000378976
-0.00045934
-0.000574611
-0.000750814
-0.0010332
-0.00149209
-0.00223577
-0.00342723
-0.00529137
-0.00811915
-0.0122581
-0.0181965
-0.0267183
-0.0389103
-0.056524
-0.0827302
-0.123754
-0.189227
-0.295933
-0.476245
-0.794558
-1.38197
-2.52636
-4.90455
-7.62564
-7.2324
-5.63111
-3.83525
-2.34586
-1.32318
-0.684793
-0.319555
-0.121909
-0.0283177
0.00671722
0.0084833
0.00257885
0.000544596
0.000196483
0.000120681
6.16899e-05
2.22389e-05
6.47674e-06
1.50485e-06
3.12287e-07
5.8043e-08
1.00848e-08
1.7419e-09
3.14518e-10
6.15614e-11
1.33788e-11
3.21198e-12
8.28345e-13
2.84488e-13
-8.82185e-14
-5.6692e-15
-5.51785e-14
-1.33223e-13
4.11428e-14
1.14199e-13
-4.72242e-14
5.5297e-14
-8.46004e-14
2.98367e-14
1.03669e-13
-1.20799e-13
-9.10969e-14
-7.47472e-14
9.00286e-14
6.06682e-14
8.45156e-14
-1.10842e-13
4.98681e-13
7.28125e-12
3.20697e-11
1.04115e-10
2.93484e-10
7.62305e-10
1.87223e-09
4.39496e-09
9.88689e-09
2.12676e-08
4.35434e-08
8.43843e-08
1.53427e-07
2.56532e-07
3.75777e-07
4.17482e-07
1.03071e-07
-1.22825e-06
-4.71781e-06
-1.26639e-05
-2.72109e-05
-5.08745e-05
-8.46593e-05
-0.000126531
-0.000171304
-0.000217651
-0.000265507
-0.000317662
-0.00037849
-0.00045869
-0.000573335
-0.000748205
-0.00102863
-0.00148495
-0.00222785
-0.0034223
-0.00529881
-0.00815646
-0.0123627
-0.0184146
-0.0271186
-0.0396186
-0.0577342
-0.0847639
-0.127216
-0.19521
-0.306159
-0.494923
-0.828877
-1.44679
-2.65662
-5.15481
-7.72873
-7.20729
-5.54531
-3.74081
-2.26977
-1.2699
-0.651272
-0.300026
-0.111615
-0.0234717
0.00764738
0.00770721
0.0021279
0.000472045
0.000178135
0.000115887
5.59959e-05
1.96144e-05
5.61598e-06
1.28871e-06
2.64312e-07
4.84611e-08
8.36318e-09
1.443e-09
2.61107e-10
5.17586e-11
1.13932e-11
2.62204e-12
6.91961e-13
3.00482e-13
7.22015e-14
1.20411e-13
-5.99058e-14
-5.83268e-14
-3.25794e-14
1.32349e-13
-8.47869e-14
6.0851e-14
-8.1545e-14
-1.07234e-13
9.00999e-14
9.55747e-14
-8.09864e-14
-1.57483e-14
-1.24833e-13
5.35545e-14
-5.79389e-14
-1.23276e-14
4.91676e-13
7.17912e-12
3.162e-11
1.02652e-10
2.89339e-10
7.51458e-10
1.84533e-09
4.33113e-09
9.74166e-09
2.09518e-08
4.28931e-08
8.3139e-08
1.51288e-07
2.53518e-07
3.73409e-07
4.2181e-07
1.3109e-07
-1.13758e-06
-4.49387e-06
-1.21953e-05
-2.64055e-05
-4.96754e-05
-8.3037e-05
-0.000124917
-0.000169851
-0.000216525
-0.000264868
-0.000317442
-0.000378476
-0.000458654
-0.000572962
-0.000747058
-0.0010261
-0.00148106
-0.00222489
-0.00342482
-0.00531717
-0.00821224
-0.0124877
-0.0186593
-0.0275663
-0.0403938
-0.059048
-0.0869665
-0.13095
-0.201636
-0.316778
-0.513572
-0.863037
-1.51229
-2.78493
-5.45266
-7.81032
-7.15721
-5.44193
-3.63578
-2.18885
-1.21452
-0.617418
-0.281223
-0.102064
-0.019202
0.0083375
0.00696784
0.00175688
0.000419306
0.000164457
0.00010882
5.09773e-05
1.73628e-05
4.89243e-06
1.09898e-06
2.24444e-07
4.09407e-08
7.07002e-09
1.22618e-09
2.23805e-10
4.46042e-11
9.84641e-12
2.40467e-12
6.56755e-13
7.39289e-14
-1.24783e-13
-5.6563e-14
6.1241e-14
-1.27636e-13
-1.81562e-14
8.52325e-14
-3.1798e-14
-1.20355e-13
1.03817e-13
1.0456e-13
-7.03451e-14
-6.05831e-14
-1.37166e-13
1.09224e-13
1.05997e-13
2.74275e-14
4.45623e-14
6.71489e-14
4.8467e-13
7.07685e-12
3.11689e-11
1.01183e-10
2.85178e-10
7.40588e-10
1.81849e-09
4.26783e-09
9.59895e-09
2.06451e-08
4.22696e-08
8.19623e-08
1.49298e-07
2.50751e-07
3.71188e-07
4.25138e-07
1.53378e-07
-1.06736e-06
-4.32783e-06
-1.18353e-05
-2.57806e-05
-4.87276e-05
-8.16861e-05
-0.000123532
-0.000168625
-0.000215747
-0.000264524
-0.000317529
-0.000378854
-0.000459177
-0.000573357
-0.000746883
-0.00102563
-0.0014805
-0.00222654
-0.00343428
-0.00534567
-0.00827999
-0.0126293
-0.0189306
-0.0280499
-0.0412292
-0.0604097
-0.0891982
-0.134664
-0.207901
-0.327617
-0.53259
-0.898616
-1.58135
-2.92454
-5.71689
-7.88267
-7.11123
-5.3471
-3.53716
-2.11438
-1.16374
-0.585479
-0.262849
-0.093226
-0.0154934
0.00873755
0.00630259
0.00147647
0.000382601
0.000154636
0.000101449
4.61852e-05
1.54161e-05
4.25083e-06
9.40973e-07
1.91706e-07
3.48528e-08
6.02738e-09
1.0511e-09
1.93628e-10
3.90392e-11
8.73603e-12
2.1897e-12
6.89884e-13
4.93545e-14
-4.07185e-14
9.22994e-14
-5.43045e-14
-5.32501e-14
-1.14261e-13
-2.59472e-15
-2.79526e-14
3.58276e-14
9.75959e-14
-2.31015e-14
6.79842e-14
-1.22324e-13
-7.42411e-14
8.03897e-14
3.30695e-14
-3.03211e-14
-2.59117e-14
1.55171e-14
4.7804e-13
6.98017e-12
3.07432e-11
9.97998e-11
2.81276e-10
7.30444e-10
1.79358e-09
4.20953e-09
9.46855e-09
2.0367e-08
4.1709e-08
8.0912e-08
1.47534e-07
2.48308e-07
3.69222e-07
4.28022e-07
1.72932e-07
-1.00501e-06
-4.17728e-06
-1.15017e-05
-2.51972e-05
-4.79073e-05
-8.05378e-05
-0.000122353
-0.000167729
-0.00021524
-0.000264439
-0.000317859
-0.000379509
-0.000460067
-0.000574328
-0.000747821
-0.00102678
-0.00148241
-0.0022317
-0.00344841
-0.00538014
-0.00835855
-0.0127773
-0.0192017
-0.0285325
-0.0420438
-0.0617462
-0.0913958
-0.138327
-0.214078
-0.3379
-0.550716
-0.934667
-1.64803
-3.05688
-6.00547
-7.92863
-7.04298
-5.24497
-3.42084
-2.03241
-1.11105
-0.554521
-0.245394
-0.0862024
-0.0125163
0.00899614
0.00572554
0.00126369
0.000353832
0.000143145
9.60523e-05
4.2829e-05
1.4013e-05
3.81714e-06
8.35018e-07
1.69756e-07
3.0742e-08
5.31638e-09
9.30278e-10
1.7232e-10
3.5015e-11
7.83071e-12
1.84451e-12
5.18782e-13
2.18819e-13
-5.30683e-14
-3.29648e-14
9.90639e-14
3.38737e-14
-7.50257e-14
1.19323e-13
6.0618e-14
2.75563e-14
-5.85623e-14
5.64731e-14
-8.13793e-14
-5.4151e-14
-1.27061e-13
6.82874e-14
-6.89761e-14
-9.88656e-14
-1.04872e-13
-3.2058e-14
4.71921e-13
6.89097e-12
3.03507e-11
9.85259e-11
2.77687e-10
7.21134e-10
1.7708e-09
4.15643e-09
9.35039e-09
2.01166e-08
4.12073e-08
7.99784e-08
1.45976e-07
2.46159e-07
3.67486e-07
4.30451e-07
1.89587e-07
-9.52082e-07
-4.05039e-06
-1.12184e-05
-2.47261e-05
-4.71976e-05
-7.96464e-05
-0.000121528
-0.000167107
-0.000214926
-0.000264523
-0.000318375
-0.000380348
-0.000461163
-0.000575655
-0.000749379
-0.00102883
-0.00148606
-0.00223944
-0.00346632
-0.00541839
-0.00843427
-0.012924
-0.019463
-0.0289668
-0.0427554
-0.0628943
-0.0932821
-0.141503
-0.219542
-0.347369
-0.567522
-0.96543
-1.7074
-3.17535
-6.25782
-7.96075
-6.98123
-5.14584
-3.34083
-1.9742
-1.07244
-0.531335
-0.232644
-0.0797648
-0.0099216
0.00908524
0.00521137
0.00109112
0.000318585
0.000137833
9.06745e-05
3.96776e-05
1.27792e-05
3.44699e-06
7.4757e-07
1.51616e-07
2.73371e-08
4.72383e-09
8.2863e-10
1.54155e-10
3.14667e-11
7.17803e-12
1.65568e-12
3.96481e-13
1.04071e-13
-9.45873e-14
1.07631e-13
-2.56061e-14
-9.83855e-14
-9.71696e-14
1.12201e-13
4.39908e-14
-1.73226e-14
1.0912e-13
-1.30289e-13
-6.98201e-14
1.42707e-14
-5.85617e-14
1.25009e-13
1.1216e-13
-7.17191e-14
-7.40761e-14
3.56238e-14
4.66445e-13
6.81118e-12
2.99999e-11
9.73894e-11
2.74492e-10
7.12872e-10
1.75066e-09
4.10966e-09
9.2468e-09
1.98981e-08
4.07719e-08
7.91719e-08
1.44634e-07
2.44313e-07
3.65972e-07
4.32364e-07
2.03073e-07
-9.09749e-07
-3.95216e-06
-1.09971e-05
-2.43423e-05
-4.66488e-05
-7.89528e-05
-0.000120849
-0.000166626
-0.000214783
-0.000264747
-0.000318978
-0.000381251
-0.000462391
-0.000577255
-0.000751419
-0.00103167
-0.00149082
-0.00224891
-0.00348588
-0.00545797
-0.00850962
-0.0130672
-0.0197194
-0.0294092
-0.0434887
-0.0640753
-0.0952042
-0.144687
-0.224841
-0.356349
-0.583436
-0.993921
-1.7641
-3.29394
-6.4572
-7.98391
-6.92812
-5.07395
-3.2522
-1.91123
-1.03261
-0.50817
-0.220259
-0.0737034
-0.00768109
0.0091309
0.00477893
0.000959436
0.000281812
0.000134922
8.618e-05
3.68633e-05
1.1641e-05
3.09374e-06
6.63395e-07
1.34308e-07
2.41583e-08
4.17935e-09
7.36205e-10
1.37727e-10
2.83977e-11
6.55689e-12
1.74539e-12
5.72121e-13
2.55977e-13
-6.15421e-14
4.56763e-14
3.85838e-14
1.19202e-13
-1.12591e-13
-2.62726e-14
1.00107e-13
-6.64952e-14
7.80547e-14
8.3334e-14
1.3624e-13
-1.0004e-13
3.68828e-14
-3.28146e-14
-1.14401e-13
-6.79484e-15
1.09161e-13
2.55088e-14
4.61647e-13
6.74129e-12
2.96929e-11
9.63958e-11
2.71703e-10
7.05676e-10
1.73316e-09
4.06917e-09
9.15749e-09
1.97107e-08
4.04002e-08
7.84868e-08
1.43499e-07
2.42755e-07
3.64709e-07
4.34097e-07
2.15096e-07
-8.71386e-07
-3.85928e-06
-1.07891e-05
-2.39993e-05
-4.61519e-05
-7.83838e-05
-0.000120373
-0.00016633
-0.000214754
-0.000265039
-0.000319598
-0.000382185
-0.000463677
-0.000578895
-0.000753574
-0.00103446
-0.00149618
-0.00225887
-0.00350569
-0.00549688
-0.00857378
-0.0132026
-0.0199525
-0.0298017
-0.044135
-0.0651152
-0.096905
-0.14749
-0.22958
-0.364513
-0.597612
-1.01772
-1.80882
-3.37929
-6.67912
-7.98437
-6.86432
-4.9953
-3.18716
-1.86555
-1.00379
-0.491522
-0.211377
-0.0692153
-0.00601767
0.00905219
0.00444582
0.000842471
0.000253795
0.000134087
8.24462e-05
3.45755e-05
1.07973e-05
2.84013e-06
6.07056e-07
1.2184e-07
2.18573e-08
3.78249e-09
6.68415e-10
1.25655e-10
2.59638e-11
5.95349e-12
1.52996e-12
3.57171e-13
6.85747e-14
9.6926e-14
6.11909e-14
-6.58737e-14
-8.53921e-14
-1.01928e-13
1.31375e-13
-1.36261e-13
2.19452e-15
6.97255e-14
6.38867e-14
2.30941e-14
-9.50012e-14
1.25474e-13
1.19443e-13
-2.0796e-14
5.78616e-14
-1.40244e-14
-1.32977e-13
4.5752e-13
6.6812e-12
2.94292e-11
9.55433e-11
2.69314e-10
6.99522e-10
1.71823e-09
4.03474e-09
9.08187e-09
1.9553e-08
4.00903e-08
7.79216e-08
1.42573e-07
2.41499e-07
3.63668e-07
4.35413e-07
2.24146e-07
-8.43427e-07
-3.79244e-06
-1.06371e-05
-2.37431e-05
-4.57806e-05
-7.7953e-05
-0.000119992
-0.000166129
-0.000214805
-0.000265376
-0.000320243
-0.000383123
-0.000464905
-0.000580513
-0.000755769
-0.00103812
-0.00150146
-0.00226846
-0.0035241
-0.0055317
-0.00863855
-0.0133194
-0.0201533
-0.0301381
-0.0446883
-0.0660106
-0.0984017
-0.150014
-0.233911
-0.371897
-0.610677
-1.04048
-1.85265
-3.46704
-6.85193
-7.98949
-6.81152
-4.91974
-3.13685
-1.82797
-0.979013
-0.476734
-0.203353
-0.0652317
-0.00459894
0.00896704
0.00412792
0.000767118
0.000252235
0.00013129
7.93228e-05
3.2716e-05
1.01262e-05
2.64509e-06
5.6397e-07
1.12429e-07
2.01311e-08
3.4856e-09
6.17652e-10
1.16715e-10
2.43582e-11
5.64909e-12
1.47508e-12
2.16344e-13
2.3361e-13
9.62938e-14
4.82784e-14
-4.09795e-14
6.58392e-14
6.47269e-14
1.15318e-13
8.59126e-14
4.23578e-14
4.70221e-14
4.9025e-14
1.11877e-13
-1.12164e-13
-1.12358e-13
4.79281e-14
1.0878e-13
-1.3271e-13
-4.50464e-14
1.31947e-13
4.54024e-13
6.63031e-12
2.92059e-11
9.48225e-11
2.67297e-10
6.94339e-10
1.70569e-09
4.00591e-09
9.01881e-09
1.94222e-08
3.98348e-08
7.74588e-08
1.41822e-07
2.4049e-07
3.6285e-07
4.36543e-07
2.31693e-07
-8.19194e-07
-3.73427e-06
-1.05102e-05
-2.35269e-05
-4.54859e-05
-7.76248e-05
-0.000119723
-0.000166006
-0.000214899
-0.000265723
-0.000320855
-0.000383994
-0.000466042
-0.000582015
-0.000757802
-0.00104111
-0.00150646
-0.00227747
-0.00354107
-0.00556314
-0.00869665
-0.0134203
-0.0203217
-0.0304106
-0.0451143
-0.0666489
-0.0999208
-0.152382
-0.237795
-0.378489
-0.622366
-1.06252
-1.89725
-3.56264
-6.97333
-7.99899
-6.7758
-4.8722
-3.08934
-1.79415
-0.957516
-0.464289
-0.196695
-0.0619231
-0.00344035
0.00886217
0.00385947
0.000708603
0.000223281
0.000126179
7.67152e-05
3.12241e-05
9.62299e-06
2.49971e-06
5.33008e-07
1.05684e-07
1.88857e-08
3.26952e-09
5.80267e-10
1.09765e-10
2.29414e-11
5.41429e-12
1.24791e-12
2.9322e-13
1.19457e-13
1.00713e-13
-7.22621e-14
-1.29855e-13
1.24292e-13
-4.73108e-14
-1.38765e-13
8.10789e-14
7.4253e-14
-9.06254e-14
1.52671e-14
1.28491e-13
1.25302e-13
7.97432e-14
1.09033e-13
-6.0156e-15
4.60136e-14
9.70842e-14
7.0716e-14
4.51098e-13
6.58773e-12
2.90193e-11
9.42203e-11
2.65614e-10
6.90019e-10
1.69525e-09
3.98198e-09
8.96662e-09
1.93143e-08
3.96248e-08
7.70808e-08
1.41213e-07
2.39685e-07
3.62212e-07
4.37424e-07
2.37664e-07
-8.00594e-07
-3.69075e-06
-1.04125e-05
-2.33649e-05
-4.52613e-05
-7.73672e-05
-0.000119517
-0.000165935
-0.000215032
-0.000266086
-0.000321459
-0.000384818
-0.000467099
-0.000583398
-0.000759683
-0.00104379
-0.00151116
-0.00228595
-0.00355683
-0.00559254
-0.0087494
-0.0135121
-0.0204756
-0.0306638
-0.045524
-0.0673131
-0.101032
-0.154204
-0.240821
-0.383572
-0.631134
-1.07788
-1.92504
-3.61375
-7.10504
-7.97779
-6.72031
-4.81682
-3.03639
-1.75958
-0.936826
-0.452802
-0.190811
-0.0590886
-0.00249916
0.00876616
0.00364505
0.000664333
0.000227938
0.000124329
7.46544e-05
3.00257e-05
9.22011e-06
2.37906e-06
5.0611e-07
9.99062e-08
1.78289e-08
3.08765e-09
5.49215e-10
1.04437e-10
2.18821e-11
5.16587e-12
1.38189e-12
2.55277e-13
3.46517e-14
1.17122e-14
1.02217e-13
8.87074e-14
8.76835e-14
1.26396e-13
-3.43056e-14
-1.17227e-13
2.00653e-14
1.15572e-14
-5.40614e-14
4.59575e-14
-1.0423e-13
2.45364e-14
-1.09364e-13
3.74029e-14
3.81428e-14
-5.1399e-14
-6.41114e-14
4.48678e-13
6.55252e-12
2.88649e-11
9.37224e-11
2.64223e-10
6.86448e-10
1.68663e-09
3.96218e-09
8.92332e-09
1.92245e-08
3.94491e-08
7.67619e-08
1.40694e-07
2.38986e-07
3.61638e-07
4.38201e-07
2.42903e-07
-7.84598e-07
-3.6547e-06
-1.03332e-05
-2.32386e-05
-4.5085e-05
-7.71755e-05
-0.000119378
-0.000165913
-0.000215175
-0.000266417
-0.000321993
-0.000385554
-0.000468074
-0.000584707
-0.000761651
-0.00104663
-0.00151545
-0.00229358
-0.00357097
-0.00561836
-0.00879564
-0.0135921
-0.0206092
-0.0308834
-0.0458813
-0.0678979
-0.10201
-0.155843
-0.243607
-0.388354
-0.63957
-1.09345
-1.95532
-3.67467
-7.20257
-7.97243
-6.68113
-4.77061
-2.9981
-1.73281
-0.920222
-0.443363
-0.185814
-0.0566658
-0.00170351
0.00868287
0.00347184
0.00062971
0.000219077
0.000124751
7.30139e-05
2.90899e-05
8.90733e-06
2.28785e-06
4.86046e-07
9.55963e-08
1.70364e-08
2.9503e-09
5.25341e-10
1.00178e-10
2.09978e-11
4.948e-12
1.42537e-12
4.52852e-13
1.73771e-13
-2.10439e-14
1.10921e-13
6.01233e-14
-4.9988e-14
8.0978e-14
-8.60345e-14
6.12266e-14
1.13787e-13
-1.36275e-14
9.02548e-14
-7.45343e-14
9.94208e-14
3.97984e-14
8.12396e-14
5.01199e-14
1.26512e-13
4.21561e-14
3.03303e-14
4.46716e-13
6.52397e-12
2.87398e-11
9.33188e-11
2.63096e-10
6.83556e-10
1.67964e-09
3.94615e-09
8.88831e-09
1.91518e-08
3.93068e-08
7.65035e-08
1.40273e-07
2.3842e-07
3.61176e-07
4.38823e-07
2.46892e-07
-7.72458e-07
-3.62648e-06
-1.02703e-05
-2.31333e-05
-4.49439e-05
-7.70257e-05
-0.000119282
-0.000165921
-0.000215322
-0.000266717
-0.000322455
-0.000386189
-0.000468889
-0.000585781
-0.000762986
-0.00104875
-0.00151928
-0.00230028
-0.00358309
-0.00564004
-0.0088342
-0.0136588
-0.0207214
-0.0310695
-0.0461859
-0.0683874
-0.102813
-0.15718
-0.245882
-0.392278
-0.64658
-1.10645
-1.98078
-3.72646
-7.27338
-7.96822
-6.65173
-4.73712
-2.97149
-1.71363
-0.907955
-0.436281
-0.182059
-0.0548175
-0.00109334
0.00859808
0.00333056
0.00060254
0.000212048
0.000123359
7.16298e-05
2.8328e-05
8.65348e-06
2.21495e-06
4.70012e-07
9.21679e-08
1.64069e-08
2.84131e-09
5.06515e-10
9.65897e-11
2.03206e-11
4.83202e-12
1.1793e-12
4.03211e-13
2.55003e-13
-1.3013e-13
-1.14743e-13
-7.11158e-14
9.9959e-14
-1.29947e-13
1.37844e-13
-7.65559e-14
-2.22779e-14
-7.83628e-14
-9.36548e-14
-1.38378e-14
9.95847e-14
5.79775e-14
7.09065e-14
-6.46143e-14
-4.56266e-14
1.0479e-13
4.59358e-14
4.45167e-13
6.50143e-12
2.86411e-11
9.30008e-11
2.62208e-10
6.81284e-10
1.67417e-09
3.93361e-09
8.86096e-09
1.90952e-08
3.91965e-08
7.63049e-08
1.39955e-07
2.38004e-07
3.60854e-07
4.39337e-07
2.50102e-07
-7.62649e-07
-3.60382e-06
-1.02211e-05
-2.30572e-05
-4.48426e-05
-7.69229e-05
-0.000119221
-0.000165943
-0.000215457
-0.00026698
-0.000322859
-0.000386738
-0.000469614
-0.00058674
-0.000764315
-0.00105086
-0.00152261
-0.00230617
-0.00359386
-0.00565934
-0.00886823
-0.0137171
-0.0208178
-0.0312264
-0.0464364
-0.0687902
-0.103473
-0.158288
-0.247795
-0.395667
-0.652886
-1.11887
-2.00705
-3.78612
-7.31334
-7.9782
-6.64152
-4.71788
-2.95363
-1.70004
-0.899013
-0.430972
-0.179189
-0.0533983
-0.000640379
0.00851697
0.00321778
0.000581661
0.000206529
0.000122093
7.04581e-05
2.76885e-05
8.44458e-06
2.15521e-06
4.56953e-07
8.93962e-08
1.59003e-08
2.75394e-09
4.91399e-10
9.39984e-11
2.0005e-11
4.78991e-12
1.21794e-12
4.22598e-13
2.11816e-13
2.63736e-14
-6.68372e-14
5.69116e-14
-9.94097e-14
9.06067e-15
-7.06779e-15
-1.1512e-13
-3.52125e-14
1.32204e-13
-1.3127e-13
5.28796e-14
9.52373e-14
-6.30734e-14
-1.35804e-13
1.28813e-13
-1.46912e-14
-1.10515e-13
1.49562e-14
4.43991e-13
6.48433e-12
2.85662e-11
9.27598e-11
2.61537e-10
6.79568e-10
1.67005e-09
3.92423e-09
8.84073e-09
1.90538e-08
3.91168e-08
7.61631e-08
1.39729e-07
2.37706e-07
3.60623e-07
4.39749e-07
2.52615e-07
-7.55073e-07
-3.58663e-06
-1.01832e-05
-2.29963e-05
-4.47628e-05
-7.68448e-05
-0.000119181
-0.000165974
-0.000215581
-0.000267209
-0.000323196
-0.00038719
-0.000470199
-0.000587527
-0.000765413
-0.00105252
-0.00152536
-0.00231103
-0.00360256
-0.00567478
-0.00889533
-0.0137632
-0.0208939
-0.0313501
-0.0466347
-0.0691083
-0.103995
-0.159153
-0.249252
-0.398133
-0.657129
-1.12635
-2.02046
-3.8098
-7.36299
-7.97058
-6.6213
-4.69524
-2.93923
-1.68992
-0.892527
-0.427191
-0.177151
-0.0523797
-0.000321206
0.00844751
0.003131
0.000566044
0.000202307
0.000119658
6.94981e-05
2.7189e-05
8.28302e-06
2.10888e-06
4.46885e-07
8.72833e-08
1.55156e-08
2.68754e-09
4.79944e-10
9.16477e-11
1.92865e-11
4.63939e-12
1.18337e-12
4.46506e-13
5.11225e-14
3.60667e-14
-1.76218e-14
5.43547e-14
2.02812e-14
1.26196e-14
-8.13871e-14
-5.23802e-14
-1.57444e-14
-5.33548e-14
-7.57021e-15
2.70108e-14
-1.00361e-13
6.75936e-14
1.36761e-13
5.99816e-14
3.53325e-14
1.3273e-13
-8.49491e-15
4.43154e-13
6.47217e-12
2.85131e-11
9.25895e-11
2.61065e-10
6.7837e-10
1.66719e-09
3.91775e-09
8.82669e-09
1.90247e-08
3.90596e-08
7.60583e-08
1.39556e-07
2.37476e-07
3.60445e-07
4.40042e-07
2.54361e-07
-7.49859e-07
-3.57478e-06
-1.01572e-05
-2.29553e-05
-4.47098e-05
-7.67938e-05
-0.000119158
-0.000166001
-0.000215675
-0.000267378
-0.000323445
-0.000387522
-0.000470636
-0.000588112
-0.000766242
-0.00105367
-0.00152744
-0.00231466
-0.00360905
-0.00568625
-0.00891535
-0.0137971
-0.0209495
-0.0314403
-0.0467791
-0.0693409
-0.104378
-0.159804
-0.250397
-0.4002
-0.661021
-1.13397
-2.03633
-3.84465
-7.38205
-7.97528
-6.61526
-4.68535
-2.92637
-1.68179
-0.887725
-0.424514
-0.175747
-0.0516872
-0.000109415
0.00838892
0.0030663
0.000554687
0.000199289
0.000122053
6.88815e-05
2.68446e-05
8.16884e-06
2.07604e-06
4.39683e-07
8.57563e-08
1.52364e-08
2.63936e-09
4.71596e-10
9.02106e-11
1.90395e-11
4.64004e-12
1.0645e-12
3.97407e-13
2.1224e-13
5.2624e-14
3.3302e-15
-1.45377e-14
9.10716e-14
1.13627e-13
3.84346e-14
5.71371e-14
2.34136e-15
9.75862e-14
-7.89919e-15
1.61044e-14
1.01721e-14
3.43022e-14
-1.2023e-13
-4.68687e-14
-1.06224e-13
2.44328e-14
-6.07309e-15
4.42617e-13
6.46437e-12
2.8479e-11
9.24796e-11
2.60759e-10
6.77583e-10
1.66528e-09
3.91334e-09
8.81695e-09
1.90044e-08
3.90199e-08
7.59867e-08
1.39442e-07
2.37329e-07
3.60332e-07
4.40234e-07
2.55497e-07
-7.46498e-07
-3.56734e-06
-1.01411e-05
-2.29299e-05
-4.46772e-05
-7.67632e-05
-0.000119146
-0.000166023
-0.000215741
-0.000267493
-0.000323615
-0.000387752
-0.000470928
-0.000588505
-0.000766798
-0.0010545
-0.00152883
-0.00231706
-0.00361331
-0.00569373
-0.00892833
-0.0138189
-0.0209851
-0.0314975
-0.0468703
-0.0694863
-0.104617
-0.160206
-0.251096
-0.40144
-0.6633
-1.13832
-2.04493
-3.86202
-7.40366
-7.97555
-6.60812
-4.67583
-2.91945
-1.67631
-0.884063
-0.422341
-0.174583
-0.0511287
5.64335e-05
0.00835365
0.00302399
0.000547118
0.000197158
0.000121477
6.84176e-05
2.66031e-05
8.09082e-06
2.05379e-06
4.34823e-07
8.47364e-08
1.50509e-08
2.60732e-09
4.66101e-10
8.92881e-11
1.88639e-11
4.52518e-12
1.1316e-12
3.48135e-13
2.95842e-13
-1.43127e-14
-1.27485e-13
-2.56624e-14
4.08615e-14
5.42921e-14
2.07977e-14
1.75432e-14
2.10794e-14
1.30534e-13
8.30206e-14
1.12428e-13
-8.99772e-14
5.74429e-14
1.32e-13
4.43016e-15
-4.11445e-14
-2.78573e-14
-9.81425e-14
4.42348e-13
6.46045e-12
2.84618e-11
9.24243e-11
2.60604e-10
6.77186e-10
1.66432e-09
3.91116e-09
8.81224e-09
1.89947e-08
3.9001e-08
7.59528e-08
1.39388e-07
2.37258e-07
3.6028e-07
4.4033e-07
2.56051e-07
-7.44876e-07
-3.56371e-06
-1.01331e-05
-2.29176e-05
-4.46615e-05
-7.67488e-05
-0.000119142
-0.000166036
-0.000215777
-0.000267555
-0.000323705
-0.000387875
-0.000471083
-0.000588714
-0.0007671
-0.00105513
-0.00152954
-0.00231826
-0.00361542
-0.00569742
-0.00893469
-0.0138295
-0.0210022
-0.0315246
-0.0469124
-0.0695509
-0.104716
-0.160357
-0.251318
-0.401736
-0.663597
-1.13822
-2.04285
-3.85165
-7.4276
-7.96552
-6.59482
-4.65854
-2.92928
-1.68108
-0.885874
-0.422904
-0.174699
-0.0510993
7.32588e-05
0.00832093
0.00299978
0.000542859
0.000195942
0.000121138
6.81705e-05
2.64788e-05
8.05075e-06
2.04254e-06
4.32385e-07
8.42289e-08
1.49591e-08
2.59162e-09
4.63489e-10
8.88158e-11
1.88202e-11
4.51649e-12
1.23669e-12
3.86085e-13
4.23766e-14
-9.70665e-14
-5.02585e-14
1.08553e-14
-7.56822e-14
1.13048e-13
-5.40656e-14
-1.21652e-13
-3.55311e-14
2.29517e-14
3.02448e-14
-1.01556e-13
1.68336e-14
-1.37726e-13
-6.91581e-14
-6.99179e-14
5.84231e-14
3.23383e-14
8.96448e-14
4.42344e-13
6.46039e-12
2.84615e-11
9.24233e-11
2.60601e-10
6.77178e-10
1.66431e-09
3.91112e-09
8.81215e-09
1.89945e-08
3.90007e-08
7.59524e-08
1.39388e-07
2.37258e-07
3.60281e-07
4.40333e-07
2.5606e-07
-7.44861e-07
-3.56369e-06
-1.01331e-05
-2.29176e-05
-4.46617e-05
-7.67493e-05
-0.000119142
-0.000166037
-0.000215778
-0.000267555
-0.000323704
-0.000387876
-0.000471082
-0.00058871
-0.000767083
-0.00105506
-0.00152952
-0.00231823
-0.00361539
-0.00569736
-0.00893459
-0.0138293
-0.021002
-0.0315246
-0.0469129
-0.0695526
-0.104722
-0.160373
-0.251366
-0.401882
-0.664051
-1.13964
-2.04731
-3.86603
-7.40527
-7.97346
-6.60609
-4.67492
-2.91742
-1.67427
-0.882548
-0.42141
-0.174075
-0.0508725
0.000131263
0.00832807
0.00299971
0.000542903
0.00019595
0.000121149
6.8165e-05
2.64742e-05
8.04892e-06
2.04202e-06
4.32269e-07
8.42052e-08
1.49548e-08
2.59091e-09
4.63382e-10
8.88248e-11
1.87e-11
4.54015e-12
1.02466e-12
3.94451e-13
1.94097e-13
-6.61899e-14
-7.68801e-14
7.24249e-14
-7.00169e-14
-1.16053e-13
5.62577e-14
-3.83094e-15
-5.58072e-14
1.06803e-13
1.20526e-13
7.45308e-14
1.2897e-13
5.62256e-14
-1.10511e-14
1.22468e-13
-1.06155e-13
1.32329e-13
-2.55073e-14
4.42606e-13
6.4642e-12
2.84781e-11
9.24767e-11
2.60749e-10
6.77556e-10
1.66521e-09
3.91318e-09
8.81664e-09
1.90038e-08
3.90188e-08
7.5985e-08
1.3944e-07
2.37327e-07
3.60334e-07
4.40244e-07
2.55523e-07
-7.46449e-07
-3.56727e-06
-1.01409e-05
-2.29299e-05
-4.46776e-05
-7.67643e-05
-0.000119148
-0.000166026
-0.000215745
-0.000267497
-0.000323618
-0.00038775
-0.00047093
-0.000588502
-0.000766785
-0.00105458
-0.00152879
-0.00231699
-0.00361319
-0.00569351
-0.00892791
-0.0138181
-0.0209839
-0.0314956
-0.0468676
-0.0694814
-0.104606
-0.160181
-0.251031
-0.401282
-0.662927
-1.13745
-2.04288
-3.85668
-7.3931
-7.97266
-6.61023
-4.68064
-2.9223
-1.67755
-0.884508
-0.422488
-0.174629
-0.0511359
5.07e-05
0.0083423
0.00301872
0.000546288
0.00019691
0.000121408
6.83777e-05
2.65858e-05
8.08495e-06
2.05227e-06
4.34496e-07
8.4672e-08
1.50402e-08
2.60562e-09
4.6584e-10
8.94491e-11
1.90297e-11
4.37523e-12
1.13161e-12
3.80209e-13
2.24353e-13
-3.03544e-16
6.13531e-14
7.38231e-14
-3.30869e-14
9.57145e-14
1.2847e-13
-2.78656e-14
-1.58249e-14
-6.57404e-14
-4.69979e-14
-4.31977e-14
-7.30151e-14
-1.21534e-14
6.52625e-14
1.61171e-14
4.32834e-14
5.78656e-14
8.25577e-14
4.43151e-13
6.47212e-12
2.85128e-11
9.25882e-11
2.61059e-10
6.78348e-10
1.66711e-09
3.91753e-09
8.82607e-09
1.90233e-08
3.90567e-08
7.60534e-08
1.3955e-07
2.37472e-07
3.60446e-07
4.40053e-07
2.54381e-07
-7.49844e-07
-3.57484e-06
-1.01575e-05
-2.29559e-05
-4.47111e-05
-7.67962e-05
-0.000119161
-0.000166005
-0.00021568
-0.000267381
-0.000323448
-0.000387524
-0.000470635
-0.000588106
-0.000766227
-0.00105372
-0.00152738
-0.00231454
-0.00360881
-0.00568577
-0.00891442
-0.0137954
-0.0209466
-0.0314355
-0.046772
-0.0693293
-0.104359
-0.159768
-0.250323
-0.400043
-0.660686
-1.13327
-2.03474
-3.84039
-7.37451
-7.97367
-6.61751
-4.68939
-2.92955
-1.68277
-0.88782
-0.424393
-0.175638
-0.0516294
-9.98673e-05
0.0083765
0.0030591
0.000553376
0.000198814
0.000121878
6.87984e-05
2.68111e-05
8.1585e-06
2.07332e-06
4.39116e-07
8.56578e-08
1.522e-08
2.63658e-09
4.71068e-10
9.01659e-11
1.91715e-11
4.58048e-12
1.06224e-12
2.67074e-13
1.06959e-13
-4.9936e-14
-1.21011e-13
-9.8466e-14
9.27544e-14
-2.2286e-14
5.74594e-14
-1.21769e-13
3.60441e-14
-5.80872e-14
1.24837e-13
1.05444e-13
-7.28558e-14
-1.0081e-13
-1.09e-14
-1.99468e-15
4.13681e-14
-3.60648e-14
8.68418e-14
4.43997e-13
6.48443e-12
2.85667e-11
9.27615e-11
2.61542e-10
6.79582e-10
1.67008e-09
3.92429e-09
8.84076e-09
1.90536e-08
3.91158e-08
7.61598e-08
1.39721e-07
2.37695e-07
3.60617e-07
4.39759e-07
2.52622e-07
-7.55109e-07
-3.58673e-06
-1.01835e-05
-2.29971e-05
-4.47645e-05
-7.68476e-05
-0.000119185
-0.000165978
-0.000215585
-0.000267213
-0.000323198
-0.000387189
-0.000470195
-0.000587516
-0.000765389
-0.00105248
-0.00152528
-0.00231086
-0.00360221
-0.00567408
-0.00889396
-0.0137606
-0.0208894
-0.0313425
-0.046622
-0.0690891
-0.103964
-0.159108
-0.249195
-0.398085
-0.657205
-1.1269
-2.02277
-3.81788
-7.35097
-7.97752
-6.63057
-4.7037
-2.94087
-1.69157
-0.893607
-0.427775
-0.177434
-0.0524934
-0.000363653
0.00842494
0.00312212
0.000564596
0.000201728
0.000119423
6.9387e-05
2.71493e-05
8.27119e-06
2.10613e-06
4.46365e-07
8.71812e-08
1.54972e-08
2.68484e-09
4.79388e-10
9.16791e-11
1.93206e-11
4.53871e-12
1.0342e-12
2.83768e-13
2.18334e-13
1.38308e-13
-4.65539e-14
-9.93655e-14
-1.15682e-13
-1.0055e-13
-9.26315e-15
-1.18101e-13
5.99367e-14
-1.97723e-14
-5.7231e-15
-3.12814e-14
-1.94298e-14
3.84574e-14
-4.27376e-14
-1.3024e-13
1.18548e-13
3.79131e-14
1.0229e-13
4.45174e-13
6.50155e-12
2.86416e-11
9.30028e-11
2.62215e-10
6.81302e-10
1.67422e-09
3.93374e-09
8.86132e-09
1.90961e-08
3.91985e-08
7.63087e-08
1.3996e-07
2.38009e-07
3.60859e-07
4.39356e-07
2.50174e-07
-7.62496e-07
-3.60363e-06
-1.02209e-05
-2.30575e-05
-4.48439e-05
-7.69256e-05
-0.000119225
-0.000165949
-0.000215463
-0.000266986
-0.000322864
-0.000386739
-0.00046961
-0.000586734
-0.000764302
-0.00105082
-0.00152252
-0.00230599
-0.00359342
-0.00565845
-0.0088665
-0.0137139
-0.0208122
-0.0312168
-0.0464207
-0.0687639
-0.10343
-0.158214
-0.247659
-0.39537
-0.652127
-1.11676
-2.00084
-3.76725
-7.32478
-7.96763
-6.63476
-4.71411
-2.95089
-1.70007
-0.89956
-0.431416
-0.179449
-0.0535182
-0.000688362
0.0084931
0.0032082
0.000580139
0.000205833
0.000123531
7.0305e-05
2.76271e-05
8.42567e-06
2.14979e-06
4.55819e-07
8.91832e-08
1.58656e-08
2.74859e-09
4.90568e-10
9.37983e-11
1.98449e-11
4.58507e-12
1.27096e-12
2.58307e-13
1.1887e-13
2.75127e-14
-1.07632e-14
-9.20664e-14
1.28997e-13
1.10607e-13
1.00606e-13
8.68487e-14
1.04274e-14
8.99667e-14
1.35647e-13
-7.6174e-14
-1.20067e-13
-9.78448e-14
8.40916e-14
-1.39206e-14
-4.47525e-15
-1.37125e-13
6.26514e-14
4.46721e-13
6.52405e-12
2.87402e-11
9.33203e-11
2.63101e-10
6.83571e-10
1.67968e-09
3.94626e-09
8.88861e-09
1.91525e-08
3.93086e-08
7.65076e-08
1.40281e-07
2.38435e-07
3.61197e-07
4.38857e-07
2.47014e-07
-7.72005e-07
-3.62517e-06
-1.02679e-05
-2.3132e-05
-4.4944e-05