/*--------------------------------*- C++ -*----------------------------------*\
  =========                 |
  \\      /  F ield         | OpenFOAM: The Open Source CFD Toolbox
   \\    /   O peration     | Website:  https://openfoam.org
    \\  /    A nd           | Version:  10
     \\/     M anipulation  |
\*---------------------------------------------------------------------------*/
FoamFile
{
    format      ascii;
    class       volScalarField;
    location    "1";
    object      RR.OH;
}
// * * * * * * * * * * * * * * * * * * * * * * * * * * * * * * * * * * * * * //

dimensions      [1 -3 -1 0 0 0 0];

internalField   nonuniform List<scalar> 
4000
(
-1.36184e-15
-4.36885e-15
-9.89644e-15
-2.2002e-14
-4.85531e-14
-1.061e-13
-2.28972e-13
-4.86921e-13
-1.01959e-12
-2.10703e-12
-4.32623e-12
-8.91541e-12
-1.86167e-11
-3.9541e-11
-8.49512e-11
-1.81678e-10
-3.79418e-10
-7.49989e-10
-1.34694e-09
-2.19683e-09
-3.09538e-09
-3.91169e-09
-5.2788e-09
-1.01724e-08
-2.66344e-08
-7.27451e-08
-1.88471e-07
-4.62731e-07
-1.06736e-06
-2.36793e-06
-5.04088e-06
-1.03443e-05
-2.05964e-05
-3.9828e-05
-7.50317e-05
-0.00013828
-0.000249962
-0.000446326
-0.000790593
-0.00139564
-0.00246823
-0.00434169
-0.00756687
-0.0130858
-0.0226323
-0.0387943
-0.065712
-0.110207
-0.183422
-0.302087
-0.488178
-0.735888
0.261184
0.99066
0.899119
0.541254
0.200088
-0.0212856
-0.131501
-0.163968
-0.152063
-0.122637
-0.0887497
-0.0569617
-0.0351873
-0.0201869
-0.00973986
-0.00392557
-0.0012947
-0.000353072
-8.26997e-05
-1.61992e-05
-2.5597e-06
-3.46754e-07
-4.02428e-08
-4.50334e-09
-4.65744e-10
-4.77525e-11
-5.22397e-12
-6.50451e-13
-9.56506e-14
-1.64044e-14
-3.07726e-15
-5.53826e-16
-7.16148e-17
5.95681e-18
9.75706e-18
5.13712e-18
2.11938e-18
7.78421e-19
2.64355e-19
8.52734e-20
2.64245e-20
7.90398e-21
2.28009e-21
6.28871e-22
1.62073e-22
3.69222e-23
6.36981e-24
3.47984e-25
-1.34875e-15
-4.32689e-15
-9.80196e-15
-2.17927e-14
-4.80803e-14
-1.05017e-13
-2.26452e-13
-4.80932e-13
-1.00517e-12
-2.07222e-12
-4.24246e-12
-8.71402e-12
-1.81337e-11
-3.84126e-11
-8.23606e-11
-1.75847e-10
-3.66798e-10
-7.26529e-10
-1.31246e-09
-2.15861e-09
-3.06522e-09
-3.89753e-09
-5.22074e-09
-9.87723e-09
-2.56842e-08
-7.04234e-08
-1.83332e-07
-4.53062e-07
-1.04872e-06
-2.33573e-06
-4.98947e-06
-1.02657e-05
-2.05028e-05
-3.97892e-05
-7.51821e-05
-0.000138913
-0.000251722
-0.000450275
-0.00079883
-0.00141181
-0.00249893
-0.00439891
-0.00766915
-0.0132705
-0.022961
-0.0393704
-0.0666844
-0.111829
-0.186075
-0.306339
-0.494763
-0.740694
0.318237
1.0025
0.889588
0.526022
0.189157
-0.0283115
-0.135007
-0.164857
-0.151166
-0.121023
-0.086849
-0.0553647
-0.034056
-0.0193632
-0.00920287
-0.00365693
-0.00118602
-0.000317874
-7.32428e-05
-1.42061e-05
-2.21697e-06
-2.96869e-07
-3.43606e-08
-3.84288e-09
-3.9892e-10
-4.11573e-11
-4.53847e-12
-5.69954e-13
-8.45601e-14
-1.46012e-14
-2.72804e-15
-4.77407e-16
-5.03014e-17
1.26462e-17
1.19835e-17
5.87835e-18
2.35537e-18
8.47028e-19
2.86126e-19
9.17122e-20
2.82443e-20
8.39862e-21
2.40923e-21
6.61054e-22
1.6959e-22
3.849e-23
6.6225e-24
3.61192e-25
-1.33742e-15
-4.29136e-15
-9.72436e-15
-2.16262e-14
-4.77186e-14
-1.0417e-13
-2.2432e-13
-4.75438e-13
-9.90888e-13
-2.0351e-12
-4.14714e-12
-8.48055e-12
-1.75924e-11
-3.71548e-11
-7.94907e-11
-1.69608e-10
-3.54043e-10
-7.01553e-10
-1.27261e-09
-2.10954e-09
-3.0259e-09
-3.87928e-09
-5.14621e-09
-9.62148e-09
-2.47372e-08
-6.79331e-08
-1.77478e-07
-4.40961e-07
-1.02515e-06
-2.29459e-06
-4.92465e-06
-1.01767e-05
-2.04251e-05
-3.98077e-05
-7.55372e-05
-0.00014007
-0.000254751
-0.000456733
-0.000812088
-0.00143837
-0.00254914
-0.00448983
-0.00783177
-0.013563
-0.0234716
-0.0402401
-0.0681145
-0.114173
-0.189861
-0.312239
-0.503034
-0.746286
0.399354
1.01746
0.87487
0.504984
0.170957
-0.0391687
-0.139695
-0.165619
-0.149454
-0.11849
-0.0840662
-0.0531821
-0.0325598
-0.0182699
-0.008506
-0.00331807
-0.00105513
-0.000277541
-6.29862e-05
-1.20786e-05
-1.86436e-06
-2.4953e-07
-2.88441e-08
-3.23046e-09
-3.36539e-10
-3.49326e-11
-3.88177e-12
-4.88811e-13
-7.28149e-14
-1.25992e-14
-2.33989e-15
-3.91679e-16
-2.99152e-17
1.81151e-17
1.36296e-17
6.41306e-18
2.53372e-18
9.06928e-19
3.03828e-19
9.71079e-20
2.98395e-20
8.8518e-21
2.53291e-21
6.93274e-22
1.77445e-22
4.01928e-23
6.90511e-24
3.76279e-25
-1.32049e-15
-4.23584e-15
-9.59352e-15
-2.13188e-14
-4.69927e-14
-1.02473e-13
-2.2041e-13
-4.66526e-13
-9.70878e-13
-1.99089e-12
-4.05038e-12
-8.26433e-12
-1.70903e-11
-3.59905e-11
-7.68387e-11
-1.63835e-10
-3.4245e-10
-6.81401e-10
-1.24087e-09
-2.06769e-09
-2.99281e-09
-3.86742e-09
-5.10346e-09
-9.36421e-09
-2.38857e-08
-6.57158e-08
-1.72335e-07
-4.30614e-07
-1.00592e-06
-2.26332e-06
-4.88124e-06
-1.01295e-05
-2.04168e-05
-3.99525e-05
-7.6166e-05
-0.000141806
-0.000258817
-0.000465459
-0.000830073
-0.0014728
-0.00261318
-0.00460939
-0.00804834
-0.0139458
-0.0241443
-0.041403
-0.070036
-0.11744
-0.195153
-0.320482
-0.515136
-0.747193
0.486741
1.03339
0.857331
0.479966
0.151339
-0.0507526
-0.144488
-0.165846
-0.147254
-0.115444
-0.0806955
-0.0507084
-0.0309117
-0.0170121
-0.0077467
-0.00296502
-0.000923547
-0.000238035
-5.32978e-05
-1.0095e-05
-1.53066e-06
-2.01343e-07
-2.30667e-08
-2.55656e-09
-2.64922e-10
-2.74962e-11
-3.06959e-12
-3.94931e-13
-5.99888e-14
-1.04553e-14
-1.92696e-15
-3.02516e-16
-8.72896e-18
2.35768e-17
1.5133e-17
6.84444e-18
2.66159e-18
9.45636e-19
3.15764e-19
1.00558e-19
3.08183e-20
9.12498e-21
2.60739e-21
7.12867e-22
1.82307e-22
4.12708e-23
7.08827e-24
3.86203e-25
-1.30374e-15
-4.18184e-15
-9.46989e-15
-2.1039e-14
-4.63594e-14
-1.01044e-13
-2.17201e-13
-4.59359e-13
-9.5493e-13
-1.95542e-12
-3.97111e-12
-8.08554e-12
-1.66829e-11
-3.50584e-11
-7.47279e-11
-1.59225e-10
-3.32973e-10
-6.63866e-10
-1.21351e-09
-2.03465e-09
-2.96797e-09
-3.86205e-09
-5.07913e-09
-9.17362e-09
-2.31736e-08
-6.37663e-08
-1.68091e-07
-4.22312e-07
-9.91171e-07
-2.24122e-06
-4.8572e-06
-1.01223e-05
-2.04769e-05
-4.02278e-05
-7.70247e-05
-0.000143948
-0.000263588
-0.000475578
-0.000849906
-0.0015105
-0.00268437
-0.00474005
-0.00828406
-0.0143632
-0.0248751
-0.0426588
-0.0720101
-0.120662
-0.200309
-0.328398
-0.525957
-0.7423
0.577002
1.04614
0.836972
0.453567
0.13166
-0.0618902
-0.148576
-0.165459
-0.144846
-0.112486
-0.0776024
-0.0484321
-0.0293265
-0.0158472
-0.00707615
-0.00266206
-0.00081299
-0.000205273
-4.54523e-05
-8.40953e-06
-1.25964e-06
-1.63895e-07
-1.873e-08
-2.06854e-09
-2.14462e-10
-2.23584e-11
-2.51433e-12
-3.23649e-13
-4.92798e-14
-8.71325e-15
-1.59692e-15
-2.31716e-16
8.36756e-18
2.79172e-17
1.62932e-17
7.16764e-18
2.75445e-18
9.72737e-19
3.23722e-19
1.02849e-19
3.14648e-20
9.30318e-21
2.65517e-21
7.25226e-22
1.85326e-22
4.19313e-23
7.19929e-24
3.92187e-25
-1.28683e-15
-4.12728e-15
-9.34485e-15
-2.07564e-14
-4.5723e-14
-9.96201e-14
-2.14044e-13
-4.52428e-13
-9.39829e-13
-1.9226e-12
-3.89956e-12
-7.9283e-12
-1.63339e-11
-3.42795e-11
-7.30086e-11
-1.55571e-10
-3.2569e-10
-6.50846e-10
-1.19374e-09
-2.0096e-09
-2.94992e-09
-3.86213e-09
-5.07154e-09
-9.04114e-09
-2.26243e-08
-6.23499e-08
-1.64958e-07
-4.16376e-07
-9.81267e-07
-2.22944e-06
-4.85178e-06
-1.01437e-05
-2.06031e-05
-4.06226e-05
-7.80683e-05
-0.000146418
-0.000268956
-0.000486433
-0.000871092
-0.00155106
-0.00275973
-0.0048782
-0.00852537
-0.0147845
-0.0256055
-0.0439029
-0.0741196
-0.124114
-0.205958
-0.337301
-0.538633
-0.731639
0.652396
1.05496
0.81724
0.428759
0.113817
-0.071648
-0.151793
-0.164296
-0.14198
-0.109327
-0.0746238
-0.0463871
-0.027919
-0.0148539
-0.00654379
-0.0023758
-0.000712755
-0.000177515
-3.87476e-05
-7.01966e-06
-1.04095e-06
-1.34244e-07
-1.53224e-08
-1.68748e-09
-1.75108e-10
-1.83429e-11
-2.07999e-12
-2.70711e-13
-4.15508e-14
-7.30266e-15
-1.30178e-15
-1.65569e-16
2.25567e-17
3.11345e-17
1.70585e-17
7.35665e-18
2.80289e-18
9.85529e-19
3.27205e-19
1.0379e-19
3.17168e-20
9.36956e-21
2.67227e-21
7.29498e-22
1.86339e-22
4.21479e-23
7.23522e-24
3.94117e-25
-1.27077e-15
-4.07562e-15
-9.22694e-15
-2.04914e-14
-4.51306e-14
-9.83066e-14
-2.11162e-13
-4.4617e-13
-9.26342e-13
-1.89358e-12
-3.83687e-12
-7.79152e-12
-1.60318e-11
-3.36074e-11
-7.15237e-11
-1.524e-10
-3.19304e-10
-6.39233e-10
-1.17572e-09
-1.9865e-09
-2.93414e-09
-3.86542e-09
-5.07421e-09
-8.94773e-09
-2.22402e-08
-6.13544e-08
-1.62873e-07
-4.12782e-07
-9.76213e-07
-2.22633e-06
-4.86168e-06
-1.01961e-05
-2.07756e-05
-4.10906e-05
-7.92086e-05
-0.000148993
-0.000274439
-0.000497515
-0.000892475
-0.0015914
-0.00283576
-0.00501611
-0.00876889
-0.0152101
-0.0263408
-0.0451474
-0.0761177
-0.127368
-0.211748
-0.345809
-0.550167
-0.710297
0.722803
1.05845
0.795966
0.400486
0.0948388
-0.0815832
-0.155049
-0.16342
-0.140009
-0.106979
-0.0721481
-0.04466
-0.0267114
-0.0140148
-0.00608832
-0.00217875
-0.000645157
-0.000158298
-3.42833e-05
-6.11358e-06
-8.99347e-07
-1.15059e-07
-1.31101e-08
-1.43917e-09
-1.49329e-10
-1.56946e-11
-1.791e-12
-2.35056e-13
-3.63586e-14
-6.40399e-15
-1.12114e-15
-1.24949e-16
3.269e-17
3.35529e-17
1.75995e-17
7.46685e-18
2.82253e-18
9.88204e-19
3.27322e-19
1.03675e-19
3.16534e-20
9.34562e-21
2.66439e-21
7.27126e-22
1.85689e-22
4.19935e-23
7.2079e-24
3.92617e-25
-1.25591e-15
-4.02784e-15
-9.11807e-15
-2.02474e-14
-4.45873e-14
-9.71084e-14
-2.08551e-13
-4.40549e-13
-9.14342e-13
-1.86803e-12
-3.78217e-12
-7.67325e-12
-1.57725e-11
-3.30338e-11
-7.02625e-11
-1.49717e-10
-3.13925e-10
-6.29506e-10
-1.16073e-09
-1.96738e-09
-2.92227e-09
-3.86952e-09
-5.08066e-09
-8.8938e-09
-2.19921e-08
-6.06845e-08
-1.61537e-07
-4.10831e-07
-9.74699e-07
-2.22968e-06
-4.88323e-06
-1.02692e-05
-2.09822e-05
-4.1613e-05
-8.04245e-05
-0.000151701
-0.000279975
-0.000508448
-0.000913334
-0.0016302
-0.00290564
-0.00514203
-0.00899149
-0.0156036
-0.0270333
-0.0463486
-0.0781399
-0.130713
-0.217129
-0.354189
-0.561734
-0.681586
0.778338
1.05984
0.77503
0.380827
0.0813534
-0.0886047
-0.157088
-0.16243
-0.137857
-0.104471
-0.0698328
-0.0431368
-0.0256136
-0.0132524
-0.00568489
-0.00199676
-0.000583817
-0.000141591
-3.04806e-05
-5.37021e-06
-7.8407e-07
-9.95182e-08
-1.13164e-08
-1.23771e-09
-1.28346e-10
-1.35254e-11
-1.55208e-12
-2.05233e-13
-3.19595e-14
-5.63367e-15
-9.66397e-16
-9.15849e-17
3.9832e-17
3.4948e-17
1.77981e-17
7.47035e-18
2.80943e-18
9.80934e-19
3.24446e-19
1.02664e-19
3.13251e-20
9.24484e-21
2.63497e-21
7.18989e-22
1.83599e-22
4.15208e-23
7.12698e-24
3.88229e-25
-1.24259e-15
-3.98509e-15
-9.02089e-15
-2.00303e-14
-4.4106e-14
-9.60527e-14
-2.06265e-13
-4.35661e-13
-9.03986e-13
-1.84613e-12
-3.73567e-12
-7.57339e-12
-1.55553e-11
-3.25573e-11
-6.92256e-11
-1.47541e-10
-3.09641e-10
-6.2194e-10
-1.14935e-09
-1.95255e-09
-2.91324e-09
-3.87542e-09
-5.09572e-09
-8.86886e-09
-2.1825e-08
-6.02684e-08
-1.60826e-07
-4.10209e-07
-9.75665e-07
-2.23778e-06
-4.91423e-06
-1.03595e-05
-2.12142e-05
-4.21733e-05
-8.17116e-05
-0.00015445
-0.000285585
-0.000519498
-0.000934615
-0.00167064
-0.00298096
-0.00527829
-0.00923089
-0.0160223
-0.0277602
-0.0475825
-0.0802054
-0.134184
-0.222707
-0.363389
-0.575515
-0.651991
0.817234
1.05666
0.758061
0.358834
0.066965
-0.095778
-0.159191
-0.161613
-0.135975
-0.102353
-0.0678853
-0.041869
-0.0246783
-0.0125614
-0.0053123
-0.00184005
-0.000530951
-0.00012681
-2.70111e-05
-4.68185e-06
-6.77948e-07
-8.54043e-08
-9.70307e-09
-1.05847e-09
-1.09806e-10
-1.16144e-11
-1.34169e-12
-1.78936e-13
-2.80839e-14
-4.95772e-15
-8.32027e-16
-6.32842e-17
4.55765e-17
3.5928e-17
1.78809e-17
7.4372e-18
2.78451e-18
9.6985e-19
3.20361e-19
1.0128e-19
3.08852e-20
9.11163e-21
2.59636e-21
7.08341e-22
1.80862e-22
4.08996e-23
7.02019e-24
3.82403e-25
-1.23091e-15
-3.94763e-15
-8.93592e-15
-1.9841e-14
-4.36877e-14
-9.51388e-14
-2.04296e-13
-4.31475e-13
-8.95174e-13
-1.82762e-12
-3.69652e-12
-7.48947e-12
-1.53723e-11
-3.2153e-11
-6.83361e-11
-1.45645e-10
-3.0582e-10
-6.15008e-10
-1.13865e-09
-1.93909e-09
-2.90602e-09
-3.88186e-09
-5.11036e-09
-8.85882e-09
-2.1735e-08
-6.00475e-08
-1.60554e-07
-4.10488e-07
-9.78436e-07
-2.24909e-06
-4.94976e-06
-1.04553e-05
-2.14526e-05
-4.27449e-05
-8.29714e-05
-0.000157126
-0.000291021
-0.000530084
-0.000955174
-0.0017088
-0.00305132
-0.00540552
-0.00945429
-0.0164126
-0.0284299
-0.0487223
-0.0821065
-0.137246
-0.227255
-0.37037
-0.584884
-0.599792
0.853697
1.05253
0.740678
0.342803
0.0565699
-0.100814
-0.160465
-0.16077
-0.134328
-0.100427
-0.0661384
-0.0408524
-0.0237087
-0.0119239
-0.00499307
-0.00171133
-0.000488459
-0.000115733
-2.44944e-05
-4.1934e-06
-6.0312e-07
-7.55031e-08
-8.57061e-09
-9.3271e-10
-9.67731e-11
-1.02653e-11
-1.19205e-12
-1.60073e-13
-2.52818e-14
-4.46632e-15
-7.34312e-16
-4.30136e-17
4.94526e-17
3.6455e-17
1.78499e-17
7.37442e-18
2.75158e-18
9.56545e-19
3.15594e-19
9.97003e-20
3.03898e-20
8.96291e-21
2.55352e-21
6.96573e-22
1.77844e-22
4.0215e-23
6.90249e-24
3.75991e-25
-1.22086e-15
-3.91544e-15
-8.86302e-15
-1.9679e-14
-4.33308e-14
-9.43618e-14
-2.02629e-13
-4.27955e-13
-8.87829e-13
-1.81238e-12
-3.66475e-12
-7.42238e-12
-1.52281e-11
-3.18388e-11
-6.76507e-11
-1.4423e-10
-3.03063e-10
-6.1012e-10
-1.13113e-09
-1.92954e-09
-2.9015e-09
-3.88925e-09
-5.1281e-09
-8.8631e-09
-2.16904e-08
-5.9957e-08
-1.60582e-07
-4.11386e-07
-9.82364e-07
-2.26196e-06
-4.98731e-06
-1.05527e-05
-2.1691e-05
-4.32829e-05
-8.41459e-05
-0.000159594
-0.000295977
-0.000539819
-0.000973937
-0.00174406
-0.00311689
-0.00552539
-0.00966782
-0.0167926
-0.0290945
-0.0498697
-0.0840165
-0.14041
-0.232193
-0.378186
-0.595896
-0.546568
0.88292
1.04868
0.723718
0.330201
0.0478893
-0.105256
-0.161679
-0.160057
-0.132907
-0.0987941
-0.0646827
-0.0399019
-0.0230425
-0.0114577
-0.00475265
-0.00161223
-0.000455611
-0.000107265
-2.25958e-05
-3.82984e-06
-5.47661e-07
-6.82081e-08
-7.73828e-09
-8.40538e-10
-8.72325e-11
-9.27812e-12
-1.0822e-12
-1.46211e-13
-2.32195e-14
-4.10415e-15
-6.62527e-16
-2.84297e-17
5.20309e-17
3.66825e-17
1.77504e-17
7.29612e-18
2.71522e-18
9.42552e-19
3.10499e-19
9.80446e-20
2.98767e-20
8.8101e-21
2.50973e-21
6.84585e-22
1.74776e-22
3.95202e-23
6.78309e-24
3.69487e-25
-1.21235e-15
-3.88821e-15
-8.80146e-15
-1.95425e-14
-4.3031e-14
-9.37118e-14
-2.01242e-13
-4.25042e-13
-8.81791e-13
-1.79994e-12
-3.63901e-12
-7.36841e-12
-1.51127e-11
-3.15875e-11
-6.71011e-11
-1.43085e-10
-3.00759e-10
-6.05915e-10
-1.12481e-09
-1.92193e-09
-2.89834e-09
-3.89657e-09
-5.14497e-09
-8.87526e-09
-2.16794e-08
-5.9951e-08
-1.60786e-07
-4.12586e-07
-9.86725e-07
-2.27524e-06
-5.02454e-06
-1.06465e-05
-2.19132e-05
-4.37843e-05
-8.52255e-05
-0.000161835
-0.000300433
-0.000548555
-0.000990315
-0.0017743
-0.00317207
-0.00562392
-0.00983906
-0.0171942
-0.0297568
-0.0509998
-0.0859343
-0.143658
-0.23772
-0.387521
-0.610553
-0.508242
0.899301
1.04255
0.710899
0.317747
0.0401137
-0.108872
-0.162464
-0.159309
-0.131645
-0.0973679
-0.0634241
-0.0390705
-0.0224752
-0.0110778
-0.00455701
-0.00153484
-0.000430157
-0.000101007
-2.11953e-05
-3.5707e-06
-5.0826e-07
-6.30206e-08
-7.14474e-09
-7.74626e-10
-8.03885e-11
-8.56748e-12
-1.00302e-12
-1.36168e-13
-2.17131e-14
-3.83705e-15
-6.09365e-16
-1.78165e-17
5.37441e-17
3.67278e-17
1.7616e-17
7.21242e-18
2.67844e-18
9.28694e-19
3.05611e-19
9.64591e-20
2.93857e-20
8.66388e-21
2.46783e-21
6.73112e-22
1.7184e-22
3.88548e-23
6.6687e-24
3.63256e-25
-1.20524e-15
-3.86545e-15
-8.75009e-15
-1.94288e-14
-4.27819e-14
-9.31733e-14
-2.00097e-13
-4.22647e-13
-8.76856e-13
-1.78985e-12
-3.61834e-12
-7.32561e-12
-1.50226e-11
-3.13942e-11
-6.66796e-11
-1.42199e-10
-2.98989e-10
-6.02821e-10
-1.12026e-09
-1.9164e-09
-2.89679e-09
-3.90405e-09
-5.16257e-09
-8.89421e-09
-2.16927e-08
-6.00075e-08
-1.61127e-07
-4.14042e-07
-9.91442e-07
-2.28881e-06
-5.06106e-06
-1.07364e-05
-2.21221e-05
-4.42633e-05
-8.62592e-05
-0.000163975
-0.000304748
-0.000556905
-0.0010062
-0.00180399
-0.00322704
-0.00572391
-0.0100181
-0.0175136
-0.0303068
-0.0519385
-0.0875064
-0.146256
-0.241868
-0.393842
-0.619076
-0.441847
0.915726
1.03533
0.698413
0.30519
0.0325386
-0.112416
-0.16338
-0.158833
-0.130677
-0.0962351
-0.0624299
-0.0384029
-0.0220168
-0.0107783
-0.00440492
-0.00147366
-0.000410013
-9.60896e-05
-2.0072e-05
-3.35552e-06
-4.75761e-07
-5.87634e-08
-6.65917e-09
-7.20894e-10
-7.48148e-11
-7.9878e-12
-9.3835e-13
-1.27961e-13
-2.04874e-14
-3.62142e-15
-5.66927e-16
-9.54923e-18
5.49638e-17
3.66843e-17
1.74721e-17
7.13061e-18
2.64344e-18
9.15645e-19
3.01121e-19
9.50029e-20
2.89346e-20
8.52949e-21
2.42929e-21
6.62553e-22
1.69135e-22
3.82417e-23
6.56326e-24
3.57506e-25
-1.19936e-15
-3.84666e-15
-8.70768e-15
-1.9335e-14
-4.25762e-14
-9.27284e-14
-1.99149e-13
-4.20662e-13
-8.72747e-13
-1.78138e-12
-3.60083e-12
-7.2889e-12
-1.49441e-11
-3.12231e-11
-6.63018e-11
-1.41414e-10
-2.97503e-10
-6.00303e-10
-1.11672e-09
-1.91226e-09
-2.89616e-09
-3.91097e-09
-5.17821e-09
-8.91399e-09
-2.17202e-08
-6.01055e-08
-1.61539e-07
-4.15566e-07
-9.96111e-07
-2.30194e-06
-5.0957e-06
-1.08321e-05
-2.23207e-05
-4.46965e-05
-8.71964e-05
-0.00016593
-0.000308663
-0.000564548
-0.0010208
-0.00183142
-0.00327814
-0.00581779
-0.0101883
-0.0178203
-0.0308449
-0.0528699
-0.0890865
-0.148916
-0.246356
-0.401348
-0.630981
-0.395241
0.92552
1.02755
0.686167
0.295041
0.0261682
-0.115559
-0.16436
-0.158611
-0.129975
-0.0953354
-0.0616185
-0.0378533
-0.0216358
-0.010526
-0.00428194
-0.00142438
-0.00039411
-9.22254e-05
-1.92074e-05
-3.19336e-06
-4.51339e-07
-5.55677e-08
-6.29434e-09
-6.80509e-10
-7.06253e-11
-7.55213e-12
-8.89655e-13
-1.21746e-13
-1.95494e-14
-3.45418e-15
-5.3368e-16
-3.11327e-18
5.58455e-17
3.65977e-17
1.73325e-17
7.05494e-18
2.61158e-18
9.03841e-19
2.97078e-19
9.36955e-20
2.85302e-20
8.40913e-21
2.3948e-21
6.53105e-22
1.66715e-22
3.76931e-23
6.4689e-24
3.52361e-25
-1.1946e-15
-3.83145e-15
-8.67336e-15
-1.92591e-14
-4.24101e-14
-9.23693e-14
-1.98385e-13
-4.19061e-13
-8.69436e-13
-1.77456e-12
-3.58673e-12
-7.25937e-12
-1.48812e-11
-3.10879e-11
-6.60138e-11
-1.40845e-10
-2.96415e-10
-5.98416e-10
-1.11399e-09
-1.90908e-09
-2.89598e-09
-3.91749e-09
-5.19273e-09
-8.93433e-09
-2.17552e-08
-6.02216e-08
-1.61975e-07
-4.17055e-07
-1.00052e-06
-2.31379e-06
-5.12624e-06
-1.08947e-05
-2.24925e-05
-4.50846e-05
-8.80159e-05
-0.000167615
-0.00031202
-0.000571129
-0.00103346
-0.00185538
-0.00332304
-0.00590026
-0.010335
-0.0180811
-0.0313037
-0.0536681
-0.0904474
-0.151216
-0.250171
-0.407508
-0.639991
-0.356171
0.933582
1.02232
0.677641
0.288346
0.0220732
-0.117372
-0.164645
-0.158109
-0.129236
-0.0945116
-0.0609203
-0.0373891
-0.0213193
-0.0103215
-0.00418227
-0.00138511
-0.000381553
-8.91685e-05
-1.85291e-05
-3.06695e-06
-4.32341e-07
-5.30848e-08
-6.01073e-09
-6.49092e-10
-6.73586e-11
-7.21115e-12
-8.51437e-13
-1.16865e-13
-1.88119e-14
-3.32214e-15
-5.07337e-16
1.93996e-18
5.64898e-17
3.64944e-17
1.72046e-17
6.98771e-18
2.58355e-18
8.93505e-19
2.93547e-19
9.2555e-20
2.81778e-20
8.30428e-21
2.36476e-21
6.44879e-22
1.64609e-22
3.72156e-23
6.38677e-24
3.47882e-25
-1.19085e-15
-3.81947e-15
-8.64635e-15
-1.91995e-14
-4.22798e-14
-9.20886e-14
-1.9779e-13
-4.17819e-13
-8.66876e-13
-1.76933e-12
-3.57601e-12
-7.23723e-12
-1.48347e-11
-3.09882e-11
-6.57972e-11
-1.404e-10
-2.95544e-10
-5.96922e-10
-1.1119e-09
-1.90682e-09
-2.89627e-09
-3.92301e-09
-5.20499e-09
-8.95369e-09
-2.17932e-08
-6.03436e-08
-1.62405e-07
-4.18474e-07
-1.00464e-06
-2.32503e-06
-5.15486e-06
-1.09628e-05
-2.26449e-05
-4.54178e-05
-8.87255e-05
-0.000169085
-0.000314938
-0.000576788
-0.0010442
-0.00187541
-0.00336
-0.00596713
-0.0104551
-0.0182959
-0.0316847
-0.0543394
-0.0916112
-0.153228
-0.253623
-0.413333
-0.64891
-0.340114
0.938378
1.01911
0.671528
0.283137
0.0188152
-0.118817
-0.164846
-0.157656
-0.128593
-0.0938193
-0.060348
-0.0370132
-0.0210645
-0.0101573
-0.00410083
-0.00135313
-0.000371218
-8.66711e-05
-1.79743e-05
-2.96406e-06
-4.16938e-07
-5.10796e-08
-5.78225e-09
-6.23871e-10
-6.47446e-11
-6.93911e-12
-8.20988e-13
-1.1297e-13
-1.82218e-14
-3.21649e-15
-4.86404e-16
5.87904e-18
5.69516e-17
3.63875e-17
1.70923e-17
6.93002e-18
2.55971e-18
8.84748e-19
2.90561e-19
9.1592e-20
2.78804e-20
8.21586e-21
2.33944e-21
6.37946e-22
1.62834e-22
3.68133e-23
6.31758e-24
3.44107e-25
-1.188e-15
-3.81038e-15
-8.62592e-15
-1.91545e-14
-4.21819e-14
-9.18789e-14
-1.97349e-13
-4.16911e-13
-8.65035e-13
-1.7656e-12
-3.56841e-12
-7.22141e-12
-1.48008e-11
-3.0913e-11
-6.56299e-11
-1.40055e-10
-2.9488e-10
-5.95806e-10
-1.11036e-09
-1.90516e-09
-2.89671e-09
-3.92784e-09
-5.21539e-09
-8.97046e-09
-2.18279e-08
-6.04534e-08
-1.62776e-07
-4.19656e-07
-1.00799e-06
-2.33386e-06
-5.17719e-06
-1.10151e-05
-2.27635e-05
-4.5679e-05
-8.92794e-05
-0.00017021
-0.000317158
-0.000581074
-0.00105231
-0.00189047
-0.0033877
-0.00601713
-0.0105438
-0.0184524
-0.031955
-0.0547961
-0.0923598
-0.154426
-0.255489
-0.416074
-0.652383
-0.303715
0.944606
1.01603
0.665884
0.279266
0.0163959
-0.119915
-0.165026
-0.157345
-0.128126
-0.0933043
-0.0599188
-0.0367258
-0.0208681
-0.0100308
-0.00403672
-0.00132858
-0.000363372
-8.47893e-05
-1.75531e-05
-2.88621e-06
-4.05308e-07
-4.95706e-08
-5.61066e-09
-6.04966e-10
-6.27872e-11
-6.73505e-12
-7.98051e-13
-1.10023e-13
-1.77738e-14
-3.13611e-15
-4.70495e-16
8.83414e-18
5.72697e-17
3.62875e-17
1.69983e-17
6.88265e-18
2.54029e-18
8.77637e-19
2.88143e-19
9.0813e-20
2.76401e-20
8.14445e-21
2.31899e-21
6.32351e-22
1.61402e-22
3.64888e-23
6.26177e-24
3.41064e-25
-1.18598e-15
-3.80395e-15
-8.61154e-15
-1.91231e-14
-4.2114e-14
-9.17344e-14
-1.97046e-13
-4.1628e-13
-8.63723e-13
-1.76287e-12
-3.56266e-12
-7.20917e-12
-1.47746e-11
-3.08575e-11
-6.55121e-11
-1.39821e-10
-2.94437e-10
-5.9506e-10
-1.10935e-09
-1.9041e-09
-2.89716e-09
-3.93141e-09
-5.22304e-09
-8.9831e-09
-2.18544e-08
-6.05361e-08
-1.63052e-07
-4.20525e-07
-1.01044e-06
-2.34034e-06
-5.19338e-06
-1.10533e-05
-2.28483e-05
-4.58659e-05
-8.96722e-05
-0.000171007
-0.000318724
-0.000584083
-0.00105797
-0.00190096
-0.00340694
-0.00605172
-0.010605
-0.0185598
-0.0321417
-0.0551183
-0.0929057
-0.155346
-0.257019
-0.418553
-0.655725
-0.292178
0.949047
1.01523
0.663172
0.27591
0.0144158
-0.120815
-0.165214
-0.157148
-0.127798
-0.0929327
-0.0596065
-0.0365143
-0.0207232
-0.00993854
-0.00399496
-0.00131111
-0.000357766
-8.34417e-05
-1.72539e-05
-2.83086e-06
-3.97034e-07
-4.84955e-08
-5.48802e-09
-5.91415e-10
-6.13773e-11
-6.58762e-12
-7.81474e-13
-1.07897e-13
-1.74518e-14
-3.07855e-15
-4.59154e-16
1.09193e-17
5.74814e-17
3.6208e-17
1.69273e-17
6.8471e-18
2.52571e-18
8.7229e-19
2.86319e-19
9.02248e-20
2.74585e-20
8.0905e-21
2.30355e-21
6.28127e-22
1.60321e-22
3.62439e-23
6.21968e-24
3.38768e-25
-1.18468e-15
-3.79981e-15
-8.60222e-15
-1.91025e-14
-4.20688e-14
-9.1636e-14
-1.96834e-13
-4.15833e-13
-8.62799e-13
-1.76098e-12
-3.55883e-12
-7.20135e-12
-1.47584e-11
-3.08228e-11
-6.5437e-11
-1.39671e-10
-2.94156e-10
-5.94598e-10
-1.10874e-09
-1.90349e-09
-2.89753e-09
-3.93381e-09
-5.22814e-09
-8.99164e-09
-2.18725e-08
-6.05923e-08
-1.63236e-07
-4.21101e-07
-1.01202e-06
-2.34456e-06
-5.20393e-06
-1.1078e-05
-2.29036e-05
-4.59857e-05
-8.99216e-05
-0.00017151
-0.000319706
-0.000585956
-0.00106147
-0.00190739
-0.00341862
-0.00607252
-0.0106412
-0.0186227
-0.0322491
-0.0552991
-0.0932038
-0.155835
-0.257817
-0.419837
-0.657569
-0.277258
0.952273
1.01394
0.660403
0.273668
0.0128428
-0.121689
-0.165537
-0.157133
-0.127633
-0.0927012
-0.0594038
-0.0363754
-0.0206275
-0.00987735
-0.00396518
-0.00129953
-0.000354064
-8.25587e-05
-1.70577e-05
-2.79465e-06
-3.91628e-07
-4.77933e-08
-5.40784e-09
-5.82537e-10
-6.04567e-11
-6.49161e-12
-7.70713e-13
-1.06524e-13
-1.7245e-14
-3.04183e-15
-4.51986e-16
1.22129e-17
5.76001e-17
3.6151e-17
1.68797e-17
6.82375e-18
2.51622e-18
8.68828e-19
2.85141e-19
8.98439e-20
2.73404e-20
8.05519e-21
2.2934e-21
6.25336e-22
1.59605e-22
3.60812e-23
6.19167e-24
3.3724e-25
-1.18403e-15
-3.79773e-15
-8.59752e-15
-1.90921e-14
-4.20461e-14
-9.15873e-14
-1.96732e-13
-4.15622e-13
-8.62367e-13
-1.7601e-12
-3.55703e-12
-7.19765e-12
-1.47506e-11
-3.08063e-11
-6.54013e-11
-1.396e-10
-2.94023e-10
-5.9438e-10
-1.10845e-09
-1.90321e-09
-2.89776e-09
-3.93506e-09
-5.23078e-09
-8.99613e-09
-2.18822e-08
-6.06223e-08
-1.63333e-07
-4.21401e-07
-1.01285e-06
-2.34673e-06
-5.2093e-06
-1.10905e-05
-2.29334e-05
-4.60453e-05
-9.00449e-05
-0.000171757
-0.000320184
-0.000586858
-0.00106313
-0.00191037
-0.00342387
-0.00608147
-0.0106559
-0.0186458
-0.0322829
-0.0553425
-0.0932441
-0.155829
-0.257645
-0.419213
-0.656103
-0.253476
0.956603
1.0137
0.657521
0.276275
0.0141064
-0.121036
-0.165108
-0.156807
-0.127398
-0.0925245
-0.0592776
-0.0362953
-0.0205752
-0.00984502
-0.00394958
-0.00129352
-0.000352166
-8.21039e-05
-1.69572e-05
-2.77625e-06
-3.88895e-07
-4.74402e-08
-5.36769e-09
-5.78105e-10
-5.99946e-11
-6.44323e-12
-7.65279e-13
-1.05829e-13
-1.714e-14
-3.02312e-15
-4.48344e-16
1.28519e-17
5.7646e-17
3.61142e-17
1.68522e-17
6.81061e-18
2.51096e-18
8.66936e-19
2.84506e-19
8.96415e-20
2.72785e-20
8.03696e-21
2.28821e-21
6.23921e-22
1.59244e-22
3.59995e-23
6.17762e-24
3.36474e-25
-1.18402e-15
-3.7977e-15
-8.59743e-15
-1.90919e-14
-4.20457e-14
-9.15863e-14
-1.9673e-13
-4.15619e-13
-8.62362e-13
-1.7601e-12
-3.55702e-12
-7.19764e-12
-1.47506e-11
-3.08063e-11
-6.54015e-11
-1.396e-10
-2.94025e-10
-5.94384e-10
-1.10846e-09
-1.90323e-09
-2.89779e-09
-3.93511e-09
-5.23086e-09
-8.99623e-09
-2.18824e-08
-6.06227e-08
-1.63334e-07
-4.21404e-07
-1.01285e-06
-2.34671e-06
-5.20923e-06
-1.10903e-05
-2.29325e-05
-4.60456e-05
-9.00462e-05
-0.000171761
-0.000320196
-0.000586891
-0.00106322
-0.0019106
-0.00342444
-0.00608287
-0.0106592
-0.0186537
-0.0323014
-0.0553857
-0.0933434
-0.156056
-0.258161
-0.420357
-0.658277
-0.274961
0.9527
1.01391
0.660368
0.273504
0.0127573
-0.121569
-0.165279
-0.156842
-0.127385
-0.0924963
-0.0592563
-0.0362839
-0.0205695
-0.00984234
-0.00394848
-0.00129315
-0.000352064
-8.20785e-05
-1.69519e-05
-2.77533e-06
-3.88762e-07
-4.74233e-08
-5.36577e-09
-5.77895e-10
-5.99731e-11
-6.44105e-12
-7.65049e-13
-1.05803e-13
-1.71368e-14
-3.02274e-15
-4.48328e-16
1.28335e-17
5.76329e-17
3.61077e-17
1.68495e-17
6.8096e-18
2.51062e-18
8.66828e-19
2.84473e-19
8.96324e-20
2.72761e-20
8.03634e-21
2.28806e-21
6.23886e-22
1.59236e-22
3.59979e-23
6.17738e-24
3.36461e-25
-1.18465e-15
-3.79971e-15
-8.60194e-15
-1.91018e-14
-4.20671e-14
-9.16323e-14
-1.96827e-13
-4.1582e-13
-8.62776e-13
-1.76095e-12
-3.55877e-12
-7.20128e-12
-1.47583e-11
-3.08229e-11
-6.54372e-11
-1.39672e-10
-2.9416e-10
-5.94607e-10
-1.10876e-09
-1.90353e-09
-2.89762e-09
-3.93396e-09
-5.22836e-09
-8.99197e-09
-2.18732e-08
-6.05944e-08
-1.63241e-07
-4.21115e-07
-1.01207e-06
-2.34461e-06
-5.20403e-06
-1.10783e-05
-2.2905e-05
-4.59875e-05
-8.9926e-05
-0.000171521
-0.00031973
-0.000586012
-0.0010616
-0.00190765
-0.00341917
-0.00607369
-0.0106434
-0.0186267
-0.0322558
-0.0553095
-0.0932171
-0.155844
-0.257795
-0.419703
-0.657145
-0.281626
0.951585
1.01508
0.662102
0.274766
0.0134898
-0.121234
-0.165194
-0.156886
-0.127476
-0.0926063
-0.0593493
-0.0363471
-0.0206132
-0.00987047
-0.00396231
-0.00129856
-0.000353801
-8.2493e-05
-1.7044e-05
-2.79227e-06
-3.91283e-07
-4.77511e-08
-5.40314e-09
-5.82018e-10
-6.04008e-11
-6.48569e-12
-7.70067e-13
-1.06448e-13
-1.72348e-14
-3.04037e-15
-4.51815e-16
1.2194e-17
5.75708e-17
3.61342e-17
1.68724e-17
6.82093e-18
2.51524e-18
8.68519e-19
2.8505e-19
8.98185e-20
2.73337e-20
8.05351e-21
2.29299e-21
6.2524e-22
1.59583e-22
3.6077e-23
6.191e-24
3.37205e-25
-1.18597e-15
-3.80391e-15
-8.61137e-15
-1.91225e-14
-4.21123e-14
-9.17292e-14
-1.97031e-13
-4.16245e-13
-8.6365e-13
-1.76273e-12
-3.56245e-12
-7.20894e-12
-1.47746e-11
-3.08579e-11
-6.55134e-11
-1.39825e-10
-2.94447e-10
-5.95083e-10
-1.10939e-09
-1.90418e-09
-2.89728e-09
-3.93155e-09
-5.22317e-09
-8.98321e-09
-2.18545e-08
-6.05363e-08
-1.63051e-07
-4.2052e-07
-1.01042e-06
-2.34027e-06
-5.19319e-06
-1.10528e-05
-2.28475e-05
-4.58622e-05
-8.9664e-05
-0.00017099
-0.00031869
-0.00058402
-0.00105786
-0.00190077
-0.00340662
-0.00605127
-0.0106041
-0.018558
-0.0321378
-0.0551095
-0.0928856
-0.155302
-0.256928
-0.418367
-0.655404
-0.295328
0.948682
1.0162
0.664392
0.276691
0.0146917
-0.120685
-0.165092
-0.15702
-0.127686
-0.0928437
-0.0595469
-0.0364803
-0.0207051
-0.0099297
-0.00399133
-0.00130985
-0.000357403
-8.3353e-05
-1.72348e-05
-2.82755e-06
-3.96586e-07
-4.844e-08
-5.48149e-09
-5.90684e-10
-6.13019e-11
-6.57988e-12
-7.80658e-13
-1.07807e-13
-1.74409e-14
-3.0772e-15
-4.59048e-16
1.08838e-17
5.74518e-17
3.61938e-17
1.69216e-17
6.84513e-18
2.52507e-18
8.72099e-19
2.86264e-19
9.02089e-20
2.7454e-20
8.08922e-21
2.30321e-21
6.28036e-22
1.60299e-22
3.62391e-23
6.21887e-24
3.38725e-25
-1.18801e-15
-3.81043e-15
-8.62606e-15
-1.91548e-14
-4.21827e-14
-9.18803e-14
-1.97351e-13
-4.16909e-13
-8.65012e-13
-1.76552e-12
-3.56817e-12
-7.22081e-12
-1.47996e-11
-3.09117e-11
-6.563e-11
-1.4006e-10
-2.94897e-10
-5.95837e-10
-1.11042e-09
-1.90525e-09
-2.89684e-09
-3.92797e-09
-5.21544e-09
-8.97024e-09
-2.18269e-08
-6.04498e-08
-1.62764e-07
-4.19614e-07
-1.00787e-06
-2.33353e-06
-5.1763e-06
-1.10129e-05
-2.27584e-05
-4.56678e-05
-8.92548e-05
-0.000170157
-0.000317049
-0.000580856
-0.00105188
-0.00188965
-0.00338613
-0.00601414
-0.0105384
-0.0184419
-0.0319358
-0.054763
-0.092307
-0.154357
-0.255426
-0.416116
-0.652644
-0.313552
0.944244
1.01758
0.667499
0.279335
0.0164852
-0.119822
-0.16491
-0.157214
-0.12801
-0.0932175
-0.0598602
-0.0366898
-0.020848
-0.0100209
-0.00403269
-0.00132728
-0.000363037
-8.47085e-05
-1.75377e-05
-2.88389e-06
-4.04957e-07
-4.952e-08
-5.60452e-09
-6.0425e-10
-6.27084e-11
-6.7266e-12
-7.97137e-13
-1.09918e-13
-1.77603e-14
-3.13412e-15
-4.70216e-16
8.85098e-18
5.7259e-17
3.62806e-17
1.69953e-17
6.8815e-18
2.53987e-18
8.77496e-19
2.88095e-19
9.07979e-20
2.76355e-20
8.1431e-21
2.31861e-21
6.3225e-22
1.61377e-22
3.64832e-23
6.26084e-24
3.41014e-25
-1.19086e-15
-3.81953e-15
-8.64652e-15
-1.91999e-14
-4.2281e-14
-9.20917e-14
-1.97798e-13
-4.17839e-13
-8.66925e-13
-1.76943e-12
-3.57619e-12
-7.23746e-12
-1.48348e-11
-3.09873e-11
-6.57941e-11
-1.40393e-10
-2.95537e-10
-5.96925e-10
-1.11193e-09
-1.9069e-09
-2.89642e-09
-3.92317e-09
-5.20505e-09
-8.95347e-09
-2.17922e-08
-6.03402e-08
-1.62393e-07
-4.18435e-07
-1.00452e-06
-2.32466e-06
-5.15398e-06
-1.09605e-05
-2.26391e-05
-4.54043e-05
-8.86963e-05
-0.000169017
-0.000314797
-0.000576503
-0.00104363