/*--------------------------------*- C++ -*----------------------------------*\
  =========                 |
  \\      /  F ield         | OpenFOAM: The Open Source CFD Toolbox
   \\    /   O peration     | Website:  https://openfoam.org
    \\  /    A nd           | Version:  10
     \\/     M anipulation  |
\*---------------------------------------------------------------------------*/
FoamFile
{
    format      ascii;
    class       volScalarField;
    location    "1";
    object      T;
}
// * * * * * * * * * * * * * * * * * * * * * * * * * * * * * * * * * * * * * //

dimensions      [0 0 0 1 0 0 0];

internalField   nonuniform List<scalar> 
4000
(
293.037
293.139
293.291
293.519
293.862
294.373
295.129
296.234
297.826
300.079
303.206
307.463
313.163
320.67
330.383
342.64
357.894
376.462
397.656
423.069
451.115
482.555
518.078
555.732
596.108
638.943
684.169
731.756
780.562
831.296
883.248
936.091
989.88
1044.36
1099.36
1154.86
1210.56
1266.43
1322.34
1378.17
1434.49
1490.52
1545.6
1599.74
1653.87
1706.88
1757.9
1806.48
1852.13
1893.3
1927.31
1949.06
1948.77
1924.15
1880.68
1821.7
1750.13
1669.28
1581.52
1488.92
1392.8
1295.43
1197.63
1100.53
1005.21
911.31
821.732
736.623
653.695
577.895
513.021
455.246
408.262
371.812
344.808
325.915
313.278
305.172
300.147
297.119
295.338
294.308
293.723
293.395
293.214
293.115
293.061
293.032
293.017
293.009
293.005
293.002
293.001
293.001
293
293
293
293
293
293
293.036
293.139
293.289
293.517
293.858
294.367
295.12
296.22
297.804
300.045
303.152
307.378
313.028
320.464
330.086
342.23
357.305
375.628
396.587
421.856
449.699
480.758
515.931
553.472
593.692
636.461
681.595
729.396
778.272
829.118
881.192
933.972
987.819
1042.56
1097.77
1153.46
1209.35
1265.41
1321.51
1377.55
1434.04
1490.26
1545.53
1599.86
1654.16
1707.34
1758.45
1807.13
1852.82
1893.96
1927.8
1949.12
1947.85
1922.45
1878.3
1818.76
1745.97
1664.6
1576.31
1483.24
1385.84
1288.17
1190.25
1093.05
997.518
904.356
814.869
729.799
647.17
572.054
508.198
451.816
405.928
370.222
343.97
325.508
313.113
305.124
300.149
297.136
295.356
294.323
293.734
293.403
293.219
293.118
293.063
293.033
293.018
293.009
293.005
293.002
293.001
293.001
293
293
293
293
293
293
293.036
293.138
293.288
293.515
293.855
294.363
295.113
296.209
297.786
300.015
303.1
307.287
312.881
320.24
329.757
341.768
356.709
374.802
395.485
420.445
447.989
478.885
513.487
551.481
591.4
633.956
678.916
726.631
775.411
826.247
878.304
931.158
985.196
1040.05
1095.55
1151.51
1207.69
1264.03
1320.43
1376.72
1433.48
1489.98
1545.51
1600.13
1654.7
1708.13
1759.42
1808.26
1854
1895.07
1928.61
1949.25
1946.37
1919.66
1874.3
1813.75
1740
1657.87
1569.02
1475.62
1376.49
1278.78
1180.74
1083.38
987.921
895.41
806.071
721.451
639.601
565.606
503.073
448.038
403.474
368.752
343.071
325.01
312.86
305.01
300.106
297.123
295.357
294.329
293.739
293.407
293.222
293.12
293.064
293.034
293.018
293.009
293.005
293.003
293.001
293.001
293
293
293
293
293
293
293.036
293.137
293.286
293.512
293.85
294.354
295.098
296.185
297.749
299.959
303.016
307.165
312.704
319.986
329.399
341.277
356.048
374.006
394.543
419.198
446.464
477.053
511.349
549.252
589.139
631.611
676.348
723.972
772.664
823.532
875.581
928.441
982.581
1037.61
1093.35
1149.56
1206.02
1262.67
1319.33
1375.96
1433.04
1489.85
1545.68
1600.61
1655.5
1709.22
1760.68
1809.7
1855.54
1896.51
1929.65
1949.4
1944.64
1916.33
1869.48
1807.41
1732.47
1649.28
1559.57
1465.45
1365.65
1267.65
1169.65
1072.81
977.601
885.158
796.481
712.545
631.65
558.812
497.651
443.809
399.958
366.133
341.291
323.899
312.216
304.665
299.938
297.056
295.331
294.319
293.736
293.406
293.222
293.12
293.064
293.034
293.018
293.009
293.005
293.003
293.001
293.001
293
293
293
293
293
293
293.036
293.136
293.285
293.508
293.844
294.345
295.084
296.164
297.717
299.91
302.943
307.057
312.548
319.765
329.092
340.864
355.503
373.302
393.647
418.103
445.206
475.61
509.599
547.401
587.082
629.269
673.908
721.469
770.142
820.959
873.129
926.108
980.344
1035.46
1091.41
1147.85
1204.58
1261.48
1318.46
1375.39
1432.78
1489.91
1546.03
1601.28
1656.49
1710.5
1762.1
1811.28
1857.19
1898.07
1930.81
1949.53
1942.77
1912.83
1864.51
1801.18
1725.31
1641.22
1550.83
1456.21
1356.22
1257.96
1159.65
1062.6
967.669
875.724
787.69
704.355
624.15
552.335
492.449
439.496
396.906
364.095
340.01
323.137
311.782
304.425
299.807
296.982
295.294
294.303
293.73
293.404
293.221
293.12
293.064
293.034
293.018
293.009
293.005
293.003
293.001
293.001
293
293
293
293
293
293
293.036
293.136
293.283
293.505
293.839
294.336
295.07
296.142
297.683
299.86
302.869
306.95
312.396
319.554
328.807
340.491
355.029
372.718
392.952
417.233
444.194
474.448
508.124
545.769
585.209
627.331
671.855
719.353
767.916
818.789
871.058
924.116
978.452
1033.68
1089.8
1146.45
1203.4
1260.57
1317.83
1375.06
1432.74
1490.17
1546.56
1602.09
1657.58
1711.86
1763.61
1812.96
1858.95
1899.71
1932
1949.64
1940.96
1909.37
1859.51
1794.59
1717.67
1632.59
1541.46
1446.46
1346.79
1248.54
1150.64
1053.79
959.291
867.858
780.609
695.932
617.131
546.633
487.449
435.713
394.2
362.255
338.813
322.393
311.336
304.168
299.663
296.904
295.25
294.279
293.717
293.398
293.218
293.118
293.064
293.034
293.018
293.009
293.005
293.003
293.001
293.001
293
293
293
293
293
293
293.035
293.135
293.281
293.502
293.833
294.327
295.056
296.121
297.652
299.813
302.801
306.851
312.257
319.363
328.551
340.157
354.603
372.19
392.31
416.409
443.231
473.401
506.818
544.276
583.648
625.709
670.168
717.66
766.181
817.09
869.433
922.535
976.95
1032.28
1088.55
1145.4
1202.56
1259.96
1317.47
1374.95
1432.89
1490.59
1547.21
1603
1658.74
1713.23
1765.03
1814.4
1860.8
1901.31
1933.12
1949.78
1939.25
1906.16
1854.98
1788.37
1710.84
1625.03
1533.29
1437.58
1339.49
1240.84
1142.51
1045.94
951.931
861.006
774.279
690.052
611.913
542.108
483.82
432.864
392.081
360.744
337.792
321.739
310.935
303.93
299.527
296.829
295.21
294.257
293.706
293.392
293.215
293.117
293.063
293.034
293.018
293.009
293.005
293.003
293.001
293.001
293
293
293
293
293
293
293.035
293.134
293.279
293.499
293.828
294.319
295.044
296.101
297.623
299.77
302.738
306.762
312.131
319.191
328.321
339.86
354.228
371.727
391.752
415.679
442.419
472.45
505.732
543.147
582.456
624.403
668.779
716.214
764.764
815.749
868.142
921.294
975.777
1031.21
1087.61
1144.61
1201.96
1259.57
1317.29
1374.99
1433.16
1491.06
1547.87
1603.88
1659.83
1714.52
1766.48
1815.97
1862.27
1902.63
1933.98
1949.92
1937.75
1903.38
1851.2
1782.84
1704.81
1618.39
1526.09
1430.08
1332.02
1233.26
1135.18
1038.7
944.834
854.443
768.23
683.983
606.833
537.975
480.559
430.349
390.136
359.322
336.816
321.106
310.542
303.696
299.392
296.752
295.168
294.234
293.694
293.385
293.212
293.115
293.062
293.033
293.018
293.009
293.005
293.003
293.001
293.001
293
293
293
293
293
293
293.035
293.133
293.278
293.496
293.823
294.311
295.032
296.084
297.597
299.731
302.682
306.682
312.021
319.041
328.122
339.603
353.906
371.338
391.305
415.096
441.727
471.697
504.866
542.171
581.388
623.312
667.673
715.12
763.684
814.688
867.104
920.303
974.867
1030.4
1086.91
1144.06
1201.59
1259.37
1317.28
1375.18
1433.55
1491.67
1548.65
1604.85
1660.99
1715.83
1767.9
1817.46
1863.61
1903.85
1934.81
1949.81
1936.31
1900.78
1847.47
1778.33
1699.45
1612.39
1519.73
1423.5
1325.41
1226.78
1128.71
1032.18
938.196
847.881
762.109
678.398
601.773
533.456
476.797
427.481
388.052
357.885
335.866
320.505
310.174
303.478
299.266
296.681
295.128
294.213
293.682
293.379
293.208
293.113
293.061
293.033
293.017
293.009
293.005
293.002
293.001
293.001
293
293
293
293
293
293
293.035
293.132
293.276
293.493
293.819
294.305
295.022
296.068
297.573
299.698
302.633
306.613
311.925
318.911
327.949
339.379
353.622
370.987
390.876
414.532
441.102
470.982
504.093
541.399
580.582
622.457
666.785
714.253
762.819
813.824
866.305
919.564
974.191
1029.79
1086.41
1143.7
1201.37
1259.31
1317.37
1375.44
1433.99
1492.28
1549.41
1605.78
1662.08
1717.07
1769.26
1818.88
1864.84
1904.92
1935.52
1949.57
1934.93
1898.47
1844.43
1774.32
1694.98
1607.57
1514.62
1418.16
1319.83
1221.16
1123.35
1027.42
931.773
842.276
757.032
673.829
597.75
530.213
474.045
425.274
386.406
356.724
335.083
320.001
309.861
303.289
299.154
296.617
295.092
294.193
293.671
293.373
293.205
293.112
293.06
293.032
293.017
293.009
293.005
293.002
293.001
293.001
293
293
293
293
293
293
293.035
293.132
293.275
293.491
293.816
294.299
295.013
296.055
297.553
299.669
302.592
306.555
311.845
318.803
327.805
339.197
353.399
370.723
390.561
414.11
440.623
470.436
503.494
540.744
579.907
621.766
666.089
713.558
762.13
813.159
865.687
918.993
973.672
1029.36
1086.08
1143.47
1201.26
1259.32
1317.51
1375.71
1434.4
1492.83
1550.09
1606.66
1663.11
1718.23
1770.48
1820.12
1865.95
1905.86
1936.08
1949.3
1933.64
1896.32
1841.5
1770.86
1691
1603.15
1509.9
1413.26
1314.91
1216.23
1118.38
1022.45
927.023
837.603
752.689
669.766
594.162
527.392
471.803
423.482
385.059
355.765
334.43
319.576
309.593
303.126
299.057
296.561
295.06
294.175
293.661
293.368
293.202
293.11
293.059
293.032
293.017
293.009
293.005
293.002
293.001
293.001
293
293
293
293
293
293
293.034
293.131
293.274
293.489
293.812
294.294
295.005
296.043
297.537
299.644
302.557
306.506
311.778
318.714
327.686
339.048
353.215
370.493
390.281
413.752
440.204
469.984
503.014
540.243
579.378
621.221
665.535
713.017
761.606
812.654
865.221
918.575
973.312
1029.06
1085.86
1143.34
1201.22
1259.38
1317.67
1375.95
1434.72
1493.19
1550.43
1607.78
1664.22
1719.35
1771.6
1821.22
1866.97
1906.73
1936.6
1949.04
1932.57
1894.55
1839.11
1767.9
1687.59
1599.4
1505.87
1409.05
1310.61
1211.85
1114.04
1018.18
923.138
833.868
749.16
666.506
591.256
525.248
470.073
422.162
384.005
354.986
333.887
319.216
309.364
302.985
298.972
296.512
295.032
294.159
293.653
293.363
293.2
293.109
293.059
293.031
293.017
293.009
293.005
293.002
293.001
293.001
293
293
293
293
293
293
293.034
293.131
293.273
293.488
293.81
294.29
294.999
296.034
297.522
299.623
302.528
306.466
311.723
318.641
327.591
338.93
353.066
370.311
390.066
413.469
439.884
469.634
502.625
539.825
578.929
620.754
665.068
712.564
761.179
812.254
864.865
918.266
973.056
1028.87
1085.73
1143.29
1201.25
1259.49
1317.86
1376.23
1435.09
1493.65
1550.99
1608.48
1665.01
1720.2
1772.48
1822.1
1867.77
1907.34
1936.8
1948.72
1931.54
1892.94
1836.97
1765.28
1684.61
1596.18
1502.46
1405.52
1306.98
1208.24
1110.43
1014.62
919.919
830.77
746.165
663.738
588.755
523.371
468.439
420.851
383.037
354.296
333.413
318.905
309.166
302.863
298.899
296.469
295.007
294.145
293.645
293.359
293.197
293.108
293.058
293.031
293.016
293.009
293.005
293.002
293.001
293.001
293
293
293
293
293
293
293.034
293.131
293.272
293.486
293.808
294.286
294.993
296.026
297.51
299.606
302.503
306.431
311.675
318.578
327.506
338.818
352.927
370.146
389.879
413.23
439.626
469.347
502.316
539.499
578.594
620.409
664.725
712.233
760.864
811.955
864.601
918.04
972.874
1028.74
1085.66
1143.28
1201.31
1259.62
1318.07
1376.51
1435.44
1494.09
1551.52
1609.1
1665.7
1720.95
1773.26
1822.86
1868.47
1907.89
1937.07
1948.31
1930.6
1891.54
1835.18
1763.19
1682.26
1593.6
1499.73
1402.65
1304.04
1205.25
1107.43
1011.66
917.244
828.192
743.751
661.517
586.773
521.886
467.182
419.841
382.264
353.732
333.021
318.645
308.999
302.759
298.837
296.432
294.986
294.133
293.638
293.355
293.195
293.107
293.057
293.031
293.016
293.009
293.004
293.002
293.001
293.001
293
293
293
293
293
293
293.034
293.13
293.272
293.485
293.806
294.284
294.989
296.019
297.5
299.592
302.482
306.402
311.636
318.524
327.434
338.73
352.822
370.023
389.735
413.041
439.408
469.109
502.058
539.233
578.321
620.139
664.461
711.983
760.628
811.737
864.411
917.883
972.754
1028.66
1085.63
1143.31
1201.39
1259.75
1318.26
1376.76
1435.77
1494.47
1551.96
1609.6
1666.25
1721.54
1773.87
1823.47
1869.05
1908.36
1937.31
1947.97
1929.84
1890.4
1833.7
1761.41
1680.22
1591.39
1497.39
1400.24
1301.57
1202.73
1104.94
1009.22
915.055
826.098
741.793
659.698
585.159
520.674
466.173
419.018
381.628
353.266
332.696
318.429
308.86
302.672
298.784
296.401
294.968
294.123
293.632
293.352
293.194
293.106
293.057
293.03
293.016
293.009
293.004
293.002
293.001
293.001
293
293
293
293
293
293
293.034
293.13
293.271
293.484
293.804
294.281
294.985
296.014
297.493
299.58
302.466
306.38
311.605
318.484
327.381
338.663
352.739
369.922
389.615
412.887
439.243
468.93
501.869
539.034
578.117
619.938
664.263
711.795
760.453
811.576
864.276
917.774
972.675
1028.62
1085.63
1143.35
1201.47
1259.89
1318.44
1376.99
1436.05
1494.8
1552.34
1610.02
1666.72
1722.03
1774.38
1823.99
1869.54
1908.78
1937.55
1947.77
1929.28
1889.51
1832.51
1759.98
1678.58
1589.58
1495.46
1398.23
1299.52
1200.68
1102.9
1007.23
913.267
824.377
740.164
658.201
583.807
519.67
465.319
418.33
381.1
352.88
332.428
318.251
308.745
302.601
298.741
296.375
294.953
294.114
293.628
293.349
293.192
293.105
293.057
293.03
293.016
293.008
293.004
293.002
293.001
293.001
293
293
293
293
293
293
293.034
293.13
293.271
293.484
293.803
294.28
294.983
296.01
297.487
299.572
302.454
306.363
311.583
318.455
327.341
338.612
352.674
369.843
389.524
412.768
439.109
468.785
501.716
538.879
577.96
619.78
664.109
711.652
760.322
811.459
864.179
917.7
972.627
1028.6
1085.64
1143.39
1201.55
1260
1318.59
1377.18
1436.28
1495.07
1552.63
1610.35
1667.08
1722.42
1774.78
1824.38
1869.9
1909.05
1937.63
1947.51
1928.74
1888.73
1831.52
1758.91
1677.36
1588.23
1494.01
1396.71
1297.96
1199.11
1101.34
1005.68
911.888
823.044
738.898
657.025
582.74
518.875
464.646
417.796
380.693
352.582
332.22
318.112
308.656
302.545
298.707
296.355
294.941
294.108
293.624
293.347
293.191
293.104
293.056
293.03
293.016
293.008
293.004
293.002
293.001
293.001
293
293
293
293
293
293
293.034
293.13
293.271
293.483
293.803
294.278
294.981
296.007
297.483
299.566
302.446
306.351
311.566
318.432
327.31
338.574
352.628
369.789
389.46
412.685
439.018
468.686
501.611
538.771
577.851
619.672
664.005
711.555
760.235
811.381
864.116
917.654
972.598
1028.59
1085.66
1143.43
1201.62
1260.09
1318.71
1377.33
1436.45
1495.26
1552.85
1610.6
1667.35
1722.71
1775.09
1824.69
1870.19
1909.29
1937.76
1947.35
1928.32
1888.01
1830.38
1758.63
1676.68
1587.33
1492.99
1395.61
1296.82
1197.95
1100.18
1004.54
910.864
822.063
737.967
656.161
581.964
518.295
464.156
417.4
380.387
352.359
332.064
318.009
308.589
302.504
298.682
296.341
294.933
294.103
293.621
293.346
293.19
293.104
293.056
293.03
293.016
293.008
293.004
293.002
293.001
293.001
293
293
293
293
293
293
293.034
293.13
293.27
293.483
293.802
294.277
294.98
296.005
297.48
299.562
302.44
306.343
311.555
318.417
327.29
338.549
352.598
369.753
389.42
412.633
438.96
468.624
501.545
538.703
577.783
619.605
663.94
711.496
760.181
811.334
864.079
917.627
972.583
1028.59
1085.67
1143.46
1201.66
1260.15
1318.79
1377.42
1436.56
1495.39
1553
1610.76
1667.53
1722.9
1775.29
1824.89
1870.37
1909.43
1937.79
1947.21
1928.05
1887.63
1829.9
1758.14
1676.13
1586.71
1492.3
1394.88
1296.05
1197.18
1099.41
1003.78
910.188
821.41
737.348
655.585
581.445
517.909
463.827
417.136
380.184
352.209
331.959
317.939
308.545
302.476
298.665
296.331
294.927
294.099
293.619
293.345
293.19
293.103
293.056
293.03
293.016
293.008
293.004
293.002
293.001
293.001
293
293
293
293
293
293
293.034
293.13
293.27
293.483
293.802
294.277
294.979
296.004
297.478
299.56
302.437
306.339
311.55
318.41
327.28
338.536
352.583
369.735
389.4
412.607
438.932
468.593
501.513
538.67
577.75
619.572
663.909
711.467
760.155
811.312
864.061
917.615
972.577
1028.59
1085.68
1143.47
1201.68
1260.18
1318.82
1377.46
1436.61
1495.45
1553.07
1610.84
1667.62
1723
1775.38
1824.97
1870.44
1909.46
1937.75
1947.09
1927.9
1887.48
1829.83
1757.63
1675.72
1586.31
1491.89
1394.47
1295.64
1196.77
1099.01
1003.39
909.844
821.081
737.037
655.298
581.188
517.716
463.665
417.005
380.084
352.135
331.906
317.902
308.52
302.461
298.656
296.325
294.924
294.098
293.618
293.344
293.189
293.103
293.056
293.03
293.016
293.008
293.004
293.002
293.001
293.001
293
293
293
293
293
293
293.034
293.13
293.27
293.483
293.802
294.277
294.979
296.004
297.478
299.56
302.437
306.339
311.549
318.409
327.28
338.536
352.583
369.735
389.399
412.607
438.932
468.593
501.513
538.67
577.75
619.572
663.909
711.467
760.155
811.313
864.062
917.616
972.578
1028.59
1085.68
1143.47
1201.68
1260.18
1318.82
1377.46
1436.61
1495.45
1553.07
1610.84
1667.62
1723.01
1775.4
1824.99
1870.47
1909.5
1937.8
1947.32
1928.11
1887.74
1830.19
1757.25
1675.46
1586.14
1491.78
1394.39
1295.59
1196.73
1098.98
1003.37
909.831
821.071
737.03
655.293
581.184
517.712
463.661
417.002
380.081
352.133
331.904
317.9
308.519
302.46
298.655
296.325
294.924
294.097
293.618
293.344
293.189
293.103
293.056
293.03
293.016
293.008
293.004
293.002
293.001
293.001
293
293
293
293
293
293
293.034
293.13
293.27
293.483
293.802
294.277
294.98
296.005
297.48
299.562
302.44
306.342
311.555
318.416
327.289
338.548
352.597
369.752
389.419
412.632
438.959
468.623
501.544
538.703
577.783
619.606
663.941
711.497
760.183
811.336
864.08
917.629
972.585
1028.59
1085.67
1143.45
1201.66
1260.15
1318.78
1377.41
1436.55
1495.39
1553
1610.77
1667.54
1722.93
1775.32
1824.93
1870.43
1909.5
1937.87
1947.35
1928.25
1887.95
1830.45
1757.49
1675.72
1586.43
1492.1
1394.73
1295.94
1197.09
1099.34
1003.73
910.155
821.386
737.33
655.572
581.436
517.898
463.818
417.127
380.177
352.203
331.954
317.934
308.541
302.473
298.663
296.329
294.926
294.099
293.619
293.345
293.19
293.103
293.056
293.03
293.016
293.008
293.004
293.002
293.001
293.001
293
293
293
293
293
293
293.034
293.13
293.271
293.483
293.803
294.278
294.981
296.007
297.483
299.566
302.445
306.35
311.566
318.431
327.309
338.573
352.627
369.788
389.46
412.685
439.018
468.686
501.612
538.772
577.853
619.674
664.008
711.559
760.238
811.384
864.119
917.657
972.6
1028.59
1085.66
1143.43
1201.61
1260.08
1318.7
1377.31
1436.44
1495.25
1552.85
1610.6
1667.37
1722.74
1775.13
1824.74
1870.24
1909.34
1937.79
1947.5
1928.5
1888.3
1830.9
1758.02
1676.31
1587.08
1492.79
1395.45
1296.68
1197.84
1100.09
1004.47
910.819
822.029
737.94
656.139
581.945
518.278
464.14
417.389
380.38
352.351
332.057
318.003
308.586
302.502
298.681
296.34
294.932
294.102
293.621
293.346
293.19
293.104
293.056
293.03
293.016
293.008
293.004
293.002
293.001
293.001
293
293
293
293
293
293
293.034
293.13
293.271
293.484
293.803
294.28
294.983
296.01
297.487
299.572
302.454
306.363
311.582
318.453
327.339
338.61
352.674
369.843
389.524
412.768
439.109
468.785
501.717
538.88
577.962
619.782
664.112
711.656
760.326
811.463
864.183
917.704
972.629
1028.6
1085.64
1143.39
1201.55
1259.99
1318.58
1377.17
1436.26
1495.05
1552.62
1610.35
1667.09
1722.44
1774.82
1824.42
1869.94
1909.08
1937.63
1947.63
1928.82
1888.78
1831.53
1758.85
1677.26
1588.1
1493.87
1396.57
1297.84
1199.01
1101.25
1005.61
911.836
823.012
738.877
657.013
582.741
518.874
464.647
417.795
380.684
352.572
332.213
318.108
308.654
302.544
298.706
296.355
294.941
294.108
293.624
293.347
293.191
293.104
293.056
293.03
293.016
293.008
293.004
293.002
293.001
293.001
293
293
293
293
293
293
293.034
293.13
293.271
293.484
293.804
294.281
294.986
296.014
297.493
299.581
302.467
306.38
311.606
318.484
327.38
338.662
352.737
369.919
389.613
412.884
439.241
468.929
501.869
539.035
578.119
619.94
664.265
711.798
760.456
811.58
864.279
917.778
972.678
1028.62
1085.63
1143.34
1201.47
1259.87
1318.43
1376.98
1436.03
1494.78
1552.32
1610.01
1666.72
1722.04
1774.4
1824.01
1869.55
1908.76
1937.47
1947.66
1929.11
1889.23
1831.95
1760.45
1678.74
1589.59
1495.39
1398.12
1299.4
1200.57
1102.81
1007.14
913.199
824.314
740.102
658.143
583.749
519.623
465.274
418.298
381.08
352.868
332.421
318.247
308.743
302.6
298.74
296.375
294.953
294.114
293.628
293.349
293.192
293.105
293.057
293.03
293.016
293.008
293.004
293.002
293.001
293.001
293
293
293
293
293
293
293.034
293.13
293.272
293.485
293.806
294.284
294.989
296.019
297.5
299.592
302.483
306.402
311.636
318.525
327.435
338.73
352.821
370.019
389.727
413.031
439.401
469.104
502.055
539.232
578.321
620.14
664.463
711.986
760.633
811.741
864.415
917.886
972.756
1028.66
1085.63
1143.3
1201.39
1259.75
1318.25
1376.75
1435.76
1494.46
1551.95
1609.59
1666.26
1721.55
1773.89
1823.51
1869.1
1908.44
1937.41
1948.03
1929.85
1890.36
1833.62
1761.36
1680.14
1591.25
1497.21
1400.02
1301.34
1202.52
1104.74
1009.04
914.897
825.959
741.651
659.576
585.05
520.597
466.116
418.973
381.596
353.246
332.685
318.423
308.857
302.671
298.783
296.401
294.968
294.123
293.632
293.352
293.194
293.106
293.057
293.03
293.016
293.009
293.004
293.002
293.001
293.001
293
293
293
293
293
293
293.034
293.131
293.272
293.486
293.808
294.286
294.993
296.026
297.51
299.606
302.503
306.431
311.676
318.578
327.507
338.819
352.928
370.147
389.88
413.226
439.617
469.34
502.311
539.495
578.593
620.409
664.726
712.236
760.866
811.957
864.603
918.043
972.876
1028.74
1085.66
1143.28
1201.31
1259.61
1318.06
1376.5
1435.44
1494.08
1551.51
1609.09
1665.69
1720.94
1773.26
1822.88
1868.53
1908
1937.23
1948.36
1930.63
1891.53
1835.12
1763.08
1682.09
1593.41
1499.54
1402.48
1303.87
1205.08
1107.29
1011.53
917.131
828.087
743.681
661.435
586.701
521.835
467.153
419.811
382.239
353.714
333.011
318.639
308.996
302.758
298.836
296.432
294.986
294.133
293.638
293.355
293.195
293.107
293.057
293.031
293.016
293.009
293.004
293.002
293.001
293.001
293
293
293
293
293
293
293.034
293.131
293.273
293.488
293.81
294.29
294.999
296.034
297.522
299.623
302.528
306.466
311.723
318.641
327.59
338.93
353.066
370.313
390.069
413.475
439.887
469.629
502.619
539.822
578.927
620.753
665.068
712.566
761.179
812.254
864.865
918.266
973.056
1028.87
1085.73
1143.29
1201.25
1259.48
1317.86
1376.22
1435.08
1493.65
1551
1608.5
1665.04
1720.24
1772.53
1822.15
1867.84
1907.44
1936.95
1948.69
1931.49
1892.86
1836.87
1765.27
1684.57
1596.09
1502.36
1405.42
1306.91
1208.15
1110.35
1014.56
919.848
830.686
746.121
663.699
588.733
523.351
468.422
420.833
383.021
354.284
333.406
318.901
309.163
302.861
298.898
296.468
295.007
294.145
293.645
293.359
293.197
293.108
293.058
293.031
293.016
293.009
293.005
293.002
293.001
293.001
293
293
293
293
293
293
293.034
293.131
293.274
293.489
293.812
294.294
295.005
296.043
297.537
299.644
302.557
306.506
311.778
318.714
327.686
339.047
353.215
370.497
390.289
413.76
440.215
469.996
503.025
540.249
579.381
621.22
665.526
713.008
761.597
812.651
865.222
918.578
973.317
1029.07
1085.87
1143.35
1201.23
1259.38
1317.67
1375.95
1434.72
1493.19
1550.44
1607.79
1664.23
1719.35
1771.62
1821.25
1867.01
1906.76
1936.58
1949.15
1932.6
1894.54
1839.08
1767.86
1687.53
1599.34
1505.83
1409.03
1310.58
1211.88
1114.07
1018.21
923.162
833.876
749.121
666.452
591.193
525.19
469.986
422.126
383.992
354.982
333.885
319.216
309.363
302.984
298.972
296.512
295.032
294.159
293.653
293.363
293.2
293.109
293.059
293.031
293.017
293.009
293.005
293.002
293.001
293.001
293
293
293
293
293
293
293.035
293.132
293.275
293.491
293.816
294.299
295.013
296.055
297.554
299.669
302.592
306.555
311.845
318.804
327.806
339.199
353.401
370.723
390.558
414.109
440.625
470.442
503.501
540.751
579.914
621.774
666.104
713.572
762.15
813.169
865.694
919
973.679
1029.37
1086.09
1143.48
1201.27
1259.33
1317.53
1375.73
1434.43
1492.87
1550.14
1606.71
1663.14
1718.22
1770.47
1820.12
1865.98
1905.91
1936.08
1949.43
1933.69
1896.23
1841.11
1771.43
1691.26
1603.3
1509.97
1413.31
1314.98
1216.28
1118.46
1022.57
927.158
837.742
752.692
669.763
594.157
527.404
471.837
423.494
385.064
355.768
334.432
319.577
309.593
303.126
299.057
296.561
295.06
294.175
293.661
293.368
293.202
293.11
293.059
293.032
293.017
293.009
293.005
293.002
293.001
293.001
293
293
293
293
293
293
293.035
293.132
293.276
293.493
293.819
294.305
295.022
296.068
297.573
299.698
302.634
306.614
311.925
318.912
327.95
339.381
353.625
370.989
390.878
414.534
441.101
470.985
504.099
541.407
580.59
622.465
666.793
714.262
762.826
813.834
866.316
919.576
974.204
1029.81
1086.43
1143.72
1201.39
1259.34
1317.42
1375.5
1434.07
1492.38
1549.52
1605.89
1662.13
1717.01
1769.17
1818.82
1864.76
1904.91
1935.54
1949.54
1934.9
1898.43
1844.38
1774.34
1695
1607.57
1514.61
1418.14
1319.9
1221.3
1123.47
1027.51
931.794
842.181
756.949
673.69
597.691
530.199
474.056
425.282
386.413
356.728
335.086
320.003
309.861
303.289
299.154
296.617
295.092
294.193
293.671
293.373
293.205
293.112
293.06
293.032
293.017
293.009
293.005
293.002
293.001
293.001
293
293
293
293
293
293
293.035
293.133
293.278
293.496
293.823
294.311
295.032
296.084
297.597
299.731
302.682
306.682
312.021
319.041
328.123
339.605
353.909
371.341
391.308
415.098
441.721
471.698
504.872
542.181
581.401
623.328
667.695
715.146
763.712
814.714
867.128
920.331
974.892
1030.42
1086.93
1144.09
1201.62
1259.42
1317.34
1375.26
1433.67
1491.81
1548.8
1604.98
1661
1715.7
1767.76
1817.36
1863.57
1903.87
1934.9
1949.72
1936.24
1900.73
1847.52
1778.21
1699.45
1612.45
1519.77
1423.52
1325.3
1226.54
1128.39
1031.91
937.955
847.754
762.052
678.394
601.717
533.413
476.758
427.44
388.036
357.879
335.863
320.504
310.173
303.477
299.265
296.681
295.128
294.213
293.682
293.379
293.208
293.113
293.061
293.033
293.017
293.009
293.005
293.002
293.001
293.001
293
293
293
293
293
293
293.035
293.134
293.279
293.499
293.828
294.319
295.044
296.101
297.623
299.77
302.738
306.762
312.131
319.191
328.322
339.861
354.23
371.732
391.761
415.699
442.443
472.462
505.741
543.155
582.467
624.419
668.803
716.252
764.824
815.795
868.18
921.322
975.805
1031.24
1087.64
1144.64
1202
1259.61
1317.35
1375.07
1433.26
1491.18
1548
1603.98
1659.89
1714.5
1766.43
1815.9
1862.23
1902.61
1933.96
1949.86
1937.63
1903.14
1850.71
1783.62
1705.29
1618.67
1526.26
1430.13
1331.91
1233.13
1135.03
1038.51
944.666
854.303
768.159
683.957
606.837
537.972
480.556
430.357
390.128
359.312
336.808
321.101
310.539
303.694
299.391
296.752
295.167
294.234
293.694
293.385
293.212
293.115
293.062
293.033
293.018
293.009
293.005
293.003
293.001
293.001
293
293
293
293
293
293
293.035
293.135
293.281
293.502
293.833
294.327
295.056
296.121
297.652
299.813
302.801
306.851
312.257
319.363
328.55
340.157
354.604
372.191
392.312
416.412
443.249
473.381
506.811
544.277
583.655
625.718
670.181
717.675
766.201
817.144
869.476
922.57
976.98
1032.31
1088.58
1145.43
1202.59
1259.99
1317.5
1374.99
1432.94
1490.63
1547.25
1603.02
1658.71
1713.16
1764.95
1814.34
1860.78
1901.3
1933.04
1949.85
1939.24
1906.06
1854.76
1788.6
1711.03
1625.02
1533.09
1437.31
1339.23
1240.62
1142.33
1045.78
951.799
860.904
774.215
690.029
611.893
542.085
483.797
432.844
392.064
360.728
337.78
321.731
310.93
303.928
299.526
296.828
295.209
294.257
293.706
293.392
293.215
293.117
293.063
293.034
293.018
293.009
293.005
293.003
293.001
293.001
293
293
293
293
293
293
293.036
293.136
293.283
293.505
293.839
294.336
295.07
296.142
297.683
299.86
302.869
306.95
312.395
319.554
328.807
340.491
355.029
372.719
392.954
417.236
444.207
474.499
508.162
545.784
585.212
627.325
671.852
719.35
767.909
818.795
871.093
924.144
978.478
1033.7
1089.82
1146.47
1203.42
1260.59
1317.85
1375.09
1432.77
1490.19
1546.56
1602.06
1657.51
1711.73
1763.42
1812.69
1859.2
1899.87
1932.11
1949.72
1941.07
1909.61
1860
1793.91
1717.35
1632.47
1541.33
1446.23
1346.66
1248.41
1150.5
1053.66
959.173
867.748
780.529
695.882
617.079
546.587
487.41
435.68
394.174
362.235
338.798
322.383
311.33
304.164
299.661
296.902
295.25
294.279
293.717
293.398
293.218
293.118
293.064
293.034
293.018
293.009
293.005
293.003
293.001
293.001
293
293
293
293
293
293
293.036
293.136
293.285
293.508
293.844
294.345
295.084
296.164
297.717
299.91
302.942
307.056
312.547
319.764
329.09
340.861
355.5
373.298
393.641
418.094
445.189
475.603
509.595
547.405
587.086
629.274
673.905
721.457
770.124
820.931
873.106
926.111
980.36
1035.48
1091.43
1147.88
1204.6
1261.5
1318.48
1375.41
1432.81
1489.95
1546.08
1601.32
1656.52
1710.53
1762.15
1811.36
1857.31
1898.21
1930.93
1949.56
1942.83
1912.89
1864.53
1801.05
1725.03
1640.84
1550.41
1455.8
1355.8
1257.67
1159.47
1062.48
967.611
875.665
787.616
704.261
624.087
552.28
492.4
439.456
396.875
364.072
339.994
323.126
311.775
304.42
299.804
296.98
295.293
294.302
293.73
293.404
293.221
293.12
293.064
293.034
293.018
293.009
293.005
293.003
293.001
293.001
293
293
293
293
293
293
293.036
293.137
293.286
293.512
293.85
294.354
295.098
296.185
297.749
299.959
303.016
307.164
312.703
319.985
329.397
341.275
356.045
374.002
394.536
419.189
446.449
477.035
511.33
549.242
589.135
631.611
676.348
723.972
772.66
823.526
875.579
928.456
982.625
1037.64
1093.38
1149.59
1206.05
1262.7
1319.37
1375.99
1433.07
1489.89
1545.72
1600.65
1655.53
1709.25
1760.71
1809.74
1855.6
1896.61
1929.77
1949.41
1944.68
1916.4
1869.58
1807.61
1732.79
1649.6
1559.85
1465.71
1365.83
1267.69
1169.62
1072.75
977.531
885.113
796.443
712.516
631.602
558.758
497.597
443.762
399.92
366.105
341.272
323.886
312.208
304.66
299.935
297.054
295.33
294.318
293.736
293.406
293.222
293.12
293.064
293.034
293.018
293.009
293.005
293.003
293.001
293.001
293
293
293
293
293
293
293.036
293.138
293.288
293.515
293.855
294.363
295.113
296.208
297.786
300.015
303.1
307.286
312.88
320.239
329.755
341.767
356.707
374.799
395.482
420.44
447.984
478.879
513.479
551.47
591.39
633.955
678.916
726.631
775.411
826.247
878.307
931.167
985.182
1040.06
1095.56
1151.53
1207.71
1264.06
1320.46
1376.76
1433.53
1490.03
1545.56
1600.17
1654.76
1708.21
1759.51
1808.35
1854.09
1895.13
1928.58
1949.42
1946.48
1919.74
1874.33
1813.64
1739.98
1657.81
1568.98
1475.56
1376.41
1278.76
1180.74
1083.37
987.893
895.368
806.018
721.389
639.531
565.53
502.996
447.978
403.43
368.721
343.049
324.995
312.85
305.004
300.103
297.121
295.356
294.328
293.739
293.407
293.222
293.12
293.064
293.034
293.018
293.009
293.005
293.003
293.001
293.001
293
293
293
293
293
293
293.036
293.139
293.289
293.517
293.858
294.367
295.12
296.219
297.804
300.045
303.152
307.378
313.027
320.464
330.085
342.229
357.304
375.627
396.586
421.856
449.697
480.754
515.928
553.471
593.696
636.46
681.593
729.397
778.274
829.12