/*--------------------------------*- C++ -*----------------------------------*\
  =========                 |
  \\      /  F ield         | OpenFOAM: The Open Source CFD Toolbox
   \\    /   O peration     | Website:  https://openfoam.org
    \\  /    A nd           | Version:  10
     \\/     M anipulation  |
\*---------------------------------------------------------------------------*/
FoamFile
{
    format      ascii;
    class       volVectorField;
    location    "1";
    object      U;
}
// * * * * * * * * * * * * * * * * * * * * * * * * * * * * * * * * * * * * * //

dimensions      [0 1 -1 0 0 0 0];

internalField   nonuniform List<vector> 
4000
(
(0.0999332 -0.00778328 0)
(0.0995415 -0.0230268 0)
(0.0989166 -0.0380451 0)
(0.0980725 -0.0529002 0)
(0.0970182 -0.0676254 0)
(0.0957509 -0.0822303 0)
(0.094265 -0.0967098 0)
(0.0925585 -0.111048 0)
(0.0906357 -0.125224 0)
(0.0885101 -0.139209 0)
(0.0862077 -0.152973 0)
(0.0837635 -0.166521 0)
(0.081217 -0.179867 0)
(0.078608 -0.193031 0)
(0.075968 -0.206041 0)
(0.0733166 -0.218925 0)
(0.0706585 -0.231695 0)
(0.0679547 -0.244342 0)
(0.0651523 -0.256852 0)
(0.0622071 -0.269172 0)
(0.0590442 -0.281223 0)
(0.0556302 -0.292936 0)
(0.0519514 -0.304182 0)
(0.0479458 -0.314823 0)
(0.0435884 -0.324828 0)
(0.0388992 -0.334139 0)
(0.0338907 -0.342699 0)
(0.0285682 -0.350462 0)
(0.0229445 -0.357414 0)
(0.0170519 -0.363544 0)
(0.0109251 -0.368856 0)
(0.0045987 -0.37336 0)
(-0.00189053 -0.377074 0)
(-0.00851346 -0.380021 0)
(-0.0152421 -0.382232 0)
(-0.0220449 -0.383743 0)
(-0.0288919 -0.384592 0)
(-0.0357547 -0.384819 0)
(-0.0426069 -0.384467 0)
(-0.0494297 -0.38358 0)
(-0.056204 -0.382209 0)
(-0.0629024 -0.380408 0)
(-0.0694989 -0.378229 0)
(-0.0759806 -0.375725 0)
(-0.0823349 -0.372963 0)
(-0.0885322 -0.370015 0)
(-0.0945367 -0.366956 0)
(-0.100317 -0.363864 0)
(-0.105837 -0.360833 0)
(-0.111022 -0.357965 0)
(-0.115707 -0.355356 0)
(-0.119558 -0.353023 0)
(-0.122201 -0.350803 0)
(-0.123556 -0.348387 0)
(-0.123877 -0.345535 0)
(-0.12339 -0.342124 0)
(-0.122083 -0.338081 0)
(-0.120076 -0.333358 0)
(-0.117622 -0.327944 0)
(-0.114767 -0.321834 0)
(-0.111509 -0.315015 0)
(-0.107918 -0.307486 0)
(-0.104083 -0.299298 0)
(-0.100075 -0.290498 0)
(-0.0959046 -0.28113 0)
(-0.0916236 -0.271245 0)
(-0.087335 -0.260945 0)
(-0.0829956 -0.250322 0)
(-0.078632 -0.239368 0)
(-0.0745766 -0.228123 0)
(-0.0710792 -0.216962 0)
(-0.0682406 -0.206163 0)
(-0.0662961 -0.195959 0)
(-0.0654144 -0.18656 0)
(-0.0655867 -0.178021 0)
(-0.0667033 -0.170241 0)
(-0.0685711 -0.163013 0)
(-0.0709671 -0.156111 0)
(-0.0736748 -0.149347 0)
(-0.0765093 -0.1426 0)
(-0.0793292 -0.1358 0)
(-0.0820369 -0.12892 0)
(-0.0845701 -0.121952 0)
(-0.086889 -0.114895 0)
(-0.0889601 -0.107737 0)
(-0.0907847 -0.100543 0)
(-0.0923765 -0.0933398 0)
(-0.0937547 -0.086145 0)
(-0.0949397 -0.0789756 0)
(-0.0959513 -0.0718454 0)
(-0.0968085 -0.0647648 0)
(-0.0975291 -0.057741 0)
(-0.0981294 -0.0507777 0)
(-0.0986242 -0.0438755 0)
(-0.0990268 -0.0370314 0)
(-0.0993487 -0.0302396 0)
(-0.0995999 -0.0234912 0)
(-0.0997878 -0.0167742 0)
(-0.0999168 -0.0100724 0)
(-0.0999908 -0.00336586 0)
(0.100021 -0.00707574 0)
(0.0998039 -0.0211751 0)
(0.0993249 -0.0351659 0)
(0.0985636 -0.0490142 0)
(0.0975403 -0.0626921 0)
(0.0962688 -0.0761727 0)
(0.0947578 -0.0894297 0)
(0.0930188 -0.102439 0)
(0.0910695 -0.115186 0)
(0.0889351 -0.127669 0)
(0.0866487 -0.13991 0)
(0.0842504 -0.151919 0)
(0.0817841 -0.163725 0)
(0.079293 -0.175371 0)
(0.076811 -0.186905 0)
(0.0743559 -0.198378 0)
(0.0719246 -0.209826 0)
(0.0694731 -0.221265 0)
(0.0669517 -0.232693 0)
(0.0643155 -0.244076 0)
(0.0614707 -0.255338 0)
(0.058366 -0.266412 0)
(0.0549943 -0.277212 0)
(0.0512546 -0.287652 0)
(0.0470963 -0.297618 0)
(0.0425534 -0.307014 0)
(0.037642 -0.315763 0)
(0.0323656 -0.323799 0)
(0.0267374 -0.33108 0)
(0.0207946 -0.337587 0)
(0.0145788 -0.343312 0)
(0.00812618 -0.348261 0)
(0.00147516 -0.352445 0)
(-0.00533519 -0.355885 0)
(-0.0122727 -0.358614 0)
(-0.0193056 -0.360666 0)
(-0.0263982 -0.362077 0)
(-0.0335216 -0.362886 0)
(-0.0406507 -0.363135 0)
(-0.0477634 -0.362868 0)
(-0.0548394 -0.362131 0)
(-0.0618516 -0.360972 0)
(-0.0687748 -0.359438 0)
(-0.0756003 -0.357581 0)
(-0.0823201 -0.355453 0)
(-0.0889085 -0.353109 0)
(-0.0953325 -0.350601 0)
(-0.101568 -0.347981 0)
(-0.107587 -0.345295 0)
(-0.113316 -0.342582 0)
(-0.118567 -0.339857 0)
(-0.122937 -0.337092 0)
(-0.125972 -0.334182 0)
(-0.127575 -0.330995 0)
(-0.127978 -0.327416 0)
(-0.127429 -0.323333 0)
(-0.126187 -0.31866 0)
(-0.124394 -0.313399 0)
(-0.122036 -0.307517 0)
(-0.119138 -0.300971 0)
(-0.115784 -0.293726 0)
(-0.112122 -0.285778 0)
(-0.108223 -0.277166 0)
(-0.104049 -0.267922 0)
(-0.0996439 -0.258078 0)
(-0.0951191 -0.247709 0)
(-0.0905055 -0.236907 0)
(-0.0857137 -0.225791 0)
(-0.0808087 -0.214535 0)
(-0.0762001 -0.203439 0)
(-0.0722032 -0.192754 0)
(-0.0689109 -0.182703 0)
(-0.0665371 -0.173484 0)
(-0.0652528 -0.165213 0)
(-0.065048 -0.157875 0)
(-0.0657992 -0.151323 0)
(-0.0673214 -0.145331 0)
(-0.0694092 -0.139666 0)
(-0.0718602 -0.134134 0)
(-0.0744981 -0.128604 0)
(-0.0771849 -0.122997 0)
(-0.0798219 -0.11728 0)
(-0.0823434 -0.111445 0)
(-0.0847084 -0.105508 0)
(-0.086897 -0.0995013 0)
(-0.0888866 -0.093374 0)
(-0.0906756 -0.0871359 0)
(-0.0922677 -0.0808092 0)
(-0.0936711 -0.0744159 0)
(-0.0948964 -0.0679759 0)
(-0.0959562 -0.0615059 0)
(-0.0968634 -0.0550198 0)
(-0.0976313 -0.0485282 0)
(-0.0982725 -0.0420387 0)
(-0.0987989 -0.0355559 0)
(-0.0992208 -0.0290819 0)
(-0.0995468 -0.022616 0)
(-0.0997818 -0.0161559 0)
(-0.0999289 -0.00969705 0)
(-0.0999995 -0.00323422 0)
(0.0999813 -0.00678853 0)
(0.0996991 -0.0202702 0)
(0.0991344 -0.0336352 0)
(0.098278 -0.0468582 0)
(0.0971462 -0.0599131 0)
(0.0957541 -0.0727749 0)
(0.0941184 -0.0854205 0)
(0.0922615 -0.0978301 0)
(0.0902138 -0.109989 0)
(0.0880109 -0.121891 0)
(0.0856909 -0.133538 0)
(0.0832953 -0.144948 0)
(0.0808698 -0.156151 0)
(0.0784598 -0.16719 0)
(0.0761011 -0.178114 0)
(0.0738148 -0.188973 0)
(0.071596 -0.199805 0)
(0.0693902 -0.210626 0)
(0.0671429 -0.221442 0)
(0.0648195 -0.232227 0)
(0.0623298 -0.24292 0)
(0.0596059 -0.253454 0)
(0.0566295 -0.263744 0)
(0.0532955 -0.273687 0)
(0.0495095 -0.283193 0)
(0.045279 -0.292193 0)
(0.0406352 -0.300621 0)
(0.0355883 -0.308418 0)
(0.0301408 -0.315539 0)
(0.0243201 -0.32196 0)
(0.0181715 -0.327663 0)
(0.011743 -0.332649 0)
(0.00507497 -0.336932 0)
(-0.00180837 -0.340523 0)
(-0.00887692 -0.343443 0)
(-0.0160847 -0.345717 0)
(-0.0233913 -0.347378 0)
(-0.0307658 -0.348461 0)
(-0.0381811 -0.349003 0)
(-0.0456168 -0.349043 0)
(-0.0530532 -0.348621 0)
(-0.0604639 -0.34778 0)
(-0.0678266 -0.346564 0)
(-0.0751349 -0.345014 0)
(-0.0823837 -0.343174 0)
(-0.0895487 -0.341086 0)
(-0.0965976 -0.338789 0)
(-0.103505 -0.336318 0)
(-0.110238 -0.333699 0)
(-0.11671 -0.330951 0)
(-0.122685 -0.328073 0)
(-0.127669 -0.32503 0)
(-0.13116 -0.321744 0)
(-0.133082 -0.318131 0)
(-0.133704 -0.31412 0)
(-0.133262 -0.309652 0)
(-0.13197 -0.30467 0)
(-0.130022 -0.299107 0)
(-0.127492 -0.292942 0)
(-0.124382 -0.28617 0)
(-0.120727 -0.278767 0)
(-0.116717 -0.270757 0)
(-0.112456 -0.262164 0)
(-0.107908 -0.253026 0)
(-0.103092 -0.243407 0)
(-0.0980631 -0.233387 0)
(-0.0928495 -0.223063 0)
(-0.0874111 -0.21257 0)
(-0.0818634 -0.202061 0)
(-0.0766778 -0.191739 0)
(-0.0722062 -0.181859 0)
(-0.0685231 -0.172626 0)
(-0.0658077 -0.164185 0)
(-0.0642273 -0.156616 0)
(-0.0637754 -0.149887 0)
(-0.0643267 -0.143856 0)
(-0.0656907 -0.138319 0)
(-0.0676536 -0.133065 0)
(-0.0700096 -0.127919 0)
(-0.0725812 -0.12276 0)
(-0.0752288 -0.117514 0)
(-0.0778509 -0.112145 0)
(-0.0803804 -0.10664 0)
(-0.0827778 -0.101003 0)
(-0.0850237 -0.0952492 0)
(-0.0871072 -0.089396 0)
(-0.0890192 -0.0834586 0)
(-0.0907564 -0.07745 0)
(-0.09232 -0.0713826 0)
(-0.0937146 -0.0652679 0)
(-0.0949466 -0.0591166 0)
(-0.0960237 -0.052938 0)
(-0.0969541 -0.04674 0)
(-0.0977464 -0.0405287 0)
(-0.0984087 -0.0343089 0)
(-0.0989489 -0.0280833 0)
(-0.0993734 -0.0218532 0)
(-0.0996861 -0.0156187 0)
(-0.0998894 -0.00937847 0)
(-0.0999929 -0.0031297 0)
(0.0999917 -0.0063762 0)
(0.0997191 -0.0190446 0)
(0.0991578 -0.0315968 0)
(0.0982957 -0.044002 0)
(0.0971526 -0.0562309 0)
(0.0957477 -0.068256 0)
(0.0941015 -0.0800535 0)
(0.0922398 -0.0916043 0)
(0.0901949 -0.102896 0)
(0.0880043 -0.113927 0)
(0.0857093 -0.124704 0)
(0.0833547 -0.135249 0)
(0.0809876 -0.145597 0)
(0.0786541 -0.155792 0)
(0.0763897 -0.165889 0)
(0.0742157 -0.175941 0)
(0.0721302 -0.185991 0)
(0.0700795 -0.196061 0)
(0.0680012 -0.206157 0)
(0.065851 -0.216264 0)
(0.0635371 -0.22633 0)
(0.0609927 -0.236299 0)
(0.0581969 -0.246094 0)
(0.0550635 -0.255619 0)
(0.0514965 -0.264776 0)
(0.0474796 -0.273493 0)
(0.0430326 -0.281701 0)
(0.0381594 -0.289344 0)
(0.0328599 -0.296377 0)
(0.0271594 -0.30277 0)
(0.0210911 -0.308503 0)
(0.0146747 -0.313577 0)
(0.00795795 -0.317996 0)
(0.00100081 -0.321771 0)
(-0.00616244 -0.324913 0)
(-0.013505 -0.327442 0)
(-0.0209943 -0.329384 0)
(-0.0285969 -0.33077 0)
(-0.036283 -0.331631 0)
(-0.0440297 -0.332001 0)
(-0.0518193 -0.331915 0)
(-0.0596284 -0.331408 0)
(-0.0674321 -0.330517 0)
(-0.0752223 -0.329274 0)
(-0.0829943 -0.327712 0)
(-0.0907217 -0.325866 0)
(-0.0983661 -0.323762 0)
(-0.105898 -0.321419 0)
(-0.113273 -0.318857 0)
(-0.120376 -0.316083 0)
(-0.126932 -0.313094 0)
(-0.132391 -0.309856 0)
(-0.136218 -0.306303 0)
(-0.138345 -0.302379 0)
(-0.139058 -0.29804 0)
(-0.138625 -0.293238 0)
(-0.137256 -0.28793 0)
(-0.135153 -0.282072 0)
(-0.132414 -0.275645 0)
(-0.129019 -0.268648 0)
(-0.125066 -0.261085 0)
(-0.120742 -0.252993 0)
(-0.116082 -0.244393 0)
(-0.111075 -0.235329 0)
(-0.105767 -0.225875 0)
(-0.100245 -0.216118 0)
(-0.0945794 -0.206162 0)
(-0.0887376 -0.196131 0)
(-0.0828435 -0.186156 0)
(-0.0773893 -0.176438 0)
(-0.0727063 -0.167219 0)
(-0.0688229 -0.158661 0)
(-0.0659216 -0.150894 0)
(-0.0642003 -0.143992 0)
(-0.0636398 -0.137912 0)
(-0.0640885 -0.132508 0)
(-0.0653431 -0.127575 0)
(-0.0671926 -0.122911 0)
(-0.0694398 -0.118349 0)
(-0.0719155 -0.113774 0)
(-0.0744866 -0.109115 0)
(-0.0770563 -0.104335 0)
(-0.079558 -0.0994204 0)
(-0.0819482 -0.09437 0)
(-0.0842007 -0.0891898 0)
(-0.0863012 -0.0838884 0)
(-0.088243 -0.0784775 0)
(-0.0900238 -0.0729697 0)
(-0.0916442 -0.0673778 0)
(-0.0931066 -0.0617138 0)
(-0.0944147 -0.055989 0)
(-0.0955729 -0.0502134 0)
(-0.0965861 -0.044396 0)
(-0.0974592 -0.0385444 0)
(-0.0981974 -0.0326649 0)
(-0.0988053 -0.0267627 0)
(-0.0992867 -0.0208416 0)
(-0.0996433 -0.0149046 0)
(-0.0998753 -0.00895329 0)
(-0.099993 -0.0029884 0)
(0.0999876 -0.0059863 0)
(0.0997027 -0.0178773 0)
(0.099124 -0.0296579 0)
(0.0982412 -0.0412989 0)
(0.0970756 -0.052772 0)
(0.0956484 -0.0640514 0)
(0.0939823 -0.0751144 0)
(0.0921057 -0.0859437 0)
(0.0900535 -0.0965283 0)
(0.0878659 -0.106866 0)
(0.0855864 -0.116963 0)
(0.0832616 -0.126841 0)
(0.0809401 -0.136532 0)
(0.0786685 -0.146077 0)
(0.0764831 -0.155527 0)
(0.0744045 -0.164932 0)
(0.0724305 -0.174334 0)
(0.0705066 -0.183756 0)
(0.0685699 -0.193208 0)
(0.0665752 -0.202675 0)
(0.0644281 -0.212116 0)
(0.0620525 -0.221482 0)
(0.0594278 -0.230704 0)
(0.0564785 -0.239695 0)
(0.0530992 -0.248369 0)
(0.0492581 -0.256658 0)
(0.0449713 -0.264501 0)
(0.0402395 -0.27184 0)
(0.0350587 -0.278632 0)
(0.0294447 -0.284847 0)
(0.0234208 -0.290466 0)
(0.0170228 -0.29548 0)
(0.0102988 -0.299884 0)
(0.00328649 -0.303684 0)
(-0.00397541 -0.306895 0)
(-0.0114532 -0.309532 0)
(-0.0191174 -0.311615 0)
(-0.0269328 -0.313169 0)
(-0.03487 -0.314221 0)
(-0.0429104 -0.314797 0)
(-0.0510352 -0.314928 0)
(-0.0592151 -0.314641 0)
(-0.0674241 -0.313965 0)
(-0.0756534 -0.312926 0)
(-0.0838985 -0.311552 0)
(-0.0921288 -0.309865 0)
(-0.100292 -0.307884 0)
(-0.108351 -0.305626 0)
(-0.116259 -0.303099 0)
(-0.12389 -0.300312 0)
(-0.130926 -0.297258 0)
(-0.136745 -0.293908 0)
(-0.140807 -0.290206 0)
(-0.1431 -0.286112 0)
(-0.143898 -0.281598 0)
(-0.14343 -0.276638 0)
(-0.141901 -0.271182 0)
(-0.13954 -0.26522 0)
(-0.136498 -0.258735 0)
(-0.132805 -0.251722 0)
(-0.128535 -0.244196 0)
(-0.123846 -0.236209 0)
(-0.118808 -0.227813 0)
(-0.113456 -0.219051 0)
(-0.10784 -0.209993 0)
(-0.102009 -0.200733 0)
(-0.0960015 -0.191367 0)
(-0.0897777 -0.181984 0)
(-0.0835252 -0.172714 0)
(-0.0778087 -0.163759 0)
(-0.0729163 -0.155318 0)
(-0.0688586 -0.147529 0)
(-0.0658479 -0.140504 0)
(-0.0640526 -0.134282 0)
(-0.0634138 -0.128794 0)
(-0.063772 -0.12389 0)
(-0.0649287 -0.119382 0)
(-0.0666801 -0.115092 0)
(-0.0688361 -0.110878 0)
(-0.0712338 -0.10664 0)
(-0.0737449 -0.10232 0)
(-0.0762747 -0.0978845 0)
(-0.0787571 -0.0933215 0)
(-0.0811484 -0.0886294 0)
(-0.0834206 -0.0838134 0)
(-0.0855563 -0.078882 0)
(-0.0875456 -0.0738448 0)
(-0.0893832 -0.0687122 0)
(-0.0910673 -0.0634944 0)
(-0.0925981 -0.0582013 0)
(-0.0939771 -0.0528424 0)
(-0.0952066 -0.0474262 0)
(-0.0962895 -0.0419608 0)
(-0.0972287 -0.0364534 0)
(-0.0980275 -0.0309104 0)
(-0.098689 -0.0253374 0)
(-0.0992153 -0.0197393 0)
(-0.0996066 -0.0141203 0)
(-0.0998621 -0.00848363 0)
(-0.099992 -0.00283189 0)
(0.0999888 -0.00558224 0)
(0.0997057 -0.0166717 0)
(0.0991284 -0.0276573 0)
(0.0982469 -0.0385101 0)
(0.0970834 -0.0492025 0)
(0.0956605 -0.0597094 0)
(0.0940019 -0.0700093 0)
(0.0921372 -0.0800859 0)
(0.090102 -0.0899293 0)
(0.0879371 -0.0995376 0)
(0.0856865 -0.108919 0)
(0.083397 -0.118094 0)
(0.0811173 -0.127094 0)
(0.0788944 -0.13596 0)
(0.0767649 -0.144741 0)
(0.0747504 -0.153487 0)
(0.0728496 -0.162237 0)
(0.0710094 -0.171016 0)
(0.0691659 -0.179835 0)
(0.0672726 -0.188685 0)
(0.0652307 -0.197527 0)
(0.0629624 -0.206312 0)
(0.0604495 -0.214979 0)
(0.0576215 -0.223453 0)
(0.0543705 -0.231653 0)
(0.0506522 -0.239518 0)
(0.0464762 -0.246986 0)
(0.0418401 -0.254003 0)
(0.0367359 -0.260528 0)
(0.0311768 -0.26653 0)
(0.0251863 -0.271986 0)
(0.0187956 -0.276883 0)
(0.0120479 -0.281219 0)
(0.00498087 -0.284996 0)
(-0.00236985 -0.288221 0)
(-0.00997061 -0.290908 0)
(-0.0177899 -0.293073 0)
(-0.025796 -0.294734 0)
(-0.0339608 -0.295915 0)
(-0.0422616 -0.296637 0)
(-0.0506761 -0.296923 0)
(-0.0591761 -0.296796 0)
(-0.0677345 -0.29628 0)
(-0.07634 -0.295396 0)
(-0.0849803 -0.294166 0)
(-0.0936156 -0.292606 0)
(-0.102197 -0.290731 0)
(-0.11068 -0.288556 0)
(-0.119004 -0.28609 0)
(-0.127024 -0.283331 0)
(-0.134386 -0.280269 0)
(-0.140442 -0.27688 0)
(-0.144644 -0.273119 0)
(-0.146993 -0.268946 0)
(-0.147791 -0.264351 0)
(-0.147247 -0.25932 0)
(-0.145591 -0.253819 0)
(-0.143077 -0.247854 0)
(-0.139794 -0.241426 0)
(-0.135771 -0.234532 0)
(-0.131195 -0.227205 0)
(-0.126283 -0.219494 0)
(-0.121003 -0.211435 0)
(-0.115337 -0.203074 0)
(-0.109396 -0.194476 0)
(-0.103265 -0.18572 0)
(-0.0969312 -0.1769 0)
(-0.0903834 -0.168093 0)
(-0.083934 -0.159447 0)
(-0.0781071 -0.151145 0)
(-0.0731242 -0.143355 0)
(-0.0690234 -0.136202 0)
(-0.066 -0.129777 0)
(-0.0641846 -0.124096 0)
(-0.0635118 -0.119089 0)
(-0.0638246 -0.114618 0)
(-0.0649267 -0.110514 0)
(-0.0666175 -0.106613 0)
(-0.0687109 -0.102783 0)
(-0.0710479 -0.0989332 0)
(-0.0735038 -0.0950053 0)
(-0.0759866 -0.0909682 0)
(-0.0784324 -0.0868078 0)
(-0.0807981 -0.0825211 0)
(-0.0830558 -0.0781111 0)
(-0.0851879 -0.0735843 0)
(-0.087184 -0.0689489 0)
(-0.0890377 -0.0642141 0)
(-0.0907459 -0.0593891 0)
(-0.0923072 -0.054483 0)
(-0.0937213 -0.0495047 0)
(-0.0949889 -0.0444625 0)
(-0.0961109 -0.0393645 0)
(-0.0970887 -0.0342179 0)
(-0.0979238 -0.0290297 0)
(-0.0986179 -0.023806 0)
(-0.0991719 -0.0185526 0)
(-0.0995847 -0.0132747 0)
(-0.0998545 -0.00797684 0)
(-0.0999917 -0.00266296 0)
(0.0999884 -0.00518283 0)
(0.0997052 -0.0154786 0)
(0.0991287 -0.0256782 0)
(0.0982493 -0.0357544 0)
(0.0970897 -0.0456815 0)
(0.0956726 -0.055436 0)
(0.0940227 -0.0649981 0)
(0.0921698 -0.0743525 0)
(0.0901504 -0.0834903 0)
(0.0880056 -0.09241 0)
(0.0857799 -0.10112 0)
(0.0835202 -0.109637 0)
(0.0812756 -0.117993 0)
(0.0790934 -0.126226 0)
(0.0770106 -0.134381 0)
(0.0750493 -0.142503 0)
(0.0732088 -0.150632 0)
(0.0714351 -0.158792 0)
(0.0696619 -0.166994 0)
(0.0678447 -0.175232 0)
(0.0658954 -0.183473 0)
(0.0637279 -0.191669 0)
(0.061307 -0.199766 0)
(0.0585669 -0.207697 0)
(0.0554022 -0.21539 0)
(0.0517662 -0.222787 0)
(0.0476661 -0.229832 0)
(0.0430956 -0.236473 0)
(0.0380419 -0.242668 0)
(0.0325159 -0.24839 0)
(0.0265412 -0.253614 0)
(0.0201434 -0.258325 0)
(0.0133623 -0.26252 0)
(0.00623615 -0.266197 0)
(-0.00120064 -0.269362 0)
(-0.008915 -0.272024 0)
(-0.0168752 -0.274196 0)
(-0.0250495 -0.275892 0)
(-0.0334086 -0.277131 0)
(-0.0419293 -0.27793 0)
(-0.0505892 -0.278308 0)
(-0.0593577 -0.278283 0)
(-0.0682053 -0.277875 0)
(-0.0771184 -0.277102 0)
(-0.0860814 -0.275979 0)
(-0.09505 -0.274522 0)
(-0.103973 -0.272745 0)
(-0.112804 -0.270658 0)
(-0.121456 -0.268268 0)
(-0.12976 -0.265572 0)
(-0.137355 -0.262559 0)
(-0.143553 -0.259203 0)
(-0.147798 -0.255476 0)
(-0.15015 -0.251347 0)
(-0.150928 -0.246776 0)
(-0.150296 -0.241735 0)
(-0.148487 -0.236306 0)
(-0.145783 -0.230481 0)
(-0.142295 -0.224234 0)
(-0.138104 -0.217595 0)
(-0.133367 -0.210615 0)
(-0.128198 -0.203291 0)
(-0.122626 -0.195645 0)
(-0.116714 -0.187746 0)
(-0.110543 -0.179667 0)
(-0.104178 -0.171479 0)
(-0.0976048 -0.163264 0)
(-0.0908545 -0.155103 0)
(-0.0842704 -0.147136 0)
(-0.0783533 -0.139512 0)
(-0.0733211 -0.132384 0)
(-0.0691964 -0.125859 0)
(-0.0661502 -0.120001 0)
(-0.0643073 -0.11482 0)
(-0.0636017 -0.110248 0)
(-0.0638758 -0.106158 0)
(-0.0649335 -0.102395 0)
(-0.066576 -0.0988098 0)
(-0.0686206 -0.0952862 0)
(-0.0709117 -0.0917414 0)
(-0.0733271 -0.0881242 0)
(-0.0757768 -0.0844061 0)
(-0.0781979 -0.0805742 0)
(-0.0805475 -0.0766249 0)
(-0.0827975 -0.0725603 0)
(-0.0849298 -0.0683856 0)
(-0.0869329 -0.0641075 0)
(-0.0887998 -0.0597337 0)
(-0.090526 -0.0552719 0)
(-0.0921092 -0.05073 0)
(-0.0935479 -0.046116 0)
(-0.0948417 -0.0414372 0)
(-0.0959904 -0.0367011 0)
(-0.0969943 -0.0319146 0)
(-0.0978539 -0.0270845 0)
(-0.0985699 -0.022217 0)
(-0.0991425 -0.0173181 0)
(-0.0995697 -0.0123933 0)
(-0.0998492 -0.00744801 0)
(-0.0999914 -0.00248662 0)
(0.0999887 -0.00478427 0)
(0.0997078 -0.0142885 0)
(0.0991356 -0.0237042 0)
(0.0982628 -0.0330062 0)
(0.0971119 -0.0421705 0)
(0.0957061 -0.0511752 0)
(0.0940699 -0.060002 0)
(0.0922337 -0.0686369 0)
(0.0902337 -0.0770716 0)
(0.0881112 -0.0853051 0)
(0.0859105 -0.0933448 0)
(0.0836785 -0.101208 0)
(0.0814642 -0.108923 0)
(0.079315 -0.116525 0)
(0.0772681 -0.124057 0)
(0.0753464 -0.131562 0)
(0.0735498 -0.139076 0)
(0.0718245 -0.146623 0)
(0.0701022 -0.154214 0)
(0.068339 -0.161843 0)
(0.0664518 -0.169484 0)
(0.0643516 -0.177097 0)
(0.0619964 -0.18463 0)
(0.0593208 -0.192019 0)
(0.0562194 -0.199199 0)
(0.0526423 -0.206116 0)
(0.0485942 -0.212718 0)
(0.0440639 -0.218956 0)
(0.0390353 -0.224791 0)
(0.0335229 -0.230195 0)
(0.0275501 -0.235144 0)
(0.0211372 -0.239624 0)
(0.0143214 -0.24363 0)
(0.00713966 -0.247158 0)
(-0.000375362 -0.250212 0)
(-0.00819031 -0.252798 0)
(-0.0162731 -0.254926 0)
(-0.0245917 -0.256607 0)
(-0.0331158 -0.257855 0)
(-0.0418215 -0.258686 0)
(-0.0506852 -0.259114 0)
(-0.0596747 -0.259155 0)
(-0.0687586 -0.258824 0)
(-0.0779213 -0.258135 0)
(-0.087144 -0.257103 0)
(-0.0963787 -0.255741 0)
(-0.105568 -0.254059 0)
(-0.114657 -0.252064 0)
(-0.123552 -0.249762 0)
(-0.132066 -0.247153 0)
(-0.139802 -0.244223 0)
(-0.146086 -0.240946 0)
(-0.150375 -0.237305 0)
(-0.152631 -0.233274 0)
(-0.153147 -0.228839 0)
(-0.152411 -0.223987 0)
(-0.150687 -0.218744 0)
(-0.147935 -0.213127 0)
(-0.144312 -0.20715 0)
(-0.140011 -0.200841 0)
(-0.135108 -0.194227 0)
(-0.129702 -0.187321 0)
(-0.123907 -0.180154 0)
(-0.117791 -0.172773 0)
(-0.111418 -0.165235 0)
(-0.104858 -0.157608 0)
(-0.0980849 -0.149983 0)
(-0.0911693 -0.142445 0)
(-0.0844972 -0.135111 0)
(-0.0785351 -0.128114 0)
(-0.0734738 -0.121589 0)
(-0.0693301 -0.115625 0)
(-0.066277 -0.110278 0)
(-0.064438 -0.105554 0)
(-0.0637375 -0.101389 0)
(-0.0640089 -0.097664 0)
(-0.0650526 -0.0942348 0)
(-0.0666711 -0.0909669 0)
(-0.0686848 -0.087753 0)
(-0.0709417 -0.0845181 0)
(-0.0733227 -0.0812154 0)
(-0.0757405 -0.0778186 0)
(-0.0781338 -0.0743155 0)
(-0.080461 -0.0707022 0)
(-0.0826943 -0.0669801 0)
(-0.0848158 -0.0631534 0)
(-0.0868137 -0.059228 0)
(-0.0886804 -0.0552103 0)
(-0.090411 -0.0511075 0)
(-0.0920022 -0.0469265 0)
(-0.0934518 -0.0426744 0)
(-0.0947585 -0.0383583 0)
(-0.0959212 -0.0339851 0)
(-0.0969395 -0.0295614 0)
(-0.097813 -0.0250937 0)
(-0.0985417 -0.0205883 0)
(-0.0991252 -0.0160512 0)
(-0.0995609 -0.0114881 0)
(-0.0998461 -0.00690457 0)
(-0.0999912 -0.00230538 0)
(0.0999887 -0.00438933 0)
(0.09971 -0.0131088 0)
(0.0991423 -0.0217476 0)
(0.0982763 -0.0302826 0)
(0.0971345 -0.0386918 0)
(0.0957401 -0.0469553 0)
(0.0941176 -0.0550563 0)
(0.0922971 -0.0629819 0)
(0.0903151 -0.0707248 0)
(0.0882127 -0.078284 0)
(0.0860338 -0.0856662 0)
(0.0838254 -0.0928875 0)
(0.0816364 -0.0999732 0)
(0.0795141 -0.106957 0)
(0.0774961 -0.113878 0)
(0.0756059 -0.120775 0)
(0.0738444 -0.127683 0)
(0.0721589 -0.134623 0)
(0.07048 -0.141608 0)
(0.0687606 -0.148634 0)
(0.0669128 -0.155675 0)
(0.0648552 -0.162699 0)
(0.0625487 -0.169657 0)
(0.0599198 -0.17649 0)
(0.0568615 -0.183138 0)
(0.0533232 -0.189554 0)
(0.0493091 -0.195687 0)
(0.0448085 -0.201495 0)
(0.0398007 -0.206938 0)
(0.0342949 -0.211989 0)
(0.0283137 -0.216626 0)
(0.0218782 -0.220836 0)
(0.0150236 -0.224611 0)
(0.00778592 -0.227949 0)
(0.000198469 -0.23085 0)
(-0.00770556 -0.233318 0)
(-0.0158939 -0.23536 0)
(-0.0243341 -0.236986 0)
(-0.0329954 -0.238207 0)
(-0.041853 -0.239035 0)
(-0.0508823 -0.239481 0)
(-0.0600493 -0.239559 0)
(-0.0693213 -0.239281 0)
(-0.0786812 -0.238659 0)
(-0.0881077 -0.237705 0)
(-0.0975496 -0.236429 0)
(-0.106944 -0.234839 0)
(-0.116229 -0.232943 0)
(-0.125305 -0.230744 0)
(-0.133962 -0.228242 0)
(-0.141781 -0.225439 0)
(-0.148087 -0.222316 0)
(-0.152334 -0.218833 0)
(-0.154584 -0.21497 0)
(-0.155169 -0.210754 0)
(-0.154331 -0.20619 0)
(-0.152352 -0.201238 0)
(-0.149468 -0.195923 0)
(-0.145788 -0.190287 0)
(-0.141402 -0.184341 0)
(-0.136403 -0.17811 0)
(-0.130881 -0.171639 0)
(-0.124918 -0.164964 0)
(-0.1186 -0.15812 0)
(-0.112019 -0.151133 0)
(-0.105285 -0.144075 0)
(-0.0984055 -0.137048 0)
(-0.091417 -0.130132 0)
(-0.0846843 -0.123421 0)
(-0.0786865 -0.117035 0)
(-0.0736174 -0.111096 0)
(-0.0694855 -0.105685 0)
(-0.0664498 -0.100847 0)
(-0.0646234 -0.0965781 0)
(-0.063927 -0.0928131 0)
(-0.0641916 -0.0894394 0)
(-0.0652184 -0.0863264 0)
(-0.0668124 -0.083353 0)
(-0.0687973 -0.0804241 0)
(-0.0710236 -0.0774733 0)
(-0.0733748 -0.074459 0)
(-0.0757653 -0.0713582 0)
(-0.0781347 -0.0681596 0)
(-0.080442 -0.0648597 0)
(-0.0826598 -0.0614595 0)
(-0.0847699 -0.0579625 0)
(-0.0867605 -0.0543736 0)
(-0.0886236 -0.0506984 0)
(-0.0903537 -0.046943 0)
(-0.0919471 -0.0431137 0)
(-0.0934011 -0.0392168 0)
(-0.0947137 -0.0352587 0)
(-0.0958835 -0.0312456 0)
(-0.0969092 -0.0271838 0)
(-0.0977902 -0.0230794 0)
(-0.0985259 -0.0189383 0)
(-0.0991154 -0.0147665 0)
(-0.0995559 -0.0105695 0)
(-0.0998444 -0.0063529 0)
(-0.0999911 -0.00212139 0)
(0.0999889 -0.00399746 0)
(0.0997126 -0.0119383 0)
(0.0991495 -0.0198059 0)
(0.0982906 -0.0275797 0)
(0.0971581 -0.0352395 0)
(0.095775 -0.0427673 0)
(0.0941658 -0.0501478 0)
(0.0923606 -0.0573695 0)
(0.0903955 -0.0644256 0)
(0.0883113 -0.0713152 0)
(0.0861521 -0.0780446 0)
(0.0839644 -0.0846283 0)
(0.0817969 -0.0910895 0)
(0.0796971 -0.0974589 0)
(0.0777026 -0.103772 0)
(0.0758374 -0.110065 0)
(0.0741024 -0.11637 0)
(0.0724444 -0.122706 0)
(0.070792 -0.129086 0)
(0.0690998 -0.135509 0)
(0.0672863 -0.141953 0)
(0.065266 -0.148384 0)
(0.0629949 -0.154761 0)
(0.0604013 -0.16103 0)
(0.0573752 -0.167136 0)
(0.0538631 -0.173035 0)
(0.0498666 -0.178681 0)
(0.0453761 -0.184035 0)
(0.0403744 -0.189061 0)
(0.0348681 -0.193735 0)
(0.0288756 -0.198034 0)
(0.0224157 -0.201945 0)
(0.0155237 -0.205461 0)
(0.00823627 -0.208577 0)
(0.000585806 -0.211293 0)
(-0.00739445 -0.213612 0)
(-0.0156717 -0.215538 0)
(-0.0242132 -0.21708 0)
(-0.0329874 -0.218245 0)
(-0.0419687 -0.219045 0)
(-0.0511312 -0.219488 0)
(-0.0604391 -0.219586 0)
(-0.0698584 -0.219348 0)
(-0.0793707 -0.218784 0)
(-0.088952 -0.217906 0)
(-0.098547 -0.216721 0)
(-0.108089 -0.215237 0)
(-0.117512 -0.213459 0)
(-0.126714 -0.21139 0)
(-0.135498 -0.209033 0)
(-0.143437 -0.206393 0)
(-0.149769 -0.203462 0)
(-0.153958 -0.200195 0)
(-0.15613 -0.196582 0)
(-0.156613 -0.1926 0)
(-0.15571 -0.188244 0)
(-0.153708 -0.18361 0)
(-0.150757 -0.178696 0)
(-0.146957 -0.173484 0)
(-0.142434 -0.167983 0)
(-0.137319 -0.162217 0)
(-0.131713 -0.156222 0)
(-0.125673 -0.150044 0)
(-0.119216 -0.143729 0)
(-0.11246 -0.137304 0)
(-0.105613 -0.130842 0)
(-0.0986575 -0.12443 0)
(-0.0915986 -0.118133 0)
(-0.0848272 -0.112033 0)
(-0.0788237 -0.106244 0)
(-0.0737651 -0.100876 0)
(-0.0696486 -0.0959925 0)
(-0.0666328 -0.0916294 0)
(-0.0648238 -0.0877809 0)
(-0.0641351 -0.0843842 0)
(-0.0643974 -0.0813365 0)
(-0.0654132 -0.07852 0)
(-0.0669897 -0.0758268 0)
(-0.0689523 -0.0731719 0)
(-0.0711541 -0.0704961 0)
(-0.0734802 -0.0677624 0)
(-0.0758464 -0.0649497 0)
(-0.0781936 -0.0620481 0)
(-0.0804814 -0.059054 0)
(-0.0826825 -0.0559682 0)
(-0.0847792 -0.0527934 0)
(-0.0867593 -0.0495339 0)
(-0.0886147 -0.0461948 0)
(-0.0903398 -0.0427811 0)
(-0.0919304 -0.0392987 0)
(-0.0933836 -0.035753 0)
(-0.0946968 -0.0321498 0)
(-0.0958683 -0.028495 0)
(-0.0968965 -0.0247942 0)
(-0.0977803 -0.0210531 0)
(-0.0985189 -0.0172774 0)
(-0.099111 -0.0134725 0)
(-0.0995537 -0.00964394 0)
(-0.0998436 -0.00579688 0)
(-0.0999911 -0.00193596 0)
(0.099989 -0.00360876 0)
(0.0997148 -0.010777 0)
(0.0991561 -0.0178796 0)
(0.0983036 -0.0248978 0)
(0.0971795 -0.0318139 0)
(0.0958067 -0.0386116 0)
(0.0942094 -0.0452772 0)
(0.0924175 -0.0518003 0)
(0.090467 -0.0581748 0)
(0.0883986 -0.0644 0)
(0.0862559 -0.0704816 0)
(0.0840854 -0.0764326 0)
(0.0819357 -0.0822739 0)
(0.0798538 -0.0880332 0)
(0.077878 -0.0937429 0)
(0.0760329 -0.0994357 0)
(0.0743202 -0.105141 0)
(0.0726859 -0.110876 0)
(0.0710557 -0.116653 0)
(0.0693817 -0.122471 0)
(0.067588 -0.128312 0)
(0.0655915 -0.134146 0)
(0.0633443 -0.139936 0)
(0.0607744 -0.145633 0)
(0.0577709 -0.151188 0)
(0.0542778 -0.156559 0)
(0.0502969 -0.161706 0)
(0.0458165 -0.166589 0)
(0.0408147 -0.171179 0)
(0.0352987 -0.175452 0)
(0.0292896 -0.179388 0)
(0.022805 -0.182975 0)
(0.0158784 -0.186205 0)
(0.00854625 -0.189072 0)
(0.000841284 -0.191577 0)
(-0.00720337 -0.19372 0)
(-0.0155548 -0.195506 0)
(-0.0241798 -0.19694 0)
(-0.0330463 -0.19803 0)
(-0.0421278 -0.198782 0)
(-0.0513971 -0.199207 0)
(-0.0608165 -0.199311 0)
(-0.0703514 -0.199104 0)
(-0.0799856 -0.198595 0)
(-0.0896916 -0.197796 0)
(-0.0994078 -0.196711 0)
(-0.109066 -0.195347 0)
(-0.118597 -0.193709 0)
(-0.127895 -0.191801 0)
(-0.136762 -0.189627 0)
(-0.144758 -0.187176 0)
(-0.1511 -0.184437 0)
(-0.155254 -0.181396 0)
(-0.157321 -0.178046 0)
(-0.157629 -0.174374 0)
(-0.156687 -0.170383 0)
(-0.154773 -0.166119 0)
(-0.151818 -0.161587 0)
(-0.147937 -0.156786 0)
(-0.143308 -0.151736 0)
(-0.138065 -0.146459 0)
(-0.13232 -0.140978 0)
(-0.126155 -0.135329 0)
(-0.119594 -0.12956 0)
(-0.112755 -0.123718 0)
(-0.105849 -0.117869 0)
(-0.0988467 -0.112076 0)
(-0.0917445 -0.106391 0)
(-0.0849475 -0.100897 0)
(-0.0789534 -0.0956997 0)
(-0.0739114 -0.0908905 0)
(-0.0698092 -0.0865177 0)
(-0.0668096 -0.082609 0)
(-0.0650143 -0.0791578 0)
(-0.0643329 -0.0761086 0)
(-0.0645953 -0.0733697 0)
(-0.0656042 -0.0708358 0)
(-0.0671679 -0.0684108 0)
(-0.0691138 -0.066019 0)
(-0.0712963 -0.0636079 0)
(-0.0736021 -0.0611446 0)
(-0.0759484 -0.0586104 0)
(-0.0782767 -0.0559963 0)
(-0.0805473 -0.053299 0)
(-0.0827333 -0.0505189 0)
(-0.0848169 -0.0476584 0)
(-0.0867861 -0.0447212 0)
(-0.0886328 -0.0417114 0)
(-0.090351 -0.0386337 0)
(-0.0919365 -0.0354931 0)
(-0.093386 -0.0322946 0)
(-0.094697 -0.0290432 0)
(-0.0958671 -0.0257441 0)
(-0.0968948 -0.0224026 0)
(-0.0977786 -0.0190239 0)
(-0.0985175 -0.0156132 0)
(-0.0991101 -0.0121755 0)
(-0.0995532 -0.00871589 0)
(-0.0998434 -0.00523931 0)
(-0.0999911 -0.00175 0)
(0.0999891 -0.00322279 0)
(0.0997168 -0.00962384 0)
(0.0991619 -0.0159664 0)
(0.098315 -0.0222342 0)
(0.0971984 -0.0284114 0)
(0.0958345 -0.0344834 0)
(0.0942476 -0.0404383 0)
(0.0924672 -0.0462666 0)
(0.0905293 -0.0519631 0)
(0.0884741 -0.0575271 0)
(0.0863453 -0.0629637 0)
(0.084189 -0.0682845 0)
(0.0820538 -0.0735083 0)
(0.0799866 -0.0786597 0)
(0.0780256 -0.0837677 0)
(0.0761954 -0.0888618 0)
(0.0744977 -0.0939678 0)
(0.072879 -0.0991031 0)
(0.0712648 -0.104277 0)
(0.0696065 -0.10949 0)
(0.067829 -0.114725 0)
(0.0658496 -0.119958 0)
(0.0636195 -0.125153 0)
(0.0610654 -0.130269 0)
(0.0580756 -0.13526 0)
(0.0545942 -0.140091 0)
(0.0506223 -0.144724 0)
(0.0461469 -0.149124 0)
(0.0411446 -0.153264 0)
(0.0356212 -0.157121 0)
(0.0295964 -0.160678 0)
(0.0230882 -0.163922 0)
(0.0161311 -0.166847 0)
(0.00876057 -0.169448 0)
(0.00100857 -0.171723 0)
(-0.00709085 -0.173673 0)
(-0.0155041 -0.1753 0)
(-0.0241978 -0.17661 0)
(-0.0331394 -0.177608 0)
(-0.0423014 -0.178301 0)
(-0.0516554 -0.178696 0)
(-0.061163 -0.178799 0)
(-0.0707936 -0.178618 0)
(-0.0805287 -0.178164 0)
(-0.0903319 -0.177442 0)
(-0.100141 -0.176457 0)
(-0.109889 -0.175215 0)
(-0.119507 -0.17372 0)
(-0.128884 -0.171976 0)
(-0.137798 -0.169984 0)
(-0.145787 -0.167736 0)
(-0.152103 -0.165218 0)
(-0.156237 -0.16243 0)
(-0.158292 -0.159366 0)
(-0.158605 -0.156047 0)
(-0.157608 -0.152482 0)
(-0.155574 -0.148622 0)
(-0.152523 -0.14449 0)
(-0.148572 -0.140119 0)
(-0.143879 -0.135532 0)
(-0.138565 -0.130756 0)
(-0.132744 -0.125814 0)
(-0.126508 -0.120737 0)
(-0.119887 -0.11556 0)
(-0.113005 -0.110331 0)
(-0.106059 -0.105101 0)
(-0.0989951 -0.0999229 0)
(-0.0918445 -0.0948457 0)
(-0.085054 -0.0899478 0)
(-0.0790873 -0.0853247 0)
(-0.0740609 -0.0810509 0)
(-0.0699612 -0.0771657 0)
(-0.0669645 -0.0736933 0)
(-0.0651779 -0.0706267 0)
(-0.0645064 -0.0679159 0)
(-0.064774 -0.0654788 0)
(-0.0657817 -0.0632221 0)
(-0.0673384 -0.0610605 0)
(-0.0692728 -0.0589276 0)
(-0.0714409 -0.0567771 0)
(-0.0737307 -0.05458 0)
(-0.0760605 -0.0523198 0)
(-0.0783727 -0.0499886 0)
(-0.0806281 -0.0475832 0)
(-0.0828002 -0.0451041 0)
(-0.0848714 -0.0425531 0)
(-0.0868297 -0.0399335 0)
(-0.0886671 -0.0372488 0)
(-0.0903774 -0.0345032 0)
(-0.0919565 -0.0317008 0)