/*--------------------------------*- C++ -*----------------------------------*\
  =========                 |
  \\      /  F ield         | OpenFOAM: The Open Source CFD Toolbox
   \\    /   O peration     | Website:  https://openfoam.org
    \\  /    A nd           | Version:  10
     \\/     M anipulation  |
\*---------------------------------------------------------------------------*/
FoamFile
{
    format      ascii;
    class       volScalarField;
    location    "1";
    object      aC3H5;
}
// * * * * * * * * * * * * * * * * * * * * * * * * * * * * * * * * * * * * * //

dimensions      [0 0 0 0 0 0 0];

internalField   nonuniform List<scalar> 
4000
(
1.33458e-32
8.16325e-32
3.52787e-31
1.33211e-30
4.70448e-30
1.55542e-29
4.88313e-29
1.47635e-28
4.34424e-28
1.26027e-27
3.66001e-27
9.95244e-27
2.66677e-26
7.1586e-26
1.93617e-25
5.2724e-25
1.44127e-24
4.09841e-24
1.14938e-23
3.25752e-23
9.27324e-23
2.61902e-22
7.87795e-22
2.28176e-21
6.70216e-21
1.96415e-20
5.68209e-20
1.69518e-19
4.92407e-19
1.43031e-18
4.15431e-18
1.20468e-17
3.45928e-17
9.86701e-17
2.80005e-16
7.6831e-16
2.14059e-15
6.04179e-15
1.6663e-14
4.55392e-14
1.20167e-13
3.11281e-13
7.89321e-13
1.95665e-12
4.73757e-12
1.19927e-11
3.09316e-11
7.86589e-11
1.9496e-10
4.67202e-10
1.078e-09
2.4279e-09
4.9137e-09
1.0362e-08
2.11812e-08
4.12602e-08
7.54572e-08
1.35478e-07
2.33515e-07
3.86679e-07
6.19247e-07
9.49321e-07
1.4424e-06
2.17531e-06
3.26716e-06
4.87687e-06
7.18675e-06
1.03678e-05
1.48573e-05
2.16737e-05
3.29731e-05
5.3255e-05
9.18907e-05
0.000164594
0.000290178
0.000475433
0.000586312
0.00050483
0.000349988
0.000199669
0.000106496
5.6447e-05
3.02153e-05
1.6389e-05
8.95615e-06
4.89343e-06
2.65161e-06
1.41419e-06
7.37054e-07
3.7275e-07
1.81906e-07
8.2674e-08
3.62142e-08
1.49287e-08
5.87318e-09
2.39105e-09
1.06011e-09
4.92124e-10
2.2102e-10
5.99776e-11
1.38254e-32
7.96647e-32
2.91891e-31
9.89051e-31
3.22938e-30
1.02263e-29
3.15237e-29
9.50463e-29
2.72626e-28
7.64393e-28
2.12104e-27
5.88169e-27
1.63964e-26
4.61873e-26
1.31833e-25
3.82163e-25
1.11925e-24
3.32071e-24
9.95066e-24
2.99385e-23
9.05573e-23
2.75687e-22
8.37016e-22
2.53832e-21
7.69771e-21
2.31715e-20
6.95225e-20
2.07749e-19
6.1527e-19
1.80363e-18
5.27245e-18
1.60193e-17
4.64053e-17
1.31747e-16
3.71794e-16
1.03574e-15
2.92041e-15
8.00955e-15
2.18781e-14
5.84963e-14
1.54449e-13
3.95538e-13
1.00323e-12
2.47781e-12
6.2264e-12
1.59881e-11
4.07139e-11
1.01534e-10
2.47917e-10
5.91953e-10
1.26995e-09
2.58055e-09
5.5405e-09
1.14394e-08
2.30524e-08
4.48147e-08
7.97149e-08
1.40133e-07
2.37832e-07
3.88094e-07
6.15945e-07
9.38243e-07
1.41855e-06
2.13213e-06
3.19041e-06
4.75544e-06
7.00718e-06
1.01388e-05
1.45309e-05
2.119e-05
3.22489e-05
5.20606e-05
8.97588e-05
0.000161235
0.000285605
0.00047035
0.000586376
0.000506358
0.000351203
0.000200065
0.000106581
5.64316e-05
3.01809e-05
1.63525e-05
8.92412e-06
4.86757e-06
2.6321e-06
1.40035e-06
7.27297e-07
3.66389e-07
1.77977e-07
8.04809e-08
3.50456e-08
1.43754e-08
5.64582e-09
2.30889e-09
1.02888e-09
4.79913e-10
2.16486e-10
5.88192e-11
8.55353e-33
4.38772e-32
1.45725e-31
4.35002e-31
1.25389e-30
3.55402e-30
9.99123e-30
2.829e-29
8.25022e-29
2.5169e-28
7.88583e-28
2.52204e-27
8.17495e-27
2.66064e-26
8.66489e-26
2.81783e-25
9.12982e-25
2.90683e-24
9.64617e-24
3.07926e-23
9.83373e-23
3.11813e-22
9.80772e-22
3.05571e-21
9.42797e-21
2.88348e-20
8.7792e-20
2.67432e-19
7.96396e-19
2.35297e-18
7.09935e-18
2.06878e-17
5.89402e-17
1.69504e-16
4.83391e-16
1.34896e-15
3.70069e-15
1.0084e-14
2.72444e-14
7.18112e-14
1.87389e-13
4.62184e-13
1.21414e-12
2.94589e-12
7.61232e-12
1.91097e-11
4.86674e-11
1.20169e-10
2.84268e-10
6.65998e-10
1.4199e-09
2.90499e-09
6.19982e-09
1.2946e-08
2.5275e-08
4.66482e-08
8.17072e-08
1.42425e-07
2.39861e-07
3.88956e-07
6.13074e-07
9.28702e-07
1.39689e-06
2.08828e-06
3.11854e-06
4.64351e-06
6.83803e-06
9.8916e-06
1.42202e-05
2.07521e-05
3.16144e-05
5.09417e-05
8.77799e-05
0.000157872
0.000280803
0.000465145
0.000586658
0.000508047
0.000352326
0.000200314
0.000106562
5.63555e-05
3.01155e-05
1.62804e-05
8.86504e-06
4.82344e-06
2.60069e-06
1.37864e-06
7.1338e-07
3.57184e-07
1.72372e-07
7.74657e-08
3.35285e-08
1.36719e-08
5.36988e-09
2.21257e-09
9.9477e-10
4.67869e-10
2.11986e-10
5.7707e-11
6.4078e-33
3.22921e-32
1.08596e-31
3.32327e-31
9.95791e-31
3.00125e-30
9.21564e-30
2.96619e-29
9.55437e-29
3.10093e-28
1.02698e-27
3.38743e-27
1.13218e-26
3.72584e-26
1.22267e-25
3.99288e-25
1.29713e-24
4.18872e-24
1.3428e-23
4.27625e-23
1.3515e-22
4.2566e-22
1.32828e-21
4.11292e-21
1.27889e-20
3.89913e-20
1.18023e-19
3.53701e-19
1.02807e-18
3.14857e-18
9.16721e-18
2.66142e-17
7.62473e-17
2.17288e-16
6.14612e-16
1.70228e-15
4.63341e-15
1.26036e-14
3.32906e-14
8.90197e-14
2.30015e-13
5.77816e-13
1.47003e-12
3.56742e-12
8.81549e-12
2.25687e-11
5.66822e-11
1.3706e-10
3.29007e-10
7.09496e-10
1.49282e-09
3.3037e-09
7.05518e-09
1.42751e-08
2.73833e-08
4.77675e-08
8.35755e-08
1.44652e-07
2.41873e-07
3.89133e-07
6.09664e-07
9.1928e-07
1.37796e-06
2.05598e-06
3.06273e-06
4.55163e-06
6.69516e-06
9.70133e-06
1.39565e-05
2.0371e-05
3.10168e-05
4.99511e-05
8.61178e-05
0.000155126
0.000276447
0.000463465
0.00058774
0.000509669
0.000353123
0.000200286
0.00010643
5.62746e-05
3.01504e-05
1.60684e-05
8.75396e-06
4.76045e-06
2.56336e-06
1.35681e-06
7.01829e-07
3.45905e-07
1.6624e-07
7.44993e-08
3.20694e-08
1.30094e-08
5.10914e-09
2.12503e-09
9.63831e-10
4.56379e-10
2.07954e-10
5.67336e-11
9.82057e-33
5.00122e-32
1.72077e-31
5.41308e-31
1.66608e-30
5.13133e-30
1.59247e-29
4.98051e-29
1.56434e-28
5.04444e-28
1.6146e-27
5.21072e-27
1.70128e-26
5.49492e-26
1.79612e-25
5.77762e-25
1.85063e-24
5.99594e-24
1.91126e-23
6.05251e-23
1.90589e-22
5.9332e-22
1.83468e-21
5.63308e-21
1.71897e-20
5.20031e-20
1.56095e-19
4.70529e-19
1.39019e-18
4.06786e-18
1.18167e-17
3.48089e-17
9.87436e-17
2.79223e-16
7.77246e-16
2.13532e-15
5.76641e-15
1.52103e-14
4.08737e-14
1.06836e-13
2.73097e-13
6.85536e-13
1.68142e-12
4.18113e-12
1.02416e-11
2.59485e-11
6.37571e-11
1.55693e-10
3.4547e-10
7.34246e-10
1.65241e-09
3.61156e-09
7.71942e-09
1.57764e-08
2.81888e-08
4.90626e-08
8.54838e-08
1.46689e-07
2.43442e-07
3.89585e-07
6.07366e-07
9.12359e-07
1.36333e-06
2.02902e-06
3.01523e-06
4.47062e-06
6.58605e-06
9.55982e-06
1.37702e-05
2.0093e-05
3.05917e-05
4.92488e-05
8.48394e-05
0.000152894
0.000273235
0.000460122
0.000588143
0.000510878
0.000353672
0.000200212
0.000106275
5.61471e-05
3.00624e-05
1.6013e-05
8.70983e-06
4.72767e-06
2.54007e-06
1.3409e-06
6.91271e-07
3.39546e-07
1.62378e-07
7.25066e-08
3.10458e-08
1.25351e-08
4.92712e-09
2.06423e-09
9.42968e-10
4.49091e-10
2.0612e-10
5.6287e-11
1.73107e-32
9.0801e-32
3.18082e-31
1.02206e-30
3.2059e-30
9.99911e-30
3.11792e-29
9.74301e-29
3.05091e-28
9.57994e-28
3.00486e-27
9.40687e-27
2.99963e-26
9.42789e-26
2.95941e-25
9.38258e-25
2.94424e-24
9.22883e-24
2.89247e-23
8.96707e-23
2.80349e-22
8.57591e-22
2.6017e-21
7.84339e-21
2.36838e-20
7.16264e-20
2.11894e-19
6.1991e-19
1.83439e-18
5.28417e-18
1.50371e-17
4.45446e-17
1.24438e-16
3.45885e-16
9.41753e-16
2.59527e-15
6.88079e-15
1.78422e-14
4.8551e-14
1.29527e-13
3.23115e-13
7.93166e-13
1.94815e-12
4.76777e-12
1.17963e-11
2.90243e-11
7.27852e-11
1.6419e-10
3.59922e-10
8.04725e-10
1.79631e-09
3.91416e-09
8.19492e-09
1.65525e-08
2.93659e-08
5.05393e-08
8.69715e-08
1.48472e-07
2.44619e-07
3.89333e-07
6.04336e-07
9.05344e-07
1.34996e-06
2.00612e-06
2.97926e-06
4.41726e-06
6.5008e-06
9.43267e-06
1.36002e-05
1.98716e-05
3.0273e-05
4.86995e-05
8.38603e-05
0.000151344
0.000270937
0.000457438
0.000588432
0.000511923
0.000354282
0.000200288
0.000106234
5.6091e-05
3.00179e-05
1.59951e-05
8.69229e-06
4.71211e-06
2.5274e-06
1.33131e-06
6.8439e-07
3.35479e-07
1.59804e-07
7.12147e-08
3.037e-08
1.22209e-08
4.81131e-09
2.02701e-09
9.30926e-10
4.45159e-10
2.04974e-10
5.60469e-11
2.81329e-32
1.44291e-31
5.10672e-31
1.63097e-30
5.06152e-30
1.58702e-29
4.90833e-29
1.52359e-28
4.74047e-28
1.47591e-27
4.60055e-27
1.43524e-26
4.47698e-26
1.39501e-25
4.35034e-25
1.35894e-24
4.24555e-24
1.31463e-23
4.05987e-23
1.25951e-22
3.8557e-22
1.1708e-21
3.49234e-21
1.06687e-20
3.15842e-20
9.30371e-20
2.73119e-19
7.76177e-19
2.32452e-18
6.71676e-18
1.91025e-17
5.39092e-17
1.51506e-16
4.20154e-16
1.1394e-15
3.10159e-15
8.3782e-15
2.14986e-14
5.81545e-14
1.49264e-13
3.73051e-13
9.19963e-13
2.22466e-12
5.39507e-12
1.30564e-11
3.2288e-11
7.74233e-11
1.6681e-10
3.85359e-10
8.68372e-10
1.91083e-09
4.11281e-09
8.53376e-09
1.70883e-08
3.01398e-08
5.16344e-08
8.81591e-08
1.49556e-07
2.45256e-07
3.88685e-07
6.01249e-07
8.98483e-07
1.33736e-06
1.98537e-06
2.94657e-06
4.36946e-06
6.4323e-06
9.33194e-06
1.34663e-05
1.96797e-05
2.99801e-05
4.81981e-05
8.29673e-05
0.000149795
0.000268585
0.000454681
0.000588704
0.000513252
0.000355401
0.000200764
0.000106428
5.61669e-05
3.00469e-05
1.60161e-05
8.69854e-06
4.71137e-06
2.52398e-06
1.32741e-06
6.80971e-07
3.33346e-07
1.58328e-07
7.0475e-08
2.99676e-08
1.20301e-08
4.74222e-09
2.00666e-09
9.25411e-10
4.43858e-10
2.0484e-10
5.60606e-11
4.08324e-32
2.10417e-31
7.40314e-31
2.3845e-30
7.47942e-30
2.32729e-29
7.22348e-29
2.24102e-28
6.95277e-28
2.15704e-27
6.68665e-27
2.07322e-26
6.43403e-26
1.99611e-25
6.16641e-25
1.90442e-24
5.87863e-24
1.80671e-23
5.53445e-23
1.69077e-22
5.14376e-22
1.55207e-21
4.65265e-21
1.38439e-20
4.09249e-20
1.20261e-19
3.50199e-19
1.00487e-18
2.84829e-18
8.07736e-18
2.31849e-17
6.60185e-17
1.83342e-16
5.02692e-16
1.34639e-15
3.62145e-15
9.68818e-15
2.46089e-14
6.54557e-14
1.7008e-13
4.22919e-13
1.0281e-12
2.51553e-12
6.02536e-12
1.46202e-11
3.57275e-11
8.05288e-11
1.80544e-10
4.14437e-10
9.27195e-10
2.03699e-09
4.32611e-09
8.87463e-09
1.76002e-08
3.08337e-08
5.24802e-08
8.90578e-08
1.50285e-07
2.45317e-07
3.87284e-07
5.97277e-07
8.90948e-07
1.32417e-06
1.96501e-06
2.91347e-06
4.3148e-06
6.36203e-06
9.2346e-06
1.33378e-05
1.94882e-05
2.96774e-05
4.76728e-05
8.19844e-05
0.000148062
0.00026586
0.00045131
0.00058882
0.000514938
0.000357174
0.000201737
0.000106908
5.63999e-05
3.01616e-05
1.60799e-05
8.72941e-06
4.72519e-06
2.52931e-06
1.32877e-06
6.80691e-07
3.32901e-07
1.57799e-07
7.01866e-08
2.97857e-08
1.19376e-08
4.70985e-09
1.99932e-09
9.24732e-10
4.44509e-10
2.05473e-10
5.62686e-11
5.40646e-32
2.79717e-31
9.87859e-31
3.18684e-30
1.00125e-29
3.11583e-29
9.65699e-29
2.98917e-28
9.25056e-28
2.87354e-27
8.87798e-27
2.73806e-26
8.43915e-26
2.61199e-25
8.02405e-25
2.46082e-24
7.54537e-24
2.30389e-23
7.00107e-23
2.14768e-22
6.48558e-22
1.92824e-21
5.82513e-21
1.71602e-20
5.04826e-20
1.48634e-19
4.31587e-19
1.24269e-18
3.53944e-18
9.93135e-18
2.78582e-17
7.81738e-17
2.15447e-16
5.88192e-16
1.58442e-15
4.2023e-15
1.10663e-14
2.78626e-14
7.36085e-14
1.88624e-13
4.70206e-13
1.15006e-12
2.7812e-12
6.7032e-12
1.54891e-11
3.51791e-11
8.4282e-11
1.95564e-10
4.43648e-10
9.89901e-10
2.14251e-09
4.50167e-09
9.15395e-09
1.80121e-08
3.13419e-08
5.30768e-08
8.96356e-08
1.50572e-07
2.44779e-07
3.85111e-07
5.92106e-07
8.80794e-07
1.30765e-06
1.93716e-06
2.87274e-06
4.26081e-06
6.27772e-06
9.128e-06
1.31835e-05
1.92673e-05
2.93039e-05
4.70368e-05
8.08687e-05
0.000146098
0.000262756
0.000447358
0.00058884
0.000517048
0.000359665
0.000203244
0.000107687
5.67933e-05
3.03625e-05
1.61857e-05
8.78381e-06
4.75256e-06
2.54254e-06
1.33478e-06
6.83139e-07
3.33882e-07
1.58059e-07
7.0268e-08
2.97821e-08
1.1924e-08
4.70813e-09
2.00264e-09
9.27994e-10
4.46701e-10
2.06698e-10
5.66259e-11
6.53079e-32
3.55781e-31
1.2401e-30
3.98253e-30
1.2633e-29
3.92979e-29
1.22177e-28
3.78606e-28
1.17099e-27
3.61554e-27
1.1161e-26
3.45261e-26
1.06106e-25
3.26048e-25
1.00127e-24
3.03966e-24
9.50315e-24
2.88338e-23
8.73471e-23
2.63159e-22
7.8589e-22
2.37601e-21
7.04355e-21
2.07655e-20
6.07737e-20
1.76935e-19
5.11713e-19
1.4651e-18
4.21938e-18
1.19436e-17
3.33552e-17
9.1758e-17
2.49703e-16
6.74279e-16
1.79268e-15
4.70615e-15
1.22016e-14
3.08629e-14
8.2358e-14
2.07397e-13
5.07153e-13
1.23542e-12
2.97183e-12
6.92633e-12
1.58179e-11
3.84069e-11
9.06469e-11
2.09064e-10
4.74402e-10
1.04612e-09
2.2448e-09
4.67718e-09
9.41945e-09
1.82801e-08
3.16865e-08
5.35257e-08
8.99642e-08
1.50522e-07
2.4388e-07
3.82691e-07
5.87183e-07
8.71912e-07
1.29095e-06
1.91111e-06
2.83234e-06
4.19954e-06
6.19628e-06
9.02322e-06
1.30383e-05
1.90435e-05
2.89484e-05
4.64028e-05
7.9671e-05
0.000143866
0.00025893
0.000442349
0.000588701
0.000519724
0.000362907
0.000205267
0.000108743
5.73314e-05
3.06394e-05
1.63279e-05
8.85774e-06
4.79112e-06
2.56227e-06
1.34457e-06
6.87796e-07
3.36001e-07
1.58945e-07
7.06389e-08
2.9917e-08
1.19708e-08
4.72844e-09
2.01368e-09
9.34146e-10
4.50029e-10
2.0836e-10
5.70933e-11
7.9028e-32
4.28272e-31
1.49927e-30
4.83635e-30
1.51983e-29
4.73038e-29
1.46712e-28
4.54111e-28
1.40167e-27
4.32716e-27
1.35193e-26
4.16236e-26
1.27844e-25
3.94022e-25
1.21065e-24
3.69509e-24
1.13722e-23
3.4392e-23
1.03607e-22
3.12072e-22
9.24172e-22
2.79169e-21
8.24098e-21
2.41889e-20
6.99305e-20
2.05109e-19
5.87144e-19
1.67838e-18
4.81284e-18
1.36061e-17
3.79107e-17
1.04115e-16
2.81622e-16
7.61405e-16
2.00702e-15
5.24042e-15
1.35309e-14
3.41453e-14
9.01794e-14
2.24185e-13
5.44892e-13
1.3072e-12
3.07772e-12
7.12252e-12
1.71882e-11
4.12649e-11
9.7133e-11
2.24258e-10
5.04762e-10
1.10841e-09
2.3722e-09
4.93478e-09
9.98856e-09
1.83343e-08
3.19271e-08
5.38155e-08
9.00521e-08
1.50118e-07
2.42447e-07
3.79041e-07
5.80121e-07
8.60516e-07
1.27548e-06
1.88642e-06
2.79439e-06
4.14285e-06
6.1153e-06
8.90964e-06
1.28917e-05
1.88269e-05
2.85775e-05
4.57401e-05
7.83861e-05
0.000141525
0.000255202
0.000437535
0.000588424
0.000522416
0.000366427
0.000207569
0.000109967
5.79627e-05
3.09676e-05
1.64959e-05
8.94735e-06
4.83819e-06
2.5868e-06
1.35714e-06
6.94102e-07
3.38974e-07
1.60299e-07
7.12259e-08
3.01546e-08
1.20626e-08
4.76534e-09
2.03048e-09
9.42417e-10
4.54174e-10
2.10329e-10
5.76374e-11
9.50798e-32
4.95175e-31
1.74353e-30
5.62189e-30
1.76478e-29
5.48922e-29
1.70297e-28
5.28212e-28
1.63442e-27
5.08558e-27
1.57457e-26
4.85726e-26
1.4931e-25
4.60204e-25
1.41787e-24
4.32822e-24
1.31622e-23
3.99107e-23
1.20341e-22
3.61034e-22
1.07647e-21
3.18686e-21
9.44236e-21
2.76255e-20
8.02791e-20
2.31369e-19
6.63452e-19
1.86876e-18
5.37241e-18
1.50184e-17
4.08473e-17
1.15062e-16
3.12625e-16
8.30093e-16
2.24224e-15
5.78625e-15
1.47061e-14
3.70243e-14
9.53325e-14
2.41672e-13
5.818e-13
1.38569e-12
3.24949e-12
7.61847e-12
1.83438e-11
4.38423e-11
1.02871e-10
2.36526e-10
5.30016e-10
1.15838e-09
2.46816e-09
5.11253e-09
1.02753e-08
1.83098e-08
3.2132e-08
5.4023e-08
8.99847e-08
1.49543e-07
2.4085e-07
3.76171e-07
5.74587e-07
8.51099e-07
1.25864e-06
1.86175e-06
2.75757e-06
4.08871e-06
6.03925e-06
8.80115e-06
1.27452e-05
1.86282e-05
2.81818e-05
4.50624e-05
7.71439e-05
0.000139277
0.000251489
0.000432506
0.000587991
0.000525299
0.00037024
0.000210116
0.000111317
5.86582e-05
3.133e-05
1.6681e-05
9.04684e-06
4.89204e-06
2.61564e-06
1.37227e-06
7.01772e-07
3.42609e-07
1.62008e-07
7.19835e-08
3.04749e-08
1.21894e-08
4.81492e-09
2.05146e-09
9.52134e-10
4.58842e-10
2.12485e-10
5.82279e-11
1.047e-31
5.57582e-31
1.97065e-30
6.3477e-30
1.99324e-29
6.20683e-29
1.92826e-28
5.98427e-28
1.86098e-27
5.77847e-27
1.7892e-26
5.52092e-26
1.69623e-25
5.24375e-25
1.60089e-24
4.85922e-24
1.44805e-23
4.53386e-23
1.35819e-22
4.07694e-22
1.21471e-21
3.59761e-21
1.05906e-20
3.05937e-20
9.01627e-20
2.57559e-19
7.3055e-19
2.05977e-18
5.81098e-18
1.66615e-17
4.56387e-17
1.26444e-16
3.4099e-16
9.17238e-16
2.4057e-15
6.19499e-15
1.56559e-14
3.92418e-14
1.00767e-13
2.56607e-13
6.19518e-13
1.47972e-12
3.43395e-12
8.19446e-12
1.93156e-11
4.60531e-11
1.07776e-10
2.45831e-10
5.47126e-10
1.18821e-09
2.5159e-09
5.17993e-09
1.03418e-08
1.82811e-08
3.23841e-08
5.41862e-08
8.9824e-08
1.48779e-07
2.39122e-07
3.72792e-07
5.69333e-07
8.42163e-07
1.24374e-06
1.83789e-06
2.72099e-06
4.03446e-06
5.96329e-06
8.6929e-06
1.2595e-05
1.8405e-05
2.78148e-05
4.44346e-05
7.59378e-05
0.000136996
0.000247575
0.000427225
0.000587323
0.000528183
0.00037416
0.000212799
0.000112782
5.9426e-05
3.17324e-05
1.68828e-05
9.15474e-06
4.95004e-06
2.64667e-06
1.38867e-06
7.10334e-07
3.46739e-07
1.63994e-07
7.28478e-08
3.08402e-08
1.23353e-08
4.87137e-09
2.07514e-09
9.63003e-10
4.64015e-10
2.14849e-10
5.88702e-11
1.1208e-31
6.27908e-31
2.20372e-30
7.09658e-30
2.23154e-29
6.96878e-29
2.17128e-28
6.73882e-28
2.08724e-27
6.45484e-27
1.99162e-26
6.12133e-26
1.90226e-25
5.76653e-25
1.76572e-24
5.40566e-24
1.65705e-23
4.99636e-23
1.50137e-22
4.47685e-22
1.32363e-21
3.85361e-21
1.16357e-20
3.37498e-20
9.76076e-20
2.79404e-19
8.0313e-19
2.26425e-18
6.37355e-18
1.77613e-17
4.8611e-17
1.35906e-16
3.61211e-16
9.74086e-16
2.53945e-15
6.54313e-15
1.65825e-14
4.08089e-14
1.06469e-13
2.71249e-13
6.46623e-13
1.53378e-12
3.61214e-12
8.63103e-12
2.01583e-11
4.79599e-11
1.1138e-10
2.52589e-10
5.593e-10
1.20866e-09
2.5466e-09
5.22161e-09
1.03695e-08
1.8245e-08
3.2558e-08
5.42886e-08
8.9629e-08
1.48106e-07
2.37647e-07
3.69699e-07
5.63499e-07
8.32861e-07
1.23017e-06
1.81616e-06
2.68791e-06
3.98491e-06
5.89211e-06
8.59928e-06
1.2456e-05
1.81967e-05
2.74738e-05
4.38278e-05
7.48134e-05
0.00013492
0.000244053
0.000422204
0.000586573
0.000531048
0.000378205
0.000215622
0.000114295
6.02105e-05
3.21415e-05
1.70896e-05
9.26494e-06
5.00915e-06
2.67827e-06
1.40539e-06
7.19034e-07
3.50933e-07
1.6602e-07
7.37481e-08
3.12305e-08
1.24937e-08
4.93205e-09
2.09987e-09
9.74044e-10
4.6916e-10
2.17166e-10
5.94974e-11
1.32052e-31
6.82797e-31
2.40644e-30
7.77007e-30
2.44192e-29
7.61485e-29
2.38125e-28
7.36984e-28
2.26974e-27
6.94689e-27
2.16872e-26
6.76655e-26
2.06763e-25
6.26591e-25
1.95333e-24
5.90469e-24
1.77879e-23
5.42994e-23
1.6234e-22
4.79123e-22
1.45259e-21
4.27257e-21
1.25377e-20
3.63116e-20
1.05733e-19
3.01194e-19
8.57598e-19
2.40913e-18
6.73638e-18
1.89839e-17
5.24667e-17
1.43429e-16
3.8097e-16
1.02279e-15
2.63274e-15
6.70921e-15
1.74099e-14
4.27001e-14
1.10425e-13
2.76938e-13
6.85079e-13
1.61817e-12
3.8144e-12
8.83093e-12
2.08425e-11
4.93338e-11
1.14111e-10
2.57794e-10
5.6875e-10
1.22481e-09
2.57128e-09
5.2482e-09
1.0383e-08
1.82115e-08
3.26563e-08
5.43056e-08
8.93243e-08
1.47317e-07
2.35959e-07
3.66853e-07
5.58488e-07
8.24615e-07
1.21696e-06
1.79656e-06
2.65773e-06
3.93942e-06
5.82659e-06
8.50732e-06
1.23295e-05
1.80094e-05
2.71692e-05
4.32882e-05
7.37929e-05
0.000132997
0.000240854
0.000417638
0.000585777
0.00053374
0.000381939
0.000218246
0.000115709
6.0945e-05
3.25244e-05
1.72822e-05
9.36792e-06
5.06457e-06
2.70801e-06
1.42116e-06
7.2728e-07
3.54915e-07
1.67948e-07
7.45999e-08
3.15995e-08
1.26437e-08
4.99006e-09
2.12323e-09
9.84353e-10
4.7392e-10
2.19297e-10
6.00726e-11
1.42134e-31
7.35596e-31
2.59393e-30
8.38097e-30
2.64166e-29
8.23758e-29
2.56046e-28
7.94269e-28
2.45739e-27
7.57311e-27
2.33362e-26
7.20988e-26
2.21491e-25
6.79545e-25
2.0816e-24
6.33684e-24
1.91046e-23
5.8024e-23
1.73267e-22
5.16158e-22
1.54091e-21
4.54523e-21
1.33417e-20
3.88393e-20
1.1178e-19
3.18389e-19
9.07025e-19
2.53892e-18
7.02969e-18
1.98242e-17
5.42117e-17
1.48517e-16
4.00432e-16
1.05835e-15
2.75946e-15
7.12146e-15
1.80753e-14
4.59993e-14
1.15863e-13
2.93917e-13
7.04989e-13
1.64727e-12
3.89354e-12
9.01985e-12
2.13722e-11
5.04043e-11
1.16196e-10
2.61665e-10
5.75496e-10
1.2355e-09
2.58684e-09
5.26572e-09
1.03904e-08
1.8181e-08
3.27148e-08
5.42891e-08
8.90256e-08
1.46526e-07
2.34438e-07
3.64106e-07
5.54074e-07
8.17759e-07
1.20638e-06
1.78069e-06
2.63277e-06
3.90168e-06
5.77251e-06
8.43233e-06
1.22209e-05
1.785e-05
2.69119e-05
4.28317e-05
7.29286e-05
0.000131401
0.000238171
0.000413794
0.000585008
0.000535994
0.000385127
0.000220521
0.000116938
6.15831e-05
3.28579e-05
1.74498e-05
9.45768e-06
5.11295e-06
2.73402e-06
1.43501e-06
7.34545e-07
3.58437e-07
1.69678e-07
7.53626e-08
3.1931e-08
1.27788e-08
5.04204e-09
2.14402e-09
9.9345e-10
4.7809e-10
2.21152e-10
6.05722e-11
1.4029e-31
7.7731e-31
2.7336e-30
8.8251e-30
2.7759e-29
8.66421e-29
2.69825e-28
8.38447e-28
2.59331e-27
7.9872e-27
2.47319e-26
7.5976e-26
2.33134e-25
7.14653e-25
2.18552e-24
6.66141e-24
2.03363e-23
6.12775e-23
1.83383e-22
5.45987e-22
1.6272e-21
4.76972e-21
1.40481e-20
4.07043e-20
1.17147e-19
3.34265e-19
9.44771e-19
2.64194e-18
7.36157e-18
2.06237e-17
5.64982e-17
1.5586e-16
4.16192e-16
1.09761e-15
2.8587e-15
7.39913e-15
1.88663e-14
4.73874e-14
1.18559e-13
2.96662e-13
7.15523e-13
1.68961e-12
3.89698e-12
9.13743e-12
2.17989e-11
5.1233e-11
1.17791e-10
2.64631e-10
5.80691e-10
1.24381e-09
2.59867e-09
5.2785e-09
1.0395e-08
1.81588e-08
3.27455e-08
5.42564e-08
8.8765e-08
1.45943e-07
2.3334e-07
3.62187e-07
5.50882e-07
8.12327e-07
1.19761e-06
1.76688e-06
2.61232e-06
3.87133e-06
5.72901e-06
8.37115e-06
1.21342e-05
1.77252e-05
2.67135e-05
4.24835e-05
7.22737e-05
0.000130169
0.000236084
0.000410793
0.000584335
0.000537768
0.000387664
0.000222352
0.00011793
6.20979e-05
3.31262e-05
1.75847e-05
9.52996e-06
5.15197e-06
2.75504e-06
1.44622e-06
7.40438e-07
3.61297e-07
1.71081e-07
7.59814e-08
3.22006e-08
1.28886e-08
5.08358e-09
2.16064e-09
1.00073e-09
4.81432e-10
2.22639e-10
6.09727e-11
1.53323e-31
7.96537e-31
2.80624e-30
9.15592e-30
2.87594e-29
8.96489e-29
2.78693e-28
8.65707e-28
2.68525e-27
8.29893e-27
2.55848e-26
7.87261e-26
2.42058e-25
7.44507e-25
2.28699e-24
6.97084e-24
2.11388e-23
6.37699e-23
1.91256e-22
5.69926e-22
1.68696e-21
4.95542e-21
1.44509e-20
4.16789e-20
1.21168e-19
3.45616e-19
9.8114e-19
2.7498e-18
7.74669e-18
2.13174e-17
5.8153e-17
1.56961e-16
4.25458e-16
1.11934e-15
2.94695e-15
7.63233e-15
1.93035e-14
4.77102e-14
1.20053e-13
2.99261e-13
7.18558e-13
1.68945e-12
3.93948e-12
9.24399e-12
2.21025e-11
5.183e-11
1.18936e-10
2.6676e-10
5.84461e-10
1.25008e-09
2.60732e-09
5.28852e-09
1.03996e-08
1.81453e-08
3.27653e-08
5.42337e-08
8.85907e-08
1.45535e-07
2.32559e-07
3.60822e-07
5.48626e-07
8.08691e-07
1.19184e-06
1.75799e-06
2.59884e-06
3.85092e-06
5.69963e-06
8.33009e-06
1.2074e-05
1.76387e-05
2.65753e-05
4.22369e-05
7.18065e-05
0.000129307
0.00023463
0.000408696
0.000583824
0.000539012
0.000389457
0.000223657
0.000118638
6.24679e-05
3.33188e-05
1.76814e-05
9.58171e-06
5.17989e-06
2.77008e-06
1.45424e-06
7.44656e-07
3.63349e-07
1.72088e-07
7.64254e-08
3.23943e-08
1.29677e-08
5.1137e-09
2.17262e-09
1.00595e-09
4.83813e-10
2.23694e-10
6.12563e-11
1.56024e-31
8.22523e-31
2.88919e-30
9.32286e-30
2.93619e-29
9.188e-29
2.8593e-28
8.88222e-28
2.75649e-27
8.53937e-27
2.6376e-26
8.12505e-26
2.49647e-25
7.6556e-25
2.34576e-24
7.14203e-24
2.16336e-23
6.52047e-23
1.94755e-22
5.77917e-22
1.71018e-21
5.02129e-21
1.47867e-20
4.26651e-20
1.23647e-19
3.51599e-19
9.97718e-19
2.82276e-18
7.86899e-18
2.17482e-17
5.94882e-17
1.63307e-16
4.33068e-16
1.13893e-15
2.99536e-15
7.649e-15
1.95282e-14
4.84332e-14
1.24803e-13
3.07764e-13
7.28602e-13
1.71577e-12
3.94277e-12
9.39348e-12
2.22672e-11
5.21943e-11
1.19691e-10
2.68185e-10
5.8696e-10
1.25412e-09
2.61306e-09
5.29537e-09
1.04046e-08
1.81415e-08
3.27847e-08
5.42339e-08
8.85163e-08
1.45347e-07
2.32183e-07
3.60142e-07
5.47461e-07
8.06854e-07
1.18896e-06
1.75351e-06
2.59189e-06
3.84042e-06
5.68436e-06
8.30829e-06
1.20424e-05
1.75928e-05
2.65014e-05
4.21081e-05
7.15641e-05
0.000128852
0.000233861
0.000407585
0.000583534
0.000539669
0.000390412
0.000224358
0.00011902
6.26674e-05
3.34233e-05
1.77339e-05
9.60988e-06
5.19511e-06
2.77828e-06
1.45861e-06
7.46957e-07
3.64468e-07
1.72637e-07
7.6667e-08
3.24996e-08
1.30106e-08
5.13019e-09
2.17912e-09
1.00877e-09
4.85093e-10
2.2426e-10
6.14088e-11
1.54368e-31
8.22294e-31
2.94191e-30
9.46294e-30
2.97631e-29
9.2803e-29
2.88402e-28
8.95577e-28
2.78253e-27
8.66245e-27
2.67574e-26
8.23922e-26
2.52216e-25
7.62669e-25
2.39264e-24
7.25127e-24
2.19322e-23
6.60192e-23
1.97747e-22
5.87538e-22
1.74981e-21
5.14474e-21
1.5032e-20
4.35038e-20
1.24368e-19
3.58527e-19
1.01329e-18
2.85647e-18
8.04042e-18
2.23232e-17
6.0882e-17
1.63625e-16
4.41537e-16
1.17548e-15
3.04777e-15
7.77658e-15
1.98408e-14
4.87312e-14
1.25726e-13
3.05961e-13
7.39554e-13
1.7303e-12
4.02011e-12
9.40905e-12
2.23641e-11
5.24164e-11
1.2014e-10
2.69047e-10
5.88535e-10
1.25684e-09
2.61747e-09
5.30159e-09
1.0412e-08
1.81475e-08
3.2813e-08
5.42623e-08
8.85307e-08
1.45339e-07
2.3214e-07
3.60042e-07
5.47274e-07
8.06538e-07
1.18846e-06
1.75272e-06
2.59067e-06
3.83856e-06
5.68168e-06
8.30451e-06
1.20369e-05
1.7585e-05
2.64889e-05
4.20865e-05
7.15236e-05
0.000128779
0.000233739
0.000407409
0.000583491
0.000539769
0.000390556
0.000224465
0.000119078
6.26974e-05
3.34389e-05
1.77418e-05
9.61407e-06
5.19736e-06
2.77949e-06
1.45925e-06
7.4729e-07
3.64627e-07
1.72714e-07
7.67012e-08
3.25143e-08
1.30166e-08
5.1324e-09
2.18003e-09
1.00916e-09
4.85275e-10
2.2434e-10
6.14301e-11
1.54088e-31
8.36276e-31
2.94821e-30
9.51635e-30
2.99706e-29
9.36191e-29
2.91472e-28
9.05651e-28
2.80884e-27
8.69324e-27
2.68462e-26
8.27166e-26
2.53961e-25
7.75201e-25
2.39905e-24
7.28285e-24
2.19859e-23
6.56247e-23
1.99541e-22
5.92409e-22
1.76152e-21
5.18638e-21
1.51782e-20
4.41078e-20
1.26819e-19
3.60809e-19
1.00886e-18
2.90683e-18
8.0841e-18
2.2386e-17
6.14477e-17
1.6623e-16
4.47195e-16
1.1761e-15
3.07541e-15
7.83518e-15
1.99631e-14
4.93133e-14
1.26505e-13
3.07809e-13
7.42909e-13
1.7169e-12
4.0674e-12
9.43764e-12
2.2359e-11
5.25038e-11
1.20324e-10
2.6943e-10
5.89341e-10
1.2585e-09
2.62082e-09
5.30811e-09
1.04242e-08
1.81679e-08
3.28578e-08
5.43355e-08
8.86745e-08
1.45585e-07
2.3254e-07
3.60682e-07
5.48282e-07
8.08098e-07
1.19086e-06
1.75635e-06
2.59614e-06
3.84669e-06
5.69328e-06
8.32058e-06
1.20598e-05
1.76181e-05
2.65422e-05
4.21803e-05
7.17009e-05
0.000129109
0.000234298
0.000408212
0.000583693
0.000539282
0.000389854
0.000223952
0.000118799
6.25518e-05
3.33628e-05
1.77036e-05
9.5936e-06
5.18629e-06
2.7735e-06
1.45605e-06
7.45595e-07
3.63803e-07
1.72307e-07
7.65208e-08
3.24351e-08
1.29841e-08
5.12004e-09
2.17513e-09
1.00704e-09
4.84308e-10
2.23913e-10
6.13153e-11
1.55778e-31
8.28917e-31
2.90822e-30
9.40206e-30
2.96564e-29
9.27866e-29
2.89192e-28
8.98716e-28
2.78502e-27
8.60436e-27
2.64964e-26
8.13537e-26
2.49413e-25
7.64905e-25
2.34412e-24
7.1279e-24
2.14591e-23
6.48447e-23
1.95839e-22
5.82625e-22
1.7179e-21
5.12483e-21
1.49452e-20
4.37429e-20
1.2544e-19
3.56102e-19
1.00453e-18
2.86005e-18
7.95605e-18
2.20286e-17
6.02013e-17
1.62433e-16
4.45503e-16
1.16407e-15
2.96562e-15
7.65328e-15
1.95874e-14
4.77961e-14
1.2192e-13
3.09817e-13
7.24161e-13
1.73029e-12
3.9674e-12
9.4562e-12
2.23488e-11
5.24233e-11
1.20185e-10
2.6925e-10
5.8923e-10
1.25886e-09
2.62273e-09
5.31411e-09
1.04398e-08
1.82014e-08
3.29195e-08
5.4454e-08
8.89459e-08
1.46075e-07
2.3336e-07
3.6201e-07
5.50405e-07
8.11416e-07
1.19597e-06
1.76415e-06
2.60792e-06
3.86421e-06
5.71827e-06
8.3554e-06
1.21094e-05
1.76899e-05
2.66577e-05
4.23847e-05
7.20861e-05
0.000129833
0.000235522
0.000409975
0.00058413
0.000538232
0.000388336
0.000222844
0.000118197
6.22374e-05
3.31984e-05
1.76211e-05
9.54931e-06
5.16233e-06
2.76057e-06
1.44913e-06
7.41944e-07
3.62023e-07
1.7143e-07
7.61343e-08
3.22657e-08
1.29149e-08
5.09414e-09
2.16483e-09
1.00255e-09
4.82254e-10
2.23002e-10
6.10705e-11
1.5726e-31
8.11664e-31
2.85671e-30
9.12011e-30
2.92318e-29
9.08752e-29
2.82635e-28
8.7752e-28
2.7186e-27
8.40607e-27
2.59408e-26
7.9864e-26
2.45224e-25
7.51277e-25
2.29285e-24
6.95259e-24
2.12527e-23
6.39174e-23
1.91496e-22
5.70926e-22
1.69659e-21
5.03043e-21
1.47277e-20
4.27333e-20
1.22918e-19
3.50526e-19
9.91352e-19
2.78746e-18
7.86206e-18
2.17478e-17
5.96049e-17
1.60862e-16
4.34424e-16
1.14405e-15
2.98779e-15
7.69876e-15
1.94465e-14
4.77582e-14
1.22076e-13
3.06797e-13
7.28187e-13
1.69626e-12
3.9425e-12
9.44462e-12
2.22328e-11
5.21771e-11
1.19757e-10
2.68572e-10
5.88347e-10
1.25819e-09
2.6238e-09
5.3209e-09
1.04614e-08
1.82516e-08
3.30044e-08
5.4628e-08
8.9365e-08
1.46849e-07
2.34672e-07
3.64147e-07
5.53801e-07
8.16703e-07
1.20409e-06
1.77641e-06
2.62637e-06
3.89161e-06
5.75731e-06
8.40966e-06
1.2187e-05
1.78016e-05
2.6837e-05
4.27011e-05
7.26865e-05
0.000130946
0.000237399
0.000412672
0.000584759
0.000536639
0.000386044
0.000221183
0.000117293
6.17652e-05
3.2952e-05
1.74975e-05
9.48306e-06
5.12654e-06
2.74126e-06
1.43881e-06
7.36502e-07
3.59376e-07
1.70126e-07
7.55585e-08
3.20138e-08
1.28118e-08
5.05475e-09
2.14924e-09
9.95787e-10
4.79177e-10
2.2164e-10
6.07045e-11
1.47102e-31
7.84017e-31
2.76136e-30
8.94486e-30
2.80822e-29
8.74016e-29
2.72001e-28
8.4814e-28
2.62681e-27
8.11527e-27
2.50138e-26
7.69488e-26
2.3653e-25
7.28997e-25
2.2212e-24
6.7362e-24
2.03471e-23
6.11665e-23
1.83242e-22
5.48499e-22
1.63549e-21
4.76587e-21
1.41803e-20
4.07753e-20
1.19424e-19
3.40181e-19
9.62377e-19
2.69974e-18
7.61605e-18
2.12452e-17
5.7277e-17
1.59319e-16
4.23574e-16
1.11795e-15
2.92561e-15
7.50237e-15
1.90984e-14
4.73198e-14
1.18319e-13
2.9488e-13
7.20059e-13
1.68307e-12
3.8741e-12
9.31534e-12
2.20568e-11
5.17958e-11
1.19022e-10
2.67284e-10
5.86388e-10
1.25595e-09
2.62311e-09
5.32707e-09
1.04873e-08
1.83178e-08
3.31066e-08
5.48432e-08
8.99011e-08
1.47856e-07
2.36398e-07
3.66984e-07
5.58356e-07
8.23883e-07
1.21529e-06
1.79293e-06
2.65091e-06
3.92791e-06
5.80894e-06
8.48138e-06
1.22884e-05
1.79489e-05
2.70703e-05
4.31125e-05
7.34631e-05
0.000132398
0.00023986
0.000416209
0.000585509
0.00053456
0.000383074
0.000219046
0.000116131
6.11613e-05
3.26369e-05
1.73393e-05
9.39821e-06
5.08068e-06
2.71651e-06
1.42559e-06
7.29531e-07
3.55988e-07
1.6846e-07
7.48225e-08
3.1693e-08
1.26805e-08
5.00455e-09
2.1293e-09
9.87115e-10
4.75221e-10
2.19888e-10
6.02332e-11
1.43831e-31
7.44731e-31
2.63442e-30
8.50577e-30
2.66718e-29
8.29126e-29
2.59299e-28
8.01721e-28
2.47629e-27
7.71761e-27
2.3728e-26
7.28581e-26
2.23469e-25
6.85983e-25
2.11542e-24
6.42353e-24
1.94039e-23
5.8411e-23
1.75929e-22
5.18534e-22
1.56378e-21
4.58804e-21
1.34521e-20
3.91771e-20
1.13376e-19
3.24077e-19
9.24089e-19
2.59891e-18
7.34327e-18
2.02454e-17
5.5288e-17
1.52059e-16
4.0797e-16
1.07971e-15
2.76227e-15
7.22378e-15
1.83457e-14
4.57308e-14
1.15931e-13
2.93684e-13
6.94869e-13
1.68442e-12
3.88435e-12
9.15956e-12
2.1707e-11
5.11749e-11
1.17907e-10
2.65322e-10
5.83299e-10
1.2518e-09
2.61987e-09
5.33126e-09
1.0516e-08
1.83962e-08
3.32023e-08
5.5087e-08
9.05315e-08
1.49048e-07
2.38448e-07
3.70342e-07
5.6369e-07
8.32123e-07
1.22777e-06
1.81208e-06
2.68021e-06
3.9716e-06
5.87123e-06