/*--------------------------------*- C++ -*----------------------------------*\
  =========                 |
  \\      /  F ield         | OpenFOAM: The Open Source CFD Toolbox
   \\    /   O peration     | Website:  https://openfoam.org
    \\  /    A nd           | Version:  10
     \\/     M anipulation  |
\*---------------------------------------------------------------------------*/
FoamFile
{
    format      ascii;
    class       volScalarField;
    location    "1";
    object      C10H20;
}
// * * * * * * * * * * * * * * * * * * * * * * * * * * * * * * * * * * * * * //

dimensions      [0 0 0 0 0 0 0];

internalField   nonuniform List<scalar> 
4000
(
1.60376e-22
2.60099e-22
3.26839e-22
4.25609e-22
5.6994e-22
6.8756e-22
8.29169e-22
9.97285e-22
1.23072e-21
1.58785e-21
2.14053e-21
2.67331e-21
3.23987e-21
3.78708e-21
4.45124e-21
5.25891e-21
6.20639e-21
7.82919e-21
1.14611e-20
2.05335e-20
4.50002e-20
1.13268e-19
3.27839e-19
9.43928e-19
2.79565e-18
8.30393e-18
2.44306e-17
7.41122e-17
2.19177e-16
6.48242e-16
1.91717e-15
5.66159e-15
1.65425e-14
4.80352e-14
1.38778e-13
3.87551e-13
1.09822e-12
3.15763e-12
8.856e-12
2.45919e-11
6.59497e-11
1.7357e-10
4.46957e-10
1.12386e-09
2.7561e-09
7.0785e-09
1.8497e-08
4.7603e-08
1.19281e-07
2.88697e-07
6.71961e-07
1.52519e-06
3.10442e-06
6.57512e-06
1.34635e-05
2.61557e-05
4.74902e-05
8.39687e-05
0.000140663
0.00022274
0.000332781
0.000464148
0.000621663
0.000800904
0.000995423
0.00119774
0.00140147
0.00159575
0.00177498
0.00193247
0.00205643
0.00212459
0.0020953
0.0019015
0.00150927
0.00103986
0.000658058
0.000380821
0.000201483
0.000102317
5.25368e-05
2.75629e-05
1.47427e-05
8.00137e-06
4.37752e-06
2.39434e-06
1.29876e-06
6.93417e-07
3.6192e-07
1.83618e-07
9.05073e-08
4.28137e-08
2.19043e-08
1.37879e-08
1.03837e-08
8.03794e-09
5.88863e-09
3.9299e-09
2.2296e-09
6.61861e-10
8.06376e-23
5.19132e-22
7.60811e-22
1.34767e-21
1.8348e-21
2.07331e-21
2.36014e-21
2.60356e-21
3.0479e-21
3.59517e-21
4.07483e-21
4.66564e-21
5.27193e-21
5.74802e-21
6.35287e-21
7.10279e-21
7.92421e-21
9.40837e-21
1.26437e-20
2.11597e-20
4.54716e-20
1.19021e-19
3.44546e-19
1.03715e-18
3.1736e-18
9.69692e-18
2.96036e-17
9.01069e-17
2.71852e-16
8.12117e-16
2.41593e-15
7.49915e-15
2.21174e-14
6.39696e-14
1.83885e-13
5.21187e-13
1.49803e-12
4.17387e-12
1.16189e-11
3.15816e-11
8.48147e-11
2.20679e-10
5.68336e-10
1.42478e-09
3.6296e-09
9.45875e-09
2.44018e-08
6.16015e-08
1.52139e-07
3.67087e-07
7.93692e-07
1.62491e-06
3.51223e-06
7.28497e-06
1.47224e-05
2.86169e-05
5.05885e-05
8.7655e-05
0.000144764
0.000225684
0.000334424
0.000464056
0.000619344
0.00079616
0.000987989
0.00118832
0.00139087
0.00158633
0.00176639
0.0019255
0.00205259
0.00212492
0.00210184
0.00191549
0.00152666
0.00105293
0.000666154
0.000385233
0.000203571
0.000103234
5.29449e-05
2.77513e-05
1.483e-05
8.03791e-06
4.38981e-06
2.39611e-06
1.29662e-06
6.9039e-07
3.59096e-07
1.81496e-07
8.91208e-08
4.21103e-08
2.17218e-08
1.38746e-08
1.05029e-08
8.10957e-09
5.91838e-09
3.93689e-09
2.22918e-09
6.60023e-10
5.95903e-22
9.98157e-22
1.65464e-21
2.32632e-21
3.5279e-21
3.815e-21
4.16195e-21
4.65719e-21
5.33662e-21
5.59992e-21
6.12668e-21
6.5315e-21
6.96335e-21
7.36603e-21
7.69708e-21
8.25055e-21
8.78675e-21
1.00354e-20
1.34637e-20
2.23455e-20
4.91382e-20
1.3282e-19
3.9756e-19
1.23142e-18
3.83873e-18
1.19373e-17
3.7025e-17
1.15052e-16
3.49443e-16
1.05376e-15
3.24055e-15
9.62909e-15
2.79586e-14
8.19119e-14
2.38254e-13
6.77216e-13
1.89221e-12
5.251e-12
1.44415e-11
3.87411e-11
1.027e-10
2.57252e-10
6.8741e-10
1.69354e-09
4.44473e-09
1.13221e-08
2.92209e-08
7.30543e-08
1.74797e-07
4.13911e-07
8.90367e-07
1.83535e-06
3.94433e-06
8.28567e-06
1.62221e-05
2.99065e-05
5.20937e-05
8.95765e-05
0.00014695
0.000228144
0.00033626
0.00046469
0.000618086
0.00079234
0.000981956
0.00118041
0.0013815
0.00157621
0.00175793
0.00191909
0.0020495
0.00212567
0.00210861
0.00193049
0.00154634
0.00106776
0.000675242
0.000390097
0.000205819
0.000104237
5.34233e-05
2.79786e-05
1.4935e-05
8.07413e-06
4.39869e-06
2.39448e-06
1.29174e-06
6.8529e-07
3.55052e-07
1.78405e-07
8.71406e-08
4.11629e-08
2.15164e-08
1.40163e-08
1.06782e-08
8.22785e-09
5.98387e-09
3.97061e-09
2.24429e-09
6.63147e-10
3.37694e-22
7.40903e-22
1.41844e-21
1.93141e-21
2.47384e-21
3.01893e-21
3.18279e-21
3.4751e-21
4.2599e-21
4.97373e-21
5.62059e-21
6.0167e-21
6.47479e-21
7.1283e-21
7.85063e-21
8.78015e-21
1.00185e-20
1.19117e-20
1.6175e-20
2.77394e-20
6.35363e-20
1.7665e-19
5.29835e-19
1.63706e-18
5.15568e-18
1.60066e-17
4.9413e-17
1.51098e-16
4.48049e-16
1.40232e-15
4.16617e-15
1.23383e-14
3.60389e-14
1.0486e-13
3.02247e-13
8.53326e-13
2.36656e-12
6.55488e-12
1.76021e-11
4.79912e-11
1.26055e-10
3.22042e-10
8.32947e-10
2.0518e-09
5.15121e-09
1.33811e-08
3.40761e-08
8.34616e-08
2.02742e-07
4.41616e-07
9.37803e-07
2.09413e-06
4.50576e-06
9.16841e-06
1.76467e-05
3.07887e-05
5.36138e-05
9.15747e-05
0.000149407
0.000230152
0.000337484
0.000464724
0.000616565
0.000789201
0.000977038
0.00117379
0.00137349
0.00156843
0.00175094
0.00191366
0.00204649
0.00212618
0.00211446
0.00194344
0.00156571
0.00107679
0.000681695
0.00039384
0.000207637
0.000105082
5.38395e-05
2.82028e-05
1.50918e-05
8.04218e-06
4.38271e-06
2.38409e-06
1.28422e-06
6.80121e-07
3.52229e-07
1.74255e-07
8.48844e-08
4.02378e-08
2.13617e-08
1.41962e-08
1.08881e-08
8.36889e-09
6.06874e-09
4.01831e-09
2.26755e-09
6.68742e-10
2.02609e-22
5.17355e-22
7.86424e-22
1.242e-21
1.7443e-21
2.13039e-21
2.74925e-21
3.13768e-21
3.73124e-21
4.44772e-21
5.08151e-21
5.71348e-21
6.34761e-21
7.05784e-21
8.15799e-21
9.53694e-21
1.10651e-20
1.32184e-20
1.90689e-20
3.5119e-20
8.46121e-20
2.39181e-19
7.19936e-19
2.21959e-18
6.87781e-18
2.12126e-17
6.50124e-17
2.00075e-16
6.03726e-16
1.80386e-15
5.34743e-15
1.60882e-14
4.65641e-14
1.34383e-13
3.81391e-13
1.06795e-12
2.93781e-12
7.8972e-12
2.16375e-11
5.75382e-11
1.4955e-10
3.81821e-10
9.52632e-10
2.4049e-09
5.98532e-09
1.53924e-08
3.83678e-08
9.48728e-08
2.13069e-07
4.57531e-07
1.04059e-06
2.29532e-06
4.9459e-06
1.01688e-05
1.82293e-05
3.17531e-05
5.50972e-05
9.33186e-05
0.000151147
0.00023198
0.000338819
0.000465234
0.000615838
0.000786984
0.000973162
0.00116811
0.00136738
0.00156251
0.00174589
0.00190959
0.00204439
0.00212693
0.00211959
0.00195477
0.00158089
0.00108797
0.000688433
0.000397452
0.000209271
0.000105811
5.41899e-05
2.83774e-05
1.51765e-05
8.08217e-06
4.39679e-06
2.38698e-06
1.28277e-06
6.77471e-07
3.49668e-07
1.72442e-07
8.36922e-08
3.97659e-08
2.13875e-08
1.44344e-08
1.11194e-08
8.52847e-09
6.16915e-09
4.07748e-09
2.29772e-09
6.76602e-10
9.29136e-23
3.05808e-22
6.33947e-22
1.09819e-21
1.49701e-21
1.91777e-21
2.4453e-21
2.88384e-21
3.12292e-21
3.59734e-21
4.25096e-21
5.13886e-21
5.89263e-21
6.54067e-21
7.59371e-21
9.17806e-21
1.09357e-20
1.45489e-20
2.29545e-20
4.69527e-20
1.20176e-19
3.38947e-19
1.01093e-18
3.07009e-18
9.42667e-18
2.90867e-17
8.78548e-17
2.62431e-16
7.94075e-16
2.33658e-15
6.78618e-15
2.05434e-14
5.85849e-14
1.66131e-13
4.60989e-13
1.29644e-12
3.50277e-12
9.2423e-12
2.56621e-11
6.97318e-11
1.76889e-10
4.4157e-10
1.10273e-09
2.7414e-09
6.89831e-09
1.72223e-08
4.38394e-08
1.00114e-07
2.22098e-07
5.02384e-07
1.13367e-06
2.49495e-06
5.2673e-06
1.07092e-05
1.90687e-05
3.28433e-05
5.62998e-05
9.49951e-05
0.000152778
0.000233366
0.000339662
0.000465236
0.000614774
0.000784759
0.000969933
0.00116419
0.00136255
0.00155705
0.00174081
0.00190579
0.00204237
0.00212706
0.00212297
0.00196214
0.00159121
0.00109653
0.000693918
0.000400441
0.000210682
0.000106477
5.45183e-05
2.85437e-05
1.5258e-05
8.12844e-06
4.41789e-06
2.39529e-06
1.28501e-06
6.77162e-07
3.48533e-07
1.71574e-07
8.30424e-08
3.95761e-08
2.15142e-08
1.46859e-08
1.13422e-08
8.68679e-09
6.27266e-09
4.14051e-09
2.33077e-09
6.85546e-10
5.94871e-23
2.58708e-22
4.86088e-22
7.80147e-22
1.02987e-21
1.34142e-21
1.75498e-21
2.22323e-21
3.03431e-21
3.72014e-21
4.50877e-21
5.27428e-21
6.03302e-21
7.01024e-21
7.91559e-21
9.25562e-21
1.12809e-20
1.53377e-20
2.5983e-20
5.80815e-20
1.55564e-19
4.52062e-19
1.34124e-18
4.15446e-18
1.2521e-17
3.76316e-17
1.12822e-16
3.27151e-16
1.00354e-15
2.96222e-15
8.60726e-15
2.48038e-14
7.11963e-14
2.01418e-13
5.57074e-13
1.54821e-12
4.26184e-12
1.114e-11
3.07286e-11
8.02843e-11
2.04201e-10
5.1231e-10
1.25832e-09
3.1044e-09
7.63044e-09
1.91614e-08
4.66061e-08
1.01674e-07
2.3799e-07
5.42816e-07
1.2079e-06
2.6262e-06
5.49701e-06
1.10851e-05
1.96324e-05
3.36781e-05
5.72912e-05
9.60989e-05
0.000153973
0.000234341
0.00034006
0.000464899
0.000613483
0.000782473
0.000966707
0.00116036
0.00135831
0.00155241
0.00173666
0.00190243
0.00204035
0.0021269
0.00212568
0.00196896
0.00160113
0.00110469
0.000699531
0.000403718
0.000212342
0.000107263
5.49096e-05
2.8743e-05
1.53589e-05
8.18501e-06
4.44591e-06
2.40833e-06
1.29044e-06
6.78956e-07
3.48746e-07
1.7148e-07
8.28355e-08
3.95867e-08
2.16975e-08
1.49338e-08
1.15549e-08
8.83988e-09
6.37504e-09
4.20415e-09
2.36476e-09
6.94968e-10
1.89709e-22
3.98276e-22
7.52231e-22
1.27356e-21
1.67661e-21
2.16202e-21
2.51656e-21
2.97692e-21
3.51022e-21
4.09338e-21
4.69317e-21
5.63142e-21
6.60523e-21
7.64399e-21
8.56464e-21
1.00261e-20
1.26901e-20
1.7943e-20
3.22041e-20
7.46691e-20
2.02386e-19
5.91858e-19
1.7784e-18
5.37105e-18
1.61867e-17
4.85591e-17
1.44423e-16
4.2328e-16
1.22522e-15
3.55333e-15
1.04173e-14
3.0322e-14
8.5981e-14
2.40469e-13
6.57011e-13
1.80356e-12
4.92016e-12
1.27334e-11
3.45249e-11
9.14354e-11
2.31335e-10
5.72282e-10
1.42305e-09
3.46808e-09
8.54592e-09
2.12189e-08
4.84824e-08
1.10143e-07
2.56198e-07
5.80273e-07
1.28953e-06
2.76717e-06
5.72848e-06
1.14458e-05
2.01427e-05
3.434e-05
5.80958e-05
9.69935e-05
0.000154782
0.000234818
0.000339916
0.00046401
0.000611654
0.000779852
0.000963122
0.00115558
0.00135359
0.00154761
0.00173244
0.00189883
0.00203796
0.00212638
0.00212815
0.0019758
0.00161161
0.00111365
0.000705704
0.000407538
0.000214399
0.000108242
5.53992e-05
2.89935e-05
1.54882e-05
8.25533e-06
4.48217e-06
2.42648e-06
1.2991e-06
6.82776e-07
3.50218e-07
1.72072e-07
8.30127e-08
3.97532e-08
2.19159e-08
1.51698e-08
1.17525e-08
8.98405e-09
6.47337e-09
4.26625e-09
2.39841e-09
7.04454e-10
1.71117e-22
5.24063e-22
9.41268e-22
1.48845e-21
1.80161e-21
2.25275e-21
2.71542e-21
3.35139e-21
4.00504e-21
4.82304e-21
5.03223e-21
5.65955e-21
6.70316e-21
7.63222e-21
8.95506e-21
1.04826e-20
1.34051e-20
2.01752e-20
3.78516e-20
9.04836e-20
2.50188e-19
7.30076e-19
2.21764e-18
6.64149e-18
1.99321e-17
5.99147e-17
1.77735e-16
5.22843e-16
1.5212e-15
4.35726e-15
1.2488e-14
3.58345e-14
1.00848e-13
2.80901e-13
7.72298e-13
2.08911e-12
5.61154e-12
1.43975e-11
3.87842e-11
1.01221e-10
2.57012e-10
6.40047e-10
1.57378e-09
3.85709e-09
9.05146e-09
2.08625e-08
5.07371e-08
1.19396e-07
2.74481e-07
6.20152e-07
1.35791e-06
2.88371e-06
5.91965e-06
1.17402e-05
2.0526e-05
3.48282e-05
5.86783e-05
9.75861e-05
0.000155207
0.000234797
0.000339148
0.000462208
0.000608814
0.000775626
0.000958043
0.00115043
0.00134756
0.00154207
0.00172701
0.00189431
0.00203446
0.00212496
0.00213017
0.00198275
0.00162275
0.0011235
0.000712725
0.000412062
0.000216947
0.000109464
5.601e-05
2.93056e-05
1.56504e-05
8.34123e-06
4.52722e-06
2.4498e-06
1.31085e-06
6.88469e-07
3.52821e-07
1.73256e-07
8.35132e-08
4.00452e-08
2.21582e-08
1.53923e-08
1.19348e-08
9.11941e-09
6.56697e-09
4.32602e-09
2.43113e-09
7.13799e-10
1.66763e-22
5.29082e-22
9.23762e-22
1.30591e-21
1.61748e-21
2.02365e-21
2.59016e-21
3.19611e-21
3.9074e-21
4.61414e-21
5.32415e-21
6.37898e-21
7.21734e-21
8.16516e-21
9.72468e-21
1.17344e-20
1.50833e-20
2.28029e-20
4.50329e-20
1.09296e-19
3.00592e-19
8.94517e-19
2.67446e-18
8.01939e-18
2.39462e-17
7.12067e-17
2.10408e-16
6.15714e-16
1.81163e-15
5.23912e-15
1.49423e-14
4.19738e-14
1.16624e-13
3.2146e-13
8.72027e-13
2.33471e-12
6.17487e-12
1.59147e-11
4.33719e-11
1.11244e-10
2.77006e-10
6.86797e-10
1.6805e-09
3.98101e-09
9.23534e-09
2.27877e-08
5.45982e-08
1.27725e-07
2.93749e-07
6.55982e-07
1.42434e-06
3.00009e-06
6.1005e-06
1.19341e-05
2.07944e-05
3.52157e-05
5.90793e-05
9.79113e-05
0.000155276
0.000234413
0.00033809
0.000460271
0.000605501
0.000771252
0.000952662
0.00114415
0.00134126
0.00153625
0.00172164
0.00188939
0.00203077
0.00212359
0.00213234
0.00199035
0.001636
0.0011357
0.00072163
0.000417856
0.000220163
0.000110978
5.67546e-05
2.96813e-05
1.58448e-05
8.4417e-06
4.57988e-06
2.47751e-06
1.3252e-06
6.95706e-07
3.56348e-07
1.74915e-07
8.42699e-08
4.04334e-08
2.24158e-08
1.56015e-08
1.21026e-08
9.24479e-09
6.65498e-09
4.38282e-09
2.46251e-09
7.22859e-10
1.74907e-22
5.65619e-22
1.07203e-21
1.33171e-21
1.63247e-21
2.00432e-21
2.3111e-21
2.71059e-21
3.218e-21
3.8238e-21
4.78989e-21
5.83398e-21
6.71383e-21
7.86448e-21
8.702e-21
1.03563e-20
1.36983e-20
2.24129e-20
4.81392e-20
1.2456e-19
3.4918e-19
1.04512e-18
3.11959e-18
9.32117e-18
2.75067e-17
8.23942e-17
2.41078e-16
7.04479e-16
2.06366e-15
5.95976e-15
1.69573e-14
4.75456e-14
1.3125e-13
3.62428e-13
9.74702e-13
2.5968e-12
6.83787e-12
1.76087e-11
4.74087e-11
1.20121e-10
2.97322e-10
7.25972e-10
1.73874e-09
4.08969e-09
1.00422e-08
2.4499e-08
5.85491e-08
1.37133e-07
3.12882e-07
6.95938e-07
1.50747e-06
3.17103e-06
6.48354e-06
1.19878e-05
2.09953e-05
3.5492e-05
5.93079e-05
9.79893e-05
0.000155008
0.000233454
0.000336169
0.000457353
0.000602067
0.000766774
0.000947326
0.00113818
0.00133496
0.00152983
0.00171613
0.0018848
0.00202727
0.00212214
0.00213435
0.00199787
0.00164858
0.00114717
0.000730208
0.000423536
0.000223468
0.000112568
5.75452e-05
3.00837e-05
1.60549e-05
8.55021e-06
4.63812e-06
2.50825e-06
1.34129e-06
7.03989e-07
3.60533e-07
1.76917e-07
8.52134e-08
4.08895e-08
2.26815e-08
1.57984e-08
1.22579e-08
9.362e-09
6.73792e-09
4.43668e-09
2.49246e-09
7.31573e-10
1.30415e-22
4.23861e-22
9.84051e-22
1.30494e-21
1.54223e-21
2.01161e-21
2.70591e-21
3.45169e-21
3.88172e-21
4.4064e-21
5.08553e-21
5.90235e-21
6.50647e-21
7.2959e-21
8.3378e-21
1.02123e-20
1.42504e-20
2.4551e-20
5.32163e-20
1.40149e-19
4.01702e-19
1.18801e-18
3.56558e-18
1.06252e-17
3.15192e-17
9.28027e-17
2.71817e-16
7.82783e-16
2.29938e-15
6.56759e-15
1.82314e-14
5.25041e-14
1.45572e-13
3.94218e-13
1.08858e-12
2.86496e-12
7.42723e-12
1.90742e-11
5.00942e-11
1.2942e-10
3.17331e-10
7.69319e-10
1.8354e-09
4.3767e-09
1.07234e-08
2.60479e-08
6.20621e-08
1.44778e-07
3.28898e-07
7.28183e-07
1.57047e-06
3.28958e-06
6.6779e-06
1.19901e-05
2.11726e-05
3.57176e-05
5.94299e-05
9.79137e-05
0.000154563
0.000232548
0.00033448
0.000454778
0.00059812
0.000762042
0.000941893
0.00113226
0.00132889
0.00152356
0.00171033
0.00188021
0.00202296
0.00211995
0.00213565
0.00200457
0.00166074
0.0011591
0.000739006
0.000429601
0.000227011
0.000114275
5.83845e-05
3.05077e-05
1.62762e-05
8.66405e-06
4.6995e-06
2.54156e-06
1.35916e-06
7.1338e-07
3.65298e-07
1.79193e-07
8.62983e-08
4.14016e-08
2.29571e-08
1.5987e-08
1.24033e-08
9.4712e-09
6.81536e-09
4.48715e-09
2.52069e-09
7.39852e-10
7.22519e-23
2.4263e-22
7.11084e-22
1.06008e-21
1.50667e-21
2.05984e-21
2.98955e-21
3.68308e-21
3.99956e-21
4.75319e-21
5.54283e-21
6.15614e-21
6.97587e-21
7.81737e-21
9.02155e-21
1.12356e-20
1.48324e-20
2.60002e-20
5.87367e-20
1.56806e-19
4.52002e-19
1.33765e-18
3.9913e-18
1.17349e-17
3.53488e-17
1.03087e-16
2.98633e-16
8.60267e-16
2.48181e-15
7.2755e-15
2.0335e-14
5.76017e-14
1.58598e-13
4.35848e-13
1.16629e-12
3.06399e-12
7.89988e-12
2.0212e-11
5.29487e-11
1.37391e-10
3.37956e-10
8.2167e-10
1.94007e-09
4.71291e-09
1.12946e-08
2.73739e-08
6.50526e-08
1.50548e-07
3.39702e-07
7.47399e-07
1.60197e-06
3.3357e-06
6.7279e-06
1.19854e-05
2.13728e-05
3.58898e-05
5.94546e-05
9.76914e-05
0.000153941
0.00023134
0.000332745
0.000452187
0.000594484
0.000757378
0.000936426
0.00112625
0.00132277
0.00151731
0.00170452
0.00187514
0.00201898
0.00211804
0.00213703
0.00201136
0.00167355
0.00117174
0.00074858
0.00043599
0.000230713
0.000116055
5.9277e-05
3.0964e-05
1.65154e-05
8.78466e-06
4.76409e-06
2.57631e-06
1.37776e-06
7.2321e-07
3.70425e-07
1.81678e-07
8.75024e-08
4.19455e-08
2.32295e-08
1.61633e-08
1.25388e-08
9.57671e-09
6.8919e-09
4.5376e-09
2.54902e-09
7.4817e-10
9.37175e-23
5.20471e-22
7.24779e-22
1.10892e-21
1.48076e-21
1.86895e-21
2.58979e-21
3.18267e-21
3.72702e-21
4.53435e-21
5.16564e-21
5.99141e-21
6.93878e-21
8.15788e-21
9.91386e-21
1.23017e-20
1.67139e-20
2.81673e-20
6.42178e-20
1.70682e-19
4.90664e-19
1.42751e-18
4.37678e-18
1.29333e-17
3.81789e-17
1.1165e-16
3.28137e-16
9.4524e-16
2.72013e-15
7.74339e-15
2.16305e-14
6.18764e-14
1.67717e-13
4.62388e-13
1.22967e-12
3.23425e-12
8.36129e-12
2.09908e-11
5.58613e-11
1.45219e-10
3.52587e-10
8.5127e-10
2.03987e-09
4.9666e-09
1.17895e-08
2.85123e-08
6.72414e-08
1.54727e-07
3.47374e-07
7.60578e-07
1.62238e-06
3.36496e-06
6.75169e-06
1.19745e-05
2.15166e-05
3.60117e-05
5.94254e-05
9.74381e-05
0.000153348
0.000230142
0.000330689
0.000449312
0.00059101
0.000752958
0.000931317
0.00112062
0.00131688
0.00151185
0.00169914
0.0018704
0.00201526
0.00211601
0.00213804
0.00201731
0.001685
0.00118394
0.000757804
0.000442261
0.000234469
0.000117888
6.018e-05
3.14206e-05
1.67534e-05
8.9057e-06
4.82872e-06
2.61101e-06
1.39631e-06
7.33012e-07
3.75519e-07
1.8414e-07
8.8694e-08
4.2488e-08
2.34967e-08
1.63314e-08
1.26663e-08
9.67361e-09
6.96141e-09
4.58321e-09
2.57465e-09
7.55734e-10
2.02516e-22
5.53303e-22
8.9809e-22
1.3818e-21
1.74442e-21
1.91335e-21
2.18989e-21
2.55646e-21
3.23454e-21
4.29301e-21
5.33655e-21
6.4254e-21
7.55766e-21
8.57813e-21
9.646e-21
1.19299e-20
1.70187e-20
3.05114e-20
6.8389e-20
1.80949e-19
5.34548e-19
1.57946e-18
4.70693e-18
1.38889e-17
4.13166e-17
1.20211e-16
3.49948e-16
1.00458e-15
2.87162e-15
8.27071e-15
2.33471e-14
6.52114e-14
1.7675e-13
4.85124e-13
1.27398e-12
3.31291e-12
8.77126e-12
2.19326e-11
5.79242e-11
1.48134e-10
3.7337e-10
8.983e-10
2.1568e-09
5.08054e-09
1.2189e-08
2.93307e-08
6.88953e-08
1.57936e-07
3.53317e-07
7.70967e-07
1.63878e-06
3.38382e-06
6.76509e-06
1.1963e-05
2.16069e-05
3.60722e-05
5.93203e-05
9.70986e-05
0.000152618
0.000228975
0.000328844
0.000446677
0.000587509
0.000748854
0.000926561
0.00111537
0.00131138
0.00150629
0.00169391
0.00186593
0.00201181
0.00211417
0.00213894
0.00202278
0.00169546
0.00119528
0.000766434
0.00044823
0.000237993
0.000119597
6.10226e-05
3.18459e-05
1.69748e-05
9.01744e-06
4.88851e-06
2.64319e-06
1.41357e-06
7.42155e-07
3.80287e-07
1.86446e-07
8.98106e-08
4.2988e-08
2.37349e-08
1.6476e-08
1.2775e-08
9.75704e-09
7.02161e-09
4.62284e-09
2.59699e-09
7.62345e-10
1.5847e-22
5.19537e-22
9.37621e-22
1.33703e-21
1.66765e-21
2.1065e-21
2.53603e-21
2.76756e-21
3.23824e-21
3.71636e-21
4.34422e-21
5.60095e-21
6.27462e-21
7.00672e-21
8.58395e-21
1.12214e-20
1.66881e-20
3.14776e-20
7.23572e-20
1.94754e-19
5.66049e-19
1.67811e-18
5.00349e-18
1.48485e-17
4.36262e-17
1.26934e-16
3.6964e-16
1.057e-15
2.99008e-15
8.62649e-15
2.41063e-14
6.74668e-14
1.85794e-13
5.01607e-13
1.33499e-12
3.51712e-12
9.1135e-12
2.36673e-11
6.07818e-11
1.57385e-10
3.84308e-10
9.13498e-10
2.2e-09
5.18777e-09
1.2499e-08
2.99651e-08
7.01522e-08
1.6031e-07
3.57532e-07
7.77807e-07
1.64909e-06
3.39634e-06
6.77342e-06
1.19506e-05
2.16644e-05
3.60987e-05
5.91937e-05
9.67325e-05
0.000151923
0.000227801
0.000327154
0.000444418
0.000584637
0.000745476
0.000922563
0.00111093
0.00130675
0.0015017
0.00168941
0.001862
0.00200875
0.00211247
0.00213955
0.00202722
0.00170427
0.001205
0.000773842
0.000453323
0.000241025
0.000121075
6.17518e-05
3.22135e-05
1.71667e-05
9.11433e-06
4.94043e-06
2.67118e-06
1.4286e-06
7.50142e-07
3.84467e-07
1.88474e-07
9.08044e-08
4.34292e-08
2.39413e-08
1.65982e-08
1.28657e-08
9.82654e-09
7.07177e-09
4.65588e-09
2.61563e-09
7.67872e-10
9.64208e-23
5.13141e-22
9.11546e-22
1.04045e-21
1.32625e-21
1.78778e-21
2.45443e-21
3.33233e-21
3.78542e-21
4.17803e-21
4.67503e-21
5.42458e-21
6.2037e-21
7.19745e-21
9.02001e-21
1.15777e-20
1.66488e-20
3.17064e-20
7.52962e-20
2.05554e-19
5.97884e-19
1.76038e-18
5.26542e-18
1.5554e-17
4.57153e-17
1.33281e-16
3.8495e-16
1.09865e-15
3.13006e-15
8.97113e-15
2.51298e-14
7.0781e-14
1.9309e-13
5.20117e-13
1.38319e-12
3.65475e-12
9.51002e-12
2.43767e-11
6.21702e-11
1.588e-10
3.8993e-10
9.37524e-10
2.20255e-09
5.25251e-09
1.27473e-08
3.04543e-08
7.11091e-08
1.6212e-07
3.6076e-07
7.83091e-07
1.65685e-06
3.40531e-06
6.77852e-06
1.19408e-05
2.16975e-05
3.61025e-05
5.90724e-05
9.64457e-05
0.000151401
0.000226959
0.00032592
0.000442615
0.000582232
0.000742457
0.000919169
0.00110725
0.00130293
0.00149785
0.00168569
0.00185878
0.00200626
0.00211106
0.00213995
0.00203062
0.00171114
0.0012127
0.000779735
0.000457385
0.000243451
0.000122261
6.23363e-05
3.25073e-05
1.73194e-05
9.1914e-06
4.98177e-06
2.6935e-06
1.44062e-06
7.56545e-07
3.87826e-07
1.90105e-07
9.16025e-08
4.37825e-08
2.41049e-08
1.66934e-08
1.29362e-08
9.88059e-09
7.11086e-09
4.68165e-09
2.63018e-09
7.72191e-10
2.21315e-22
7.67163e-22
1.3169e-21
1.87227e-21
2.06588e-21
2.17564e-21
2.54653e-21
3.23357e-21
3.24429e-21
3.40111e-21
3.87046e-21
4.53819e-21
5.49042e-21
6.51328e-21
8.3454e-21
1.1663e-20
1.7874e-20
3.35017e-20
7.93403e-20
2.14655e-19
6.19732e-19
1.82731e-18
5.41096e-18
1.59079e-17
4.7243e-17
1.37683e-16
3.99433e-16
1.14372e-15
3.2956e-15
9.26661e-15
2.58307e-14
7.12363e-14
1.97293e-13
5.30348e-13
1.42605e-12
3.76954e-12
9.72757e-12
2.45356e-11
6.29536e-11
1.59839e-10
3.915e-10
9.37252e-10
2.22429e-09
5.31249e-09
1.29244e-08
3.08054e-08
7.17917e-08
1.63409e-07
3.6308e-07
7.87021e-07
1.66241e-06
3.41207e-06
6.78249e-06
1.19345e-05
2.17176e-05
3.61014e-05
5.89841e-05
9.62341e-05
0.000151012
0.000226333
0.000325007
0.000441357
0.000580595
0.000740467
0.000916901
0.00110474
0.00130033
0.00149525
0.00168311
0.00185655
0.00200454
0.00211007
0.00214019
0.00203296
0.00171592
0.00121814
0.000783902
0.000460261
0.000245173
0.000123105
6.27527e-05
3.2718e-05
1.74289e-05
9.24654e-06
5.01131e-06
2.70943e-06
1.44919e-06
7.61108e-07
3.90221e-07
1.91271e-07
9.21728e-08
4.4034e-08
2.42204e-08
1.67599e-08
1.2985e-08
9.91813e-09
7.13802e-09
4.69956e-09
2.64029e-09
7.75196e-10
1.04448e-22
3.2704e-22
6.36144e-22
1.08324e-21
1.35994e-21
1.66108e-21
2.10445e-21
2.87447e-21
3.16677e-21
3.57927e-21
4.02168e-21
4.67296e-21
5.49183e-21
6.46927e-21
7.93708e-21
1.05e-20
1.64399e-20
3.27325e-20
7.96341e-20
2.17237e-19
6.27824e-19
1.85102e-18
5.53181e-18
1.62692e-17
4.81875e-17
1.40002e-16
4.0609e-16
1.17456e-15
3.34644e-15
9.44861e-15
2.63938e-14
7.4105e-14
2.00688e-13
5.39096e-13
1.44785e-12
3.7752e-12
9.83572e-12
2.48866e-11
6.54285e-11
1.64523e-10
3.96564e-10
9.51715e-10
2.22475e-09
5.39965e-09
1.3019e-08
3.10183e-08
7.22397e-08
1.64264e-07
3.646e-07
7.89508e-07
1.66601e-06
3.41647e-06
6.78599e-06
1.19327e-05
2.1733e-05
3.61066e-05
5.89445e-05
9.6132e-05
0.000150817
0.000226007
0.000324514
0.000440694
0.000579749
0.00073944
0.000915712
0.00110344
0.00129896
0.00149387
0.00168175
0.00185536
0.00200359
0.00210952
0.0021403
0.00203417
0.00171844
0.00122102
0.000786117
0.000461793
0.000246092
0.000123557
6.29756e-05
3.28307e-05
1.74878e-05
9.27624e-06
5.02726e-06
2.71806e-06
1.45384e-06
7.63586e-07
3.91521e-07
1.91903e-07
9.24821e-08
4.417e-08
2.42823e-08
1.67954e-08
1.30111e-08
9.9381e-09
7.15243e-09
4.70905e-09
2.64566e-09
7.76791e-10
9.8251e-23
5.24514e-22
8.92181e-22
1.33298e-21
1.58787e-21
1.91683e-21
2.55552e-21
3.3891e-21
3.87721e-21
4.24135e-21
5.08662e-21
5.67708e-21
6.3669e-21
6.69078e-21
7.74913e-21
1.04701e-20
1.61916e-20
3.26451e-20
7.94097e-20
2.19372e-19
6.41295e-19
1.89551e-18
5.62599e-18
1.65966e-17
4.84279e-17
1.42766e-16
4.12406e-16
1.1887e-15
3.42041e-15
9.70526e-15
2.70466e-14
7.41726e-14
2.04773e-13
5.56368e-13
1.47288e-12
3.83684e-12
9.9878e-12
2.50111e-11
6.5938e-11
1.63564e-10
4.02803e-10
9.60039e-10
2.27001e-09
5.40725e-09
1.30736e-08
3.11474e-08
7.25036e-08
1.64776e-07
3.65542e-07
7.91146e-07
1.66866e-06
3.42019e-06
6.7903e-06
1.19358e-05
2.17506e-05
3.61235e-05
5.89511e-05
9.61225e-05
0.000150783
0.000225941
0.00032441
0.000440546
0.000579563
0.000739221
0.000915466
0.00110318
0.0012987
0.00149361
0.0016815
0.00185514
0.00200342
0.00210941
0.00214031
0.00203435
0.00171882
0.00122146
0.000786453
0.000462025
0.000246231
0.000123624
6.30085e-05
3.28472e-05
1.74963e-05
9.28053e-06
5.02955e-06
2.71929e-06
1.4545e-06
7.63938e-07
3.91705e-07
1.91991e-07
9.25248e-08
4.41891e-08
2.42912e-08
1.68006e-08
1.30149e-08
9.94095e-09
7.15445e-09
4.71036e-09
2.64638e-09
7.77004e-10
7.23416e-23
4.35532e-22
1.03749e-21
1.54487e-21
1.88148e-21
2.22783e-21
2.69527e-21
3.37557e-21
4.16115e-21
4.46699e-21
4.56269e-21
5.08226e-21
5.53082e-21
6.67626e-21
8.20584e-21
1.07125e-20
1.68682e-20
3.27726e-20
8.02562e-20
2.20919e-19
6.45555e-19
1.91212e-18
5.68496e-18
1.68451e-17
4.94513e-17
1.43731e-16
4.10408e-16
1.21023e-15
3.4393e-15
9.73344e-15
2.72939e-14
7.54141e-14
2.07386e-13
5.56844e-13
1.48637e-12
3.86376e-12
1.00518e-11
2.53032e-11
6.62833e-11
1.64482e-10
4.04843e-10
9.51817e-10
2.2965e-09
5.42282e-09
1.30722e-08
3.11974e-08
7.26084e-08
1.64994e-07
3.65999e-07
7.92083e-07
1.67053e-06
3.42378e-06
6.79688e-06
1.19466e-05
2.17749e-05
3.61622e-05
5.90277e-05
9.62478e-05
0.000150974
0.000226218
0.000324792
0.000441053
0.000580206
0.000739994
0.000916354
0.00110415
0.00129972
0.00149463
0.00168249
0.001856
0.0020041
0.0021098
0.00214021
0.00203344
0.00171695
0.00121934
0.000784822
0.000460897
0.000245554
0.000123292
6.28445e-05
3.27644e-05
1.7453e-05
9.25875e-06
5.01786e-06
2.71297e-06
1.45109e-06
7.62113e-07
3.90743e-07
1.91524e-07
9.22949e-08
4.40879e-08
2.42454e-08
1.67747e-08
1.29959e-08
9.92629e-09
7.14378e-09
4.70329e-09
2.64238e-09
7.75812e-10
9.00349e-23
2.77475e-22
5.75706e-22
9.41092e-22
1.49619e-21
1.95589e-21
2.17444e-21
2.85976e-21
3.63296e-21
3.98644e-21
4.40433e-21
4.91754e-21
5.49796e-21
6.81111e-21
8.1516e-21
1.12419e-20
1.72674e-20
3.2199e-20
7.83175e-20
2.16837e-19
6.29504e-19
1.88862e-18
5.59552e-18
1.67115e-17
4.89209e-17
1.41872e-16
4.09036e-16
1.19056e-15
3.38518e-15
9.57886e-15
2.67557e-14
7.37749e-14
2.06588e-13
5.51103e-13
1.43167e-12
3.77693e-12
9.86047e-12
2.45417e-11
6.38349e-11
1.65675e-10
3.94246e-10
9.59757e-10
2.23788e-09
5.43579e-09
1.30648e-08
3.11488e-08
7.25214e-08
1.64871e-07
3.6589e-07
7.92188e-07
1.67143e-06
3.42686e-06
6.80515e-06
1.19647e-05
2.18072e-05
3.62243e-05
5.91762e-05
9.65086e-05
0.000151384
0.000226823
0.000325642
0.000442186
0.000581638
0.000741717
0.00091832
0.0011063
0.00130194
0.00149685
0.00168464
0.00185788
0.00200557
0.00211065
0.00214
0.00203146
0.00171289
0.00121474
0.000781293
0.000458459
0.000244091
0.000122576
6.24909e-05
3.25858e-05
1.736e-05
9.21191e-06
4.99271e-06
2.69937e-06
1.44375e-06
7.58198e-07
3.88682e-07
1.9052e-07
9.18025e-08
4.38718e-08
2.41472e-08
1.67192e-08
1.29551e-08
9.89483e-09
7.12092e-09
4.68817e-09
2.63381e-09
7.7326e-10
2.77145e-22
5.54547e-22
7.55391e-22
1.10885e-21
1.462e-21
1.78141e-21
2.18544e-21
2.76908e-21
3.37688e-21
3.90758e-21
4.59771e-21
5.04947e-21
5.84146e-21
6.95466e-21
8.7173e-21
1.16895e-20
1.75876e-20
3.35333e-20
7.87665e-20
2.14379e-19
6.22466e-19
1.8552e-18
5.5181e-18
1.63284e-17
4.79681e-17
1.39779e-16
4.04059e-16
1.16146e-15
3.34787e-15
9.46471e-15
2.64994e-14
7.30574e-14
2.01587e-13
5.42171e-13
1.44545e-12
3.80117e-12
9.7933e-12
2.454e-11
6.40871e-11
1.64088e-10
3.96782e-10
9.41251e-10
2.22427e-09
5.42819e-09
1.29987e-08
3.10033e-08
7.2262e-08
1.64447e-07
3.65302e-07
7.91634e-07
1.67173e-06
3.43022e-06
6.81668e-06
1.19924e-05
2.18513e-05
3.63161e-05
5.94081e-05
9.69254e-05
0.00015205
0.000227813
0.000327025
0.000444023
0.000583947
0.00074446
0.000921426
0.00110967
0.00130542
0.00150032
0.00168802
0.00186081
0.00200787
0.00211198
0.00213969
0.00202843
0.00170672
0.0012078
0.000775981
0.000454793
0.000241897
0.000121502
6.19606e-05
3.23172e-05
1.72201e-05
9.14147e-06
4.95492e-06
2.67895e-06
1.43275e-06
7.52324e-07
3.85593e-07
1.89017e-07
9.1066e-08
4.35476e-08
2.39999e-08
1.66354e-08
1.28936e-08
9.8474e-09
7.08649e-09
4.6654e-09
2.62092e-09
7.69426e-10
1.27315e-22
4.49652e-22
8.00324e-22
1.04e-21
1.18801e-21
1.44405e-21
1.8865e-21
2.48573e-21
2.97033e-21
3.54822e-21
4.46239e-21
5.27781e-21
6.50429e-21
7.90934e-21
9.36881e-21
1.19357e-20
1.76873e-20
3.31125e-20
7.66363e-20
2.0708e-19
6.01452e-19
1.75747e-18
5.31842e-18
1.55963e-17
4.66382e-17
1.35757e-16
3.92524e-16
1.12578e-15
3.24646e-15
9.24829e-15
2.54559e-14
7.24009e-14
1.96594e-13
5.29892e-13
1.41562e-12
3.7068e-12
9.63002e-12
2.435e-11
6.21015e-11
1.57776e-10
3.9222e-10
9.33122e-10
2.18717e-09
5.35578e-09
1.28956e-08
3.07777e-08
7.18181e-08
1.63648e-07
3.64041e-07
7.90069e-07
1.67082e-06
3.43286e-06
6.83017e-06
1.20284e-05
2.19018e-05
3.64272e-05
5.97029e-05
9.74661e-05
0.000152925
0.000229127
0.000328879
0.000446516
0.000587145
0.000748172
0.000925558
0.00111412
0.00131001
0.00150488
0.00169241
0.00186465
0.00201082
0.00211366
0.00213923
0.00202443
0.00169866
0.00119884
0.000769133
0.000450072
0.000239077
0.000120125
6.12782e-05
3.19736e-05
1.70412e-05
9.05136e-06
4.90657e-06
2.65283e-06
1.41867e-06
7.44817e-07
3.81646e-07
1.87099e-07
9.0126e-08
4.31331e-08
2.38109e-08
1.65267e-08
1.28133e-08
9.78556e-09
7.04161e-09
4.63574e-09
2.60413e-09
7.64433e-10
1.34172e-22
3.89619e-22
8.46879e-22
1.09253e-21
1.39245e-21
1.87393e-21
2.63489e-21
2.83248e-21
3.23286e-21
3.76875e-21
4.57586e-21
5.58596e-21
6.61123e-21
7.51843e-21
8.40318e-21
1.08653e-20
1.67716e-20
3.14155e-20
7.35218e-20
1.96092e-19
5.76033e-19
1.69721e-18
5.0511e-18
1.49995e-17
4.43252e-17
1.29469e-16
3.77244e-16
1.0839e-15
3.13219e-15
8.82193e-15
2.46101e-14
6.90722e-14
1.89401e-13
5.11626e-13
1.3361e-12
3.56798e-12
9.24962e-12
2.35289e-11
6.08315e-11
1.57146e-10
3.78602e-10
9.3428e-10
2.19401e-09
5.26841e-09
1.26927e-08
3.04114e-08
7.11468e-08
1.62439e-07
3.62076e-07
7.87284e-07
1.6682e-06
3.43398e-06
6.84465e-06
1.20712e-05
2.1945e-05
3.65484e-05
6.00454e-05
9.81017e-05
0.000153958
0.000230677
0.000331044
0.000449362
0.000590648
0.000752371
0.000930377
0.00111938
0.00131547
0.00151023
0.00169745
0.00186896
0.00201418
0.0021155
0.00213853
0.00201949
0.00168893
0.00118818
0.00076101
0.000444488
0.000235755
0.000118509
6.04844e-05
3.15727e-05
1.68315e-05
8.94536e-06
4.8494e-06
2.62196e-06
1.40205e-06
7.35958e-07
3.76994e-07
1.84841e-07
8.90213e-08
4.26438e-08
2.35844e-08