/*--------------------------------*- C++ -*----------------------------------*\
  =========                 |
  \\      /  F ield         | OpenFOAM: The Open Source CFD Toolbox
   \\    /   O peration     | Website:  https://openfoam.org
    \\  /    A nd           | Version:  10
     \\/     M anipulation  |
\*---------------------------------------------------------------------------*/
FoamFile
{
    format      ascii;
    class       volScalarField;
    location    "1";
    object      C12H24;
}
// * * * * * * * * * * * * * * * * * * * * * * * * * * * * * * * * * * * * * //

dimensions      [0 0 0 0 0 0 0];

internalField   nonuniform List<scalar> 
4000
(
6.76066e-35
4.2379e-34
1.87019e-33
7.21554e-33
2.60099e-32
8.77514e-32
2.81233e-31
8.6851e-31
2.613e-30
7.75955e-30
2.3102e-29
6.44853e-29
1.77878e-28
4.92707e-28
1.37747e-27
3.88265e-27
1.1005e-26
3.24798e-26
9.46639e-26
2.7907e-25
8.26841e-25
2.43035e-24
7.64742e-24
2.31145e-23
7.08906e-23
2.16815e-22
6.55052e-22
2.04144e-21
6.19317e-21
1.87848e-20
5.69529e-20
1.72343e-19
5.15855e-19
1.53352e-18
4.53479e-18
1.29466e-17
3.75269e-17
1.10312e-16
3.16197e-16
8.96741e-16
2.45301e-15
6.58208e-15
1.72666e-14
4.42112e-14
1.10377e-13
2.88479e-13
7.66778e-13
2.00482e-12
5.09813e-12
1.25086e-11
2.94851e-11
6.76996e-11
1.39057e-10
2.96992e-10
6.12087e-10
1.19375e-09
2.17128e-09
3.835e-09
6.38756e-09
1.00064e-08
1.46238e-08
1.95444e-08
2.3949e-08
2.63224e-08
2.67386e-08
2.58577e-08
2.41569e-08
2.19939e-08
1.95276e-08
1.67948e-08
1.37907e-08
1.05171e-08
7.04625e-09
3.82522e-09
1.68782e-09
7.40731e-10
3.38248e-10
1.60033e-10
7.81304e-11
3.91376e-11
2.01439e-11
1.06069e-11
5.6949e-12
3.10773e-12
1.71785e-12
9.62803e-13
5.57866e-13
3.56514e-13
2.86593e-13
3.23457e-13
4.84856e-13
8.61294e-13
1.63722e-12
3.32221e-12
7.06118e-12
9.65159e-12
1.01033e-11
7.87065e-12
4.48056e-12
1.33006e-12
6.21009e-35
3.64895e-34
1.36857e-33
4.75418e-33
1.59189e-32
5.17365e-32
1.63815e-31
5.07091e-31
1.49375e-30
4.30291e-30
1.22795e-29
3.50746e-29
1.00949e-28
2.94313e-28
8.71461e-28
2.62636e-27
8.01146e-27
2.47982e-26
7.76243e-26
2.44215e-25
7.73049e-25
2.46332e-24
7.83374e-24
2.48902e-23
7.90906e-23
2.49397e-22
7.83802e-22
2.45281e-21
7.60281e-21
2.332e-20
7.12438e-20
2.26985e-19
6.86359e-19
2.03435e-18
5.98915e-18
1.73786e-17
5.11064e-17
1.45717e-16
4.1442e-16
1.1506e-15
3.15442e-15
8.37312e-15
2.19914e-14
5.61625e-14
1.45771e-13
3.86426e-13
1.01401e-12
2.60114e-12
6.52149e-12
1.59557e-11
3.49264e-11
7.22377e-11
1.57736e-10
3.29925e-10
6.71491e-10
1.31242e-09
2.32571e-09
4.02841e-09
6.62146e-09
1.02073e-08
1.48057e-08
1.97076e-08
2.41072e-08
2.65051e-08
2.69672e-08
2.61149e-08
2.44324e-08
2.22611e-08
1.98101e-08
1.70868e-08
1.40718e-08
1.07775e-08
7.28669e-09
3.99516e-09
1.76502e-09
7.71645e-10
3.51293e-10
1.65737e-10
8.07147e-11
4.03443e-11
2.07079e-11
1.08844e-11
5.83674e-12
3.17897e-12
1.753e-12
9.80727e-13
5.68398e-13
3.65349e-13
2.98328e-13
3.42462e-13
5.18889e-13
9.26156e-13
1.76492e-12
3.58328e-12
7.49328e-12
1.00473e-11
1.03621e-11
7.87087e-12
4.47169e-12
1.32425e-12
3.32008e-35
1.73997e-34
5.93465e-34
1.82132e-33
5.39092e-33
1.56667e-32
4.50519e-32
1.30298e-31
3.89093e-31
1.22262e-30
3.96224e-30
1.31622e-29
4.44775e-29
1.51392e-28
5.16908e-28
1.76562e-27
6.01517e-27
2.01325e-26
7.05356e-26
2.37176e-25
7.98043e-25
2.66541e-24
8.82764e-24
2.89438e-23
9.39269e-23
3.02114e-22
9.66706e-22
3.09499e-21
9.67184e-21
2.99875e-20
9.48722e-20
2.89407e-19
8.62389e-19
2.59212e-18
7.72866e-18
2.25072e-17
6.43869e-17
1.82802e-16
5.14209e-16
1.40919e-15
3.81593e-15
9.75051e-15
2.65869e-14
6.67804e-14
1.78647e-13
4.63227e-13
1.21648e-12
3.0911e-12
7.50984e-12
1.80398e-11
3.92742e-11
8.18156e-11
1.77629e-10
3.7654e-10
7.42363e-10
1.37527e-09
2.40275e-09
4.13293e-09
6.75347e-09
1.03841e-08
1.49993e-08
1.99072e-08
2.43143e-08
2.67582e-08
2.72416e-08
2.64014e-08
2.47369e-08
2.26015e-08
2.0127e-08
1.73889e-08
1.43436e-08
1.10433e-08
7.5246e-09
4.17345e-09
1.85169e-09
8.07251e-10
3.66543e-10
1.72486e-10
8.38155e-11
4.18194e-11
2.14529e-11
1.12588e-11
6.02539e-12
3.27128e-12
1.79938e-12
1.00513e-12
5.83559e-13
3.7903e-13
3.16134e-13
3.72221e-13
5.71868e-13
1.02611e-12
1.95859e-12
3.98969e-12
8.07018e-12
1.05752e-11
1.07187e-11
7.94112e-12
4.50348e-12
1.33116e-12
1.82297e-35
9.38306e-35
3.25216e-34
1.02988e-33
3.20155e-33
1.00424e-32
3.22358e-32
1.09152e-31
3.70974e-31
1.27429e-30
4.47477e-30
1.56614e-29
5.55447e-29
1.93916e-28
6.75045e-28
2.33794e-27
8.05203e-27
2.75532e-26
9.35704e-26
3.15514e-25
1.05541e-24
3.51518e-24
1.1594e-23
3.79252e-23
1.24479e-22
4.00181e-22
1.27632e-21
4.02554e-21
1.22958e-20
3.96561e-20
1.21198e-19
3.68945e-19
1.10692e-18
3.30483e-18
9.77236e-18
2.82814e-17
8.0336e-17
2.27818e-16
6.25947e-16
1.74353e-15
4.67942e-15
1.21989e-14
3.22114e-14
8.08976e-14
2.06995e-13
5.4794e-13
1.42019e-12
3.53693e-12
8.72838e-12
1.92657e-11
4.14201e-11
9.36196e-11
2.03538e-10
4.17813e-10
8.10085e-10
1.42103e-09
2.48354e-09
4.24497e-09
6.90775e-09
1.05403e-08
1.51587e-08
2.00666e-08
2.44801e-08
2.6943e-08
2.74603e-08
2.66536e-08
2.50272e-08
2.2892e-08
2.04259e-08
1.76884e-08
1.46478e-08
1.1331e-08
7.76215e-09
4.33709e-09
1.93775e-09
8.35236e-10
3.79619e-10
1.78792e-10
8.69323e-11
4.33832e-11
2.22366e-11
1.16619e-11
6.25069e-12
3.34354e-12
1.83974e-12
1.02833e-12
5.99142e-13
3.93676e-13
3.36111e-13
4.06827e-13
6.3469e-13
1.14641e-12
2.2033e-12
4.51238e-12
8.74916e-12
1.1169e-11
1.11422e-11
8.07788e-12
4.57208e-12
1.34886e-12
2.2113e-35
1.15655e-34
4.15608e-34
1.38093e-33
4.51931e-33
1.48548e-32
4.92949e-32
1.64971e-31
5.54518e-31
1.91628e-30
6.56116e-30
2.26433e-29
7.89628e-29
2.72003e-28
9.48444e-28
3.24825e-27
1.1074e-26
3.81659e-26
1.29259e-25
4.34552e-25
1.45154e-24
4.7897e-24
1.56864e-23
5.09704e-23
1.64454e-22
5.25565e-22
1.66544e-21
5.2954e-21
1.64768e-20
5.07244e-20
1.5484e-19
4.79273e-19
1.42533e-18
4.22436e-18
1.23019e-17
3.5326e-17
9.95412e-17
2.73877e-16
7.67908e-16
2.08854e-15
5.5459e-15
1.44555e-14
3.6798e-14
9.48038e-14
2.40494e-13
6.30445e-13
1.60019e-12
4.02521e-12
9.17195e-12
1.99706e-11
4.60555e-11
1.0284e-10
2.24023e-10
4.64793e-10
8.38891e-10
1.46979e-09
2.56096e-09
4.34143e-09
7.01555e-09
1.06798e-08
1.53119e-08
2.023e-08
2.4651e-08
2.71345e-08
2.76823e-08
2.6921e-08
2.52924e-08
2.31384e-08
2.0661e-08
1.79305e-08
1.48858e-08
1.15492e-08
7.95792e-09
4.48861e-09
2.01455e-09
8.66232e-10
3.92919e-10
1.84898e-10
8.9798e-11
4.47469e-11
2.29166e-11
1.20111e-11
6.43412e-12
3.43898e-12
1.88934e-12
1.05557e-12
6.16854e-13
4.09953e-13
3.57838e-13
4.42986e-13
7.00339e-13
1.27357e-12
2.46117e-12
5.06546e-12
9.42337e-12
1.17825e-11
1.16003e-11
8.27265e-12
4.67348e-12
1.37652e-12
3.68364e-35
1.99121e-34
7.31462e-34
2.4942e-33
8.35526e-33
2.79149e-32
9.33432e-32
3.12828e-31
1.05017e-30
3.53298e-30
1.18616e-29
3.97173e-29
1.35575e-28
4.552e-28
1.52552e-27
5.16074e-27
1.72608e-26
5.76265e-26
1.92176e-25
6.33042e-25
2.10397e-24
6.82647e-24
2.19472e-23
7.00811e-23
2.2399e-22
7.16706e-22
2.23908e-21
6.90956e-21
2.15751e-20
6.5431e-20
1.95668e-19
6.09979e-19
1.7881e-18
5.20838e-18
1.48329e-17
4.27786e-17
1.18418e-16
3.19926e-16
9.09498e-16
2.52932e-15
6.5543e-15
1.67021e-14
4.25738e-14
1.08006e-13
2.77105e-13
7.05563e-13
1.82905e-12
4.24602e-12
9.56316e-12
2.19594e-11
5.02567e-11
1.12001e-10
2.39072e-10
4.9072e-10
8.79983e-10
1.52463e-09
2.62508e-09
4.43824e-09
7.12331e-09
1.07996e-08
1.54434e-08
2.03623e-08
2.47924e-08
2.72982e-08
2.78592e-08
2.71003e-08
2.54972e-08
2.33669e-08
2.08949e-08
1.81437e-08
1.50788e-08
1.17333e-08
8.12464e-09
4.60403e-09
2.07183e-09
8.90395e-10
4.03614e-10
1.89763e-10
9.2109e-11
4.58943e-11
2.34953e-11
1.23116e-11
6.59103e-12
3.52454e-12
1.93559e-12
1.08178e-12
6.34196e-13
4.25808e-13
3.78653e-13
4.77121e-13
7.6204e-13
1.39128e-12
2.69913e-12
5.57418e-12
1.00236e-11
1.235e-11
1.20426e-11
8.49088e-12
4.7898e-12
1.40903e-12
5.87808e-35
3.10464e-34
1.15232e-33
3.90463e-33
1.29382e-32
4.35134e-32
1.44339e-31
4.80674e-31
1.60386e-30
5.35246e-30
1.7874e-29
5.96978e-29
1.99218e-28
6.63671e-28
2.21172e-27
7.37769e-27
2.4584e-26
8.11073e-26
2.66781e-25
8.8057e-25
2.86459e-24
9.23287e-24
2.9171e-23
9.4572e-23
2.96197e-22
9.22355e-22
2.86036e-21
8.56639e-21
2.71383e-20
8.26441e-20
2.47397e-19
7.33845e-19
2.16601e-18
6.2977e-18
1.78856e-17
5.0986e-17
1.43926e-16
3.85212e-16
1.08858e-15
2.90966e-15
7.56192e-15
1.93778e-14
4.8583e-14
1.22251e-13
3.06513e-13
7.84519e-13
1.94308e-12
4.30682e-12
1.02514e-11
2.37462e-11
5.35934e-11
1.18031e-10
2.49871e-10
5.08882e-10
9.0801e-10
1.56751e-09
2.67892e-09
4.50431e-09
7.20795e-09
1.08952e-08
1.55417e-08
2.04688e-08
2.49123e-08
2.7441e-08
2.80206e-08
2.7266e-08
2.56658e-08
2.35475e-08
2.10724e-08
1.83197e-08
1.52472e-08
1.18947e-08
8.26696e-09
4.71111e-09
2.12668e-09
9.12758e-10
4.13724e-10
1.94425e-10
9.43419e-11
4.6989e-11
2.40497e-11
1.25988e-11
6.74212e-12
3.60684e-12
1.98035e-12
1.10727e-12
6.50907e-13
4.40602e-13
3.9741e-13
5.07261e-13
8.16118e-13
1.49392e-12
2.90666e-12
6.01832e-12
1.05541e-11
1.28602e-11
1.24509e-11
8.71169e-12
4.90922e-12
1.44287e-12
8.46013e-35
4.48969e-34
1.65696e-33
5.66435e-33
1.8975e-32
6.32373e-32
2.10451e-31
7.0022e-31
2.32932e-30
7.74487e-30
2.57187e-29
8.53898e-29
2.83642e-28
9.41039e-28
3.10687e-27
1.02481e-26
3.37558e-26
1.10593e-25
3.60862e-25
1.17329e-24
3.79459e-24
1.21577e-23
3.86618e-23
1.21923e-22
3.8162e-22
1.18601e-21
3.64851e-21
1.1046e-20
3.29957e-20
9.86697e-20
2.98333e-19
8.94237e-19
2.6085e-18
7.49643e-18
2.10287e-17
5.92449e-17
1.65798e-16
4.39453e-16
1.22105e-15
3.30918e-15
8.5605e-15
2.16301e-14
5.49334e-14
1.36569e-13
3.43443e-13
8.69315e-13
2.02061e-12
4.66789e-12
1.10419e-11
2.54028e-11
5.72671e-11
1.24492e-10
2.60728e-10
5.26299e-10
9.3345e-10
1.60196e-09
2.72406e-09
4.56121e-09
7.27358e-09
1.09661e-08
1.56139e-08
2.05451e-08
2.50063e-08
2.75607e-08
2.81667e-08
2.74452e-08
2.58353e-08
2.3719e-08
2.1237e-08
1.8487e-08
1.54095e-08
1.20503e-08
8.41122e-09
4.82138e-09
2.1842e-09
9.36235e-10
4.24004e-10
1.99158e-10
9.6607e-11
4.80878e-11
2.46056e-11
1.28867e-11
6.89398e-12
3.6889e-12
2.02507e-12
1.13264e-12
6.67125e-13
4.54189e-13
4.13692e-13
5.3262e-13
8.61058e-13
1.5788e-12
3.07779e-12
6.3838e-12
1.10036e-11
1.33041e-11
1.28171e-11
8.92297e-12
5.02466e-12
1.47591e-12
1.11247e-34
5.92828e-34
2.19616e-33
7.51914e-33
2.52265e-32
8.4056e-32
2.79233e-31
9.26781e-31
3.07541e-30
1.02401e-29
3.38918e-29
1.11929e-28
3.69251e-28
1.2219e-27
4.01139e-27
1.31397e-26
4.2999e-26
1.39979e-25
4.53148e-25
1.48131e-24
4.75583e-24
1.50138e-23
4.81407e-23
1.50346e-22
4.68557e-22
1.45955e-21
4.47886e-21
1.36138e-20
4.08836e-20
1.2075e-19
3.56567e-19
1.05357e-18
3.0508e-18
8.73735e-18
2.46756e-17
6.85216e-17
1.88739e-16
4.95946e-16
1.36924e-15
3.65853e-15
9.49697e-15
2.417e-14
6.07135e-14
1.51874e-13
3.63255e-13
8.52728e-13
2.11307e-12
5.06167e-12
1.18338e-11
2.71589e-11
6.03356e-11
1.29839e-10
2.69731e-10
5.40637e-10
9.5284e-10
1.62797e-09
2.75836e-09
4.60327e-09
7.32073e-09
1.10118e-08
1.56581e-08
2.05975e-08
2.50843e-08
2.76965e-08
2.83328e-08
2.76077e-08
2.60215e-08
2.38965e-08
2.14229e-08
1.86674e-08
1.55986e-08
1.22328e-08
8.56908e-09
4.94043e-09
2.24596e-09
9.61032e-10
4.3479e-10
2.04094e-10
9.89788e-11
4.92291e-11
2.5182e-11
1.31846e-11
7.05105e-12
3.7727e-12
2.07064e-12
1.15825e-12
6.82985e-13
4.66601e-13
4.27502e-13
5.53223e-13
8.96903e-13
1.64605e-12
3.21269e-12
6.67076e-12
1.13733e-11
1.36843e-11
1.31404e-11
9.1193e-12
5.13278e-12
1.50708e-12
1.33347e-34
7.49962e-34
2.74077e-33
9.34132e-33
3.16466e-32
1.05407e-31
3.51267e-31
1.16688e-30
3.86842e-30
1.27999e-29
4.23342e-29
1.40247e-28
4.61307e-28
1.51627e-27
4.97485e-27
1.61289e-26
5.38931e-26
1.74396e-25
5.62892e-25
1.80486e-24
5.72991e-24
1.84241e-23
5.79556e-23
1.81135e-22
5.61476e-22
1.72982e-21
5.2887e-21
1.59934e-20
4.86049e-20
1.44973e-19
4.25961e-19
1.23165e-18
3.51977e-18
9.9721e-18
2.7786e-17
7.63498e-17
2.071e-16
5.47038e-16
1.52853e-15
4.0136e-15
1.02186e-14
2.59018e-14
6.4734e-14
1.56459e-13
3.70035e-13
9.31431e-13
2.27401e-12
5.41564e-12
1.26665e-11
2.8736e-11
6.33157e-11
1.35164e-10
2.78202e-10
5.50141e-10
9.66661e-10
1.64914e-09
2.78345e-09
4.63087e-09
7.34623e-09
1.10322e-08
1.5672e-08
2.06111e-08
2.51254e-08
2.7787e-08
2.84654e-08
2.77729e-08
2.61901e-08
2.40574e-08
2.15825e-08
1.88341e-08
1.57579e-08
1.2389e-08
8.71547e-09
5.05877e-09
2.31371e-09
9.88829e-10
4.47092e-10
2.09728e-10
1.01618e-10
5.04669e-11
2.57971e-11
1.34987e-11
7.21542e-12
3.8589e-12
2.11697e-12
1.18405e-12
6.9848e-13
4.7792e-13
4.39062e-13
5.69543e-13
9.24572e-13
1.69751e-12
3.31505e-12
6.88705e-12
1.16704e-11
1.40026e-11
1.34219e-11
9.29813e-12
5.23199e-12
1.53587e-12
1.60699e-34
8.97779e-34
3.29637e-33
1.1285e-32
3.78637e-32
1.26171e-31
4.194e-31
1.3916e-30
4.60443e-30
1.52412e-29
5.10152e-29
1.68186e-28
5.52972e-28
1.8235e-27
5.98834e-27
1.95125e-26
6.41538e-26
2.06859e-25
6.63904e-25
2.12933e-24
6.70584e-24
2.15371e-23
6.74897e-23
2.10005e-22
6.42923e-22
1.99633e-21
6.0432e-21
1.82558e-20
5.52345e-20
1.64557e-19
4.82443e-19
1.39239e-18
3.9535e-18
1.12206e-17
3.09903e-17
8.47318e-17
2.28874e-16
6.04015e-16
1.66848e-15
4.32545e-15
1.09489e-14
2.73292e-14
6.68555e-14
1.60545e-13
4.02399e-13
1.00157e-12
2.43931e-12
5.81655e-12
1.34987e-11
3.05086e-11
6.70718e-11
1.43018e-10
2.96043e-10
5.53183e-10
9.77363e-10
1.66486e-09
2.79986e-09
4.64603e-09
7.3554e-09
1.10307e-08
1.56571e-08
2.0592e-08
2.51335e-08
2.78481e-08
2.85682e-08
2.79036e-08
2.63374e-08
2.42172e-08
2.17337e-08
1.89824e-08
1.59113e-08
1.25429e-08
8.86975e-09
5.1874e-09
2.38373e-09
1.01611e-09
4.58952e-10
2.15051e-10
1.04147e-10
5.16597e-11
2.6394e-11
1.3805e-11
7.37668e-12
3.94344e-12
2.16311e-12
1.2094e-12
7.13293e-13
4.88109e-13
4.48654e-13
5.82266e-13
9.45444e-13
1.73586e-12
3.39056e-12
7.0455e-12
1.19082e-11
1.42708e-11
1.36677e-11
9.4604e-12
5.32248e-12
1.56227e-12
1.92615e-34
1.03289e-33
3.81381e-33
1.30474e-32
4.37196e-32
1.45578e-31
4.84139e-31
1.61043e-30
5.34292e-30
1.78295e-29
5.91442e-29
1.95385e-28
6.42935e-28
2.12086e-27
6.98264e-27
2.27659e-26
7.38955e-26
2.38986e-25
7.67887e-25
2.45268e-24
7.77863e-24
2.4471e-23
7.69791e-23
2.3883e-22
7.35307e-22
2.24283e-21
6.79637e-21
2.02221e-20
6.13924e-20
1.80871e-19
5.17158e-19
1.53386e-18
4.37692e-18
1.2187e-17
3.45713e-17
9.33864e-17
2.48294e-16
6.53701e-16
1.75991e-15
4.65598e-15
1.16744e-14
2.89384e-14
7.054e-14
1.71819e-13
4.29813e-13
1.06533e-12
2.58719e-12
6.14594e-12
1.42038e-11
3.19589e-11
6.99639e-11
1.48566e-10
3.05342e-10
5.53716e-10
9.8691e-10
1.67827e-09
2.811e-09
4.65233e-09
7.35352e-09
1.10164e-08
1.56289e-08
2.05612e-08
2.51263e-08
2.78949e-08
2.86566e-08
2.80188e-08
2.6467e-08
2.4361e-08
2.1882e-08
1.91223e-08
1.6071e-08
1.27016e-08
9.01888e-09
5.30857e-09
2.45156e-09
1.0436e-09
4.70718e-10
2.20448e-10
1.06698e-10
5.28557e-11
2.69852e-11
1.41062e-11
7.53475e-12
4.026e-12
2.20815e-12
1.23456e-12
7.27921e-13
4.97689e-13
4.5677e-13
5.922e-13
9.61132e-13
1.76451e-12
3.44587e-12
7.15908e-12
1.20985e-11
1.44961e-11
1.38817e-11
9.60638e-12
5.40431e-12
1.5863e-12
2.11305e-34
1.15803e-33
4.29298e-33
1.467e-32
4.91668e-32
1.6389e-31
5.45739e-31
1.81649e-30
6.05886e-30
2.01689e-29
6.6914e-29
2.21107e-28
7.2705e-28
2.40432e-27
7.84386e-27
2.54217e-26
8.07681e-26
2.70385e-25
8.63116e-25
2.75865e-24
8.74421e-24
2.75259e-23
8.60173e-23
2.63178e-22
8.2278e-22
2.48562e-21
7.44889e-21
2.21777e-20
6.60817e-20
2.00051e-19
5.76305e-19
1.68111e-18
4.76288e-18
1.34571e-17
3.69913e-17
9.97365e-17
2.63741e-16
6.91789e-16
1.85838e-15
4.94062e-15
1.24311e-14
3.09131e-14
7.45743e-14
1.85045e-13
4.5281e-13
1.11993e-12
2.71292e-12
6.3936e-12
1.46776e-11
3.28194e-11
7.14057e-11
1.50733e-10
3.07816e-10
5.53861e-10
9.9729e-10
1.68834e-09
2.81627e-09
4.65067e-09
7.33953e-09
1.09872e-08
1.55898e-08
2.05167e-08
2.51028e-08
2.79262e-08
2.87331e-08
2.81253e-08
2.65889e-08
2.44951e-08
2.20196e-08
1.92632e-08
1.62166e-08
1.28415e-08
9.15526e-09
5.42535e-09
2.52126e-09
1.07131e-09
4.82797e-10
2.25846e-10
1.09214e-10
5.40254e-11
2.75746e-11
1.44101e-11
7.69503e-12
4.10807e-12
2.25251e-12
1.25894e-12
7.41793e-13
5.06418e-13
4.63742e-13
6.00091e-13
9.72814e-13
1.78503e-12
3.48501e-12
7.23948e-12
1.22552e-11
1.46978e-11
1.40818e-11
9.74769e-12
5.48377e-12
1.60961e-12
2.25626e-34
1.30096e-33
4.78935e-33
1.63664e-32
5.49437e-32
1.8368e-31
6.13205e-31
2.03978e-30
6.77179e-30
2.24426e-29
7.41792e-29
2.44127e-28
8.12617e-28
2.63043e-27
8.60787e-27
2.81871e-26
9.22505e-26
2.96668e-25
9.49788e-25
3.01403e-24
9.47429e-24
2.92816e-23
9.41089e-23
2.89392e-22
8.86544e-22
2.68594e-21
8.17087e-21
2.43334e-20
7.23215e-20
2.12439e-19
6.1174e-19
1.80239e-18
5.02762e-18
1.42524e-17
3.89496e-17
1.05152e-16
2.78903e-16
7.1764e-16
1.95967e-15
5.2195e-15
1.29622e-14
3.20044e-14
7.84135e-14
1.95021e-13
4.72651e-13
1.16651e-12
2.80434e-12
6.57183e-12
1.50115e-11
3.3405e-11
7.23344e-11
1.5211e-10
3.0904e-10
5.53676e-10
1.00486e-09
1.6957e-09
2.81791e-09
4.64439e-09
7.32217e-09
1.09523e-08
1.55353e-08
2.04555e-08
2.50685e-08
2.79445e-08
2.87945e-08
2.82163e-08
2.66984e-08
2.46064e-08
2.21407e-08
1.93894e-08
1.63478e-08
1.29771e-08
9.28566e-09
5.5353e-09
2.58625e-09
1.09801e-09
4.94306e-10
2.31003e-10
1.11666e-10
5.51753e-11
2.8144e-11
1.47004e-11
7.84738e-12
4.18672e-12
2.29483e-12
1.28204e-12
7.54723e-13
5.14234e-13
4.695e-13
6.06099e-13
9.81314e-13
1.80008e-12
3.51287e-12
7.29466e-12
1.23821e-11
1.48659e-11
1.42525e-11
9.87084e-12
5.55315e-12
1.63007e-12
2.65067e-34
1.41131e-33
5.21629e-33
1.7868e-32
5.99363e-32
2.00076e-31
6.70275e-31
2.22248e-30
7.33281e-30
2.40281e-29
8.04234e-29
2.69161e-28
8.7991e-28
2.84819e-27
9.50552e-27
3.06686e-26
9.85668e-26
3.2123e-25
1.02303e-24
3.21154e-24
1.03803e-23
3.24439e-23
1.01078e-22
3.10252e-22
9.57633e-22
2.88618e-21
8.69298e-21
2.57984e-20
7.619e-20
2.26617e-19
6.59552e-19
1.8976e-18
5.29159e-18
1.49323e-17
4.02828e-17
1.07543e-16
2.92376e-16
7.49516e-16
2.03026e-15
5.31921e-15
1.37269e-14
3.37751e-14
8.2895e-14
1.99453e-13
4.88647e-13
1.1999e-12
2.87318e-12
6.70806e-12
1.52688e-11
3.38638e-11
7.30755e-11
1.52994e-10
3.09754e-10
5.53401e-10
1.00982e-09
1.70002e-09
2.81584e-09
4.63371e-09
7.29832e-09
1.0915e-08
1.54818e-08
2.03942e-08
2.50265e-08
2.79531e-08
2.8845e-08
2.82955e-08
2.67957e-08
2.47153e-08
2.22536e-08
1.9503e-08
1.64641e-08
1.30957e-08
9.40326e-09
5.63907e-09
2.64773e-09
1.12317e-09
5.05101e-10
2.35879e-10
1.13942e-10
5.62301e-11
2.86648e-11
1.4965e-11
7.98566e-12
4.25742e-12
2.33289e-12
1.30276e-12
7.66222e-13
5.2099e-13
4.74153e-13
6.10512e-13
9.87059e-13
1.80987e-12
3.53029e-12
7.32811e-12
1.24776e-11
1.50011e-11
1.43942e-11
9.97541e-12
5.61223e-12
1.64754e-12
2.84585e-34
1.51661e-33
5.60854e-33
1.92256e-32
6.46843e-32
2.15857e-31
7.18772e-31
2.3893e-30
7.92084e-30
2.61538e-29
8.63628e-29
2.85876e-28
9.40318e-28
3.08699e-27
1.01084e-26
3.28534e-26
1.05677e-25
3.42301e-25
1.08903e-24
3.45438e-24
1.09737e-23
3.44079e-23
1.07249e-22
3.31092e-22
1.00919e-21
3.04161e-21
9.16606e-21
2.70965e-20
7.91759e-20
2.3581e-19
6.79391e-19
1.95944e-18
5.55557e-18
1.54245e-17
4.21951e-17
1.14167e-16
3.03599e-16
8.09187e-16
2.13174e-15
5.65384e-15
1.41254e-14
3.43384e-14
8.45226e-14
2.03581e-13
5.01013e-13
1.22569e-12
2.92523e-12
6.80824e-12
1.545e-11
3.41636e-11
7.35376e-11
1.53576e-10
3.102e-10
5.5299e-10
1.01304e-09
1.70234e-09
2.81191e-09
4.62084e-09
7.27362e-09
1.08748e-08
1.54287e-08
2.03364e-08
2.49857e-08
2.7955e-08
2.88831e-08
2.83585e-08
2.68738e-08
2.48017e-08
2.23472e-08
1.9599e-08
1.65621e-08
1.31962e-08
9.50404e-09
5.72659e-09
2.70051e-09
1.14481e-09
5.14371e-10
2.40029e-10
1.15882e-10
5.7129e-11
2.91084e-11
1.51898e-11
8.10345e-12
4.31757e-12
2.36526e-12
1.32036e-12
7.7593e-13
5.26582e-13
4.77819e-13
6.1373e-13
9.90955e-13
1.81625e-12
3.54114e-12
7.34805e-12
1.25497e-11
1.51081e-11
1.45088e-11
1.00613e-11
5.66078e-12
1.66192e-12
2.79437e-34
1.59727e-33
5.89034e-33
2.01784e-32
6.77615e-32
2.2644e-31
7.55803e-31
2.51727e-30
8.34272e-30
2.75333e-29
9.13551e-29
3.00582e-28
9.87485e-28
3.23876e-27
1.05887e-26
3.44808e-26
1.12357e-25
3.60964e-25
1.15081e-24
3.64794e-24
1.15643e-23
3.60174e-23
1.12675e-22
3.46315e-22
1.05626e-21
3.19049e-21
9.53455e-21
2.81383e-20
8.27895e-20
2.44962e-19
7.07665e-19
2.05493e-18
5.7699e-18
1.59879e-17
4.37021e-17
1.18623e-16
3.1688e-16
8.33135e-16
2.17883e-15
5.69915e-15
1.43208e-14
3.52173e-14
8.45412e-14
2.06085e-13
5.10879e-13
1.24547e-12
2.96465e-12
6.88413e-12
1.55878e-11
3.4393e-11
7.3881e-11
1.53985e-10
3.10462e-10
5.52631e-10
1.01492e-09
1.7032e-09
2.80758e-09
4.60993e-09
7.25405e-09
1.08448e-08
1.53893e-08
2.029e-08
2.49512e-08
2.79546e-08
2.89114e-08
2.84066e-08
2.69343e-08
2.48701e-08
2.24205e-08
1.96735e-08
1.66373e-08
1.32728e-08
9.58006e-09
5.79421e-09
2.74203e-09
1.16189e-09
5.21684e-10
2.43301e-10
1.1741e-10
5.78371e-11
2.94576e-11
1.53664e-11
8.19563e-12
4.3646e-12
2.39058e-12
1.33413e-12
7.83501e-13
5.30887e-13
4.80536e-13
6.15953e-13
9.9344e-13
1.82022e-12
3.54758e-12
7.35926e-12
1.26019e-11
1.51884e-11
1.45962e-11
1.01276e-11
5.69831e-12
1.67304e-12
3.05081e-34
1.63128e-33
6.03007e-33
2.08799e-32
7.00143e-32
2.33647e-31
7.78522e-31
2.59308e-30
8.62343e-30
2.85662e-29
9.4382e-29
3.11184e-28
1.0248e-27
3.37331e-27
1.10758e-26
3.60533e-26
1.16672e-25
3.75283e-25
1.199e-24
3.80277e-24
1.19695e-23
3.73567e-23
1.15638e-22
3.53667e-22
1.09039e-21
3.29306e-21
9.88898e-21
2.92781e-20
8.7159e-20
2.52916e-19
7.26955e-19
2.06551e-18
5.89101e-18
1.62909e-17
4.5054e-17
1.2234e-16
3.23954e-16
8.37611e-16
2.20375e-15
5.7336e-15
1.43643e-14
3.51774e-14
8.53748e-14
2.08378e-13
5.17862e-13
1.25958e-12
2.99257e-12
6.93771e-12
1.56856e-11
3.45611e-11
7.41215e-11
1.54282e-10
3.10641e-10
5.52362e-10
1.016e-09
1.70346e-09
2.80403e-09
4.60127e-09
7.23848e-09
1.08209e-08
1.53576e-08
2.02538e-08
2.49228e-08
2.79493e-08
2.89261e-08
2.84356e-08
2.69723e-08
2.49134e-08
2.24689e-08
1.97229e-08
1.6688e-08
1.33259e-08
9.63414e-09
5.84184e-09
2.77139e-09
1.17396e-09
5.26843e-10
2.45604e-10
1.18484e-10
5.83346e-11
2.9703e-11
1.54912e-11
8.26071e-12
4.39771e-12
2.40838e-12
1.34379e-12
7.88788e-13
5.33858e-13
4.82358e-13
6.1736e-13
9.94904e-13
1.82249e-12
3.55103e-12
7.36488e-12
1.2636e-11
1.52426e-11
1.46561e-11
1.01734e-11
5.72423e-12
1.68072e-12
3.09729e-34
1.68271e-33
6.19956e-33
2.12323e-32
7.14116e-32
2.39259e-31
7.98131e-31
2.65876e-30
8.84746e-30
2.93813e-29
9.72502e-29
3.20901e-28
1.05563e-27
3.46362e-27
1.13457e-26
3.68907e-26
1.19238e-25
3.83144e-25
1.2187e-24
3.84874e-24
1.21147e-23
3.78082e-23
1.18168e-22
3.61444e-22
1.11115e-21
3.34568e-21
1.00481e-20
3.00608e-20
8.84752e-20
2.57858e-19
7.4292e-19
2.14894e-18
5.98989e-18
1.65517e-17
4.57083e-17
1.22389e-16
3.27411e-16
8.49576e-16
2.29162e-15
5.90238e-15
1.45566e-14
3.57199e-14
8.53656e-14
2.11788e-13
5.21561e-13
1.26809e-12
3.01074e-12
6.97289e-12
1.57488e-11
3.46654e-11
7.4273e-11
1.54465e-10
3.10778e-10
5.52253e-10
1.01672e-09
1.70374e-09
2.80224e-09
4.5967e-09
7.22996e-09
1.08073e-08
1.53388e-08
2.02322e-08
2.49049e-08
2.79432e-08
2.89306e-08
2.84477e-08
2.69894e-08
2.4934e-08
2.24923e-08
1.97476e-08
1.6714e-08
1.33528e-08
9.66164e-09
5.8666e-09
2.78681e-09
1.18031e-09
5.29552e-10
2.46813e-10
1.19047e-10
5.8595e-11
2.98315e-11
1.55566e-11
8.29497e-12
4.41516e-12
2.41778e-12
1.34889e-12
7.91585e-13
5.35425e-13
4.83305e-13
6.18071e-13
9.95613e-13
1.82356e-12
3.5526e-12
7.36726e-12
1.26536e-11
1.52709e-11
1.46875e-11
1.01976e-11
5.73791e-12
1.68479e-12
3.06065e-34
1.67916e-33
6.31098e-33
2.15395e-32
7.23331e-32
2.41488e-31
8.04561e-31
2.67969e-30
8.92681e-30
2.98002e-29
9.86435e-29
3.25293e-28
1.06543e-27
3.44439e-27
1.15689e-26
3.74368e-26
1.2082e-25
3.87808e-25
1.23774e-24
3.91431e-24
1.24063e-23
3.87594e-23
1.20205e-22
3.68815e-22
1.1168e-21
3.41248e-21
1.02045e-20
3.04225e-20
9.0479e-20
2.65003e-19
7.61329e-19
2.15112e-18
6.11173e-18
1.70924e-17
4.65002e-17
1.24372e-16
3.32397e-16
8.53563e-16
2.30791e-15
5.86348e-15
1.47834e-14
3.60361e-14
8.71171e-14
2.1207e-13
5.23695e-13
1.27319e-12
3.0213e-12
6.99353e-12
1.5787e-11
3.47318e-11
7.43792e-11
1.54609e-10
3.10928e-10
5.52316e-10
1.01741e-09
1.70432e-09
2.8022e-09
4.59569e-09
7.22752e-09
1.0803e-08
1.53324e-08
2.02241e-08
2.48968e-08
2.79371e-08
2.89265e-08
2.84453e-08
2.69883e-08
2.4934e-08
2.24932e-08
1.97491e-08
1.67162e-08
1.33557e-08
9.66503e-09
5.86997e-09
2.78899e-09
1.18119e-09
5.2992e-10
2.46972e-10
1.19119e-10
5.86279e-11
2.98473e-11
1.55644e-11
8.29904e-12
4.41721e-12
2.41887e-12
1.34949e-12
7.91914e-13
5.35616e-13
4.83433e-13
6.18187e-13
9.95758e-13
1.8238e-12
3.55301e-12
7.36801e-12
1.26565e-11
1.52752e-11
1.4692e-11
1.02009e-11
5.73975e-12
1.68533e-12
3.0566e-34
1.71112e-33
6.32803e-33
2.1684e-32
7.29384e-32
2.44001e-31
8.14396e-31
2.71342e-30
9.02312e-30
2.99356e-29
9.90666e-29
3.26938e-28
1.07427e-27
3.50634e-27
1.16111e-26
3.7636e-26
1.21223e-25
3.85787e-25
1.25066e-24
3.95369e-24
1.2507e-23
3.91346e-23
1.21607e-22
3.7484e-22
1.14181e-21
3.43828e-21
1.01601e-20
3.0996e-20
9.10082e-20
2.65861e-19
7.68802e-19
2.18835e-18
6.19334e-18
1.71042e-17
4.69335e-17
1.25295e-16
3.3455e-16
8.63787e-16
2.32105e-15
5.89833e-15
1.48565e-14
3.57242e-14
8.81338e-14
2.12677e-13
5.23583e-13
1.27511e-12
3.02528e-12
7.00176e-12
1.58041e-11
3.47664e-11
7.44473e-11
1.54737e-10
3.11154e-10
5.5267e-10
1.01827e-09
1.70563e-09
2.80493e-09
4.60001e-09
7.2337e-09
1.08113e-08
1.53423e-08
2.02339e-08
2.49017e-08
2.79318e-08
2.89131e-08
2.84266e-08
2.69667e-08
2.4911e-08
2.24695e-08
1.97257e-08
1.6693e-08
1.33326e-08
9.64259e-09
5.85053e-09
2.77705e-09
1.17628e-09
5.27817e-10
2.4603e-10
1.18679e-10
5.84234e-11
2.97463e-11
1.55131e-11
8.27211e-12
4.40349e-12
2.41149e-12
1.34548e-12
7.89734e-13
5.34416e-13
4.82743e-13
6.17725e-13
9.95379e-13
1.8233e-12
3.55247e-12
7.36762e-12
1.26447e-11
1.52551e-11
1.46692e-11
1.01829e-11
5.72958e-12
1.68231e-12
3.09297e-34
1.69775e-33
6.24882e-33
2.14481e-32
7.22716e-32
2.42191e-31
8.09189e-31
2.69607e-30
8.95556e-30
2.96476e-29
9.77905e-29
3.21498e-28
1.05505e-27
3.46174e-27
1.13409e-26
3.68255e-26
1.18289e-25
3.81245e-25
1.22794e-24
3.88994e-24
1.21997e-23
3.86688e-23
1.19718e-22
3.71949e-22
1.12978e-21
3.39413e-21
1.01276e-20
3.04913e-20
8.95405e-20
2.61518e-19
7.53284e-19
2.13925e-18
6.17198e-18
1.69284e-17
4.51853e-17
1.22381e-16
3.28022e-16
8.36977e-16
2.23401e-15
5.94061e-15
1.44639e-14
3.60203e-14
8.58572e-14
2.13157e-13
5.23277e-13
1.27304e-12
3.0214e-12
6.99575e-12
1.57971e-11
3.47649e-11
7.44719e-11
1.54838e-10
3.11445e-10
5.53329e-10
1.01939e-09
1.70783e-09
2.81065e-09
4.60994e-09
7.24875e-09
1.08321e-08
1.53684e-08
2.02616e-08
2.492e-08
2.79282e-08
2.88915e-08
2.8393e-08
2.69262e-08
2.48668e-08
2.2423e-08
1.9679e-08
1.66461e-08
1.32852e-08
9.59585e-09
5.8094e-09
2.7517e-09
1.16585e-09
5.23347e-10
2.44031e-10
1.17745e-10
5.79903e-11
2.95324e-11
1.54045e-11
8.21531e-12
4.37457e-12
2.39593e-12
1.33705e-12
7.85135e-13
5.31874e-13
4.81262e-13
6.16706e-13
9.94492e-13
1.82207e-12
3.55097e-12
7.36597e-12
1.26187e-11
1.52115e-11
1.46199e-11
1.01446e-11
5.7078e-12
1.67583e-12
3.13355e-34
1.6656e-33
6.1479e-33
2.0802e-32
7.13274e-32
2.37386e-31
7.91373e-31
2.63416e-30
8.74786e-30
2.89871e-29
9.58284e-29
3.1592e-28
1.03826e-27
3.40251e-27
1.1098e-26
3.59326e-26
1.17332e-25
3.76294e-25
1.20156e-24
3.81536e-24
1.20654e-23
3.80263e-23
1.18183e-22
3.63687e-22
1.10852e-21
3.34691e-21
1.00133e-20
2.97598e-20
8.86506e-20
2.58631e-19
7.46668e-19
2.12022e-18
6.02278e-18
1.66597e-17
4.56609e-17
1.23341e-16
3.26116e-16
8.37787e-16
2.24354e-15
5.88796e-15
1.45641e-14
3.53258e-14
8.53543e-14
2.12908e-13
5.20596e-13
1.26707e-12
3.01045e-12
6.97716e-12
1.57698e-11
3.47345e-11
7.44684e-11
1.54946e-10
3.11864e-10
5.54382e-10
1.02094e-09
1.71117e-09
2.8198e-09
4.62626e-09
7.27396e-09
1.08675e-08
1.54128e-08
2.0309e-08
2.49524e-08
2.79258e-08
2.88606e-08
2.83433e-08
2.68654e-08
2.48e-08
2.23518e-08
1.96078e-08
1.65742e-08
1.32126e-08
9.52359e-09
5.74665e-09
2.71345e-09
1.15016e-09
5.16635e-10
2.4103e-10
1.16344e-10
5.73417e-11
2.9212e-11
1.52413e-11
8.13009e-12
4.33119e-12
2.37261e-12
1.3244e-12
7.78237e-13
5.28048e-13
4.79008e-13
6.15108e-13
9.93034e-13
1.81999e-12
3.54823e-12
7.36248e-12
1.25787e-11
1.51452e-11
1.45454e-11
1.00867e-11
5.67501e-12
1.6661e-12
2.93534e-34
1.61223e-33
5.95588e-33
2.04718e-32
6.86089e-32
2.28624e-31
7.62735e-31
2.54962e-30
8.46357e-30
2.80199e-29
9.2516e-29
3.04752e-28
1.00276e-27
3.3054e-27
1.07611e-26
3.48463e-26
1.12317e-25
3.60104e-25
1.15023e-24
3.66923e-24
1.1637e-23
3.6004e-23
1.13956e-22
3.47565e-22
1.07936e-21
3.255e-21
9.73981e-21
2.88797e-20
8.60534e-20
2.52965e-19
7.17421e-19
2.10291e-18
5.87727e-18
1.62943e-17
4.47405e-17
1.20297e-16
3.20795e-16
8.31671e-16
2.17425e-15
5.65708e-15
1.44004e-14
3.50358e-14
8.39115e-14
2.10035e-13
5.16528e-13
1.25786e-12
2.99185e-12
6.94273e-12
1.57132e-11
3.46592e-11
7.44079e-11
1.55011e-10
3.12342e-10
5.55747e-10
1.0226e-09
1.71511e-09
2.83139e-09
4.64742e-09
7.30712e-09
1.09145e-08
1.54722e-08
2.03731e-08
2.49973e-08
2.79232e-08
2.88205e-08
2.82783e-08
2.67858e-08
2.47121e-08
2.22595e-08
1.95143e-08
1.64815e-08
1.31194e-08
9.43201e-09
5.66662e-09
2.66485e-09
1.1302e-09
5.08076e-10
2.37197e-10
1.14551e-10
5.65099e-11
2.87996e-11
1.50324e-11
8.02093e-12
4.27557e-12
2.34267e-12
1.30816e-12
7.69358e-13
5.23089e-13
4.76026e-13
6.12894e-13
9.90867e-13
1.81677e-12
3.54364e-12
7.35569e-12
1.25244e-11
1.50572e-11
1.44474e-11
1.00112e-11
5.63218e-12
1.65339e-12
2.88243e-34
1.537e-33
5.70141e-33
1.95239e-32
6.5326e-32
2.17356e-31
7.28102e-31
2.41251e-30
7.98767e-30
2.6681e-29
8.78586e-29
2.88835e-28
9.4823e-28
3.11508e-27
1.0272e-26
3.33107e-26
1.07406e-25
3.44917e-25
1.10675e-24
3.46956e-24
1.11526e-23
3.47794e-23
1.08327e-22
3.34769e-22
1.02684e-21
3.10772e-21
9.37341e-21
2.78447e-20
8.30997e-20
2.41422e-19
6.94097e-19
2.00751e-18
5.66384e-18
1.57371e-17
4.22113e-17
1.15827e-16
3.08184e-16
8.03978e-16
2.13168e-15
5.64205e-15
1.39031e-14
3.51039e-14
8.42293e-14
2.06659e-13
5.08454e-13
1.24295e-12
2.96385e-12
6.89095e-12
1.56264e-11
3.453e-11
7.42699e-11
1.55e-10
3.12841e-10
5.57381e-10
1.02381e-09
1.7192e-09
2.84472e-09
4.67213e-09
7.34613e-09
1.09698e-08
1.55416e-08
2.04463e-08
2.50445e-08
2.79168e-08
2.87704e-08
2.8199e-08
2.66888e-08
2.46074e-08
2.21511e-08