/*--------------------------------*- C++ -*----------------------------------*\
  =========                 |
  \\      /  F ield         | OpenFOAM: The Open Source CFD Toolbox
   \\    /   O peration     | Website:  https://openfoam.org
    \\  /    A nd           | Version:  10
     \\/     M anipulation  |
\*---------------------------------------------------------------------------*/
FoamFile
{
    format      ascii;
    class       volScalarField;
    location    "1";
    object      C12H25O2;
}
// * * * * * * * * * * * * * * * * * * * * * * * * * * * * * * * * * * * * * //

dimensions      [0 0 0 0 0 0 0];

internalField   nonuniform List<scalar> 
4000
(
5.71653e-35
3.76263e-34
1.75099e-33
7.0992e-33
2.68702e-32
9.52218e-32
3.20918e-31
1.04321e-30
3.30724e-30
1.03592e-29
3.25882e-29
9.67498e-29
2.85748e-28
8.52045e-28
2.57501e-27
7.87349e-27
2.43162e-26
7.87191e-26
2.52019e-25
8.19024e-25
2.6835e-24
8.74594e-24
3.08998e-23
1.04719e-22
3.61391e-22
1.24672e-21
4.2621e-21
1.51505e-20
5.24125e-20
1.81977e-19
6.33879e-19
2.21167e-18
7.65451e-18
2.64067e-17
9.0897e-17
3.0234e-16
1.02929e-15
3.59168e-15
1.22201e-14
4.12391e-14
1.3437e-13
4.31785e-13
1.36147e-12
4.19479e-12
1.26168e-11
4.05207e-11
1.32532e-10
4.2339e-10
1.29859e-09
3.75384e-09
1.00611e-08
2.52618e-08
5.45181e-08
1.19932e-07
2.50179e-07
4.87818e-07
8.77589e-07
1.51123e-06
2.39891e-06
3.43504e-06
4.23479e-06
4.07224e-06
2.40503e-06
7.30107e-07
1.83706e-07
4.50757e-08
1.1571e-08
3.30367e-09
1.06921e-09
3.94425e-10
1.66715e-10
8.22972e-11
4.48406e-11
2.35472e-11
1.08024e-11
4.7447e-12
2.1671e-12
1.02561e-12
5.00995e-13
2.51338e-13
1.29969e-13
6.94566e-14
3.90104e-14
2.41589e-14
1.81117e-14
1.80047e-14
2.33314e-14
3.5552e-14
5.87093e-14
1.01465e-13
1.81787e-13
3.43192e-13
6.64853e-13
1.35966e-12
2.95322e-12
6.87957e-12
1.72546e-11
4.30772e-11
2.71434e-11
7.0218e-12
4.06379e-35
2.49356e-34
9.8712e-34
3.6282e-33
1.28622e-32
4.43661e-32
1.49486e-31
4.93039e-31
1.54741e-30
4.75226e-30
1.44833e-29
4.43157e-29
1.37259e-28
4.3294e-28
1.39421e-27
4.59407e-27
1.5401e-26
5.26462e-26
1.8267e-25
6.39702e-25
2.26392e-24
8.09334e-24
2.89733e-23
1.04e-22
3.74431e-22
1.34237e-21
4.81294e-21
1.72316e-20
6.12516e-20
2.1608e-19
7.60897e-19
2.83186e-18
9.9397e-18
3.4385e-17
1.1868e-16
4.03796e-16
1.40694e-15
4.74201e-15
1.60727e-14
5.32947e-14
1.75457e-13
5.60126e-13
1.77852e-12
5.4889e-12
1.73713e-11
5.64849e-11
1.82225e-10
5.71486e-10
1.7276e-09
4.96331e-09
1.21399e-08
2.70626e-08
6.22079e-08
1.33554e-07
2.7456e-07
5.35648e-07
9.37707e-07
1.58143e-06
2.47437e-06
3.4861e-06
4.26397e-06
4.09209e-06
2.44264e-06
7.55801e-07
1.92905e-07
4.77735e-08
1.23096e-08
3.48944e-09
1.12386e-09
4.13042e-10
1.7361e-10
8.53105e-11
4.6586e-11
2.45915e-11
1.1304e-11
4.94688e-12
2.25269e-12
1.06315e-12
5.18062e-13
2.59343e-13
1.33739e-13
7.13493e-14
4.00354e-14
2.47648e-14
1.85595e-14
1.84812e-14
2.40121e-14
3.66799e-14
6.07507e-14
1.0517e-13
1.88802e-13
3.57189e-13
6.93888e-13
1.4228e-12
3.10224e-12
7.25561e-12
1.82113e-11
4.44457e-11
2.69554e-11
6.91829e-12
1.67831e-35
9.22778e-35
3.33988e-34
1.09031e-33
3.42607e-33
1.05459e-32
3.19717e-32
9.72058e-32
3.06259e-31
1.02587e-30
3.56793e-30
1.28161e-29
4.71929e-29
1.76396e-28
6.65995e-28
2.53077e-27
9.6362e-27
3.61243e-26
1.43325e-25
5.44795e-25
2.07759e-24
7.87924e-24
2.96807e-23
1.10896e-22
4.11173e-22
1.51665e-21
5.58074e-21
2.05963e-20
7.4295e-20
2.67026e-19
9.84528e-19
3.49274e-18
1.21415e-17
4.28568e-17
1.5077e-16
5.18276e-16
1.75679e-15
5.93588e-15
1.99197e-14
6.52988e-14
2.12081e-13
6.49571e-13
2.17705e-12
6.63019e-12
2.19226e-11
6.97545e-11
2.25448e-10
6.9913e-10
2.03755e-09
5.71421e-09
1.38359e-08
3.09531e-08
7.04197e-08
1.52836e-07
3.03653e-07
5.60762e-07
9.66818e-07
1.61762e-06
2.51306e-06
3.52613e-06
4.2909e-06
4.10775e-06
2.46795e-06
7.77414e-07
2.00581e-07
5.00343e-08
1.29357e-08
3.67225e-09
1.17908e-09
4.32304e-10
1.80485e-10
8.84463e-11
4.83663e-11
2.57123e-11
1.18783e-11
5.18443e-12
2.3547e-12
1.10839e-12
5.38901e-13
2.69291e-13
1.38799e-13
7.39393e-14
4.14129e-14
2.55633e-14
1.91579e-14
1.91123e-14
2.48908e-14
3.80975e-14
6.31326e-14
1.09511e-13
1.96715e-13
3.7227e-13
7.24108e-13
1.48865e-12
3.25476e-12
7.64174e-12
1.91925e-11
4.55055e-11
2.66569e-11
6.7946e-12
5.60324e-36
3.00447e-35
1.10087e-34
3.69731e-34
1.22094e-33
4.09029e-33
1.41701e-32
5.2505e-32
1.97503e-31
7.5711e-31
2.98674e-30
1.17702e-29
4.71221e-29
1.85862e-28
7.32602e-28
2.87837e-27
1.12648e-26
4.3882e-26
1.6997e-25
6.54823e-25
2.50739e-24
9.56792e-24
3.62152e-23
1.36206e-22
5.15388e-22
1.91118e-21
7.04857e-21
2.57106e-20
9.0784e-20
3.4344e-19
1.2241e-18
4.35606e-18
1.53128e-17
5.38524e-17
1.88414e-16
6.45931e-16
2.17524e-15
7.36693e-15
2.40998e-14
8.09513e-14
2.61903e-13
8.27682e-13
2.67267e-12
8.16996e-12
2.57169e-11
8.43171e-11
2.69415e-10
8.19407e-10
2.42512e-09
6.14005e-09
1.46632e-08
3.57613e-08
8.11074e-08
1.69838e-07
3.31191e-07
5.7853e-07
9.9694e-07
1.65627e-06
2.55917e-06
3.56194e-06
4.31373e-06
4.12459e-06
2.49695e-06
7.97202e-07
2.07591e-07
5.21412e-08
1.35446e-08
3.84384e-09
1.23145e-09
4.50527e-10
1.87736e-10
9.18443e-11
5.02076e-11
2.67761e-11
1.24605e-11
5.37785e-12
2.44491e-12
1.15185e-12
5.60374e-13
2.80079e-13
1.44228e-13
7.67645e-14
4.30383e-14
2.62639e-14
1.97201e-14
1.97047e-14
2.56754e-14
3.92734e-14
6.50314e-14
1.13807e-13
2.04138e-13
3.86094e-13
7.52737e-13
1.55117e-12
3.40144e-12
8.00642e-12
2.01162e-11
4.5886e-11
2.62409e-11
6.65377e-12
3.99701e-36
2.21051e-35
8.67855e-35
3.21316e-34
1.18496e-33
4.41864e-33
1.66994e-32
6.377e-32
2.44955e-31
9.69824e-31
3.79712e-30
1.49912e-29
5.97382e-29
2.34912e-28
9.36994e-28
3.66753e-27
1.43187e-26
5.6643e-26
2.20043e-25
8.49443e-25
3.26162e-24
1.23912e-23
4.67881e-23
1.75564e-22
6.55005e-22
2.42486e-21
8.92859e-21
3.30212e-20
1.19603e-19
4.29908e-19
1.5368e-18
5.59006e-18
1.95384e-17
6.83787e-17
2.35606e-16
8.00886e-16
2.67835e-15
8.79031e-15
2.96666e-14
9.72595e-14
3.11324e-13
9.86292e-13
3.06362e-12
9.70961e-12
3.0338e-11
9.86535e-11
3.09318e-10
9.48549e-10
2.55564e-09
6.38717e-09
1.64847e-08
3.95164e-08
8.95557e-08
1.89201e-07
3.42838e-07
5.97774e-07
1.02626e-06
1.68993e-06
2.59111e-06
3.5929e-06
4.33468e-06
4.13751e-06
2.51523e-06
8.11579e-07
2.13041e-07
5.39559e-08
1.40528e-08
3.98716e-09
1.27353e-09
4.65484e-10
1.93659e-10
9.453e-11
5.17513e-11
2.77744e-11
1.29872e-11
5.5921e-12
2.53704e-12
1.19421e-12
5.8029e-13
2.89577e-13
1.48992e-13
7.92558e-14
4.44201e-14
2.7099e-14
2.03404e-14
2.03375e-14
2.65225e-14
4.05966e-14
6.72701e-14
1.17742e-13
2.11409e-13
3.99982e-13
7.81533e-13
1.61455e-12
3.55115e-12
8.38454e-12
2.10682e-11
4.61459e-11
2.59076e-11
6.54888e-12
5.76797e-36
3.33156e-35
1.35736e-34
5.24178e-34
2.00689e-33
7.68959e-33
2.95093e-32
1.13448e-31
4.36541e-31
1.68247e-30
6.46599e-30
2.47919e-29
9.71336e-29
3.73684e-28
1.43563e-27
5.57785e-27
2.14197e-26
8.2237e-26
3.15435e-25
1.19533e-24
4.58375e-24
1.7134e-23
6.35581e-23
2.34896e-22
8.7174e-22
3.24497e-21
1.17843e-20
4.23166e-20
1.54372e-19
5.46698e-19
1.90946e-18
7.05369e-18
2.4341e-17
8.36686e-17
2.81091e-16
9.6445e-16
3.17371e-15
1.02232e-14
3.52843e-14
1.1883e-13
3.70851e-13
1.14563e-12
3.56675e-12
1.11419e-11
3.54467e-11
1.12003e-10
3.59894e-10
1.00664e-09
2.68031e-09
7.11677e-09
1.81372e-08
4.32405e-08
9.57419e-08
1.99842e-07
3.59523e-07
6.19506e-07
1.05028e-06
1.72309e-06
2.62269e-06
3.61936e-06
4.35356e-06
4.15222e-06
2.53739e-06
8.26743e-07
2.18218e-07
5.54174e-08
1.44651e-08
4.11124e-09
1.31316e-09
4.79204e-10
1.98773e-10
9.68767e-11
5.31082e-11
2.85571e-11
1.33866e-11
5.7617e-12
2.61209e-12
1.22836e-12
5.96516e-13
2.97643e-13
1.53084e-13
8.14211e-14
4.56191e-14
2.78586e-14
2.09283e-14
2.0953e-14
2.73574e-14
4.19082e-14
6.94911e-14
1.2162e-13
2.18644e-13
4.13671e-13
8.09983e-13
1.67708e-12
3.69838e-12
8.7596e-12
2.20106e-11
4.64599e-11
2.57865e-11
6.49954e-12
8.85188e-36
4.99933e-35
2.06193e-34
7.91547e-34
2.99908e-33
1.15948e-32
4.41633e-32
1.68838e-31
6.46267e-31
2.4734e-30
9.47065e-30
3.62631e-29
1.38762e-28
5.30509e-28
2.03131e-27
7.78972e-27
2.98249e-26
1.13157e-25
4.29048e-25
1.63315e-24
6.12598e-24
2.27776e-23
8.29271e-23
3.12297e-22
1.13306e-21
4.09666e-21
1.47666e-20
5.13577e-20
1.91593e-19
6.84406e-19
2.40563e-18
8.39569e-18
2.92415e-17
1.0049e-16
3.3831e-16
1.15067e-15
3.88663e-15
1.24236e-14
4.26725e-14
1.37607e-13
4.32762e-13
1.34765e-12
4.11338e-12
1.27482e-11
3.94799e-11
1.25185e-10
3.81879e-10
1.01678e-09
2.90184e-09
7.76947e-09
1.94455e-08
4.56887e-08
1.00176e-07
2.07267e-07
3.70809e-07
6.36317e-07
1.07034e-06
1.74537e-06
2.64683e-06
3.64022e-06
4.36859e-06
4.16758e-06
2.56196e-06
8.42265e-07
2.23415e-07
5.6885e-08
1.48599e-08
4.22765e-09
1.34878e-09
4.91635e-10
2.03517e-10
9.90307e-11
5.42903e-11
2.92808e-11
1.3767e-11
5.91821e-12
2.68294e-12
1.26107e-12
6.12196e-13
3.05349e-13
1.57011e-13
8.34938e-14
4.67734e-14
2.85874e-14
2.14923e-14
2.15434e-14
2.81581e-14
4.31672e-14
7.1625e-14
1.25358e-13
2.25619e-13
4.2688e-13
8.37356e-13
1.73701e-12
3.83883e-12
9.11315e-12
2.28963e-11
4.68726e-11
2.58134e-11
6.49316e-12
1.25951e-35
7.14806e-35
2.92981e-34
1.13505e-33
4.34617e-33
1.66055e-32
6.33989e-32
2.4198e-31
9.2314e-31
3.51935e-30
1.34022e-29
5.10488e-29
1.94574e-28
7.41204e-28
2.81167e-27
1.06647e-26
4.04004e-26
1.5231e-25
5.72498e-25
2.14659e-24
8.00785e-24
2.96219e-23
1.08929e-22
3.9788e-22
1.44497e-21
5.21804e-21
1.86705e-20
6.58202e-20
2.29376e-19
8.03917e-19
2.8681e-18
1.01551e-17
3.49889e-17
1.19026e-16
3.96068e-16
1.3316e-15
4.46381e-15
1.41306e-14
4.76874e-14
1.57164e-13
4.93535e-13
1.51841e-12
4.72717e-12
1.44651e-11
4.50481e-11
1.41685e-10
4.00747e-10
1.11944e-09
3.16264e-09
8.38243e-09
2.08944e-08
4.83164e-08
1.0464e-07
2.14399e-07
3.81063e-07
6.49773e-07
1.08697e-06
1.7643e-06
2.66518e-06
3.65545e-06
4.38124e-06
4.18545e-06
2.59334e-06
8.59988e-07
2.29167e-07
5.86732e-08
1.53241e-08
4.35967e-09
1.38722e-09
5.04847e-10
2.0852e-10
1.01219e-10
5.55044e-11
3.00221e-11
1.41622e-11
6.08152e-12
2.75461e-12
1.29412e-12
6.28042e-13
3.13063e-13
1.60936e-13
8.55625e-14
4.7923e-14
2.93023e-14
2.20375e-14
2.21048e-14
2.89112e-14
4.43452e-14
7.3616e-14
1.28853e-13
2.32107e-13
4.3919e-13
8.62652e-13
1.79197e-12
3.96652e-12
9.4314e-12
2.3693e-11
4.73874e-11
2.59613e-11
6.52139e-12
1.64207e-35
9.35902e-35
3.84968e-34
1.49297e-33
5.7203e-33
2.18248e-32
8.31044e-32
3.16307e-31
1.20417e-30
4.59842e-30
1.74446e-29
6.60457e-29
2.5003e-28
9.50097e-28
3.58363e-27
1.3499e-26
5.0826e-26
1.9042e-25
7.09994e-25
2.68216e-24
9.92781e-24
3.61345e-23
1.34336e-22
4.86172e-22
1.76107e-21
6.38568e-21
2.28311e-20
8.09719e-20
2.84093e-19
9.809e-19
3.40618e-18
1.18845e-17
4.07047e-17
1.38333e-16
4.64741e-16
1.53717e-15
5.06579e-15
1.5931e-14
5.35046e-14
1.73599e-13
5.4978e-13
1.71366e-12
5.27836e-12
1.62577e-11
4.7709e-11
1.37367e-10
4.21392e-10
1.23066e-09
3.42469e-09
9.03034e-09
2.21034e-08
5.0494e-08
1.08343e-07
2.20266e-07
3.88858e-07
6.59875e-07
1.09947e-06
1.778e-06
2.67793e-06
3.66519e-06
4.39183e-06
4.20997e-06
2.63786e-06
8.88578e-07
2.38132e-07
6.09479e-08
1.59441e-08
4.51869e-09
1.43548e-09
5.2071e-10
2.14751e-10
1.03947e-10
5.68955e-11
3.08335e-11
1.45868e-11
6.25417e-12
2.82979e-12
1.32856e-12
6.44595e-13
3.21053e-13
1.6499e-13
8.7689e-14
4.90965e-14
3.00148e-14
2.2567e-14
2.26343e-14
2.96077e-14
4.5424e-14
7.54292e-14
1.3204e-13
2.37979e-13
4.50335e-13
8.85332e-13
1.84079e-12
4.07891e-12
9.70898e-12
2.4386e-11
4.80005e-11
2.62098e-11
6.57794e-12
1.9495e-35
1.17574e-34
4.76608e-34
1.83945e-33
7.12376e-33
2.71753e-32
1.03797e-31
3.95163e-31
1.50135e-30
5.69418e-30
2.15969e-29
8.20655e-29
3.09767e-28
1.16969e-27
4.40832e-27
1.64227e-26
6.33646e-26
2.35984e-25
8.77262e-25
3.24169e-24
1.18732e-23
4.41956e-23
1.60794e-22
5.82241e-22
2.09593e-21
7.51953e-21
2.68218e-20
9.47732e-20
3.37587e-19
1.17885e-18
4.06141e-18
1.38133e-17
4.66099e-17
1.56537e-16
5.17744e-16
1.69575e-15
5.51914e-15
1.75537e-14
5.99857e-14
1.90767e-13
5.90545e-13
1.83359e-12
5.62764e-12
1.6693e-11
4.85393e-11
1.52321e-10
4.59437e-10
1.3329e-09
3.70391e-09
9.62003e-09
2.32907e-08
5.26757e-08
1.1184e-07
2.24156e-07
3.94394e-07
6.68072e-07
1.10856e-06
1.78686e-06
2.68452e-06
3.66957e-06
4.39879e-06
4.23227e-06
2.68841e-06
9.1864e-07
2.47556e-07
6.36184e-08
1.66409e-08
4.70071e-09
1.48735e-09
5.38213e-10
2.2129e-10
1.06626e-10
5.82461e-11
3.1641e-11
1.50486e-11
6.44663e-12
2.91504e-12
1.36762e-12
6.62905e-13
3.29668e-13
1.69289e-13
8.99122e-14
5.03062e-14
3.07276e-14
2.30777e-14
2.31289e-14
3.02429e-14
4.63955e-14
7.70498e-14
1.34888e-13
2.43179e-13
4.60193e-13
9.05151e-13
1.88297e-12
4.17483e-12
9.94319e-12
2.4973e-11
4.86918e-11
2.65361e-11
6.6563e-12
2.33688e-35
1.39905e-34
5.70117e-34
2.20985e-33
8.46381e-33
3.22907e-32
1.23003e-31
4.67664e-31
1.77325e-30
6.7374e-30
2.58787e-29
9.77941e-29
3.69082e-28
1.39847e-27
5.27927e-27
1.97586e-26
7.48636e-26
2.77793e-25
1.02702e-24
3.79907e-24
1.37974e-23
5.13702e-23
1.86225e-22
6.70724e-22
2.37907e-21
8.61449e-21
3.04068e-20
1.07465e-19
3.81065e-19
1.33044e-18
4.57786e-18
1.55429e-17
5.20726e-17
1.7545e-16
5.75861e-16
1.87997e-15
6.1014e-15
1.94457e-14
6.54576e-14
2.05506e-13
6.33291e-13
1.9338e-12
5.81052e-12
1.71577e-11
5.36095e-11
1.66155e-10
5.00031e-10
1.45113e-09
3.9902e-09
1.02966e-08
2.48046e-08
5.59126e-08
1.19224e-07
2.25382e-07
3.98657e-07
6.7413e-07
1.11442e-06
1.79143e-06
2.68631e-06
3.66921e-06
4.40412e-06
4.26001e-06
2.73858e-06
9.50096e-07
2.57391e-07
6.63222e-08
1.73491e-08
4.89718e-09
1.54288e-09
5.55901e-10
2.27804e-10
1.09285e-10
5.96416e-11
3.25003e-11
1.55159e-11
6.63238e-12
2.99604e-12
1.40409e-12
6.80269e-13
3.37892e-13
1.73425e-13
9.20614e-14
5.14794e-14
3.14145e-14
2.35677e-14
2.35853e-14
3.08142e-14
4.72595e-14
7.84867e-14
1.37415e-13
2.47747e-13
4.68829e-13
9.22327e-13
1.91918e-12
4.25623e-12
1.01398e-11
2.54663e-11
4.94359e-11
2.69166e-11
6.74997e-12
2.79263e-35
1.59946e-34
6.55216e-34
2.53702e-33
9.70322e-33
3.70037e-32
1.41136e-31
5.38492e-31
2.0493e-30
7.85153e-30
2.98713e-29
1.13161e-28
4.27187e-28
1.61875e-27
6.12272e-27
2.29443e-26
8.56921e-26
3.19202e-25
1.18234e-24
4.35781e-24
1.59609e-23
5.80265e-23
2.11365e-22
7.5954e-22
2.71256e-21
9.61822e-21
3.39554e-20
1.17963e-19
4.20816e-19
1.4517e-18
4.85271e-18
1.70717e-17
5.76623e-17
1.90114e-16
6.44754e-16
2.07675e-15
6.62552e-15
2.10793e-14
6.89974e-14
2.2238e-13
6.78756e-13
2.05868e-12
6.17061e-12
1.85564e-11
5.79437e-11
1.78858e-10
5.36639e-10
1.54943e-09
4.23394e-09
1.08502e-08
2.59701e-08
5.82007e-08
1.2308e-07
2.25577e-07
4.02452e-07
6.79284e-07
1.11833e-06
1.79304e-06
2.68483e-06
3.6662e-06
4.40661e-06
4.28386e-06
2.79715e-06
9.84945e-07
2.68044e-07
6.92101e-08
1.80871e-08
5.09862e-09
1.60183e-09
5.74131e-10
2.35355e-10
1.12305e-10
6.10996e-11
3.33402e-11
1.59746e-11
6.82197e-12
3.07717e-12
1.44128e-12
6.97845e-13
3.46152e-13
1.7752e-13
9.41683e-14
5.26219e-14
3.20769e-14
2.40346e-14
2.40205e-14
3.135e-14
4.80514e-14
7.97688e-14
1.39668e-13
2.51806e-13
4.76555e-13
9.37423e-13
1.95031e-12
4.32508e-12
1.03036e-11
2.58787e-11
5.02028e-11
2.7328e-11
6.85278e-12
3.04432e-35
1.7851e-34
7.34414e-34
2.83818e-33
1.08513e-32
4.1415e-32
1.58183e-31
6.04594e-31
2.31471e-30
8.83679e-30
3.36101e-29
1.27323e-28
4.80013e-28
1.82281e-27
6.82659e-27
2.54086e-26
9.25998e-26
3.59302e-25
1.32261e-24
4.88023e-24
1.78707e-23
6.50368e-23
2.35043e-22
8.30685e-22
3.02284e-21
1.06038e-20
3.69942e-20
1.28689e-19
4.50992e-19
1.60904e-18
5.43779e-18
1.87587e-17
6.2834e-17
2.1082e-16
6.88521e-16
2.21341e-15
7.02334e-15
2.2334e-14
7.31823e-14
2.37517e-13
7.28683e-13
2.21954e-12
6.56068e-12
2.02264e-11
6.14971e-11
1.89437e-10
5.66305e-10
1.61994e-09
4.39194e-09
1.11702e-08
2.65417e-08
5.90875e-08
1.24105e-07
2.25638e-07
4.06667e-07
6.8327e-07
1.12023e-06
1.7921e-06
2.6801e-06
3.65973e-06
4.40723e-06
4.30588e-06
2.84949e-06
1.01967e-06
2.78943e-07
7.22004e-08
1.8851e-08
5.30564e-09
1.66078e-09
5.93018e-10
2.42295e-10
1.15006e-10
6.24137e-11
3.41291e-11
1.64345e-11
7.00976e-12
3.15923e-12
1.47803e-12
7.15003e-13
3.54156e-13
1.81569e-13
9.62772e-14
5.37674e-14
3.27228e-14
2.44784e-14
2.44214e-14
3.18364e-14
4.87713e-14
8.09468e-14
1.41732e-13
2.55444e-13
4.83344e-13
9.50671e-13
1.97786e-12
4.38609e-12
1.04491e-11
2.62447e-11
5.10138e-11
2.77775e-11
6.96574e-12
3.25219e-35
2.00642e-34
8.19331e-34
3.1678e-33
1.21361e-32
4.64408e-32
1.77569e-31
6.76727e-31
2.57494e-30
9.7837e-30
3.70785e-29
1.39959e-28
5.34899e-28
1.98031e-27
7.43641e-27
2.80387e-26
1.05797e-25
3.91628e-25
1.44397e-24
5.2814e-24
1.91529e-23
6.83164e-23
2.55366e-22
9.09749e-22
3.23565e-21
1.1418e-20
4.05807e-20
1.41222e-19
4.92612e-19
1.69873e-18
5.74078e-18
2.00482e-17
6.5999e-17
2.22989e-16
7.24426e-16
2.33601e-15
7.4351e-15
2.30661e-14
7.71165e-14
2.51414e-13
7.58983e-13
2.29648e-12
6.93226e-12
2.14405e-11
6.44364e-11
1.98029e-10
5.87287e-10
1.67001e-09
4.50211e-09
1.13861e-08
2.69075e-08
5.96484e-08
1.24613e-07
2.25567e-07
4.09756e-07
6.86219e-07
1.12087e-06
1.78984e-06
2.67487e-06
3.65273e-06
4.40656e-06
4.3277e-06
2.89839e-06
1.05354e-06
2.89589e-07
7.51316e-08
1.96251e-08
5.50657e-09
1.71955e-09
6.11701e-10
2.48973e-10
1.1769e-10
6.36971e-11
3.48785e-11
1.68619e-11
7.19055e-12
3.23725e-12
1.51303e-12
7.31667e-13
3.61993e-13
1.85462e-13
9.82807e-14
5.48476e-14
3.33331e-14
2.48897e-14
2.47835e-14
3.2267e-14
4.94015e-14
8.19714e-14
1.4354e-13
2.58653e-13
4.89482e-13
9.62475e-13
2.00182e-12
4.43775e-12
1.0569e-11
2.65473e-11
5.17883e-11
2.82154e-11
7.07649e-12
3.82928e-35
2.17772e-34
8.92253e-34
3.45529e-33
1.32144e-32
5.0472e-32
1.93571e-31
7.34321e-31
2.77352e-30
1.03951e-29
3.99443e-29
1.53721e-28
5.75846e-28
2.13346e-27
8.19925e-27
3.03623e-26
1.12181e-25
4.21517e-25
1.54607e-24
5.58919e-24
2.09546e-23
7.57407e-23
2.73147e-22
9.70065e-22
3.47948e-21
1.21874e-20
4.28279e-20
1.48818e-19
5.1668e-19
1.8112e-18
6.21256e-18
2.10675e-17
6.92415e-17
2.32492e-16
7.44953e-16
2.37674e-15
7.79334e-15
2.40823e-14
7.97592e-14
2.55264e-13
8.10118e-13
2.44585e-12
7.39775e-12
2.19326e-11
6.67991e-11
2.0418e-10
6.03157e-10
1.70841e-09
4.58718e-09
1.15551e-08
2.71981e-08
6.00071e-08
1.24909e-07
2.25458e-07
4.11779e-07
6.87944e-07
1.12004e-06
1.78591e-06
2.6673e-06
3.6447e-06
4.40514e-06
4.34762e-06
2.94839e-06
1.08632e-06
2.99903e-07
7.79732e-08
2.03643e-08
5.70707e-09
1.77866e-09
6.3019e-10
2.55475e-10
1.20216e-10
6.48905e-11
3.55903e-11
1.72655e-11
7.36116e-12
3.31057e-12
1.5462e-12
7.47165e-13
3.69194e-13
1.89029e-13
1.00107e-13
5.58261e-14
3.38778e-14
2.52531e-14
2.50984e-14
3.26356e-14
4.9935e-14
8.28315e-14
1.45051e-13
2.61304e-13
4.94525e-13
9.72094e-13
2.02128e-12
4.47963e-12
1.06658e-11
2.67925e-11
5.2487e-11
2.86169e-11
7.17848e-12
4.10733e-35
2.33778e-34
9.58355e-34
3.71434e-33
1.42458e-32
5.4343e-32
2.07063e-31
7.87797e-31
2.98957e-30
1.13117e-29
4.28624e-29
1.62821e-28
6.1454e-28
2.31535e-27
8.69705e-27
3.24067e-26
1.197e-25
4.46401e-25
1.63562e-24
5.99129e-24
2.20163e-23
7.98825e-23
2.88308e-22
1.03079e-21
3.64319e-21
1.2772e-20
4.49396e-20
1.55381e-19
5.32483e-19
1.87067e-18
6.34989e-18
2.16802e-17
7.29132e-17
2.40813e-16
7.86441e-16
2.55115e-15
8.17832e-15
2.64849e-14
8.45668e-14
2.73955e-13
8.33019e-13
2.47118e-12
7.51497e-12
2.23804e-11
6.861e-11
2.08896e-10
6.15065e-10
1.73641e-09
4.64662e-09
1.16652e-08
2.73795e-08
6.02448e-08
1.25098e-07
2.25299e-07
4.13105e-07
6.88897e-07
1.11854e-06
1.78122e-06
2.65945e-06
3.63544e-06
4.40194e-06
4.36275e-06
2.98847e-06
1.11362e-06
3.08711e-07
8.04324e-08
2.10072e-08
5.87792e-09
1.82886e-09
6.45971e-10
2.61028e-10
1.22376e-10
6.592e-11
3.61931e-11
1.76106e-11
7.50793e-12
3.37355e-12
1.57443e-12
7.60376e-13
3.75335e-13
1.92068e-13
1.01659e-13
5.66589e-14
3.43393e-14
2.55588e-14
2.53604e-14
3.29395e-14
5.03731e-14
8.35369e-14
1.46294e-13
2.63486e-13
4.98649e-13
9.7992e-13
2.03703e-12
4.5133e-12
1.07433e-11
2.69892e-11
5.30894e-11
2.8966e-11
7.26731e-12
4.00555e-35
2.45245e-34
1.00311e-33
3.88847e-33
1.49016e-32
5.69941e-32
2.17806e-31
8.30097e-31
3.1478e-30
1.1898e-29
4.52738e-29
1.70803e-28
6.43718e-28
2.42227e-27
9.08659e-27
3.39854e-26
1.27293e-25
4.70154e-25
1.72561e-24
6.31163e-24
2.31191e-23
8.3232e-23
3.01931e-22
1.0761e-21
3.81301e-21
1.34041e-20
4.66968e-20
1.60855e-19
5.55669e-19
1.94323e-18
6.63701e-18
2.28412e-17
7.60273e-17
2.50588e-16
8.18257e-16
2.66322e-15
8.55382e-15
2.71667e-14
8.59295e-14
2.73797e-13
8.38883e-13
2.53242e-12
7.48733e-12
2.26337e-11
7.0041e-11
2.12499e-10
6.24084e-10
1.75766e-09
4.6919e-09
1.17495e-08
2.75146e-08
6.04129e-08
1.25212e-07
2.25166e-07
4.13896e-07
6.89283e-07
1.11692e-06
1.77731e-06
2.6533e-06
3.62864e-06
4.39982e-06
4.37491e-06
3.02165e-06
1.13846e-06
3.16522e-07
8.25724e-08
2.15599e-08
6.0258e-09
1.87156e-09
6.59284e-10
2.65645e-10
1.24145e-10
6.67329e-11
3.66665e-11
1.78833e-11
7.62449e-12
3.42351e-12
1.59681e-12
7.70833e-13
3.80192e-13
1.9447e-13
1.02882e-13
5.73119e-14
3.47001e-14
2.57969e-14
2.55632e-14
3.31734e-14
5.0709e-14
8.40762e-14
1.47244e-13
2.65146e-13
5.0181e-13
9.85898e-13
2.04901e-12
4.53881e-12
1.08017e-11
2.71377e-11
5.35695e-11
2.92463e-11
7.33878e-12
4.36885e-35
2.4959e-34
1.02358e-33
4.01474e-33
1.53603e-32
5.86698e-32
2.23982e-31
8.54829e-31
3.25633e-30
1.23594e-29
4.6812e-29
1.77015e-28
6.6888e-28
2.52643e-27
9.5138e-27
3.55366e-26
1.32096e-25
4.88518e-25
1.79644e-24
6.5669e-24
2.38609e-23
8.60998e-23
3.0859e-22
1.09463e-21
3.93338e-21
1.38544e-20
4.86023e-20
1.68383e-19
5.89158e-19
2.00982e-18
6.81107e-18
2.2835e-17
7.74789e-17
2.55344e-16
8.44847e-16
2.74261e-15
8.69226e-15
2.70554e-14
8.63578e-14
2.73177e-13
8.35674e-13
2.51669e-12
7.55466e-12
2.288e-11
7.10557e-11
2.15072e-10
6.30466e-10
1.77268e-09
4.72416e-09
1.18114e-08
2.76101e-08
6.05371e-08
1.25296e-07
2.25074e-07
4.14375e-07
6.89456e-07
1.11566e-06
1.77434e-06
2.64857e-06
3.62331e-06
4.39769e-06
4.38272e-06
3.04393e-06
1.15501e-06
3.21789e-07
8.40343e-08
2.19401e-08
6.1264e-09
1.90123e-09
6.68568e-10
2.68861e-10
1.2538e-10
6.73121e-11
3.70015e-11
1.80761e-11
7.7071e-12
3.45887e-12
1.61261e-12
7.78211e-13
3.83617e-13
1.96163e-13
1.0375e-13
5.77739e-14
3.49539e-14
2.59631e-14
2.57035e-14
3.33338e-14
5.09383e-14
8.44443e-14
1.47892e-13
2.66279e-13
5.03974e-13
9.89984e-13
2.05719e-12
4.5562e-12
1.08415e-11
2.7239e-11
5.3908e-11
2.94448e-11
7.3894e-12
4.43036e-35
2.5736e-34
1.0521e-33
4.08065e-33
1.56768e-32
6.01385e-32
2.29849e-31
8.77465e-31
3.34609e-30
1.27325e-29
4.82941e-29
1.82648e-28
6.88835e-28
2.59219e-27
9.73925e-27
3.63303e-26
1.34812e-25
4.97599e-25
1.82014e-24
6.624e-24
2.40774e-23
8.69996e-23
3.14888e-22
1.11714e-21
4.00352e-21
1.40706e-20
4.94721e-20
1.73393e-19
5.98605e-19
2.04938e-18
6.95324e-18
2.38166e-17
7.86394e-17
2.58623e-16
8.52758e-16
2.73231e-15
8.78837e-15
2.75387e-14
9.06792e-14
2.83591e-13
8.49818e-13
2.56273e-12
7.54288e-12
2.33146e-11
7.16006e-11
2.16651e-10
6.34655e-10
1.78257e-09
4.74509e-09
1.18503e-08
2.7671e-08
6.06159e-08
1.25363e-07
2.25051e-07
4.14712e-07
6.89642e-07
1.11509e-06
1.77287e-06
2.64614e-06
3.62043e-06
4.39628e-06
4.38646e-06
3.05514e-06
1.16353e-06
3.24549e-07
8.48019e-08
2.21396e-08
6.1798e-09
1.91679e-09
6.73398e-10
2.70547e-10
1.26025e-10
6.76103e-11
3.71759e-11
1.81772e-11
7.7506e-12
3.47748e-12
1.62092e-12
7.82088e-13
3.85418e-13
1.97055e-13
1.04206e-13
5.80182e-14
3.50881e-14
2.60509e-14
2.57772e-14
3.3418e-14
5.10588e-14
8.46376e-14
1.48233e-13
2.66874e-13
5.05113e-13
9.92135e-13
2.0615e-12
4.56533e-12
1.08623e-11
2.7292e-11
5.40884e-11
2.95509e-11
7.41655e-12
4.3758e-35
2.56756e-34
1.07368e-33
4.14708e-33
1.5894e-32
6.07341e-32
2.31811e-31
8.84815e-31
3.37728e-30
1.29258e-29
4.90129e-29
1.85137e-28
6.94038e-28
2.56801e-27
9.93191e-27
3.6867e-26
1.367e-25
5.04887e-25
1.85657e-24
6.76778e-24
2.47896e-23
8.95155e-23
3.21414e-22
1.1436e-21
4.02712e-21
1.43859e-20
5.03297e-20
1.76116e-19
6.15292e-19
2.11619e-18
7.15427e-18
2.38097e-17
8.04663e-17
2.67945e-16
8.67034e-16
2.77056e-15
8.90256e-15
2.75434e-14
9.11301e-14
2.81126e-13
8.68142e-13
2.59461e-12
7.73671e-12
2.33444e-11
7.19262e-11
2.17614e-10
6.37143e-10
1.78853e-09
4.75811e-09
1.18757e-08
2.77152e-08
6.06802e-08
1.25438e-07
2.25103e-07
4.15044e-07
6.89961e-07
1.11522e-06
1.77272e-06
2.64565e-06
3.61969e-06
4.39573e-06
4.38693e-06
3.05729e-06
1.16522e-06
3.25099e-07
8.49544e-08
2.21786e-08
6.19003e-09
1.91973e-09
6.74277e-10
2.70841e-10
1.26132e-10
6.76578e-11
3.72027e-11
1.81925e-11
7.7571e-12
3.48018e-12
1.6221e-12
7.82625e-13
3.85661e-13
1.97172e-13
1.04265e-13
5.8049e-14
3.51045e-14
2.60612e-14
2.57856e-14
3.34275e-14
5.10728e-14
8.46609e-14
1.48277e-13
2.66953e-13
5.05266e-13
9.92436e-13
2.06212e-12
4.56671e-12
1.08656e-11
2.73005e-11
5.41128e-11
2.95646e-11
7.41997e-12
4.38561e-35
2.62863e-34
1.0796e-33
4.19029e-33
1.60934e-32
6.16248e-32
2.35553e-31
8.98772e-31
3.42277e-30
1.30076e-29
4.93268e-29
1.86569e-28
7.02352e-28
2.62712e-27
9.99485e-27
3.71745e-26
1.37514e-25
5.02996e-25
1.88355e-24
6.86788e-24
2.51041e-23
9.08631e-23
3.27127e-22
1.16971e-21
4.14096e-21
1.45234e-20
5.00352e-20
1.79668e-19
6.18815e-19
2.12478e-18
7.23599e-18
2.42987e-17
8.15609e-17
2.67543e-16
8.7597e-16
2.7953e-15
8.99676e-15
2.79866e-14
9.18228e-14
2.83054e-13
8.72722e-13
2.56069e-12
7.84332e-12
2.34465e-11
7.1922e-11
2.18012e-10
6.38185e-10
1.79118e-09
4.76453e-09
1.18902e-08
2.77456e-08
6.07396e-08
1.25547e-07
2.25278e-07
4.15451e-07
6.90583e-07
1.11643e-06
1.77453e-06
2.64792e-06
3.62186e-06
4.39626e-06
4.38326e-06
3.04799e-06
1.15847e-06
3.22954e-07
8.4363e-08
2.20252e-08
6.14933e-09
1.90793e-09
6.70589e-10
2.69557e-10
1.25636e-10
6.74273e-11
3.70692e-11
1.81155e-11
7.72406e-12
3.466e-12
1.61574e-12
7.79644e-13
3.84274e-13
1.96484e-13
1.03912e-13
5.78598e-14
3.50001e-14
2.59925e-14
2.57276e-14
3.33613e-14
5.09787e-14
8.4511e-14
1.48013e-13
2.66497e-13
5.04401e-13
9.90821e-13
2.05893e-12
4.56004e-12
1.08506e-11
2.72624e-11
5.39737e-11
2.94822e-11
7.39889e-12
4.4359e-35
2.61e-34
1.067e-33
4.15066e-33
1.5977e-32
6.12863e-32
2.34403e-31
8.93698e-31
3.39607e-30
1.28618e-29
4.85586e-29
1.82924e-28
6.88647e-28
2.59292e-27
9.74044e-27
3.62642e-26
1.33845e-25
4.97096e-25
1.84784e-24
6.75538e-24
2.44285e-23
8.96405e-23
3.21301e-22
1.1594e-21
4.08871e-21
1.42974e-20
4.98641e-20
1.76039e-19
6.05818e-19
2.08313e-18
7.0758e-18
2.37274e-17
8.13012e-17
2.63699e-16
8.33003e-16
2.70647e-15
8.73216e-15
2.68316e-14
8.75104e-14
2.85393e-13
8.4309e-13
2.58476e-12
7.58611e-12
2.35091e-11
7.1899e-11
2.17701e-10
6.37491e-10
1.78997e-09
4.76329e-09
1.18918e-08
2.77595e-08
6.07886e-08
1.25681e-07
2.25575e-07
4.15959e-07
6.9155e-07
1.11878e-06
1.77833e-06
2.65294e-06
3.62686e-06
4.39785e-06
4.37558e-06
3.02777e-06
1.14377e-06
3.18284e-07
8.30778e-08
2.16931e-08
6.06114e-09
1.88241e-09
6.62629e-10
2.66782e-10
1.2457e-10
6.69343e-11
3.67827e-11
1.79502e-11
7.65311e-12
3.43555e-12
1.60209e-12
7.7326e-13
3.81305e-13
1.95013e-13
1.0316e-13
5.74574e-14
3.47787e-14
2.58474e-14
2.56054e-14
3.32222e-14
5.07808e-14
8.41955e-14
1.47461e-13
2.65539e-13
5.0258e-13
9.87413e-13
2.05219e-12
4.54588e-12
1.08185e-11
2.71809e-11
5.36792e-11
2.93078e-11
7.35427e-12
4.50733e-35
2.56111e-34
1.04868e-33
4.00766e-33
1.5739e-32
5.99381e-32
2.28802e-31
8.71852e-31
3.31407e-30
1.25714e-29
4.75919e-29
1.79764e-28
6.77391e-28
2.5466e-27
9.52964e-27
3.54252e-26
1.33203e-25
4.91881e-25
1.8112e-24
6.64072e-24
2.42794e-23
8.85119e-23
3.18467e-22
1.13664e-21
4.02675e-21
1.41656e-20
4.95033e-20
1.72235e-19
6.02317e-19
2.06332e-18
7.01138e-18
2.35344e-17
7.93609e-17
2.61102e-16
8.53532e-16
2.75752e-15
8.73791e-15
2.70535e-14
8.85887e-14
2.83536e-13
8.52645e-13
2.53293e-12
7.54624e-12
2.34968e-11
7.15398e-11
2.16714e-10
6.35257e-10
1.7854e-09
4.75565e-09
1.18834e-08
2.77631e-08
6.08407e-08
1.25869e-07
2.26034e-07
4.16634e-07
6.92961e-07
1.12243e-06
1.78441e-06
2.66109e-06
3.63507e-06
4.40044e-06
4.36304e-06
2.99513e-06
1.12066e-06
3.11016e-07
8.10874e-08
2.11793e-08
5.92498e-09
1.84279e-09
6.50279e-10
2.62471e-10
1.22914e-10
6.61634e-11
3.63402e-11
1.76978e-11
7.54546e-12
3.38942e-12
1.58145e-12
7.63616e-13
3.76826e-13
1.92795e-13
1.02022e-13
5.68505e-14
3.44452e-14
2.56293e-14
2.54222e-14
3.3014e-14
5.04849e-14
8.37233e-14
1.46631e-13
2.64098e-13
4.99839e-13
9.82279e-13
2.042e-12
4.52445e-12
1.07701e-11
2.70577e-11
5.32401e-11
2.90483e-11
7.28793e-12
4.21749e-35
2.47728e-34
1.01547e-33
3.94968e-33
1.50954e-32
5.75728e-32
2.20169e-31
8.42976e-31
3.20399e-30
1.21459e-29
4.59241e-29
1.73287e-28
6.53555e-28
2.47047e-27
9.22593e-27
3.43197e-26
1.27283e-25
4.70348e-25
1.73483e-24
6.39776e-24
2.34618e-23
8.38045e-23
3.08395e-22
1.08949e-21
3.93974e-21
1.38215e-20
4.82509e-20
1.67395e-19
5.85661e-19
2.01737e-18
6.70935e-18
2.33792e-17
7.74679e-17
2.55507e-16
8.36895e-16
2.69212e-15
8.63415e-15
2.69532e-14
8.54749e-14
2.71189e-13
8.44896e-13
2.51231e-12
7.39776e-12
2.31517e-11
7.09836e-11
2.15112e-10
6.31231e-10
1.77639e-09
4.73855e-09
1.18586e-08
2.77446e-08
6.08758e-08
1.26079e-07
2.26618e-07
4.17351e-07
6.94599e-07
1.127e-06
1.79217e-06
2.67158e-06
3.64558e-06
4.40324e-06
4.34505e-06
2.94928e-06
1.0898e-06
3.01481e-07
7.84991e-08
2.05137e-08
5.74805e-09
1.79166e-09
6.34178e-10
2.56888e-10
1.20777e-10
6.51794e-11
3.57744e-11
1.73754e-11
7.4081e-12
3.33045e-12
1.55501e-12
7.51241e-13
3.7107e-13
1.89934e-13
1.00564e-13
5.60714e-14
3.40161e-14
2.53477e-14
2.51849e-14
3.27435e-14
5.00997e-14
8.31085e-14
1.45551e-13
2.62223e-13
4.96281e-13
9.75607e-13
2.0287e-12
4.49637e-12
1.07064e-11
2.6896e-11
5.26751e-11
2.87156e-11
7.20289e-12
4.15164e-35
2.36582e-34
9.7292e-34
3.76487e-33
1.43517e-32
5.46322e-32
2.09621e-31
7.95205e-31
3.01547e-30
1.15483e-29
4.35631e-29
1.64186e-28
6.18437e-28
2.33357e-27
8.84014e-27
3.29379e-26
1.22212e-25
4.52493e-25
1.67499e-24
6.04818e-24
2.25615e-23
8.14613e-23
2.94267e-22
1.05488e-21
3.76005e-21
1.32454e-20
4.65984e-20
1.61594e-19
5.65356e-19
1.9248e-18
6.49948e-18
2.2236e-17
7.44171e-17
2.45696e-16
7.83698e-16
2.58699e-15
8.28231e-15
2.61136e-14
8.43159e-14
2.72469e-13
8.13645e-13
2.53433e-12
7.48474e-12
2.28063e-11
6.98628e-11
2.12506e-10
6.25076e-10
1.7625e-09
4.71135e-09
1.1814e-08
2.76955e-08
6.08793e-08
1.26296e-07
2.27307e-07
4.17873e-07
6.96277e-07
1.13219e-06
1.80115e-06
2.68381e-06
3.6578e-06
4.40639e-06
4.32439e-06
2.89927e-06
1.05603e-06
2.90861e-07
7.55844e-08