/*--------------------------------*- C++ -*----------------------------------*\
  =========                 |
  \\      /  F ield         | OpenFOAM: The Open Source CFD Toolbox
   \\    /   O peration     | Website:  https://openfoam.org
    \\  /    A nd           | Version:  10
     \\/     M anipulation  |
\*---------------------------------------------------------------------------*/
FoamFile
{
    format      ascii;
    class       volScalarField;
    location    "1";
    object      C2H2;
}
// * * * * * * * * * * * * * * * * * * * * * * * * * * * * * * * * * * * * * //

dimensions      [0 0 0 0 0 0 0];

internalField   nonuniform List<scalar> 
4000
(
6.93407e-29
4.30859e-28
1.87043e-27
7.10745e-27
2.52257e-26
8.37968e-26
2.64505e-25
8.04641e-25
2.38465e-24
6.9766e-24
2.04682e-23
5.60725e-23
1.51506e-22
4.10481e-22
1.12116e-21
3.08433e-21
8.53101e-21
2.45313e-20
6.96577e-20
1.99906e-19
5.76379e-19
1.64753e-18
5.04629e-18
1.483e-17
4.42026e-17
1.31433e-16
3.86314e-16
1.17039e-15
3.45388e-15
1.01926e-14
3.00776e-14
8.86171e-14
2.58269e-13
7.48161e-13
2.15547e-12
6.00435e-12
1.69748e-11
4.8708e-11
1.36263e-10
3.77538e-10
1.01027e-09
2.6535e-09
6.82102e-09
1.71152e-08
4.18751e-08
1.07376e-07
2.80076e-07
7.19536e-07
1.80004e-06
4.34995e-06
1.01067e-05
2.29004e-05
4.65422e-05
9.84227e-05
0.000201255
0.000390542
0.000708463
0.00125174
0.00209594
0.00331809
0.0049577
0.00691732
0.009272
0.0119635
0.0149052
0.0179923
0.0211379
0.0241881
0.0270856
0.029803
0.0323233
0.034636
0.0367523
0.0386593
0.0403174
0.0416083
0.0423727
0.0425227
0.0417405
0.0393361
0.0347765
0.0282427
0.0206207
0.013177
0.0073116
0.00398389
0.00215337
0.00114595
0.000596231
0.000301185
0.000147063
6.73531e-05
3.06705e-05
1.48852e-05
8.6794e-06
5.85203e-06
4.05378e-06
2.65374e-06
1.49551e-06
4.43215e-07
7.01063e-29
4.07807e-28
1.50302e-27
5.12625e-27
1.68481e-26
5.37276e-26
1.66866e-25
5.06396e-25
1.46346e-24
4.13349e-24
1.15613e-23
3.23269e-23
9.09402e-23
2.58746e-22
7.46531e-22
2.18937e-21
6.49296e-21
1.95181e-20
5.92872e-20
1.80946e-19
5.55577e-19
1.71631e-18
5.29277e-18
1.63074e-17
5.02357e-17
1.53696e-16
4.68771e-16
1.42426e-15
4.28694e-15
1.2776e-14
3.78994e-14
1.17417e-13
3.45345e-13
9.96452e-13
2.85775e-12
8.07482e-12
2.31628e-11
6.43641e-11
1.78786e-10
4.84828e-10
1.2993e-09
3.37341e-09
8.67007e-09
2.16827e-08
5.51259e-08
1.43429e-07
3.69364e-07
9.30865e-07
2.29547e-06
5.53135e-06
1.19298e-05
2.43941e-05
5.26442e-05
0.000109024
0.000220035
0.000427186
0.000754452
0.00130621
0.00215608
0.00336045
0.00497956
0.00691158
0.00923041
0.0118821
0.0147776
0.0178282
0.0209478
0.024007
0.0269011
0.0296213
0.0321584
0.0344879
0.0366113
0.0385348
0.0402154
0.0415268
0.0423032
0.0424593
0.0416774
0.0392593
0.0346677
0.0280804
0.0204098
0.0129634
0.00715914
0.00389847
0.00210485
0.00111843
0.000580018
0.000292007
0.000142009
6.47935e-05
2.94682e-05
1.44356e-05
8.52244e-06
5.7725e-06
3.99616e-06
2.61267e-06
1.47073e-06
4.34918e-07
4.19106e-29
2.15998e-28
7.22417e-28
2.17204e-27
6.30281e-27
1.79794e-26
5.08465e-26
1.44798e-25
4.25044e-25
1.30703e-24
4.13259e-24
1.33525e-23
4.37719e-23
1.4424e-22
4.76083e-22
1.57046e-21
5.16378e-21
1.66653e-20
5.63516e-20
1.82767e-19
5.93382e-19
1.91339e-18
6.12078e-18
1.93958e-17
6.08738e-17
1.89476e-16
5.87104e-16
1.8202e-15
5.51546e-15
1.65922e-14
5.08922e-14
1.50824e-13
4.36651e-13
1.27641e-12
3.70382e-12
1.05007e-11
2.92656e-11
8.10311e-11
2.22233e-10
5.94752e-10
1.57268e-09
3.92961e-09
1.04893e-08
2.5767e-08
6.75377e-08
1.71647e-07
4.42188e-07
1.10356e-06
2.636e-06
6.23144e-06
1.33841e-05
2.75494e-05
5.91169e-05
0.000124009
0.000242461
0.000446421
0.000776797
0.00133456
0.00218798
0.00339561
0.00500415
0.00691628
0.00920367
0.0118115
0.0146681
0.0176835
0.0207711
0.0238031
0.0267111
0.0294434
0.0320049
0.0343393
0.0364703
0.0383988
0.0400932
0.0414236
0.0422126
0.0423752
0.0415909
0.0391521
0.0345085
0.027856
0.0201306
0.0126678
0.00694945
0.00377845
0.00203568
0.00107811
0.000557558
0.000279086
0.000134933
6.12958e-05
2.79119e-05
1.38598e-05
8.32063e-06
5.67412e-06
3.93322e-06
2.56986e-06
1.44518e-06
4.26625e-07
2.93295e-29
1.4839e-28
5.02258e-28
1.54849e-27
4.67748e-27
1.42224e-26
4.41189e-26
1.43822e-25
4.69172e-25
1.54411e-24
5.18878e-24
1.73787e-23
5.89682e-23
1.97153e-22
6.57551e-22
2.18291e-21
7.21061e-21
2.36855e-20
7.72636e-20
2.50424e-19
8.05598e-19
2.58339e-18
8.20787e-18
2.58853e-17
8.19462e-17
2.54448e-16
7.84197e-16
2.39221e-15
7.07238e-15
2.20932e-14
6.54519e-14
1.93309e-13
5.63058e-13
1.63414e-12
4.69926e-12
1.32331e-11
3.65943e-11
1.01136e-10
2.70803e-10
7.36986e-10
1.93098e-09
4.92408e-09
1.27068e-08
3.1233e-08
7.82465e-08
2.02851e-07
5.15597e-07
1.26056e-06
3.05639e-06
6.64732e-06
1.40949e-05
3.14239e-05
6.75134e-05
0.00013719
0.000263702
0.000459529
0.000799311
0.00136398
0.00222377
0.00342413
0.00501988
0.00691259
0.00917431
0.0117547
0.0145791
0.0175611
0.0206165
0.023641
0.0265442
0.0292781
0.0318411
0.0341836
0.0363321
0.0382738
0.0399701
0.0413281
0.0421188
0.0422814
0.0414928
0.0390342
0.0343532
0.0276567
0.0199186
0.0122836
0.0067163
0.00365099
0.00196526
0.00103989
0.000537809
0.000265165
0.000127758
5.79936e-05
2.64622e-05
1.33324e-05
8.13013e-06
5.58304e-06
3.87497e-06
2.53064e-06
1.42179e-06
4.1902e-07
4.31013e-29
2.20538e-28
7.64846e-28
2.43102e-27
7.57283e-27
2.36325e-26
7.43698e-26
2.35952e-25
7.52219e-25
2.46644e-24
8.02235e-24
2.63254e-23
8.73447e-23
2.86803e-22
9.54257e-22
3.12267e-21
1.01834e-20
3.35801e-20
1.08989e-19
3.51459e-19
1.12735e-18
3.57441e-18
1.12596e-17
3.52211e-17
1.09497e-16
3.37532e-16
1.03268e-15
3.16943e-15
9.53932e-15
2.84263e-14
8.40318e-14
2.52122e-13
7.27841e-13
2.09493e-12
5.93019e-12
1.65563e-11
4.54292e-11
1.2182e-10
3.33043e-10
8.83744e-10
2.29093e-09
5.83801e-09
1.45329e-08
3.66209e-08
9.09478e-08
2.33382e-07
5.80582e-07
1.43254e-06
3.21241e-06
6.88665e-06
1.56362e-05
3.44339e-05
7.40821e-05
0.000152097
0.000272338
0.000473825
0.000821259
0.00138967
0.00224914
0.00345014
0.00503759
0.00691651
0.00915755
0.0117123
0.0145065
0.017453
0.0204953
0.023516
0.0264212
0.0291505
0.0317169
0.034067
0.0362168
0.038156
0.0398587
0.0412322
0.0420322
0.0421964
0.0414045
0.0389266
0.0341975
0.0274366
0.019647
0.0120297
0.00655637
0.00355854
0.00191179
0.00100918
0.000520319
0.00025576
0.000122701
5.55913e-05
2.54069e-05
1.29574e-05
7.99987e-06
5.51986e-06
3.83386e-06
2.50251e-06
1.40472e-06
4.13418e-07
7.52792e-29
3.97146e-28
1.40265e-27
4.55594e-27
1.44696e-26
4.57483e-26
1.44704e-25
4.58905e-25
1.45897e-24
4.65278e-24
1.48239e-23
4.71551e-23
1.53041e-22
4.89188e-22
1.56252e-21
5.04151e-21
1.61058e-20
5.14127e-20
1.64041e-19
5.17804e-19
1.65078e-18
5.14295e-18
1.58935e-17
4.88361e-17
1.50283e-16
4.63229e-16
1.39608e-15
4.15864e-15
1.25487e-14
3.68203e-14
1.06576e-13
3.22046e-13
9.15738e-13
2.58974e-12
7.16503e-12
2.0102e-11
5.4168e-11
1.42577e-10
3.95224e-10
1.07126e-09
2.71082e-09
6.75271e-09
1.68253e-08
4.17497e-08
1.04853e-07
2.61163e-07
6.63588e-07
1.51206e-06
3.34893e-06
7.56191e-06
1.7034e-05
3.74272e-05
7.88931e-05
0.000160166
0.000284841
0.000490026
0.000839049
0.0014143
0.0022728
0.00346965
0.00504811
0.00691339
0.00913682
0.0116717
0.0144477
0.01738
0.0204006
0.0234015
0.0263017
0.0290408
0.0316182
0.0339705
0.0361218
0.0380701
0.039778
0.0411568
0.0419624
0.0421297
0.0413347
0.0388403
0.0340758
0.0272657
0.0194418
0.0118482
0.00644577
0.0034941
0.00187405
0.00098717
0.000507574
0.000249022
0.000119044
5.38993e-05
2.46763e-05
1.27077e-05
7.91873e-06
5.48172e-06
3.80882e-06
2.48492e-06
1.39377e-06
4.09749e-07
1.22057e-28
6.29361e-28
2.24506e-27
7.24587e-27
2.27579e-26
7.23846e-26
2.27043e-25
7.15137e-25
2.25867e-24
7.14203e-24
2.2619e-23
7.17203e-23
2.27479e-22
7.2106e-22
2.28862e-21
7.27772e-21
2.31404e-20
7.29701e-20
2.29657e-19
7.25717e-19
2.26378e-18
7.00291e-18
2.12526e-17
6.62838e-17
1.99812e-16
5.9962e-16
1.79301e-15
5.18383e-15
1.58662e-14
4.6701e-14
1.35322e-13
3.88862e-13
1.11305e-12
3.13994e-12
8.66161e-12
2.4015e-11
6.59479e-11
1.71915e-10
4.73354e-10
1.23359e-09
3.13081e-09
7.83602e-09
1.92042e-08
4.72975e-08
1.15985e-07
2.90642e-07
7.05482e-07
1.53637e-06
3.58937e-06
8.17169e-06
1.8152e-05
3.93981e-05
8.23325e-05
0.000165777
0.000293232
0.000502415
0.0008537
0.00143049
0.00229007
0.00348318
0.00505239
0.0069057
0.00911347
0.0116316
0.0143909
0.0173109
0.0203212
0.0233093
0.0262091
0.028949
0.031531
0.0338859
0.0360413
0.0379922
0.0397046
0.0410913
0.0419006
0.0420722
0.0412795
0.0387795
0.0339945
0.0271516
0.0193022
0.0117261
0.00637293
0.00345159
0.00184904
0.000972476
0.000498993
0.000244493
0.000116569
5.27711e-05
2.41968e-05
1.2552e-05
7.873e-06
5.46256e-06
3.79643e-06
2.47587e-06
1.38788e-06
4.0769e-07
1.77029e-28
9.16774e-28
3.25218e-27
1.0587e-26
3.3615e-26
1.05988e-25
3.33574e-25
1.04995e-24
3.30635e-24
1.04157e-23
3.28003e-23
1.03371e-22
3.26238e-22
1.02948e-21
3.23642e-21
1.01751e-20
3.19766e-20
1.00086e-19
3.12346e-19
9.72368e-19
3.01378e-18
9.26575e-18
2.83039e-17
8.58248e-17
2.58563e-16
7.74234e-16
2.29681e-15
6.71259e-15
1.93753e-14
5.60298e-14
1.6386e-13
4.75633e-13
1.34491e-12
3.75114e-12
1.02224e-11
2.79878e-11
7.6161e-11
1.96549e-10
5.31902e-10
1.40567e-09
3.54848e-09
8.75894e-09
2.17302e-08
5.28516e-08
1.29928e-07
3.2197e-07
7.34234e-07
1.66498e-06
3.86521e-06
8.73771e-06
1.93828e-05
4.15201e-05
8.5808e-05
0.000171176
0.000300846
0.000512249
0.000865581
0.00144357
0.00230162
0.00348941
0.00504875
0.00689014
0.00908264
0.0115874
0.0143297
0.0172278
0.0202362
0.023218
0.0261205
0.0288592
0.0314449
0.0338033
0.0359606
0.0379153
0.0396333
0.0410294
0.0418466
0.0420247
0.0412404
0.0387458
0.0339563
0.0270959
0.0192284
0.0116589
0.00633248
0.00342757
0.00183466
0.00096387
0.000493874
0.000241771
0.00011506
5.20863e-05
2.39109e-05
1.24669e-05
7.8541e-06
5.45772e-06
3.7936e-06
2.47331e-06
1.38587e-06
4.06871e-07
2.34289e-28
1.21817e-27
4.33666e-27
1.41387e-26
4.49592e-26
1.41737e-25
4.45373e-25
1.39856e-24
4.39348e-24
1.38552e-23
4.3486e-23
1.36311e-22
4.27257e-22
1.34445e-21
4.2028e-21
1.31199e-20
4.09589e-20
1.27343e-19
3.94128e-19
1.23331e-18
3.79298e-18
1.14919e-17
3.53773e-17
1.06231e-16
3.18618e-16
9.55719e-16
2.82822e-15
8.29726e-15
2.40719e-14
6.87446e-14
1.96508e-13
5.62304e-13
1.5782e-12
4.38376e-12
1.20207e-11
3.24208e-11
8.68575e-11
2.22296e-10
5.97763e-10
1.55658e-09
3.94465e-09
9.80313e-09
2.4047e-08
5.88078e-08
1.37728e-07
3.16818e-07
7.68939e-07
1.80578e-06
4.14296e-06
9.34275e-06
2.04183e-05
4.32794e-05
8.86832e-05
0.000175585
0.000306561
0.000519493
0.000874164
0.00145217
0.00230751
0.00348829
0.0050359
0.00686089
0.00903671
0.0115186
0.0142459
0.0171411
0.0201316
0.0231171
0.0260139
0.0287575
0.0313408
0.033705
0.0358734
0.0378364
0.0395628
0.0409702
0.0417971
0.0419851
0.0412149
0.0387364
0.0339574
0.027093
0.019213
0.0116391
0.00631911
0.00341886
0.001829
0.000960224
0.00049156
0.000240491
0.000114316
5.17483e-05
2.37735e-05
1.2435e-05
7.8556e-06
5.46376e-06
3.79801e-06
2.47568e-06
1.3868e-06
4.06994e-07
2.81768e-28
1.54924e-27
5.44052e-27
1.76598e-26
5.66802e-26
1.78639e-25
5.6296e-25
1.7694e-24
5.55341e-24
1.741e-23
5.4603e-23
1.71637e-22
5.36381e-22
1.67657e-21
5.23584e-21
1.61817e-20
5.15385e-20
1.59271e-19
4.91434e-19
1.50815e-18
4.58752e-18
1.41469e-17
4.27308e-17
1.28375e-16
3.82923e-16
1.13637e-15
3.34934e-15
9.77475e-15
2.8684e-14
8.27049e-14
2.35193e-13
6.58799e-13
1.82555e-12
5.01883e-12
1.35743e-11
3.62487e-11
9.56522e-11
2.45971e-10
6.69146e-10
1.71178e-09
4.25365e-09
1.05246e-08
2.56953e-08
6.07494e-08
1.40648e-07
3.46324e-07
8.28046e-07
1.93312e-06
4.43725e-06
9.88911e-06
2.14286e-05
4.50436e-05
9.14127e-05
0.000178488
0.00031056
0.00052524
0.00088006
0.00145684
0.00230818
0.00348196
0.00501914
0.00683044
0.00898452
0.0114491
0.0141593
0.0170381
0.0200257
0.0230155
0.0259144
0.0286567
0.0312478
0.0336175
0.035791
0.0377577
0.0394867
0.0409059
0.0417452
0.0419474
0.0411988
0.0387464
0.0339907
0.0271335
0.0192455
0.0116574
0.00632715
0.00342223
0.00183019
0.000960461
0.000491436
0.000240325
0.00011416
5.16745e-05
2.37481e-05
1.24428e-05
7.87194e-06
5.47769e-06
3.80771e-06
2.48166e-06
1.3899e-06
4.07816e-07
3.41456e-28
1.86285e-27
6.5725e-27
2.14234e-26
6.81296e-26
2.14806e-25
6.75356e-25
2.12014e-24
6.64119e-24
2.08285e-23
6.60584e-23
2.06713e-22
6.45674e-22
2.02409e-21
6.32723e-21
1.96391e-20
6.15993e-20
1.89663e-19
5.81936e-19
1.78621e-18
5.39084e-18
1.65972e-17
4.99312e-17
1.49316e-16
4.39932e-16
1.3152e-15
3.8382e-15
1.11867e-14
3.26769e-14
9.40935e-14
2.6695e-13
7.46374e-13
2.05469e-12
5.65983e-12
1.51819e-11
4.03429e-11
1.05994e-10
2.72418e-10
7.31783e-10
1.85021e-09
4.57015e-09
1.11349e-08
2.66163e-08
6.24577e-08
1.53049e-07
3.7258e-07
8.88575e-07
2.07708e-06
4.72913e-06
1.04965e-05
2.26878e-05
4.76259e-05
9.71881e-05
0.00017928
0.000313551
0.000529336
0.000883402
0.00145785
0.00230388
0.00346704
0.00498939
0.00678532
0.00893123
0.011379
0.0140746
0.0169417
0.0199214
0.0229055
0.0258142
0.0285629
0.0311557
0.0335302
0.0357055
0.0376775
0.039417
0.0408512
0.0417026
0.0419194
0.0411932
0.0387721
0.0340481
0.0272063
0.0193138
0.0117048
0.00635181
0.00343478
0.00183652
0.000963592
0.00049295
0.00024099
0.000114443
5.1797e-05
2.3805e-05
1.24795e-05
7.89923e-06
5.49741e-06
3.82123e-06
2.49023e-06
1.39456e-06
4.09137e-07
4.1145e-28
2.15198e-27
7.6381e-27
2.48825e-26
7.90322e-26
2.48997e-25
7.83134e-25
2.46394e-24
7.73699e-24
2.44528e-23
7.68916e-23
2.41034e-22
7.53324e-22
2.36247e-21
7.40166e-21
2.29959e-20
7.11966e-20
2.19866e-19
6.75309e-19
2.06414e-18
6.27117e-18
1.89198e-17
5.71258e-17
1.7032e-16
5.04415e-16
1.48166e-15
4.3277e-15
1.24292e-14
3.64198e-14
1.03715e-13
2.8695e-13
8.24621e-13
2.28011e-12
6.15754e-12
1.69633e-11
4.45267e-11
1.15176e-10
2.95212e-10
7.7354e-10
1.99472e-09
4.88112e-09
1.18067e-08
2.81099e-08
6.68616e-08
1.63485e-07
3.96212e-07
9.41975e-07
2.19251e-06
4.96953e-06
1.09775e-05
2.36222e-05
4.93751e-05
0.000100035
0.000179324
0.0003162
0.000532692
0.000885179
0.00145662
0.00229702
0.00345318
0.0049636
0.00674587
0.00887046
0.0113056
0.0139893
0.0168471
0.0198222
0.0227997
0.0257109
0.0284722
0.0310547
0.0334377
0.0356225
0.0376035
0.0393517
0.0407982
0.0416637
0.0418951
0.0411937
0.0388081
0.0341212
0.0273005
0.0194066
0.0117725
0.00638824
0.0034543
0.00184691
0.00096903
0.000495711
0.00024227
0.000115044
5.20639e-05
2.3923e-05
1.25376e-05
7.93441e-06
5.521e-06
3.83718e-06
2.50043e-06
1.40021e-06
4.10782e-07
4.52976e-28
2.42265e-27
8.6303e-27
2.80825e-26
8.92187e-26
2.81396e-25
8.86163e-25
2.79e-24
8.8045e-24
2.77544e-23
8.72852e-23
2.73691e-22
8.54942e-22
2.68762e-21
8.34727e-21
2.57805e-20
7.81368e-20
2.49592e-19
7.61491e-19
2.32839e-18
7.06919e-18
2.1336e-17
6.40004e-17
1.88135e-16
5.65955e-16
1.64611e-15
4.75569e-15
1.3661e-14
3.93231e-14
1.1494e-13
3.20301e-13
9.05029e-13
2.48481e-12
6.81096e-12
1.81771e-11
4.76307e-11
1.22535e-10
3.12984e-10
8.18134e-10
2.1182e-09
5.19961e-09
1.26119e-08
2.97064e-08
7.20142e-08
1.72164e-07
4.16271e-07
9.86896e-07
2.27857e-06
5.12962e-06
1.12609e-05
2.40854e-05
5.00517e-05
0.000100765
0.000179242
0.000319177
0.000535247
0.00088552
0.00145323
0.00228761
0.00343488
0.00493729
0.00670649
0.00881492
0.0112336
0.0139039
0.0167519
0.0197231
0.0226957
0.0256096
0.0283753
0.0309618
0.0333552
0.035546
0.0375321
0.0392857
0.0407456
0.0416249
0.0418733
0.0411985
0.0388521
0.0342093
0.027415
0.0195208
0.0118554
0.00643303
0.00347832
0.00185979
0.000975875
0.000499319
0.000243993
0.000115883
5.24284e-05
2.40794e-05
1.26083e-05
7.97412e-06
5.54759e-06
3.85544e-06
2.51227e-06
1.40683e-06
4.12731e-07
4.85533e-28
2.72831e-27
9.65347e-27
3.14063e-26
9.99217e-26
3.16011e-25
9.97686e-25
3.13982e-24
9.867e-24
3.09763e-23
9.70637e-23
3.03108e-22
9.58128e-22
2.94903e-21
9.18701e-21
2.86719e-20
8.94364e-20
2.7461e-19
8.40264e-19
2.55174e-18
7.68444e-18
2.27727e-17
7.023e-17
2.07504e-16
6.11333e-16
1.78364e-15
5.22746e-15
1.50154e-14
4.30989e-14
1.22341e-13
3.40698e-13
9.72338e-13
2.62786e-12
7.22842e-12
1.91676e-11
5.02876e-11
1.29698e-10
3.24913e-10
8.62987e-10
2.23907e-09
5.42332e-09
1.30654e-08
3.12339e-08
7.58709e-08
1.79648e-07
4.3342e-07
1.01967e-06
2.34084e-06
5.24347e-06
1.14558e-05
2.43862e-05
5.04818e-05
0.000101113
0.000179073
0.000321313
0.000537055
0.000885067
0.00144941
0.00227867
0.0034168
0.0049062
0.00666291
0.00876204
0.0111658
0.0138247
0.0166632
0.0196284
0.0226053
0.0255166
0.0282857
0.0308766
0.0332745
0.035473
0.0374662
0.0392264
0.0406969
0.0415898
0.0418543
0.0412053
0.0388985
0.0342995
0.027533
0.0196403
0.0119448
0.00648152
0.00350435
0.00187377
0.000983336
0.000503255
0.000245883
0.000116809
5.28383e-05
2.42573e-05
1.26867e-05
8.01623e-06
5.57469e-06
3.87374e-06
2.5241e-06
1.41347e-06
4.147e-07
5.713e-28
2.96763e-27
1.05407e-26
3.43765e-26
1.0929e-25
3.45166e-25
1.0934e-24
3.43054e-24
1.07172e-23
3.32673e-23
1.05525e-22
3.35093e-22
1.04041e-21
3.20197e-21
1.01704e-20
3.12635e-20
9.58334e-20
2.98111e-19
9.07433e-19
2.72497e-18
8.43568e-18
2.52746e-17
7.55687e-17
2.22825e-16
6.61572e-16
1.91964e-15
5.57274e-15
1.59568e-14
4.54977e-14
1.30687e-13
3.67935e-13
1.02457e-12
2.76897e-12
7.58195e-12
1.9857e-11
5.1515e-11
1.36085e-10
3.39619e-10
8.94964e-10
2.28378e-09
5.74521e-09
1.37901e-08
3.30236e-08
7.75809e-08
1.85686e-07
4.45717e-07
1.04444e-06
2.38874e-06
5.33193e-06
1.161e-05
2.46291e-05
5.07606e-05
0.00010131
0.000178899
0.000322654
0.00053795
0.00088349
0.00144433
0.00226772
0.00339929
0.00487844
0.00662315
0.00870897
0.0111032
0.0137512
0.016581
0.0195407
0.0225143
0.0254276
0.028203
0.0307995
0.0332031
0.035407
0.0374048
0.0391721
0.0406524
0.0415579
0.0418368
0.0412116
0.0389416
0.0343838
0.0276443
0.0197539
0.0120302
0.00652828
0.00352958
0.0018874
0.000990643
0.00050713
0.000247753
0.000117728
5.32424e-05
2.44311e-05
1.27614e-05
8.05545e-06
5.59975e-06
3.89069e-06
2.5351e-06
1.41966e-06
4.16548e-07
6.14773e-28
3.19599e-27
1.13576e-26
3.7067e-26
1.18191e-25
3.7318e-25
1.17535e-24
3.69649e-24
1.16009e-23
3.62924e-23
1.13612e-22
3.56681e-22
1.11414e-21
3.47659e-21
1.08322e-20
3.35403e-20
1.02937e-19
3.18238e-19
9.6784e-19
2.93746e-18
8.93376e-18
2.68556e-17
8.03265e-17
2.38223e-16
6.98416e-16
2.02706e-15
5.88685e-15
1.67891e-14
4.73645e-14
1.36287e-13
3.79817e-13
1.06036e-12
2.91246e-12
7.84371e-12
2.0824e-11
5.47286e-11
1.41509e-10
3.66791e-10
9.39288e-10
2.42668e-09
5.91114e-09
1.40138e-08
3.36754e-08
7.92081e-08
1.90362e-07
4.55261e-07
1.06329e-06
2.42422e-06
5.39475e-06
1.17118e-05
2.47822e-05
5.09463e-05
0.000101432
0.000178712
0.000323508
0.000538337
0.000881589
0.00143884
0.00225731
0.00338168
0.00485305
0.00658914
0.00866558
0.0110518
0.0136898
0.0165119
0.0194674
0.0224399
0.0253519
0.0281318
0.0307334
0.0331419
0.0353504
0.0373535
0.0391265
0.0406151
0.0415313
0.0418226
0.0412176
0.0389791
0.0344571
0.0277414
0.0198541
0.012106
0.00657017
0.00355223
0.00189967
0.00099724
0.000510643
0.000249455
0.000118577
5.36145e-05
2.45908e-05
1.28291e-05
8.0903e-06
5.62179e-06
3.90554e-06
2.54473e-06
1.4251e-06
4.18172e-07
6.05116e-28
3.37637e-27
1.19609e-26
3.90078e-26
1.24133e-25
3.92373e-25
1.23828e-24
3.90103e-24
1.22396e-23
3.82712e-23
1.2035e-22
3.75726e-22
1.17215e-21
3.65407e-21
1.1367e-20
3.52613e-20
1.09532e-19
3.35992e-19
1.02385e-18
3.10558e-18
9.426e-18
2.81526e-17
8.45126e-17
2.49558e-16
7.32028e-16
2.1287e-15
6.13093e-15
1.74465e-14
4.95808e-14
1.41774e-13
3.96133e-13
1.11276e-12
3.02809e-12
8.13547e-12
2.15846e-11
5.68908e-11
1.4767e-10
3.77665e-10
9.60456e-10
2.44752e-09
5.99481e-09
1.43822e-08
3.37073e-08
8.01733e-08
1.94116e-07
4.6263e-07
1.07766e-06
2.45131e-06
5.44295e-06
1.17905e-05
2.48978e-05
5.10798e-05
0.000101508
0.000178566
0.000324
0.000538389
0.000879776
0.00143456
0.00224951
0.00336908
0.00483456
0.00656209
0.00862936
0.011006
0.0136379
0.0164549
0.0194075
0.0223782
0.0252904
0.0280746
0.0306813
0.0330945
0.0353073
0.0373139
0.0390912
0.040586
0.0415108
0.041812
0.0412228
0.0390095
0.0345166
0.0278203
0.0199356
0.0121681
0.00660461
0.00357087
0.00190977
0.00100268
0.000513545
0.000250865
0.000119279
5.39222e-05
2.4723e-05
1.28847e-05
8.11851e-06
5.63957e-06
3.91754e-06
2.55252e-06
1.4295e-06
4.1949e-07
6.62171e-28
3.45462e-27
1.22735e-26
4.04435e-26
1.28527e-25
4.05726e-25
1.27832e-24
4.02697e-24
1.26733e-23
3.97643e-23
1.24531e-22
3.89476e-22
1.21772e-21
3.80915e-21
1.18983e-20
3.6898e-20
1.13871e-19
3.4967e-19
1.06769e-18
3.23997e-18
9.76835e-18
2.92331e-17
8.68579e-17
2.55227e-16
7.56659e-16
2.19995e-15
6.36488e-15
1.81762e-14
5.22366e-14
1.46484e-13
4.07255e-13
1.11974e-12
3.0942e-12
8.29768e-12
2.22564e-11
5.86656e-11
1.50983e-10
3.79941e-10
9.72373e-10
2.46241e-09
6.01795e-09
1.43754e-08
3.40387e-08
8.10808e-08
1.96796e-07
4.67923e-07
1.08791e-06
2.47064e-06
5.47768e-06
1.18493e-05
2.49809e-05
5.11809e-05
0.000101568
0.000178472
0.000324299
0.000538372
0.000878461
0.00143141
0.00224372
0.00335976
0.00482094
0.00654328
0.00860481
0.010976
0.0136034
0.0164165
0.0193668
0.0223369
0.025248
0.0280355
0.0306456
0.0330614
0.0352766
0.0372863
0.0390666
0.0405659
0.0414967
0.0418048
0.0412268
0.0390315
0.0345592
0.0278772
0.0199943
0.012213
0.0066296
0.0035844
0.00191711
0.00100664
0.000515654
0.000251891
0.000119791
5.41461e-05
2.48191e-05
1.29249e-05
8.13884e-06
5.65233e-06
3.92613e-06
2.5581e-06
1.43265e-06
4.20433e-07
6.73103e-28
3.56838e-27
1.26331e-26
4.11857e-26
1.31245e-25
4.15843e-25
1.31161e-24
4.13222e-24
1.30124e-23
4.09234e-23
1.2839e-22
4.01915e-22
1.25546e-21
3.91541e-21
1.22024e-20
3.77958e-20
1.16504e-19
3.57412e-19
1.08679e-18
3.28449e-18
9.9011e-18
2.96322e-17
8.88271e-17
2.61094e-16
7.71969e-16
2.23777e-15
6.47531e-15
1.86769e-14
5.30743e-14
1.49423e-13
4.16208e-13
1.16546e-12
3.14803e-12
8.43519e-12
2.25925e-11
5.87693e-11
1.52703e-10
3.85519e-10
1.01111e-09
2.53552e-09
6.09566e-09
1.45975e-08
3.40402e-08
8.24131e-08
1.98226e-07
4.71122e-07
1.09463e-06
2.48346e-06
5.50043e-06
1.18865e-05
2.50347e-05
5.12466e-05
0.00010162
0.000178446
0.000324529
0.00053845
0.000877875
0.00142989
0.00224082
0.00335492
0.00481362
0.00653341
0.00859219
0.0109606
0.0135854
0.0163966
0.0193458
0.0223151
0.0252259
0.0280149
0.0306264
0.0330441
0.0352609
0.037272
0.039054
0.0405555
0.0414895
0.0418013
0.0412292
0.0390435
0.0345825
0.0279083
0.0200266
0.0122378
0.00664344
0.00359189
0.00192117
0.00100882
0.000516819
0.000252459
0.000120073
5.42695e-05
2.48717e-05
1.2947e-05
8.15002e-06
5.65932e-06
3.93081e-06
2.56113e-06
1.43436e-06
4.20947e-07
6.65222e-28
3.56274e-27
1.28676e-26
4.1795e-26
1.3299e-25
4.19951e-25
1.32282e-24
4.16658e-24
1.31339e-23
4.15138e-23
1.30247e-22
4.07502e-22
1.26754e-21
3.89665e-21
1.24462e-20
3.83701e-20
1.18104e-19
3.61935e-19
1.104e-18
3.33991e-18
1.01379e-17
3.03628e-17
9.0379e-17
2.6642e-16
7.75956e-16
2.28239e-15
6.5764e-15
1.89086e-14
5.42563e-14
1.53494e-13
4.26586e-13
1.16625e-12
3.21261e-12
8.70573e-12
2.29809e-11
5.97097e-11
1.55041e-10
3.87344e-10
1.01899e-09
2.5209e-09
6.19461e-09
1.47261e-08
3.47362e-08
8.25249e-08
1.99045e-07
4.73057e-07
1.09859e-06
2.4911e-06
5.51449e-06
1.19109e-05
2.50742e-05
5.13022e-05
0.000101685
0.000178493
0.000324791
0.000538705
0.000877978
0.00142976
0.00224034
0.00335398
0.00481212
0.0065313
0.00858955
0.0109575
0.013582
0.0163929
0.019342
0.0223114
0.0252223
0.0280117
0.0306236
0.0330416
0.0352587
0.0372701
0.0390523
0.0405543
0.0414887
0.0418011
0.0412299
0.0390456
0.0345862
0.0279131
0.0200316
0.0122416
0.00664558
0.00359305
0.00192179
0.00100915
0.000516993
0.000252542
0.000120113
5.42874e-05
2.48794e-05
1.29503e-05
8.15176e-06
5.66043e-06
3.93155e-06
2.5616e-06
1.43462e-06
4.21022e-07
6.64559e-28
3.62952e-27
1.28931e-26
4.20487e-26
1.33994e-25
4.23923e-25
1.3377e-24
4.21521e-24
1.32651e-23
4.16793e-23
1.30734e-22
4.0929e-22
1.27696e-21
3.96181e-21
1.24824e-20
3.85475e-20
1.18416e-19
3.59894e-19
1.1145e-18
3.3709e-18
1.02108e-17
3.06329e-17
9.13528e-17
2.705e-16
7.92501e-16
2.29768e-15
6.54212e-15
1.9249e-14
5.45495e-14
1.53938e-13
4.30441e-13
1.1859e-12
3.25289e-12
8.71062e-12
2.31905e-11
6.01224e-11
1.56067e-10
3.91837e-10
1.02427e-09
2.53472e-09
6.22561e-09
1.45952e-08
3.51468e-08
8.2768e-08
1.99e-07
4.73796e-07
1.10013e-06
2.49431e-06
5.52122e-06
1.19247e-05
2.51019e-05
5.13553e-05
0.000101783
0.000178653
0.000325156
0.000539285
0.000879128
0.00143165
0.00224321
0.00335816
0.00481793
0.00653902
0.00859938
0.0109694
0.0135958
0.0164082
0.0193584
0.0223281
0.0252391
0.0280274
0.0306383
0.0330551
0.0352712
0.0372815
0.0390625
0.0405626
0.0414946
0.0418042
0.0412287
0.0390373
0.0345697
0.0278908
0.0200082
0.0122237
0.00663556
0.00358761
0.00191883
0.00100755
0.000516133
0.000252124
0.000119904
5.41952e-05
2.484e-05
1.2934e-05
8.1437e-06
5.6554e-06
3.92816e-06
2.55938e-06
1.43336e-06
4.20644e-07
6.7111e-28
3.59819e-27
1.27211e-26
4.15561e-26
1.32648e-25
4.20355e-25
1.32781e-24
4.18428e-24
1.31548e-23
4.1251e-23
1.28995e-22
4.02403e-22
1.25405e-21
3.91048e-21
1.21874e-20
3.77045e-20
1.15545e-19
3.55429e-19
1.09384e-18
3.31535e-18
9.95655e-18
3.02439e-17
8.98831e-17
2.68304e-16
7.83795e-16
2.26727e-15
6.52077e-15
1.89283e-14
5.36682e-14
1.51478e-13
4.21943e-13
1.16005e-12
3.24008e-12
8.61802e-12
2.23195e-11
5.87538e-11
1.52993e-10
3.79907e-10
9.86042e-10
2.55357e-09
6.05997e-09
1.47182e-08
3.424e-08
8.29651e-08
1.9889e-07
4.73048e-07
1.09879e-06
2.49239e-06
5.51944e-06
1.1926e-05
2.5115e-05
5.14009e-05
0.000101905
0.000178923
0.000325637
0.000540214
0.000881348
0.00143555
0.00224936
0.00336724
0.00483072
0.00655612
0.00862108
0.0109957
0.0136261
0.0164417
0.0193935
0.022364
0.0252751
0.028061
0.0306694
0.0330837
0.0352974
0.0373054
0.0390838
0.0405801
0.041507
0.0418107
0.0412256
0.0390189
0.0345334
0.0278421
0.0199575
0.0121848
0.00661384
0.00357582
0.00191243
0.00100409
0.000514282
0.00025122
0.000119452
5.39976e-05
2.47551e-05
1.28989e-05
8.12629e-06
5.64452e-06
3.92081e-06
2.55459e-06
1.43064e-06
4.19826e-07
6.79203e-28
3.52238e-27
1.24941e-26
4.02471e-26
1.30766e-25
4.11592e-25
1.2974e-24
4.0847e-24
1.28387e-23
4.02946e-23
1.26275e-22
3.94974e-22
1.23278e-21
3.84041e-21
1.19194e-20
3.67628e-20
1.14468e-19
3.50487e-19
1.06955e-18
3.24909e-18
9.83959e-18
2.97222e-17
8.86716e-17
2.62203e-16
7.68706e-16
2.23449e-15
6.44238e-15
1.84677e-14
5.3088e-14
1.49655e-13
4.17786e-13
1.14891e-12
3.1614e-12
8.48144e-12
2.2549e-11
5.91424e-11
1.51959e-10
3.7992e-10
9.90075e-10
2.52836e-09
6.09861e-09
1.44338e-08
3.40229e-08
8.28457e-08
1.9789e-07
4.70831e-07
1.09484e-06
2.48593e-06
5.51046e-06
1.19175e-05
2.5119e-05
5.14502e-05
0.000102076
0.000179335
0.000326295
0.000541587
0.000884812
0.00144178
0.00225933
0.00338209
0.0048515
0.00658379
0.008656
0.0110374
0.0136738
0.0164941
0.0194485
0.0224199
0.0253313
0.0281132
0.0307174
0.0331278
0.0353379
0.0373419
0.0391162
0.0406066
0.0415256
0.0418203
0.0412206
0.0389908
0.0344785
0.0277686
0.0198814
0.0121267
0.00658143
0.00355824
0.00190287
0.000998927
0.000511519
0.000249874
0.000118779
5.37027e-05
2.46289e-05
1.28465e-05
8.10009e-06
5.62816e-06
3.90979e-06
2.54742e-06
1.42657e-06
4.18603e-07
6.35061e-28
3.40343e-27
1.2082e-26
3.953e-26
1.25564e-25
3.9585e-25
1.24875e-24
3.94715e-24
1.24031e-23
3.88949e-23
1.21745e-22
3.80515e-22
1.18906e-21
3.72525e-21
1.15453e-20
3.56229e-20
1.09516e-19
3.35221e-19
1.02326e-18
3.1222e-18
9.48241e-18
2.81267e-17
8.54606e-17
2.50405e-16
7.47491e-16
2.17025e-15
6.25819e-15
1.79002e-14
5.14809e-14
1.46157e-13
4.01089e-13
1.13831e-12
3.08274e-12
8.2873e-12
2.20798e-11
5.76719e-11
1.49471e-10
3.76981e-10
9.59099e-10
2.43083e-09
6.02929e-09
1.43071e-08
3.3452e-08
8.17424e-08
1.9632e-07
4.67408e-07
1.08811e-06
2.47384e-06
5.49138e-06
1.18937e-05
2.51047e-05
5.14888e-05
0.000102277
0.000179872
0.00032705
0.000543248
0.000889216
0.00144986
0.00227242
0.00340179
0.00487936
0.00662135
0.00870435
0.0110939
0.0137373
0.0165633
0.0195209
0.0224936
0.0254044
0.0281817
0.0307795
0.0331844
0.0353894
0.0373889
0.0391579
0.0406407
0.0415497
0.0418326
0.041214
0.0389542
0.0344071
0.027674
0.0197835
0.0120521
0.00654014
0.00353586
0.00189071
0.000992364
0.000508009
0.000248167
0.000117927
5.33288e-05
2.4469e-05
1.27798e-05
8.06656e-06
5.60714e-06
3.8956e-06
2.53818e-06
1.42134e-06
4.17031e-07
6.21878e-28
3.23513e-27
1.15312e-26
3.76032e-26
1.19275e-25
3.75567e-25
1.18957e-24
3.72977e-24
1.16893e-23
3.69713e-23
1.15437e-22
3.60106e-22
1.12275e-21
3.50613e-21
1.09975e-20
3.39841e-20
1.04506e-19
3.20426e-19
9.82498e-19
2.9469e-18
9.07496e-18
2.71312e-17
8.11049e-17
2.40766e-16
7.10263e-16
2.06961e-15
6.01387e-15
1.72287e-14
4.96481e-14
1.39422e-13
3.87711e-13
1.0853e-12
2.96842e-12
7.99672e-12
2.08284e-11
5.55014e-11
1.43527e-10
3.64317e-10
9.39692e-10
2.42155e-09
5.81804e-09
1.433e-08
3.35705e-08
8.04081e-08
1.93233e-07
4.6185e-07
1.07796e-06
2.45561e-06
5.46178e-06
1.18518e-05
2.50651e-05
5.15048e-05
0.000102492
0.000180509
0.000327698
0.000545062
0.000894335
0.00145937
0.0022879
0.00342503
0.00491189
0.00666421
0.00875735
0.0111579
0.0138115
0.0166453
0.0196076
0.0225804
0.0254893
0.02826
0.0308523
0.0332515
0.035451
0.0374451
0.0392081
0.0406817
0.0415787
0.0418477
0.0412064
0.0389113
0.034324
0.0275634
0.0196688
0.011965
0.00649188
0.00350972
0.00187652
0.000984711
0.000503921
0.000246183
0.000116938
5.2894e-05
2.42818e-05
1.27014e-05
8.02691e-06
5.58226e-06
3.87884e-06
2.52727e-06
1.41516e-06
4.15179e-07
5.85359e-28
3.04062e-27
1.08224e-26
3.52845e-26
1.11774e-25
3.49859e-25
1.12058e-24
3.50763e-24
1.09795e-23
3.4315e-23
1.07019e-22
3.33564e-22
1.04427e-21
3.25162e-21
1.01116e-20
3.15482e-20
9.69294e-20
2.97295e-19
9.1281e-19
2.7707e-18
8.39906e-18
2.52052e-17
7.66091e-17
2.27166e-16
6.69918e-16
1.95017e-15
5.75241e-15
1.65732e-14
4.73409e-14
1.33315e-13
3.79561e-13
1.04566e-12
2.84274e-12
7.67543e-12
2.04301e-11
5.37156e-11
1.40126e-10
3.55174e-10
9.20954e-10
2.37346e-09
5.75533e-09
1.39768e-08
3.32002e-08
7.8678e-08
1.89558e-07
4.54157e-07
1.06317e-06
2.42923e-06
5.41507e-06
1.17846e-05
2.49818e-05
5.14545e-05
0.000102621
0.000181087
0.000328034
0.000546478
0.000899305
0.00146922
0.00230441
0.00345017
0.00494733
0.00671102
0.00881535
0.011229
0.0138926
0.0167331
0.0196965
0.0226703
0.0255799
0.0283466
0.0309336
0.0333272
0.0355214
0.0375102
0.0392655
0.0407282
0.0416117
0.0418648