/*--------------------------------*- C++ -*----------------------------------*\
  =========                 |
  \\      /  F ield         | OpenFOAM: The Open Source CFD Toolbox
   \\    /   O peration     | Website:  https://openfoam.org
    \\  /    A nd           | Version:  10
     \\/     M anipulation  |
\*---------------------------------------------------------------------------*/
FoamFile
{
    format      ascii;
    class       volScalarField;
    location    "1";
    object      C2H3CHO;
}
// * * * * * * * * * * * * * * * * * * * * * * * * * * * * * * * * * * * * * //

dimensions      [0 0 0 0 0 0 0];

internalField   nonuniform List<scalar> 
4000
(
2.59454e-32
1.62841e-31
7.14584e-31
2.74508e-30
9.84713e-30
3.30589e-29
1.05467e-28
3.2431e-28
9.71726e-28
2.87462e-27
8.52803e-27
2.36511e-26
6.47689e-26
1.78042e-25
4.93828e-25
1.38061e-24
3.88255e-24
1.1355e-23
3.28092e-23
9.58419e-23
2.8132e-22
8.18717e-22
2.55524e-21
7.64843e-21
2.3225e-20
7.03467e-20
2.10572e-19
6.49554e-19
1.95165e-18
5.86225e-18
1.76021e-17
5.27575e-17
1.56379e-16
4.60484e-16
1.34862e-15
3.81594e-15
1.09538e-14
3.19171e-14
9.06336e-14
2.54672e-13
6.90729e-13
1.83812e-12
4.78395e-12
1.215e-11
3.00754e-11
7.80199e-11
2.05777e-10
5.34128e-10
1.34913e-09
3.29007e-09
7.71191e-09
1.76212e-08
3.60688e-08
7.68287e-08
1.58119e-07
3.08521e-07
5.62173e-07
9.96898e-07
1.67325e-06
2.65281e-06
3.96439e-06
5.52658e-06
7.39423e-06
9.51451e-06
1.18121e-05
1.41994e-05
1.65996e-05
1.88893e-05
2.1019e-05
2.29536e-05
2.46559e-05
2.60658e-05
2.70582e-05
2.73834e-05
2.65914e-05
2.40851e-05
1.98216e-05
1.41825e-05
8.43337e-06
4.41025e-06
2.28025e-06
1.19877e-06
6.41674e-07
3.48492e-07
1.90789e-07
1.04425e-07
5.66856e-08
3.02958e-08
1.58445e-08
8.08561e-09
4.0666e-09
2.07862e-09
1.34624e-09
1.318e-09
1.9052e-09
2.69784e-09
2.35021e-09
1.62312e-09
9.24872e-10
2.75788e-10
2.47654e-32
1.45281e-31
5.41892e-31
1.87181e-30
6.23126e-30
2.0131e-29
6.33461e-29
1.94748e-28
5.70103e-28
1.63147e-27
4.62402e-27
1.31104e-26
3.74366e-26
1.0824e-25
3.17695e-25
9.48747e-25
2.86713e-24
8.78871e-24
2.72352e-23
8.48152e-23
2.65759e-22
8.3808e-22
2.6377e-21
8.29365e-21
2.60723e-20
8.1365e-20
2.53074e-19
7.83897e-19
2.40498e-18
7.30213e-18
2.20609e-17
6.96196e-17
2.08384e-16
6.1154e-16
1.78326e-15
5.12346e-15
1.49323e-14
4.21301e-14
1.18798e-13
3.26821e-13
8.88109e-13
2.33658e-12
6.08302e-12
1.54069e-11
3.96403e-11
1.04325e-10
2.71627e-10
6.91672e-10
1.72231e-09
4.18833e-09
9.11408e-09
1.87721e-08
4.08309e-08
8.51691e-08
1.73011e-07
3.37834e-07
5.99383e-07
1.04173e-06
1.7241e-06
2.69093e-06
3.98909e-06
5.53373e-06
7.37936e-06
9.47625e-06
1.17503e-05
1.41226e-05
1.65185e-05
1.88317e-05
2.09869e-05
2.29536e-05
2.46998e-05
2.61514e-05
2.71967e-05
2.75705e-05
2.68198e-05
2.43421e-05
2.00712e-05
1.43828e-05
8.55259e-06
4.46668e-06
2.30634e-06
1.21134e-06
6.4789e-07
3.514e-07
1.9203e-07
1.04881e-07
5.67936e-08
3.02688e-08
1.57787e-08
8.02509e-09
4.02788e-09
2.07051e-09
1.37158e-09
1.37994e-09
2.038e-09
2.77687e-09
2.36637e-09
1.62077e-09
9.20518e-10
2.73649e-10
1.37301e-32
7.15839e-32
2.42685e-31
7.40058e-31
2.17678e-30
6.28848e-30
1.79859e-29
5.17569e-29
1.53697e-28
4.79489e-28
1.54114e-27
5.0722e-27
1.69671e-26
5.71354e-26
1.92915e-25
6.51437e-25
2.19345e-24
7.2498e-24
2.51223e-23
8.34569e-23
2.77478e-22
9.15898e-22
2.99801e-21
9.71642e-21
3.11724e-20
9.9145e-20
3.13738e-19
9.93381e-19
3.0713e-18
9.42419e-18
2.94757e-17
8.89973e-17
2.62431e-16
7.80608e-16
2.30488e-15
6.64465e-15
1.88227e-14
5.29364e-14
1.47462e-13
4.00467e-13
1.07393e-12
2.71947e-12
7.35335e-12
1.83032e-11
4.85543e-11
1.24897e-10
3.25362e-10
8.20574e-10
1.97978e-09
4.72475e-09
1.02302e-08
2.12182e-08
4.58853e-08
9.6935e-08
1.90738e-07
3.53201e-07
6.17556e-07
1.0653e-06
1.75163e-06
2.72339e-06
4.0166e-06
5.55055e-06
7.37932e-06
9.45518e-06
1.17119e-05
1.40719e-05
1.64642e-05
1.87906e-05
2.09757e-05
2.29776e-05
2.47679e-05
2.62696e-05
2.73748e-05
2.78213e-05
2.71332e-05
2.46931e-05
2.04048e-05
1.46422e-05
8.70262e-06
4.53829e-06
2.34192e-06
1.22889e-06
6.56478e-07
3.55114e-07
1.93566e-07
1.05426e-07
5.69099e-08
3.02229e-08
1.56935e-08
7.94045e-09
3.97423e-09
2.06125e-09
1.40686e-09
1.46443e-09
2.21368e-09
2.86915e-09
2.38809e-09
1.62179e-09
9.18788e-10
2.72497e-10
8.15892e-33
4.17535e-32
1.43623e-31
4.50969e-31
1.38916e-30
4.31403e-30
1.36953e-29
4.58166e-29
1.53629e-28
5.20407e-28
1.80109e-27
6.21378e-27
2.17148e-26
7.47429e-26
2.56566e-25
8.76322e-25
2.97699e-24
1.00507e-23
3.36824e-23
1.12099e-22
3.70132e-22
1.21736e-21
3.96513e-21
1.2812e-20
4.15285e-20
1.31935e-19
4.15874e-19
1.29649e-18
3.91458e-18
1.24862e-17
3.77391e-17
1.13635e-16
3.37234e-16
9.96834e-16
2.9173e-15
8.3571e-15
2.35003e-14
6.59813e-14
1.79406e-13
4.95532e-13
1.3171e-12
3.40415e-12
8.90572e-12
2.21676e-11
5.62435e-11
1.47593e-10
3.79433e-10
9.37734e-10
2.29712e-09
5.03929e-09
1.07751e-08
2.42289e-08
5.24553e-08
1.07336e-07
2.07641e-07
3.63811e-07
6.3602e-07
1.08993e-06
1.78278e-06
2.75042e-06
4.0365e-06
5.55959e-06
7.37459e-06
9.43701e-06
1.1682e-05
1.40344e-05
1.64284e-05
1.87729e-05
2.09897e-05
2.30311e-05
2.48747e-05
2.64272e-05
2.75795e-05
2.80826e-05
2.74746e-05
2.50585e-05
2.07638e-05
1.49266e-05
8.86795e-06
4.61846e-06
2.38126e-06
1.2491e-06
6.68631e-07
3.56405e-07
1.94284e-07
1.0572e-07
5.69727e-08
3.01983e-08
1.56745e-08
7.81317e-09
3.91027e-09
2.05419e-09
1.44728e-09
1.55795e-09
2.40385e-09
2.95756e-09
2.41226e-09
1.62731e-09
9.19415e-10
2.72057e-10
1.05974e-32
5.50032e-32
1.95243e-31
6.38941e-31
2.05625e-30
6.64111e-30
2.16469e-29
7.11519e-29
2.34955e-28
7.98153e-28
2.68694e-27
9.12099e-27
3.12844e-26
1.06076e-25
3.64311e-25
1.2292e-24
4.13059e-24
1.40275e-23
4.68468e-23
1.55336e-22
5.11952e-22
1.66688e-21
5.38821e-21
1.7285e-20
5.50729e-20
1.73859e-19
5.4438e-19
1.70932e-18
5.25742e-18
1.60003e-17
4.82809e-17
1.47794e-16
4.34794e-16
1.27498e-15
3.67441e-15
1.04391e-14
2.91186e-14
7.93478e-14
2.20374e-13
5.93487e-13
1.56107e-12
4.03265e-12
1.01761e-11
2.59706e-11
6.53224e-11
1.69717e-10
4.27185e-10
1.06558e-09
2.41253e-09
5.21891e-09
1.1961e-08
2.65693e-08
5.76164e-08
1.19137e-07
2.14558e-07
3.75363e-07
6.53968e-07
1.11136e-06
1.8048e-06
2.77495e-06
4.05727e-06
5.57366e-06
7.37847e-06
9.42971e-06
1.16649e-05
1.40112e-05
1.64115e-05
1.87683e-05
2.10104e-05
2.30862e-05
2.49742e-05
2.65702e-05
2.77816e-05
2.83613e-05
2.7813e-05
2.54157e-05
2.10904e-05
1.51805e-05
9.0107e-06
4.68564e-06
2.41434e-06
1.26587e-06
6.77211e-07
3.60714e-07
1.96264e-07
1.06572e-07
5.72919e-08
3.02814e-08
1.56651e-08
7.78775e-09
3.89185e-09
2.0657e-09
1.49265e-09
1.64901e-09
2.57692e-09
3.04229e-09
2.44189e-09
1.63839e-09
9.23009e-10
2.72668e-10
1.79575e-32
9.62512e-32
3.48681e-31
1.16895e-30
3.84447e-30
1.26049e-29
4.13632e-29
1.36075e-28
4.48577e-28
1.48249e-27
4.89143e-27
1.61026e-26
5.40776e-26
1.78664e-25
5.89458e-25
1.96318e-24
6.4681e-24
2.12784e-23
6.99196e-23
2.2706e-22
7.44456e-22
2.38265e-21
7.55852e-21
2.38253e-20
7.51868e-20
2.37515e-19
7.32873e-19
2.2337e-18
6.89352e-18
2.0664e-17
6.10781e-17
1.88301e-16
5.45977e-16
1.57317e-15
4.4314e-15
1.26523e-14
3.46696e-14
9.27084e-14
2.61101e-13
7.1881e-13
1.84524e-12
4.66009e-12
1.17699e-11
2.95836e-11
7.52624e-11
1.89843e-10
4.88035e-10
1.12389e-09
2.51338e-09
5.73122e-09
1.3032e-08
2.88816e-08
6.13655e-08
1.25496e-07
2.24511e-07
3.88406e-07
6.68567e-07
1.13212e-06
1.8257e-06
2.79418e-06
4.07207e-06
5.58092e-06
7.37679e-06
9.41944e-06
1.1649e-05
1.39947e-05
1.63993e-05
1.87672e-05
2.10317e-05
2.31326e-05
2.5053e-05
2.66886e-05
2.79466e-05
2.85638e-05
2.80623e-05
2.57022e-05
2.13593e-05
1.53873e-05
9.13057e-06
4.74487e-06
2.4439e-06
1.28102e-06
6.84936e-07
3.6495e-07
1.98385e-07
1.0758e-07
5.77325e-08
3.04472e-08
1.57084e-08
7.79871e-09
3.8939e-09
2.08571e-09
1.53627e-09
1.72928e-09
2.72009e-09
3.11623e-09
2.47308e-09
1.65302e-09
9.2972e-10
2.74256e-10
2.88241e-32
1.50953e-31
5.5232e-31
1.83982e-30
5.98382e-30
1.97486e-29
6.42748e-29
2.1007e-28
6.88179e-28
2.25579e-27
7.40188e-27
2.43016e-26
7.97552e-26
2.61406e-25
8.57384e-25
2.8154e-24
9.23645e-24
3.00217e-23
9.73289e-23
3.16682e-22
1.01593e-21
3.22967e-21
1.00633e-20
3.22177e-20
9.95875e-20
3.06209e-19
9.37776e-19
2.77355e-18
8.68685e-18
2.6133e-17
7.73299e-17
2.26777e-16
6.62072e-16
1.90345e-15
5.34656e-15
1.50898e-14
4.21492e-14
1.11688e-13
3.1249e-13
8.26917e-13
2.12913e-12
5.40482e-12
1.34227e-11
3.34882e-11
8.31897e-11
2.11048e-10
5.18296e-10
1.14023e-09
2.69262e-09
6.19216e-09
1.38851e-08
3.04019e-08
6.4049e-08
1.29927e-07
2.31215e-07
3.98428e-07
6.80635e-07
1.14588e-06
1.84126e-06
2.80819e-06
4.08081e-06
5.58334e-06
7.37122e-06
9.40633e-06
1.16303e-05
1.39749e-05
1.63833e-05
1.87596e-05
2.10425e-05
2.31667e-05
2.5115e-05
2.6783e-05
2.80765e-05
2.87381e-05
2.82805e-05
2.59499e-05
2.16092e-05
1.55902e-05
9.25525e-06
4.80687e-06
2.47504e-06
1.29695e-06
6.93165e-07
3.69444e-07
2.00697e-07
1.08733e-07
5.82794e-08
3.06872e-08
1.58011e-08
7.83824e-09
3.91155e-09
2.11022e-09
1.57611e-09
1.79809e-09
2.83771e-09
3.18134e-09
2.50474e-09
1.6698e-09
9.38079e-10
2.76439e-10
4.16017e-32
2.18846e-31
7.96395e-31
2.67616e-30
8.79984e-30
2.87747e-29
9.39605e-29
3.06828e-28
1.00209e-27
3.27243e-27
1.06773e-26
3.48463e-26
1.13822e-25
3.71458e-25
1.20686e-24
3.9186e-24
1.27089e-23
4.10164e-23
1.31885e-22
4.22696e-22
1.34777e-21
4.25915e-21
1.3363e-20
4.15885e-20
1.285e-19
3.94328e-19
1.19798e-18
3.5828e-18
1.05735e-17
3.12557e-17
9.33565e-17
2.7668e-16
7.97989e-16
2.26855e-15
6.29574e-15
1.75502e-14
4.85878e-14
1.27475e-13
3.50531e-13
9.40912e-13
2.4101e-12
6.03347e-12
1.51769e-11
3.74024e-11
9.31517e-11
2.3372e-10
5.3886e-10
1.23504e-09
2.89826e-09
6.61873e-09
1.48211e-08
3.2031e-08
6.67468e-08
1.3417e-07
2.37275e-07
4.06382e-07
6.90473e-07
1.15715e-06
1.85212e-06
2.81612e-06
4.08287e-06
5.57856e-06
7.35828e-06
9.38742e-06
1.16055e-05
1.3945e-05
1.63599e-05
1.87454e-05
2.10453e-05
2.31903e-05
2.51624e-05
2.6859e-05
2.81876e-05
2.8889e-05
2.84745e-05
2.6179e-05
2.18403e-05
1.57913e-05
9.3881e-06
4.87412e-06
2.50899e-06
1.3144e-06
7.02252e-07
3.74338e-07
2.03261e-07
1.10052e-07
5.89361e-08
3.09993e-08
1.59402e-08
7.90294e-09
3.94244e-09
2.13749e-09
1.61137e-09
1.85461e-09
2.93022e-09
3.23807e-09
2.53621e-09
1.68782e-09
9.47476e-10
2.79012e-10
5.48418e-32
2.89664e-31
1.05789e-30
3.56016e-30
1.17234e-29
3.83245e-29
1.24925e-28
4.06961e-28
1.32594e-27
4.33531e-27
1.40978e-26
4.57591e-26
1.48434e-25
4.83145e-25
1.56084e-24
5.03246e-24
1.62151e-23
5.19907e-23
1.65816e-22
5.34423e-22
1.69117e-21
5.2672e-21
1.66568e-20
5.13406e-20
1.57949e-19
4.85719e-19
1.47209e-18
4.41999e-18
1.31144e-17
3.82706e-17
1.11724e-16
3.26408e-16
9.34408e-16
2.64598e-15
7.39157e-15
2.02997e-14
5.53352e-14
1.43953e-13
3.9334e-13
1.04022e-12
2.67544e-12
6.74524e-12
1.67783e-11
4.15807e-11
9.85865e-11
2.29456e-10
5.63573e-10
1.33863e-09
3.10455e-09
7.07187e-09
1.56044e-08
3.33775e-08
6.89746e-08
1.37632e-07
2.41829e-07
4.12261e-07
6.97643e-07
1.16477e-06
1.85832e-06
2.81791e-06
4.07731e-06
5.56325e-06
7.33361e-06
9.3515e-06
1.15644e-05
1.39068e-05
1.63217e-05
1.87214e-05
2.10365e-05
2.32025e-05
2.52e-05
2.69244e-05
2.8281e-05
2.90181e-05
2.86452e-05
2.63906e-05
2.20639e-05
1.59974e-05
9.53398e-06
4.94911e-06
2.54691e-06
1.33386e-06
7.12422e-07
3.79723e-07
2.06107e-07
1.11541e-07
5.9699e-08
3.13782e-08
1.61208e-08
7.98913e-09
3.98432e-09
2.16672e-09
1.64263e-09
1.90097e-09
3.0049e-09
3.28909e-09
2.56744e-09
1.70666e-09
9.57574e-10
2.81859e-10
6.57353e-32
3.67169e-31
1.3227e-30
4.43177e-30
1.47313e-29
4.8144e-29
1.57403e-28
5.13183e-28
1.67032e-27
5.42825e-27
1.76399e-26
5.74238e-26
1.85715e-25
6.00412e-25
1.93824e-24
6.18693e-24
2.03478e-23
6.48542e-23
2.06229e-22
6.51696e-22
2.0396e-21
6.46909e-21
2.00741e-20
6.19103e-20
1.89431e-19
5.76248e-19
1.73989e-18
5.19776e-18
1.56024e-17
4.59819e-17
1.33536e-16
3.81724e-16
1.07874e-15
3.02278e-15
8.32995e-15
2.26428e-14
6.07833e-14
1.58914e-13
4.39547e-13
1.14226e-12
2.88037e-12
7.22941e-12
1.78981e-11
4.28665e-11
1.00485e-10
2.5059e-10
6.06382e-10
1.43185e-09
3.32189e-09
7.47953e-09
1.63665e-08
3.47229e-08
7.10805e-08
1.39908e-07
2.4502e-07
4.16937e-07
7.02612e-07
1.16909e-06
1.86e-06
2.81488e-06
4.0673e-06
5.54432e-06
7.30139e-06
9.30991e-06
1.15155e-05
1.38538e-05
1.62739e-05
1.86854e-05
2.10151e-05
2.31983e-05
2.52157e-05
2.69657e-05
2.83538e-05
2.9132e-05
2.88148e-05
2.66136e-05
2.23089e-05
1.62299e-05
9.70061e-06
5.03417e-06
2.5894e-06
1.35546e-06
7.23656e-07
3.85559e-07
2.09182e-07
1.13168e-07
6.05471e-08
3.181e-08
1.63344e-08
8.092e-09
4.03453e-09
2.19693e-09
1.6698e-09
1.93736e-09
3.0621e-09
3.33438e-09
2.59804e-09
1.72593e-09
9.68111e-10
2.84886e-10
7.94307e-32
4.40169e-31
1.59319e-30
5.36053e-30
1.76524e-29
5.77101e-29
1.88219e-28
6.12927e-28
1.99108e-27
6.47388e-27
2.12827e-26
6.89617e-26
2.22937e-25
7.22972e-25
2.33617e-24
7.4896e-24
2.42528e-23
7.7016e-23
2.43529e-22
7.69868e-22
2.3909e-21
7.57009e-21
2.34015e-20
7.18491e-20
2.17161e-19
6.65528e-19
1.98965e-18
5.93652e-18
1.77423e-17
5.22227e-17
1.5132e-16
4.31769e-16
1.21214e-15
3.4034e-15
9.29864e-15
2.51573e-14
6.72424e-14
1.7572e-13
4.7994e-13
1.23219e-12
3.08878e-12
7.6343e-12
1.85e-11
4.39974e-11
1.09264e-10
2.69408e-10
6.50274e-10
1.53733e-09
3.53854e-09
7.93615e-09
1.73246e-08
3.67095e-08
7.55708e-08
1.40524e-07
2.4741e-07
4.20279e-07
7.05497e-07
1.1704e-06
1.85759e-06
2.80508e-06
4.04723e-06
5.51378e-06
7.26584e-06
9.2645e-06
1.14633e-05
1.37986e-05
1.62206e-05
1.86382e-05
2.09837e-05
2.31831e-05
2.52171e-05
2.69892e-05
2.84062e-05
2.92195e-05
2.89438e-05
2.6791e-05
2.25182e-05
1.64406e-05
9.86422e-06
5.12007e-06
2.63276e-06
1.37765e-06
7.35281e-07
3.91589e-07
2.12425e-07
1.14884e-07
6.14475e-08
3.22749e-08
1.65703e-08
8.20639e-09
4.09054e-09
2.22754e-09
1.69366e-09
1.96608e-09
3.10661e-09
3.37558e-09
2.62804e-09
1.74536e-09
9.78873e-10
2.88017e-10
9.54293e-32
5.07114e-31
1.84616e-30
6.20747e-30
2.04149e-29
6.66914e-29
2.17603e-28
7.10285e-28
2.3132e-27
7.5813e-27
2.47057e-26
8.02081e-26
2.59464e-25
8.41781e-25
2.72666e-24
8.74997e-24
2.79633e-23
8.90723e-23
2.81978e-22
8.87665e-22
2.77541e-21
8.61077e-21
2.67161e-20
8.17834e-20
2.4849e-19
7.48267e-19
2.23923e-18
6.58304e-18
1.97335e-17
5.74435e-17
1.62322e-16
4.76213e-16
1.34313e-15
3.69683e-15
1.03786e-14
2.77322e-14
7.29708e-14
1.90159e-13
5.06637e-13
1.3268e-12
3.29483e-12
8.08604e-12
1.95202e-11
4.70805e-11
1.16674e-10
2.86441e-10
6.89324e-10
1.62315e-09
3.72e-09
8.30482e-09
1.80511e-08
3.80865e-08
7.78379e-08
1.40538e-07
2.49523e-07
4.23016e-07
7.07087e-07
1.16979e-06
1.8529e-06
2.7952e-06
4.02875e-06
5.48578e-06
7.22355e-06
9.21472e-06
1.14078e-05
1.37408e-05
1.61656e-05
1.85874e-05
2.09455e-05
2.31638e-05
2.52009e-05
2.69961e-05
2.84385e-05
2.92843e-05
2.90534e-05
2.69576e-05
2.27158e-05
1.66528e-05
1.00325e-05
5.20906e-06
2.67719e-06
1.40023e-06
7.4709e-07
3.97696e-07
2.15722e-07
1.16675e-07
6.24086e-08
3.27801e-08
1.6827e-08
8.33002e-09
4.15089e-09
2.25877e-09
1.71535e-09
1.98919e-09
3.14192e-09
3.41347e-09
2.65718e-09
1.76456e-09
9.89603e-10
2.9117e-10
1.04865e-31
5.6941e-31
2.0809e-30
6.98888e-30
2.29895e-29
7.51801e-29
2.45604e-28
8.02247e-28
2.62638e-27
8.58486e-27
2.79794e-26
9.08631e-26
2.93782e-25
9.55345e-25
3.06682e-24
9.78304e-24
3.05982e-23
1.00881e-22
3.17251e-22
9.99251e-22
3.12243e-21
9.69208e-21
2.98743e-20
9.01496e-20
2.78314e-19
8.29858e-19
2.45575e-18
7.22158e-18
2.12653e-17
6.35823e-17
1.80955e-16
5.22011e-16
1.46206e-15
4.08584e-15
1.11074e-14
2.96292e-14
7.75369e-14
2.01354e-13
5.35228e-13
1.40804e-12
3.50829e-12
8.63526e-12
2.06277e-11
5.07065e-11
1.22867e-10
3.0098e-10
7.22392e-10
1.68748e-09
3.84141e-09
8.52229e-09
1.84098e-08
3.8614e-08
7.84083e-08
1.40464e-07
2.51896e-07
4.25088e-07
7.0747e-07
1.16738e-06
1.84594e-06
2.78165e-06
4.00935e-06
5.45704e-06
7.18366e-06
9.16443e-06
1.13504e-05
1.36799e-05
1.6107e-05
1.8532e-05
2.09002e-05
2.31319e-05
2.51836e-05
2.69976e-05
2.84634e-05
2.93416e-05
2.91577e-05
2.71178e-05
2.29143e-05
1.68624e-05
1.02011e-05
5.299e-06
2.72311e-06
1.42387e-06
7.59513e-07
4.03994e-07
2.19099e-07
1.18492e-07
6.33812e-08
3.32939e-08
1.70948e-08
8.46068e-09
4.21508e-09
2.28974e-09
1.73459e-09
2.00762e-09
3.16998e-09
3.44938e-09
2.68657e-09
1.78437e-09
1.00076e-09
2.94457e-10
1.12178e-31
6.40113e-31
2.3233e-30
7.80242e-30
2.57063e-29
8.43058e-29
2.76122e-28
9.01381e-28
2.93757e-27
9.56035e-27
3.10413e-26
1.00391e-25
3.28571e-25
1.04566e-24
3.36717e-24
1.08598e-23
3.49736e-23
1.10773e-22
3.49362e-22
1.09262e-21
3.38595e-21
1.03165e-20
3.27191e-20
9.92597e-20
3.00055e-19
8.97517e-19
2.69592e-18
7.92808e-18
2.32821e-17
6.75682e-17
1.9221e-16
5.60131e-16
1.54399e-15
4.33056e-15
1.17005e-14
3.1256e-14
8.20208e-14
2.08918e-13
5.64294e-13
1.48768e-12
3.65806e-12
8.94192e-12
2.16836e-11
5.34289e-11
1.28218e-10
3.13405e-10
7.46483e-10
1.73385e-09
3.92715e-09
8.67044e-09
1.86402e-08
3.89441e-08
7.86718e-08
1.40319e-07
2.53595e-07
4.26551e-07
7.07173e-07
1.16449e-06
1.83916e-06
2.76797e-06
3.98604e-06
5.42465e-06
7.14495e-06
9.11587e-06
1.12954e-05
1.36211e-05
1.60483e-05
1.84812e-05
2.08548e-05
2.3098e-05
2.51633e-05
2.69937e-05
2.84801e-05
2.93868e-05
2.92446e-05
2.7261e-05
2.30958e-05
1.70624e-05
1.03703e-05
5.39072e-06
2.76904e-06
1.44721e-06
7.71701e-07
4.10216e-07
2.22422e-07
1.20276e-07
6.43343e-08
3.37968e-08
1.73559e-08
8.58733e-09
4.27694e-09
2.31934e-09
1.75196e-09
2.02242e-09
3.1914e-09
3.48158e-09
2.7138e-09
1.80285e-09
1.0112e-09
2.97551e-10
1.31729e-31
6.95104e-31
2.53266e-30
8.52548e-30
2.80649e-29
9.19077e-29
3.02069e-28
9.8292e-28
3.18379e-27
1.02428e-26
3.36755e-26
1.10807e-25
3.56081e-25
1.13321e-24
3.72259e-24
1.18191e-23
3.73947e-23
1.20037e-22
3.76593e-22
1.16464e-21
3.71299e-21
1.14422e-20
3.5161e-20
1.06457e-19
3.24357e-19
9.6491e-19
2.8703e-18
8.4135e-18
2.45454e-17
7.21003e-17
2.07393e-16
5.89726e-16
1.62559e-15
4.53879e-15
1.21094e-14
3.19825e-14
8.59916e-14
2.1815e-13
5.84803e-13
1.51643e-12
3.87374e-12
9.43719e-12
2.29334e-11
5.4633e-11
1.32528e-10
3.22316e-10
7.64648e-10
1.76936e-09
3.99332e-09
8.78663e-09
1.8824e-08
3.91547e-08
7.88161e-08
1.40169e-07
2.5466e-07
4.27279e-07
7.05962e-07
1.16056e-06
1.8307e-06
2.75451e-06
3.96488e-06
5.39465e-06
7.1055e-06
9.07021e-06
1.12435e-05
1.35653e-05
1.59922e-05
1.84277e-05
2.08079e-05
2.30627e-05
2.51405e-05
2.69855e-05
2.84904e-05
2.94229e-05
2.93177e-05
2.73862e-05
2.32589e-05
1.72473e-05
1.05254e-05
5.47483e-06
2.81123e-06
1.46863e-06
7.82867e-07
4.15877e-07
2.25454e-07
1.21907e-07
6.52083e-08
3.42595e-08
1.75969e-08
8.70421e-09
4.33388e-09
2.34589e-09
1.76677e-09
2.03428e-09
3.2089e-09
3.50948e-09
2.73787e-09
1.81931e-09
1.02054e-09
3.00328e-10
1.41538e-31
7.47513e-31
2.72508e-30
9.1801e-30
3.0312e-29
9.92365e-29
3.24204e-28
1.05759e-27
3.44172e-27
1.11613e-26
3.62088e-26
1.17763e-25
3.80807e-25
1.2294e-24
3.96023e-24
1.26672e-23
4.01258e-23
1.2797e-22
4.01156e-22
1.25422e-21
3.92691e-21
1.2142e-20
3.73284e-20
1.13688e-19
3.41977e-19
1.01753e-18
3.02812e-18
8.84086e-18
2.55178e-17
7.51061e-17
2.1385e-16
6.0953e-16
1.70817e-15
4.69038e-15
1.26886e-14
3.39644e-14
8.9377e-14
2.35652e-13
6.13784e-13
1.61172e-12
3.98602e-12
9.58968e-12
2.338e-11
5.57695e-11
1.35871e-10
3.2921e-10
7.78413e-10
1.79553e-09
4.04006e-09
8.86279e-09
1.89388e-08
3.92929e-08
7.89015e-08
1.40007e-07
2.55333e-07
4.27592e-07
7.0447e-07
1.15626e-06
1.82258e-06
2.74085e-06
3.94532e-06
5.36869e-06
7.07284e-06
9.03228e-06
1.11993e-05
1.35173e-05
1.59439e-05
1.83821e-05
2.07659e-05
2.30296e-05
2.51177e-05
2.69747e-05
2.84948e-05
2.94485e-05
2.93747e-05
2.74876e-05
2.33933e-05
1.74006e-05
1.06567e-05
5.54678e-06
2.84736e-06
1.48695e-06
7.92449e-07
4.20732e-07
2.28058e-07
1.23311e-07
6.5962e-08
3.46595e-08
1.78058e-08
8.80585e-09
4.38389e-09
2.36879e-09
1.77904e-09
2.04348e-09
3.22236e-09
3.53299e-09
2.75842e-09
1.83338e-09
1.02851e-09
3.02702e-10
1.39015e-31
7.88241e-31
2.8646e-30
9.64361e-30
3.17814e-29
1.04181e-28
3.41113e-28
1.11477e-27
3.62693e-27
1.17564e-26
3.83136e-26
1.23893e-25
4.00143e-25
1.29064e-24
4.1511e-24
1.33038e-23
4.26677e-23
1.35012e-22
4.24098e-22
1.32505e-21
4.13991e-21
1.27162e-20
3.92354e-20
1.18979e-19
3.58126e-19
1.06788e-18
3.15146e-18
9.17971e-18
2.66903e-17
7.80541e-17
2.22863e-16
6.3937e-16
1.77499e-15
4.86279e-15
1.31466e-14
3.52955e-14
9.32563e-14
2.42611e-13
6.27474e-13
1.62509e-12
4.04213e-12
9.84049e-12
2.33978e-11
5.64445e-11
1.38543e-10
3.34516e-10
7.88868e-10
1.81543e-09
4.07574e-09
8.92135e-09
1.90247e-08
3.93909e-08
7.89515e-08
1.3988e-07
2.55713e-07
4.27627e-07
7.03021e-07
1.15286e-06
1.81641e-06
2.73095e-06
3.93092e-06
5.34783e-06
7.04526e-06
8.99804e-06
1.11613e-05
1.3477e-05
1.59034e-05
1.83431e-05
2.07301e-05
2.30011e-05
2.50976e-05
2.6964e-05
2.84958e-05
2.9466e-05
2.94168e-05
2.75648e-05
2.3497e-05
1.75205e-05
1.07606e-05
5.60412e-06
2.87614e-06
1.50151e-06
8.00027e-07
4.24569e-07
2.30117e-07
1.24423e-07
6.65602e-08
3.49778e-08
1.79726e-08
8.88697e-09
4.42366e-09
2.38678e-09
1.78825e-09
2.04958e-09
3.23033e-09
3.55067e-09
2.77448e-09
1.84449e-09
1.03483e-09
3.04587e-10
1.5193e-31
8.05252e-31
2.93498e-30
9.98378e-30
3.28558e-29
1.07558e-28
3.51589e-28
1.14909e-27
3.75081e-27
1.22014e-26
3.96009e-26
1.28302e-25
4.15343e-25
1.34445e-24
4.34255e-24
1.39125e-23
4.43257e-23
1.40417e-22
4.41976e-22
1.38148e-21
4.28678e-21
1.31937e-20
4.02856e-20
1.21554e-19
3.69858e-19
1.1027e-18
3.26945e-18
9.5591e-18
2.81162e-17
8.0611e-17
2.28981e-16
6.42956e-16
1.81278e-15
4.95709e-15
1.35523e-14
3.63935e-14
9.53356e-14
2.44008e-13
6.35106e-13
1.63443e-12
4.05625e-12
9.83309e-12
2.362e-11
5.70781e-11
1.40448e-10
3.38319e-10
7.96312e-10
1.82958e-09
4.10132e-09
8.9648e-09
1.9086e-08
3.94644e-08
7.89903e-08
1.39795e-07
2.55939e-07
4.276e-07
7.01952e-07
1.15032e-06
1.81178e-06
2.72354e-06
3.92017e-06
5.33311e-06
7.02627e-06
8.97519e-06
1.11356e-05
1.34492e-05
1.58753e-05
1.83161e-05
2.07045e-05
2.29805e-05
2.50827e-05
2.69554e-05
2.84951e-05
2.94766e-05
2.94446e-05
2.76173e-05
2.35688e-05
1.76042e-05
1.08338e-05
5.64473e-06
2.89655e-06
1.5119e-06
8.05433e-07
4.273e-07
2.31581e-07
1.25212e-07
6.69848e-08
3.52036e-08
1.80909e-08
8.94462e-09
4.45193e-09
2.39952e-09
1.79475e-09
2.05394e-09
3.23628e-09
3.56316e-09
2.78579e-09
1.8523e-09
1.03927e-09
3.05913e-10
1.54268e-31
8.30916e-31
3.01766e-30
1.01559e-29
3.352e-29
1.10159e-28
3.60489e-28
1.17834e-27
3.84889e-27
1.2551e-26
4.08093e-26
1.32331e-25
4.27949e-25
1.3809e-24
4.44974e-24
1.42393e-23
4.53133e-23
1.43406e-22
4.49446e-22
1.39899e-21
4.34079e-21
1.33608e-20
4.11732e-20
1.24249e-19
3.77064e-19
1.12077e-18
3.32351e-18
9.81805e-18
2.85455e-17
8.21796e-17
2.33885e-16
6.68927e-16
1.84342e-15
5.03697e-15
1.37523e-14
3.64294e-14
9.63729e-14
2.47478e-13
6.60348e-13
1.68304e-12
4.10827e-12
9.98507e-12
2.36194e-11
5.80159e-11
1.41461e-10
3.4062e-10
8.01192e-10
1.83896e-09
4.11805e-09
8.99224e-09
1.91256e-08
3.95122e-08
7.90253e-08
1.39765e-07
2.5611e-07
4.27645e-07
7.01457e-07
1.14907e-06
1.8094e-06
2.7196e-06
3.91427e-06
5.32521e-06
7.01627e-06
8.96315e-06
1.11219e-05
1.34343e-05
1.58601e-05
1.83013e-05
2.06905e-05
2.2969e-05
2.50739e-05
2.69501e-05
2.8494e-05
2.94815e-05
2.94586e-05
2.76444e-05
2.36062e-05
1.76482e-05
1.08726e-05
5.66638e-06
2.90744e-06
1.51744e-06
8.08333e-07
4.28767e-07
2.32369e-07
1.25638e-07
6.72143e-08
3.53258e-08
1.8155e-08
8.97583e-09
4.4672e-09
2.40638e-09
1.79822e-09
2.05624e-09
3.23942e-09
3.56976e-09
2.79179e-09
1.85646e-09
1.04165e-09
3.06623e-10
1.52413e-31
8.2897e-31
3.0728e-30
1.0304e-29
3.39558e-29
1.112e-28
3.63426e-28
1.18772e-27
3.88409e-27
1.27305e-26
4.13943e-26
1.34144e-25
4.319e-25
1.37339e-24
4.53774e-24
1.44523e-23
4.59222e-23
1.45177e-22
4.56499e-22
1.42257e-21
4.44527e-21
1.36936e-20
4.18895e-20
1.26803e-19
3.78935e-19
1.14332e-18
3.37597e-18
9.94079e-18
2.91944e-17
8.44591e-17
2.398e-16
6.69361e-16
1.88168e-15
5.20006e-15
1.39905e-14
3.70209e-14
9.78484e-14
2.48602e-13
6.65373e-13
1.67283e-12
4.17414e-12
1.00735e-11
2.41059e-11
5.80922e-11
1.42048e-10
3.42019e-10
8.04073e-10
1.84457e-09
4.12843e-09
9.01032e-09
1.91548e-08
3.95527e-08
7.90707e-08
1.39794e-07
2.56304e-07
4.27825e-07
7.01501e-07
1.1489e-06
1.80892e-06
2.7187e-06
3.91285e-06
5.32323e-06
7.01378e-06
8.96022e-06
1.11186e-05
1.34308e-05
1.58566e-05
1.82979e-05
2.06872e-05
2.29662e-05
2.50717e-05
2.69484e-05
2.8493e-05
2.94815e-05
2.94601e-05
2.76481e-05
2.36115e-05
1.76547e-05
1.08784e-05
5.6696e-06
2.90904e-06
1.51825e-06
8.08752e-07
4.28979e-07
2.32482e-07
1.257e-07
6.72471e-08
3.53432e-08
1.81641e-08
8.98019e-09
4.46934e-09
2.40735e-09
1.79873e-09
2.05662e-09
3.24001e-09
3.57088e-09
2.79273e-09
1.85708e-09
1.04199e-09
3.06722e-10
1.52261e-31
8.45064e-31
3.07988e-30
1.03706e-29
3.42302e-29
1.12323e-28
3.67763e-28
1.20234e-27
3.92463e-27
1.27857e-26
4.15646e-26
1.34797e-25
4.35389e-25
1.39743e-24
4.55374e-24
1.45274e-23
4.60703e-23
1.44441e-22
4.6117e-22
1.43691e-21
4.4804e-21
1.38247e-20
4.23717e-20
1.28848e-19
3.87357e-19
1.15154e-18
3.35918e-18
1.01243e-17
2.93592e-17
8.47239e-17
2.42069e-16
6.80966e-16
1.90607e-15
5.20458e-15
1.41208e-14
3.72815e-14
9.85015e-14
2.51575e-13
6.68856e-13
1.68223e-12
4.19581e-12
9.98438e-12
2.43918e-11
5.82633e-11
1.42035e-10
3.42571e-10
8.05235e-10
1.847e-09
4.13352e-09
9.02077e-09
1.91757e-08
3.95927e-08
7.91439e-08
1.39913e-07
2.56578e-07
4.28258e-07
7.02368e-07
1.15032e-06
1.81106e-06
2.72178e-06
3.91707e-06
5.32878e-06
7.02074e-06
8.96849e-06
1.11279e-05
1.34408e-05
1.58667e-05
1.83075e-05
2.06961e-05
2.29733e-05
2.50768e-05
2.69511e-05
2.84927e-05
2.9477e-05
2.94491e-05
2.76276e-05
2.35837e-05
1.76222e-05
1.08498e-05
5.6537e-06
2.90105e-06
1.51419e-06
8.06629e-07
4.27907e-07
2.31906e-07
1.25388e-07
6.70793e-08
3.52536e-08
1.81169e-08
8.95728e-09
4.45808e-09
2.40237e-09
1.79634e-09
2.05526e-09
3.23823e-09
3.56607e-09
2.78826e-09
1.85398e-09
1.04022e-09
3.06194e-10
1.53898e-31
8.38209e-31
3.04053e-30
1.02549e-29
3.39076e-29
1.11454e-28
3.65293e-28
1.19426e-27
3.89405e-27
1.26592e-26
4.10206e-26
1.32541e-25
4.27625e-25
1.37979e-24
4.44655e-24
1.42118e-23
4.49555e-23
1.42679e-22
4.52788e-22
1.41365e-21
4.37033e-21
1.36532e-20
4.17e-20
1.27855e-19
3.83236e-19
1.13662e-18
3.34934e-18
9.95783e-18
2.88891e-17
8.33646e-17
2.37288e-16
6.6631e-16
1.89916e-15
5.15027e-15
1.35886e-14
3.64294e-14
9.65747e-14
2.43868e-13
6.43725e-13
1.69496e-12
4.08413e-12
1.00704e-11
2.37598e-11
5.8413e-11
1.41966e-10
3.42063e-10
8.0432e-10
1.84571e-09
4.13245e-09
9.02218e-09
1.91862e-08
3.96282e-08
7.92388e-08
1.40121e-07
2.56946e-07
4.28968e-07
7.04086e-07
1.15333e-06
1.81578e-06
2.72871e-06
3.92674e-06
5.34157e-06
7.03675e-06
8.98753e-06
1.11493e-05
1.34637e-05
1.58897e-05
1.83295e-05
2.07164e-05
2.29897e-05
2.50887e-05
2.69579e-05
2.8493e-05
2.9468e-05
2.94258e-05
2.75838e-05
2.35237e-05
1.75519e-05
1.07881e-05
5.61944e-06
2.88382e-06
1.50544e-06
8.02065e-07
4.25603e-07
2.30669e-07
1.24719e-07
6.67187e-08
3.50614e-08
1.80159e-08
8.90802e-09
4.43395e-09
2.39168e-09
1.79122e-09
2.05248e-09
3.23518e-09
3.55617e-09
2.77884e-09
1.84736e-09
1.03643e-09
3.0506e-10
1.55983e-31
8.21724e-31
2.98984e-30
9.93811e-30
3.34569e-29
1.09209e-28
3.57157e-28
1.16658e-27
3.80294e-27
1.23746e-26
4.01876e-26
1.30202e-25
4.20692e-25
1.35589e-24
4.35067e-24
1.38621e-23
4.45727e-23
1.40788e-22
4.42922e-22
1.38614e-21
4.32134e-21
1.34274e-20
4.11661e-20
1.24998e-19
3.7602e-19
1.12076e-18
3.31115e-18
9.72045e-18
2.8594e-17
8.24183e-17
2.35085e-16
6.59972e-16
1.85352e-15
5.07007e-15
1.37387e-14
3.66986e-14
9.59735e-14
2.44015e-13
6.46897e-13
1.67924e-12
4.11259e-12
9.87708e-12
2.36197e-11
5.83393e-11
1.4127e-10
3.4051e-10
8.0154e-10
1.84116e-09
4.12617e-09
9.01651e-09
1.91907e-08
3.96681e-08
7.93734e-08
1.40443e-07
2.57453e-07
4.30026e-07
7.06787e-07
1.15818e-06
1.8235e-06
2.74014e-06
3.94259e-06
5.36246e-06
7.06276e-06
9.01806e-06
1.11834e-05
1.34999e-05
1.59259e-05
1.83641e-05
2.07484e-05
2.30153e-05
2.51074e-05
2.69685e-05
2.84937e-05
2.94543e-05
2.93904e-05
2.7517e-05
2.34327e-05
1.74457e-05
1.06952e-05
5.56802e-06
2.85795e-06
1.49225e-06
7.95191e-07
4.22132e-07
2.28806e-07
1.23713e-07
6.61765e-08
3.47724e-08
1.78642e-08
8.83417e-09
4.39773e-09
2.37551e-09
1.78324e-09
2.04755e-09
3.22858e-09
3.5407e-09
2.76457e-09
1.83742e-09
1.03076e-09
3.03362e-10
1.46036e-31
7.95075e-31
2.89525e-30
9.7779e-30
3.21597e-29
1.0513e-28
3.44089e-28
1.1285e-27
3.67755e-27
1.19564e-26
3.87836e-26
1.25557e-25
4.06158e-25
1.31642e-24
4.2171e-24
1.34412e-23
4.26576e-23
1.347e-22
4.23893e-22
1.33262e-21
4.16656e-21
1.27079e-20
3.96973e-20
1.19458e-19
3.65962e-19
1.0895e-18
3.21911e-18
9.42829e-18
2.77494e-17
8.058e-17
2.25845e-16
6.5446e-16
1.80825e-15
4.95686e-15
1.346e-14
3.58015e-14
9.44347e-14
2.42288e-13
6.26828e-13
1.61476e-12
4.06674e-12
9.79358e-12
2.32291e-11
5.75719e-11
1.40175e-10
3.38091e-10
7.96745e-10
1.8325e-09
4.11249e-09
8.9997e-09
1.91818e-08
3.9701e-08
7.95324e-08
1.40864e-07
2.58035e-07
4.31308e-07
7.10225e-07
1.16449e-06
1.83367e-06
2.75532e-06
3.96386e-06
5.39085e-06
7.09881e-06
9.05942e-06
1.12287e-05
1.35476e-05
1.59735e-05
1.84094e-05
2.07896e-05
2.30485e-05
2.51309e-05
2.69814e-05
2.84932e-05
2.9435e-05
2.93428e-05
2.74286e-05
2.33132e-05
1.73072e-05
1.0575e-05
5.50181e-06
2.82456e-06
1.47535e-06
7.86377e-07
4.17677e-07
2.26415e-07
1.22422e-07
6.54811e-08
3.44019e-08
1.76697e-08
8.7395e-09
4.35131e-09
2.35469e-09
1.77283e-09
2.0409e-09
3.21953e-09
3.52045e-09
2.74606e-09
1.82457e-09
1.02342e-09
3.01167e-10
1.43301e-31
7.57275e-31
2.76883e-30
9.31821e-30
3.05994e-29
9.98924e-29
3.28267e-28
1.06752e-27
3.46985e-27
1.13783e-26
3.68123e-26
1.18937e-25
3.83872e-25
1.24028e-24
4.0227e-24
1.28405e-23
4.07625e-23
1.28934e-22
4.07599e-22
1.25893e-21
3.99196e-21
1.22752e-20
3.7715e-20
1.1499e-19
3.48102e-19
1.0401e-18
3.09714e-18
9.08453e-18
2.679e-17
7.69115e-17
2.18534e-16
6.24486e-16
1.74268e-15
4.78656e-15
1.27007e-14
3.44658e-14
9.0719e-14
2.34201e-13
6.14375e-13
1.60939e-12
3.92599e-12
9.81249e-12
2.33184e-11
5.6651e-11
1.38002e-10
3.34143e-10
7.89459e-10
1.81929e-09
4.09096e-09
8.96929e-09
1.91541e-08
3.97174e-08
7.97051e-08
1.41366e-07
2.5853e-07
4.32704e-07
7.14218e-07
1.17189e-06
1.84567e-06
2.77322e-06
3.9887e-06
5.42323e-06
7.13826e-06
9.10609e-06
1.12814e-05
1.36038e-05
1.60298e-05
1.84619e-05