/*--------------------------------*- C++ -*----------------------------------*\
  =========                 |
  \\      /  F ield         | OpenFOAM: The Open Source CFD Toolbox
   \\    /   O peration     | Website:  https://openfoam.org
    \\  /    A nd           | Version:  10
     \\/     M anipulation  |
\*---------------------------------------------------------------------------*/
FoamFile
{
    format      ascii;
    class       volScalarField;
    location    "1";
    object      C2H3;
}
// * * * * * * * * * * * * * * * * * * * * * * * * * * * * * * * * * * * * * //

dimensions      [0 0 0 0 0 0 0];

internalField   nonuniform List<scalar> 
4000
(
2.17481e-36
1.34681e-35
5.8071e-35
2.19619e-34
7.75861e-34
2.56534e-33
8.05837e-33
2.43917e-32
7.19068e-32
2.09179e-31
6.09859e-31
1.65835e-30
4.44267e-30
1.19253e-29
3.22575e-29
8.78641e-29
2.40483e-28
6.82972e-28
1.91634e-27
5.43127e-27
1.54574e-26
4.35962e-26
1.31615e-25
3.8112e-25
1.11938e-24
3.28062e-24
9.50236e-24
2.83239e-23
8.23396e-23
2.39329e-22
6.95638e-22
2.01903e-21
5.80133e-21
1.65618e-20
4.70809e-20
1.29434e-19
3.60838e-19
1.0217e-18
2.82453e-18
7.73129e-18
2.04776e-17
5.32009e-17
1.35443e-16
3.37064e-16
8.19168e-16
2.0878e-15
5.42131e-15
1.39075e-14
3.49208e-14
8.54539e-14
2.03739e-13
4.81652e-13
1.03204e-12
2.34417e-12
5.21496e-12
1.12526e-11
2.33542e-11
4.98265e-11
1.07616e-10
2.34856e-10
5.1526e-10
1.08155e-09
2.19234e-09
4.08096e-09
7.48536e-09
1.54033e-08
3.73256e-08
9.95395e-08
2.65279e-07
6.62565e-07
1.5169e-06
3.12002e-06
5.54075e-06
8.00943e-06
8.85846e-06
6.97956e-06
5.85215e-06
5.72893e-06
5.62973e-06
4.81161e-06
3.51481e-06
2.27569e-06
1.37854e-06
7.95195e-07
4.38618e-07
2.39286e-07
1.29482e-07
6.89722e-08
3.59109e-08
1.81455e-08
8.85037e-09
4.02469e-09
1.77124e-09
7.38342e-10
2.94039e-10
1.07732e-10
3.47552e-11
9.79068e-12
2.38971e-12
3.6127e-13
2.28165e-36
1.31831e-35
4.83398e-35
1.63948e-34
5.35762e-34
1.69794e-33
5.23682e-33
1.5782e-32
4.52874e-32
1.27021e-31
3.52561e-31
9.77687e-31
2.72571e-30
7.67949e-30
2.19238e-29
6.35746e-29
1.86269e-28
5.52823e-28
1.65717e-27
4.9875e-27
1.50915e-26
4.59439e-26
1.39535e-25
4.23253e-25
1.28363e-24
3.86468e-24
1.15981e-23
3.46746e-23
1.02734e-22
3.01359e-22
8.80687e-22
2.68046e-21
7.76908e-21
2.20838e-20
6.24027e-20
1.73893e-19
4.9192e-19
1.34854e-18
3.70011e-18
9.91075e-18
2.6232e-17
6.73661e-17
1.71384e-16
4.25129e-16
1.07207e-15
2.76948e-15
7.09797e-15
1.7862e-14
4.42315e-14
1.0811e-13
2.39554e-13
5.08738e-13
1.16329e-12
2.5839e-12
5.65336e-12
1.21259e-11
2.44589e-11
5.12119e-11
1.09084e-10
2.35215e-10
5.11906e-10
1.06727e-09
2.15087e-09
3.98642e-09
7.24351e-09
1.4714e-08
3.51925e-08
9.37983e-08
2.50388e-07
6.29268e-07
1.45413e-06
3.01871e-06
5.41248e-06
7.9179e-06
8.86566e-06
7.03328e-06
5.879e-06
5.7437e-06
5.64428e-06
4.82063e-06
3.51407e-06
2.26776e-06
1.36922e-06
7.87182e-07
4.32864e-07
2.35885e-07
1.27444e-07
6.77548e-08
3.51584e-08
1.7701e-08
8.59583e-09
3.89046e-09
1.70296e-09
7.06725e-10
2.80393e-10
1.01765e-10
3.25177e-11
9.10434e-12
2.21381e-12
3.33686e-13
1.40154e-36
7.1974e-36
2.394e-35
7.15583e-35
2.06469e-34
5.85638e-34
1.64728e-33
4.66592e-33
1.36152e-32
4.15572e-32
1.30274e-31
4.16895e-31
1.3523e-30
4.40508e-30
1.43593e-29
4.67379e-29
1.51522e-28
4.81995e-28
1.60378e-27
5.11954e-27
1.63545e-26
5.18754e-26
1.6322e-25
5.08663e-25
1.56964e-24
4.80078e-24
1.46168e-23
4.45679e-23
1.32788e-22
3.92815e-22
1.18442e-21
3.45492e-21
9.8507e-21
2.83409e-20
8.09066e-20
2.2603e-19
6.20981e-19
1.69492e-18
4.58894e-18
1.21279e-17
3.16965e-17
7.83574e-17
2.06468e-16
5.03048e-16
1.30483e-15
3.29433e-15
8.4446e-15
2.10557e-14
5.06107e-14
1.21518e-13
2.67686e-13
5.73374e-13
1.30207e-12
2.91208e-12
6.1564e-12
1.25644e-11
2.50067e-11
5.19923e-11
1.10056e-10
2.35853e-10
5.09812e-10
1.05671e-09
2.11669e-09
3.8973e-09
7.03207e-09
1.41164e-08
3.32972e-08
8.81366e-08
2.36906e-07
5.99608e-07
1.3999e-06
2.92389e-06
5.29401e-06
7.82706e-06
8.87237e-06
7.09419e-06
5.91116e-06
5.76356e-06
5.66277e-06
4.8304e-06
3.51081e-06
2.25592e-06
1.35663e-06
7.75753e-07
4.2457e-07
2.30915e-07
1.2445e-07
6.59356e-08
3.41051e-08
1.70687e-08
8.23678e-09
3.70653e-09
1.61435e-09
6.66466e-10
2.6354e-10
9.47212e-11
3.00384e-11
8.35373e-12
2.0212e-12
3.03844e-13
1.02881e-36
5.19124e-36
1.7495e-35
5.36617e-35
1.61151e-34
4.86746e-34
1.49826e-33
4.83425e-33
1.56082e-32
5.07914e-32
1.68515e-31
5.57032e-31
1.86427e-30
6.14594e-30
2.01997e-29
6.60542e-29
2.14827e-28
6.94342e-28
2.22769e-27
7.09877e-27
2.24449e-26
7.07331e-26
2.20811e-25
6.83974e-25
2.12617e-24
6.48391e-24
1.96278e-23
5.88293e-23
1.71016e-22
5.24272e-22
1.52718e-21
4.43626e-21
1.27181e-20
3.62835e-20
1.02665e-19
2.84672e-19
7.7598e-19
2.11249e-18
5.57986e-18
1.49822e-17
3.87672e-17
9.76662e-17
2.49178e-16
6.06281e-16
1.50547e-15
3.87135e-15
9.78847e-15
2.39268e-14
5.83698e-14
1.2878e-13
2.80714e-13
6.54166e-13
1.48517e-12
3.21867e-12
6.68338e-12
1.27865e-11
2.54581e-11
5.26468e-11
1.1074e-10
2.35776e-10
5.06882e-10
1.0456e-09
2.08628e-09
3.83222e-09
6.87191e-09
1.36509e-08
3.18153e-08
8.38737e-08
2.25555e-07
5.73442e-07
1.34669e-06
2.83419e-06
5.18711e-06
7.74943e-06
8.87776e-06
7.12181e-06
5.93465e-06
5.78501e-06
5.68342e-06
4.84015e-06
3.50732e-06
2.2459e-06
1.34934e-06
7.58488e-07
4.14337e-07
2.25273e-07
1.21279e-07
6.41812e-08
3.3193e-08
1.63578e-08
7.86293e-09
3.53019e-09
1.53034e-09
6.2888e-10
2.47383e-10
8.82493e-11
2.77763e-11
7.67476e-12
1.84817e-12
2.77091e-13
1.5518e-36
7.91888e-36
2.73347e-35
8.63221e-35
2.66775e-34
8.24898e-34
2.5696e-33
8.06453e-33
2.54164e-32
8.22051e-32
2.63892e-31
8.53968e-31
2.79365e-30
9.04343e-30
2.96118e-29
9.54101e-29
3.06082e-28
9.92246e-28
3.16572e-27
1.00322e-26
3.16116e-26
9.84431e-26
3.045e-25
9.35131e-25
2.85416e-24
8.63673e-24
2.59304e-23
7.81399e-23
2.30938e-22
6.76052e-22
1.96438e-21
5.78686e-21
1.64222e-20
4.64995e-20
1.29511e-19
3.56134e-19
9.63049e-19
2.54371e-18
6.84811e-18
1.79151e-17
4.58749e-17
1.15369e-16
2.83991e-16
7.07443e-16
1.73924e-15
4.42698e-15
1.09585e-14
2.6997e-14
6.09298e-14
1.32658e-13
3.10625e-13
7.16198e-13
1.6298e-12
3.56975e-12
6.85055e-12
1.30762e-11
2.59384e-11
5.32711e-11
1.11418e-10
2.36169e-10
5.05374e-10
1.0385e-09
2.06469e-09
3.78084e-09
6.74417e-09
1.32827e-08
3.07822e-08
8.08989e-08
2.178e-07
5.54847e-07
1.30957e-06
2.7716e-06
5.10418e-06
7.6805e-06
8.87719e-06
7.16827e-06
5.96242e-06
5.80591e-06
5.70158e-06
4.84773e-06
3.50224e-06
2.23345e-06
1.33664e-06
7.48895e-07
4.07987e-07
2.21452e-07
1.18978e-07
6.28063e-08
3.23779e-08
1.59047e-08
7.60934e-09
3.40526e-09
1.46934e-09
6.01322e-10
2.35509e-10
8.33911e-11
2.60734e-11
7.16306e-12
1.71801e-12
2.56984e-13
2.72191e-36
1.43055e-35
5.02902e-35
1.62278e-34
5.11292e-34
1.60174e-33
5.01544e-33
1.57336e-32
4.94469e-32
1.55773e-31
4.90064e-31
1.53854e-30
4.91771e-30
1.54908e-29
4.87299e-29
1.54692e-28
4.86126e-28
1.52548e-27
4.7844e-27
1.48441e-26
4.64291e-26
1.42081e-25
4.3112e-25
1.29999e-24
3.92553e-24
1.18745e-23
3.51285e-23
1.0278e-22
3.04187e-22
8.76714e-22
2.49524e-21
7.39562e-21
2.06755e-20
5.74931e-20
1.56532e-19
4.32083e-19
1.14652e-18
2.9739e-18
8.10837e-18
2.16516e-17
5.40851e-17
1.33004e-16
3.2761e-16
8.02873e-16
1.9946e-15
4.92889e-15
1.24445e-14
2.83406e-14
6.31011e-14
1.44896e-13
3.36612e-13
7.73009e-13
1.7218e-12
3.72367e-12
7.09286e-12
1.33983e-11
2.62849e-11
5.37421e-11
1.11763e-10
2.35865e-10
5.02783e-10
1.03041e-09
2.04389e-09
3.73694e-09
6.64794e-09
1.30279e-08
2.9948e-08
7.83012e-08
2.11071e-07
5.40256e-07
1.28126e-06
2.72087e-06
5.03657e-06
7.62995e-06
8.87673e-06
7.20736e-06
5.98588e-06
5.82246e-06
5.71666e-06
4.85569e-06
3.50004e-06
2.22488e-06
1.32761e-06
7.42585e-07
4.03925e-07
2.18972e-07
1.1745e-07
6.18669e-08
3.18051e-08
1.55924e-08
7.43139e-09
3.31985e-09
1.42746e-09
5.82503e-10
2.27452e-10
8.00675e-11
2.49026e-11
6.80977e-12
1.62772e-12
2.43022e-13
4.41307e-36
2.26888e-35
8.05408e-35
2.58331e-34
8.05412e-34
2.5366e-33
7.87919e-33
2.45557e-32
7.66837e-32
2.39555e-31
7.49012e-31
2.34326e-30
7.32807e-30
2.28859e-29
7.15159e-29
2.23752e-28
6.99798e-28
2.16928e-27
6.70631e-27
2.08219e-26
6.37796e-26
1.93732e-25
5.77428e-25
1.76684e-24
5.22787e-24
1.53946e-23
4.52105e-23
1.28398e-22
3.8505e-22
1.11261e-21
3.16551e-21
8.93523e-21
2.51361e-20
6.97213e-20
1.89162e-19
5.1536e-19
1.39227e-18
3.57516e-18
9.68308e-18
2.48728e-17
6.22471e-17
1.53755e-16
3.72076e-16
9.05381e-16
2.19628e-15
5.45272e-15
1.31601e-14
2.8626e-14
6.72613e-14
1.55812e-13
3.57191e-13
8.10516e-13
1.78844e-12
3.83052e-12
7.24883e-12
1.36268e-11
2.65396e-11
5.39877e-11
1.11843e-10
2.35183e-10
4.99749e-10
1.02177e-09
2.02326e-09
3.69621e-09
6.56049e-09
1.2806e-08
2.92821e-08
7.62334e-08
2.05694e-07
5.27737e-07
1.25597e-06
2.67593e-06
4.97742e-06
7.58122e-06
8.87527e-06
7.24611e-06
6.0084e-06
5.83676e-06
5.73145e-06
4.86682e-06
3.50329e-06
2.22193e-06
1.32297e-06
7.39197e-07
4.01718e-07
2.17584e-07
1.16566e-07
6.13053e-08
3.14512e-08
1.5398e-08
7.31787e-09
3.26594e-09
1.40071e-09
5.7043e-10
2.22164e-10
7.78766e-11
2.41295e-11
6.57624e-12
1.56798e-12
2.33785e-13
6.39359e-36
3.30201e-35
1.16586e-34
3.77134e-34
1.18837e-33
3.71452e-33
1.15792e-32
3.60692e-32
1.12321e-31
3.49639e-31
1.08716e-30
3.38041e-30
1.05198e-29
3.27075e-29
1.01239e-28
3.13174e-28
9.67969e-28
2.97842e-27
9.13325e-27
2.79231e-26
8.49904e-26
2.56553e-25
7.69276e-25
2.28939e-24
6.76826e-24
1.98879e-23
5.79103e-23
1.66187e-22
4.71159e-22
1.33712e-21
3.83623e-21
1.09248e-20
3.03533e-20
8.32233e-20
2.22957e-19
6.00089e-19
1.60601e-18
4.08141e-18
1.08604e-17
2.82667e-17
7.03302e-17
1.7126e-16
4.19366e-16
1.00727e-15
2.44804e-15
6.00877e-15
1.36182e-14
3.0832e-14
7.20322e-14
1.65777e-13
3.7935e-13
8.49913e-13
1.85354e-12
3.92835e-12
7.38021e-12
1.37874e-11
2.66926e-11
5.40478e-11
1.11535e-10
2.33749e-10
4.9534e-10
1.01116e-09
1.99979e-09
3.654e-09
6.46821e-09
1.25559e-08
2.86151e-08
7.42489e-08
2.00561e-07
5.15365e-07
1.23039e-06
2.6303e-06
4.91418e-06
7.52832e-06
8.87318e-06
7.29124e-06
6.03158e-06
5.84877e-06
5.74614e-06
4.88198e-06
3.51283e-06
2.22505e-06
1.32292e-06
7.38634e-07
4.01178e-07
2.17158e-07
1.16241e-07
6.10681e-08
3.12846e-08
1.53024e-08
7.25808e-09
3.2372e-09
1.38596e-09
5.63656e-10
2.19103e-10
7.65794e-11
2.36649e-11
6.43461e-12
1.53155e-12
2.28134e-13
8.45615e-36
4.38448e-35
1.55365e-34
5.03373e-34
1.58876e-33
4.96669e-33
1.54612e-32
4.80593e-32
1.49304e-31
4.65316e-31
1.44222e-30
4.46104e-30
1.37865e-29
4.2757e-29
1.31601e-28
4.04228e-28
1.24111e-27
3.79398e-27
1.15442e-26
3.54368e-26
1.07055e-25
3.18602e-25
9.62018e-25
2.8351e-24
8.3412e-24
2.45505e-23
7.12814e-23
2.05219e-22
5.8445e-22
1.63914e-21
4.60179e-21
1.29189e-20
3.56103e-20
9.71801e-20
2.61866e-19
6.94524e-19
1.8304e-18
4.61007e-18
1.21831e-17
3.12316e-17
7.79948e-17
1.90895e-16
4.62015e-16
1.11589e-15
2.58401e-15
5.88729e-15
1.4181e-14
3.3247e-14
7.67714e-14
1.7617e-13
3.9764e-13
8.81781e-13
1.90536e-12
4.0028e-12
7.46797e-12
1.38827e-11
2.6738e-11
5.39036e-11
1.10811e-10
2.31501e-10
4.89053e-10
9.9557e-10
1.96834e-09
3.59407e-09
6.35355e-09
1.2293e-08
2.77949e-08
7.20111e-08
1.94308e-07
5.00828e-07
1.19834e-06
2.57426e-06
4.84184e-06
7.46817e-06
8.86974e-06
7.34345e-06
6.05656e-06
5.85912e-06
5.76121e-06
4.90154e-06
3.5287e-06
2.23402e-06
1.32713e-06
7.40596e-07
4.0208e-07
2.17551e-07
1.16387e-07
6.11017e-08
3.12731e-08
1.52869e-08
7.24154e-09
3.22851e-09
1.38068e-09
5.6102e-10
2.17807e-10
7.59802e-11
2.34394e-11
6.36361e-12
1.51292e-12
2.25218e-13
1.01807e-35
5.57108e-35
1.94827e-34
6.28542e-34
2.00227e-33
6.25765e-33
1.95389e-32
6.07957e-32
1.88748e-31
5.84838e-31
1.81126e-30
5.6183e-30
1.73119e-29
5.3313e-29
1.63979e-28
4.9879e-28
1.56148e-27
4.74403e-27
1.43851e-26
4.33712e-26
1.29606e-25
3.91944e-25
1.16218e-24
3.42663e-24
1.0029e-23
2.91961e-23
8.44248e-23
2.41749e-22
6.95841e-22
1.96961e-21
5.5006e-21
1.51339e-20
4.11892e-20
1.11225e-19
2.95737e-19
7.76218e-19
2.01321e-18
5.0897e-18
1.36039e-17
3.42671e-17
8.38511e-17
2.04359e-16
4.92133e-16
1.14836e-15
2.62732e-15
6.39867e-15
1.51888e-14
3.53894e-14
8.17026e-14
1.8548e-13
4.15353e-13
9.13483e-13
1.95423e-12
4.04794e-12
7.52009e-12
1.39356e-11
2.67005e-11
5.3619e-11
1.09887e-10
2.29e-10
4.82769e-10
9.80928e-10
1.93458e-09
3.53514e-09
6.2359e-09
1.20037e-08
2.70162e-08
6.98161e-08
1.88288e-07
4.85718e-07
1.16593e-06
2.52149e-06
4.76956e-06
7.40511e-06
8.8667e-06
7.41084e-06
6.08715e-06
5.86875e-06
5.77683e-06
4.92512e-06
3.55012e-06
2.24793e-06
1.33489e-06
7.44623e-07
4.0413e-07
2.18596e-07
1.16907e-07
6.13494e-08
3.13839e-08
1.53341e-08
7.25863e-09
3.23525e-09
1.38265e-09
5.61532e-10
2.1785e-10
7.59133e-11
2.33954e-11
6.34601e-12
1.50772e-12
2.24359e-13
1.23082e-35
6.69691e-35
2.35218e-34
7.62114e-34
2.4062e-33
7.52407e-33
2.34394e-32
7.28528e-32
2.25754e-31
6.99525e-31
2.19135e-30
6.76699e-30
2.08403e-29
6.437e-29
1.98141e-28
6.05336e-28
1.86718e-27
5.65258e-27
1.70457e-26
5.13799e-26
1.5233e-25
4.59971e-25
1.35833e-24
3.98732e-24
1.15341e-23
3.38063e-23
9.6794e-23
2.76678e-22
7.92946e-22
2.24098e-21
6.24272e-21
1.71438e-20
4.63763e-20
1.25356e-19
3.30473e-19
8.62975e-19
2.22793e-18
5.62616e-18
1.48497e-17
3.69465e-17
8.98452e-17
2.15622e-16
5.07992e-16
1.17642e-15
2.84525e-15
6.85158e-15
1.62163e-14
3.78161e-14
8.66795e-14
1.96123e-13
4.38334e-13
9.62824e-13
2.07138e-12
4.04033e-12
7.5441e-12
1.39445e-11
2.65827e-11
5.31694e-11
1.08588e-10
2.2528e-10
4.73697e-10
9.61988e-10
1.90247e-09
3.47799e-09
6.12433e-09
1.17342e-08
2.62571e-08
6.76132e-08
1.82732e-07
4.72469e-07
1.13662e-06
2.46757e-06
4.68985e-06
7.33284e-06
8.85879e-06
7.47558e-06
6.11595e-06
5.87623e-06
5.79149e-06
4.95056e-06
3.57504e-06
2.2653e-06
1.34524e-06
7.50197e-07
4.07094e-07
2.20142e-07
1.17707e-07
6.17558e-08
3.15863e-08
1.54282e-08
7.30088e-09
3.2535e-09
1.39e-09
5.64381e-10
2.18888e-10
7.62382e-11
2.34846e-11
6.36752e-12
1.51234e-12
2.25003e-13
1.48168e-35
7.73435e-35
2.73298e-34
8.85058e-34
2.79115e-33
8.72152e-33
2.71773e-32
8.46521e-32
2.62942e-31
8.20989e-31
2.54989e-30
7.88879e-30
2.43151e-29
7.5122e-29
2.31859e-28
7.08975e-28
2.15909e-27
6.55471e-27
1.97825e-26
5.9388e-26
1.77152e-25
5.24682e-25
1.55448e-24
4.5485e-24
1.3219e-23
3.80997e-23
1.09227e-22
3.07834e-22
8.84003e-22
2.47091e-21
6.71752e-21
1.89319e-20
5.13914e-20
1.36271e-19
3.68724e-19
9.51169e-19
2.41781e-18
6.09006e-18
1.56779e-17
3.97277e-17
9.56966e-17
2.27989e-16
5.34939e-16
1.25494e-15
3.02855e-15
7.26024e-15
1.71321e-14
3.98039e-14
9.09007e-14
2.049e-13
4.56268e-13
9.97944e-13
2.12832e-12
4.01576e-12
7.5595e-12
1.39225e-11
2.64068e-11
5.26664e-11
1.07225e-10
2.22312e-10
4.66271e-10
9.45503e-10
1.86649e-09
3.42011e-09
6.01601e-09
1.14789e-08
2.55492e-08
6.5528e-08
1.77305e-07
4.60321e-07
1.10523e-06
2.41106e-06
4.61126e-06
7.26354e-06
8.85143e-06
7.54563e-06
6.14577e-06
5.88284e-06
5.80563e-06
4.97741e-06
3.60225e-06
2.28496e-06
1.35731e-06
7.56836e-07
4.10677e-07
2.22078e-07
1.18742e-07
6.22986e-08
3.18616e-08
1.55578e-08
7.36176e-09
3.28046e-09
1.40147e-09
5.68975e-10
2.20656e-10
7.68435e-11
2.36676e-11
6.41631e-12
1.52378e-12
2.26693e-13
1.6328e-35
8.70187e-35
3.08621e-34
9.98549e-34
3.15029e-33
9.85548e-33
3.07519e-32
9.58271e-32
2.99099e-31
9.3193e-31
2.89486e-30
8.95937e-30
2.76068e-29
8.55196e-29
2.61633e-28
7.95459e-28
2.37295e-27
7.4419e-27
2.23098e-26
6.70041e-26
1.99725e-25
5.91707e-25
1.74215e-24
5.02809e-24
1.48373e-23
4.23566e-23
1.20092e-22
3.38723e-22
9.55222e-22
2.73745e-21
7.49196e-21
2.07564e-20
5.59943e-20
1.50575e-19
3.94815e-19
1.01671e-18
2.56963e-18
6.44301e-18
1.65441e-17
4.21073e-17
1.01705e-16
2.42898e-16
5.6375e-16
1.34743e-15
3.18139e-15
7.60764e-15
1.79016e-14
4.12716e-14
9.36369e-14
2.0978e-13
4.64225e-13
1.00876e-12
2.13486e-12
3.99183e-12
7.58871e-12
1.38984e-11
2.62125e-11
5.20678e-11
1.05794e-10
2.18899e-10
4.59208e-10
9.29755e-10
1.83418e-09
3.36343e-09
5.90854e-09
1.1227e-08
2.48574e-08
6.34868e-08
1.71861e-07
4.47206e-07
1.07708e-06
2.36079e-06
4.5378e-06
7.19531e-06
8.84315e-06
7.6214e-06
6.17851e-06
5.88919e-06
5.81925e-06
5.00518e-06
3.63215e-06
2.30733e-06
1.37126e-06
7.64418e-07
4.14757e-07
2.24267e-07
1.19913e-07
6.29185e-08
3.2186e-08
1.57138e-08
7.43709e-09
3.31325e-09
1.41544e-09
5.74618e-10
2.2287e-10
7.76386e-11
2.39181e-11
6.48543e-12
1.54037e-12
2.2917e-13
1.74862e-35
9.78662e-35
3.44795e-34
1.1153e-33
3.52354e-33
1.10544e-32
3.45937e-32
1.07807e-31
3.3518e-31
1.04018e-30
3.21969e-30
9.92623e-30
3.09243e-29
9.38664e-29
2.88077e-28
8.85044e-28
2.71381e-27
8.19287e-27
2.4638e-26
7.35048e-26
2.17379e-25
6.32385e-25
1.9136e-24
5.54855e-24
1.60403e-23
4.58993e-23
1.31983e-22
3.71899e-22
1.04681e-21
2.91516e-21
7.96794e-21
2.23087e-20
5.9194e-20
1.59777e-19
4.16175e-19
1.07273e-18
2.7176e-18
6.68765e-18
1.74353e-17
4.44476e-17
1.05971e-16
2.51296e-16
5.91823e-16
1.4171e-15
3.31228e-15
7.9024e-15
1.84544e-14
4.23031e-14
9.54984e-14
2.1293e-13
4.68883e-13
1.01409e-12
2.1335e-12
3.96746e-12
7.60131e-12
1.38639e-11
2.60277e-11
5.15656e-11
1.04555e-10
2.15676e-10
4.51333e-10
9.13387e-10
1.80455e-09
3.31133e-09
5.81111e-09
1.09978e-08
2.42226e-08
6.17133e-08
1.6681e-07
4.35084e-07
1.05098e-06
2.31154e-06
4.46718e-06
7.13047e-06
8.8342e-06
7.69548e-06
6.21006e-06
5.89471e-06
5.83214e-06
5.03315e-06
3.66213e-06
2.32993e-06
1.38547e-06
7.72278e-07
4.18993e-07
2.2654e-07
1.2113e-07
6.3564e-08
3.25234e-08
1.58762e-08
7.51588e-09
3.34827e-09
1.43076e-09
5.80919e-10
2.25379e-10
7.85423e-11
2.4204e-11
6.56469e-12
1.55949e-12
2.32034e-13
2.05257e-35
1.06364e-34
3.76198e-34
1.21993e-33
3.85162e-33
1.20668e-32
3.79024e-32
1.17787e-31
3.64094e-31
1.11775e-30
3.50142e-30
1.09712e-29
3.36016e-29
1.01957e-28
3.18893e-28
9.65254e-28
2.91203e-27
8.89757e-27
2.66206e-26
7.85462e-26
2.38657e-25
7.01952e-25
2.06008e-24
5.96345e-24
1.73733e-23
4.94671e-23
1.40929e-22
3.95696e-22
1.10592e-21
3.11405e-21
8.59957e-21
2.35124e-20
6.24047e-20
1.67668e-19
4.31362e-19
1.09894e-18
2.84917e-18
6.98348e-18
1.80639e-17
4.53269e-17
1.12014e-16
2.64686e-16
6.24491e-16
1.44674e-15
3.41821e-15
8.11253e-15
1.88668e-14
4.30809e-14
9.69032e-14
2.15315e-13
4.72388e-13
1.01695e-12
2.13035e-12
3.94647e-12
7.59772e-12
1.381e-11
2.58103e-11
5.10277e-11
1.03217e-10
2.12761e-10
4.4448e-10
8.98602e-10
1.77535e-09
3.26407e-09
5.7224e-09
1.07878e-08
2.36309e-08
5.99476e-08
1.61843e-07
4.24181e-07
1.0278e-06
2.26794e-06
4.40262e-06
7.06828e-06
8.82392e-06
7.76402e-06
6.23925e-06
5.8993e-06
5.84316e-06
5.05829e-06
3.68973e-06
2.35102e-06
1.39879e-06
7.79646e-07
4.22989e-07
2.28693e-07
1.22288e-07
6.41806e-08
3.28472e-08
1.60326e-08
7.59198e-09
3.3819e-09
1.44545e-09
5.86962e-10
2.27802e-10
7.94252e-11
2.4486e-11
6.64345e-12
1.57859e-12
2.34905e-13
2.20797e-35
1.14523e-34
4.05281e-34
1.3152e-33
4.16561e-33
1.30508e-32
4.07485e-32
1.26936e-31
3.94258e-31
1.21943e-30
3.76998e-30
1.16804e-29
3.59789e-29
1.10638e-28
3.39574e-28
1.03552e-27
3.12722e-27
9.50577e-27
2.84171e-26
8.47214e-26
2.52971e-25
7.46469e-25
2.19156e-24
6.38026e-24
1.836e-23
5.22792e-23
1.48972e-22
4.16696e-22
1.15306e-21
3.25237e-21
8.89096e-21
2.43408e-20
6.55869e-20
1.73338e-19
4.51692e-19
1.16515e-18
2.95732e-18
7.52052e-18
1.89229e-17
4.80663e-17
1.15229e-16
2.69082e-16
6.36266e-16
1.47556e-15
3.50011e-15
8.27508e-15
1.91788e-14
4.36537e-14
9.78951e-14
2.16873e-13
4.7451e-13
1.0185e-12
2.12687e-12
3.92895e-12
7.58937e-12
1.37569e-11
2.56179e-11
5.0511e-11
1.02037e-10
2.1002e-10
4.38539e-10
8.86322e-10
1.75177e-09
3.22544e-09
5.64924e-09
1.06178e-08
2.3166e-08
5.86084e-08
1.58087e-07
4.15092e-07
1.00823e-06
2.23081e-06
4.34707e-06
7.01549e-06
8.81424e-06
7.82262e-06
6.26427e-06
5.90304e-06
5.85213e-06
5.07962e-06
3.71349e-06
2.36932e-06
1.41046e-06
7.86125e-07
4.2652e-07
2.30599e-07
1.23315e-07
6.4729e-08
3.31362e-08
1.61727e-08
7.66115e-09
3.41238e-09
1.45879e-09
5.92458e-10
2.30006e-10
8.02304e-11
2.47438e-11
6.71564e-12
1.59613e-12
2.37543e-13
2.1763e-35
1.21019e-34
4.26957e-34
1.38451e-33
4.37559e-33
1.37214e-32
4.29235e-32
1.33941e-31
4.15917e-31
1.28578e-30
3.99352e-30
1.23046e-29
3.78554e-29
1.16305e-28
3.56383e-28
1.08819e-27
3.32586e-27
1.00348e-26
3.00645e-26
8.95945e-26
2.67078e-25
7.83354e-25
2.30712e-24
6.6863e-24
1.92442e-23
5.49077e-23
1.55167e-22
4.33159e-22
1.20698e-21
3.3826e-21
9.26673e-21
2.55292e-20
6.81461e-20
1.79647e-19
4.67642e-19
1.20993e-18
3.08355e-18
7.74368e-18
1.93569e-17
4.85011e-17
1.16898e-16
2.75919e-16
6.36978e-16
1.49329e-15
3.56534e-15
8.40033e-15
1.94161e-14
4.40889e-14
9.86508e-14
2.18069e-13
4.76102e-13
1.0196e-12
2.1243e-12
3.91616e-12
7.57956e-12
1.37114e-11
2.5458e-11
5.01354e-11
1.01177e-10
2.08056e-10
4.34117e-10
8.76443e-10
1.73208e-09
3.19151e-09
5.58869e-09
1.04793e-08
2.27874e-08
5.75115e-08
1.55096e-07
4.07969e-07
9.93089e-07
2.2024e-06
4.30482e-06
6.97429e-06
8.80604e-06
7.86873e-06
6.28399e-06
5.90578e-06
5.8589e-06
5.09647e-06
3.73255e-06
2.38413e-06
1.4199e-06
7.91375e-07
4.29388e-07
2.32148e-07
1.24151e-07
6.51763e-08
3.33724e-08
1.62874e-08
7.71767e-09
3.43731e-09
1.46975e-09
5.96977e-10
2.31818e-10
8.08949e-11
2.49573e-11
6.77555e-12
1.61071e-12
2.39739e-13
2.37948e-35
1.23883e-34
4.38279e-34
1.43575e-33
4.53141e-33
1.41918e-32
4.43173e-32
1.38244e-31
4.30479e-31
1.33522e-30
4.12988e-30
1.27457e-29
3.92927e-29
1.21127e-28
3.72772e-28
1.13816e-27
3.4565e-27
1.04403e-26
3.13439e-26
9.34776e-26
2.7685e-25
8.13573e-25
2.37304e-24
6.84316e-24
1.98967e-23
5.67377e-23
1.61032e-22
4.51152e-22
1.27027e-21
3.49416e-21
9.52776e-21
2.57121e-20
6.96344e-20
1.83167e-19
4.81886e-19
1.24743e-18
3.15427e-18
7.79721e-18
1.9608e-17
4.88228e-17
1.17398e-16
2.7588e-16
6.43066e-16
1.50933e-15
3.61245e-15
8.49084e-15
1.9587e-14
4.44038e-14
9.92056e-14
2.18985e-13
4.77309e-13
1.0206e-12
2.12294e-12
3.90786e-12
7.57262e-12
1.36802e-11
2.53513e-11
4.98706e-11
1.00562e-10
2.06654e-10
4.30987e-10
8.69772e-10
1.71895e-09
3.16932e-09
5.54832e-09
1.03858e-08
2.2532e-08
5.67738e-08
1.53024e-07
4.03068e-07
9.82661e-07
2.18235e-06
4.27442e-06
6.94498e-06
8.7998e-06
7.90098e-06
6.29779e-06
5.90757e-06
5.86347e-06
5.1083e-06
3.74609e-06
2.39478e-06
1.42668e-06
7.95158e-07
4.31458e-07
2.33265e-07
1.24754e-07
6.54986e-08
3.35427e-08
1.63702e-08
7.75855e-09
3.45531e-09
1.47766e-09
6.00239e-10
2.33126e-10
8.13753e-11
2.51118e-11
6.81898e-12
1.62129e-12
2.41332e-13
2.42194e-35
1.27924e-34
4.51015e-34
1.4618e-33
4.6255e-33
1.45404e-32
4.54519e-32
1.41788e-31
4.41734e-31
1.37332e-30
4.2556e-30
1.31477e-29
4.05036e-29
1.24493e-28
3.82183e-28
1.16557e-27
3.53599e-27
1.0673e-26
3.19145e-26
9.47905e-26
2.80684e-25
8.24549e-25
2.42759e-24
7.00498e-24
2.02975e-23
5.77002e-23
1.63667e-22
4.6292e-22
1.28983e-21
3.56229e-21
9.73576e-21
2.67272e-20
7.08396e-20
1.8621e-19
4.89554e-19
1.24993e-18
3.18987e-18
7.90938e-18
2.03605e-17
5.02278e-17
1.18846e-16
2.80028e-16
6.43066e-16
1.53314e-15
3.63776e-15
8.54616e-15
1.9701e-14
4.46177e-14
9.95822e-14
2.19598e-13
4.78168e-13
1.02145e-12
2.12267e-12
3.90403e-12
7.57076e-12
1.36665e-11
2.53003e-11
4.97413e-11
1.00253e-10
2.05935e-10
4.29345e-10
8.66348e-10
1.71227e-09
3.15794e-09
5.52728e-09
1.03372e-08
2.23986e-08
5.63841e-08
1.51939e-07
4.00464e-07
9.77022e-07
2.1718e-06
4.25854e-06
6.92945e-06
8.79635e-06
7.918e-06
6.30506e-06
5.90847e-06
5.86584e-06
5.1146e-06
3.75336e-06
2.40054e-06
1.43039e-06
7.97226e-07
4.32592e-07
2.33879e-07
1.25085e-07
6.56758e-08
3.36361e-08
1.64157e-08
7.78095e-09
3.46517e-09
1.48198e-09
6.02022e-10
2.33843e-10
8.1638e-11
2.51961e-11
6.84264e-12
1.62705e-12
2.42201e-13
2.39108e-35
1.27731e-34
4.59289e-34
1.48329e-33
4.6869e-33
1.46814e-32
4.58293e-32
1.42923e-31
4.45837e-31
1.39277e-30
4.3163e-30
1.33294e-29
4.09094e-29
1.24071e-28
3.89725e-28
1.18339e-27
3.58459e-27
1.08037e-26
3.23927e-26
9.62954e-26
2.87061e-25
8.44252e-25
2.4671e-24
7.13959e-24
2.04092e-23
5.88155e-23
1.66193e-22
4.68376e-22
1.31762e-21
3.65655e-21
9.96923e-21
2.67515e-20
7.22666e-20
1.92101e-19
4.98003e-19
1.27085e-18
3.23972e-18
7.95274e-18
2.05287e-17
4.99553e-17
1.20676e-16
2.82408e-16
6.55982e-16
1.535e-15
3.65276e-15
8.58099e-15
1.97713e-14
4.47533e-14
9.98345e-14
2.20049e-13
4.78918e-13
1.02251e-12
2.12374e-12
3.90423e-12
7.57513e-12
1.36689e-11
2.52946e-11
4.97193e-11
1.00195e-10
2.05795e-10
4.29024e-10
8.65657e-10
1.71093e-09
3.15568e-09
5.52318e-09
1.0328e-08
2.23742e-08
5.63151e-08
1.51748e-07
4.00023e-07
9.76095e-07
2.17008e-06
4.256e-06
6.92696e-06
8.79579e-06
7.92066e-06
6.30619e-06
5.90858e-06
5.86617e-06
5.11554e-06
3.75446e-06
2.40141e-06
1.43094e-06
7.97537e-07
4.32763e-07
2.3397e-07
1.25134e-07
6.57018e-08
3.36497e-08
1.64222e-08
7.78411e-09
3.46657e-09
1.48259e-09
6.0227e-10
2.33941e-10
8.16734e-11
2.52073e-11
6.84571e-12
1.62778e-12
2.4231e-13
2.3873e-35
1.3011e-34
4.60114e-34
1.49175e-33
4.72015e-33
1.48133e-32
4.63265e-32
1.44553e-31
4.50085e-31
1.398e-30
4.33129e-30
1.33839e-29
4.11964e-29
1.2605e-28
3.90853e-28
1.18866e-27
3.59375e-27
1.07459e-26
3.26841e-26
9.71327e-26
2.8894e-25
8.51038e-25
2.49099e-24
7.23871e-24
2.08105e-23
5.91924e-23
1.6533e-22
4.76657e-22
1.32465e-21
3.66644e-21
1.00583e-20
2.72066e-20
7.31651e-20
1.92341e-19
5.02579e-19
1.27967e-18
3.26002e-18
8.04246e-18
2.06463e-17
5.02229e-17
1.2132e-16
2.80128e-16
6.63739e-16
1.53996e-15
3.65308e-15
8.59688e-15
1.98055e-14
4.48267e-14
9.99944e-14
2.20396e-13
4.79663e-13
1.02407e-12
2.1269e-12
3.90996e-12
7.58864e-12
1.3694e-11
2.53524e-11
4.98436e-11
1.00465e-10
2.06391e-10
4.3033e-10
8.6837e-10
1.71613e-09
3.16434e-09
5.53888e-09
1.03639e-08
2.24722e-08
5.65973e-08
1.5253e-07
4.01905e-07
9.80175e-07
2.17779e-06
4.26768e-06
6.93837e-06
8.79833e-06
7.90815e-06
6.30079e-06
5.90788e-06
5.86444e-06
5.11096e-06
3.74917e-06
2.39722e-06
1.42825e-06
7.96034e-07
4.31936e-07
2.33523e-07
1.24892e-07
6.55717e-08
3.35807e-08
1.63886e-08
7.76744e-09
3.45919e-09
1.47933e-09
6.00916e-10
2.33394e-10
8.14708e-11
2.51417e-11
6.82717e-12
1.62325e-12
2.41626e-13
2.41262e-35
1.29001e-34
4.54047e-34
1.47434e-33
4.67253e-33
1.46879e-32
4.59831e-32
1.43501e-31
4.46434e-31
1.38425e-30
4.27669e-30
1.31693e-29
4.04754e-29
1.24392e-28
3.81956e-28
1.16386e-27
3.50923e-27
1.06116e-26
3.20981e-26
9.55563e-26
2.82011e-25
8.40949e-25
2.45349e-24
7.1811e-24
2.05905e-23
5.84371e-23
1.64777e-22
4.69054e-22
1.30464e-21
3.61018e-21
9.86365e-21
2.66189e-20
7.29015e-20
1.90429e-19
4.84548e-19
1.25268e-18
3.20184e-18
7.81325e-18
1.98973e-17
5.06141e-17
1.18211e-16
2.82564e-16
6.47221e-16
1.54415e-15
3.65316e-15
8.58853e-15
1.97941e-14
4.4823e-14
1.00035e-13
2.2059e-13
4.80312e-13
1.02592e-12
2.1317e-12
3.9207e-12
7.61108e-12
1.37417e-11
2.54721e-11
5.01092e-11
1.01047e-10
2.07677e-10
4.33175e-10
8.74314e-10
1.72755e-09
3.18338e-09
5.57336e-09
1.04427e-08
2.2686e-08
5.72142e-08
1.54233e-07
4.05989e-07
9.88971e-07
2.19455e-06
4.29284e-06
6.96302e-06
8.80365e-06
7.88093e-06
6.28911e-06
5.90635e-06
5.86058e-06
5.10095e-06
3.73766e-06
2.38814e-06
1.42242e-06
7.92782e-07
4.30152e-07
2.32557e-07
1.2437e-07
6.52916e-08
3.34323e-08
1.63163e-08
7.73163e-09
3.44342e-09
1.47237e-09
5.98041e-10
2.32238e-10
8.10441e-11
2.50037e-11
6.78822e-12
1.61372e-12
2.40189e-13
2.44216e-35
1.26333e-34
4.46189e-34
1.42916e-33
4.60959e-33
1.43922e-32
4.49604e-32
1.40174e-31
4.35952e-31
1.35282e-30
4.18838e-30
1.2933e-29
3.9817e-29
1.2227e-28
3.73902e-28
1.13578e-27
3.47648e-27
1.04673e-26
3.13899e-26
9.36601e-26
2.78482e-25
8.25862e-25
2.41847e-24
7.01792e-24
2.01856e-23
5.75532e-23
1.62736e-22
4.57496e-22
1.28948e-21
3.566e-21
9.76773e-21
2.63488e-20
7.1163e-20
1.87334e-19
4.88939e-19
1.25922e-18
3.179e-18
7.80901e-18
1.99699e-17
5.01355e-17
1.1902e-16
2.77251e-16
6.43728e-16
1.54336e-15
3.63714e-15
8.55558e-15
1.97418e-14
4.47529e-14
9.99805e-14
2.20686e-13
4.80995e-13
1.02837e-12
2.13884e-12
3.93751e-12
7.6444e-12
1.38154e-11
2.56626e-11
5.05372e-11
1.01992e-10
2.09772e-10
4.37775e-10
8.83888e-10
1.74583e-09
3.21346e-09
5.62769e-09
1.05669e-08
2.30242e-08
5.81888e-08
1.56928e-07
4.12393e-07
1.00271e-06
2.22053e-06
4.33207e-06
7.00073e-06
8.81138e-06
7.83947e-06
6.27138e-06
5.90399e-06
5.85461e-06
5.08577e-06
3.7203e-06
2.37448e-06
1.41368e-06
7.87912e-07
4.27485e-07
2.31114e-07
1.23589e-07
6.48731e-08
3.32107e-08
1.62085e-08
7.67829e-09
3.41988e-09
1.46199e-09
5.9375e-10
2.3051e-10
8.04072e-11
2.47983e-11
6.73033e-12
1.59959e-12
2.38058e-13
2.28653e-35
1.22098e-34
4.31594e-34
1.40397e-33
4.42893e-33
1.38503e-32
4.32955e-32
1.35535e-31
4.21389e-31
1.3065e-30
4.04036e-30
1.24672e-29
3.8431e-29
1.18698e-28
3.62443e-28
1.10108e-27
3.33033e-27
1.00217e-26
3.00512e-26
9.0044e-26
2.68544e-25
7.82055e-25
2.33066e-24
6.70343e-24
1.96176e-23
5.58827e-23
1.58058e-22
4.43368e-22
1.25013e-21
3.4851e-21
9.38821e-21
2.61191e-20
6.94032e-20
1.83108e-19
4.79058e-19
1.22832e-18
3.12578e-18
7.74642e-18
1.93632e-17
4.82686e-17
1.17722e-16
2.75162e-16
6.33477e-16
1.52403e-15
3.61219e-15
8.50306e-15
1.96453e-14
4.45975e-14
9.9784e-14
2.20596e-13
4.81558e-13
1.03121e-12
2.14819e-12
3.96069e-12
7.68813e-12
1.39116e-11
2.59134e-11
5.11054e-11
1.03256e-10
2.12589e-10
4.44013e-10
8.96991e-10
1.77113e-09
3.25389e-09
5.69987e-09
1.0732e-08
2.3475e-08
5.94896e-08
1.60492e-07
4.20882e-07
1.02061e-06
2.25424e-06
4.38213e-06
7.04886e-06
8.82036e-06
7.78537e-06
6.24833e-06
5.90079e-06
5.84657e-06
5.06592e-06
3.69778e-06
2.35698e-06
1.4025e-06
7.81693e-07
4.24088e-07
2.29277e-07
1.22597e-07
6.43411e-08
3.29291e-08
1.60715e-08
7.6106e-09
3.39e-09
1.44888e-09
5.8832e-10
2.28321e-10
7.96006e-11
2.45382e-11
6.65707e-12
1.58171e-12
2.35362e-13
2.23698e-35
1.16082e-34
4.12029e-34
1.33611e-33
4.20953e-33
1.31486e-32
4.12894e-32
1.28206e-31
3.97573e-31
1.24304e-30
3.8345e-30
1.1808e-29
3.63116e-29
1.11751e-28
3.45325e-28
1.05055e-27
3.17832e-27
9.57947e-27
2.88698e-26
8.50765e-26
2.5709e-25
7.54303e-25
2.21198e-24
6.44263e-24
1.86423e-23
5.32856e-23
1.51874e-22
4.27013e-22
1.20609e-21
3.32461e-21
9.0793e-21
2.49409e-20
6.68952e-20
1.76944e-19
4.52818e-19
1.18285e-18
3.00579e-18
7.48614e-18
1.89689e-17
4.80673e-17
1.13732e-16
2.75627e-16
6.35758e-16
1.50043e-15
3.56003e-15
8.41371e-15
1.94913e-14
4.4341e-14
9.94183e-14
2.20235e-13
4.81818e-13
1.03411e-12
2.15933e-12
3.98877e-12
7.73437e-12
1.40274e-11
2.62143e-11
5.17842e-11
1.04758e-10
2.15914e-10
4.51277e-10
9.11947e-10
1.79914e-09
3.30032e-09
5.78559e-09
1.09315e-08