/*--------------------------------*- C++ -*----------------------------------*\
  =========                 |
  \\      /  F ield         | OpenFOAM: The Open Source CFD Toolbox
   \\    /   O peration     | Website:  https://openfoam.org
    \\  /    A nd           | Version:  10
     \\/     M anipulation  |
\*---------------------------------------------------------------------------*/
FoamFile
{
    format      ascii;
    class       volScalarField;
    location    "1";
    object      C2H5;
}
// * * * * * * * * * * * * * * * * * * * * * * * * * * * * * * * * * * * * * //

dimensions      [0 0 0 0 0 0 0];

internalField   nonuniform List<scalar> 
4000
(
3.41928e-23
5.58006e-23
7.04534e-23
9.17692e-23
1.22339e-22
1.47631e-22
1.7805e-22
2.14085e-22
2.63899e-22
3.39689e-22
4.56601e-22
5.69221e-22
6.87956e-22
8.00874e-22
9.3258e-22
1.07827e-21
1.20911e-21
1.34511e-21
1.52278e-21
1.72916e-21
1.94099e-21
2.21934e-21
2.64061e-21
3.21069e-21
4.44321e-21
7.20606e-21
1.45766e-20
3.56053e-20
9.52265e-20
2.67736e-19
7.70033e-19
2.22964e-18
6.41467e-18
1.83571e-17
5.22749e-17
1.43842e-16
4.01203e-16
1.13274e-15
3.11737e-15
8.47609e-15
2.22004e-14
5.68271e-14
1.41613e-13
3.42745e-13
8.03639e-13
1.94337e-12
4.71903e-12
1.114e-11
2.52833e-11
5.49658e-11
1.1513e-10
2.38111e-10
4.55312e-10
9.26708e-10
1.88338e-09
3.77498e-09
7.35992e-09
1.48148e-08
3.03781e-08
6.32151e-08
1.32541e-07
2.65534e-07
5.07352e-07
8.63667e-07
1.3335e-06
1.95614e-06
2.74196e-06
3.5948e-06
4.34134e-06
4.8848e-06
5.56152e-06
6.89668e-06
8.48738e-06
9.07666e-06
7.44622e-06
4.23995e-06
2.44587e-06
1.57857e-06
1.07363e-06
6.87723e-07
3.99615e-07
2.18157e-07
1.177e-07
6.40464e-08
3.50107e-08
1.91306e-08
1.03675e-08
5.5305e-09
2.88405e-09
1.46127e-09
7.18003e-10
3.35858e-10
1.65787e-10
1.06241e-10
1.20016e-10
1.63213e-10
9.99423e-11
3.94326e-11
1.18014e-11
1.91501e-12
1.89144e-23
1.11974e-22
1.64329e-22
2.87263e-22
3.89504e-22
4.41084e-22
5.02732e-22
5.55548e-22
6.4978e-22
7.64934e-22
8.66348e-22
9.90588e-22
1.11733e-21
1.21614e-21
1.33803e-21
1.47808e-21
1.59718e-21
1.7428e-21
1.90768e-21
2.11373e-21
2.33121e-21
2.58643e-21
3.03203e-21
3.66682e-21
5.08457e-21
8.29941e-21
1.70955e-20
4.27118e-20
1.17411e-19
3.35668e-19
9.73237e-19
2.95911e-18
8.59228e-18
2.44849e-17
6.93238e-17
1.93549e-16
5.4688e-16
1.49837e-15
4.08929e-15
1.08781e-14
2.84899e-14
7.20318e-14
1.79261e-13
4.31733e-13
1.04652e-12
2.56253e-12
6.12788e-12
1.41315e-11
3.14382e-11
6.77706e-11
1.32993e-10
2.50517e-10
5.05418e-10
1.0098e-09
2.0227e-09
4.03137e-09
7.65456e-09
1.51376e-08
3.06495e-08
6.31336e-08
1.31487e-07
2.62087e-07
4.98881e-07
8.48023e-07
1.30657e-06
1.91623e-06
2.69083e-06
3.54833e-06
4.3075e-06
4.86228e-06
5.5164e-06
6.8231e-06
8.4277e-06
9.08869e-06
7.53582e-06
4.30877e-06
2.47769e-06
1.59353e-06
1.08135e-06
6.91233e-07
4.00716e-07
2.18303e-07
1.1763e-07
6.39297e-08
3.48965e-08
1.90356e-08
1.02946e-08
5.47824e-09
2.84702e-09
1.43717e-09
7.03388e-10
3.28363e-10
1.63185e-10
1.07846e-10
1.26715e-10
1.65623e-10
9.71557e-11
3.77043e-11
1.12113e-11
1.81231e-12
1.2556e-22
2.13118e-22
3.51958e-22
4.93765e-22
7.44615e-22
8.06086e-22
8.79948e-22
9.84633e-22
1.12694e-21
1.18431e-21
1.29597e-21
1.3821e-21
1.47354e-21
1.55815e-21
1.62592e-21
1.72983e-21
1.7993e-21
1.91618e-21
2.12487e-21
2.35087e-21
2.63042e-21
2.96656e-21
3.4661e-21
4.28377e-21
5.90738e-21
1.00644e-20
2.10793e-20
5.41157e-20
1.50727e-19
4.35672e-19
1.30658e-18
3.81045e-18
1.08907e-17
3.14201e-17
8.99545e-17
2.51697e-16
6.91661e-16
1.88501e-15
5.08446e-15
1.33447e-14
3.45167e-14
8.40787e-14
2.16292e-13
5.11424e-13
1.27056e-12
3.03576e-12
7.24007e-12
1.64913e-11
3.55005e-11
7.50076e-11
1.45992e-10
2.76924e-10
5.56455e-10
1.12157e-09
2.18338e-09
4.15858e-09
7.79161e-09
1.53034e-08
3.08039e-08
6.31037e-08
1.30719e-07
2.59484e-07
4.9193e-07
8.33171e-07
1.28248e-06
1.88069e-06
2.64411e-06
3.49823e-06
4.27563e-06
4.84399e-06
5.48071e-06
6.75575e-06
8.37424e-06
9.10373e-06
7.63431e-06
4.38588e-06
2.51318e-06
1.6103e-06
1.08985e-06
6.94901e-07
4.01689e-07
2.18287e-07
1.17467e-07
6.36869e-08
3.46847e-08
1.88738e-08
1.01777e-08
5.39669e-09
2.79443e-09
1.40236e-09
6.82547e-10
3.18067e-10
1.59879e-10
1.10159e-10
1.35514e-10
1.67396e-10
9.41131e-11
3.59106e-11
1.05911e-11
1.70598e-12
7.26856e-23
1.60171e-22
3.03849e-22
4.12314e-22
5.27491e-22
6.42657e-22
6.79899e-22
7.44223e-22
9.10149e-22
1.06063e-21
1.19708e-21
1.28271e-21
1.38135e-21
1.51862e-21
1.66571e-21
1.84183e-21
2.03702e-21
2.22343e-21
2.42752e-21
2.61337e-21
2.91246e-21
3.48001e-21
4.09462e-21
4.83602e-21
6.86289e-21
1.22014e-20
2.68999e-20
6.99121e-20
1.92793e-19
5.7954e-19
1.68215e-18
4.89361e-18
1.40678e-17
4.02825e-17
1.14283e-16
3.17482e-16
8.65963e-16
2.35506e-15
6.20565e-15
1.65295e-14
4.23241e-14
1.04884e-13
2.61429e-13
6.17049e-13
1.46738e-12
3.561e-12
8.35724e-12
1.85888e-11
4.04539e-11
7.93303e-11
1.52201e-10
3.09353e-10
6.22911e-10
1.22328e-09
2.34467e-09
4.21002e-09
7.88953e-09
1.54249e-08
3.08657e-08
6.29061e-08
1.2977e-07
2.56746e-07
4.85603e-07
8.22052e-07
1.26373e-06
1.85154e-06
2.60434e-06
3.45915e-06
4.24762e-06
4.82703e-06
5.44759e-06
6.69259e-06
8.32513e-06
9.11718e-06
7.73241e-06
4.42443e-06
2.5354e-06
1.6229e-06
1.09692e-06
6.97844e-07
4.02334e-07
2.18317e-07
1.17731e-07
6.29152e-08
3.4279e-08
1.86427e-08
1.00398e-08
5.31556e-09
2.7516e-09
1.35968e-09
6.59787e-10
3.08082e-10
1.57082e-10
1.13222e-10
1.45442e-10
1.68316e-10
9.11641e-11
3.42117e-11
1.00166e-11
1.60806e-12
4.46533e-23
1.13299e-22
1.72932e-22
2.71068e-22
3.7875e-22
4.61718e-22
5.92899e-22
6.77392e-22
8.04534e-22
9.56086e-22
1.09026e-21
1.22399e-21
1.35799e-21
1.50601e-21
1.72918e-21
1.99111e-21
2.22095e-21
2.3733e-21
2.62815e-21
2.86005e-21
3.17557e-21
3.74941e-21
4.30604e-21
5.33619e-21
7.83206e-21
1.45448e-20
3.39287e-20
9.10358e-20
2.57772e-19
7.45485e-19
2.16253e-18
6.38868e-18
1.81952e-17
5.16841e-17
1.44367e-16
3.97864e-16
1.07634e-15
2.84081e-15
7.62293e-15
1.98141e-14
5.01965e-14
1.24245e-13
2.98761e-13
7.20723e-13
1.69722e-12
4.0713e-12
9.32956e-12
2.09184e-11
4.2352e-11
8.16749e-11
1.65943e-10
3.33839e-10
6.73208e-10
1.33724e-09
2.39155e-09
4.28512e-09
8.00367e-09
1.55521e-08
3.0962e-08
6.28452e-08
1.29188e-07
2.54941e-07
4.81103e-07
8.13234e-07
1.24826e-06
1.82636e-06
2.57447e-06
3.43031e-06
4.22838e-06
4.81637e-06
5.42655e-06
6.65108e-06
8.28919e-06
9.12677e-06
7.80311e-06
4.48158e-06
2.56212e-06
1.63626e-06
1.1037e-06
7.00503e-07
4.02803e-07
2.18123e-07
1.17503e-07
6.27517e-08
3.41351e-08
1.85301e-08
9.95711e-09
5.2578e-09
2.71274e-09
1.33626e-09
6.45885e-10
3.0186e-10
1.55854e-10
1.1674e-10
1.54792e-10
1.69211e-10
8.90087e-11
3.29486e-11
9.55859e-12
1.5313e-12
2.18728e-23
6.96453e-23
1.41538e-22
2.41344e-22
3.27662e-22
4.18353e-22
5.30464e-22
6.24608e-22
6.78326e-22
7.81221e-22
9.20167e-22
1.10704e-21
1.26551e-21
1.3997e-21
1.60911e-21
1.89791e-21
2.12621e-21
2.43036e-21
2.74135e-21
3.19908e-21
3.8598e-21
4.325e-21
5.05208e-21
6.20641e-21
9.34366e-21
1.8134e-20
4.37095e-20
1.1766e-19
3.37943e-19
9.65568e-19
2.74841e-18
8.16623e-18
2.29168e-17
6.39707e-17
1.74803e-16
4.83416e-16
1.28416e-15
3.32793e-15
9.03802e-15
2.39857e-14
5.92999e-14
1.4356e-13
3.45428e-13
8.20113e-13
1.94776e-12
4.53197e-12
1.05718e-11
2.19818e-11
4.38782e-11
8.83201e-11
1.78024e-10
3.56785e-10
7.05841e-10
1.38562e-09
2.462e-09
4.37121e-09
8.0806e-09
1.56284e-08
3.0962e-08
6.26149e-08
1.28347e-07
2.52903e-07
4.76686e-07
8.05478e-07
1.23637e-06
1.80982e-06
2.55155e-06
3.40482e-06
4.21099e-06
4.80866e-06
5.4109e-06
6.61663e-06
8.25762e-06
9.13038e-06
7.85142e-06
4.52702e-06
2.58438e-06
1.64739e-06
1.10959e-06
7.03143e-07
4.03534e-07
2.18179e-07
1.17441e-07
6.27351e-08
3.40957e-08
1.84852e-08
9.91619e-09
5.2249e-09
2.68831e-09
1.32181e-09
6.36959e-10
2.98205e-10
1.55611e-10
1.20098e-10
1.62582e-10
1.70079e-10
8.76192e-11
3.21105e-11
9.27016e-12
1.48187e-12
1.51283e-23
6.00193e-23
1.1078e-22
1.75171e-22
2.30527e-22
2.98935e-22
3.88703e-22
4.89644e-22
6.61354e-22
8.07523e-22
9.74635e-22
1.13633e-21
1.29535e-21
1.495e-21
1.66713e-21
1.88627e-21
2.10999e-21
2.3234e-21
2.54018e-21
2.86283e-21
3.3757e-21
3.9707e-21
4.64976e-21
6.32863e-21
1.06782e-20
2.21788e-20
5.47049e-20
1.45712e-19
4.26295e-19
1.22449e-18
3.48691e-18
9.87507e-18
2.78842e-17
7.76505e-17
2.11375e-16
5.77431e-16
1.56158e-15
4.00737e-15
1.08116e-14
2.75984e-14
6.83395e-14
1.66156e-13
3.93346e-13
9.25972e-13
2.15008e-12
5.03089e-12
1.12437e-11
2.23651e-11
4.66316e-11
9.43729e-11
1.87707e-10
3.71804e-10
7.29038e-10
1.41871e-09
2.50577e-09
4.42887e-09
8.133e-09
1.56548e-08
3.09015e-08
6.23083e-08
1.27433e-07
2.50747e-07
4.72259e-07
7.98158e-07
1.22517e-06
1.79436e-06
2.53212e-06
3.38325e-06
4.19586e-06
4.8007e-06
5.39637e-06
6.58591e-06
8.22975e-06
9.13382e-06
7.89909e-06
4.57249e-06
2.60737e-06
1.65907e-06
1.11622e-06
7.06603e-07
4.05007e-07
2.18732e-07
1.17669e-07
6.28736e-08
3.41508e-08
1.84989e-08
9.91175e-09
5.21443e-09
2.67748e-09
1.31491e-09
6.32244e-10
2.96529e-10
1.56071e-10
1.23227e-10
1.69157e-10
1.71153e-10
8.68915e-11
3.16158e-11
9.09555e-12
1.4517e-12
4.19992e-23
8.84165e-23
1.64819e-22
2.76204e-22
3.63399e-22
4.67734e-22
5.4513e-22
6.44625e-22
7.59676e-22
8.84613e-22
1.01296e-21
1.21079e-21
1.41393e-21
1.62305e-21
1.78892e-21
2.00817e-21
2.28889e-21
2.51833e-21
2.77696e-21
3.15817e-21
3.50144e-21
3.97311e-21
4.82028e-21
6.84259e-21
1.21965e-20
2.67852e-20
6.84642e-20
1.86521e-19
5.1976e-19
1.46997e-18
4.22502e-18
1.20822e-17
3.37097e-17
9.27781e-17
2.49434e-16
6.73134e-16
1.8038e-15
4.58331e-15
1.21571e-14
3.14134e-14
7.7339e-14
1.8529e-13
4.43275e-13
1.03033e-12
2.39465e-12
5.52528e-12
1.16393e-11
2.39859e-11
4.96897e-11
9.98048e-11
1.98084e-10
3.87646e-10
7.51798e-10
1.44898e-09
2.54225e-09
4.46736e-09
8.15655e-09
1.56305e-08
3.07455e-08
6.18207e-08
1.26193e-07
2.48143e-07
4.67209e-07
7.90567e-07
1.21337e-06
1.77591e-06
2.51117e-06
3.36114e-06
4.18003e-06
4.7916e-06
5.38083e-06
6.55358e-06
8.19841e-06
9.13574e-06
7.95068e-06
4.62519e-06
2.63323e-06
1.67218e-06
1.12409e-06
7.11218e-07
4.07414e-07
2.19878e-07
1.18232e-07
6.31815e-08
3.43033e-08
1.85702e-08
9.94183e-09
5.22466e-09
2.67897e-09
1.31459e-09
6.31155e-10
2.96437e-10
1.57019e-10
1.25996e-10
1.74507e-10
1.72453e-10
8.66825e-11
3.13857e-11
9.0078e-12
1.43616e-12
3.80037e-23
1.1467e-22
2.04426e-22
3.20781e-22
3.89077e-22
4.86814e-22
5.87029e-22
7.22929e-22
8.61586e-22
1.03406e-21
1.08078e-21
1.21371e-21
1.43015e-21
1.61445e-21
1.85619e-21
2.06347e-21
2.32127e-21
2.63099e-21
2.90308e-21
3.11116e-21
3.4571e-21
4.08888e-21
5.07501e-21
7.54585e-21
1.39947e-20
3.20815e-20
8.3098e-20
2.29174e-19
6.4351e-19
1.80178e-18
5.06815e-18
1.42922e-17
3.95698e-17
1.08442e-16
2.9327e-16
7.80253e-16
2.05891e-15
5.18383e-15
1.36559e-14
3.47859e-14
8.5853e-14
2.06792e-13
4.88989e-13
1.14253e-12
2.53398e-12
5.45451e-12
1.21426e-11
2.57724e-11
5.27522e-11
1.05602e-10
2.06716e-10
4.00362e-10
7.69705e-10
1.47155e-09
2.56551e-09
4.48741e-09
8.15127e-09
1.55541e-08
3.04856e-08
6.11389e-08
1.24504e-07
2.44366e-07
4.60432e-07
7.7957e-07
1.19819e-06
1.75706e-06
2.48495e-06
3.33569e-06
4.15898e-06
4.77887e-06
5.36038e-06
6.51167e-06
8.15974e-06
9.13496e-06
8.00633e-06
4.68593e-06
2.66305e-06
1.68723e-06
1.13351e-06
7.17168e-07
4.10831e-07
2.21637e-07
1.19133e-07
6.36562e-08
3.45491e-08
1.86951e-08
1.00032e-08
5.25321e-09
2.69119e-09
1.31984e-09
6.33076e-10
2.97619e-10
1.58307e-10
1.2835e-10
1.78684e-10
1.73959e-10
8.68927e-11
3.13641e-11
8.98791e-12
1.43202e-12
3.71339e-23
1.15645e-22
2.00922e-22
2.83612e-22
3.52318e-22
4.40364e-22
5.61506e-22
6.9089e-22
8.41672e-22
9.9114e-22
1.14148e-21
1.36168e-21
1.53478e-21
1.72036e-21
2.00158e-21
2.28345e-21
2.53525e-21
2.77325e-21
3.15789e-21
3.51024e-21
3.77188e-21
4.26654e-21
5.47282e-21
8.31955e-21
1.60624e-20
3.72128e-20
9.76367e-20
2.69384e-19
7.65794e-19
2.16525e-18
6.06319e-18
1.67517e-17
4.57982e-17
1.24201e-16
3.31532e-16
8.72936e-16
2.26737e-15
5.73087e-15
1.52595e-14
3.82103e-14
9.25353e-14
2.21934e-13
5.21943e-13
1.17968e-12
2.5851e-12
5.91963e-12
1.29759e-11
2.73388e-11
5.59025e-11
1.10643e-10
2.14807e-10
4.12858e-10
7.8679e-10
1.48509e-09
2.57825e-09
4.49541e-09
8.1251e-09
1.54463e-08
3.01894e-08
6.04201e-08
1.22861e-07
2.40873e-07
4.53186e-07
7.6884e-07
1.1827e-06
1.73503e-06
2.45872e-06
3.30946e-06
4.13803e-06
4.76615e-06
5.34817e-06
6.47515e-06
8.12198e-06
9.13531e-06
8.07325e-06
4.76385e-06
2.70141e-06
1.70616e-06
1.14505e-06
7.24564e-07
4.15224e-07
2.23958e-07
1.20335e-07
6.42755e-08
3.48722e-08
1.88643e-08
1.00901e-08
5.29667e-09
2.71209e-09
1.32954e-09
6.37382e-10
2.99795e-10
1.59846e-10
1.30358e-10
1.81986e-10
1.75666e-10
8.74371e-11
3.1505e-11
9.02042e-12
1.43663e-12
3.90871e-23
1.23642e-22
2.32142e-22
2.89389e-22
3.55373e-22
4.36198e-22
5.03412e-22
5.89703e-22
6.98156e-22
8.27156e-22
1.03085e-21
1.24887e-21
1.42911e-21
1.65311e-21
1.77729e-21
1.95649e-21
2.12368e-21
2.31091e-21
2.65959e-21
3.1465e-21
3.60487e-21
4.2117e-21
5.5381e-21
8.94279e-21
1.78324e-20
4.27283e-20
1.11827e-19
3.08196e-19
8.73248e-19
2.46524e-18
6.88643e-18
1.89889e-17
5.15815e-17
1.40083e-16
3.70585e-16
9.70531e-16
2.50956e-15
6.33483e-15
1.66789e-14
4.12444e-14
9.9264e-14
2.34494e-13
5.39748e-13
1.21078e-12
2.7952e-12
6.32374e-12
1.38022e-11
2.90607e-11
5.89043e-11
1.16028e-10
2.24691e-10
4.31438e-10
8.2698e-10
1.4811e-09
2.58196e-09
4.49106e-09
8.07805e-09
1.52968e-08
2.97987e-08
5.9387e-08
1.20528e-07
2.36369e-07
4.46314e-07
7.58462e-07
1.16805e-06
1.71476e-06
2.43306e-06
3.28127e-06
4.117e-06
4.75308e-06
5.3289e-06
6.43412e-06
8.07729e-06
9.13012e-06
8.13563e-06
4.83973e-06
2.73897e-06
1.72458e-06
1.15679e-06
7.32479e-07
4.20126e-07
2.26615e-07
1.2173e-07
6.49936e-08
3.52563e-08
1.90665e-08
1.01957e-08
5.35089e-09
2.73941e-09
1.34254e-09
6.43465e-10
3.027e-10
1.61553e-10
1.32072e-10
1.84589e-10
1.77526e-10
8.82272e-11
3.17646e-11
9.09118e-12
1.44764e-12
2.97174e-23
9.42008e-23
2.13443e-22
2.83258e-22
3.3604e-22
4.36454e-22
5.8306e-22
7.40326e-22
8.33508e-22
9.46382e-22
1.09132e-21
1.26256e-21
1.38568e-21
1.53342e-21
1.69041e-21
1.88705e-21
2.11891e-21
2.37443e-21
2.53295e-21
2.8557e-21
3.30221e-21
4.15005e-21
5.8588e-21
9.71914e-21
2.00197e-20
4.79188e-20
1.25594e-19
3.42304e-19
9.73421e-19
2.71904e-18
7.41551e-18
2.09777e-17
5.72213e-17
1.52515e-16
4.13911e-16
1.07118e-15
2.72688e-15
6.86335e-15
1.7623e-14
4.43927e-14
1.05815e-13
2.48142e-13
5.68712e-13
1.29155e-12
2.97194e-12
6.68785e-12
1.45344e-11
3.04515e-11
6.14204e-11
1.20417e-10
2.32275e-10
4.444e-10
8.46182e-10
1.47196e-09
2.58318e-09
4.47757e-09
8.01556e-09
1.51375e-08
2.94001e-08
5.85813e-08
1.18641e-07
2.3247e-07
4.38569e-07
7.4784e-07
1.15364e-06
1.69525e-06
2.40888e-06
3.25432e-06
4.0956e-06
4.74091e-06
5.30767e-06
6.38936e-06
8.0307e-06
9.12319e-06
8.19672e-06
4.92157e-06
2.7786e-06
1.74431e-06
1.16927e-06
7.41009e-07
4.25443e-07
2.29516e-07
1.23258e-07
6.57798e-08
3.56797e-08
1.9296e-08
1.03187e-08
5.41547e-09
2.77218e-09
1.35814e-09
6.50895e-10
3.06188e-10
1.63411e-10
1.33574e-10
1.86681e-10
1.79485e-10
8.9183e-11
3.21044e-11
9.18789e-12
1.46301e-12
1.76798e-23
5.66908e-23
1.56879e-22
2.32951e-22
3.29159e-22
4.47468e-22
6.43244e-22
7.90145e-22
8.59871e-22
1.02e-21
1.18728e-21
1.31597e-21
1.48103e-21
1.63579e-21
1.81774e-21
2.05919e-21
2.14744e-21
2.29611e-21
2.58369e-21
2.95127e-21
3.5696e-21
4.33128e-21
6.0353e-21
1.01412e-20
2.13834e-20
5.18666e-20
1.36859e-19
3.75225e-19
1.05003e-18
3.01085e-18
8.26794e-18
2.30156e-17
6.23523e-17
1.68525e-16
4.4364e-16
1.14594e-15
2.90131e-15
7.27111e-15
1.86126e-14
4.70801e-14
1.12528e-13
2.64528e-13
6.0029e-13
1.38572e-12
3.12225e-12
7.00649e-12
1.51865e-11
3.15668e-11
6.32251e-11
1.23152e-10
2.36039e-10
4.48757e-10
8.48337e-10
1.46324e-09
2.58975e-09
4.46614e-09
7.9517e-09
1.49559e-08
2.89938e-08
5.76664e-08
1.16863e-07
2.28761e-07
4.31653e-07
7.3748e-07
1.13924e-06
1.67559e-06
2.38456e-06
3.22724e-06
4.07346e-06
4.72721e-06
5.28913e-06
6.3499e-06
7.98726e-06
9.11672e-06
8.26088e-06
5.0105e-06
2.82239e-06
1.76529e-06
1.18226e-06
7.49933e-07
4.31217e-07
2.3273e-07
1.2496e-07
6.66378e-08
3.61383e-08
1.95424e-08
1.04505e-08
5.48511e-09
2.8085e-09
1.37572e-09
6.59415e-10
3.10036e-10
1.6531e-10
1.34883e-10
1.88371e-10
1.81528e-10
9.02806e-11
3.25137e-11
9.30698e-12
1.48208e-12
2.21889e-23
1.1385e-22
1.5973e-22
2.42853e-22
3.2355e-22
4.08033e-22
5.61379e-22
6.87928e-22
8.04357e-22
9.75568e-22
1.10933e-21
1.28183e-21
1.47346e-21
1.70337e-21
1.98954e-21
2.23993e-21
2.39004e-21
2.42303e-21
2.71367e-21
2.98014e-21
3.72058e-21
4.51461e-21
6.10632e-21
1.02628e-20
2.20126e-20
5.48865e-20
1.49292e-19
4.11118e-19
1.1497e-18
3.20644e-18
8.8024e-18
2.47371e-17
6.5992e-17
1.7884e-16
4.67898e-16
1.2095e-15
3.07031e-15
7.55556e-15
1.96407e-14
4.97431e-14
1.17415e-13
2.74044e-13
6.30487e-13
1.45797e-12
3.25528e-12
7.28889e-12
1.56769e-11
3.23887e-11
6.45202e-11
1.25021e-10
2.38362e-10
4.51016e-10
8.47666e-10
1.45425e-09
2.59143e-09
4.45236e-09
7.89318e-09
1.48083e-08
2.86497e-08
5.68158e-08
1.14892e-07
2.24912e-07
4.25304e-07
7.27934e-07
1.12615e-06
1.65759e-06
2.36162e-06
3.20367e-06
4.05242e-06
4.71346e-06
5.27118e-06
6.31073e-06
7.94399e-06
9.10816e-06
8.31768e-06
5.09854e-06
2.86538e-06
1.78595e-06
1.19536e-06
7.59095e-07
4.37068e-07
2.35971e-07
1.26671e-07
6.75089e-08
3.6603e-08
1.97918e-08
1.05838e-08
5.55555e-09
2.84514e-09
1.39342e-09
6.68e-10
3.13959e-10
1.67214e-10
1.36068e-10
1.89802e-10
1.83544e-10
9.14092e-11
3.29416e-11
9.43241e-12
1.50225e-12
4.4809e-23
1.21198e-22
1.96037e-22
2.99177e-22
3.7767e-22
4.16728e-22
4.78391e-22
5.59276e-22
7.04289e-22
9.26884e-22
1.14576e-21
1.372e-21
1.60056e-21
1.78779e-21
1.92374e-21
2.13317e-21
2.37409e-21
2.61105e-21
2.72641e-21
2.90021e-21
3.26534e-21
4.10212e-21
6.02926e-21
1.05128e-20
2.32345e-20
5.8459e-20
1.58116e-19
4.35986e-19
1.21371e-18
3.42421e-18
9.49522e-18
2.60874e-17
6.9596e-17
1.87792e-16
4.85153e-16
1.23993e-15
3.22119e-15
7.89598e-15
2.03687e-14
5.07728e-14
1.24181e-13
2.88683e-13
6.65093e-13
1.49164e-12
3.36355e-12
7.49328e-12
1.60477e-11
3.30177e-11
6.55142e-11
1.26469e-10
2.40181e-10
4.52277e-10
8.46339e-10
1.44646e-09
2.58826e-09
4.43303e-09
7.82543e-09
1.46512e-08
2.82788e-08
5.60489e-08
1.13177e-07
2.21426e-07
4.19008e-07
7.19227e-07
1.1142e-06
1.6412e-06
2.34086e-06
3.18075e-06
4.03298e-06
4.7013e-06
5.25542e-06
6.27574e-06
7.90387e-06
9.09848e-06
8.36868e-06
5.18153e-06
2.90593e-06
1.80557e-06
1.20751e-06
7.6754e-07
4.42503e-07
2.38993e-07
1.28267e-07
6.83165e-08
3.7035e-08
2.00243e-08
1.07085e-08
5.62169e-09
2.87967e-09
1.41012e-09
6.76108e-10
3.17609e-10
1.68916e-10
1.37001e-10
1.90791e-10
1.85321e-10
9.24527e-11
3.33451e-11
9.5518e-12
1.52153e-12
3.55342e-23
1.13641e-22
2.03781e-22
2.9012e-22
3.62054e-22
4.56414e-22
5.48924e-22
6.01245e-22
7.03203e-22
8.0689e-22
9.40489e-22
1.20124e-21
1.33546e-21
1.46207e-21
1.70033e-21
1.96411e-21
2.22216e-21
2.56172e-21
2.78521e-21
3.06465e-21
3.41801e-21
4.29623e-21
6.37633e-21
1.12915e-20
2.4787e-20
6.18575e-20
1.67275e-19
4.59401e-19
1.26603e-18
3.57661e-18
9.8182e-18
2.70111e-17
7.31529e-17
1.942e-16
5.08127e-16
1.31508e-15
3.34301e-15
8.4999e-15
2.135e-14
5.38605e-14
1.27835e-13
2.9401e-13
6.79123e-13
1.52355e-12
3.44796e-12
7.65274e-12
1.6332e-11
3.34893e-11
6.62313e-11
1.27432e-10
2.41293e-10
4.52958e-10
8.44885e-10
1.43999e-09
2.5841e-09
4.41472e-09
7.7665e-09
1.45014e-08
2.79535e-08
5.53284e-08
1.11693e-07
2.18531e-07
4.13912e-07
7.12075e-07
1.10417e-06
1.6274e-06
2.32347e-06
3.16204e-06
4.01704e-06
4.691e-06
5.2421e-06
6.24558e-06
7.8687e-06
9.08927e-06
8.41125e-06
5.2536e-06
2.94113e-06
1.82241e-06
1.21791e-06
7.7481e-07
4.47208e-07
2.41615e-07
1.29656e-07
6.90201e-08
3.7412e-08
2.02275e-08
1.08178e-08
5.67977e-09
2.9101e-09
1.4249e-09
6.83372e-10
3.2086e-10
1.70417e-10
1.37792e-10
1.91607e-10
1.86883e-10
9.33828e-11
3.37066e-11
9.65899e-12
1.53886e-12
2.25211e-23
1.12292e-22
1.97998e-22
2.28184e-22
2.91264e-22
3.91085e-22
5.33051e-22
7.18726e-22
8.16181e-22
9.01891e-22
1.00879e-21
1.16565e-21
1.32073e-21
1.49881e-21
1.78275e-21
2.01529e-21
2.13301e-21
2.39e-21
2.6887e-21
3.16699e-21
3.71946e-21
4.67451e-21
6.90061e-21
1.19715e-20
2.61432e-20
6.5469e-20
1.74566e-19
4.78064e-19
1.32626e-18
3.72178e-18
1.02342e-17
2.83328e-17
7.60079e-17
2.0135e-16
5.26336e-16
1.36609e-15
3.48864e-15
8.76077e-15
2.18571e-14
5.44153e-14
1.29853e-13
3.01754e-13
6.80547e-13
1.54356e-12
3.51595e-12
7.77639e-12
1.65493e-11
3.38497e-11
6.67815e-11
1.28179e-10
2.42138e-10
4.53449e-10
8.43827e-10
1.43529e-09
2.57992e-09
4.39941e-09
7.71782e-09
1.43933e-08
2.77173e-08
5.48126e-08
1.10585e-07
2.16188e-07
4.09622e-07
7.057e-07
1.09571e-06
1.61593e-06
2.30888e-06
3.1457e-06
4.00268e-06
4.68195e-06
5.23079e-06
6.22244e-06
7.84171e-06
9.0818e-06
8.44423e-06
5.31121e-06
2.96928e-06
1.83584e-06
1.22619e-06
7.80618e-07
4.50988e-07
2.43725e-07
1.30771e-07
6.95838e-08
3.77142e-08
2.03907e-08
1.09056e-08
5.72658e-09
2.93468e-09
1.43684e-09
6.89235e-10
3.2348e-10
1.7162e-10
1.38409e-10
1.92239e-10
1.88134e-10
9.41379e-11
3.40018e-11
9.74674e-12
1.55306e-12
4.83431e-23
1.64611e-22
2.81e-22
3.98991e-22
4.42839e-22
4.69661e-22
5.50587e-22
6.96328e-22
7.03111e-22
7.40888e-22
8.42551e-22
9.82869e-22
1.1744e-21
1.35848e-21
1.6408e-21
2.01665e-21
2.33596e-21
2.59219e-21
2.97403e-21
3.34514e-21
3.88486e-21
4.73252e-21
6.8725e-21
1.21743e-20
2.67359e-20
6.69975e-20
1.80557e-19
4.97064e-19
1.39496e-18
3.8439e-18
1.05222e-17
2.85343e-17
7.76806e-17
2.05267e-16
5.4236e-16
1.40848e-15
3.56905e-15
8.82578e-15
2.21462e-14
5.48558e-14
1.30522e-13
3.02007e-13
6.8768e-13
1.56153e-12
3.56458e-12
7.86568e-12
1.6706e-11
3.41101e-11
6.71841e-11
1.28751e-10
2.42778e-10
4.53903e-10
8.43289e-10
1.4323e-09
2.57718e-09
4.38928e-09
7.6861e-09
1.43183e-08
2.75503e-08
5.44471e-08
1.09803e-07
2.14606e-07
4.06755e-07
7.01521e-07
1.09005e-06
1.6081e-06
2.29883e-06
3.1345e-06
3.99243e-06
4.67567e-06
5.22427e-06
6.2062e-06
7.82212e-06
9.07602e-06
8.46701e-06
5.35208e-06
2.98928e-06
1.84535e-06
1.23203e-06
7.84732e-07
4.53678e-07
2.4524e-07
1.31571e-07
6.9988e-08
3.79307e-08
2.05075e-08
1.09685e-08
5.76005e-09
2.95227e-09
1.4454e-09
6.93438e-10
3.25352e-10
1.72469e-10
1.38824e-10
1.92629e-10
1.89012e-10
9.46755e-11
3.4213e-11
9.80964e-12
1.56325e-12
2.43368e-23
7.40488e-23
1.41444e-22
2.3735e-22
2.98442e-22
3.64743e-22
4.60628e-22
6.23675e-22
6.87776e-22
7.7751e-22
8.73384e-22
1.01032e-21
1.17478e-21
1.34936e-21
1.55438e-21
1.768e-21
2.00994e-21
2.33981e-21
2.79901e-21
3.32633e-21
3.8959e-21
4.70767e-21
6.75868e-21
1.22988e-20
2.7217e-20
6.83845e-20
1.83764e-19
5.1058e-19
1.41606e-18
3.91788e-18
1.07536e-17
2.96709e-17
7.90309e-17
2.08743e-16
5.51139e-16
1.41181e-15
3.61024e-15
8.95109e-15
2.29898e-14
5.6392e-14
1.32193e-13
3.06539e-13
6.88208e-13
1.5862e-12
3.5908e-12
7.92011e-12
1.68098e-11
3.42859e-11
6.74556e-11
1.29131e-10
2.43228e-10
4.54286e-10
8.43191e-10
1.43095e-09
2.57639e-09
4.38497e-09
7.67132e-09
1.42825e-08
2.74679e-08
5.42614e-08
1.09395e-07
2.13796e-07
4.05299e-07
6.9938e-07
1.0871e-06
1.60402e-06
2.29355e-06
3.12845e-06
3.98686e-06
4.6719e-06
5.21932e-06
6.19726e-06
7.81161e-06
9.0728e-06
8.47892e-06
5.37384e-06
2.99992e-06
1.85041e-06
1.23514e-06
7.86929e-07
4.55122e-07
2.46054e-07
1.32003e-07
7.02069e-08
3.80482e-08
2.05709e-08
1.10027e-08
5.77829e-09
2.96184e-09
1.45006e-09
6.95724e-10
3.26367e-10
1.72926e-10
1.39038e-10
1.92816e-10
1.89472e-10
9.49607e-11
3.43257e-11
9.84328e-12
1.5687e-12
2.31505e-23
1.14656e-22
1.94126e-22
2.88736e-22
3.45166e-22
4.17001e-22
5.53438e-22
7.29172e-22
8.33785e-22
9.12811e-22
1.09019e-21
1.21336e-21
1.35014e-21
1.39024e-21
1.50858e-21
1.75217e-21
1.93678e-21
2.26585e-21
2.54379e-21
3.08762e-21
3.74454e-21
4.66949e-21
6.9655e-21
1.26787e-20
2.73967e-20
6.9238e-20
1.8624e-19
5.15908e-19
1.44701e-18
4.02354e-18
1.10155e-17
2.97178e-17
8.06339e-17
2.15494e-16
5.61159e-16
1.43665e-15
3.6701e-15
9.00653e-15
2.31777e-14
5.60856e-14
1.34139e-13
3.09057e-13
7.01428e-13
1.5888e-12
3.60605e-12
7.95336e-12
1.68716e-11
3.43927e-11
6.76287e-11
1.29395e-10
2.43606e-10
4.5475e-10
8.43627e-10
1.43109e-09
2.57787e-09
4.38596e-09
7.67025e-09
1.42774e-08
2.74541e-08
5.42279e-08
1.09318e-07
2.13635e-07
4.05008e-07
6.98959e-07
1.08653e-06
1.60325e-06
2.29257e-06
3.12735e-06
3.98585e-06
4.67127e-06
5.21862e-06
6.19579e-06
7.80996e-06
9.07224e-06
8.48074e-06
5.37725e-06
3.00156e-06
1.85118e-06
1.2356e-06
7.87258e-07
4.55337e-07
2.46175e-07
1.32067e-07
7.02389e-08
3.80653e-08
2.05801e-08
1.10076e-08
5.78089e-09
2.9632e-09
1.45071e-09
6.96041e-10
3.26512e-10
1.72995e-10
1.39082e-10
1.92872e-10
1.89551e-10
9.50046e-11
3.43419e-11
9.84796e-12
1.56945e-12
1.77558e-23
9.66398e-23
2.24474e-22
3.32799e-22
4.06169e-22
4.81673e-22
5.82227e-22
7.26322e-22
8.9186e-22
9.58629e-22
9.82209e-22
1.09178e-21
1.17969e-21
1.38885e-21
1.60411e-21
1.80097e-21
2.07433e-21
2.31865e-21
2.58795e-21
3.01947e-21
3.70803e-21
4.74333e-21
7.01112e-21
1.26903e-20
2.78751e-20
6.9736e-20
1.85652e-19
5.25645e-19
1.45561e-18
4.03578e-18
1.11159e-17
3.02039e-17
8.16768e-17
2.15786e-16
5.66507e-16
1.44753e-15
3.69334e-15
9.10948e-15
2.33043e-14
5.64113e-14
1.34816e-13
3.06733e-13
7.09296e-13
1.59304e-12
3.60607e-12
7.9667e-12
1.68974e-11
3.44419e-11
6.77233e-11
1.29576e-10
2.43954e-10
4.55413e-10
8.44876e-10
1.43324e-09
2.58258e-09
4.39434e-09
7.6882e-09
1.4314e-08
2.75297e-08
5.43866e-08
1.09649e-07
2.14284e-07
4.06153e-07
7.00606e-07
1.08876e-06
1.60631e-06
2.2965e-06
3.13173e-06
3.98979e-06
4.67391e-06
5.22234e-06
6.20231e-06
7.81762e-06
9.07455e-06
8.47193e-06
5.36125e-06
2.99372e-06
1.84744e-06
1.23331e-06
7.85645e-07
4.54278e-07
2.45578e-07
1.3175e-07
7.00788e-08
3.79792e-08
2.05336e-08
1.09824e-08
5.76745e-09
2.9561e-09
1.44725e-09
6.94336e-10
3.2575e-10
1.72651e-10
1.38921e-10
1.92729e-10
1.89193e-10
9.47803e-11
3.42531e-11
9.8214e-12
1.56514e-12
2.14227e-23
6.37821e-23
1.29135e-22
2.08371e-22
3.26761e-22
4.2549e-22
4.74913e-22
6.21038e-22
7.85122e-22
8.6167e-22
9.51701e-22
1.05961e-21
1.17441e-21
1.41734e-21
1.59548e-21
1.9189e-21
2.189e-21
2.2533e-21
2.44387e-21
2.87783e-21
3.57362e-21
4.7346e-21
6.95402e-21
1.26124e-20
2.73941e-20
6.87651e-20
1.84689e-19
5.16888e-19
1.43305e-18
3.97272e-18
1.08966e-17
2.95303e-17
8.12981e-17
2.13375e-16
5.45532e-16
1.41337e-15
3.6219e-15
8.84006e-15
2.24729e-14
5.67987e-14
1.31488e-13
3.09202e-13
6.92463e-13
1.59661e-12
3.60421e-12
7.95494e-12
1.6879e-11
3.44222e-11
6.77212e-11
1.29645e-10
2.44225e-10
4.56177e-10
8.46745e-10
1.43717e-09
2.59035e-09
4.40984e-09
7.72449e-09
1.43905e-08
2.76897e-08
5.47247e-08
1.10363e-07
2.15698e-07
4.08654e-07
7.04212e-07
1.09364e-06
1.61298e-06
2.30499e-06
3.14123e-06
3.99827e-06
4.67921e-06
5.2285e-06
6.2161e-06
7.83392e-06
9.07938e-06
8.45266e-06
5.32663e-06
2.97676e-06
1.83937e-06
1.22835e-06
7.82151e-07
4.51989e-07
2.44289e-07
1.31067e-07
6.97335e-08
3.7794e-08
2.04334e-08
1.09284e-08
5.73857e-09
2.94089e-09
1.43984e-09
6.90684e-10
3.24128e-10
1.71919e-10
1.38577e-10
1.92412e-10
1.88437e-10
9.43093e-11
3.40664e-11
9.76553e-12
1.55608e-12
6.00616e-23
1.2088e-22
1.65863e-22
2.4249e-22
3.19423e-22
3.89592e-22
4.77552e-22
6.02634e-22
7.32447e-22
8.45934e-22
9.92588e-22
1.0877e-21
1.24616e-21
1.44865e-21
1.7175e-21
2.02549e-21
2.27044e-21
2.59101e-21
2.84151e-21
3.20531e-21
3.65124e-21
4.53156e-21
6.62619e-21
1.20611e-20
2.71343e-20
6.84366e-20
1.83003e-19
5.04551e-19
1.41644e-18
3.9234e-18
1.0791e-17
2.92399e-17
7.93121e-17
2.09709e-16
5.49641e-16
1.42026e-15
3.59394e-15
8.83113e-15
2.25269e-14
5.62434e-14
1.32237e-13
3.03333e-13
6.88242e-13
1.59429e-12
3.58598e-12
7.9182e-12
1.68206e-11
3.43412e-11
6.76372e-11
1.29629e-10
2.44475e-10
4.57163e-10
8.49493e-10
1.44325e-09
2.60183e-09
4.43362e-09
7.78172e-09
1.45128e-08
2.79478e-08
5.52724e-08
1.11513e-07
2.17969e-07
4.12651e-07
7.0989e-07
1.10127e-06
1.62335e-06
2.31818e-06
3.15586e-06
4.01131e-06
4.68733e-06
5.23801e-06
6.23705e-06
7.8591e-06
9.08657e-06
8.42306e-06
5.27452e-06
2.95129e-06
1.82723e-06
1.22087e-06
7.76892e-07
4.48548e-07
2.42349e-07
1.3004e-07
6.92149e-08
3.75158e-08
2.0283e-08
1.08473e-08
5.69529e-09
2.91811e-09
1.42875e-09
6.85228e-10
3.217e-10
1.70829e-10
1.38073e-10
1.91973e-10
1.8732e-10
9.36118e-11
3.37902e-11
9.68291e-12
1.54267e-12
2.89719e-23
9.94562e-23
1.75178e-22
2.28209e-22
2.62937e-22
3.2055e-22
4.16412e-22
5.44009e-22
6.48565e-22
7.72073e-22
9.64e-22
1.13409e-21
1.38274e-21
1.64634e-21
1.85484e-21
2.08778e-21
2.3516e-21
2.69505e-21
2.98325e-21
3.29608e-21
3.81803e-21
4.58269e-21
6.66585e-21
1.20006e-20
2.65952e-20
6.63672e-20
1.77855e-19
4.89212e-19
1.37278e-18
3.8338e-18
1.03714e-17
2.89754e-17
7.73803e-17
2.05103e-16
5.38718e-16
1.38603e-15
3.53407e-15
8.75916e-15
2.18452e-14
5.41057e-14
1.30671e-13
3.00757e-13
6.77138e-13
1.57342e-12
3.55775e-12
7.86157e-12
1.67212e-11
3.41872e-11
6.74419e-11
1.2948e-10
2.44637e-10
4.58294e-10
8.53104e-10
1.45167e-09
2.61706e-09
4.4647e-09
7.85696e-09
1.46747e-08
2.82918e-08
5.6007e-08
1.13068e-07
2.21069e-07
4.18163e-07
7.17482e-07
1.11129e-06
1.63685e-06
2.33519e-06
3.17457e-06
4.02747e-06
4.6973e-06
5.25011e-06
6.26431e-06
7.89093e-06
9.09499e-06
8.38402e-06
5.20771e-06
2.91863e-06
1.81162e-06
1.21121e-06
7.70105e-07
4.44107e-07
2.39869e-07
1.28728e-07
6.8552e-08
3.71602e-08
2.0091e-08
1.07438e-08
5.64006e-09
2.88904e-09
1.41462e-09
6.78278e-10
3.18604e-10
1.69438e-10
1.37419e-10
1.91382e-10
1.85879e-10
9.27193e-11
3.34377e-11
9.57762e-12
1.5256e-12
3.05438e-23
8.71593e-23
1.85256e-22
2.39605e-22
3.05425e-22
4.09165e-22
5.70385e-22
6.15585e-22
7.02883e-22
8.17801e-22
9.87833e-22
1.19755e-21
1.40403e-21
1.56654e-21
1.66163e-21
1.88833e-21
2.22701e-21
2.53183e-21
2.85043e-21
3.21907e-21
3.71594e-21
4.81754e-21
6.81837e-21
1.21391e-20
2.59512e-20
6.41188e-20
1.71806e-19
4.71603e-19
1.32431e-18
3.65563e-18
1.00203e-17
2.76552e-17
7.45683e-17
1.98164e-16
5.09052e-16
1.33515e-15
3.39703e-15
8.4646e-15
2.13869e-14
5.38445e-14
1.26195e-13
3.00716e-13
6.78036e-13
1.54728e-12
3.50201e-12
7.76898e-12
1.65696e-11
3.39511e-11
6.71269e-11
1.29162e-10
2.44627e-10
4.59426e-10
8.57396e-10
1.46182e-09
2.63326e-09
4.50218e-09
7.94734e-09
1.48681e-08
2.87004e-08
5.68716e-08
1.14872e-07
2.24585e-07
4.24204e-07
7.26063e-07
1.12291e-06
1.65253e-06
2.35473e-06
3.19505e-06