/*--------------------------------*- C++ -*----------------------------------*\
  =========                 |
  \\      /  F ield         | OpenFOAM: The Open Source CFD Toolbox
   \\    /   O peration     | Website:  https://openfoam.org
    \\  /    A nd           | Version:  10
     \\/     M anipulation  |
\*---------------------------------------------------------------------------*/
FoamFile
{
    format      ascii;
    class       volScalarField;
    location    "1";
    object      C2H6;
}
// * * * * * * * * * * * * * * * * * * * * * * * * * * * * * * * * * * * * * //

dimensions      [0 0 0 0 0 0 0];

internalField   nonuniform List<scalar> 
4000
(
5.69445e-30
3.53866e-29
1.5366e-28
5.84433e-28
2.07626e-27
6.90355e-27
2.181e-26
6.64056e-26
1.96982e-25
5.76825e-25
1.69348e-24
4.6427e-24
1.25534e-23
3.40395e-23
9.30692e-23
2.56366e-22
7.09963e-22
2.04329e-21
5.80955e-21
1.66959e-20
4.82089e-20
1.38029e-19
4.23243e-19
1.24566e-18
3.71915e-18
1.1079e-17
3.2623e-17
9.89717e-17
2.92619e-16
8.65124e-16
2.55753e-15
7.54939e-15
2.20472e-14
6.39901e-14
1.84773e-13
5.15783e-13
1.4609e-12
4.19929e-12
1.17722e-11
3.26759e-11
8.75984e-11
2.30479e-10
5.93371e-10
1.49149e-09
3.65584e-09
9.38785e-09
2.45252e-08
6.31004e-08
1.58076e-07
3.82502e-07
8.89998e-07
2.01937e-06
4.10888e-06
8.69917e-06
1.78059e-05
3.45791e-05
6.27638e-05
0.000110939
0.000185789
0.000294122
0.000439338
0.000612697
0.000820677
0.00105792
0.00131655
0.0015871
0.00186153
0.00212603
0.0023751
0.0026054
0.00281375
0.00299459
0.00313189
0.00316757
0.00296953
0.00242786
0.00171009
0.00104159
0.000572471
0.000306051
0.00016342
8.72689e-05
4.68204e-05
2.54209e-05
1.39027e-05
7.6015e-06
4.12171e-06
2.19954e-06
1.14693e-06
5.80296e-07
2.83298e-07
1.28782e-07
5.63957e-08
2.32703e-08
9.33702e-09
4.28453e-09
2.36665e-09
1.40351e-09
7.65331e-10
2.25706e-10
5.75307e-30
3.34535e-29
1.23389e-28
4.21184e-28
1.38551e-27
4.42187e-27
1.37417e-26
4.17238e-26
1.20647e-25
3.41018e-25
9.54433e-25
2.67055e-24
7.51843e-24
2.14102e-23
6.18346e-23
1.81549e-22
5.39036e-22
1.62246e-21
4.93555e-21
1.50852e-20
4.63837e-20
1.43533e-19
4.43346e-19
1.36827e-18
4.22291e-18
1.29422e-17
3.95433e-17
1.20362e-16
3.63011e-16
1.08398e-15
3.22244e-15
1.00002e-14
2.94771e-14
8.52154e-14
2.4486e-13
6.93614e-13
1.99314e-12
5.54977e-12
1.54451e-11
4.19649e-11
1.12663e-10
2.93027e-10
7.54379e-10
1.89046e-09
4.81402e-09
1.25441e-08
3.23528e-08
8.1654e-08
2.01622e-07
4.86398e-07
1.05108e-06
2.1514e-06
4.64859e-06
9.63825e-06
1.94712e-05
3.78342e-05
6.68606e-05
0.000115812
0.000191208
0.000298009
0.0004415
0.000612552
0.000817562
0.00105154
0.0013065
0.00157426
0.00184693
0.00211276
0.00236245
0.00259399
0.00280487
0.00298841
0.00312913
0.00317165
0.00298383
0.00244807
0.00172745
0.00105243
0.000577776
0.000308415
0.000164425
8.76774e-05
4.69889e-05
2.54796e-05
1.39124e-05
7.59214e-06
4.10728e-06
2.18606e-06
1.13592e-06
5.72453e-07
2.78162e-07
1.25801e-07
5.47612e-08
2.24901e-08
9.03774e-09
4.20221e-09
2.34168e-09
1.3929e-09
7.59618e-10
2.23527e-10
3.42459e-30
1.76652e-29
5.91167e-29
1.77861e-28
5.16468e-28
1.47412e-27
4.17084e-27
1.18815e-26
3.48918e-26
1.07353e-25
3.39658e-25
1.09843e-24
3.60481e-24
1.18938e-23
3.93106e-23
1.29857e-22
4.27607e-22
1.38252e-21
4.6803e-21
1.52054e-20
4.94532e-20
1.59749e-19
5.11992e-19
1.62556e-18
5.11135e-18
1.59386e-17
4.94737e-17
1.53717e-16
4.66724e-16
1.40689e-15
4.32389e-15
1.28419e-14
3.72656e-14
1.09127e-13
3.17298e-13
9.01442e-13
2.51757e-12
6.98391e-12
1.91978e-11
5.14812e-11
1.364e-10
3.41508e-10
9.12512e-10
2.24689e-09
5.89621e-09
1.50149e-08
3.87408e-08
9.68299e-08
2.31626e-07
5.48333e-07
1.17921e-06
2.43006e-06
5.22069e-06
1.09633e-05
2.14566e-05
3.95414e-05
6.88526e-05
0.000118354
0.000194098
0.00030126
0.000443921
0.000613372
0.000815854
0.00104639
0.00129832
0.00156347
0.00183399
0.00209853
0.00235009
0.00258358
0.00279753
0.00298335
0.00312784
0.00317746
0.00300067
0.00247117
0.00174698
0.0010644
0.000583512
0.000311004
0.000165583
8.81527e-05
4.71848e-05
2.55223e-05
1.39026e-05
7.56695e-06
4.08131e-06
2.16434e-06
1.12026e-06
5.61084e-07
2.70834e-07
1.21722e-07
5.26531e-08
2.15056e-08
8.68062e-09
4.10593e-09
2.31545e-09
1.38394e-09
7.55331e-10
2.21933e-10
2.37888e-30
1.20436e-29
4.07922e-29
1.25862e-28
3.8049e-28
1.15784e-27
3.59421e-27
1.17281e-26
3.8303e-26
1.26232e-25
4.24694e-25
1.42449e-24
4.84056e-24
1.62104e-23
5.41554e-23
1.80094e-22
5.95956e-22
1.96094e-21
6.40786e-21
2.0806e-20
6.70573e-20
2.15442e-19
6.85864e-19
2.16731e-18
6.87405e-18
2.13864e-17
6.60492e-17
2.01918e-16
5.98412e-16
1.87235e-15
5.55942e-15
1.64554e-14
4.80358e-14
1.39712e-13
4.0253e-13
1.13592e-12
3.14861e-12
8.71749e-12
2.33944e-11
6.37751e-11
1.67434e-10
4.27651e-10
1.10568e-09
2.72257e-09
6.83336e-09
1.77453e-08
4.51774e-08
1.10623e-07
2.68642e-07
5.85023e-07
1.24202e-06
2.7726e-06
5.96373e-06
1.21312e-05
2.33412e-05
4.07101e-05
7.08654e-05
0.000120999
0.000197351
0.00030392
0.000445542
0.000613415
0.00081383
0.00104219
0.00129171
0.00155449
0.00182302
0.00208766
0.00233993
0.00257482
0.00279064
0.00297889
0.00312713
0.00318324
0.00301737
0.00248625
0.00176174
0.00107403
0.00058835
0.000313254
0.000166604
8.86423e-05
4.7554e-05
2.53533e-05
1.38154e-05
7.51451e-06
4.04717e-06
2.14262e-06
1.10852e-06
5.46439e-07
2.62655e-07
1.17692e-07
5.06286e-08
2.05845e-08
8.35306e-09
4.02248e-09
2.2948e-09
1.37814e-09
7.52796e-10
2.20878e-10
3.47769e-30
1.78055e-29
6.18069e-29
1.9666e-28
6.13325e-28
1.91631e-27
6.03829e-27
1.9185e-26
6.12484e-26
2.01123e-25
6.55209e-25
2.15353e-24
7.15835e-24
2.35481e-23
7.84942e-23
2.57339e-22
8.4071e-22
2.77699e-21
9.02976e-21
2.91737e-20
9.37557e-20
2.97858e-19
9.40149e-19
2.94685e-18
9.18051e-18
2.8358e-17
8.69304e-17
2.6741e-16
8.06543e-16
2.40857e-15
7.13575e-15
2.14574e-14
6.20718e-14
1.7905e-13
5.07922e-13
1.4214e-12
3.90824e-12
1.05018e-11
2.87652e-11
7.64617e-11
1.98643e-10
5.07025e-10
1.26463e-09
3.19141e-09
7.94061e-09
2.04137e-08
5.08693e-08
1.25737e-07
2.82344e-07
6.06114e-07
1.37812e-06
3.03889e-06
6.546e-06
1.34541e-05
2.41116e-05
4.19859e-05
7.28281e-05
0.000123307
0.000199656
0.000306341
0.000447316
0.0006141
0.000812876
0.00103925
0.00128653
0.00154685
0.00181474
0.00207954
0.00233274
0.00256845
0.00278596
0.00297631
0.00312742
0.00318882
0.00303107
0.00250415
0.00177647
0.00108304
0.000592604
0.000315163
0.000167439
8.89885e-05
4.77025e-05
2.54164e-05
1.38264e-05
7.50585e-06
4.03319e-06
2.12935e-06
1.09786e-06
5.39311e-07
2.5792e-07
1.15144e-07
4.92651e-08
1.99476e-08
8.14185e-09
3.97646e-09
2.28902e-09
1.37951e-09
7.53916e-10
2.20939e-10
6.06233e-30
3.20068e-29
1.13154e-28
3.6796e-28
1.17012e-27
3.70441e-27
1.17335e-26
3.72666e-26
1.18667e-25
3.79057e-25
1.20978e-24
3.85489e-24
1.25326e-23
4.01328e-23
1.2843e-22
4.15108e-22
1.32861e-21
4.24877e-21
1.35829e-20
4.29562e-20
1.37209e-19
4.28352e-19
1.3265e-18
4.0839e-18
1.25933e-17
3.88992e-17
1.17486e-16
3.5077e-16
1.06087e-15
3.11985e-15
9.05449e-15
2.7401e-14
7.8098e-14
2.21348e-13
6.1383e-13
1.72561e-12
4.66012e-12
1.229e-11
3.41193e-11
9.26721e-11
2.34983e-10
5.8641e-10
1.46392e-09
3.63815e-09
9.15307e-09
2.28419e-08
5.81312e-08
1.32699e-07
2.94319e-07
6.65562e-07
1.50143e-06
3.30334e-06
6.97172e-06
1.41698e-05
2.52228e-05
4.34291e-05
7.44204e-05
0.000125527
0.000201818
0.000308185
0.000448448
0.000614125
0.000811497
0.00103634
0.00128227
0.00154166
0.00180829
0.00207216
0.00232573
0.00256287
0.00278212
0.00297398
0.00312724
0.00319248
0.0030409
0.00251852
0.00178886
0.0010907
0.000596367
0.000316959
0.000168266
8.93535e-05
4.78681e-05
2.55131e-05
1.38664e-05
7.5178e-06
4.03266e-06
2.12438e-06
1.09218e-06
5.35405e-07
2.55038e-07
1.13623e-07
4.84155e-08
1.95466e-08
8.02256e-09
3.95992e-09
2.29451e-09
1.38627e-09
7.57783e-10
2.21863e-10
9.82721e-30
5.06975e-29
1.80988e-28
5.84816e-28
1.83911e-27
5.8572e-27
1.83978e-26
5.80379e-26
1.83605e-25
5.81519e-25
1.84482e-24
5.85995e-24
1.86198e-23
5.91257e-23
1.87994e-22
5.98874e-22
1.90789e-21
6.02726e-21
1.90021e-20
6.01707e-20
1.88057e-19
5.82947e-19
1.7732e-18
5.54068e-18
1.67394e-17
5.03387e-17
1.50884e-16
4.37261e-16
1.34091e-15
3.95559e-15
1.14872e-14
3.30839e-14
9.49147e-14
2.68361e-13
7.4181e-13
2.06095e-12
5.67078e-12
1.4816e-11
4.08582e-11
1.067e-10
2.71301e-10
6.80389e-10
1.67048e-09
4.12051e-09
1.01241e-08
2.54158e-08
6.17993e-08
1.34785e-07
3.15405e-07
7.19179e-07
1.59987e-06
3.47729e-06
7.27603e-06
1.46676e-05
2.59692e-05
4.45343e-05
7.57335e-05
0.000126991
0.000203405
0.000309486
0.000448994
0.000613709
0.000809832
0.00103336
0.00127805
0.00153662
0.0018027
0.00206601
0.00232013
0.00255804
0.00277849
0.00297164
0.00312681
0.00319559
0.00304993
0.00253204
0.00180165
0.00109924
0.000600856
0.000319133
0.000169322
8.98578e-05
4.81157e-05
2.56533e-05
1.39341e-05
7.5478e-06
4.04386e-06
2.12691e-06
1.09119e-06
5.34178e-07
2.53712e-07
1.12896e-07
4.79645e-08
1.93255e-08
7.96685e-09
3.9635e-09
2.30766e-09
1.39669e-09
7.63589e-10
2.23411e-10
1.4242e-29
7.37963e-29
2.62025e-28
8.53967e-28
2.71499e-27
8.57232e-27
2.70194e-26
8.51774e-26
2.68659e-25
8.47734e-25
2.67413e-24
8.44212e-24
2.66921e-23
8.4379e-23
2.65737e-22
8.36946e-22
2.63516e-21
8.26356e-21
2.58375e-20
8.05867e-20
2.50281e-19
7.71067e-19
2.36029e-18
7.17225e-18
2.16536e-17
6.49782e-17
1.93194e-16
5.65921e-16
1.63712e-15
4.74535e-15
1.39037e-14
4.04499e-14
1.14635e-13
3.20448e-13
8.75107e-13
2.40116e-12
6.54727e-12
1.69357e-11
4.59037e-11
1.21538e-10
3.07374e-10
7.6014e-10
1.88949e-09
4.60376e-09
1.13396e-08
2.81485e-08
6.42971e-08
1.46032e-07
3.39576e-07
7.6888e-07
1.70814e-06
3.66425e-06
7.58294e-06
1.51457e-05
2.66455e-05
4.54114e-05
7.68001e-05
0.000128178
0.000204483
0.000310133
0.000448829
0.000612571
0.000807464
0.00102995
0.00127337
0.00153037
0.00179653
0.00205971
0.00231453
0.00255301
0.00277446
0.00296886
0.00312581
0.00319816
0.00305891
0.00254652
0.00181558
0.00110923
0.000606417
0.000321872
0.000170704
9.055e-05
4.84686e-05
2.58455e-05
1.40324e-05
7.59638e-06
4.06652e-06
2.1365e-06
1.09453e-06
5.35315e-07
2.53739e-07
1.12819e-07
4.78355e-08
1.92474e-08
7.95979e-09
3.98181e-09
2.32603e-09
1.40955e-09
7.70704e-10
2.25387e-10
1.88398e-29
9.80108e-29
3.49245e-28
1.13994e-27
3.62972e-27
1.146e-26
3.60647e-26
1.1343e-25
3.56891e-25
1.12739e-24
3.54451e-24
1.11302e-23
3.49471e-23
1.10172e-22
3.44994e-22
1.07887e-21
3.37427e-21
1.05108e-20
3.2595e-20
1.02182e-19
3.14933e-19
9.56318e-19
2.94934e-18
8.87515e-18
2.66731e-17
8.01855e-17
2.37793e-16
6.99159e-16
2.033e-15
5.81942e-15
1.667e-14
4.78107e-14
1.34477e-13
3.74363e-13
1.02876e-12
2.78121e-12
7.46731e-12
1.9151e-11
5.15746e-11
1.34548e-10
3.4156e-10
8.50372e-10
2.09006e-09
5.12076e-09
1.20135e-08
2.76816e-08
6.73018e-08
1.58327e-07
3.63866e-07
8.21858e-07
1.79897e-06
3.81897e-06
7.83658e-06
1.55362e-05
2.71536e-05
4.60585e-05
7.75732e-05
0.000128967
0.000205055
0.000310122
0.000447841
0.000610235
0.000803773
0.00102445
0.00126675
0.00152365
0.00178866
0.00205251
0.00230743
0.00254688
0.00276899
0.00296474
0.00312385
0.00320009
0.00306789
0.00256213
0.00183134
0.00112107
0.000613301
0.0003253
0.000172468
9.14536e-05
4.89364e-05
2.60929e-05
1.41618e-05
7.66304e-06
4.09991e-06
2.15251e-06
1.10171e-06
5.38474e-07
2.54904e-07
1.13279e-07
4.79683e-08
1.92845e-08
7.99296e-09
4.01225e-09
2.34858e-09
1.42427e-09
7.78783e-10
2.27679e-10
2.26626e-29
1.24602e-28
4.3804e-28
1.42357e-27
4.57468e-27
1.44386e-26
4.55723e-26
1.43463e-25
4.51014e-25
1.41629e-24
4.44927e-24
1.401e-23
4.38572e-23
1.37318e-22
4.29643e-22
1.33032e-21
4.24381e-21
1.31402e-20
4.06248e-20
1.24922e-19
3.80757e-19
1.17657e-18
3.56134e-18
1.07223e-17
3.20508e-17
9.53124e-17
2.81535e-16
8.23442e-16
2.42145e-15
6.99827e-15
1.99474e-14
5.60012e-14
1.55517e-13
4.28457e-13
1.16162e-12
3.10855e-12
8.21843e-12
2.11739e-11
5.76936e-11
1.47908e-10
3.68191e-10
9.12572e-10
2.23225e-09
5.28658e-09
1.22606e-08
3.02437e-08
7.24401e-08
1.69411e-07
3.89507e-07
8.69532e-07
1.88731e-06
3.97364e-06
8.07674e-06
1.57933e-05
2.75096e-05
4.65726e-05
7.81062e-05
0.000129402
0.000205154
0.000309629
0.000446467
0.000607712
0.000799453
0.00101873
0.00125971
0.00151544
0.00178042
0.00204491
0.00230043
0.00254036
0.00276365
0.00296075
0.00312188
0.00320221
0.00307828
0.00258106
0.00185108
0.00113613
0.000621927
0.000329531
0.000174634
9.25645e-05
4.95115e-05
2.639e-05
1.43173e-05
7.74476e-06
4.14215e-06
2.17375e-06
1.11201e-06
5.43247e-07
2.5697e-07
1.1416e-07
4.83042e-08
1.94097e-08
8.05445e-09
4.05089e-09
2.37392e-09
1.44023e-09
7.87517e-10
2.3019e-10
2.74537e-29
1.49785e-28
5.29001e-28
1.72641e-27
5.49781e-27
1.73594e-26
5.46612e-26
1.71874e-25
5.39277e-25
1.69379e-24
5.38132e-24
1.68681e-23
5.27759e-23
1.65731e-22
5.18973e-22
1.61395e-21
5.07104e-21
1.56441e-20
4.80934e-20
1.47918e-19
4.47376e-19
1.37978e-18
4.16001e-18
1.24685e-17
3.68223e-17
1.10293e-16
3.22579e-16
9.42168e-16
2.75832e-15
7.96089e-15
2.26376e-14
6.34363e-14
1.75018e-13
4.83091e-13
1.2986e-12
3.45826e-12
9.10292e-12
2.34364e-11
6.30702e-11
1.59757e-10
3.95306e-10
9.64888e-10
2.31032e-09
5.432e-09
1.33352e-08
3.25223e-08
7.77002e-08
1.81936e-07
4.14966e-07
9.22659e-07
1.99776e-06
4.20061e-06
8.58511e-06
1.58647e-05
2.77763e-05
4.69396e-05
7.84113e-05
0.00012951
0.000204809
0.000308379
0.000443957
0.000603898
0.000794962
0.00101287
0.00125271
0.0015076
0.00177214
0.00203646
0.00229309
0.00253395
0.00275792
0.00295617
0.00311892
0.00320309
0.00308706
0.00259829
0.00186998
0.00115094
0.000630826
0.000333997
0.000176963
9.37775e-05
5.01464e-05
2.67174e-05
1.44928e-05
7.83732e-06
4.19055e-06
2.19864e-06
1.12454e-06
5.49199e-07
2.59703e-07
1.15349e-07
4.87897e-08
1.96001e-08
8.1372e-09
4.09569e-09
2.40123e-09
1.45699e-09
7.96661e-10
2.32841e-10
3.30523e-29
1.7303e-28
6.147e-28
2.00492e-27
6.37679e-27
2.01192e-26
6.33686e-26
1.99678e-25
6.2796e-25
1.98774e-24
6.26099e-24
1.96601e-23
6.1552e-23
1.93365e-22
6.06974e-22
1.8892e-21
5.86002e-21
1.81308e-20
5.57954e-20
1.70875e-19
5.20182e-19
1.57266e-18
4.75814e-18
1.42174e-17
4.21997e-17
1.24232e-16
3.63716e-16
1.04693e-15
3.0735e-15
8.77321e-15
2.43371e-14
7.00654e-14
1.94151e-13
5.25458e-13
1.45054e-12
3.81571e-12
9.88849e-12
2.53881e-11
6.66539e-11
1.72156e-10
4.22003e-10
1.02269e-09
2.43913e-09
5.81401e-09
1.42416e-08
3.45816e-08
8.23679e-08
1.92079e-07
4.36184e-07
9.65313e-07
2.08098e-06
4.35701e-06
8.84108e-06
1.58684e-05
2.8012e-05
4.72401e-05
7.8576e-05
0.000129416
0.00020423
0.000307194
0.000441746
0.000600525
0.000789791
0.00100666
0.00124557
0.0014998
0.00176414
0.00202817
0.00228538
0.00252764
0.00275111
0.00295074
0.00311546
0.00320354
0.00309548
0.00261602
0.00188916
0.00116671
0.000640342
0.00033878
0.000179439
9.50651e-05
5.08207e-05
2.70642e-05
1.46797e-05
7.9387e-06
4.24491e-06
2.22718e-06
1.13902e-06
5.56078e-07
2.62934e-07
1.16782e-07
4.93947e-08
1.98406e-08
8.23576e-09
4.14458e-09
2.42956e-09
1.47403e-09
8.05931e-10
2.35546e-10
3.64133e-29
1.94743e-28
6.94378e-28
2.26244e-27
7.1979e-27
2.27346e-26
7.16956e-26
2.2603e-25
7.14383e-25
2.25567e-24
7.10598e-24
2.23202e-23
6.98494e-23
2.19958e-22
6.84401e-22
2.11776e-21
6.43235e-21
2.05748e-20
6.28952e-20
1.92698e-19
5.86214e-19
1.77298e-18
5.32981e-18
1.57048e-17
4.73389e-17
1.38013e-16
3.99616e-16
1.15052e-15
3.31786e-15
9.72037e-15
2.71499e-14
7.68738e-14
2.11541e-13
5.81087e-13
1.55413e-12
4.08106e-12
1.05184e-11
2.69067e-11
7.04653e-11
1.82779e-10
4.49476e-10
1.09235e-09
2.57816e-09
6.26154e-09
1.49997e-08
3.63402e-08
8.63272e-08
1.99704e-07
4.50439e-07
9.90639e-07
2.12248e-06
4.41778e-06
8.90698e-06
1.58622e-05
2.82774e-05
4.74691e-05
7.86114e-05
0.000129127
0.000203417
0.000305611
0.000439472
0.000597129
0.000785023
0.00100053
0.00123837
0.00149187
0.00175604
0.00201989
0.00227761
0.00252061
0.00274487
0.00294592
0.00311239
0.00320418
0.00310418
0.00263443
0.00190981
0.00118319
0.000650232
0.000343749
0.000182074
9.64578e-05
5.15538e-05
2.74338e-05
1.48776e-05
8.04512e-06
4.30185e-06
2.25727e-06
1.1547e-06
5.63659e-07
2.66578e-07
1.18369e-07
5.0064e-08
2.0108e-08
8.34241e-09
4.19633e-09
2.45926e-09
1.49188e-09
8.15656e-10
2.38387e-10
3.90061e-29
2.19212e-28
7.76343e-28
2.52893e-27
8.05706e-27
2.55187e-26
8.06939e-26
2.54349e-25
8.0056e-25
2.51725e-24
7.90054e-24
2.47121e-23
7.82526e-23
2.41342e-22
7.53235e-22
2.35501e-21
7.35808e-21
2.26366e-20
6.94024e-20
2.11184e-19
6.37262e-19
1.8925e-18
5.84813e-18
1.7317e-17
5.11328e-17
1.49495e-16
4.39146e-16
1.26426e-15
3.63639e-15
1.03457e-14
2.88801e-14
8.25859e-14
2.23705e-13
6.16546e-13
1.63868e-12
4.30831e-12
1.11334e-11
2.79419e-11
7.43368e-11
1.93199e-10
4.68906e-10
1.13171e-09
2.71073e-09
6.59825e-09
1.56557e-08
3.78477e-08
8.92212e-08
2.05223e-07
4.60562e-07
1.00802e-06
2.14938e-06
4.45634e-06
8.93839e-06
1.5848e-05
2.8468e-05
4.76315e-05
7.85749e-05
0.000128796
0.00020264
0.000304039
0.000436775
0.000593357
0.000780465
0.000994721
0.00123164
0.00148443
0.00174824
0.00201262
0.00227037
0.002514
0.00273903
0.00294103
0.00310917
0.00320441
0.00311179
0.00265192
0.00192952
0.00119932
0.000660265
0.000348856
0.000184738
9.78524e-05
5.22848e-05
2.78055e-05
1.5076e-05
8.15162e-06
4.3588e-06
2.28736e-06
1.17033e-06
5.71202e-07
2.70212e-07
1.19985e-07
5.07631e-08
2.03916e-08
8.45335e-09
4.24784e-09
2.4879e-09
1.50883e-09
8.2485e-10
2.41081e-10
4.58537e-29
2.38345e-28
8.47429e-28
2.76728e-27
8.81031e-27
2.78655e-26
8.8421e-26
2.77884e-25
8.69531e-25
2.70406e-24
8.59031e-24
2.73191e-23
8.4976e-23
2.62029e-22
8.33608e-22
2.56739e-21
7.88442e-21
2.45727e-20
7.49427e-20
2.25527e-19
6.99432e-19
2.10004e-18
6.29261e-18
1.85983e-17
5.53394e-17
1.60946e-16
4.68306e-16
1.34366e-15
3.83889e-15
1.105e-14
3.11767e-14
8.7029e-14
2.35744e-13
6.46825e-13
1.69775e-12
4.4131e-12
1.16794e-11
2.91951e-11
7.70843e-11
1.97067e-10
4.9658e-10
1.19432e-09
2.8664e-09
6.74882e-09
1.61849e-08
3.89303e-08
9.14077e-08
2.09462e-07
4.68408e-07
1.02173e-06
2.17102e-06
4.48125e-06
8.95612e-06
1.5833e-05
2.85879e-05
4.77126e-05
7.84382e-05
0.000128351
0.000201681
0.000302507
0.000434353
0.000589899
0.00077587
0.000989326
0.00122537
0.00147749
0.00174095
0.00200522
0.00226333
0.00250777
0.00273361
0.00293658
0.00310613
0.00320437
0.00311848
0.00266788
0.00194781
0.00121465
0.000669666
0.000353608
0.00018722
9.91512e-05
5.29645e-05
2.81488e-05
1.52597e-05
8.25048e-06
4.41181e-06
2.31545e-06
1.18499e-06
5.78283e-07
2.73632e-07
1.21497e-07
5.14163e-08
2.06565e-08
8.55699e-09
4.29507e-09
2.5138e-09
1.52407e-09
8.33116e-10
2.4351e-10
4.93362e-29
2.56669e-28
9.13056e-28
2.98367e-27
9.52775e-27
3.01301e-26
9.50478e-26
2.9942e-25
9.41281e-25
2.94948e-24
9.24738e-24
2.908e-23
9.09853e-23
2.84402e-22
8.87784e-22
2.75453e-21
8.47003e-21
2.62343e-20
7.99442e-20
2.43106e-19
7.40813e-19
2.23149e-18
6.68903e-18
1.98833e-17
5.84273e-17
1.69946e-16
4.94653e-16
1.4137e-15
3.99683e-15
1.15256e-14
3.21906e-14
9.00481e-14
2.47849e-13
6.68863e-13
1.77933e-12
4.68601e-12
1.21386e-11
3.1514e-11
8.08864e-11
2.09386e-10
5.11083e-10
1.21423e-09
2.92345e-09
6.89102e-09
1.65953e-08
3.97695e-08
9.30691e-08
2.12598e-07
4.73973e-07
1.03076e-06
2.18463e-06
4.49778e-06
8.96715e-06
1.58166e-05
2.86643e-05
4.77483e-05
7.82721e-05
0.00012787
0.000200768
0.000300965
0.000432133
0.000586933
0.000772101
0.000984886
0.0012201
0.00147162
0.00173482
0.00199912
0.00225728
0.00250232
0.00272888
0.00293266
0.00310338
0.00320418
0.00312397
0.00268135
0.00196337
0.00122767
0.00067774
0.000357708
0.000189364
0.000100273
5.35541e-05
2.84466e-05
1.54193e-05
8.33651e-06
4.45803e-06
2.34002e-06
1.19784e-06
5.84519e-07
2.76686e-07
1.22843e-07
5.19992e-08
2.08931e-08
8.64858e-09
4.33629e-09
2.53618e-09
1.53715e-09
8.40199e-10
2.45591e-10
4.85804e-29
2.71173e-28
9.61604e-28
3.13987e-27
1.00056e-26
3.16733e-26
1.00115e-25
3.15937e-25
9.9296e-25
3.10996e-24
9.79515e-24
3.06298e-23
9.57142e-23
2.98901e-22
9.31537e-22
2.89497e-21
9.01012e-21
2.76944e-20
8.45683e-20
2.57027e-19
7.81732e-19
2.33972e-18
7.03797e-18
2.0828e-17
6.12289e-17
1.78453e-16
5.15157e-16
1.46924e-15
4.18389e-15
1.19867e-14
3.35613e-14
9.44771e-14
2.57615e-13
6.93592e-13
1.84379e-12
4.86983e-12
1.26663e-11
3.24558e-11
8.27294e-11
2.11249e-10
5.18508e-10
1.24622e-09
2.92681e-09
6.97619e-09
1.6924e-08
4.04168e-08
9.43341e-08
2.14989e-07
4.78237e-07
1.03773e-06
2.19487e-06
4.50962e-06
8.9739e-06
1.58038e-05
2.87083e-05
4.77536e-05
7.81126e-05
0.000127492
0.000200081
0.000299857
0.000430511
0.000584567
0.000768944
0.000980919
0.00121563
0.00146677
0.00172978
0.00199402
0.00225232
0.0024979
0.00272508
0.00292956
0.00310124
0.003204
0.00312819
0.00269189
0.00197566
0.00123802
0.000684191
0.00036099
0.000191082
0.000101171
5.40239e-05
2.86838e-05
1.55465e-05
8.40521e-06
4.49502e-06
2.35973e-06
1.20819e-06
5.89541e-07
2.79143e-07
1.23928e-07
5.2471e-08
2.10848e-08
8.7216e-09
4.369e-09
2.55391e-09
1.54753e-09
8.45824e-10
2.47247e-10
5.31508e-29
2.77493e-28
9.86847e-28
3.25536e-27
1.03596e-26
3.27502e-26
1.0334e-25
3.26042e-25
1.02776e-24
3.2299e-24
1.01313e-23
3.17371e-23
9.93911e-23
3.1145e-22
9.74755e-22
3.02859e-21
9.36503e-21
2.88165e-20
8.81741e-20
2.68135e-19
8.10101e-19
2.42944e-18
7.23382e-18
2.13019e-17
6.32795e-17
1.84368e-16
5.346e-16
1.52989e-15
4.40619e-15
1.23826e-14
3.44988e-14
9.50838e-14
2.63231e-13
7.07301e-13
1.90095e-12
5.02238e-12
1.29546e-11
3.26646e-11
8.37743e-11
2.12593e-10
5.20579e-10
1.24581e-09
2.95535e-09
7.05561e-09
1.71586e-08
4.08813e-08
9.52364e-08
2.16692e-07
4.813e-07
1.04292e-06
2.20221e-06
4.51855e-06
8.97913e-06
1.57954e-05
2.87349e-05
4.77523e-05
7.79961e-05
0.000127213
0.000199569
0.000299033
0.000429311
0.000582913
0.000766793
0.000978302
0.00121264
0.00146346
0.00172633
0.00199059
0.00224887
0.00249483
0.00272245
0.00292735
0.00309965
0.0032038
0.00313107
0.00269925
0.0019843
0.00124534
0.000688766
0.000363324
0.000192305
0.000101815
5.43608e-05
2.88536e-05
1.56374e-05
8.45427e-06
4.52143e-06
2.37378e-06
1.21557e-06
5.93131e-07
2.80902e-07
1.24703e-07
5.28082e-08
2.12219e-08
8.77406e-09
4.39232e-09
2.56648e-09
1.55486e-09
8.49787e-10
2.48413e-10
5.40264e-29
2.86596e-28
1.01558e-27
3.31469e-27
1.05764e-26
3.35604e-26
1.06008e-25
3.34482e-25
1.05492e-24
3.323e-24
1.04422e-23
3.27423e-23
1.02451e-22
3.20072e-22
9.9937e-22
3.10148e-21
9.57953e-21
2.94511e-20
8.97421e-20
2.71779e-19
8.20995e-19
2.46183e-18
7.39712e-18
2.1787e-17
6.45494e-17
1.87487e-16
5.43591e-16
1.57136e-15
4.4746e-15
1.26262e-14
3.52474e-14
9.89199e-14
2.67759e-13
7.18948e-13
1.9299e-12
5.03018e-12
1.30989e-11
3.3132e-11
8.70738e-11
2.18847e-10
5.27256e-10
1.26502e-09
2.95581e-09
7.17131e-09
1.72837e-08
4.11626e-08
9.5828e-08
2.17821e-07
4.83306e-07
1.0462e-06
2.20695e-06
4.52434e-06
8.98371e-06
1.5793e-05
2.87551e-05
4.77591e-05
7.79437e-05
0.000127078
0.00019931
0.000298603
0.000428661
0.000582039
0.000765679
0.000976947
0.00121107
0.00146173
0.00172453
0.00198875
0.00224705
0.00249318
0.002721
0.00292616
0.00309881
0.00320367
0.00313257
0.00270312
0.00198888
0.00124923
0.000691208
0.000364571
0.00019296
0.00010216
5.45422e-05
2.89452e-05
1.56866e-05
8.48084e-06
4.53575e-06
2.38142e-06
1.21958e-06
5.95083e-07
2.81857e-07
1.25124e-07
5.29911e-08
2.12963e-08
8.80278e-09
4.40496e-09
2.57323e-09
1.55879e-09
8.51911e-10
2.49039e-10
5.34138e-29
2.86134e-28
1.03418e-27
3.36343e-27
1.07166e-26
3.38884e-26
1.06902e-25
3.37219e-25
1.06474e-24
3.37053e-24
1.05923e-23
3.31956e-23
1.03444e-22
3.18618e-22
1.01927e-21
3.14859e-21
9.71032e-21
2.98157e-20
9.1126e-20
2.76257e-19
8.40256e-19
2.52204e-18
7.5234e-18
2.22267e-17
6.48709e-17
1.91204e-16
5.52074e-16
1.59052e-15
4.57381e-15
1.29697e-14
3.61241e-14
9.89983e-14
2.73234e-13
7.41958e-13
1.96319e-12
5.11191e-12
1.33007e-11
3.32934e-11
8.77532e-11
2.17578e-10
5.35624e-10
1.27609e-09
3.016e-09
7.18108e-09
1.73557e-08
4.13328e-08
9.61759e-08
2.18495e-07
4.84546e-07
1.04836e-06
2.21044e-06
4.52921e-06
8.98931e-06
1.5797e-05
2.8778e-05
4.7781e-05
7.79516e-05
0.000127065
0.000199264
0.000298514
0.00042852
0.000581841
0.000765429
0.000976653
0.00121074
0.00146138
0.00172417
0.00198839
0.0022467
0.00249288
0.00272074
0.00292594
0.00309865
0.00320363
0.00313278
0.00270371
0.00198958
0.00124982
0.000691576
0.000364759
0.000193058
0.000102211
5.45687e-05
2.89585e-05
1.56937e-05
8.48468e-06
4.5378e-06
2.38251e-06
1.22015e-06
5.95354e-07
2.81989e-07
1.25182e-07
5.30163e-08
2.13064e-08
8.8065e-09
4.4067e-09
2.57419e-09
1.55934e-09
8.52207e-10
2.49125e-10
5.33342e-29
2.91439e-28
1.03617e-27
3.38318e-27
1.07952e-26
3.42018e-26
1.08087e-25
3.41119e-25
1.0752e-24
3.38376e-24
1.06311e-23
3.33388e-23
1.04203e-22
3.23886e-22
1.02235e-21
3.16332e-21
9.73711e-21
2.96555e-20
9.19918e-20
2.78813e-19
8.46274e-19
2.54413e-18
7.60308e-18
2.25626e-17
6.62477e-17
1.9249e-16
5.49315e-16
1.61924e-15
4.59891e-15
1.30074e-14
3.64526e-14
1.00661e-13
2.767e-13
7.42567e-13
1.98111e-12
5.14723e-12
1.33864e-11
3.36813e-11
8.82029e-11
2.18779e-10
5.38342e-10
1.26499e-09
3.05132e-09
7.20173e-09
1.73533e-08
4.13981e-08
9.63128e-08
2.18779e-07
4.85141e-07
1.04958e-06
2.21287e-06
4.53388e-06
8.99787e-06
1.58109e-05
2.88098e-05
4.78313e-05
7.80517e-05
0.000127228
0.000199513
0.000298874
0.000429018
0.0005825
0.000766264
0.000977659
0.0012119
0.00146265
0.0017255
0.00198972
0.002248
0.00249405
0.00272176
0.00292678
0.00309924
0.00320369
0.00313165
0.00270085
0.0019862
0.00124696
0.00068978
0.000363843
0.000192577
0.000101958
5.44357e-05
2.88915e-05
1.56577e-05
8.46521e-06
4.52729e-06
2.37689e-06
1.21718e-06
5.93913e-07
2.81278e-07
1.24867e-07
5.28785e-08
2.12502e-08
8.78521e-09
4.3973e-09
2.56916e-09
1.55642e-09
8.50622e-10
2.48657e-10
5.38865e-29
2.88927e-28
1.02242e-27
3.34353e-27
1.06862e-26
3.3913e-26
1.07288e-25
3.38636e-25
1.0664e-24
3.34975e-24
1.0493e-23
3.2789e-23
1.02355e-22
3.19735e-22
9.98461e-22
3.09536e-21
9.5035e-21
2.92876e-20
9.03083e-20
2.74238e-19
8.25476e-19
2.51221e-18
7.48223e-18
2.23828e-17
6.55332e-17
1.89984e-16
5.47506e-16
1.59272e-15
4.52608e-15
1.28005e-14
3.57344e-14
9.84828e-14
2.75619e-13
7.34826e-13
1.90766e-12
5.03123e-12
1.31292e-11
3.26645e-11
8.4931e-11
2.20383e-10
5.24161e-10
1.2756e-09
2.97305e-09
7.21911e-09
1.73433e-08
4.1333e-08
9.61956e-08
2.18612e-07
4.84987e-07
1.04969e-06
2.21402e-06
4.53787e-06
9.00863e-06
1.58345e-05
2.88518e-05
4.79124e-05
7.82462e-05
0.00012757
0.00020005
0.000299665
0.000430128
0.00058398
0.000768133
0.000979909
0.00121447
0.00146546
0.00172841
0.00199264
0.00225086
0.0024966
0.00272398
0.00292863
0.00310053
0.00320384
0.0031292
0.00269463
0.00197889
0.00124076
0.000685894
0.000361863
0.000191538
0.000101412
5.41492e-05
2.87471e-05
1.55802e-05
8.4233e-06
4.50469e-06
2.36482e-06
1.21082e-06
5.90814e-07
2.79756e-07
1.24196e-07
5.25852e-08
2.11309e-08
8.7403e-09
4.37744e-09
2.55847e-09
1.55017e-09
8.4723e-10
2.47657e-10
5.45235e-29
2.8292e-28
1.00447e-27
3.24006e-27
1.05379e-26
3.32169e-26
1.0486e-25
3.30654e-25
1.04097e-24
3.27258e-24
1.02731e-23
3.2189e-23
1.00641e-22
3.14082e-22
9.76641e-22
3.01796e-21
9.41456e-21
2.88803e-20
8.83002e-20
2.6876e-19
8.15528e-19
2.46872e-18
7.38072e-18
2.18717e-17
6.42594e-17
1.87191e-16
5.40862e-16
1.55388e-15
4.47633e-15
1.26474e-14
3.5388e-14
9.75162e-14
2.68942e-13
7.22994e-13
1.92649e-12
5.06363e-12
1.30393e-11
3.26622e-11
8.52815e-11
2.18248e-10
5.2754e-10
1.25097e-09
2.9548e-09
7.20871e-09
1.72557e-08
4.11395e-08
9.58502e-08
2.18046e-07
4.84199e-07
1.04894e-06
2.21437e-06
4.5422e-06
9.02365e-06
1.58707e-05
2.89093e-05
4.80324e-05
7.85503e-05
0.000128116
0.000200923
0.000300963
0.000431939
0.000586382
0.000771152
0.000983497
0.00121854
0.00146989
0.00173299
0.0019972
0.00225533
0.00250059
0.00272744
0.00293149
0.00310257
0.00320408
0.00312546
0.00268518
0.00196783
0.00123142
0.000680059
0.000358892
0.000189979
0.00010059
5.37182e-05
2.85299e-05
1.54637e-05
8.36034e-06
4.47074e-06
2.3467e-06
1.20129e-06
5.86178e-07
2.77479e-07
1.2319e-07
5.21463e-08
2.0952e-08
8.67195e-09
4.34736e-09
2.54236e-09
1.54079e-09
8.42149e-10
2.46159e-10
5.09919e-29
2.73423e-28
9.71489e-28
3.18232e-27
1.01225e-26
3.19567e-26
1.00951e-25
3.19615e-25
1.0059e-24
3.15965e-24
9.90712e-24
3.10197e-23
9.71054e-23
3.04784e-22
9.46328e-22
2.92535e-21
9.01009e-21
2.76297e-20
8.44903e-20
2.58293e-19
7.86047e-19
2.33656e-18
7.11248e-18
2.0889e-17
6.2478e-17
1.81805e-16
5.254e-16
1.50606e-15
4.34063e-15
1.23564e-14
3.3989e-14
9.6632e-14
2.62253e-13
7.0652e-13
1.88659e-12
4.93795e-12
1.28231e-11
3.24111e-11
8.26303e-11
2.0987e-10
5.21495e-10
1.24008e-09
2.90555e-09
7.11277e-09
1.71186e-08
4.08398e-08
9.52606e-08
2.16985e-07
4.82519e-07
1.04684e-06
2.2131e-06
4.54557e-06
9.04121e-06
1.59179e-05
2.89751e-05
4.81776e-05
7.8937e-05
0.000128826
0.00020207
0.000302685
0.000434367
0.000589644
0.000775334
0.000988357
0.00122396
0.00147574
0.00173902
0.00200322
0.00226115
0.00250583
0.00273191
0.00293516
0.00310512
0.0032043
0.00312048
0.00267283
0.00195348
0.00121936
0.000672554
0.000355073
0.00018797
9.95383e-05
5.3167e-05
2.82521e-05
1.53147e-05
8.27982e-06
4.42734e-06
2.32354e-06
1.18911e-06
5.80258e-07
2.74574e-07
1.21907e-07
5.15887e-08
2.07245e-08
8.58488e-09
4.30877e-09
2.52162e-09
1.52868e-09
8.35585e-10
2.44224e-10
4.99304e-29
2.59903e-28
9.27339e-28
3.02794e-27
9.61866e-27
3.03292e-26
9.62168e-26
3.02141e-25
9.48489e-25
3.00457e-24
9.39725e-24
2.93647e-23
9.17116e-23
2.86893e-22
9.01602e-22
2.79124e-21
8.59962e-21
2.64149e-20
8.11551e-20
2.43921e-19
7.52426e-19
2.25401e-18
6.75129e-18
2.00852e-17
5.93759e-17
1.73387e-16
5.04948e-16
1.44988e-15
4.18754e-15
1.17871e-14
3.28606e-14
9.21723e-14
2.52637e-13
6.82057e-13
1.78036e-12
4.75257e-12
1.23155e-11
3.13181e-11
8.09404e-11
2.09019e-10
5.03339e-10
1.24171e-09
2.91491e-09
6.99675e-09
1.68492e-08
4.03537e-08
9.437e-08
2.1538e-07
4.79909e-07
1.04313e-06
2.20958e-06
4.5469e-06
9.06005e-06
1.59738e-05
2.90312e-05
4.83357e-05
7.93863e-05
0.00012966
0.000203426
0.000304717
0.000437203
0.00059337
0.00077992
0.000993861
0.00123029
0.00148266
0.00174622
0.00201029
0.0022679
0.00251178
0.00273709
0.00293943
0.00310808
0.00320444
0.00311434
0.00265795
0.00193635
0.00120506
0.000663709
0.00035059
0.000185633
9.83118e-05
5.25213e-05
2.79255e-05
1.51384e-05
8.18466e-06
4.37608e-06
2.29622e-06
1.17476e-06
5.7329e-07
2.71163e-07
1.20396e-07
5.09278e-08
2.04552e-08
8.48154e-09
4.26281e-09
2.49687e-09