/*--------------------------------*- C++ -*----------------------------------*\
  =========                 |
  \\      /  F ield         | OpenFOAM: The Open Source CFD Toolbox
   \\    /   O peration     | Website:  https://openfoam.org
    \\  /    A nd           | Version:  10
     \\/     M anipulation  |
\*---------------------------------------------------------------------------*/
FoamFile
{
    format      ascii;
    class       volScalarField;
    location    "1";
    object      C3H6;
}
// * * * * * * * * * * * * * * * * * * * * * * * * * * * * * * * * * * * * * //

dimensions      [0 0 0 0 0 0 0];

internalField   nonuniform List<scalar> 
4000
(
2.64813e-23
6.39684e-23
9.41713e-23
1.40063e-22
2.09598e-22
2.90147e-22
3.8321e-22
4.87305e-22
6.1849e-22
8.1071e-22
1.09439e-21
1.36879e-21
1.6684e-21
2.01112e-21
2.50721e-21
3.38279e-21
5.25965e-21
1.01811e-20
2.35916e-20
6.16342e-20
1.70914e-19
4.81606e-19
1.46659e-18
4.30423e-18
1.28331e-17
3.81944e-17
1.12387e-16
3.40754e-16
1.00687e-15
2.97503e-15
8.78981e-15
2.59305e-14
7.56829e-14
2.19535e-13
6.33535e-13
1.76743e-12
5.00324e-12
1.43726e-11
4.02686e-11
1.11713e-10
2.99317e-10
7.87104e-10
2.02533e-09
5.08829e-09
1.24664e-08
3.19962e-08
8.3549e-08
2.1487e-07
5.38067e-07
1.30151e-06
3.02733e-06
6.86685e-06
1.3969e-05
2.95686e-05
6.05134e-05
0.000117508
0.000213283
0.000377006
0.000631455
0.000999828
0.00149385
0.00208391
0.00279216
0.0036004
0.00448179
0.00540431
0.00634091
0.00724468
0.00809654
0.008883
0.00958668
0.0101762
0.0105868
0.0106605
0.0101271
0.0087783
0.00683191
0.00459355
0.0026357
0.00136775
0.000704895
0.000369867
0.000197742
0.000107267
5.8655e-05
3.20663e-05
1.7385e-05
9.27642e-06
4.83667e-06
2.44696e-06
1.19455e-06
5.4309e-07
2.38005e-07
9.83427e-08
3.91887e-08
1.6985e-08
8.6376e-09
4.80543e-09
2.52727e-09
7.38148e-10
1.82748e-23
1.84058e-22
3.16921e-22
5.77708e-22
8.13522e-22
9.67958e-22
1.11277e-21
1.27229e-21
1.50818e-21
1.81131e-21
2.04619e-21
2.27794e-21
2.5609e-21
2.82303e-21
3.20782e-21
3.90954e-21
5.42649e-21
9.47117e-21
2.12412e-20
5.67932e-20
1.6545e-19
5.01559e-19
1.53754e-18
4.73002e-18
1.45765e-17
4.46313e-17
1.36266e-16
4.14499e-16
1.24935e-15
3.72834e-15
1.10773e-14
3.43532e-14
1.01201e-13
2.92385e-13
8.39627e-13
2.37697e-12
6.82602e-12
1.89964e-11
5.28341e-11
1.4347e-10
3.84957e-10
1.0007e-09
2.57487e-09
6.44915e-09
1.64148e-08
4.27505e-08
1.10208e-07
2.78029e-07
6.86237e-07
1.65488e-06
3.57503e-06
7.31552e-06
1.58027e-05
3.27582e-05
6.6167e-05
0.000128552
0.000227168
0.000393496
0.000649739
0.00101284
0.00150087
0.00208289
0.00278076
0.00357754
0.00444589
0.00535836
0.00628826
0.00719583
0.00804861
0.00883818
0.00954979
0.0101485
0.01057
0.0106623
0.0101525
0.00881899
0.00687336
0.00462534
0.00265281
0.00137498
0.000707961
0.000371179
0.000198278
0.000107427
5.86504e-05
3.20027e-05
1.73115e-05
9.21309e-06
4.78684e-06
2.4122e-06
1.17209e-06
5.30168e-07
2.3097e-07
9.49817e-08
3.78384e-08
1.65569e-08
8.49639e-09
4.7479e-09
2.50058e-09
7.29117e-10
1.66332e-22
3.72485e-22
6.72946e-22
9.55779e-22
1.41808e-21
1.61603e-21
1.78418e-21
2.01418e-21
2.32919e-21
2.49447e-21
2.74824e-21
2.90998e-21
3.08456e-21
3.32941e-21
3.55296e-21
4.08638e-21
5.35771e-21
9.06726e-21
2.09927e-20
5.78157e-20
1.76778e-19
5.58705e-19
1.77631e-18
5.62158e-18
1.76491e-17
5.49818e-17
1.70536e-16
5.29499e-16
1.60664e-15
4.83987e-15
1.48654e-14
4.41219e-14
1.27955e-13
3.7447e-13
1.0881e-12
3.08939e-12
8.62283e-12
2.39057e-11
6.56739e-11
1.76007e-10
4.66083e-10
1.16633e-09
3.11464e-09
7.66518e-09
2.01041e-08
5.11691e-08
1.31963e-07
3.29686e-07
7.88316e-07
1.86548e-06
4.01052e-06
8.26242e-06
1.77461e-05
3.72577e-05
7.29064e-05
0.000134342
0.000233914
0.000402086
0.000659466
0.00102369
0.00150875
0.0020851
0.00277402
0.00355847
0.00441598
0.00531886
0.00624056
0.00714222
0.00800056
0.00879589
0.00951742
0.0101231
0.0105563
0.0106674
0.0101829
0.00886509
0.0069191
0.00465917
0.00266995
0.00138216
0.000711171
0.000372589
0.000198849
0.000107478
5.85399e-05
3.18597e-05
1.71824e-05
9.11112e-06
4.71559e-06
2.36167e-06
1.13997e-06
5.12438e-07
2.21876e-07
9.073e-08
3.62138e-08
1.60576e-08
8.3443e-09
4.69263e-09
2.47696e-09
7.21526e-10
9.18441e-23
2.78358e-22
5.74143e-22
8.33417e-22
1.11694e-21
1.32127e-21
1.44527e-21
1.48455e-21
1.67897e-21
2.0381e-21
2.40876e-21
2.70585e-21
3.0722e-21
3.47375e-21
3.87072e-21
4.59127e-21
6.42793e-21
1.15477e-20
2.74473e-20
7.7737e-20
2.38449e-19
7.52527e-19
2.37923e-18
7.49569e-18
2.37398e-17
7.37898e-17
2.27716e-16
6.95671e-16
2.06038e-15
6.44218e-15
1.91158e-14
5.65445e-14
1.64957e-13
4.79456e-13
1.3805e-12
3.89321e-12
1.07847e-11
2.98412e-11
8.00377e-11
2.18048e-10
5.72141e-10
1.46049e-09
3.77394e-09
9.28792e-09
2.3299e-08
6.04732e-08
1.53883e-07
3.76632e-07
9.14248e-07
1.99026e-06
4.22399e-06
9.42636e-06
2.02702e-05
4.12238e-05
7.9303e-05
0.000138298
0.000240721
0.000411014
0.000670396
0.00103254
0.00151393
0.00208471
0.0027663
0.00354302
0.00439171
0.00528575
0.00619948
0.00710049
0.00795972
0.00875836
0.00948461
0.0100978
0.0105435
0.010673
0.0102141
0.00889268
0.0069523
0.0046847
0.00268259
0.00138723
0.000713542
0.000373937
0.000200085
0.000106609
5.80908e-05
3.15956e-05
1.70161e-05
9.00818e-06
4.66035e-06
2.29724e-06
1.10423e-06
4.94921e-07
2.13131e-07
8.674e-08
3.46988e-08
1.5614e-08
8.21529e-09
4.64973e-09
2.45974e-09
7.15848e-10
9.52239e-23
2.02256e-22
2.97089e-22
4.77534e-22
6.38877e-22
7.53785e-22
9.65877e-22
1.14079e-21
1.44714e-21
1.78836e-21
2.04272e-21
2.38247e-21
2.81205e-21
3.3267e-21
3.97325e-21
5.1237e-21
7.62688e-21
1.48623e-20
3.71579e-20
1.07446e-19
3.3165e-19
1.03858e-18
3.25932e-18
1.0191e-17
3.1708e-17
9.78566e-17
2.9975e-16
9.21434e-16
2.77728e-15
8.28819e-15
2.45388e-14
7.3739e-14
2.13174e-13
6.14505e-13
1.74207e-12
4.87207e-12
1.33878e-11
3.59516e-11
9.84115e-11
2.61438e-10
6.78804e-10
1.73162e-09
4.3165e-09
1.08874e-08
2.70743e-08
6.95662e-08
1.73268e-07
4.28087e-07
9.60872e-07
2.06198e-06
4.68661e-06
1.03311e-05
2.22477e-05
4.57155e-05
8.19147e-05
0.00014262
0.000247364
0.00041881
0.000678144
0.0010406
0.00151966
0.00208654
0.00276229
0.00353184
0.00437232
0.00525702
0.00616788
0.00706874
0.00793017
0.00873012
0.00946073
0.0100803
0.0105343
0.0106772
0.0102368
0.0089263
0.00698459
0.00470788
0.00269322
0.00139141
0.000715406
0.000374803
0.000200437
0.000106736
5.80627e-05
3.15195e-05
1.69363e-05
8.94144e-06
4.60999e-06
2.26458e-06
1.08307e-06
4.83669e-07
2.07183e-07
8.39554e-08
3.36846e-08
1.53351e-08
8.14895e-09
4.63505e-09
2.45606e-09
7.1416e-10
3.77962e-23
1.33137e-22
3.16903e-22
5.48823e-22
7.32049e-22
9.16061e-22
1.07321e-21
1.3057e-21
1.40695e-21
1.56068e-21
1.82865e-21
2.27419e-21
2.77994e-21
3.25789e-21
4.10896e-21
5.66157e-21
9.33928e-21
2.01205e-20
5.3007e-20
1.55588e-19
4.82927e-19
1.49077e-18
4.59636e-18
1.41224e-17
4.34982e-17
1.34246e-16
4.05162e-16
1.20883e-15
3.65342e-15
1.07368e-14
3.11398e-14
9.41716e-14
2.68227e-13
7.5972e-13
2.1055e-12
5.9151e-12
1.5964e-11
4.20769e-11
1.16734e-10
3.16869e-10
8.03e-10
2.00276e-09
4.99687e-09
1.24117e-08
3.1208e-08
7.78407e-08
1.97999e-07
4.51786e-07
1.00163e-06
2.26414e-06
5.10574e-06
1.12295e-05
2.36931e-05
4.81438e-05
8.5683e-05
0.00014751
0.000252749
0.000426298
0.000685395
0.00104669
0.00152321
0.00208618
0.00275693
0.00352093
0.00435646
0.00523754
0.00614317
0.00703972
0.0079013
0.00870545
0.00944133
0.0100652
0.0105255
0.0106792
0.0102531
0.00895381
0.0070123
0.00472831
0.0027035
0.00139593
0.000717559
0.000375852
0.000200908
0.000107026
5.81676e-05
3.15355e-05
1.69158e-05
8.91097e-06
4.58121e-06
2.24579e-06
1.06984e-06
4.76794e-07
2.0342e-07
8.21774e-08
3.30787e-08
1.51933e-08
8.13328e-09
4.64278e-09
2.46281e-09
7.15649e-10
3.81585e-23
1.38361e-22
2.15202e-22
3.53717e-22
4.44386e-22
5.91142e-22
7.68352e-22
1.02105e-21
1.36473e-21
1.7224e-21
2.16774e-21
2.57996e-21
3.01039e-21
3.52609e-21
4.32526e-21
6.21839e-21
1.12485e-20
2.61779e-20
7.17468e-20
2.15011e-19
6.58547e-19
2.02565e-18
6.14123e-18
1.91576e-17
5.78218e-17
1.73744e-16
5.20396e-16
1.50709e-15
4.61818e-15
1.36142e-14
3.95091e-14
1.13713e-13
3.26006e-13
9.21152e-13
2.54465e-12
7.06491e-12
1.94271e-11
5.07252e-11
1.39793e-10
3.64845e-10
9.27119e-10
2.32373e-09
5.70214e-09
1.40572e-08
3.452e-08
8.66138e-08
2.105e-07
4.58907e-07
1.07338e-06
2.44648e-06
5.44034e-06
1.18205e-05
2.47263e-05
4.98326e-05
8.82133e-05
0.000151253
0.000257187
0.000431226
0.000690703
0.00105096
0.00152481
0.00208437
0.00275066
0.00350995
0.00434091
0.00521882
0.00612205
0.00701588
0.00787855
0.00868445
0.00942368
0.0100513
0.0105176
0.0106809
0.0102688
0.00898085
0.00704253
0.00475318
0.00271808
0.00140282
0.000720947
0.000377552
0.000201745
0.000107511
5.83955e-05
3.1631e-05
1.69466e-05
8.91307e-06
4.57272e-06
2.23853e-06
1.06328e-06
4.73314e-07
2.01356e-07
8.11677e-08
3.27572e-08
1.51468e-08
8.15298e-09
4.66614e-09
2.47709e-09
7.19453e-10
4.24134e-23
1.17332e-22
2.52934e-22
4.72191e-22
6.49461e-22
8.64944e-22
1.08195e-21
1.35343e-21
1.59042e-21
1.91986e-21
2.24293e-21
2.77775e-21
3.3892e-21
4.0869e-21
5.06391e-21
7.59881e-21
1.45233e-20
3.46284e-20
9.61394e-20
2.8652e-19
8.74568e-19
2.67714e-18
8.17244e-18
2.47987e-17
7.4799e-17
2.24282e-16
6.6636e-16
1.95061e-15
5.63899e-15
1.63337e-14
4.78253e-14
1.3904e-13
3.93774e-13
1.10001e-12
3.00203e-12
8.23161e-12
2.2431e-11
5.79856e-11
1.57068e-10
4.15592e-10
1.05043e-09
2.59619e-09
6.44967e-09
1.57056e-08
3.86644e-08
9.59253e-08
2.19011e-07
4.97194e-07
1.15562e-06
2.61551e-06
5.8084e-06
1.24557e-05
2.57684e-05
5.14547e-05
9.05054e-05
0.000154222
0.000260789
0.000435217
0.000694283
0.00105301
0.00152401
0.00208013
0.00274206
0.00349761
0.00432389
0.00519592
0.00609906
0.00699184
0.00785621
0.00866325
0.00940531
0.0100367
0.0105086
0.010682
0.0102853
0.00901089
0.00707694
0.00478442
0.00273849
0.00141287
0.000725967
0.000380101
0.000203047
0.000108223
5.87574e-05
3.18075e-05
1.70271e-05
8.94573e-06
4.58288e-06
2.24142e-06
1.06251e-06
4.7261e-07
2.0066e-07
8.07693e-08
3.26562e-08
1.51716e-08
8.19751e-09
4.70026e-09
2.49656e-09
7.24869e-10
6.89197e-23
2.22133e-22
4.28476e-22
7.192e-22
8.53132e-22
1.01614e-21
1.18729e-21
1.42895e-21
1.66427e-21
1.9452e-21
2.15228e-21
2.51794e-21
3.02973e-21
3.76207e-21
5.16176e-21
8.23468e-21
1.67124e-20
4.2106e-20
1.19356e-19
3.60948e-19
1.0982e-18
3.31804e-18
1.02101e-17
3.06865e-17
9.21417e-17
2.76786e-16
8.20233e-16
2.40996e-15
7.00283e-15
2.00321e-14
5.73434e-14
1.6435e-13
4.61961e-13
1.28517e-12
3.5293e-12
9.53517e-12
2.55842e-11
6.5573e-11
1.76478e-10
4.60114e-10
1.16728e-09
2.90439e-09
7.13438e-09
1.74698e-08
4.09631e-08
9.43403e-08
2.2925e-07
5.3905e-07
1.23828e-06
2.7957e-06
6.11715e-06
1.29813e-05
2.66295e-05
5.27791e-05
9.2227e-05
0.000156411
0.000263395
0.000437856
0.000696148
0.00105284
0.00152042
0.0020718
0.00272894
0.003478
0.00430018
0.00517165
0.00607022
0.00696473
0.00782859
0.00863824
0.00938174
0.0100176
0.0104971
0.0106821
0.0103025
0.00904442
0.00711719
0.00482315
0.00276552
0.00142652
0.000732809
0.000383582
0.000204847
0.000109175
5.92537e-05
3.20622e-05
1.71539e-05
9.00597e-06
4.60948e-06
2.25296e-06
1.0666e-06
4.74193e-07
2.01077e-07
8.08634e-08
3.27393e-08
1.52554e-08
8.26226e-09
4.74273e-09
2.51992e-09
7.31492e-10
6.50456e-23
2.24016e-22
3.86891e-22
5.56148e-22
7.10509e-22
9.12074e-22
1.17906e-21
1.5047e-21
1.80644e-21
2.07494e-21
2.36284e-21
2.90358e-21
3.60287e-21
4.38314e-21
6.0225e-21
9.74899e-21
2.04423e-20
5.16826e-20
1.47838e-19
4.4065e-19
1.32708e-18
4.08122e-18
1.23281e-17
3.70734e-17
1.10724e-16
3.29021e-16
9.71167e-16
2.83849e-15
8.34122e-15
2.40907e-14
6.86204e-14
1.92519e-13
5.34275e-13
1.47097e-12
3.98541e-12
1.06582e-11
2.816e-11
7.25047e-11
1.9742e-10
5.0581e-10
1.25836e-09
3.11703e-09
7.62006e-09
1.80364e-08
4.18078e-08
1.03072e-07
2.46753e-07
5.76785e-07
1.32553e-06
2.95785e-06
6.41749e-06
1.35069e-05
2.7445e-05
5.36513e-05
9.34326e-05
0.000158148
0.000265188
0.0004393
0.000696425
0.00105106
0.00151558
0.00206296
0.0027138
0.00345792
0.0042753
0.00514236
0.00604049
0.00693679
0.00780207
0.00861252
0.00935962
0.0100002
0.0104867
0.0106837
0.010324
0.00908648
0.00716868
0.00487341
0.0028004
0.00144403
0.000741485
0.000387958
0.000207107
0.000110342
5.98635e-05
3.23822e-05
1.73189e-05
9.08876e-06
4.64944e-06
2.27143e-06
1.07454e-06
4.77569e-07
2.02358e-07
8.13338e-08
3.29529e-08
1.53804e-08
8.34113e-09
4.79105e-09
2.54604e-09
7.38974e-10
6.2373e-23
2.23558e-22
4.18456e-22
5.57934e-22
6.9489e-22
8.48978e-22
1.00588e-21
1.15558e-21
1.41737e-21
1.714e-21
2.15464e-21
2.60411e-21
3.25166e-21
4.21093e-21
5.86493e-21
1.0051e-20
2.24155e-20
5.95185e-20
1.72823e-19
5.1993e-19
1.55765e-18
4.785e-18
1.43999e-17
4.31126e-17
1.27214e-16
3.80758e-16
1.11283e-15
3.24799e-15
9.50224e-15
2.7406e-14
7.78791e-14
2.1809e-13
6.01303e-13
1.65861e-12
4.45555e-12
1.18575e-11
3.11913e-11
8.02513e-11
2.15829e-10
5.46352e-10
1.35108e-09
3.29585e-09
7.88699e-09
1.85335e-08
4.54716e-08
1.10837e-07
2.64668e-07
6.19422e-07
1.41215e-06
3.13852e-06
6.79288e-06
1.42779e-05
2.91714e-05
5.38924e-05
9.4335e-05
0.000159387
0.000266209
0.000439638
0.000695195
0.0010467
0.00150686
0.00204972
0.00269818
0.00343746
0.00425077
0.00511469
0.00601096
0.00690617
0.0077749
0.00858817
0.00933727
0.00998183
0.0104741
0.0106827
0.0103425
0.00912508
0.00721848
0.00492365
0.00283737
0.00146311
0.000751051
0.000392819
0.000209641
0.000111645
6.05617e-05
3.27502e-05
1.75112e-05
9.18752e-06
4.69917e-06
2.295e-06
1.08535e-06
4.82272e-07
2.04278e-07
8.20847e-08
3.32653e-08
1.55363e-08
8.43024e-09
4.84337e-09
2.57397e-09
7.47027e-10
3.2436e-23
1.14396e-22
2.91647e-22
4.42951e-22
5.46768e-22
7.32033e-22
9.54255e-22
1.27534e-21
1.48972e-21
1.83563e-21
2.26785e-21
2.77124e-21
3.39525e-21
4.2947e-21
6.12437e-21
1.10114e-20
2.52461e-20
6.83975e-20
1.99559e-19
5.98973e-19
1.80943e-18
5.45263e-18
1.647e-17
4.91612e-17
1.458e-16
4.28905e-16
1.25481e-15
3.60931e-15
1.05888e-14
3.02046e-14
8.37323e-14
2.40886e-13
6.67056e-13
1.80418e-12
4.97693e-12
1.30836e-11
3.38845e-11
8.69392e-11
2.28098e-10
5.88774e-10
1.44236e-09
3.49337e-09
8.32686e-09
1.98368e-08
4.8562e-08
1.17854e-07
2.80564e-07
6.53944e-07
1.48433e-06
3.28353e-06
7.07567e-06
1.48091e-05
3.00403e-05
5.39041e-05
9.5132e-05
0.000160401
0.000266755
0.000439291
0.00069318
0.0010426
0.00149923
0.00203807
0.00268029
0.00341593
0.00422589
0.00508735
0.00598263
0.00687646
0.00774665
0.00856437
0.00931173
0.00996111
0.0104606
0.0106813
0.0103607
0.00916548
0.00726958
0.00497771
0.00287739
0.00148391
0.000761371
0.000398031
0.000212356
0.000113038
6.13117e-05
3.31568e-05
1.77292e-05
9.302e-06
4.75722e-06
2.32257e-06
1.0983e-06
4.88014e-07
2.06706e-07
8.30498e-08
3.3651e-08
1.57136e-08
8.52547e-09
4.89767e-09
2.6027e-09
7.55353e-10
2.3747e-23
8.49965e-23
2.68005e-22
3.90432e-22
6.01604e-22
8.67658e-22
1.26356e-21
1.59343e-21
1.84e-21
2.193e-21
2.59773e-21
3.02275e-21
3.6317e-21
4.59897e-21
6.62069e-21
1.22099e-20
2.75763e-20
7.69447e-20
2.24408e-19
6.75049e-19
2.03903e-18
6.14697e-18
1.8449e-17
5.43077e-17
1.63561e-16
4.76505e-16
1.37876e-15
3.96676e-15
1.14311e-14
3.34662e-14
9.34125e-14
2.64306e-13
7.26824e-13
1.99517e-12
5.33264e-12
1.39941e-11
3.60447e-11
9.21429e-11
2.4115e-10
6.25113e-10
1.53628e-09
3.73135e-09
8.80163e-09
2.13632e-08
5.1147e-08
1.23846e-07
2.94047e-07
6.79896e-07
1.53282e-06
3.36963e-06
7.21669e-06
1.50155e-05
3.02638e-05
5.38821e-05
9.60308e-05
0.000161174
0.000266865
0.000438288
0.000690381
0.00103716
0.0014914
0.00202638
0.00266386
0.00339476
0.00420093
0.00505971
0.00595418
0.00684703
0.00771861
0.00853849
0.00928837
0.00994289
0.0104488
0.0106809
0.0103803
0.00920782
0.00732437
0.00503386
0.00291896
0.00150566
0.000772404
0.000403679
0.000215314
0.000114527
6.21087e-05
3.35856e-05
1.79588e-05
9.42335e-06
4.8205e-06
2.35316e-06
1.11301e-06
4.94421e-07
2.09411e-07
8.41324e-08
3.40761e-08
1.59053e-08
8.62693e-09
4.95519e-09
2.63307e-09
7.64158e-10
4.1885e-23
1.63507e-22
2.3344e-22
3.65612e-22
5.23699e-22
7.31714e-22
1.08797e-21
1.32167e-21
1.5692e-21
1.92806e-21
2.27891e-21
2.85099e-21
3.60645e-21
4.83489e-21
7.3018e-21
1.33161e-20
3.10075e-20
8.42713e-20
2.47031e-19
7.38875e-19
2.21582e-18
6.56092e-18
2.02417e-17
5.98808e-17
1.76676e-16
5.16167e-16
1.51516e-15
4.35902e-15
1.2529e-14
3.56208e-14
9.93704e-14
2.83954e-13
7.68669e-13
2.11699e-12
5.62294e-12
1.47736e-11
3.81528e-11
9.56906e-11
2.54407e-10
6.60758e-10
1.60272e-09
3.86586e-09
9.25429e-09
2.25118e-08
5.33842e-08
1.28985e-07
3.03906e-07
6.98687e-07
1.56727e-06
3.42874e-06
7.30811e-06
1.51465e-05
3.03703e-05
5.38331e-05
9.66762e-05
0.000161721
0.000266733
0.00043715
0.000687714
0.00103177
0.00148215
0.00201342
0.00264818
0.00337473
0.00417764
0.00503386
0.00592687
0.00682135
0.00769272
0.00851442
0.00926678
0.00992475
0.0104369
0.0106798
0.0103976
0.00924836
0.00737689
0.00508916
0.00296153
0.00152829
0.000783682
0.000409384
0.000218286
0.000116034
6.29127e-05
3.40171e-05
1.81895e-05
9.54529e-06
4.88391e-06
2.38374e-06
1.12776e-06
5.00979e-07
2.12252e-07
8.52865e-08
3.45231e-08
1.60994e-08
8.72624e-09
5.01041e-09
2.66204e-09
7.72572e-10
6.36296e-23
1.79225e-22
3.2269e-22
5.30033e-22
6.80294e-22
7.99008e-22
9.50301e-22
1.13325e-21
1.43451e-21
1.93025e-21
2.44147e-21
3.10044e-21
3.88412e-21
5.11781e-21
7.57799e-21
1.3994e-20
3.28037e-20
9.11699e-20
2.66143e-19
7.88427e-19
2.43011e-18
7.27813e-18
2.17794e-17
6.43127e-17
1.91212e-16
5.55718e-16
1.61583e-15
4.6329e-15
1.32271e-14
3.80472e-14
1.07272e-13
2.99243e-13
8.10057e-13
2.22102e-12
5.82583e-12
1.51335e-11
4.00253e-11
9.99881e-11
2.63815e-10
6.74007e-10
1.69731e-09
4.07966e-09
9.7853e-09
2.30259e-08
5.51889e-08
1.32675e-07
3.11355e-07
7.13122e-07
1.59397e-06
3.47539e-06
7.38169e-06
1.52311e-05
3.04304e-05
5.37816e-05
9.70819e-05
0.000161993
0.000266262
0.000435626
0.000684434
0.00102653
0.00147385
0.00200157
0.0026324
0.00335617
0.00415601
0.00500982
0.00590149
0.00679536
0.00766773
0.00849195
0.00924701
0.0099085
0.0104259
0.0106784
0.010413
0.00928548
0.00742564
0.00514156
0.00300128
0.00154939
0.000794209
0.000414705
0.000221053
0.000117428
6.36588e-05
3.44187e-05
1.84049e-05
9.65948e-06
4.9435e-06
2.41253e-06
1.14167e-06
5.0713e-07
2.14913e-07
8.63684e-08
3.49447e-08
1.62794e-08
8.81689e-09
5.06042e-09
2.68821e-09
7.8019e-10
4.11692e-23
2.03301e-22
4.13882e-22
6.32124e-22
8.1461e-22
1.00044e-21
1.12827e-21
1.29203e-21
1.5541e-21
1.76075e-21
2.07849e-21
2.66948e-21
3.29255e-21
4.46372e-21
7.10013e-21
1.40926e-20
3.44883e-20
9.68641e-20
2.83488e-19
8.49385e-19
2.57354e-18
7.73343e-18
2.31516e-17
6.87568e-17
2.01891e-16
5.86816e-16
1.7068e-15
4.87461e-15
1.37721e-14
3.96855e-14
1.10763e-13
3.09633e-13
8.51658e-13
2.29676e-12
6.10582e-12
1.60691e-11
4.15971e-11
1.07922e-10
2.76828e-10
7.16121e-10
1.74689e-09
4.14785e-09
9.98039e-09
2.35113e-08
5.65886e-08
1.35536e-07
3.17017e-07
7.23803e-07
1.61292e-06
3.50612e-06
7.42799e-06
1.52873e-05
3.04678e-05
5.37257e-05
9.73404e-05
0.000162112
0.000265694
0.000433983
0.000681316
0.00102126
0.00146626
0.00199141
0.00261947
0.00334091
0.00413787
0.00498953
0.00588017
0.00677398
0.00764635
0.00847242
0.00922985
0.00989433
0.0104162
0.0106768
0.0104257
0.00931678
0.00746693
0.00518589
0.00303536
0.00156763
0.000803325
0.000419309
0.000223456
0.000118639
6.43076e-05
3.47685e-05
1.85929e-05
9.75944e-06
4.99586e-06
2.43792e-06
1.15412e-06
5.12616e-07
2.17292e-07
8.73366e-08
3.53188e-08
1.64376e-08
8.89575e-09
5.10359e-09
2.71072e-09
7.86741e-10
3.62253e-23
1.76734e-22
3.2779e-22
4.18193e-22
6.08662e-22
8.74996e-22
1.12606e-21
1.51614e-21
1.79247e-21
2.055e-21
2.39689e-21
2.88228e-21
3.46375e-21
4.55099e-21
7.24926e-21
1.45383e-20
3.6125e-20
1.01392e-19
2.99201e-19
8.97819e-19
2.71602e-18
8.10932e-18
2.43609e-17
7.2026e-17
2.11574e-16
6.16192e-16
1.77756e-15
5.06634e-15
1.4417e-14
4.12741e-14
1.15481e-13
3.24864e-13
8.85218e-13
2.38171e-12
6.32705e-12
1.66996e-11
4.34065e-11
1.1115e-10
2.83141e-10
7.22512e-10
1.77229e-09
4.2571e-09
9.99186e-09
2.38024e-08
5.77102e-08
1.37743e-07
3.21329e-07
7.31951e-07
1.62744e-06
3.52987e-06
7.46288e-06
1.53276e-05
3.04908e-05
5.36822e-05
9.74892e-05
0.000162129
0.00026515
0.000432697
0.000678972
0.00101748
0.00146072
0.00198332
0.00260866
0.0033273
0.0041225
0.00497276
0.00586266
0.00675616
0.00762884
0.00845661
0.00921616
0.00988315
0.0104087
0.0106756
0.0104356
0.00934131
0.00749947
0.00522105
0.00306258
0.00158228
0.000810644
0.000422994
0.000225371
0.000119604
6.48251e-05
3.50479e-05
1.87434e-05
9.8397e-06
5.03801e-06
2.45839e-06
1.16414e-06
5.17041e-07
2.19218e-07
8.81211e-08
3.56173e-08
1.65635e-08
8.95841e-09
5.13792e-09
2.72864e-09
7.91963e-10
7.18388e-23
2.62134e-22
4.53241e-22
5.97765e-22
6.65298e-22
7.24246e-22
8.91093e-22
1.21641e-21
1.3404e-21
1.55117e-21
1.85252e-21
2.23844e-21
2.83399e-21
3.93542e-21
6.84098e-21
1.46862e-20
3.74341e-20
1.05547e-19
3.12258e-19
9.36716e-19
2.81465e-18
8.42021e-18
2.50389e-17
7.3667e-17
2.18666e-16
6.36635e-16
1.84471e-15
5.27544e-15
1.51828e-14
4.26383e-14
1.18711e-13
3.2696e-13
9.04541e-13
2.42882e-12
6.52332e-12
1.72231e-11
4.43956e-11
1.11867e-10
2.86716e-10
7.27147e-10
1.7794e-09
4.25574e-09
1.00897e-08
2.40737e-08
5.85107e-08
1.39328e-07
3.24405e-07
7.37757e-07
1.63788e-06
3.54756e-06
7.48788e-06
1.53581e-05
3.05087e-05
5.36539e-05
9.75796e-05
0.000162125
0.000264754
0.000431748
0.000677231
0.00101467
0.00145663
0.00197767
0.00260131
0.00331835
0.00411225
0.00496139
0.00585074
0.00674418
0.00761672
0.0084457
0.00920671
0.0098753
0.0104032
0.0106745
0.0104423
0.00935845
0.00752234
0.00524586
0.00308188
0.00159272
0.000815865
0.000425642
0.000226746
0.000120295
6.51953e-05
3.52477e-05
1.8851e-05
9.89699e-06
5.06812e-06
2.47304e-06
1.17132e-06
5.20206e-07
2.20596e-07
8.86832e-08
3.58324e-08
1.66535e-08
9.00292e-09
5.16219e-09
2.74127e-09
7.95644e-10
5.98119e-23
1.88324e-22
3.06293e-22
4.53288e-22
5.42543e-22
6.66462e-22
8.13219e-22
1.04891e-21
1.2606e-21
1.49976e-21
1.87333e-21
2.33253e-21
2.92488e-21
4.1228e-21
7.00546e-21
1.48019e-20
3.78832e-20
1.07579e-19
3.17507e-19
9.49538e-19
2.85264e-18
8.53284e-18
2.56049e-17
7.53474e-17
2.23061e-16
6.47425e-16
1.8758e-15
5.41859e-15
1.54192e-14
4.34791e-14
1.21295e-13
3.40161e-13
9.20126e-13
2.46889e-12
6.62281e-12
1.72503e-11
4.4891e-11
1.13471e-10
2.9801e-10
7.48522e-10
1.80229e-09
4.32141e-09
1.00914e-08
2.44685e-08
5.89379e-08
1.40288e-07
3.26424e-07
7.41609e-07
1.64473e-06
3.55875e-06
7.50408e-06
1.53779e-05
3.05246e-05
5.36462e-05
9.76489e-05
0.000162148
0.000264578
0.000431291
0.000676354
0.00101321
0.00145442
0.0019747
0.00259752
0.00331373
0.00410688
0.00495548
0.00584453
0.00673781
0.00761036
0.0084399
0.00920157
0.00987109
0.0104003
0.010674
0.0104458
0.0093675
0.00753445
0.00525905
0.00309218
0.00159831
0.000818665
0.000427061
0.000227487
0.000120668
6.53957e-05
3.5356e-05
1.89094e-05
9.92815e-06
5.08449e-06
2.481e-06
1.17522e-06
5.21925e-07
2.21344e-07
8.89885e-08
3.59502e-08
1.67024e-08
9.0269e-09
5.17522e-09
2.74806e-09
7.97622e-10
5.80519e-23
2.23194e-22
3.99174e-22
5.60899e-22
6.59422e-22
7.69853e-22
1.06076e-21
1.43095e-21
1.71484e-21
1.88428e-21
2.21322e-21
2.50753e-21
2.98995e-21
3.88049e-21
6.64403e-21
1.45637e-20
3.78064e-20
1.0834e-19
3.21591e-19
9.64512e-19
2.91915e-18
8.7412e-18
2.60423e-17
7.6868e-17
2.24175e-16
6.60253e-16
1.90504e-15
5.48449e-15
1.57607e-14
4.4661e-14
1.24308e-13
3.40442e-13
9.38922e-13
2.54792e-12
6.73708e-12
1.75306e-11
4.55829e-11
1.14028e-10
3.00335e-10
7.44186e-10
1.83088e-09
4.35922e-09
1.02968e-08
2.45023e-08
5.91841e-08
1.40869e-07
3.27613e-07
7.43911e-07
1.64896e-06
3.56611e-06
7.516e-06
1.53946e-05
3.05439e-05
5.36602e-05
9.77278e-05
0.000162225
0.000264607
0.000431249
0.000676206
0.00101292
0.00145396
0.00197405
0.00259669
0.00331276
0.00410579
0.00495431
0.00584335
0.00673665
0.00760921
0.00843889
0.0092007
0.00987039
0.0103998
0.0106739
0.0104463
0.00936887
0.00753629
0.00526105
0.00309374
0.00159916
0.000819084
0.000427271
0.000227595
0.000120723
6.54249e-05
3.53717e-05
1.89178e-05
9.93263e-06
5.08682e-06
2.48212e-06
1.17577e-06
5.22166e-07
2.21448e-07
8.90302e-08
3.59656e-08
1.67091e-08
9.03032e-09
5.17708e-09
2.74901e-09
7.97896e-10
3.18915e-23
1.75718e-22
3.84901e-22
5.56981e-22
7.16373e-22
9.55482e-22
1.23445e-21
1.55461e-21
1.83789e-21
2.03358e-21
2.16689e-21
2.5658e-21
2.95274e-21
4.00921e-21
6.88061e-21
1.47054e-20
3.80544e-20
1.07684e-19
3.24531e-19
9.72917e-19
2.93954e-18
8.81713e-18
2.63168e-17
7.8027e-17
2.28925e-16
6.64689e-16
1.89555e-15
5.58348e-15
1.58471e-14
4.47904e-14
1.25438e-13
3.46151e-13
9.50842e-13
2.55e-12
6.79865e-12
1.76523e-11
4.5877e-11
1.15356e-10
3.01883e-10
7.48312e-10
1.84016e-09
4.32145e-09
1.04175e-08
2.45729e-08
5.91761e-08
1.41093e-07
3.28082e-07
7.44888e-07
1.65101e-06
3.57031e-06
7.52439e-06
1.54107e-05
3.05735e-05
5.37085e-05
9.78373e-05
0.000162398
0.000264952
0.000431812
0.000677061
0.00101416
0.00145568
0.00197633
0.00259959
0.00331625
0.00410982
0.00495876
0.00584803
0.00674137
0.00761388
0.00844315
0.00920446
0.00987349
0.0104019
0.0106743
0.0104438
0.00936225
0.00752741
0.00525137
0.00308617
0.00159506
0.000817032
0.000426232
0.000227053
0.00012045
6.52785e-05
3.52926e-05
1.8875e-05
9.90974e-06
5.07474e-06
2.47625e-06
1.17287e-06
5.20883e-07
2.20886e-07
8.87997e-08
3.58779e-08
1.66726e-08
9.01239e-09
5.16735e-09
2.74395e-09
7.96421e-10
3.68845e-23
1.03871e-22
2.29839e-22
4.12162e-22
6.14733e-22
8.29987e-22
9.32868e-22
1.20455e-21
1.51566e-21
1.7525e-21
2.04987e-21
2.47152e-21
3.00781e-21
4.2034e-21
6.86954e-21
1.46214e-20
3.74211e-20
1.06269e-19
3.18364e-19
9.56597e-19
2.86701e-18
8.70651e-18
2.58984e-17
7.74034e-17
2.26453e-16
6.5603e-16
1.88925e-15
5.49205e-15
1.55961e-14
4.40782e-14
1.22966e-13
3.38647e-13
9.47132e-13
2.52347e-12
6.547e-12
1.72547e-11
4.49969e-11
1.11877e-10
2.90701e-10
7.53793e-10
1.79176e-09
4.35765e-09
1.01506e-08
2.46321e-08
5.91425e-08
1.40873e-07
3.27686e-07
7.44326e-07
1.6505e-06
3.57076e-06
7.5284e-06
1.54245e-05
3.06105e-05
5.37896e-05
9.79819e-05
0.000162677
0.000265618
0.000432982
0.000678902
0.00101688
0.00145949
0.00198142
0.00260603
0.00332402
0.00411874
0.00496854
0.00585822
0.00675166
0.00762404
0.00845237
0.00921255
0.00988018
0.0104066
0.0106752
0.0104381
0.00934782
0.00750812
0.00523039
0.00306981
0.00158621
0.000812601
0.00042399
0.000225885
0.000119863
6.49634e-05
3.51221e-05
1.87831e-05
9.86059e-06
5.04884e-06
2.46362e-06
1.16666e-06
5.18145e-07
2.19688e-07
8.83114e-08
3.56941e-08
1.65959e-08
8.97446e-09
5.14662e-09
2.73313e-09
7.9326e-10
6.26593e-23
1.24668e-22
2.3123e-22
4.04249e-22
5.86324e-22
7.42723e-22
9.44105e-22
1.15142e-21
1.45776e-21
1.79105e-21
2.13475e-21
2.44932e-21
3.00106e-21
4.11609e-21
6.93381e-21
1.4699e-20
3.76046e-20
1.05885e-19
3.12532e-19
9.38528e-19
2.83274e-18
8.55546e-18
2.55462e-17
7.56353e-17
2.22049e-16
6.46376e-16
1.86629e-15
5.35799e-15
1.54245e-14
4.35505e-14
1.21774e-13
3.35336e-13
9.24183e-13
2.48278e-12
6.61119e-12
1.73656e-11
4.46888e-11
1.11868e-10
2.91882e-10
7.46492e-10
1.80327e-09
4.27356e-09
1.00883e-08
2.45969e-08
5.88441e-08
1.40214e-07
3.26512e-07
7.42406e-07
1.64784e-06
3.56823e-06
7.52971e-06
1.54395e-05
3.06622e-05
5.39138e-05
9.81796e-05
0.000163089
0.000266658
0.000434853
0.000681891
0.00102132
0.0014657
0.00198967
0.00261641
0.00333639
0.0041328
0.00498389
0.0058742
0.00676771
0.00763995
0.00846674
0.00922515
0.00989058
0.0104138
0.0106766
0.0104295
0.00932591
0.0074789
0.00519872
0.0030452
0.00157293
0.000805953
0.000420615
0.000224128
0.00011898
6.44896e-05
3.4866e-05
1.86449e-05
9.7868e-06
5.00998e-06
2.44472e-06
1.15737e-06
5.1404e-07
2.17895e-07
8.75782e-08
3.54133e-08
1.64793e-08
8.91726e-09
5.1155e-09
2.71691e-09
7.8853e-10
5.45783e-23
1.57029e-22
2.99363e-22
4.20705e-22
4.65052e-22
5.45288e-22
7.52166e-22
9.99277e-22
1.2162e-21
1.46186e-21
1.90899e-21
2.47253e-21
3.2568e-21
4.47014e-21
7.09791e-21
1.456e-20
3.64125e-20
1.01789e-19
2.99471e-19
9.02326e-19
2.73084e-18
8.0983e-18
2.4618e-17
7.22366e-17
2.15893e-16
6.27775e-16
1.81294e-15
5.19314e-15
1.49568e-14
4.25478e-14
1.1696e-13
3.32288e-13
9.01198e-13
2.42622e-12
6.47422e-12
1.69343e-11
4.39469e-11
1.11004e-10
2.82812e-10
7.17819e-10
1.78259e-09
4.23639e-09
9.92008e-09
2.42695e-08
5.83768e-08
1.39193e-07
3.24506e-07
7.388e-07
1.64215e-06
3.56116e-06
7.52552e-06
1.54513e-05
3.07226e-05
5.40753e-05
9.84062e-05
0.000163587
0.000267981
0.000437279
0.000685817
0.00102722
0.00147403
0.00200087
0.00263079
0.00335314
0.00415152
0.00500417
0.00589524
0.00678887
0.00766062
0.00848559
0.00924142
0.0099039
0.0104228
0.0106782
0.010418
0.00929723
0.00744087
0.00515767
0.00301346
0.00155588
0.000797392
0.000416298
0.000221881
0.00011785
6.38833e-05
3.45384e-05
1.84682e-05
9.6925e-06
4.96034e-06
2.42059e-06
1.14552e-06
5.08805e-07
2.15617e-07
8.66463e-08
3.5056e-08
1.63301e-08
8.84367e-09
5.07538e-09
2.69599e-09
7.82425e-10
6.0684e-23
1.48877e-22
2.93561e-22
4.04287e-22
5.17237e-22
7.36039e-22
1.02958e-21
1.1408e-21
1.35306e-21
1.65278e-21
2.02025e-21
2.484e-21
3.11461e-21
4.13492e-21
6.58742e-21
1.36872e-20
3.46219e-20
9.71113e-20
2.87627e-19
8.52438e-19
2.61437e-18
7.81276e-18
2.33688e-17
6.94572e-17
2.05169e-16
5.9869e-16
1.74231e-15
4.99937e-15
1.44289e-14
4.05866e-14
1.13071e-13
3.1695e-13
8.6813e-13
2.34218e-12
6.10968e-12
1.62986e-11
4.2207e-11
1.07261e-10
2.77027e-10
7.14912e-10
1.72054e-09
4.24191e-09
9.9519e-09
2.38736e-08
5.74583e-08
1.37537e-07
3.21475e-07
7.33343e-07
1.63328e-06
3.54859e-06
7.51368e-06
1.54561e-05
3.07874e-05
5.42671e-05
9.86e-05
0.000164131
0.000269518
0.000440131
0.000690457
0.00103418
0.00148375
0.00201366
0.00264656
0.0033721
0.0041734
0.00502819
0.00592037
0.00681375
0.00768457
0.00850704
0.0092603
0.00991943
0.0104334
0.0106798
0.0104038
0.00926261
0.00739529
0.00510882
0.00297596
0.00153588
0.00078744
0.000411263
0.000219248
0.000116521
6.31663e-05
3.41512e-05
1.82596e-05
9.5812e-06
4.90182e-06
2.39219e-06
1.1316e-06
5.0264e-07
2.12917e-07
8.55428e-08
3.46324e-08
1.61527e-08
8.75601e-09
5.02759e-09
2.67109e-09
7.75168e-10
7.91288e-23
1.83442e-22
3.01207e-22
4.77823e-22
6.31825e-22
8.17997e-22
1.11335e-21
1.27835e-21
1.52819e-21
1.856e-21
2.17833e-21
2.59559e-21
3.23115e-21
4.30182e-21
6.81245e-21
1.35807e-20
3.29164e-20
9.11278e-20
2.68345e-19