/*--------------------------------*- C++ -*----------------------------------*\
  =========                 |
  \\      /  F ield         | OpenFOAM: The Open Source CFD Toolbox
   \\    /   O peration     | Website:  https://openfoam.org
    \\  /    A nd           | Version:  10
     \\/     M anipulation  |
\*---------------------------------------------------------------------------*/
FoamFile
{
    format      ascii;
    class       volScalarField;
    location    "1";
    object      C4H7;
}
// * * * * * * * * * * * * * * * * * * * * * * * * * * * * * * * * * * * * * //

dimensions      [0 0 0 0 0 0 0];

internalField   nonuniform List<scalar> 
4000
(
2.36466e-33
1.45658e-32
6.28231e-32
2.37397e-31
8.38234e-31
2.7699e-30
8.69294e-30
2.62834e-29
7.73971e-29
2.24906e-28
6.54828e-28
1.78028e-27
4.76843e-27
1.27953e-26
3.4593e-26
9.41643e-26
2.5741e-25
7.30477e-25
2.047e-24
5.79462e-24
1.64714e-23
4.64165e-23
1.39609e-22
4.0347e-22
1.18227e-21
3.45515e-21
9.97506e-21
2.96374e-20
8.58364e-20
2.48501e-19
7.19135e-19
2.07755e-18
5.93941e-18
1.68721e-17
4.76877e-17
1.30323e-16
3.61259e-16
1.01497e-15
2.78463e-15
7.56765e-15
1.98767e-14
5.12438e-14
1.29325e-13
3.19046e-13
7.6855e-13
1.93676e-12
4.97208e-12
1.2591e-11
3.10904e-11
7.42639e-11
1.70897e-10
3.84131e-10
7.76686e-10
1.63855e-09
3.35819e-09
6.58481e-09
1.21861e-08
2.23464e-08
3.98422e-08
6.91804e-08
1.17589e-07
1.91693e-07
3.07167e-07
4.72801e-07
6.80088e-07
8.97333e-07
1.07617e-06
1.17722e-06
1.21277e-06
1.24902e-06
1.38396e-06
1.71001e-06
2.15631e-06
2.43519e-06
2.11727e-06
1.19328e-06
6.08852e-07
3.14756e-07
1.66416e-07
8.5867e-08
4.43747e-08
2.33238e-08
1.24822e-08
6.77781e-09
3.70991e-09
2.03022e-09
1.10198e-09
5.8907e-10
3.08429e-10
1.58085e-10
8.07987e-11
4.37749e-11
3.27176e-11
3.81406e-11
6.04733e-11
1.09863e-10
1.42138e-10
1.04543e-10
5.74499e-11
1.66601e-11
2.46053e-33
1.42146e-32
5.21005e-32
1.76635e-31
5.77038e-31
1.82823e-30
5.63773e-30
1.69853e-29
4.8719e-29
1.36601e-28
3.79108e-28
1.05132e-27
2.93082e-27
8.2557e-27
2.3561e-26
6.8284e-26
1.99904e-25
5.92717e-25
1.77489e-24
5.33529e-24
1.61182e-23
4.89777e-23
1.4845e-22
4.49286e-22
1.35937e-21
4.0814e-21
1.22106e-20
3.63788e-20
1.07384e-19
3.13755e-19
9.13127e-19
2.76637e-18
7.97897e-18
2.25583e-17
6.33694e-17
1.75641e-16
4.93098e-16
1.34395e-15
3.65695e-15
9.72472e-15
2.55522e-14
6.5105e-14
1.64235e-13
4.03754e-13
1.0089e-12
2.5797e-12
6.53776e-12
1.62334e-11
3.94803e-11
9.39412e-11
2.01025e-10
4.0767e-10
8.74208e-10
1.80563e-09
3.64677e-09
7.12952e-09
1.28331e-08
2.30509e-08
4.04819e-08
6.93267e-08
1.16837e-07
1.8935e-07
3.0221e-07
4.64509e-07
6.68064e-07
8.84274e-07
1.06565e-06
1.17191e-06
1.2101e-06
1.24466e-06
1.37164e-06
1.68976e-06
2.13693e-06
2.43337e-06
2.14162e-06
1.21551e-06
6.19803e-07
3.19748e-07
1.68773e-07
8.69425e-08
4.48611e-08
2.35523e-08
1.25921e-08
6.82741e-09
3.72992e-09
2.0367e-09
1.10275e-09
5.87846e-10
3.06798e-10
1.56787e-10
8.00976e-11
4.38679e-11
3.37813e-11
4.03949e-11
6.51727e-11
1.17616e-10
1.45148e-10
1.04703e-10
5.7263e-11
1.65689e-11
1.51425e-33
7.77276e-33
2.58424e-32
7.7217e-32
2.2273e-31
6.31633e-31
1.77658e-30
5.03204e-30
1.46832e-29
4.48184e-29
1.40505e-28
4.49657e-28
1.45851e-27
4.75005e-27
1.54774e-26
5.03457e-26
1.63101e-25
5.1874e-25
1.72208e-24
5.49068e-24
1.75131e-23
5.54515e-23
1.74134e-22
5.41505e-22
1.66687e-21
5.08495e-21
1.54349e-20
4.68905e-20
1.39194e-19
4.10019e-19
1.23117e-18
3.57436e-18
1.0141e-17
2.90158e-17
8.23943e-17
2.28792e-16
6.24559e-16
1.69332e-15
4.55264e-15
1.19443e-14
3.09885e-14
7.60484e-14
1.98616e-13
4.79731e-13
1.2328e-12
3.08115e-12
7.80812e-12
1.91941e-11
4.52221e-11
1.05562e-10
2.24387e-10
4.58101e-10
9.76228e-10
2.03726e-09
3.98658e-09
7.40705e-09
1.31325e-08
2.3395e-08
4.07801e-08
6.9402e-08
1.16195e-07
1.87373e-07
2.9782e-07
4.56238e-07
6.56909e-07
8.72268e-07
1.0558e-06
1.16644e-06
1.20818e-06
1.24128e-06
1.36153e-06
1.671e-06
2.11953e-06
2.43262e-06
2.16856e-06
1.24057e-06
6.3206e-07
3.25341e-07
1.71408e-07
8.81597e-08
4.5452e-08
2.38371e-08
1.27282e-08
6.88274e-09
3.75054e-09
2.04228e-09
1.10232e-09
5.85535e-10
3.04468e-10
1.54886e-10
7.90872e-11
4.40084e-11
3.52009e-11
4.3379e-11
7.12866e-11
1.27037e-10
1.48556e-10
1.05236e-10
5.73081e-11
1.65585e-11
1.11534e-33
5.62762e-33
1.89598e-32
5.81396e-32
1.74564e-31
5.27116e-31
1.62147e-30
5.23382e-30
1.68936e-29
5.49577e-29
1.82294e-28
6.02407e-28
2.01557e-27
6.6422e-27
2.18201e-26
7.13057e-26
2.31727e-25
7.48249e-25
2.39792e-24
7.63104e-24
2.40918e-23
7.5783e-23
2.36109e-22
7.2981e-22
2.26314e-21
6.88263e-21
2.07703e-20
6.20548e-20
1.79834e-19
5.48693e-19
1.59156e-18
4.60192e-18
1.31258e-17
3.72735e-17
1.04853e-16
2.89016e-16
7.83016e-16
2.11789e-15
5.5619e-15
1.48118e-14
3.80526e-14
9.5095e-14
2.40611e-13
5.80708e-13
1.42821e-12
3.63601e-12
9.08753e-12
2.18743e-11
5.22839e-11
1.12347e-10
2.35668e-10
5.20138e-10
1.10877e-09
2.24291e-09
4.31236e-09
7.56678e-09
1.3402e-08
2.37149e-08
4.10439e-08
6.93365e-08
1.1543e-07
1.85368e-07
2.93864e-07
4.49997e-07
6.48104e-07
8.62146e-07
1.04679e-06
1.16148e-06
1.20582e-06
1.23753e-06
1.35127e-06
1.6529e-06
2.1035e-06
2.43221e-06
2.1951e-06
1.25352e-06
6.39909e-07
3.29523e-07
1.73604e-07
8.92413e-08
4.59911e-08
2.41219e-08
1.2911e-08
6.88143e-09
3.75088e-09
2.04093e-09
1.09992e-09
5.83249e-10
3.03235e-10
1.52105e-10
7.78652e-11
4.42096e-11
3.67919e-11
4.66808e-11
7.81337e-11
1.36508e-10
1.51963e-10
1.05927e-10
5.74797e-11
1.65876e-11
1.68804e-33
8.6124e-33
2.97151e-32
9.37891e-32
2.89696e-31
8.95334e-31
2.78778e-30
8.7455e-30
2.75427e-29
8.91008e-29
2.85884e-28
9.24709e-28
3.02413e-27
9.78284e-27
3.20331e-26
1.03142e-25
3.30631e-25
1.07087e-24
3.41289e-24
1.08018e-23
3.3987e-23
1.05668e-22
3.26237e-22
9.99738e-22
3.04391e-21
9.18583e-21
2.74929e-20
8.25923e-20
2.43241e-19
7.09204e-19
2.05138e-18
6.02039e-18
1.70062e-17
4.78889e-17
1.32634e-16
3.62643e-16
9.7438e-16
2.55813e-15
6.84163e-15
1.77747e-14
4.51828e-14
1.12797e-13
2.75346e-13
6.80209e-13
1.65802e-12
4.17757e-12
1.02147e-11
2.48173e-11
5.48735e-11
1.16173e-10
2.60521e-10
5.67859e-10
1.21137e-09
2.47513e-09
4.4319e-09
7.75793e-09
1.3683e-08
2.40127e-08
4.12634e-08
6.93433e-08
1.14902e-07
1.83901e-07
2.90843e-07
4.44843e-07
6.40605e-07
8.52914e-07
1.03959e-06
1.15775e-06
1.20428e-06
1.23508e-06
1.34428e-06
1.64062e-06
2.09152e-06
2.43149e-06
2.21469e-06
1.27242e-06
6.49217e-07
3.33987e-07
1.7575e-07
9.02355e-08
4.64742e-08
2.43639e-08
1.30328e-08
6.94153e-09
3.77679e-09
2.05083e-09
1.10264e-09
5.83103e-10
3.02218e-10
1.51297e-10
7.7524e-11
4.47652e-11
3.84546e-11
4.99e-11
8.47089e-11
1.45441e-10
1.55517e-10
1.0703e-10
5.79116e-11
1.66951e-11
2.96295e-33
1.55843e-32
5.47541e-32
1.76576e-31
5.56002e-31
1.7408e-30
5.44793e-30
1.70824e-29
5.36638e-29
1.68995e-28
5.31438e-28
1.66727e-27
5.32999e-27
1.67804e-26
5.27571e-26
1.67392e-25
5.25677e-25
1.64809e-24
5.16365e-24
1.59962e-23
4.99932e-23
1.52751e-22
4.62747e-22
1.39255e-21
4.19438e-21
1.26511e-20
3.73146e-20
1.08807e-19
3.21131e-19
9.22108e-19
2.61448e-18
7.70935e-18
2.14517e-17
5.93564e-17
1.60822e-16
4.41199e-16
1.164e-15
3.0005e-15
8.12152e-15
2.15451e-14
5.34504e-14
1.30504e-13
3.18814e-13
7.75408e-13
1.9093e-12
4.66978e-12
1.16523e-11
2.61634e-11
5.71125e-11
1.2717e-10
2.82792e-10
6.14279e-10
1.28343e-09
2.5912e-09
4.60676e-09
7.97579e-09
1.38972e-08
2.42596e-08
4.13995e-08
6.92077e-08
1.14205e-07
1.82363e-07
2.87969e-07
4.40267e-07
6.34691e-07
8.46891e-07
1.03432e-06
1.1548e-06
1.20349e-06
1.23362e-06
1.33901e-06
1.63031e-06
2.08099e-06
2.42987e-06
2.22788e-06
1.28743e-06
6.56982e-07
3.377e-07
1.77579e-07
9.11284e-08
4.69168e-08
2.4589e-08
1.31462e-08
7.0043e-09
3.80741e-09
2.06474e-09
1.10821e-09
5.84797e-10
3.0233e-10
1.51235e-10
7.75808e-11
4.54451e-11
3.99798e-11
5.27069e-11
9.03136e-11
1.53032e-10
1.58899e-10
1.08349e-10
5.84955e-11
1.685e-11
4.81412e-33
2.47423e-32
8.77836e-32
2.81357e-31
8.76345e-31
2.75978e-30
8.56674e-30
2.66849e-29
8.32978e-29
2.60119e-28
8.13038e-28
2.54271e-27
7.94889e-27
2.48134e-26
7.74948e-26
2.42322e-25
7.57535e-25
2.34655e-24
7.2467e-24
2.24684e-23
6.87335e-23
2.08486e-22
6.20716e-22
1.89414e-21
5.5938e-21
1.64334e-20
4.8117e-20
1.36278e-19
4.07195e-19
1.17229e-18
3.32232e-18
9.3385e-18
2.61427e-17
7.21551e-17
1.9471e-16
5.27665e-16
1.41699e-15
3.61714e-15
9.72578e-15
2.48212e-14
6.16961e-14
1.51332e-13
3.6372e-13
8.77609e-13
2.11164e-12
5.19402e-12
1.23905e-11
2.65743e-11
6.10992e-11
1.37093e-10
3.00535e-10
6.447e-10
1.33473e-09
2.67115e-09
4.72064e-09
8.13479e-09
1.40646e-08
2.44014e-08
4.14481e-08
6.9002e-08
1.13495e-07
1.80831e-07
2.85196e-07
4.36009e-07
6.29111e-07
8.41143e-07
1.0297e-06
1.15208e-06
1.20243e-06
1.23206e-06
1.33422e-06
1.62117e-06
2.07167e-06
2.42804e-06
2.24045e-06
1.30221e-06
6.64944e-07
3.41571e-07
1.79541e-07
9.20892e-08
4.7399e-08
2.48357e-08
1.32731e-08
7.07426e-09
3.84307e-09
2.08222e-09
1.11626e-09
5.88148e-10
3.03509e-10
1.51771e-10
7.79421e-11
4.61763e-11
4.13422e-11
5.51388e-11
9.51164e-11
1.59401e-10
1.62055e-10
1.09785e-10
5.91775e-11
1.70366e-11
6.97968e-33
3.60348e-32
1.2716e-31
4.11071e-31
1.29445e-30
4.04362e-30
1.25981e-29
3.92241e-29
1.22096e-28
3.79929e-28
1.18095e-27
3.67067e-27
1.14184e-26
3.54861e-26
1.09785e-25
3.39414e-25
1.04844e-24
3.22349e-24
9.87512e-24
3.01582e-23
9.16861e-23
2.76375e-22
8.27364e-22
2.4577e-21
7.25045e-21
2.12535e-20
6.17231e-20
1.76594e-19
4.98917e-19
1.41136e-18
4.03292e-18
1.14425e-17
3.16459e-17
8.63293e-17
2.30102e-16
6.15951e-16
1.63882e-15
4.14198e-15
1.09484e-14
2.8288e-14
6.99165e-14
1.69044e-13
4.10963e-13
9.79581e-13
2.36227e-12
5.74173e-12
1.28782e-11
2.8733e-11
6.5643e-11
1.46219e-10
3.19936e-10
6.77231e-10
1.38608e-09
2.747e-09
4.82167e-09
8.25528e-09
1.41851e-08
2.4481e-08
4.13938e-08
6.86496e-08
1.12589e-07
1.79122e-07
2.82228e-07
4.3177e-07
6.23444e-07
8.34356e-07
1.02465e-06
1.14919e-06
1.20126e-06
1.23042e-06
1.32935e-06
1.61174e-06
2.06132e-06
2.42536e-06
2.25358e-06
1.31912e-06
6.73849e-07
3.45898e-07
1.81777e-07
9.31912e-08
4.79556e-08
2.51218e-08
1.3422e-08
7.15489e-09
3.8852e-09
2.10377e-09
1.12689e-09
5.9314e-10
3.05705e-10
1.52841e-10
7.8562e-11
4.6922e-11
4.25247e-11
5.71801e-11
9.91048e-11
1.64671e-10
1.65026e-10
1.11295e-10
5.99243e-11
1.72444e-11
9.23619e-33
4.78762e-32
1.69568e-31
5.49029e-31
1.73181e-30
5.41112e-30
1.68358e-29
5.23044e-29
1.62412e-28
5.05991e-28
1.56779e-27
4.84831e-27
1.49786e-26
4.64286e-26
1.4283e-25
4.38485e-25
1.34541e-24
4.10935e-24
1.24881e-23
3.83121e-23
1.15614e-22
3.43587e-22
1.0359e-21
3.04724e-21
8.94656e-21
2.62689e-20
7.60693e-20
2.18374e-19
6.19976e-19
1.73323e-18
4.84463e-18
1.35528e-17
3.71956e-17
1.01024e-16
2.70837e-16
7.14723e-16
1.87272e-15
4.6903e-15
1.2313e-14
3.13573e-14
7.77126e-14
1.88988e-13
4.54235e-13
1.0887e-12
2.50204e-12
5.65257e-12
1.34679e-11
3.10916e-11
7.01965e-11
1.55917e-10
3.36114e-10
7.03854e-10
1.42785e-09
2.80734e-09
4.89442e-09
8.33766e-09
1.42551e-08
2.44876e-08
4.1232e-08
6.81469e-08
1.1142e-07
1.76793e-07
2.7843e-07
4.25726e-07
6.16057e-07
8.27545e-07
1.01853e-06
1.14589e-06
1.19972e-06
1.22832e-06
1.32325e-06
1.5998e-06
2.04883e-06
2.42134e-06
2.26727e-06
1.33841e-06
6.84084e-07
3.5087e-07
1.84396e-07
9.44908e-08
4.86134e-08
2.54598e-08
1.35987e-08
7.2486e-09
3.9347e-09
2.12963e-09
1.14012e-09
5.99694e-10
3.08835e-10
1.54378e-10
7.93953e-11
4.76606e-11
4.35186e-11
5.88079e-11
1.02203e-10
1.68984e-10
1.67802e-10
1.12837e-10
6.07092e-11
1.74655e-11
1.11299e-32
6.08856e-32
2.12804e-31
6.86068e-31
2.18412e-30
6.82165e-30
2.12893e-29
6.62103e-29
2.0547e-28
6.36396e-28
1.97021e-27
6.11003e-27
1.88216e-26
5.79393e-26
1.78125e-25
5.41505e-25
1.69377e-24
5.14247e-24
1.55806e-23
4.6927e-23
1.40025e-22
4.23108e-22
1.25258e-21
3.68681e-21
1.07688e-20
3.12758e-20
9.02017e-20
2.57534e-19
7.38991e-19
2.08515e-18
5.80288e-18
1.59037e-17
4.31032e-17
1.15861e-16
3.06609e-16
8.00806e-16
2.06533e-15
5.19164e-15
1.37752e-14
3.44842e-14
8.3841e-14
2.02982e-13
4.85292e-13
1.12452e-12
2.55378e-12
6.16417e-12
1.44691e-11
3.31991e-11
7.49608e-11
1.64558e-10
3.51707e-10
7.3038e-10
1.46756e-09
2.84617e-09
4.94263e-09
8.39708e-09
1.42866e-08
2.4442e-08
4.10159e-08
6.761e-08
1.10319e-07
1.74755e-07
2.74577e-07
4.20092e-07
6.08805e-07
8.19618e-07
1.01234e-06
1.14254e-06
1.19822e-06
1.22662e-06
1.31945e-06
1.58952e-06
2.03672e-06
2.41735e-06
2.28345e-06
1.36301e-06
6.97234e-07
3.57171e-07
1.87615e-07
9.6055e-08
4.9392e-08
2.58549e-08
1.38039e-08
7.35509e-09
3.99075e-09
2.15927e-09
1.15556e-09
6.07558e-10
3.1274e-10
1.56295e-10
8.04007e-11
4.83923e-11
4.43651e-11
6.01215e-11
1.04651e-10
1.72506e-10
1.704e-10
1.14385e-10
6.15122e-11
1.76934e-11
1.348e-32
7.32289e-32
2.571e-31
8.32488e-31
2.62676e-30
8.20896e-30
2.55589e-29
7.94014e-29
2.45941e-28
7.61682e-28
2.38491e-27
7.36256e-27
2.26664e-26
6.99864e-26
2.15318e-25
6.57697e-25
2.02668e-24
6.13173e-24
1.8474e-23
5.56454e-23
1.64768e-22
4.96907e-22
1.4652e-21
4.29416e-21
1.23971e-20
3.62589e-20
1.0356e-19
2.95222e-19
8.43472e-19
2.37635e-18
6.59672e-18
1.80455e-17
4.85993e-17
1.30833e-16
3.43195e-16
8.91686e-16
2.28915e-15
5.74574e-15
1.5071e-14
3.72621e-14
9.00339e-14
2.1468e-13
5.02324e-13
1.15538e-12
2.77215e-12
6.61564e-12
1.54853e-11
3.55621e-11
7.96525e-11
1.74128e-10
3.71179e-10
7.69605e-10
1.55437e-09
2.85146e-09
4.97437e-09
8.43198e-09
1.42804e-08
2.4338e-08
4.07037e-08
6.68243e-08
1.08757e-07
1.72149e-07
2.71e-07
4.14736e-07
6.02015e-07
8.12497e-07
1.00662e-06
1.1394e-06
1.19726e-06
1.22516e-06
1.3143e-06
1.57827e-06
2.02265e-06
2.41126e-06
2.29791e-06
1.38676e-06
7.10079e-07
3.63296e-07
1.90846e-07
9.76608e-08
5.02023e-08
2.62699e-08
1.40215e-08
7.46802e-09
4.05153e-09
2.19143e-09
1.17245e-09
6.1629e-10
3.1719e-10
1.58483e-10
8.15264e-11
4.91074e-11
4.50841e-11
6.11705e-11
1.06556e-10
1.75421e-10
1.72846e-10
1.1592e-10
6.23195e-11
1.79237e-11
1.62198e-32
8.46391e-32
2.98902e-31
9.67356e-31
3.04876e-30
9.52071e-30
2.965e-29
9.23013e-29
2.86534e-28
8.94357e-28
2.77637e-27
8.5861e-27
2.64553e-26
8.1716e-26
2.52069e-25
7.70428e-25
2.34503e-24
7.11468e-24
2.14562e-23
6.43534e-23
1.91759e-22
5.67221e-22
1.67817e-21
4.90261e-21
1.42234e-20
4.09116e-20
1.16995e-19
3.28802e-19
9.41637e-19
2.62416e-18
7.11236e-18
1.99539e-17
5.39505e-17
1.42521e-16
3.83419e-16
9.84355e-16
2.48835e-15
6.22843e-15
1.59386e-14
4.01454e-14
9.60795e-14
2.27437e-13
5.29993e-13
1.23511e-12
2.95632e-12
7.02399e-12
1.6389e-11
3.74862e-11
8.35979e-11
1.81905e-10
3.86058e-10
7.96997e-10
1.59795e-09
2.84528e-09
5.00077e-09
8.45317e-09
1.42493e-08
2.42096e-08
4.03691e-08
6.6215e-08
1.07534e-07
1.69981e-07
2.67066e-07
4.09305e-07
5.9532e-07
8.05586e-07
1.00123e-06
1.13655e-06
1.19666e-06
1.22414e-06
1.30898e-06
1.56627e-06
2.00828e-06
2.40488e-06
2.31185e-06
1.41228e-06
7.2357e-07
3.69866e-07
1.9429e-07
9.93745e-08
5.10573e-08
2.67048e-08
1.42491e-08
7.58578e-09
4.11512e-09
2.22598e-09
1.19099e-09
6.26045e-10
3.22158e-10
1.609e-10
8.27485e-11
4.98197e-11
4.5715e-11
6.20186e-11
1.08041e-10
1.77854e-10
1.75138e-10
1.17415e-10
6.31128e-11
1.81513e-11
1.78792e-32
9.52674e-32
3.3768e-31
1.09187e-30
3.44254e-30
1.07633e-29
3.35653e-29
1.04526e-28
3.26089e-28
1.0156e-27
3.15363e-27
9.75664e-27
3.00515e-26
9.30649e-26
2.8459e-25
8.64917e-25
2.57983e-24
8.08185e-24
2.42121e-23
7.26519e-23
2.16337e-22
6.40175e-22
1.88237e-21
5.42717e-21
1.59751e-20
4.55239e-20
1.28779e-19
3.6206e-19
1.01817e-18
2.90913e-18
7.93457e-18
2.19054e-17
5.88222e-17
1.57579e-16
4.11266e-16
1.05386e-15
2.64961e-15
6.60406e-15
1.68488e-14
4.26101e-14
1.02274e-13
2.42738e-13
5.60007e-13
1.32826e-12
3.11176e-12
7.37643e-12
1.7169e-11
3.89623e-11
8.63006e-11
1.86585e-10
3.93458e-10
8.07222e-10
1.60737e-09
2.83869e-09
5.03528e-09
8.46989e-09
1.42064e-08
2.40504e-08
4.00178e-08
6.55092e-08
1.06382e-07
1.67935e-07
2.63606e-07
4.04083e-07
5.88676e-07
7.98594e-07
9.95702e-07
1.13354e-06
1.19591e-06
1.22317e-06
1.30442e-06
1.55577e-06
1.99497e-06
2.3987e-06
2.32628e-06
1.43991e-06
7.38492e-07
3.76902e-07
1.97908e-07
1.01165e-07
5.19677e-08
2.71729e-08
1.44948e-08
7.71036e-09
4.18186e-09
2.26188e-09
1.21019e-09
6.36181e-10
3.27447e-10
1.63498e-10
8.40565e-11
5.05142e-11
4.62608e-11
6.27086e-11
1.09219e-10
1.79979e-10
1.77397e-10
1.18945e-10
6.3931e-11
1.83858e-11
1.91373e-32
1.07203e-31
3.77429e-31
1.22009e-30
3.85208e-30
1.20773e-29
3.7773e-29
1.17656e-28
3.65641e-28
1.13422e-27
3.50915e-27
1.08115e-26
3.36865e-26
1.0226e-25
3.13684e-25
9.62588e-25
2.9508e-24
8.90328e-24
2.67581e-23
7.97669e-23
2.35686e-22
6.85219e-22
2.0687e-21
5.99043e-21
1.72906e-20
4.93784e-20
1.41618e-19
3.98119e-19
1.11721e-18
3.10198e-18
8.45506e-18
2.35631e-17
6.23118e-17
1.67355e-16
4.34071e-16
1.1131e-15
2.80562e-15
6.86686e-15
1.77871e-14
4.50447e-14
1.06761e-13
2.51584e-13
5.88684e-13
1.39922e-12
3.24779e-12
7.68289e-12
1.77464e-11
4.00398e-11
8.82275e-11
1.89788e-10
3.98181e-10
8.13401e-10
1.61078e-09
2.83104e-09
5.05816e-09
8.47816e-09
1.41614e-08
2.39155e-08
3.9721e-08
6.48645e-08
1.05106e-07
1.6581e-07
2.60449e-07
3.99297e-07
5.8262e-07
7.92152e-07
9.90359e-07
1.13078e-06
1.19513e-06
1.22216e-06
1.3001e-06
1.54542e-06
1.98188e-06
2.39224e-06
2.33883e-06
1.46717e-06
7.53094e-07
3.83824e-07
2.01553e-07
1.02997e-07
5.28836e-08
2.76389e-08
1.47383e-08
7.83486e-09
4.24837e-09
2.29756e-09
1.22924e-09
6.46233e-10
3.32667e-10
1.66045e-10
8.53275e-11
5.11779e-11
4.67538e-11
6.33006e-11
1.10201e-10
1.81772e-10
1.79453e-10
1.2036e-10
6.46898e-11
1.86039e-11
2.24931e-32
1.16525e-31
4.11918e-31
1.33498e-30
4.21251e-30
1.31897e-29
4.14002e-29
1.28609e-28
3.9743e-28
1.21998e-27
3.81967e-27
1.19571e-26
3.66156e-26
1.11116e-25
3.47159e-25
1.05041e-24
3.16639e-24
9.67522e-24
2.89274e-23
8.53218e-23
2.58769e-22
7.60336e-22
2.22856e-21
6.44365e-21
1.87362e-20
5.32608e-20
1.51357e-19
4.23914e-19
1.1815e-18
3.31691e-18
9.12809e-18
2.48644e-17
6.57523e-17
1.75842e-16
4.50402e-16
1.14184e-15
2.94483e-15
7.17884e-15
1.84549e-14
4.59956e-14
1.12994e-13
2.65305e-13
6.21927e-13
1.43199e-12
3.35844e-12
7.90484e-12
1.81849e-11
4.08695e-11
8.97209e-11
1.92308e-10
4.01957e-10
8.17277e-10
1.61212e-09
2.82411e-09
5.06969e-09
8.47361e-09
1.40992e-08
2.37621e-08
3.93875e-08
6.4276e-08
1.0401e-07
1.63919e-07
2.57363e-07
3.94982e-07
5.77135e-07
7.86363e-07
9.85783e-07
1.12874e-06
1.19595e-06
1.22192e-06
1.29653e-06
1.53627e-06
1.96981e-06
2.38572e-06
2.34987e-06
1.49277e-06
7.66855e-07
3.90429e-07
2.04967e-07
1.047e-07
5.37356e-08
2.80717e-08
1.49639e-08
7.94944e-09
4.30971e-09
2.33055e-09
1.2469e-09
6.55571e-10
3.37527e-10
1.68413e-10
8.64968e-11
5.17583e-11
4.71418e-11
6.37178e-11
1.10836e-10
1.83176e-10
1.81229e-10
1.21611e-10
6.53641e-11
1.87981e-11
2.42037e-32
1.25504e-31
4.43903e-31
1.43963e-30
4.55645e-30
1.42667e-29
4.45203e-29
1.38625e-28
4.30413e-28
1.33069e-27
4.11205e-27
1.27362e-26
3.92156e-26
1.20547e-25
3.69863e-25
1.1275e-24
3.40332e-24
1.03398e-23
3.089e-23
9.20072e-23
2.74468e-22
8.08974e-22
2.37205e-21
6.89618e-21
1.98146e-20
5.63213e-20
1.60093e-19
4.46719e-19
1.23269e-18
3.46579e-18
9.44344e-18
2.5759e-17
6.91405e-17
1.81911e-16
4.71794e-16
1.2111e-15
3.05705e-15
7.72954e-15
1.93496e-14
4.8818e-14
1.16349e-13
2.70129e-13
6.34943e-13
1.46291e-12
3.44466e-12
8.0778e-12
1.85201e-11
4.14879e-11
9.07891e-11
1.93978e-10
4.0433e-10
8.19792e-10
1.61264e-09
2.81807e-09
5.07589e-09
8.46537e-09
1.40412e-08
2.36117e-08
3.9091e-08
6.3714e-08
1.03053e-07
1.62352e-07
2.54888e-07
3.91472e-07
5.7255e-07
7.81458e-07
9.81863e-07
1.1269e-06
1.19598e-06
1.22165e-06
1.29352e-06
1.52839e-06
1.95932e-06
2.37998e-06
2.35897e-06
1.51494e-06
7.78773e-07
3.96104e-07
2.07904e-07
1.0617e-07
5.44717e-08
2.84451e-08
1.51592e-08
8.04855e-09
4.36284e-09
2.35916e-09
1.26224e-09
6.63703e-10
3.41772e-10
1.70485e-10
8.75293e-11
5.22601e-11
4.74642e-11
6.40519e-11
1.11331e-10
1.84303e-10
1.8272e-10
1.22671e-10
6.5936e-11
1.8963e-11
2.38639e-32
1.32654e-31
4.67769e-31
1.51578e-30
4.78692e-30
1.50012e-29
4.69027e-29
1.46304e-28
4.54145e-28
1.40343e-27
4.35727e-27
1.34198e-26
4.12687e-26
1.2674e-25
3.88218e-25
1.18492e-24
3.62019e-24
1.0917e-23
3.26869e-23
9.7329e-23
2.89879e-22
8.492e-22
2.49822e-21
7.2297e-21
2.07744e-20
5.91621e-20
1.66841e-19
4.64884e-19
1.29162e-18
3.60685e-18
9.84612e-18
2.70248e-17
7.18553e-17
1.88631e-16
4.88742e-16
1.25808e-15
3.18996e-15
7.96722e-15
1.98117e-14
4.93232e-14
1.18182e-13
2.7732e-13
6.36227e-13
1.48213e-12
3.51403e-12
8.21186e-12
1.87767e-11
4.19619e-11
9.16121e-11
1.95278e-10
4.06137e-10
8.21631e-10
1.61294e-09
2.8137e-09
5.07855e-09
8.45616e-09
1.39917e-08
2.3502e-08
3.88772e-08
6.33196e-08
1.02354e-07
1.61098e-07
2.52814e-07
3.88353e-07
5.68676e-07
7.77351e-07
9.78482e-07
1.12505e-06
1.19558e-06
1.22131e-06
1.2911e-06
1.52243e-06
1.95133e-06
2.37545e-06
2.36594e-06
1.53262e-06
7.88299e-07
4.00641e-07
2.10248e-07
1.07346e-07
5.50602e-08
2.87429e-08
1.53143e-08
8.12726e-09
4.40505e-09
2.38193e-09
1.27448e-09
6.70205e-10
3.45173e-10
1.72146e-10
8.83534e-11
5.26579e-11
4.77171e-11
6.43176e-11
1.11743e-10
1.85162e-10
1.83891e-10
1.23508e-10
6.63882e-11
1.90933e-11
2.61099e-32
1.35856e-31
4.80304e-31
1.57234e-30
4.95891e-30
1.552e-29
4.8435e-29
1.51014e-28
4.70069e-28
1.45744e-27
4.50622e-27
1.39023e-26
4.28431e-26
1.32019e-25
4.06135e-25
1.23952e-24
3.7627e-24
1.13596e-23
3.4084e-23
1.01577e-22
3.0057e-22
8.82326e-22
2.57042e-21
7.40296e-21
2.14844e-20
6.1143e-20
1.73126e-19
4.83684e-19
1.35878e-18
3.72586e-18
1.01252e-17
2.72296e-17
7.34647e-17
1.92402e-16
5.03908e-16
1.29809e-15
3.26607e-15
8.0308e-15
2.00807e-14
4.97186e-14
1.18788e-13
2.77515e-13
6.42885e-13
1.49962e-12
3.56375e-12
8.30873e-12
1.89614e-11
4.2303e-11
9.22107e-11
1.96261e-10
4.07467e-10
8.23102e-10
1.61341e-09
2.81105e-09
5.08032e-09
8.45007e-09
1.39591e-08
2.34259e-08
3.87261e-08
6.30403e-08
1.0186e-07
1.60258e-07
2.51446e-07
3.86335e-07
5.66103e-07
7.74545e-07
9.76115e-07
1.12371e-06
1.19519e-06
1.22104e-06
1.28959e-06
1.5182e-06
1.94553e-06
2.37213e-06
2.37071e-06
1.54513e-06
7.95057e-07
4.03858e-07
2.11908e-07
1.08181e-07
5.54785e-08
2.8956e-08
1.54252e-08
8.18339e-09
4.43513e-09
2.39814e-09
1.28319e-09
6.74826e-10
3.47592e-10
1.73327e-10
8.89377e-11
5.29348e-11
4.78844e-11
6.44807e-11
1.11977e-10
1.85734e-10
1.84705e-10
1.24093e-10
6.67048e-11
1.91846e-11
2.65497e-32
1.4033e-31
4.94407e-31
1.60128e-30
5.06292e-30
1.59045e-29
4.96862e-29
1.54917e-28
4.82406e-28
1.49912e-27
4.64357e-27
1.43409e-26
4.41625e-26
1.35687e-25
4.16418e-25
1.26953e-24
3.84975e-24
1.16141e-23
3.47075e-23
1.03009e-22
3.04766e-22
8.94248e-22
2.62945e-21
7.57455e-21
2.19222e-20
6.21904e-20
1.75992e-19
4.96515e-19
1.37963e-18
3.79902e-18
1.03491e-17
2.83142e-17
7.47515e-17
1.95671e-16
5.12067e-16
1.30115e-15
3.30335e-15
8.14514e-15
2.08496e-14
5.11331e-14
1.20334e-13
2.81789e-13
6.43357e-13
1.52413e-12
3.59071e-12
8.36813e-12
1.90838e-11
4.25326e-11
9.26104e-11
1.96901e-10
4.08365e-10
8.24144e-10
1.61409e-09
2.81022e-09
5.08275e-09
8.44896e-09
1.39451e-08
2.3391e-08
3.86537e-08
6.29016e-08
1.01607e-07
1.59835e-07
2.50763e-07
3.85316e-07
5.64774e-07
7.73092e-07
9.74873e-07
1.12297e-06
1.19495e-06
1.22084e-06
1.28858e-06
1.51591e-06
1.94245e-06
2.37034e-06
2.37318e-06
1.55179e-06
7.98656e-07
4.05572e-07
2.12792e-07
1.08626e-07
5.57016e-08
2.90696e-08
1.54847e-08
8.21354e-09
4.45132e-09
2.40688e-09
1.28789e-09
6.77326e-10
3.489e-10
1.73966e-10
8.92529e-11
5.30828e-11
4.79713e-11
6.45616e-11
1.12086e-10
1.86025e-10
1.85135e-10
1.24405e-10
6.68737e-11
1.92333e-11
2.6262e-32
1.40156e-31
5.03326e-31
1.62465e-30
5.12994e-30
1.60587e-29
5.01009e-29
1.56165e-28
4.86835e-28
1.52027e-27
4.70985e-27
1.45395e-26
4.46062e-26
1.35178e-25
4.24723e-25
1.289e-24
3.90266e-24
1.17556e-23
3.52233e-23
1.04642e-22
3.11606e-22
9.15554e-22
2.67216e-21
7.72135e-21
2.2028e-20
6.33829e-20
1.7866e-19
5.02151e-19
1.40888e-18
3.89912e-18
1.05971e-17
2.83504e-17
7.62322e-17
2.0183e-16
5.209e-16
1.32274e-15
3.35563e-15
8.19309e-15
2.10212e-14
5.08651e-14
1.2216e-13
2.84207e-13
6.56147e-13
1.52665e-12
3.60646e-12
8.40455e-12
1.91573e-11
4.2673e-11
9.28662e-11
1.97341e-10
4.09074e-10
8.25142e-10
1.61528e-09
2.81119e-09
5.08716e-09
8.45337e-09
1.39473e-08
2.33895e-08
3.86456e-08
6.28818e-08
1.01567e-07
1.59762e-07
2.50642e-07
3.85136e-07
5.64537e-07
7.72834e-07
9.74659e-07
1.12285e-06
1.19492e-06
1.22083e-06
1.28844e-06
1.51555e-06
1.94198e-06
2.37004e-06
2.37355e-06
1.55282e-06
7.99204e-07
4.0583e-07
2.12923e-07
1.08692e-07
5.57342e-08
2.9086e-08
1.54931e-08
8.21782e-09
4.4536e-09
2.40811e-09
1.28854e-09
6.77673e-10
3.49081e-10
1.74054e-10
8.92967e-11
5.31052e-11
4.79876e-11
6.45816e-11
1.1212e-10
1.86083e-10
1.852e-10
1.24449e-10
6.68964e-11
1.92398e-11
2.62066e-32
1.4266e-31
5.04255e-31
1.63366e-30
5.16537e-30
1.61995e-29
5.06317e-29
1.57906e-28
4.91443e-28
1.52586e-27
4.72567e-27
1.4597e-26
4.49117e-26
1.37327e-25
4.25902e-25
1.2946e-24
3.91231e-24
1.16906e-23
3.55357e-23
1.05522e-22
3.13615e-22
9.2271e-22
2.69746e-21
7.82811e-21
2.24673e-20
6.37825e-20
1.77832e-19
5.11057e-19
1.41658e-18
3.90958e-18
1.06902e-17
2.88032e-17
7.71903e-17
2.02051e-16
5.25625e-16
1.33212e-15
3.37603e-15
8.28577e-15
2.1132e-14
5.11539e-14
1.22779e-13
2.81962e-13
6.63654e-13
1.53106e-12
3.60665e-12
8.41942e-12
1.91886e-11
4.27386e-11
9.30041e-11
1.97626e-10
4.09648e-10
8.26261e-10
1.61738e-09
2.81474e-09
5.09488e-09
8.4662e-09
1.39727e-08
2.34345e-08
3.87229e-08
6.30136e-08
1.01789e-07
1.60125e-07
2.51214e-07
3.85963e-07
5.65588e-07
7.73967e-07
9.75615e-07
1.1234e-06
1.19509e-06
1.22097e-06
1.2892e-06
1.51722e-06
1.94423e-06
2.37134e-06
2.37171e-06
1.54792e-06
7.96555e-07
4.04565e-07
2.1227e-07
1.08363e-07
5.55692e-08
2.9002e-08
1.54492e-08
8.19557e-09
4.44165e-09
2.40165e-09
1.28506e-09
6.75818e-10
3.48106e-10
1.73578e-10
8.90601e-11
5.29933e-11
4.79212e-11
6.45185e-11
1.12034e-10
1.85872e-10
1.84881e-10
1.24216e-10
6.67698e-11
1.92032e-11
2.6494e-32
1.41428e-31
4.97559e-31
1.61437e-30
5.11229e-30
1.60593e-29
5.0248e-29
1.56736e-28
4.87418e-28
1.51083e-27
4.66633e-27
1.43642e-26
4.41303e-26
1.35577e-25
4.16204e-25
1.26767e-24
3.82042e-24
1.15471e-23
3.48928e-23
1.03792e-22
3.06029e-22
9.11458e-22
2.65577e-21
7.76588e-21
2.22302e-20
6.29744e-20
1.77186e-19
5.02991e-19
1.39518e-18
3.84908e-18
1.04817e-17
2.81763e-17
7.68778e-17
2.00042e-16
5.07171e-16
1.30347e-15
3.31609e-15
8.0475e-15
2.03815e-14
5.15071e-14
1.19689e-13
2.84239e-13
6.47346e-13
1.53458e-12
3.60481e-12
8.40718e-12
1.91683e-11
4.27148e-11
9.29989e-11
1.97711e-10
4.10016e-10
8.27353e-10
1.62014e-09
2.82059e-09
5.10584e-09
8.48733e-09
1.40208e-08
2.35241e-08
3.88807e-08
6.32858e-08
1.02255e-07
1.60896e-07
2.52434e-07
3.87741e-07
5.67849e-07
7.76393e-07
9.77639e-07
1.12455e-06
1.19542e-06
1.22121e-06
1.29058e-06
1.52081e-06
1.94904e-06
2.37412e-06
2.36767e-06
1.53732e-06
7.90824e-07
4.01833e-07
2.10859e-07
1.07654e-07
5.52137e-08
2.88212e-08
1.53548e-08
8.14776e-09
4.41599e-09
2.38779e-09
1.2776e-09
6.71845e-10
3.46022e-10
1.72558e-10
8.85555e-11
5.27561e-11
4.7779e-11
6.43776e-11
1.1182e-10
1.85412e-10
1.84193e-10
1.23715e-10
6.64983e-11
1.91249e-11
2.67822e-32
1.38494e-31
4.88878e-31
1.56561e-30
5.04211e-30
1.57344e-29
4.91234e-29
1.53074e-28
4.75859e-28
1.47607e-27
4.56832e-27
1.41012e-26
4.33963e-26
1.33209e-25
4.07184e-25
1.23612e-24
3.78357e-24
1.13844e-23
3.4115e-23
1.01704e-22
3.021e-22
8.95012e-22
2.61767e-21
7.58509e-21
2.17808e-20
6.19829e-20
1.74864e-19
4.90345e-19
1.37833e-18
3.80066e-18
1.03784e-17
2.78934e-17
7.50075e-17
1.96618e-16
5.10958e-16
1.30981e-15
3.29053e-15
8.0386e-15
2.04327e-14
5.09947e-14
1.20373e-13
2.78782e-13
6.43365e-13
1.53232e-12
3.58647e-12
8.36826e-12
1.91017e-11
4.26125e-11
9.28735e-11
1.97643e-10
4.10276e-10
8.2863e-10
1.62398e-09
2.82937e-09
5.12112e-09
8.51851e-09
1.4095e-08
2.36654e-08
3.91326e-08
6.37233e-08
1.03e-07
1.62123e-07
2.54371e-07
3.90531e-07
5.71365e-07
7.80134e-07
9.80724e-07
1.12625e-06
1.19585e-06
1.22154e-06
1.2927e-06
1.52625e-06
1.95651e-06
2.37835e-06
2.36144e-06
1.52135e-06
7.82208e-07
3.9773e-07
2.0874e-07
1.0659e-07
5.46797e-08
2.85489e-08
1.52128e-08
8.07583e-09
4.37739e-09
2.36695e-09
1.26639e-09
6.65883e-10
3.42897e-10
1.71033e-10
8.78016e-11
5.24027e-11
4.75729e-11
6.41869e-11
1.11563e-10
1.8473e-10
1.83165e-10
1.22965e-10
6.60917e-11
1.90075e-11
2.50498e-32
1.33829e-31
4.72735e-31
1.53684e-30
4.84492e-30
1.51411e-29
4.72982e-29
1.47995e-28
4.59904e-28
1.4253e-27
4.40599e-27
1.35904e-26
4.188e-26
1.29318e-25
3.94721e-25
1.19863e-24
3.62365e-24
1.08983e-23
3.26568e-23
9.77624e-23
2.91232e-22
8.47569e-22
2.52075e-21
7.24018e-21
2.11555e-20
6.01477e-20
1.69748e-19
4.74942e-19
1.33541e-18
3.71199e-18
9.97219e-18
2.76252e-17
7.31285e-17
1.92116e-16
5.00248e-16
1.27678e-15
3.23245e-15
7.96812e-15
1.98055e-14
4.90485e-14
1.18933e-13
2.76335e-13
6.32684e-13
1.51183e-12
3.55783e-12
8.30741e-12
1.89861e-11
4.24134e-11
9.25806e-11
1.97336e-10
4.10289e-10
8.29887e-10
1.62871e-09
2.84103e-09
5.13998e-09
8.55757e-09
1.41905e-08
2.38497e-08
3.94645e-08
6.43046e-08
1.03999e-07
1.6379e-07
2.57038e-07
3.94268e-07
5.75976e-07
7.84951e-07
9.84583e-07
1.1282e-06
1.19611e-06
1.22181e-06
1.29539e-06
1.53334e-06
1.96599e-06
2.38359e-06
2.35313e-06
1.50082e-06
7.71151e-07
3.92464e-07
2.06014e-07
1.05222e-07
5.39917e-08
2.82002e-08
1.50309e-08
7.9837e-09
4.32795e-09
2.34028e-09
1.25205e-09
6.58256e-10
3.389e-10
1.69083e-10
8.68374e-11
5.19484e-11
4.73041e-11
6.39322e-11
1.11208e-10
1.83824e-10
1.8183e-10
1.21995e-10
6.55653e-11
1.88555e-11
2.45144e-32
1.27173e-31
4.51185e-31
1.46219e-30
4.60412e-30
1.43716e-29
4.5096e-29
1.39947e-28
4.3382e-28
1.35585e-27
4.18085e-27
1.28698e-26
3.95637e-26
1.21714e-25
3.75973e-25
1.14332e-24
3.45754e-24
1.04147e-23
3.13605e-23
9.23822e-23
2.78667e-22
8.16731e-22
2.39165e-21
6.9552e-21
2.00893e-20
5.73005e-20
1.62951e-19
4.56928e-19
1.28768e-18
3.53849e-18
9.63137e-18
2.6357e-17
7.04478e-17
1.85534e-16
4.72527e-16
1.22898e-15
3.10492e-15
7.69607e-15
1.93821e-14
4.87947e-14
1.14813e-13
2.76352e-13
6.3391e-13
1.48674e-12
3.50147e-12
8.20816e-12
1.88096e-11
4.21071e-11
9.21091e-11
1.96734e-10
4.09919e-10
8.30894e-10
1.63403e-09
2.85487e-09
5.15837e-09
8.60263e-09
1.43033e-08
2.40685e-08
3.98587e-08
6.49913e-08
1.05165e-07
1.65689e-07
2.59973e-07
3.98508e-07
5.81305e-07
7.90447e-07
9.88729e-07
1.1296e-06