/*--------------------------------*- C++ -*----------------------------------*\
  =========                 |
  \\      /  F ield         | OpenFOAM: The Open Source CFD Toolbox
   \\    /   O peration     | Website:  https://openfoam.org
    \\  /    A nd           | Version:  10
     \\/     M anipulation  |
\*---------------------------------------------------------------------------*/
FoamFile
{
    format      ascii;
    class       volScalarField;
    location    "1";
    object      C4H81;
}
// * * * * * * * * * * * * * * * * * * * * * * * * * * * * * * * * * * * * * //

dimensions      [0 0 0 0 0 0 0];

internalField   nonuniform List<scalar> 
4000
(
2.36035e-23
5.70622e-23
8.41607e-23
1.25249e-22
1.87311e-22
2.59239e-22
3.42352e-22
4.3536e-22
5.52624e-22
7.24376e-22
9.77846e-22
1.22398e-21
1.49476e-21
1.81009e-21
2.27873e-21
3.13098e-21
5.00174e-21
9.96785e-21
2.35578e-20
6.22066e-20
1.7337e-19
4.89671e-19
1.49243e-18
4.38302e-18
1.30754e-17
3.89354e-17
1.14615e-16
3.47645e-16
1.0277e-15
3.03799e-15
8.97989e-15
2.65038e-14
7.73984e-14
2.24622e-13
6.48608e-13
1.81039e-12
5.12751e-12
1.47351e-11
4.13061e-11
1.14646e-10
3.07317e-10
8.08461e-10
2.08099e-09
5.23052e-09
1.28223e-08
3.29194e-08
8.5994e-08
2.21244e-07
5.54233e-07
1.34107e-06
3.12067e-06
7.08142e-06
1.44105e-05
3.05136e-05
6.24657e-05
0.000121326
0.000220247
0.000389359
0.000652167
0.00103261
0.00154267
0.00215162
0.00288202
0.00371438
0.00461989
0.00556414
0.00651757
0.00743007
0.00827761
0.00903463
0.00965692
0.0100566
0.0100499
0.00927859
0.00738937
0.00470021
0.00241724
0.00118553
0.000587101
0.000294271
0.000151075
7.93178e-05
4.24513e-05
2.3054e-05
1.26204e-05
6.90667e-06
3.74807e-06
2.00164e-06
1.0444e-06
5.28759e-07
2.58332e-07
1.17606e-07
5.17416e-08
2.16563e-08
8.96296e-09
4.27766e-09
2.35695e-09
1.33493e-09
7.0532e-10
2.06249e-10
1.62115e-23
1.64124e-22
2.83489e-22
5.15626e-22
7.25809e-22
8.64018e-22
9.93657e-22
1.13663e-21
1.34746e-21
1.61785e-21
1.82758e-21
2.03505e-21
2.28937e-21
2.52939e-21
2.89057e-21
3.56874e-21
5.07634e-21
9.15078e-21
2.10771e-20
5.71697e-20
1.67626e-19
5.09582e-19
1.56408e-18
4.81527e-18
1.48484e-17
4.54855e-17
1.38938e-16
4.22811e-16
1.27504e-15
3.80691e-15
1.13183e-14
3.51113e-14
1.03496e-13
2.99168e-13
8.59504e-13
2.43483e-12
6.99462e-12
1.94783e-11
5.41956e-11
1.47239e-10
3.95237e-10
1.0279e-09
2.64609e-09
6.63097e-09
1.68856e-08
4.39889e-08
1.13445e-07
2.86303e-07
7.06896e-07
1.70517e-06
3.68597e-06
7.5445e-06
1.63032e-05
3.38072e-05
6.83053e-05
0.000132739
0.000234607
0.000406434
0.000671142
0.0010462
0.00155018
0.00215102
0.00287098
0.00369192
0.00458466
0.00551938
0.00646697
0.00738458
0.00823525
0.00899865
0.00963385
0.0100507
0.0100707
0.00933717
0.00747642
0.00477847
0.00246038
0.00120489
0.000595849
0.000298249
0.000152889
8.01786e-05
4.28687e-05
2.32453e-05
1.27e-05
6.93451e-06
3.75356e-06
1.99874e-06
1.03921e-06
5.23986e-07
2.54782e-07
1.154e-07
5.0487e-08
2.10483e-08
8.73471e-09
4.2194e-09
2.33774e-09
1.32663e-09
7.01604e-10
2.04778e-10
1.48233e-22
3.32981e-22
6.00935e-22
8.5305e-22
1.2651e-21
1.44165e-21
1.59179e-21
1.79737e-21
2.07827e-21
2.22669e-21
2.45398e-21
2.59917e-21
2.75618e-21
2.97793e-21
3.18954e-21
3.70456e-21
4.96672e-21
8.68614e-21
2.07366e-20
5.81077e-20
1.78987e-19
5.67367e-19
1.80635e-18
5.72136e-18
1.79732e-17
5.60193e-17
1.73833e-16
5.40031e-16
1.63939e-15
4.94081e-15
1.51844e-14
4.50927e-14
1.30852e-13
3.83135e-13
1.11377e-12
3.16402e-12
8.83579e-12
2.4507e-11
6.7366e-11
1.8063e-10
4.78607e-10
1.19834e-09
3.20061e-09
7.88204e-09
2.0678e-08
5.26551e-08
1.35851e-07
3.39533e-07
8.1217e-07
1.92266e-06
4.1349e-06
8.52143e-06
1.83086e-05
3.84503e-05
7.52619e-05
0.000138718
0.000241583
0.000415331
0.000681249
0.00105754
0.00155858
0.00215376
0.00286482
0.00367364
0.00455586
0.00548155
0.00642195
0.00733546
0.00819337
0.00896536
0.00961469
0.0100471
0.0100933
0.00940048
0.00757399
0.00486557
0.00250818
0.00122636
0.000605576
0.000302767
0.000155107
8.12581e-05
4.33879e-05
2.34623e-05
1.27851e-05
6.96124e-06
3.75598e-06
1.99266e-06
1.03175e-06
5.16995e-07
2.49703e-07
1.12401e-07
4.88842e-08
2.02907e-08
8.47125e-09
4.15675e-09
2.32166e-09
1.3227e-09
7.00653e-10
2.0426e-10
8.21145e-23
2.48904e-22
5.12766e-22
7.42971e-22
9.95291e-22
1.17682e-21
1.28753e-21
1.32409e-21
1.49934e-21
1.821e-21
2.15252e-21
2.41936e-21
2.74876e-21
3.11207e-21
3.48231e-21
4.17884e-21
5.99407e-21
1.11432e-20
2.72267e-20
7.82589e-20
2.41513e-19
7.64107e-19
2.4189e-18
7.6267e-18
2.41692e-17
7.51647e-17
2.32084e-16
7.09421e-16
2.1025e-15
6.57619e-15
1.95249e-14
5.7788e-14
1.68688e-13
4.90528e-13
1.41305e-12
3.98715e-12
1.10517e-11
3.05941e-11
8.21128e-11
2.23768e-10
5.87472e-10
1.50017e-09
3.87839e-09
9.54967e-09
2.39659e-08
6.22317e-08
1.58424e-07
3.87903e-07
9.42011e-07
2.05141e-06
4.35524e-06
9.72271e-06
2.09141e-05
4.25457e-05
8.18689e-05
0.000142808
0.000248626
0.000424583
0.00069261
0.0010668
0.00156416
0.00215376
0.00285751
0.00365869
0.00453242
0.00544991
0.00638343
0.00729756
0.00815849
0.00893674
0.00959571
0.0100427
0.0101125
0.00945509
0.00766885
0.00491469
0.00254012
0.00124258
0.000613697
0.000306816
0.000157141
8.23324e-05
4.4064e-05
2.34847e-05
1.28003e-05
6.96386e-06
3.75139e-06
1.98646e-06
1.02795e-06
5.0687e-07
2.43768e-07
1.09401e-07
4.73445e-08
1.95873e-08
8.23766e-09
4.10709e-09
2.31233e-09
1.32305e-09
7.02011e-10
2.04434e-10
8.48128e-23
1.80242e-22
2.65177e-22
4.26208e-22
5.70377e-22
6.73054e-22
8.62636e-22
1.02004e-21
1.29483e-21
1.59982e-21
1.82783e-21
2.13249e-21
2.51872e-21
2.98521e-21
3.58559e-21
4.68797e-21
7.16808e-21
1.44447e-20
3.69986e-20
1.08317e-19
3.3604e-19
1.0546e-18
3.31335e-18
1.03676e-17
3.22772e-17
9.96674e-17
3.05444e-16
9.39563e-16
2.83343e-15
8.46045e-15
2.5064e-14
7.53585e-14
2.17972e-13
6.28681e-13
1.78319e-12
4.99032e-12
1.37203e-11
3.68621e-11
1.00945e-10
2.68292e-10
6.97001e-10
1.7787e-09
4.4359e-09
1.11933e-08
2.78472e-08
7.15871e-08
1.7838e-07
4.40946e-07
9.90039e-07
2.12539e-06
4.83257e-06
1.06567e-05
2.29566e-05
4.71865e-05
8.45711e-05
0.00014728
0.0002555
0.000432659
0.000700659
0.00107523
0.00157027
0.00215599
0.00285392
0.00364805
0.00451387
0.00542264
0.00635398
0.0072688
0.00813333
0.00891536
0.00958235
0.0100411
0.0101298
0.00950249
0.0077427
0.00497893
0.00257523
0.00125899
0.000621317
0.000310407
0.000158909
8.32261e-05
4.45157e-05
2.37087e-05
1.28986e-05
7.00283e-06
3.76325e-06
1.98704e-06
1.02461e-06
5.03423e-07
2.40867e-07
1.07709e-07
4.63843e-08
1.91325e-08
8.10641e-09
4.09153e-09
2.31759e-09
1.33056e-09
7.06911e-10
2.05657e-10
3.37485e-23
1.18899e-22
2.83055e-22
4.89868e-22
6.53443e-22
8.1764e-22
9.57511e-22
1.1651e-21
1.25673e-21
1.39611e-21
1.63718e-21
2.03712e-21
2.49294e-21
2.9318e-21
3.72925e-21
5.23616e-21
8.90406e-21
1.97602e-20
5.30738e-20
1.57141e-19
4.89546e-19
1.51396e-18
4.67256e-18
1.43659e-17
4.42734e-17
1.36719e-16
4.1286e-16
1.23259e-15
3.72723e-15
1.09602e-14
3.18116e-14
9.62344e-14
2.74266e-13
7.77265e-13
2.15553e-12
6.05844e-12
1.63599e-11
4.31433e-11
1.19725e-10
3.25159e-10
8.24439e-10
2.05712e-09
5.13495e-09
1.276e-08
3.20958e-08
8.00994e-08
2.03822e-07
4.65323e-07
1.03202e-06
2.33377e-06
5.26487e-06
1.15836e-05
2.44486e-05
4.96944e-05
8.84648e-05
0.000152335
0.000261074
0.000440422
0.000708199
0.00108162
0.00157411
0.00215588
0.00284882
0.00363747
0.0044985
0.00540395
0.00633076
0.00724228
0.00810821
0.00889581
0.00957037
0.0100379
0.0101405
0.00953318
0.00779352
0.00502894
0.00260425
0.00127252
0.000627726
0.000313563
0.000160485
8.40323e-05
4.49225e-05
2.39332e-05
1.30085e-05
7.05307e-06
3.78358e-06
1.99328e-06
1.02486e-06
5.02481e-07
2.3946e-07
1.06868e-07
4.5854e-08
1.88755e-08
8.05131e-09
4.10058e-09
2.33295e-09
1.34278e-09
7.1396e-10
2.07557e-10
3.40773e-23
1.23446e-22
1.92132e-22
3.1557e-22
3.96811e-22
5.28344e-22
6.87252e-22
9.1321e-22
1.22003e-21
1.53999e-21
1.93824e-21
2.30813e-21
2.69797e-21
3.1758e-21
3.94479e-21
5.80883e-21
1.08514e-20
2.59169e-20
7.2082e-20
2.17452e-19
6.67876e-19
2.05722e-18
6.24314e-18
1.94855e-17
5.88499e-17
1.76933e-16
5.3029e-16
1.53681e-15
4.71096e-15
1.38961e-14
4.03506e-14
1.16203e-13
3.33335e-13
9.42429e-13
2.60494e-12
7.23542e-12
1.99056e-11
5.20034e-11
1.43365e-10
3.74377e-10
9.51756e-10
2.3867e-09
5.85952e-09
1.44499e-08
3.55029e-08
8.91211e-08
2.16694e-07
4.72596e-07
1.10588e-06
2.52162e-06
5.60966e-06
1.21931e-05
2.55148e-05
5.14384e-05
9.10796e-05
0.000156205
0.000265668
0.000445532
0.000713724
0.0010861
0.0015759
0.00215423
0.00284269
0.00362665
0.00448323
0.00538574
0.00631052
0.00721999
0.00808794
0.0088787
0.0095588
0.0100339
0.010149
0.00956168
0.00784242
0.00507707
0.0026341
0.00128675
0.000634579
0.000316877
0.00016215
8.48857e-05
4.53611e-05
2.41746e-05
1.31314e-05
7.11324e-06
3.81117e-06
2.0046e-06
1.0285e-06
5.0356e-07
2.39275e-07
1.06666e-07
4.56481e-08
1.87656e-08
8.04698e-09
4.12563e-09
2.35479e-09
1.35787e-09
7.2238e-10
2.09894e-10
3.78279e-23
1.04684e-22
2.2543e-22
4.21041e-22
5.79421e-22
7.7187e-22
9.65797e-22
1.20826e-21
1.42033e-21
1.71508e-21
2.00503e-21
2.48496e-21
3.03833e-21
3.68389e-21
4.63144e-21
7.13387e-21
1.4071e-20
3.43909e-20
9.67277e-20
2.89893e-19
8.87096e-19
2.71885e-18
8.30643e-18
2.52215e-17
7.61188e-17
2.28369e-16
6.7891e-16
1.98857e-15
5.75222e-15
1.66711e-14
4.88399e-14
1.42065e-13
4.0258e-13
1.12523e-12
3.0725e-12
8.42931e-12
2.29817e-11
5.94449e-11
1.61084e-10
4.26391e-10
1.07824e-09
2.66614e-09
6.62668e-09
1.6143e-08
3.97627e-08
9.8691e-08
2.25424e-07
5.11967e-07
1.1905e-06
2.69565e-06
5.98882e-06
1.28477e-05
2.65893e-05
5.31121e-05
9.34466e-05
0.000159274
0.000269396
0.000449673
0.000717458
0.00108829
0.00157518
0.00215004
0.0028341
0.00361433
0.00446633
0.00536316
0.00628816
0.0071971
0.00806749
0.00886071
0.00954574
0.0100284
0.0101563
0.00959024
0.00789436
0.00513069
0.00266736
0.00130275
0.000642364
0.000320594
0.000164018
8.58458e-05
4.58603e-05
2.44447e-05
1.32723e-05
7.18509e-06
3.84645e-06
2.02094e-06
1.03539e-06
5.06454e-07
2.40166e-07
1.06985e-07
4.57037e-08
1.8772e-08
8.08001e-09
4.16171e-09
2.38068e-09
1.37462e-09
7.31571e-10
2.12488e-10
6.14743e-23
1.98104e-22
3.81832e-22
6.40632e-22
7.60012e-22
9.0599e-22
1.05931e-21
1.27552e-21
1.48574e-21
1.73706e-21
1.92325e-21
2.2528e-21
2.71902e-21
3.40319e-21
4.7501e-21
7.79975e-21
1.63311e-20
4.20031e-20
1.20296e-19
3.65434e-19
1.11416e-18
3.36996e-18
1.03771e-17
3.12076e-17
9.37573e-17
2.81807e-16
8.35568e-16
2.45643e-15
7.14211e-15
2.04437e-14
5.85524e-14
1.67905e-13
4.72225e-13
1.31449e-12
3.61178e-12
9.76422e-12
2.62126e-11
6.72173e-11
1.80965e-10
4.72037e-10
1.19797e-09
2.98191e-09
7.32874e-09
1.79539e-08
4.21162e-08
9.70381e-08
2.35913e-07
5.54979e-07
1.27547e-06
2.88094e-06
6.30646e-06
1.33889e-05
2.74768e-05
5.44785e-05
9.52246e-05
0.000161537
0.000272094
0.000452415
0.000719417
0.00108817
0.00157158
0.00214161
0.00282082
0.00359453
0.00444249
0.00533893
0.0062597
0.00717082
0.0080415
0.00883851
0.00952738
0.0100185
0.0101613
0.00961907
0.00794971
0.00519023
0.0027055
0.00132119
0.00065146
0.000324904
0.000166181
8.69558e-05
4.64398e-05
2.47518e-05
1.34343e-05
7.26953e-06
3.88945e-06
2.04207e-06
1.04523e-06
5.10932e-07
2.41974e-07
1.0774e-07
4.5973e-08
1.88725e-08
8.14476e-09
4.20709e-09
2.40979e-09
1.39251e-09
7.41252e-10
2.15247e-10
5.7971e-23
1.99623e-22
3.4493e-22
4.96099e-22
6.34341e-22
8.14548e-22
1.0531e-21
1.34398e-21
1.61317e-21
1.85334e-21
2.11204e-21
2.59806e-21
3.23324e-21
3.96703e-21
5.55039e-21
9.25223e-21
2.00181e-20
5.16462e-20
1.49081e-19
4.46187e-19
1.34634e-18
4.14451e-18
1.25286e-17
3.77002e-17
1.12661e-16
3.34957e-16
9.8924e-16
2.89292e-15
8.50594e-15
2.45819e-14
7.00623e-14
1.96681e-13
5.46127e-13
1.50438e-12
4.07848e-12
1.0913e-11
2.88458e-11
7.43031e-11
2.02378e-10
5.18803e-10
1.29121e-09
3.19979e-09
7.82594e-09
1.85314e-08
4.29732e-08
1.05993e-07
2.53866e-07
5.93697e-07
1.36501e-06
3.0474e-06
6.61498e-06
1.39292e-05
2.83163e-05
5.53783e-05
9.64698e-05
0.000163334
0.000273952
0.000453918
0.000719725
0.00108637
0.00156665
0.00213259
0.00280538
0.00357411
0.0044173
0.00530947
0.00623003
0.00714331
0.00801597
0.00881478
0.00950887
0.0100094
0.0101673
0.00965111
0.00801573
0.00526404
0.00275419
0.00134458
0.000662642
0.00033005
0.000168713
8.82358e-05
4.71034e-05
2.50956e-05
1.36149e-05
7.36483e-06
3.93896e-06
2.06715e-06
1.05751e-06
5.16683e-07
2.44513e-07
1.08835e-07
4.64086e-08
1.90445e-08
8.23049e-09
4.25814e-09
2.44082e-09
1.41102e-09
7.51176e-10
2.18097e-10
5.58176e-23
1.99602e-22
3.73569e-22
4.97816e-22
6.20161e-22
7.5784e-22
8.97948e-22
1.03193e-21
1.2658e-21
1.53165e-21
1.92677e-21
2.33267e-21
2.9251e-21
3.82712e-21
5.45052e-21
9.64455e-21
2.21292e-20
5.96949e-20
1.74528e-19
5.26642e-19
1.58028e-18
4.85879e-18
1.46325e-17
4.3838e-17
1.29435e-16
3.87612e-16
1.1335e-15
3.31014e-15
9.68985e-15
2.79646e-14
7.95145e-14
2.228e-13
6.1465e-13
1.69619e-12
4.5589e-12
1.21386e-11
3.19445e-11
8.22158e-11
2.21221e-10
5.60223e-10
1.38595e-09
3.38242e-09
8.09735e-09
1.90376e-08
4.67273e-08
1.13952e-07
2.72234e-07
6.37421e-07
1.45391e-06
3.233e-06
7.00102e-06
1.47228e-05
3.00938e-05
5.56281e-05
9.7402e-05
0.000164615
0.000275011
0.000454276
0.000718475
0.00108191
0.00155771
0.00211902
0.0027894
0.00355322
0.00439235
0.0052815
0.00620045
0.00711304
0.00798975
0.00879246
0.00949076
0.00999951
0.0101718
0.00968177
0.00807772
0.00533342
0.00280154
0.00136728
0.000673799
0.000335259
0.000171305
8.95589e-05
4.77961e-05
2.54544e-05
1.38079e-05
7.46686e-06
3.99245e-06
2.09471e-06
1.07143e-06
5.23322e-07
2.47576e-07
1.10175e-07
4.69637e-08
1.92688e-08
8.33177e-09
4.31332e-09
2.47306e-09
1.4298e-09
7.61169e-10
2.20981e-10
2.8989e-23
1.02345e-22
2.60436e-22
3.95398e-22
4.88111e-22
6.53399e-22
8.51647e-22
1.13783e-21
1.33024e-21
1.64036e-21
2.02905e-21
2.48431e-21
3.05869e-21
3.91598e-21
5.72157e-21
1.06191e-20
2.49881e-20
6.86623e-20
2.01623e-19
6.0685e-19
1.83571e-18
5.53656e-18
1.67347e-17
4.99828e-17
1.48329e-16
4.36606e-16
1.27812e-15
3.6784e-15
1.07973e-14
3.08186e-14
8.54957e-14
2.46051e-13
6.81744e-13
1.84502e-12
5.09163e-12
1.33923e-11
3.46984e-11
8.90584e-11
2.3376e-10
6.03592e-10
1.47924e-09
3.58441e-09
8.54751e-09
2.03735e-08
4.98966e-08
1.21155e-07
2.88567e-07
6.72957e-07
1.52833e-06
3.38279e-06
7.29359e-06
1.52732e-05
3.0996e-05
5.56391e-05
9.82244e-05
0.000165662
0.000275576
0.000453924
0.000716407
0.0010777
0.00154987
0.00210706
0.00277105
0.00353118
0.00436698
0.00525377
0.00617195
0.00708348
0.00796219
0.00877023
0.00946893
0.00998629
0.0101734
0.00970909
0.00813791
0.00540568
0.0028504
0.00139134
0.00068558
0.000340743
0.000174003
9.09256e-05
4.85107e-05
2.58233e-05
1.4007e-05
7.57501e-06
4.05049e-06
2.12521e-06
1.08689e-06
5.30687e-07
2.51039e-07
1.11714e-07
4.76178e-08
1.95338e-08
8.44471e-09
4.371e-09
2.50566e-09
1.44841e-09
7.71014e-10
2.23835e-10
2.12238e-23
7.60413e-23
2.39139e-22
3.48776e-22
5.37361e-22
7.74914e-22
1.1281e-21
1.42227e-21
1.64282e-21
1.95924e-21
2.32366e-21
2.71004e-21
3.27263e-21
4.1973e-21
6.19403e-21
1.17787e-20
2.73027e-20
7.7303e-20
2.26765e-19
6.83917e-19
2.06849e-18
6.24115e-18
1.87446e-17
5.52187e-17
1.66383e-16
4.85049e-16
1.40433e-15
4.04274e-15
1.16548e-14
3.41419e-14
9.53616e-14
2.69943e-13
7.42769e-13
2.03992e-12
5.45526e-12
1.43231e-11
3.69075e-11
9.4373e-11
2.47082e-10
6.40768e-10
1.57537e-09
3.82827e-09
9.0349e-09
2.19384e-08
5.25541e-08
1.27323e-07
3.02474e-07
6.99782e-07
1.57856e-06
3.4721e-06
7.44001e-06
1.54875e-05
3.12284e-05
5.56176e-05
9.91533e-05
0.00016646
0.00027569
0.000452892
0.000713523
0.00107209
0.00154181
0.00209502
0.00275415
0.00350946
0.00434146
0.00522565
0.00614321
0.00705406
0.00793466
0.00874581
0.00944886
0.00997482
0.0101759
0.0097371
0.00820116
0.00548187
0.00290405
0.00141697
0.000697918
0.000346438
0.00017685
9.23829e-05
4.92749e-05
2.62096e-05
1.42139e-05
7.68632e-06
4.11004e-06
2.15665e-06
1.10326e-06
5.38614e-07
2.54844e-07
1.13373e-07
4.83202e-08
1.98187e-08
8.56241e-09
4.4304e-09
2.53924e-09
1.46754e-09
7.81125e-10
2.26766e-10
3.73954e-23
1.45711e-22
2.08389e-22
3.26736e-22
4.68068e-22
6.54322e-22
9.72382e-22
1.18148e-21
1.40322e-21
1.72504e-21
2.0413e-21
2.55889e-21
3.25472e-21
4.41725e-21
6.82842e-21
1.28605e-20
3.07421e-20
8.46986e-20
2.49691e-19
7.48708e-19
2.24804e-18
6.66224e-18
2.05659e-17
6.08792e-17
1.79735e-16
5.25388e-16
1.54314e-15
4.44219e-15
1.27744e-14
3.63395e-14
1.01442e-13
2.89991e-13
7.85513e-13
2.16422e-12
5.75192e-12
1.51195e-11
3.9064e-11
9.80128e-11
2.60676e-10
6.77283e-10
1.64359e-09
3.96624e-09
9.49967e-09
2.31194e-08
5.48573e-08
1.3262e-07
3.12655e-07
7.19219e-07
1.61423e-06
3.53338e-06
7.53487e-06
1.56236e-05
3.13393e-05
5.55678e-05
9.98205e-05
0.000167026
0.000275555
0.000451717
0.000710772
0.00106653
0.00153227
0.00208168
0.00273802
0.00348889
0.00431762
0.00519931
0.00611556
0.00702832
0.00790916
0.00872295
0.00943013
0.00996285
0.0101768
0.00976139
0.00825758
0.00555516
0.002956
0.00144203
0.000710273
0.000352209
0.00017969
9.38217e-05
5.00261e-05
2.65926e-05
1.44185e-05
7.79619e-06
4.16877e-06
2.18766e-06
1.11936e-06
5.46383e-07
2.58581e-07
1.15037e-07
4.90413e-08
2.01147e-08
8.68188e-09
4.48839e-09
2.57123e-09
1.48547e-09
7.90542e-10
2.29502e-10
5.68186e-23
1.602e-22
2.8819e-22
4.72679e-22
6.06917e-22
7.13694e-22
8.49739e-22
1.01445e-21
1.28459e-21
1.72817e-21
2.18745e-21
2.78318e-21
3.50539e-21
4.67825e-21
7.10878e-21
1.35555e-20
3.25671e-20
9.16656e-20
2.69075e-19
7.99052e-19
2.46547e-18
7.39001e-18
2.2129e-17
6.53909e-17
1.94529e-16
5.6572e-16
1.64586e-15
4.72143e-15
1.34866e-14
3.88153e-14
1.09494e-13
3.05629e-13
8.27847e-13
2.27073e-12
5.95944e-12
1.54877e-11
4.09797e-11
1.0241e-10
2.70307e-10
6.90892e-10
1.74045e-09
4.18534e-09
1.00443e-08
2.36501e-08
5.6717e-08
1.36428e-07
3.2035e-07
7.34146e-07
1.64187e-06
3.5817e-06
7.61115e-06
1.57113e-05
3.14018e-05
5.5515e-05
0.00010024
0.000167307
0.000275068
0.000450143
0.000707385
0.00106112
0.00152371
0.00206945
0.00272177
0.0034698
0.00429544
0.00517476
0.00608981
0.00700218
0.00788439
0.00870145
0.0094128
0.00995201
0.0101775
0.00978342
0.00830881
0.00562282
0.00300476
0.00146589
0.000721849
0.000357571
0.000182326
9.51541e-05
5.07201e-05
2.69438e-05
1.46066e-05
7.89739e-06
4.22301e-06
2.21638e-06
1.13431e-06
5.53613e-07
2.62068e-07
1.16578e-07
4.9708e-08
2.0388e-08
8.7921e-09
4.54096e-09
2.59992e-09
1.50145e-09
7.98922e-10
2.31942e-10
3.6757e-23
1.81244e-22
3.69042e-22
5.63483e-22
7.26114e-22
8.92046e-22
1.00673e-21
1.15387e-21
1.38858e-21
1.5754e-21
1.86323e-21
2.39963e-21
2.98165e-21
4.10665e-21
6.70936e-21
1.37279e-20
3.43216e-20
9.7455e-20
2.86681e-19
8.60833e-19
2.61129e-18
7.8528e-18
2.35245e-17
6.99102e-17
2.05408e-16
5.97385e-16
1.73853e-15
4.96796e-15
1.40436e-14
4.04876e-14
1.13063e-13
3.16211e-13
8.70219e-13
2.34789e-12
6.24476e-12
1.64421e-11
4.25786e-11
1.10507e-10
2.83634e-10
7.34025e-10
1.79147e-09
4.25624e-09
1.02456e-08
2.41496e-08
5.81603e-08
1.39381e-07
3.26199e-07
7.45191e-07
1.66148e-06
3.61353e-06
7.65912e-06
1.57696e-05
3.14407e-05
5.54575e-05
0.000100507
0.000167431
0.000274482
0.000448446
0.000704165
0.00105568
0.00151588
0.00205898
0.00270844
0.0034541
0.00427681
0.005154
0.00606811
0.0069806
0.0078631
0.00868259
0.00939753
0.00994223
0.0101773
0.00980117
0.00835174
0.00568055
0.00304684
0.00148636
0.000731804
0.000362193
0.000184599
9.63012e-05
5.13194e-05
2.7247e-05
1.47691e-05
7.98498e-06
4.27004e-06
2.24135e-06
1.14736e-06
5.59942e-07
2.65162e-07
1.17943e-07
5.02991e-08
2.06303e-08
8.88858e-09
4.58648e-09
2.62457e-09
1.51509e-09
8.06051e-10
2.34017e-10
3.22729e-23
1.57619e-22
2.92299e-22
3.73245e-22
5.43487e-22
7.81431e-22
1.00573e-21
1.35429e-21
1.60105e-21
1.83717e-21
2.14612e-21
2.58837e-21
3.13372e-21
4.1872e-21
6.85739e-21
1.41795e-20
3.60033e-20
1.02103e-19
3.02643e-19
9.09939e-19
2.75591e-18
8.23485e-18
2.47535e-17
7.32322e-17
2.15247e-16
6.27263e-16
1.81059e-15
5.16385e-15
1.47014e-14
4.21056e-14
1.17863e-13
3.31743e-13
9.04387e-13
2.43451e-12
6.47014e-12
1.70852e-11
4.44304e-11
1.13819e-10
2.9012e-10
7.40647e-10
1.81772e-09
4.36826e-09
1.02578e-08
2.44514e-08
5.9316e-08
1.41658e-07
3.30653e-07
7.53614e-07
1.67651e-06
3.63811e-06
7.69526e-06
1.58114e-05
3.14646e-05
5.54127e-05
0.000100661
0.000167448
0.00027392
0.000447118
0.000701745
0.00105178
0.00151016
0.00205062
0.00269728
0.00344008
0.004261
0.00513682
0.00605025
0.00696255
0.00784558
0.00866721
0.00938518
0.00993427
0.010177
0.00981477
0.00838517
0.00572611
0.00308043
0.00150273
0.00073976
0.000365889
0.000186414
9.72146e-05
5.17947e-05
2.74873e-05
1.4898e-05
8.0546e-06
4.30751e-06
2.2613e-06
1.15781e-06
5.65017e-07
2.6764e-07
1.19037e-07
5.0775e-08
2.08252e-08
8.96467e-09
4.62232e-09
2.64402e-09
1.52586e-09
8.11684e-10
2.35658e-10
6.38764e-23
2.33294e-22
4.03176e-22
5.31923e-22
5.92568e-22
6.46072e-22
7.96044e-22
1.08675e-21
1.19855e-21
1.38881e-21
1.66163e-21
2.01583e-21
2.57574e-21
3.64677e-21
6.51473e-21
1.43703e-20
3.73204e-20
1.06276e-19
3.15796e-19
9.49349e-19
2.85592e-18
8.55048e-18
2.5443e-17
7.49023e-17
2.22451e-16
6.48003e-16
1.87872e-15
5.37569e-15
1.54788e-14
4.34926e-14
1.21151e-13
3.33887e-13
9.24086e-13
2.48242e-12
6.67061e-12
1.76219e-11
4.54475e-11
1.14566e-10
2.93785e-10
7.45509e-10
1.8251e-09
4.3671e-09
1.03591e-08
2.47309e-08
6.01408e-08
1.43293e-07
3.3383e-07
7.59615e-07
1.68731e-06
3.6564e-06
7.72112e-06
1.58429e-05
3.14832e-05
5.53835e-05
0.000100755
0.000167444
0.000273511
0.000446137
0.000699945
0.00104888
0.00150593
0.00204479
0.0026897
0.00343084
0.00425045
0.00512515
0.00603808
0.00695039
0.00783343
0.00865657
0.00937665
0.00992868
0.0101765
0.00982403
0.00840839
0.00575815
0.00310425
0.00151436
0.000745408
0.000368514
0.000187705
9.78685e-05
5.21345e-05
2.76588e-05
1.49899e-05
8.10416e-06
4.33417e-06
2.27547e-06
1.16525e-06
5.68633e-07
2.69408e-07
1.19816e-07
5.11142e-08
2.09643e-08
9.01922e-09
4.64777e-09
2.65774e-09
1.53343e-09
8.15633e-10
2.36809e-10
5.33461e-23
1.67825e-22
2.72872e-22
4.03885e-22
4.83836e-22
5.94791e-22
7.26436e-22
9.37269e-22
1.12652e-21
1.34186e-21
1.67934e-21
2.09925e-21
2.65802e-21
3.81842e-21
6.67341e-21
1.45066e-20
3.78123e-20
1.08355e-19
3.2113e-19
9.62267e-19
2.89428e-18
8.66369e-18
2.60174e-17
7.66074e-17
2.26902e-16
6.58913e-16
1.91001e-15
5.52054e-15
1.57174e-14
4.43462e-14
1.2379e-13
3.47326e-13
9.39988e-13
2.52338e-12
6.77273e-12
1.76487e-11
4.59531e-11
1.16204e-10
3.05328e-10
7.67348e-10
1.84867e-09
4.43449e-09
1.03614e-08
2.51366e-08
6.05813e-08
1.44284e-07
3.35916e-07
7.63597e-07
1.69438e-06
3.66798e-06
7.73788e-06
1.58634e-05
3.14996e-05
5.53756e-05
0.000100826
0.000167468
0.000273328
0.000445664
0.000699039
0.00104737
0.00150365
0.00204172
0.00268578
0.00342607
0.00424492
0.00511906
0.00603172
0.00694391
0.00782702
0.00865089
0.00937195
0.0099256
0.0101762
0.00982887
0.0084206
0.00577513
0.00311695
0.00152056
0.000748419
0.000369915
0.000188394
9.82172e-05
5.23169e-05
2.77509e-05
1.50394e-05
8.13092e-06
4.34859e-06
2.28316e-06
1.16928e-06
5.70594e-07
2.70366e-07
1.20238e-07
5.12976e-08
2.10396e-08
9.04898e-09
4.6615e-09
2.66509e-09
1.53747e-09
8.17742e-10
2.37424e-10
5.194e-23
1.98996e-22
3.55658e-22
4.99829e-22
5.87881e-22
6.86877e-22
9.46994e-22
1.27691e-21
1.53018e-21
1.6823e-21
1.97886e-21
2.25195e-21
2.71264e-21
3.59898e-21
6.35759e-21
1.43132e-20
3.77984e-20
1.09181e-19
3.25325e-19
9.77441e-19
2.96139e-18
8.87487e-18
2.64581e-17
7.81452e-17
2.28032e-16
6.7193e-16
1.93973e-15
5.58703e-15
1.60646e-14
4.555e-14
1.26851e-13
3.47642e-13
9.59121e-13
2.60418e-12
6.8898e-12
1.7937e-11
4.66639e-11
1.16787e-10
3.07711e-10
7.62893e-10
1.87775e-09
4.47325e-09
1.05721e-08
2.5172e-08
6.08358e-08
1.44885e-07
3.37144e-07
7.65977e-07
1.69876e-06
3.6756e-06
7.75022e-06
1.58807e-05
3.15196e-05
5.53901e-05
0.000100908
0.000167547
0.000273359
0.000445621
0.000698884
0.00104706
0.00150316
0.00204104
0.00268492
0.00342506
0.00424378
0.00511785
0.00603049
0.00694271
0.00782584
0.00864987
0.00937112
0.00992504
0.0101761
0.00982957
0.00842246
0.00577775
0.00311889
0.00152149
0.00074887
0.000370123
0.000188495
9.82678e-05
5.23431e-05
2.77641e-05
1.50464e-05
8.13472e-06
4.35063e-06
2.28424e-06
1.16984e-06
5.70864e-07
2.70497e-07
1.20297e-07
5.13228e-08
2.10498e-08
9.05283e-09
4.66338e-09
2.66612e-09
1.53804e-09
8.18032e-10
2.37507e-10
2.84848e-23
1.56638e-22
3.4288e-22
4.96408e-22
6.38997e-22
8.52624e-22
1.10144e-21
1.38634e-21
1.63871e-21
1.81434e-21
1.93749e-21
2.30407e-21
2.68079e-21
3.71663e-21
6.5703e-21
1.44462e-20
3.80331e-20
1.08536e-19
3.2831e-19
9.85972e-19
2.98205e-18
8.95137e-18
2.67348e-17
7.93163e-17
2.32846e-16
6.76462e-16
1.93032e-15
5.68808e-15
1.61532e-14
4.5682e-14
1.2801e-13
3.53456e-13
9.71349e-13
2.60645e-12
6.95285e-12
1.80626e-11
4.69626e-11
1.18149e-10
3.09316e-10
7.67161e-10
1.88725e-09
4.43496e-09
1.06953e-08
2.52444e-08
6.08292e-08
1.45117e-07
3.37631e-07
7.6699e-07
1.70089e-06
3.67995e-06
7.75891e-06
1.58974e-05
3.15502e-05
5.54401e-05
0.000101021
0.000167726
0.000273715
0.000446202
0.000699767
0.00104835
0.00150494
0.00204339
0.0026879
0.00342865
0.00424791
0.0051224
0.00603525
0.00694747
0.0078305
0.00865399
0.00937449
0.00992724
0.0101763
0.00982596
0.00841342
0.00576528
0.00310956
0.00151693
0.000746649
0.000369091
0.000187987
9.8011e-05
5.22089e-05
2.76964e-05
1.50101e-05
8.11507e-06
4.34002e-06
2.27858e-06
1.16686e-06
5.69415e-07
2.69784e-07
1.19981e-07
5.11846e-08
2.0993e-08
9.0308e-09
4.65313e-09
2.6606e-09
1.53501e-09
8.16453e-10
2.37047e-10
3.29995e-23
9.28697e-23
2.05234e-22
3.67779e-22
5.48456e-22
7.40625e-22
8.33343e-22
1.07647e-21
1.3547e-21
1.56712e-21
1.83608e-21
2.22239e-21
2.73039e-21
3.88694e-21
6.54786e-21
1.43401e-20
3.73675e-20
1.0712e-19
3.22116e-19
9.69501e-19
2.90882e-18
8.8402e-18
2.63131e-17
7.8687e-17
2.30353e-16
6.67717e-16
1.92386e-15
5.59573e-15
1.58994e-14
4.49574e-14
1.25487e-13
3.45783e-13
9.67603e-13
2.57958e-12
6.69715e-12
1.76571e-11
4.60696e-11
1.14596e-10
2.97894e-10
7.72721e-10
1.83786e-09
4.47192e-09
1.04224e-08
2.53047e-08
6.07946e-08
1.44891e-07
3.37225e-07
7.66415e-07
1.70037e-06
3.68043e-06
7.76307e-06
1.59117e-05
3.15885e-05
5.55239e-05
0.00010117
0.000168014
0.000274403
0.000447411
0.000701668
0.00105115
0.00150888
0.00204864
0.00269454
0.00343665
0.00425707
0.00513242
0.00604564
0.00695789
0.00784065
0.00866295
0.00938178
0.00993201
0.0101766
0.00981809
0.00839375
0.00573821
0.00308938
0.00150708
0.000741857
0.000366864
0.000186892
9.74576e-05
5.19204e-05
2.75509e-05
1.4932e-05
8.07282e-06
4.31725e-06
2.26643e-06
1.16047e-06
5.66302e-07
2.68258e-07
1.19308e-07
5.08907e-08
2.08726e-08
8.98455e-09
4.63157e-09
2.64893e-09
1.52855e-09
8.13078e-10
2.36061e-10
5.58591e-23
1.11271e-22
2.06221e-22
3.60439e-22
5.22919e-22
6.62884e-22
8.43282e-22
1.02907e-21
1.30335e-21
1.60196e-21
1.91229e-21
2.20277e-21
2.72363e-21
3.80694e-21
6.59669e-21
1.43779e-20
3.74942e-20
1.06605e-19
3.16074e-19
9.5109e-19
2.87376e-18
8.68632e-18
2.59536e-17
7.68876e-17
2.25856e-16
6.5783e-16
1.90039e-15
5.45887e-15
1.57235e-14
4.44204e-14
1.24283e-13
3.42408e-13
9.4418e-13
2.53773e-12
6.76137e-12
1.77696e-11
4.57541e-11
1.14584e-10
2.99068e-10
7.65305e-10
1.84966e-09
4.38566e-09
1.03589e-08
2.5269e-08
6.04865e-08
1.44213e-07
3.36016e-07
7.64437e-07
1.69763e-06
3.67783e-06
7.76444e-06
1.59272e-05
3.16419e-05
5.56522e-05
0.000101375
0.00016844
0.000275478
0.000449343
0.000704755
0.00105574
0.00151529
0.00205716
0.00270525
0.0034494
0.00427153
0.00514815
0.00606194
0.00697415
0.00785658
0.00867693
0.00939315
0.00993946
0.0101773
0.00980607
0.00836375
0.0056972
0.00305905
0.00149229
0.000734666
0.000363525
0.000185248
9.6624e-05
5.14861e-05
2.73318e-05
1.48144e-05
8.0093e-06
4.28302e-06
2.24818e-06
1.15089e-06
5.6164e-07
2.65973e-07
1.18299e-07
5.04505e-08
2.06917e-08
8.91375e-09
4.59879e-09
2.63133e-09
1.51886e-09
8.08018e-10
2.34585e-10
4.85922e-23
1.39956e-22
2.66607e-22
3.74533e-22
4.1453e-22
4.87132e-22
6.72552e-22
8.93497e-22
1.08825e-21
1.30913e-21
1.71136e-21
2.22311e-21
2.94976e-21
4.11829e-21
6.73024e-21
1.42155e-20
3.62662e-20
1.02438e-19
3.02839e-19
9.14422e-19
2.77052e-18
8.22275e-18
2.50081e-17
7.34291e-17
2.19581e-16
6.38879e-16
1.84607e-15
5.29093e-15
1.52467e-14
4.3404e-14
1.19389e-13
3.39323e-13
9.20768e-13
2.48019e-12
6.62172e-12
1.73283e-11
4.49903e-11
1.13695e-10
2.898e-10
7.35879e-10
1.82837e-09
4.34772e-09
1.01861e-08
2.49317e-08
6.00059e-08
1.43161e-07
3.33948e-07
7.60717e-07
1.69175e-06
3.67052e-06
7.76012e-06
1.59393e-05
3.17043e-05
5.58191e-05
0.000101609
0.000168955
0.000276844
0.000451849
0.000708811
0.00106183
0.00152388
0.00206872
0.00272008
0.00346664
0.00429077
0.00516892
0.00608338
0.00699556
0.00787725
0.00869526
0.00940781
0.00994892
0.0101778
0.00979007
0.00832447
0.00564403
0.00302006
0.0014733
0.000725428
0.000359234
0.00018313
9.55562e-05
5.09296e-05
2.7051e-05
1.46637e-05
7.92791e-06
4.23918e-06
2.22482e-06
1.13862e-06
5.55677e-07
2.63054e-07
1.17009e-07
4.98902e-08
2.04613e-08
8.8233e-09
4.55665e-09
2.60862e-09
1.50634e-09
8.0147e-10
2.32675e-10
5.40856e-23
1.32805e-22
2.61875e-22
3.60689e-22
4.61656e-22
6.57409e-22
9.19366e-22
1.01962e-21
1.21017e-21
1.47878e-21
1.80925e-21
2.23096e-21
2.81918e-21
3.81051e-21
6.25566e-21
1.33814e-20
3.44995e-20
9.7761e-20
2.90901e-19
8.64024e-19
2.65243e-18
7.93236e-18
2.37403e-17
7.06038e-17
2.08672e-16
6.09253e-16
1.77413e-15
5.09396e-15
1.47099e-14
4.14024e-14
1.1542e-13
3.2372e-13
8.87081e-13
2.39469e-12
6.24981e-12
1.6679e-11
4.32126e-11
1.09858e-10
2.83862e-10
7.32903e-10
1.76487e-09
4.35295e-09
1.02176e-08
2.45245e-08
5.90609e-08
1.41456e-07
3.30822e-07
7.55085e-07
1.6826e-06
3.65754e-06
7.74787e-06
1.59444e-05
3.17713e-05
5.60172e-05
0.000101809
0.000169516
0.000278432
0.000454795
0.000713603
0.00106902
0.00153392
0.00208191
0.00273634
0.00348616
0.00431323
0.00519348
0.00610894
0.00702066
0.00790108
0.00871592
0.00942456
0.00995955
0.0101777
0.00977015
0.0082768
0.00558046
0.00297401
0.00145091
0.000714534
0.000354186
0.000180657
9.43063e-05
5.02755e-05
2.67197e-05
1.4485e-05
7.83146e-06
4.18727e-06
2.19718e-06
1.12412e-06
5.48644e-07
2.59617e-07
1.15487e-07
4.92246e-08
2.01877e-08
8.71551e-09
4.50628e-09
2.58148e-09
1.49137e-09
7.9365e-10
2.30396e-10
7.06282e-23
1.63604e-22
2.69018e-22
4.26764e-22
5.64599e-22
7.31108e-22
9.94777e-22
1.14296e-21