/*--------------------------------*- C++ -*----------------------------------*\
  =========                 |
  \\      /  F ield         | OpenFOAM: The Open Source CFD Toolbox
   \\    /   O peration     | Website:  https://openfoam.org
    \\  /    A nd           | Version:  10
     \\/     M anipulation  |
\*---------------------------------------------------------------------------*/
FoamFile
{
    format      ascii;
    class       volScalarField;
    location    "1";
    object      C6H12;
}
// * * * * * * * * * * * * * * * * * * * * * * * * * * * * * * * * * * * * * //

dimensions      [0 0 0 0 0 0 0];

internalField   nonuniform List<scalar> 
4000
(
1.11654e-22
1.81081e-22
2.27543e-22
2.96307e-22
3.9679e-22
4.78678e-22
5.77265e-22
6.9431e-22
8.56832e-22
1.10549e-21
1.49033e-21
1.86144e-21
2.25635e-21
2.6386e-21
3.10448e-21
3.67645e-21
4.36294e-21
5.57168e-21
8.32328e-21
1.52845e-20
3.41857e-20
8.70391e-20
2.53325e-19
7.31003e-19
2.16685e-18
6.43824e-18
1.89436e-17
5.74682e-17
1.69953e-16
5.02645e-16
1.48653e-15
4.38975e-15
1.2826e-14
3.72424e-14
1.07593e-13
3.00457e-13
8.51399e-13
2.44788e-12
6.86525e-12
1.90634e-11
5.11224e-11
1.34544e-10
3.46455e-10
8.71131e-10
2.13629e-09
5.48654e-09
1.43368e-08
3.68961e-08
9.24515e-08
2.23759e-07
5.20808e-07
1.1821e-06
2.40606e-06
5.09593e-06
1.04345e-05
2.0271e-05
3.68052e-05
6.50757e-05
0.000109013
0.000172621
0.0002579
0.000359707
0.000481779
0.000620703
0.000771488
0.000928328
0.00108625
0.00123681
0.00137563
0.00149758
0.00159364
0.00164675
0.00162494
0.00147636
0.0011741
0.000810615
0.0005137
0.000297547
0.0001575
7.99929e-05
4.10746e-05
2.15492e-05
1.15261e-05
6.25557e-06
3.42238e-06
1.87191e-06
1.01537e-06
5.42113e-07
2.82948e-07
1.43551e-07
7.07575e-08
3.34707e-08
1.71222e-08
1.07675e-08
8.09527e-09
6.25818e-09
4.58215e-09
3.05776e-09
1.73478e-09
5.14972e-10
5.61368e-23
3.61416e-22
5.29667e-22
9.38244e-22
1.27739e-21
1.44343e-21
1.64312e-21
1.81259e-21
2.12194e-21
2.50297e-21
2.83695e-21
3.24839e-21
3.67078e-21
4.00307e-21
4.42657e-21
4.95575e-21
5.54878e-21
6.64618e-21
9.0948e-21
1.56247e-20
3.44047e-20
9.1366e-20
2.66145e-19
8.03163e-19
2.45982e-18
7.51844e-18
2.29552e-17
6.9872e-17
2.10801e-16
6.29721e-16
1.87327e-15
5.81455e-15
1.71485e-14
4.95967e-14
1.42565e-13
4.04062e-13
1.16135e-12
3.23572e-12
9.00709e-12
2.44817e-11
6.57461e-11
1.71061e-10
4.4054e-10
1.10438e-09
2.81334e-09
7.33146e-09
1.89135e-08
4.7746e-08
1.17919e-07
2.84516e-07
6.15156e-07
1.25938e-06
2.72212e-06
5.64607e-06
1.14102e-05
2.21784e-05
3.92063e-05
6.79324e-05
0.000112191
0.000174902
0.000259173
0.000359634
0.00047998
0.000617023
0.000765721
0.00092102
0.00107803
0.0012295
0.00136897
0.00149218
0.00159065
0.00164697
0.00162993
0.00148711
0.00118752
0.000820746
0.000519994
0.000300982
0.000159127
8.07074e-05
4.13923e-05
2.16958e-05
1.1594e-05
6.28395e-06
3.43189e-06
1.87324e-06
1.01367e-06
5.39733e-07
2.80733e-07
1.41889e-07
6.96719e-08
3.29199e-08
1.69785e-08
1.08336e-08
8.18686e-09
6.31322e-09
4.60493e-09
3.06301e-09
1.73435e-09
5.13513e-10
4.14868e-22
6.94906e-22
1.15194e-21
1.61957e-21
2.45611e-21
2.65599e-21
2.89754e-21
3.24233e-21
3.71536e-21
3.89868e-21
4.26543e-21
4.54732e-21
4.84813e-21
5.12898e-21
5.36108e-21
5.75177e-21
6.14269e-21
7.06853e-21
9.65043e-21
1.64571e-20
3.71383e-20
1.01931e-19
3.07116e-19
9.5365e-19
2.97551e-18
9.25578e-18
2.87106e-17
8.92168e-17
2.7097e-16
8.17103e-16
2.5127e-15
7.46609e-15
2.16776e-14
6.35081e-14
1.84718e-13
5.2503e-13
1.46694e-12
4.07075e-12
1.11953e-11
3.00318e-11
7.961e-11
1.99411e-10
5.3284e-10
1.3127e-09
3.44516e-09
8.77572e-09
2.26488e-08
5.66229e-08
1.3548e-07
3.20807e-07
6.90084e-07
1.42249e-06
3.05701e-06
6.42164e-06
1.25725e-05
2.31778e-05
4.03728e-05
6.94214e-05
0.000113885
0.000176808
0.000260595
0.000360124
0.000479002
0.000614057
0.000761039
0.000914882
0.00107076
0.00122165
0.00136241
0.0014872
0.00158823
0.00164751
0.0016351
0.00149864
0.00120271
0.000832239
0.000527059
0.000304768
0.000160877
8.14877e-05
4.17644e-05
2.18726e-05
1.16756e-05
6.31201e-06
3.4387e-06
1.87189e-06
1.00982e-06
5.35726e-07
2.77561e-07
1.39467e-07
6.81214e-08
3.21781e-08
1.68166e-08
1.09422e-08
8.32182e-09
6.40438e-09
4.65544e-09
3.08899e-09
1.74597e-09
5.15902e-10
2.351e-22
5.15809e-22
9.87511e-22
1.34465e-21
1.72229e-21
2.10179e-21
2.21588e-21
2.41937e-21
2.96575e-21
3.46273e-21
3.9131e-21
4.18893e-21
4.50805e-21
4.96371e-21
5.46884e-21
6.12343e-21
7.01015e-21
8.40899e-21
1.16402e-20
2.05437e-20
4.82041e-20
1.35742e-19
4.09499e-19
1.26814e-18
3.99679e-18
1.24116e-17
3.83177e-17
1.1717e-16
3.47437e-16
1.08739e-15
3.23043e-15
9.56681e-15
2.79427e-14
8.13005e-14
2.34332e-13
6.61566e-13
1.83469e-12
5.08158e-12
1.36454e-11
3.72025e-11
9.7715e-11
2.49633e-10
6.45652e-10
1.5904e-09
3.99276e-09
1.03717e-08
2.64119e-08
6.46893e-08
1.57139e-07
3.42281e-07
7.2685e-07
1.62305e-06
3.49213e-06
7.10578e-06
1.36765e-05
2.38616e-05
4.15508e-05
7.09698e-05
0.000115789
0.000178364
0.000261543
0.000360148
0.000477821
0.000611622
0.000757223
0.000909747
0.00106455
0.00121561
0.00135699
0.00148298
0.00158588
0.00164787
0.00163958
0.0015086
0.00121765
0.000839239
0.000532074
0.000307681
0.000162291
8.21444e-05
4.20878e-05
2.20469e-05
1.17976e-05
6.28677e-06
3.42606e-06
1.86369e-06
1.0039e-06
5.31665e-07
2.75345e-07
1.36218e-07
6.63552e-08
3.14536e-08
1.66941e-08
1.10804e-08
8.48365e-09
6.51324e-09
4.721e-09
3.12582e-09
1.76391e-09
5.2021e-10
1.41056e-22
3.60182e-22
5.47504e-22
8.64677e-22
1.21437e-21
1.48317e-21
1.91403e-21
2.18445e-21
2.59769e-21
3.09651e-21
3.53779e-21
3.97787e-21
4.41965e-21
4.9151e-21
5.68427e-21
6.65487e-21
7.75329e-21
9.36697e-21
1.381e-20
2.61764e-20
6.44569e-20
1.84155e-19
5.56905e-19
1.71987e-18
5.33239e-18
1.64492e-17
5.04154e-17
1.55152e-16
4.6816e-16
1.39876e-15
4.14641e-15
1.24744e-14
3.61036e-14
1.04191e-13
2.95694e-13
8.27961e-13
2.27757e-12
6.12221e-12
1.67737e-11
4.46034e-11
1.15928e-10
2.95972e-10
7.38426e-10
1.8641e-09
4.6393e-09
1.19306e-08
2.97384e-08
7.35339e-08
1.65144e-07
3.54616e-07
8.06516e-07
1.77898e-06
3.83325e-06
7.88107e-06
1.4128e-05
2.46089e-05
4.27003e-05
7.23213e-05
0.000117137
0.00017978
0.000262577
0.000360543
0.000477256
0.0006099
0.000754214
0.000905333
0.0010598
0.00121102
0.00135307
0.00147982
0.00158423
0.00164842
0.0016435
0.00151731
0.00122936
0.000847907
0.00053731
0.000310491
0.000163562
8.27109e-05
4.23601e-05
2.21825e-05
1.18634e-05
6.3178e-06
3.43695e-06
1.86589e-06
1.00273e-06
5.29575e-07
2.73333e-07
1.34796e-07
6.54211e-08
3.10835e-08
1.67127e-08
1.12643e-08
8.66233e-09
6.63662e-09
4.79867e-09
3.17159e-09
1.78723e-09
5.26281e-10
6.46862e-23
2.12902e-22
4.41349e-22
7.64554e-22
1.04221e-21
1.33514e-21
1.70242e-21
2.00774e-21
2.17419e-21
2.50449e-21
2.95959e-21
3.57791e-21
4.10321e-21
4.556e-21
5.29435e-21
6.41431e-21
7.69199e-21
1.03802e-20
1.67845e-20
3.52305e-20
9.17878e-20
2.61338e-19
7.8238e-19
2.37935e-18
7.30911e-18
2.25559e-17
6.81304e-17
2.03509e-16
6.15769e-16
1.81186e-15
5.26204e-15
1.59289e-14
4.5424e-14
1.28806e-13
3.57408e-13
1.0051e-12
2.71556e-12
7.16499e-12
1.98937e-11
5.40559e-11
1.3712e-10
3.42288e-10
8.54774e-10
2.12494e-09
5.34698e-09
1.33491e-08
3.39795e-08
7.75964e-08
1.72143e-07
3.8938e-07
8.78658e-07
1.9337e-06
4.08235e-06
8.29992e-06
1.47785e-05
2.54539e-05
4.36323e-05
7.36204e-05
0.000118401
0.000180854
0.000263229
0.000360543
0.00047643
0.000608173
0.000751708
0.000902295
0.00105605
0.00120678
0.00134912
0.00147688
0.00158267
0.0016485
0.00164608
0.00152296
0.00123733
0.000854538
0.000541574
0.000312818
0.000164661
8.32291e-05
4.26155e-05
2.23118e-05
1.19267e-05
6.35378e-06
3.45334e-06
1.87233e-06
1.00445e-06
5.29319e-07
2.72439e-07
1.34114e-07
6.49113e-08
3.09342e-08
1.68103e-08
1.14588e-08
8.83468e-09
6.75914e-09
4.87881e-09
3.22039e-09
1.81281e-09
5.33199e-10
4.14135e-23
1.80109e-22
3.38411e-22
5.43136e-22
7.1699e-22
9.3389e-22
1.22181e-21
1.54781e-21
2.11249e-21
2.58998e-21
3.1391e-21
3.6723e-21
4.2013e-21
4.88405e-21
5.52197e-21
6.47918e-21
7.96654e-21
1.10345e-20
1.92133e-20
4.39963e-20
1.19433e-19
3.49237e-19
1.0388e-18
3.22054e-18
9.70908e-18
2.91829e-17
8.74929e-17
2.537e-16
7.78202e-16
2.297e-15
6.67415e-15
1.92324e-14
5.52026e-14
1.56166e-13
4.31904e-13
1.20031e-12
3.30404e-12
8.63616e-12
2.38214e-11
6.22363e-11
1.58293e-10
3.97123e-10
9.75384e-10
2.40632e-09
5.91447e-09
1.48521e-08
3.6124e-08
7.88059e-08
1.8446e-07
4.20718e-07
9.3619e-07
2.03543e-06
4.26038e-06
8.59122e-06
1.52154e-05
2.61008e-05
4.44007e-05
7.44757e-05
0.000119327
0.000181609
0.000263537
0.000360281
0.000475428
0.000606399
0.000749205
0.000899319
0.00105276
0.00120318
0.00134591
0.00147426
0.00158109
0.00164836
0.00164815
0.00152821
0.00124499
0.000860867
0.00054594
0.00031537
0.000165955
8.38416e-05
4.29204e-05
2.24672e-05
1.20054e-05
6.39786e-06
3.47517e-06
1.88248e-06
1.00868e-06
5.3071e-07
2.72599e-07
1.34038e-07
6.47481e-08
3.09416e-08
1.69524e-08
1.16509e-08
8.99941e-09
6.8777e-09
4.95811e-09
3.26968e-09
1.83914e-09
5.40495e-10
1.32074e-22
2.77283e-22
5.23709e-22
8.86659e-22
1.16726e-21
1.5052e-21
1.75204e-21
2.07254e-21
2.44383e-21
2.84986e-21
3.26755e-21
3.9211e-21
4.60015e-21
5.32678e-21
5.97847e-21
7.02969e-21
8.99068e-21
1.29805e-20
2.39487e-20
5.6752e-20
1.55712e-19
4.57697e-19
1.37789e-18
4.16417e-18
1.25522e-17
3.7658e-17
1.12001e-16
3.28248e-16
9.50111e-16
2.75539e-15
8.07767e-15
2.35113e-14
6.66663e-14
1.86444e-13
5.09389e-13
1.39828e-12
3.81442e-12
9.87146e-12
2.67644e-11
7.08809e-11
1.79327e-10
4.43612e-10
1.10307e-09
2.68822e-09
6.62409e-09
1.64469e-08
3.75784e-08
8.53702e-08
1.98573e-07
4.4975e-07
9.99457e-07
2.14469e-06
4.43979e-06
8.87077e-06
1.56109e-05
2.66138e-05
4.50241e-05
7.5169e-05
0.000119953
0.000181979
0.000263425
0.000359591
0.000474009
0.000604367
0.000746423
0.000895611
0.0010491
0.00119946
0.00134263
0.00147147
0.00157923
0.00164793
0.00165003
0.00153346
0.00125307
0.000867816
0.000550743
0.000318348
0.000167559
8.46057e-05
4.33024e-05
2.26625e-05
1.21062e-05
6.45271e-06
3.50345e-06
1.89664e-06
1.01543e-06
5.33686e-07
2.73745e-07
1.34498e-07
6.48854e-08
3.1071e-08
1.71222e-08
1.18341e-08
9.15255e-09
6.98942e-09
5.03433e-09
3.3178e-09
1.86521e-09
5.47844e-10
1.19133e-22
3.64852e-22
6.55312e-22
1.03627e-21
1.25429e-21
1.56837e-21
1.89048e-21
2.33325e-21
2.78834e-21
3.35789e-21
3.50369e-21
3.94088e-21
4.66886e-21
5.32013e-21
6.25498e-21
7.36182e-21
9.5322e-21
1.46675e-20
2.82802e-20
6.90392e-20
1.92818e-19
5.6489e-19
1.71857e-18
5.1495e-18
1.5457e-17
4.64648e-17
1.37836e-16
4.0546e-16
1.17964e-15
3.3788e-15
9.68338e-15
2.77857e-14
7.81942e-14
2.17793e-13
5.98774e-13
1.61966e-12
4.35044e-12
1.11616e-11
3.00664e-11
7.84666e-11
1.99231e-10
4.96143e-10
1.21992e-09
2.98976e-09
7.01596e-09
1.61707e-08
3.93261e-08
9.25421e-08
2.12744e-07
4.8066e-07
1.05246e-06
2.23502e-06
4.58795e-06
9.09898e-06
1.5908e-05
2.69921e-05
4.54755e-05
7.56281e-05
0.000120283
0.000181962
0.000262829
0.000358193
0.000471806
0.000601089
0.000742484
0.000891618
0.00104443
0.00119517
0.00133843
0.00146797
0.00157651
0.00164682
0.00165156
0.0015388
0.00126167
0.000875462
0.000556207
0.000321875
0.000169548
8.55595e-05
4.37792e-05
2.29062e-05
1.22328e-05
6.51977e-06
3.53862e-06
1.91484e-06
1.0246e-06
5.38129e-07
2.75776e-07
1.35422e-07
6.52756e-08
3.12988e-08
1.73108e-08
1.20069e-08
9.29398e-09
7.09436e-09
5.10689e-09
3.36414e-09
1.89057e-09
5.55087e-10
1.161e-22
3.68348e-22
6.43123e-22
9.09179e-22
1.12609e-21
1.40887e-21
1.80327e-21
2.22515e-21
2.72037e-21
3.21248e-21
3.70698e-21
4.44193e-21
5.02737e-21
5.69278e-21
6.7958e-21
8.24819e-21
1.07519e-20
1.66523e-20
3.37544e-20
8.34821e-20
2.31804e-19
6.92405e-19
2.07283e-18
6.21817e-18
1.85703e-17
5.52224e-17
1.63175e-16
4.77482e-16
1.40486e-15
4.06264e-15
1.15865e-14
3.25461e-14
9.04264e-14
2.49241e-13
6.76098e-13
1.81009e-12
4.7872e-12
1.23378e-11
3.36231e-11
8.6237e-11
2.14731e-10
5.32383e-10
1.30264e-09
3.08583e-09
7.15852e-09
1.7663e-08
4.2319e-08
9.89982e-08
2.27678e-07
5.08432e-07
1.10395e-06
2.32522e-06
4.72812e-06
9.24924e-06
1.6116e-05
2.72924e-05
4.57863e-05
7.58801e-05
0.000120336
0.000181664
0.000262009
0.000356692
0.000469238
0.000597697
0.000738311
0.000886748
0.00103954
0.00119065
0.00133427
0.00146416
0.00157365
0.00164574
0.00165321
0.00154463
0.00127189
0.000884925
0.000563138
0.000326394
0.000172059
8.67424e-05
4.43607e-05
2.31996e-05
1.23846e-05
6.59823e-06
3.57974e-06
1.93648e-06
1.0358e-06
5.4378e-07
2.7853e-07
1.36717e-07
6.58663e-08
3.16017e-08
1.75117e-08
1.21696e-08
9.42417e-09
7.19161e-09
5.17514e-09
3.40818e-09
1.91491e-09
5.62112e-10
1.21768e-22
3.93781e-22
7.4634e-22
9.27137e-22
1.13653e-21
1.39541e-21
1.609e-21
1.88714e-21
2.24043e-21
2.66226e-21
3.33507e-21
4.06266e-21
4.67735e-21
5.48512e-21
6.08907e-21
7.30552e-21
9.83646e-21
1.65287e-20
3.63584e-20
9.54678e-20
2.6957e-19
8.09276e-19
2.41815e-18
7.22786e-18
2.13317e-17
6.38989e-17
1.8696e-16
5.4632e-16
1.60031e-15
4.62147e-15
1.3149e-14
3.68665e-14
1.01767e-13
2.81006e-13
7.55705e-13
2.01329e-12
5.30122e-12
1.36512e-11
3.67526e-11
9.31191e-11
2.30481e-10
5.62753e-10
1.34779e-09
3.17008e-09
7.78396e-09
1.89895e-08
4.53814e-08
1.0629e-07
2.42508e-07
5.39402e-07
1.16838e-06
2.45771e-06
5.02499e-06
9.29089e-06
1.62717e-05
2.75065e-05
4.59634e-05
7.59405e-05
0.000120128
0.00018092
0.000260519
0.00035443
0.000466576
0.000594225
0.000734173
0.000882122
0.00103466
0.00118568
0.00133
0.0014606
0.00157094
0.0016446
0.00165473
0.0015504
0.00128159
0.000893818
0.000569814
0.000330825
0.00017464
8.79841e-05
4.49783e-05
2.35139e-05
1.25488e-05
6.68299e-06
3.62523e-06
1.96049e-06
1.04837e-06
5.5025e-07
2.81798e-07
1.38281e-07
6.66032e-08
3.19579e-08
1.77189e-08
1.23228e-08
9.54483e-09
7.28256e-09
5.23947e-09
3.44996e-09
1.93814e-09
5.68871e-10
9.07943e-23
2.95089e-22
6.85096e-22
9.08506e-22
1.07371e-21
1.4005e-21
1.88389e-21
2.40312e-21
2.70253e-21
3.06789e-21
3.54095e-21
4.11042e-21
4.53349e-21
5.09088e-21
5.84068e-21
7.22145e-21
1.02674e-20
1.81641e-20
4.03482e-20
1.07678e-19
3.10441e-19
9.2017e-19
2.76405e-18
8.23925e-18
2.44437e-17
7.19713e-17
2.10799e-16
6.07048e-16
1.78311e-15
5.09282e-15
1.4137e-14
4.07114e-14
1.12872e-13
3.05655e-13
8.43997e-13
2.22119e-12
5.75815e-12
1.47873e-11
3.88346e-11
1.00328e-10
2.45993e-10
5.96356e-10
1.42272e-09
3.39256e-09
8.312e-09
2.019e-08
4.81044e-08
1.12216e-07
2.54922e-07
5.64394e-07
1.21721e-06
2.54958e-06
5.17562e-06
9.29266e-06
1.64091e-05
2.76814e-05
4.6058e-05
7.58819e-05
0.000119783
0.000180218
0.00025921
0.000352434
0.000463516
0.000590556
0.00072996
0.000877529
0.00102995
0.00118082
0.0013255
0.00145704
0.00156759
0.00164289
0.0016557
0.00155553
0.00129096
0.000903074
0.000576663
0.000335555
0.000177407
8.93178e-05
4.56341e-05
2.38452e-05
1.27217e-05
6.77193e-06
3.67319e-06
1.98652e-06
1.06234e-06
5.57586e-07
2.85521e-07
1.40059e-07
6.74508e-08
3.23579e-08
1.7934e-08
1.24697e-08
9.65783e-09
7.36733e-09
5.29956e-09
3.48912e-09
1.96004e-09
5.75294e-10
5.03013e-23
1.68918e-22
4.95059e-22
7.38031e-22
1.04894e-21
1.43406e-21
2.08134e-21
2.56419e-21
2.78456e-21
3.30933e-21
3.85936e-21
4.28726e-21
4.86079e-21
5.45552e-21
6.32131e-21
7.94745e-21
1.07065e-20
1.93174e-20
4.46111e-20
1.20565e-19
3.49365e-19
1.0362e-18
3.09427e-18
9.10002e-18
2.74141e-17
7.9948e-17
2.31597e-16
6.67138e-16
1.92459e-15
5.64178e-15
1.57683e-14
4.46642e-14
1.22973e-13
3.37934e-13
9.04249e-13
2.37551e-12
6.1246e-12
1.56695e-11
4.10476e-11
1.06507e-10
2.61981e-10
6.36938e-10
1.50386e-09
3.65317e-09
8.7547e-09
2.12178e-08
5.04223e-08
1.16688e-07
2.63296e-07
5.79287e-07
1.24163e-06
2.58533e-06
5.21437e-06
9.28898e-06
1.65643e-05
2.78148e-05
4.60771e-05
7.57096e-05
0.000119301
0.000179282
0.000257865
0.000350425
0.000460697
0.00058694
0.000725722
0.00087287
0.0010252
0.00117597
0.001321
0.00145312
0.00156451
0.0016414
0.00165674
0.00156074
0.00130084
0.000912871
0.000584114
0.000340539
0.000180298
9.07088e-05
4.63314e-05
2.42018e-05
1.29086e-05
6.86617e-06
3.72365e-06
2.01367e-06
1.07687e-06
5.65267e-07
2.89527e-07
1.42e-07
6.83915e-08
3.27827e-08
1.81467e-08
1.26072e-08
9.76317e-09
7.44924e-09
5.35895e-09
3.52827e-09
1.98202e-09
5.81749e-10
6.52445e-23
3.62352e-22
5.04592e-22
7.72032e-22
1.0309e-21
1.30116e-21
1.80302e-21
2.21579e-21
2.5948e-21
3.15697e-21
3.5968e-21
4.1727e-21
4.83544e-21
5.69384e-21
6.94663e-21
8.70371e-21
1.20711e-20
2.09481e-20
4.88119e-20
1.3132e-19
3.79304e-19
1.10585e-18
3.39332e-18
1.00297e-17
2.96094e-17
8.65896e-17
2.54479e-16
7.33037e-16
2.1094e-15
6.00462e-15
1.67729e-14
4.79789e-14
1.30043e-13
3.58512e-13
9.53395e-13
2.50752e-12
6.48233e-12
1.62732e-11
4.33056e-11
1.12576e-10
2.73323e-10
6.59884e-10
1.58122e-09
3.84981e-09
9.13832e-09
2.21003e-08
5.21188e-08
1.19927e-07
2.69242e-07
5.89501e-07
1.25744e-06
2.608e-06
5.23281e-06
9.28057e-06
1.66757e-05
2.79093e-05
4.60545e-05
7.55132e-05
0.000118842
0.000178353
0.000256272
0.000348198
0.000458005
0.000583514
0.000721761
0.000868504
0.00102063
0.00117173
0.00131683
0.00144945
0.00156163
0.00163982
0.0016575
0.00156531
0.00130967
0.000922331
0.000591294
0.00034543
0.000183231
9.21404e-05
4.70371e-05
2.45585e-05
1.30946e-05
6.96075e-06
3.77415e-06
2.04078e-06
1.09137e-06
5.72926e-07
2.93508e-07
1.43924e-07
6.93226e-08
3.32066e-08
1.83554e-08
1.27383e-08
9.86237e-09
7.5245e-09
5.4129e-09
3.56366e-09
2.00191e-09
5.8762e-10
1.40989e-22
3.85204e-22
6.25248e-22
9.62012e-22
1.21448e-21
1.33208e-21
1.5246e-21
1.77981e-21
2.25192e-21
2.98894e-21
3.71581e-21
4.47499e-21
5.2667e-21
5.98763e-21
6.76486e-21
8.45733e-21
1.23144e-20
2.26945e-20
5.20434e-20
1.39317e-19
4.1353e-19
1.2239e-18
3.64949e-18
1.0771e-17
3.20431e-17
9.3229e-17
2.71395e-16
7.79059e-16
2.22688e-15
6.41355e-15
1.81039e-14
5.0565e-14
1.37048e-13
3.76141e-13
9.87748e-13
2.56851e-12
6.80017e-12
1.70034e-11
4.49049e-11
1.14835e-10
2.89434e-10
6.9634e-10
1.67186e-09
3.93813e-09
9.44802e-09
2.27345e-08
5.34008e-08
1.22415e-07
2.73848e-07
5.97553e-07
1.27015e-06
2.62263e-06
5.2432e-06
9.27167e-06
1.67457e-05
2.79562e-05
4.5973e-05
7.52501e-05
0.000118275
0.000177449
0.000254842
0.000346155
0.000455291
0.000580332
0.000718073
0.000864433
0.00101637
0.00116743
0.00131278
0.00144598
0.00155895
0.00163838
0.00165817
0.00156951
0.00131774
0.000931123
0.00059801
0.000350086
0.000185984
9.34763e-05
4.76955e-05
2.48909e-05
1.32675e-05
7.04806e-06
3.82088e-06
2.06593e-06
1.10485e-06
5.8007e-07
2.97233e-07
1.45726e-07
7.01951e-08
3.35973e-08
1.85416e-08
1.28511e-08
9.94697e-09
7.5893e-09
5.45963e-09
3.59443e-09
2.01925e-09
5.92751e-10
1.10326e-22
3.61703e-22
6.52773e-22
9.3084e-22
1.16102e-21
1.46656e-21
1.7656e-21
1.9268e-21
2.25452e-21
2.5875e-21
3.02499e-21
3.9011e-21
4.37378e-21
4.89489e-21
6.0286e-21
7.97509e-21
1.21188e-20
2.34653e-20
5.51019e-20
1.49966e-19
4.37914e-19
1.30036e-18
3.87945e-18
1.15151e-17
3.38342e-17
9.84432e-17
2.86667e-16
8.19711e-16
2.31875e-15
6.68944e-15
1.86927e-14
5.23139e-14
1.44061e-13
3.88922e-13
1.03506e-12
2.72683e-12
7.06551e-12
1.83483e-11
4.71202e-11
1.22007e-10
2.97914e-10
7.08121e-10
1.70534e-09
4.02125e-09
9.68832e-09
2.32263e-08
5.43749e-08
1.24254e-07
2.77115e-07
6.02855e-07
1.27814e-06
2.63233e-06
5.24965e-06
9.262e-06
1.67903e-05
2.79767e-05
4.58749e-05
7.49664e-05
0.000117737
0.000176539
0.000253532
0.000344404
0.000453065
0.000577714
0.000714973
0.000860988
0.00101278
0.00116387
0.00130929
0.00144294
0.00155658
0.00163706
0.00165862
0.00157291
0.00132453
0.00093866
0.000603775
0.000354059
0.000188352
9.46313e-05
4.82653e-05
2.51781e-05
1.34175e-05
7.12377e-06
3.86145e-06
2.08779e-06
1.11659e-06
5.86312e-07
3.00499e-07
1.47311e-07
7.09717e-08
3.3942e-08
1.87028e-08
1.29464e-08
1.00176e-08
7.64329e-09
5.49857e-09
3.62008e-09
2.03372e-09
5.97041e-10
6.71283e-23
3.57249e-22
6.34622e-22
7.2437e-22
9.23342e-22
1.24466e-21
1.70878e-21
2.31999e-21
2.63547e-21
2.90893e-21
3.25533e-21
3.77839e-21
4.32467e-21
5.02853e-21
6.33476e-21
8.23137e-21
1.21232e-20
2.37108e-20
5.74211e-20
1.58308e-19
4.62499e-19
1.36405e-18
4.08247e-18
1.20623e-17
3.54545e-17
1.03366e-16
2.9854e-16
8.52014e-16
2.42731e-15
6.95671e-15
1.94864e-14
5.48838e-14
1.49717e-13
4.03274e-13
1.07242e-12
2.83354e-12
7.37294e-12
1.88982e-11
4.81966e-11
1.23104e-10
3.02272e-10
7.26746e-10
1.70732e-09
4.07143e-09
9.88073e-09
2.36055e-08
5.51166e-08
1.25657e-07
2.79618e-07
6.0695e-07
1.28416e-06
2.63928e-06
5.25361e-06
9.25446e-06
1.68159e-05
2.79796e-05
4.57809e-05
7.47442e-05
0.000117332
0.000175886
0.000252576
0.000343007
0.000451201
0.000575374
0.000712342
0.000858133
0.00100982
0.00116088
0.00130641
0.00144045
0.00155465
0.00163596
0.00165891
0.00157552
0.00132982
0.000944633
0.000608361
0.000357227
0.000190246
9.55579e-05
4.8722e-05
2.54077e-05
1.35369e-05
7.184e-06
3.89375e-06
2.10524e-06
1.12599e-06
5.91315e-07
3.03124e-07
1.48586e-07
7.15954e-08
3.42181e-08
1.88306e-08
1.30207e-08
1.00724e-08
7.68529e-09
5.52891e-09
3.64008e-09
2.04502e-09
6.00395e-10
1.54081e-22
5.34101e-22
9.16837e-22
1.30349e-21
1.43829e-21
1.5147e-21
1.77292e-21
2.25125e-21
2.25875e-21
2.36804e-21
2.6952e-21
3.16134e-21
3.82827e-21
4.55291e-21
5.8676e-21
8.2986e-21
1.29971e-20
2.50268e-20
6.04495e-20
1.65301e-19
4.79387e-19
1.41596e-18
4.1954e-18
1.23368e-17
3.66394e-17
1.0678e-16
3.09774e-16
8.86968e-16
2.55568e-15
7.18585e-15
2.00299e-14
5.52369e-14
1.52977e-13
4.11207e-13
1.10566e-12
2.92254e-12
7.5416e-12
1.90214e-11
4.88039e-11
1.23909e-10
3.03489e-10
7.26535e-10
1.72418e-09
4.11793e-09
1.0018e-08
2.38776e-08
5.56457e-08
1.26656e-07
2.81416e-07
6.09996e-07
1.28846e-06
2.64452e-06
5.25669e-06
9.24955e-06
1.68315e-05
2.79788e-05
4.57124e-05
7.45802e-05
0.000117031
0.000175402
0.000251868
0.000342032
0.000449933
0.000573832
0.000710584
0.000856194
0.0010078
0.00115887
0.00130442
0.00143872
0.00155332
0.00163519
0.00165909
0.0015773
0.00133351
0.000948846
0.000611603
0.00035947
0.000191592
9.62174e-05
4.90474e-05
2.55724e-05
1.36224e-05
7.22709e-06
3.91683e-06
2.11769e-06
1.13269e-06
5.94881e-07
3.04996e-07
1.49496e-07
7.2041e-08
3.44146e-08
1.89209e-08
1.30727e-08
1.01105e-08
7.71446e-09
5.55e-09
3.65398e-09
2.05287e-09
6.02727e-10
7.27163e-23
2.27684e-22
4.42884e-22
7.54152e-22
9.46795e-22
1.15645e-21
1.46512e-21
2.00123e-21
2.20477e-21
2.49209e-21
2.80051e-21
3.25523e-21
3.82943e-21
4.52277e-21
5.58475e-21
7.49324e-21
1.20113e-20
2.45287e-20
6.07466e-20
1.67313e-19
4.85664e-19
1.43437e-18
4.28921e-18
1.2617e-17
3.7372e-17
1.08579e-16
3.14936e-16
9.1088e-16
2.59511e-15
7.32699e-15
2.04666e-14
5.74614e-14
1.55609e-13
4.1799e-13
1.12256e-12
2.92693e-12
7.62545e-12
1.92935e-11
5.07225e-11
1.2754e-10
3.07414e-10
7.37746e-10
1.72454e-09
4.18549e-09
1.00913e-08
2.40427e-08
5.5993e-08
1.27319e-07
2.82594e-07
6.11924e-07
1.29125e-06
2.64793e-06
5.2594e-06
9.2482e-06
1.68434e-05
2.79828e-05
4.56818e-05
7.4501e-05
0.00011688
0.000175149
0.000251486
0.000341518
0.000449277
0.000573035
0.000709662
0.000855182
0.00100675
0.0011578
0.00130336
0.0014378
0.00155258
0.00163476
0.00165917
0.00157824
0.00133545
0.000951081
0.000613327
0.000360665
0.000192309
9.65701e-05
4.92216e-05
2.56605e-05
1.36684e-05
7.2503e-06
3.9293e-06
2.12443e-06
1.13632e-06
5.96818e-07
3.06012e-07
1.49991e-07
7.22827e-08
3.45209e-08
1.89693e-08
1.31004e-08
1.01308e-08
7.72997e-09
5.56119e-09
3.66136e-09
2.05703e-09
6.03966e-10
6.84009e-23
3.65167e-22
6.2114e-22
9.28026e-22
1.10548e-21
1.33451e-21
1.77917e-21
2.35953e-21
2.6994e-21
2.95306e-21
3.54197e-21
3.95438e-21
4.43878e-21
4.67695e-21
5.45511e-21
7.47517e-21
1.18461e-20
2.44894e-20
6.06718e-20
1.69064e-19
4.96176e-19
1.46891e-18
4.3622e-18
1.28708e-17
3.75584e-17
1.10723e-16
3.19835e-16
9.21852e-16
2.65247e-15
7.52601e-15
2.09728e-14
5.75137e-14
1.58777e-13
4.31381e-13
1.14197e-12
2.97472e-12
7.74335e-12
1.93901e-11
5.11175e-11
1.26797e-10
3.12251e-10
7.44199e-10
1.75962e-09
4.19138e-09
1.01337e-08
2.41427e-08
5.61975e-08
1.27716e-07
2.83324e-07
6.13194e-07
1.29331e-06
2.65082e-06
5.26274e-06
9.25061e-06
1.68571e-05
2.7996e-05
4.56869e-05
7.44937e-05
0.000116854
0.000175098
0.000251405
0.000341404
0.000449133
0.000572866
0.000709472
0.00085498
0.00100654
0.0011576
0.00130317
0.00143763
0.00155245
0.00163468
0.00165917
0.00157837
0.00133575
0.000951424
0.000613589
0.000360846
0.000192417
9.6623e-05
4.92474e-05
2.56734e-05
1.36751e-05
7.25365e-06
3.93109e-06
2.12539e-06
1.13684e-06
5.97092e-07
3.06156e-07
1.50059e-07
7.23161e-08
3.45358e-08
1.89762e-08
1.31044e-08
1.01338e-08
7.73219e-09
5.56275e-09
3.66237e-09
2.0576e-09
6.04132e-10
5.03628e-23
3.03216e-22
7.22302e-22
1.07554e-21
1.30989e-21
1.55103e-21
1.87647e-21
2.35011e-21
2.89709e-21
3.11016e-21
3.17721e-21
3.54027e-21
3.85672e-21
4.66713e-21
5.77325e-21
7.64479e-21
1.23188e-20
2.45686e-20
6.13122e-20
1.70291e-19
4.99496e-19
1.48177e-18
4.40793e-18
1.30636e-17
3.83522e-17
1.11471e-16
3.18285e-16
9.38544e-16
2.66712e-15
7.54786e-15
2.11645e-14
5.84763e-14
1.60802e-13
4.31751e-13
1.15242e-12
2.99559e-12
7.79296e-12
1.96165e-11
5.13851e-11
1.27509e-10
3.13832e-10
7.37825e-10
1.78015e-09
4.20345e-09
1.01326e-08
2.41814e-08
5.62788e-08
1.27885e-07
2.83678e-07
6.1392e-07
1.29476e-06
2.6536e-06
5.26784e-06
9.25895e-06
1.68759e-05
2.80259e-05
4.57463e-05
7.45908e-05
0.000117001
0.000175312
0.000251702
0.000341797
0.000449631
0.000573466
0.00071016
0.000855735
0.00100733
0.00115839
0.00130393
0.0014383
0.00155297
0.00163498
0.0016591
0.00157767
0.0013343
0.000949777
0.00061232
0.000359966
0.000191889
9.63635e-05
4.91192e-05
2.56086e-05
1.36413e-05
7.23663e-06
3.92195e-06
2.12045e-06
1.13417e-06
5.95666e-07
3.05404e-07
1.49694e-07
7.21364e-08
3.44567e-08
1.89404e-08
1.30842e-08
1.0119e-08
7.7208e-09
5.55448e-09
3.65689e-09
2.05449e-09
6.03206e-10
6.26808e-23
1.93178e-22
4.00805e-22
6.55188e-22
1.04165e-21
1.3617e-21
1.51386e-21
1.99099e-21
2.52933e-21
2.77557e-21
3.06692e-21
3.42554e-21
3.83373e-21
4.76077e-21
5.7341e-21
8.0094e-21
1.2583e-20
2.41477e-20
5.98631e-20
1.67179e-19
4.87094e-19
1.46353e-18
4.33856e-18
1.296e-17
3.79408e-17
1.10029e-16
3.17221e-16
9.23292e-16
2.62515e-15
7.42799e-15
2.07472e-14
5.72053e-14
1.60184e-13
4.27299e-13
1.11002e-12
2.92827e-12
7.64463e-12
1.90262e-11
4.94871e-11
1.28434e-10
3.05617e-10
7.4398e-10
1.73471e-09
4.2135e-09
1.01269e-08
2.41438e-08
5.62113e-08
1.2779e-07
2.83594e-07
6.14001e-07
1.29546e-06
2.65599e-06
5.27425e-06
9.27297e-06
1.69009e-05
2.80741e-05
4.58614e-05
7.47929e-05
0.000117319
0.000175781
0.00025236
0.000342675
0.000450741
0.000574801
0.000711685
0.000857399
0.00100905
0.00116011
0.0013056
0.00143975
0.00155411
0.00163564
0.00165895
0.00157616
0.00133117
0.000946211
0.000609574
0.000358064
0.000190746
9.58036e-05
4.88429e-05
2.54691e-05
1.35686e-05
7.20003e-06
3.9023e-06
2.10983e-06
1.12844e-06
5.92607e-07
3.03794e-07
1.4891e-07
7.17517e-08
3.42878e-08
1.88637e-08
1.30408e-08
1.00872e-08
7.69635e-09
5.53673e-09
3.64514e-09
2.04784e-09
6.01225e-10
1.92948e-22
3.86077e-22
5.25908e-22
7.71987e-22
1.01785e-21
1.24023e-21
1.52151e-21
1.92785e-21
2.35104e-21
2.72066e-21
3.20154e-21
3.51735e-21
4.07277e-21
4.86038e-21
6.12665e-21
8.31651e-21
1.28007e-20
2.50527e-20
6.00573e-20
1.65144e-19
4.81603e-19
1.43768e-18
4.27862e-18
1.2663e-17
3.72018e-17
1.08406e-16
3.13361e-16
9.00724e-16
2.59622e-15
7.33946e-15
2.05484e-14
5.66489e-14
1.56306e-13
4.20374e-13
1.1207e-12
2.94706e-12
7.59255e-12
1.90249e-11
4.96826e-11
1.27203e-10
3.07583e-10
7.29634e-10
1.72416e-09
4.20761e-09
1.00756e-08
2.4031e-08
5.60103e-08
1.27461e-07
2.83138e-07
6.13572e-07
1.29569e-06
2.65859e-06
5.28319e-06
9.29443e-06
1.69351e-05
2.81453e-05
4.60411e-05
7.5116e-05
0.000117835
0.000176549
0.000253433
0.000344099
0.000452531
0.000576927
0.000714093
0.000860013
0.00101175
0.0011628
0.00130822
0.00144202
0.00155589
0.00163668
0.00165873
0.00157384
0.00132641
0.000940831
0.00060544
0.000355206
0.000189033
9.49649e-05
4.84285e-05
2.52591e-05
1.34593e-05
7.14498e-06
3.87277e-06
2.09387e-06
1.11984e-06
5.88017e-07
3.0138e-07
1.47736e-07
7.11761e-08
3.40345e-08
1.87486e-08
1.29754e-08
1.00393e-08
7.6595e-09
5.51e-09
3.62747e-09
2.03783e-09
5.98248e-10
8.86369e-23
3.13046e-22
5.57189e-22
7.24058e-22
8.27095e-22
1.00535e-21
1.31338e-21
1.73058e-21
2.068e-21
2.47046e-21
3.10731e-21
3.67625e-21
4.53402e-21
5.52449e-21
6.57847e-21
8.48247e-21
1.28463e-20
2.4686e-20
5.83494e-20
1.59445e-19
4.65233e-19
1.36184e-18
4.12368e-18
1.20951e-17
3.61703e-17
1.05286e-16
3.04414e-16
8.73049e-16
2.51757e-15
7.17163e-15
1.97392e-14
5.61398e-14
1.52434e-13
4.10852e-13
1.09757e-12
2.8739e-12
7.46596e-12
1.88775e-11
4.81432e-11
1.2231e-10
3.04047e-10
7.23332e-10
1.6954e-09
4.15148e-09
9.99573e-09
2.38561e-08
5.56662e-08
1.26842e-07
2.82161e-07
6.12359e-07
1.29498e-06
2.66064e-06
5.29365e-06
9.32236e-06
1.69743e-05
2.82313e-05
4.62696e-05
7.5535e-05
0.000118513
0.000177567
0.00025487
0.000346031
0.000455009
0.000579804
0.000717296
0.000863464
0.00101531
0.00116634
0.00131162
0.00144499
0.00155819
0.00163798
0.00165839
0.00157077
0.00132021
0.000933885
0.000600111
0.000351524
0.00018683
9.38885e-05
4.78952e-05
2.49907e-05
1.33195e-05
7.07456e-06
3.83499e-06
2.07346e-06
1.10884e-06
5.8215e-07
2.98295e-07
1.46236e-07
7.04415e-08
3.37106e-08
1.86009e-08
1.28906e-08
9.97677e-09
7.61146e-09
5.47516e-09
3.60444e-09
2.0248e-09
5.94372e-10
9.34098e-23
2.71251e-22
5.89596e-22
7.60619e-22
9.69429e-22
1.30464e-21
1.83442e-21
1.972e-21
2.25077e-21
2.62399e-21
3.18628e-21
3.8907e-21
4.60818e-21
5.2513e-21
5.90357e-21
7.72933e-21
1.21845e-20
2.34328e-20
5.59845e-20
1.50948e-19
4.45548e-19
1.31499e-18
3.91622e-18
1.1632e-17
3.43761e-17
1.00409e-16
2.92564e-16
8.40573e-16
2.42895e-15
6.841e-15
1.90833e-14
5.35587e-14
1.46857e-13
3.96689e-13
1.03591e-12
2.76626e-12
7.17104e-12
1.8241e-11
4.71587e-11
1.21822e-10
2.93489e-10
7.2423e-10
1.7007e-09
4.08375e-09
9.83846e-09
2.35722e-08
5.51459e-08
1.25905e-07
2.80638e-07
6.102e-07
1.29296e-06
2.66151e-06
5.30487e-06
9.3555e-06
1.70078e-05
2.83252e-05
4.6535e-05
7.60276e-05
0.000119315
0.000178768
0.000256548
0.000348237
0.000457725
0.000583059
0.000721033
0.000867541
0.00101954
0.00117048
0.00131552
0.00144833
0.00156079
0.00163942
0.00165787
0.00156698
0.0013127
0.000925621
0.000593789
0.000347168
0.000184236
9.2626e-05
4.72749e-05
2.46774e-05
1.31556e-05
6.99173e-06
3.79031e-06
2.04934e-06
1.09585e-06
5.75227e-07