/*--------------------------------*- C++ -*----------------------------------*\
  =========                 |
  \\      /  F ield         | OpenFOAM: The Open Source CFD Toolbox
   \\    /   O peration     | Website:  https://openfoam.org
    \\  /    A nd           | Version:  10
     \\/     M anipulation  |
\*---------------------------------------------------------------------------*/
FoamFile
{
    format      ascii;
    class       volScalarField;
    location    "1";
    object      C7H14;
}
// * * * * * * * * * * * * * * * * * * * * * * * * * * * * * * * * * * * * * //

dimensions      [0 0 0 0 0 0 0];

internalField   nonuniform List<scalar> 
4000
(
1.30194e-22
2.11145e-22
2.65317e-22
3.45492e-22
4.62659e-22
5.58138e-22
6.73087e-22
8.09556e-22
9.99052e-22
1.28899e-21
1.73774e-21
2.17048e-21
2.63106e-21
3.07702e-21
3.62097e-21
4.28988e-21
5.09584e-21
6.52148e-21
9.77578e-21
1.80253e-20
4.04485e-20
1.0317e-19
3.00533e-19
8.67514e-19
2.57179e-18
7.64167e-18
2.24845e-17
6.82091e-17
2.01714e-16
5.96569e-16
1.76427e-15
5.20981e-15
1.52217e-14
4.41978e-14
1.27685e-13
3.56557e-13
1.01035e-12
2.90483e-12
8.14664e-12
2.26212e-11
6.06622e-11
1.59648e-10
4.11093e-10
1.03364e-09
2.53478e-09
6.50988e-09
1.70107e-08
4.37768e-08
1.09691e-07
2.65481e-07
6.17911e-07
1.40248e-06
2.85459e-06
6.04583e-06
1.23794e-05
2.40491e-05
4.36646e-05
7.72033e-05
0.000129328
0.000204789
0.00030596
0.000426739
0.000571563
0.00073639
0.000915307
0.00110143
0.00128888
0.00146764
0.00163258
0.0017777
0.00189244
0.00195683
0.0019332
0.00176012
0.00140446
0.000973271
0.000618229
0.000358512
0.000189847
9.64277e-05
4.95134e-05
2.59763e-05
1.38939e-05
7.54062e-06
4.1254e-06
2.25641e-06
1.22393e-06
6.53459e-07
3.41061e-07
1.73031e-07
8.52841e-08
4.03342e-08
2.06182e-08
1.29444e-08
9.71594e-09
7.50405e-09
5.49255e-09
3.66513e-09
2.07935e-09
6.17256e-10
6.54514e-23
4.21413e-22
6.17582e-22
1.094e-21
1.48945e-21
1.68305e-21
1.91588e-21
2.11347e-21
2.47417e-21
2.91844e-21
3.30788e-21
3.78765e-21
4.28024e-21
4.66786e-21
5.16216e-21
5.78065e-21
6.47647e-21
7.76925e-21
1.06648e-20
1.84026e-20
4.0682e-20
1.08284e-19
3.15729e-19
9.53155e-19
2.91955e-18
8.9239e-18
2.72463e-17
8.29322e-17
2.50198e-16
7.47395e-16
2.22328e-15
6.90081e-15
2.03517e-14
5.88597e-14
1.69188e-13
4.79507e-13
1.37817e-12
3.83973e-12
1.06883e-11
2.90507e-11
7.80149e-11
2.02979e-10
5.22731e-10
1.3104e-09
3.33811e-09
8.6989e-09
2.24409e-08
5.665e-08
1.39907e-07
3.37567e-07
7.29848e-07
1.49417e-06
3.22957e-06
6.69852e-06
1.35369e-05
2.6312e-05
4.65131e-05
8.05922e-05
0.000133098
0.000207495
0.000307468
0.000426651
0.000569427
0.00073202
0.000908458
0.00109275
0.00127911
0.00145895
0.00162465
0.00177124
0.00188882
0.00195698
0.00193896
0.0017727
0.00142029
0.000985323
0.000625756
0.00036263
0.000191798
9.72843e-05
4.98941e-05
2.61519e-05
1.39752e-05
7.57452e-06
4.1367e-06
2.25794e-06
1.22184e-06
6.50569e-07
3.3838e-07
1.71022e-07
8.39724e-08
3.96682e-08
2.04426e-08
1.30217e-08
9.82452e-09
7.56936e-09
5.5195e-09
3.67123e-09
2.07873e-09
6.15476e-10
4.83753e-22
8.10251e-22
1.34316e-21
1.8884e-21
2.86383e-21
3.0969e-21
3.37855e-21
3.78058e-21
4.33216e-21
4.54589e-21
4.97352e-21
5.30222e-21
5.653e-21
5.98058e-21
6.25154e-21
6.70819e-21
7.16762e-21
8.2588e-21
1.13096e-20
1.93747e-20
4.39074e-20
1.20802e-19
3.64342e-19
1.13177e-18
3.53169e-18
1.09862e-17
3.4078e-17
1.05894e-16
3.21615e-16
9.69802e-16
2.98219e-15
8.86093e-15
2.57269e-14
7.53695e-14
2.19214e-13
6.23064e-13
1.74082e-12
4.83066e-12
1.32849e-11
3.56367e-11
9.44659e-11
2.36618e-10
6.32252e-10
1.55759e-09
4.0878e-09
1.04125e-08
2.68728e-08
6.71822e-08
1.60743e-07
3.80624e-07
8.18746e-07
1.68768e-06
3.62689e-06
7.61866e-06
1.49159e-05
2.74977e-05
4.7897e-05
8.23586e-05
0.000135107
0.000209755
0.000309155
0.00042723
0.000568263
0.000728497
0.000902897
0.00108546
0.00127047
0.00144961
0.00161684
0.00176529
0.00188589
0.00195751
0.00194496
0.00178621
0.00143821
0.00099899
0.0006342
0.000367167
0.000193895
9.82189e-05
5.03395e-05
2.63634e-05
1.40727e-05
7.60792e-06
4.14469e-06
2.25619e-06
1.21714e-06
6.45707e-07
3.3454e-07
1.68095e-07
8.20989e-08
3.87709e-08
2.02441e-08
1.31492e-08
9.98473e-09
7.67776e-09
5.57956e-09
3.70208e-09
2.0925e-09
6.18292e-10
2.74128e-22
6.01425e-22
1.15143e-21
1.56788e-21
2.00822e-21
2.45074e-21
2.58375e-21
2.821e-21
3.45807e-21
4.03756e-21
4.56271e-21
4.88432e-21
5.25642e-21
5.78783e-21
6.37728e-21
7.14208e-21
8.18112e-21
9.82889e-21
1.36509e-20
2.42084e-20
5.70257e-20
1.60907e-19
4.85847e-19
1.50508e-18
4.74401e-18
1.47322e-17
4.54816e-17
1.39074e-16
4.12376e-16
1.29061e-15
3.83406e-15
1.13542e-14
3.31624e-14
9.64853e-14
2.78094e-13
7.85096e-13
2.17723e-12
6.03019e-12
1.61923e-11
4.41457e-11
1.1595e-10
2.96213e-10
7.66112e-10
1.88709e-09
4.73755e-09
1.23062e-08
3.13378e-08
7.67529e-08
1.86441e-07
4.06101e-07
8.62367e-07
1.92563e-06
4.14312e-06
8.43031e-06
1.62257e-05
2.83089e-05
4.92945e-05
8.41956e-05
0.000137366
0.000211601
0.000310279
0.000427258
0.00056686
0.000725604
0.000898364
0.00107936
0.00126308
0.00144243
0.00161037
0.00176024
0.00188303
0.00195785
0.00195014
0.00179788
0.00145584
0.00100731
0.000640192
0.000370654
0.000195587
9.90041e-05
5.07261e-05
2.65718e-05
1.4219e-05
7.57706e-06
4.12922e-06
2.24619e-06
1.20994e-06
6.40779e-07
3.31852e-07
1.6417e-07
7.99656e-08
3.78945e-08
2.00928e-08
1.33122e-08
1.0177e-08
7.80733e-09
5.65761e-09
3.7459e-09
2.11382e-09
6.23403e-10
1.64473e-22
4.19977e-22
6.38386e-22
1.00821e-21
1.41595e-21
1.72938e-21
2.23176e-21
2.54705e-21
3.02886e-21
3.61049e-21
4.12504e-21
4.63819e-21
5.15337e-21
5.73125e-21
6.62878e-21
7.76269e-21
9.05063e-21
1.09559e-20
1.62131e-20
3.08788e-20
7.63035e-20
2.18365e-19
6.6083e-19
2.04131e-18
6.32945e-18
1.9525e-17
5.98417e-17
1.84157e-16
5.55667e-16
1.66018e-15
4.9212e-15
1.48051e-14
4.28479e-14
1.23652e-13
3.50915e-13
9.82561e-13
2.70279e-12
7.26508e-12
1.99047e-11
5.29279e-11
1.37561e-10
3.51198e-10
8.76197e-10
2.21186e-09
5.5047e-09
1.41559e-08
3.52847e-08
8.72468e-08
1.95939e-07
4.20736e-07
9.56885e-07
2.11063e-06
4.54783e-06
9.3501e-06
1.67613e-05
2.91955e-05
5.06583e-05
8.57988e-05
0.000138965
0.00021328
0.000311504
0.000427725
0.000566188
0.000723559
0.00089479
0.00107411
0.00125745
0.00143697
0.0016057
0.00175646
0.00188103
0.00195843
0.00195469
0.00180809
0.00146965
0.00101761
0.000646445
0.000374016
0.000197108
9.96812e-05
5.10515e-05
2.67338e-05
1.42975e-05
7.61406e-06
4.14213e-06
2.24872e-06
1.20847e-06
6.38229e-07
3.29411e-07
1.62448e-07
7.88354e-08
3.74454e-08
2.01118e-08
1.35305e-08
1.03898e-08
7.95437e-09
5.7502e-09
3.80044e-09
2.1416e-09
6.30629e-10
7.54251e-23
2.48243e-22
5.14605e-22
8.91462e-22
1.21521e-21
1.55676e-21
1.98502e-21
2.34103e-21
2.53509e-21
2.9202e-21
3.45085e-21
4.17185e-21
4.78445e-21
5.31273e-21
6.17468e-21
7.48407e-21
8.98503e-21
1.21553e-20
1.97371e-20
4.16047e-20
1.08704e-19
3.09956e-19
9.28456e-19
2.82415e-18
8.67593e-18
2.67739e-17
8.08693e-17
2.41555e-16
7.3087e-16
2.15048e-15
6.2453e-15
1.8905e-14
5.39095e-14
1.52864e-13
4.24154e-13
1.19278e-12
3.22256e-12
8.50254e-12
2.3607e-11
6.41447e-11
1.62709e-10
4.06157e-10
1.01425e-09
2.52136e-09
6.3444e-09
1.58389e-08
4.03168e-08
9.20671e-08
2.04242e-07
4.61983e-07
1.04248e-06
2.2942e-06
4.84336e-06
9.84704e-06
1.75331e-05
3.01979e-05
5.1764e-05
8.734e-05
0.000140464
0.000214554
0.000312278
0.000427724
0.000565207
0.000721509
0.000891814
0.00107051
0.00125299
0.00143193
0.00160101
0.00175294
0.00187914
0.00195847
0.00195767
0.00181472
0.00147905
0.0010255
0.000651541
0.000376803
0.000198423
0.000100301
5.13572e-05
2.68886e-05
1.43733e-05
7.65712e-06
4.16172e-06
2.2564e-06
1.21049e-06
6.37895e-07
3.28321e-07
1.6162e-07
7.82174e-08
3.72628e-08
2.02264e-08
1.3762e-08
1.05952e-08
8.10052e-09
5.8458e-09
3.85864e-09
2.1721e-09
6.38875e-10
4.82852e-23
2.10002e-22
3.94581e-22
6.33294e-22
8.36004e-22
1.0889e-21
1.42459e-21
1.8047e-21
2.46312e-21
3.01988e-21
3.66016e-21
4.28191e-21
4.89888e-21
5.69547e-21
6.44085e-21
7.562e-21
9.3123e-21
1.29401e-20
2.26355e-20
5.20367e-20
1.4156e-19
4.14338e-19
1.2329e-18
3.82277e-18
1.15249e-17
3.46404e-17
1.03853e-16
3.0113e-16
9.23669e-16
2.72631e-15
7.92132e-15
2.28258e-14
6.55149e-14
1.85335e-13
5.12564e-13
1.42444e-12
3.92093e-12
1.02484e-11
2.82679e-11
7.38519e-11
1.87833e-10
4.71225e-10
1.15737e-09
2.85524e-09
7.01776e-09
1.76223e-08
4.28613e-08
9.35024e-08
2.18857e-07
4.99165e-07
1.11074e-06
2.41489e-06
5.05458e-06
1.01926e-05
1.80514e-05
3.09654e-05
5.26754e-05
8.83547e-05
0.000141563
0.000215449
0.000312643
0.000427413
0.000564017
0.000719403
0.000888842
0.00106697
0.00124908
0.00142765
0.00159718
0.00174982
0.00187724
0.00195825
0.00196007
0.00182086
0.00148809
0.00103303
0.000656764
0.000379865
0.000199977
0.000101036
5.1723e-05
2.7075e-05
1.44676e-05
7.71e-06
4.18789e-06
2.26856e-06
1.21555e-06
6.39552e-07
3.28503e-07
1.61522e-07
7.80178e-08
3.72695e-08
2.03952e-08
1.3991e-08
1.07918e-08
8.24203e-09
5.94048e-09
3.91748e-09
2.20351e-09
6.47579e-10
1.54001e-22
3.23323e-22
6.1067e-22
1.03388e-21
1.36105e-21
1.75509e-21
2.04289e-21
2.41659e-21
2.84949e-21
3.32292e-21
3.80995e-21
4.57205e-21
5.36405e-21
6.21203e-21
6.97416e-21
8.20692e-21
1.05155e-20
1.52367e-20
2.8241e-20
6.71602e-20
1.84624e-19
5.43104e-19
1.63545e-18
4.94295e-18
1.48999e-17
4.47007e-17
1.32944e-16
3.89618e-16
1.12772e-15
3.27037e-15
9.58715e-15
2.79041e-14
7.91204e-14
2.2127e-13
6.04522e-13
1.65939e-12
4.52661e-12
1.17143e-11
3.17603e-11
8.41101e-11
2.12793e-10
5.2639e-10
1.30889e-09
3.18974e-09
7.85975e-09
1.95146e-08
4.45871e-08
1.01291e-07
2.35602e-07
5.33611e-07
1.1858e-06
2.54452e-06
5.26743e-06
1.05243e-05
1.85206e-05
3.1574e-05
5.34151e-05
8.91771e-05
0.000142306
0.000215888
0.00031251
0.000426594
0.000562333
0.00071699
0.00088554
0.00106257
0.00124474
0.00142323
0.00159328
0.00174649
0.00187501
0.00195771
0.00196223
0.00182701
0.00149762
0.0010413
0.000662514
0.000383441
0.000201905
0.000101955
5.21821e-05
2.73098e-05
1.45888e-05
7.77592e-06
4.22188e-06
2.28557e-06
1.22365e-06
6.43124e-07
3.29877e-07
1.62073e-07
7.81811e-08
3.74238e-08
2.05979e-08
1.42097e-08
1.09746e-08
8.37544e-09
6.03149e-09
3.97494e-09
2.23464e-09
6.56352e-10
1.38913e-22
4.25424e-22
7.64107e-22
1.20832e-21
1.46254e-21
1.82874e-21
2.2043e-21
2.72056e-21
3.25122e-21
3.91534e-21
4.08536e-21
4.59522e-21
5.44435e-21
6.20467e-21
7.29761e-21
8.59724e-21
1.11561e-20
1.72315e-20
3.33747e-20
8.1752e-20
2.28681e-19
6.70358e-19
2.03988e-18
6.11264e-18
1.83481e-17
5.51547e-17
1.6361e-16
4.81267e-16
1.40016e-15
4.0103e-15
1.1493e-14
3.29773e-14
9.28022e-14
2.58475e-13
7.10602e-13
1.92211e-12
5.16271e-12
1.32454e-11
3.56788e-11
9.31119e-11
2.36413e-10
5.88726e-10
1.44753e-09
3.54754e-09
8.32477e-09
1.9187e-08
4.6661e-08
1.09801e-07
2.52416e-07
5.70286e-07
1.24869e-06
2.6517e-06
5.44323e-06
1.07951e-05
1.88731e-05
3.20228e-05
5.39506e-05
8.97218e-05
0.000142697
0.000215868
0.000311802
0.000424936
0.000559719
0.0007131
0.000880865
0.00105783
0.00123919
0.00141813
0.00158829
0.00174232
0.00187175
0.00195634
0.00196397
0.00183325
0.00150776
0.0010504
0.000669057
0.000387679
0.000204298
0.000103102
5.27557e-05
2.76029e-05
1.47411e-05
7.85659e-06
4.26418e-06
2.30746e-06
1.23469e-06
6.48466e-07
3.32318e-07
1.63184e-07
7.86496e-08
3.76969e-08
2.08236e-08
1.44164e-08
1.11436e-08
8.50081e-09
6.11818e-09
4.03029e-09
2.26494e-09
6.65004e-10
1.35376e-22
4.29504e-22
7.49894e-22
1.06012e-21
1.31302e-21
1.64274e-21
2.10262e-21
2.59452e-21
3.17197e-21
3.74579e-21
4.32242e-21
5.17952e-21
5.86251e-21
6.63954e-21
7.9293e-21
9.63389e-21
1.2589e-20
1.9578e-20
3.98561e-20
9.88713e-20
2.74946e-19
8.21734e-19
2.46043e-18
7.38127e-18
2.20438e-17
6.55504e-17
1.93688e-16
5.66756e-16
1.66748e-15
4.82197e-15
1.37517e-14
3.86273e-14
1.0732e-13
2.95798e-13
8.02369e-13
2.1481e-12
5.68105e-12
1.46412e-11
3.98996e-11
1.02333e-10
2.54806e-10
6.31731e-10
1.5457e-09
3.66155e-09
8.49397e-09
2.09578e-08
5.02122e-08
1.17461e-07
2.70137e-07
6.03238e-07
1.30978e-06
2.75872e-06
5.60953e-06
1.09733e-05
1.91199e-05
3.23791e-05
5.43193e-05
9.00207e-05
0.00014276
0.000215515
0.00031083
0.000423155
0.000556672
0.000709075
0.000875913
0.00105205
0.00123338
0.00141277
0.00158334
0.00173779
0.00186834
0.00195502
0.00196586
0.00184008
0.00151981
0.00106166
0.000677359
0.00039311
0.00020732
0.000104526
5.34557e-05
2.79561e-05
1.49238e-05
7.95103e-06
4.31368e-06
2.3335e-06
1.24817e-06
6.55267e-07
3.35633e-07
1.64742e-07
7.93602e-08
3.8061e-08
2.10644e-08
1.4611e-08
1.12992e-08
8.61704e-09
6.19974e-09
4.08293e-09
2.29402e-09
6.73398e-10
1.41978e-22
4.59149e-22
8.70236e-22
1.08105e-21
1.3252e-21
1.62706e-21
1.8761e-21
2.20042e-21
2.61237e-21
3.10424e-21
3.88879e-21
4.73731e-21
5.4545e-21
6.39777e-21
7.10631e-21
8.53815e-21
1.15317e-20
1.94646e-20
4.29839e-20
1.13128e-19
3.19796e-19
9.60492e-19
2.8704e-18
8.5799e-18
2.53218e-17
7.58499e-17
2.21922e-16
6.48466e-16
1.89947e-15
5.48526e-15
1.56063e-14
4.3755e-14
1.20779e-13
3.33497e-13
8.96848e-13
2.38926e-12
6.29107e-12
1.61999e-11
4.36135e-11
1.105e-10
2.73497e-10
6.67771e-10
1.59928e-09
3.76154e-09
9.23612e-09
2.25317e-08
5.3846e-08
1.26114e-07
2.87733e-07
6.39985e-07
1.38623e-06
2.91591e-06
5.96175e-06
1.10227e-05
1.93046e-05
3.26331e-05
5.45294e-05
9.00924e-05
0.000142513
0.000214633
0.000309062
0.00042047
0.000553514
0.000704955
0.000871002
0.00104656
0.00122759
0.00140686
0.00157827
0.00173356
0.00186509
0.00195362
0.00196759
0.00184682
0.00153124
0.00107224
0.000685357
0.000398438
0.000210427
0.000106022
5.41996e-05
2.83346e-05
1.51215e-05
8.0531e-06
4.36846e-06
2.36242e-06
1.26331e-06
6.63058e-07
3.39568e-07
1.66625e-07
8.02473e-08
3.84895e-08
2.13133e-08
1.47947e-08
1.14436e-08
8.72578e-09
6.27664e-09
4.13287e-09
2.32179e-09
6.81477e-10
1.05866e-22
3.44071e-22
7.98834e-22
1.05934e-21
1.25196e-21
1.63302e-21
2.19667e-21
2.80213e-21
3.15123e-21
3.57724e-21
4.12886e-21
4.79302e-21
5.28682e-21
5.93837e-21
6.81771e-21
8.44344e-21
1.20438e-20
2.1402e-20
4.77305e-20
1.27647e-19
3.68344e-19
1.09216e-18
3.28102e-18
9.78053e-18
2.9016e-17
8.54323e-17
2.50219e-16
7.20549e-16
2.11644e-15
6.04473e-15
1.67789e-14
4.83185e-14
1.3396e-13
3.62751e-13
1.00163e-12
2.636e-12
6.83333e-12
1.75481e-11
4.60843e-11
1.19055e-10
2.91905e-10
7.07648e-10
1.6882e-09
4.02554e-09
9.86269e-09
2.39563e-08
5.7077e-08
1.33145e-07
3.02462e-07
6.69636e-07
1.44416e-06
3.02491e-06
6.14045e-06
1.10248e-05
1.94676e-05
3.28406e-05
5.46416e-05
9.00228e-05
0.000142104
0.000213799
0.000307509
0.000418103
0.000549883
0.000700602
0.000866004
0.00104111
0.001222
0.00140109
0.00157293
0.00172932
0.00186109
0.00195154
0.00196866
0.00185281
0.00154229
0.00108325
0.000693562
0.000404127
0.000213759
0.000107628
5.49895e-05
2.87337e-05
1.53297e-05
8.16022e-06
4.42622e-06
2.39377e-06
1.28012e-06
6.71894e-07
3.44052e-07
1.68766e-07
8.12679e-08
3.89709e-08
2.15719e-08
1.49708e-08
1.15788e-08
8.82716e-09
6.34849e-09
4.1797e-09
2.34797e-09
6.89157e-10
5.8651e-23
1.96956e-22
5.77252e-22
8.60554e-22
1.22308e-21
1.67213e-21
2.42687e-21
2.9899e-21
3.24684e-21
3.85873e-21
4.50012e-21
4.99923e-21
5.66859e-21
6.3639e-21
7.37915e-21
9.29291e-21
1.2563e-20
2.27769e-20
5.27882e-20
1.42941e-19
4.14538e-19
1.2299e-18
3.67306e-18
1.08024e-17
3.25422e-17
9.49011e-17
2.74907e-16
7.91877e-16
2.28438e-15
6.69631e-15
1.87151e-14
5.30101e-14
1.45947e-13
4.0106e-13
1.07314e-12
2.81914e-12
7.26823e-12
1.85951e-11
4.87105e-11
1.26388e-10
3.10878e-10
7.55803e-10
1.78448e-09
4.33479e-09
1.0388e-08
2.51758e-08
5.98272e-08
1.38451e-07
3.12397e-07
6.87305e-07
1.47313e-06
3.06732e-06
6.18642e-06
1.10205e-05
1.96517e-05
3.29989e-05
5.46644e-05
8.98184e-05
0.000141532
0.000212689
0.000305914
0.00041572
0.00054654
0.000696312
0.000860974
0.00103558
0.00121636
0.00139534
0.00156758
0.00172465
0.00185741
0.00194973
0.00196983
0.00185889
0.00155393
0.00109491
0.000702487
0.000410119
0.000217241
0.000109304
5.58294e-05
2.91632e-05
1.55548e-05
8.27374e-06
4.487e-06
2.42647e-06
1.29763e-06
6.81145e-07
3.48877e-07
1.71105e-07
8.24009e-08
3.94825e-08
2.18277e-08
1.51357e-08
1.1705e-08
8.92515e-09
6.41952e-09
4.22652e-09
2.37426e-09
6.96877e-10
7.6072e-23
4.22511e-22
5.88363e-22
9.00201e-22
1.20205e-21
1.51715e-21
2.10232e-21
2.58362e-21
3.02555e-21
3.68106e-21
4.19396e-21
4.86567e-21
5.6391e-21
6.64204e-21
8.10919e-21
1.01777e-20
1.41656e-20
2.47037e-20
5.77665e-20
1.55708e-19
4.50073e-19
1.31257e-18
4.02809e-18
1.19061e-17
3.51483e-17
1.02785e-16
3.02068e-16
8.70099e-16
2.50375e-15
7.12699e-15
1.99075e-14
5.69442e-14
1.5434e-13
4.25484e-13
1.13147e-12
2.97581e-12
7.69277e-12
1.93116e-11
5.13901e-11
1.3359e-10
3.24337e-10
7.83032e-10
1.87628e-09
4.56812e-09
1.08432e-08
2.62228e-08
6.184e-08
1.42294e-07
3.19452e-07
6.99423e-07
1.49189e-06
3.09422e-06
6.2083e-06
1.10105e-05
1.97839e-05
3.3111e-05
5.46375e-05
8.95855e-05
0.000140987
0.000211587
0.000304024
0.000413077
0.000543345
0.000692247
0.000856274
0.0010304
0.00121094
0.00139031
0.00156263
0.00172028
0.00185397
0.00194782
0.00197067
0.00186423
0.00156433
0.00110616
0.000711086
0.000416
0.000220774
0.000111028
5.66795e-05
2.9593e-05
1.57789e-05
8.38768e-06
4.54784e-06
2.45913e-06
1.31509e-06
6.90371e-07
3.53672e-07
1.73422e-07
8.35225e-08
3.9993e-08
2.20788e-08
1.52931e-08
1.18238e-08
9.01521e-09
6.48405e-09
4.26885e-09
2.39806e-09
7.039e-10
1.64391e-22
4.49144e-22
7.29041e-22
1.12173e-21
1.41611e-21
1.55322e-21
1.77768e-21
2.07523e-21
2.62569e-21
3.48509e-21
4.3327e-21
5.21814e-21
6.14202e-21
6.98484e-21
7.89818e-21
9.89299e-21
1.44558e-20
2.67638e-20
6.16025e-20
1.65209e-19
4.90742e-19
1.45276e-18
4.33222e-18
1.2786e-17
3.80373e-17
1.10667e-16
3.22148e-16
9.24727e-16
2.64319e-15
7.61235e-15
2.14873e-14
6.00135e-14
1.62652e-13
4.46406e-13
1.17224e-12
3.04819e-12
8.06997e-12
2.01781e-11
5.3288e-11
1.36271e-10
3.43455e-10
8.26292e-10
1.98383e-09
4.67291e-09
1.12106e-08
2.69754e-08
6.3361e-08
1.45245e-07
3.24916e-07
7.08976e-07
1.50697e-06
3.11157e-06
6.22062e-06
1.1e-05
1.98669e-05
3.31667e-05
5.45409e-05
8.92734e-05
0.000140316
0.000210514
0.000302327
0.000410653
0.000540125
0.000688472
0.000851898
0.00102557
0.00120588
0.0013852
0.00155782
0.00171616
0.00185077
0.00194608
0.0019714
0.00186912
0.00157384
0.00111661
0.000719129
0.000421598
0.000224088
0.000112638
5.74727e-05
2.99933e-05
1.59873e-05
8.49286e-06
4.60413e-06
2.48942e-06
1.33133e-06
6.98978e-07
3.5816e-07
1.75593e-07
8.45734e-08
4.04635e-08
2.23028e-08
1.54285e-08
1.19252e-08
9.09276e-09
6.53995e-09
4.30566e-09
2.4188e-09
7.10038e-10
1.2864e-22
4.21755e-22
7.61147e-22
1.08537e-21
1.35377e-21
1.71003e-21
2.05871e-21
2.24666e-21
2.62876e-21
3.01701e-21
3.52718e-21
4.54899e-21
5.10088e-21
5.71087e-21
7.04021e-21
9.33282e-21
1.42347e-20
2.76829e-20
6.523e-20
1.77841e-19
5.19681e-19
1.54353e-18
4.6052e-18
1.36694e-17
4.01635e-17
1.16856e-16
3.40277e-16
9.72981e-16
2.75223e-15
7.93983e-15
2.21862e-14
6.20893e-14
1.70976e-13
4.61576e-13
1.22839e-12
3.23609e-12
8.38489e-12
2.17741e-11
5.59169e-11
1.44781e-10
3.53517e-10
8.4027e-10
2.02356e-09
4.77153e-09
1.14957e-08
2.75588e-08
6.45168e-08
1.47428e-07
3.28792e-07
7.15266e-07
1.51645e-06
3.12308e-06
6.22828e-06
1.09885e-05
1.99199e-05
3.3191e-05
5.44245e-05
8.89368e-05
0.000139677
0.000209435
0.000300773
0.000408576
0.000537485
0.000685366
0.00084822
0.00102148
0.00120162
0.00138097
0.00155367
0.00171254
0.00184794
0.00194448
0.00197188
0.00187308
0.00158183
0.00112557
0.000726032
0.000426375
0.00022694
0.000114029
5.81592e-05
3.03394e-05
1.61679e-05
8.58406e-06
4.653e-06
2.51577e-06
1.34548e-06
7.06497e-07
3.62095e-07
1.77502e-07
8.55089e-08
4.08787e-08
2.24969e-08
1.5543e-08
1.20098e-08
9.15738e-09
6.58655e-09
4.33634e-09
2.43611e-09
7.15172e-10
7.82739e-23
4.16562e-22
7.39991e-22
8.44639e-22
1.07663e-21
1.45127e-21
1.99244e-21
2.70511e-21
3.07297e-21
3.39183e-21
3.79578e-21
4.4059e-21
5.04367e-21
5.86688e-21
7.39776e-21
9.63339e-21
1.42465e-20
2.7987e-20
6.79909e-20
1.87738e-19
5.48849e-19
1.61912e-18
4.84619e-18
1.43189e-17
4.20869e-17
1.22699e-16
3.54371e-16
1.01132e-15
2.88109e-15
8.25706e-15
2.31282e-14
6.51395e-14
1.7769e-13
4.78609e-13
1.27273e-12
3.36273e-12
8.74971e-12
2.24267e-11
5.71942e-11
1.46083e-10
3.58688e-10
8.62371e-10
2.0259e-09
4.83107e-09
1.1724e-08
2.80088e-08
6.53968e-08
1.49092e-07
3.31761e-07
7.20125e-07
1.52359e-06
3.13133e-06
6.23297e-06
1.09795e-05
1.99503e-05
3.31945e-05
5.43129e-05
8.86732e-05
0.000139197
0.000208661
0.000299638
0.000406919
0.000535273
0.00068259
0.000845099
0.00101809
0.00119811
0.00137743
0.00155025
0.00170957
0.00184564
0.00194315
0.0019722
0.00187612
0.00158807
0.00113267
0.000731523
0.000430183
0.000229222
0.000115145
5.87094e-05
3.06159e-05
1.63117e-05
8.65662e-06
4.69192e-06
2.53678e-06
1.3568e-06
7.12525e-07
3.65257e-07
1.79038e-07
8.62603e-08
4.12112e-08
2.26508e-08
1.56323e-08
1.20755e-08
9.20765e-09
6.62285e-09
4.36028e-09
2.44963e-09
7.19184e-10
1.79665e-22
6.22781e-22
1.06908e-21
1.51994e-21
1.67711e-21
1.76619e-21
2.06726e-21
2.62501e-21
2.63373e-21
2.76113e-21
3.14264e-21
3.68639e-21
4.46485e-21
5.31238e-21
6.85347e-21
9.71333e-21
1.52697e-20
2.95352e-20
7.15663e-20
1.96029e-19
5.68889e-19
1.68074e-18
4.98027e-18
1.46448e-17
4.34936e-17
1.26753e-16
3.67706e-16
1.05282e-15
3.03347e-15
8.52905e-15
2.37734e-14
6.55587e-14
1.81558e-13
4.88025e-13
1.31218e-12
3.46835e-12
8.94986e-12
2.25729e-11
5.79149e-11
1.47038e-10
3.60132e-10
8.62121e-10
2.04591e-09
4.88624e-09
1.18869e-08
2.83317e-08
6.60245e-08
1.50278e-07
3.33894e-07
7.23739e-07
1.5287e-06
3.13754e-06
6.23663e-06
1.09737e-05
1.99688e-05
3.31935e-05
5.42317e-05
8.84786e-05
0.00013884
0.000208085
0.000298799
0.000405762
0.000533768
0.00068076
0.000843013
0.00101579
0.00119571
0.00137504
0.00154788
0.00170752
0.00184405
0.00194222
0.00197238
0.00187821
0.00159241
0.00113768
0.000735404
0.000432881
0.000230842
0.00011594
5.91014e-05
3.08143e-05
1.64148e-05
8.70852e-06
4.71972e-06
2.55178e-06
1.36487e-06
7.16821e-07
3.67512e-07
1.80134e-07
8.67972e-08
4.1448e-08
2.27594e-08
1.56947e-08
1.21211e-08
9.24257e-09
6.64808e-09
4.37691e-09
2.45902e-09
7.21975e-10
8.47866e-23
2.65479e-22
5.16409e-22
8.79358e-22
1.10397e-21
1.34842e-21
1.70833e-21
2.33344e-21
2.57078e-21
2.9058e-21
3.26546e-21
3.79591e-21
4.46624e-21
5.27732e-21
6.52394e-21
8.77509e-21
1.41227e-20
2.89621e-20
7.1932e-20
1.9842e-19
5.76341e-19
1.70261e-18
5.09165e-18
1.49775e-17
4.43634e-17
1.28888e-16
3.73835e-16
1.0812e-15
3.08028e-15
8.69657e-15
2.42916e-14
6.81989e-14
1.84683e-13
4.96075e-13
1.33224e-12
3.47356e-12
9.04938e-12
2.28958e-11
6.01917e-11
1.51347e-10
3.64789e-10
8.75423e-10
2.04633e-09
4.9664e-09
1.19739e-08
2.85275e-08
6.64365e-08
1.51064e-07
3.35292e-07
7.26026e-07
1.53201e-06
3.14159e-06
6.23985e-06
1.09721e-05
1.99829e-05
3.31983e-05
5.41954e-05
8.83847e-05
0.00013866
0.000207786
0.000298346
0.000405152
0.000532991
0.000679815
0.000841919
0.00101459
0.00119446
0.00137377
0.00154663
0.00170642
0.00184317
0.0019417
0.00197246
0.0018793
0.0015947
0.00114033
0.000737468
0.000434317
0.000231706
0.000116365
5.93112e-05
3.09204e-05
1.64702e-05
8.73648e-06
4.73474e-06
2.5599e-06
1.36924e-06
7.19153e-07
3.68736e-07
1.8073e-07
8.70883e-08
4.1576e-08
2.28178e-08
1.5728e-08
1.21455e-08
9.26114e-09
6.66147e-09
4.38573e-09
2.46401e-09
7.23457e-10
7.97528e-23
4.25795e-22
7.24268e-22
1.0821e-21
1.28902e-21
1.55607e-21
2.07453e-21
2.75126e-21
3.14756e-21
3.44335e-21
4.13013e-21
4.61126e-21
5.17691e-21
5.45721e-21
6.37312e-21
8.75465e-21
1.39318e-20
2.89207e-20
7.18616e-20
2.00516e-19
5.88834e-19
1.74361e-18
5.1783e-18
1.52788e-17
4.45846e-17
1.31433e-16
3.7965e-16
1.09423e-15
3.14837e-15
8.93279e-15
2.48925e-14
6.82609e-14
1.88442e-13
5.11968e-13
1.35527e-12
3.53027e-12
9.18929e-12
2.30104e-11
6.06605e-11
1.50466e-10
3.7053e-10
8.8308e-10
2.08796e-09
4.97338e-09
1.20242e-08
2.86461e-08
6.66793e-08
1.51535e-07
3.36159e-07
7.27532e-07
1.53444e-06
3.14501e-06
6.24381e-06
1.0975e-05
1.99991e-05
3.32138e-05
5.42014e-05
8.8376e-05
0.000138629
0.000207725
0.00029825
0.000405017
0.00053282
0.000679614
0.000841693
0.00101435
0.00119422
0.00137353
0.00154639
0.00170623
0.00184301
0.00194161
0.00197246
0.00187945
0.00159504
0.00114074
0.000737781
0.000434534
0.000231836
0.000116428
5.93423e-05
3.0936e-05
1.64783e-05
8.74053e-06
4.7369e-06
2.56106e-06
1.36987e-06
7.19484e-07
3.68909e-07
1.80813e-07
8.71286e-08
4.1594e-08
2.28261e-08
1.57329e-08
1.21491e-08
9.2638e-09
6.66335e-09
4.38694e-09
2.46468e-09
7.23655e-10
5.87207e-23
3.5355e-22
8.42221e-22
1.25411e-21
1.52736e-21
1.80852e-21
2.18799e-21
2.74028e-21
3.37809e-21
3.62656e-21
3.7048e-21
4.12836e-21
4.49817e-21
5.44578e-21
6.74407e-21
8.9526e-21
1.44833e-20
2.90111e-20
7.26188e-20
2.01977e-19
5.92779e-19
1.75887e-18
5.23259e-18
1.55077e-17
4.55269e-17
1.32321e-16
3.77809e-16
1.11404e-15
3.16575e-15
8.95874e-15
2.512e-14
6.94035e-14
1.90846e-13
5.12406e-13
1.36767e-12
3.55504e-12
9.24816e-12
2.32791e-11
6.0978e-11
1.51309e-10
3.72406e-10
8.75516e-10
2.11232e-09
4.98771e-09
1.20228e-08
2.86921e-08
6.67756e-08
1.51735e-07
3.36579e-07
7.28394e-07
1.53616e-06
3.14831e-06
6.24986e-06
1.09849e-05
2.00215e-05
3.32494e-05
5.42719e-05
8.84912e-05
0.000138804
0.000207979
0.000298602
0.000405483
0.00053341
0.000680325
0.000842509
0.00101525
0.00119515
0.00137447
0.0015473
0.00170702
0.00184364
0.00194197
0.00197239
0.00187864
0.00159335
0.00113879
0.000736262
0.000433476
0.000231199
0.000116116
5.91879e-05
3.0858e-05
1.64375e-05
8.72002e-06
4.72589e-06
2.55511e-06
1.36665e-06
7.17766e-07
3.68003e-07
1.80373e-07
8.69121e-08
4.14987e-08
2.2783e-08
1.57086e-08
1.21313e-08
9.25016e-09
6.65344e-09
4.38038e-09
2.46096e-09
7.22547e-10
7.30838e-23
2.25246e-22
4.67341e-22
7.63955e-22
1.21458e-21
1.58776e-21
1.76516e-21
2.3215e-21
2.94921e-21
3.23635e-21
3.57614e-21
3.99453e-21
4.4713e-21
5.55492e-21
6.69818e-21
9.37698e-21
1.47886e-20
2.85159e-20
7.09086e-20
1.98293e-19
5.78063e-19
1.73722e-18
5.15023e-18
1.53847e-17
4.50386e-17
1.3061e-16
3.76546e-16
1.09593e-15
3.11593e-15
8.81646e-15
2.46247e-14
6.7895e-14
1.90112e-13
5.07122e-13
1.31734e-12
3.47514e-12
9.07212e-12
2.25785e-11
5.87255e-11
1.52407e-10
3.62657e-10
8.82819e-10
2.0584e-09
4.99963e-09
1.20161e-08
2.86475e-08
6.66956e-08
1.51622e-07
3.36478e-07
7.2849e-07
1.53699e-06
3.15115e-06
6.25746e-06
1.10015e-05
2.00511e-05
3.33065e-05
5.44084e-05
8.8731e-05
0.000139181
0.000208535
0.000299383
0.000406525
0.000534727
0.000681909
0.000844318
0.00101722
0.0011972
0.00137651
0.00154929
0.00170875
0.001845
0.00194277
0.00197223
0.00187687
0.00158966
0.00113455
0.000732974
0.00043119
0.000229824
0.000115441
5.8855e-05
3.06899e-05
1.63499e-05
8.67592e-06
4.70222e-06
2.54231e-06
1.35975e-06
7.14081e-07
3.66063e-07
1.79428e-07
8.64486e-08
4.12952e-08
2.26906e-08
1.56565e-08
1.20932e-08
9.22089e-09
6.6322e-09
4.36633e-09
2.453e-09
7.20177e-10
2.24983e-22
4.50177e-22
6.13226e-22
9.00159e-22
1.18684e-21
1.44612e-21
1.77408e-21
2.24786e-21
2.74131e-21
3.1723e-21
3.73307e-21
4.10155e-21
4.75e-21
5.67098e-21
7.15559e-21
9.73407e-21
1.50412e-20
2.95661e-20
7.11104e-20
1.95853e-19
5.71538e-19
1.70655e-18
5.07909e-18
1.50322e-17
4.41612e-17
1.28682e-16
3.71965e-16
1.06915e-15
3.08159e-15
8.71138e-15
2.43888e-14
6.72346e-14
1.85509e-13
4.98903e-13
1.33002e-12
3.49744e-12
9.0103e-12
2.25769e-11
5.89575e-11
1.50947e-10
3.64989e-10
8.65796e-10
2.04588e-09
4.99264e-09
1.19553e-08
2.85136e-08
6.6457e-08
1.51232e-07
3.35937e-07
7.2798e-07
1.53727e-06
3.15423e-06
6.26806e-06
1.1027e-05
2.00916e-05
3.33909e-05
5.46216e-05
8.91142e-05
0.000139793
0.000209446
0.000300655
0.000408214
0.000536851
0.000684431
0.000847175
0.00102032
0.0012004
0.0013797
0.0015524
0.00171145
0.00184712
0.00194401
0.001972
0.00187417
0.00158406
0.00112815
0.000728025
0.000427753
0.00022776
0.000114431
5.83558e-05
3.04369e-05
1.62182e-05
8.60961e-06
4.66664e-06
2.52308e-06
1.34939e-06
7.08551e-07
3.63155e-07
1.78013e-07
8.57551e-08
4.09901e-08
2.2552e-08
1.55778e-08
1.20358e-08
9.17678e-09
6.60022e-09
4.34519e-09
2.44103e-09
7.16615e-10
1.03354e-22
3.65016e-22
6.49702e-22
8.44277e-22
9.64407e-22
1.17223e-21
1.53138e-21
2.01785e-21
2.41128e-21
2.88056e-21
3.62321e-21
4.28684e-21
5.28781e-21
6.44525e-21
7.68209e-21
9.92651e-21
1.50895e-20
2.91232e-20
6.90723e-20
1.89079e-19
5.52089e-19
1.6165e-18
4.89515e-18
1.4358e-17
4.29367e-17
1.24979e-16
3.61344e-16
1.0363e-15
2.98823e-15
8.51215e-15
2.34282e-14
6.66301e-14
1.80914e-13
4.87602e-13
1.30257e-12
3.41061e-12
8.86007e-12
2.24021e-11
5.71308e-11
1.4514e-10
3.60793e-10
8.58318e-10
2.01176e-09
4.92604e-09
1.18605e-08
2.83061e-08
6.60487e-08
1.50497e-07
3.34778e-07
7.26541e-07
1.53643e-06
3.15666e-06
6.28046e-06
1.10601e-05
2.01381e-05
3.3493e-05
5.48926e-05
8.96113e-05
0.000140598
0.000210654
0.000302359
0.000410506
0.000539791
0.000687845
0.000850975
0.00102442
0.00120462
0.0013839
0.00155643
0.00171498
0.00184986
0.00194559
0.00197164
0.00187059
0.00157674
0.0011199
0.000721644
0.000423326
0.000225108
0.000113134
5.77132e-05
3.01135e-05
1.60498e-05
8.52477e-06
4.62112e-06
2.4985e-06
1.33614e-06
7.01483e-07
3.59439e-07
1.76207e-07
8.48702e-08
4.05999e-08
2.23741e-08
1.54759e-08
1.19609e-08
9.11927e-09
6.55853e-09
4.31763e-09
2.42544e-09
7.11977e-10
1.08916e-22
3.16278e-22
6.87477e-22
8.86893e-22
1.13037e-21
1.52121e-21
2.13895e-21
2.29934e-21
2.62439e-21
3.05957e-21
3.71528e-21
4.53689e-21
5.37426e-21
6.12653e-21
6.8946e-21
9.04664e-21
1.43128e-20
2.76471e-20
6.62738e-20
1.78996e-19
5.28725e-19
1.56086e-18
4.64883e-18
1.38082e-17
4.08068e-17
1.1919e-16
3.47277e-16
9.97744e-16
2.88304e-15
8.11972e-15
2.26498e-14
6.35666e-14
1.74295e-13
4.70792e-13
1.2294e-12
3.28287e-12
8.51007e-12
2.16467e-11
5.59623e-11
1.44561e-10
3.48265e-10
8.59383e-10
2.01805e-09
4.84568e-09
1.16739e-08
2.79692e-08
6.54313e-08
1.49385e-07
3.3297e-07
7.23979e-07
1.53402e-06
3.15769e-06
6.29378e-06
1.10994e-05
2.01778e-05
3.36044e-05
5.52075e-05
9.01957e-05
0.000141548
0.000212079
0.00030435
0.000413122
0.000543012
0.000691707
0.000855409
0.00102926
0.00120965
0.00138882
0.00156107
0.00171895
0.00185296
0.00194733
0.00197108
0.00186617
0.0015679
0.00111007
0.000714074
0.000418089
0.000221983
0.000111613
5.69659e-05
2.97361e-05
1.58524e-05
8.42498e-06
4.56729e-06
2.46943e-06
1.32048e-06
6.93142e-07
3.55059e-07
1.74081e-07