/*--------------------------------*- C++ -*----------------------------------*\
  =========                 |
  \\      /  F ield         | OpenFOAM: The Open Source CFD Toolbox
   \\    /   O peration     | Website:  https://openfoam.org
    \\  /    A nd           | Version:  10
     \\/     M anipulation  |
\*---------------------------------------------------------------------------*/
FoamFile
{
    format      ascii;
    class       volScalarField;
    location    "1";
    object      C8H16;
}
// * * * * * * * * * * * * * * * * * * * * * * * * * * * * * * * * * * * * * //

dimensions      [0 0 0 0 0 0 0];

internalField   nonuniform List<scalar> 
4000
(
3.09265e-22
5.01559e-22
6.30244e-22
8.20694e-22
1.09902e-21
1.32582e-21
1.59887e-21
1.92304e-21
2.37317e-21
3.06187e-21
4.12776e-21
5.15552e-21
6.24907e-21
7.30702e-21
8.59526e-21
1.01735e-20
1.20584e-20
1.53577e-20
2.28419e-20
4.17265e-20
9.29315e-20
2.36053e-19
6.86254e-19
1.97939e-18
5.86636e-18
1.74293e-17
5.12826e-17
1.55573e-16
4.60086e-16
1.36075e-15
4.02434e-15
1.18841e-14
3.47233e-14
1.00826e-13
2.91288e-13
8.13438e-13
2.30504e-12
6.62739e-12
1.85871e-11
5.16132e-11
1.38412e-10
3.64277e-10
9.38033e-10
2.35862e-09
5.78411e-09
1.48552e-08
3.88183e-08
9.99001e-08
2.50323e-07
6.05857e-07
1.41016e-06
3.2007e-06
6.51476e-06
1.3798e-05
2.82531e-05
5.48871e-05
9.96564e-05
0.000176204
0.000295172
0.000467402
0.000698309
0.000973966
0.0013045
0.00168066
0.00208898
0.00251377
0.00294165
0.00334985
0.00372671
0.00405843
0.00432061
0.00446683
0.00440974
0.00400747
0.00318583
0.00219749
0.00139146
0.000805471
0.000426204
0.00021644
0.000111136
5.83063e-05
3.11866e-05
1.6926e-05
9.26017e-06
5.06496e-06
2.74737e-06
1.46685e-06
7.65601e-07
3.88422e-07
1.91458e-07
9.05677e-08
4.63355e-08
2.91535e-08
2.19307e-08
1.69577e-08
1.24166e-08
8.28589e-09
4.70092e-09
1.39547e-09
1.55483e-22
1.00104e-21
1.46705e-21
2.59874e-21
3.53811e-21
3.998e-21
4.55107e-21
5.02042e-21
5.87723e-21
6.93257e-21
7.85761e-21
8.99713e-21
1.01669e-20
1.10868e-20
1.22583e-20
1.37196e-20
1.53492e-20
1.83492e-20
2.50107e-20
4.27277e-20
9.3605e-20
2.47839e-19
7.21028e-19
2.17479e-18
6.65948e-18
2.03535e-17
6.21421e-17
1.89151e-16
5.70666e-16
1.70475e-15
5.07129e-15
1.57413e-14
4.64253e-14
1.34272e-13
3.85967e-13
1.09393e-12
3.14421e-12
8.76033e-12
2.4386e-11
6.6283e-11
1.78006e-10
4.63147e-10
1.19277e-09
2.99015e-09
7.61726e-09
1.98505e-08
5.12102e-08
1.29278e-07
3.19279e-07
7.70365e-07
1.66562e-06
3.40997e-06
7.37055e-06
1.52876e-05
3.08949e-05
6.00518e-05
0.000106158
0.000183939
0.000303777
0.000473578
0.000701754
0.000973769
0.00129963
0.0016707
0.00207336
0.00249397
0.00291936
0.00333004
0.00370862
0.00404371
0.00431241
0.00446734
0.00442323
0.00403668
0.00322238
0.00222505
0.00140856
0.000814797
0.000430619
0.00021838
0.000111999
5.87047e-05
3.13712e-05
1.70033e-05
9.28613e-06
5.0687e-06
2.74285e-06
1.46044e-06
7.59625e-07
3.83934e-07
1.88525e-07
8.90794e-08
4.59487e-08
2.93347e-08
2.21801e-08
1.71075e-08
1.24787e-08
8.30038e-09
4.6999e-09
1.39156e-09
1.14912e-21
1.92472e-21
3.19061e-21
4.48582e-21
6.80288e-21
7.35651e-21
8.02555e-21
8.98053e-21
1.02907e-20
1.07984e-20
1.18142e-20
1.2595e-20
1.34281e-20
1.42056e-20
1.48475e-20
1.59263e-20
1.69982e-20
1.95277e-20
2.65589e-20
4.50286e-20
1.01065e-19
2.76512e-19
8.32009e-19
2.58224e-18
8.0555e-18
2.50565e-17
7.7722e-17
2.41518e-16
7.33548e-16
2.21202e-15
6.80232e-15
2.02123e-14
5.86864e-14
1.71934e-13
5.00088e-13
1.42143e-12
3.97154e-12
1.10211e-11
3.03102e-11
8.13094e-11
2.15541e-10
5.39901e-10
1.44267e-09
3.55419e-09
9.32797e-09
2.37609e-08
6.13237e-08
1.53312e-07
3.66829e-07
8.68627e-07
1.8685e-06
3.85159e-06
8.27733e-06
1.73876e-05
3.4042e-05
6.2758e-05
0.000109316
0.000187971
0.000308363
0.000478738
0.000705606
0.000975095
0.00129698
0.00166267
0.00206068
0.00247734
0.00289966
0.00330874
0.0036908
0.00403016
0.00430579
0.00446872
0.00443723
0.00406801
0.00326372
0.00225631
0.00142776
0.00082508
0.000435372
0.0002205
0.00011301
5.91853e-05
3.15931e-05
1.70798e-05
9.30488e-06
5.06522e-06
2.73252e-06
1.44965e-06
7.51067e-07
3.77393e-07
1.84335e-07
8.70752e-08
4.55136e-08
2.96316e-08
2.25475e-08
1.73554e-08
1.26162e-08
8.37114e-09
4.73158e-09
1.39809e-09
6.51178e-22
1.42865e-21
2.73516e-21
3.7244e-21
4.77039e-21
5.82155e-21
6.1375e-21
6.70109e-21
8.2144e-21
9.59092e-21
1.08383e-20
1.16022e-20
1.24859e-20
1.37475e-20
1.51452e-20
1.69537e-20
1.93946e-20
2.32194e-20
3.20074e-20
5.61438e-20
1.31074e-19
3.68135e-19
1.10926e-18
3.4336e-18
1.08201e-17
3.35992e-17
1.03728e-16
3.17188e-16
9.40546e-16
2.94372e-15
8.74533e-15
2.58993e-14
7.56473e-14
2.20102e-13
6.34408e-13
1.79108e-12
4.96716e-12
1.37578e-11
3.69435e-11
1.00724e-10
2.6456e-10
6.7588e-10
1.74811e-09
4.30607e-09
1.08106e-08
2.80821e-08
7.15128e-08
1.75153e-07
4.25472e-07
9.26769e-07
1.96805e-06
4.39464e-06
9.45549e-06
1.92401e-05
3.70315e-05
6.46094e-05
0.000112506
0.000192163
0.000313518
0.000482952
0.000708172
0.000975162
0.00129378
0.00165607
0.00205035
0.00246344
0.00288283
0.00329236
0.00367607
0.00401867
0.00429934
0.00446964
0.00444934
0.0040951
0.00330442
0.00227537
0.00144139
0.000832994
0.000439215
0.000222286
0.00011389
5.96593e-05
3.19247e-05
1.70122e-05
9.27104e-06
5.04322e-06
2.7166e-06
1.43871e-06
7.45095e-07
3.68614e-07
1.79562e-07
8.51179e-08
4.51853e-08
3.00089e-08
2.29878e-08
1.76513e-08
1.27944e-08
8.47135e-09
4.78042e-09
1.40983e-09
3.90696e-22
9.97629e-22
1.51645e-21
2.39493e-21
3.3635e-21
4.10802e-21
5.3014e-21
6.05035e-21
7.19486e-21
8.57648e-21
9.79869e-21
1.10175e-20
1.2241e-20
1.36126e-20
1.5741e-20
1.84229e-20
2.1444e-20
2.58431e-20
3.79218e-20
7.14407e-20
1.75119e-19
4.9923e-19
1.50829e-18
4.65642e-18
1.44355e-17
4.45287e-17
1.36477e-16
4.20006e-16
1.26735e-15
3.78663e-15
1.1225e-14
3.37708e-14
9.77406e-14
2.82073e-13
8.0053e-13
2.24155e-12
6.16616e-12
1.65751e-11
4.54134e-11
1.20761e-10
3.1387e-10
8.01341e-10
1.9993e-09
5.04712e-09
1.25612e-08
3.2303e-08
8.05195e-08
1.99101e-07
4.47147e-07
9.60167e-07
2.18375e-06
4.81685e-06
1.03791e-05
2.13393e-05
3.8254e-05
6.66329e-05
0.000115619
0.000195823
0.00031717
0.000486785
0.000710971
0.00097623
0.00129225
0.00165141
0.0020422
0.00245148
0.00286998
0.00327992
0.00366543
0.00401007
0.00429484
0.00447107
0.00445996
0.00411877
0.00333631
0.00229895
0.00145563
0.000840631
0.000442671
0.000223827
0.000114631
6.00284e-05
3.21038e-05
1.70967e-05
9.3008e-06
5.04933e-06
2.71352e-06
1.4331e-06
7.39675e-07
3.64777e-07
1.7704e-07
8.41195e-08
4.52388e-08
3.05099e-08
2.34736e-08
1.79866e-08
1.30055e-08
8.59577e-09
4.84383e-09
1.42635e-09
1.79168e-22
5.89685e-22
1.22241e-21
2.11762e-21
2.88665e-21
3.698e-21
4.71529e-21
5.56095e-21
6.02193e-21
6.93672e-21
8.19719e-21
9.90969e-21
1.13643e-20
1.26174e-20
1.46592e-20
1.77507e-20
2.12563e-20
2.85959e-20
4.59944e-20
9.60167e-20
2.49239e-19
7.08259e-19
2.11874e-18
6.44165e-18
1.97864e-17
6.10594e-17
1.84431e-16
5.5091e-16
1.66694e-15
4.90492e-15
1.42451e-14
4.31226e-14
1.22973e-13
3.48711e-13
9.67604e-13
2.72114e-12
7.35196e-12
1.93983e-11
5.38604e-11
1.46353e-10
3.71248e-10
9.2674e-10
2.31431e-09
5.75334e-09
1.44773e-08
3.61436e-08
9.20026e-08
2.101e-07
4.66096e-07
1.0543e-06
2.37909e-06
5.23578e-06
1.10536e-05
2.24734e-05
4.00154e-05
6.89208e-05
0.000118142
0.00019934
0.000320591
0.000489694
0.000712739
0.00097623
0.00129001
0.00164674
0.00203541
0.00244325
0.00285982
0.00326842
0.00365472
0.00400205
0.00429055
0.00447127
0.00446694
0.00413415
0.003358
0.00231699
0.00146722
0.000846952
0.000445655
0.000225236
0.000115326
6.03802e-05
3.22761e-05
1.71946e-05
9.34543e-06
5.0669e-06
2.71825e-06
1.43244e-06
7.37275e-07
3.62941e-07
1.75665e-07
8.3718e-08
4.55058e-08
3.10391e-08
2.3942e-08
1.83195e-08
1.32232e-08
8.72836e-09
4.91335e-09
1.44516e-09
1.147e-22
4.98852e-22
9.37305e-22
1.50435e-21
1.98588e-21
2.58662e-21
3.38405e-21
4.28697e-21
5.851e-21
7.17351e-21
8.69438e-21
1.0171e-20
1.16357e-20
1.35253e-20
1.52875e-20
1.79238e-20
2.19957e-20
3.03434e-20
5.25245e-20
1.1967e-19
3.2396e-19
9.46099e-19
2.8127e-18
8.71859e-18
2.62829e-17
7.89985e-17
2.36845e-16
6.86776e-16
2.10666e-15
6.21826e-15
1.80679e-14
5.20657e-14
1.49445e-13
4.2278e-13
1.16929e-12
3.24961e-12
8.94518e-12
2.33813e-11
6.44942e-11
1.68501e-10
4.28572e-10
1.07521e-09
2.64086e-09
6.51519e-09
1.60138e-08
4.0213e-08
9.78089e-08
2.13375e-07
4.99446e-07
1.13915e-06
2.53486e-06
5.51123e-06
1.15357e-05
2.32621e-05
4.11984e-05
7.06724e-05
0.000120223
0.000201656
0.000323098
0.000491737
0.000713572
0.000975521
0.0012873
0.00164193
0.00202864
0.00243519
0.0028509
0.00325867
0.00364599
0.00399495
0.00428624
0.00447083
0.00447254
0.0041484
0.00337885
0.00233421
0.00147908
0.000853882
0.000449168
0.000226899
0.000116154
6.08019e-05
3.24897e-05
1.73143e-05
9.40471e-06
5.09449e-06
2.72975e-06
1.43624e-06
7.37724e-07
3.62742e-07
1.75227e-07
8.37402e-08
4.58928e-08
3.15613e-08
2.43895e-08
1.86415e-08
1.34387e-08
8.86226e-09
4.98487e-09
1.46498e-09
3.6582e-22
7.6803e-22
1.4506e-21
2.4559e-21
3.23309e-21
4.1691e-21
4.85276e-21
5.74045e-21
6.76877e-21
7.89333e-21
9.05011e-21
1.08601e-20
1.27402e-20
1.47507e-20
1.65491e-20
1.944e-20
2.4806e-20
3.56521e-20
6.5392e-20
1.54258e-19
4.22182e-19
1.23967e-18
3.73056e-18
1.12729e-17
3.3979e-17
1.0194e-16
3.03188e-16
8.88583e-16
2.57202e-15
7.45914e-15
2.18674e-14
6.36493e-14
1.8048e-13
5.04751e-13
1.37906e-12
3.78559e-12
1.0327e-11
2.67257e-11
7.24621e-11
1.91905e-10
4.85521e-10
1.20107e-09
2.98659e-09
7.27845e-09
1.79351e-08
4.45312e-08
1.01747e-07
2.31149e-07
5.37658e-07
1.21776e-06
2.70617e-06
5.80706e-06
1.20214e-05
2.40191e-05
4.22692e-05
7.20614e-05
0.000121911
0.000203533
0.000324795
0.000492739
0.000713269
0.000973654
0.00128346
0.00163643
0.0020211
0.00242515
0.002841
0.00324859
0.0036371
0.00398735
0.00428117
0.00446965
0.00447761
0.00416268
0.00340086
0.00235311
0.00149213
0.000861963
0.000453518
0.000228971
0.000117189
6.13318e-05
3.27632e-05
1.7463e-05
9.48142e-06
5.1329e-06
2.74806e-06
1.44432e-06
7.40839e-07
3.63995e-07
1.75602e-07
8.40926e-08
4.63543e-08
3.20589e-08
2.48054e-08
1.89448e-08
1.36456e-08
8.99295e-09
5.05567e-09
1.48494e-09
3.29978e-22
1.01057e-21
1.81509e-21
2.87027e-21
3.47415e-21
4.34405e-21
5.23618e-21
6.46251e-21
7.72303e-21
9.30052e-21
9.70423e-21
1.09149e-20
1.29303e-20
1.47314e-20
1.73122e-20
2.03512e-20
2.62791e-20
4.02431e-20
7.71437e-20
1.87506e-19
5.22604e-19
1.52982e-18
4.65273e-18
1.394e-17
4.1842e-17
1.2578e-16
3.73123e-16
1.0976e-15
3.19338e-15
9.14677e-15
2.62143e-14
7.52209e-14
2.11688e-13
5.8962e-13
1.62105e-12
4.38492e-12
1.17781e-11
3.02186e-11
8.14019e-11
2.12443e-10
5.39412e-10
1.3433e-09
3.30294e-09
8.09488e-09
1.89961e-08
4.37832e-08
1.06479e-07
2.50568e-07
5.7603e-07
1.30145e-06
2.84968e-06
6.05164e-06
1.24226e-05
2.4637e-05
4.30735e-05
7.30857e-05
0.000123133
0.000204777
0.000325687
0.000492694
0.000711655
0.00096987
0.00127749
0.00162755
0.00201044
0.00241434
0.00282832
0.00323694
0.00362569
0.00397782
0.00427374
0.00446657
0.00448172
0.00417716
0.00342425
0.0023739
0.00150696
0.00087153
0.000458909
0.000231556
0.000118482
6.19921e-05
3.31063e-05
1.76448e-05
9.57674e-06
5.18223e-06
2.77293e-06
1.45636e-06
7.46347e-07
3.66501e-07
1.76661e-07
8.47104e-08
4.68663e-08
3.25283e-08
2.51894e-08
1.92298e-08
1.38426e-08
9.11875e-09
5.12454e-09
1.50461e-09
3.21577e-22
1.02026e-21
1.78132e-21
2.51823e-21
3.119e-21
3.90221e-21
4.99461e-21
6.16309e-21
7.53474e-21
8.89773e-21
1.02672e-20
1.23026e-20
1.3923e-20
1.57626e-20
1.88071e-20
2.27972e-20
2.96259e-20
4.56449e-20
9.2014e-20
2.26682e-19
6.28192e-19
1.875e-18
5.6117e-18
1.68328e-17
5.02694e-17
1.49486e-16
4.41715e-16
1.29256e-15
3.80306e-15
1.0998e-14
3.13663e-14
8.81081e-14
2.44803e-13
6.74756e-13
1.83038e-12
4.90046e-12
1.29606e-11
3.34031e-11
9.10314e-11
2.33481e-10
5.81377e-10
1.44142e-09
3.52693e-09
8.355e-09
1.93821e-08
4.78239e-08
1.14583e-07
2.68049e-07
6.16467e-07
1.37665e-06
2.98909e-06
6.29587e-06
1.28021e-05
2.50438e-05
4.36368e-05
7.38989e-05
0.000123975
0.000205459
0.00032583
0.000491888
0.000709435
0.000965805
0.00127054
0.00161837
0.00199914
0.00240115
0.00281508
0.0032247
0.0036144
0.00396746
0.00426595
0.0044636
0.00448616
0.00419301
0.00345205
0.00239963
0.00152578
0.000883783
0.000465713
0.00023476
0.000120057
6.2787e-05
3.35175e-05
1.78573e-05
9.68816e-06
5.24085e-06
2.80329e-06
1.47168e-06
7.5381e-07
3.70011e-07
1.78262e-07
8.55316e-08
4.7411e-08
3.29697e-08
2.55428e-08
1.94937e-08
1.40279e-08
9.23832e-09
5.19061e-09
1.52368e-09
3.37263e-22
1.09068e-21
2.06719e-21
2.56796e-21
3.14791e-21
3.86494e-21
4.45652e-21
5.22689e-21
6.20541e-21
7.37375e-21
9.23712e-21
1.1252e-20
1.29532e-20
1.51865e-20
1.68464e-20
2.01758e-20
2.70601e-20
4.52114e-20
9.89547e-20
2.59043e-19
7.30373e-19
2.19132e-18
6.54641e-18
1.95659e-17
5.77443e-17
1.72973e-16
5.06102e-16
1.47891e-15
4.33215e-15
1.25108e-14
3.55962e-14
9.9804e-14
2.75504e-13
7.60752e-13
2.0459e-12
5.45058e-12
1.43522e-11
3.69589e-11
9.95043e-11
2.52114e-10
6.2402e-10
1.52365e-09
3.64917e-09
8.58311e-09
2.10756e-08
5.14155e-08
1.22875e-07
2.87793e-07
6.56622e-07
1.4605e-06
3.16356e-06
6.65462e-06
1.3606e-05
2.51566e-05
4.40585e-05
7.44786e-05
0.000124454
0.000205623
0.000325268
0.000489874
0.000705401
0.00095968
0.00126333
0.00160897
0.00198793
0.00238862
0.00280185
0.00321122
0.00360281
0.0039578
0.00425853
0.00446045
0.00449024
0.00420866
0.00347845
0.0024238
0.00154391
0.000895797
0.000472705
0.000238123
0.00012173
6.36383e-05
3.39623e-05
1.80869e-05
9.81136e-06
5.30589e-06
2.83733e-06
1.4892e-06
7.62663e-07
3.74247e-07
1.80258e-07
8.64965e-08
4.79728e-08
3.33856e-08
2.58703e-08
1.97406e-08
1.42025e-08
9.35172e-09
5.25366e-09
1.54202e-09
2.51479e-22
8.1732e-22
1.89757e-21
2.51637e-21
2.97393e-21
3.87908e-21
5.218e-21
6.65618e-21
7.48544e-21
8.49733e-21
9.80738e-21
1.13842e-20
1.25544e-20
1.40934e-20
1.61551e-20
1.99329e-20
2.8225e-20
4.96506e-20
1.09726e-19
2.92028e-19
8.40931e-19
2.49146e-18
7.4827e-18
2.23037e-17
6.61683e-17
1.94824e-16
5.70633e-16
1.6433e-15
4.82699e-15
1.37868e-14
3.82707e-14
1.10213e-13
3.05568e-13
8.27481e-13
2.28493e-12
6.01345e-12
1.55893e-11
4.00348e-11
1.05141e-10
2.71631e-10
6.66017e-10
1.61463e-09
3.85205e-09
9.1855e-09
2.25053e-08
5.46662e-08
1.30247e-07
3.03838e-07
6.90234e-07
1.52817e-06
3.29576e-06
6.90337e-06
1.40138e-05
2.51614e-05
4.44304e-05
7.49522e-05
0.00012471
0.000205464
0.000324333
0.000487973
0.000701857
0.000954277
0.00125505
0.00159904
0.00197653
0.00237618
0.0027891
0.00319804
0.00359061
0.00394812
0.00424941
0.00445574
0.00449281
0.00422258
0.00350395
0.00244897
0.0015625
0.000908622
0.0004802
0.000241735
0.000123506
6.45355e-05
3.44304e-05
1.83278e-05
9.94124e-06
5.37638e-06
2.87515e-06
1.50907e-06
7.72746e-07
3.79061e-07
1.82554e-07
8.75799e-08
4.85558e-08
3.3784e-08
2.6177e-08
1.99706e-08
1.43656e-08
9.45799e-09
5.31309e-09
1.55945e-09
1.39323e-22
4.67858e-22
1.37122e-21
2.04418e-21
2.90533e-21
3.97201e-21
5.76484e-21
7.10225e-21
7.71256e-21
9.16597e-21
1.06892e-20
1.18738e-20
1.34607e-20
1.51025e-20
1.74836e-20
2.19356e-20
2.94205e-20
5.27565e-20
1.21275e-19
3.26928e-19
9.4634e-19
2.80555e-18
8.37656e-18
2.46336e-17
7.42088e-17
2.16417e-16
6.26932e-16
1.80596e-15
5.20999e-15
1.52729e-14
4.26868e-14
1.20914e-13
3.32912e-13
9.14868e-13
2.44805e-12
6.43122e-12
1.65814e-11
4.24231e-11
1.11133e-10
2.88361e-10
7.09306e-10
1.7245e-09
4.07172e-09
9.89113e-09
2.37039e-08
5.7449e-08
1.36523e-07
3.15946e-07
7.12906e-07
1.56849e-06
3.36187e-06
7.00015e-06
1.41187e-05
2.51514e-05
4.48506e-05
7.53135e-05
0.000124762
0.000204997
0.00032303
0.000485437
0.000698216
0.000948837
0.00124742
0.00158925
0.00196505
0.00236356
0.00277624
0.00318491
0.00357839
0.00393745
0.00424099
0.00445164
0.00449559
0.00423671
0.00353082
0.0024756
0.00158272
0.000922134
0.000488031
0.000245502
0.000125394
6.5501e-05
3.49364e-05
1.8583e-05
1.00779e-05
5.44991e-06
2.9145e-06
1.52987e-06
7.83592e-07
3.84319e-07
1.85101e-07
8.87306e-08
4.9132e-08
3.41567e-08
2.64628e-08
2.01929e-08
1.45267e-08
9.56422e-09
5.37275e-09
1.57697e-09
1.80706e-22
1.00365e-21
1.39762e-21
2.13837e-21
2.85538e-21
3.60391e-21
4.99392e-21
6.1372e-21
7.18694e-21
8.74393e-21
9.96194e-21
1.15564e-20
1.33901e-20
1.57618e-20
1.92132e-20
2.40218e-20
3.31667e-20
5.71982e-20
1.32673e-19
3.56043e-19
1.0274e-18
2.99409e-18
9.18601e-18
2.715e-17
8.01509e-17
2.34395e-16
6.88872e-16
1.98435e-15
5.71028e-15
1.62551e-14
4.54063e-14
1.29887e-13
3.52054e-13
9.70579e-13
2.5811e-12
6.78862e-12
1.75498e-11
4.40576e-11
1.17246e-10
3.04792e-10
7.40013e-10
1.78663e-09
4.28119e-09
1.04235e-08
2.47426e-08
5.98382e-08
1.41116e-07
3.24716e-07
7.29005e-07
1.59615e-06
3.40468e-06
7.06155e-06
1.41686e-05
2.51286e-05
4.51522e-05
7.55692e-05
0.000124701
0.000204466
0.000321785
0.000482923
0.000693902
0.000942805
0.00124013
0.00157997
0.00195432
0.00235174
0.00276386
0.00317342
0.00356708
0.00392745
0.00423312
0.00444729
0.00449758
0.00424909
0.00355483
0.00250132
0.00160221
0.000935394
0.000495977
0.000249378
0.000127304
6.6467e-05
3.54401e-05
1.88391e-05
1.02146e-05
5.52331e-06
2.95375e-06
1.55061e-06
7.94371e-07
3.89528e-07
1.87623e-07
8.98785e-08
4.96972e-08
3.4512e-08
2.67319e-08
2.03971e-08
1.46731e-08
9.66026e-09
5.42672e-09
1.5929e-09
3.90504e-22
1.06692e-21
1.73179e-21
2.66458e-21
3.36386e-21
3.68958e-21
4.22278e-21
4.92958e-21
6.23714e-21
8.27846e-21
1.02915e-20
1.23936e-20
1.45844e-20
1.65747e-20
1.87067e-20
2.33315e-20
3.38214e-20
6.19649e-20
1.41423e-19
3.77671e-19
1.11994e-18
3.31354e-18
9.87936e-18
2.91564e-17
8.67387e-17
2.52367e-16
7.34661e-16
2.10893e-15
6.0283e-15
1.73621e-14
4.90097e-14
1.36888e-13
3.71015e-13
1.0183e-12
2.6741e-12
6.95372e-12
1.84103e-11
4.60345e-11
1.21576e-10
3.1091e-10
7.83634e-10
1.88534e-09
4.52659e-09
1.06627e-08
2.55811e-08
6.15555e-08
1.44587e-07
3.3145e-07
7.41476e-07
1.61795e-06
3.4391e-06
7.10114e-06
1.41968e-05
2.51045e-05
4.53418e-05
7.56963e-05
0.00012448
0.000203753
0.000320252
0.000480474
0.000690029
0.000937274
0.00123278
0.00157135
0.00194433
0.00234071
0.00275231
0.00316174
0.00355608
0.00391803
0.00422582
0.00444333
0.00449935
0.00426046
0.00357678
0.00252522
0.00162044
0.000948017
0.000503432
0.000252995
0.000129087
6.73668e-05
3.59084e-05
1.90755e-05
1.03411e-05
5.5914e-06
2.99025e-06
1.56995e-06
8.04459e-07
3.94408e-07
1.89985e-07
9.09364e-08
5.02013e-08
3.48177e-08
2.69614e-08
2.05729e-08
1.47999e-08
9.74373e-09
5.47376e-09
1.60682e-09
3.05579e-22
1.00185e-21
1.80805e-21
2.57823e-21
3.21578e-21
4.06205e-21
4.89033e-21
5.33678e-21
6.24441e-21
7.16656e-21
8.37803e-21
1.0804e-20
1.21109e-20
1.35471e-20
1.66653e-20
2.19887e-20
3.3258e-20
6.40392e-20
1.49711e-19
4.06528e-19
1.18597e-18
3.52054e-18
1.05018e-17
3.11708e-17
9.1587e-17
2.66481e-16
7.76004e-16
2.21897e-15
6.27697e-15
1.8109e-14
5.06035e-14
1.41622e-13
3.90001e-13
1.0529e-12
2.80218e-12
7.38238e-12
1.91288e-11
4.96757e-11
1.27573e-10
3.30326e-10
8.06591e-10
1.91723e-09
4.61724e-09
1.08877e-08
2.62317e-08
6.28868e-08
1.47225e-07
3.36431e-07
7.50321e-07
1.6323e-06
3.46073e-06
7.1274e-06
1.42142e-05
2.50784e-05
4.54625e-05
7.57519e-05
0.000124214
0.000202985
0.000318795
0.000478012
0.000686483
0.000932533
0.00122675
0.00156426
0.00193594
0.00233138
0.00274258
0.00315209
0.00354661
0.00390975
0.00421935
0.0044397
0.00450052
0.00426967
0.00359523
0.00254571
0.00163609
0.000958789
0.000509847
0.000256123
0.00013063
6.81446e-05
3.63144e-05
1.92805e-05
1.0451e-05
5.65061e-06
3.02206e-06
1.58685e-06
8.13302e-07
3.98698e-07
1.92087e-07
9.18696e-08
5.06379e-08
3.50761e-08
2.71529e-08
2.07194e-08
1.49055e-08
9.81331e-09
5.51302e-09
1.61846e-09
1.85936e-22
9.89516e-22
1.75779e-21
2.00638e-21
2.55747e-21
3.44742e-21
4.73293e-21
6.42582e-21
7.29961e-21
8.05689e-21
9.01603e-21
1.0464e-20
1.19747e-20
1.39168e-20
1.75118e-20
2.26936e-20
3.32507e-20
6.46659e-20
1.55967e-19
4.29127e-19
1.25258e-18
3.693e-18
1.10515e-17
3.26519e-17
9.59729e-17
2.79806e-16
8.08144e-16
2.30641e-15
6.57084e-15
1.88325e-14
5.27521e-14
1.4858e-13
4.05315e-13
1.09176e-12
2.90334e-12
7.67127e-12
1.9961e-11
5.11645e-11
1.30487e-10
3.33295e-10
8.18389e-10
1.96766e-09
4.62259e-09
1.10235e-08
2.67526e-08
6.39135e-08
1.49233e-07
3.40229e-07
7.57096e-07
1.64339e-06
3.47702e-06
7.14622e-06
1.42249e-05
2.50579e-05
4.5532e-05
7.57597e-05
0.00012396
0.000202383
0.000317699
0.000476244
0.000683893
0.000928752
0.0012217
0.00155793
0.00192882
0.00232365
0.00273457
0.003144
0.0035388
0.00390297
0.00421409
0.00443668
0.00450128
0.00427674
0.00360964
0.00256195
0.00164854
0.000967377
0.000514979
0.000258631
0.000131867
6.87661e-05
3.66376e-05
1.94436e-05
1.05385e-05
5.69785e-06
3.04749e-06
1.6004e-06
8.20409e-07
4.0215e-07
1.93776e-07
9.26172e-08
5.09841e-08
3.52776e-08
2.73017e-08
2.08334e-08
1.49879e-08
9.86759e-09
5.54366e-09
1.62756e-09
4.2678e-22
1.47937e-21
2.53952e-21
3.6105e-21
3.98384e-21
4.19545e-21
4.91063e-21
6.2355e-21
6.2562e-21
6.55872e-21
7.46453e-21
8.75477e-21
1.05995e-20
1.25988e-20
1.62161e-20
2.28748e-20
3.56581e-20
6.82702e-20
1.64224e-19
4.48093e-19
1.29832e-18
3.8335e-18
1.13571e-17
3.33949e-17
9.91804e-17
2.89049e-16
8.38552e-16
2.40104e-15
6.91837e-15
1.94528e-14
5.42236e-14
1.49535e-13
4.14139e-13
1.11323e-12
2.99332e-12
7.91221e-12
2.04176e-11
5.14981e-11
1.32132e-10
3.35476e-10
8.21684e-10
1.96708e-09
4.66823e-09
1.11494e-08
2.71243e-08
6.46504e-08
1.50665e-07
3.42935e-07
7.61964e-07
1.65164e-06
3.48868e-06
7.16041e-06
1.42333e-05
2.50446e-05
4.55741e-05
7.57574e-05
0.000123775
0.000201939
0.000316883
0.000474931
0.000681978
0.000926111
0.00121827
0.00155375
0.00192405
0.0023184
0.0027291
0.00313855
0.00353337
0.00389828
0.00421045
0.00443457
0.00450175
0.00428158
0.00361966
0.00257341
0.00165734
0.000973461
0.000518623
0.000260417
0.000132748
6.9212e-05
3.68692e-05
1.95602e-05
1.0601e-05
5.73156e-06
3.06563e-06
1.61005e-06
8.25477e-07
4.04615e-07
1.94983e-07
9.31493e-08
5.12285e-08
3.54182e-08
2.74049e-08
2.09125e-08
1.50451e-08
9.9053e-09
5.56496e-09
1.63389e-09
2.01406e-22
6.3063e-22
1.2267e-21
2.08886e-21
2.62242e-21
3.20309e-21
4.05803e-21
5.54292e-21
6.10666e-21
6.90234e-21
7.75624e-21
9.01485e-21
1.06026e-20
1.2515e-20
1.54317e-20
2.06413e-20
3.29197e-20
6.68675e-20
1.6499e-19
4.53534e-19
1.31531e-18
3.88333e-18
1.1611e-17
3.41535e-17
1.01164e-16
2.93917e-16
8.52528e-16
2.46577e-15
7.02512e-15
1.98348e-14
5.54056e-14
1.55557e-13
4.21265e-13
1.1316e-12
3.03907e-12
7.92409e-12
2.06447e-11
5.22347e-11
1.37326e-10
3.45306e-10
8.32309e-10
1.99744e-09
4.66919e-09
1.13324e-08
2.73228e-08
6.50972e-08
1.51606e-07
3.4473e-07
7.65154e-07
1.65686e-06
3.49624e-06
7.16964e-06
1.42406e-05
2.5041e-05
4.56064e-05
7.57684e-05
0.000123692
0.000201725
0.000316473
0.000474247
0.000680944
0.000924719
0.00121649
0.00155159
0.00192156
0.00231566
0.00272623
0.00313564
0.00353051
0.00389577
0.00420844
0.00443339
0.00450195
0.00428411
0.00362494
0.00257949
0.00166202
0.0009767
0.000520567
0.000261372
0.000133219
6.94505e-05
3.69938e-05
1.9623e-05
1.06347e-05
5.7498e-06
3.07546e-06
1.6153e-06
8.28227e-07
4.05954e-07
1.95637e-07
9.34371e-08
5.13596e-08
3.54934e-08
2.746e-08
2.09546e-08
1.50754e-08
9.9253e-09
5.57626e-09
1.63725e-09
1.89449e-22
1.01145e-21
1.72045e-21
2.57046e-21
3.06197e-21
3.69632e-21
4.92788e-21
6.53539e-21
7.47671e-21
8.17919e-21
9.8101e-21
1.09515e-20
1.22906e-20
1.29424e-20
1.50721e-20
2.05897e-20
3.24577e-20
6.67453e-20
1.64733e-19
4.58221e-19
1.34373e-18
3.9768e-18
1.18086e-17
3.48406e-17
1.01668e-16
2.99721e-16
8.6579e-16
2.49548e-15
7.18041e-15
2.03736e-14
5.67761e-14
1.55699e-13
4.29841e-13
1.16785e-12
3.09161e-12
8.05347e-12
2.09638e-11
5.2496e-11
1.38396e-10
3.43296e-10
8.45408e-10
2.01491e-09
4.76418e-09
1.13483e-08
2.74375e-08
6.5368e-08
1.5216e-07
3.45803e-07
7.67131e-07
1.6603e-06
3.5018e-06
7.17746e-06
1.42497e-05
2.50475e-05
4.56433e-05
7.58039e-05
0.000123705
0.000201705
0.000316402
0.000474109
0.000680724
0.00092441
0.0012161
0.00155114
0.00192104
0.00231511
0.00272568
0.0031351
0.00352998
0.00389531
0.00420808
0.00443316
0.00450195
0.00428448
0.00362574
0.00258042
0.00166274
0.00097719
0.00052086
0.000261515
0.000133289
6.94854e-05
3.70119e-05
1.96321e-05
1.06396e-05
5.75241e-06
3.07687e-06
1.61604e-06
8.28616e-07
4.0614e-07
1.95728e-07
9.34775e-08
5.13783e-08
3.55043e-08
2.7468e-08
2.09606e-08
1.50797e-08
9.92804e-09
5.57779e-09
1.6377e-09
1.39489e-22
8.39836e-22
2.00064e-21
2.97905e-21
3.62813e-21
4.29601e-21
5.19738e-21
6.50929e-21
8.0243e-21
8.61437e-21
8.79976e-21
9.80446e-21
1.06783e-20
1.29149e-20
1.59531e-20
2.10589e-20
3.37658e-20
6.69705e-20
1.66475e-19
4.61526e-19
1.35271e-18
4.01162e-18
1.19324e-17
3.53624e-17
1.03817e-16
3.01747e-16
8.61592e-16
2.54066e-15
7.22005e-15
2.04328e-14
5.72951e-14
1.58305e-13
4.35324e-13
1.16885e-12
3.11991e-12
8.10997e-12
2.10982e-11
5.31091e-11
1.3912e-10
3.4522e-10
8.49688e-10
1.99765e-09
4.81978e-09
1.1381e-08
2.74345e-08
6.54729e-08
1.52379e-07
3.46261e-07
7.6809e-07
1.66226e-06
3.50573e-06
7.18498e-06
1.42635e-05
2.50701e-05
4.56944e-05
7.58851e-05
0.000123866
0.000201968
0.000316802
0.000474689
0.000681527
0.000925473
0.00121745
0.00155276
0.00192291
0.00231715
0.00272782
0.00313723
0.00353205
0.00389713
0.00420951
0.00443399
0.00450177
0.00428258
0.00362182
0.00257594
0.00165929
0.000974804
0.000519427
0.000260813
0.000132942
6.93101e-05
3.69203e-05
1.9586e-05
1.06148e-05
5.73903e-06
3.06964e-06
1.61218e-06
8.2658e-07
4.0515e-07
1.95241e-07
9.32632e-08
5.12814e-08
3.54495e-08
2.74278e-08
2.09297e-08
1.50572e-08
9.91317e-09
5.56935e-09
1.63518e-09
1.73609e-22
5.35058e-22
1.11014e-21
1.81472e-21
2.88514e-21
3.77161e-21
4.19302e-21
5.51454e-21
7.00559e-21
7.68752e-21
8.49419e-21
9.48659e-21
1.06146e-20
1.31744e-20
1.58456e-20
2.20714e-20
3.45062e-20
6.58182e-20
1.62522e-19
4.53074e-19
1.31912e-18
3.96226e-18
1.17446e-17
3.50821e-17
1.02703e-16
2.97844e-16
8.58713e-16
2.49937e-15
7.10643e-15
2.01083e-14
5.61653e-14
1.54864e-13
4.3365e-13
1.1568e-12
3.0051e-12
7.92769e-12
2.06965e-11
5.15107e-11
1.33981e-10
3.47726e-10
8.27444e-10
2.01431e-09
4.69674e-09
1.14082e-08
2.7419e-08
6.53711e-08
1.52197e-07
3.46003e-07
7.6786e-07
1.66248e-06
3.50762e-06
7.19146e-06
1.42808e-05
2.5108e-05
4.57621e-05
7.60154e-05
0.000124178
0.000202515
0.000317662
0.000475958
0.00068331
0.000927851
0.00122046
0.00155637
0.00192703
0.00232166
0.00273248
0.0031419
0.00353659
0.00390108
0.00421262
0.0044358
0.00450137
0.00427847
0.00361331
0.00256624
0.00165183
0.000969648
0.000516333
0.000259297
0.000132194
6.89323e-05
3.67235e-05
1.94869e-05
1.05616e-05
5.71026e-06
3.05413e-06
1.6039e-06
8.22221e-07
4.03026e-07
1.94199e-07
9.2806e-08
5.10736e-08
3.5332e-08
2.73417e-08
2.08634e-08
1.50091e-08
9.88131e-09
5.55131e-09
1.62981e-09
5.34431e-22
1.06936e-21
1.45667e-21
2.13825e-21
2.81924e-21
3.43514e-21
4.21421e-21
5.33964e-21
6.51174e-21
7.53538e-21
8.867e-21
9.74087e-21
1.12767e-20
1.34504e-20
1.69336e-20
2.29247e-20
3.51122e-20
6.83395e-20
1.63133e-19
4.47637e-19
1.30427e-18
3.89226e-18
1.15823e-17
3.42781e-17
1.00703e-16
2.93449e-16
8.48265e-16
2.43828e-15
7.02811e-15
1.98686e-14
5.56273e-14
1.53358e-13
4.23151e-13
1.13805e-12
3.03403e-12
7.97858e-12
2.05555e-11
5.15072e-11
1.34511e-10
3.44394e-10
8.32767e-10
1.97547e-09
4.66817e-09
1.13922e-08
2.72803e-08
6.50657e-08
1.51652e-07
3.45113e-07
7.66627e-07
1.66132e-06
3.50826e-06
7.1985e-06
1.4305e-05
2.51661e-05
4.58546e-05
7.62081e-05
0.000124664
0.00020339
0.00031906
0.000478037
0.000686213
0.000931706
0.0012253
0.00156213
0.00193355
0.00232874
0.0027398
0.00314919
0.00354369
0.00390725
0.00421748
0.00443864
0.0045008
0.00427218
0.00360037
0.00255161
0.00164061
0.000961897
0.000511691
0.000257026
0.000131072
6.83638e-05
3.64275e-05
1.93379e-05
1.04817e-05
5.66705e-06
3.03083e-06
1.59147e-06
8.15685e-07
3.99848e-07
1.92641e-07
9.21201e-08
5.0762e-08
3.51547e-08
2.72117e-08
2.07634e-08
1.49365e-08
9.83337e-09
5.52417e-09
1.62173e-09
2.4551e-22
8.67072e-22
1.54332e-21
2.00551e-21
2.29087e-21
2.78455e-21
3.6377e-21
4.79324e-21
5.72776e-21
6.84236e-21
8.60604e-21
1.01811e-20
1.25545e-20
1.52903e-20
1.81862e-20
2.33879e-20
3.52532e-20
6.73692e-20
1.58541e-19
4.3223e-19
1.26e-18
3.68698e-18
1.1163e-17
3.27408e-17
9.79107e-17
2.85005e-16
8.24047e-16
2.36337e-15
6.81521e-15
1.94143e-14
5.34365e-14
1.5198e-13
4.1267e-13
1.11227e-12
2.97141e-12
7.7805e-12
2.02128e-11
5.11084e-11
1.30343e-10
3.31146e-10
8.23193e-10
1.95841e-09
4.59031e-09
1.12403e-08
2.70639e-08
6.45921e-08
1.50721e-07
3.43437e-07
7.6398e-07
1.65803e-06
3.50634e-06
7.20405e-06
1.43333e-05
2.52417e-05
4.59606e-05
7.64411e-05
0.000125283
0.000204524
0.000320896
0.000480794
0.000690104
0.000936938
0.00123201
0.00156992
0.00194223
0.00233808
0.00274943
0.00315878
0.00355291
0.00391533
0.00422373
0.00444223
0.00449993
0.00426388
0.00358348
0.00253273
0.00162614
0.000951914
0.000505725
0.000254111
0.000129628
6.7637e-05
3.6049e-05
1.91472e-05
1.03793e-05
5.6118e-06
3.00106e-06
1.57558e-06
8.07333e-07
3.95789e-07
1.90652e-07
9.12432e-08
5.0362e-08
3.49248e-08
2.70422e-08
2.0633e-08
1.4842e-08
9.77089e-09
5.48881e-09
1.61122e-09
2.58722e-22
7.51297e-22
1.63306e-21
2.10675e-21
2.6851e-21
3.61353e-21
5.08091e-21
5.46191e-21
6.23399e-21
7.26759e-21
8.82477e-21
1.07751e-20
1.27601e-20
1.45343e-20
1.63185e-20
2.13066e-20
3.34351e-20
6.39422e-20
1.52111e-19
4.09216e-19
1.2067e-18
3.56023e-18
1.06015e-17
3.14875e-17
9.30543e-17
2.71803e-16
7.91968e-16
2.27545e-15
6.57532e-15
1.85192e-14
5.1661e-14
1.44992e-13
3.97572e-13
1.07393e-12
2.80449e-12
7.48909e-12
1.94144e-11
4.9385e-11
1.27677e-10
3.29824e-10
7.9461e-10
1.96084e-09
4.60467e-09
1.10569e-08
2.66381e-08
6.38234e-08
1.49312e-07
3.40899e-07
7.59856e-07
1.65219e-06
3.50084e-06
7.20639e-06
1.43637e-05
2.53315e-05
4.60513e-05
7.66954e-05
0.000126002
0.000205858
0.000323065
0.000484047
0.000694647
0.000942909
0.00123937
0.00157873
0.00195235
0.00234913
0.0027609
0.00317001
0.00356352
0.00392441
0.00423083
0.00444618
0.00449856
0.00425361
0.00356307
0.00251026
0.00160898
0.000940104
0.000498697
0.000250693
0.000127948
6.67888e-05
3.56053e-05
1.8923e-05
1.02584e-05
5.54648e-06
2.96588e-06
1.55684e-06
7.9749e-07
3.91011e-07
1.88315e-07
9.02079e-08
4.98828e-08
3.46465e-08
2.68371e-08
2.04757e-08
1.47281e-08
9.69563e-09
5.44625e-09
1.59857e-09