/*--------------------------------*- C++ -*----------------------------------*\
  =========                 |
  \\      /  F ield         | OpenFOAM: The Open Source CFD Toolbox
   \\    /   O peration     | Website:  https://openfoam.org
    \\  /    A nd           | Version:  10
     \\/     M anipulation  |
\*---------------------------------------------------------------------------*/
FoamFile
{
    format      ascii;
    class       volScalarField;
    location    "1";
    object      CH2;
}
// * * * * * * * * * * * * * * * * * * * * * * * * * * * * * * * * * * * * * //

dimensions      [0 0 0 0 0 0 0];

internalField   nonuniform List<scalar> 
4000
(
3.38605e-42
2.09592e-41
9.14254e-41
3.48703e-40
1.24315e-39
4.14687e-39
1.3137e-38
4.00927e-38
1.19173e-37
3.49558e-37
1.02746e-36
2.8277e-36
7.67836e-36
2.09103e-35
5.74221e-35
1.58874e-34
4.41616e-34
1.27636e-33
3.64265e-33
1.05095e-32
3.04622e-32
8.75841e-32
2.68879e-31
7.93651e-31
2.37645e-30
7.09654e-30
2.09336e-29
6.36349e-29
1.88462e-28
5.58084e-28
1.65222e-27
4.88349e-27
1.42874e-26
4.15277e-26
1.20145e-25
3.35897e-25
9.53346e-25
2.74439e-24
7.71458e-24
2.14785e-23
5.77567e-23
1.5252e-22
3.94172e-22
9.96055e-22
2.45948e-21
6.37082e-21
1.68495e-20
4.43333e-20
1.16524e-19
3.13843e-19
9.09517e-19
3.03622e-18
1.0138e-17
4.10152e-17
1.69236e-16
6.62184e-16
2.32822e-15
7.94114e-15
2.4861e-14
7.06683e-14
1.81829e-13
4.09264e-13
8.38292e-13
1.51804e-12
2.6912e-12
5.62897e-12
1.5048e-11
4.61464e-11
1.42495e-10
4.15998e-10
1.13151e-09
2.85891e-09
6.71292e-09
1.47024e-08
3.04746e-08
6.10091e-08
1.21362e-07
2.34262e-07
4.32176e-07
7.52472e-07
1.22162e-06
1.7927e-06
2.16163e-06
2.11774e-06
1.59879e-06
8.65775e-07
4.65242e-07
2.4626e-07
1.27541e-07
6.41562e-08
3.12157e-08
1.42716e-08
6.52208e-09
3.01626e-09
1.29256e-09
4.81918e-10
1.56965e-10
4.48084e-11
1.11175e-11
1.69437e-12
3.25201e-42
1.91975e-41
7.10091e-41
2.44758e-40
8.08273e-40
2.5891e-39
8.07849e-39
2.46379e-38
7.15149e-38
2.02987e-37
5.70452e-37
1.60335e-36
4.53546e-36
1.29788e-35
3.76731e-35
1.11172e-34
3.317e-34
1.00326e-33
3.06674e-33
9.41638e-33
2.90696e-32
9.03145e-32
2.79942e-31
8.667e-31
2.68356e-30
8.24475e-30
2.52455e-29
7.69799e-29
2.32579e-28
6.95573e-28
2.07318e-27
6.43513e-27
1.89985e-26
5.4995e-26
1.58178e-25
4.48949e-25
1.29093e-24
3.60488e-24
1.00459e-23
2.73631e-23
7.36746e-23
1.92337e-22
4.97443e-22
1.25348e-21
3.21488e-21
8.43901e-21
2.20595e-20
5.71487e-20
1.4963e-19
4.11168e-19
1.11548e-18
3.30001e-18
1.23649e-17
4.90153e-17
1.98591e-16
7.71855e-16
2.57034e-15
8.43718e-15
2.56947e-14
7.13291e-14
1.81294e-13
4.04967e-13
8.25364e-13
1.49011e-12
2.61854e-12
5.39461e-12
1.42151e-11
4.36613e-11
1.355e-10
3.98982e-10
1.09711e-09
2.79574e-09
6.61203e-09
1.45822e-08
3.03864e-08
6.10166e-08
1.21605e-07
2.35088e-07
4.34198e-07
7.56425e-07
1.22694e-06
1.7942e-06
2.14228e-06
2.07019e-06
1.50774e-06
8.16327e-07
4.38469e-07
2.31977e-07
1.19692e-07
6.00289e-08
2.91045e-08
1.32688e-08
6.06859e-09
2.81453e-09
1.19906e-09
4.42949e-10
1.43084e-10
4.06828e-11
1.00735e-11
1.532e-12
1.99647e-42
9.85519e-42
3.29797e-41
1.00271e-40
2.93694e-40
8.36804e-40
2.37626e-39
6.79331e-39
2.00237e-38
6.19158e-38
1.97063e-37
6.41631e-37
2.12131e-36
7.05267e-36
2.34876e-35
7.81634e-35
2.59237e-34
8.44633e-34
2.8736e-33
9.39234e-33
3.0713e-32
9.96916e-32
3.20924e-31
1.02292e-30
3.22727e-30
1.00909e-29
3.13917e-29
9.774e-29
2.97219e-28
8.96817e-28
2.76154e-27
8.20964e-27
2.38581e-26
6.99238e-26
2.03385e-25
5.78512e-25
1.61781e-24
4.49235e-24
1.23762e-23
3.32552e-23
8.84137e-23
2.2223e-22
5.95676e-22
1.47642e-21
3.89997e-21
1.00302e-20
2.63154e-20
6.79596e-20
1.74496e-19
4.78516e-19
1.32011e-18
4.00206e-18
1.51127e-17
6.11273e-17
2.33789e-16
8.29853e-16
2.69405e-15
8.71341e-15
2.61992e-14
7.20123e-14
1.81265e-13
4.02271e-13
8.15614e-13
1.46571e-12
2.55927e-12
5.20354e-12
1.35196e-11
4.13835e-11
1.29592e-10
3.84823e-10
1.06954e-09
2.7428e-09
6.53379e-09
1.4499e-08
3.03758e-08
6.1232e-08
1.22259e-07
2.36694e-07
4.37654e-07
7.62577e-07
1.23538e-06
1.79597e-06
2.11323e-06
1.99809e-06
1.36576e-06
7.40308e-07
3.97672e-07
2.09899e-07
1.083e-07
5.4061e-08
2.60985e-08
1.18738e-08
5.46897e-09
2.54999e-09
1.08196e-09
3.96389e-10
1.27456e-10
3.60933e-11
8.91162e-12
1.35295e-12
1.21141e-42
5.9521e-42
2.06146e-41
6.46749e-41
1.98061e-40
6.09688e-40
1.91438e-39
6.32394e-39
2.09309e-38
6.98981e-38
2.38269e-37
8.09237e-37
2.78391e-36
9.42833e-36
3.18307e-35
1.06898e-34
3.56971e-34
1.18428e-33
3.8989e-33
1.27449e-32
4.13297e-32
1.33477e-31
4.2695e-31
1.35462e-30
4.31255e-30
1.34552e-29
4.16567e-29
1.27633e-28
3.79127e-28
1.1868e-27
3.52831e-27
1.04539e-26
3.05499e-26
8.88582e-26
2.56096e-25
7.23152e-25
2.00669e-24
5.56058e-24
1.49565e-23
4.07783e-23
1.07349e-22
2.74783e-22
7.13397e-22
1.76606e-21
4.46497e-21
1.17213e-20
3.04115e-20
7.74914e-20
2.04002e-19
5.15202e-19
1.42337e-18
4.9313e-18
1.88598e-17
7.34229e-17
2.73329e-16
8.67282e-16
2.81233e-15
8.979e-15
2.66734e-14
7.24041e-14
1.80808e-13
3.99166e-13
8.06785e-13
1.44816e-12
2.51616e-12
5.06298e-12
1.30122e-11
3.97776e-11
1.25069e-10
3.7389e-10
1.04697e-09
2.70303e-09
6.4811e-09
1.44499e-08
3.03669e-08
6.19447e-08
1.23527e-07
2.39269e-07
4.42523e-07
7.70598e-07
1.24516e-06
1.79807e-06
2.0847e-06
1.92341e-06
1.21967e-06
6.63533e-07
3.57352e-07
1.89136e-07
9.78265e-08
4.82425e-08
2.32595e-08
1.0616e-08
4.92575e-09
2.30752e-09
9.72065e-10
3.5442e-10
1.13431e-10
3.20001e-11
7.88135e-12
1.19443e-12
1.61333e-42
8.28691e-42
2.92374e-41
9.48936e-41
3.01662e-40
9.61942e-40
3.09405e-39
1.00228e-38
3.25956e-38
1.0889e-37
3.60555e-37
1.20313e-36
4.05816e-36
1.35273e-35
4.5627e-35
1.5124e-34
4.98941e-34
1.66349e-33
5.45311e-33
1.77471e-32
5.73975e-32
1.83412e-31
5.81799e-31
1.83138e-30
5.72602e-30
1.77385e-29
5.44906e-29
1.68058e-28
5.07612e-28
1.51765e-27
4.5015e-27
1.3542e-26
3.91916e-26
1.13066e-25
3.20763e-25
8.98341e-25
2.47085e-24
6.64089e-24
1.81909e-23
4.84151e-23
1.25989e-22
3.22139e-22
8.05866e-22
2.04248e-21
5.11421e-21
1.3296e-20
3.38903e-20
8.72357e-20
2.12853e-19
5.34636e-19
1.63852e-18
5.72734e-18
2.23864e-17
8.89531e-17
2.8849e-16
9.11907e-16
2.93221e-15
9.21918e-15
2.7054e-14
7.28971e-14
1.80827e-13
3.97521e-13
8.01072e-13
1.43531e-12
2.48443e-12
4.96163e-12
1.26865e-11
3.87384e-11
1.22278e-10
3.67224e-10
1.03485e-09
2.68569e-09
6.47038e-09
1.44905e-08
3.05626e-08
6.25105e-08
1.2477e-07
2.41895e-07
4.4751e-07
7.78912e-07
1.25691e-06
1.8053e-06
2.06655e-06
1.87359e-06
1.12209e-06
6.10357e-07
3.28535e-07
1.73714e-07
8.96967e-08
4.41597e-08
2.12408e-08
9.70207e-09
4.53046e-09
2.12848e-09
8.91759e-10
3.23298e-10
1.03023e-10
2.89655e-11
7.12042e-12
1.07742e-12
2.74836e-42
1.46521e-41
5.25958e-41
1.74599e-40
5.67068e-40
1.83462e-39
5.93575e-39
1.9241e-38
6.24628e-38
2.03188e-37
6.59672e-37
2.13567e-36
7.0441e-36
2.28658e-35
7.40892e-35
2.4226e-34
7.83488e-34
2.52897e-33
8.1564e-33
2.59933e-32
8.35497e-32
2.62408e-31
8.16834e-31
2.52511e-30
7.81295e-30
2.42054e-29
7.32836e-29
2.19292e-28
6.63979e-28
1.95491e-27
5.68132e-27
1.71818e-26
4.89811e-26
1.38826e-25
3.85148e-25
1.08191e-24
2.92174e-24
7.70642e-24
2.13632e-23
5.80499e-23
1.4734e-22
3.68065e-22
9.20787e-22
2.29653e-21
5.80838e-21
1.46883e-20
3.81924e-20
9.10266e-20
2.19774e-19
5.91195e-19
1.82277e-18
6.43192e-18
2.47177e-17
9.69433e-17
3.10643e-16
9.61975e-16
3.0261e-15
9.43153e-15
2.73454e-14
7.31056e-14
1.80366e-13
3.95313e-13
7.95248e-13
1.42409e-12
2.46037e-12
4.89057e-12
1.24251e-11
3.78566e-11
1.19943e-10
3.62216e-10
1.02626e-09
2.67337e-09
6.46558e-09
1.45294e-08
3.07271e-08
6.29799e-08
1.25797e-07
2.44052e-07
4.51785e-07
7.86489e-07
1.26804e-06
1.8145e-06
2.05886e-06
1.84664e-06
1.06725e-06
5.79513e-07
3.11312e-07
1.64227e-07
8.4561e-08
4.15564e-08
1.99266e-08
9.1106e-09
4.27483e-09
2.0107e-09
8.39134e-10
3.02697e-10
9.60854e-11
2.69313e-11
6.60574e-12
9.98115e-13
4.39852e-42
2.29362e-41
8.32572e-41
2.74658e-40
8.82978e-40
2.87509e-39
9.22951e-39
2.97285e-38
9.59224e-38
3.09477e-37
9.9897e-37
3.22497e-36
1.04018e-35
3.34879e-35
1.0783e-34
3.47539e-34
1.11939e-33
3.57009e-33
1.13487e-32
3.62103e-32
1.13921e-31
3.55235e-31
1.0868e-30
3.40715e-30
1.03335e-29
3.11644e-29
9.36442e-29
2.72038e-28
8.34197e-28
2.46349e-27
7.15727e-27
2.06178e-26
5.91292e-26
1.67181e-25
4.62044e-25
1.28179e-24
3.52429e-24
9.20429e-24
2.53495e-23
6.62047e-23
1.68298e-22
4.22312e-22
1.03829e-21
2.56525e-21
6.33652e-21
1.60525e-20
3.99111e-20
9.08093e-20
2.33077e-19
6.38872e-19
1.96723e-18
6.92982e-18
2.64816e-17
1.02679e-16
3.25787e-16
1.00012e-15
3.10053e-15
9.56121e-15
2.7521e-14
7.3122e-14
1.79613e-13
3.92737e-13
7.89172e-13
1.41326e-12
2.43775e-12
4.82648e-12
1.22049e-11
3.71075e-11
1.17919e-10
3.57418e-10
1.01684e-09
2.65769e-09
6.44921e-09
1.4535e-08
3.08101e-08
6.3262e-08
1.26467e-07
2.4552e-07
4.54806e-07
7.92099e-07
1.27665e-06
1.82256e-06
2.05652e-06
1.83348e-06
1.03897e-06
5.63194e-07
3.01964e-07
1.58947e-07
8.16318e-08
4.00494e-08
1.9151e-08
8.76145e-09
4.12306e-09
1.93852e-09
8.05765e-10
2.89531e-10
9.1635e-11
2.56215e-11
6.27336e-12
9.46835e-13
6.33465e-42
3.3167e-41
1.19839e-40
3.98817e-40
1.29599e-39
4.18447e-39
1.34792e-38
4.33892e-38
1.3959e-37
4.48759e-37
1.4405e-36
4.62208e-36
1.48366e-35
4.75609e-35
1.51709e-34
4.83431e-34
1.53857e-33
4.87122e-33
1.53608e-32
4.82689e-32
1.50935e-31
4.67693e-31
1.4387e-30
4.38994e-30
1.32979e-29
4.001e-29
1.19221e-28
3.49836e-28
1.01329e-27
2.93826e-27
8.61152e-27
2.50411e-26
7.09454e-26
1.98153e-25
5.40631e-25
1.48175e-24
4.03663e-24
1.0435e-23
2.82452e-23
7.4677e-23
1.88801e-22
4.66734e-22
1.16098e-21
2.83273e-21
7.01092e-21
1.75726e-20
4.09382e-20
9.71584e-20
2.4909e-19
6.84302e-19
2.1257e-18
7.46365e-18
2.82717e-17
1.08179e-16
3.39244e-16
1.02931e-15
3.15541e-15
9.64271e-15
2.75556e-14
7.28248e-14
1.78264e-13
3.89255e-13
7.81767e-13
1.40131e-12
2.41242e-12
4.75092e-12
1.19717e-11
3.63324e-11
1.15769e-10
3.51917e-10
1.00467e-09
2.63418e-09
6.41067e-09
1.44879e-08
3.07765e-08
6.33038e-08
1.26618e-07
2.45996e-07
4.56041e-07
7.94923e-07
1.28133e-06
1.8274e-06
2.05588e-06
1.82732e-06
1.02522e-06
5.55084e-07
2.97211e-07
1.562e-07
8.00724e-08
3.92356e-08
1.87241e-08
8.56911e-09
4.03933e-09
1.8973e-09
7.8602e-10
2.81621e-10
8.89325e-11
2.48209e-11
6.06929e-12
9.15286e-13
8.33206e-42
4.38e-41
1.58815e-40
5.29309e-40
1.72345e-39
5.56552e-39
1.79015e-38
5.74929e-38
1.84504e-37
5.93965e-37
1.90049e-36
6.06686e-36
1.93403e-35
6.18347e-35
1.96115e-34
6.20538e-34
1.96165e-33
6.17021e-33
1.93023e-32
6.09382e-32
1.89149e-31
5.77607e-31
1.79012e-30
5.40804e-30
1.63028e-29
4.91377e-29
1.45977e-28
4.29763e-28
1.25082e-27
3.58332e-27
1.02612e-26
2.94097e-26
8.26711e-26
2.29959e-25
6.31153e-25
1.7051e-24
4.57215e-24
1.17072e-23
3.14634e-23
8.19851e-23
2.07743e-22
5.167e-22
1.2705e-21
3.11638e-21
7.33479e-21
1.7033e-20
4.22045e-20
1.04028e-19
2.64501e-19
7.29261e-19
2.26037e-18
7.91782e-18
2.97659e-17
1.12597e-16
3.48979e-16
1.0493e-15
3.1876e-15
9.6646e-15
2.74425e-14
7.21927e-14
1.76127e-13
3.83784e-13
7.713e-13
1.3834e-12
2.37924e-12
4.66513e-12
1.16623e-11
3.5387e-11
1.12872e-10
3.44502e-10
9.86402e-10
2.59705e-09
6.34563e-09
1.43834e-08
3.06225e-08
6.3096e-08
1.26251e-07
2.45452e-07
4.55432e-07
7.94841e-07
1.28185e-06
1.8284e-06
2.05503e-06
1.82436e-06
1.01922e-06
5.51454e-07
2.9503e-07
1.54907e-07
7.93196e-08
3.88354e-08
1.85094e-08
8.47261e-09
3.99751e-09
1.87607e-09
7.75503e-10
2.77298e-10
8.7435e-11
2.43729e-11
5.95434e-12
8.97457e-13
9.98361e-42
5.53702e-41
1.98149e-40
6.57496e-40
2.16173e-39
6.97827e-39
2.25184e-38
7.23955e-38
2.32171e-37
7.42855e-37
2.37493e-36
7.60404e-36
2.41691e-35
7.67433e-35
2.43258e-34
7.61965e-34
2.45697e-33
7.68134e-33
2.39554e-32
7.42285e-32
2.27771e-31
7.07592e-31
2.15227e-30
6.50591e-30
1.95079e-29
5.81419e-29
1.72025e-28
5.03642e-28
1.48199e-27
4.28492e-27
1.22128e-26
3.42718e-26
9.50827e-26
2.61602e-25
7.08557e-25
1.89355e-24
4.99641e-24
1.28467e-23
3.49031e-23
8.93781e-23
2.2213e-22
5.49935e-22
1.3442e-21
3.1842e-21
7.402e-21
1.83945e-20
4.49558e-20
1.10218e-19
2.8095e-19
7.7308e-19
2.39975e-18
8.38222e-18
3.11629e-17
1.15399e-16
3.5547e-16
1.06352e-15
3.20149e-15
9.64038e-15
2.72353e-14
7.14123e-14
1.73877e-13
3.78424e-13
7.59524e-13
1.36472e-12
2.3433e-12
4.56791e-12
1.13554e-11
3.4393e-11
1.09823e-10
3.35988e-10
9.65697e-10
2.55336e-09
6.25873e-09
1.42212e-08
3.033e-08
6.26192e-08
1.25351e-07
2.43929e-07
4.53171e-07
7.92183e-07
1.27864e-06
1.82579e-06
2.05331e-06
1.82285e-06
1.01768e-06
5.50431e-07
2.94365e-07
1.54485e-07
7.90588e-08
3.86884e-08
1.84266e-08
8.43553e-09
3.98193e-09
1.86787e-09
7.71144e-10
2.75434e-10
8.67698e-11
2.41697e-11
5.90149e-12
8.89194e-13
1.20213e-41
6.62488e-41
2.38141e-40
7.93899e-40
2.58627e-39
8.35414e-39
2.68929e-38
8.63651e-38
2.7645e-37
8.84559e-37
2.86134e-36
9.11789e-36
2.89649e-35
9.22626e-35
2.92649e-34
9.21356e-34
2.92478e-33
9.11131e-33
2.82521e-32
8.75439e-32
2.66483e-31
8.26511e-31
2.50381e-30
7.5353e-30
2.23227e-29
6.70196e-29
1.96328e-28
5.73954e-28
1.68116e-27
4.85346e-27
1.37981e-26
3.8638e-26
1.06504e-25
2.93413e-25
7.87417e-25
2.09291e-24
5.49704e-24
1.41132e-23
3.792e-23
9.58461e-23
2.36742e-22
5.77124e-22
1.38043e-21
3.24746e-21
7.98825e-21
1.96414e-20
4.79008e-20
1.17791e-19
3.00016e-19
8.30947e-19
2.60592e-18
9.19616e-18
3.47323e-17
1.15667e-16
3.59745e-16
1.07144e-15
3.1977e-15
9.56742e-15
2.6896e-14
7.01726e-14
1.7051e-13
3.71286e-13
7.47994e-13
1.34593e-12
2.30774e-12
4.47296e-12
1.10423e-11
3.33442e-11
1.06786e-10
3.27602e-10
9.43779e-10
2.50341e-09
6.15276e-09
1.40215e-08
2.99805e-08
6.20219e-08
1.24164e-07
2.41835e-07
4.49778e-07
7.87639e-07
1.27267e-06
1.82043e-06
2.05084e-06
1.82227e-06
1.01928e-06
5.51208e-07
2.94735e-07
1.54654e-07
7.91324e-08
3.87129e-08
1.84334e-08
8.43849e-09
3.98396e-09
1.8686e-09
7.71068e-10
2.7527e-10
8.66826e-11
2.4137e-11
5.89192e-12
8.87604e-13
1.43916e-41
7.62e-41
2.75502e-40
9.17876e-40
2.98659e-39
9.64032e-39
3.10441e-38
9.99261e-38
3.20649e-37
1.03423e-36
3.31604e-36
1.05869e-35
3.36622e-35
1.07259e-34
3.41127e-34
1.0744e-33
3.3686e-33
1.05228e-32
3.266e-32
1.00769e-31
3.08763e-31
9.38675e-31
2.85353e-30
8.56012e-30
2.54908e-29
7.52233e-29
2.20595e-28
6.35408e-28
1.86629e-27
5.32817e-27
1.4783e-26
4.24684e-26
1.17568e-25
3.17892e-25
8.75188e-25
2.29863e-24
5.94367e-24
1.52197e-23
3.98652e-23
1.02724e-22
2.51297e-22
6.0823e-22
1.44908e-21
3.45548e-21
8.48125e-21
2.07646e-20
5.05424e-20
1.24111e-19
3.16301e-19
8.78414e-19
2.76301e-18
9.73706e-18
3.62429e-17
1.14794e-16
3.63208e-16
1.07566e-15
3.18222e-15
9.47331e-15
2.65222e-14
6.9153e-14
1.67691e-13
3.64959e-13
7.34795e-13
1.32644e-12
2.27246e-12
4.38124e-12
1.07443e-11
3.23332e-11
1.03793e-10
3.19866e-10
9.19077e-10
2.44846e-09
6.04009e-09
1.38059e-08
2.95808e-08
6.12965e-08
1.22757e-07
2.39256e-07
4.45574e-07
7.81779e-07
1.26488e-06
1.81327e-06
2.04803e-06
1.82263e-06
1.02364e-06
5.53561e-07
2.95998e-07
1.55321e-07
7.94752e-08
3.88715e-08
1.85086e-08
8.47217e-09
3.99948e-09
1.87606e-09
7.74146e-10
2.76336e-10
8.70072e-11
2.42247e-11
5.91284e-12
8.90711e-13
1.5787e-41
8.53798e-41
3.09888e-40
1.03158e-39
3.35787e-39
1.08518e-38
3.49926e-38
1.1268e-37
3.63447e-37
1.16972e-36
3.75143e-36
1.19808e-35
3.80724e-35
1.21626e-34
3.83371e-34
1.20047e-33
3.68713e-33
1.19024e-32
3.66981e-32
1.13285e-31
3.46868e-31
1.055e-30
3.18665e-30
9.43286e-30
2.84968e-29
8.33053e-29
2.41623e-28
6.96318e-28
2.00698e-27
5.87935e-27
1.64227e-26
4.64218e-26
1.27598e-25
3.49833e-25
9.34165e-25
2.44848e-24
6.29702e-24
1.60595e-23
4.19515e-23
1.08582e-22
2.66405e-22
6.46435e-22
1.52371e-21
3.69482e-21
8.86368e-21
2.16187e-20
5.23642e-20
1.27555e-19
3.2364e-19
8.97437e-19
2.8186e-18
9.88699e-18
3.64587e-17
1.13984e-16
3.67536e-16
1.07795e-15
3.15954e-15
9.35134e-15
2.61102e-14
6.79568e-14
1.64982e-13
3.58856e-13
7.22784e-13
1.30697e-12
2.23664e-12
4.28843e-12
1.04425e-11
3.12926e-11
1.00579e-10
3.10815e-10
8.95782e-10
2.39543e-09
5.92446e-09
1.35729e-08
2.91333e-08
6.04927e-08
1.21176e-07
2.36432e-07
4.40897e-07
7.75013e-07
1.25552e-06
1.80451e-06
2.04496e-06
1.82391e-06
1.03054e-06
5.57299e-07
2.9802e-07
1.56405e-07
8.00491e-08
3.91469e-08
1.86432e-08
8.5306e-09
4.02531e-09
1.88836e-09
7.79447e-10
2.783e-10
8.76401e-11
2.44038e-11
5.95694e-12
8.97376e-13
1.68317e-41
9.5786e-41
3.45262e-40
1.14927e-39
3.74671e-39
1.21436e-38
3.92707e-38
1.26452e-37
4.06147e-37
1.30164e-36
4.15905e-36
1.32281e-35
4.25349e-35
1.33142e-34
4.20959e-34
1.33087e-33
4.20471e-33
1.30611e-32
4.03959e-32
1.23853e-31
3.76195e-31
1.12393e-30
3.48661e-30
1.03661e-29
3.07083e-29
8.99641e-29
2.64648e-28
7.62754e-28
2.19362e-27
6.24004e-27
1.74205e-26
4.97114e-26
1.34577e-25
3.69954e-25
9.82108e-25
2.57643e-24
6.64453e-24
1.66315e-23
4.41214e-23
1.14317e-22
2.76774e-22
6.66194e-22
1.59201e-21
3.86365e-21
9.16685e-21
2.2264e-20
5.35035e-20
1.29672e-19
3.28103e-19
9.08734e-19
2.8496e-18
9.95973e-18
3.64663e-17
1.13156e-16
3.70252e-16
1.07815e-15
3.13566e-15
9.2436e-15
2.57453e-14
6.68104e-14
1.61925e-13
3.52437e-13
7.11649e-13
1.28884e-12
2.20372e-12
4.2029e-12
1.01626e-11
3.03702e-11
9.75312e-11
3.02229e-10
8.73605e-10
2.34281e-09
5.81289e-09
1.33513e-08
2.87077e-08
5.96741e-08
1.19575e-07
2.33519e-07
4.35969e-07
7.67885e-07
1.2459e-06
1.79558e-06
2.04233e-06
1.82633e-06
1.03971e-06
5.62239e-07
3.00678e-07
1.57821e-07
8.07938e-08
3.95055e-08
1.88178e-08
8.6076e-09
4.05942e-09
1.90462e-09
7.86503e-10
2.80908e-10
8.84801e-11
2.46415e-11
6.01556e-12
9.06257e-13
1.97442e-41
1.03802e-40
3.75687e-40
1.25369e-39
4.08483e-39
1.32212e-38
4.29084e-38
1.37773e-37
4.39924e-37
1.39489e-36
4.51165e-36
1.45821e-35
4.60738e-35
1.44185e-34
4.64467e-34
1.44799e-33
4.49555e-33
1.41449e-32
4.35171e-32
1.32022e-31
4.11758e-31
1.24341e-30
3.74352e-30
1.11121e-29
3.3157e-29
9.668e-29
2.81684e-28
8.08726e-28
2.31045e-27
6.64968e-27
1.87446e-26
5.22843e-26
1.4151e-25
3.87314e-25
1.01504e-24
2.6328e-24
6.95171e-24
1.73319e-23
4.56032e-23
1.1621e-22
2.91719e-22
6.99094e-22
1.67179e-21
3.92505e-21
9.39781e-21
2.26979e-20
5.4311e-20
1.31197e-19
3.3133e-19
9.16875e-19
2.87124e-18
9.99796e-18
3.64203e-17
1.12427e-16
3.71363e-16
1.07524e-15
3.10465e-15
9.12374e-15
2.5345e-14
6.57651e-14
1.59252e-13
3.46614e-13
7.006e-13
1.27225e-12
2.17356e-12
4.12458e-12
9.9044e-12
2.94818e-11
9.46996e-11
2.94479e-10
8.53596e-10
2.29521e-09
5.70926e-09
1.31414e-08
2.83112e-08
5.89108e-08
1.1808e-07
2.3079e-07
4.31448e-07
7.61315e-07
1.23698e-06
1.78734e-06
2.04037e-06
1.82967e-06
1.05033e-06
5.67947e-07
3.03738e-07
1.59445e-07
8.16429e-08
3.99146e-08
1.90157e-08
8.69415e-09
4.09717e-09
1.92226e-09
7.94155e-10
2.83741e-10
8.9394e-11
2.49006e-11
6.07952e-12
9.15956e-13
2.11894e-41
1.11493e-40
4.03771e-40
1.34833e-39
4.40638e-39
1.42605e-38
4.60075e-38
1.48082e-37
4.75108e-37
1.51729e-36
4.84245e-36
1.54877e-35
4.92129e-35
1.56059e-34
4.93678e-34
1.55056e-33
4.81906e-33
1.50758e-32
4.63372e-32
1.4195e-31
4.35462e-31
1.31894e-30
3.97248e-30
1.18565e-29
3.49543e-29
1.01901e-28
2.96999e-28
8.49503e-28
2.40234e-27
6.92186e-27
1.9318e-26
5.39746e-26
1.48364e-25
3.99572e-25
1.06081e-24
2.78673e-24
7.19718e-24
1.8626e-23
4.77104e-23
1.23008e-22
2.99198e-22
7.08455e-22
1.69722e-21
3.98422e-21
9.57373e-21
2.30234e-20
5.48961e-20
1.32263e-19
3.33494e-19
9.22046e-19
2.88422e-18
1.00185e-17
3.6357e-17
1.1179e-16
3.71736e-16
1.07148e-15
3.07547e-15
9.00573e-15
2.49854e-14
6.477e-14
1.56913e-13
3.41738e-13
6.916e-13
1.25854e-12
2.1484e-12
4.06017e-12
9.69533e-12
2.87702e-11
9.23758e-11
2.87937e-10
8.36636e-10
2.25464e-09
5.62057e-09
1.29645e-08
2.79738e-08
5.82612e-08
1.1681e-07
2.28483e-07
4.27591e-07
7.55682e-07
1.22935e-06
1.7804e-06
2.03925e-06
1.8336e-06
1.06138e-06
5.73864e-07
3.06897e-07
1.61114e-07
8.25121e-08
4.03338e-08
1.92197e-08
8.78294e-09
4.13561e-09
1.93997e-09
8.01741e-10
2.86534e-10
9.0292e-11
2.51545e-11
6.1421e-12
9.25443e-13
2.08287e-41
1.17474e-40
4.24182e-40
1.41542e-39
4.61623e-39
1.49563e-38
4.83571e-38
1.55945e-37
5.00211e-37
1.59675e-36
5.12081e-36
1.62818e-35
5.16729e-35
1.63704e-34
5.17006e-34
1.62615e-33
5.11829e-33
1.58868e-32
4.89376e-32
1.4985e-31
4.58886e-31
1.38108e-30
4.17371e-30
1.23997e-29
3.65635e-29
1.06805e-28
3.08794e-28
8.82135e-28
2.51135e-27
7.18687e-27
2.00988e-26
5.65249e-26
1.53873e-25
4.13574e-25
1.09687e-24
2.88986e-24
7.49797e-24
1.91529e-23
4.87027e-23
1.23839e-22
3.02756e-22
7.24294e-22
1.69222e-21
4.01641e-21
9.71407e-21
2.32702e-20
5.53299e-20
1.33049e-19
3.3509e-19
9.25885e-19
2.89369e-18
1.00324e-17
3.6306e-17
1.11316e-16
3.7167e-16
1.06776e-15
3.05067e-15
8.91857e-15
2.47216e-14
6.40553e-14
1.5517e-13
3.37803e-13
6.8405e-13
1.24643e-12
2.12753e-12
4.00793e-12
9.52684e-12
2.81963e-11
9.05436e-11
2.828e-10
8.23423e-10
2.22321e-09
5.55206e-09
1.28251e-08
2.77064e-08
5.7746e-08
1.15802e-07
2.26649e-07
4.24517e-07
7.51172e-07
1.22325e-06
1.77487e-06
2.03866e-06
1.83745e-06
1.07156e-06
5.79298e-07
3.0979e-07
1.62638e-07
8.33026e-08
4.07146e-08
1.94038e-08
8.863e-09
4.17013e-09
1.95564e-09
8.08377e-10
2.88971e-10
9.10744e-11
2.53755e-11
6.1965e-12
9.33688e-13
2.27372e-41
1.20026e-40
4.34451e-40
1.46503e-39
4.7712e-39
1.5438e-38
4.98232e-38
1.60626e-37
5.16821e-37
1.65562e-36
5.28734e-36
1.68436e-35
5.35795e-35
1.70339e-34
5.403e-34
1.69911e-33
5.31206e-33
1.6508e-32
5.09599e-32
1.56171e-31
4.74976e-31
1.43248e-30
4.28555e-30
1.26701e-29
3.77412e-29
1.10184e-28
3.19959e-28
9.16417e-28
2.63881e-27
7.41345e-27
2.06363e-26
5.6835e-26
1.57043e-25
4.21039e-25
1.12907e-24
2.97619e-24
7.65885e-24
1.92526e-23
4.92245e-23
1.24509e-22
3.03334e-22
7.22279e-22
1.70447e-21
4.04844e-21
9.81152e-21
2.34443e-20
5.56399e-20
1.33624e-19
3.36293e-19
9.28868e-19
2.90104e-18
1.00448e-17
3.62784e-17
1.11001e-16
3.71563e-16
1.06509e-15
3.03369e-15
8.85627e-15
2.45312e-14
6.35412e-14
1.53927e-13
3.35128e-13
6.78979e-13
1.23844e-12
2.11347e-12
3.97232e-12
9.41192e-12
2.7805e-11
8.92611e-11
2.79226e-10
8.14218e-10
2.20094e-09
5.50303e-09
1.27271e-08
2.75181e-08
5.73824e-08
1.15092e-07
2.25356e-07
4.22349e-07
7.47988e-07
1.21895e-06
1.77101e-06
2.03844e-06
1.8406e-06
1.07955e-06
5.83557e-07
3.1205e-07
1.63824e-07
8.3916e-08
4.101e-08
1.95463e-08
8.92483e-09
4.19669e-09
1.96761e-09
8.13412e-10
2.90813e-10
9.16642e-11
2.55417e-11
6.23736e-12
9.39876e-13
2.30846e-41
1.23796e-40
4.46628e-40
1.48979e-39
4.86524e-39
1.5803e-38
5.1058e-38
1.6462e-37
5.2992e-37
1.70168e-36
5.4445e-36
1.73609e-35
5.51758e-35
1.74878e-34
5.5338e-34
1.7384e-33
5.42886e-33
1.68574e-32
5.18192e-32
1.58133e-31
4.80937e-31
1.44989e-30
4.37945e-30
1.29494e-29
3.84618e-29
1.11935e-28
3.24912e-28
9.40026e-28
2.67701e-27
7.55381e-27
2.10828e-26
5.90712e-26
1.59656e-25
4.27831e-25
1.14616e-24
2.97934e-24
7.73978e-24
1.95104e-23
5.10754e-23
1.27894e-22
3.06888e-22
7.32046e-22
1.70169e-21
4.10517e-21
9.85952e-21
2.35476e-20
5.58472e-20
1.34021e-19
3.37134e-19
9.30957e-19
2.90643e-18
1.00556e-17
3.62754e-17
1.10859e-16
3.71652e-16
1.06399e-15
3.02555e-15
8.82557e-15
2.44345e-14
6.3274e-14
1.53267e-13
3.33739e-13
6.76372e-13
1.23429e-12
2.10604e-12
3.95363e-12
9.35144e-12
2.75971e-11
8.85861e-11
2.77322e-10
8.09251e-10
2.18915e-09
5.47718e-09
1.26747e-08
2.74174e-08
5.71878e-08
1.14712e-07
2.24664e-07
4.21188e-07
7.46276e-07
1.21664e-06
1.76894e-06
2.0384e-06
1.84247e-06
1.08417e-06
5.86014e-07
3.13353e-07
1.64506e-07
8.42679e-08
4.11793e-08
1.96275e-08
8.95999e-09
4.21167e-09
1.97433e-09
8.16243e-10
2.91843e-10
9.19927e-11
2.5634e-11
6.26001e-12
9.43306e-13
2.28183e-41
1.2356e-40
4.54444e-40
1.51083e-39
4.92706e-39
1.59478e-38
5.1461e-38
1.65882e-37
5.3457e-37
1.72532e-36
5.52107e-36
1.75965e-35
5.57059e-35
1.74073e-34
5.64238e-34
1.76432e-33
5.50113e-33
1.70573e-32
5.2587e-32
1.60674e-31
4.91878e-31
1.48496e-30
4.4509e-30
1.32019e-29
3.86466e-29
1.14092e-28
3.29826e-28
9.50575e-28
2.73459e-27
7.75527e-27
2.15865e-26
5.9143e-26
1.62799e-25
4.41459e-25
1.1659e-24
3.02821e-24
7.85896e-24
1.96126e-23
5.14441e-23
1.27063e-22
3.11272e-22
7.37725e-22
1.73404e-21
4.10718e-21
9.89006e-21
2.36181e-20
5.59879e-20
1.34308e-19
3.3779e-19
9.32722e-19
2.91162e-18
1.00697e-17
3.63038e-17
1.10876e-16
3.72085e-16
1.06447e-15
3.0248e-15
8.82016e-15
2.44149e-14
6.32173e-14
1.53126e-13
3.33435e-13
6.758e-13
1.23339e-12
2.10448e-12
3.9499e-12
9.34002e-12
2.75592e-11
8.84639e-11
2.76988e-10
8.08399e-10
2.18715e-09
5.47285e-09
1.2666e-08
2.74011e-08
5.71564e-08
1.14651e-07
2.24556e-07
4.21007e-07
7.46011e-07
1.21628e-06
1.76863e-06
2.0384e-06
1.84276e-06
1.08489e-06
5.86388e-07
3.13548e-07
1.64607e-07
8.43193e-08
4.12035e-08
1.9639e-08
8.96498e-09
4.21379e-09
1.97527e-09
8.16628e-10
2.91981e-10
9.20359e-11
2.56459e-11
6.26289e-12
9.43738e-13
2.27745e-41
1.25822e-40
4.55567e-40
1.52018e-39
4.96489e-39
1.61013e-38
5.20503e-38
1.67864e-37
5.40055e-37
1.73269e-36
5.54292e-36
1.76779e-35
5.6132e-35
1.77039e-34
5.66142e-34
1.77309e-33
5.51804e-33
1.6969e-32
5.31012e-32
1.62165e-31
4.95524e-31
1.49802e-30
4.49803e-30
1.34013e-29
3.94676e-29
1.14925e-28
3.28565e-28
9.68377e-28
2.75134e-27
7.78141e-27
2.1798e-26
6.01538e-26
1.65067e-25
4.4241e-25
1.17839e-24
3.05555e-24
7.91812e-24
1.98569e-23
5.17573e-23
1.27858e-22
3.12899e-22
7.32004e-22
1.75422e-21
4.11956e-21
9.89107e-21
2.36608e-20
5.60821e-20
1.34529e-19
3.38374e-19
9.34488e-19
2.91765e-18
1.00916e-17
3.63835e-17
1.11117e-16
3.73084e-16
1.06733e-15
3.03464e-15
8.84974e-15
2.44969e-14
6.34287e-14
1.53626e-13
3.34483e-13
6.77737e-13
1.23638e-12
2.10974e-12
3.96319e-12
9.38317e-12
2.77063e-11
8.89397e-11
2.78335e-10
8.11915e-10
2.19557e-09
5.49139e-09
1.27035e-08
2.74732e-08
5.72956e-08
1.14925e-07
2.25056e-07
4.21851e-07
7.47252e-07
1.21796e-06
1.77013e-06
2.03842e-06
1.84138e-06
1.08146e-06
5.84557e-07
3.12573e-07
1.64094e-07
8.40532e-08
4.10753e-08
1.9577e-08
8.93797e-09
4.20224e-09
1.97007e-09
8.14428e-10
2.91173e-10
9.17765e-11
2.55726e-11
6.2448e-12
9.40995e-13
2.3063e-41
1.24869e-40
4.49952e-40
1.5038e-39
4.91945e-39
1.5981e-38
5.17168e-38
1.66807e-37
5.36177e-37
1.71708e-36
5.4768e-36
1.74037e-35
5.51787e-35
1.74885e-34
5.53568e-34
1.73712e-33
5.39082e-33
1.67783e-32
5.21771e-32
1.5964e-31
4.83855e-31
1.48139e-30
4.43264e-30
1.33072e-29
3.90874e-29
1.1357e-28
3.27678e-28
9.53902e-28
2.71136e-27
7.66493e-27
2.13834e-26
5.88569e-26
1.64559e-25
4.38249e-25
1.13695e-24
2.9889e-24
7.77806e-24
1.92851e-23
4.99416e-23
1.28883e-22
3.05333e-22
7.38857e-22
1.713e-21
4.13459e-21
9.90073e-21
2.36623e-20
5.61086e-20
1.34653e-19
3.38814e-19
9.36052e-19
2.92389e-18
1.0119e-17
3.65061e-17
1.11571e-16
3.74663e-16
1.07259e-15
3.05504e-15
8.9137e-15
2.4677e-14
6.38944e-14
1.54735e-13
3.36818e-13
6.82051e-13
1.24306e-12
2.12145e-12
3.99264e-12
9.47809e-12
2.80297e-11
8.99827e-11
2.81279e-10
8.19578e-10
2.214e-09
5.53185e-09
1.27858e-08
2.76319e-08
5.7602e-08
1.15526e-07
2.26154e-07
4.23698e-07
7.49976e-07
1.22166e-06
1.77346e-06
2.03856e-06
1.83854e-06
1.07431e-06
5.80739e-07
3.10543e-07
1.63026e-07
8.35001e-08
4.08084e-08
1.94482e-08
8.88209e-09
4.17819e-09
1.95925e-09
8.09876e-10
2.89501e-10
9.12389e-11
2.54205e-11
6.20732e-12
9.3531e-13
2.33528e-41
1.22548e-40
4.42907e-40
1.46056e-39
4.85891e-39
1.56786e-38
5.0624e-38
1.63115e-37
5.24135e-37
1.67984e-36
5.36954e-36
1.71107e-35
5.43391e-35
1.72048e-34
5.4219e-34
1.69612e-33
5.3479e-33
1.65663e-32
5.10878e-32
1.56663e-31
4.78472e-31
1.45694e-30
4.37625e-30
1.30179e-29
3.83607e-29
1.11989e-28
3.24e-28
9.31415e-28
2.68433e-27
7.58382e-27
2.1215e-26
5.83876e-26
1.60797e-25
4.3155e-25
1.14833e-24
3.01273e-24
7.73942e-24
1.93152e-23
5.01766e-23
1.27921e-22
3.07832e-22
7.26273e-22
1.70684e-21
4.13984e-21
9.87694e-21
2.36203e-20
5.60785e-20
1.34709e-19
3.39203e-19
9.37733e-19
2.93151e-18
1.01566e-17
3.66901e-17
1.12285e-16
3.76978e-16
1.08072e-15
3.08761e-15
9.01741e-15
2.49715e-14
6.46577e-14
1.56538e-13
3.40595e-13
6.88979e-13
1.25365e-12
2.13994e-12
4.03915e-12
9.62822e-12
2.85398e-11
9.1629e-11
2.85887e-10
8.31533e-10
2.24261e-09
5.59471e-09
1.29119e-08
2.78741e-08
5.80696e-08
1.16444e-07
2.2783e-07
4.26518e-07
7.54131e-07
1.2273e-06
1.77859e-06
2.03901e-06
1.83471e-06
1.06435e-06
5.75418e-07
3.0771e-07
1.61534e-07
8.27255e-08
4.04348e-08
1.92674e-08
8.80356e-09
4.14449e-09
1.94392e-09
8.03343e-10
2.87095e-10
9.04646e-11
2.52013e-11
6.15324e-12
9.27105e-13
2.18928e-41
1.18685e-40
4.29273e-40
1.43729e-39
4.67882e-39
1.51166e-38
4.88379e-38
1.58023e-37
5.07549e-37
1.62518e-36
5.18842e-36
1.65209e-35
5.25345e-35
1.67336e-34
5.26451e-34
1.6471e-33
5.12834e-33
1.58796e-32
4.89742e-32
1.50844e-31
4.62036e-31
1.38179e-30
4.22181e-30
1.24491e-29
3.73531e-29
1.08942e-28
3.15304e-28
9.04435e-28
2.60714e-27
7.42496e-27
2.04222e-26
5.79595e-26
1.57101e-25
4.22567e-25
1.12631e-24
2.94127e-24
7.61787e-24
1.91937e-23
4.87553e-23
1.23277e-22
3.05073e-22
7.22339e-22
1.6839e-21
4.09899e-21
9.83794e-21
2.35472e-20
5.59771e-20
1.34643e-19
3.394e-19
9.39112e-19
2.93926e-18
1.02007e-17
3.69286e-17
1.13258e-16
3.79917e-16
1.09116e-15
3.13034e-15
9.15509e-15
2.53658e-14
6.56862e-14
1.58985e-13
3.45765e-13
6.98563e-13
1.26784e-12
2.16445e-12
4.10089e-12
9.82789e-12
2.92179e-11
9.37972e-11
2.91974e-10
8.4709e-10
2.27978e-09
5.67601e-09
1.30767e-08
2.81913e-08
5.8683e-08
1.17648e-07
2.3003e-07
4.30223e-07
7.59594e-07
1.23476e-06
1.7854e-06
2.04002e-06
1.83055e-06
1.05287e-06
5.69277e-07
3.04431e-07
1.59801e-07
8.1823e-08
3.99992e-08
1.9056e-08
8.71156e-09
4.10481e-09
1.92565e-09
7.95487e-10
2.84186e-10
8.95246e-11
2.49345e-11
6.08726e-12
9.17084e-13
2.14968e-41
1.13157e-40
4.11089e-40
1.37156e-39
4.45873e-39
1.43856e-38
4.6678e-38
1.49738e-37
4.79722e-37
1.54949e-36
4.93376e-36
1.56777e-35
4.97338e-35
1.57829e-34
5.0276e-34
1.57523e-33
4.90654e-33
1.52166e-32
4.71558e-32
1.42875e-31
4.43165e-31
1.33502e-30
4.01643e-30
1.1995e-29
3.55625e-29
1.04067e-28
3.03574e-28
8.72794e-28
2.5208e-27
7.09529e-27
1.97772e-26
5.54399e-26
1.51685e-25
4.09013e-25
1.06573e-24
2.83806e-24
7.33579e-24
1.8594e-23
4.78895e-23
1.23187e-22
2.95634e-22
7.25744e-22
1.69558e-21
4.05148e-21
9.73304e-21
2.33942e-20
5.57626e-20
1.34378e-19
3.39216e-19
9.39714e-19
2.94568e-18
1.02471e-17
3.72109e-17
1.14437e-16
3.82905e-16
1.10346e-15
3.18142e-15
9.3197e-15
2.58358e-14
6.69022e-14
1.61837e-13
3.51658e-13
7.0913e-13
1.28406e-12
2.19341e-12
4.17505e-12
1.00704e-11
3.00392e-11