/*--------------------------------*- C++ -*----------------------------------*\
  =========                 |
  \\      /  F ield         | OpenFOAM: The Open Source CFD Toolbox
   \\    /   O peration     | Website:  https://openfoam.org
    \\  /    A nd           | Version:  10
     \\/     M anipulation  |
\*---------------------------------------------------------------------------*/
FoamFile
{
    format      ascii;
    class       volScalarField;
    location    "1";
    object      CH2CHO;
}
// * * * * * * * * * * * * * * * * * * * * * * * * * * * * * * * * * * * * * //

dimensions      [0 0 0 0 0 0 0];

internalField   nonuniform List<scalar> 
4000
(
1.15165e-33
7.16675e-33
3.12783e-32
1.19493e-31
4.26471e-31
1.42445e-30
4.51936e-30
1.38159e-29
4.11423e-29
1.2092e-28
3.56204e-28
9.8138e-28
2.66777e-27
7.27396e-27
2.0001e-26
5.54105e-26
1.54272e-25
4.46462e-25
1.27598e-24
3.68578e-24
1.06944e-23
3.07681e-23
9.4647e-23
2.79595e-22
8.3768e-22
2.50284e-21
7.38663e-21
2.24542e-20
6.64911e-20
1.96803e-19
5.82187e-19
1.71895e-18
5.02071e-18
1.4566e-17
4.20367e-17
1.1721e-16
3.31562e-16
9.50898e-16
2.66077e-15
7.36984e-15
1.97115e-14
5.1732e-14
1.32819e-13
3.33118e-13
8.15286e-13
2.08871e-12
5.44516e-12
1.39858e-11
3.49968e-11
8.46704e-11
1.97264e-10
4.48832e-10
9.17743e-10
1.96197e-09
4.08264e-09
8.1612e-09
1.5476e-08
2.93153e-08
5.42551e-08
9.74341e-08
1.68075e-07
2.69018e-07
4.06621e-07
5.70124e-07
7.3544e-07
8.68976e-07
9.35011e-07
9.28785e-07
8.9427e-07
8.82411e-07
9.22682e-07
1.03895e-06
1.15838e-06
1.14186e-06
9.10846e-07
5.43753e-07
3.31016e-07
2.28771e-07
1.67304e-07
1.13854e-07
6.92618e-08
3.85507e-08
2.08444e-08
1.1344e-08
6.2181e-09
3.4093e-09
1.86104e-09
1.01242e-09
5.60362e-10
3.40799e-10
2.71283e-10
3.29046e-10
5.44857e-10
9.84993e-10
1.71217e-09
1.71482e-09
8.33683e-10
2.87233e-10
7.76316e-11
1.20007e-11
1.12459e-33
6.55783e-33
2.43295e-32
8.35505e-32
2.76504e-31
8.87764e-31
2.77531e-30
8.47759e-30
2.46498e-29
7.00693e-29
1.9723e-28
5.55185e-28
1.57293e-27
4.5088e-27
1.31108e-26
3.87599e-26
1.15865e-25
3.5111e-25
1.07518e-24
3.30667e-24
1.02255e-23
3.18155e-23
9.87528e-23
3.06114e-22
9.48633e-22
2.917e-21
8.93756e-21
2.72657e-20
8.23893e-20
2.46355e-19
7.33476e-19
2.27554e-18
6.70913e-18
1.9387e-17
5.56505e-17
1.57517e-16
4.51666e-16
1.25608e-15
3.48655e-15
9.45101e-15
2.53045e-14
6.56429e-14
1.6854e-13
4.21326e-13
1.07045e-12
2.78064e-12
7.15472e-12
1.80195e-11
4.4418e-11
1.07088e-10
2.31844e-10
4.75222e-10
1.03178e-09
2.15958e-09
4.42851e-09
8.82694e-09
1.62958e-08
3.0291e-08
5.53205e-08
9.81001e-08
1.68071e-07
2.67903e-07
4.04037e-07
5.66414e-07
7.31654e-07
8.67612e-07
9.38291e-07
9.35697e-07
9.02478e-07
8.89809e-07
9.27899e-07
1.04358e-06
1.16955e-06
1.16142e-06
9.33548e-07
5.59078e-07
3.39178e-07
2.33573e-07
1.70488e-07
1.15793e-07
7.02089e-08
3.89585e-08
2.10325e-08
1.14305e-08
6.2541e-09
3.42233e-09
1.86432e-09
1.01259e-09
5.60861e-10
3.43905e-10
2.79592e-10
3.47473e-10
5.81966e-10
1.04817e-09
1.80514e-09
1.69319e-09
7.98186e-10
2.71564e-10
7.3e-11
1.12475e-11
6.397e-34
3.32108e-33
1.11958e-32
3.39391e-32
9.92569e-32
2.85158e-31
8.1144e-31
2.32353e-30
6.86246e-30
2.12682e-29
6.785e-29
2.21441e-28
7.33851e-28
2.44574e-27
8.16525e-27
2.72402e-26
9.05608e-26
2.95602e-25
1.00877e-24
3.30387e-24
1.0825e-23
3.52018e-23
1.13505e-22
3.62312e-22
1.14454e-21
3.58292e-21
1.11573e-20
3.47654e-20
1.05775e-19
3.19285e-19
9.82578e-19
2.91968e-18
8.47501e-18
2.48055e-17
7.20374e-17
2.04408e-16
5.69947e-16
1.57756e-15
4.3279e-15
1.15763e-14
3.06009e-14
7.64313e-14
2.0339e-13
4.99642e-13
1.30626e-12
3.31678e-12
8.53434e-12
2.12825e-11
5.08445e-11
1.2024e-10
2.58384e-10
5.33435e-10
1.15083e-09
2.43156e-09
4.83197e-09
9.16426e-09
1.66851e-08
3.07986e-08
5.59144e-08
9.87108e-08
1.68302e-07
2.67423e-07
4.02479e-07
5.63832e-07
7.2954e-07
8.67979e-07
9.43377e-07
9.46007e-07
9.13306e-07
8.99196e-07
9.34921e-07
1.05039e-06
1.18314e-06
1.18509e-06
9.61609e-07
5.78357e-07
3.49643e-07
2.39867e-07
1.74696e-07
1.18353e-07
7.15303e-08
3.95365e-08
2.12987e-08
1.15434e-08
6.29942e-09
3.43822e-09
1.8681e-09
1.01274e-09
5.61785e-10
3.48354e-10
2.91219e-10
3.72837e-10
6.31347e-10
1.13184e-09
1.91552e-09
1.66406e-09
7.60897e-10
2.55369e-10
6.81587e-11
1.04692e-11
3.97238e-34
2.02748e-33
6.945e-33
2.17036e-32
6.65088e-32
2.05323e-31
6.47175e-31
2.14612e-30
7.1278e-30
2.38891e-29
8.17255e-29
2.78542e-28
9.61271e-28
3.26593e-27
1.10602e-26
3.72543e-26
1.2476e-25
4.15045e-25
1.37006e-24
4.48994e-24
1.45945e-23
4.72428e-23
1.51426e-22
4.81372e-22
1.53489e-21
4.79632e-21
1.48685e-20
4.55982e-20
1.35509e-19
4.24521e-19
1.26211e-18
3.73833e-18
1.09157e-17
3.17244e-17
9.13037e-17
2.573e-16
7.12128e-16
1.96728e-15
5.2705e-15
1.43181e-14
3.74895e-14
9.54194e-14
2.45912e-13
6.03655e-13
1.50997e-12
3.90803e-12
9.91829e-12
2.42297e-11
5.87136e-11
1.27623e-10
2.70868e-10
6.05242e-10
1.30567e-09
2.67578e-09
5.22718e-09
9.35265e-09
1.70303e-08
3.12671e-08
5.64563e-08
9.90601e-08
1.68214e-07
2.66598e-07
4.0077e-07
5.61706e-07
7.27943e-07
8.68678e-07
9.48527e-07
9.54932e-07
9.24007e-07
9.09417e-07
9.44549e-07
1.0599e-06
1.19825e-06
1.20831e-06
9.90736e-07
5.944e-07
3.59605e-07
2.46659e-07
1.79512e-07
1.21315e-07
7.30081e-08
4.02175e-08
2.16901e-08
1.15816e-08
6.31983e-09
3.44664e-09
1.87042e-09
1.01363e-09
5.64748e-10
3.51843e-10
3.0312e-10
3.99442e-10
6.84591e-10
1.22235e-09
2.02541e-09
1.63469e-09
7.26654e-10
2.4056e-10
6.37639e-11
9.76349e-12
5.30713e-34
2.74734e-33
9.70778e-33
3.15741e-32
1.00854e-31
3.22936e-31
1.04261e-30
3.39185e-30
1.10765e-29
3.71645e-29
1.23553e-28
4.13916e-28
1.40104e-27
4.68618e-27
1.58631e-26
5.27543e-26
1.74616e-25
5.83929e-25
1.91987e-24
6.26574e-24
2.03194e-23
6.50887e-23
2.0695e-22
6.52861e-22
2.04533e-21
6.34791e-21
1.95339e-20
6.03069e-20
1.82345e-19
5.45555e-19
1.61857e-18
4.87019e-18
1.40892e-17
4.06215e-17
1.15116e-16
3.21799e-16
8.83267e-16
2.36797e-15
6.46712e-15
1.71415e-14
4.44056e-14
1.12931e-13
2.80675e-13
7.05696e-13
1.7493e-12
4.48089e-12
1.11308e-11
2.74281e-11
6.14311e-11
1.31647e-10
2.99053e-10
6.60081e-10
1.42532e-09
2.95178e-09
5.36411e-09
9.57958e-09
1.73846e-08
3.16914e-08
5.68842e-08
9.94596e-08
1.68337e-07
2.66268e-07
3.99845e-07
5.6046e-07
7.27247e-07
8.70126e-07
9.53525e-07
9.62722e-07
9.32855e-07
9.18453e-07
9.53223e-07
1.06899e-06
1.2132e-06
1.23211e-06
1.01778e-06
6.12507e-07
3.696e-07
2.53036e-07
1.838e-07
1.23833e-07
7.42545e-08
4.07711e-08
2.19591e-08
1.17158e-08
6.38091e-09
3.47321e-09
1.88113e-09
1.01809e-09
5.68153e-10
3.58004e-10
3.15629e-10
4.25283e-10
7.34563e-10
1.30655e-09
2.11468e-09
1.61108e-09
7.00409e-10
2.29085e-10
6.00737e-11
9.18069e-12
9.03865e-34
4.83103e-33
1.7421e-32
5.80385e-32
1.89434e-31
6.15703e-31
2.00108e-30
6.51492e-30
2.12402e-29
6.93798e-29
2.26146e-28
7.35007e-28
2.43433e-27
7.93176e-27
2.57954e-26
8.46445e-26
2.74687e-25
8.89629e-25
2.87783e-24
9.19802e-24
2.96568e-23
9.33868e-23
2.91415e-22
9.03096e-22
2.80079e-21
8.69536e-21
2.63731e-20
7.90281e-20
2.3963e-19
7.06158e-19
2.05306e-18
6.21327e-18
1.77118e-17
5.01788e-17
1.39072e-16
3.90267e-16
1.05204e-15
2.76876e-15
7.6585e-15
2.07384e-14
5.24261e-14
1.30365e-13
3.24248e-13
8.02658e-13
2.01065e-12
5.00083e-12
1.26741e-11
2.88449e-11
6.37684e-11
1.43856e-10
3.23937e-10
7.12013e-10
1.50592e-09
3.08232e-09
5.56426e-09
9.83675e-09
1.76536e-08
3.20487e-08
5.71938e-08
9.96101e-08
1.68131e-07
2.65579e-07
3.98604e-07
5.58967e-07
7.26332e-07
8.71007e-07
9.57707e-07
9.70456e-07
9.42182e-07
9.2676e-07
9.60314e-07
1.07633e-06
1.22503e-06
1.249e-06
1.03714e-06
6.26779e-07
3.77731e-07
2.58139e-07
1.87304e-07
1.26009e-07
7.53534e-08
4.12736e-08
2.22049e-08
1.185e-08
6.44782e-09
3.50537e-09
1.89595e-09
1.02513e-09
5.72867e-10
3.6447e-10
3.27152e-10
4.47816e-10
7.77187e-10
1.37749e-09
2.17999e-09
1.59425e-09
6.82098e-10
2.21099e-10
5.7718e-11
8.80281e-12
1.45234e-33
7.58504e-33
2.76294e-32
9.14835e-32
2.9538e-31
9.66271e-31
3.11547e-30
1.00788e-29
3.26593e-29
1.05817e-28
3.4299e-28
1.11176e-27
3.60015e-27
1.16361e-26
3.7614e-26
1.21683e-25
3.93268e-25
1.25858e-24
4.01478e-24
1.28517e-23
4.05578e-23
1.26832e-22
3.88939e-22
1.22315e-21
3.71803e-21
1.1238e-20
3.38359e-20
9.84357e-20
3.02494e-19
8.94304e-19
2.60059e-18
7.49576e-18
2.15055e-17
6.07869e-17
1.67883e-16
4.65507e-16
1.2782e-15
3.33211e-15
9.15738e-15
2.38438e-14
6.04114e-14
1.50956e-13
3.69283e-13
9.06763e-13
2.21921e-12
5.54747e-12
1.34388e-11
2.92083e-11
6.80975e-11
1.54819e-10
3.43655e-10
7.45988e-10
1.5635e-09
3.17249e-09
5.69424e-09
1.00234e-08
1.78615e-08
3.22579e-08
5.73642e-08
9.96042e-08
1.67751e-07
2.64703e-07
3.97183e-07
5.57321e-07
7.25119e-07
8.71289e-07
9.60478e-07
9.75933e-07
9.48701e-07
9.3313e-07
9.65979e-07
1.08214e-06
1.23426e-06
1.26377e-06
1.05479e-06
6.3974e-07
3.85283e-07
2.62873e-07
1.90592e-07
1.28081e-07
7.64528e-08
4.18004e-08
2.247e-08
1.19943e-08
6.52194e-09
3.54267e-09
1.91428e-09
1.03438e-09
5.78671e-10
3.70857e-10
3.37276e-10
4.66783e-10
8.12618e-10
1.43703e-09
2.23302e-09
1.58557e-09
6.70772e-10
2.16027e-10
5.62124e-11
8.56089e-12
2.09542e-33
1.09947e-32
3.9833e-32
1.33054e-31
4.34362e-31
1.40861e-30
4.55759e-30
1.47346e-29
4.76081e-29
1.53702e-28
4.95455e-28
1.59637e-27
5.14501e-27
1.65588e-26
5.30273e-26
1.69627e-25
5.4184e-25
1.72167e-24
5.4482e-24
1.71792e-23
5.38892e-23
1.67502e-22
5.16789e-22
1.58132e-21
4.80294e-21
1.4487e-20
4.32631e-20
1.27193e-19
3.69018e-19
1.07176e-18
3.1445e-18
9.15338e-18
2.59465e-17
7.24955e-17
1.97762e-16
5.41715e-16
1.474e-15
3.80455e-15
1.02778e-14
2.71115e-14
6.83245e-14
1.68303e-13
4.16699e-13
1.01075e-12
2.47933e-12
6.1258e-12
1.39358e-11
3.15268e-11
7.30367e-11
1.64823e-10
3.65003e-10
7.81937e-10
1.62037e-09
3.25657e-09
5.8072e-09
1.01618e-08
1.80074e-08
3.23773e-08
5.73713e-08
9.9348e-08
1.67026e-07
2.63428e-07
3.9529e-07
5.55321e-07
7.23533e-07
8.7106e-07
9.62772e-07
9.80704e-07
9.54362e-07
9.3868e-07
9.70643e-07
1.08644e-06
1.2418e-06
1.27687e-06
1.07156e-06
6.52834e-07
3.92526e-07
2.67294e-07
1.93686e-07
1.30096e-07
7.75833e-08
4.23709e-08
2.27635e-08
1.21521e-08
6.60462e-09
3.58546e-09
1.93611e-09
1.04569e-09
5.85408e-10
3.76997e-10
3.45827e-10
4.82031e-10
8.40793e-10
1.48491e-09
2.27726e-09
1.58421e-09
6.64917e-10
2.13194e-10
5.53511e-11
8.42136e-12
2.76113e-33
1.45471e-32
5.2902e-32
1.76992e-31
5.78745e-31
1.87688e-30
6.06323e-30
1.95574e-29
6.30393e-29
2.03796e-28
6.54815e-28
2.09886e-27
6.71835e-27
2.15679e-26
6.86812e-26
2.18177e-25
6.92363e-25
2.18577e-24
6.86176e-24
2.17466e-23
6.77149e-23
2.0746e-22
6.44976e-22
1.95443e-21
5.90922e-21
1.78593e-20
5.31911e-20
1.5695e-19
4.57686e-19
1.31317e-18
3.76638e-18
1.08082e-17
3.04047e-17
8.46053e-17
2.32227e-16
6.26984e-16
1.67972e-15
4.29681e-15
1.15298e-14
2.99762e-14
7.57776e-14
1.87854e-13
4.59871e-13
1.12172e-12
2.61999e-12
6.01027e-12
1.45424e-11
3.40657e-11
7.79709e-11
1.75379e-10
3.82712e-10
8.11149e-10
1.66614e-09
3.3222e-09
5.88641e-09
1.02532e-08
1.80861e-08
3.23909e-08
5.72098e-08
9.88392e-08
1.65891e-07
2.61375e-07
3.9248e-07
5.51847e-07
7.20606e-07
8.70148e-07
9.64815e-07
9.85321e-07
9.60351e-07
9.43996e-07
9.75066e-07
1.08965e-06
1.24768e-06
1.28849e-06
1.0876e-06
6.66133e-07
3.99759e-07
2.7155e-07
1.96691e-07
1.32124e-07
7.87815e-08
4.30005e-08
2.30915e-08
1.23256e-08
6.69637e-09
3.63369e-09
1.96122e-09
1.05886e-09
5.92929e-10
3.8281e-10
3.52781e-10
4.93563e-10
8.61616e-10
1.5201e-09
2.30966e-09
1.58739e-09
6.63061e-10
2.12018e-10
5.49689e-11
8.35799e-12
3.31369e-33
1.84339e-32
6.61405e-32
2.20321e-31
7.27299e-31
2.35789e-30
7.64099e-30
2.46709e-29
7.94594e-29
2.55334e-28
8.19834e-28
2.63575e-27
8.41251e-27
2.68234e-26
8.53685e-26
2.6849e-25
8.69308e-25
2.72806e-24
8.53894e-24
2.65536e-23
8.17604e-23
2.54918e-22
7.77884e-22
2.35873e-21
7.09403e-21
2.12059e-20
6.29148e-20
1.84665e-19
5.44577e-19
1.57741e-18
4.50289e-18
1.26518e-17
3.51361e-17
9.67383e-17
2.62036e-16
7.00092e-16
1.84641e-15
4.74349e-15
1.2873e-14
3.28931e-14
8.15534e-14
2.01272e-13
4.90133e-13
1.15542e-12
2.66711e-12
6.54551e-12
1.56039e-11
3.63243e-11
8.31166e-11
1.84791e-10
3.99796e-10
8.40286e-10
1.70966e-09
3.36341e-09
5.93702e-09
1.03151e-08
1.81119e-08
3.23239e-08
5.69419e-08
9.82079e-08
1.6468e-07
2.59369e-07
3.8927e-07
5.4817e-07
7.17288e-07
8.68428e-07
9.66022e-07
9.89097e-07
9.6515e-07
9.48739e-07
9.79766e-07
1.09193e-06
1.25205e-06
1.29904e-06
1.10462e-06
6.8145e-07
4.07985e-07
2.76137e-07
1.99795e-07
1.34235e-07
8.00664e-08
4.36901e-08
2.3452e-08
1.25132e-08
6.79537e-09
3.68627e-09
1.98895e-09
1.07349e-09
6.01068e-10
3.88358e-10
3.58485e-10
5.02251e-10
8.77014e-10
1.54647e-09
2.338e-09
1.59568e-09
6.6467e-10
2.12194e-10
5.49692e-11
8.35491e-12
4.00051e-33
2.20972e-32
7.96541e-32
2.66504e-31
8.71654e-31
2.82736e-30
9.14053e-30
2.94804e-29
9.47709e-29
3.04609e-28
9.89569e-28
3.16661e-27
1.01021e-26
3.23125e-26
1.02929e-25
3.25279e-25
1.03699e-24
3.24277e-24
1.00932e-23
3.13937e-23
9.59137e-23
2.98554e-22
9.07525e-22
2.73994e-21
8.14223e-21
2.45187e-20
7.20297e-20
2.11133e-19
6.19931e-19
1.79322e-18
5.10684e-18
1.43216e-17
3.9518e-17
1.08981e-16
2.92595e-16
7.77767e-16
2.04216e-15
5.24005e-15
1.40551e-14
3.54629e-14
8.73874e-14
2.12381e-13
5.06126e-13
1.18462e-12
2.89259e-12
7.01865e-12
1.66832e-11
3.88632e-11
8.82192e-11
1.95307e-10
4.21392e-10
8.84256e-10
1.80883e-09
3.36371e-09
5.96681e-09
1.03458e-08
1.80871e-08
3.21714e-08
5.65232e-08
9.71963e-08
1.6278e-07
2.56493e-07
3.85962e-07
5.44284e-07
7.13716e-07
8.66441e-07
9.66939e-07
9.92942e-07
9.69713e-07
9.52392e-07
9.8198e-07
1.09243e-06
1.25466e-06
1.30797e-06
1.11956e-06
6.953e-07
4.15362e-07
2.80146e-07
2.02621e-07
1.36257e-07
8.13546e-08
4.44006e-08
2.38272e-08
1.2708e-08
6.90026e-09
3.7419e-09
2.01835e-09
1.08904e-09
6.09583e-10
3.93629e-10
3.63132e-10
5.08566e-10
8.87891e-10
1.56537e-09
2.3623e-09
1.60749e-09
6.68763e-10
2.13346e-10
5.52464e-11
8.39552e-12
4.80114e-33
2.54593e-32
9.23039e-32
3.08647e-31
1.00828e-30
3.26824e-30
1.05701e-29
3.41705e-29
1.10124e-28
3.56805e-28
1.14898e-27
3.6839e-27
1.17623e-26
3.76373e-26
1.20201e-25
3.80123e-25
1.1966e-24
3.75288e-24
1.16935e-23
3.62189e-23
1.11393e-22
3.39886e-22
1.03686e-21
3.1208e-21
9.32244e-21
2.75938e-20
8.11593e-20
2.34438e-19
6.90249e-19
1.97472e-18
5.48773e-18
1.57996e-17
4.37854e-17
1.18459e-16
3.26428e-16
8.57237e-16
2.21584e-15
5.67018e-15
1.48328e-14
3.81517e-14
9.31198e-14
2.24692e-13
5.33347e-13
1.26534e-12
3.08253e-12
7.44625e-12
1.76436e-11
4.09345e-11
9.25183e-11
2.03879e-10
4.37958e-10
9.15009e-10
1.85757e-09
3.35058e-09
5.99005e-09
1.03571e-08
1.80259e-08
3.19792e-08
5.60525e-08
9.6374e-08
1.61234e-07
2.54041e-07
3.82162e-07
5.40063e-07
7.09826e-07
8.64069e-07
9.67376e-07
9.96302e-07
9.74305e-07
9.55962e-07
9.83585e-07
1.09182e-06
1.25566e-06
1.31499e-06
1.13317e-06
7.09363e-07
4.22629e-07
2.84089e-07
2.05369e-07
1.3826e-07
8.26499e-08
4.5123e-08
2.42098e-08
1.29062e-08
7.00742e-09
3.80021e-09
2.0498e-09
1.10582e-09
6.18535e-10
3.98728e-10
3.67017e-10
5.13203e-10
8.95535e-10
1.5788e-09
2.38372e-09
1.62175e-09
6.74564e-10
2.15166e-10
5.57137e-11
8.46625e-12
5.27605e-33
2.85803e-32
1.04021e-31
3.47474e-31
1.13546e-30
3.68467e-30
1.19327e-29
3.85969e-29
1.25038e-28
4.04172e-28
1.3018e-27
4.17536e-27
1.33253e-26
4.27473e-26
1.35306e-25
4.25417e-25
1.3115e-24
4.25274e-24
1.31642e-23
4.07986e-23
1.25402e-22
3.82819e-22
1.16041e-21
3.4454e-21
1.04479e-20
3.06328e-20
8.91077e-20
2.57517e-19
7.44422e-19
2.18583e-18
6.11562e-18
1.73207e-17
4.76682e-17
1.30829e-16
3.49502e-16
9.1611e-16
2.35506e-15
6.00223e-15
1.56581e-14
4.04519e-14
9.90393e-14
2.39644e-13
5.63044e-13
1.36005e-12
3.24171e-12
7.81267e-12
1.84626e-11
4.24967e-11
9.5392e-11
2.0885e-10
4.45737e-10
9.25387e-10
1.86545e-09
3.33716e-09
6.0232e-09
1.0364e-08
1.79497e-08
3.17385e-08
5.55441e-08
9.53876e-08
1.59723e-07
2.51628e-07
3.78699e-07
5.35877e-07
7.05785e-07
8.61385e-07
9.6738e-07
9.99047e-07
9.78145e-07
9.59059e-07
9.85021e-07
1.09096e-06
1.25601e-06
1.32127e-06
1.14678e-06
7.23967e-07
4.30265e-07
2.88012e-07
2.08041e-07
1.40237e-07
8.3989e-08
4.58878e-08
2.46167e-08
1.31125e-08
7.11805e-09
3.85976e-09
2.08174e-09
1.12285e-09
6.27693e-10
4.03724e-10
3.70352e-10
5.16491e-10
9.00634e-10
1.58808e-09
2.40263e-09
1.63783e-09
6.81719e-10
2.17528e-10
5.63352e-11
8.56114e-12
5.6384e-33
3.21158e-32
1.16091e-31
3.87765e-31
1.2691e-30
4.13026e-30
1.34124e-29
4.33718e-29
1.399e-28
4.50293e-28
1.445e-27
4.61571e-27
1.49079e-26
4.68412e-26
1.4873e-25
4.72413e-25
1.49857e-24
4.67399e-24
1.45126e-23
4.46692e-23
1.36198e-22
4.08333e-22
1.27212e-21
3.795e-21
1.12789e-20
3.3152e-20
9.78333e-20
2.82732e-19
8.15424e-19
2.32508e-18
6.5018e-18
1.85947e-17
5.03865e-17
1.38698e-16
3.68272e-16
9.66266e-16
2.49073e-15
6.2306e-15
1.651e-14
4.27178e-14
1.0325e-13
2.48043e-13
5.9134e-13
1.43148e-12
3.37978e-12
8.12704e-12
1.90593e-11
4.3615e-11
9.73899e-11
2.12137e-10
4.50435e-10
9.30914e-10
1.86634e-09
3.32255e-09
6.04256e-09
1.03609e-08
1.78722e-08
3.15331e-08
5.51073e-08
9.44649e-08
1.57996e-07
2.49022e-07
3.75419e-07
5.31878e-07
7.01895e-07
8.58657e-07
9.67e-07
1.00105e-06
9.81286e-07
9.61542e-07
9.85949e-07
1.08974e-06
1.2557e-06
1.32638e-06
1.15867e-06
7.37934e-07
4.37483e-07
2.91708e-07
2.10625e-07
1.42194e-07
8.53024e-08
4.66363e-08
2.50137e-08
1.33157e-08
7.22667e-09
3.91809e-09
2.11297e-09
1.13943e-09
6.36477e-10
4.08329e-10
3.73161e-10
5.18972e-10
9.04323e-10
1.59522e-09
2.42169e-09
1.65509e-09
6.89548e-10
2.20138e-10
5.70257e-11
8.66696e-12
6.62086e-33
3.48585e-32
1.26511e-31
4.23602e-31
1.3854e-30
4.5024e-30
1.46733e-29
4.7308e-29
1.51694e-28
4.82928e-28
1.56888e-27
5.09505e-27
1.61655e-26
5.0786e-26
1.64377e-25
5.14523e-25
1.60398e-24
5.06855e-24
1.56559e-23
4.76717e-23
1.49352e-22
4.52713e-22
1.36805e-21
4.07439e-21
1.22007e-20
3.56848e-20
1.04308e-19
3.00362e-19
8.6052e-19
2.48234e-18
7.01269e-18
1.95922e-17
5.30833e-17
1.45477e-16
3.8139e-16
9.89357e-16
2.61131e-15
6.50628e-15
1.71082e-14
4.35539e-14
1.09228e-13
2.61465e-13
6.2447e-13
1.46333e-12
3.49119e-12
8.35252e-12
1.95073e-11
4.44638e-11
9.89075e-11
2.14647e-10
4.54022e-10
9.34033e-10
1.86526e-09
3.30962e-09
6.04868e-09
1.03423e-08
1.77718e-08
3.13015e-08
5.46122e-08
9.36089e-08
1.56482e-07
2.46655e-07
3.72123e-07
5.28166e-07
6.98277e-07
8.56138e-07
9.66765e-07
1.00332e-06
9.84718e-07
9.63996e-07
9.86735e-07
1.08837e-06
1.25499e-06
1.33068e-06
1.16924e-06
7.50844e-07
4.4414e-07
2.95113e-07
2.12941e-07
1.43947e-07
8.64943e-08
4.73201e-08
2.53765e-08
1.34999e-08
7.32551e-09
3.97132e-09
2.14153e-09
1.15461e-09
6.44466e-10
4.1237e-10
3.75342e-10
5.20414e-10
9.06015e-10
1.59848e-09
2.43395e-09
1.66999e-09
6.96713e-10
2.22591e-10
5.76825e-11
8.76813e-12
7.11295e-33
3.74839e-32
1.36114e-31
4.56092e-31
1.49622e-30
4.86172e-30
1.57497e-29
5.09038e-29
1.64003e-28
5.26036e-28
1.68635e-27
5.41689e-27
1.72885e-26
5.50609e-26
1.74913e-25
5.51603e-25
1.72157e-24
5.40737e-24
1.66881e-23
5.13364e-23
1.58116e-22
4.80809e-22
1.45359e-21
4.35365e-21
1.28775e-20
3.76628e-20
1.10129e-19
3.15916e-19
8.9579e-19
2.58816e-18
7.2384e-18
2.02593e-17
5.57592e-17
1.50326e-16
3.99313e-16
1.04935e-15
2.71026e-15
7.01121e-15
1.79385e-14
4.62308e-14
1.12378e-13
2.65882e-13
6.36792e-13
1.49339e-12
3.5777e-12
8.52715e-12
1.98471e-11
4.50899e-11
9.99795e-11
2.16282e-10
4.56186e-10
9.35803e-10
1.86351e-09
3.29852e-09
6.04955e-09
1.03209e-08
1.76801e-08
3.10738e-08
5.41677e-08
9.27801e-08
1.55136e-07
2.44656e-07
3.69427e-07
5.25091e-07
6.95175e-07
8.53881e-07
9.66379e-07
1.005e-06
9.8743e-07
9.66031e-07
9.87314e-07
1.087e-06
1.25409e-06
1.33393e-06
1.17796e-06
7.61877e-07
4.49815e-07
2.97967e-07
2.14878e-07
1.45426e-07
8.75094e-08
4.79048e-08
2.56881e-08
1.36582e-08
7.41052e-09
4.01716e-09
2.16617e-09
1.16772e-09
6.51365e-10
4.15826e-10
3.7715e-10
5.21475e-10
9.07138e-10
1.60083e-09
2.44479e-09
1.68342e-09
7.03208e-10
2.24819e-10
5.82802e-11
8.86021e-12
6.99258e-33
3.95275e-32
1.43111e-31
4.79192e-31
1.56884e-30
5.10372e-30
1.65698e-29
5.36554e-29
1.72829e-28
5.54103e-28
1.78475e-27
5.69989e-27
1.81698e-26
5.78148e-26
1.83369e-25
5.79224e-25
1.83055e-24
5.70532e-24
1.76459e-23
5.42556e-23
1.66795e-22
5.03954e-22
1.52881e-21
4.55829e-21
1.34876e-20
3.95299e-20
1.14653e-19
3.28344e-19
9.37491e-19
2.69049e-18
7.54167e-18
2.12459e-17
5.79178e-17
1.5581e-16
4.13521e-16
1.08987e-15
2.82748e-15
7.22123e-15
1.83479e-14
4.66474e-14
1.14013e-13
2.72733e-13
6.3732e-13
1.51172e-12
3.64708e-12
8.66181e-12
2.01053e-11
4.55652e-11
1.00795e-10
2.17531e-10
4.57792e-10
9.37023e-10
1.8621e-09
3.2903e-09
6.04739e-09
1.03005e-08
1.76016e-08
3.09063e-08
5.38437e-08
9.21919e-08
1.54146e-07
2.43044e-07
3.67141e-07
5.22283e-07
6.92433e-07
8.51853e-07
9.65856e-07
1.00616e-06
9.89393e-07
9.67529e-07
9.87571e-07
1.08588e-06
1.25323e-06
1.33627e-06
1.18464e-06
7.70585e-07
4.54293e-07
3.00204e-07
2.16391e-07
1.46592e-07
8.83163e-08
4.83715e-08
2.59359e-08
1.37839e-08
7.47802e-09
4.0536e-09
2.18578e-09
1.17817e-09
6.56862e-10
4.18561e-10
3.7855e-10
5.22274e-10
9.08031e-10
1.60301e-09
2.45534e-09
1.69497e-09
7.0871e-10
2.26699e-10
5.87833e-11
8.93769e-12
7.64049e-33
4.04039e-32
1.46661e-31
4.96231e-31
1.62235e-30
5.27076e-30
1.70822e-29
5.53067e-29
1.7871e-28
5.7499e-28
1.84437e-27
5.9015e-27
1.88556e-26
6.02097e-26
1.91798e-25
6.05722e-25
1.90162e-24
5.93383e-24
1.83916e-23
5.65874e-23
1.72785e-22
5.23125e-22
1.57094e-21
4.66107e-21
1.39357e-20
4.08256e-20
1.1893e-19
3.41625e-19
9.86545e-19
2.77822e-18
7.75026e-18
2.13796e-17
5.91664e-17
1.58825e-16
4.26245e-16
1.12406e-15
2.8924e-15
7.26932e-15
1.85771e-14
4.69679e-14
1.14466e-13
2.72645e-13
6.43582e-13
1.52861e-12
3.69664e-12
8.75883e-12
2.02907e-11
4.59069e-11
1.01387e-10
2.18477e-10
4.58983e-10
9.38046e-10
1.86141e-09
3.28498e-09
6.04565e-09
1.02864e-08
1.75489e-08
3.07875e-08
5.36094e-08
9.17651e-08
1.53429e-07
2.41933e-07
3.65589e-07
5.20416e-07
6.9056e-07
8.50396e-07
9.65377e-07
1.00681e-06
9.90631e-07
9.68511e-07
9.87913e-07
1.08502e-06
1.25251e-06
1.33779e-06
1.18923e-06
7.76702e-07
4.57439e-07
3.01768e-07
2.17446e-07
1.47409e-07
8.88861e-08
4.87044e-08
2.61127e-08
1.38734e-08
7.52606e-09
4.07951e-09
2.19971e-09
1.18558e-09
6.60748e-10
4.20464e-10
3.79462e-10
5.22671e-10
9.0831e-10
1.6038e-09
2.46129e-09
1.70287e-09
7.12585e-10
2.28038e-10
5.91434e-11
8.99331e-12
7.75991e-33
4.16908e-32
1.50813e-31
5.04805e-31
1.65508e-30
5.39825e-30
1.75149e-29
5.67134e-29
1.83356e-28
5.91364e-28
1.90037e-27
6.08635e-27
1.94285e-26
6.1848e-26
1.96546e-25
6.20037e-25
1.94438e-24
6.06202e-24
1.87098e-23
5.73256e-23
1.75027e-22
5.29791e-22
1.60605e-21
4.76596e-21
1.42098e-20
4.14995e-20
1.20866e-19
3.50715e-19
1.00153e-18
2.83248e-18
7.91973e-18
2.22343e-17
6.01757e-17
1.61432e-16
4.32797e-16
1.12561e-15
2.92403e-15
7.37139e-15
1.92977e-14
4.83168e-14
1.15944e-13
2.76797e-13
6.43731e-13
1.55332e-12
3.72323e-12
8.81817e-12
2.04138e-11
4.61373e-11
1.01785e-10
2.19098e-10
4.59805e-10
9.38838e-10
1.86138e-09
3.28254e-09
6.046e-09
1.02807e-08
1.75241e-08
3.073e-08
5.34921e-08
9.15447e-08
1.53046e-07
2.41352e-07
3.64786e-07
5.1944e-07
6.8955e-07
8.4959e-07
9.65068e-07
1.00708e-06
9.91205e-07
9.68926e-07
9.87829e-07
1.08449e-06
1.25205e-06
1.33853e-06
1.1916e-06
7.79931e-07
4.59098e-07
3.0259e-07
2.18e-07
1.47842e-07
8.919e-08
4.88826e-08
2.62078e-08
1.39217e-08
7.55202e-09
4.09353e-09
2.20726e-09
1.1896e-09
6.62851e-10
4.21488e-10
3.79938e-10
5.22843e-10
9.08356e-10
1.60402e-09
2.46401e-09
1.70692e-09
7.14602e-10
2.2874e-10
5.93328e-11
9.02256e-12
7.67046e-33
4.16105e-32
1.53531e-31
5.12136e-31
1.67663e-30
5.44904e-30
1.76568e-29
5.71605e-29
1.85017e-28
5.99749e-28
1.92752e-27
6.17e-27
1.96151e-26
6.15548e-26
2.00438e-25
6.29366e-25
1.97057e-24
6.13567e-24
1.89945e-23
5.82656e-23
1.79099e-22
5.42754e-22
1.63293e-21
4.86097e-21
1.42798e-20
4.23129e-20
1.22727e-19
3.54835e-19
1.02351e-18
2.90916e-18
8.11394e-18
2.22606e-17
6.13924e-17
1.6661e-16
4.40287e-16
1.14413e-15
2.96953e-15
7.41056e-15
1.94476e-14
4.80378e-14
1.17728e-13
2.79201e-13
6.56697e-13
1.55562e-12
3.73899e-12
8.855e-12
2.04884e-11
4.62801e-11
1.02043e-10
2.19535e-10
4.60484e-10
9.39726e-10
1.86224e-09
3.28276e-09
6.04966e-09
1.02834e-08
1.75224e-08
3.07207e-08
5.34695e-08
9.1499e-08
1.52964e-07
2.41221e-07
3.64602e-07
5.19213e-07
6.89305e-07
8.49374e-07
9.64943e-07
1.00707e-06
9.91255e-07
9.68963e-07
9.87802e-07
1.08437e-06
1.25195e-06
1.33861e-06
1.19195e-06
7.80421e-07
4.59347e-07
3.0271e-07
2.18081e-07
1.47906e-07
8.9235e-08
4.89089e-08
2.62218e-08
1.39287e-08
7.5558e-09
4.09557e-09
2.20835e-09
1.19018e-09
6.63161e-10
4.21652e-10
3.80044e-10
5.22945e-10
9.08524e-10
1.60438e-09
2.46496e-09
1.7077e-09
7.14945e-10
2.28851e-10
5.93617e-11
9.02699e-12
7.65856e-33
4.23902e-32
1.53887e-31
5.15336e-31
1.6897e-30
5.50226e-30
1.78617e-29
5.78493e-29
1.86912e-28
6.02274e-28
1.93509e-27
6.1985e-27
1.97661e-26
6.26039e-26
2.01101e-25
6.32463e-25
1.97645e-24
6.10344e-24
1.91795e-23
5.88116e-23
1.8042e-22
5.47569e-22
1.65039e-21
4.93484e-21
1.45842e-20
4.26107e-20
1.22185e-19
3.61365e-19
1.02942e-18
2.91809e-18
8.1901e-18
2.26332e-17
6.2193e-17
1.66795e-16
4.44402e-16
1.15252e-15
2.9886e-15
7.49792e-15
1.95558e-14
4.8323e-14
1.18342e-13
2.76947e-13
6.64365e-13
1.56032e-12
3.7394e-12
8.87112e-12
2.05225e-11
4.63518e-11
1.02194e-10
2.19848e-10
4.61115e-10
9.40958e-10
1.86457e-09
3.28673e-09
6.05854e-09
1.02985e-08
1.75537e-08
3.07786e-08
5.35726e-08
9.16769e-08
1.53254e-07
2.41655e-07
3.65188e-07
5.19898e-07
6.89975e-07
8.49858e-07
9.65033e-07
1.00672e-06
9.90701e-07
9.68551e-07
9.87811e-07
1.08469e-06
1.25221e-06
1.338e-06
1.19015e-06
7.78026e-07
4.58114e-07
3.021e-07
2.17672e-07
1.47589e-07
8.90129e-08
4.87789e-08
2.61524e-08
1.38936e-08
7.53691e-09
4.08535e-09
2.20284e-09
1.18724e-09
6.61612e-10
4.20891e-10
3.79677e-10
5.22791e-10
9.08436e-10
1.60407e-09
2.46238e-09
1.70434e-09
7.1329e-10
2.28278e-10
5.92071e-11
9.0031e-12
7.7463e-33
4.20489e-32
1.51929e-31
5.09583e-31
1.67364e-30
5.45928e-30
1.7741e-29
5.7463e-29
1.85486e-28
5.96524e-28
1.9108e-27
6.09843e-27
1.94208e-26
6.18209e-26
1.96493e-25
6.1913e-25
1.92951e-24
6.03032e-24
1.88346e-23
5.78642e-23
1.76055e-22
5.41032e-22
1.62503e-21
4.89713e-21
1.44328e-20
4.20738e-20
1.21792e-19
3.55644e-19
1.01362e-18
2.87245e-18
8.02981e-18
2.21428e-17
6.19729e-17
1.65151e-16
4.28446e-16
1.12717e-15
2.93402e-15
7.27681e-15
1.88487e-14
4.86768e-14
1.1533e-13
2.79297e-13
6.47871e-13
1.56442e-12
3.73858e-12
8.86064e-12
2.05062e-11
4.63375e-11
1.02212e-10
2.1999e-10
4.61621e-10
9.42375e-10
1.86807e-09
3.29411e-09
6.0726e-09
1.0326e-08
1.76177e-08
3.0902e-08
5.3796e-08
9.20649e-08
1.53895e-07
2.42623e-07
3.665e-07
5.21445e-07
6.91502e-07
8.50983e-07
9.65299e-07
1.00603e-06
9.89555e-07
9.67659e-07
9.8758e-07
1.0854e-06
1.2528e-06
1.33672e-06
1.18628e-06
7.72862e-07
4.5546e-07
3.00784e-07
2.16787e-07
1.46903e-07
8.8533e-08
4.84983e-08
2.60028e-08
1.38179e-08
7.49621e-09
4.06336e-09
2.19099e-09
1.18092e-09
6.583e-10
4.19279e-10
3.78919e-10
5.22481e-10
9.08204e-10
1.60321e-09
2.45595e-09
1.69702e-09
7.09757e-10
2.27061e-10
5.88798e-11
8.95259e-12
7.84529e-33
4.12344e-32
1.49444e-31
4.94315e-31
1.65186e-30
5.35155e-30
1.73524e-29
5.61495e-29
1.81196e-28
5.83216e-28
1.87221e-27
5.99166e-27
1.91104e-26
6.07679e-26
1.92305e-25
6.04037e-25
1.91284e-24
5.94998e-24
1.84251e-23
5.67358e-23
1.73985e-22
5.31784e-22
1.60334e-21
4.78668e-21
1.41541e-20
4.14586e-20
1.20335e-19
3.47006e-19
1.00265e-18
2.83921e-18
7.95669e-18
2.19354e-17
6.0488e-17
1.6247e-16
4.32421e-16
1.13449e-15
2.9147e-15
7.27754e-15
1.89187e-14
4.82311e-14
1.16097e-13
2.74033e-13
6.44244e-13
1.56298e-12
3.72128e-12
8.82374e-12
2.04446e-11
4.62478e-11
1.0212e-10
2.2001e-10
4.62112e-10
9.44217e-10
1.87324e-09
3.30569e-09
6.09315e-09
1.03682e-08
1.7719e-08
3.11001e-08
5.41586e-08
9.26976e-08
1.54932e-07
2.44182e-07
3.68605e-07
5.23896e-07
6.93895e-07
8.5272e-07
9.65674e-07
1.00491e-06
9.87729e-07
9.66265e-07
9.87211e-07
1.08641e-06
1.25367e-06
1.33471e-06
1.18035e-06
7.65065e-07
4.5146e-07
2.988e-07
2.15449e-07
1.45867e-07
8.78102e-08
4.80755e-08
2.57779e-08
1.37041e-08
7.43504e-09
4.03032e-09
2.1732e-09
1.17145e-09
6.53337e-10
4.16875e-10
3.77823e-10
5.22123e-10
9.08162e-10
1.60275e-09
2.44883e-09
1.68687e-09
7.04708e-10
2.25303e-10
5.84054e-11
8.87925e-12
7.34774e-33
3.99033e-32
1.44733e-31
4.86213e-31
1.58877e-30
5.15407e-30
1.67234e-29
5.43415e-29
1.7529e-28
5.63699e-28
1.80736e-27
5.77972e-27
1.84573e-26
5.90338e-26
1.86505e-25
5.85952e-25
1.83205e-24
5.69651e-24
1.7642e-23
5.45605e-23
1.67801e-22
5.03627e-22
1.54542e-21
4.57314e-21
1.37684e-20
4.02878e-20
1.16966e-19
3.3651e-19
9.72652e-19
2.77603e-18
7.64843e-18
2.17483e-17
5.90183e-17
1.58877e-16
4.23676e-16
1.10663e-15
2.86616e-15
7.22171e-15
1.8344e-14
4.63963e-14
1.14806e-13
2.71846e-13
6.33869e-13
1.54293e-12
3.69404e-12
8.76529e-12
2.03341e-11
4.60627e-11
1.01868e-10
2.19818e-10
4.62435e-10
9.46279e-10
1.87994e-09
3.32154e-09
6.11958e-09
1.04223e-08
1.78509e-08
3.1361e-08
5.46394e-08
9.35413e-08
1.56324e-07
2.46297e-07
3.71502e-07
5.27173e-07
6.97007e-07
8.54894e-07
9.65994e-07
1.00325e-06
9.85186e-07
9.6431e-07
9.86657e-07
1.08771e-06
1.25468e-06
1.33198e-06
1.17258e-06
7.55011e-07
4.46302e-07
2.96232e-07
2.1371e-07
1.44525e-07
8.6874e-08
4.75334e-08
2.54897e-08
1.35581e-08
7.35662e-09
3.98799e-09
2.15041e-09
1.15931e-09
6.46975e-10
4.13784e-10
3.76388e-10
5.21605e-10
9.07969e-10
1.60194e-09
2.43937e-09
1.67387e-09
6.98289e-10
2.23076e-10
5.78048e-11
8.78649e-12
7.20879e-33
3.80097e-32
1.38447e-31
4.63487e-31
1.5123e-30
4.89935e-30
1.59646e-29
5.14319e-29
1.65481e-28
5.36748e-28
1.71644e-27
5.47779e-27
1.7452e-26
5.56221e-26
1.77905e-25
5.59719e-25
1.75053e-24
5.45152e-24
1.69636e-23
5.15857e-23
1.60735e-22
4.86059e-22
1.46799e-21
4.39994e-21
1.30906e-20
3.84357e-20
1.12463e-19
3.242e-19
9.38967e-19
2.6489e-18
7.39681e-18
2.07654e-17
5.68967e-17
1.5352e-16
4.00187e-16
1.06584e-15
2.7547e-15
6.9814e-15
1.79762e-14
4.62313e-14
1.10904e-13
2.72249e-13
6.36014e-13
1.51872e-12
3.6385e-12
8.66771e-12
2.01614e-11
4.57676e-11
1.01433e-10
2.19336e-10
4.62424e-10
9.48275e-10
1.88781e-09
3.34065e-09
6.14644e-09
1.0486e-08
1.80082e-08
3.16717e-08
5.52107e-08
9.45364e-08
1.57943e-07
2.48691e-07
3.74641e-07
5.30806e-07
7.00501e-07
8.57236e-07
9.66046e-07
1.00085e-06