/*--------------------------------*- C++ -*----------------------------------*\
  =========                 |
  \\      /  F ield         | OpenFOAM: The Open Source CFD Toolbox
   \\    /   O peration     | Website:  https://openfoam.org
    \\  /    A nd           | Version:  10
     \\/     M anipulation  |
\*---------------------------------------------------------------------------*/
FoamFile
{
    format      ascii;
    class       volScalarField;
    location    "1";
    object      CH3O;
}
// * * * * * * * * * * * * * * * * * * * * * * * * * * * * * * * * * * * * * //

dimensions      [0 0 0 0 0 0 0];

internalField   nonuniform List<scalar> 
4000
(
8.99024e-39
5.74987e-38
2.59595e-37
1.02325e-36
3.76755e-36
1.29858e-35
4.25397e-35
1.34343e-34
4.13537e-34
1.25706e-33
3.83401e-33
1.09997e-32
3.12844e-32
8.95827e-32
2.59464e-31
7.59076e-31
2.23788e-30
6.89269e-30
2.09858e-29
6.47581e-29
2.01197e-28
6.21148e-28
2.06483e-27
6.59368e-27
2.14124e-26
6.94506e-26
2.22938e-25
7.41418e-25
2.40131e-24
7.79413e-24
2.53457e-23
8.2453e-23
2.65892e-22
8.5344e-22
2.73194e-21
8.45132e-21
2.66688e-20
8.5917e-20
2.70157e-19
8.42282e-19
2.53671e-18
7.52724e-18
2.19005e-17
6.23464e-17
1.736e-16
5.1357e-16
1.54792e-15
4.59953e-15
1.33579e-14
3.77283e-14
1.03227e-13
2.78242e-13
6.67721e-13
1.71498e-12
4.31344e-12
1.04798e-11
2.40084e-11
5.51739e-11
1.2342e-10
2.65991e-10
5.51105e-10
1.0613e-09
1.91973e-09
2.82263e-09
2.87361e-09
2.27546e-09
1.75713e-09
1.5772e-09
1.72114e-09
2.20018e-09
3.12201e-09
4.657e-09
6.35685e-09
6.92332e-09
5.64102e-09
3.62794e-09
3.12806e-09
3.82066e-09
5.26221e-09
6.99143e-09
8.71092e-09
9.97131e-09
1.01609e-08
9.66131e-09
7.44679e-09
4.02938e-09
2.16374e-09
1.14464e-09
5.92621e-10
2.9816e-10
1.45375e-10
6.71546e-11
3.21159e-11
1.8946e-11
1.77553e-11
2.07349e-11
2.18703e-11
1.83322e-11
1.09338e-11
2.76438e-12
7.38389e-39
4.41681e-38
1.69413e-37
6.02559e-37
2.06661e-36
6.88746e-36
2.23906e-35
7.12122e-35
2.15525e-34
6.38159e-34
1.8732e-33
5.51195e-33
1.63801e-32
4.94386e-32
1.51953e-31
4.76685e-31
1.51768e-30
4.91595e-30
1.61367e-29
5.336e-29
1.77947e-28
5.98682e-28
2.01395e-27
6.78279e-27
2.28887e-26
7.67982e-26
2.57364e-25
8.60381e-25
2.85373e-24
9.3841e-24
3.07897e-23
1.06086e-22
3.46e-22
1.10992e-21
3.54695e-21
1.11847e-20
3.59512e-20
1.12008e-19
3.49824e-19
1.06867e-18
3.23739e-18
9.51308e-18
2.77842e-17
7.90192e-17
2.30008e-16
6.86912e-16
2.0427e-15
5.96242e-15
1.71142e-14
4.84044e-14
1.21717e-13
2.90026e-13
7.50925e-13
1.8854e-12
4.66261e-12
1.12396e-11
2.49914e-11
5.63416e-11
1.24265e-10
2.65327e-10
5.47478e-10
1.05317e-09
1.90589e-09
2.81649e-09
2.90134e-09
2.31813e-09
1.78911e-09
1.59044e-09
1.72151e-09
2.18935e-09
3.10213e-09
4.6395e-09
6.39716e-09
7.05256e-09
5.79956e-09
3.7256e-09
3.18467e-09
3.87088e-09
5.32498e-09
7.06387e-09
8.76712e-09
9.96546e-09
1.00523e-08
9.43278e-09
6.98475e-09
3.78007e-09
2.02963e-09
1.07354e-09
5.53807e-10
2.77885e-10
1.3509e-10
6.23481e-11
3.00818e-11
1.8475e-11
1.80886e-11
2.12423e-11
2.21177e-11
1.82357e-11
1.0727e-11
2.67517e-12
3.50902e-39
1.87603e-38
6.55672e-38
2.0639e-37
6.26014e-37
1.86215e-36
5.46877e-36
1.61289e-35
4.91915e-35
1.58676e-34
5.29751e-34
1.82003e-33
6.38586e-33
2.26558e-32
8.0909e-32
2.89949e-31
1.0389e-30
3.66252e-30
1.35828e-29
4.83416e-29
1.72442e-28
6.11371e-28
2.15197e-27
7.50826e-27
2.59691e-26
8.92162e-26
3.05424e-25
1.04807e-24
3.51373e-24
1.17164e-23
4.00037e-23
1.31598e-22
4.23893e-22
1.38196e-21
4.48361e-21
1.42235e-20
4.44514e-20
1.38249e-19
4.27144e-19
1.28828e-18
3.84918e-18
1.08602e-17
3.31791e-17
9.29241e-17
2.80319e-16
8.18928e-16
2.43944e-15
7.06317e-15
1.97099e-14
5.46426e-14
1.35923e-13
3.27203e-13
8.39574e-13
2.11246e-12
5.04663e-12
1.16003e-11
2.54753e-11
5.70158e-11
1.24956e-10
2.65328e-10
5.45646e-10
1.04915e-09
1.89941e-09
2.81679e-09
2.93001e-09
2.36023e-09
1.8236e-09
1.61219e-09
1.72879e-09
2.18341e-09
3.09366e-09
4.63547e-09
6.45441e-09
7.21032e-09
5.99667e-09
3.85199e-09
3.26311e-09
3.9449e-09
5.4179e-09
7.1689e-09
8.85334e-09
9.95697e-09
9.89854e-09
9.09512e-09
6.27733e-09
3.40321e-09
1.82838e-09
9.65152e-10
4.98158e-10
2.48903e-10
1.20595e-10
5.5717e-11
2.74149e-11
1.78715e-11
1.84734e-11
2.17927e-11
2.23655e-11
1.81204e-11
1.04913e-11
2.57858e-12
1.51785e-39
7.94574e-39
2.81797e-38
9.1453e-38
2.9163e-37
9.40727e-37
3.11965e-36
1.09794e-35
3.89832e-35
1.40436e-34
5.1885e-34
1.91316e-33
7.15911e-33
2.63868e-32
9.70987e-32
3.55898e-31
1.29857e-30
4.71303e-30
1.69961e-29
6.09288e-29
2.1697e-28
7.69875e-28
2.7087e-27
9.46395e-27
3.3236e-26
1.14394e-25
3.91291e-25
1.3243e-24
4.34162e-24
1.51366e-23
4.99057e-23
1.64165e-22
5.33152e-22
1.72848e-21
5.566e-21
1.75692e-20
5.45006e-20
1.69508e-19
5.1047e-19
1.56919e-18
4.65444e-18
1.34587e-17
3.9694e-17
1.11215e-16
3.20153e-16
9.59516e-16
2.82386e-15
8.04482e-15
2.2782e-14
5.72019e-14
1.41526e-13
3.74919e-13
9.58814e-13
2.34322e-12
5.50004e-12
1.17332e-11
2.5814e-11
5.74792e-11
1.25165e-10
2.64623e-10
5.4315e-10
1.04422e-09
1.8921e-09
2.81697e-09
2.95514e-09
2.39948e-09
1.85924e-09
1.63419e-09
1.74131e-09
2.19065e-09
3.09839e-09
4.64691e-09
6.52308e-09
7.36524e-09
6.2018e-09
3.9658e-09
3.349e-09
4.03903e-09
5.53706e-09
7.29966e-09
8.95326e-09
9.95704e-09
9.76305e-09
8.76516e-09
5.57369e-09
3.03389e-09
1.63472e-09
8.65622e-10
4.48012e-10
2.21255e-10
1.07171e-10
4.98542e-11
2.50884e-11
1.74365e-11
1.89351e-11
2.23391e-11
2.2606e-11
1.79872e-11
1.02692e-11
2.48984e-12
1.46298e-39
7.82554e-39
2.91549e-38
1.01303e-37
3.48481e-37
1.20788e-36
4.23543e-36
1.49961e-35
5.33804e-35
1.95637e-34
7.10105e-34
2.59933e-33
9.61443e-33
3.51191e-32
1.29999e-31
4.726e-31
1.71219e-30
6.2801e-30
2.26369e-29
8.10672e-29
2.88708e-28
1.01695e-27
3.55902e-27
1.23729e-26
4.27583e-26
1.4654e-25
4.98915e-25
1.70645e-24
5.71485e-24
1.89712e-23
6.25744e-23
2.0972e-22
6.75744e-22
2.17638e-21
6.89934e-21
2.15907e-20
6.64053e-20
2.00112e-19
6.17816e-19
1.85364e-18
5.43347e-18
1.57174e-17
4.45746e-17
1.28626e-16
3.66673e-16
1.08841e-15
3.14764e-15
9.00596e-15
2.33697e-14
5.81773e-14
1.56522e-13
4.10825e-13
1.05608e-12
2.61493e-12
5.6095e-12
1.19534e-11
2.62076e-11
5.79714e-11
1.25579e-10
2.64576e-10
5.42108e-10
1.04238e-09
1.89004e-09
2.82116e-09
2.97986e-09
2.4397e-09
1.89238e-09
1.65496e-09
1.75415e-09
2.20137e-09
3.11019e-09
4.6697e-09
6.59992e-09
7.52929e-09
6.39659e-09
4.09074e-09
3.43254e-09
4.12578e-09
5.64454e-09
7.41735e-09
9.0538e-09
9.97646e-09
9.67644e-09
8.55801e-09
5.12186e-09
2.78713e-09
1.5008e-09
7.93898e-10
4.10198e-10
2.02282e-10
9.78305e-11
4.56961e-11
2.34858e-11
1.72502e-11
1.94178e-11
2.28596e-11
2.28579e-11
1.79423e-11
1.02219e-11
2.44298e-12
2.29283e-39
1.27209e-38
4.87028e-38
1.74693e-37
6.18397e-37
2.18784e-36
7.75373e-36
2.75491e-35
9.80535e-35
3.49784e-34
1.24523e-33
4.4228e-33
1.60352e-32
5.71621e-32
2.03498e-31
7.3211e-31
2.60452e-30
9.25861e-30
3.2896e-29
1.15498e-28
4.09847e-28
1.41952e-27
4.87677e-27
1.66693e-26
5.71474e-26
1.96427e-25
6.59281e-25
2.18793e-24
7.36361e-24
2.40763e-23
7.76746e-23
2.63081e-22
8.35973e-22
2.64435e-21
8.18195e-21
2.57555e-20
7.7848e-20
2.30074e-19
7.22512e-19
2.21996e-18
6.34323e-18
1.78962e-17
5.07782e-17
1.44264e-16
4.1702e-16
1.2042e-15
3.55068e-15
9.32397e-15
2.38509e-14
6.31596e-14
1.68047e-13
4.37303e-13
1.10163e-12
2.70137e-12
5.76831e-12
1.21901e-11
2.64511e-11
5.82356e-11
1.25551e-10
2.63784e-10
5.39953e-10
1.03904e-09
1.88605e-09
2.8236e-09
2.99939e-09
2.46641e-09
1.9178e-09
1.6747e-09
1.76823e-09
2.21197e-09
3.12026e-09
4.68763e-09
6.65932e-09
7.64483e-09
6.53572e-09
4.18859e-09
3.49956e-09
4.19419e-09
5.73253e-09
7.52035e-09
9.14609e-09
1.00112e-08
9.64403e-09
8.45774e-09
4.8792e-09
2.64983e-09
1.42375e-09
7.51279e-10
3.87053e-10
1.90534e-10
9.19154e-11
4.30898e-11
2.25286e-11
1.72471e-11
1.98638e-11
2.33158e-11
2.3091e-11
1.79189e-11
1.01142e-11
2.39752e-12
3.58709e-39
1.94475e-38
7.52758e-38
2.68325e-37
9.39611e-37
3.34906e-36
1.1775e-35
4.15776e-35
1.47109e-34
5.20673e-34
1.84452e-33
6.53704e-33
2.31562e-32
8.19357e-32
2.90263e-31
1.02991e-30
3.65123e-30
1.28234e-29
4.49631e-29
1.58329e-28
5.49634e-28
1.89169e-27
6.38219e-27
2.21771e-26
7.44032e-26
2.48547e-25
8.27769e-25
2.66226e-24
9.11836e-24
2.99882e-23
9.70445e-23
3.11666e-22
9.97876e-22
3.15199e-21
9.74414e-21
3.03417e-20
9.37661e-20
2.74713e-19
8.57803e-19
2.5266e-18
7.25083e-18
2.05849e-17
5.72852e-17
1.61218e-16
4.54188e-16
1.31169e-15
3.68687e-15
9.22446e-15
2.52136e-14
6.7434e-14
1.76839e-13
4.54854e-13
1.13609e-12
2.7625e-12
5.86709e-12
1.23472e-11
2.66082e-11
5.83038e-11
1.25268e-10
2.62638e-10
5.37302e-10
1.03466e-09
1.88044e-09
2.82459e-09
3.01762e-09
2.49177e-09
1.93897e-09
1.68981e-09
1.77767e-09
2.21897e-09
3.12606e-09
4.6985e-09
6.70319e-09
7.7453e-09
6.66251e-09
4.27576e-09
3.55765e-09
4.25046e-09
5.80419e-09
7.60509e-09
9.22516e-09
1.00501e-08
9.64023e-09
8.41761e-09
4.7604e-09
2.58054e-09
1.38368e-09
7.28452e-10
3.74298e-10
1.83949e-10
8.85318e-11
4.1613e-11
2.20295e-11
1.73571e-11
2.02734e-11
2.37195e-11
2.33206e-11
1.79439e-11
1.00569e-11
2.3696e-12
5.11778e-39
2.78814e-38
1.07287e-37
3.85864e-37
1.36582e-36
4.81863e-36
1.69892e-35
5.9908e-35
2.11255e-34
7.44762e-34
2.6232e-33
9.24218e-33
3.25914e-32
1.14853e-31
4.03016e-31
1.4139e-30
4.95572e-30
1.72865e-29
6.01028e-29
2.0841e-28
7.19246e-28
2.46082e-27
8.36583e-27
2.82362e-26
9.4703e-26
3.15731e-25
1.04295e-24
3.39405e-24
1.09109e-23
3.52072e-23
1.15283e-22
3.74657e-22
1.18565e-21
3.70239e-21
1.13027e-20
3.47827e-20
1.06589e-19
3.09076e-19
9.47973e-19
2.84015e-18
8.12233e-18
2.2741e-17
6.43061e-17
1.78656e-16
5.04928e-16
1.44489e-15
3.77354e-15
9.87789e-15
2.68176e-14
7.11503e-14
1.85661e-13
4.71844e-13
1.16661e-12
2.81224e-12
5.9391e-12
1.24375e-11
2.66512e-11
5.81503e-11
1.24558e-10
2.60694e-10
5.3321e-10
1.028e-09
1.87119e-09
2.82279e-09
3.03463e-09
2.52105e-09
1.96116e-09
1.70388e-09
1.78506e-09
2.22297e-09
3.1265e-09
4.69999e-09
6.73361e-09
7.83206e-09
6.78204e-09
4.3606e-09
3.60647e-09
4.29154e-09
5.85513e-09
7.66727e-09
9.28451e-09
1.0084e-08
9.64652e-09
8.40403e-09
4.7059e-09
2.54783e-09
1.3642e-09
7.17035e-10
3.67736e-10
1.80507e-10
8.67277e-11
4.08388e-11
2.18064e-11
1.75104e-11
2.06263e-11
2.40698e-11
2.35423e-11
1.80091e-11
1.0044e-11
2.35665e-12
6.68007e-39
3.65461e-38
1.41157e-37
5.08373e-37
1.80157e-36
6.35138e-36
2.23423e-35
7.85654e-35
2.76352e-34
9.75635e-34
3.42386e-33
1.19937e-32
4.1996e-32
1.47595e-31
5.1487e-31
1.79344e-30
6.2448e-30
2.16422e-29
7.46379e-29
2.60388e-28
8.91772e-28
3.00381e-27
1.03052e-26
3.44403e-26
1.1506e-25
3.84692e-25
1.26807e-24
4.14512e-24
1.34026e-23
4.26538e-23
1.36135e-22
4.35889e-22
1.36954e-21
4.26576e-21
1.31254e-20
3.97662e-20
1.19806e-19
3.44568e-19
1.05035e-18
3.09909e-18
8.90899e-18
2.51902e-17
7.04358e-17
1.96823e-16
5.25831e-16
1.38296e-15
3.88344e-15
1.05999e-14
2.83786e-14
7.48492e-14
1.92769e-13
4.85092e-13
1.18934e-12
2.84503e-12
5.97706e-12
1.24693e-11
2.65821e-11
5.77698e-11
1.23378e-10
2.57885e-10
5.27231e-10
1.01694e-09
1.85621e-09
2.81666e-09
3.05529e-09
2.5492e-09
1.98613e-09
1.71758e-09
1.79083e-09
2.22276e-09
3.11875e-09
4.68763e-09
6.74794e-09
7.90562e-09
6.8948e-09
4.44337e-09
3.64794e-09
4.31842e-09
5.88628e-09
7.70771e-09
9.32412e-09
1.01097e-08
9.65336e-09
8.39932e-09
4.68357e-09
2.53394e-09
1.35565e-09
7.11856e-10
3.64665e-10
1.78863e-10
8.58487e-11
4.04753e-11
2.17361e-11
1.76681e-11
2.09249e-11
2.43768e-11
2.37618e-11
1.81083e-11
1.0067e-11
2.35555e-12
7.95075e-39
4.59371e-38
1.74967e-37
6.27163e-37
2.24502e-36
7.91149e-36
2.79163e-35
9.82206e-35
3.44979e-34
1.20977e-33
4.24255e-33
1.4909e-32
5.20408e-32
1.81662e-31
6.33229e-31
2.182e-30
7.76822e-30
2.67568e-29
9.19891e-29
3.14371e-28
1.06461e-27
3.65831e-27
1.22982e-26
4.11215e-26
1.36558e-25
4.5146e-25
1.48318e-24
4.82534e-24
1.58082e-23
5.08289e-23
1.61177e-22
5.03961e-22
1.56081e-21
4.80435e-21
1.45651e-20
4.36457e-20
1.29591e-19
3.75621e-19
1.16169e-18
3.36327e-18
9.46265e-18
2.66298e-17
7.40698e-17
1.99392e-16
5.2675e-16
1.49799e-15
4.14468e-15
1.12326e-14
2.99962e-14
7.82573e-14
1.99809e-13
4.98489e-13
1.21073e-12
2.85979e-12
5.98942e-12
1.24607e-11
2.64311e-11
5.72524e-11
1.22023e-10
2.54825e-10
5.21026e-10
1.00554e-09
1.83708e-09
2.80636e-09
3.07311e-09
2.58181e-09
2.0112e-09
1.72998e-09
1.79337e-09
2.21753e-09
3.10289e-09
4.6677e-09
6.74967e-09
7.96803e-09
7.01232e-09
4.53524e-09
3.6878e-09
4.33453e-09
5.9008e-09
7.72958e-09
9.34634e-09
1.01265e-08
9.65716e-09
8.39632e-09
4.67865e-09
2.53041e-09
1.35322e-09
7.10249e-10
3.6364e-10
1.78278e-10
8.55245e-11
4.03555e-11
2.17496e-11
1.78111e-11
2.11685e-11
2.46436e-11
2.39783e-11
1.82336e-11
1.01176e-11
2.36351e-12
9.52712e-39
5.46716e-38
2.09245e-37
7.53347e-37
2.66906e-36
9.40807e-36
3.31071e-35
1.16332e-34
4.07739e-34
1.43096e-33
5.08022e-33
1.77588e-32
6.19607e-32
2.16987e-31
7.57109e-31
2.62148e-30
9.17304e-30
3.14751e-29
1.07582e-28
3.67811e-28
1.23515e-27
4.24115e-27
1.42028e-26
4.72585e-26
1.54824e-25
5.16097e-25
1.6779e-24
5.45467e-24
1.77854e-23
5.71323e-23
1.80801e-22
5.64095e-22
1.73482e-21
5.35091e-21
1.60789e-20
4.79673e-20
1.4188e-19
4.11329e-19
1.25536e-18
3.5854e-18
1.00312e-17
2.77669e-17
7.5553e-17
2.02226e-16
5.70275e-16
1.60312e-15
4.42127e-15
1.19795e-14
3.17612e-14
8.25177e-14
2.10084e-13
5.23524e-13
1.28188e-12
2.83004e-12
5.97586e-12
1.2411e-11
2.61987e-11
5.65562e-11
1.20258e-10
2.50428e-10
5.12098e-10
9.90313e-10
1.81747e-09
2.79385e-09
3.08823e-09
2.61075e-09
2.03489e-09
1.74329e-09
1.79613e-09
2.21217e-09
3.0866e-09
4.64036e-09
6.73798e-09
8.01774e-09
7.11503e-09
4.61684e-09
3.71882e-09
4.33976e-09
5.90154e-09
7.73633e-09
9.35471e-09
1.01362e-08
9.65811e-09
8.39372e-09
4.68572e-09
2.53386e-09
1.35487e-09
7.11006e-10
3.63974e-10
1.78396e-10
8.55687e-11
4.03951e-11
2.18142e-11
1.79376e-11
2.13697e-11
2.4881e-11
2.41924e-11
1.83781e-11
1.01883e-11
2.37809e-12
1.13664e-38
6.25479e-38
2.40689e-37
8.65768e-37
3.06294e-36
1.07886e-35
3.79906e-35
1.33866e-34
4.70611e-34
1.66518e-33
5.85644e-33
2.05166e-32
7.16245e-32
2.50859e-31
8.77249e-31
3.03927e-30
1.04911e-29
3.61101e-29
1.2358e-28
4.20768e-28
1.42364e-27
4.78136e-27
1.60774e-26
5.33459e-26
1.7583e-25
5.74909e-25
1.87008e-24
5.98099e-24
1.9586e-23
6.21804e-23
1.91536e-22
6.16148e-22
1.90687e-21
5.76326e-21
1.78349e-20
5.25238e-20
1.52783e-19
4.41877e-19
1.31226e-18
3.83532e-18
1.06258e-17
2.92071e-17
7.9214e-17
2.15503e-16
6.0688e-16
1.69832e-15
4.67057e-15
1.26067e-14
3.32881e-14
8.61129e-14
2.18291e-13
5.41225e-13
1.31069e-12
2.78808e-12
5.95662e-12
1.23269e-11
2.59014e-11
5.58108e-11
1.18413e-10
2.46883e-10
5.04487e-10
9.76179e-10
1.79354e-09
2.77863e-09
3.10179e-09
2.63853e-09
2.05706e-09
1.75553e-09
1.79867e-09
2.20702e-09
3.06423e-09
4.60348e-09
6.71427e-09
8.05271e-09
7.20737e-09
4.69825e-09
3.74604e-09
4.33816e-09
5.89263e-09
7.73226e-09
9.35323e-09
1.0141e-08
9.65791e-09
8.39267e-09
4.70371e-09
2.54361e-09
1.36013e-09
7.138e-10
3.65418e-10
1.79068e-10
8.58964e-11
4.05582e-11
2.19192e-11
1.8053e-11
2.154e-11
2.50946e-11
2.44018e-11
1.85338e-11
1.02722e-11
2.39713e-12
1.24051e-38
6.97987e-38
2.69708e-37
9.68776e-37
3.4272e-36
1.20822e-35
4.25968e-35
1.50234e-34
5.3111e-34
1.87377e-33
6.58921e-33
2.30841e-32
8.04996e-32
2.82572e-31
9.78653e-31
3.36888e-30
1.13673e-29
4.05953e-29
1.3802e-28
4.70284e-28
1.59031e-27
5.34476e-27
1.78417e-26
5.83089e-26
1.95392e-25
6.32367e-25
2.03316e-24
6.50753e-24
2.0915e-23
6.84276e-23
2.12682e-22
6.72064e-22
2.06385e-21
6.33725e-21
1.89477e-20
5.5683e-20
1.61038e-19
4.64533e-19
1.37835e-18
4.05238e-18
1.12727e-17
3.10939e-17
8.32856e-17
2.31356e-16
6.35347e-16
1.77284e-15
4.85294e-15
1.29841e-14
3.4027e-14
8.7409e-14
2.20088e-13
5.42096e-13
1.30262e-12
2.74829e-12
5.95138e-12
1.22504e-11
2.55996e-11
5.49665e-11
1.16545e-10
2.42853e-10
4.97283e-10
9.62557e-10
1.77149e-09
2.76215e-09
3.11346e-09
2.66566e-09
2.07892e-09
1.76689e-09
1.7994e-09
2.1986e-09
3.04343e-09
4.56811e-09
6.68704e-09
8.08083e-09
7.29891e-09
4.78237e-09
3.77287e-09
4.33274e-09
5.87769e-09
7.72111e-09
9.3453e-09
1.01433e-08
9.65814e-09
8.39459e-09
4.73251e-09
2.55925e-09
1.36862e-09
7.18364e-10
3.6785e-10
1.80238e-10
8.64766e-11
4.08229e-11
2.20557e-11
1.81602e-11
2.16874e-11
2.5296e-11
2.46154e-11
1.87044e-11
1.03694e-11
2.42017e-12
1.32097e-38
7.82191e-38
3.00091e-37
1.07811e-36
3.82095e-36
1.35091e-35
4.77254e-35
1.68064e-34
5.90906e-34
2.07483e-33
7.26822e-33
2.53616e-32
8.95768e-32
3.07297e-31
1.06732e-30
3.71537e-30
1.29395e-29
4.42669e-29
1.50855e-28
5.09914e-28
1.70863e-27
5.63254e-27
1.93786e-26
6.37138e-26
2.08962e-25
6.78947e-25
2.21935e-24
7.10611e-24
2.27612e-23
7.21128e-23
2.24067e-22
7.15786e-22
2.16221e-21
6.67097e-21
1.98342e-20
5.84104e-20
1.69458e-19
4.78205e-19
1.44446e-18
4.25746e-18
1.16666e-17
3.1932e-17
8.70398e-17
2.42238e-16
6.57472e-16
1.82755e-15
4.96304e-15
1.31978e-14
3.43983e-14
8.79061e-14
2.20222e-13
5.39466e-13
1.29029e-12
2.70989e-12
5.93463e-12
1.21702e-11
2.53278e-11
5.42853e-11
1.1497e-10
2.39121e-10
4.89296e-10
9.48321e-10
1.7508e-09
2.74575e-09
3.12341e-09
2.69073e-09
2.10019e-09
1.77704e-09
1.80017e-09
2.19003e-09
3.02259e-09
4.53064e-09
6.6558e-09
8.10077e-09
7.37807e-09
4.86264e-09
3.79685e-09
4.32442e-09
5.85858e-09
7.70551e-09
9.33396e-09
1.01446e-08
9.66028e-09
8.40084e-09
4.77133e-09
2.58021e-09
1.37992e-09
7.24408e-10
3.7104e-10
1.81778e-10
8.72342e-11
4.1167e-11
2.22203e-11
1.82633e-11
2.18143e-11
2.54752e-11
2.48143e-11
1.88701e-11
1.04669e-11
2.44397e-12
1.54943e-38
8.46596e-38
3.26038e-37
1.17384e-36
4.15551e-36
1.46676e-35
5.19913e-35
1.82397e-34
6.37002e-34
2.2095e-33
7.84141e-33
2.78495e-32
9.65181e-32
3.31167e-31
1.17457e-30
4.0236e-30
1.37427e-29
4.76719e-29
1.61582e-28
5.40064e-28
1.86463e-27
6.2209e-27
2.07048e-26
6.79094e-26
2.24468e-25
7.24806e-25
2.34378e-24
7.48265e-24
2.38295e-23
7.65777e-23
2.40928e-22
7.49871e-22
2.26306e-21
6.94436e-21
2.03673e-20
5.93125e-20
1.7679e-19
4.96877e-19
1.48727e-18
4.30516e-18
1.23211e-17
3.36074e-17
9.17156e-17
2.45621e-16
6.73992e-16
1.86293e-15
5.03617e-15
1.3334e-14
3.46076e-14
8.80817e-14
2.19793e-13
5.36553e-13
1.27887e-12
2.67757e-12
5.90552e-12
1.20728e-11
2.502e-11
5.35637e-11
1.13265e-10
2.3572e-10
4.82202e-10
9.35076e-10
1.72958e-09
2.72974e-09
3.13207e-09
2.71433e-09
2.12096e-09
1.79064e-09
1.81292e-09
2.18502e-09
3.00403e-09
4.49613e-09
6.62453e-09
8.11541e-09
7.44826e-09
4.93709e-09
3.81843e-09
4.31532e-09
5.83917e-09
7.68907e-09
9.32193e-09
1.0146e-08
9.66475e-09
8.41161e-09
4.81712e-09
2.60483e-09
1.39314e-09
7.31436e-10
3.74725e-10
1.83556e-10
8.81e-11
4.15533e-11
2.23954e-11
1.8358e-11
2.19212e-11
2.56282e-11
2.49901e-11
1.90214e-11
1.0558e-11
2.46658e-12
1.65948e-38
9.07528e-38
3.49699e-37
1.26e-36
4.47391e-36
1.57811e-35
5.55862e-35
1.95526e-34
6.86092e-34
2.39936e-33
8.39862e-33
2.94821e-32
1.02861e-31
3.5833e-31
1.24525e-30
4.29524e-30
1.46744e-29
5.05592e-29
1.71159e-28
5.78559e-28
1.96099e-27
6.56397e-27
2.18582e-26
7.21283e-26
2.35196e-25
7.59597e-25
2.45825e-24
7.8138e-24
2.45933e-23
7.91517e-23
2.46429e-22
7.70124e-22
2.36962e-21
7.15284e-21
2.1323e-20
6.30297e-20
1.83659e-19
5.38785e-19
1.56191e-18
4.57567e-18
1.26097e-17
3.38732e-17
9.27413e-17
2.48861e-16
6.86349e-16
1.88878e-15
5.08722e-15
1.34242e-14
3.4733e-14
8.81365e-14
2.19277e-13
5.33783e-13
1.26857e-12
2.65099e-12
5.8765e-12
1.19829e-11
2.47521e-11
5.28732e-11
1.11769e-10
2.32527e-10
4.76054e-10
9.23944e-10
1.71194e-09
2.71563e-09
3.13812e-09
2.73359e-09
2.13796e-09
1.80001e-09
1.8147e-09
2.17821e-09
2.98702e-09
4.46533e-09
6.59516e-09
8.12463e-09
7.5059e-09
5.00099e-09
3.83673e-09
4.30707e-09
5.82155e-09
7.67381e-09
9.31095e-09
1.01478e-08
9.67151e-09
8.42566e-09
4.86547e-09
2.63073e-09
1.40698e-09
7.38752e-10
3.78541e-10
1.85398e-10
8.90008e-11
4.19509e-11
2.25711e-11
1.84445e-11
2.201e-11
2.57561e-11
2.514e-11
1.91527e-11
1.06381e-11
2.48667e-12
1.62268e-38
9.52673e-38
3.6614e-37
1.31871e-36
4.67521e-36
1.65223e-35
5.83533e-35
2.05659e-34
7.21372e-34
2.52112e-33
8.86581e-33
3.09233e-32
1.07748e-31
3.74934e-31
1.30089e-30
4.49853e-30
1.55767e-29
5.3192e-29
1.80413e-28
6.09171e-28
2.05928e-27
6.84281e-27
2.28799e-26
7.51951e-26
2.45537e-25
7.94976e-25
2.5495e-24
8.08347e-24
2.56262e-23
8.19872e-23
2.56321e-22
8.07075e-22
2.45845e-21
7.40676e-21
2.20685e-20
6.54541e-20
1.91395e-19
5.52215e-19
1.5869e-18
4.57691e-18
1.26905e-17
3.45595e-17
9.20845e-17
2.50372e-16
6.96036e-16
1.90783e-15
5.1234e-15
1.34853e-14
3.48089e-14
8.81342e-14
2.18804e-13
5.31618e-13
1.26112e-12
2.63133e-12
5.85071e-12
1.19083e-11
2.45288e-11
5.23675e-11
1.1066e-10
2.30179e-10
4.71324e-10
9.14704e-10
1.69685e-09
2.70225e-09
3.1421e-09
2.74852e-09
2.15091e-09
1.80659e-09
1.81464e-09
2.17201e-09
2.9729e-09
4.44058e-09
6.57127e-09
8.1298e-09
7.54974e-09
5.05147e-09
3.85102e-09
4.30012e-09
5.80688e-09
7.66096e-09
9.30188e-09
1.01499e-08
9.6787e-09
8.44028e-09
4.91055e-09
2.65479e-09
1.41979e-09
7.45501e-10
3.82044e-10
1.87086e-10
8.98196e-11
4.23108e-11
2.27274e-11
1.85162e-11
2.20763e-11
2.58547e-11
2.52584e-11
1.9258e-11
1.0703e-11
2.50305e-12
1.76851e-38
9.70473e-38
3.73877e-37
1.36167e-36
4.82004e-36
1.70104e-35
5.99865e-35
2.11533e-34
7.4488e-34
2.61364e-33
9.15119e-33
3.19896e-32
1.11746e-31
3.9029e-31
1.35979e-30
4.69853e-30
1.61509e-29
5.52195e-29
1.87666e-28
6.33706e-28
2.12584e-27
7.07871e-27
2.34025e-26
7.65282e-26
2.52909e-25
8.19374e-25
2.64305e-24
8.41612e-24
2.70142e-23
8.45744e-23
2.6277e-22
8.07886e-22
2.50342e-21
7.53261e-21
2.27271e-20
6.73482e-20
1.94776e-19
5.51545e-19
1.59619e-18
4.57448e-18
1.26476e-17
3.43137e-17
9.26055e-17
2.52113e-16
7.02831e-16
1.92153e-15
5.14997e-15
1.35319e-14
3.48722e-14
8.8155e-14
2.18535e-13
5.30183e-13
1.25634e-12
2.61821e-12
5.8329e-12
1.18576e-11
2.43808e-11
5.2012e-11
1.09869e-10
2.28504e-10
4.67961e-10
9.08383e-10
1.68651e-09
2.69294e-09
3.14411e-09
2.75814e-09
2.15937e-09
1.81068e-09
1.81425e-09
2.16753e-09
2.96336e-09
4.42302e-09
6.55344e-09
8.13259e-09
7.57987e-09
5.08716e-09
3.86105e-09
4.29503e-09
5.7962e-09
7.65158e-09
9.2954e-09
1.01517e-08
9.68498e-09
8.45271e-09
4.94626e-09
2.6738e-09
1.42987e-09
7.50794e-10
3.84783e-10
1.88405e-10
9.04572e-11
4.25901e-11
2.28478e-11
1.85699e-11
2.21242e-11
2.59241e-11
2.53419e-11
1.93328e-11
1.07493e-11
2.51479e-12
1.79331e-38
1.00013e-37
3.84051e-37
1.38328e-36
4.91356e-36
1.74133e-35
6.14801e-35
2.16845e-34
7.64205e-34
2.68831e-33
9.42848e-33
3.2977e-32
1.15026e-31
4.00349e-31
1.39154e-30
4.80251e-30
1.64848e-29
5.6283e-29
1.90356e-28
6.39955e-28
2.1471e-27
7.15257e-27
2.38799e-26
7.80909e-26
2.57333e-25
8.31444e-25
2.6847e-24
8.64407e-24
2.74084e-23
8.61672e-23
2.68209e-22
8.40692e-22
2.54101e-21
7.6351e-21
2.29783e-20
6.71377e-20
1.96553e-19
5.59303e-19
1.66431e-18
4.71819e-18
1.28122e-17
3.48147e-17
9.23165e-17
2.55949e-16
7.06203e-16
1.92994e-15
5.16854e-15
1.35667e-14
3.49262e-14
8.82054e-14
2.18459e-13
5.29542e-13
1.25377e-12
2.61115e-12
5.82426e-12
1.18322e-11
2.4307e-11
5.18339e-11
1.09463e-10
2.27625e-10
4.66159e-10
9.05067e-10
1.68109e-09
2.68788e-09
3.14482e-09
2.76286e-09
2.16356e-09
1.81269e-09
1.81387e-09
2.16489e-09
2.95763e-09
4.41336e-09
6.54363e-09
8.13357e-09
7.59544e-09
5.10601e-09
3.86628e-09
4.29221e-09
5.79035e-09
7.6464e-09
9.29185e-09
1.01529e-08
9.68882e-09
8.4602e-09
4.96702e-09
2.68484e-09
1.43572e-09
7.53856e-10
3.86361e-10
1.89165e-10
9.08224e-11
4.27496e-11
2.2916e-11
1.86001e-11
2.21505e-11
2.59614e-11
2.53868e-11
1.93731e-11
1.07743e-11
2.52115e-12
1.77149e-38
9.97727e-38
3.91223e-37
1.40407e-36
4.97845e-36
1.75787e-35
6.19867e-35
2.186e-34
7.71209e-34
2.72777e-33
9.56619e-33
3.34295e-32
1.16026e-31
3.97535e-31
1.41889e-30
4.87286e-30
1.67044e-29
5.70056e-29
1.93613e-28
6.51987e-28
2.20358e-27
7.3444e-27
2.43255e-26
7.97962e-26
2.5874e-25
8.48959e-25
2.72843e-24
8.76e-24
2.80893e-23
8.87324e-23
2.75307e-22
8.41038e-22
2.59575e-21
7.89704e-21
2.33712e-20
6.81556e-20
1.99284e-19
5.60499e-19
1.67318e-18
4.67776e-18
1.30349e-17
3.51529e-17
9.43613e-17
2.56037e-16
7.08528e-16
1.93602e-15
5.18197e-15
1.35943e-14
3.4978e-14
8.82896e-14
2.18557e-13
5.29536e-13
1.25324e-12
2.60917e-12
5.82444e-12
1.18284e-11
2.42903e-11
5.17902e-11
1.09363e-10
2.27412e-10
4.65728e-10
9.04258e-10
1.67975e-09
2.68652e-09
3.14462e-09
2.76352e-09
2.16417e-09
1.81291e-09
1.81367e-09
2.1643e-09
2.95654e-09
4.41156e-09
6.54182e-09
8.13342e-09
7.59764e-09
5.10883e-09
3.867e-09
4.2917e-09
5.7894e-09
7.64556e-09
9.29129e-09
1.01531e-08
9.68943e-09
8.46139e-09
4.97024e-09
2.68653e-09
1.4366e-09
7.54312e-10
3.86593e-10
1.89274e-10
9.08744e-11
4.27725e-11
2.29259e-11
1.86049e-11
2.21551e-11
2.59679e-11
2.53939e-11
1.9379e-11
1.07778e-11
2.522e-12
1.77195e-38
1.01881e-37
3.92869e-37
1.41608e-36
5.03056e-36
1.78006e-35
6.28788e-35
2.21778e-34
7.80888e-34
2.74398e-33
9.62155e-33
3.36553e-32
1.17229e-31
4.05745e-31
1.42652e-30
4.90796e-30
1.67901e-29
5.67866e-29
1.96116e-28
6.60329e-28
2.22741e-27
7.4378e-27
2.46923e-26
8.13932e-26
2.65453e-25
8.5702e-25
2.71792e-24
8.9404e-24
2.82812e-23
8.91402e-23
2.78516e-22
8.57721e-22
2.63373e-21
7.90145e-21
2.36147e-20
6.87455e-20
2.01019e-19
5.68656e-19
1.68553e-18
4.71186e-18
1.31125e-17
3.48078e-17
9.56292e-17
2.5712e-16
7.08916e-16
1.94056e-15
5.19324e-15
1.36222e-14
3.50474e-14
8.84599e-14
2.18969e-13
5.30511e-13
1.25551e-12
2.61385e-12
5.83693e-12
1.18538e-11
2.43526e-11
5.19282e-11
1.09659e-10
2.28033e-10
4.66978e-10
9.06585e-10
1.68348e-09
2.68964e-09
3.14325e-09
2.75927e-09
2.16048e-09
1.811e-09
1.81356e-09
2.16584e-09
2.96032e-09
4.41818e-09
6.54848e-09
8.13216e-09
7.58577e-09
5.09477e-09
3.86303e-09
4.29369e-09
5.79368e-09
7.64938e-09
9.29396e-09
1.01523e-08
9.68663e-09
8.45584e-09
4.95484e-09
2.67831e-09
1.43223e-09
7.52011e-10
3.854e-10
1.88699e-10
9.05962e-11
4.26506e-11
2.28743e-11
1.85837e-11
2.21381e-11
2.59419e-11
2.53613e-11
1.9349e-11
1.07588e-11
2.51712e-12
1.79516e-38
1.01224e-37
3.88495e-37
1.40293e-36
4.99368e-36
1.77024e-35
6.2592e-35
2.20721e-34
7.76048e-34
2.71987e-33
9.50122e-33
3.31017e-32
1.15201e-31
4.0105e-31
1.39404e-30
4.80355e-30
1.63902e-29
5.62015e-29
1.92779e-28
6.50618e-28
2.17413e-27
7.35721e-27
2.43264e-26
8.08641e-26
2.62876e-25
8.46478e-25
2.71342e-24
8.79502e-24
2.7811e-23
8.76836e-23
2.73032e-22
8.39273e-22
2.62972e-21
7.82128e-21
2.26548e-20
6.7006e-20
1.9659e-19
5.49269e-19
1.61775e-18
4.75743e-18
1.27463e-17
3.51893e-17
9.30415e-17
2.58341e-16
7.10251e-16
1.9423e-15
5.20003e-15
1.36465e-14
3.51259e-14
8.86968e-14
2.19646e-13
5.32343e-13
1.26025e-12
2.62476e-12
5.86143e-12
1.19081e-11
2.4492e-11
5.22416e-11
1.10333e-10
2.2944e-10
4.69819e-10
9.11892e-10
1.69202e-09
2.69694e-09
3.14064e-09
2.75028e-09
2.15273e-09
1.80709e-09
1.81355e-09
2.16935e-09
2.96833e-09
4.43266e-09
6.56301e-09
8.12957e-09
7.5602e-09
5.06454e-09
3.85457e-09
4.29813e-09
5.80301e-09
7.65776e-09
9.2999e-09
1.01509e-08
9.68108e-09
8.44463e-09
4.92285e-09
2.66125e-09
1.42316e-09
7.47245e-10
3.82932e-10
1.87508e-10
9.00204e-11
4.23991e-11
2.27671e-11
1.8539e-11
2.21018e-11
2.5886e-11
2.52913e-11
1.92847e-11
1.07183e-11
2.50676e-12
1.82389e-38
9.95139e-38
3.82835e-37
1.36115e-36
4.93417e-36
1.7368e-35
6.12769e-35
2.15902e-34
7.5907e-34
2.66356e-33
9.32774e-33
3.25887e-32
1.13561e-31
3.94783e-31
1.3664e-30
4.69714e-30
1.63084e-29
5.56287e-29
1.89114e-28
6.39907e-28
2.15846e-27
7.26102e-27
2.41028e-26
7.93148e-26
2.58861e-25
8.38182e-25
2.69365e-24
8.61268e-24
2.76536e-23
8.70048e-23
2.71306e-22
8.34033e-22
2.57173e-21
7.73256e-21
2.30841e-20
6.80364e-20
1.96547e-19
5.5319e-19
1.63543e-18
4.73548e-18
1.2903e-17
3.46067e-17
9.28509e-17
2.59075e-16
7.09332e-16
1.94105e-15
5.2033e-15
1.36699e-14
3.52212e-14
8.90241e-14
2.20655e-13
5.35217e-13
1.26796e-12
2.64274e-12
5.89969e-12
1.1995e-11
2.47179e-11
5.27533e-11
1.11437e-10
2.31747e-10
4.74436e-10
9.20484e-10
1.70576e-09
2.70838e-09
3.13624e-09
2.73603e-09
2.14055e-09
1.80097e-09
1.81352e-09
2.17486e-09
2.98092e-09
4.45531e-09
6.58554e-09
8.12529e-09
7.52107e-09
5.01912e-09
3.84198e-09
4.30497e-09
5.81716e-09
7.67046e-09
9.3091e-09
1.01494e-08
9.67407e-09
8.43002e-09
4.87869e-09
2.63767e-09
1.41061e-09
7.40632e-10
3.79498e-10
1.85852e-10
8.92173e-11
4.20474e-11
2.26169e-11
1.84747e-11
2.20455e-11
2.58011e-11
2.51861e-11
1.91885e-11
1.0658e-11
2.49135e-12
1.71183e-38
9.65275e-38
3.71687e-37
1.34341e-36
4.75235e-36
1.67482e-35
5.91526e-35
2.09347e-34
7.35785e-34
2.57982e-33
9.02361e-33
3.14998e-32
1.0989e-31
3.84222e-31
1.32715e-30
4.56346e-30
1.56339e-29
5.33314e-29
1.8146e-28
6.17197e-28
2.0882e-27
6.89115e-27
2.33406e-26
7.61043e-26
2.53337e-25
8.18908e-25
2.63096e-24
8.39058e-24
2.69496e-23
8.53709e-23
2.61035e-22
8.30401e-22
2.51757e-21
7.58856e-21
2.26966e-20
6.65914e-20
1.94368e-19
5.52144e-19
1.58779e-18
4.55703e-18
1.2824e-17
3.44827e-17
9.15904e-17
2.56691e-16
7.07556e-16
1.93759e-15
5.20102e-15
1.3686e-14
3.53205e-14
8.94127e-14
2.21953e-13
5.39115e-13
1.27883e-12
2.66854e-12
5.95211e-12
1.21109e-11
2.50191e-11
5.34383e-11
1.12922e-10
2.34861e-10
4.80708e-10
9.32229e-10
1.72466e-09
2.72317e-09
3.12941e-09
2.71648e-09
2.12394e-09
1.79223e-09
1.81254e-09
2.1815e-09
2.9969e-09
4.4842e-09
6.61358e-09
8.11907e-09
7.47002e-09
4.96123e-09
3.82609e-09
4.31403e-09
5.83553e-09
7.68703e-09
9.32155e-09
1.01487e-08
9.66743e-09
8.4151e-09
4.82844e-09
2.61078e-09
1.39626e-09
7.33043e-10
3.7554e-10
1.83941e-10
8.82863e-11
4.16385e-11
2.24412e-11
1.83973e-11
2.19734e-11
2.56907e-11
2.50498e-11
1.90647e-11
1.05808e-11
2.47167e-12
1.6872e-38
9.23419e-38
3.56944e-37
1.28458e-36
4.53514e-36
1.59553e-35
5.65661e-35
1.98376e-34
6.9546e-34
2.46143e-33
8.58691e-33
2.99237e-32
1.04192e-31
3.63288e-31
1.272e-30
4.38079e-30
1.50155e-29
5.13164e-29
1.75363e-28
5.85337e-28
2.01005e-27
6.69434e-27
2.22941e-26
7.37115e-26
2.4217e-25
7.85905e-25
2.54548e-24
8.12643e-24
2.61222e-23
8.17676e-23
2.53683e-22
7.94608e-22
2.43223e-21
7.3437e-21
2.14221e-20
6.43134e-20
1.87354e-19
5.36516e-19
1.56831e-18
4.58434e-18
1.24333e-17
3.48585e-17
9.28371e-17
2.54321e-16
7.01036e-16
1.9277e-15
5.18843e-15
1.36835e-14
3.53932e-14
8.98023e-14
2.23418e-13
5.43825e-13
1.29265e-12
2.70051e-12
6.01015e-12
1.22533e-11
2.53828e-11
5.42563e-11
1.14678e-10
2.38488e-10
4.87864e-10
9.4529e-10
1.74485e-09
2.7385e-09
3.11948e-09
2.69152e-09
2.10186e-09