/*--------------------------------*- C++ -*----------------------------------*\
  =========                 |
  \\      /  F ield         | OpenFOAM: The Open Source CFD Toolbox
   \\    /   O peration     | Website:  https://openfoam.org
    \\  /    A nd           | Version:  10
     \\/     M anipulation  |
\*---------------------------------------------------------------------------*/
FoamFile
{
    format      ascii;
    class       volScalarField;
    location    "1";
    object      CH4;
}
// * * * * * * * * * * * * * * * * * * * * * * * * * * * * * * * * * * * * * //

dimensions      [0 0 0 0 0 0 0];

internalField   nonuniform List<scalar> 
4000
(
5.79321e-26
1.69985e-25
3.29482e-25
5.73193e-25
9.3854e-25
1.46668e-24
2.22189e-24
3.37092e-24
5.31393e-24
9.16216e-24
1.79235e-23
3.63709e-23
8.01498e-23
1.92132e-22
4.91382e-22
1.30872e-21
3.56463e-21
1.01738e-20
2.87956e-20
8.25154e-20
2.37735e-19
6.79386e-19
2.07864e-18
6.10608e-18
1.81952e-17
5.40928e-17
1.58948e-16
4.81275e-16
1.41996e-15
4.18936e-15
1.23591e-14
3.64052e-14
1.06096e-13
3.07296e-13
8.85453e-13
2.46652e-12
6.9724e-12
1.99985e-11
5.59492e-11
1.55004e-10
4.14743e-10
1.08917e-09
2.79894e-09
7.0231e-09
1.71872e-08
4.40566e-08
1.14905e-07
2.95188e-07
7.38436e-07
1.78442e-06
4.14672e-06
9.39758e-06
1.91028e-05
4.04047e-05
8.26345e-05
0.000160377
0.000290966
0.000514158
0.000861032
0.00136327
0.00203712
0.00284254
0.00381029
0.00491631
0.0061246
0.00739155
0.00868075
0.0099282
0.0111084
0.0122053
0.0132012
0.0140684
0.0147595
0.0151626
0.0151054
0.0144278
0.0131777
0.0114889
0.0094669
0.00722903
0.00505275
0.00320159
0.0018735
0.00106941
0.0005869
0.000320045
0.000173117
9.21844e-05
4.79843e-05
2.42426e-05
1.18269e-05
5.38804e-06
2.39473e-06
1.06731e-06
5.59804e-07
3.55622e-07
2.40611e-07
1.56411e-07
8.8018e-08
2.60854e-08
2.1086e-25
7.66133e-25
1.53168e-24
2.54564e-24
3.82685e-24
5.42283e-24
7.35561e-24
9.73871e-24
1.2776e-23
1.70425e-23
2.39157e-23
3.69256e-23
6.61264e-23
1.41005e-22
3.48744e-22
9.51745e-22
2.73661e-21
8.12176e-21
2.45424e-20
7.47335e-20
2.29183e-19
7.07582e-19
2.18093e-18
6.71667e-18
2.06861e-17
6.32636e-17
1.9288e-16
5.85813e-16
1.76294e-15
5.25276e-15
1.55838e-14
4.82474e-14
1.41912e-13
4.09382e-13
1.17378e-12
3.31776e-12
9.51273e-12
2.64375e-11
7.34148e-11
1.99073e-10
5.33404e-10
1.38475e-09
3.55849e-09
8.90085e-09
2.26281e-08
5.88574e-08
1.51555e-07
3.81916e-07
9.41664e-07
2.26859e-06
4.89638e-06
1.00114e-05
2.16083e-05
4.47588e-05
9.03451e-05
0.000175423
0.000309856
0.00053654
0.000885755
0.0013807
0.00204616
0.00284026
0.00379333
0.00488304
0.00607247
0.00732457
0.00860327
0.00985455
0.0110336
0.0121321
0.0131359
0.0140121
0.0147107
0.0151287
0.0150904
0.0144274
0.0131814
0.0114904
0.00946173
0.00721346
0.00502922
0.0031748
0.00185207
0.00105504
0.00057766
0.000314707
0.000169987
9.03535e-05
4.68737e-05
2.35974e-05
1.14628e-05
5.19883e-06
2.30149e-06
1.03058e-06
5.48631e-07
3.51169e-07
2.37772e-07
1.54403e-07
8.67859e-08
2.56618e-08
5.03099e-25
1.69556e-24
3.27792e-24
5.25082e-24
7.61302e-24
1.00762e-23
1.27559e-23
1.57871e-23
1.92758e-23
2.34117e-23
2.88263e-23
3.7389e-23
5.53055e-23
1.02853e-22
2.46862e-22
7.06954e-22
2.20059e-21
6.96384e-21
2.33524e-20
7.55227e-20
2.44877e-19
7.89036e-19
2.52291e-18
7.99185e-18
2.50726e-17
7.80052e-17
2.41583e-16
7.48848e-16
2.26846e-15
6.82198e-15
2.092e-14
6.19906e-14
1.79484e-13
5.24466e-13
1.52145e-12
4.31311e-12
1.20198e-11
3.32726e-11
9.12676e-11
2.44239e-10
6.45901e-10
1.61417e-09
4.30475e-09
1.05798e-08
2.77134e-08
7.04445e-08
1.8146e-07
4.5284e-07
1.08163e-06
2.55699e-06
5.49238e-06
1.13061e-05
2.42633e-05
5.0902e-05
9.95395e-05
0.000183311
0.000319026
0.000548182
0.000898868
0.00139518
0.00205632
0.0028423
0.00378253
0.00485433
0.00602788
0.00726562
0.00853137
0.00977177
0.0109569
0.0120609
0.0130757
0.0139562
0.0146631
0.0150926
0.0150714
0.0144223
0.0131799
0.0114854
0.00944762
0.00718681
0.00499108
0.0031355
0.0018231
0.00103488
0.000564577
0.000307003
0.000165425
8.76263e-05
4.53186e-05
2.26794e-05
1.09489e-05
4.93884e-06
2.18014e-06
9.83911e-07
5.34291e-07
3.45505e-07
2.34615e-07
1.52331e-07
8.55426e-08
2.52501e-08
4.71196e-25
1.64946e-24
3.36564e-24
5.40014e-24
7.8294e-24
1.05804e-23
1.3678e-23
1.7388e-23
2.18289e-23
2.71007e-23
3.39969e-23
4.50189e-23
6.90069e-23
1.33722e-22
3.32578e-22
9.72786e-22
3.06183e-21
9.88099e-21
3.20206e-20
1.03508e-19
3.32569e-19
1.06566e-18
3.38408e-18
1.06674e-17
3.37543e-17
1.04764e-16
3.22768e-16
9.84398e-16
2.91059e-15
9.08467e-15
2.69112e-14
7.94711e-14
2.31465e-13
6.71617e-13
1.93068e-12
5.43614e-12
1.50349e-11
4.15395e-11
1.11257e-10
3.02623e-10
7.92956e-10
2.02134e-09
5.21593e-09
1.28204e-08
3.21169e-08
8.32546e-08
2.11599e-07
5.17297e-07
1.25433e-06
2.72806e-06
5.78461e-06
1.28972e-05
2.7711e-05
5.63144e-05
0.00010826
0.000188691
0.000328269
0.000560272
0.000913587
0.00140693
0.00206285
0.00284089
0.00377062
0.00483123
0.00599166
0.00721586
0.00846858
0.00970618
0.0108896
0.011995
0.0130115
0.0138976
0.0146159
0.0150595
0.015053
0.0144052
0.0131677
0.0114703
0.00942385
0.00715128
0.00494922
0.00309732
0.00180084
0.00100674
0.000548837
0.00029835
0.000160597
8.49769e-05
4.39438e-05
2.16567e-05
1.04155e-05
4.6894e-06
2.06536e-06
9.41145e-07
5.20866e-07
3.40276e-07
2.3171e-07
1.50451e-07
8.44159e-08
2.4876e-08
3.27498e-25
1.18549e-24
2.54125e-24
4.44655e-24
6.88084e-24
9.71614e-24
1.3083e-23
1.70847e-23
2.19038e-23
2.79155e-23
3.60552e-23
5.01162e-23
8.26833e-23
1.73469e-22
4.59268e-22
1.3673e-21
4.29909e-21
1.39818e-20
4.51449e-20
1.45265e-19
4.65429e-19
1.47473e-18
4.64301e-18
1.45169e-17
4.51128e-17
1.39004e-16
4.25056e-16
1.30436e-15
3.92458e-15
1.16917e-14
3.45565e-14
1.03661e-13
2.99183e-13
8.6099e-13
2.43682e-12
6.80425e-12
1.86684e-11
5.00539e-11
1.36799e-10
3.62899e-10
9.40873e-10
2.39682e-09
5.96614e-09
1.50295e-08
3.73238e-08
9.57779e-08
2.38256e-07
5.87995e-07
1.31838e-06
2.82646e-06
6.4177e-06
1.41339e-05
3.04109e-05
6.24422e-05
0.000111818
0.000194572
0.000337294
0.000570836
0.000924027
0.00141765
0.00207019
0.00284261
0.0037639
0.00481405
0.0059622
0.00717199
0.00841952
0.00965571
0.0108402
0.0119443
0.0129632
0.0138541
0.0145767
0.0150264
0.0150312
0.0143935
0.0131582
0.011457
0.00940277
0.0071206
0.00491026
0.00305854
0.00177266
0.000989093
0.000538205
0.000292105
0.000156923
8.28305e-05
4.26992e-05
2.0977e-05
1.00426e-05
4.50845e-06
1.9811e-06
9.1063e-07
5.11788e-07
3.36823e-07
2.29798e-07
1.49189e-07
8.36389e-08
2.4613e-08
2.42572e-25
9.49357e-25
2.14783e-24
3.87874e-24
6.12171e-24
8.87176e-24
1.21174e-23
1.60034e-23
2.08409e-23
2.74592e-23
3.78184e-23
5.82557e-23
1.10212e-22
2.58547e-22
7.13472e-22
2.16516e-21
6.7546e-21
2.13618e-20
6.79095e-20
2.13998e-19
6.81524e-19
2.12211e-18
6.55513e-18
2.01307e-17
6.19177e-17
1.90775e-16
5.74759e-16
1.7118e-15
5.16399e-15
1.51494e-14
4.38603e-14
1.32413e-13
3.76498e-13
1.06461e-12
2.94579e-12
8.26201e-12
2.22628e-11
5.85935e-11
1.62296e-10
4.39872e-10
1.11312e-09
2.77232e-09
6.90732e-09
1.71349e-08
4.30236e-08
1.07174e-07
2.72271e-07
6.20575e-07
1.37441e-06
3.10351e-06
6.99152e-06
1.53627e-05
3.2386e-05
6.57559e-05
0.000116954
0.000201228
0.000344607
0.000580968
0.000933773
0.00142571
0.00207458
0.00284143
0.00375553
0.00479758
0.00593834
0.0071424
0.00838122
0.00960953
0.0107923
0.0119007
0.0129247
0.013818
0.0145441
0.0150022
0.0150161
0.0143859
0.0131525
0.0114491
0.00938872
0.00709801
0.00488104
0.00302906
0.00175168
0.000976575
0.000530812
0.000287739
0.000154326
8.12884e-05
4.17895e-05
2.04903e-05
9.77299e-06
4.38106e-06
1.92226e-06
8.90213e-07
5.0619e-07
3.34895e-07
2.28778e-07
1.48497e-07
8.31936e-08
2.44555e-08
2.32192e-25
8.65338e-25
1.87202e-24
3.29033e-24
5.1899e-24
7.72324e-24
1.09543e-23
1.50569e-23
2.04745e-23
2.81975e-23
4.12654e-23
6.92327e-23
1.42428e-22
3.56641e-22
1.01661e-21
3.0933e-21
9.66807e-21
3.02793e-20
9.50058e-20
2.9982e-19
9.34443e-19
2.88912e-18
8.76657e-18
2.732e-17
8.23343e-17
2.46981e-16
7.38428e-16
2.13482e-15
6.52912e-15
1.92138e-14
5.56614e-14
1.59923e-13
4.57684e-13
1.29108e-12
3.56086e-12
9.86948e-12
2.70964e-11
7.06392e-11
1.94368e-10
5.06528e-10
1.28528e-09
3.21681e-09
7.88331e-09
1.94076e-08
4.75955e-08
1.19266e-07
2.895e-07
6.30449e-07
1.47292e-06
3.3535e-06
7.44969e-06
1.61711e-05
3.37975e-05
6.80599e-05
0.000120402
0.00020632
0.000350631
0.000587628
0.000940888
0.00143131
0.0020764
0.00283836
0.00374607
0.00478127
0.00591524
0.00711438
0.00834907
0.00957232
0.0107552
0.0118643
0.0128909
0.0137865
0.0145169
0.0149811
0.015004
0.0143826
0.0131525
0.0114486
0.00938446
0.00708682
0.0048639
0.00301055
0.00173815
0.000968534
0.000526094
0.000284941
0.000152647
8.02802e-05
4.11869e-05
2.01682e-05
9.59267e-06
4.29698e-06
1.88366e-06
8.77502e-07
5.03168e-07
3.34146e-07
2.28476e-07
1.48276e-07
8.30258e-08
2.43869e-08
2.56437e-25
8.65451e-25
1.87229e-24
3.42343e-24
5.5427e-24
8.32124e-24
1.18186e-23
1.62929e-23
2.23e-23
3.1216e-23
4.74376e-23
8.4773e-23
1.86343e-22
4.87818e-22
1.41268e-21
4.29605e-21
1.33257e-20
4.14899e-20
1.29178e-19
4.01641e-19
1.24399e-18
3.82257e-18
1.16713e-17
3.53758e-17
1.06533e-16
3.18878e-16
9.45724e-16
2.76341e-15
7.97468e-15
2.30568e-14
6.73961e-14
1.95583e-13
5.52956e-13
1.54204e-12
4.20146e-12
1.15013e-11
3.12912e-11
8.0763e-11
2.18435e-10
5.77053e-10
1.45646e-09
3.5945e-09
8.91729e-09
2.16841e-08
5.33126e-08
1.32091e-07
3.01234e-07
6.8308e-07
1.58584e-06
3.5853e-06
7.95399e-06
1.70404e-05
3.52219e-05
7.0274e-05
0.000123526
0.000210359
0.000355515
0.000593012
0.000945657
0.0014339
0.00207497
0.00283206
0.00373354
0.0047633
0.00589037
0.00708061
0.00831463
0.00953548
0.0107196
0.0118287
0.0128575
0.0137559
0.0144899
0.0149611
0.0149943
0.0143836
0.0131592
0.0114572
0.00939188
0.00708854
0.00486003
0.00300345
0.00173216
0.000964811
0.000523829
0.000283544
0.000151776
7.97368e-05
4.08503e-05
1.99855e-05
9.48744e-06
4.24786e-06
1.86114e-06
8.70721e-07
5.02149e-07
3.34316e-07
2.2873e-07
1.48422e-07
8.30763e-08
2.43883e-08
2.78734e-25
1.0594e-24
2.28648e-24
3.99044e-24
6.22319e-24
9.20231e-24
1.30332e-23
1.79341e-23
2.43824e-23
3.42768e-23
5.32283e-23
9.94265e-23
2.28933e-22
6.19045e-22
1.81386e-21
5.51607e-21
1.70421e-20
5.27608e-20
1.62988e-19
5.09376e-19
1.56575e-18
4.74205e-18
1.45882e-17
4.37869e-17
1.31262e-16
3.93598e-16
1.16429e-15
3.41469e-15
9.90451e-15
2.82831e-14
8.0819e-14
2.31216e-13
6.48807e-13
1.80193e-12
4.94009e-12
1.33248e-11
3.56938e-11
9.13411e-11
2.45455e-10
6.39004e-10
1.61864e-09
4.02149e-09
9.86466e-09
2.41224e-08
5.64895e-08
1.29938e-07
3.15358e-07
7.40625e-07
1.69937e-06
3.83256e-06
8.37719e-06
1.776e-05
3.63991e-05
7.20818e-05
0.000125872
0.000213335
0.000359045
0.000596558
0.000948097
0.00143348
0.00206975
0.00282015
0.00371482
0.00473524
0.00585625
0.00704537
0.00827218
0.00949465
0.0106768
0.0117882
0.0128168
0.0137191
0.0144606
0.0149411
0.0149867
0.014389
0.0131724
0.0114748
0.00941084
0.00710277
0.00486867
0.00300679
0.00173293
0.000964901
0.000523694
0.000283351
0.00015159
7.95838e-05
4.0735e-05
1.99166e-05
9.44302e-06
4.22672e-06
1.85127e-06
8.68516e-07
5.02704e-07
3.35213e-07
2.29424e-07
1.48856e-07
8.32979e-08
2.44444e-08
2.79219e-25
1.09362e-24
2.37003e-24
4.15649e-24
6.55589e-24
9.59282e-24
1.34476e-23
1.8386e-23
2.5135e-23
3.60003e-23
5.82832e-23
1.14753e-22
2.74932e-22
7.57317e-22
2.2424e-21
6.78428e-21
2.14147e-20
6.59474e-20
2.03154e-19
6.22894e-19
1.89354e-18
5.83564e-18
1.7619e-17
5.29117e-17
1.57762e-16
4.67959e-16
1.37875e-15
4.02238e-15
1.17991e-14
3.40167e-14
9.67246e-14
2.70899e-13
7.50513e-13
2.06282e-12
5.57954e-12
1.48972e-11
3.92965e-11
1.0102e-10
2.74613e-10
7.0252e-10
1.74518e-09
4.31677e-09
1.05379e-08
2.49095e-08
5.76647e-08
1.41976e-07
3.39459e-07
7.92528e-07
1.81926e-06
4.05513e-06
8.78894e-06
1.84797e-05
3.75144e-05
7.32726e-05
0.000127514
0.000215697
0.000361471
0.000598484
0.000948394
0.00143092
0.00206292
0.00280772
0.00369351
0.00470689
0.00582091
0.00700343
0.00822914
0.00945349
0.0106367
0.0117479
0.0127804
0.0136868
0.0144339
0.0149231
0.0149817
0.0143998
0.0131936
0.0115022
0.00944061
0.00712803
0.00488801
0.00301889
0.00173928
0.000968108
0.00052527
0.000284122
0.000151951
7.97413e-05
4.07951e-05
1.99371e-05
9.44606e-06
4.2272e-06
1.8511e-06
8.69758e-07
5.04427e-07
3.36648e-07
2.30446e-07
1.49508e-07
8.36487e-08
2.45421e-08
3.4412e-25
1.28028e-24
2.69839e-24
4.50977e-24
6.8036e-24
9.6746e-24
1.32014e-23
1.77506e-23
2.43029e-23
3.57775e-23
6.13526e-23
1.27568e-22
3.18384e-22
8.99318e-22
2.6916e-21
8.21212e-21
2.55717e-20
7.85067e-20
2.40533e-19
7.37675e-19
2.22512e-18
6.8453e-18
2.05854e-17
6.15425e-17
1.81283e-16
5.41641e-16
1.58014e-15
4.60354e-15
1.34434e-14
3.87041e-14
1.09792e-13
3.06924e-13
8.44802e-13
2.32626e-12
6.23871e-12
1.65753e-11
4.35317e-11
1.1182e-10
3.00272e-10
7.58955e-10
1.87409e-09
4.56514e-09
1.09092e-08
2.56007e-08
6.2721e-08
1.5268e-07
3.64124e-07
8.51163e-07
1.93822e-06
4.30291e-06
9.30314e-06
1.95345e-05
3.98733e-05
7.36022e-05
0.000128743
0.00021738
0.000362847
0.000598909
0.000946646
0.00142483
0.00205077
0.00278928
0.00367173
0.00467826
0.00578638
0.00696419
0.00818682
0.00940898
0.0105964
0.0117106
0.0127446
0.0136546
0.014406
0.0149041
0.0149773
0.0144119
0.0132173
0.0115332
0.00947632
0.00716059
0.00491489
0.00303738
0.00174978
0.000973668
0.00052819
0.000285632
0.000152725
8.01309e-05
4.09873e-05
2.00248e-05
9.4847e-06
4.24386e-06
1.85813e-06
8.73556e-07
5.07027e-07
3.38489e-07
2.31712e-07
1.50318e-07
8.40936e-08
2.46699e-08
2.95285e-25
1.12096e-24
2.42567e-24
4.1349e-24
6.29029e-24
9.01826e-24
1.25205e-23
1.72132e-23
2.42228e-23
3.70084e-23
6.5741e-23
1.41854e-22
3.63183e-22
1.0397e-21
3.13694e-21
9.60042e-21
2.95423e-20
9.09869e-20
2.79085e-19
8.52318e-19
2.58784e-18
7.80359e-18
2.35502e-17
7.01902e-17
2.07812e-16
6.10236e-16
1.78203e-15
5.11633e-15
1.49836e-14
4.26647e-14
1.18066e-13
3.39039e-13
9.37274e-13
2.53092e-12
6.96925e-12
1.82916e-11
4.72966e-11
1.2116e-10
3.17369e-10
8.17979e-10
2.00091e-09
4.83918e-09
1.15186e-08
2.74014e-08
6.69854e-08
1.62347e-07
3.8599e-07
8.98574e-07
2.0372e-06
4.50147e-06
9.68978e-06
2.02599e-05
4.10588e-05
7.36187e-05
0.000129829
0.000218756
0.000363577
0.000598409
0.000943843
0.00141916
0.00204022
0.00277315
0.0036469
0.00464827
0.00575156
0.00692567
0.00814653
0.00936619
0.0105549
0.0116746
0.0127053
0.0136202
0.0143787
0.014887
0.0149747
0.0144265
0.0132436
0.0115687
0.00951696
0.00719867
0.004947
0.00306024
0.00176314
0.000980878
0.000532049
0.00028771
0.000153835
8.07124e-05
4.12823e-05
2.01629e-05
9.5496e-06
4.27265e-06
1.87061e-06
8.79262e-07
5.10273e-07
3.40605e-07
2.33133e-07
1.51226e-07
8.45975e-08
2.48171e-08
2.24247e-25
8.79672e-25
1.99457e-24
3.65126e-24
5.93322e-24
8.96274e-24
1.29523e-23
1.81795e-23
2.5894e-23
4.00236e-23
7.20478e-23
1.57566e-22
4.07516e-22
1.17665e-21
3.53051e-21
1.07553e-20
3.24268e-20
1.03258e-19
3.1465e-19
9.61356e-19
2.91694e-18
8.79955e-18
2.63854e-17
7.75564e-17
2.33158e-16
6.78056e-16
1.95841e-15
5.62417e-15
1.61777e-14
4.72757e-14
1.31732e-13
3.72054e-13
1.02136e-12
2.79884e-12
7.46841e-12
1.95668e-11
5.03181e-11
1.28426e-10
3.35562e-10
8.68504e-10
2.13124e-09
5.16894e-09
1.21755e-08
2.95084e-08
7.05507e-08
1.70598e-07
4.04528e-07
9.34198e-07
2.10366e-06
4.61934e-06
9.88266e-06
2.05419e-05
4.13642e-05
7.35891e-05
0.000131053
0.000219806
0.000363718
0.00059702
0.000939987
0.00141166
0.00202944
0.00275701
0.00362416
0.00461888
0.00571675
0.00688689
0.00810629
0.00932415
0.0105142
0.0116362
0.0126693
0.01359
0.0143543
0.0148716
0.0149733
0.0144427
0.0132728
0.0116063
0.00956019
0.00724035
0.00498397
0.00308742
0.00177924
0.000989454
0.000536625
0.000290165
0.000155149
8.1409e-05
4.16477e-05
2.03381e-05
9.63449e-06
4.30963e-06
1.88649e-06
8.86103e-07
5.13886e-07
3.42942e-07
2.34715e-07
1.52248e-07
8.51681e-08
2.49847e-08
2.57619e-25
1.01522e-24
2.13408e-24
3.75617e-24
5.94884e-24
8.89104e-24
1.28606e-23
1.81978e-23
2.62563e-23
4.13329e-23
7.60556e-23
1.6988e-22
4.50871e-22
1.28616e-21
3.88028e-21
1.19529e-20
3.70852e-20
1.13615e-19
3.47259e-19
1.0538e-18
3.17173e-18
9.39592e-18
2.89558e-17
8.55263e-17
2.51901e-16
7.34611e-16
2.15235e-15
6.18096e-15
1.7733e-14
5.03256e-14
1.40149e-13
3.99743e-13
1.08033e-12
2.97003e-12
7.87571e-12
2.06576e-11
5.32628e-11
1.33375e-10
3.54033e-10
9.18056e-10
2.22347e-09
5.35538e-09
1.28019e-08
3.10938e-08
7.36353e-08
1.77673e-07
4.18083e-07
9.60002e-07
2.15091e-06
4.70034e-06
1.00078e-05
2.07212e-05
4.151e-05
7.35227e-05
0.000131933
0.00022055
0.000363534
0.000595455
0.000936325
0.00140426
0.00201671
0.00273918
0.00360253
0.00459116
0.00568439
0.00685078
0.00806786
0.00928763
0.0104769
0.0116007
0.0126364
0.0135605
0.0143308
0.0148572
0.0149723
0.0144593
0.0133018
0.0116446
0.00960537
0.00728438
0.00502231
0.00311565
0.00179607
0.000998552
0.000541484
0.000292772
0.000156547
8.21516e-05
4.20371e-05
2.05254e-05
9.7257e-06
4.3502e-06
1.90425e-06
8.93631e-07
5.17699e-07
3.45302e-07
2.36281e-07
1.53253e-07
8.57299e-08
2.51507e-08
3.53244e-25
1.24112e-24
2.5154e-24
4.20746e-24
6.36637e-24
9.12404e-24
1.28339e-23
1.80745e-23
2.63973e-23
4.21314e-23
7.97189e-23
1.83633e-22
4.85605e-22
1.39178e-21
4.2873e-21
1.30269e-20
3.97397e-20
1.23342e-19
3.7503e-19
1.12561e-18
3.48125e-18
1.04258e-17
3.11601e-17
9.18659e-17
2.7264e-16
7.90944e-16
2.29547e-15
6.56966e-15
1.87225e-14
5.37589e-14
1.513e-13
4.21307e-13
1.13856e-12
3.11615e-12
8.16024e-12
2.1163e-11
5.5882e-11
1.39387e-10
3.67144e-10
9.3652e-10
2.35479e-09
5.65145e-09
1.35348e-08
3.1804e-08
7.61244e-08
1.82754e-07
4.28328e-07
9.79833e-07
2.18757e-06
4.76432e-06
1.01087e-05
2.08373e-05
4.15926e-05
7.34531e-05
0.000132486
0.00022092
0.000362887
0.000593369
0.000931831
0.00139707
0.00200533
0.00272288
0.0035808
0.00456552
0.0056544
0.00681729
0.00803225
0.00925086
0.0104411
0.011568
0.0126066
0.0135343
0.0143097
0.0148437
0.0149713
0.0144746
0.0133291
0.0116808
0.00964718
0.00732526
0.00505833
0.0031424
0.0018121
0.0010072
0.000546124
0.000295272
0.000157893
8.28702e-05
4.24158e-05
2.07082e-05
9.81503e-06
4.38969e-06
1.92146e-06
9.00788e-07
5.2124e-07
3.47474e-07
2.3772e-07
1.54178e-07
8.62487e-08
2.53046e-08
2.94663e-25
1.07083e-24
2.32069e-24
4.05399e-24
6.25434e-24
9.05868e-24
1.26925e-23
1.77591e-23
2.59695e-23
4.21737e-23
8.13197e-23
1.90468e-22
5.13783e-22
1.50275e-21
4.55947e-21
1.39697e-20
4.26834e-20
1.31688e-19
4.00071e-19
1.21326e-18
3.68761e-18
1.10793e-17
3.31262e-17
9.82187e-17
2.87891e-16
8.35275e-16
2.42495e-15
6.91313e-15
1.94962e-14
5.60745e-14
1.56227e-13
4.35966e-13
1.19709e-12
3.22275e-12
8.55308e-12
2.24714e-11
5.80739e-11
1.50432e-10
3.85262e-10
9.94986e-10
2.42352e-09
5.74622e-09
1.38054e-08
3.24747e-08
7.80545e-08
1.86696e-07
4.36119e-07
9.94517e-07
2.2136e-06
4.80651e-06
1.01723e-05
2.09145e-05
4.16444e-05
7.33776e-05
0.000132839
0.000221081
0.000362111
0.000591122
0.000927565
0.00138985
0.00199492
0.00270895
0.00356303
0.00454449
0.00562928
0.00678908
0.00800244
0.00922072
0.0104107
0.0115396
0.012581
0.0135118
0.0142913
0.0148323
0.0149704
0.0144876
0.0133524
0.0117116
0.00968307
0.00736071
0.00508976
0.00316585
0.00182628
0.00101486
0.000550251
0.000297501
0.000159096
8.35142e-05
4.27564e-05
2.08733e-05
9.89689e-06
4.42577e-06
1.9372e-06
9.07267e-07
5.24383e-07
3.49377e-07
2.38974e-07
1.54984e-07
8.67005e-08
2.54388e-08
2.39694e-25
9.90927e-25
2.10273e-24
3.58333e-24
5.63113e-24
8.46189e-24
1.23204e-23
1.77823e-23
2.62943e-23
4.30167e-23
8.40822e-23
1.98132e-22
5.37386e-22
1.57562e-21
4.77998e-21
1.46772e-20
4.54017e-20
1.39013e-19
4.23206e-19
1.28275e-18
3.8914e-18
1.16171e-17
3.48562e-17
1.02891e-16
3.01707e-16
8.7709e-16
2.52551e-15
7.18567e-15
2.04102e-14
5.83236e-14
1.62889e-13
4.57429e-13
1.24429e-12
3.34205e-12
8.86316e-12
2.33537e-11
6.0603e-11
1.54933e-10
3.94051e-10
1.00388e-09
2.4587e-09
5.89731e-09
1.38209e-08
3.28778e-08
7.96025e-08
1.89739e-07
4.42058e-07
1.00573e-06
2.23356e-06
4.83915e-06
1.02202e-05
2.097e-05
4.16765e-05
7.3319e-05
0.000133043
0.000221105
0.000361369
0.000589367
0.000924366
0.00138469
0.00198734
0.00269786
0.00354818
0.00452575
0.00560807
0.00676584
0.00797804
0.00919569
0.0103859
0.0115169
0.0125607
0.0134943
0.0142774
0.0148235
0.0149698
0.014498
0.0133709
0.0117362
0.00971177
0.0073893
0.00511526
0.00318497
0.00183783
0.0010211
0.000553618
0.000299321
0.00016008
8.40419e-05
4.3036e-05
2.10091e-05
9.96409e-06
4.45541e-06
1.95015e-06
9.12573e-07
5.2692e-07
3.50906e-07
2.39982e-07
1.55631e-07
8.70643e-08
2.55471e-08
2.96388e-25
1.11643e-24
2.29396e-24
3.90241e-24
5.93206e-24
8.5458e-24
1.20685e-23
1.70949e-23
2.52553e-23
4.20546e-23
8.39419e-23
2.01779e-22
5.54208e-22
1.63777e-21
4.99769e-21
1.53517e-20
4.7189e-20
1.44648e-19
4.41274e-19
1.33828e-18
4.03286e-18
1.20635e-17
3.58291e-17
1.05244e-16
3.11842e-16
9.06262e-16
2.62113e-15
7.4823e-15
2.1494e-14
6.02542e-14
1.67459e-13
4.60404e-13
1.27151e-12
3.40831e-12
9.1386e-12
2.40868e-11
6.1985e-11
1.5593e-10
3.99007e-10
1.01039e-09
2.46861e-09
5.89547e-09
1.39575e-08
3.32531e-08
8.07072e-08
1.91924e-07
4.46297e-07
1.01372e-06
2.24793e-06
4.86348e-06
1.02546e-05
2.1012e-05
4.17015e-05
7.32811e-05
0.000133167
0.0002211
0.000360831
0.000588076
0.000921993
0.00138086
0.00198175
0.00269014
0.00353811
0.00451345
0.00559394
0.00675012
0.00796148
0.00917894
0.0103688
0.0115012
0.0125468
0.0134821
0.0142674
0.0148173
0.0149694
0.0145052
0.013384
0.0117536
0.00973215
0.0074097
0.00513352
0.00319879
0.00184619
0.00102562
0.000556056
0.000300639
0.000160792
8.44235e-05
4.32383e-05
2.11076e-05
1.00129e-05
4.47689e-06
1.95954e-06
9.16403e-07
5.28741e-07
3.52e-07
2.40701e-07
1.56093e-07
8.73233e-08
2.56242e-08
2.45021e-25
9.20969e-25
1.97883e-24
3.50341e-24
5.54656e-24
8.24362e-24
1.18756e-23
1.7053e-23
2.53467e-23
4.24084e-23
8.52357e-23
2.06428e-22
5.69166e-22
1.68083e-21
5.12158e-21
1.57192e-20
4.82706e-20
1.47844e-19
4.49164e-19
1.35662e-18
4.0876e-18
1.22258e-17
3.66422e-17
1.07656e-16
3.1813e-16
9.21699e-16
2.66559e-15
7.68594e-15
2.18318e-14
6.14508e-14
1.71131e-13
4.79035e-13
1.29352e-12
3.46477e-12
9.27834e-12
2.41266e-11
6.26818e-11
1.58183e-10
4.14745e-10
1.04007e-09
2.50056e-09
5.98651e-09
1.39602e-08
3.37987e-08
8.12975e-08
1.93249e-07
4.49079e-07
1.01903e-06
2.25735e-06
4.87888e-06
1.02769e-05
2.10393e-05
4.17236e-05
7.32713e-05
0.000133262
0.000221134
0.000360593
0.000587456
0.000920802
0.00137888
0.00197875
0.00268609
0.00353294
0.00450713
0.00558658
0.00674197
0.00795288
0.00917007
0.0103599
0.011493
0.0125393
0.0134756
0.0142622
0.0148141
0.0149692
0.0145091
0.013391
0.0117629
0.00974306
0.0074207
0.00514341
0.00320629
0.00185077
0.0010281
0.000557396
0.000301363
0.000161184
8.46338e-05
4.33496e-05
2.11618e-05
1.00397e-05
4.48868e-06
1.96467e-06
9.18497e-07
5.29739e-07
3.52595e-07
2.4109e-07
1.56342e-07
8.74633e-08
2.56659e-08
2.67073e-25
1.02238e-24
2.19441e-24
3.82482e-24
5.94797e-24
8.73054e-24
1.2547e-23
1.78873e-23
2.63977e-23
4.36373e-23
8.67631e-23
2.08989e-22
5.73709e-22
1.67203e-21
5.22017e-21
1.59546e-20
4.89275e-20
1.4968e-19
4.56119e-19
1.37909e-18
4.18364e-18
1.25253e-17
3.72692e-17
1.09829e-16
3.19744e-16
9.39967e-16
2.70711e-15
7.77923e-15
2.23145e-14
6.31189e-14
1.75371e-13
4.79465e-13
1.31989e-12
3.57578e-12
9.43857e-12
2.45184e-11
6.36491e-11
1.5897e-10
4.17984e-10
1.03407e-09
2.54025e-09
6.03895e-09
1.42441e-08
3.38462e-08
8.16377e-08
1.94051e-07
4.50718e-07
1.0222e-06
2.26319e-06
4.88903e-06
1.02934e-05
2.10624e-05
4.17505e-05
7.32912e-05
0.000133371
0.00022124
0.000360637
0.000587405
0.000920609
0.00137849
0.00197813
0.00268522
0.00353184
0.00450584
0.00558513
0.00674043
0.00795132
0.00916854
0.0103583
0.0114917
0.0125381
0.0134747
0.0142615
0.0148136
0.0149692
0.0145098
0.0133921
0.0117644
0.00974476
0.0074224
0.00514493
0.00320744
0.00185146
0.00102847
0.000557599
0.000301472
0.000161243
8.46648e-05
4.33658e-05
2.11695e-05
1.00434e-05
4.49036e-06
1.9654e-06
9.18796e-07
5.29885e-07
3.52684e-07
2.41148e-07
1.56378e-07
8.7483e-08
2.56717e-08
2.6587e-25
1.07585e-24
2.37392e-24
4.15451e-24
6.45616e-24
9.39318e-24
1.32101e-23
1.85156e-23
2.70487e-23
4.42141e-23
8.73002e-23
2.10025e-22
5.77971e-22
1.69955e-21
5.23657e-21
1.60293e-20
4.90609e-20
1.48861e-19
4.6042e-19
1.3917e-18
4.21335e-18
1.26342e-17
3.76618e-17
1.11482e-16
3.26504e-16
9.46293e-16
2.69378e-15
7.91968e-15
2.2437e-14
6.33017e-14
1.76964e-13
4.87479e-13
1.33665e-12
3.57852e-12
9.52476e-12
2.46896e-11
6.40598e-11
1.6082e-10
4.20163e-10
1.03984e-09
2.55304e-09
5.9869e-09
1.44109e-08
3.3944e-08
8.16257e-08
1.9436e-07
4.51365e-07
1.02354e-06
2.266e-06
4.89481e-06
1.03049e-05
2.10846e-05
4.17913e-05
7.3358e-05
0.000133522
0.00022148
0.000361111
0.000588181
0.000921789
0.00138021
0.00198051
0.00268838
0.00353586
0.00451071
0.00559077
0.00674668
0.00795794
0.00917526
0.0103651
0.0114979
0.0125438
0.0134796
0.0142655
0.0148162
0.0149695
0.0145071
0.0133871
0.0117577
0.00973683
0.00741442
0.00513774
0.00320198
0.00184813
0.00102667
0.000556623
0.000300943
0.000160956
8.45102e-05
4.32834e-05
2.11294e-05
1.00235e-05
4.48151e-06
1.96152e-06
9.17224e-07
5.2915e-07
3.52246e-07
2.4086e-07
1.56193e-07
8.73784e-08
2.56404e-08
2.40129e-25
8.84055e-25
1.9472e-24
3.50847e-24
5.66191e-24
8.46309e-24
1.21606e-23
1.75382e-23
2.63038e-23
4.36652e-23
8.66531e-23
2.07648e-22
5.6928e-22
1.67929e-21
5.11658e-21
1.56873e-20
4.78858e-20
1.47022e-19
4.51971e-19
1.36883e-18
4.10962e-18
1.24762e-17
3.70639e-17
1.10588e-16
3.22972e-16
9.33951e-16
2.68469e-15
7.78998e-15
2.20812e-14
6.22948e-14
1.73473e-13
4.76859e-13
1.33143e-12
3.54131e-12
9.17298e-12
2.41334e-11
6.28309e-11
1.55968e-10
4.04627e-10
1.04741e-09
2.486e-09
6.03677e-09
1.40425e-08
3.40243e-08
8.15793e-08
1.94054e-07
4.50817e-07
1.02277e-06
2.2653e-06
4.89542e-06
1.03104e-05
2.11036e-05
4.18422e-05
7.34694e-05
0.000133721
0.000221863
0.000362024
0.000589785
0.000924315
0.00138394
0.00198576
0.00269539
0.00354475
0.00452146
0.00560314
0.00676031
0.00797223
0.00918979
0.0103795
0.0115113
0.0125559
0.0134902
0.014274
0.0148216
0.0149701
0.0145011
0.0133762
0.011743
0.00971959
0.0073971
0.00512214
0.00319014
0.00184092
0.00102277
0.000554514
0.000299801
0.000160337
8.41773e-05
4.31065e-05
2.10431e-05
9.98054e-06
4.46261e-06
1.95324e-06
9.13873e-07
5.27581e-07
3.51308e-07
2.40242e-07
1.55794e-07
8.71539e-08
2.55734e-08
3.07252e-25
1.01756e-24
2.04694e-24
3.51265e-24
5.56528e-24
8.26584e-24
1.1959e-23
1.72606e-23
2.58564e-23
4.30583e-23
8.55908e-23
2.04917e-22
5.61248e-22
1.65172e-21
5.00801e-21
1.52998e-20
4.74402e-20
1.44977e-19
4.41932e-19
1.34147e-18
4.06001e-18
1.22591e-17
3.65581e-17
1.08061e-16
3.16685e-16
9.20185e-16
2.65196e-15
7.5994e-15
2.18378e-14
6.15469e-14
1.71792e-13
4.72237e-13
1.29914e-12
3.48408e-12
9.26167e-12
2.42875e-11
6.23994e-11
1.55951e-10
4.06195e-10
1.03722e-09
2.50175e-09
5.92018e-09
1.39556e-08
3.39758e-08
8.1166e-08
1.93144e-07
4.49196e-07
1.02012e-06
2.26163e-06
4.89193e-06
1.03122e-05
2.11241e-05
4.19129e-05
7.36394e-05
0.000133992
0.000222428
0.000363449
0.000592346
0.000928409
0.00139003
0.00199429
0.00270674
0.00355906
0.00453855
0.00562264
0.00678168
0.00799458
0.00921242
0.0104022
0.011532
0.0125745
0.0135065
0.0142873
0.0148299
0.0149709
0.014492
0.0133596
0.0117208
0.00969353
0.00737099
0.00509868
0.00317234
0.00183012
0.00101694
0.000551359
0.000298092
0.000159411
8.36798e-05
4.28421e-05
2.09144e-05
9.91659e-06
4.43439e-06
1.9409e-06
9.08863e-07
5.25219e-07
3.499e-07
2.39316e-07
1.55198e-07
8.68182e-08
2.54732e-08
2.45507e-25
9.56736e-25
1.99386e-24
3.41224e-24
5.34437e-24
8.00908e-24
1.16471e-23
1.6808e-23
2.51957e-23
4.19766e-23
8.32124e-23
1.98629e-22
5.43309e-22
1.60502e-21
4.85509e-21
1.48322e-20
4.54058e-20
1.38701e-19
4.22862e-19
1.2892e-18
3.91311e-18
1.16033e-17
3.52265e-17
1.03195e-16
3.07889e-16
8.9366e-16
2.57607e-15
7.3655e-15
2.11746e-14
6.01247e-14
1.64989e-13
4.67906e-13
1.26682e-12
3.40467e-12
9.06944e-12
2.36827e-11
6.13596e-11
1.5473e-10
3.93567e-10
9.97281e-10
2.47301e-09
5.86867e-09
1.37222e-08
3.35223e-08
8.05207e-08
1.91735e-07
4.46429e-07
1.01515e-06
2.25378e-06
4.88218e-06
1.03064e-05
2.11401e-05
4.19955e-05
7.38605e-05
0.000134303
0.000223111
0.000365259
0.000595667
0.000933788
0.00139812
0.00200572
0.00272213
0.00357886
0.00456167
0.00564858
0.0068099
0.00802403
0.00924226
0.0104316
0.0115593
0.0125987
0.0135274
0.014304
0.0148404
0.0149717
0.0144799
0.0133379
0.011692
0.00965973
0.00733728
0.0050684
0.00314961
0.00181636
0.0010095
0.000547345
0.00029592
0.000158235
8.30478e-05
4.25063e-05
2.07511e-05
9.83555e-06
4.3986e-06
1.9253e-06
9.02509e-07
5.22204e-07
3.48092e-07
2.38125e-07
1.54432e-07
8.63864e-08
2.53444e-08
2.76773e-25
1.02558e-24
2.21044e-24
3.77684e-24
5.86383e-24
8.6995e-24
1.25481e-23
1.77625e-23
2.60346e-23
4.24538e-23
8.19333e-23
1.91461e-22
5.16838e-22
1.51466e-21
4.62875e-21
1.41549e-20
4.33377e-20
1.32593e-19
4.06117e-19
1.21743e-18
3.74518e-18
1.11908e-17
3.3434e-17
9.92141e-17
2.92555e-16
8.52137e-16
2.47539e-15
7.09008e-15
2.04249e-14
5.73491e-14
1.59482e-13
4.46283e-13
1.22019e-12
3.2865e-12
8.55847e-12
2.27933e-11
5.89276e-11
1.49512e-10
3.85519e-10
9.93275e-10
2.38688e-09
5.87619e-09
1.37658e-08
3.29745e-08
7.9252e-08
1.8945e-07
4.42251e-07
1.00763e-06
2.24159e-06
4.86489e-06
1.02901e-05
2.11467e-05
4.20842e-05
7.41228e-05
0.00013457
0.000223857
0.000367363
0.000599571
0.000940143
0.00140766
0.00201906
0.00273971
0.00360058
0.00458787
0.00567891
0.00684334
0.00805923
0.00927736
0.0104657
0.0115904
0.0126269
0.013552
0.0143238
0.0148528
0.0149724
0.0144653
0.013312
0.0116577
0.00961973
0.0072978
0.00503341
0.0031233
0.0018004
0.00100084
0.000542652
0.000293381
0.000156861
8.23099e-05
4.21146e-05
2.0561e-05
9.74136e-06
4.3569e-06
1.90698e-06
8.95025e-07
5.18637e-07
3.45951e-07
2.36716e-07
1.53525e-07
8.58763e-08
2.51924e-08
3.0299e-25
1.03837e-24
2.18333e-24
3.82342e-24
6.05791e-24
9.00709e-24
1.30119e-23
1.84243e-23
2.68529e-23
4.28042e-23
8.01532e-23
1.82396e-22
4.86585e-22
1.41207e-21
4.26555e-21
1.31515e-20
4.0213e-20
1.23067e-19
3.77405e-19
1.14443e-18
3.46709e-18
1.03979e-17
3.15828e-17
9.3597e-17
2.75913e-16
8.03057e-16
2.36729e-15
6.81895e-15
1.94739e-14
5.48373e-14
1.56087e-13
4.2997e-13
1.16868e-12
3.15428e-12
8.39283e-12
2.20597e-11
5.75184e-11
1.45759e-10