/*--------------------------------*- C++ -*----------------------------------*\
  =========                 |
  \\      /  F ield         | OpenFOAM: The Open Source CFD Toolbox
   \\    /   O peration     | Website:  https://openfoam.org
    \\  /    A nd           | Version:  10
     \\/     M anipulation  |
\*---------------------------------------------------------------------------*/
FoamFile
{
    format      ascii;
    class       volScalarField;
    location    "1";
    object      H2;
}
// * * * * * * * * * * * * * * * * * * * * * * * * * * * * * * * * * * * * * //

dimensions      [0 0 0 0 0 0 0];

internalField   nonuniform List<scalar> 
4000
(
4.22597e-29
1.45526e-28
3.85784e-28
1.05976e-27
3.10506e-27
9.33606e-27
2.80709e-26
8.34539e-26
2.44673e-25
7.12156e-25
2.08361e-24
5.6995e-24
1.5384e-23
4.16492e-23
1.13697e-22
3.12678e-22
8.64451e-22
2.48393e-21
7.04986e-21
2.02233e-20
5.82845e-20
1.66557e-19
5.09647e-19
1.49692e-18
4.45984e-18
1.32564e-17
3.89479e-17
1.17912e-16
3.47836e-16
1.02608e-15
3.02666e-15
8.91419e-15
2.59745e-14
7.52226e-14
2.16711e-13
6.03603e-13
1.70601e-12
4.89314e-12
1.36876e-11
3.79167e-11
1.01445e-10
2.66391e-10
6.84553e-10
1.71753e-09
4.20255e-09
1.07725e-08
2.80944e-08
7.21692e-08
1.80526e-07
4.36217e-07
1.0136e-06
2.29686e-06
4.66848e-06
9.87327e-06
2.01901e-05
3.91797e-05
7.10731e-05
0.000125572
0.000210252
0.000332833
0.000497249
0.000693699
0.000929662
0.00119925
0.00149371
0.00180253
0.00211691
0.00242144
0.00271023
0.00298006
0.00322809
0.00345082
0.00364406
0.0037971
0.00389917
0.00395654
0.00399293
0.00401935
0.0040107
0.0039095
0.00365776
0.00325592
0.00277301
0.00228609
0.00178069
0.0012432
0.000815829
0.000513115
0.000310687
0.00018072
0.000100527
5.17699e-05
2.56276e-05
1.25701e-05
6.98227e-06
4.50935e-06
3.05945e-06
1.98766e-06
1.11746e-06
3.30979e-07
1.02531e-28
4.17474e-28
9.18227e-28
1.81255e-27
3.65289e-27
8.18506e-27
2.06188e-26
5.62554e-26
1.54896e-25
4.27975e-25
1.1849e-24
3.29722e-24
9.25325e-24
2.62923e-23
7.57931e-23
2.22132e-22
6.58334e-22
1.97778e-21
6.00449e-21
1.83151e-20
5.61978e-20
1.7352e-19
5.34789e-19
1.64679e-18
5.07084e-18
1.55055e-17
4.72659e-17
1.43534e-16
4.31872e-16
1.28658e-15
3.81603e-15
1.1814e-14
3.47425e-14
1.00211e-13
2.87294e-13
8.11882e-13
2.32781e-12
6.46799e-12
1.79608e-11
4.86977e-11
1.30473e-10
3.38688e-10
8.7028e-10
2.17663e-09
5.5329e-09
1.43916e-08
3.70557e-08
9.33746e-08
2.30219e-07
5.54615e-07
1.1968e-06
2.44697e-06
5.28096e-06
1.09376e-05
2.20753e-05
4.28593e-05
7.56948e-05
0.000131053
0.000216315
0.000337125
0.000499513
0.000693235
0.000925662
0.00119133
0.00148127
0.00178655
0.00209847
0.00240404
0.00269273
0.00296313
0.00321322
0.00343812
0.00363298
0.00378871
0.00389351
0.00395211
0.00398843
0.00401449
0.00400538
0.00390302
0.00364888
0.00324301
0.00275666
0.00226758
0.00175855
0.00122228
0.000799462
0.000501302
0.000302173
0.000175002
9.68487e-05
4.95992e-05
2.44343e-05
1.20312e-05
6.76334e-06
4.39643e-06
2.98565e-06
1.93941e-06
1.0897e-06
3.2213e-07
2.63232e-28
8.65735e-28
1.69166e-27
2.79071e-27
4.37067e-27
6.71237e-27
1.12931e-26
2.22462e-26
5.23486e-26
1.43898e-25
4.33536e-25
1.37408e-24
4.47111e-24
1.46891e-23
4.84125e-23
1.59545e-22
5.24183e-22
1.69094e-21
5.71098e-21
1.85102e-20
6.00568e-20
1.93532e-19
6.18744e-19
1.95966e-18
6.14685e-18
1.91206e-17
5.92073e-17
1.83491e-16
5.55751e-16
1.6711e-15
5.12346e-15
1.51796e-14
4.39419e-14
1.28385e-13
3.72404e-13
1.05557e-12
2.9413e-12
8.14133e-12
2.23286e-11
5.97477e-11
1.57982e-10
3.94758e-10
1.05284e-09
2.58713e-09
6.77706e-09
1.72251e-08
4.4368e-08
1.10716e-07
2.64434e-07
6.25084e-07
1.34259e-06
2.76354e-06
5.93017e-06
1.244e-05
2.43241e-05
4.47894e-05
7.794e-05
0.000133906
0.000219535
0.000340697
0.000502058
0.000693834
0.000923184
0.00118457
0.00147074
0.00177261
0.00208151
0.00238463
0.00267489
0.00294675
0.00319958
0.00342556
0.00362208
0.00377963
0.00388662
0.00394625
0.00398236
0.00400789
0.00399798
0.00389376
0.00363546
0.0032245
0.00273406
0.00224044
0.0017248
0.0011912
0.000775374
0.00048375
0.000290397
0.000167004
9.1761e-05
4.66796e-05
2.29171e-05
1.13569e-05
6.4899e-06
4.25706e-06
2.90078e-06
1.88468e-06
1.05828e-06
3.12348e-07
2.30507e-28
7.98066e-28
1.64141e-27
2.66704e-27
4.06993e-27
6.23935e-27
1.05998e-26
2.23425e-26
5.74454e-26
1.69303e-25
5.43425e-25
1.78854e-24
6.02736e-24
2.00946e-23
6.69196e-23
2.21935e-22
7.32504e-22
2.40413e-21
7.8361e-21
2.53782e-20
8.1581e-20
2.61424e-19
8.3006e-19
2.61608e-18
8.27625e-18
2.56823e-17
7.91089e-17
2.4122e-16
7.13044e-16
2.2254e-15
6.59096e-15
1.94602e-14
5.66689e-14
1.64413e-13
4.72582e-13
1.33046e-12
3.67913e-12
1.01639e-11
2.72168e-11
7.40326e-11
1.93961e-10
4.94418e-10
1.27569e-09
3.13527e-09
7.8539e-09
2.03577e-08
5.17379e-08
1.26477e-07
3.06656e-07
6.66918e-07
1.41406e-06
3.15253e-06
6.77307e-06
1.37632e-05
2.64564e-05
4.61075e-05
8.02049e-05
0.000136871
0.000223154
0.000343603
0.000503712
0.000693585
0.000920423
0.00117914
0.0014622
0.00176088
0.00206677
0.00236935
0.0026594
0.00293176
0.00318523
0.00341255
0.00361142
0.00377125
0.00387954
0.00394028
0.00397567
0.00400027
0.00398935
0.00388323
0.00362168
0.00320685
0.00271483
0.00220597
0.00168596
0.00115823
0.000751156
0.000467371
0.000280018
0.000158719
8.6774e-05
4.39954e-05
2.1523e-05
1.07442e-05
6.23103e-06
4.12588e-06
2.8194e-06
1.8322e-06
1.02812e-06
3.02965e-07
1.52641e-28
5.44975e-28
1.18275e-27
2.17558e-27
3.74263e-27
6.5731e-27
1.318e-26
3.13803e-26
8.6153e-26
2.63576e-25
8.33266e-25
2.70286e-24
8.92559e-24
2.92438e-23
9.71704e-23
3.17671e-22
1.03499e-21
3.40974e-21
1.10576e-20
3.56297e-20
1.14197e-19
3.61823e-19
1.13897e-18
3.56042e-18
1.1062e-17
3.40781e-17
1.04188e-16
3.19642e-16
9.61569e-16
2.8641e-15
8.46355e-15
2.53845e-14
7.32531e-14
2.10777e-13
5.96472e-13
1.66519e-12
4.56812e-12
1.22469e-11
3.34692e-11
8.87789e-11
2.30145e-10
5.86258e-10
1.45922e-09
3.6757e-09
9.12767e-09
2.34209e-08
5.8258e-08
1.4376e-07
3.2233e-07
6.90994e-07
1.56885e-06
3.45488e-06
7.43313e-06
1.52612e-05
2.73268e-05
4.75469e-05
8.24151e-05
0.000139461
0.00022572
0.000346254
0.00050556
0.000694094
0.000918917
0.00117515
0.00145531
0.00175063
0.00205534
0.00235766
0.0026481
0.00292033
0.00317452
0.00340302
0.00360278
0.00376349
0.00387313
0.00393464
0.00396975
0.00399358
0.0039818
0.00387386
0.00360828
0.00318821
0.00269208
0.0021802
0.00165416
0.00113074
0.000730563
0.000452938
0.000270298
0.000152595
8.29903e-05
4.19078e-05
2.04397e-05
1.02727e-05
6.03141e-06
4.02073e-06
2.75321e-06
1.78933e-06
1.0034e-06
2.95291e-07
1.10002e-28
4.46052e-28
1.07352e-27
2.15111e-27
4.12604e-27
8.48447e-27
1.99506e-26
5.36697e-26
1.57801e-25
4.86494e-25
1.52802e-24
4.8306e-24
1.56299e-23
4.98789e-23
1.59141e-22
5.12941e-22
1.63722e-21
5.22147e-21
1.66471e-20
5.2505e-20
1.67246e-19
5.20704e-19
1.60812e-18
4.93754e-18
1.51836e-17
4.67718e-17
1.40882e-16
4.19491e-16
1.26525e-15
3.71111e-15
1.07416e-14
3.24267e-14
9.21847e-14
2.60626e-13
7.21007e-13
2.02202e-12
5.44777e-12
1.4336e-11
3.97099e-11
1.07613e-10
2.72292e-10
6.78128e-10
1.68944e-09
4.19068e-09
1.05223e-08
2.62084e-08
6.65796e-08
1.51735e-07
3.36039e-07
7.58754e-07
1.70919e-06
3.75544e-06
7.91632e-06
1.6072e-05
2.85837e-05
4.91763e-05
8.42068e-05
0.000141947
0.00022812
0.000348255
0.000506689
0.000693888
0.000916998
0.00117131
0.00144972
0.00174371
0.00204645
0.002347
0.00263716
0.00291052
0.00316604
0.00339516
0.00359562
0.00375779
0.00386847
0.00393025
0.00396506
0.00398838
0.00397583
0.00386629
0.00359773
0.00317363
0.00267476
0.00216098
0.00163007
0.00110989
0.000714834
0.000441822
0.000262766
0.000147938
8.0107e-05
4.03552e-05
1.96432e-05
9.9311e-06
5.88772e-06
3.9435e-06
2.70394e-06
1.75716e-06
9.84751e-07
2.895e-07
1.07251e-28
4.2263e-28
1.00246e-27
2.09829e-27
4.46545e-27
1.05963e-26
2.77723e-26
7.93971e-26
2.39376e-25
7.41085e-25
2.325e-24
7.34013e-24
2.32289e-23
7.35246e-23
2.33097e-22
7.40489e-22
2.35255e-21
7.4118e-21
2.33037e-20
7.3584e-20
2.29349e-19
7.0899e-19
2.1507e-18
6.70149e-18
2.0191e-17
6.05542e-17
1.81001e-16
5.23138e-16
1.59985e-15
4.70702e-15
1.36336e-14
3.91641e-14
1.12066e-13
3.16067e-13
8.71586e-13
2.41553e-12
6.63098e-12
1.72843e-11
4.7558e-11
1.23922e-10
3.14424e-10
7.86874e-10
1.92817e-09
4.74693e-09
1.16402e-08
2.91666e-08
7.07925e-08
1.54158e-07
3.60141e-07
8.19905e-07
1.82129e-06
3.95322e-06
8.26167e-06
1.66358e-05
2.94276e-05
5.04232e-05
8.56835e-05
0.000143583
0.000229875
0.000349652
0.000507183
0.000693217
0.000914802
0.00116749
0.0014443
0.00173715
0.00203896
0.0023384
0.0026287
0.00290232
0.00315855
0.00338825
0.00358957
0.00375267
0.00386434
0.00392659
0.00396102
0.00398395
0.00397101
0.00386073
0.00359037
0.00316362
0.00266276
0.00214768
0.00161329
0.00109534
0.000703804
0.000433983
0.000257429
0.000144645
7.80644e-05
3.92663e-05
1.90879e-05
9.69499e-06
5.78743e-06
3.88953e-06
2.66945e-06
1.73459e-06
9.71635e-07
2.85421e-07
1.29584e-28
4.58537e-28
1.12164e-27
2.54326e-27
5.80694e-27
1.44012e-26
3.91645e-26
1.14303e-25
3.47372e-25
1.07688e-24
3.3668e-24
1.05738e-23
3.33083e-23
1.0497e-22
3.29643e-22
1.03534e-21
3.25081e-21
1.01661e-20
3.16984e-20
9.85939e-20
3.05358e-19
9.3814e-19
2.86374e-18
8.67796e-18
2.61272e-17
7.81876e-17
2.31834e-16
6.77269e-16
1.95406e-15
5.64869e-15
1.65085e-14
4.79002e-14
1.354e-13
3.77533e-13
1.02848e-12
2.81504e-12
7.65782e-12
1.97618e-11
5.34457e-11
1.41185e-10
3.56313e-10
8.79312e-10
2.18122e-09
5.3039e-09
1.30387e-08
3.23046e-08
7.36661e-08
1.67037e-07
3.87769e-07
8.76621e-07
1.94467e-06
4.16595e-06
8.61027e-06
1.71778e-05
3.01926e-05
5.14127e-05
8.68818e-05
0.000144908
0.000231057
0.000350316
0.00050688
0.00069175
0.00091185
0.00116324
0.00143844
0.00172921
0.00203091
0.00232986
0.00262055
0.00289427
0.00315108
0.00338146
0.00358347
0.00374763
0.00386046
0.00392336
0.00395771
0.00398036
0.00396745
0.00385723
0.00358636
0.00315819
0.00265596
0.00213988
0.00160314
0.00108636
0.00069689
0.000429001
0.000253999
0.000142515
7.6734e-05
3.85567e-05
1.87266e-05
9.54278e-06
5.72309e-06
3.85508e-06
2.6474e-06
1.7201e-06
9.63171e-07
2.82777e-07
1.5026e-28
6.02423e-28
1.46505e-27
3.21742e-27
7.31942e-27
1.84964e-26
5.11962e-26
1.50762e-25
4.59505e-25
1.42972e-24
4.46034e-24
1.3941e-23
4.36223e-23
1.37106e-22
4.28131e-22
1.33517e-21
4.16436e-21
1.29361e-20
4.00051e-20
1.2506e-19
3.84369e-19
1.16387e-18
3.57966e-18
1.07419e-17
3.21943e-17
9.65134e-17
2.85434e-16
8.36957e-16
2.42714e-15
6.92934e-15
1.97976e-14
5.66301e-14
1.5888e-13
4.41178e-13
1.20935e-12
3.26136e-12
8.73529e-12
2.23511e-11
6.006e-11
1.56342e-10
3.96016e-10
9.8385e-10
2.41312e-09
5.90048e-09
1.38169e-08
3.17802e-08
7.71257e-08
1.8112e-07
4.15553e-07
9.3714e-07
2.04826e-06
4.34208e-06
8.89845e-06
1.76205e-05
3.07672e-05
5.21423e-05
8.77489e-05
0.000145783
0.000231669
0.000350242
0.000505654
0.000688921
0.000907394
0.00115657
0.00143034
0.00172088
0.00202093
0.00232035
0.00261067
0.00288505
0.00314194
0.00337321
0.00357674
0.0037424
0.00385673
0.0039205
0.0039549
0.00397746
0.00396494
0.00385558
0.00358536
0.00315683
0.00265369
0.00213677
0.00159856
0.00108202
0.000693365
0.00042636
0.000252123
0.00014132
7.59726e-05
3.81468e-05
1.85165e-05
9.45547e-06
5.68729e-06
3.83624e-06
2.63538e-06
1.71212e-06
9.58465e-07
2.81291e-07
1.53035e-28
6.45157e-28
1.60675e-27
3.63574e-27
8.66556e-27
2.24613e-26
6.34625e-26
1.88981e-25
5.78576e-25
1.79384e-24
5.59742e-24
1.75502e-23
5.47589e-23
1.70951e-22
5.33364e-22
1.64689e-21
5.23928e-21
1.61776e-20
4.98763e-20
1.52945e-19
4.64875e-19
1.43241e-18
4.32366e-18
1.29811e-17
3.86952e-17
1.14754e-16
3.38026e-16
9.85959e-16
2.89159e-15
8.33466e-15
2.36944e-14
6.63492e-14
1.83787e-13
5.05076e-13
1.36589e-12
3.64638e-12
9.61768e-12
2.47218e-11
6.72031e-11
1.71896e-10
4.26992e-10
1.05612e-09
2.57795e-09
6.09347e-09
1.41054e-08
3.47271e-08
8.3026e-08
1.93827e-07
4.4491e-07
9.91639e-07
2.14908e-06
4.5183e-06
9.17155e-06
1.7912e-05
3.11697e-05
5.27216e-05
8.83457e-05
0.000146262
0.000231755
0.000349637
0.000504022
0.000685942
0.000902288
0.00114979
0.00142191
0.00171091
0.00201075
0.00231069
0.00260136
0.00287581
0.00313365
0.00336583
0.00357038
0.00373727
0.00385286
0.00391765
0.00395221
0.00397486
0.00396316
0.00385537
0.00358679
0.0031588
0.0026551
0.0021374
0.00159838
0.0010813
0.000692492
0.000425544
0.000251456
0.000140847
7.56471e-05
3.79647e-05
1.84207e-05
9.41684e-06
5.673e-06
3.82947e-06
2.63114e-06
1.70923e-06
9.5668e-07
2.80703e-07
1.9205e-28
7.69896e-28
1.88654e-27
4.1839e-27
9.93975e-27
2.61703e-26
7.47841e-26
2.24475e-25
6.89341e-25
2.14269e-24
6.76784e-24
2.11319e-23
6.59082e-23
2.06375e-22
6.44448e-22
1.99867e-21
6.26239e-21
1.9266e-20
5.9064e-20
1.8115e-19
5.46337e-19
1.68038e-18
5.052e-18
1.50994e-17
4.44663e-17
1.32827e-16
3.87414e-16
1.12845e-15
3.29462e-15
9.48325e-15
2.68956e-14
7.51731e-14
2.06875e-13
5.69588e-13
1.52734e-12
4.0574e-12
1.06549e-11
2.73681e-11
7.34824e-11
1.8572e-10
4.58571e-10
1.11697e-09
2.66906e-09
6.26289e-09
1.53434e-08
3.73475e-08
8.90648e-08
2.08184e-07
4.74034e-07
1.05229e-06
2.27495e-06
4.77652e-06
9.74902e-06
1.79929e-05
3.14711e-05
5.31349e-05
8.86858e-05
0.000146372
0.000231341
0.000348175
0.000501097
0.0006815
0.000897046
0.00114291
0.00141363
0.00170154
0.00200069
0.00230018
0.00259192
0.00286717
0.00312539
0.00335838
0.00356369
0.00373193
0.00384931
0.00391537
0.00395017
0.00397299
0.00396219
0.00385634
0.00359007
0.00316326
0.00265928
0.0021409
0.0016016
0.00108334
0.000693609
0.000426091
0.000251693
0.000140913
7.56462e-05
3.79517e-05
1.8409e-05
9.41398e-06
5.67461e-06
3.83157e-06
2.63264e-06
1.71008e-06
9.57055e-07
2.8078e-07
1.68315e-28
7.04354e-28
1.83925e-27
4.33489e-27
1.07856e-26
2.9348e-26
8.55135e-26
2.59435e-25
8.01275e-25
2.51323e-24
7.87428e-24
2.46341e-23
7.68869e-23
2.40851e-22
7.53907e-22
2.3401e-21
7.23866e-21
2.23344e-20
6.85404e-20
2.09323e-19
6.35447e-19
1.91574e-18
5.77999e-18
1.72224e-17
5.09767e-17
1.49654e-16
4.36914e-16
1.25416e-15
3.67213e-15
1.04538e-14
2.89211e-14
8.30443e-14
2.29534e-13
6.19686e-13
1.70627e-12
4.4776e-12
1.15766e-11
2.96542e-11
7.76696e-11
2.00173e-10
4.8963e-10
1.18406e-09
2.81824e-09
6.70359e-09
1.63871e-08
3.97133e-08
9.44148e-08
2.19779e-07
4.98231e-07
1.10082e-06
2.3694e-06
4.95366e-06
1.00383e-05
1.79976e-05
3.17376e-05
5.34733e-05
8.88679e-05
0.000146256
0.000230668
0.000346806
0.000498546
0.000677602
0.000891051
0.00113568
0.00140526
0.00169231
0.00199107
0.00229003
0.00258217
0.0028588
0.00311618
0.00335033
0.00355703
0.00372691
0.00384601
0.00391328
0.00394845
0.00397143
0.0039617
0.0038581
0.00359458
0.00316942
0.0026654
0.00214646
0.00160733
0.00108751
0.000696281
0.000427695
0.000252603
0.00014137
7.58794e-05
3.80611e-05
1.84582e-05
9.43684e-06
5.6876e-06
3.83993e-06
2.63815e-06
1.71352e-06
9.58934e-07
2.8132e-07
1.36692e-28
6.0943e-28
1.72588e-27
4.42929e-27
1.16826e-26
3.26931e-26
9.6365e-26
2.93343e-25
9.11235e-25
2.85202e-24
8.93828e-24
2.79724e-23
8.7267e-23
2.74031e-22
8.50289e-22
2.62384e-21
7.94753e-21
2.53519e-20
7.72831e-20
2.36116e-19
7.1629e-19
2.16031e-18
6.47594e-18
1.90288e-17
5.71962e-17
1.66287e-16
4.80161e-16
1.3786e-15
3.96493e-15
1.1584e-14
3.22708e-14
9.11319e-14
2.50128e-13
6.85331e-13
1.82844e-12
4.78973e-12
1.23162e-11
3.14338e-11
8.21273e-11
2.12543e-10
5.21537e-10
1.26477e-09
2.97888e-09
7.21943e-09
1.72591e-08
4.1731e-08
9.8946e-08
2.28483e-07
5.14465e-07
1.1296e-06
2.4165e-06
5.02256e-06
1.0113e-05
1.79906e-05
3.20377e-05
5.37315e-05
8.89053e-05
0.000145923
0.000229735
0.00034499
0.000495934
0.000673696
0.000885553
0.00112858
0.00139687
0.00168299
0.00198144
0.00228
0.00257252
0.00284974
0.00310772
0.00334314
0.00355092
0.00372211
0.00384274
0.00391133
0.00394687
0.00397015
0.00396158
0.00386047
0.00360019
0.00317709
0.0026731
0.00215344
0.00161469
0.00109299
0.000699909
0.000429964
0.000253976
0.000142107
7.62822e-05
3.82533e-05
1.85472e-05
9.47624e-06
5.70791e-06
3.8527e-06
2.64667e-06
1.71899e-06
9.61981e-07
2.82217e-07
1.58502e-28
7.13551e-28
1.88847e-27
4.80447e-27
1.27563e-26
3.61508e-26
1.07658e-25
3.29071e-25
1.02004e-24
3.18187e-24
9.93822e-24
3.09762e-23
9.77875e-23
3.00744e-22
9.36028e-22
2.91826e-21
9.09335e-21
2.78974e-20
8.52946e-20
2.58822e-19
7.78844e-19
2.30659e-18
7.10699e-18
2.0986e-17
6.17932e-17
1.80165e-16
5.27737e-16
1.51514e-15
4.34611e-15
1.23314e-14
3.43323e-14
9.79156e-14
2.64561e-13
7.27275e-13
1.92814e-12
5.05685e-12
1.30369e-11
3.26433e-11
8.66441e-11
2.24673e-10
5.44093e-10
1.3104e-09
3.13214e-09
7.60726e-09
1.80134e-08
4.34608e-08
1.02259e-07
2.34788e-07
5.2601e-07
1.1494e-06
2.44709e-06
5.0664e-06
1.01487e-05
1.79747e-05
3.22534e-05
5.39146e-05
8.88623e-05
0.000145544
0.000228847
0.000343193
0.000492847
0.000669372
0.000880312
0.00112188
0.00138906
0.00167429
0.00197221
0.00227127
0.00256364
0.00284134
0.00309994
0.00333609
0.00354503
0.00371762
0.00383979
0.00390957
0.00394552
0.00396906
0.00396163
0.00386305
0.00360602
0.00318512
0.00268131
0.00216109
0.00162281
0.0010991
0.000703997
0.000432551
0.000255554
0.00014297
7.67616e-05
3.84902e-05
1.86605e-05
9.5263e-06
5.73287e-06
3.86778e-06
2.65657e-06
1.72533e-06
9.65528e-07
2.83271e-07
2.17378e-28
8.56846e-28
2.18554e-27
5.3551e-27
1.39431e-26
3.92533e-26
1.17413e-25
3.58737e-25
1.10713e-24
3.41745e-24
1.08062e-23
3.42456e-23
1.06202e-22
3.26568e-22
1.03603e-21
3.18209e-21
9.74549e-21
3.02878e-20
9.21178e-20
2.76445e-19
8.54886e-19
2.55957e-18
7.64788e-18
2.25404e-17
6.68799e-17
1.93969e-16
5.62803e-16
1.61042e-15
4.58859e-15
1.31726e-14
3.70664e-14
1.03192e-13
2.78814e-13
7.63027e-13
1.99781e-12
5.18057e-12
1.36781e-11
3.4115e-11
8.98543e-11
2.2919e-10
5.76252e-10
1.3829e-09
3.31167e-09
7.78082e-09
1.86221e-08
4.47032e-08
1.04764e-07
2.39637e-07
5.34971e-07
1.16504e-06
2.47176e-06
5.0948e-06
1.0169e-05
1.79579e-05
3.23891e-05
5.40059e-05
8.87063e-05
0.000145038
0.000227755
0.000341447
0.000490082
0.000665417
0.000875044
0.00111567
0.00138181
0.00166621
0.00196365
0.00226246
0.0025551
0.00283355
0.00309286
0.00332981
0.00353969
0.00371341
0.00383706
0.003908
0.00394434
0.00396811
0.00396174
0.0038655
0.00361155
0.00319277
0.0026892
0.00216848
0.00163078
0.00110515
0.000708082
0.000435156
0.000257156
0.000143854
7.72562e-05
3.87344e-05
1.87773e-05
9.57743e-06
5.75803e-06
3.88289e-06
2.66649e-06
1.7317e-06
9.69113e-07
2.84342e-07
1.92883e-28
8.03629e-28
2.19571e-27
5.58588e-27
1.48386e-26
4.21519e-26
1.2581e-25
3.8588e-25
1.19745e-24
3.72622e-24
1.16314e-23
3.64538e-23
1.1372e-22
3.54472e-22
1.10345e-21
3.41415e-21
1.04693e-20
3.2338e-20
9.8269e-20
2.97991e-19
9.05526e-19
2.71996e-18
8.1302e-18
2.4099e-17
7.06177e-17
2.04838e-16
5.94546e-16
1.69459e-15
4.77802e-15
1.374e-14
3.82731e-14
1.06788e-13
2.9317e-13
7.89162e-13
2.09415e-12
5.50135e-12
1.42164e-11
3.68235e-11
9.42897e-11
2.43505e-10
5.93055e-10
1.40596e-09
3.37776e-09
7.94497e-09
1.90942e-08
4.56673e-08
1.06669e-07
2.43227e-07
5.41336e-07
1.17535e-06
2.48731e-06
5.1137e-06
1.01818e-05
1.79396e-05
3.24756e-05
5.40461e-05
8.85177e-05
0.000144491
0.000226717
0.000339692
0.000487553
0.000662032
0.000870731
0.00111057
0.00137573
0.0016594
0.00195647
0.00225522
0.00254782
0.0028268
0.00308676
0.0033244
0.00353505
0.00370984
0.00383476
0.00390669
0.00394339
0.00396737
0.00396189
0.00386767
0.00361639
0.0031995
0.00269623
0.0021751
0.00163796
0.00111065
0.000711811
0.000437546
0.000258633
0.000144676
7.77231e-05
3.89646e-05
1.88877e-05
9.6256e-06
5.78143e-06
3.89682e-06
2.6756e-06
1.73756e-06
9.7241e-07
2.85328e-07
1.62052e-28
7.78628e-28
2.14049e-27
5.53167e-27
1.51271e-26
4.38257e-26
1.32092e-25
4.06883e-25
1.26296e-24
3.92878e-24
1.23207e-23
3.83992e-23
1.1964e-22
3.7257e-22
1.15791e-21
3.58857e-21
1.1138e-20
3.41392e-20
1.03954e-19
3.15058e-19
9.55547e-19
2.8519e-18
8.55463e-18
2.52454e-17
7.4008e-17
2.15094e-16
6.19197e-16
1.76127e-15
5.00189e-15
1.42915e-14
3.99074e-14
1.12048e-13
3.04747e-13
8.18403e-13
2.17018e-12
5.71757e-12
1.48354e-11
3.7924e-11
9.64385e-11
2.45677e-10
6.01653e-10
1.443e-09
3.38162e-09
8.0433e-09
1.94729e-08
4.64114e-08
1.08121e-07
2.45968e-07
5.46217e-07
1.18333e-06
2.49904e-06
5.12729e-06
1.01896e-05
1.79254e-05
3.25256e-05
5.40522e-05
8.83371e-05
0.000144063
0.000225937
0.000338434
0.000485707
0.000659335
0.000867125
0.00110603
0.00137059
0.00165378
0.00195058
0.0022492
0.00254187
0.00282136
0.00308192
0.00332017
0.00353151
0.00370708
0.00383296
0.00390569
0.00394268
0.00396683
0.00396206
0.00386944
0.00362034
0.00320499
0.00270197
0.00218054
0.00164388
0.0011152
0.000714907
0.000439536
0.000259867
0.000145365
7.81142e-05
3.91577e-05
1.89805e-05
9.66598e-06
5.80087e-06
3.90836e-06
2.68316e-06
1.74242e-06
9.75152e-07
2.8615e-07
1.99885e-28
8.55846e-28
2.27012e-27
5.83788e-27
1.56972e-26
4.51658e-26
1.35974e-25
4.19265e-25
1.30639e-24
4.07967e-24
1.2744e-23
3.97922e-23
1.24255e-22
3.88269e-22
1.21177e-21
3.75459e-21
1.15777e-20
3.5525e-20
1.08395e-19
3.28698e-19
9.90291e-19
2.96149e-18
8.79337e-18
2.58225e-17
7.64956e-17
2.22257e-16
6.42674e-16
1.83419e-15
5.26806e-15
1.47652e-14
4.10282e-14
1.12777e-13
3.11423e-13
8.34673e-13
2.23767e-12
5.89692e-12
1.51731e-11
3.81673e-11
9.76551e-11
2.47251e-10
6.04081e-10
1.44255e-09
3.41496e-09
8.1351e-09
1.97431e-08
4.69458e-08
1.09158e-07
2.47922e-07
5.49729e-07
1.18928e-06
2.50744e-06
5.13754e-06
1.01958e-05
1.79161e-05
3.25559e-05
5.40509e-05
8.82057e-05
0.000143748
0.000225358
0.0003375
0.000484345
0.000657454
0.000864674
0.00110303
0.00136716
0.00164997
0.00194657
0.00224516
0.00253775
0.00281761
0.00307858
0.0033172
0.00352895
0.00370512
0.0038317
0.00390499
0.0039422
0.00396647
0.0039622
0.00387073
0.00362317
0.00320897
0.00270612
0.00218447
0.00164817
0.00111851
0.000717158
0.000440984
0.000260765
0.000145868
7.84002e-05
3.92989e-05
1.90485e-05
9.69551e-06
5.81504e-06
3.91676e-06
2.68864e-06
1.74594e-06
9.77138e-07
2.86745e-07
1.74629e-28
7.60287e-28
2.13258e-27
5.697e-27
1.57641e-26
4.60241e-26
1.39225e-25
4.29881e-25
1.34074e-24
4.19727e-24
1.31359e-23
4.10561e-23
1.28092e-22
3.99063e-22
1.24255e-21
3.8455e-21
1.18444e-20
3.63117e-20
1.10337e-19
3.33213e-19
1.00376e-18
3.00151e-18
8.993e-18
2.64149e-17
7.8041e-17
2.26053e-16
6.53619e-16
1.88421e-15
5.35105e-15
1.50586e-14
4.19272e-14
1.17348e-13
3.16823e-13
8.48515e-13
2.27186e-12
5.90692e-12
1.53441e-11
3.87194e-11
1.01511e-10
2.54534e-10
6.1188e-10
1.46484e-09
3.41553e-09
8.26866e-09
1.98874e-08
4.72693e-08
1.09838e-07
2.49218e-07
5.52028e-07
1.19304e-06
2.51288e-06
5.14419e-06
1.02011e-05
1.79136e-05
3.25791e-05
5.40589e-05
8.81469e-05
0.000143596
0.000225066
0.000337014
0.000483609
0.000656464
0.00086341
0.00110149
0.00136537
0.00164798
0.00194448
0.00224301
0.00253559
0.00281562
0.00307677
0.00331562
0.00352762
0.00370409
0.00383103
0.00390462
0.00394195
0.00396629
0.00396229
0.00387143
0.00362471
0.00321113
0.00270841
0.00218664
0.00165054
0.00112034
0.000718403
0.000441785
0.000261261
0.000146146
7.85577e-05
3.93766e-05
1.90858e-05
9.71171e-06
5.82283e-06
3.92134e-06
2.69162e-06
1.74785e-06
9.78214e-07
2.87068e-07
1.87254e-28
8.23002e-28
2.28652e-27
5.95062e-27
1.61831e-26
4.67413e-26
1.40792e-25
4.33903e-25
1.35381e-24
4.25798e-24
1.33257e-23
4.16266e-23
1.2934e-22
3.97265e-22
1.26737e-21
3.9041e-21
1.2007e-20
3.67652e-20
1.12052e-19
3.38743e-19
1.0274e-18
3.07507e-18
9.1474e-18
2.69489e-17
7.84366e-17
2.30538e-16
6.63807e-16
1.90718e-15
5.46944e-15
1.54674e-14
4.2967e-14
1.17443e-13
3.23286e-13
8.75671e-13
2.31103e-12
6.00262e-12
1.55805e-11
3.89098e-11
1.02305e-10
2.53068e-10
6.21627e-10
1.47766e-09
3.48504e-09
8.28014e-09
1.99704e-08
4.74651e-08
1.10237e-07
2.49991e-07
5.5345e-07
1.19551e-06
2.51687e-06
5.14979e-06
1.02076e-05
1.79183e-05
3.26053e-05
5.40843e-05
8.81566e-05
0.000143582
0.000225016
0.000336916
0.000483454
0.000656245
0.000863133
0.00110117
0.001365
0.00164759
0.00194408
0.00224261
0.0025352
0.00281527
0.00307646
0.00331535
0.00352739
0.00370391
0.00383092
0.00390455
0.0039419
0.00396625
0.00396229
0.00387152
0.00362493
0.00321145
0.00270874
0.00218696
0.00165089
0.00112061
0.000718585
0.0004419
0.000261331
0.000146184
7.85789e-05
3.93871e-05
1.90907e-05
9.71385e-06
5.82386e-06
3.92194e-06
2.692e-06
1.74809e-06
9.78341e-07
2.87105e-07
1.78752e-28
8.35799e-28
2.35693e-27
6.11738e-27
1.65276e-26
4.74843e-26
1.42639e-25
4.39147e-25
1.36737e-24
4.27494e-24
1.33747e-23
4.1806e-23
1.30287e-22
4.03831e-22
1.27111e-21
3.92213e-21
1.20392e-20
3.65634e-20
1.13109e-19
3.41848e-19
1.0347e-18
3.10186e-18
9.24389e-18
2.73549e-17
8.00952e-17
2.32079e-16
6.60473e-16
1.94154e-15
5.4993e-15
1.5512e-14
4.3356e-14
1.19409e-13
3.27374e-13
8.76317e-13
2.3321e-12
6.04423e-12
1.56812e-11
3.93615e-11
1.02833e-10
2.54465e-10
6.24758e-10
1.46483e-09
3.52591e-09
8.30401e-09
1.99671e-08
4.75398e-08
1.10394e-07
2.50316e-07
5.54129e-07
1.1969e-06
2.51966e-06
5.15512e-06
1.02174e-05
1.79343e-05
3.26417e-05
5.41418e-05
8.82709e-05
0.000143769
0.0002253
0.000337329
0.000484025
0.000657003
0.000864095
0.00110233
0.00136634
0.00164907
0.00194565
0.00224419
0.00253677
0.00281671
0.00307776
0.0033165
0.00352836
0.00370465
0.00383139
0.00390479
0.00394206
0.00396636
0.0039622
0.00387099
0.00362379
0.00320985
0.00270706
0.00218536
0.00164914
0.00111925
0.000717657
0.000441299
0.000260956
0.000145973
7.84581e-05
3.9327e-05
1.90616e-05
9.70115e-06
5.81778e-06
3.91834e-06
2.68964e-06
1.74656e-06
9.77473e-07
2.86844e-07
1.69767e-28
7.37194e-28
2.12001e-27
5.73768e-27
1.59927e-26
4.66474e-26
1.41071e-25
4.3547e-25
1.3558e-24
4.23161e-24
1.32002e-23
4.11141e-23
1.27969e-22
3.98627e-22
1.24135e-21
3.83756e-21
1.17497e-20
3.61098e-20
1.11029e-19
3.36224e-19
1.00917e-18
3.06284e-18
9.09654e-18
2.71348e-17
7.92255e-17
2.29043e-16
6.58266e-16
1.90963e-15
5.41186e-15
1.52651e-14
4.25011e-14
1.16811e-13
3.26086e-13
8.67156e-13
2.24566e-12
5.90789e-12
1.53791e-11
3.81731e-11
9.90228e-11
2.56327e-10
6.08298e-10
1.47707e-09
3.43554e-09
8.32367e-09
1.99554e-08
4.74643e-08
1.10258e-07
2.50121e-07
5.53947e-07
1.19702e-06
2.52095e-06
5.15965e-06
1.02296e-05
1.79611e-05
3.26895e-05
5.42343e-05
8.84921e-05
0.000144157
0.000225912
0.000338231
0.000485293
0.000658695
0.000866238
0.00110492
0.00136931
0.00165234
0.00194906
0.00224764
0.00254019
0.00281985
0.00308058
0.00331898
0.00353045
0.00370627
0.00383241
0.00390534
0.00394241
0.00396661
0.00396203
0.00386984
0.00362131
0.00320639
0.00270342
0.00218191
0.00164537
0.00111633
0.000715658
0.000440007
0.000260151
0.00014552
7.81997e-05
3.91991e-05
1.89997e-05
9.67433e-06
5.80498e-06
3.91074e-06
2.68465e-06
1.74333e-06
9.75645e-07
2.86294e-07
2.07152e-28
7.96517e-28
2.13887e-27
5.59602e-27
1.57291e-26
4.56234e-26
1.37846e-25
4.25155e-25
1.32334e-24
4.13381e-24
1.29224e-23
4.03574e-23
1.25811e-22
3.91533e-22
1.21411e-21
3.74145e-21
1.16388e-20
3.56047e-20
1.08556e-19
3.29487e-19
9.96989e-19
3.00953e-18
8.97237e-18
2.65142e-17
7.76829e-17
2.25669e-16
6.50234e-16
1.86291e-15
5.35219e-15
1.50814e-14
4.20867e-14
1.15675e-13
3.18173e-13
8.53176e-13
2.2676e-12
5.94562e-12
1.52732e-11
3.81688e-11
9.94132e-11
2.53819e-10
6.1215e-10
1.4485e-09
3.41414e-09
8.31153e-09
1.98541e-08
4.72407e-08
1.09859e-07
2.49468e-07
5.53036e-07
1.19614e-06
2.52132e-06
5.16454e-06
1.02466e-05
1.80022e-05
3.27549e-05
5.43708e-05
8.88376e-05
0.000144778
0.000226904
0.000339708
0.000487358
0.000661439
0.000869693
0.00110904
0.001374
0.00165746
0.0019544
0.00225303
0.00254555
0.00282473
0.00308496
0.00332282
0.00353371
0.00370875
0.00383399
0.00390618
0.00394297
0.003967
0.00396177
0.00386811
0.00361758
0.00320119
0.00269798
0.00217675
0.00163973
0.00111197
0.000712679
0.000438084
0.000258954
0.000144849
7.78166e-05
3.90092e-05
1.89082e-05
9.63452e-06
5.78588e-06
3.89944e-06
2.67724e-06
1.73855e-06
9.72938e-07
2.85481e-07
1.68322e-28
7.53611e-28
2.07134e-27
5.45487e-27
1.50457e-26
4.38272e-26
1.32654e-25
4.10847e-25
1.27855e-24
3.99066e-24
1.24604e-23
3.88854e-23
1.21371e-22
3.79882e-22
1.17625e-21
3.62606e-21
1.11375e-20
3.40591e-20
1.03863e-19
3.16627e-19
9.60847e-19
2.84827e-18
8.64559e-18
2.53198e-17
7.5524e-17
2.19158e-16
6.31608e-16
1.80554e-15
5.18963e-15
1.4732e-14
4.04171e-14
1.14612e-13
3.10252e-13
8.33695e-13
2.22048e-12
5.79756e-12
1.50193e-11
3.78703e-11
9.63173e-11
2.44047e-10
6.05112e-10
1.43581e-09
3.35696e-09
8.20051e-09
1.96957e-08
4.68951e-08
1.0918e-07
2.48246e-07
5.51103e-07
1.19372e-06
2.51982e-06
5.16829e-06
1.02665e-05
1.80556e-05
3.28298e-05
5.45359e-05
8.92767e-05
0.000145584
0.000228209
0.000341669
0.000490126
0.000665165
0.00087448
0.00111462
0.00138025
0.00166424
0.00196144
0.00226013
0.00255252
0.00283115
0.00309064
0.00332777
0.00353786
0.00371193
0.00383601
0.00390727
0.00394372
0.00396754
0.00396146
0.00386588
0.00361277
0.00319454
0.00269102
0.00217015
0.00163252
0.00110642
0.000708892
0.000435641
0.000257434
0.000143997
7.73315e-05
3.87689e-05
1.87926e-05
9.58424e-06
5.76169e-06
3.88509e-06
2.66782e-06
1.73247e-06
9.69496e-07
2.84447e-07
1.83884e-28
7.69932e-28
2.12768e-27
5.44988e-27
1.46867e-26
4.2145e-26
1.27137e-25
3.89211e-25
1.20638e-24
3.79536e-24
1.18187e-23
3.68074e-23
1.14617e-22
3.57537e-22
1.12048e-21
3.4593e-21
1.06284e-20
3.25563e-20
9.97411e-20
2.98956e-19
9.19581e-19
2.74706e-18
8.20517e-18
2.4342e-17
7.17608e-17
2.08973e-16
6.06907e-16
1.7379e-15
5.00559e-15
1.40518e-14
3.90685e-14
1.09306e-13
2.98818e-13
8.04703e-13
2.09527e-12
5.57967e-12
1.44235e-11
3.65927e-11
9.43464e-11
2.43059e-10
5.83996e-10
1.43768e-09
3.3677e-09
8.0663e-09
1.93849e-08
4.6335e-08
1.08155e-07
2.46402e-07
5.48105e-07
1.18946e-06
2.51575e-06
5.16972e-06
1.02877e-05
1.81191e-05
3.28937e-05
5.47159e-05
8.9787e-05
0.000146532
0.000229751
0.000343982
0.00049336
0.000669419
0.000879729
0.00112094
0.00138755
0.00167227
0.00196987
0.0022685
0.00256062
0.00283849
0.00309727
0.00333361
0.00354279
0.00371573
0.00383844
0.00390861
0.00394466
0.00396824
0.00396114
0.00386331
0.00360719
0.00318679
0.00268291
0.00216246
0.00162412
0.00109998
0.000704503
0.000432814
0.000255677
0.000143017
7.67742e-05
3.84919e-05
1.86586e-05
9.52582e-06
5.73352e-06
3.86838e-06
2.65687e-06
1.72541e-06
9.65507e-07
2.8325e-07
1.99739e-28
7.72922e-28
2.06368e-27
5.27929e-27
1.40778e-26
3.97396e-26
1.20381e-25
3.66942e-25
1.13451e-24
3.5251e-24
1.09607e-23
3.41009e-23
1.0662e-22
3.31654e-22
1.03043e-21
3.21174e-21