/*--------------------------------*- C++ -*----------------------------------*\
  =========                 |
  \\      /  F ield         | OpenFOAM: The Open Source CFD Toolbox
   \\    /   O peration     | Website:  https://openfoam.org
    \\  /    A nd           | Version:  10
     \\/     M anipulation  |
\*---------------------------------------------------------------------------*/
FoamFile
{
    format      ascii;
    class       volScalarField;
    location    "1";
    object      H2O2;
}
// * * * * * * * * * * * * * * * * * * * * * * * * * * * * * * * * * * * * * //

dimensions      [0 0 0 0 0 0 0];

internalField   nonuniform List<scalar> 
4000
(
2.38137e-32
1.48893e-31
6.54582e-31
2.51706e-30
9.04288e-30
3.04062e-29
9.71212e-29
2.98925e-28
8.96312e-28
2.65269e-27
7.8704e-27
2.18762e-26
6.0061e-26
1.65529e-25
4.60342e-25
1.29052e-24
3.63746e-24
1.067e-23
3.09111e-23
9.05609e-23
2.66621e-22
7.7864e-22
2.43354e-21
7.30549e-21
2.22511e-20
6.75886e-20
2.02812e-19
6.27491e-19
1.89038e-18
5.69366e-18
1.71414e-17
5.15089e-17
1.53105e-16
4.52008e-16
1.32744e-15
3.76457e-15
1.08366e-14
3.16331e-14
9.00544e-14
2.53684e-13
6.89471e-13
1.83821e-12
4.79192e-12
1.21947e-11
3.02622e-11
7.86048e-11
2.07664e-10
5.39846e-10
1.3654e-09
3.33342e-09
7.82246e-09
1.78905e-08
3.66413e-08
7.80687e-08
1.60643e-07
3.13185e-07
5.69951e-07
1.00871e-06
1.68794e-06
2.66549e-06
3.95909e-06
5.4699e-06
7.21358e-06
9.06646e-06
1.08472e-05
1.23342e-05
1.32716e-05
1.33863e-05
1.25013e-05
1.05909e-05
7.91722e-06
5.07694e-06
2.74304e-06
1.28719e-06
5.67963e-07
2.53537e-07
1.19032e-07
6.04289e-08
3.47893e-08
2.49281e-08
2.45779e-08
3.22788e-08
4.95569e-08
8.05852e-08
1.32874e-07
2.17068e-07
3.13937e-07
4.10746e-07
5.06092e-07
6.04887e-07
7.14206e-07
8.45116e-07
9.98957e-07
1.19788e-06
1.46342e-06
1.68661e-06
1.50467e-06
1.11002e-06
6.66155e-07
2.03056e-07
2.23412e-32
1.30914e-31
4.89126e-31
1.69234e-30
5.6437e-30
1.82654e-29
5.75827e-29
1.7745e-28
5.20441e-28
1.49258e-27
4.24012e-27
1.20533e-26
3.45128e-26
1.0007e-25
2.94582e-25
8.82348e-25
2.67429e-24
8.22268e-24
2.55631e-23
7.98624e-23
2.50999e-22
7.94028e-22
2.50673e-21
7.90607e-21
2.49362e-20
7.80509e-20
2.4348e-19
7.56312e-19
2.32709e-18
7.08572e-18
2.14878e-17
6.79448e-17
2.03982e-16
6.00256e-16
1.75455e-15
5.05554e-15
1.47617e-14
4.17923e-14
1.18044e-13
3.25514e-13
8.86401e-13
2.33736e-12
6.09858e-12
1.54772e-11
3.99146e-11
1.05162e-10
2.74274e-10
6.99462e-10
1.74392e-09
4.24489e-09
9.25332e-09
1.90702e-08
4.15052e-08
8.6603e-08
1.75921e-07
3.43401e-07
6.08658e-07
1.05606e-06
1.74315e-06
2.70971e-06
3.99384e-06
5.49356e-06
7.22547e-06
9.0699e-06
1.08531e-05
1.23578e-05
1.33334e-05
1.3503e-05
1.26848e-05
1.08241e-05
8.14998e-06
5.26408e-06
2.87014e-06
1.35222e-06
5.95306e-07
2.64666e-07
1.23783e-07
6.25862e-08
3.58877e-08
2.5634e-08
2.52267e-08
3.31622e-08
5.09697e-08
8.28521e-08
1.36491e-07
2.22257e-07
3.19924e-07
4.17315e-07
5.13713e-07
6.13669e-07
7.24558e-07
8.5738e-07
1.01387e-06
1.21639e-06
1.48735e-06
1.68354e-06
1.47979e-06
1.08392e-06
6.48002e-07
1.96811e-07
1.2219e-32
6.38125e-32
2.16714e-31
6.62108e-31
1.95131e-30
5.64756e-30
1.61803e-29
4.66337e-29
1.38726e-28
4.33837e-28
1.39839e-27
4.61742e-27
1.55007e-26
5.239e-26
1.77554e-25
6.01809e-25
2.03409e-24
6.75355e-24
2.34649e-23
7.82529e-23
2.61143e-22
8.65086e-22
2.8419e-21
9.24307e-21
2.97553e-20
9.4943e-20
3.01385e-19
9.57303e-19
2.96849e-18
9.13312e-18
2.86662e-17
8.67945e-17
2.56716e-16
7.65817e-16
2.26645e-15
6.55216e-15
1.8609e-14
5.24565e-14
1.46516e-13
3.98774e-13
1.07246e-12
2.72256e-12
7.37164e-12
1.83963e-11
4.88799e-11
1.2595e-10
3.28694e-10
8.30275e-10
2.00595e-09
4.79334e-09
1.03901e-08
2.15666e-08
4.66681e-08
9.86376e-08
1.94102e-07
3.59284e-07
6.27692e-07
1.08121e-06
1.77361e-06
2.74804e-06
4.03172e-06
5.52757e-06
7.25382e-06
9.0972e-06
1.08851e-05
1.24066e-05
1.34207e-05
1.36577e-05
1.28848e-05
1.10584e-05
8.37088e-06
5.45466e-06
2.99736e-06
1.42072e-06
6.25857e-07
2.77488e-07
1.29367e-07
6.51748e-08
3.72501e-08
2.65564e-08
2.61618e-08
3.44212e-08
5.29594e-08
8.61926e-08
1.41967e-07
2.2988e-07
3.28587e-07
4.26777e-07
5.23906e-07
6.25612e-07
7.38306e-07
8.72995e-07
1.03192e-06
1.23863e-06
1.51487e-06
1.67541e-06
1.45004e-06
1.0533e-06
6.26992e-07
1.89757e-07
7.04799e-33
3.61504e-32
1.24688e-31
3.92725e-31
1.21381e-30
3.78343e-30
1.20587e-29
4.05073e-29
1.36485e-28
4.64583e-28
1.61601e-27
5.60264e-27
1.96813e-26
6.80695e-26
2.34753e-25
8.05512e-25
2.74875e-24
9.32013e-24
3.13644e-23
1.04809e-22
3.47459e-22
1.14711e-21
3.75051e-21
1.21625e-20
3.95754e-20
1.2616e-19
3.99017e-19
1.24824e-18
3.78248e-18
1.20974e-17
3.66815e-17
1.10797e-16
3.29864e-16
9.77381e-16
2.86808e-15
8.2384e-15
2.32317e-14
6.53967e-14
1.78407e-13
4.93449e-13
1.31514e-12
3.40519e-12
8.92897e-12
2.2277e-11
5.66235e-11
1.48888e-10
3.83444e-10
9.49167e-10
2.32878e-09
5.11501e-09
1.09484e-08
2.46418e-08
5.3387e-08
1.09288e-07
2.11453e-07
3.70455e-07
6.47242e-07
1.10773e-06
1.80843e-06
2.78073e-06
4.06103e-06
5.5518e-06
7.27284e-06
9.11393e-06
1.09093e-05
1.24512e-05
1.35057e-05
1.37897e-05
1.30756e-05
1.12911e-05
8.61864e-06
5.66384e-06
3.12867e-06
1.48604e-06
6.56516e-07
2.87857e-07
1.34289e-07
6.76794e-08
3.86801e-08
2.75664e-08
2.71281e-08
3.56645e-08
5.4817e-08
9.01538e-08
1.48007e-07
2.37642e-07
3.36907e-07
4.35231e-07
5.32727e-07
6.37322e-07
7.51179e-07
8.87219e-07
1.04919e-06
1.26032e-06
1.54206e-06
1.66495e-06
1.42046e-06
1.02436e-06
6.07017e-07
1.83067e-07
8.91921e-33
4.64314e-32
1.65594e-31
5.45052e-31
1.76521e-30
5.73867e-30
1.88304e-29
6.23098e-29
2.07096e-28
7.07672e-28
2.39655e-27
8.18167e-27
2.82296e-26
9.62443e-26
3.32188e-25
1.12641e-24
3.80256e-24
1.29764e-23
4.35288e-23
1.44961e-22
4.79732e-22
1.56846e-21
5.09025e-21
1.6392e-20
5.24219e-20
1.66076e-19
5.21734e-19
1.64467e-18
5.0751e-18
1.5496e-17
4.69182e-17
1.44059e-16
4.25081e-16
1.25005e-15
3.6125e-15
1.02957e-14
2.87982e-14
7.86614e-14
2.18934e-13
5.9114e-13
1.55881e-12
4.03489e-12
1.02013e-11
2.60984e-11
6.57625e-11
1.71224e-10
4.31773e-10
1.07934e-09
2.44613e-09
5.29906e-09
1.21595e-08
2.70367e-08
5.86783e-08
1.21393e-07
2.18662e-07
3.82533e-07
6.66145e-07
1.13067e-06
1.83288e-06
2.81007e-06
4.08999e-06
5.57911e-06
7.2974e-06
9.13844e-06
1.09416e-05
1.25047e-05
1.35852e-05
1.38991e-05
1.3222e-05
1.14755e-05
8.809e-06
5.81948e-06
3.23423e-06
1.54501e-06
6.83626e-07
2.99061e-07
1.39199e-07
7.00645e-08
3.99817e-08
2.8465e-08
2.80515e-08
3.69486e-08
5.68693e-08
9.34768e-08
1.53388e-07
2.44515e-07
3.44382e-07
4.43084e-07
5.41204e-07
6.46714e-07
7.61855e-07
8.99237e-07
1.06357e-06
1.27796e-06
1.56281e-06
1.65438e-06
1.39522e-06
1.00013e-06
5.9006e-07
1.77486e-07
1.50142e-32
8.07354e-32
2.94071e-31
9.9233e-31
3.28652e-30
1.08519e-29
3.58605e-29
1.18782e-28
3.94177e-28
1.31112e-27
4.35325e-27
1.44174e-26
4.86809e-26
1.61724e-25
5.36368e-25
1.79573e-24
5.94556e-24
1.96517e-23
6.48911e-23
2.11702e-22
6.96904e-22
2.24016e-21
7.13625e-21
2.25805e-20
7.15193e-20
2.26789e-19
7.02344e-19
2.14878e-18
6.65272e-18
2.00095e-17
5.93572e-17
1.83484e-16
5.33631e-16
1.54224e-15
4.35869e-15
1.24748e-14
3.4277e-14
9.19274e-14
2.59341e-13
7.15862e-13
1.84217e-12
4.66205e-12
1.18013e-11
2.97298e-11
7.57516e-11
1.91549e-10
4.93249e-10
1.13824e-09
2.54917e-09
5.82119e-09
1.32545e-08
2.94064e-08
6.25342e-08
1.27963e-07
2.28986e-07
3.9614e-07
6.81613e-07
1.15319e-06
1.85654e-06
2.83395e-06
4.11264e-06
5.59806e-06
7.31338e-06
9.1544e-06
1.09626e-05
1.25383e-05
1.36485e-05
1.40032e-05
1.33652e-05
1.16334e-05
8.96075e-06
5.95026e-06
3.3255e-06
1.59155e-06
7.0439e-07
3.07997e-07
1.43218e-07
7.19894e-08
4.10431e-08
2.92246e-08
2.88212e-08
3.80053e-08
5.85211e-08
9.61351e-08
1.57741e-07
2.50023e-07
3.50398e-07
4.49446e-07
5.48078e-07
6.54196e-07
7.70351e-07
9.08513e-07
1.07449e-06
1.29093e-06
1.57674e-06
1.64492e-06
1.37562e-06
9.81762e-07
5.77577e-07
1.73346e-07
2.4044e-32
1.26324e-31
4.64824e-31
1.55865e-30
5.10583e-30
1.69681e-29
5.56194e-29
1.83047e-28
6.03709e-28
1.99176e-27
6.57664e-27
2.17232e-26
7.17068e-26
2.36328e-25
7.79251e-25
2.57223e-24
8.48345e-24
2.77081e-23
9.02326e-23
2.9492e-22
9.50234e-22
3.03394e-21
9.49777e-21
3.05073e-20
9.46902e-20
2.92252e-19
8.98422e-19
2.66783e-18
8.37749e-18
2.52949e-17
7.50948e-17
2.20939e-16
6.46908e-16
1.866e-15
5.25806e-15
1.48736e-14
4.16628e-14
1.10692e-13
3.10375e-13
8.23544e-13
2.12512e-12
5.40738e-12
1.34633e-11
3.36439e-11
8.37711e-11
2.12953e-10
5.23989e-10
1.15462e-09
2.73123e-09
6.29051e-09
1.41243e-08
3.0964e-08
6.52955e-08
1.32548e-07
2.35966e-07
4.06655e-07
6.94463e-07
1.16826e-06
1.87451e-06
2.85203e-06
4.12787e-06
5.61072e-06
7.3233e-06
9.16391e-06
1.09763e-05
1.25622e-05
1.36916e-05
1.40769e-05
1.34695e-05
1.17629e-05
9.09393e-06
6.06644e-06
3.40427e-06
1.63434e-06
7.23907e-07
3.16149e-07
1.46967e-07
7.38011e-08
4.20291e-08
2.98893e-08
2.94521e-08
3.88257e-08
5.97764e-08
9.81199e-08
1.60972e-07
2.54086e-07
3.54863e-07
4.54203e-07
5.53247e-07
6.59815e-07
7.76727e-07
9.15403e-07
1.08259e-06
1.30049e-06
1.58654e-06
1.6375e-06
1.36117e-06
9.68415e-07
5.68568e-07
1.7037e-07
3.46547e-32
1.82927e-31
6.69332e-31
2.26416e-30
7.49833e-30
2.46965e-29
8.12213e-29
2.67082e-28
8.78196e-28
2.88668e-27
9.47814e-27
3.11198e-26
1.02243e-25
3.35559e-25
1.09611e-24
3.57763e-24
1.16628e-23
3.78244e-23
1.22192e-22
3.9339e-22
1.26003e-21
3.99896e-21
1.25986e-20
3.93664e-20
1.22103e-19
3.76102e-19
1.14689e-18
3.44252e-18
1.01964e-17
3.0236e-17
9.06354e-17
2.69422e-16
7.79552e-16
2.22259e-15
6.18612e-15
1.72921e-14
4.80154e-14
1.26328e-13
3.48267e-13
9.36763e-13
2.40566e-12
6.03536e-12
1.52185e-11
3.75721e-11
9.38187e-11
2.35828e-10
5.44734e-10
1.25065e-09
2.94001e-09
6.72481e-09
1.50803e-08
3.26318e-08
6.8069e-08
1.36936e-07
2.42278e-07
4.15028e-07
7.05035e-07
1.18082e-06
1.8876e-06
2.86373e-06
4.13604e-06
5.61518e-06
7.32449e-06
9.16519e-06
1.09822e-05
1.25802e-05
1.37277e-05
1.41413e-05
1.35631e-05
1.18852e-05
9.22371e-06
6.18031e-06
3.48547e-06
1.67878e-06
7.44248e-07
3.24662e-07
1.50745e-07
7.56017e-08
4.29763e-08
3.04766e-08
2.99488e-08
3.94142e-08
6.06369e-08
9.94562e-08
1.63129e-07
2.5682e-07
3.5791e-07
4.57505e-07
5.56883e-07
6.63802e-07
7.81272e-07
9.20325e-07
1.08837e-06
1.30731e-06
1.59332e-06
1.63229e-06
1.35127e-06
9.59264e-07
5.62391e-07
1.68331e-07
4.56253e-32
2.41828e-31
8.88161e-31
3.00899e-30
9.98031e-30
3.28671e-29
1.07905e-28
3.53963e-28
1.16099e-27
3.8214e-27
1.25057e-26
4.0843e-26
1.33265e-25
4.36233e-25
1.41689e-24
4.59241e-24
1.48729e-23
4.79258e-23
1.53598e-22
4.9712e-22
1.58061e-21
4.94331e-21
1.56995e-20
4.85806e-20
1.50022e-19
4.63115e-19
1.40863e-18
4.24456e-18
1.26384e-17
3.7017e-17
1.084e-16
3.17654e-16
9.12323e-16
2.59175e-15
7.26133e-15
2.00062e-14
5.46825e-14
1.42621e-13
3.90652e-13
1.03588e-12
2.66921e-12
6.74359e-12
1.68175e-11
4.17712e-11
9.92391e-11
2.31432e-10
5.69562e-10
1.35543e-09
3.14915e-09
7.18521e-09
1.58784e-08
3.40091e-08
7.03604e-08
1.40527e-07
2.47045e-07
4.21261e-07
7.12853e-07
1.18961e-06
1.89589e-06
2.86899e-06
4.13639e-06
5.60988e-06
7.31494e-06
9.15399e-06
1.0976e-05
1.25869e-05
1.37587e-05
1.4203e-05
1.36659e-05
1.20173e-05
9.37889e-06
6.3193e-06
3.57828e-06
1.7281e-06
7.66239e-07
3.33679e-07
1.54693e-07
7.74456e-08
4.39165e-08
3.10085e-08
3.03328e-08
3.98011e-08
6.1153e-08
1.00232e-07
1.64362e-07
2.58432e-07
3.5978e-07
4.596e-07
5.59251e-07
6.66456e-07
7.8433e-07
9.23655e-07
1.09226e-06
1.31182e-06
1.59754e-06
1.62897e-06
1.345e-06
9.5346e-07
5.58465e-07
1.67034e-07
5.47398e-32
3.06231e-31
1.10958e-30
3.74228e-30
1.25324e-29
4.12548e-29
1.35865e-28
4.46078e-28
1.46177e-27
4.7816e-27
1.56363e-26
5.1223e-26
1.66639e-25
5.41789e-25
1.75868e-24
5.64241e-24
1.86532e-23
5.97481e-23
1.90918e-22
6.06144e-22
1.90572e-21
6.06886e-21
1.89119e-20
5.85633e-20
1.79884e-19
5.49216e-19
1.66428e-18
4.98907e-18
1.503e-17
4.4453e-17
1.29539e-16
3.71515e-16
1.05316e-15
2.95988e-15
8.18239e-15
2.2308e-14
6.004e-14
1.57371e-13
4.36178e-13
1.1367e-12
2.87282e-12
7.22798e-12
1.79339e-11
4.30434e-11
1.01106e-10
2.52674e-10
6.12666e-10
1.44948e-09
3.3688e-09
7.59808e-09
1.66524e-08
3.53808e-08
7.25198e-08
1.42894e-07
2.50404e-07
4.26256e-07
7.18376e-07
1.1949e-06
1.89921e-06
2.8687e-06
4.13082e-06
5.5981e-06
7.29568e-06
9.13257e-06
1.09586e-05
1.25818e-05
1.37752e-05
1.42495e-05
1.37494e-05
1.21393e-05
9.51482e-06
6.44114e-06
3.66505e-06
1.77652e-06
7.89521e-07
3.43505e-07
1.59075e-07
7.94804e-08
4.4903e-08
3.15125e-08
3.06307e-08
4.00261e-08
6.13902e-08
1.00555e-07
1.6485e-07
2.59144e-07
3.60707e-07
4.60738e-07
5.6062e-07
6.68071e-07
7.86232e-07
9.25775e-07
1.09474e-06
1.31468e-06
1.60024e-06
1.62737e-06
1.34164e-06
9.50271e-07
5.56282e-07
1.66309e-07
6.60337e-32
3.66908e-31
1.33561e-30
4.52451e-30
1.50082e-29
4.9427e-29
1.62371e-28
5.32479e-28
1.7415e-27
5.69834e-27
1.8856e-26
6.14743e-26
1.99897e-25
6.5201e-25
2.11831e-24
6.82988e-24
2.22218e-23
7.09245e-23
2.25351e-22
7.15647e-22
2.23213e-21
7.0988e-21
2.20366e-20
6.79406e-20
2.06136e-19
6.34219e-19
1.90293e-18
5.69798e-18
1.70899e-17
5.04841e-17
1.46784e-16
4.20192e-16
1.18348e-15
3.33191e-15
9.12989e-15
2.47673e-14
6.63748e-14
1.73808e-13
4.7621e-13
1.22535e-12
3.07874e-12
7.62801e-12
1.85252e-11
4.41686e-11
1.09898e-10
2.71569e-10
6.56834e-10
1.5558e-09
3.58779e-09
8.06111e-09
1.76269e-08
3.7406e-08
7.71008e-08
1.43579e-07
2.52947e-07
4.29872e-07
7.21728e-07
1.19706e-06
1.89832e-06
2.86186e-06
4.11585e-06
5.57533e-06
7.27064e-06
9.1045e-06
1.0934e-05
1.25689e-05
1.37841e-05
1.42901e-05
1.38223e-05
1.22431e-05
9.64082e-06
6.55999e-06
3.75636e-06
1.82917e-06
8.13517e-07
3.53098e-07
1.63267e-07
8.13745e-08
4.58168e-08
3.19533e-08
3.08458e-08
4.012e-08
6.14112e-08
1.00533e-07
1.64772e-07
2.5918e-07
3.60932e-07
4.61162e-07
5.61241e-07
6.68913e-07
7.8728e-07
9.26992e-07
1.09616e-06
1.3163e-06
1.60181e-06
1.62704e-06
1.34042e-06
9.49011e-07
5.55384e-07
1.66004e-07
7.9205e-32
4.22482e-31
1.54663e-30
5.23581e-30
1.73452e-29
5.70805e-29
1.8759e-28
6.16665e-28
2.02209e-27
6.66991e-27
2.18748e-26
7.14581e-26
2.32554e-25
7.58787e-25
2.47155e-24
7.97361e-24
2.56136e-23
8.19923e-23
2.60805e-22
8.24789e-22
2.59035e-21
8.07124e-21
2.51495e-20
7.73069e-20
2.35849e-19
7.12953e-19
2.14143e-18
6.31664e-18
1.90064e-17
5.5524e-17
1.57471e-16
4.63123e-16
1.31066e-15
3.61997e-15
1.01861e-14
2.73001e-14
7.20191e-14
1.8812e-13
5.02451e-13
1.31898e-12
3.28269e-12
8.0766e-12
1.95428e-11
4.72549e-11
1.17338e-10
2.88729e-10
6.96308e-10
1.64303e-09
3.77312e-09
8.43951e-09
1.83764e-08
3.88338e-08
7.94718e-08
1.43628e-07
2.55195e-07
4.32867e-07
7.23738e-07
1.19715e-06
1.89489e-06
2.85379e-06
4.10058e-06
5.55278e-06
7.23859e-06
9.07075e-06
1.09039e-05
1.25502e-05
1.37867e-05
1.43234e-05
1.38916e-05
1.23396e-05
9.77441e-06
6.68691e-06
3.84858e-06
1.88044e-06
8.36973e-07
3.62837e-07
1.6744e-07
8.32872e-08
4.67195e-08
3.23633e-08
3.10055e-08
4.01212e-08
6.12767e-08
1.00257e-07
1.64274e-07
2.58713e-07
3.60635e-07
4.61063e-07
5.61325e-07
6.69201e-07
7.87719e-07
9.2758e-07
1.09684e-06
1.31703e-06
1.60261e-06
1.62764e-06
1.34072e-06
9.49111e-07
5.55392e-07
1.65997e-07
8.69721e-32
4.74007e-31
1.74207e-30
5.89101e-30
1.95203e-29
6.43078e-29
2.11613e-28
6.96031e-28
2.29441e-27
7.54975e-27
2.47642e-26
8.09185e-26
2.63171e-25
8.6083e-25
2.77859e-24
8.91129e-24
2.80242e-23
9.28202e-23
2.93317e-22
9.28182e-22
2.91339e-21
9.08304e-21
2.81175e-20
8.52415e-20
2.64047e-19
7.90577e-19
2.3484e-18
6.93103e-18
2.04711e-17
6.14294e-17
1.7549e-16
5.07648e-16
1.42651e-15
3.99784e-15
1.0902e-14
2.91644e-14
7.65195e-14
1.99119e-13
5.30594e-13
1.39949e-12
3.49484e-12
8.62536e-12
2.06565e-11
5.08755e-11
1.23583e-10
3.03443e-10
7.29949e-10
1.70882e-09
3.89799e-09
8.66436e-09
1.87492e-08
3.93859e-08
8.00804e-08
1.43593e-07
2.57702e-07
4.35134e-07
7.2443e-07
1.19532e-06
1.88891e-06
2.84198e-06
4.08382e-06
5.52864e-06
7.20697e-06
9.03514e-06
1.08708e-05
1.25275e-05
1.37845e-05
1.43506e-05
1.39548e-05
1.24382e-05
9.89661e-06
6.79975e-06
3.93348e-06
1.92965e-06
8.60541e-07
3.72479e-07
1.71659e-07
8.51693e-08
4.75878e-08
3.27383e-08
3.1124e-08
4.0057e-08
6.10355e-08
9.98166e-08
1.63504e-07
2.57912e-07
3.59986e-07
4.60601e-07
5.61028e-07
6.69101e-07
7.87731e-07
9.2772e-07
1.097e-06
1.31716e-06
1.60287e-06
1.62888e-06
1.3421e-06
9.50182e-07
5.56047e-07
1.662e-07
9.29034e-32
5.32637e-31
1.94404e-30
6.57373e-30
2.18177e-29
7.20842e-29
2.37828e-28
7.81893e-28
2.56573e-27
8.40574e-27
2.74689e-26
8.93909e-26
2.94268e-25
9.42385e-25
3.05119e-24
9.88633e-24
3.20137e-23
1.01905e-22
3.22983e-22
1.01487e-21
3.15926e-21
9.67119e-21
3.07835e-20
9.3786e-20
2.84687e-19
8.5473e-19
2.57689e-18
7.60687e-18
2.24116e-17
6.52696e-17
1.8638e-16
5.44519e-16
1.5065e-15
4.23558e-15
1.14824e-14
3.07542e-14
8.09288e-14
2.06619e-13
5.59551e-13
1.4785e-12
3.64444e-12
8.93075e-12
2.17167e-11
5.36098e-11
1.28986e-10
3.16034e-10
7.54479e-10
1.75626e-09
3.9861e-09
8.81736e-09
1.89887e-08
3.9733e-08
8.03686e-08
1.43479e-07
2.59508e-07
4.36754e-07
7.24353e-07
1.19279e-06
1.88276e-06
2.82961e-06
4.06307e-06
5.5006e-06
7.17526e-06
8.99927e-06
1.08371e-05
1.25029e-05
1.37779e-05
1.43707e-05
1.40097e-05
1.25267e-05
1.00074e-05
6.91061e-06
4.01638e-06
1.97693e-06
8.82713e-07
3.81829e-07
1.75693e-07
8.69661e-08
4.84266e-08
3.30943e-08
3.12173e-08
3.99577e-08
6.07397e-08
9.92861e-08
1.62596e-07
2.56936e-07
3.59146e-07
4.59935e-07
5.60505e-07
6.68746e-07
7.87451e-07
9.27556e-07
1.09681e-06
1.3169e-06
1.60286e-06
1.63053e-06
1.34412e-06
9.51825e-07
5.57083e-07
1.66529e-07
1.0914e-31
5.77997e-31
2.11803e-30
7.17937e-30
2.38096e-29
7.85516e-29
2.60074e-28
8.52363e-28
2.77997e-27
9.0062e-27
2.97996e-26
9.86078e-26
3.18829e-25
1.02097e-24
3.37057e-24
1.07612e-23
3.42282e-23
1.10404e-22
3.48083e-22
1.08197e-21
3.46253e-21
1.07183e-20
3.30776e-20
1.00595e-19
3.07664e-19
9.18971e-19
2.7434e-18
8.06991e-18
2.36229e-17
6.96455e-17
2.00977e-16
5.7343e-16
1.58611e-15
4.43932e-15
1.18808e-14
3.14659e-14
8.48481e-14
2.15806e-13
5.79805e-13
1.50711e-12
3.85874e-12
9.42304e-12
2.29549e-11
5.48307e-11
1.33346e-10
3.25073e-10
7.72972e-10
1.79254e-09
4.05401e-09
8.93719e-09
1.91795e-08
3.99547e-08
8.05297e-08
1.43352e-07
2.60657e-07
4.37613e-07
7.23333e-07
1.18917e-06
1.87491e-06
2.81715e-06
4.04383e-06
5.47409e-06
7.14223e-06
8.96466e-06
1.08044e-05
1.24784e-05
1.37701e-05
1.43879e-05
1.40574e-05
1.2604e-05
1.01047e-05
7.00761e-06
4.09122e-06
2.02151e-06
9.03561e-07
3.90591e-07
1.79459e-07
8.86563e-08
4.91987e-08
3.34131e-08
3.12908e-08
3.98471e-08
6.04367e-08
9.87489e-08
1.61678e-07
2.55931e-07
3.58253e-07
4.59195e-07
5.59889e-07
6.68276e-07
7.87033e-07
9.27223e-07
1.0964e-06
1.31634e-06
1.6024e-06
1.63216e-06
1.34631e-06
9.53662e-07
5.58257e-07
1.66904e-07
1.17219e-31
6.21349e-31
2.27813e-30
7.72757e-30
2.57048e-29
8.47821e-29
2.79016e-28
9.16724e-28
3.00412e-27
9.80616e-27
3.2013e-26
1.04775e-25
3.40821e-25
1.1067e-24
3.58529e-24
1.15314e-23
3.67129e-23
1.177e-22
3.70729e-22
1.16431e-21
3.66229e-21
1.13727e-20
3.51139e-20
1.074e-19
3.24398e-19
9.68948e-19
2.89397e-18
8.47987e-18
2.45624e-17
7.25164e-17
2.07157e-16
5.9239e-16
1.66555e-15
4.58633e-15
1.24438e-14
3.33972e-14
8.80973e-14
2.32881e-13
6.08599e-13
1.60149e-12
3.97109e-12
9.58196e-12
2.34092e-11
5.59715e-11
1.36724e-10
3.32067e-10
7.86983e-10
1.81929e-09
4.10196e-09
9.01568e-09
1.92986e-08
4.01001e-08
8.06269e-08
1.43206e-07
2.61389e-07
4.38019e-07
7.21966e-07
1.18511e-06
1.86722e-06
2.80433e-06
4.02577e-06
5.4508e-06
7.11444e-06
8.93542e-06
1.07758e-05
1.24561e-05
1.37616e-05
1.44001e-05
1.40963e-05
1.2669e-05
1.0187e-05
7.09052e-06
4.15632e-06
2.05971e-06
9.21509e-07
3.98142e-07
1.82697e-07
9.00939e-08
4.98538e-08
3.36802e-08
3.13459e-08
3.97404e-08
6.01567e-08
9.82555e-08
1.60838e-07
2.54997e-07
3.5741e-07
4.5848e-07
5.59273e-07
6.67778e-07
7.86566e-07
9.26842e-07
1.09595e-06
1.31576e-06
1.60193e-06
1.63371e-06
1.34842e-06
9.55438e-07
5.59399e-07
1.67271e-07
1.15178e-31
6.54807e-31
2.39394e-30
8.11473e-30
2.69397e-29
8.89692e-29
2.93465e-28
9.66038e-28
3.16487e-27
1.0326e-26
3.38714e-26
1.102e-25
3.5803e-25
1.16149e-24
3.75682e-24
1.21051e-23
3.90358e-23
1.24142e-22
3.91847e-22
1.22988e-21
3.86075e-21
1.191e-20
3.69041e-20
1.12375e-19
3.39612e-19
1.01658e-18
3.01112e-18
8.80826e-18
2.56906e-17
7.53477e-17
2.15798e-16
6.2126e-16
1.7299e-15
4.75386e-15
1.2888e-14
3.46975e-14
9.19419e-14
2.39807e-13
6.22205e-13
1.6149e-12
4.02722e-12
9.82887e-12
2.34214e-11
5.66654e-11
1.39424e-10
3.37445e-10
7.97616e-10
1.83961e-09
4.13852e-09
9.07594e-09
1.93875e-08
4.02029e-08
8.06838e-08
1.43087e-07
2.61807e-07
4.38109e-07
7.2059e-07
1.18182e-06
1.86127e-06
2.7949e-06
4.01231e-06
5.43184e-06
7.09059e-06
8.90829e-06
1.075e-05
1.24358e-05
1.37525e-05
1.44078e-05
1.41252e-05
1.27186e-05
1.02503e-05
7.15455e-06
4.20607e-06
2.08944e-06
9.35603e-07
4.04091e-07
1.85249e-07
9.12254e-08
5.0368e-08
3.3888e-08
3.1385e-08
3.96491e-08
5.99242e-08
9.78462e-08
1.60142e-07
2.54219e-07
3.56698e-07
4.57869e-07
5.58742e-07
6.67341e-07
7.86156e-07
9.265e-07
1.09555e-06
1.31528e-06
1.60163e-06
1.63505e-06
1.35023e-06
9.56961e-07
5.6038e-07
1.67586e-07
1.25793e-31
6.69042e-31
2.45196e-30
8.40002e-30
2.78465e-29
9.18378e-29
3.02399e-28
9.95407e-28
3.27189e-27
1.07143e-26
3.49976e-26
1.14093e-25
3.71564e-25
1.20973e-24
3.92969e-24
1.2658e-23
4.05415e-23
1.29085e-22
4.08314e-22
1.28232e-21
3.99719e-21
1.23563e-20
3.78896e-20
1.14808e-19
3.50677e-19
1.04945e-18
3.1232e-18
9.16501e-18
2.70439e-17
7.78002e-17
2.21715e-16
6.24691e-16
1.76658e-15
4.84466e-15
1.32864e-14
3.57866e-14
9.4015e-14
2.41192e-13
6.29542e-13
1.62511e-12
4.04086e-12
9.82067e-12
2.36537e-11
5.73024e-11
1.4134e-10
3.41294e-10
8.0518e-10
1.85402e-09
4.16465e-09
9.12044e-09
1.94506e-08
4.02792e-08
8.0726e-08
1.43006e-07
2.62052e-07
4.38108e-07
7.19545e-07
1.17933e-06
1.85674e-06
2.7877e-06
4.00206e-06
5.41815e-06
7.07373e-06
8.88963e-06
1.07319e-05
1.24211e-05
1.3745e-05
1.44117e-05
1.4144e-05
1.27517e-05
1.02933e-05
7.19914e-06
4.2418e-06
2.11059e-06
9.45605e-07
4.08309e-07
1.87053e-07
9.20232e-08
5.07293e-08
3.40325e-08
3.14098e-08
3.95804e-08
5.97541e-08
9.75479e-08
1.59637e-07
2.53649e-07
3.56175e-07
4.57417e-07
5.58345e-07
6.67008e-07
7.85838e-07
9.26229e-07
1.09523e-06
1.31488e-06
1.60131e-06
1.636e-06
1.35155e-06
9.58077e-07
5.611e-07
1.67818e-07
1.27741e-31
6.90283e-31
2.52128e-30
8.54369e-30
2.84057e-29
9.40509e-29
3.10035e-28
1.02066e-27
3.3569e-27
1.10198e-26
3.6061e-26
1.17661e-25
3.82786e-25
1.24232e-24
4.02604e-24
1.2954e-23
4.14406e-23
1.31821e-22
4.15152e-22
1.29827e-21
4.04695e-21
1.25088e-20
3.87257e-20
1.17353e-19
3.5743e-19
1.0664e-18
3.17367e-18
9.41002e-18
2.74535e-17
7.93215e-17
2.26582e-16
6.49876e-16
1.79645e-15
4.92303e-15
1.34832e-14
3.58123e-14
9.50307e-14
2.44637e-13
6.54492e-13
1.67275e-12
4.0946e-12
9.97228e-12
2.36548e-11
5.82411e-11
1.42362e-10
3.43627e-10
8.10134e-10
1.86356e-09
4.18169e-09
9.14844e-09
1.94911e-08
4.0328e-08
8.0762e-08
1.42976e-07
2.62229e-07
4.38159e-07
7.19048e-07
1.17807e-06
1.85436e-06
2.7838e-06
3.99629e-06
5.4106e-06
7.06456e-06
8.87942e-06
1.07218e-05
1.24126e-05
1.37404e-05
1.4413e-05
1.41531e-05
1.27688e-05
1.03162e-05
7.22251e-06
4.26034e-06
2.1217e-06
9.50875e-07
4.10533e-07
1.88003e-07
9.24427e-08
5.09186e-08
3.41075e-08
3.14211e-08
3.95412e-08
5.9659e-08
9.73822e-08
1.59357e-07
2.53332e-07
3.55884e-07
4.57166e-07
5.58125e-07
6.66823e-07
7.8566e-07
9.26073e-07
1.09504e-06
1.31463e-06
1.60105e-06
1.63649e-06
1.35226e-06
9.58684e-07
5.61493e-07
1.67944e-07
1.26251e-31
6.88903e-31
2.56656e-30
8.66733e-30
2.87736e-29
9.49331e-29
3.1255e-28
1.02874e-27
3.38725e-27
1.11769e-26
3.65786e-26
1.19278e-25
3.86402e-25
1.23584e-24
4.10559e-24
1.31475e-23
4.19951e-23
1.33429e-22
4.21593e-22
1.32014e-21
4.1434e-21
1.28211e-20
3.93886e-20
1.19735e-19
3.59246e-19
1.08765e-18
3.22315e-18
9.52302e-18
2.8071e-17
8.15082e-17
2.32191e-16
6.50581e-16
1.833e-15
5.08322e-15
1.37176e-14
3.63977e-14
9.64927e-14
2.45839e-13
6.59307e-13
1.66217e-12
4.1583e-12
1.00604e-11
2.41385e-11
5.83237e-11
1.42957e-10
3.45041e-10
8.13049e-10
1.86924e-09
4.19221e-09
9.16673e-09
1.95205e-08
4.03686e-08
8.08065e-08
1.43001e-07
2.62421e-07
4.38331e-07
7.1907e-07
1.17786e-06
1.8538e-06
2.78277e-06
3.9947e-06
5.40841e-06
7.06185e-06
8.87636e-06
1.07186e-05
1.24096e-05
1.37381e-05
1.44118e-05
1.41534e-05
1.27706e-05
1.03192e-05
7.22584e-06
4.26305e-06
2.12335e-06
9.51651e-07
4.10858e-07
1.88139e-07
9.25011e-08
5.09443e-08
3.41171e-08
3.14218e-08
3.95347e-08
5.96444e-08
9.73571e-08
1.59315e-07
2.53286e-07
3.55843e-07
4.57132e-07
5.58097e-07
6.66803e-07
7.85644e-07
9.26064e-07
1.09504e-06
1.31464e-06
1.60111e-06
1.63658e-06
1.35235e-06
9.58752e-07
5.61534e-07
1.67957e-07
1.26069e-31
7.01903e-31
2.57314e-30
8.72384e-30
2.90075e-29
9.58963e-29
3.16292e-28
1.04148e-27
3.42315e-27
1.12266e-26
3.67316e-26
1.19866e-25
3.89534e-25
1.25768e-24
4.12019e-24
1.32159e-23
4.21311e-23
1.32735e-22
4.25905e-22
1.33316e-21
4.17613e-21
1.29421e-20
3.98367e-20
1.21651e-19
3.67182e-19
1.09572e-18
3.20907e-18
9.70127e-18
2.82347e-17
8.17694e-17
2.34445e-16
6.61763e-16
1.85739e-15
5.08756e-15
1.3846e-14
3.66678e-14
9.71194e-14
2.4878e-13
6.63031e-13
1.67203e-12
4.17925e-12
9.97512e-12
2.44211e-11
5.84939e-11
1.42942e-10
3.45595e-10
8.14211e-10
1.87166e-09
4.19726e-09
9.17706e-09
1.9541e-08
4.04074e-08
8.08768e-08
1.43115e-07
2.62684e-07
4.3874e-07
7.19896e-07
1.17919e-06
1.85578e-06
2.78556e-06
3.99842e-06
5.4131e-06
7.06738e-06
8.88225e-06
1.07241e-05
1.24136e-05
1.37391e-05
1.44085e-05
1.41445e-05
1.27563e-05
1.03011e-05
7.20765e-06
4.24877e-06
2.11487e-06
9.47634e-07
4.09166e-07
1.87414e-07
9.21796e-08
5.07984e-08
3.40587e-08
3.14118e-08
3.95626e-08
5.97139e-08
9.7479e-08
1.59522e-07
2.53522e-07
3.56064e-07
4.57326e-07
5.58271e-07
6.66952e-07
7.85789e-07
9.2619e-07
1.09518e-06
1.3148e-06
1.6012e-06
1.63615e-06
1.35175e-06
9.58245e-07
5.61204e-07
1.6785e-07
1.27557e-31
6.96371e-31
2.5408e-30
8.62819e-30
2.87387e-29
9.51707e-29
3.14227e-28
1.03471e-27
3.39737e-27
1.11191e-26
3.62634e-26
1.17894e-25
3.82622e-25
1.24177e-24
4.02482e-24
1.29337e-23
4.11189e-23
1.31166e-22
4.18199e-22
1.31169e-21
4.07408e-21
1.2788e-20
3.92202e-20
1.20718e-19
3.63338e-19
1.08175e-18
3.19885e-18
9.54474e-18
2.77865e-17
8.04516e-17
2.29759e-16
6.4707e-16
1.85094e-15
5.03593e-15
1.33355e-14
3.58284e-14
9.52588e-14
2.41167e-13
6.3841e-13
1.68413e-12
4.06992e-12
1.00584e-11
2.37967e-11
5.86318e-11
1.42871e-10
3.45071e-10
8.13258e-10
1.87029e-09
4.19598e-09
9.17803e-09
1.95506e-08
4.04411e-08
8.09678e-08
1.43315e-07
2.63034e-07
4.39417e-07
7.21562e-07
1.18211e-06
1.86029e-06
2.79209e-06
4.00732e-06
5.42454e-06
7.08094e-06
8.89687e-06
1.07379e-05
1.24243e-05
1.37434e-05
1.44032e-05
1.4127e-05
1.27268e-05
1.02633e-05
7.16923e-06
4.21863e-06
2.09687e-06
9.3908e-07
4.05557e-07
1.85865e-07
9.14939e-08
5.04877e-08
3.39349e-08
3.13916e-08
3.96241e-08
5.98652e-08
9.7744e-08
1.59972e-07
2.54033e-07
3.56537e-07
4.57741e-07
5.58641e-07
6.67269e-07
7.86098e-07
9.26459e-07
1.0955e-06
1.31519e-06
1.60149e-06
1.63526e-06
1.35051e-06
9.57184e-07
5.60515e-07
1.67628e-07
1.29195e-31
6.83026e-31
2.49945e-30
8.369e-30
2.83631e-29
9.32857e-29
3.07319e-28
1.01098e-27
3.31857e-27
1.08709e-26
3.55331e-26
1.1584e-25
3.7652e-25
1.22055e-24
3.93872e-24
1.26191e-23
4.07774e-23
1.29445e-22
4.09178e-22
1.28639e-21
4.02819e-21
1.25735e-20
3.87107e-20
1.18023e-19
3.56444e-19
1.06646e-18
3.16209e-18
9.31487e-18
2.75029e-17
7.9551e-17
2.27721e-16
6.41235e-16
1.80634e-15
4.95553e-15
1.34711e-14
3.60954e-14
9.46823e-14
2.41337e-13
6.41052e-13
1.66904e-12
4.09774e-12
9.86541e-12
2.36585e-11
5.85653e-11
1.42153e-10
3.43487e-10
8.10406e-10
1.86557e-09
4.18935e-09
9.17163e-09
1.95536e-08
4.04782e-08
8.10972e-08
1.43628e-07
2.63517e-07
4.40433e-07
7.242e-07
1.18683e-06
1.86775e-06
2.80297e-06
4.02211e-06
5.44347e-06
7.10332e-06
8.92081e-06
1.07606e-05
1.24418e-05
1.37508e-05
1.43954e-05
1.41e-05
1.26812e-05
1.02049e-05
7.11016e-06
4.17198e-06
2.06938e-06
9.26117e-07
4.00106e-07
1.83532e-07
9.04618e-08
5.00207e-08
3.3749e-08
3.13615e-08
3.97168e-08
6.00924e-08
9.81411e-08
1.60645e-07
2.54793e-07
3.57241e-07
4.58356e-07
5.59188e-07
6.67735e-07
7.86551e-07
9.26857e-07
1.09597e-06
1.31578e-06
1.60198e-06
1.63397e-06
1.34868e-06
9.55621e-07
5.59502e-07
1.67301e-07
1.21003e-31
6.61026e-31
2.42089e-30
8.23351e-30
2.72805e-29
8.9841e-29
2.9618e-28
9.78429e-28
3.2104e-27
1.05071e-26
3.43016e-26
1.11736e-25
3.63627e-25
1.18566e-24
3.81924e-24
1.22383e-23
3.90394e-23
1.23886e-22
3.91702e-22
1.23705e-21
3.88493e-21
1.19052e-20
3.73203e-20
1.12776e-19
3.4695e-19
1.03688e-18
3.07498e-18
9.03739e-18
2.6692e-17
7.77999e-17
2.18827e-16
6.35925e-16
1.7626e-15
4.8465e-15
1.31993e-14
3.52061e-14
9.31294e-14
2.39555e-13
6.21338e-13
1.60411e-12
4.05163e-12
9.78442e-12
2.32628e-11
5.7783e-11
1.41053e-10
3.41026e-10
8.05502e-10
1.85665e-09
4.1751e-09
9.15368e-09
1.95426e-08
4.05071e-08
8.12489e-08
1.44036e-07
2.64064e-07
4.41657e-07
7.27557e-07
1.19297e-06
1.87757e-06
2.81747e-06
4.04202e-06
5.46928e-06
7.1345e-06
8.95346e-06
1.07908e-05
1.2465e-05
1.37603e-05
1.4385e-05
1.40645e-05
1.26209e-05
1.01293e-05
7.03429e-06
4.1131e-06
2.03454e-06
9.09675e-07
3.93178e-07
1.8056e-07
8.91438e-08
4.94229e-08
3.35105e-08
3.13225e-08
3.98351e-08
6.03839e-08
9.8651e-08
1.6151e-07
2.55766e-07
3.58136e-07
4.59133e-07
5.59876e-07
6.68316e-07
7.8711e-07
9.27346e-07
1.09655e-06
1.31651e-06
1.60258e-06
1.63232e-06
1.34637e-06
9.53648e-07
5.58223e-07
1.66889e-07
1.18765e-31
6.29888e-31
2.31648e-30
7.84999e-30
2.59697e-29
8.54006e-29
2.82712e-28
9.25848e-28
3.03001e-27
1.00044e-26
3.25733e-26
1.05893e-25
3.43815e-25
1.11721e-24
3.64453e-24
1.16953e-23
3.73205e-23
1.18622e-22
3.76799e-22
1.16964e-21
3.7225e-21
1.14967e-20
3.54676e-20
1.08585e-19
3.30002e-19
9.89725e-19
2.95847e-18
8.71143e-18
2.57735e-17
7.42466e-17
2.1169e-16
6.07089e-16
1.69873e-15
4.68131e-15
1.2457e-14
3.38995e-14
8.94752e-14
2.31567e-13
6.09048e-13
1.59934e-12
3.91215e-12
9.80162e-12
2.33464e-11
5.68563e-11
1.38859e-10
3.3702e-10
7.98067e-10
1.84309e-09
4.15283e-09
9.12172e-09
1.95119e-08
4.05181e-08
8.14118e-08
1.44524e-07
2.64514e-07
4.42975e-07
7.31448e-07
1.20018e-06
1.88917e-06
2.83456e-06
4.06527e-06
5.49873e-06
7.1685e-06
8.98996e-06
1.08256e-05
1.24915e-05