/*--------------------------------*- C++ -*----------------------------------*\
  =========                 |
  \\      /  F ield         | OpenFOAM: The Open Source CFD Toolbox
   \\    /   O peration     | Website:  https://openfoam.org
    \\  /    A nd           | Version:  10
     \\/     M anipulation  |
\*---------------------------------------------------------------------------*/
FoamFile
{
    format      ascii;
    class       volScalarField;
    location    "1";
    object      HCO;
}
// * * * * * * * * * * * * * * * * * * * * * * * * * * * * * * * * * * * * * //

dimensions      [0 0 0 0 0 0 0];

internalField   nonuniform List<scalar> 
4000
(
1.29252e-42
1.20937e-42
3.46835e-42
9.32531e-42
1.24937e-41
1.87339e-41
4.22932e-41
1.16708e-40
3.54978e-40
1.16201e-39
4.19317e-39
1.43091e-38
4.94036e-38
1.73117e-37
6.19279e-37
2.25293e-36
8.34633e-36
3.27511e-35
1.27175e-34
5.03805e-34
2.02272e-33
8.11795e-33
3.62485e-32
1.54242e-31
6.71127e-31
2.92775e-30
1.27366e-29
5.83815e-29
2.60095e-28
1.17119e-27
5.32503e-27
2.43959e-26
1.11354e-25
5.09007e-25
2.32156e-24
1.02557e-23
4.70214e-23
2.2552e-22
1.04998e-21
4.85105e-21
2.16345e-20
9.56661e-20
4.16192e-19
1.76242e-18
7.26407e-18
3.2923e-17
1.51272e-16
6.73466e-16
2.86536e-15
1.14648e-14
4.23214e-14
1.45049e-13
4.04034e-13
1.12774e-12
2.85454e-12
6.60473e-12
1.41379e-11
3.03117e-11
6.40488e-11
1.32133e-10
2.61161e-10
4.67195e-10
7.48823e-10
9.99423e-10
1.15863e-09
1.32112e-09
1.65361e-09
2.45377e-09
4.18913e-09
7.54094e-09
1.35884e-08
2.35292e-08
3.66221e-08
4.77242e-08
4.88902e-08
3.79537e-08
3.41521e-08
3.85722e-08
4.7298e-08
5.75767e-08
7.00474e-08
8.49993e-08
9.53574e-08
9.81447e-08
9.00102e-08
5.90096e-08
3.65436e-08
2.14554e-08
1.2032e-08
6.49832e-09
3.46712e-09
1.94357e-09
1.45489e-09
1.37032e-09
9.50247e-10
4.52223e-10
1.68163e-10
5.27776e-11
1.40239e-11
2.19311e-12
5.13663e-43
2.33866e-42
3.08608e-42
5.27442e-41
3.44802e-41
7.85132e-41
4.5811e-41
5.65759e-41
1.31253e-40
4.0564e-40
1.24377e-39
4.67033e-39
1.70798e-38
6.46653e-38
2.50868e-37
1.00204e-36
4.09535e-36
1.71817e-35
7.35105e-35
3.19738e-34
1.41557e-33
6.36345e-33
2.88383e-32
1.31839e-31
6.07363e-31
2.80377e-30
1.30053e-29
6.04435e-29
2.79863e-28
1.29318e-27
5.98036e-27
3.00504e-26
1.40395e-25
6.52713e-25
3.03815e-24
1.38634e-23
6.61576e-23
3.02727e-22
1.41885e-21
6.49956e-21
2.96734e-20
1.31063e-19
5.76134e-19
2.45051e-18
1.07939e-17
4.91325e-17
2.21984e-16
9.70775e-16
4.08298e-15
1.62963e-14
5.32704e-14
1.56244e-13
4.7247e-13
1.27007e-12
3.13246e-12
7.17052e-12
1.48537e-11
3.11894e-11
6.49308e-11
1.32346e-10
2.59796e-10
4.6291e-10
7.41238e-10
9.92499e-10
1.15371e-09
1.3148e-09
1.63342e-09
2.40445e-09
4.08439e-09
7.35453e-09
1.33165e-08
2.32059e-08
3.64416e-08
4.7982e-08
4.96499e-08
3.86829e-08
3.46399e-08
3.90095e-08
4.77949e-08
5.81017e-08
7.04887e-08
8.51619e-08
9.47827e-08
9.67065e-08
8.70757e-08
5.70439e-08
3.52513e-08
2.06521e-08
1.15343e-08
6.21473e-09
3.31894e-09
1.88554e-09
1.4566e-09
1.36744e-09
9.22812e-10
4.29542e-10
1.57816e-10
4.92517e-11
1.30485e-11
2.03514e-12
2.89762e-41
4.70267e-42
2.96013e-41
8.70283e-41
2.65911e-40
5.27833e-41
1.06025e-41
2.89255e-41
6.0699e-40
4.98914e-40
4.86993e-40
1.09691e-39
3.74456e-39
1.73989e-38
8.02681e-38
3.818e-37
1.82066e-36
8.58566e-36
4.38357e-35
2.12765e-34
1.03984e-33
5.06639e-33
2.45944e-32
1.18962e-31
5.74429e-31
2.77899e-30
1.34703e-29
6.5637e-29
3.13907e-28
1.50652e-27
7.45926e-27
3.53681e-26
1.65148e-25
7.93677e-25
3.81857e-24
1.79052e-23
8.31655e-23
3.86898e-22
1.78795e-21
8.1043e-21
3.63267e-20
1.5324e-19
7.33273e-19
3.08167e-18
1.44654e-17
6.4063e-17
2.8931e-16
1.24657e-15
5.03033e-15
1.94998e-14
6.30352e-14
1.85067e-13
5.47797e-13
1.46959e-12
3.45404e-12
7.45608e-12
1.52102e-11
3.16866e-11
6.5526e-11
1.32735e-10
2.59026e-10
4.59912e-10
7.35355e-10
9.86333e-10
1.15023e-09
1.31123e-09
1.61912e-09
2.36132e-09
3.99783e-09
7.20436e-09
1.31108e-08
2.29539e-08
3.63729e-08
4.84016e-08
5.0642e-08
3.96448e-08
3.53182e-08
3.96402e-08
4.85032e-08
5.88224e-08
7.10911e-08
8.52534e-08
9.36694e-08
9.40353e-08
8.15275e-08
5.35861e-08
3.30941e-08
1.93314e-08
1.07836e-08
5.79104e-09
3.10186e-09
1.80256e-09
1.45733e-09
1.35796e-09
8.87611e-10
4.03556e-10
1.46784e-10
4.55372e-11
1.20126e-11
1.86905e-12
7.30426e-42
3.86037e-42
1.36477e-41
2.35704e-41
6.67216e-41
1.80598e-40
9.77134e-41
1.3692e-41
6.74183e-42
2.95925e-41
3.0973e-40
5.83952e-40
2.34116e-39
1.21076e-38
6.21891e-38
3.17454e-37
1.61851e-36
8.21398e-36
4.1564e-35
2.09568e-34
1.05197e-33
5.26458e-33
2.61851e-32
1.29933e-31
6.51464e-31
3.20617e-30
1.57431e-29
7.64162e-29
3.59195e-28
1.86374e-27
8.95987e-27
4.30732e-26
2.05177e-25
9.85852e-25
4.74201e-24
2.22785e-23
1.02687e-22
4.8201e-22
2.16533e-21
1.02565e-20
4.6349e-20
2.05852e-19
9.34263e-19
3.9583e-18
1.74737e-17
8.06107e-17
3.59866e-16
1.52141e-15
6.23014e-15
2.11919e-14
6.77409e-14
2.22206e-13
6.48038e-13
1.65539e-12
3.78782e-12
7.60775e-12
1.55113e-11
3.21115e-11
6.59617e-11
1.32754e-10
2.57904e-10
4.56698e-10
7.29983e-10
9.82027e-10
1.14831e-09
1.30998e-09
1.61106e-09
2.33324e-09
3.93332e-09
7.08869e-09
1.29394e-08
2.27662e-08
3.63845e-08
4.88679e-08
5.16857e-08
4.05299e-08
3.6065e-08
4.04239e-08
4.93789e-08
5.96679e-08
7.1692e-08
8.52077e-08
9.2269e-08
9.07656e-08
7.46183e-08
4.95245e-08
3.07055e-08
1.79794e-08
1.00519e-08
5.34568e-09
2.884e-09
1.7255e-09
1.45935e-09
1.34339e-09
8.50623e-10
3.79444e-10
1.36695e-10
4.2144e-11
1.10749e-11
1.71914e-12
1.98115e-42
9.03819e-42
1.46599e-42
1.44028e-42
3.30194e-41
1.15266e-41
1.542e-40
1.98393e-41
2.92098e-42
7.23266e-42
3.47055e-41
4.71477e-40
2.17319e-39
1.25925e-38
6.56543e-38
3.40619e-37
1.76959e-36
9.28997e-36
4.76986e-35
2.4353e-34
1.23782e-33
6.23798e-33
3.1292e-32
1.56368e-31
7.78397e-31
3.8596e-30
1.91266e-29
9.51523e-29
4.65663e-28
2.27222e-27
1.10495e-26
5.48291e-26
2.61499e-25
1.25455e-24
5.92567e-24
2.75327e-23
1.26696e-22
5.76221e-22
2.72846e-21
1.25491e-20
5.60227e-20
2.50078e-19
1.09028e-18
4.86407e-18
2.12741e-17
9.72355e-17
4.26091e-16
1.80161e-15
6.59226e-15
2.21862e-14
7.84822e-14
2.51538e-13
7.29812e-13
1.87074e-12
3.89729e-12
7.79902e-12
1.58253e-11
3.251e-11
6.63764e-11
1.33009e-10
2.57382e-10
4.54764e-10
7.26433e-10
9.78994e-10
1.14757e-09
1.311e-09
1.60833e-09
2.31651e-09
3.89376e-09
7.0158e-09
1.28427e-08
2.26882e-08
3.64952e-08
4.94182e-08
5.27087e-08
4.14879e-08
3.67805e-08
4.11399e-08
5.0162e-08
6.04205e-08
7.22903e-08
8.52762e-08
9.11582e-08
8.81313e-08
6.91757e-08
4.62402e-08
2.87355e-08
1.68321e-08
9.40571e-09
5.00777e-09
2.71955e-09
1.67053e-09
1.46644e-09
1.33163e-09
8.21795e-10
3.60689e-10
1.28916e-10
3.95411e-11
1.03653e-11
1.60588e-12
1.64486e-42
4.98168e-43
5.5421e-43
5.87736e-42
1.00231e-42
3.98621e-43
1.19837e-41
1.45546e-42
6.04669e-44
1.38304e-41
1.73996e-40
9.4924e-40
3.71326e-39
1.78026e-38
9.3111e-38
4.81667e-37
2.45977e-36
1.25752e-35
6.4012e-35
3.22424e-34
1.64966e-33
8.19976e-33
4.06367e-32
2.01917e-31
1.01146e-30
5.07764e-30
2.47867e-29
1.19893e-28
5.93326e-28
2.84719e-27
1.34422e-26
6.90796e-26
3.2541e-25
1.5284e-24
6.99748e-24
3.3308e-23
1.51537e-22
6.76469e-22
3.33001e-21
1.57496e-20
6.83017e-20
2.95342e-19
1.29126e-18
5.68765e-18
2.55707e-17
1.13371e-16
5.10467e-16
1.93781e-15
6.97857e-15
2.53455e-14
8.80729e-14
2.78785e-13
7.82673e-13
1.96847e-12
4.05611e-12
8.01173e-12
1.6055e-11
3.28195e-11
6.66066e-11
1.32907e-10
2.56395e-10
4.52459e-10
7.22883e-10
9.76356e-10
1.14708e-09
1.3116e-09
1.60611e-09
2.3027e-09
3.85991e-09
6.95841e-09
1.27686e-08
2.26202e-08
3.65674e-08
4.97971e-08
5.34439e-08
4.22536e-08
3.73622e-08
4.17085e-08
5.08066e-08
6.10878e-08
7.28573e-08
8.54744e-08
9.05445e-08
8.65253e-08
6.57416e-08
4.40725e-08
2.73905e-08
1.60283e-08
8.9443e-09
4.76744e-09
2.603e-09
1.63569e-09
1.47666e-09
1.32389e-09
8.01698e-10
3.47609e-10
1.23478e-10
3.77135e-11
9.859e-12
1.52505e-12
1.26591e-42
2.98877e-42
1.29923e-42
1.30302e-41
1.55058e-41
3.65626e-42
1.8431e-42
1.22292e-42
1.31354e-41
1.81531e-41
4.28918e-40
1.10591e-39
4.87813e-39
2.47348e-38
1.26608e-37
6.46305e-37
3.2923e-36
1.66552e-35
8.44841e-35
4.29194e-34
2.14921e-33
1.06717e-32
5.17071e-32
2.64017e-31
1.28736e-30
6.27201e-30
3.04272e-29
1.42396e-28
7.34879e-28
3.58657e-27
1.72126e-26
8.20506e-26
3.91724e-25
1.84579e-24
8.57343e-24
4.06892e-23
1.919e-22
8.51014e-22
4.16533e-21
1.87376e-20
8.23304e-20
3.57887e-19
1.51775e-18
6.6304e-18
2.87093e-17
1.27205e-16
5.38692e-16
1.94195e-15
7.65899e-15
2.8143e-14
9.56783e-14
2.97079e-13
8.21304e-13
2.03651e-12
4.15914e-12
8.16429e-12
1.62262e-11
3.29866e-11
6.66822e-11
1.32607e-10
2.55202e-10
4.4993e-10
7.19222e-10
9.73776e-10
1.14653e-09
1.31197e-09
1.60364e-09
2.2901e-09
3.83023e-09
6.90419e-09
1.26902e-08
2.25367e-08
3.65914e-08
5.00989e-08
5.40859e-08
4.29293e-08
3.78723e-08
4.21899e-08
5.13513e-08
6.1658e-08
7.33643e-08
8.57318e-08
9.02793e-08
8.56851e-08
6.38295e-08
4.28022e-08
2.65718e-08
1.55252e-08
8.64965e-09
4.613e-09
2.52858e-09
1.61634e-09
1.48701e-09
1.31942e-09
7.87939e-10
3.38747e-10
1.19818e-10
3.64844e-11
9.51843e-12
1.47066e-12
1.29767e-42
4.91959e-43
8.65868e-42
4.70874e-41
5.98677e-42
2.51977e-42
5.45408e-41
6.19659e-41
2.06243e-41
8.57763e-41
6.37877e-41
1.33462e-39
7.02245e-39
3.38871e-38
1.7163e-37
8.64078e-37
4.35719e-36
2.19173e-35
1.10116e-34
5.52748e-34
2.76065e-33
1.36947e-32
6.77407e-32
3.33536e-31
1.63524e-30
7.97316e-30
3.85057e-29
1.83402e-28
8.66244e-28
4.14562e-27
2.04234e-26
9.96528e-26
4.72128e-25
2.2111e-24
1.01547e-23
4.75067e-23
2.22552e-22
9.77444e-22
4.69302e-21
2.19164e-20
9.64142e-20
4.14844e-19
1.81088e-18
7.76748e-18
3.3844e-17
1.49097e-16
5.73684e-16
2.18466e-15
8.50174e-15
3.08697e-14
1.04162e-13
3.16531e-13
8.59378e-13
2.09934e-12
4.24682e-12
8.2733e-12
1.63339e-11
3.30422e-11
6.65361e-11
1.31921e-10
2.53413e-10
4.46711e-10
7.14819e-10
9.70825e-10
1.14549e-09
1.31182e-09
1.60038e-09
2.27629e-09
3.79821e-09
6.84264e-09
1.25923e-08
2.24149e-08
3.65442e-08
5.03077e-08
5.46528e-08
4.35813e-08
3.83072e-08
4.25618e-08
5.17662e-08
6.21002e-08
7.37574e-08
8.59654e-08
9.02027e-08
8.52962e-08
6.28683e-08
4.21298e-08
2.61207e-08
1.52397e-08
8.47891e-09
4.52292e-09
2.48576e-09
1.60777e-09
1.49711e-09
1.31812e-09
7.79582e-10
3.33242e-10
1.1752e-10
3.57112e-11
9.30398e-12
1.4364e-12
9.47093e-43
2.08607e-43
8.6078e-43
1.79306e-41
1.86261e-41
3.98842e-42
3.85696e-41
2.21664e-41
1.58804e-40
1.37984e-40
2.90489e-40
1.4321e-39
8.04702e-39
4.22757e-38
2.12336e-37
1.06773e-36
5.37572e-36
2.68777e-35
1.34055e-34
6.80805e-34
3.36904e-33
1.64438e-32
8.29523e-32
4.06375e-31
1.99901e-30
9.82926e-30
4.76363e-29
2.28988e-28
1.08917e-27
5.09756e-27
2.43094e-26
1.17035e-25
5.53893e-25
2.60254e-24
1.211e-23
5.54893e-23
2.55294e-22
1.11771e-21
5.34243e-21
2.44112e-20
1.09479e-19
4.80813e-19
2.07117e-18
8.905e-18
3.60746e-17
1.42568e-16
6.0768e-16
2.44715e-15
9.35401e-15
3.37049e-14
1.11257e-13
3.32573e-13
8.90119e-13
2.14782e-12
4.30647e-12
8.34018e-12
1.63735e-11
3.29733e-11
6.61525e-11
1.30816e-10
2.50816e-10
4.41834e-10
7.08697e-10
9.663e-10
1.14385e-09
1.31078e-09
1.59464e-09
2.25838e-09
3.75354e-09
6.75872e-09
1.24424e-08
2.22102e-08
3.64008e-08
5.04147e-08
5.51432e-08
4.42119e-08
3.86854e-08
4.28329e-08
5.20577e-08
6.24157e-08
7.40259e-08
8.61349e-08
9.02043e-08
8.51434e-08
6.24677e-08
4.18344e-08
2.59126e-08
1.51027e-08
8.39446e-09
4.47789e-09
2.46494e-09
1.60594e-09
1.5061e-09
1.31948e-09
7.75761e-10
3.30397e-10
1.16295e-10
3.52923e-11
9.18683e-12
1.41759e-12
1.4116e-42
9.20746e-42
2.5646e-41
1.02671e-41
1.11918e-41
4.19184e-41
4.15231e-41
1.00611e-41
1.25047e-40
2.8433e-40
6.50764e-40
2.3031e-39
1.05454e-38
5.17297e-38
2.60034e-37
1.29352e-36
6.68552e-36
3.3251e-35
1.65151e-34
8.16282e-34
4.0138e-33
2.01777e-32
9.90308e-32
4.85353e-31
2.3731e-30
1.15865e-29
5.61858e-29
2.69606e-28
1.30743e-27
6.19603e-27
2.90822e-26
1.35583e-25
6.30596e-25
2.92822e-24
1.33973e-23
6.11973e-23
2.80321e-22
1.25194e-21
6.12098e-21
2.72044e-20
1.18305e-19
5.17484e-19
2.22283e-18
9.15588e-18
3.68008e-17
1.61582e-16
6.75143e-16
2.69748e-15
1.02739e-14
3.63713e-14
1.18397e-13
3.48817e-13
9.19184e-13
2.17747e-12
4.34288e-12
8.37993e-12
1.63604e-11
3.28169e-11
6.56487e-11
1.29569e-10
2.48177e-10
4.37159e-10
7.01754e-10
9.61224e-10
1.14137e-09
1.30894e-09
1.58813e-09
2.23819e-09
3.7053e-09
6.65928e-09
1.22649e-08
2.19851e-08
3.62063e-08
5.04547e-08
5.5623e-08
4.49118e-08
3.90598e-08
4.30348e-08
5.22483e-08
6.26222e-08
7.41799e-08
8.62281e-08
9.02314e-08
8.51161e-08
6.24131e-08
4.1783e-08
2.58665e-08
1.50668e-08
8.36981e-09
4.46409e-09
2.45918e-09
1.60829e-09
1.51397e-09
1.32291e-09
7.75317e-10
3.29562e-10
1.15879e-10
3.514e-11
9.14278e-12
1.41039e-12
5.94363e-43
9.40145e-42
2.10017e-41
1.36462e-41
2.40747e-41
4.28433e-41
4.03553e-41
4.18406e-41
2.32801e-41
1.76506e-40
5.4453e-40
2.53964e-39
1.22039e-38
6.21056e-38
3.09886e-37
1.55185e-36
7.87588e-36
3.89728e-35
1.92729e-34
9.54758e-34
4.64647e-33
2.34221e-32
1.14314e-31
5.546e-31
2.65582e-30
1.31333e-29
6.30954e-29
3.04355e-28
1.47092e-27
6.99184e-27
3.28639e-26
1.53021e-25
7.06296e-25
3.30575e-24
1.50713e-23
6.87648e-23
3.13973e-22
1.41193e-21
6.73275e-21
2.96224e-20
1.28353e-19
5.50294e-19
2.31411e-18
9.4826e-18
4.1648e-17
1.80169e-16
7.50488e-16
2.99536e-15
1.12744e-14
3.96132e-14
1.28028e-13
3.74658e-13
9.88691e-13
2.17485e-12
4.36177e-12
8.39153e-12
1.62964e-11
3.25599e-11
6.49326e-11
1.277e-10
2.44327e-10
4.30948e-10
6.94929e-10
9.55956e-10
1.13852e-09
1.30641e-09
1.58073e-09
2.21622e-09
3.65783e-09
6.56701e-09
1.20956e-08
2.17277e-08
3.59306e-08
5.03877e-08
5.59816e-08
4.55164e-08
3.93538e-08
4.31474e-08
5.23433e-08
6.27333e-08
7.42404e-08
8.62583e-08
9.02708e-08
8.51754e-08
6.26096e-08
4.19071e-08
2.59369e-08
1.51036e-08
8.38823e-09
4.47278e-09
2.46429e-09
1.61343e-09
1.52077e-09
1.3279e-09
7.77404e-10
3.30194e-10
1.1605e-10
3.51812e-11
9.15172e-12
1.41159e-12
8.10676e-43
4.49885e-42
3.37114e-41
4.24821e-41
1.766e-41
5.19801e-41
9.90409e-41
1.6139e-40
7.66204e-41
2.37702e-40
6.87496e-40
3.47064e-39
1.44855e-38
7.19278e-38
3.63256e-37
1.80792e-36
9.03397e-36
4.50105e-35
2.23159e-34
1.10194e-33
5.40857e-33
2.63928e-32
1.29602e-31
6.28077e-31
3.03285e-30
1.45934e-29
7.00108e-29
3.31289e-28
1.6219e-27
7.60281e-27
3.44539e-26
1.69664e-25
7.93098e-25
3.60397e-24
1.71501e-23
7.69531e-23
3.44753e-22
1.54835e-21
7.15637e-21
3.25404e-20
1.3932e-19
5.92002e-19
2.48557e-18
1.04173e-17
4.58109e-17
1.97242e-16
8.18641e-16
3.24591e-15
1.21282e-14
4.22658e-14
1.35431e-13
3.92632e-13
1.02174e-12
2.16106e-12
4.37516e-12
8.38401e-12
1.6196e-11
3.22683e-11
6.41731e-11
1.26195e-10
2.41138e-10
4.25482e-10
6.87009e-10
9.50248e-10
1.13542e-09
1.30361e-09
1.57318e-09
2.19427e-09
3.60928e-09
6.47949e-09
1.18967e-08
2.14274e-08
3.56105e-08
5.0264e-08
5.62807e-08
4.61184e-08
3.96167e-08
4.32099e-08
5.23748e-08
6.27786e-08
7.42372e-08
8.62489e-08
9.0331e-08
8.53158e-08
6.30197e-08
4.21809e-08
2.61053e-08
1.52002e-08
8.44045e-09
4.49861e-09
2.47754e-09
1.62077e-09
1.52692e-09
1.3341e-09
7.81337e-10
3.31868e-10
1.16633e-10
3.53571e-11
9.1975e-12
1.41865e-12
9.93682e-43
2.07085e-42
7.31056e-42
1.86876e-41
7.12141e-41
6.38623e-41
9.89985e-41
1.34812e-41
1.0123e-41
2.10765e-40
6.47219e-40
2.86462e-39
1.64306e-38
8.00676e-38
4.0105e-37
1.98995e-36
9.6443e-36
5.08259e-35
2.50754e-34
1.23952e-33
6.08227e-33
2.97038e-32
1.4414e-31
6.82366e-31
3.38731e-30
1.6088e-29
7.63202e-29
3.6302e-28
1.75597e-27
8.59673e-27
3.95773e-26
1.88777e-25
8.70581e-25
4.04367e-24
1.82815e-23
8.19378e-23
3.66643e-22
1.66156e-21
7.71033e-21
3.53058e-20
1.52023e-19
6.47536e-19
2.6593e-18
1.15584e-17
4.90691e-17
2.10594e-16
8.68883e-16
3.40957e-15
1.26299e-14
4.36325e-14
1.3855e-13
3.98061e-13
1.02588e-12
2.14766e-12
4.39657e-12
8.37344e-12
1.6082e-11
3.19174e-11
6.33708e-11
1.24454e-10
2.38087e-10
4.20194e-10
6.79759e-10
9.44328e-10
1.13186e-09
1.30032e-09
1.56514e-09
2.17136e-09
3.55732e-09
6.37774e-09
1.17143e-08
2.11504e-08
3.52931e-08
5.01155e-08
5.65586e-08
4.67366e-08
3.98773e-08
4.32422e-08
5.23647e-08
6.27798e-08
7.41923e-08
8.62166e-08
9.04174e-08
8.55331e-08
6.36145e-08
4.25708e-08
2.63455e-08
1.534e-08
8.51848e-09
4.53797e-09
2.49736e-09
1.62982e-09
1.53264e-09
1.34092e-09
7.86408e-10
3.34264e-10
1.17517e-10
3.5634e-11
9.27118e-12
1.43012e-12
2.12207e-43
5.6151e-42
1.27017e-41
4.19877e-41
1.96428e-41
5.17439e-41
4.1732e-41
9.20122e-41
4.0969e-41
3.89321e-41
7.44296e-40
3.34503e-39
1.76158e-38
8.66066e-38
4.34014e-37
2.18994e-36
1.10988e-35
5.47989e-35
2.70135e-34
1.32188e-33
6.42496e-33
3.07082e-32
1.56388e-31
7.52455e-31
3.62797e-30
1.74583e-29
8.47104e-29
4.01695e-28
1.9201e-27
9.03727e-27
4.16192e-26
2.02023e-25
9.11876e-25
4.30072e-24
1.93154e-23
8.68793e-23
3.88438e-22
1.69812e-21
8.10281e-21
3.75061e-20
1.57778e-19
6.6931e-19
2.83296e-18
1.23633e-17
5.16625e-17
2.2104e-16
9.04153e-16
3.52463e-15
1.29716e-14
4.45147e-14
1.40383e-13
4.00786e-13
1.02551e-12
2.13397e-12
4.40712e-12
8.35558e-12
1.59722e-11
3.16208e-11
6.26732e-11
1.22805e-10
2.34663e-10
4.14623e-10
6.7299e-10
9.38706e-10
1.12849e-09
1.29713e-09
1.55742e-09
2.15081e-09
3.50726e-09
6.28068e-09
1.15404e-08
2.0869e-08
3.49687e-08
4.99457e-08
5.67815e-08
4.73192e-08
4.01103e-08
4.32494e-08
5.23269e-08
6.27571e-08
7.41318e-08
8.61839e-08
9.05374e-08
8.58261e-08
6.43567e-08
4.30463e-08
2.66354e-08
1.55079e-08
8.61151e-09
4.58471e-09
2.52041e-09
1.63976e-09
1.53793e-09
1.34817e-09
7.92205e-10
3.37063e-10
1.18557e-10
3.59612e-11
9.35847e-12
1.44375e-12
1.28307e-42
4.15643e-43
5.54465e-42
3.58225e-41
1.02551e-41
6.70878e-42
3.42511e-41
2.33916e-41
5.73693e-41
2.73228e-40
8.09477e-40
4.14554e-39
2.01348e-38
9.30227e-38
4.76666e-37
2.34781e-36
1.16275e-35
5.86356e-35
2.88082e-34
1.39197e-33
7.08415e-33
3.44673e-32
1.67386e-31
7.98808e-31
3.88833e-30
1.8479e-29
8.86864e-29
4.23012e-28
2.02128e-27
9.73014e-27
4.57148e-26
2.11602e-25
9.49991e-25
4.44167e-24
1.97045e-23
8.78858e-23
4.07361e-22
1.7738e-21
8.37449e-21
3.8044e-20
1.71725e-19
7.27847e-19
3.07984e-18
1.2662e-17
5.38023e-17
2.28679e-16
9.31157e-16
3.6132e-15
1.32341e-14
4.51905e-14
1.41759e-13
4.02261e-13
1.02408e-12
2.12218e-12
4.40714e-12
8.32514e-12
1.58418e-11
3.13022e-11
6.19175e-11
1.21308e-10
2.31667e-10
4.09556e-10
6.66184e-10
9.33434e-10
1.1253e-09
1.29411e-09
1.54991e-09
2.12845e-09
3.4483e-09
6.18875e-09
1.13811e-08
2.06127e-08
3.46607e-08
4.9763e-08
5.69609e-08
4.78503e-08
4.03174e-08
4.32437e-08
5.22783e-08
6.27242e-08
7.4071e-08
8.61607e-08
9.06809e-08
8.61664e-08
6.51745e-08
4.35614e-08
2.69465e-08
1.5687e-08
8.71044e-09
4.63436e-09
2.54472e-09
1.6498e-09
1.54262e-09
1.35494e-09
7.97933e-10
3.39873e-10
1.19609e-10
3.62939e-11
9.44755e-12
1.4577e-12
1.30735e-42
4.1726e-42
2.59069e-42
2.00081e-41
2.52331e-42
2.52329e-43
9.76583e-43
1.97455e-41
1.45194e-40
1.71317e-40
7.6336e-40
4.23608e-39
2.03065e-38
1.00859e-37
5.02659e-37
2.47995e-36
1.22637e-35
6.14311e-35
3.02214e-34
1.4941e-33
7.40117e-33
3.61686e-32
1.75736e-31
8.46215e-31
4.04357e-30
1.92978e-29
9.27844e-29
4.38372e-28
2.05773e-27
9.96632e-27
4.6498e-26
2.19736e-25
1.02358e-24
4.69717e-24
2.13906e-23
9.73677e-23
4.41334e-22
2.02787e-21
9.04918e-21
4.14397e-20
1.75864e-19
7.25992e-19
3.10976e-18
1.29324e-17
5.54258e-17
2.34492e-16
9.51265e-16
3.67715e-15
1.34155e-14
4.56262e-14
1.4259e-13
4.03077e-13
1.02237e-12
2.11223e-12
4.40359e-12
8.29426e-12
1.57255e-11
3.09946e-11
6.12491e-11
1.19895e-10
2.29054e-10
4.05299e-10
6.60579e-10
9.28945e-10
1.12246e-09
1.29152e-09
1.54414e-09
2.11274e-09
3.4101e-09
6.11266e-09
1.12444e-08
2.03892e-08
3.43862e-08
4.95943e-08
5.70973e-08
4.82997e-08
4.04901e-08
4.32326e-08
5.22291e-08
6.26907e-08
7.40202e-08
8.61535e-08
9.08416e-08
8.65228e-08
6.59909e-08
4.40679e-08
2.72495e-08
1.58605e-08
8.80597e-09
4.68226e-09
2.56821e-09
1.65931e-09
1.54673e-09
1.36099e-09
8.0316e-10
3.42462e-10
1.20581e-10
3.66022e-11
9.53017e-12
1.47064e-12
1.52835e-42
8.78072e-42
1.27846e-41
2.68494e-42
9.22203e-42
2.76809e-42
1.31784e-41
1.64161e-40
1.70396e-40
1.13545e-40
9.17231e-40
4.05966e-39
2.03668e-38
1.05167e-37
5.27626e-37
2.63032e-36
1.313e-35
6.50137e-35
3.20179e-34
1.57773e-33
7.7733e-33
3.76677e-32
1.84945e-31
8.91544e-31
4.28498e-30
2.04652e-29
9.70064e-29
4.53966e-28
2.15591e-27
1.04767e-26
4.9442e-26
2.3476e-25
1.07851e-24
4.92622e-24
2.24105e-23
1.01893e-22
4.58469e-22
2.05005e-21
9.05919e-21
4.07215e-20
1.75257e-19
7.46572e-19
3.09614e-18
1.30817e-17
5.67139e-17
2.38976e-16
9.66641e-16
3.72606e-15
1.35543e-14
4.59593e-14
1.43207e-13
4.03643e-13
1.02107e-12
2.10491e-12
4.39858e-12
8.2673e-12
1.56283e-11
3.077e-11
6.07595e-11
1.18877e-10
2.27097e-10
4.01843e-10
6.55847e-10
9.24884e-10
1.11997e-09
1.28919e-09
1.53902e-09
2.0991e-09
3.37863e-09
6.0518e-09
1.11365e-08
2.0215e-08
3.41724e-08
4.94557e-08
5.71947e-08
4.8651e-08
4.06236e-08
4.32195e-08
5.21849e-08
6.26603e-08
7.39796e-08
8.61536e-08
9.09895e-08
8.68486e-08
6.67186e-08
4.45149e-08
2.7515e-08
1.60118e-08
8.88896e-09
4.72382e-09
2.58853e-09
1.66749e-09
1.5501e-09
1.36585e-09
8.07369e-10
3.4458e-10
1.21383e-10
3.68573e-11
9.59873e-12
1.48139e-12
4.59828e-43
9.33145e-42
3.20067e-41
2.85634e-41
3.9301e-42
1.50645e-41
3.46686e-41
9.49661e-41
4.06691e-41
2.29179e-40
8.44503e-40
4.24634e-39
2.16956e-38
1.10372e-37
5.5624e-37
2.75342e-36
1.3672e-35
6.77376e-35
3.34107e-34
1.64167e-33
8.03075e-33
3.90671e-32
1.89234e-31
9.09869e-31
4.46777e-30
2.14472e-29
1.02426e-28
4.83891e-28
2.32211e-27
1.08524e-26
5.04646e-26
2.31915e-25
1.09579e-24
5.02072e-24
2.30805e-23
1.03652e-22
4.56368e-22
1.99677e-21
8.99287e-21
3.99749e-20
1.72968e-19
7.38322e-19
3.12645e-18
1.32322e-17
5.76381e-17
2.4223e-16
9.77741e-16
3.76153e-15
1.36564e-14
4.62128e-14
1.4367e-13
4.04136e-13
1.02037e-12
2.10011e-12
4.39489e-12
8.24862e-12
1.55629e-11
3.06109e-11
6.04081e-11
1.18148e-10
2.25704e-10
3.99493e-10
6.52647e-10
9.22149e-10
1.1182e-09
1.28747e-09
1.5354e-09
2.08974e-09
3.35654e-09
6.00951e-09
1.10618e-08
2.00905e-08
3.40155e-08
4.93524e-08
5.72568e-08
4.88959e-08
4.07157e-08
4.32078e-08
5.2151e-08
6.26374e-08
7.39521e-08
8.61584e-08
9.11066e-08
8.71033e-08
6.72769e-08
4.48547e-08
2.77157e-08
1.61257e-08
8.95125e-09
4.75498e-09
2.60371e-09
1.67358e-09
1.55257e-09
1.36941e-09
8.10472e-10
3.46134e-10
1.21969e-10
3.70438e-11
9.6488e-12
1.48925e-12
8.20871e-43
1.04529e-41
2.44658e-42
2.21407e-41
1.44273e-41
4.777e-41
4.44361e-41
1.54247e-40
1.30694e-40
2.12109e-40
1.04222e-39
4.65079e-39
2.24015e-38
1.12594e-37
5.63625e-37
2.80474e-36
1.39159e-35
6.86561e-35
3.36386e-34
1.64817e-33
8.08501e-33
3.95688e-32
1.93282e-31
9.30311e-31
4.55456e-30
2.18492e-29
1.04897e-28
5.00501e-28
2.35454e-27
1.09967e-26
5.11905e-26
2.42364e-25
1.1049e-24
5.04479e-24
2.31322e-23
1.03565e-22
4.66931e-22
2.06788e-21
9.67739e-21
4.2395e-20
1.77514e-19
7.56506e-19
3.1166e-18
1.35396e-17
5.8162e-17
2.44301e-16
9.85192e-16
3.78543e-15
1.37247e-14
4.63803e-14
1.43993e-13
4.04537e-13
1.02022e-12
2.09785e-12
4.39397e-12
8.24028e-12
1.55314e-11
3.05325e-11
6.02302e-11
1.17771e-10
2.24967e-10
3.98275e-10
6.50996e-10
9.20701e-10
1.11721e-09
1.28649e-09
1.5334e-09
2.08464e-09
3.34473e-09
5.98658e-09
1.10203e-08
2.00239e-08
3.39319e-08
4.92955e-08
5.7287e-08
4.90242e-08
4.07634e-08
4.32003e-08
5.21316e-08
6.26241e-08
7.39372e-08
8.61625e-08
9.11742e-08
8.72486e-08
6.75929e-08
4.50464e-08
2.78286e-08
1.61897e-08
8.98611e-09
4.77239e-09
2.61212e-09
1.67688e-09
1.55375e-09
1.3713e-09
8.12164e-10
3.46981e-10
1.22289e-10
3.71454e-11
9.67606e-12
1.49352e-12
5.04863e-43
1.43062e-41
3.12786e-41
3.65304e-41
4.02789e-41
2.83729e-41
1.12007e-41
1.5363e-40
1.14163e-40
8.11552e-41
9.71014e-40
4.73093e-39
2.2856e-38
1.10405e-37
5.75537e-37
2.85897e-36
1.42007e-35
7.03512e-35
3.47141e-34
1.69802e-33
8.39251e-33
4.09037e-32
1.98824e-31
9.59072e-31
4.59868e-30
2.24986e-29
1.07563e-28
5.14844e-28
2.45069e-27
1.14689e-26
5.2965e-26
2.40303e-25
1.13202e-24
5.22511e-24
2.33849e-23
1.0442e-22
4.72303e-22
2.05744e-21
9.73706e-21
4.20893e-20
1.83734e-19
7.70877e-19
3.22258e-18
1.3564e-17
5.84898e-17
2.45618e-16
9.89868e-16
3.80084e-15
1.3771e-14
4.65037e-14
1.44272e-13
4.05024e-13
1.02077e-12
2.09789e-12
4.3966e-12
8.24157e-12
1.55273e-11
3.0518e-11
6.01943e-11
1.17692e-10
2.24813e-10
3.98011e-10
6.50631e-10
9.20363e-10
1.11695e-09
1.28622e-09
1.53293e-09
2.0836e-09
3.34244e-09
5.98238e-09
1.1013e-08
2.00123e-08
3.39174e-08
4.92849e-08
5.72901e-08
4.90432e-08
4.07699e-08
4.31984e-08
5.21279e-08
6.26214e-08
7.39343e-08
8.61626e-08
9.11841e-08
8.72704e-08
6.76408e-08
4.50749e-08
2.78451e-08
1.61988e-08
8.99105e-09
4.77481e-09
2.6133e-09
1.67738e-09
1.55398e-09
1.3716e-09
8.12403e-10
3.47096e-10
1.22331e-10
3.71585e-11
9.67951e-12
1.49406e-12
3.72197e-44
6.61398e-43
7.29569e-43
1.14293e-41
3.07476e-41
1.26499e-41
4.05963e-42
6.57214e-41
8.22926e-41
2.5302e-40
4.47213e-40
4.43925e-39
2.28934e-38
1.14545e-37
5.85147e-37
2.91267e-36
1.43948e-35
7.0433e-35
3.55788e-34
1.74428e-33
8.59802e-33
4.203e-32
2.04669e-31
9.90504e-31
4.75575e-30
2.26438e-29
1.05675e-28
5.22565e-28
2.45199e-27
1.1491e-26
5.35067e-26
2.46512e-25
1.14666e-24
5.21924e-24
2.38624e-23
1.06525e-22
4.84192e-22
2.10248e-21
9.80695e-21
4.22324e-20
1.8418e-19
7.51782e-19
3.27734e-18
1.36745e-17
5.85175e-17
2.46253e-16
9.92274e-16
3.80957e-15
1.3801e-14
4.65993e-14
1.4455e-13
4.05739e-13
1.02243e-12
2.10109e-12
4.40456e-12
8.25655e-12
1.55618e-11
3.05905e-11
6.03438e-11
1.17993e-10
2.25377e-10
3.98937e-10
6.51848e-10
9.21346e-10
1.11752e-09
1.28673e-09
1.53414e-09
2.08698e-09
3.35053e-09
5.99835e-09
1.10421e-08
2.00596e-08
3.39769e-08
4.93242e-08
5.72657e-08
4.89473e-08
4.07336e-08
4.32028e-08
5.21414e-08
6.26304e-08
7.39445e-08
8.61586e-08
9.11327e-08
8.71609e-08
6.74055e-08
4.49316e-08
2.77603e-08
1.61505e-08
8.96452e-09
4.76153e-09
2.60683e-09
1.67487e-09
1.55318e-09
1.37023e-09
8.11132e-10
3.46444e-10
1.22082e-10
3.70786e-11
9.65795e-12
1.49067e-12
2.64532e-42
1.14556e-42
8.3678e-42
1.07028e-41
5.34857e-42
2.49617e-41
6.85919e-42
1.0669e-40
1.79554e-40
3.05708e-40
6.87247e-40
4.31434e-39
2.21427e-38
1.13767e-37
5.65433e-37
2.8112e-36
1.39068e-35
6.94898e-35
3.48166e-34
1.71091e-33
8.28572e-33
4.10872e-32
1.98843e-31
9.72867e-31
4.64011e-30
2.20354e-29
1.05016e-28
5.06609e-28
2.37819e-27
1.12352e-26
5.22888e-26
2.39997e-25
1.13483e-24
5.0436e-24
2.18948e-23
1.00624e-22
4.57072e-22
1.97442e-21
9.1745e-21
4.25806e-20
1.75088e-19
7.60019e-19
3.12988e-18
1.37062e-17
5.85242e-17
2.46037e-16
9.91877e-16
3.81007e-15
1.38102e-14
4.66547e-14
1.44793e-13
4.06598e-13
1.02498e-12
2.10722e-12
4.41779e-12
8.28513e-12
1.56341e-11
3.07473e-11
6.06703e-11
1.1865e-10
2.26618e-10
4.00987e-10
6.54552e-10
9.23556e-10
1.11883e-09
1.28794e-09
1.53691e-09
2.09455e-09
3.36842e-09
6.0333e-09
1.1105e-08
2.01632e-08
3.41062e-08
4.94106e-08
5.72134e-08
4.87407e-08
4.06561e-08
4.32136e-08
5.21715e-08
6.26515e-08
7.3969e-08
8.61535e-08
9.10271e-08
8.69325e-08
6.69083e-08
4.46286e-08
2.75809e-08
1.60485e-08
8.90858e-09
4.73348e-09
2.59318e-09
1.66946e-09
1.55107e-09
1.36718e-09
8.08438e-10
3.45068e-10
1.21557e-10
3.69107e-11
9.61265e-12
1.48355e-12
1.82018e-42
4.04418e-42
7.78763e-42
2.25024e-41
1.67148e-41
4.89289e-41
6.64955e-42
5.261e-42
8.14707e-41
1.59535e-40
8.76194e-40
4.13476e-39
2.13488e-38
1.11271e-37
5.54759e-37
2.76627e-36
1.39935e-35
6.94281e-35
3.43473e-34
1.69437e-33
8.34222e-33
4.09385e-32
1.98649e-31
9.58587e-31
4.60277e-30
2.19926e-29
1.04536e-28
4.95638e-28
2.36907e-27
1.10958e-26
5.17484e-26
2.40161e-25
1.12233e-24
5.12296e-24
2.32477e-23
1.04539e-22
4.61806e-22
2.01324e-21
9.40546e-21
4.23747e-20
1.78302e-19
7.45296e-19
3.11402e-18
1.36996e-17
5.8248e-17
2.45039e-16
9.8908e-16
3.8038e-15
1.38038e-14
4.66868e-14
1.45055e-13
4.07745e-13
1.02881e-12
2.11687e-12
4.43747e-12
8.32956e-12
1.57495e-11
3.1001e-11
6.12019e-11
1.19721e-10
2.28625e-10
4.04283e-10
6.58862e-10
9.27e-10
1.12085e-09
1.2898e-09
1.54127e-09
2.10647e-09
3.39663e-09
6.08798e-09
1.12029e-08
2.03232e-08
3.43071e-08
4.9542e-08
5.71316e-08
4.8428e-08
4.05396e-08
4.32303e-08
5.22175e-08
6.26848e-08
7.40098e-08
8.6153e-08
9.08827e-08
8.66133e-08
6.6201e-08
4.41945e-08
2.7323e-08
1.59014e-08
8.82781e-09
4.69303e-09
2.57352e-09
1.66176e-09
1.5483e-09
1.36271e-09
8.04381e-10
3.43012e-10
1.20777e-10
3.66614e-11
9.54551e-12
1.473e-12
1.89854e-43
4.96693e-42
1.16936e-41
1.86293e-41
2.11992e-41
1.82755e-41
9.9507e-41
1.71425e-40
9.7632e-41
2.0886e-40
1.01549e-39
4.49945e-39
2.16737e-38
1.07906e-37
5.37909e-37
2.69052e-36
1.33978e-35
6.66597e-35
3.30568e-34
1.63927e-33
8.06949e-33
3.84829e-32
1.92117e-31
9.11974e-31
4.48109e-30
2.13184e-29
1.0135e-28
4.80351e-28
2.30193e-27
1.07983e-26
4.91316e-26
2.39718e-25
1.09882e-24
5.02107e-24
2.28363e-23
1.02414e-22
4.59906e-22
2.00541e-21
8.97202e-21
4.02755e-20
1.77083e-19
7.35688e-19
3.03178e-18
1.34684e-17
5.77818e-17
2.43259e-16
9.83305e-16
3.78797e-15
1.37718e-14
4.66681e-14
1.45271e-13
4.09067e-13
1.0338e-12
2.13018e-12
4.46318e-12
8.38745e-12
1.59015e-11
3.13379e-11
6.19126e-11
1.2116e-10
2.31341e-10
4.0877e-10
6.64769e-10
9.315e-10
1.12336e-09
1.29208e-09
1.54687e-09
2.12216e-09
3.43382e-09
6.16007e-09
1.13298e-08
2.05296e-08
3.45608e-08
4.97052e-08
5.70184e-08
4.80227e-08
4.03891e-08
4.3252e-08
5.22772e-08
6.27304e-08
7.40698e-08
8.61654e-08
9.07213e-08
8.62456e-08
6.5362e-08
4.36751e-08
2.70122e-08
1.57231e-08
8.72953e-09
4.64368e-09
2.54938e-09
1.6522e-09
1.5445e-09
1.35688e-09
7.99187e-10
3.40393e-10
1.19784e-10
3.63449e-11
9.46034e-12
1.45963e-12
4.6504e-43
3.97823e-42
1.39026e-41
1.43642e-41
1.87619e-41
1.86248e-41
7.81777e-41
5.15711e-41
6.74208e-41
2.08102e-40
8.54499e-40
4.09363e-39
2.07047e-38
1.03908e-37
5.23079e-37
2.61062e-36
1.2973e-35
6.4395e-35
3.18884e-34
1.53338e-33
7.74981e-33
3.76308e-32
1.83034e-31
8.83618e-31
4.25998e-30
2.03589e-29
9.73586e-29
4.59733e-28
2.2041e-27
1.02584e-26
4.74805e-26
2.25376e-25
1.04649e-24
4.77619e-24
2.10888e-23
9.81078e-23
4.41021e-22
1.95703e-21
8.94114e-21
4.07565e-20
1.68842e-19
7.48743e-19
3.1061e-18
1.32804e-17
5.68439e-17
2.40269e-16
9.73899e-16
3.76081e-15
1.37085e-14
4.65743e-14
1.45371e-13
4.10411e-13
1.03975e-12
2.14633e-12
4.49016e-12
8.45689e-12
1.60838e-11
3.17399e-11
6.27564e-11
1.22853e-10
2.34485e-10
4.13845e-10
6.71189e-10
9.36468e-10
1.1261e-09
1.2945e-09