/*--------------------------------*- C++ -*----------------------------------*\
  =========                 |
  \\      /  F ield         | OpenFOAM: The Open Source CFD Toolbox
   \\    /   O peration     | Website:  https://openfoam.org
    \\  /    A nd           | Version:  10
     \\/     M anipulation  |
\*---------------------------------------------------------------------------*/
FoamFile
{
    format      ascii;
    class       volScalarField;
    location    "1";
    object      N2;
}
// * * * * * * * * * * * * * * * * * * * * * * * * * * * * * * * * * * * * * //

dimensions      [0 0 0 0 0 0 0];

internalField   nonuniform List<scalar> 
4000
(
0.139527
0.264508
0.347131
0.398164
0.434536
0.46408
0.487858
0.505255
0.513348
0.502015
0.450443
0.408565
0.371591
0.338292
0.308018
0.280381
0.255275
0.231874
0.210902
0.191729
0.174202
0.158334
0.143187
0.129801
0.117391
0.105934
0.0954784
0.0856764
0.0768258
0.0686838
0.0612305
0.0544401
0.0482789
0.0423955
0.0370082
0.0322926
0.0278109
0.0238298
0.0202999
0.0170626
0.0142182
0.0117967
0.00969544
0.00792153
0.00647515
0.00533947
0.00422689
0.00321911
0.00236076
0.00171262
0.00128093
0.00108251
0.00118946
0.00176537
0.00312527
0.00577343
0.0102939
0.0180773
0.0302115
0.0477947
0.0713882
0.0995775
0.133428
0.172084
0.214285
0.258512
0.303496
0.347025
0.388273
0.426837
0.462455
0.494996
0.524614
0.55132
0.575246
0.596614
0.615613
0.632486
0.647479
0.660851
0.672708
0.683263
0.692673
0.7011
0.708687
0.715567
0.721855
0.727636
0.732975
0.737922
0.742509
0.746895
0.750808
0.754396
0.757658
0.760593
0.763206
0.765494
0.767452
0.769245
0.015016
0.0438409
0.0721048
0.0971073
0.118011
0.136512
0.154214
0.170992
0.184346
0.19202
0.192615
0.188404
0.181461
0.173007
0.163731
0.154022
0.144196
0.13442
0.124847
0.11557
0.106647
0.098073
0.0898934
0.0821447
0.074797
0.0678862
0.0613842
0.0552958
0.049602
0.0443081
0.0393627
0.0347797
0.0302632
0.026586
0.0232176
0.0200631
0.0172998
0.0146635
0.0123615
0.0103171
0.00860064
0.0070551
0.00577351
0.00468084
0.00371595
0.00264814
0.00187318
0.00130597
0.00091385
0.000697557
0.000640031
0.000701796
0.00101517
0.00176068
0.00329315
0.00621238
0.0108953
0.0188275
0.0310603
0.0484039
0.0717154
0.0995213
0.132874
0.170979
0.212551
0.25629
0.300943
0.344643
0.385913
0.424584
0.460532
0.493387
0.523218
0.550223
0.574473
0.5961
0.615293
0.632318
0.647431
0.6609
0.672829
0.683445
0.692906
0.701365
0.708968
0.71586
0.722157
0.727944
0.733299
0.738246
0.742826
0.747194
0.751086
0.754645
0.757879
0.760786
0.763362
0.765601
0.767515
0.769265
0.00206561
0.0079861
0.0159314
0.0244978
0.0328276
0.0406901
0.0476024
0.0531777
0.0574892
0.0612031
0.0640617
0.0659699
0.0669394
0.0670261
0.066324
0.0649509
0.0630094
0.0606263
0.0578031
0.0547872
0.0515738
0.0482438
0.0448677
0.041503
0.0382078
0.0350804
0.0319279
0.0289071
0.0260323
0.0233321
0.0207381
0.0181664
0.0162295
0.014159
0.0122771
0.0105321
0.00903641
0.0076652
0.00644734
0.00545751
0.004532
0.00377591
0.00304138
0.0024626
0.00185693
0.00135286
0.000934474
0.000649363
0.00053531
0.000463809
0.00043973
0.000582874
0.000988596
0.00185955
0.00353084
0.00645327
0.0112022
0.0192304
0.0315216
0.0489175
0.0720866
0.0996206
0.132543
0.170057
0.211102
0.254373
0.298621
0.342019
0.383538
0.422452
0.458807
0.491842
0.5219
0.549115
0.573633
0.595545
0.61496
0.632162
0.647416
0.660998
0.673022
0.683707
0.693224
0.701744
0.709382
0.716291
0.722599
0.728396
0.733741
0.738696
0.74326
0.747592
0.751439
0.754955
0.758139
0.761001
0.763524
0.765715
0.767582
0.769286
0.000275396
0.0011404
0.00261505
0.00459048
0.00684531
0.009164
0.0113407
0.0132767
0.0150181
0.0166261
0.0180772
0.0193092
0.0203118
0.0210541
0.0215392
0.0217756
0.0217765
0.0215601
0.0211487
0.0205726
0.0199056
0.0189956
0.0180297
0.0169964
0.0158885
0.0146672
0.0135885
0.012469
0.0114124
0.0103543
0.00932662
0.00833476
0.0073292
0.00644287
0.00558743
0.00484583
0.00415275
0.00358833
0.00301006
0.00252049
0.00211887
0.00174443
0.00141598
0.00111356
0.00085187
0.000608182
0.000433419
0.000359844
0.000295071
0.000264336
0.000332015
0.000545797
0.00102803
0.00200983
0.00381657
0.00662743
0.0115157
0.019649
0.0320374
0.0493355
0.07233
0.0995973
0.132168
0.169308
0.209926
0.252767
0.29662
0.339971
0.381509
0.420541
0.457044
0.490299
0.520672
0.548151
0.572815
0.595254
0.614766
0.632087
0.647456
0.661137
0.673227
0.683951
0.693476
0.702233
0.709844
0.71674
0.723033
0.728809
0.734129
0.739154
0.743678
0.747958
0.751772
0.75525
0.758395
0.761203
0.763677
0.765821
0.767644
0.769305
3.57798e-05
0.000152162
0.000371326
0.000706127
0.00113994
0.00163685
0.0021536
0.00267042
0.00318832
0.00371323
0.00422152
0.00470449
0.00515323
0.00555196
0.00589632
0.006174
0.00638276
0.00652119
0.00658428
0.00656957
0.00643697
0.00636717
0.00620763
0.00599586
0.00573935
0.00544373
0.00512598
0.00478788
0.00444496
0.00408639
0.00374793
0.0033453
0.00296026
0.00262188
0.00231119
0.00201869
0.00170597
0.00147756
0.0012796
0.00112654
0.000943157
0.00077951
0.000640189
0.000498851
0.000377029
0.000275722
0.00023337
0.000176409
0.00015661
0.000184706
0.000290244
0.000545585
0.00109805
0.00220851
0.00393156
0.00682713
0.0118286
0.0200181
0.0324056
0.0497183
0.0726012
0.099682
0.131972
0.168766
0.208988
0.251374
0.295081
0.338415
0.38004
0.419101
0.455752
0.489201
0.519724
0.547333
0.572189
0.594866
0.614553
0.63201
0.647493
0.661262
0.673429
0.684213
0.693792
0.702578
0.710212
0.717118
0.723413
0.729186
0.734499
0.739507
0.744013
0.748259
0.752046
0.755493
0.758601
0.761369
0.763803
0.765909
0.767696
0.769322
4.4911e-06
1.94109e-05
4.81432e-05
9.49327e-05
0.000161377
0.000247495
0.000351366
0.000469747
0.000599698
0.000738563
0.000882653
0.00102813
0.00117352
0.00131205
0.00144169
0.00156032
0.00166392
0.00175118
0.00182056
0.00187036
0.0019009
0.00191338
0.0019074
0.00188318
0.00184139
0.00178336
0.00171316
0.00163117
0.00153478
0.00143208
0.00131452
0.00121414
0.00110408
0.00100269
0.000899523
0.000792334
0.000704802
0.000614913
0.000525464
0.00043991
0.000380687
0.000320913
0.000259057
0.000208754
0.000156193
0.00013396
0.000103509
9.49619e-05
0.000100681
0.000150084
0.00027628
0.000557399
0.00114578
0.00230986
0.00410162
0.00705505
0.0120831
0.0203739
0.0327506
0.0500082
0.0727694
0.0996628
0.131713
0.168242
0.208225
0.250433
0.293883
0.337
0.378618
0.417861
0.454727
0.488297
0.518941
0.546735
0.57174
0.594558
0.614369
0.631934
0.647507
0.661351
0.67358
0.684415
0.694031
0.702833
0.710489
0.717409
0.723712
0.729486
0.734794
0.739783
0.744276
0.74849
0.752255
0.755675
0.758754
0.761493
0.763898
0.765975
0.767735
0.769334
5.69055e-07
2.43685e-06
6.19329e-06
1.25829e-05
2.23259e-05
3.61989e-05
5.4232e-05
7.66168e-05
0.000103204
0.000133609
0.000167265
0.000203498
0.000241695
0.000280904
0.000320134
0.000358409
0.000394952
0.000428798
0.000459133
0.000485538
0.000507277
0.000524029
0.000535513
0.000541572
0.000541865
0.000536658
0.000526286
0.000511315
0.000491539
0.000466586
0.000439205
0.000411404
0.0003779
0.000346629
0.000319192
0.000285143
0.00024901
0.000223301
0.000197376
0.000173096
0.000149752
0.000127613
0.000104113
8.53561e-05
7.22367e-05
5.51082e-05
4.8743e-05
5.4461e-05
7.66969e-05
0.000137362
0.00027628
0.000576662
0.00119042
0.00238848
0.00422177
0.00723354
0.0122947
0.0206089
0.0330037
0.0502116
0.0728455
0.0995754
0.131412
0.167713
0.207475
0.249532
0.292865
0.335846
0.377509
0.416816
0.453806
0.487481
0.518253
0.546164
0.571293
0.594248
0.614157
0.631816
0.647468
0.661382
0.673665
0.684543
0.694193
0.703008
0.710684
0.717617
0.723927
0.729704
0.735011
0.739985
0.744468
0.748658
0.752407
0.755808
0.758866
0.761584
0.763968
0.766024
0.767764
0.769343
7.30332e-08
3.14373e-07
8.09585e-07
1.6927e-06
3.1167e-06
5.24066e-06
8.20029e-06
1.21088e-05
1.7047e-05
2.30428e-05
3.00722e-05
3.80695e-05
4.69542e-05
5.6576e-05
6.67118e-05
7.71661e-05
8.77368e-05
9.81659e-05
0.000108213
0.000117651
0.000126249
0.000133758
0.000139974
0.000144952
0.000148651
0.000150636
0.000150525
0.000149857
0.000147679
0.000144218
0.000137735
0.000130184
0.000122886
0.00011419
0.000104655
9.63746e-05
8.78753e-05
7.93351e-05
7.0862e-05
6.29754e-05
5.5811e-05
4.85566e-05
4.10853e-05
3.5492e-05
2.99062e-05
2.73758e-05
2.78401e-05
3.77559e-05
6.68982e-05
0.000134696
0.000284159
0.000599854
0.00123505
0.00246232
0.00432867
0.00737377
0.0124657
0.0207989
0.0331743
0.0503093
0.0728068
0.0993727
0.131001
0.167123
0.206662
0.248434
0.291761
0.334691
0.376426
0.415772
0.452865
0.48665
0.517519
0.545548
0.570799
0.593887
0.613896
0.631638
0.647363
0.661346
0.673678
0.684596
0.694277
0.703108
0.710802
0.717748
0.724067
0.729848
0.735156
0.740121
0.744599
0.748773
0.752511
0.7559
0.758944
0.761647
0.764016
0.766057
0.767784
0.769349
9.52529e-09
4.14266e-08
1.08351e-07
2.31387e-07
4.37473e-07
7.58168e-07
1.22678e-06
1.87673e-06
2.73803e-06
3.84083e-06
5.19716e-06
6.81623e-06
8.69742e-06
1.084e-05
1.32047e-05
1.57598e-05
1.84666e-05
2.12728e-05
2.41235e-05
2.69835e-05
2.97404e-05
3.23357e-05
3.47552e-05
3.68892e-05
3.86473e-05
4.0109e-05
4.10379e-05
4.11007e-05
4.16046e-05
4.13533e-05
4.06069e-05
3.98247e-05
3.78117e-05
3.58806e-05
3.36928e-05
3.17114e-05
2.9247e-05
2.69578e-05
2.44055e-05
2.19639e-05
1.96868e-05
1.78568e-05
1.61086e-05
1.4621e-05
1.39289e-05
1.47539e-05
1.87633e-05
3.22819e-05
6.46488e-05
0.000137406
0.000295045
0.000622483
0.0012746
0.00252461
0.00441036
0.00747794
0.0125899
0.0209247
0.0332632
0.0503009
0.0726353
0.0989746
0.130374
0.166186
0.205528
0.247273
0.290381
0.33339
0.375097
0.414557
0.451684
0.485604
0.516665
0.544853
0.570244
0.59347
0.613576
0.631397
0.647189
0.661242
0.673622
0.684579
0.694291
0.703143
0.710855
0.717815
0.724144
0.729931
0.735242
0.740204
0.74468
0.748844
0.752577
0.755958
0.758994
0.761688
0.764047
0.766079
0.767797
0.769353
1.22959e-09
5.63399e-09
1.47664e-08
3.19591e-08
6.19715e-08
1.09956e-07
1.82905e-07
2.88167e-07
4.33586e-07
6.27077e-07
8.75431e-07
1.18602e-06
1.56146e-06
2.00503e-06
2.51769e-06
3.09203e-06
3.74054e-06
4.4298e-06
5.16331e-06
5.92782e-06
6.70456e-06
7.48854e-06
8.24203e-06
8.93588e-06
9.58724e-06
1.01964e-05
1.07296e-05
1.11547e-05
1.14734e-05
1.15627e-05
1.14245e-05
1.14445e-05
1.12297e-05
1.087e-05
1.05765e-05
1.00036e-05
9.47918e-06
8.92164e-06
8.3563e-06
7.78403e-06
7.21198e-06
6.68319e-06
6.25437e-06
6.03114e-06
6.46283e-06
8.52595e-06
1.4948e-05
3.02962e-05
6.52506e-05
0.000142639
0.000307514
0.00064605
0.00131229
0.00256574
0.0044676
0.00756064
0.0126753
0.0209935
0.0332763
0.0502158
0.0724041
0.0985523
0.12965
0.165226
0.204339
0.245873
0.288959
0.332053
0.373825
0.413314
0.450586
0.484632
0.515818
0.544114
0.569588
0.592949
0.613156
0.63107
0.646943
0.661077
0.673507
0.684504
0.694247
0.703125
0.710856
0.717831
0.72417
0.729965
0.735282
0.740245
0.744722
0.748882
0.752613
0.75599
0.759022
0.761711
0.764065
0.766091
0.767804
0.769355
1.68632e-10
7.74468e-10
2.05088e-09
4.5064e-09
8.85487e-09
1.60397e-08
2.72825e-08
4.40465e-08
6.80137e-08
1.00956e-07
1.45305e-07
2.02379e-07
2.73951e-07
3.61983e-07
4.67432e-07
5.90807e-07
7.33889e-07
8.92976e-07
1.06871e-06
1.2598e-06
1.46098e-06
1.67385e-06
1.8869e-06
2.09611e-06
2.29819e-06
2.50717e-06
2.70254e-06
2.87484e-06
2.99801e-06
3.1081e-06
3.1983e-06
3.22461e-06
3.24488e-06
3.25097e-06
3.19819e-06
3.12238e-06
3.01925e-06
2.92102e-06
2.80653e-06
2.6769e-06
2.55479e-06
2.46535e-06
2.46716e-06
2.72108e-06
3.74117e-06
6.71965e-06
1.38894e-05
3.05029e-05
6.8084e-05
0.000150265
0.000324542
0.000681853
0.00139306
0.00257742
0.00451051
0.00761955
0.0127238
0.0210094
0.0332174
0.0500076
0.0719878
0.0979198
0.128904
0.164248
0.203165
0.24455
0.287546
0.330586
0.37252
0.412131
0.449466
0.483624
0.51489
0.543302
0.568924
0.592441
0.612734
0.63073
0.646668
0.660875
0.673351
0.684386
0.694161
0.703067
0.710818
0.717808
0.72416
0.729964
0.735286
0.740255
0.744735
0.748895
0.752627
0.756004
0.759033
0.761721
0.764073
0.766097
0.767807
0.769356
2.41038e-11
1.07679e-10
2.89094e-10
6.42612e-10
1.2796e-09
2.35673e-09
4.08444e-09
6.73615e-09
1.06373e-08
1.62046e-08
2.38647e-08
3.409e-08
4.73535e-08
6.42138e-08
8.51785e-08
1.10551e-07
1.40665e-07
1.75705e-07
2.15708e-07
2.6075e-07
3.10438e-07
3.64172e-07
4.21458e-07
4.80809e-07
5.41694e-07
6.03678e-07
6.655e-07
7.24711e-07
7.8056e-07
8.30268e-07
8.71995e-07
8.99466e-07
9.24033e-07
9.47647e-07
9.62003e-07
9.66838e-07
9.65931e-07
9.52766e-07
9.33061e-07
9.20539e-07
9.23622e-07
9.74452e-07
1.1441e-06
1.63151e-06
2.94682e-06
6.19878e-06
1.38904e-05
3.15915e-05
7.1126e-05
0.000156976
0.000338146
0.000707875
0.00143631
0.00257761
0.00454805
0.0076673
0.0127492
0.0209924
0.0331208
0.0498119
0.0716234
0.0973645
0.128051
0.16322
0.201976
0.243242
0.286191
0.329164
0.371165
0.41098
0.448195
0.482513
0.513947
0.542512
0.568262
0.591905
0.612295
0.630359
0.646362
0.660644
0.673167
0.68424
0.694045
0.70298
0.710751
0.717756
0.72412
0.729935
0.735266
0.740243
0.744727
0.748891
0.752625
0.756003
0.759034
0.761722
0.764074
0.766098
0.767808
0.769357
3.34655e-12
1.52521e-11
4.12913e-11
9.25673e-11
1.86539e-10
3.48643e-10
6.14822e-10
1.03263e-09
1.66501e-09
2.58952e-09
3.8991e-09
5.69948e-09
8.10491e-09
1.12762e-08
1.53118e-08
2.03532e-08
2.64548e-08
3.40955e-08
4.28189e-08
5.30462e-08
6.47276e-08
7.78274e-08
9.22873e-08
1.07879e-07
1.24887e-07
1.42469e-07
1.60742e-07
1.79381e-07
1.97965e-07
2.1651e-07
2.33539e-07
2.49467e-07
2.63513e-07
2.76035e-07
2.86561e-07
2.94309e-07
2.9764e-07
3.05247e-07
3.09903e-07
3.27748e-07
3.64871e-07
4.606e-07
6.9258e-07
1.2758e-06
2.68405e-06
6.13625e-06
1.42143e-05
3.2603e-05
7.33273e-05
0.000161118
0.000345091
0.000718136
0.00144754
0.00257693
0.00459109
0.00770407
0.0127541
0.020944
0.0329867
0.0495513
0.0712487
0.0968038
0.127264
0.162206
0.200781
0.241916
0.284824
0.327748
0.369809
0.409717
0.44702
0.481509
0.513062
0.54173
0.56757
0.591343
0.611819
0.629968
0.646041
0.660394
0.672957
0.684067
0.693904
0.702873
0.710664
0.717685
0.724062
0.729887
0.735227
0.740215
0.744704
0.748875
0.752612
0.755994
0.759027
0.761717
0.76407
0.766095
0.767807
0.769356
4.62297e-13
2.20757e-12
5.97955e-12
1.35039e-11
2.7495e-11
5.20582e-11
9.32237e-11
1.59235e-10
2.61344e-10
4.14177e-10
6.35998e-10
9.48018e-10
1.3816e-09
1.9556e-09
2.7203e-09
3.70727e-09
4.95603e-09
6.47747e-09
8.37914e-09
1.06423e-08
1.32995e-08
1.63478e-08
1.99434e-08
2.38908e-08
2.82941e-08
3.30896e-08
3.82925e-08
4.37685e-08
4.94734e-08
5.51854e-08
6.10372e-08
6.6749e-08
7.23533e-08
7.77149e-08
8.23707e-08
8.72052e-08
9.22576e-08
9.84559e-08
1.08009e-07
1.29257e-07
1.75033e-07
2.82622e-07
5.39116e-07
1.1688e-06
2.63929e-06
6.23475e-06
1.4579e-05
3.34373e-05
7.49626e-05
0.000164002
0.000349612
0.000724681
0.00145297
0.00257488
0.00462211
0.0077302
0.0127477
0.0208893
0.0328591
0.0492938
0.0708072
0.0961862
0.126515
0.16125
0.199668
0.24068
0.283516
0.326515
0.368561
0.408542
0.445933
0.480517
0.512203
0.540993
0.566931
0.590796
0.611357
0.62958
0.645709
0.660131
0.67274
0.683888
0.693756
0.702758
0.710568
0.717606
0.723996
0.729832
0.73518
0.740178
0.744674
0.748851
0.752593
0.755978
0.759014
0.761707
0.764063
0.766091
0.767804
0.769355
7.03881e-14
3.18412e-13
8.72524e-13
1.99107e-12
4.09461e-12
7.83862e-12
1.42542e-11
2.47082e-11
4.1152e-11
6.61712e-11
1.03967e-10
1.587e-10
2.34979e-10
3.39709e-10
4.84866e-10
6.73624e-10
9.18427e-10
1.23526e-09
1.62961e-09
2.11281e-09
2.71411e-09
3.41964e-09
4.25621e-09
5.22431e-09
6.34673e-09
7.60566e-09
9.01581e-09
1.0562e-08
1.22327e-08
1.40501e-08
1.59218e-08
1.78432e-08
1.97505e-08
2.17386e-08
2.38423e-08
2.61641e-08
2.88818e-08
3.35762e-08
4.31259e-08
6.4223e-08
1.14326e-07
2.28978e-07
5.01866e-07
1.13432e-06
2.66823e-06
6.36759e-06
1.49059e-05
3.41171e-05
7.62575e-05
0.000166295
0.000353257
0.000728904
0.00145604
0.0025726
0.00464166
0.00774325
0.012725
0.0208162
0.0327018
0.0490428
0.0704103
0.0956192
0.125761
0.160362
0.198633
0.239529
0.2823
0.325267
0.367355
0.407447
0.44494
0.479628
0.511417
0.540296
0.566335
0.590287
0.610925
0.629212
0.645401
0.659888
0.672537
0.683719
0.693615
0.702646
0.710475
0.717527
0.723929
0.729774
0.735131
0.740139
0.744641
0.748826
0.752571
0.75596
0.759
0.761696
0.764055
0.766085
0.767801
0.769354
9.88098e-15
4.60743e-14
1.28009e-13
2.95985e-13
6.16618e-13
1.19571e-12
2.19735e-12
3.86358e-12
6.54488e-12
1.07258e-11
1.70689e-11
2.64866e-11
4.0063e-11
5.92423e-11
8.58548e-11
1.21913e-10
1.70137e-10
2.33959e-10
3.15575e-10
4.19149e-10
5.49866e-10
7.09579e-10
9.04017e-10
1.13728e-09
1.41199e-09
1.72606e-09
2.10168e-09
2.52584e-09
2.99625e-09
3.51417e-09
4.09755e-09
4.73391e-09
5.41986e-09
6.17848e-09
7.07929e-09
8.28969e-09
1.02417e-08
1.41606e-08
2.30195e-08
4.47974e-08
9.48198e-08
2.10427e-07
4.89475e-07
1.13623e-06
2.71718e-06
6.49071e-06
1.51697e-05
3.46325e-05
7.71868e-05
0.000167815
0.00035556
0.00073172
0.001458
0.0025701
0.00465422
0.00774918
0.0126982
0.0207381
0.0325535
0.0487919
0.0700487
0.0951354
0.125145
0.159634
0.197766
0.238558
0.281278
0.324239
0.366324
0.406495
0.444079
0.478859
0.510733
0.539704
0.565827
0.58985
0.610555
0.628899
0.645137
0.659677
0.67236
0.683571
0.69349
0.702547
0.710391
0.717455
0.723868
0.729721
0.735085
0.740102
0.744609
0.748801
0.752551
0.755943
0.758987
0.761686
0.764047
0.76608
0.767798
0.769353
1.66533e-15
7.54952e-15
2.02061e-14
4.51861e-14
9.50351e-14
1.85518e-13
3.42393e-13
6.10401e-13
1.04783e-12
1.74172e-12
2.82263e-12
4.45066e-12
6.85463e-12
1.03287e-11
1.52603e-11
2.21322e-11
3.15984e-11
4.4292e-11
6.10686e-11
8.29165e-11
1.10938e-10
1.46865e-10
1.91878e-10
2.47087e-10
3.14412e-10
3.95249e-10
4.91532e-10
6.0419e-10
7.35892e-10
8.8874e-10
1.06055e-09
1.26539e-09
1.50287e-09
1.80933e-09
2.25487e-09
3.03024e-09
4.60758e-09
8.16516e-09
1.6752e-08
3.81385e-08
8.87572e-08
2.07958e-07
4.82285e-07
1.14336e-06
2.76468e-06
6.59241e-06
1.53762e-05
3.50299e-05
7.79024e-05
0.000168992
0.000357297
0.000733744
0.00145922
0.00256816
0.00466153
0.00775023
0.0126725
0.020677
0.032442
0.0486119
0.0697848
0.0947496
0.124629
0.158984
0.197032
0.237756
0.28044
0.323385
0.365481
0.405727
0.443396
0.478255
0.510207
0.539242
0.565426
0.589505
0.610261
0.62865
0.644926
0.659507
0.672217
0.683451
0.693389
0.702466
0.710322
0.717396
0.723816
0.729677
0.735047
0.740071
0.744582
0.74878
0.752533
0.755929
0.758975
0.761677
0.76404
0.766075
0.767795
0.769353
1.11022e-16
4.44089e-16
1.66533e-15
5.9952e-15
1.40998e-14
2.87548e-14
5.35127e-14
9.61453e-14
1.68088e-13
2.84772e-13
4.68736e-13
7.50733e-13
1.17706e-12
1.80778e-12
2.72649e-12
4.03533e-12
5.87241e-12
8.40383e-12
1.18422e-11
1.64502e-11
2.25443e-11
3.04815e-11
4.06828e-11
5.36108e-11
7.00572e-11
9.02804e-11
1.15205e-10
1.45391e-10
1.82314e-10
2.26395e-10
2.80014e-10
3.4833e-10
4.45211e-10
5.95971e-10
8.81594e-10
1.49653e-09
2.91499e-09
6.27502e-09
1.48043e-08
3.61043e-08
8.66295e-08
2.05304e-07
4.8462e-07
1.15385e-06
2.80078e-06
6.66743e-06
1.55253e-05
3.53144e-05
7.84167e-05
0.000169866
0.000358537
0.000735268
0.00146017
0.00256691
0.004666
0.00775021
0.0126538
0.020632
0.0323592
0.0484783
0.0695898
0.0944806
0.124279
0.158557
0.196542
0.237213
0.27987
0.322811
0.364899
0.405198
0.442925
0.477831
0.509828
0.538915
0.565144
0.589261
0.610054
0.628474
0.644776
0.659386
0.672115
0.683364
0.693316
0.702408
0.710272
0.717353
0.723779
0.729645
0.735019
0.740048
0.744563
0.748765
0.75252
0.755918
0.758966
0.76167
0.764035
0.766072
0.767793
0.769352
0
0
0
0
1.22125e-15
3.88578e-15
8.77076e-15
1.52101e-14
2.74225e-14
4.61853e-14
7.78266e-14
1.27343e-13
2.03948e-13
3.19633e-13
4.91274e-13
7.42073e-13
1.10134e-12
1.61116e-12
2.32125e-12
3.2957e-12
4.62075e-12
6.38678e-12
8.747e-12
1.1817e-11
1.58336e-11
2.09313e-11
2.74238e-11
3.57099e-11
4.62296e-11
5.98953e-11
7.86485e-11
1.07688e-10
1.57468e-10
2.5802e-10
4.89356e-10
1.03676e-09
2.40945e-09
5.75024e-09
1.46573e-08
3.63307e-08
8.69494e-08
2.07524e-07
4.8391e-07
1.17169e-06
2.82073e-06
6.71394e-06
1.56242e-05
3.55042e-05
7.8755e-05
0.000170421
0.000359343
0.000736261
0.00146099
0.00256664
0.00466945
0.00775152
0.0126456
0.0206104
0.0323176
0.048409
0.0694849
0.0943392
0.124098
0.158337
0.196286
0.23693
0.279573
0.322506
0.364593
0.404917
0.442669
0.477606
0.50963
0.538742
0.564995
0.589132
0.609943
0.628379
0.644696
0.659321
0.67206
0.683317
0.693276
0.702375
0.710244
0.717329
0.723759
0.729627
0.735003
0.740036
0.744552
0.748756
0.752513
0.755912
0.758961
0.761666
0.764033
0.76607
0.767792
0.769352
0
0
0
0
0
0
0
0
2.66454e-15
6.66134e-15
1.28786e-14
2.28706e-14
3.83027e-14
6.32827e-14
1.01474e-13
1.57763e-13
2.41029e-13
3.61711e-13
5.35683e-13
7.79821e-13
1.12288e-12
1.59395e-12
2.23921e-12
3.11029e-12
4.27358e-12
5.84244e-12
7.90712e-12
1.06842e-11
1.4546e-11
2.02436e-11
2.95151e-11
4.67938e-11
8.42656e-11
1.72595e-10
3.87757e-10
9.23643e-10
2.29408e-09
5.60861e-09
1.45644e-08
3.58824e-08
8.79523e-08
2.09022e-07
4.93245e-07
1.17334e-06
2.8327e-06
6.74241e-06
1.56829e-05
3.56184e-05
7.8966e-05
0.000170789
0.00035994
0.000737104
0.00146198
0.0025674
0.00467336
0.00775535
0.0126472
0.0206088
0.032311
0.0483955
0.0694632
0.0943085
0.124059
0.158291
0.196234
0.236875
0.279517
0.322451
0.364538
0.404868
0.442627
0.477569
0.509598
0.538715
0.564972
0.589112
0.609926
0.628365
0.644683
0.659311
0.672051
0.68331
0.69327
0.70237
0.71024
0.717326
0.723756
0.729625
0.735001
0.740034
0.74455
0.748755
0.752512
0.755912
0.758961
0.761666
0.764032
0.76607
0.767792
0.769352
0
0
0
0
0
0
0
0
2.44249e-15
6.43929e-15
1.33227e-14
2.30926e-14
3.84137e-14
6.30607e-14
1.00031e-13
1.56319e-13
2.39475e-13
3.58713e-13
5.3324e-13
7.74936e-13
1.11522e-12
1.58495e-12
2.22655e-12
3.09563e-12
4.26126e-12
5.81146e-12
7.85105e-12
1.0681e-11
1.45134e-11
2.01898e-11
2.95268e-11
4.70428e-11
8.48562e-11
1.72662e-10
3.90812e-10
9.30228e-10
2.30737e-09
5.67289e-09
1.46491e-08
3.61023e-08
8.83836e-08
2.07416e-07
4.98837e-07
1.17665e-06
2.83277e-06
6.75387e-06
1.57068e-05
3.56683e-05
7.90702e-05
0.000171002
0.000360363
0.000737912
0.00146345
0.0025698
0.00467874
0.00776385
0.012664
0.020636
0.0323523
0.0484554
0.069546
0.094418
0.124198
0.158458
0.196427
0.237088
0.279741
0.322678
0.364763
0.405075
0.442814
0.477736
0.509745
0.538843
0.565082
0.589207
0.610007
0.628434
0.644742
0.659359
0.672092
0.683344
0.693299
0.702394
0.71026
0.717344
0.723771
0.729638
0.735013
0.740044
0.744559
0.748762
0.752518
0.755916
0.758965
0.761669
0.764035
0.766071
0.767793
0.769352
0
0
0
0
0
3.88578e-15
8.77076e-15
1.4766e-14
2.59792e-14
4.52971e-14
7.74936e-14
1.26121e-13
2.01283e-13
3.15192e-13
4.85834e-13
7.34635e-13
1.08957e-12
1.59461e-12
2.30271e-12
3.26605e-12
4.56768e-12
6.34381e-12
8.67095e-12
1.17452e-11
1.57019e-11
2.0774e-11
2.72098e-11
3.54935e-11
4.59842e-11
5.96967e-11
7.8509e-11
1.07e-10
1.58729e-10
2.60877e-10
4.86104e-10
1.03866e-09
2.41858e-09
5.68457e-09
1.4335e-08
3.65754e-08
8.64473e-08
2.09354e-07
4.86898e-07
1.17949e-06
2.83154e-06
6.74378e-06
1.56886e-05
3.56428e-05
7.90488e-05
0.000171029
0.000360568
0.000738597
0.00146528
0.00257376
0.00468578
0.00777737
0.0126961
0.0206923
0.0324407
0.0485857
0.0697287
0.0946616
0.124506
0.15883
0.196853
0.237556
0.280228
0.32317
0.36525
0.405521
0.443216
0.478094
0.510061
0.539119
0.565321
0.589413
0.610183
0.628584
0.644869
0.659462
0.672179
0.683419
0.693362
0.702445
0.710304
0.717382
0.723805
0.729667
0.735039
0.740065
0.744577
0.748776
0.75253
0.755927
0.758973
0.761675
0.764039
0.766075
0.767795
0.769353
0
0
1.66533e-15
6.10623e-15
1.36557e-14
2.87548e-14
5.29576e-14
9.57012e-14
1.68532e-13
2.82774e-13
4.65072e-13
7.46403e-13
1.16984e-12
1.79612e-12
2.70417e-12
3.99358e-12
5.8219e-12
8.32656e-12
1.17301e-11
1.62891e-11
2.23043e-11
3.01972e-11
4.03533e-11
5.32537e-11
6.94804e-11
8.96285e-11
1.14341e-10
1.44373e-10
1.81063e-10
2.25222e-10
2.79641e-10
3.48672e-10
4.45618e-10
5.98426e-10
8.85931e-10
1.50429e-09
2.9329e-09
6.28537e-09
1.50512e-08
3.70152e-08
8.78227e-08
2.06279e-07
4.85064e-07
1.17908e-06
2.81773e-06
6.71296e-06
1.56329e-05
3.5551e-05
7.89211e-05
0.000170909
0.000360635
0.000739331
0.00146779
0.00257977
0.00469535
0.00779724
0.0127461
0.020782
0.0325839
0.0487985
0.0700258
0.0950561
0.125002
0.159421
0.197526
0.23829
0.280992
0.323938
0.366013
0.406215
0.443839
0.478648
0.510551
0.539542
0.565685
0.589725
0.610448
0.628809
0.645061
0.659617
0.672311
0.683531
0.693458
0.702522
0.71037
0.717439
0.723854
0.729711
0.735077
0.740096
0.744604
0.748797
0.752548
0.755942
0.758985
0.761685
0.764047
0.76608
0.767798
0.769353
1.22125e-15
7.43849e-15
1.95399e-14
4.42979e-14
9.33698e-14
1.82743e-13
3.3995e-13
6.05627e-13
1.04117e-12
1.73228e-12
2.79798e-12
4.40969e-12
6.78957e-12
1.02554e-11
1.51632e-11
2.19806e-11
3.1302e-11
4.38448e-11
6.04646e-11
8.21967e-11
1.10273e-10
1.45443e-10
1.90351e-10
2.44608e-10
3.12295e-10
3.92793e-10
4.88681e-10
6.0086e-10
7.31736e-10
8.84507e-10
1.05672e-09
1.26326e-09
1.5018e-09
1.8099e-09
2.26178e-09
3.04119e-09
4.63775e-09
8.17163e-09
1.67477e-08
3.79333e-08
8.93047e-08
2.07252e-07
4.79717e-07
1.16584e-06
2.79816e-06
6.66599e-06
1.55377e-05
3.53775e-05
7.86453e-05
0.000170565
0.00036043
0.0007399
0.00147071
0.00258756
0.00470629
0.00782122
0.0128095
0.0208983
0.0327719
0.0490807
0.0704239
0.0955912
0.125689
0.160221
0.19842
0.239259
0.281998
0.324951
0.367005
0.407126
0.444645
0.47936
0.511173
0.540084
0.566153
0.590128
0.610791
0.629101
0.645309
0.659817
0.672481
0.683674
0.693579
0.70262
0.710454
0.717511
0.723917
0.729766
0.735125
0.740135
0.744638
0.748824
0.752571
0.75596
0.759001
0.761697
0.764056
0.766086
0.767801
0.769355
9.76996e-15
4.55191e-14
1.27676e-13
2.94986e-13
6.13287e-13
1.18694e-12
2.18692e-12
3.83937e-12
6.49325e-12
1.06678e-11
1.69434e-11
2.62533e-11
3.96964e-11
5.86912e-11
8.52829e-11
1.21221e-10
1.6902e-10
2.31654e-10
3.12987e-10
4.15104e-10
5.45505e-10
7.03489e-10
8.96616e-10
1.12834e-09
1.40284e-09
1.7226e-09
2.09185e-09
2.50901e-09
2.98646e-09
3.5085e-09
4.08111e-09
4.7067e-09
5.39037e-09
6.16443e-09
7.06333e-09
8.30529e-09
1.03057e-08
1.41822e-08
2.30875e-08
4.48172e-08
9.37335e-08
2.15004e-07
4.88586e-07
1.15456e-06
2.76112e-06
6.5923e-06
1.53957e-05
3.51161e-05
7.82157e-05
0.000169951
0.000359847
0.000740119
0.00147382
0.00259677
0.00471565
0.00784739
0.0128833
0.0210351
0.0329942
0.0494139
0.0708893
0.0962031
0.126444
0.161128
0.199466
0.240408
0.283201
0.326142
0.368155
0.408166
0.445586
0.480198
0.511912
0.54073
0.566711
0.590607
0.611199
0.629447
0.645603
0.660051
0.672678
0.683842
0.693722
0.702734
0.710553
0.717596
0.72399
0.729829
0.73518
0.74018
0.744677
0.748855
0.752597
0.755982
0.759018
0.761711
0.764066
0.766093
0.767805
0.769356
7.02771e-14
3.16969e-13
8.68083e-13
1.98164e-12
4.07285e-12
7.77534e-12
1.42029e-11
2.45881e-11
4.09978e-11
6.60927e-11
1.03342e-10
1.57086e-10
2.33271e-10
3.37964e-10
4.79738e-10
6.68869e-10
9.12388e-10
1.22277e-09
1.6154e-09
2.09808e-09
2.68553e-09
3.38664e-09
4.22607e-09
5.18731e-09
6.26592e-09
7.5314e-09
8.94167e-09
1.04589e-08
1.21173e-08
1.3831e-08
1.57399e-08
1.76963e-08
1.97126e-08
2.17415e-08
2.38394e-08
2.61825e-08
2.92091e-08
3.38848e-08
4.33812e-08
6.51987e-08
1.14435e-07
2.31723e-07
5.04996e-07
1.15143e-06
2.72734e-06
6.49704e-06
1.5194e-05
3.47413e-05
7.75397e-05
0.00016897
0.000358621
0.00073937
0.00147567
0.00260513
0.00472054
0.00786783
0.0129549
0.0211768
0.0332312
0.049774
0.0713957
0.0968704
0.127267
0.162133
0.200608
0.241635
0.284433
0.327374
0.369379
0.409309
0.446631
0.481138
0.51275
0.54147
0.567344
0.591148
0.611657
0.629835
0.645932
0.660313
0.672899
0.684028
0.69388
0.70286
0.710659
0.717687
0.724069
0.729898
0.73524
0.740228
0.744719
0.748888
0.752624
0.756005
0.759037
0.761725
0.764076
0.7661
0.76781
0.769357
4.88387e-13
2.17459e-12
5.92049e-12
1.34135e-11
2.72791e-11
5.18525e-11
9.27227e-11
1.58374e-10
2.59948e-10
4.11826e-10
6.32021e-10
9.41853e-10
1.37352e-09
1.9462e-09
2.70629e-09
3.67704e-09
4.92006e-09
6.43801e-09
8.29615e-09
1.05397e-08
1.31806e-08
1.62601e-08
1.97703e-08
2.371e-08
2.80992e-08
3.28598e-08
3.8001e-08
4.3463e-08
4.89762e-08
5.50045e-08
6.08038e-08
6.60742e-08
7.19084e-08
7.69112e-08
8.17397e-08
8.62929e-08
9.11228e-08
9.61281e-08
1.0613e-07
1.28626e-07
1.77094e-07
2.88713e-07
5.44867e-07
1.17972e-06
2.71311e-06
6.39648e-06
1.49364e-05
3.42141e-05
7.66079e-05
0.000167357
0.000356619
0.000737588
0.00147669
0.00261372
0.00472013
0.00788394
0.0130286
0.0213229
0.0334795
0.0501599
0.07195
0.0976118
0.128205
0.163248
0.201877
0.243026
0.285904
0.328774
0.370764
0.41056
0.447773
0.482159
0.513645
0.542237
0.568025
0.591717
0.612144
0.630249
0.646283
0.660592
0.673133
0.684223
0.694042
0.702989
0.710769
0.717781
0.724149
0.729967
0.735299
0.740276
0.744759
0.74892
0.752651
0.756027
0.759054
0.761739
0.764087
0.766107
0.767814
0.769358
3.39129e-12
1.50938e-11
4.08752e-11
9.20488e-11
1.85593e-10
3.46787e-10
6.11473e-10
1.0276e-09
1.65671e-09
2.57512e-09
3.87456e-09
5.66279e-09
8.05542e-09
1.11851e-08
1.51665e-08
2.01924e-08
2.63501e-08
3.37517e-08
4.2502e-08
5.26345e-08
6.42377e-08
7.72356e-08
9.16595e-08
1.07258e-07
1.24127e-07
1.41704e-07
1.59898e-07
1.78553e-07
1.97256e-07
2.15058e-07
2.32578e-07
2.49109e-07
2.63149e-07
2.75645e-07
2.83797e-07
2.88754e-07
2.95655e-07
3.01228e-07
3.10259e-07
3.27236e-07
3.67321e-07
4.66051e-07
6.97682e-07
1.29693e-06
2.76703e-06
6.32604e-06
1.46382e-05
3.35329e-05
7.53098e-05
0.000165166
0.000353196
0.00073413
0.00147651
0.00262391
0.0047076
0.00788918
0.0130962
0.0214953
0.0337936
0.0506494
0.0726365
0.0984997
0.129254
0.164444
0.203192
0.244418
0.287297
0.330189
0.372078
0.411708
0.449126
0.483336
0.514649
0.543115
0.568758
0.59231
0.61265
0.630682
0.646649
0.660879
0.67337
0.684419
0.694204
0.703114
0.710873
0.717868
0.724223
0.730029
0.735353
0.740317
0.744794
0.748947
0.752674
0.756046
0.759069
0.76175
0.764095
0.766113
0.767817
0.769359
2.3435e-11
1.07149e-10
2.8722e-10
6.38685e-10
1.27133e-09
2.34048e-09
4.0616e-09
6.70072e-09
1.05874e-08
1.61082e-08
2.3702e-08
3.38363e-08
4.69363e-08
6.38492e-08
8.4543e-08
1.09628e-07
1.3945e-07
1.74421e-07
2.14265e-07
2.59053e-07
3.08366e-07
3.61969e-07
4.18929e-07
4.78796e-07
5.39601e-07
6.01289e-07
6.62041e-07
7.20374e-07
7.73561e-07
8.16967e-07
8.67669e-07
8.99794e-07