/*--------------------------------*- C++ -*----------------------------------*\
  =========                 |
  \\      /  F ield         | OpenFOAM: The Open Source CFD Toolbox
   \\    /   O peration     | Website:  https://openfoam.org
    \\  /    A nd           | Version:  10
     \\/     M anipulation  |
\*---------------------------------------------------------------------------*/
FoamFile
{
    format      ascii;
    class       volScalarField;
    location    "1";
    object      NC12H26;
}
// * * * * * * * * * * * * * * * * * * * * * * * * * * * * * * * * * * * * * //

dimensions      [0 0 0 0 0 0 0];

internalField   nonuniform List<scalar> 
4000
(
0.860473
0.735492
0.652869
0.601836
0.565464
0.53592
0.512142
0.494745
0.486652
0.497985
0.549557
0.591435
0.628409
0.661708
0.691982
0.719619
0.744725
0.768126
0.789098
0.808271
0.825798
0.841666
0.856813
0.870199
0.882609
0.894066
0.904522
0.914324
0.923174
0.931316
0.93877
0.94556
0.951721
0.957604
0.962992
0.967707
0.972189
0.97617
0.9797
0.982937
0.985782
0.988203
0.990304
0.992078
0.993524
0.994659
0.99577
0.996773
0.99762
0.998241
0.998611
0.998672
0.998312
0.99718
0.994716
0.990036
0.982102
0.968484
0.947284
0.916576
0.875381
0.826167
0.767073
0.699592
0.625934
0.548755
0.470277
0.394373
0.322517
0.255499
0.193969
0.138625
0.0902765
0.0512306
0.0245216
0.0107787
0.00491351
0.00232089
0.00113133
0.000565896
0.000290829
0.000152892
8.19251e-05
4.45437e-05
2.44133e-05
1.33749e-05
7.26543e-06
3.88349e-06
2.02778e-06
1.02725e-06
5.02051e-07
2.28413e-07
1.00011e-07
4.10601e-08
1.59383e-08
6.53531e-09
3.36677e-09
1.95918e-09
1.06656e-09
3.14773e-10
0.984984
0.956159
0.927895
0.902893
0.881989
0.863488
0.845786
0.829008
0.815654
0.80798
0.807385
0.811596
0.818539
0.826993
0.836269
0.845978
0.855804
0.86558
0.875153
0.88443
0.893353
0.901927
0.910107
0.917855
0.925203
0.932114
0.938616
0.944704
0.950398
0.955692
0.960637
0.96522
0.969737
0.973414
0.976782
0.979937
0.9827
0.985336
0.987638
0.989683
0.991399
0.992945
0.994226
0.995319
0.996283
0.99735
0.998123
0.998684
0.999062
0.999243
0.999232
0.999037
0.998421
0.99707
0.994347
0.989203
0.981006
0.967146
0.945784
0.915504
0.874806
0.826264
0.76804
0.701524
0.628966
0.55264
0.47474
0.398538
0.326643
0.259427
0.197313
0.141383
0.0925666
0.05282
0.0253526
0.0111162
0.00505461
0.00238202
0.00115878
0.000578555
0.000296678
0.000155725
8.33421e-05
4.52305e-05
2.47299e-05
1.35128e-05
7.31918e-06
3.89962e-06
2.02893e-06
1.02349e-06
4.9776e-07
2.25259e-07
9.80193e-08
4.00097e-08
1.54775e-08
6.42194e-09
3.35102e-09
1.95789e-09
1.06583e-09
3.13801e-10
0.997934
0.992014
0.984069
0.975502
0.967172
0.95931
0.952398
0.946822
0.942511
0.938797
0.935938
0.93403
0.933061
0.932974
0.933676
0.935049
0.936991
0.939374
0.942197
0.945213
0.948426
0.951756
0.955132
0.958497
0.961792
0.96492
0.968072
0.971093
0.973968
0.976668
0.979262
0.981834
0.983771
0.985841
0.987723
0.989468
0.990964
0.992335
0.993553
0.994542
0.995468
0.996224
0.996959
0.997537
0.998142
0.998645
0.999061
0.999339
0.999437
0.99947
0.999417
0.999122
0.998378
0.996811
0.993868
0.988756
0.980458
0.966438
0.944977
0.914605
0.874157
0.82609
0.768619
0.70314
0.631502
0.555993
0.478802
0.403131
0.3308
0.263157
0.200315
0.14403
0.0947184
0.0544092
0.02625
0.0114894
0.00521228
0.00245107
0.00119016
0.000593336
0.000304056
0.000159383
8.51508e-05
4.60695e-05
2.51163e-05
1.36816e-05
7.38531e-06
3.92011e-06
2.03049e-06
1.01783e-06
4.91617e-07
2.21039e-07
9.55114e-08
3.87129e-08
1.49364e-08
6.30058e-09
3.34026e-09
1.9635e-09
1.06973e-09
3.14437e-10
0.999725
0.99886
0.997385
0.99541
0.993155
0.990836
0.988659
0.986723
0.984982
0.983374
0.981923
0.980691
0.979688
0.978946
0.978461
0.978224
0.978223
0.97844
0.978851
0.979427
0.980094
0.981004
0.98197
0.983004
0.984112
0.985333
0.986412
0.987531
0.988588
0.989646
0.990673
0.991665
0.992671
0.993557
0.994413
0.995154
0.995847
0.996412
0.99699
0.99748
0.997881
0.998256
0.998584
0.998886
0.999147
0.99939
0.999561
0.999627
0.999672
0.999665
0.999517
0.999118
0.998248
0.996519
0.993355
0.988441
0.979902
0.965701
0.944072
0.913873
0.873732
0.826132
0.769276
0.70445
0.633559
0.558805
0.482307
0.406718
0.334357
0.266505
0.203392
0.146689
0.0967435
0.0557986
0.0271205
0.0117394
0.00533058
0.00250855
0.00121872
0.00060767
0.000311247
0.000163112
8.73135e-05
4.65461e-05
2.53756e-05
1.38085e-05
7.44016e-06
3.9406e-06
2.03958e-06
1.00581e-06
4.83654e-07
2.16717e-07
9.30906e-08
3.75041e-08
1.44376e-08
6.20323e-09
3.33958e-09
1.97473e-09
1.0768e-09
3.16049e-10
0.999964
0.999848
0.999629
0.999294
0.99886
0.998363
0.997846
0.99733
0.996812
0.996287
0.995778
0.995296
0.994847
0.994448
0.994104
0.993826
0.993617
0.993479
0.993416
0.99343
0.993563
0.993633
0.993792
0.994004
0.994261
0.994556
0.994874
0.995212
0.995555
0.995914
0.996252
0.996655
0.99704
0.997378
0.997689
0.997981
0.998294
0.998522
0.99872
0.998873
0.999057
0.99922
0.99936
0.999501
0.999622
0.999722
0.99976
0.999808
0.999809
0.999742
0.999542
0.999086
0.998108
0.99616
0.993146
0.988087
0.979352
0.965054
0.943428
0.913204
0.873258
0.825985
0.769621
0.705399
0.635203
0.561247
0.485004
0.409447
0.336934
0.269031
0.205651
0.148583
0.0983102
0.0569994
0.0278252
0.0120271
0.00545275
0.00256421
0.00124468
0.000619993
0.000317362
0.000166234
8.89298e-05
4.73687e-05
2.5773e-05
1.39938e-05
7.52088e-06
3.97149e-06
2.04805e-06
1.00627e-06
4.81297e-07
2.14823e-07
9.17465e-08
3.67602e-08
1.41378e-08
6.16763e-09
3.36057e-09
1.99586e-09
1.0889e-09
3.19193e-10
0.999996
0.999981
0.999952
0.999905
0.999839
0.999753
0.999649
0.99953
0.9994
0.999261
0.999117
0.998972
0.998826
0.998688
0.998558
0.99844
0.998336
0.998249
0.998179
0.99813
0.998099
0.998087
0.998093
0.998117
0.998159
0.998217
0.998287
0.998369
0.998465
0.998568
0.998685
0.998786
0.998896
0.998997
0.9991
0.999208
0.999295
0.999385
0.999475
0.99956
0.999619
0.999679
0.999741
0.999791
0.999843
0.999863
0.999889
0.999889
0.999864
0.999769
0.999541
0.999042
0.998009
0.995972
0.992842
0.987685
0.978906
0.964432
0.942825
0.912698
0.872965
0.82602
0.770075
0.706319
0.636542
0.562896
0.487106
0.411931
0.339433
0.27121
0.207449
0.150152
0.0996198
0.0578941
0.0283344
0.0122463
0.0055493
0.00260797
0.0012654
0.00063027
0.000322531
0.000168903
9.03049e-05
4.81169e-05
2.61557e-05
1.41826e-05
7.60878e-06
4.00879e-06
2.06124e-06
1.01057e-06
4.81399e-07
2.14401e-07
9.11686e-08
3.63814e-08
1.39941e-08
6.17795e-09
3.39606e-09
2.02326e-09
1.10413e-09
3.23342e-10
0.999999
0.999998
0.999994
0.999987
0.999978
0.999964
0.999946
0.999923
0.999897
0.999866
0.999833
0.999797
0.999758
0.999719
0.99968
0.999642
0.999605
0.999571
0.999541
0.999514
0.999493
0.999476
0.999464
0.999458
0.999458
0.999463
0.999474
0.999489
0.999508
0.999533
0.999561
0.999589
0.999622
0.999653
0.999681
0.999715
0.999751
0.999777
0.999803
0.999827
0.99985
0.999872
0.999896
0.999914
0.999927
0.999942
0.999944
0.999929
0.999885
0.999775
0.999529
0.999001
0.997927
0.995833
0.992632
0.987373
0.978536
0.964021
0.942383
0.912344
0.872833
0.826174
0.770603
0.707244
0.637854
0.564476
0.488892
0.413957
0.341384
0.273048
0.209064
0.151567
0.100767
0.0587406
0.0288321
0.0124545
0.0056428
0.00265089
0.00128591
0.000640277
0.000327586
0.000171511
9.16628e-05
4.88557e-05
2.65404e-05
1.4378e-05
7.7041e-06
4.05247e-06
2.07928e-06
1.01797e-06
4.83489e-07
2.15059e-07
9.11637e-08
3.62749e-08
1.39585e-08
6.21799e-09
3.44016e-09
2.0541e-09
1.12115e-09
3.28096e-10
1
1
0.999999
0.999998
0.999997
0.999995
0.999992
0.999988
0.999983
0.999977
0.99997
0.999962
0.999953
0.999943
0.999933
0.999923
0.999912
0.999902
0.999892
0.999882
0.999874
0.999866
0.99986
0.999855
0.999851
0.999849
0.999849
0.99985
0.999852
0.999856
0.999862
0.99987
0.999877
0.999886
0.999895
0.999904
0.999912
0.999921
0.999929
0.999937
0.999944
0.999951
0.999959
0.999964
0.999969
0.999969
0.999964
0.999944
0.999892
0.999772
0.999508
0.998955
0.997845
0.995702
0.992443
0.987126
0.978237
0.963689
0.942085
0.912173
0.872902
0.82653
0.771324
0.708279
0.639281
0.566399
0.490828
0.415986
0.343286
0.274883
0.210714
0.153005
0.101987
0.0596487
0.0293746
0.0126827
0.00574206
0.00269636
0.00130761
0.000650714
0.000332852
0.000174229
9.30857e-05
4.96217e-05
2.69444e-05
1.45876e-05
7.80983e-06
4.10354e-06
2.10242e-06
1.02831e-06
4.87405e-07
2.16621e-07
9.16295e-08
3.63884e-08
1.40071e-08
6.27929e-09
3.48941e-09
2.08673e-09
1.13911e-09
3.33191e-10
1
1
1
1
1
0.999999
0.999999
0.999998
0.999997
0.999996
0.999995
0.999993
0.999991
0.999989
0.999987
0.999984
0.999982
0.999979
0.999976
0.999973
0.99997
0.999968
0.999965
0.999963
0.999961
0.99996
0.999959
0.999959
0.999958
0.999959
0.999959
0.99996
0.999962
0.999964
0.999966
0.999968
0.999971
0.999973
0.999976
0.999978
0.99998
0.999982
0.999984
0.999985
0.999985
0.999982
0.999973
0.999948
0.999891
0.999763
0.999486
0.998914
0.997775
0.995592
0.9923
0.986944
0.97802
0.963469
0.94193
0.912188
0.873202
0.827226
0.772421
0.70992
0.641266
0.568433
0.493248
0.418268
0.345621
0.27702
0.212785
0.154819
0.10341
0.0606769
0.0299797
0.0129349
0.00585108
0.002746
0.0013314
0.000662043
0.000338555
0.000177167
9.46263e-05
5.04386e-05
2.73778e-05
1.48155e-05
7.92721e-06
4.16218e-06
2.13044e-06
1.04132e-06
4.92914e-07
2.18951e-07
9.24862e-08
3.66823e-08
1.4126e-08
6.35821e-09
3.54279e-09
2.12059e-09
1.15764e-09
3.38505e-10
1
1
1
1
1
1
1
1
1
0.999999
0.999999
0.999999
0.999998
0.999998
0.999997
0.999997
0.999996
0.999996
0.999995
0.999994
0.999993
0.999993
0.999992
0.999991
0.99999
0.99999
0.999989
0.999989
0.999989
0.999988
0.999989
0.999989
0.999989
0.999989
0.999989
0.99999
0.999991
0.999991
0.999992
0.999992
0.999993
0.999993
0.999993
0.999993
0.999992
0.999988
0.999976
0.999949
0.999887
0.999752
0.999463
0.998872
0.997708
0.99552
0.992199
0.9868
0.97787
0.963349
0.941907
0.912337
0.873606
0.827965
0.773686
0.711598
0.643346
0.570884
0.495738
0.420612
0.347853
0.279202
0.214708
0.156493
0.104804
0.0617421
0.0306703
0.0132319
0.00598137
0.00280528
0.00135905
0.000674862
0.000344899
0.000180393
9.6307e-05
5.13131e-05
2.78392e-05
1.506e-05
8.05491e-06
4.22729e-06
2.16258e-06
1.0565e-06
4.99714e-07
2.2189e-07
9.36507e-08
3.71161e-08
1.42953e-08
6.44849e-09
3.59843e-09
2.15494e-09
1.1764e-09
3.43926e-10
1
1
1
1
1
1
1
1
1
1
1
1
1
1
1
0.999999
0.999999
0.999999
0.999999
0.999999
0.999999
0.999998
0.999998
0.999998
0.999998
0.999997
0.999997
0.999997
0.999997
0.999997
0.999997
0.999997
0.999997
0.999997
0.999997
0.999997
0.999997
0.999997
0.999997
0.999997
0.999997
0.999997
0.999997
0.999997
0.999995
0.999989
0.999977
0.999947
0.999881
0.999738
0.999433
0.998808
0.997566
0.9955
0.992124
0.986696
0.977785
0.963321
0.94201
0.912701
0.874334
0.82907
0.77499
0.713307
0.645398
0.573199
0.498211
0.42318
0.35014
0.281273
0.216661
0.158226
0.106333
0.0629329
0.0313939
0.0135299
0.00611028
0.00286289
0.00138634
0.000687595
0.000351247
0.00018364
9.80104e-05
5.21989e-05
2.83163e-05
1.53127e-05
8.18758e-06
4.29578e-06
2.19725e-06
1.07309e-06
5.07394e-07
2.25247e-07
9.50295e-08
3.76498e-08
1.4501e-08
6.54685e-09
3.65531e-09
2.18931e-09
1.19511e-09
3.49362e-10
1
1
1
1
1
1
1
1
1
1
1
1
1
1
1
1
1
1
1
1
1
1
1
1
0.999999
0.999999
0.999999
0.999999
0.999999
0.999999
0.999999
0.999999
0.999999
0.999999
0.999999
0.999999
0.999999
0.999999
0.999999
0.999999
0.999999
0.999999
0.999999
0.999998
0.999995
0.99999
0.999976
0.999945
0.999876
0.999726
0.999409
0.998763
0.997491
0.995499
0.992058
0.986612
0.977741
0.96335
0.942178
0.913043
0.874971
0.830042
0.776483
0.715106
0.647477
0.575486
0.500582
0.425671
0.352514
0.28329
0.218874
0.160139
0.107896
0.0640957
0.0321103
0.0138395
0.00624204
0.00292301
0.00141466
0.000700742
0.000357721
0.000186925
9.9729e-05
5.30893e-05
2.87971e-05
1.55738e-05
8.32764e-06
4.36932e-06
2.23449e-06
1.09087e-06
5.15745e-07
2.28953e-07
9.65912e-08
3.82626e-08
1.4734e-08
6.65016e-09
3.71215e-09
2.22299e-09
1.2134e-09
3.54702e-10
1
1
1
1
1
1
1
1
1
1
1
1
1
1
1
1
1
1
1
1
1
1
1
1
1
1
1
1
1
1
1
1
1
1
1
1
1
1
1
1
1
0.999999
0.999999
0.999998
0.999995
0.999989
0.999975
0.999943
0.999872
0.999718
0.999397
0.998746
0.997472
0.9955
0.991983
0.986548
0.977732
0.963434
0.942412
0.913498
0.875625
0.83102
0.777857
0.716876
0.649566
0.577802
0.50297
0.428145
0.354883
0.285495
0.220918
0.16186
0.109349
0.06523
0.0328524
0.0141585
0.00638031
0.00298451
0.00144322
0.000713897
0.000364322
0.000190317
0.000101513
5.39959e-05
2.92833e-05
1.58355e-05
8.46762e-06
4.44319e-06
2.2729e-06
1.10949e-06
5.24664e-07
2.32838e-07
9.82242e-08
3.89084e-08
1.49784e-08
6.75626e-09
3.76988e-09
2.25721e-09
1.232e-09
3.60137e-10
1
1
1
1
1
1
1
1
1
1
1
1
1
1
1
1
1
1
1
1
1
1
1
1
1
1
1
1
1
1
1
1
1
1
1
1
1
1
1
1
1
1
0.999999
0.999998
0.999995
0.999989
0.999975
0.999942
0.999869
0.999713
0.999389
0.998734
0.997463
0.995504
0.991929
0.986502
0.977743
0.96353
0.942635
0.913947
0.876396
0.832099
0.779165
0.718548
0.651511
0.579963
0.505257
0.430301
0.357066
0.287547
0.222807
0.163562
0.110765
0.0663093
0.033544
0.0144705
0.00651408
0.00304417
0.00147149
0.000727042
0.000370808
0.000193614
0.000103239
5.48804e-05
2.97565e-05
1.60897e-05
8.60349e-06
4.51486e-06
2.31003e-06
1.12743e-06
5.33276e-07
2.36671e-07
9.98745e-08
3.95719e-08
1.52286e-08
6.86033e-09
3.8246e-09
2.28909e-09
1.24926e-09
3.65191e-10
1
1
1
1
1
1
1
1
1
1
1
1
1
1
1
1
1
1
1
1
1
1
1
1
1
1
1
1
1
1
1
1
1
1
1
1
1
1
1
1
1
1
0.999999
0.999998
0.999995
0.999989
0.999974
0.99994
0.999867
0.999709
0.999383
0.998727
0.997458
0.995508
0.991895
0.98648
0.977782
0.963657
0.942909
0.914385
0.877089
0.833089
0.780482
0.720098
0.65332
0.581975
0.507384
0.432483
0.359172
0.289459
0.224534
0.165086
0.11206
0.0673344
0.0341973
0.0147664
0.00664054
0.00310108
0.00149799
0.000739236
0.000376811
0.000196655
0.000104825
5.56867e-05
3.01885e-05
1.63222e-05
8.728e-06
4.5807e-06
2.34425e-06
1.14397e-06
5.41232e-07
2.40187e-07
1.01386e-07
4.01803e-08
1.54592e-08
6.95462e-09
3.87343e-09
2.31737e-09
1.26457e-09
3.69684e-10
1
1
1
1
1
1
1
1
1
1
1
1
1
1
1
1
1
1
1
1
1
1
1
1
1
1
1
1
1
1
1
1
1
1
1
1
1
1
1
1
1
1
0.999999
0.999998
0.999995
0.999989
0.999973
0.999939
0.999865
0.999707
0.999379
0.998722
0.997454
0.995513
0.991873
0.986469
0.977829
0.963794
0.943169
0.914824
0.877721
0.833935
0.78156
0.721371
0.654835
0.583672
0.509169
0.434279
0.360973
0.29112
0.226029
0.166405
0.11319
0.0682095
0.0347599
0.0150236
0.00675026
0.00315003
0.0015208
0.000749743
0.000381981
0.000199268
0.000106192
5.63808e-05
3.05607e-05
1.65227e-05
8.83555e-06
4.6377e-06
2.37396e-06
1.15839e-06
5.48255e-07
2.43283e-07
1.02721e-07
4.07181e-08
1.5662e-08
7.0364e-09
3.91529e-09
2.34145e-09
1.27757e-09
3.735e-10
1
1
1
1
1
1
1
1
1
1
1
1
1
1
1
1
1
1
1
1
1
1
1
1
1
1
1
1
1
1
1
1
1
1
1
1
1
1
1
1
1
1
0.999999
0.999998
0.999995
0.999988
0.999973
0.999939
0.999864
0.999705
0.999376
0.998719
0.997452
0.995516
0.991861
0.986468
0.977874
0.963901
0.943364
0.915139
0.878182
0.834609
0.782461
0.722506
0.656118
0.585073
0.510634
0.435772
0.362446
0.29246
0.227216
0.167441
0.114059
0.0688927
0.0352042
0.0152285
0.00683771
0.00318902
0.00153896
0.000758108
0.000386095
0.000201344
0.000107273
5.69295e-05
3.08552e-05
1.66816e-05
8.92097e-06
4.68308e-06
2.39767e-06
1.1699e-06
5.53861e-07
2.45757e-07
1.03791e-07
4.11502e-08
1.58236e-08
7.10111e-09
3.94828e-09
2.36043e-09
1.28783e-09
3.76515e-10
1
1
1
1
1
1
1
1
1
1
1
1
1
1
1
1
1
1
1
1
1
1
1
1
1
1
1
1
1
1
1
1
1
1
1
1
1
1
1
1
1
1
0.999999
0.999998
0.999995
0.999988
0.999973
0.999938
0.999863
0.999703
0.999374
0.998716
0.997451
0.995518
0.991853
0.986468
0.977907
0.963979
0.943508
0.915372
0.878523
0.835079
0.783073
0.723253
0.656974
0.586023
0.511631
0.436775
0.363464
0.293384
0.228036
0.168168
0.114685
0.0693783
0.0355194
0.0153746
0.00689991
0.00321671
0.00155184
0.000764043
0.000389015
0.000202825
0.000108044
5.732e-05
3.10645e-05
1.67944e-05
8.98158e-06
4.71526e-06
2.4145e-06
1.17808e-06
5.57847e-07
2.47514e-07
1.04552e-07
4.14578e-08
1.5939e-08
7.14701e-09
3.97152e-09
2.37376e-09
1.29501e-09
3.78627e-10
1
1
1
1
1
1
1
1
1
1
1
1
1
1
1
1
1
1
1
1
1
1
1
1
1
1
1
1
1
1
1
1
1
1
1
1
1
1
1
1
1
1
0.999999
0.999998
0.999995
0.999988
0.999973
0.999938
0.999862
0.999702
0.999373
0.998715
0.997449
0.995519
0.991847
0.986466
0.977922
0.964017
0.943581
0.915493
0.878707
0.835327
0.783389
0.723638
0.657421
0.586517
0.51215
0.437308
0.363999
0.293875
0.22848
0.168555
0.115013
0.0696349
0.0356866
0.0154524
0.00693302
0.00323143
0.00155868
0.000767196
0.000390567
0.000203613
0.000108456
5.7529e-05
3.11768e-05
1.68551e-05
9.01423e-06
4.73262e-06
2.42358e-06
1.1825e-06
5.59998e-07
2.48462e-07
1.04962e-07
4.16237e-08
1.60017e-08
7.17177e-09
3.98395e-09
2.38086e-09
1.29884e-09
3.79754e-10
1
1
1
1
1
1
1
1
1
1
1
1
1
1
1
1
1
1
1
1
1
1
1
1
1
1
1
1
1
1
1
1
1
1
1
1
1
1
1
1
1
1
0.999999
0.999998
0.999995
0.999988
0.999973
0.999938
0.999862
0.999702
0.999372
0.998713
0.997448
0.995518
0.99184
0.986459
0.977919
0.96402
0.943593
0.915517
0.878745
0.835381
0.783457
0.723719
0.657512
0.586614
0.512248
0.437405
0.364095
0.29396
0.228554
0.168619
0.115066
0.0696756
0.0357128
0.0154645
0.0069381
0.00323365
0.00155969
0.000767656
0.00039079
0.000203724
0.000108514
5.7558e-05
3.11923e-05
1.68634e-05
9.01869e-06
4.73499e-06
2.42481e-06
1.18309e-06
5.60284e-07
2.48589e-07
1.05016e-07
4.16454e-08
1.60096e-08
7.17498e-09
3.98562e-09
2.38181e-09
1.29935e-09
3.799e-10
1
1
1
1
1
1
1
1
1
1
1
1
1
1
1
1
1
1
1
1
1
1
1
1
1
1
1
1
1
1
1
1
1
1
1
1
1
1
1
1
1
1
0.999999
0.999998
0.999995
0.999988
0.999973
0.999938
0.999862
0.999701
0.999371
0.998712
0.997445
0.995514
0.991831
0.986445
0.97789
0.963973
0.943521
0.915413
0.878601
0.83519
0.783215
0.723427
0.657175
0.586241
0.511856
0.437009
0.363702
0.293599
0.228229
0.168332
0.114822
0.0694852
0.0355886
0.0154069
0.00691352
0.00322269
0.00155459
0.000765301
0.00038963
0.000203136
0.000108206
5.74022e-05
3.11086e-05
1.68182e-05
8.99433e-06
4.722e-06
2.418e-06
1.17978e-06
5.58661e-07
2.4787e-07
1.04703e-07
4.15183e-08
1.5962e-08
7.1562e-09
3.97618e-09
2.37641e-09
1.29643e-09
3.79043e-10
1
1
1
1
1
1
1
1
1
1
1
1
1
1
1
1
1
1
1
1
1
1
1
1
1
1
1
1
1
1
1
1
1
1
1
1
1
1
1
1
1
1
0.999999
0.999998
0.999995
0.999988
0.999973
0.999938
0.999862
0.999701
0.99937
0.998711
0.997442
0.995507
0.991819
0.986421
0.977834
0.963875
0.943367
0.915186
0.878282
0.834765
0.782678
0.722778
0.656431
0.585425
0.511004
0.436149
0.36285
0.29282
0.22753
0.167717
0.1143
0.0690751
0.0353209
0.0152828
0.00686056
0.00319908
0.00154359
0.000760236
0.000387136
0.000201873
0.000107547
5.70683e-05
3.09293e-05
1.67213e-05
8.94219e-06
4.69425e-06
2.40345e-06
1.17269e-06
5.55201e-07
2.46345e-07
1.0404e-07
4.12499e-08
1.58621e-08
7.11674e-09
3.95625e-09
2.36497e-09
1.29024e-09
3.7722e-10
1
1
1
1
1
1
1
1
1
1
1
1
1
1
1
1
1
1
1
1
1
1
1
1
1
1
1
1
1
1
1
1
1
1
1
1
1
1
1
1
1
1
0.999999
0.999998
0.999995
0.999988
0.999973
0.999938
0.999862
0.999702
0.99937
0.998709
0.997438
0.995496
0.991802
0.986387
0.977747
0.963719
0.943118
0.914815
0.877764
0.834077
0.781811
0.721746
0.655257
0.584143
0.50967
0.434806
0.361517
0.291608
0.226445
0.166765
0.113487
0.0684464
0.0349145
0.0150957
0.00678086
0.00316358
0.00152707
0.00075263
0.00038339
0.00019997
0.000106555
5.6566e-05
3.06598e-05
1.65759e-05
8.86393e-06
4.65263e-06
2.38165e-06
1.1621e-06
5.50026e-07
2.4406e-07
1.03048e-07
4.08479e-08
1.5711e-08
7.05712e-09
3.92627e-09
2.34781e-09
1.28098e-09
3.74493e-10
1
1
1
1
1
1
1
1
1
1
1
1
1
1
1
1
1
1
1
1
1
1
1
1
1
1
1
1
1
1
1
1
1
1
1
1
1
1
1
1
1
1
0.999999
0.999998
0.999995
0.999988
0.999973
0.999938
0.999863
0.999702
0.999371
0.998708
0.997433
0.995483
0.991783
0.986345
0.977636
0.963516
0.94279
0.914323
0.877069
0.833142
0.780612
0.720349
0.653694
0.582449
0.507912
0.433036
0.359783
0.290016
0.225043
0.165543
0.112458
0.0676444
0.034396
0.0148578
0.00667927
0.00311825
0.00150593
0.000742888
0.000378574
0.000197538
0.000105286
5.5923e-05
3.03146e-05
1.63896e-05
8.76376e-06
4.59935e-06
2.35376e-06
1.14854e-06
5.43415e-07
2.4114e-07
1.01786e-07
4.03362e-08
1.55185e-08
6.98069e-09
3.88762e-09
2.32565e-09
1.269e-09
3.70968e-10
1
1
1
1
1
1
1
1
1
1
1
1
1
1
1
1
1
1
1
1
1
1
1
1
1
1
1
1
1
1
1
1
1
1
1
1
1
1
1
1
1
1
0.999999
0.999998
0.999995
0.999988
0.999973
0.999939
0.999863
0.999703
0.999372
0.998708
0.997427
0.995467
0.991767
0.986299
0.977508
0.963278
0.942402
0.913742
0.876258
0.832075
0.779296
0.718766
0.651867
0.580442
0.50581
0.430954
0.357773
0.288201
0.223408
0.164105
0.11124
0.0666942
0.033784
0.014579
0.00656001
0.00306497
0.00148106
0.000731442
0.000372961
0.000194695
0.000103796
5.51651e-05
2.99057e-05
1.6169e-05
8.64517e-06
4.53634e-06
2.32081e-06
1.13255e-06
5.35629e-07
2.37693e-07
1.00287e-07
3.97289e-08
1.52901e-08
6.88964e-09
3.84146e-09
2.29918e-09
1.2547e-09
3.66766e-10
1
1
1
1
1
1
1
1
1
1
1
1
1
1
1
1
1
1
1
1
1
1
1
1
1
1
1
1
1
1
1
1
1
1
1
1
1
1
1
1
1
1
0.999999
0.999998
0.999995
0.999989
0.999973
0.999939
0.999865
0.999705
0.999374
0.998709
0.997424
0.995452
0.991759
0.986264
0.977383
0.963031
0.941989
0.913114
0.875374
0.83091
0.777857
0.71701
0.649873
0.578299
0.503657
0.428802
0.355636
0.286206
0.221593
0.162494
0.109861
0.0656094
0.0330941
0.0142683
0.00642726
0.00300566
0.00145336
0.000718698
0.000366683
0.000191509
0.00010212
5.43128e-05
2.94519e-05
1.59238e-05
8.51332e-06
4.4663e-06
2.28423e-06
1.1148e-06
5.27003e-07
2.33876e-07
9.86458e-08
3.90681e-08
1.50409e-08
6.78907e-09
3.78983e-09
2.26934e-09
1.23855e-09
3.62017e-10
1
1
1
1
1
1
1
1
1
1
1
1
1
1
1
1
1
1
1
1
1
1
1
1
1
1
1
1
1
1
1
1
1
1
1
1
1
1
1
1
1
1
0.999999
0.999998
0.999995
0.999989
0.999974
0.99994
0.999866
0.999708
0.999377
0.998712
0.997422
0.995437
0.991759
0.986236
0.977255
0.962776
0.941556
0.912441
0.874407
0.829616
0.776221
0.715062
0.647656
0.575868
0.501087
0.426353
0.353213
0.284021
0.219606
0.160742
0.108388
0.0644918
0.032365
0.0139484
0.00628955
0.00294373
0.00142426
0.000705239
0.000360011
0.000188114
0.000100357
5.34152e-05
2.89664e-05
1.56606e-05
8.37228e-06
4.39161e-06
2.24533e-06
1.09595e-06
5.17841e-07
2.29817e-07
9.68937e-08
3.83618e-08
1.47747e-08
6.68055e-09
3.73368e-09
2.23681e-09
1.22094e-09
3.56846e-10
1
1
1
1
1
1
1
1
1
1
1
1
1
1
1
1
1
1
1
1
1
1
1
1
1
1
1
1
1
1
1
1
1
1
1
1
1
1
1
1
1
0.999999
0.999999
0.999998
0.999995
0.999989
0.999975
0.999941
0.999868
0.999712
0.999383
0.998718
0.997422
0.995419
0.991781
0.986227
0.977137
0.962476
0.941009
0.911587
0.873209
0.828066
0.774388
0.712973
0.645358
0.573435
0.49865
0.423877
0.350914
0.282013
0.217253
0.15872
0.106733
0.0632077
0.0315751
0.0136137
0.0061458
0.00287866
0.00139358
0.000691063
0.000353031
0.000184576
9.85091e-05
5.2477e-05
2.8466e-05
1.53932e-05
8.22881e-06
4.31569e-06
2.20588e-06
1.07689e-06
5.08731e-07
2.25737e-07
9.51328e-08
3.76518e-08
1.45052e-08
6.56864e-09
3.67488e-09
2.20252e-09
1.20235e-09
3.51395e-10
1
1
1
1
1
1
1
1
1
1
1
1
1
1
1
1
1
1
1
1
1
1
1
1
0.999999
0.999999
0.999999
0.999999
0.999999
0.999999
0.999999
0.999999
0.999999
0.999999
0.999999
0.999999
0.999999
0.999999
0.999999
0.999999
0.999999
0.999999
0.999999
0.999998
0.999995
0.999989
0.999975
0.999943
0.999872
0.999717
0.999392
0.998729
0.997429
0.995405
0.991834
0.986262
0.977099
0.962341
0.94073
0.911099
0.872473
0.827012
0.772852
0.71105
0.643123
0.570988
0.496108
0.421342
0.348561
0.279727
0.215242
0.156975
0.105259
0.0620621
0.0308221
0.0132915
0.00600643
0.0028171
0.0013649
0.000677853
0.000346393
0.000181165
9.67198e-05
5.15635e-05
2.79739e-05
1.51282e-05
8.08688e-06
4.24073e-06
2.16688e-06
1.05799e-06
4.99677e-07
2.21778e-07
9.3466e-08
3.69921e-08
1.42554e-08
6.46015e-09
3.61581e-09
2.16747e-09
1.18327e-09
3.45818e-10
1
1
1
1
1
1
1
1
1
1
1
1
1
1
1
0.999999
0.999999
0.999999
0.999999
0.999999
0.999999
0.999998
0.999998
0.999998
0.999998
0.999997
0.999997
0.999997
0.999997
0.999997
0.999997
0.999997
0.999997
0.999997
0.999997
0.999997
0.999997
0.999997
0.999997
0.999997
0.999997
0.999997
0.999997
0.999997
0.999994
0.999989
0.999976
0.999945
0.999876
0.999725
0.999406
0.998751
0.997454
0.995399
0.991917
0.986333
0.977111
0.962261
0.940489
0.910632
0.871676
0.825777
0.771179
0.7091
0.64093
0.56862
0.493686
0.418709
0.346051
0.27757
0.21328
0.155283
0.103823
0.0609926
0.030166
0.0130155
0.00588747
0.00276216
0.00133875
0.000665663
0.000340341
0.000178061
9.50588e-05
5.0694e-05
2.75022e-05
1.48722e-05
7.94997e-06
4.169e-06
2.13061e-06
1.04069e-06
4.91552e-07
2.18168e-07
9.19465e-08
3.63951e-08
1.4028e-08
6.35912e-09
3.5601e-09
2.13441e-09
1.1653e-09
3.4057e-10
1
1
1
1
1
1
1
1
1
0.999999
0.999999
0.999999
0.999998
0.999998
0.999997
0.999997
0.999996
0.999996
0.999995
0.999994
0.999993
0.999993
0.999992
0.999991
0.99999
0.99999
0.999989
0.999989
0.999989
0.999988
0.999988
0.999988
0.999989
0.999989
0.999989
0.99999
0.99999
0.999991
0.999991
0.999992
0.999993
0.999993
0.999994
0.999993
0.999992
0.999987
0.999975
0.999947
0.999882
0.999739
0.999436
0.998815
0.997604
0.995379
0.991972
0.986424
0.977179
0.962259
0.940344
0.91023
0.870874
0.824632
0.769804
0.707305
0.638764
0.566125
0.491149
0.416393
0.343903
0.275529
0.211449
0.153627
0.102372
0.0598762
0.0294979
0.0127393
0.00576802
0.00270841
0.00131335
0.000653848
0.000334458
0.000175057
9.34955e-05
4.98833e-05
2.70697e-05
1.46415e-05
7.82827e-06
4.10597e-06
2.09865e-06
1.02536e-06
4.84463e-07
2.15059e-07
9.06702e-08
3.59017e-08
1.38372e-08
6.26686e-09
3.50637e-09
2.10184e-09
1.14754e-09
3.35413e-10
1
1
1
1
1
0.999999
0.999999
0.999998
0.999997
0.999996
0.999995
0.999993
0.999991
0.999989
0.999987
0.999984
0.999982
0.999979
0.999976
0.999973
0.99997
0.999968
0.999965
0.999963
0.999962
0.99996
0.999959
0.999959
0.999958
0.999959
0.999959
0.999961
0.999962
0.999964
0.999966
0.999968
0.99997
0.999972
0.999975
0.999977
0.99998
0.999982
0.999983
0.999985
0.999984
0.999981
0.999972
0.999946
0.999887
0.999753
0.999465
0.99887
0.997693
0.99545
0.992066
0.986563
0.977324
0.962378
0.940372
0.910089
0.870515
0.823984
0.768764
0.705814
0.636869
0.564125
0.488834
0.41428
0.341846
0.273625
0.209686
0.152088
0.101138
0.0589304
0.0288895
0.0124787
0.00565351
0.002657
0.00128919
0.000642594
0.000328862
0.000172201
9.20045e-05
4.91027e-05
2.66549e-05
1.44222e-05
7.71401e-06
4.0479e-06
2.07012e-06
1.01189e-06
4.78467e-07
2.12473e-07
8.96535e-08
3.55258e-08
1.36892e-08
6.18557e-09
3.45544e-09
2.07019e-09
1.13023e-09
3.30413e-10
1
1
0.999999
0.999998
0.999997
0.999995
0.999992
0.999988
0.999983
0.999977
0.99997
0.999962
0.999953
0.999944
0.999934
0.999923
0.999913
0.999902
0.999892
0.999883
0.999874
0.999867
0.999861
0.999856
0.999852
0.99985
0.999849
0.99985
0.999853
0.999858
0.999863
0.99987
0.999879
0.999886
0.999895
0.999903
0.999911
0.99992
0.999929
0.999938
0.999946
0.999952
0.99996
0.999964
0.999969
0.999969
0.999964
0.999943
0.999888
0.999763
0.999489
0.998916
0.997767
0.995553
0.992199
0.986741
0.97755
0.96262
0.940565
0.910148
0.87034
0.823496
0.767843
0.704554
0.635439
0.562388
0.487069
0.412428
0.339993
0.271809
0.207911
0.150517
0.099857
0.0580235
0.0283667
0.0122622
0.00555965
0.00261375
0.00126847
0.000632713
0.000323881
0.000169632
9.06571e-05
4.83832e-05
2.62732e-05
1.4222e-05
7.61132e-06
3.99697e-06
2.04606e-06
1.00075e-06
4.7384e-07
2.10537e-07
8.89622e-08
3.52969e-08
1.35949e-08
6.11668e-09
3.40739e-09
2.03944e-09
1.11338e-09
3.25589e-10
0.999999
0.999998
0.999994
0.999988
0.999978
0.999964
0.999946
0.999924
0.999898
0.999867
0.999834
0.999798
0.99976
0.99972
0.999681
0.999645
0.999607
0.999573
0.999543
0.999516
0.999494
0.999477
0.999466
0.99946
0.999459
0.999465
0.999475
0.99949
0.999513
0.999537
0.999568
0.999592
0.999623
0.999653
0.999682
0.999713
0.999743
0.999772
0.999802
0.999827
0.99985
0.999873
0.999893
0.999913
0.999926
0.999941
0.999943
0.999928
0.999881
0.999766
0.99951
0.998961
0.997849
0.995686
0.992389
0.986997
0.977871
0.962991
0.940929
0.910421
0.87042
0.823333
0.767405
0.703819
0.634343
0.561036
0.485511
0.410572
0.338321
0.270214
0.20653
0.149311
0.0988458
0.0572678
0.0279201
0.0120745
0.00547683
0.00257556
0.00125014
0.000623816
0.000319371
0.000167296
8.94334e-05
4.77174e-05
2.59227e-05
1.4041e-05
7.52084e-06
3.95388e-06
2.02704e-06
9.92335e-07
4.70827e-07
2.09378e-07
8.8664e-08
3.52473e-08
1.3567e-08
6.06502e-09
3.3637e-09
2.01016e-09
1.09724e-09
3.21023e-10
0.999996
0.999981
0.999952
0.999906
0.99984
0.999755
0.999652
0.999535
0.999405
0.999267
0.999124
0.998979
0.998834
0.998696
0.998564
0.998444
0.99834
0.998251
0.998181
0.998129
0.998098
0.998086
0.998093
0.998118
0.99816
0.998218
0.998292
0.998377
0.998466
0.998569
0.998671
0.998786
0.9989
0.999008
0.999113
0.999213
0.999315
0.999389
0.999464
0.999541
0.999612
0.999675
0.999731
0.999787
0.999841
0.999862
0.999886
0.999886
0.99986
0.999761
0.999526
0.99901
0.997946
0.995859
0.992671
0.987336
0.978208
0.963393
0.941381
0.910865
0.870714
0.8234
0.767164
0.703221
0.633385
0.559744
0.483786
0.40887
0.33641
0.268523
0.205142
0.148088
0.0978479
0.0565599
0.0275157
0.011903
0.00539983
0.00253967
0.00123287
0.000615259
0.000315021
0.000165045
8.82617e-05
4.70723e-05
2.55884e-05
1.38726e-05
7.43993e-06
3.91775e-06
2.01286e-06
9.86731e-07
4.69566e-07
2.09087e-07
8.8819e-08
3.54105e-08
1.36224e-08
6.03439e-09
3.32525e-09
1.98264e-09
1.082e-09
3.16782e-10
0.999965
0.999849
0.999632
0.999301
0.998872
0.998379
0.997865
0.997352
0.996834
0.996316
0.99581
0.995327
0.99488
0.994481
0.994136
0.993857
0.993645
0.993503
0.99343
0.993427
0.993489
0.99361
0.993785
0.994007
0.99427
0.994566
0.994888
0.995235
0.995596
0.995974
0.996295
0.996666
0.997001
0.99732
0.997625
0.997909
0.998177
0.998432
0.998662
0.998869
0.999059
0.999241
0.99939
0.999503
0.999615
0.999723
0.999765
0.999804
0.999804
0.999733
0.999527
0.999054
0.998045
0.996036
0.992924
0.987741
0.978742
0.963995
0.942004
0.911454
0.871141
0.823573
0.766984
0.702627
0.632393
0.558263
0.482039
0.406774
0.334462
0.266642
0.20345
0.146647
0.0966764
0.055693
0.0270088
0.0116923
0.00531015
0.00249939
0.00121395
0.000605995
0.000310388
0.00016268
8.70513e-05
4.64104e-05
2.52531e-05
1.37093e-05
7.36541e-06
3.88733e-06
2.00314e-06
9.83987e-07
4.70182e-07
2.09784e-07
8.95066e-08
3.58303e-08
1.37808e-08
6.03054e-09
3.29355e-09
1.95768e-09
1.06814e-09
3.13033e-10
0.999737
0.998864
0.997402
0.995446
0.993205
0.990893
0.988711
0.986795
0.985056
0.983451