/*--------------------------------*- C++ -*----------------------------------*\
  =========                 |
  \\      /  F ield         | OpenFOAM: The Open Source CFD Toolbox
   \\    /   O peration     | Website:  https://openfoam.org
    \\  /    A nd           | Version:  10
     \\/     M anipulation  |
\*---------------------------------------------------------------------------*/
FoamFile
{
    format      ascii;
    class       volScalarField;
    location    "1";
    object      nC3H7;
}
// * * * * * * * * * * * * * * * * * * * * * * * * * * * * * * * * * * * * * //

dimensions      [0 0 0 0 0 0 0];

internalField   nonuniform List<scalar> 
4000
(
8.73692e-23
1.45708e-22
1.87492e-22
2.45027e-22
3.24348e-22
3.94395e-22
4.7821e-22
5.77988e-22
7.13975e-22
9.18624e-22
1.2365e-21
1.54967e-21
1.88152e-21
2.20678e-21
2.57995e-21
2.99119e-21
3.37835e-21
3.78948e-21
4.30184e-21
4.88936e-21
5.50057e-21
6.26343e-21
7.33572e-21
8.66575e-21
1.12313e-20
1.64967e-20
3.00107e-20
6.78972e-20
1.75366e-19
4.87773e-19
1.40297e-18
4.07619e-18
1.17726e-17
3.37876e-17
9.63603e-17
2.6505e-16
7.37569e-16
2.07207e-15
5.66114e-15
1.52403e-14
3.93934e-14
9.91355e-14
2.41782e-13
5.69808e-13
1.29261e-12
2.98249e-12
6.80967e-12
1.48201e-11
3.01354e-11
5.63932e-11
9.68148e-11
1.55174e-10
2.2682e-10
3.36235e-10
5.0598e-10
8.09461e-10
1.43927e-09
3.09053e-09
7.81475e-09
2.1882e-08
6.30572e-08
1.64139e-07
3.54728e-07
4.88606e-07
3.96396e-07
2.42552e-07
1.43015e-07
9.7825e-08
8.33987e-08
8.61577e-08
1.01744e-07
1.28842e-07
1.54235e-07
1.54333e-07
1.17231e-07
6.50605e-08
3.5501e-08
2.04444e-08
1.21825e-08
6.99778e-09
3.81205e-09
2.02221e-09
1.08223e-09
5.87274e-10
3.21191e-10
1.75625e-10
9.52337e-11
5.08263e-11
2.65096e-11
1.34235e-11
6.57263e-12
3.02542e-12
1.39769e-12
7.11095e-13
5.19688e-13
6.60793e-13
9.72709e-13
8.89114e-13
3.75504e-13
6.84341e-14
6.65558e-23
3.01246e-22
4.45151e-22
7.43968e-22
9.99527e-22
1.14789e-21
1.32104e-21
1.4788e-21
1.73141e-21
2.03556e-21
2.318e-21
2.65746e-21
3.00739e-21
3.30134e-21
3.6519e-21
4.04929e-21
4.40968e-21
4.83988e-21
5.32491e-21
5.91688e-21
6.55016e-21
7.27698e-21
8.40876e-21
9.87784e-21
1.27936e-20
1.88276e-20
3.46951e-20
8.05342e-20
2.145e-19
6.08655e-19
1.76827e-18
5.40086e-18
1.57541e-17
4.50476e-17
1.27757e-16
3.56694e-16
1.0053e-15
2.74277e-15
7.42926e-15
1.9564e-14
5.05457e-14
1.2561e-13
3.05729e-13
7.16227e-13
1.67437e-12
3.90863e-12
8.77004e-12
1.85619e-11
3.66926e-11
6.71438e-11
1.08629e-10
1.62534e-10
2.42881e-10
3.54672e-10
5.2821e-10
8.43113e-10
1.4786e-09
3.15218e-09
7.91571e-09
2.1976e-08
6.29118e-08
1.62849e-07
3.51138e-07
4.88051e-07
4.0246e-07
2.49041e-07
1.47012e-07
9.94127e-08
8.37823e-08
8.5788e-08
1.00752e-07
1.27578e-07
1.53663e-07
1.55251e-07
1.19081e-07
6.62773e-08
3.60875e-08
2.07194e-08
1.23165e-08
7.05821e-09
3.83618e-09
2.03194e-09
1.08643e-09
5.88805e-10
3.21505e-10
1.75453e-10
9.49231e-11
5.05265e-11
2.62617e-11
1.32463e-11
6.45736e-12
2.96115e-12
1.36789e-12
7.05911e-13
5.35388e-13
7.00817e-13
1.0208e-12
8.77129e-13
3.64227e-13
6.59283e-14
3.07147e-22
5.45802e-22
8.95978e-22
1.25399e-21
1.85264e-21
2.03607e-21
2.24759e-21
2.52973e-21
2.89683e-21
3.08316e-21
3.39275e-21
3.65106e-21
3.9263e-21
4.19203e-21
4.42876e-21
4.75193e-21
5.00986e-21
5.3841e-21
5.98029e-21
6.63034e-21
7.41566e-21
8.33819e-21
9.59841e-21
1.14524e-20
1.47222e-20
2.24739e-20
4.21147e-20
1.00808e-19
2.73298e-19
7.86163e-19
2.36692e-18
6.94101e-18
1.99446e-17
5.7769e-17
1.65741e-16
4.63871e-16
1.27217e-15
3.45143e-15
9.244e-15
2.40188e-14
6.1323e-14
1.46932e-13
3.68992e-13
8.48477e-13
2.02713e-12
4.61233e-12
1.02966e-11
2.14566e-11
4.08625e-11
7.29394e-11
1.16408e-10
1.73511e-10
2.57408e-10
3.77758e-10
5.54072e-10
8.61319e-10
1.5003e-09
3.19223e-09
7.99706e-09
2.21152e-08
6.2974e-08
1.62286e-07
3.48857e-07
4.87568e-07
4.07521e-07
2.54748e-07
1.50755e-07
1.01333e-07
8.436e-08
8.55813e-08
9.99863e-08
1.26428e-07
1.53164e-07
1.56232e-07
1.21141e-07
6.76552e-08
3.67496e-08
2.10309e-08
1.24669e-08
7.12523e-09
3.86347e-09
2.04308e-09
1.09126e-09
5.89978e-10
3.2138e-10
1.74927e-10
9.43528e-11
5.0041e-11
2.59086e-11
1.29892e-11
6.29284e-12
2.87324e-12
1.32967e-12
6.99871e-13
5.5588e-13
7.49427e-13
1.07524e-12
8.67754e-13
3.53206e-13
6.34947e-14
1.92672e-22
4.33575e-22
8.00789e-22
1.09057e-21
1.39807e-21
1.70638e-21
1.84694e-21
2.05301e-21
2.48717e-21
2.89072e-21
3.26762e-21
3.53945e-21
3.84779e-21
4.24589e-21
4.67171e-21
5.16828e-21
5.71432e-21
6.25426e-21
6.84849e-21
7.42173e-21
8.26329e-21
9.69974e-21
1.12041e-20
1.28346e-20
1.67828e-20
2.65137e-20
5.24863e-20
1.28425e-19
3.4706e-19
1.04144e-18
3.03914e-18
8.90068e-18
2.57402e-17
7.40267e-17
2.10538e-16
5.85172e-16
1.59348e-15
4.3148e-15
1.12965e-14
2.97736e-14
7.52375e-14
1.83185e-13
4.46091e-13
1.02336e-12
2.34221e-12
5.39888e-12
1.18379e-11
2.39961e-11
4.59586e-11
7.72012e-11
1.20779e-10
1.8639e-10
2.76099e-10
3.97823e-10
5.78566e-10
8.66711e-10
1.51357e-09
3.22062e-09
8.04726e-09
2.21601e-08
6.28393e-08
1.61324e-07
3.46264e-07
4.87049e-07
4.11738e-07
2.598e-07
1.54308e-07
1.03028e-07
8.49273e-08
8.54653e-08
9.92697e-08
1.25333e-07
1.52682e-07
1.57074e-07
1.23187e-07
6.8439e-08
3.72012e-08
2.12763e-08
1.25964e-08
7.18423e-09
3.88737e-09
2.05457e-09
1.10008e-09
5.86262e-10
3.19474e-10
1.73775e-10
9.35966e-11
4.95567e-11
2.56469e-11
1.26566e-11
6.10888e-12
2.78681e-12
1.29423e-12
6.96696e-13
5.80342e-13
8.00427e-13
1.13016e-12
8.57919e-13
3.43179e-13
6.13068e-14
1.29808e-22
3.25859e-22
5.06763e-22
7.76195e-22
1.07042e-21
1.31228e-21
1.66387e-21
1.91934e-21
2.27414e-21
2.68722e-21
3.06566e-21
3.448e-21
3.8381e-21
4.26588e-21
4.8706e-21
5.57121e-21
6.20919e-21
6.6901e-21
7.41041e-21
8.10167e-21
8.99312e-21
1.04433e-20
1.1797e-20
1.39622e-20
1.86582e-20
3.06058e-20
6.46578e-20
1.6502e-19
4.60686e-19
1.33487e-18
3.89922e-18
1.16056e-17
3.32656e-17
9.49401e-17
2.65941e-16
7.33593e-16
1.9816e-15
5.20897e-15
1.38786e-14
3.57161e-14
8.93044e-14
2.17186e-13
5.10481e-13
1.19536e-12
2.70865e-12
6.16778e-12
1.3178e-11
2.6926e-11
4.83701e-11
7.96716e-11
1.28907e-10
1.96209e-10
2.88857e-10
4.17979e-10
5.85153e-10
8.75518e-10
1.52954e-09
3.25018e-09
8.10315e-09
2.22572e-08
6.2887e-08
1.60973e-07
3.44842e-07
4.8683e-07
4.15283e-07
2.64508e-07
1.57333e-07
1.0448e-07
8.54326e-08
8.54552e-08
9.88282e-08
1.24634e-07
1.52376e-07
1.5781e-07
1.24754e-07
6.94889e-08
3.77092e-08
2.15268e-08
1.27184e-08
7.23691e-09
3.90771e-09
2.06311e-09
1.10397e-09
5.87978e-10
3.19864e-10
1.73647e-10
9.3312e-11
4.92703e-11
2.54116e-11
1.24983e-11
6.00465e-12
2.73457e-12
1.27365e-12
6.99362e-13
6.06469e-13
8.50293e-13
1.18272e-12
8.54646e-13
3.37885e-13
6.00233e-14
7.8807e-23
2.27894e-22
4.34174e-22
7.05882e-22
9.52564e-22
1.21243e-21
1.52185e-21
1.79648e-21
1.98892e-21
2.29742e-21
2.69099e-21
3.1965e-21
3.64879e-21
4.05631e-21
4.6423e-21
5.41676e-21
6.07003e-21
6.90326e-21
7.76797e-21
8.97265e-21
1.06266e-20
1.18281e-20
1.3506e-20
1.58001e-20
2.14884e-20
3.67929e-20
8.12697e-20
2.10808e-19
6.00733e-19
1.72381e-18
4.94607e-18
1.48175e-17
4.1866e-17
1.17464e-16
3.22022e-16
8.91345e-16
2.36479e-15
6.10568e-15
1.64594e-14
4.32439e-14
1.05528e-13
2.511e-13
5.90704e-13
1.36143e-12
3.10747e-12
6.85932e-12
1.48952e-11
2.83458e-11
5.01975e-11
8.51293e-11
1.36447e-10
2.06875e-10
2.99752e-10
4.28374e-10
5.9547e-10
8.85873e-10
1.53968e-09
3.26824e-09
8.12744e-09
2.2263e-08
6.27259e-08
1.60241e-07
3.43075e-07
4.86528e-07
4.18181e-07
2.67684e-07
1.59627e-07
1.05787e-07
8.5974e-08
8.55085e-08
9.85096e-08
1.24054e-07
1.52072e-07
1.5827e-07
1.25827e-07
7.03054e-08
3.81242e-08
2.17314e-08
1.28213e-08
7.28489e-09
3.92775e-09
2.07212e-09
1.10823e-09
5.90461e-10
3.20923e-10
1.73996e-10
9.33387e-11
4.91761e-11
2.52914e-11
1.24145e-11
5.94303e-12
2.70546e-12
1.26367e-12
7.05315e-13
6.30879e-13
8.94506e-13
1.22882e-12
8.55742e-13
3.34359e-13
5.9157e-14
6.42354e-23
2.05834e-22
3.63686e-22
5.54181e-22
7.28951e-22
9.3842e-22
1.20042e-21
1.49289e-21
1.94783e-21
2.35529e-21
2.8169e-21
3.27435e-21
3.73432e-21
4.29184e-21
4.80044e-21
5.4247e-21
6.07367e-21
6.71423e-21
7.37499e-21
8.28152e-21
9.60317e-21
1.107e-20
1.25834e-20
1.58445e-20
2.37066e-20
4.36986e-20
9.99161e-20
2.58897e-19
7.5459e-19
2.18134e-18
6.26665e-18
1.78993e-17
5.09025e-17
1.42527e-16
3.89307e-16
1.06457e-15
2.87539e-15
7.3512e-15
1.96887e-14
4.97711e-14
1.2161e-13
2.9057e-13
6.728e-13
1.53721e-12
3.4335e-12
7.62935e-12
1.59151e-11
2.90527e-11
5.31809e-11
9.02759e-11
1.42759e-10
2.13891e-10
3.07047e-10
4.35084e-10
6.01442e-10
8.92055e-10
1.5456e-09
3.27496e-09
8.12886e-09
2.22135e-08
6.24342e-08
1.5927e-07
3.41077e-07
4.86207e-07
4.21066e-07
2.70828e-07
1.61663e-07
1.06888e-07
8.63897e-08
8.55294e-08
9.82061e-08
1.23519e-07
1.51786e-07
1.58697e-07
1.26877e-07
7.11051e-08
3.85449e-08
2.19429e-08
1.29327e-08
7.33986e-09
3.95336e-09
2.08445e-09
1.1144e-09
5.93951e-10
3.22624e-10
1.74763e-10
9.36373e-11
4.92556e-11
2.52798e-11
1.23925e-11
5.91703e-12
2.69397e-12
1.2615e-12
7.13242e-13
6.53034e-13
9.32585e-13
1.26846e-12
8.60323e-13
3.33216e-13
5.87764e-14
1.23215e-22
2.6744e-22
4.80654e-22
7.75968e-22
1.02371e-21
1.31469e-21
1.55215e-21
1.84503e-21
2.18053e-21
2.54498e-21
2.92557e-21
3.46822e-21
4.03182e-21
4.61431e-21
5.10973e-21
5.73526e-21
6.51065e-21
7.18795e-21
7.94002e-21
8.96653e-21
9.90011e-21
1.10611e-20
1.28568e-20
1.66553e-20
2.61137e-20
5.12283e-20
1.23159e-19
3.28868e-19
9.16688e-19
2.61257e-18
7.58322e-18
2.18823e-17
6.15032e-17
1.70194e-16
4.5917e-16
1.24085e-15
3.32197e-15
8.41132e-15
2.21582e-14
5.66732e-14
1.37681e-13
3.24106e-13
7.57672e-13
1.70909e-12
3.81836e-12
8.35209e-12
1.64794e-11
3.10245e-11
5.63705e-11
9.48305e-11
1.49553e-10
2.21537e-10
3.14631e-10
4.41628e-10
6.06593e-10
8.95745e-10
1.54639e-09
3.26867e-09
8.09403e-09
2.20641e-08
6.18911e-08
1.57813e-07
3.38401e-07
4.85714e-07
4.24092e-07
2.74691e-07
1.63942e-07
1.08025e-07
8.67899e-08
8.55309e-08
9.78739e-08
1.22943e-07
1.51432e-07
1.59103e-07
1.27999e-07
7.20078e-08
3.90074e-08
2.21761e-08
1.30604e-08
7.40635e-09
3.98688e-09
2.10128e-09
1.12304e-09
5.98659e-10
3.25041e-10
1.75965e-10
9.4203e-11
4.94996e-11
2.53688e-11
1.24252e-11
5.92205e-12
2.69679e-12
1.26535e-12
7.22214e-13
6.72213e-13
9.64444e-13
1.30225e-12
8.67417e-13
3.33919e-13
5.87759e-14
1.14657e-22
3.27849e-22
5.7348e-22
8.81105e-22
1.08817e-21
1.36741e-21
1.65903e-21
2.03574e-21
2.42306e-21
2.89053e-21
3.08818e-21
3.48381e-21
4.07312e-21
4.60145e-21
5.26664e-21
5.8655e-21
6.58968e-21
7.43723e-21
8.21267e-21
8.85331e-21
9.78627e-21
1.1274e-20
1.32951e-20
1.78596e-20
2.91068e-20
6.01489e-20
1.47915e-19
4.02127e-19
1.13222e-18
3.19804e-18
9.08475e-18
2.58578e-17
7.21416e-17
1.98861e-16
5.3979e-16
1.43846e-15
3.79234e-15
9.51567e-15
2.48986e-14
6.28094e-14
1.52896e-13
3.61686e-13
8.35771e-13
1.89506e-12
4.04748e-12
8.29525e-12
1.72141e-11
3.3207e-11
5.95896e-11
9.98624e-11
1.55324e-10
2.27633e-10
3.20502e-10
4.46468e-10
6.09617e-10
8.96714e-10
1.54192e-09
3.24873e-09
8.01995e-09
2.18058e-08
6.10227e-08
1.55431e-07
3.34539e-07
4.84872e-07
4.28311e-07
2.78734e-07
1.66729e-07
1.09278e-07
8.72384e-08
8.54873e-08
9.74032e-08
1.22156e-07
1.5094e-07
1.59478e-07
1.29199e-07
7.30244e-08
3.95309e-08
2.24405e-08
1.32099e-08
7.48733e-09
4.02963e-09
2.12315e-09
1.13439e-09
6.04664e-10
3.28186e-10
1.77589e-10
9.50195e-11
4.98932e-11
2.55471e-11
1.25048e-11
5.95313e-12
2.71137e-12
1.27398e-12
7.3185e-13
6.88724e-13
9.90915e-13
1.33131e-12
8.76486e-13
3.36068e-13
5.90728e-14
1.12382e-22
3.30415e-22
5.66785e-22
8.02096e-22
1.01307e-21
1.27109e-21
1.60816e-21
1.96959e-21
2.38348e-21
2.80041e-21
3.22797e-21
3.81702e-21
4.31252e-21
4.84389e-21
5.59522e-21
6.35967e-21
7.07573e-21
7.76969e-21
8.79114e-21
9.74165e-21
1.04747e-20
1.16301e-20
1.40525e-20
1.92005e-20
3.2646e-20
6.87413e-20
1.72571e-19
4.71187e-19
1.34535e-18
3.84026e-18
1.08633e-17
3.02931e-17
8.34607e-17
2.27677e-16
6.10138e-16
1.60921e-15
4.17657e-15
1.05208e-14
2.78192e-14
6.90108e-14
1.64944e-13
3.88654e-13
8.93215e-13
1.96095e-12
4.13879e-12
8.98654e-12
1.83521e-11
3.51008e-11
6.28521e-11
1.04018e-10
1.60277e-10
2.33115e-10
3.2586e-10
4.49603e-10
6.11066e-10
8.95796e-10
1.53361e-09
3.22033e-09
7.928e-09
2.15101e-08
6.01109e-08
1.53062e-07
3.30017e-07
4.8373e-07
4.3258e-07
2.83722e-07
1.69748e-07
1.10618e-07
8.76615e-08
8.5405e-08
9.6888e-08
1.21403e-07
1.50431e-07
1.59869e-07
1.30618e-07
7.43019e-08
4.01934e-08
2.27703e-08
1.33917e-08
7.58567e-09
4.08208e-09
2.14998e-09
1.14828e-09
6.11844e-10
3.31949e-10
1.79568e-10
9.6044e-11
5.04095e-11
2.57981e-11
1.26219e-11
6.00494e-12
2.73511e-12
1.28621e-12
7.41704e-13
7.02497e-13
1.01246e-12
1.35642e-12
8.87009e-13
3.39311e-13
5.95949e-14
1.17877e-22
3.50661e-22
6.39669e-22
8.19418e-22
1.0225e-21
1.2628e-21
1.47723e-21
1.73814e-21
2.05359e-21
2.42245e-21
2.96691e-21
3.55106e-21
4.06038e-21
4.67361e-21
5.07921e-21
5.61479e-21
6.13841e-21
6.71736e-21
7.66319e-21
8.91759e-21
1.00812e-20
1.14667e-20
1.40829e-20
2.02411e-20
3.56393e-20
7.81748e-20
1.96809e-19
5.37786e-19
1.53198e-18
4.36805e-18
1.23297e-17
3.43199e-17
9.39612e-17
2.56709e-16
6.8177e-16
1.78852e-15
4.62146e-15
1.16253e-14
3.04169e-14
7.45174e-14
1.77019e-13
4.10976e-13
9.2471e-13
2.01501e-12
4.46753e-12
9.57899e-12
1.94552e-11
3.71258e-11
6.5751e-11
1.07964e-10
1.65413e-10
2.39633e-10
3.3524e-10
4.49865e-10
6.11127e-10
8.93066e-10
1.52134e-09
3.18016e-09
7.79747e-09
2.10548e-08
5.87335e-08
1.49785e-07
3.25434e-07
4.824e-07
4.36707e-07
2.88438e-07
1.72739e-07
1.12119e-07
8.81611e-08
8.53797e-08
9.64469e-08
1.20621e-07
1.49824e-07
1.60201e-07
1.31969e-07
7.55357e-08
4.08364e-08
2.30887e-08
1.35745e-08
7.68821e-09
4.13842e-09
2.17919e-09
1.16355e-09
6.19726e-10
3.36178e-10
1.818e-10
9.72121e-11
5.10106e-11
2.61014e-11
1.27665e-11
6.07201e-12
2.76555e-12
1.30101e-12
7.51631e-13
7.14101e-13
1.03019e-12
1.37843e-12
8.98516e-13
3.43329e-13
6.02776e-14
9.68659e-23
2.84275e-22
5.95401e-22
8.01591e-22
9.7406e-22
1.25484e-21
1.64156e-21
2.05792e-21
2.34255e-21
2.67986e-21
3.09826e-21
3.5821e-21
3.96844e-21
4.41698e-21
4.89558e-21
5.47232e-21
6.13702e-21
6.8673e-21
7.39585e-21
8.28659e-21
9.41965e-21
1.13079e-20
1.46849e-20
2.16233e-20
3.94553e-20
8.70688e-20
2.20027e-19
5.95725e-19
1.70517e-18
4.81241e-18
1.3264e-17
3.78859e-17
1.04191e-16
2.79449e-16
7.61374e-16
1.97412e-15
5.02223e-15
1.2598e-14
3.2146e-14
8.02097e-14
1.88714e-13
4.34936e-13
9.74328e-13
2.14786e-12
4.74397e-12
1.01117e-11
2.04279e-11
3.87396e-11
6.81544e-11
1.11157e-10
1.69305e-10
2.44133e-10
3.40179e-10
4.49292e-10
6.10698e-10
8.88833e-10
1.50658e-09
3.13889e-09
7.66813e-09
2.06924e-08
5.7595e-08
1.46925e-07
3.2009e-07
4.80749e-07
4.40805e-07
2.93163e-07
1.75666e-07
1.13593e-07
8.86999e-08
8.53853e-08
9.59562e-08
1.19747e-07
1.49154e-07
1.60463e-07
1.33281e-07
7.68466e-08
4.15051e-08
2.34269e-08
1.37678e-08
7.79761e-09
4.19849e-09
2.21029e-09
1.17979e-09
6.28091e-10
3.40687e-10
1.84247e-10
9.85243e-11
5.16997e-11
2.64508e-11
1.29329e-11
6.15071e-12
2.80138e-12
1.31796e-12
7.61637e-13
7.24015e-13
1.04487e-12
1.39785e-12
9.10506e-13
3.4782e-13
6.10621e-14
6.93002e-23
1.98753e-22
4.65487e-22
6.85124e-22
9.54598e-22
1.27893e-21
1.77954e-21
2.17883e-21
2.41669e-21
2.86209e-21
3.33287e-21
3.72529e-21
4.20144e-21
4.66439e-21
5.19504e-21
5.86195e-21
6.20303e-21
6.69423e-21
7.50011e-21
8.48384e-21
9.98267e-21
1.16505e-20
1.49349e-20
2.22164e-20
4.14169e-20
9.31559e-20
2.38471e-19
6.51153e-19
1.83582e-18
5.32364e-18
1.47797e-17
4.15506e-17
1.13486e-16
3.08656e-16
8.15951e-16
2.11169e-15
5.34373e-15
1.33466e-14
3.39506e-14
8.50546e-14
2.00639e-13
4.63494e-13
1.02851e-12
2.30177e-12
4.98197e-12
1.05866e-11
2.13337e-11
4.01412e-11
7.01214e-11
1.13639e-10
1.72075e-10
2.46822e-10
3.421e-10
4.48798e-10
6.11103e-10
8.85135e-10
1.49145e-09
3.09119e-09
7.5313e-09
2.02789e-08
5.64975e-08
1.44135e-07
3.15233e-07
4.78957e-07
4.44803e-07
2.97973e-07
1.78663e-07
1.15083e-07
8.92202e-08
8.5368e-08
9.55228e-08
1.18969e-07
1.48518e-07
1.60714e-07
1.34654e-07
7.82565e-08
4.22373e-08
2.37844e-08
1.39685e-08
7.91135e-09
4.2628e-09
2.24408e-09
1.19752e-09
6.37029e-10
3.45471e-10
1.8682e-10
9.99001e-11
5.24262e-11
2.68293e-11
1.31162e-11
6.239e-12
2.84051e-12
1.33585e-12
7.71406e-13
7.3261e-13
1.05756e-12
1.41591e-12
9.23292e-13
3.52834e-13
6.19495e-14
7.95526e-23
3.25826e-22
4.74093e-22
7.08066e-22
9.41981e-22
1.19091e-21
1.5985e-21
1.95365e-21
2.29343e-21
2.76345e-21
3.1591e-21
3.64946e-21
4.19169e-21
4.82235e-21
5.58169e-21
6.26808e-21
6.74367e-21
6.97134e-21
7.77808e-21
8.53536e-21
1.02929e-20
1.20098e-20
1.49549e-20
2.21054e-20
4.19568e-20
9.7534e-20
2.58907e-19
7.11887e-19
2.00744e-18
5.66257e-18
1.57216e-17
4.46261e-17
1.20052e-16
3.27387e-16
8.60318e-16
2.22828e-15
5.65459e-15
1.38722e-14
3.58342e-14
8.98766e-14
2.09456e-13
4.80427e-13
1.08027e-12
2.42163e-12
5.19601e-12
1.10196e-11
2.20387e-11
4.12199e-11
7.16296e-11
1.15527e-10
1.74133e-10
2.48955e-10
3.43362e-10
4.48222e-10
6.10892e-10
8.81318e-10
1.47772e-09
3.05102e-09
7.40928e-09
1.98751e-08
5.52586e-08
1.41179e-07
3.10649e-07
4.77111e-07
4.48466e-07
3.02518e-07
1.81629e-07
1.16448e-07
8.97327e-08
8.53556e-08
9.51144e-08
1.1819e-07
1.47866e-07
1.60895e-07
1.35877e-07
7.96402e-08
4.29496e-08
2.41343e-08
1.41703e-08
8.02764e-09
4.32768e-09
2.27788e-09
1.21517e-09
6.46011e-10
3.50266e-10
1.89392e-10
1.01275e-10
5.31522e-11
2.72063e-11
1.32982e-11
6.32689e-12
2.88013e-12
1.35406e-12
7.80885e-13
7.39962e-13
1.06803e-12
1.43166e-12
9.35573e-13
3.57786e-13
6.28351e-14
1.30807e-22
3.44898e-22
5.58419e-22
8.36669e-22
1.06504e-21
1.212e-21
1.41547e-21
1.66957e-21
2.07335e-21
2.65575e-21
3.24128e-21
3.85302e-21
4.47605e-21
5.01568e-21
5.44952e-21
6.04837e-21
6.7247e-21
7.40349e-21
7.82333e-21
8.37107e-21
9.29258e-21
1.10644e-20
1.46758e-20
2.23534e-20
4.37559e-20
1.03136e-19
2.72874e-19
7.52875e-19
2.11576e-18
6.04163e-18
1.69477e-17
4.70407e-17
1.26552e-16
3.43668e-16
8.91757e-16
2.28398e-15
5.93261e-15
1.44998e-14
3.71698e-14
9.17783e-14
2.21434e-13
5.05792e-13
1.13866e-12
2.47956e-12
5.3713e-12
1.13361e-11
2.25776e-11
4.20596e-11
7.28223e-11
1.17081e-10
1.75961e-10
2.50533e-10
3.44203e-10
4.47626e-10
6.10022e-10
8.76871e-10
1.46271e-09
3.00958e-09
7.28241e-09
1.95129e-08
5.41709e-08
1.38473e-07
3.05962e-07
4.75218e-07
4.51826e-07
3.06821e-07
1.84464e-07
1.17961e-07
9.06522e-08
8.54789e-08
9.4791e-08
1.17504e-07
1.47261e-07
1.61037e-07
1.36987e-07
8.09413e-08
4.36193e-08
2.44667e-08
1.43581e-08
8.13521e-09
4.38794e-09
2.30931e-09
1.23155e-09
6.54293e-10
3.54698e-10
1.91778e-10
1.02554e-10
5.38294e-11
2.75592e-11
1.34689e-11
6.40942e-12
2.91698e-12
1.37076e-12
7.89268e-13
7.46036e-13
1.07639e-12
1.44483e-12
9.46674e-13
3.62357e-13
6.36581e-14
1.09617e-22
3.25518e-22
5.72449e-22
8.15361e-22
1.0303e-21
1.2987e-21
1.56775e-21
1.75557e-21
2.06042e-21
2.37864e-21
2.77181e-21
3.45445e-21
3.86964e-21
4.27799e-21
4.94227e-21
5.67425e-21
6.40021e-21
7.31573e-21
7.98395e-21
8.76298e-21
9.64893e-21
1.1488e-20
1.5373e-20
2.38062e-20
4.65334e-20
1.08867e-19
2.88275e-19
7.92549e-19
2.20516e-18
6.30493e-18
1.75092e-17
4.86728e-17
1.3296e-16
3.55284e-16
9.33754e-16
2.42157e-15
6.15278e-15
1.55946e-14
3.89498e-14
9.73182e-14
2.28031e-13
5.15702e-13
1.16381e-12
2.53407e-12
5.50842e-12
1.15846e-11
2.29951e-11
4.27e-11
7.37066e-11
1.18154e-10
1.77168e-10
2.51646e-10
3.44835e-10
4.47131e-10
6.09107e-10
8.72869e-10
1.4498e-09
2.97061e-09
7.17101e-09
1.91762e-08
5.32297e-08
1.36209e-07
3.02098e-07
4.73512e-07
4.54538e-07
3.10453e-07
1.86871e-07
1.19171e-07
9.11471e-08
8.55106e-08
9.44928e-08
1.16901e-07
1.46718e-07
1.61131e-07
1.37919e-07
8.20684e-08
4.41987e-08
2.47515e-08
1.45191e-08
8.2279e-09
4.44004e-09
2.33648e-09
1.24576e-09
6.61476e-10
3.58548e-10
1.93852e-10
1.03668e-10
5.44212e-11
2.78687e-11
1.3619e-11
6.48298e-12
2.94968e-12
1.38549e-12
7.96475e-13
7.5094e-13
1.08303e-12
1.45567e-12
9.56272e-13
3.66354e-13
6.43805e-14
7.97513e-23
3.21973e-22
5.57105e-22
6.73452e-22
8.67275e-22
1.1485e-21
1.52888e-21
2.01293e-21
2.30897e-21
2.58751e-21
2.92236e-21
3.37651e-21
3.83435e-21
4.35207e-21
5.11454e-21
5.77698e-21
6.20175e-21
6.94532e-21
7.78708e-21
9.01312e-21
1.03399e-20
1.23427e-20
1.64988e-20
2.51478e-20
4.89977e-20
1.1524e-19
3.00652e-19
8.24227e-19
2.30877e-18
6.55775e-18
1.82443e-17
5.10415e-17
1.38098e-16
3.68265e-16
9.66929e-16
2.515e-15
6.42087e-15
1.60749e-14
3.98836e-14
9.838e-14
2.31799e-13
5.29433e-13
1.16724e-12
2.56902e-12
5.61916e-12
1.17778e-11
2.33156e-11
4.31929e-11
7.43938e-11
1.19007e-10
1.78119e-10
2.52499e-10
3.45287e-10
4.46778e-10
6.083e-10
8.69708e-10
1.43944e-09
2.94266e-09
7.09003e-09
1.89341e-08
5.25287e-08
1.34399e-07
2.98891e-07
4.71897e-07
4.56733e-07
3.13418e-07
1.8882e-07
1.2015e-07
9.15172e-08
8.55271e-08
9.42578e-08
1.16437e-07
1.46298e-07
1.61195e-07
1.38643e-07
8.29675e-08
4.46611e-08
2.49786e-08
1.46474e-08
8.30195e-09
4.48179e-09
2.35824e-09
1.2571e-09
6.67202e-10
3.61618e-10
1.9551e-10
1.0456e-10
5.4896e-11
2.81176e-11
1.37399e-11
6.54214e-12
2.97596e-12
1.3973e-12
8.02117e-13
7.54511e-13
1.08792e-12
1.46395e-12
9.63926e-13
3.69573e-13
6.49638e-14
1.3751e-22
4.37614e-22
7.39937e-22
1.05005e-21
1.20143e-21
1.32004e-21
1.56314e-21
1.9536e-21
2.04649e-21
2.21708e-21
2.53812e-21
2.95514e-21
3.49514e-21
4.03068e-21
4.79644e-21
5.78153e-21
6.65827e-21
7.40637e-21
8.43292e-21
9.42103e-21
1.07079e-20
1.24529e-20
1.63942e-20
2.5487e-20
4.98817e-20
1.17481e-19
3.10492e-19
8.56445e-19
2.42785e-18
6.77112e-18
1.87527e-17
5.13826e-17
1.41098e-16
3.75304e-16
9.96208e-16
2.59292e-15
6.56941e-15
1.61982e-14
4.04185e-14
9.92425e-14
2.33141e-13
5.30199e-13
1.18e-12
2.59989e-12
5.69814e-12
1.19171e-11
2.35462e-11
4.35472e-11
7.48913e-11
1.19651e-10
1.78806e-10
2.53151e-10
3.45639e-10
4.46579e-10
6.07765e-10
8.6757e-10
1.43254e-09
2.92288e-09
7.03201e-09
1.87607e-08
5.20293e-08
1.33159e-07
2.96698e-07
4.70763e-07
4.58143e-07
3.15409e-07
1.9014e-07
1.208e-07
9.17648e-08
8.55335e-08
9.40934e-08
1.16104e-07
1.45988e-07
1.61229e-07
1.39145e-07
8.36048e-08
4.49888e-08
2.51395e-08
1.47381e-08
8.35446e-09
4.51149e-09
2.37384e-09
1.26522e-09
6.71296e-10
3.63811e-10
1.96693e-10
1.05196e-10
5.52344e-11
2.82951e-11
1.38263e-11
6.58444e-12
2.99472e-12
1.40571e-12
8.06115e-13
7.57008e-13
1.09124e-12
1.46966e-12
9.6933e-13
3.71857e-13
6.53786e-14
8.44204e-23
2.37551e-22
4.31926e-22
6.92811e-22
8.82379e-22
1.08839e-21
1.36541e-21
1.79563e-21
2.01324e-21
2.29547e-21
2.6012e-21
3.0088e-21
3.48882e-21
4.00303e-21
4.59672e-21
5.22218e-21
5.92405e-21
6.83181e-21
8.03008e-21
9.36525e-21
1.07247e-20
1.2391e-20
1.6113e-20
2.56728e-20
5.07023e-20
1.19947e-19
3.15985e-19
8.79726e-19
2.46388e-18
6.90021e-18
1.91653e-17
5.34338e-17
1.4355e-16
3.8168e-16
1.01235e-15
2.59891e-15
6.64549e-15
1.64279e-14
4.19413e-14
1.01966e-13
2.36105e-13
5.38058e-13
1.18122e-12
2.64028e-12
5.74071e-12
1.20012e-11
2.3697e-11
4.37826e-11
7.52184e-11
1.20056e-10
1.79243e-10
2.53554e-10
3.45902e-10
4.46542e-10
6.07581e-10
8.66578e-10
1.42919e-09
2.91313e-09
7.00266e-09
1.86711e-08
5.1766e-08
1.32517e-07
2.9557e-07
4.70159e-07
4.58861e-07
3.16434e-07
1.90823e-07
1.21143e-07
9.18925e-08
8.55343e-08
9.40016e-08
1.15927e-07
1.45822e-07
1.61244e-07
1.39408e-07
8.39439e-08
4.51632e-08
2.5225e-08
1.47863e-08
8.38246e-09
4.52738e-09
2.38219e-09
1.26959e-09
6.73503e-10
3.64997e-10
1.97333e-10
1.05541e-10
5.54182e-11
2.83915e-11
1.38732e-11
6.60738e-12
3.00489e-12
1.41026e-12
8.08268e-13
7.58348e-13
1.09297e-12
1.47265e-12
9.72207e-13
3.73079e-13
6.56008e-14
8.1956e-23
3.27194e-22
5.49926e-22
8.09288e-22
9.89428e-22
1.20833e-21
1.57665e-21
2.03596e-21
2.34508e-21
2.60315e-21
3.08305e-21
3.45322e-21
3.86234e-21
4.07061e-21
4.46788e-21
5.15371e-21
5.72472e-21
6.63007e-21
7.4337e-21
8.813e-21
1.03724e-20
1.2291e-20
1.65516e-20
2.64425e-20
5.1054e-20
1.21205e-19
3.20086e-19
8.88763e-19
2.51885e-18
7.08893e-18
1.96344e-17
5.35238e-17
1.4646e-16
3.94126e-16
1.03105e-15
2.64548e-15
6.75741e-15
1.65351e-14
4.22864e-14
1.01416e-13
2.39428e-13
5.42269e-13
1.2031e-12
2.64473e-12
5.76475e-12
1.20511e-11
2.37831e-11
4.39168e-11
7.54079e-11
1.203e-10
1.79531e-10
2.53848e-10
3.46145e-10
4.46669e-10
6.07774e-10
8.66585e-10
1.42869e-09
2.91137e-09
6.99707e-09
1.86535e-08
5.17129e-08
1.32381e-07
2.95327e-07
4.7002e-07
4.58993e-07
3.1663e-07
1.9095e-07
1.21204e-07
9.19145e-08
8.55337e-08
9.39857e-08
1.15897e-07
1.45796e-07
1.61246e-07
1.39449e-07
8.39968e-08
4.519e-08
2.5238e-08
1.47936e-08
8.38666e-09
4.52974e-09
2.38342e-09
1.27023e-09
6.73824e-10
3.65168e-10
1.97425e-10
1.0559e-10
5.54443e-11
2.84051e-11
1.38797e-11
6.61054e-12
3.0063e-12
1.41089e-12
8.0857e-13
7.58546e-13
1.09328e-12
1.47315e-12
9.72614e-13
3.73243e-13
6.56301e-14
6.99976e-23
2.88898e-22
6.18578e-22
9.09816e-22
1.12937e-21
1.35852e-21
1.64758e-21
2.03703e-21
2.4783e-21
2.70793e-21
2.85007e-21
3.19064e-21
3.49524e-21
4.0786e-21
4.69144e-21
5.27764e-21
6.04764e-21
6.76701e-21
7.55064e-21
8.67791e-21
1.03054e-20
1.24655e-20
1.6653e-20
2.64219e-20
5.18782e-20
1.22103e-19
3.19227e-19
9.05879e-19
2.5341e-18
7.11122e-18
1.98179e-17
5.44091e-17
1.48395e-16
3.94674e-16
1.04094e-15
2.66589e-15
6.79935e-15
1.67223e-14
4.25113e-14
1.01988e-13
2.40573e-13
5.38386e-13
1.216e-12
2.65067e-12
5.76365e-12
1.20678e-11
2.38113e-11
4.39613e-11
7.54753e-11
1.20396e-10
1.79664e-10
2.5403e-10
3.464e-10
4.47032e-10
6.08489e-10
8.6794e-10
1.43209e-09
2.92034e-09
7.02232e-09
1.87269e-08
5.19206e-08
1.32882e-07
2.96191e-07
4.70453e-07
4.58418e-07
3.15831e-07
1.90418e-07
1.20939e-07
9.18136e-08
8.55274e-08
9.40481e-08
1.16024e-07
1.45915e-07
1.61233e-07
1.39253e-07
8.37471e-08
4.50615e-08
2.51748e-08
1.47579e-08
8.36604e-09
4.51805e-09
2.37728e-09
1.26701e-09
6.72204e-10
3.64298e-10
1.96955e-10
1.05336e-10
5.53087e-11
2.83336e-11
1.38449e-11
6.59344e-12
2.99869e-12
1.40749e-12
8.06995e-13
7.57646e-13
1.09208e-12
1.47097e-12
9.70408e-13
3.72297e-13
6.54576e-14
7.78529e-23
2.14359e-22
4.04566e-22
6.29777e-22
9.45802e-22
1.22367e-21
1.39959e-21
1.79543e-21
2.23829e-21
2.49353e-21
2.78642e-21
3.1275e-21
3.49353e-21
4.15062e-21
4.67784e-21
5.53918e-21
6.29558e-21
6.61553e-21
7.22375e-21
8.35716e-21
1.00014e-20
1.24363e-20
1.65312e-20
2.62656e-20
5.09427e-20
1.20409e-19
3.17492e-19
8.90639e-19
2.49431e-18
6.99872e-18
1.94224e-17
5.31747e-17
1.47694e-16
3.90178e-16
1.00218e-15
2.60168e-15
6.66684e-15
1.62276e-14
4.101e-14
1.02654e-13
2.34762e-13
5.42501e-13
1.18805e-12
2.65544e-12
5.75817e-12
1.2044e-11
2.3771e-11
4.39035e-11
7.5404e-11
1.20324e-10
1.79622e-10
2.5407e-10
3.46623e-10
4.47583e-10
6.09689e-10
8.70589e-10
1.43925e-09
2.9396e-09
7.07695e-09
1.88867e-08
5.23768e-08
1.33992e-07
2.98102e-07
4.71402e-07
4.57145e-07
3.14084e-07
1.89269e-07
1.20369e-07
9.1599e-08
8.55182e-08
9.41855e-08
1.16303e-07
1.46172e-07
1.61202e-07
1.38827e-07
8.32073e-08
4.47836e-08
2.50384e-08
1.4681e-08
8.32149e-09
4.49281e-09
2.36404e-09
1.2601e-09
6.68718e-10
3.62427e-10
1.95943e-10
1.04791e-10
5.50177e-11
2.81805e-11
1.37703e-11
6.5568e-12
2.98247e-12
1.40023e-12
8.03637e-13
7.55735e-13
1.08952e-12
1.46632e-12
9.65739e-13
3.70296e-13
6.50929e-14
1.63328e-22
3.40542e-22
4.85804e-22
7.03916e-22
9.28529e-22
1.14305e-21
1.40386e-21
1.75329e-21
2.11984e-21
2.45738e-21
2.87771e-21
3.19347e-21
3.65894e-21
4.23348e-21
4.96951e-21
5.80517e-21
6.51356e-21
7.39864e-21
8.138e-21
9.11722e-21
1.02105e-20
1.20311e-20
1.58604e-20
2.51904e-20
5.06768e-20
1.2032e-19
3.15173e-19
8.69972e-19
2.46675e-18
6.91419e-18
1.92396e-17
5.26671e-17
1.44078e-16
3.83413e-16
1.00928e-15
2.61374e-15
6.61337e-15
1.62054e-14
4.10813e-14
1.01631e-13
2.35952e-13
5.32095e-13
1.18033e-12
2.65023e-12
5.72574e-12
1.198e-11
2.36681e-11
4.37531e-11
7.52092e-11
1.20104e-10
1.79429e-10
2.54004e-10
3.46868e-10
4.48389e-10
6.11476e-10
8.74732e-10
1.45072e-09
2.97079e-09
7.16601e-09
1.91479e-08
5.31184e-08
1.3579e-07
3.01169e-07
4.7285e-07
4.55091e-07
3.11336e-07
1.87473e-07
1.19483e-07
9.12638e-08
8.5504e-08
9.43991e-08
1.16727e-07
1.46566e-07
1.6115e-07
1.38175e-07
8.23942e-08
4.43657e-08
2.48332e-08
1.45651e-08
8.25452e-09
4.4549e-09
2.34411e-09
1.2497e-09
6.63475e-10
3.59614e-10
1.94423e-10
1.03972e-10
5.45811e-11
2.79511e-11
1.36587e-11
6.502e-12
2.95815e-12
1.38935e-12
7.98547e-13
7.52705e-13
1.08558e-12
1.45927e-12
9.58766e-13
3.67318e-13
6.45507e-14
9.42002e-23
2.93379e-22
5.0542e-22
6.7124e-22
8.01798e-22
9.89024e-22
1.26654e-21
1.61958e-21
1.93035e-21
2.28984e-21
2.80806e-21
3.29041e-21
3.95808e-21
4.67122e-21
5.27441e-21
5.94407e-21
6.69859e-21
7.64333e-21
8.47239e-21
9.3433e-21
1.06115e-20
1.22075e-20
1.60537e-20
2.53114e-20
4.9917e-20
1.16869e-19
3.06696e-19
8.44351e-19
2.3921e-18
6.75946e-18
1.84927e-17
5.22025e-17
1.40589e-16
3.75077e-16
9.89478e-16
2.55117e-15
6.5033e-15
1.60722e-14
3.98471e-14
9.77579e-14
2.33037e-13
5.27366e-13
1.16108e-12
2.61451e-12
5.67672e-12
1.18843e-11
2.3504e-11
4.34989e-11
7.48614e-11
1.19699e-10
1.79044e-10
2.53789e-10
3.47104e-10
4.49457e-10
6.13861e-10
8.80225e-10
1.46598e-09
3.01253e-09
7.28581e-09
1.95012e-08
5.41281e-08
1.38255e-07
3.05405e-07
4.74675e-07
4.5225e-07
3.07673e-07
1.85097e-07
1.183e-07
9.08027e-08
8.54713e-08
9.46704e-08
1.17275e-07
1.4706e-07
1.61068e-07
1.37322e-07
8.13512e-08
4.38291e-08
2.45695e-08
1.44158e-08
8.16825e-09
4.406e-09
2.3186e-09
1.23639e-09
6.56763e-10
3.56012e-10
1.92479e-10
1.02925e-10
5.40228e-11
2.76578e-11
1.35161e-11
6.43209e-12
2.9271e-12
1.37548e-12
7.91999e-13
7.4872e-13
1.08032e-12
1.45001e-12
9.49791e-13
3.63501e-13
6.38565e-14
9.85578e-23
2.67406e-22
5.30746e-22
7.01251e-22
9.01245e-22
1.19091e-21
1.61354e-21
1.78799e-21
2.06177e-21
2.40422e-21
2.87531e-21
3.44266e-21
4.01257e-21
4.49744e-21
4.85044e-21
5.50859e-21
6.4307e-21
7.29289e-21
8.19116e-21
9.18465e-21
1.04012e-20
1.27408e-20
1.646e-20
2.57871e-20
4.91224e-20
1.13539e-19
2.97126e-19
8.14991e-19
2.30885e-18
6.44733e-18
1.78729e-17
4.98324e-17
1.35486e-16
3.62426e-16
9.35021e-16
2.45775e-15
6.2509e-15
1.55278e-14
3.89899e-14
9.72223e-14
2.25036e-13
5.2667e-13
1.1607e-12
2.56885e-12
5.58324e-12
1.17327e-11
2.32635e-11
4.31348e-11
7.43708e-11
1.191e-10
1.7844e-10
2.53379e-10
3.4726e-10
4.50681e-10
6.16447e-10
8.86951e-10
1.48439e-09
3.06246e-09
7.42832e-09
1.99179e-08
5.53036e-08
1.41057e-07
3.09972e-07
4.76481e-07
4.48725e-07
3.03246e-07