/*--------------------------------*- C++ -*----------------------------------*\
  =========                 |
  \\      /  F ield         | OpenFOAM: The Open Source CFD Toolbox
   \\    /   O peration     | Website:  https://openfoam.org
    \\  /    A nd           | Version:  10
     \\/     M anipulation  |
\*---------------------------------------------------------------------------*/
FoamFile
{
    format      ascii;
    class       volScalarField;
    location    "1";
    object      O2;
}
// * * * * * * * * * * * * * * * * * * * * * * * * * * * * * * * * * * * * * //

dimensions      [0 0 0 0 0 0 0];

internalField   nonuniform List<scalar> 
4000
(
4.67892e-31
2.98093e-30
1.30918e-29
5.03557e-29
1.80642e-28
6.06441e-28
1.93594e-27
5.95771e-27
1.78642e-26
5.29095e-26
1.57508e-25
4.36929e-25
1.19738e-24
3.29385e-24
9.13804e-24
2.55361e-23
7.19071e-23
2.10527e-22
6.08662e-22
1.77775e-21
5.21621e-21
1.51426e-20
4.75113e-20
1.42186e-19
4.31403e-19
1.30501e-18
3.90629e-18
1.20546e-17
3.61934e-17
1.0863e-16
3.25964e-16
9.76241e-16
2.88934e-15
8.49833e-15
2.48149e-14
7.01218e-14
2.00764e-13
5.86031e-13
1.66107e-12
4.66087e-12
1.26254e-11
3.35423e-11
8.72755e-11
2.21138e-10
5.45235e-10
1.4134e-09
3.71955e-09
9.62941e-09
2.4255e-08
5.89852e-08
1.37722e-07
3.13586e-07
6.40057e-07
1.35949e-06
2.79082e-06
5.43287e-06
9.88066e-06
1.74903e-05
2.93143e-05
4.64544e-05
6.94762e-05
9.7125e-05
0.000130653
0.000169314
0.000212088
0.000257894
0.000305698
0.000353507
0.000400835
0.00044775
0.000495239
0.000546138
0.00060637
0.000687501
0.000805364
0.000972928
0.00117648
0.0013956
0.00163649
0.00193738
0.00238051
0.00313765
0.00456909
0.00723844
0.0118551
0.0195626
0.0310133
0.0457931
0.0629796
0.0816069
0.100793
0.120429
0.138645
0.155671
0.171236
0.185239
0.197686
0.208571
0.217885
0.226409
4.46753e-31
2.63938e-30
9.85667e-30
3.409e-29
1.13596e-28
3.67471e-28
1.15885e-27
3.5686e-27
1.04676e-26
2.99807e-26
8.50696e-26
2.41432e-25
6.90115e-25
1.99755e-24
5.86818e-24
1.75422e-23
5.30816e-23
1.62874e-22
5.04979e-22
1.5738e-21
4.93646e-21
1.55652e-20
4.90044e-20
1.54099e-19
4.84017e-19
1.51062e-18
4.69821e-18
1.45486e-17
4.45848e-17
1.35263e-16
4.07363e-16
1.28787e-15
3.84593e-15
1.12796e-14
3.28687e-14
9.39858e-14
2.7447e-13
7.71494e-13
2.17822e-12
5.98059e-12
1.6231e-11
4.26323e-11
1.10813e-10
2.79881e-10
7.18161e-10
1.88924e-09
4.90754e-09
1.24655e-08
3.09682e-08
7.51665e-08
1.62476e-07
3.34074e-07
7.24654e-07
1.50742e-06
3.05571e-06
5.95516e-06
1.05459e-05
1.82985e-05
3.02457e-05
4.71812e-05
7.0006e-05
9.74015e-05
0.000130613
0.000168945
0.000211428
0.000257084
0.000304946
0.000353388
0.000401555
0.000449468
0.000498255
0.000550226
0.000611774
0.000693768
0.0008125
0.000982125
0.00118992
0.00141425
0.00166148
0.00197104
0.00242653
0.00320953
0.00469237
0.00744588
0.0121942
0.0201113
0.0317977
0.0467968
0.0642074
0.0829591
0.102207
0.121828
0.139981
0.156866
0.172294
0.18616
0.198427
0.209084
0.218183
0.226504
2.45916e-31
1.28288e-30
4.3624e-30
1.33392e-29
3.93215e-29
1.13847e-28
3.26274e-28
9.41033e-28
2.80071e-27
8.75579e-27
2.82007e-26
9.29732e-26
3.1147e-25
1.05041e-24
3.55243e-24
1.20171e-23
4.05191e-23
1.33693e-22
4.66088e-22
1.54896e-21
5.15281e-21
1.70144e-20
5.56834e-20
1.80405e-19
5.78809e-19
1.84148e-18
5.83043e-18
1.84342e-17
5.69645e-17
1.74806e-16
5.45969e-16
1.64656e-15
4.84357e-15
1.44077e-14
4.25006e-14
1.22347e-13
3.46073e-13
9.72662e-13
2.70143e-12
7.32631e-12
1.95947e-11
4.94637e-11
1.34095e-10
3.3208e-10
8.8187e-10
2.26086e-09
5.87559e-09
1.47788e-08
3.55507e-08
8.45755e-08
1.82605e-07
3.77756e-07
8.1489e-07
1.71797e-06
3.37275e-06
6.23104e-06
1.0874e-05
1.87278e-05
3.07582e-05
4.78104e-05
7.0595e-05
9.78701e-05
0.000130885
0.000169011
0.00021134
0.000256943
0.000304982
0.000354109
0.000403106
0.000452056
0.000502069
0.000555548
0.00061872
0.00070266
0.000823464
0.000996779
0.00121038
0.00144147
0.00169721
0.00201862
0.00249418
0.00331091
0.00486337
0.0077455
0.0126964
0.0209213
0.0329472
0.048265
0.0658801
0.0848411
0.104143
0.123676
0.141648
0.158343
0.173539
0.187188
0.1992
0.209624
0.218501
0.226604
1.41975e-31
7.27727e-31
2.51315e-30
7.92543e-30
2.45234e-29
7.65218e-29
2.44383e-28
8.21434e-28
2.76669e-27
9.41031e-27
3.27154e-26
1.133e-25
3.97165e-25
1.37071e-24
4.71648e-24
1.61412e-23
5.49243e-23
1.85789e-22
6.23661e-22
2.07842e-21
6.86788e-21
2.26074e-20
7.36366e-20
2.3797e-19
7.71468e-19
2.45121e-18
7.72262e-18
2.40462e-17
7.23925e-17
2.31642e-16
6.98994e-16
2.10186e-15
6.2273e-15
1.83847e-14
5.37886e-14
1.53876e-13
4.31637e-13
1.21111e-12
3.27961e-12
9.07508e-12
2.40573e-11
6.21923e-11
1.62271e-10
4.02933e-10
1.02069e-09
2.67176e-09
6.85147e-09
1.68863e-08
4.12249e-08
9.01859e-08
1.92318e-07
4.31286e-07
9.31653e-07
1.9026e-06
3.67322e-06
6.42334e-06
1.12094e-05
1.91788e-05
3.13421e-05
4.83439e-05
7.10442e-05
9.81886e-05
0.000131043
0.000169034
0.000211321
0.000257016
0.000305435
0.00035523
0.000405345
0.000455634
0.000507481
0.000562545
0.000626908
0.000712273
0.000835756
0.00101701
0.00123686
0.00147593
0.00174057
0.00207282
0.00256306
0.00340839
0.00501833
0.00808876
0.0132258
0.0217383
0.0340545
0.0495883
0.0673362
0.0867474
0.106004
0.125375
0.143229
0.159758
0.174762
0.18815
0.199931
0.210131
0.2188
0.226698
1.79824e-31
9.3673e-31
3.3458e-30
1.10339e-29
3.58034e-29
1.16578e-28
3.82821e-28
1.26641e-27
4.20951e-27
1.43808e-26
4.86585e-26
1.65943e-25
5.70801e-25
1.94152e-24
6.68424e-24
2.26034e-23
7.61594e-23
2.59202e-22
8.67071e-22
2.87857e-21
9.49826e-21
3.09386e-20
1.00046e-19
3.21009e-19
1.02274e-18
3.2292e-18
1.01172e-17
3.17156e-17
9.75224e-17
2.96644e-16
8.94097e-16
2.73268e-15
8.03393e-15
2.35253e-14
6.77161e-14
1.91831e-13
5.3472e-13
1.45532e-12
4.03932e-12
1.0868e-11
2.85115e-11
7.36065e-11
1.85386e-10
4.7266e-10
1.18641e-09
3.0741e-09
7.717e-09
1.91623e-08
4.33289e-08
9.34135e-08
2.13451e-07
4.72866e-07
1.02306e-06
2.11115e-06
3.79576e-06
6.62973e-06
1.1532e-05
1.95688e-05
3.17528e-05
4.88255e-05
7.14987e-05
9.85832e-05
0.000131339
0.000169252
0.000211548
0.00025742
0.000306179
0.000356413
0.000407374
0.000458907
0.000512283
0.000568742
0.000635035
0.000723034
0.000849163
0.00103418
0.00125971
0.00150618
0.00177863
0.00212089
0.00262936
0.00350916
0.00518924
0.00837568
0.0136973
0.0224752
0.0350661
0.0508312
0.0687498
0.088235
0.107506
0.12678
0.144533
0.160917
0.175749
0.188943
0.200531
0.210548
0.219046
0.226775
3.0357e-31
1.6324e-30
5.95416e-30
2.01286e-29
6.67852e-29
2.2087e-28
7.30558e-28
2.4203e-27
8.02784e-27
2.66753e-26
8.84126e-26
2.92432e-25
9.86005e-25
3.26863e-24
1.08155e-23
3.61244e-23
1.1929e-22
3.93321e-22
1.29363e-21
4.20748e-21
1.38078e-20
4.42031e-20
1.40243e-19
4.42444e-19
1.39685e-18
4.41103e-18
1.36044e-17
4.1426e-17
1.27712e-16
3.82463e-16
1.12643e-15
3.48421e-15
1.00831e-14
2.90096e-14
8.1462e-14
2.32663e-13
6.36295e-13
1.6989e-12
4.79775e-12
1.31713e-11
3.37404e-11
8.51136e-11
2.1456e-10
5.38381e-10
1.36878e-09
3.43992e-09
8.8269e-09
2.02392e-08
4.51431e-08
1.02617e-07
2.32607e-07
5.14248e-07
1.09019e-06
2.22498e-06
3.97384e-06
6.86367e-06
1.17962e-05
1.99497e-05
3.21475e-05
4.92127e-05
7.18454e-05
9.88409e-05
0.000131504
0.000169356
0.000211663
0.000257666
0.000306796
0.000357606
0.000409384
0.000461692
0.000516106
0.000573919
0.000641779
0.000730956
0.000859159
0.0010478
0.00127796
0.00152994
0.00180946
0.00216142
0.00268441
0.0035921
0.00532717
0.00860577
0.0140798
0.0230718
0.0358846
0.0518365
0.069888
0.0894065
0.108691
0.127861
0.145528
0.16179
0.176479
0.189538
0.200986
0.210865
0.219233
0.226833
4.85339e-31
2.55486e-30
9.41803e-30
3.16357e-29
1.03847e-28
3.45797e-28
1.13467e-27
3.73486e-27
1.23107e-26
4.05828e-26
1.33827e-25
4.41273e-25
1.4539e-24
4.78346e-24
1.57446e-23
5.18481e-23
1.70345e-22
5.54843e-22
1.80343e-21
5.87236e-21
1.88599e-20
5.99727e-20
1.86477e-19
5.98934e-19
1.84963e-18
5.68712e-18
1.73878e-17
5.13157e-17
1.61139e-16
4.84189e-16
1.43152e-15
4.19197e-15
1.22254e-14
3.50772e-14
9.84261e-14
2.77625e-13
7.74718e-13
2.04749e-12
5.74032e-12
1.51571e-11
3.89874e-11
9.87547e-11
2.44628e-10
6.1085e-10
1.51209e-09
3.82688e-09
9.3709e-09
2.05603e-08
4.83959e-08
1.10933e-07
2.48027e-07
5.41567e-07
1.13831e-06
2.30439e-06
4.09412e-06
7.04396e-06
1.20151e-05
2.02038e-05
3.24452e-05
4.95022e-05
7.20701e-05
9.89963e-05
0.000131573
0.000169365
0.000211668
0.000257757
0.000307111
0.000358328
0.000410734
0.000463828
0.000519155
0.000578023
0.000646938
0.000737461
0.000867268
0.00105846
0.00129305
0.00154978
0.00183492
0.00219411
0.00272799
0.00365608
0.00543218
0.00877821
0.0143649
0.0235143
0.0364905
0.0525805
0.0707295
0.090268
0.109561
0.128647
0.146252
0.162428
0.177017
0.189973
0.201317
0.211095
0.21937
0.226876
7.01779e-31
3.70854e-30
1.35933e-29
4.60698e-29
1.5283e-28
5.04e-28
1.65867e-27
5.45474e-27
1.79274e-26
5.88737e-26
1.93078e-25
6.33057e-25
2.07588e-24
6.79993e-24
2.21674e-23
7.21842e-23
2.3459e-22
7.58595e-22
2.4435e-21
7.84385e-21
2.50254e-20
7.91237e-20
2.48352e-19
7.73059e-19
2.38891e-18
7.33022e-18
2.22538e-17
6.64934e-17
1.96112e-16
5.79091e-16
1.73058e-15
5.12207e-15
1.47524e-14
4.18765e-14
1.16067e-13
3.23148e-13
8.93741e-13
2.33775e-12
6.43406e-12
1.72756e-11
4.41755e-11
1.1045e-10
2.77257e-10
6.82421e-10
1.69354e-09
4.24258e-09
9.75431e-09
2.2293e-08
5.21387e-08
1.18664e-07
2.64926e-07
5.70997e-07
1.187e-06
2.38098e-06
4.20355e-06
7.18796e-06
1.21951e-05
2.04146e-05
3.26589e-05
4.96818e-05
7.21722e-05
9.90106e-05
0.00013149
0.00016923
0.000211518
0.000257663
0.000307235
0.0003588
0.000411734
0.000465535
0.000521601
0.000581313
0.000651171
0.000742597
0.000873451
0.0010665
0.00130414
0.00156481
0.00185424
0.00221868
0.00275984
0.00370127
0.00550432
0.00889514
0.0145571
0.0238118
0.036899
0.0530843
0.071302
0.0908552
0.110157
0.129185
0.146749
0.162868
0.177389
0.190274
0.201547
0.211256
0.219465
0.226906
9.26232e-31
4.91417e-30
1.80696e-29
6.13288e-29
2.03688e-28
6.71239e-28
2.2049e-27
7.23373e-27
2.3727e-26
7.80045e-26
2.54929e-25
8.31133e-25
2.70784e-24
8.843e-24
2.86693e-23
9.27054e-23
2.99429e-22
9.61758e-22
3.07263e-21
9.92145e-21
3.13931e-20
9.77952e-20
3.09664e-19
9.54776e-19
2.93907e-18
9.03362e-18
2.73786e-17
8.2168e-17
2.43584e-16
7.09492e-16
2.07258e-15
6.04674e-15
1.72956e-14
4.88939e-14
1.36435e-13
3.73731e-13
1.01741e-12
2.64168e-12
7.22653e-12
1.90933e-11
4.9141e-11
1.23705e-10
3.07028e-10
7.59318e-10
1.79686e-09
4.17232e-09
1.02198e-08
2.41953e-08
5.59176e-08
1.26955e-07
2.79231e-07
5.95512e-07
1.22743e-06
2.44361e-06
4.28591e-06
7.29478e-06
1.23274e-05
2.05601e-05
3.27894e-05
4.97496e-05
7.2136e-05
9.8841e-05
0.000131197
0.000168816
0.00021108
0.000257327
0.000307058
0.000359031
0.0004125
0.000466923
0.000523793
0.000584225
0.000654557
0.000746435
0.000877753
0.00107194
0.00131186
0.00157548
0.00186806
0.00223609
0.00278143
0.00373002
0.00554765
0.00896401
0.014669
0.0239853
0.03714
0.0533861
0.0716496
0.0912173
0.110528
0.129523
0.147064
0.163148
0.177629
0.190469
0.201696
0.21136
0.219526
0.226925
1.10486e-30
6.23144e-30
2.25868e-29
7.63357e-29
2.56025e-28
8.43861e-28
2.7795e-27
9.12513e-27
2.98874e-26
9.76927e-26
3.1921e-25
1.04375e-24
3.39043e-24
1.10045e-23
3.56167e-23
1.14028e-22
3.76203e-22
1.20125e-21
3.82475e-21
1.20983e-20
3.79062e-20
1.20308e-19
3.73431e-19
1.15167e-18
3.52427e-18
1.07248e-17
3.23773e-17
9.67061e-17
2.90226e-16
8.5411e-16
2.47711e-15
7.07294e-15
1.99704e-14
5.59144e-14
1.53742e-13
4.17337e-13
1.12026e-12
2.92511e-12
8.10552e-12
2.10092e-11
5.2944e-11
1.32743e-10
3.27983e-10
7.8435e-10
1.835e-09
4.56545e-09
1.10156e-08
2.59259e-08
5.99496e-08
1.34504e-07
2.93299e-07
6.20251e-07
1.26593e-06
2.48469e-06
4.34373e-06
7.38012e-06
1.24203e-05
2.06458e-05
3.28357e-05
4.97243e-05
7.20032e-05
9.85708e-05
0.00013073
0.000168224
0.000210417
0.000256674
0.000306568
0.000358849
0.000412734
0.000467686
0.000525049
0.000586021
0.000656848
0.000749072
0.000880674
0.00107552
0.00131715
0.00158296
0.00187751
0.00224772
0.00279471
0.00374544
0.00556764
0.00899413
0.0147162
0.0240593
0.0372476
0.0535277
0.0718199
0.0914035
0.110724
0.129706
0.147237
0.163305
0.177764
0.19058
0.201781
0.21142
0.219562
0.226936
1.33585e-30
7.47272e-30
2.72239e-29
9.23604e-29
3.06755e-28
1.01123e-27
3.32377e-27
1.08983e-26
3.56279e-26
1.1665e-25
3.85269e-25
1.25423e-24
4.07327e-24
1.32591e-23
4.29952e-23
1.38021e-22
4.48717e-22
1.42705e-21
4.51971e-21
1.43007e-20
4.44455e-20
1.40957e-19
4.35737e-19
1.33687e-18
4.03817e-18
1.2386e-17
3.70289e-17
1.1051e-16
3.3e-16
9.7e-16
2.80698e-15
7.99989e-15
2.24376e-14
6.29559e-14
1.71864e-13
4.6443e-13
1.24092e-12
3.2451e-12
8.85242e-12
2.27158e-11
5.69041e-11
1.40458e-10
3.4002e-10
8.06367e-10
1.99903e-09
4.91617e-09
1.18317e-08
2.78865e-08
6.39527e-08
1.42889e-07
3.10814e-07
6.56529e-07
1.34818e-06
2.49541e-06
4.38724e-06
7.44174e-06
1.2476e-05
2.06779e-05
3.2809e-05
4.95811e-05
7.16964e-05
9.80949e-05
0.000130171
0.000167515
0.00020962
0.000255867
0.00030586
0.000358347
0.000412605
0.000467952
0.000525707
0.000587113
0.000658323
0.000750611
0.000881922
0.00107684
0.00131957
0.001587
0.0018831
0.00225458
0.00280143
0.00375057
0.00556975
0.00899475
0.0147145
0.0240583
0.0372549
0.053549
0.071857
0.0914579
0.110789
0.129773
0.147306
0.163371
0.177822
0.190629
0.20182
0.211447
0.219579
0.226941
1.61363e-30
8.60028e-30
3.15368e-29
1.06922e-28
3.54659e-28
1.16848e-27
3.84396e-27
1.26396e-26
4.14537e-26
1.36725e-25
4.47869e-25
1.46061e-24
4.74441e-24
1.5452e-23
5.01871e-23
1.61512e-22
5.1738e-22
1.65147e-21
5.23694e-21
1.65089e-20
5.16656e-20
1.60376e-19
4.978e-19
1.5235e-18
4.62676e-18
1.3928e-17
4.16399e-17
1.22407e-16
3.67049e-16
1.06687e-15
3.00439e-15
8.83845e-15
2.48935e-14
6.83459e-14
1.92052e-13
5.12261e-13
1.34752e-12
3.51423e-12
9.35235e-12
2.44876e-11
6.07817e-11
1.48897e-10
3.59068e-10
8.63069e-10
2.1362e-09
5.22895e-09
1.25441e-08
2.94246e-08
6.71626e-08
1.49325e-07
3.23339e-07
6.79978e-07
1.38584e-06
2.49696e-06
4.42658e-06
7.49334e-06
1.25091e-05
2.0675e-05
3.27398e-05
4.94245e-05
7.13969e-05
9.7635e-05
0.000129475
0.0001667
0.00020872
0.000254949
0.000305031
0.000357662
0.000412254
0.00046805
0.00052578
0.000587623
0.000659041
0.000751226
0.000882132
0.00107685
0.00132027
0.00158896
0.00188601
0.002258
0.00280336
0.00374824
0.00555887
0.00897351
0.014676
0.0240007
0.0371868
0.053481
0.0717976
0.091418
0.110762
0.129758
0.147299
0.163371
0.177827
0.190635
0.201826
0.211452
0.219582
0.226942
1.7675e-30
9.65974e-30
3.55596e-29
1.20378e-28
3.99324e-28
1.31695e-27
4.33805e-27
1.4286e-26
4.70878e-26
1.54825e-25
5.07213e-25
1.6547e-24
5.37118e-24
1.75315e-23
5.6455e-23
1.80508e-22
5.64683e-22
1.87247e-21
5.89611e-21
1.85918e-20
5.81525e-20
1.80594e-19
5.56619e-19
1.67578e-18
5.186e-18
1.54403e-17
4.56664e-17
1.34225e-16
3.95864e-16
1.18158e-15
3.35738e-15
9.68872e-15
2.71009e-14
7.56549e-14
2.05417e-13
5.47295e-13
1.43214e-12
3.72528e-12
9.89715e-12
2.60092e-11
6.4766e-11
1.59068e-10
3.789e-10
9.30569e-10
2.24827e-09
5.48981e-09
1.31281e-08
3.05451e-08
6.92501e-08
1.53034e-07
3.29434e-07
6.88945e-07
1.39554e-06
2.49572e-06
4.46942e-06
7.53188e-06
1.25196e-05
2.06396e-05
3.26281e-05
4.92032e-05
7.10771e-05
9.71573e-05
0.000128804
0.000165853
0.000207754
0.000253934
0.000304077
0.000356793
0.000411608
0.0004677
0.000525711
0.000587799
0.000659313
0.000751296
0.000881629
0.00107586
0.00131971
0.00158934
0.00188704
0.00225907
0.00280213
0.00374095
0.00553936
0.00893835
0.014614
0.0239068
0.0370693
0.053353
0.0716701
0.091311
0.110668
0.129687
0.147244
0.163328
0.177794
0.190611
0.201809
0.211441
0.219576
0.22694
1.89789e-30
1.08711e-29
3.97551e-29
1.34608e-28
4.47324e-28
1.47919e-27
4.88089e-27
1.60472e-26
5.26428e-26
1.72364e-25
5.62654e-25
1.82906e-24
6.00966e-24
1.91466e-23
6.1853e-23
2.005e-22
6.47439e-22
2.05426e-21
6.48615e-21
2.03065e-20
6.29789e-20
1.91768e-19
6.09788e-19
1.849e-18
5.58584e-18
1.67149e-17
5.01655e-17
1.47377e-16
4.33005e-16
1.2553e-15
3.56122e-15
1.03973e-14
2.8581e-14
8.0294e-14
2.16381e-13
5.77612e-13
1.51469e-12
3.85668e-12
1.04229e-11
2.74924e-11
6.74598e-11
1.64711e-10
3.98395e-10
9.80191e-10
2.34373e-09
5.71126e-09
1.35524e-08
3.13541e-08
7.07352e-08
1.55588e-07
3.33395e-07
6.94621e-07
1.40012e-06
2.49333e-06
4.50018e-06
7.55926e-06
1.25171e-05
2.05931e-05
3.25156e-05
4.89741e-05
7.06842e-05
9.66067e-05
0.00012814
0.000165016
0.000206804
0.000252916
0.000303069
0.000355935
0.000410865
0.000467202
0.000525465
0.000587763
0.000659327
0.000751066
0.000880789
0.00107421
0.00131834
0.00158875
0.0018869
0.00225869
0.00279899
0.00373094
0.00551543
0.00889572
0.0145405
0.0237949
0.0369274
0.053195
0.071509
0.0911687
0.110538
0.129582
0.147154
0.163255
0.177737
0.190568
0.201777
0.21142
0.219563
0.226937
2.23159e-30
1.18255e-29
4.33802e-29
1.47193e-28
4.886e-28
1.61371e-27
5.34056e-27
1.74937e-26
5.70279e-26
1.84131e-25
6.09271e-25
2.01964e-24
6.51184e-24
2.07537e-23
6.85796e-23
2.18137e-22
6.91915e-22
2.22487e-21
6.9899e-21
2.16025e-20
6.91386e-20
2.13071e-19
6.54724e-19
1.97923e-18
6.03444e-18
1.79344e-17
5.33208e-17
1.56374e-16
4.56376e-16
1.33974e-15
3.85181e-15
1.09277e-14
3.00642e-14
8.40446e-14
2.23887e-13
5.91059e-13
1.58898e-12
4.03243e-12
1.08041e-11
2.80263e-11
7.15261e-11
1.73993e-10
4.21649e-10
1.00087e-09
2.4216e-09
5.86969e-09
1.38737e-08
3.19787e-08
7.18935e-08
1.57614e-07
3.36595e-07
6.98308e-07
1.40272e-06
2.49092e-06
4.51964e-06
7.57347e-06
1.24983e-05
2.05281e-05
3.23743e-05
4.87473e-05
7.03256e-05
9.60938e-05
0.000127458
0.000164223
0.000205894
0.000251931
0.000302077
0.000354993
0.000410044
0.000466607
0.000525085
0.000587553
0.000659142
0.000750622
0.000879735
0.00107231
0.00131655
0.00158755
0.001886
0.0022574
0.00279495
0.00372013
0.00549082
0.00885223
0.0144657
0.0236806
0.0367809
0.0530302
0.071339
0.0910159
0.110397
0.129466
0.147056
0.163173
0.177671
0.190517
0.20174
0.211394
0.219549
0.226932
2.39864e-30
1.27177e-29
4.66793e-29
1.58539e-28
5.27788e-28
1.74183e-27
5.73344e-27
1.88299e-26
6.16518e-26
2.01179e-25
6.56661e-25
2.14579e-24
6.97029e-24
2.2586e-23
7.2941e-23
2.33662e-22
7.41861e-22
2.37051e-21
7.44219e-21
2.33088e-20
7.30582e-20
2.26072e-19
6.94956e-19
2.11498e-18
6.35737e-18
1.89164e-17
5.62687e-17
1.6428e-16
4.74111e-16
1.39498e-15
3.96926e-15
1.13129e-14
3.16826e-14
8.69818e-14
2.35202e-13
6.29275e-13
1.65666e-12
4.37126e-12
1.13457e-11
2.97914e-11
7.35263e-11
1.76353e-10
4.29368e-10
1.0216e-09
2.48152e-09
5.99238e-09
1.41175e-08
3.24396e-08
7.27128e-08
1.58946e-07
3.38605e-07
7.00743e-07
1.40428e-06
2.48821e-06
4.5319e-06
7.57975e-06
1.24733e-05
2.0455e-05
3.22353e-05
4.85134e-05
6.99895e-05
9.56446e-05
0.000126888
0.000163556
0.000205111
0.000251071
0.000301206
0.000354169
0.000409279
0.000466014
0.000524664
0.00058726
0.000658855
0.000750096
0.00087866
0.00107045
0.00131471
0.00158614
0.00188477
0.00225573
0.00279076
0.00370984
0.00546803
0.0088121
0.0143968
0.0235751
0.0366449
0.052876
0.0711786
0.0908696
0.110259
0.129354
0.146959
0.163093
0.177607
0.190467
0.201703
0.211369
0.219534
0.226928
2.34816e-30
1.34117e-29
4.90506e-29
1.66538e-28
5.53681e-28
1.83033e-27
6.0381e-27
1.98617e-26
6.50113e-26
2.12016e-25
6.94909e-25
2.25859e-24
7.32745e-24
2.37202e-23
7.65034e-23
2.45832e-22
7.8974e-22
2.50271e-21
7.86992e-21
2.46244e-20
7.69746e-20
2.36568e-19
7.30277e-19
2.21419e-18
6.66317e-18
1.98584e-17
5.85621e-17
1.70217e-16
4.9537e-16
1.4516e-15
4.14398e-15
1.18792e-14
3.29754e-14
9.0278e-14
2.44057e-13
6.54646e-13
1.72781e-12
4.49327e-12
1.15823e-11
2.99963e-11
7.44503e-11
1.8107e-10
4.29724e-10
1.03289e-09
2.52948e-09
6.0871e-09
1.4303e-08
3.27907e-08
7.33392e-08
1.59972e-07
3.4011e-07
7.02469e-07
1.40518e-06
2.48603e-06
4.5388e-06
7.58073e-06
1.24485e-05
2.03963e-05
3.21289e-05
4.83425e-05
6.97402e-05
9.52811e-05
0.000126403
0.00016295
0.000204433
0.000250342
0.000300467
0.00035345
0.000408612
0.000465482
0.000524267
0.000586959
0.00065855
0.000749591
0.000877705
0.00106885
0.00131308
0.0015848
0.00188354
0.00225411
0.00278711
0.00370125
0.00544913
0.0087787
0.0143396
0.0234871
0.0365311
0.0527464
0.0710435
0.0907457
0.110143
0.129259
0.146878
0.163025
0.177552
0.190424
0.201671
0.211347
0.219521
0.226924
2.5701e-30
1.36761e-29
5.02182e-29
1.7236e-28
5.72293e-28
1.88962e-27
6.22741e-27
2.05025e-26
6.73541e-26
2.20441e-25
7.19477e-25
2.34271e-24
7.61754e-24
2.47453e-23
8.01142e-23
2.57266e-22
8.21189e-22
2.60498e-21
8.20753e-21
2.56742e-20
7.97207e-20
2.45464e-19
7.49555e-19
2.26085e-18
6.88677e-18
2.0534e-17
6.0853e-17
1.77938e-16
5.23281e-16
1.50008e-15
4.25935e-15
1.19372e-14
3.36784e-14
9.21159e-14
2.51669e-13
6.74386e-13
1.76359e-12
4.51269e-12
1.17296e-11
3.00944e-11
7.47123e-11
1.80853e-10
4.33808e-10
1.04422e-09
2.56363e-09
6.15494e-09
1.44349e-08
3.30403e-08
7.37891e-08
1.60734e-07
3.41184e-07
7.03754e-07
1.40585e-06
2.48451e-06
4.54281e-06
7.58031e-06
1.24298e-05
2.03521e-05
3.20482e-05
4.82134e-05
6.95527e-05
9.50224e-05
0.000126066
0.000162542
0.000203969
0.000249832
0.000299945
0.000352944
0.000408121
0.000465082
0.000523957
0.000586707
0.000658289
0.000749188
0.000876979
0.00106765
0.00131183
0.00158374
0.00188253
0.00225278
0.00278428
0.00369481
0.00543528
0.00875433
0.014298
0.0234231
0.0364481
0.0526519
0.0709446
0.0906547
0.110058
0.129189
0.146817
0.162975
0.177511
0.190392
0.201648
0.211331
0.219512
0.226921
2.61092e-30
1.41185e-29
5.16609e-29
1.75432e-28
5.84414e-28
1.9369e-27
6.39036e-27
2.10452e-26
6.92072e-26
2.27037e-25
7.42213e-25
2.41825e-24
7.85299e-24
2.54298e-23
8.21552e-23
2.63464e-22
8.39808e-22
2.66041e-21
8.34639e-21
2.60084e-20
8.07502e-20
2.48901e-19
7.66074e-19
2.31356e-18
7.02439e-18
2.08945e-17
6.19919e-17
1.82999e-16
5.3202e-16
1.53018e-15
4.35221e-15
1.24377e-14
3.42635e-14
9.36052e-14
2.55215e-13
6.75948e-13
1.785e-12
4.58505e-12
1.2218e-11
3.10608e-11
7.56214e-11
1.83698e-10
4.33364e-10
1.06153e-09
2.58181e-09
6.19535e-09
1.45205e-08
3.32042e-08
7.40805e-08
1.6121e-07
3.41867e-07
7.04565e-07
1.40641e-06
2.4839e-06
4.54566e-06
7.58088e-06
1.24208e-05
2.03296e-05
3.20058e-05
4.81435e-05
6.94477e-05
9.4881e-05
0.000125885
0.000162322
0.000203715
0.000249554
0.000299658
0.000352658
0.000407844
0.00046485
0.000523768
0.000586551
0.000658127
0.000748946
0.000876564
0.00106698
0.00131112
0.00158312
0.00188192
0.00225198
0.00278266
0.0036912
0.00542757
0.00874078
0.0142748
0.0233875
0.0364022
0.0525996
0.0708902
0.0906044
0.110011
0.129151
0.146784
0.162947
0.177488
0.190375
0.201635
0.211323
0.219507
0.226919
2.56847e-30
1.40707e-29
5.26968e-29
1.78102e-28
5.92159e-28
1.95603e-27
6.44491e-27
2.12227e-26
6.98518e-26
2.30404e-25
7.53075e-25
2.4515e-24
7.91861e-24
2.52625e-23
8.37919e-23
2.67413e-22
8.51309e-22
2.69595e-21
8.48901e-21
2.64647e-20
8.28132e-20
2.55131e-19
7.80554e-19
2.36227e-18
7.06309e-18
2.13201e-17
6.29861e-17
1.8558e-16
5.44501e-16
1.57287e-15
4.46283e-15
1.24201e-14
3.49958e-14
9.65997e-14
2.59425e-13
6.86021e-13
1.81084e-12
4.59663e-12
1.23096e-11
3.08736e-11
7.6963e-11
1.85298e-10
4.42488e-10
1.06243e-09
2.59192e-09
6.21969e-09
1.45703e-08
3.33005e-08
7.42568e-08
1.61513e-07
3.42351e-07
7.0522e-07
1.4071e-06
2.4842e-06
4.54875e-06
7.58351e-06
1.24207e-05
2.03254e-05
3.19955e-05
4.81249e-05
6.94191e-05
9.48413e-05
0.000125835
0.000162263
0.000203647
0.00024948
0.000299582
0.000352582
0.000407769
0.000464784
0.000523711
0.0005865
0.000658077
0.000748887
0.000876479
0.00106686
0.00131099
0.00158301
0.00188182
0.00225185
0.00278241
0.00369066
0.00542642
0.00873876
0.0142714
0.0233824
0.0363956
0.0525923
0.0708827
0.0905978
0.110005
0.129146
0.14678
0.162944
0.177486
0.190373
0.201634
0.211322
0.219506
0.226919
2.57381e-30
1.43901e-29
5.28272e-29
1.79465e-28
5.97692e-28
1.97805e-27
6.52742e-27
2.1493e-26
7.06128e-26
2.31406e-25
7.56292e-25
2.46405e-24
7.98749e-24
2.5726e-23
8.40718e-23
2.68814e-22
8.53803e-22
2.68054e-21
8.57877e-21
2.67574e-20
8.34985e-20
2.578e-19
7.90303e-19
2.40258e-18
7.22183e-18
2.14645e-17
6.25106e-17
1.88921e-16
5.47318e-16
1.57787e-15
4.50401e-15
1.26583e-14
3.54165e-14
9.66249e-14
2.61893e-13
6.90501e-13
1.82475e-12
4.64924e-12
1.23731e-11
3.10045e-11
7.73711e-11
1.83365e-10
4.48225e-10
1.06596e-09
2.5905e-09
6.22834e-09
1.45886e-08
3.33382e-08
7.43354e-08
1.61674e-07
3.42669e-07
7.05827e-07
1.4082e-06
2.48598e-06
4.55302e-06
7.59023e-06
1.24345e-05
2.0348e-05
3.20295e-05
4.81741e-05
6.94869e-05
9.49311e-05
0.000125949
0.0001624
0.000203803
0.00024965
0.000299754
0.000352747
0.000407922
0.000464905
0.000523802
0.000586572
0.000658157
0.000749029
0.000876754
0.00106732
0.00131149
0.00158346
0.00188226
0.00225244
0.00278361
0.00369332
0.00543212
0.00874879
0.0142886
0.0234089
0.0364303
0.0526322
0.0709248
0.0906368
0.110042
0.129176
0.146807
0.162966
0.177504
0.190387
0.201644
0.211329
0.219511
0.22692
2.59468e-30
1.4277e-29
5.21542e-29
1.77508e-28
5.92287e-28
1.96313e-27
6.48284e-27
2.13378e-26
6.99926e-26
2.28761e-25
7.44943e-25
2.41844e-24
7.83784e-24
2.53811e-23
8.19801e-23
2.62485e-22
8.32471e-22
2.64818e-21
8.41716e-21
2.6316e-20
8.1328e-20
2.54319e-19
7.77012e-19
2.38243e-18
7.13833e-18
2.1166e-17
6.24169e-17
1.85498e-16
5.37859e-16
1.55257e-15
4.41564e-15
1.23833e-14
3.52742e-14
9.54666e-14
2.51028e-13
6.74212e-13
1.78358e-12
4.50313e-12
1.18775e-11
3.12835e-11
7.51128e-11
1.85111e-10
4.35784e-10
1.06881e-09
2.58931e-09
6.21823e-09
1.45696e-08
3.33092e-08
7.43029e-08
1.61671e-07
3.42798e-07
7.06339e-07
1.40965e-06
2.48926e-06
4.5588e-06
7.60157e-06
1.24629e-05
2.0398e-05
3.2108e-05
4.82893e-05
6.96481e-05
9.51464e-05
0.000126221
0.000162726
0.000204173
0.00025005
0.00030016
0.000353139
0.000408289
0.000465202
0.000524031
0.000586758
0.000658359
0.000749365
0.00087738
0.00106836
0.0013126
0.00158444
0.00188324
0.00225372
0.00278622
0.0036991
0.00544447
0.00877052
0.0143258
0.0234663
0.0365049
0.0527176
0.0710145
0.09072
0.11012
0.129241
0.146863
0.163014
0.177543
0.190418
0.201667
0.211345
0.21952
0.226923
2.64058e-30
1.39768e-29
5.12182e-29
1.71334e-28
5.83999e-28
1.92129e-27
6.3323e-27
2.08267e-26
6.83145e-26
2.23525e-25
7.29511e-25
2.37409e-24
7.70282e-24
2.4915e-23
8.01625e-23
2.56073e-22
8.2527e-22
2.61217e-21
8.23249e-21
2.5804e-20
8.05423e-20
2.50269e-19
7.67468e-19
2.33044e-18
7.01021e-18
2.08919e-17
6.17183e-17
1.81155e-16
5.32736e-16
1.53422e-15
4.37028e-15
1.227e-14
3.44171e-14
9.41095e-14
2.54592e-13
6.79144e-13
1.77277e-12
4.50817e-12
1.19511e-11
3.09597e-11
7.56811e-11
1.81499e-10
4.32802e-10
1.06725e-09
2.57661e-09
6.18914e-09
1.45169e-08
3.32213e-08
7.41764e-08
1.61537e-07
3.42806e-07
7.069e-07
1.41174e-06
2.49444e-06
4.56683e-06
7.6187e-06
1.2508e-05
2.04793e-05
3.22375e-05
4.84812e-05
6.9915e-05
9.5501e-05
0.000126667
0.000163253
0.000204767
0.000250688
0.000300804
0.000353758
0.00040887
0.000465668
0.000524389
0.000587043
0.000658668
0.000749875
0.000878325
0.00106993
0.00131427
0.0015859
0.00188468
0.00225562
0.00279014
0.00370784
0.00546306
0.00880312
0.0143815
0.0235521
0.0366163
0.052845
0.071148
0.0908434
0.110237
0.129337
0.146946
0.163084
0.1776
0.190462
0.2017
0.211368
0.219533
0.226927
2.47108e-30
1.35095e-29
4.9572e-29
1.68819e-28
5.60021e-28
1.84669e-27
6.09461e-27
2.01193e-26
6.5986e-26
2.15738e-25
7.03224e-25
2.28642e-24
7.42571e-24
2.41433e-23
7.75813e-23
2.47937e-22
7.88801e-22
2.49651e-21
7.87468e-21
2.47977e-20
7.75909e-20
2.3639e-19
7.40843e-19
2.22708e-18
6.82582e-18
2.0311e-17
5.99943e-17
1.75708e-16
5.17093e-16
1.49726e-15
4.18726e-15
1.21637e-14
3.35707e-14
9.19332e-14
2.49321e-13
6.62621e-13
1.74658e-12
4.47562e-12
1.15708e-11
2.97712e-11
7.48702e-11
1.79843e-10
4.25412e-10
1.05317e-09
2.55628e-09
6.14458e-09
1.44282e-08
3.30597e-08
7.39165e-08
1.61201e-07
3.42566e-07
7.07302e-07
1.41419e-06
2.50123e-06
4.5759e-06
7.63938e-06
1.25654e-05
2.05852e-05
3.24085e-05
4.87369e-05
7.02744e-05
9.59843e-05
0.000127287
0.000163969
0.000205558
0.000251531
0.000301651
0.000354569
0.000409616
0.000466268
0.000524837
0.000587392
0.000659043
0.000750511
0.000879524
0.00107193
0.00131636
0.00158771
0.00188645
0.00225796
0.00279506
0.00371888
0.00548679
0.00884475
0.0144528
0.0236616
0.0367582
0.053007
0.0713178
0.0909997
0.110384
0.129458
0.147051
0.163172
0.177672
0.190519
0.201742
0.211396
0.21955
0.226933
2.42544e-30
1.28734e-29
4.73759e-29
1.607e-28
5.32014e-28
1.75208e-27
5.80018e-27
1.89957e-26
6.21276e-26
2.0494e-25
6.66449e-25
2.16302e-24
7.00993e-24
2.27385e-23
7.39423e-23
2.36699e-22
7.5321e-22
2.38869e-21
7.56134e-21
2.33452e-20
7.43551e-20
2.28775e-19
7.03534e-19
2.14478e-18
6.49383e-18
1.94023e-17
5.77369e-17
1.69222e-16
4.98628e-16
1.42969e-15
4.05441e-15
1.15839e-14
3.23018e-14
8.86089e-14
2.34926e-13
6.37518e-13
1.6769e-12
4.3251e-12
1.13422e-11
2.9676e-11
7.21207e-11
1.80422e-10
4.27732e-10
1.03591e-09
2.51649e-09
6.07205e-09
1.42948e-08
3.28175e-08
7.35182e-08
1.60625e-07
3.41988e-07
7.07399e-07
1.41682e-06
2.50938e-06
4.58331e-06
7.66165e-06
1.26321e-05
2.07095e-05
3.26102e-05
4.9038e-05
7.06932e-05
9.65347e-05
0.000127965
0.000164776
0.000206477
0.000252522
0.000302651
0.000355506
0.000410458
0.000466919
0.000525318
0.000587758
0.000659437
0.000751214
0.00088089
0.00107422
0.00131871
0.0015897
0.00188838
0.00226053
0.00280067
0.0037318
0.00551468
0.00889356
0.0145364
0.023789
0.0369228
0.0531945
0.0715138
0.0911794
0.110553
0.129598
0.147173
0.163274
0.177754
0.190583
0.20179
0.211429
0.219569
0.226939
2.28955e-30
1.21314e-29
4.45781e-29
1.51137e-28
4.99317e-28
1.63355e-27
5.47074e-27
1.78767e-26
5.83625e-26
1.90128e-25
6.1761e-25
2.00365e-24
6.52122e-24
2.108e-23
6.79707e-23
2.19769e-22
6.98717e-22
2.21569e-21
7.02556e-21
2.20199e-20
6.88017e-20
2.12713e-19
6.65247e-19
2.02744e-18
6.13413e-18
1.82946e-17
5.53355e-17
1.63063e-16
4.76026e-16
1.36837e-15
3.97716e-15
1.11696e-14
3.09476e-14
8.51583e-14
2.30871e-13
6.17686e-13
1.64012e-12
4.22057e-12
1.11261e-11
2.91438e-11
7.1443e-11
1.7612e-10
4.23194e-10
1.01365e-09
2.46932e-09
5.97242e-09
1.41009e-08
3.24683e-08
7.28932e-08
1.59712e-07
3.40821e-07
7.06594e-07
1.41828e-06
2.51668e-06
4.58627e-06
7.67831e-06
1.26961e-05
2.08374e-05
3.28241e-05
4.93621e-05
7.1147e-05
9.71318e-05
0.0001287
0.000165661
0.000207466
0.000253557
0.000303644
0.000356429
0.000411294
0.000467562
0.00052577
0.000588074
0.000659781
0.000751898
0.000882297
0.00107662
0.0013211