/*--------------------------------*- C++ -*----------------------------------*\
  =========                 |
  \\      /  F ield         | OpenFOAM: The Open Source CFD Toolbox
   \\    /   O peration     | Website:  https://openfoam.org
    \\  /    A nd           | Version:  10
     \\/     M anipulation  |
\*---------------------------------------------------------------------------*/
FoamFile
{
    format      ascii;
    class       volScalarField;
    location    "1";
    object      O2C12H24OOH;
}
// * * * * * * * * * * * * * * * * * * * * * * * * * * * * * * * * * * * * * //

dimensions      [0 0 0 0 0 0 0];

internalField   nonuniform List<scalar> 
4000
(
2.23249e-60
3.39655e-59
3.40173e-58
2.84688e-57
2.19619e-56
1.58999e-55
1.10081e-54
7.37656e-54
4.83796e-53
3.14692e-52
2.06852e-51
1.34713e-50
9.07577e-50
6.34285e-49
4.60051e-48
3.47054e-47
2.74069e-46
2.30023e-45
1.91301e-44
1.63241e-43
1.41348e-42
1.22261e-41
1.27178e-40
1.17768e-39
1.11316e-38
1.06209e-37
1.03054e-36
1.05214e-35
1.02799e-34
1.01001e-33
9.93494e-33
9.76495e-32
9.42446e-31
8.99298e-30
8.42423e-29
7.67545e-28
7.18137e-27
7.27287e-26
6.73657e-25
6.00678e-24
5.07686e-23
4.16108e-22
3.31943e-21
2.50976e-20
1.81279e-19
1.48863e-18
1.23123e-17
9.66245e-17
7.05117e-16
4.68629e-15
2.78958e-14
1.52318e-13
6.47085e-13
2.8701e-12
1.14237e-11
3.90696e-11
1.10256e-10
2.68406e-10
5.20399e-10
7.7787e-10
8.61954e-10
6.71626e-10
3.03301e-10
7.34154e-11
1.53485e-11
3.27231e-12
7.53227e-13
1.93474e-13
5.50685e-14
1.716e-14
5.7846e-15
2.09281e-15
8.03819e-16
3.24248e-16
1.36437e-16
6.01942e-17
2.84158e-17
1.53595e-17
1.11391e-17
1.22483e-17
1.81247e-17
3.00231e-17
5.0889e-17
8.59457e-17
1.43907e-16
2.39647e-16
3.99673e-16
6.72165e-16
1.14749e-15
2.00258e-15
3.59496e-15
6.78383e-15
1.3127e-14
2.68078e-14
5.81334e-14
1.35209e-13
3.41146e-13
9.26459e-13
1.32732e-12
9.61669e-13
1.91555e-61
2.44836e-60
2.18674e-59
1.75222e-58
1.35126e-57
1.05601e-56
8.28193e-56
6.40611e-55
4.84635e-54
3.66296e-53
2.81707e-52
2.22683e-51
1.82217e-50
1.54487e-49
1.35501e-48
1.23442e-47
1.15461e-46
1.10802e-45
1.08617e-44
1.0816e-43
1.09217e-42
1.11419e-41
1.14618e-40
1.1841e-39
1.22688e-38
1.2707e-37
1.31426e-36
1.35304e-35
1.38124e-34
1.39649e-33
1.38642e-32
1.5749e-31
1.56121e-30
1.51686e-29
1.4418e-28
1.30768e-27
1.29976e-26
1.16946e-25
1.11536e-24
9.81594e-24
8.40628e-23
6.83761e-22
5.46308e-21
4.18404e-20
3.29394e-19
2.70808e-18
2.17308e-17
1.65206e-16
1.17915e-15
7.7495e-15
3.89044e-14
1.72699e-13
8.24881e-13
3.50246e-12
1.35683e-11
4.60974e-11
1.23085e-10
2.87596e-10
5.4229e-10
7.91043e-10
8.6875e-10
6.77233e-10
3.10127e-10
7.64613e-11
1.61795e-11
3.46984e-12
7.99537e-13
2.03659e-13
5.76211e-14
1.78688e-14
5.98972e-15
2.15948e-15
8.28438e-16
3.33747e-16
1.40082e-16
6.16388e-17
2.90426e-17
1.56877e-17
1.14024e-17
1.25953e-17
1.86944e-17
3.10523e-17
5.27243e-17
8.90594e-17
1.49116e-16
2.48533e-16
4.15081e-16
6.9942e-16
1.19789e-15
2.09486e-15
3.77047e-15
7.13529e-15
1.38559e-14
2.83913e-14
6.1865e-14
1.44617e-13
3.66127e-13
9.90658e-13
1.35866e-12
9.63949e-13
1.14127e-62
1.37152e-61
1.17353e-60
8.88267e-60
6.51116e-59
4.87505e-58
3.6845e-57
2.88446e-56
2.49645e-55
2.41786e-54
2.48452e-53
2.67609e-52
2.97655e-51
3.3714e-50
3.84984e-49
4.3945e-48
4.9637e-47
5.4589e-46
7.07703e-45
8.08359e-44
9.25456e-43
1.05291e-41
1.18963e-40
1.3345e-39
1.4865e-38
1.64384e-37
1.79839e-36
1.94381e-35
2.05879e-34
2.17799e-33
2.33503e-32
2.36075e-31
2.34042e-30
2.39066e-29
2.36424e-28
2.23854e-27
2.07347e-26
1.89448e-25
1.67835e-24
1.43446e-23
1.17875e-22
8.9501e-22
7.9655e-21
5.90936e-20
5.0809e-19
3.98123e-18
3.16888e-17
2.33994e-16
1.5712e-15
9.94817e-15
4.97156e-14
2.22385e-13
1.04511e-12
4.48802e-12
1.62068e-11
4.98663e-11
1.29525e-10
2.97748e-10
5.53797e-10
8.01574e-10
8.74951e-10
6.81533e-10
3.15013e-10
7.90346e-11
1.68651e-11
3.62921e-12
8.36207e-13
2.12631e-13
5.99231e-14
1.85362e-14
6.17745e-15
2.22314e-15
8.51759e-16
3.43131e-16
1.43925e-16
6.32045e-17
2.97415e-17
1.60739e-17
1.17377e-17
1.30574e-17
1.94861e-17
3.24137e-17
5.50793e-17
9.31614e-17
1.56022e-16
2.601e-16
4.34673e-16
7.333e-16
1.25626e-15
2.20231e-15
3.96798e-15
7.51487e-15
1.46175e-14
3.00503e-14
6.56977e-14
1.54287e-13
3.92163e-13
1.05801e-12
1.39158e-12
9.64804e-13
5.00301e-64
5.78419e-63
5.34489e-62
4.68879e-61
4.29308e-60
4.33948e-59
4.87682e-58
5.99766e-57
7.59386e-56
9.86594e-55
1.31778e-53
1.72199e-52
2.23971e-51
2.86437e-50
3.63414e-49
4.56449e-48
5.67567e-47
6.98027e-46
8.49168e-45
1.0211e-43
1.214e-42
1.43481e-41
1.67573e-40
1.94048e-39
2.22417e-38
2.47783e-37
2.70649e-36
2.87332e-35
2.93024e-34
3.4923e-33
3.59915e-32
3.67327e-31
3.68478e-30
3.67435e-29
3.61025e-28
3.37023e-27
3.06237e-26
2.81247e-25
2.37968e-24
2.19002e-23
1.81589e-22
1.46295e-21
1.17516e-20
8.65198e-20
6.8154e-19
5.60136e-18
4.35795e-17
3.12434e-16
2.12867e-15
1.13182e-14
5.57553e-14
2.91471e-13
1.35392e-12
5.45304e-12
1.89971e-11
5.26885e-11
1.36358e-10
3.08659e-10
5.675e-10
8.11239e-10
8.80832e-10
6.86592e-10
3.20573e-10
8.14837e-11
1.75188e-11
3.78346e-12
8.72837e-13
2.21476e-13
6.21842e-14
1.91712e-14
6.36935e-15
2.28901e-15
8.75309e-16
3.52015e-16
1.47861e-16
6.42112e-17
3.02765e-17
1.64307e-17
1.20903e-17
1.35457e-17
2.0249e-17
3.36539e-17
5.7073e-17
9.75221e-17
1.6261e-16
2.705e-16
4.51344e-16
7.60304e-16
1.30144e-15
2.30242e-15
4.14373e-15
7.84624e-15
1.53056e-14
3.15532e-14
6.92156e-14
1.6302e-13
4.16192e-13
1.11532e-12
1.42092e-12
9.63287e-13
1.38063e-64
2.00935e-63
2.51387e-62
3.10835e-61
3.88384e-60
4.92024e-59
6.30905e-58
8.18369e-57
1.07567e-55
1.43438e-54
1.87514e-53
2.45053e-52
3.19347e-51
4.13983e-50
5.38447e-49
6.84986e-48
8.66883e-47
1.08957e-45
1.33854e-44
1.62567e-43
1.95102e-42
2.3019e-41
2.68801e-40
3.10237e-39
3.5366e-38
3.97673e-37
4.41292e-36
4.83613e-35
5.17257e-34
5.44971e-33
5.68551e-32
5.97577e-31
5.92685e-30
5.7839e-29
5.45435e-28
4.96276e-27
4.50276e-26
3.95823e-25
3.5932e-24
3.07907e-23
2.49873e-22
1.9977e-21
1.53276e-20
1.20305e-19
9.22503e-19
7.43074e-18
5.594e-17
3.9579e-16
2.33343e-15
1.22226e-14
6.9041e-14
3.51874e-13
1.63781e-12
6.66541e-12
2.0222e-11
5.58158e-11
1.43032e-10
3.1814e-10
5.76924e-10
8.19463e-10
8.85865e-10
6.90202e-10
3.24241e-10
8.3269e-11
1.80168e-11
3.91027e-12
9.02207e-13
2.28637e-13
6.39673e-14
1.96838e-14
6.52574e-15
2.34112e-15
8.94476e-16
3.59915e-16
1.51188e-16
6.55552e-17
3.08959e-17
1.68053e-17
1.24348e-17
1.40152e-17
2.10323e-17
3.49984e-17
5.9365e-17
1.01287e-16
1.68712e-16
2.80417e-16
4.67657e-16
7.87698e-16
1.34882e-15
2.38627e-15
4.2989e-15
8.14329e-15
1.59205e-14
3.29034e-14
7.2396e-14
1.71082e-13
4.38373e-13
1.16498e-12
1.44859e-12
9.64319e-13
3.35815e-64
5.17403e-63
6.73497e-62
8.57805e-61
1.08827e-59
1.37975e-58
1.74703e-57
2.20986e-56
2.79186e-55
3.52802e-54
4.45085e-53
5.64076e-52
7.20792e-51
8.97556e-50
1.11571e-48
1.39982e-47
1.71139e-46
2.07499e-45
2.49351e-44
2.97354e-43
3.54974e-42
4.09472e-41
4.68054e-40
5.31983e-39
5.98499e-38
6.63188e-37
7.1511e-36
7.64214e-35
8.1935e-34
8.32285e-33
8.19374e-32
9.17416e-31
8.82446e-30
8.31471e-29
7.48654e-28
7.16049e-27
6.2324e-26
5.23073e-25
5.06437e-24
4.42938e-23
3.4495e-22
2.64647e-21
2.02341e-20
1.54811e-19
1.23093e-18
9.44787e-18
7.32241e-17
4.48594e-16
2.56419e-15
1.48498e-14
8.22077e-14
4.14083e-13
1.85097e-12
7.36884e-12
2.20168e-11
5.93612e-11
1.4856e-10
3.27573e-10
5.86324e-10
8.26767e-10
8.90996e-10
6.94528e-10
3.28525e-10
8.51743e-11
1.85114e-11
4.02142e-12
9.2783e-13
2.35078e-13
6.56739e-14
2.01681e-14
6.66837e-15
2.38975e-15
9.13039e-16
3.67059e-16
1.54094e-16
6.6781e-17
3.14725e-17
1.71452e-17
1.27471e-17
1.44489e-17
2.17414e-17
3.62077e-17
6.13952e-17
1.04626e-16
1.74207e-16
2.89418e-16
4.82525e-16
8.12703e-16
1.39199e-15
2.46183e-15
4.43991e-15
8.40938e-15
1.64737e-14
3.41196e-14
7.52625e-14
1.78447e-13
4.58619e-13
1.20842e-12
1.47849e-12
9.69536e-13
7.55464e-64
1.14681e-62
1.49202e-61
1.87541e-60
2.36267e-59
3.01233e-58
3.76477e-57
4.7117e-56
5.89227e-55
7.35757e-54
9.17156e-53
1.14063e-51
1.41409e-50
1.74646e-49
2.14823e-48
2.62716e-47
3.18589e-46
3.82126e-45
4.54119e-44
5.33063e-43
6.11782e-42
6.85076e-41
7.35767e-40
8.8264e-39
9.54754e-38
1.02162e-36
1.07325e-35
1.08744e-34
1.26303e-33
1.30205e-32
1.30619e-31
1.28176e-30
1.25547e-29
1.18505e-28
1.09784e-27
1.02541e-26
9.20709e-26
7.59878e-25
7.18266e-24
5.88318e-23
4.62415e-22
3.53046e-21
2.56999e-20
1.98112e-19
1.4727e-18
1.12507e-17
7.99924e-17
4.58303e-16
2.9475e-15
1.73296e-14
9.31891e-14
4.58122e-13
2.01185e-12
7.87786e-12
2.32768e-11
6.21791e-11
1.5321e-10
3.33933e-10
5.9359e-10
8.32731e-10
8.95506e-10
6.99147e-10
3.33168e-10
8.71202e-11
1.90077e-11
4.13305e-12
9.52893e-13
2.41396e-13
6.73316e-14
2.06476e-14
6.8148e-15
2.43986e-15
9.31379e-16
3.7436e-16
1.5712e-16
6.80275e-17
3.20724e-17
1.74935e-17
1.30502e-17
1.48485e-17
2.23838e-17
3.72925e-17
6.32203e-17
1.07626e-16
1.79149e-16
2.97541e-16
4.9598e-16
8.35379e-16
1.43118e-15
2.53058e-15
4.56824e-15
8.65141e-15
1.69761e-14
3.52219e-14
7.78525e-14
1.85031e-13
4.76613e-13
1.2462e-12
1.50786e-12
9.77898e-13
1.55896e-63
2.3631e-62
3.06351e-61
3.86326e-60
4.83291e-59
6.02693e-58
7.49929e-57
9.31294e-56
1.15392e-54
1.42612e-53
1.75761e-52
2.16049e-51
2.64687e-50
3.22604e-49
3.90115e-48
4.6903e-47
5.59705e-46
6.6179e-45
7.75509e-44
8.99429e-43
1.02927e-41
1.16196e-40
1.29551e-39
1.42227e-38
1.53759e-37
1.63368e-36
1.70012e-35
1.73239e-34
1.7485e-33
1.78427e-32
1.86881e-31
1.87168e-30
1.7831e-29
1.6523e-28
1.48005e-27
1.34045e-26
1.19111e-25
9.61931e-25
8.70352e-24
7.54064e-23
5.88912e-22
4.46236e-21
3.39572e-20
2.50743e-19
1.86097e-18
1.40583e-17
8.82428e-17
5.43816e-16
3.43687e-15
1.9896e-14
1.06075e-13
5.07287e-13
2.17925e-12
8.37893e-12
2.44386e-11
6.44657e-11
1.57103e-10
3.39359e-10
5.99212e-10
8.37517e-10
9.00116e-10
7.04718e-10
3.38972e-10
8.93507e-11
1.95622e-11
4.26827e-12
9.82663e-13
2.48801e-13
6.9216e-14
2.11931e-14
6.98359e-15
2.49667e-15
9.52648e-16
3.82814e-16
1.60621e-16
6.94686e-17
3.27362e-17
1.78616e-17
1.3345e-17
1.52133e-17
2.2956e-17
3.82547e-17
6.48442e-17
1.10322e-16
1.83608e-16
3.04897e-16
5.08205e-16
8.56015e-16
1.46685e-15
2.59335e-15
4.6849e-15
8.87193e-15
1.74301e-14
3.62101e-14
8.01549e-14
1.90822e-13
4.92321e-13
1.27928e-12
1.53647e-12
9.88765e-13
2.66421e-63
4.04786e-62
5.24556e-61
6.60021e-60
8.22759e-59
1.02089e-57
1.26355e-56
1.56102e-55
1.92444e-54
2.36563e-53
2.88994e-52
3.51731e-51
4.26361e-50
5.14233e-49
6.14461e-48
7.2959e-47
8.60306e-46
1.00472e-44
1.16828e-43
1.35954e-42
1.52709e-41
1.69929e-40
1.95071e-39
2.12594e-38
2.29979e-37
2.45487e-36
2.56214e-35
2.62405e-34
2.62734e-33
2.55921e-32
2.58804e-31
2.54673e-30
2.40844e-29
2.21218e-28
2.00289e-27
1.75142e-26
1.51619e-25
1.21167e-24
1.07884e-23
8.94327e-23
7.29384e-22
5.60873e-21
4.16849e-20
3.05067e-19
2.06346e-18
1.34888e-17
9.68608e-17
6.4213e-16
3.96366e-15
2.27045e-14
1.1744e-13
5.5002e-13
2.32279e-12
8.79844e-12
2.53318e-11
6.6195e-11
1.60033e-10
3.43291e-10
6.03247e-10
8.41157e-10
9.05026e-10
7.12669e-10
3.47133e-10
9.28877e-11
2.04341e-11
4.45088e-12
1.02458e-12
2.58222e-13
7.17097e-14
2.1892e-14
7.20797e-15
2.57419e-15
9.80475e-16
3.93471e-16
1.64867e-16
7.11669e-17
3.34966e-17
1.82606e-17
1.36376e-17
1.55485e-17
2.34654e-17
3.91076e-17
6.629e-17
1.12754e-16
1.87649e-16
3.11597e-16
5.1937e-16
8.7488e-16
1.49941e-15
2.65089e-15
4.79111e-15
9.07303e-15
1.78398e-14
3.70931e-14
8.21912e-14
1.95891e-13
5.05902e-13
1.30874e-12
1.56449e-12
1.00173e-12
3.64986e-63
6.23571e-62
8.0222e-61
1.01465e-59
1.27687e-58
1.58243e-57
1.95642e-56
2.40913e-55
2.957e-54
3.61697e-53
4.40669e-52
5.33877e-51
6.40946e-50
7.64541e-49
9.05279e-48
1.06963e-46
1.30894e-45
1.50978e-44
1.72937e-43
1.96322e-42
2.21747e-41
2.51965e-40
2.76311e-39
2.99633e-38
3.20861e-37
3.39407e-36
3.53027e-35
3.61738e-34
3.7237e-33
3.67877e-32
3.54821e-31
3.34538e-30
3.09704e-29
2.81359e-28
2.48069e-27
2.14638e-26
1.83613e-25
1.4964e-24
1.37852e-23
1.09508e-22
8.38919e-22
6.35444e-21
4.64705e-20
3.21846e-19
2.15881e-18
1.61757e-17
1.13072e-16
7.41683e-16
4.55473e-15
2.54512e-14
1.29249e-13
5.94358e-13
2.45927e-12
9.07768e-12
2.59764e-11
6.76045e-11
1.62148e-10
3.45814e-10
6.05452e-10
8.43432e-10
9.09114e-10
7.19895e-10
3.56287e-10
9.66301e-11
2.13521e-11
4.66052e-12
1.07138e-12
2.69107e-13
7.44719e-14
2.26953e-14
7.45194e-15
2.65581e-15
1.00978e-15
4.04755e-16
1.69619e-16
7.31252e-17
3.43882e-17
1.87152e-17
1.39379e-17
1.58614e-17
2.39218e-17
3.98663e-17
6.75804e-17
1.14953e-16
1.91306e-16
3.17709e-16
5.29589e-16
8.92153e-16
1.52918e-15
2.70365e-15
4.88767e-15
9.25594e-15
1.82077e-14
3.78766e-14
8.39749e-14
2.0027e-13
5.17538e-13
1.33525e-12
1.59189e-12
1.01626e-12
5.31772e-63
8.95606e-62
1.15018e-60
1.44394e-59
1.7958e-58
2.224e-57
2.74836e-56
3.39078e-55
4.17683e-54
5.13806e-53
6.29784e-52
7.62108e-51
9.17468e-50
1.09664e-48
1.29172e-47
1.48734e-46
1.80074e-45
2.06059e-44
2.3394e-43
2.63452e-42
2.91939e-41
3.33809e-40
3.60934e-39
3.84688e-38
4.05371e-37
4.40745e-36
4.55422e-35
4.67099e-34
4.72743e-33
4.64738e-32
4.45433e-31
4.17264e-30
3.82612e-29
3.49119e-28
3.05142e-27
2.6275e-26
2.23529e-25
1.85847e-24
1.61678e-23
1.25988e-22
9.49564e-22
6.97767e-21
4.96133e-20
3.41206e-19
2.57496e-18
1.89264e-17
1.31745e-16
8.62574e-16
5.2106e-15
2.88476e-14
1.45515e-13
6.66554e-13
2.77582e-12
9.16578e-12
2.64796e-11
6.86412e-11
1.63483e-10
3.47097e-10
6.06301e-10
8.44973e-10
9.14172e-10
7.29566e-10
3.65562e-10
1.00564e-10
2.23194e-11
4.87677e-12
1.11969e-12
2.80903e-13
7.74559e-14
2.35293e-14
7.71221e-15
2.74259e-15
1.04196e-15
4.17493e-16
1.74754e-16
7.51359e-17
3.5284e-17
1.91558e-17
1.42226e-17
1.61474e-17
2.43324e-17
4.05502e-17
6.87533e-17
1.16985e-16
1.94702e-16
3.23296e-16
5.38911e-16
9.0793e-16
1.55642e-15
2.75213e-15
4.97556e-15
9.42217e-15
1.85384e-14
3.85741e-14
8.55431e-14
2.04071e-13
5.27511e-13
1.35928e-12
1.6185e-12
1.03181e-12
7.81383e-63
1.18837e-61
1.53772e-60
1.93285e-59
2.40683e-58
2.98416e-57
3.68972e-56
4.55151e-55
5.6047e-54
6.90385e-53
8.39768e-52
1.01596e-50
1.22378e-49
1.4694e-48
1.74254e-47
2.04195e-46
2.37318e-45
2.73468e-44
3.10873e-43
3.49098e-42
3.86927e-41
4.23932e-40
4.63957e-39
4.94599e-38
5.2068e-37
5.3901e-36
5.48754e-35
5.48994e-34
5.63147e-33
5.36944e-32
4.8936e-31
5.06314e-30
4.62466e-29
4.01329e-28
3.74785e-27
3.14809e-26
2.60573e-25
2.14962e-24
1.80442e-23
1.45072e-22
1.07414e-21
7.81e-21
5.56055e-20
3.92016e-19
2.95636e-18
2.15661e-17
1.49168e-16
9.6696e-16
5.77995e-15
3.16477e-14
1.57957e-13
7.15426e-13
2.92346e-12
9.1626e-12
2.69298e-11
6.95192e-11
1.64346e-10
3.47517e-10
6.06156e-10
8.45396e-10
9.17746e-10
7.37628e-10
3.76257e-10
1.04955e-10
2.33819e-11
5.11222e-12
1.17128e-12
2.93305e-13
8.06861e-14
2.44093e-14
8.02528e-15
2.84687e-15
1.07904e-15
4.31446e-16
1.80275e-16
7.73544e-17
3.62419e-17
1.96242e-17
1.45076e-17
1.64152e-17
2.47028e-17
4.11671e-17
6.98239e-17
1.18882e-16
1.979e-16
3.28657e-16
5.47824e-16
9.2281e-16
1.58157e-15
2.79696e-15
5.05665e-15
9.57676e-15
1.88406e-14
3.91974e-14
8.69216e-14
2.07355e-13
5.3604e-13
1.38105e-12
1.644e-12
1.04778e-12
9.24372e-63
1.48251e-61
1.94722e-60
2.44819e-59
3.05505e-58
3.79848e-57
4.70931e-56
5.81773e-55
7.15395e-54
8.73386e-53
1.05765e-51
1.27021e-50
1.51555e-49
1.81664e-48
2.11266e-47
2.41242e-46
2.6813e-45
3.44984e-44
3.88918e-43
4.3638e-42
4.82103e-41
5.23551e-40
5.55522e-39
5.6403e-38
6.3105e-37
6.42366e-36
6.49487e-35
6.54726e-34
6.6371e-33
6.6257e-32
6.18528e-31
6.0019e-30
5.46912e-29
4.93973e-28
4.25214e-27
3.56877e-26
2.94353e-25
2.42546e-24
2.02411e-23
1.65054e-22
1.22828e-21
8.90648e-21
6.12955e-20
4.56906e-19
3.28772e-18
2.38432e-17
1.63442e-16
1.04283e-15
6.15042e-15
3.32493e-14
1.63902e-13
7.33643e-13
2.96109e-12
9.1568e-12
2.74222e-11
7.01776e-11
1.64713e-10
3.47182e-10
6.05044e-10
8.45121e-10
9.20844e-10
7.45412e-10
3.85971e-10
1.09323e-10
2.44644e-11
5.35405e-12
1.22415e-12
3.05946e-13
8.38961e-14
2.53099e-14
8.30767e-15
2.93915e-15
1.11205e-15
4.4415e-16
1.85516e-16
7.94464e-17
3.71734e-17
2.00704e-17
1.47736e-17
1.66614e-17
2.50475e-17
4.17394e-17
7.08095e-17
1.20617e-16
2.00832e-16
3.33579e-16
5.56078e-16
9.36749e-16
1.60546e-15
2.83947e-15
5.13204e-15
9.7178e-15
1.91164e-14
3.97717e-14
8.81954e-14
2.10397e-13
5.4383e-13
1.40191e-12
1.66956e-12
1.06457e-12
1.15514e-62
1.87345e-61
2.42227e-60
3.04523e-59
3.79708e-58
4.71192e-57
5.81798e-56
7.14048e-55
8.71257e-54
1.05637e-52
1.27281e-51
1.52241e-50
1.8005e-49
2.00297e-48
2.38524e-47
2.98379e-46
3.54964e-45
4.03732e-44
4.5384e-43
5.02482e-42
5.46132e-41
5.73788e-40
6.70728e-39
7.06033e-38
7.3931e-37
7.64083e-36
7.81566e-35
7.73833e-34
7.73741e-33
7.42722e-32
6.8224e-31
6.74979e-30
5.8595e-29
5.49023e-28
4.65871e-27
3.91999e-26
3.19934e-25
2.4898e-24
2.16178e-23
1.80706e-22
1.30851e-21
9.53774e-21
6.84977e-20
5.12684e-19
3.5736e-18
2.57408e-17
1.7401e-16
1.09862e-15
6.41585e-15
3.43511e-14
1.67757e-13
7.4503e-13
2.97868e-12
9.14456e-12
2.77831e-11
7.06559e-11
1.64781e-10
3.46465e-10
6.03705e-10
8.44545e-10
9.24048e-10
7.53545e-10
3.95204e-10
1.13616e-10
2.55313e-11
5.59344e-12
1.27817e-12
3.18464e-13
8.71733e-14
2.62267e-14
8.58842e-15
3.03344e-15
1.14553e-15
4.56765e-16
1.90575e-16
8.15121e-17
3.80751e-17
2.04983e-17
1.50265e-17
1.6886e-17
2.53478e-17
4.22373e-17
7.16774e-17
1.2218e-16
2.03457e-16
3.37983e-16
5.63469e-16
9.49226e-16
1.62681e-15
2.87779e-15
5.20052e-15
9.84906e-15
1.93696e-14
4.0287e-14
8.93092e-14
2.12981e-13
5.50392e-13
1.42034e-12
1.69299e-12
1.08055e-12
1.45123e-62
2.20062e-61
2.84282e-60
3.5675e-59
4.43484e-58
5.48685e-57
6.74986e-56
8.19682e-55
9.80034e-54
1.13126e-52
1.41998e-51
1.82271e-50
2.1204e-49
2.39848e-48
3.03928e-47
3.5022e-46
4.04315e-45
4.67655e-44
5.18357e-43
5.55446e-42
6.60586e-41
7.11252e-40
7.55657e-39
7.79612e-38
8.40757e-37
8.59573e-36
8.74533e-35
8.74855e-34
8.67103e-33
8.5095e-32
8.02286e-31
7.27528e-30
6.3421e-29
5.87703e-28
4.92466e-27
4.10456e-26
3.50795e-25
2.72653e-24
2.32384e-23
1.90965e-22
1.5022e-21
1.08531e-20
7.75202e-20
5.32036e-19
3.80784e-18
2.71636e-17
1.82287e-16
1.14267e-15
6.62618e-15
3.52304e-14
1.7081e-13
7.52285e-13
2.98849e-12
9.13106e-12
2.80157e-11
7.09191e-11
1.64501e-10
3.45281e-10
6.01709e-10
8.43592e-10
9.26657e-10
7.60949e-10
4.04684e-10
1.17823e-10
2.65757e-11
5.82733e-12
1.32999e-12
3.30848e-13
9.03979e-14
2.71209e-14
8.86071e-15
3.12314e-15
1.1773e-15
4.68965e-16
1.95436e-16
8.34878e-17
3.89331e-17
2.09052e-17
1.52562e-17
1.70799e-17
2.56021e-17
4.2658e-17
7.24137e-17
1.23514e-16
2.05716e-16
3.41783e-16
5.69841e-16
9.59954e-16
1.64507e-15
2.91047e-15
5.25831e-15
9.95932e-15
1.95808e-14
4.07159e-14
9.02364e-14
2.1513e-13
5.55805e-13
1.43606e-12
1.71358e-12
1.09498e-12
1.67779e-62
2.54765e-61
3.29576e-60
4.14185e-59
5.15494e-58
6.37544e-57
7.85516e-56
9.63878e-55
1.17728e-53
1.43077e-52
1.7317e-51
2.08288e-50
2.47984e-49
2.92886e-48
3.43115e-47
3.98218e-46
4.59319e-45
5.28278e-44
5.94556e-43
6.64164e-42
7.34387e-41
7.96199e-40
8.5084e-39
8.93523e-38
9.23117e-37
9.41106e-36
9.49582e-35
9.35213e-34
9.12329e-33
9.11254e-32
8.62173e-31
8.09615e-30
7.34836e-29
6.47609e-28
5.59038e-27
4.76114e-26
3.97449e-25
3.29498e-24
2.60177e-23
2.14043e-22
1.55777e-21
1.07955e-20
7.83504e-20
5.49689e-19
3.99106e-18
2.82741e-17
1.88587e-16
1.17509e-15
6.77386e-15
3.58071e-14
1.72739e-13
7.57081e-13
2.99423e-12
9.11461e-12
2.81648e-11
7.1048e-11
1.64063e-10
3.43859e-10
5.99566e-10
8.42221e-10
9.28509e-10
7.66913e-10
4.1239e-10
1.21347e-10
2.74693e-11
6.02972e-12
1.37503e-12
3.41419e-13
9.31655e-14
2.78878e-14
9.09375e-15
3.20006e-15
1.20487e-15
4.79435e-16
1.99618e-16
8.51919e-17
3.96723e-17
2.12516e-17
1.54496e-17
1.72395e-17
2.58087e-17
4.29993e-17
7.30154e-17
1.24612e-16
2.07581e-16
3.44927e-16
5.75124e-16
9.68863e-16
1.66026e-15
2.93774e-15
5.30659e-15
1.00508e-14
1.97552e-14
4.10685e-14
9.09938e-14
2.16876e-13
5.60183e-13
1.44909e-12
1.73095e-12
1.10737e-12
1.65811e-62
2.83047e-61
3.64354e-60
4.57822e-59
5.69588e-58
7.0495e-57
8.68396e-56
1.0644e-54
1.29873e-53
1.58012e-52
1.9178e-51
2.29987e-50
2.74326e-49
3.25113e-48
3.82357e-47
4.45821e-46
5.14678e-45
5.84301e-44
6.56099e-43
7.2885e-42
8.00139e-41
8.62817e-40
9.34308e-39
9.77952e-38
1.00857e-36
1.02103e-35
1.01015e-34
9.596e-34
9.60557e-33
9.899e-32
9.42122e-31
8.85911e-30
7.95592e-29
7.00241e-28
6.04667e-27
5.13562e-26
4.24662e-25
3.41779e-24
2.64786e-23
2.12751e-22
1.58323e-21
1.14834e-20
7.97229e-20
5.63113e-19
4.13876e-18
2.91387e-17
1.93443e-16
1.20008e-15
6.88768e-15
3.62511e-14
1.74177e-13
7.60448e-13
2.99745e-12
9.10109e-12
2.82505e-11
7.10836e-11
1.63609e-10
3.42675e-10
5.97855e-10
8.41133e-10
9.29847e-10
7.71658e-10
4.18799e-10
1.24543e-10
2.8267e-11
6.2081e-12
1.41439e-12
3.50737e-13
9.55729e-14
2.85523e-14
9.2942e-15
3.26559e-15
1.22779e-15
4.88085e-16
2.03058e-16
8.65872e-17
4.02743e-17
2.15313e-17
1.5603e-17
1.73628e-17
2.59657e-17
4.32583e-17
7.34732e-17
1.25455e-16
2.09016e-16
3.47354e-16
5.79207e-16
9.7575e-16
1.67199e-15
2.95881e-15
5.34376e-15
1.01218e-14
1.98902e-14
4.13405e-14
9.15764e-14
2.18212e-13
5.63517e-13
1.45919e-12
1.74464e-12
1.11726e-12
1.9363e-62
2.95721e-61
3.85805e-60
4.90174e-59
6.10187e-58
7.5672e-57
9.34961e-56
1.15041e-54
1.40826e-53
1.71407e-52
2.07501e-51
2.49759e-50
2.9875e-49
3.54637e-48
4.16752e-47
4.83804e-46
5.55563e-45
6.30695e-44
7.07388e-43
7.83474e-42
8.56435e-41
9.2319e-40
9.80026e-39
1.01912e-37
1.08668e-36
1.10687e-35
1.1129e-34
1.1026e-33
1.09172e-32
1.03544e-31
9.64369e-31
8.83843e-30
8.27062e-29
7.28781e-28
6.34236e-27
5.31715e-26
4.30669e-25
3.41034e-24
2.71656e-23
2.08516e-22
1.57642e-21
1.14697e-20
8.16433e-20
5.75651e-19
4.24542e-18
2.97639e-17
1.96926e-16
1.21799e-15
6.97002e-15
3.658e-14
1.75203e-13
7.62952e-13
2.99982e-12
9.09152e-12
2.8301e-11
7.109e-11
1.63259e-10
3.41767e-10
5.96516e-10
8.40215e-10
9.30673e-10
7.74827e-10
4.23135e-10
1.26687e-10
2.88069e-11
6.33001e-12
1.44143e-12
3.57074e-13
9.72456e-14
2.90173e-14
9.43393e-15
3.31141e-15
1.24413e-15
4.94239e-16
2.05502e-16
8.75797e-17
4.07023e-17
2.17295e-17
1.57107e-17
1.74479e-17
2.6073e-17
4.34353e-17
7.37847e-17
1.2603e-16
2.09997e-16
3.49014e-16
5.82002e-16
9.80464e-16
1.68003e-15
2.97325e-15
5.36924e-15
1.01705e-14
1.99828e-14
4.15271e-14
9.19753e-14
2.19128e-13
5.65798e-13
1.46617e-12
1.75419e-12
1.12421e-12
2.0324e-62
3.14635e-61
4.07529e-60
5.13794e-59
6.41941e-58
7.97876e-57
9.86287e-56
1.21356e-54
1.48547e-53
1.80731e-52
2.1838e-51
2.62055e-50
3.12197e-49
3.69093e-48
4.32512e-47
5.00612e-46
5.73052e-45
6.48568e-44
7.24922e-43
8.01928e-42
8.7809e-41
9.48286e-40
1.01352e-38
1.0714e-37
1.13181e-36
1.15627e-35
1.16891e-34
1.16212e-33
1.1282e-32
1.07689e-31
1.01743e-30
9.54566e-30
8.49567e-29
7.46295e-28
6.45902e-27
5.38385e-26
4.45936e-25
3.60195e-24
2.99834e-23
2.27612e-22
1.61712e-21
1.17553e-20
8.08167e-20
5.92852e-19
4.30465e-18
3.01555e-17
1.99225e-16
1.2298e-15
7.02336e-15
3.67867e-14
1.7586e-13
7.64566e-13
3.00199e-12
9.08804e-12
2.83369e-11
7.11075e-11
1.63092e-10
3.41304e-10
5.95796e-10
8.39664e-10
9.31011e-10
7.76392e-10
4.25324e-10
1.2779e-10
2.90893e-11
6.39396e-12
1.45561e-12
3.60428e-13
9.81207e-14
2.92577e-14
9.50698e-15
3.33527e-15
1.25255e-15
4.97422e-16
2.06769e-16
8.80953e-17
4.09247e-17
2.18322e-17
1.5766e-17
1.7491e-17
2.61271e-17
4.35251e-17
7.39448e-17
1.26326e-16
2.10506e-16
3.49879e-16
5.83464e-16
9.82941e-16
1.68426e-15
2.98086e-15
5.38266e-15
1.01963e-14
2.00318e-14
4.16257e-14
9.2186e-14
2.19609e-13
5.66996e-13
1.46987e-12
1.75928e-12
1.12793e-12
1.8575e-62
2.99368e-61
4.19833e-60
5.25662e-59
6.55337e-58
8.12784e-57
1.00327e-55
1.23205e-54
1.50585e-53
1.84353e-52
2.20858e-51
2.62003e-50
3.08317e-49
3.64394e-48
4.50618e-47
5.19731e-46
5.95645e-45
6.7514e-44
7.5508e-43
8.28381e-42
9.25107e-41
9.95925e-40
1.05809e-38
1.10884e-37
1.15286e-36
1.20528e-35
1.2171e-34
1.21636e-33
1.19391e-32
1.1384e-31
1.05157e-30
9.31915e-30
8.88197e-29
7.83106e-28
6.58774e-27
5.48695e-26
4.52252e-25
3.50828e-24
3.0106e-23
2.26279e-22
1.70445e-21
1.20878e-20
8.47847e-20
5.95368e-19
4.34063e-18
3.03928e-17
2.00589e-16
1.23693e-15
7.0567e-15
3.69235e-14
1.76343e-13
7.65928e-13
3.00483e-12
9.09081e-12
2.83743e-11
7.11549e-11
1.631e-10
3.41222e-10
5.95598e-10
8.39436e-10
9.30939e-10
7.76606e-10
4.25726e-10
1.28004e-10
2.91445e-11
6.40654e-12
1.45839e-12
3.61077e-13
9.82893e-14
2.93027e-14
9.52011e-15
3.33941e-15
1.25395e-15
4.97932e-16
2.06963e-16
8.8171e-17
4.09555e-17
2.18453e-17
1.57719e-17
1.74944e-17
2.61308e-17
4.35316e-17
7.39575e-17
1.26353e-16
2.10554e-16
3.49966e-16
5.83619e-16
9.83216e-16
1.68475e-15
2.98178e-15
5.38436e-15
1.01996e-14
2.00383e-14
4.16393e-14
9.22161e-14
2.1968e-13
5.67179e-13
1.4704e-12
1.75997e-12
1.12841e-12
1.96208e-62
3.29547e-61
4.2703e-60
5.37941e-59
6.71503e-58
8.33663e-57
1.02987e-55
1.26549e-54
1.54582e-53
1.87568e-52
2.25903e-51
2.70036e-50
3.20747e-49
3.80211e-48
4.52484e-47
5.19801e-46
5.90486e-45
6.66969e-44
7.78241e-43
8.62971e-42
9.50511e-41
1.02848e-39
1.09699e-38
1.15099e-37
1.18465e-36
1.19297e-35
1.16007e-34
1.24461e-33
1.20715e-32
1.15563e-31
1.08419e-30
9.95727e-30
9.04847e-29
7.87156e-28
6.76118e-27
5.54443e-26
4.58137e-25
3.52984e-24
3.01567e-23
2.23564e-22
1.69318e-21
1.15587e-20
8.70421e-20
6.03667e-19
4.34428e-18
3.04882e-17
2.01145e-16
1.24005e-15
7.07316e-15
3.70028e-14
1.7669e-13
7.67286e-13
3.00957e-12
9.10371e-12
2.84239e-11
7.12644e-11
1.63383e-10
3.41705e-10
5.96142e-10
8.3966e-10
9.30367e-10
7.7511e-10
4.23874e-10
1.27115e-10
2.89217e-11
6.35663e-12
1.44736e-12
3.58491e-13
9.76177e-14
2.91166e-14
9.46352e-15
3.32078e-15
1.24732e-15
4.95415e-16
2.05955e-16
8.77599e-17
4.07764e-17
2.1761e-17
1.5725e-17
1.74564e-17
2.60827e-17
4.34533e-17
7.3821e-17
1.26104e-16
2.10135e-16
3.49261e-16
5.82441e-16
9.81242e-16
1.68141e-15
2.9758e-15
5.37389e-15
1.01797e-14
2.00009e-14
4.1565e-14
9.20595e-14
2.19327e-13
5.66312e-13
1.46767e-12
1.75614e-12
1.12556e-12
1.93305e-62
3.23516e-61
4.17308e-60
5.26008e-59
6.56663e-58
8.14227e-57
1.0037e-55
1.22993e-54
1.49811e-53
1.81386e-52
2.18335e-51
2.61356e-50
3.11161e-49
3.68186e-48
4.31987e-47
5.01354e-46
5.76469e-45
6.58441e-44
7.39927e-43
8.1065e-42
8.79401e-41
9.8353e-40
1.05461e-38
1.1249e-37
1.15807e-36
1.17884e-35
1.19026e-34
1.19254e-33
1.15449e-32
1.11254e-31
1.03606e-30
9.45596e-30
8.77008e-29
7.39846e-28
5.96041e-27
5.2225e-26
4.30569e-25
3.35601e-24
2.77632e-23
2.28277e-22
1.58081e-21
1.17637e-20
8.08735e-20
6.0245e-19
4.33701e-18
3.04048e-17
2.0074e-16
1.23855e-15
7.07014e-15
3.70149e-14
1.76871e-13
7.68534e-13
3.01596e-12
9.12692e-12
2.84895e-11
7.14447e-11
1.63954e-10
3.42771e-10
5.97439e-10
8.40348e-10
9.29336e-10
7.71991e-10
4.19897e-10
1.25194e-10
2.84398e-11
6.24863e-12
1.42352e-12
3.52882e-13
9.61614e-14
2.8713e-14
9.34109e-15
3.28044e-15
1.23302e-15
4.89978e-16
2.03777e-16
8.68701e-17
4.03895e-17
2.15802e-17
1.56257e-17
1.73777e-17
2.59843e-17
4.32931e-17
7.35407e-17
1.25591e-16
2.09264e-16
3.47794e-16
5.79982e-16
9.77109e-16
1.6744e-15
2.96328e-15
5.35194e-15
1.01379e-14
1.99221e-14
4.14079e-14
9.17266e-14
2.18572e-13
5.64449e-13
1.46183e-12
1.74796e-12
1.1195e-12
2.02376e-62
3.05024e-61
3.87858e-60
4.67837e-59
6.33718e-58
7.80997e-57
9.63136e-56
1.18193e-54
1.44263e-53
1.75091e-52
2.11187e-51
2.52951e-50
3.00674e-49
3.54618e-48
4.15231e-47
4.84428e-46
5.66668e-45
6.44764e-44
7.2709e-43
8.10967e-42
8.94315e-41
9.72827e-40
1.03839e-38
1.09107e-37
1.1294e-36
1.1525e-35
1.16159e-34
1.15916e-33
1.14592e-32
1.09615e-31
1.02961e-30
9.48209e-30
8.61174e-29
7.52779e-28
6.44695e-27
5.37597e-26
4.33382e-25
3.42417e-24
2.87268e-23
2.27475e-22
1.63586e-21
1.15162e-20
7.99718e-20
5.9885e-19
4.29588e-18
3.0156e-17
1.99487e-16
1.23303e-15
7.05101e-15
3.69759e-14
1.76962e-13
7.69987e-13
3.02518e-12
9.16331e-12
2.85794e-11
7.17145e-11
1.64857e-10
3.44498e-10
5.99582e-10
8.41526e-10
9.27718e-10
7.66989e-10
4.1354e-10
1.22191e-10
2.76919e-11
6.08154e-12
1.38663e-12
3.44207e-13
9.3895e-14
2.80845e-14
9.14975e-15
3.21742e-15
1.21051e-15
4.81467e-16
2.00384e-16
8.54901e-17
3.97919e-17
2.13021e-17
1.54741e-17
1.72588e-17
2.58368e-17
4.30535e-17
7.31228e-17
1.24826e-16
2.07966e-16
3.45607e-16
5.76312e-16
9.70937e-16
1.66392e-15
2.9445e-15
5.31899e-15
1.00751e-14
1.98035e-14
4.11709e-14
9.1224e-14
2.17431e-13
5.61634e-13
1.45302e-12
1.73571e-12
1.11046e-12
1.83376e-62
2.86304e-61
3.72009e-60
4.69169e-59
5.83944e-58
7.23446e-57
8.93337e-56
1.09753e-54
1.33854e-53
1.62429e-52
1.96112e-51
2.35587e-50
2.81365e-49
3.33416e-48
3.89873e-47
4.5246e-46
5.20956e-45
5.94336e-44
6.71209e-43
7.47243e-42
8.11295e-41
8.40579e-40
9.6049e-39
1.00043e-37
1.07617e-36
1.0939e-35
1.09866e-34
1.08946e-33
1.07927e-32
1.02564e-31
9.27859e-31
9.22201e-30
8.21261e-29
7.1847e-28
6.18979e-27
5.15932e-26
4.23087e-25
3.32714e-24
2.67658e-23
2.11462e-22
1.60127e-21
1.12159e-20
7.72388e-20
5.84724e-19
4.23312e-18
2.97515e-17
1.97247e-16
1.22222e-15
7.00804e-15
3.68522e-14
1.76831e-13
7.71202e-13
3.03603e-12
9.21051e-12
2.86785e-11
7.20351e-11
1.65997e-10
3.46719e-10
6.02353e-10
8.43001e-10
9.25425e-10
7.60096e-10
4.04745e-10
1.18199e-10
2.67129e-11
5.86425e-12
1.33877e-12
3.32917e-13
9.09669e-14
2.72651e-14
8.90174e-15
3.1358e-15
1.18165e-15
4.70537e-16
1.96024e-16
8.37153e-17
3.90226e-17
2.09437e-17
1.52782e-17
1.7104e-17
2.5644e-17
4.27415e-17
7.25774e-17
1.23828e-16
2.06274e-16
3.4276e-16
5.7154e-16
9.62918e-16
1.65031e-15
2.92013e-15
5.27622e-15
9.99369e-15
1.96498e-14
4.08621e-14
9.05675e-14
2.15938e-13
5.57938e-13
1.44152e-12
1.71985e-12
1.09881e-12
1.70428e-62
2.58663e-61
3.34408e-60
4.19197e-59
5.20433e-58
6.43958e-57
7.95031e-56
9.74688e-55
1.19536e-53
1.46449e-52
1.76623e-51
2.12359e-50
2.5427e-49
3.02825e-48
3.57552e-47
4.15209e-46
4.77531e-45
5.42581e-44
6.04632e-43
6.46639e-42
7.6779e-41
8.29537e-40
8.90108e-39
9.40091e-38
9.83158e-37
1.00489e-35
1.01483e-34
1.00553e-33
9.93579e-33
9.38487e-32
8.74477e-31
8.31048e-30
7.47514e-29
6.52533e-28
5.4724e-27
4.78964e-26
3.94135e-25
3.11658e-24
2.56608e-23
2.08372e-22
1.46969e-21
1.13996e-20
7.94227e-20
5.6815e-19
4.11679e-18
2.9116e-17
1.93873e-16
1.20571e-15
6.93956e-15
3.6624e-14
1.76383e-13
7.71865e-13
3.04784e-12
9.26681e-12
2.8757e-11
7.23741e-11
1.67308e-10
3.49301e-10
6.05568e-10
8.44663e-10
9.22693e-10
7.52231e-10
3.95244e-10
1.13876e-10
2.56382e-11