/*--------------------------------*- C++ -*----------------------------------*\
  =========                 |
  \\      /  F ield         | OpenFOAM: The Open Source CFD Toolbox
   \\    /   O peration     | Website:  https://openfoam.org
    \\  /    A nd           | Version:  10
     \\/     M anipulation  |
\*---------------------------------------------------------------------------*/
FoamFile
{
    format      ascii;
    class       volScalarField;
    location    "1";
    object      OC12H23OOH;
}
// * * * * * * * * * * * * * * * * * * * * * * * * * * * * * * * * * * * * * //

dimensions      [0 0 0 0 0 0 0];

internalField   nonuniform List<scalar> 
4000
(
1.28572e-33
8.09704e-33
3.59179e-32
1.39244e-31
5.04281e-31
1.70923e-30
5.5035e-30
1.7076e-29
5.16184e-29
1.54016e-28
4.60764e-28
1.2931e-27
3.58803e-27
1.00012e-26
2.81443e-26
7.98649e-26
2.27939e-25
6.77639e-25
1.98932e-24
5.90759e-24
1.76323e-23
5.22086e-23
1.65577e-22
5.04268e-22
1.55833e-21
4.80186e-21
1.46152e-20
4.58935e-20
1.40248e-19
4.28475e-19
1.30835e-18
3.98697e-18
1.20157e-17
3.596e-17
1.0704e-16
3.07529e-16
8.97055e-16
2.65375e-15
7.65289e-15
2.18303e-14
6.00453e-14
1.61974e-13
4.27055e-13
1.09869e-12
2.75508e-12
7.23189e-12
1.93039e-11
5.06664e-11
1.29285e-10
3.18152e-10
7.51883e-10
1.73022e-09
3.55808e-09
7.59521e-09
1.55969e-08
3.01208e-08
5.3808e-08
9.18845e-08
1.44233e-07
2.05396e-07
2.58394e-07
2.79473e-07
2.55402e-07
1.94828e-07
1.22348e-07
5.6337e-08
1.63716e-08
4.13855e-09
1.16651e-09
3.60097e-10
1.20274e-10
4.30449e-11
1.63296e-11
6.52896e-12
2.74092e-12
1.20194e-12
5.48681e-13
2.59893e-13
1.27721e-13
6.56386e-14
3.67821e-14
2.45993e-14
2.21237e-14
2.70304e-14
3.97924e-14
6.34139e-14
1.04407e-13
1.75245e-13
2.9973e-13
5.24629e-13
9.44953e-13
1.78956e-12
3.47525e-12
7.12369e-12
1.55121e-11
3.62275e-11
9.17472e-11
2.51818e-10
1.96767e-10
6.15502e-11
1.1484e-33
6.77772e-33
2.55639e-32
8.93293e-32
3.00876e-31
9.83734e-31
3.13398e-30
9.76114e-30
2.89273e-29
8.38303e-29
2.40692e-28
6.9186e-28
2.00459e-27
5.88583e-27
1.75581e-26
5.33274e-26
1.63978e-25
5.1176e-25
1.61531e-24
5.12472e-24
1.63596e-23
5.25719e-23
1.68595e-22
5.40164e-22
1.73063e-21
5.50179e-21
1.74306e-20
5.49801e-20
1.71745e-19
5.30806e-19
1.63374e-18
5.24521e-18
1.59736e-17
4.7678e-17
1.41335e-16
4.12848e-16
1.22222e-15
3.50699e-15
1.00362e-14
2.80316e-14
7.72963e-14
2.0631e-13
5.44754e-13
1.39817e-12
3.64646e-12
9.71115e-12
2.55932e-11
6.59165e-11
1.65881e-10
4.07148e-10
8.93424e-10
1.85229e-09
4.05093e-09
8.46965e-09
1.7191e-08
3.33408e-08
5.80499e-08
9.71952e-08
1.506e-07
2.10721e-07
2.63088e-07
2.83776e-07
2.59675e-07
1.98993e-07
1.26415e-07
5.94757e-08
1.77451e-08
4.43908e-09
1.24262e-09
3.81402e-10
1.2662e-10
4.51114e-11
1.70839e-11
6.8154e-12
2.85084e-12
1.24573e-12
5.67108e-13
2.67944e-13
1.31385e-13
6.7383e-14
3.76614e-14
2.5148e-14
2.26015e-14
2.75895e-14
4.05814e-14
6.46518e-14
1.06447e-13
1.78724e-13
3.05996e-13
5.35898e-13
9.66161e-13
1.83166e-12
3.56325e-12
7.31738e-12
1.59755e-11
3.74146e-11
9.4952e-11
2.58554e-10
1.97785e-10
6.15523e-11
5.93726e-34
3.1287e-33
1.07428e-32
3.31971e-32
9.89065e-32
2.89212e-31
8.36285e-31
2.43123e-30
7.30094e-30
2.30982e-29
7.54264e-29
2.52656e-28
8.61448e-28
2.96007e-27
1.02066e-26
3.52151e-26
1.21192e-25
4.097e-25
1.4505e-24
4.92639e-24
1.67405e-23
5.64544e-23
1.88745e-22
6.24573e-22
2.04518e-21
6.63695e-21
2.14225e-20
6.91739e-20
2.17954e-19
6.81261e-19
2.17277e-18
6.67859e-18
2.00495e-17
6.07086e-17
1.82324e-16
5.34661e-16
1.53989e-15
4.40088e-15
1.24588e-14
3.43525e-14
9.35732e-14
2.40421e-13
6.59379e-13
1.66486e-12
4.47743e-12
1.16663e-11
3.07772e-11
7.85304e-11
1.9148e-10
4.61627e-10
1.00844e-09
2.10572e-09
4.58009e-09
9.7211e-09
1.91097e-08
3.50719e-08
6.01914e-08
1.00069e-07
1.54106e-07
2.15245e-07
2.6776e-07
2.88268e-07
2.64044e-07
2.03513e-07
1.30321e-07
6.23368e-08
1.90185e-08
4.75485e-09
1.32292e-09
4.04501e-10
1.33219e-10
4.73092e-11
1.78669e-11
7.12069e-12
2.97396e-12
1.29617e-12
5.88694e-13
2.77505e-13
1.35804e-13
6.95363e-14
3.88407e-14
2.58955e-14
2.32386e-14
2.83488e-14
4.16589e-14
6.6301e-14
1.09076e-13
1.8306e-13
3.13182e-13
5.48783e-13
9.89024e-13
1.87384e-12
3.64731e-12
7.50066e-12
1.64033e-11
3.85203e-11
9.80375e-11
2.63062e-10
1.97896e-10
6.13668e-11
3.01415e-34
1.56077e-33
5.45521e-33
1.74354e-32
5.47276e-32
1.73456e-31
5.63187e-31
1.93128e-30
6.65199e-30
2.31653e-29
8.24894e-29
2.92679e-28
1.05204e-27
3.72077e-27
1.31177e-26
4.59968e-26
1.60336e-25
5.55124e-25
1.90688e-24
6.50194e-24
2.19871e-23
7.4006e-23
2.46607e-22
8.14781e-22
2.7006e-21
8.76414e-21
2.82107e-20
8.97686e-20
2.76524e-19
8.99718e-19
2.7723e-18
8.50659e-18
2.57189e-17
7.73706e-17
2.30489e-16
6.71837e-16
1.92162e-15
5.48654e-15
1.51719e-14
4.25318e-14
1.14849e-13
3.01165e-13
7.99891e-13
2.01972e-12
5.19536e-12
1.38242e-11
3.60025e-11
9.00441e-11
2.23142e-10
4.944e-10
1.06638e-09
2.41806e-09
5.27017e-09
1.0825e-08
2.09302e-08
3.64268e-08
6.25457e-08
1.03284e-07
1.58493e-07
2.19543e-07
2.71957e-07
2.92338e-07
2.68035e-07
2.07121e-07
1.33534e-07
6.48219e-08
2.02381e-08
5.05995e-09
1.40122e-09
4.26547e-10
1.39994e-10
4.96198e-11
1.86746e-11
7.41578e-12
3.0988e-12
1.33526e-12
6.07063e-13
2.86419e-13
1.40259e-13
7.18355e-14
4.00876e-14
2.66813e-14
2.3885e-14
2.92175e-14
4.28038e-14
6.79663e-14
1.11589e-13
1.86904e-13
3.19218e-13
5.64108e-13
1.01449e-12
1.91997e-12
3.74314e-12
7.71216e-12
1.69079e-11
3.98108e-11
1.01699e-10
2.65672e-10
1.97125e-10
6.09421e-11
3.3908e-34
1.78942e-33
6.52278e-33
2.20521e-32
7.35326e-32
2.46363e-31
8.33187e-31
2.84033e-30
9.71967e-30
3.41824e-29
1.18994e-28
4.17275e-28
1.47751e-27
5.1638e-27
1.8261e-26
6.3385e-26
2.18927e-25
7.64187e-25
2.6198e-24
8.91167e-24
3.01087e-23
1.00456e-22
3.32543e-22
1.09186e-21
3.55863e-21
1.14848e-20
3.67441e-20
1.17923e-19
3.70204e-19
1.14961e-18
3.53907e-18
1.10454e-17
3.31082e-17
9.88897e-17
2.90152e-16
8.39259e-16
2.38141e-15
6.59704e-15
1.86236e-14
5.0982e-14
1.36219e-13
3.57208e-13
9.14643e-13
2.37008e-12
6.0454e-12
1.59333e-11
4.06391e-11
1.02719e-10
2.35006e-10
5.13676e-10
1.18928e-09
2.6644e-09
5.82116e-09
1.20858e-08
2.17586e-08
3.78349e-08
6.47763e-08
1.06036e-07
1.61485e-07
2.23259e-07
2.75794e-07
2.96109e-07
2.71613e-07
2.10399e-07
1.36433e-07
6.72235e-08
2.13237e-08
5.33065e-09
1.46775e-09
4.45397e-10
1.45744e-10
5.14962e-11
1.9341e-11
7.67993e-12
3.20803e-12
1.37949e-12
6.26181e-13
2.95274e-13
1.44477e-13
7.39189e-14
4.12449e-14
2.74696e-14
2.46194e-14
3.01098e-14
4.40785e-14
6.99338e-14
1.1475e-13
1.92152e-13
3.28251e-13
5.79981e-13
1.0439e-12
1.97583e-12
3.85994e-12
7.97169e-12
1.7528e-11
4.14004e-11
1.06165e-10
2.67956e-10
1.96705e-10
6.06656e-11
5.53721e-34
3.0245e-33
1.12934e-32
3.92712e-32
1.34311e-31
4.58141e-31
1.56323e-30
5.34184e-30
1.82693e-29
6.25654e-29
2.13654e-28
7.27152e-28
2.52191e-27
8.59593e-27
2.92282e-26
1.00278e-25
3.39936e-25
1.14979e-24
3.88288e-24
1.29456e-23
4.35369e-23
1.42854e-22
4.64298e-22
1.49841e-21
4.8393e-21
1.56423e-20
4.93445e-20
1.53705e-19
4.84377e-19
1.4819e-18
4.46904e-18
1.4053e-17
4.15275e-17
1.2191e-16
3.49797e-16
1.01638e-15
2.83353e-15
7.70797e-15
2.20696e-14
6.17935e-14
1.61126e-13
4.13094e-13
1.0593e-12
2.70315e-12
6.97526e-12
1.78566e-11
4.6537e-11
1.08535e-10
2.45556e-10
5.66348e-10
1.3019e-09
2.91384e-09
6.23902e-09
1.28201e-08
2.29335e-08
3.94162e-08
6.66624e-08
1.08905e-07
1.64664e-07
2.26725e-07
2.79484e-07
2.99642e-07
2.75035e-07
2.13565e-07
1.39026e-07
6.89617e-08
2.21562e-08
5.55224e-09
1.52592e-09
4.61813e-10
1.50592e-10
5.3128e-11
1.99479e-11
7.90669e-12
3.29905e-12
1.41778e-12
6.4309e-13
3.0299e-13
1.48179e-13
7.58224e-14
4.23208e-14
2.82249e-14
2.53405e-14
3.10222e-14
4.54312e-14
7.20742e-14
1.18253e-13
1.98042e-13
3.3845e-13
5.97904e-13
1.07752e-12
2.03955e-12
3.99306e-12
8.26564e-12
1.8223e-11
4.31863e-11
1.11119e-10
2.70747e-10
1.97196e-10
6.06999e-11
8.77788e-34
4.6854e-33
1.76841e-32
6.11219e-32
2.06828e-31
7.10581e-31
2.40586e-30
8.17161e-30
2.77859e-29
9.44195e-29
3.20816e-28
1.08944e-27
3.69396e-27
1.24962e-26
4.22664e-26
1.43018e-25
4.83125e-25
1.615e-24
5.38054e-24
1.79807e-23
5.91894e-23
1.92961e-22
6.16326e-22
2.02008e-21
6.39254e-21
2.01074e-20
6.29669e-20
1.90334e-19
6.08806e-19
1.87082e-18
5.64921e-18
1.6899e-17
5.02901e-17
1.47386e-16
4.21815e-16
1.21165e-15
3.44572e-15
9.28693e-15
2.6435e-14
7.11324e-14
1.86058e-13
4.79778e-13
1.21012e-12
3.06324e-12
7.72469e-12
1.98828e-11
4.94993e-11
1.10225e-10
2.63694e-10
6.13728e-10
1.39156e-09
3.07863e-09
6.53981e-09
1.33377e-08
2.37476e-08
4.06796e-08
6.82795e-08
1.10918e-07
1.67261e-07
2.29662e-07
2.82506e-07
3.02803e-07
2.78245e-07
2.16536e-07
1.41551e-07
7.07225e-08
2.29543e-08
5.7658e-09
1.58106e-09
4.77583e-10
1.55377e-10
5.47393e-11
2.05213e-11
8.12813e-12
3.38945e-12
1.45487e-12
6.5996e-13
3.10825e-13
1.51981e-13
7.77566e-14
4.34157e-14
2.8987e-14
2.60671e-14
3.19424e-14
4.68022e-14
7.42616e-14
1.21861e-13
2.04144e-13
3.49058e-13
6.16676e-13
1.1127e-12
2.10648e-12
4.13206e-12
8.57057e-12
1.89385e-11
4.5e-11
1.16102e-10
2.74191e-10
1.98545e-10
6.10271e-11
1.26032e-33
6.76007e-33
2.53709e-32
8.84836e-32
3.0273e-31
1.03035e-30
3.49987e-30
1.18768e-29
4.02637e-29
1.36326e-28
4.60655e-28
1.55528e-27
5.25001e-27
1.76897e-26
5.92799e-26
1.98369e-25
6.62498e-25
2.19956e-24
7.26983e-24
2.39319e-23
7.83285e-23
2.53863e-22
8.16337e-22
2.60232e-21
8.23092e-21
2.58409e-20
8.02764e-20
2.45349e-19
7.39628e-19
2.23182e-18
6.80881e-18
2.05867e-17
6.05511e-17
1.75418e-16
4.95918e-16
1.40797e-15
3.96992e-15
1.05969e-14
2.96596e-14
8.09445e-14
2.1078e-13
5.35992e-13
1.36982e-12
3.42609e-12
8.66747e-12
2.20656e-11
5.15526e-11
1.1969e-10
2.84571e-10
6.57959e-10
1.49095e-09
3.25609e-09
6.84423e-09
1.38387e-08
2.44964e-08
4.1716e-08
6.96848e-08
1.12752e-07
1.69465e-07
2.32173e-07
2.85246e-07
3.05731e-07
2.81418e-07
2.19425e-07
1.44075e-07
7.28254e-08
2.38772e-08
6.00934e-09
1.64167e-09
4.94853e-10
1.60637e-10
5.64808e-11
2.11556e-11
8.37292e-12
3.48923e-12
1.4959e-12
6.78061e-13
3.19218e-13
1.56045e-13
7.97968e-14
4.45557e-14
2.97606e-14
2.67831e-14
3.28349e-14
4.81259e-14
7.63755e-14
1.25354e-13
2.10059e-13
3.59332e-13
6.34902e-13
1.14667e-12
2.17116e-12
4.26504e-12
8.85945e-12
1.96094e-11
4.66802e-11
1.20673e-10
2.78134e-10
2.00573e-10
6.15874e-11
1.65398e-33
8.90924e-33
3.35663e-32
1.17253e-31
4.01769e-31
1.36709e-30
4.63517e-30
1.56909e-29
5.30687e-29
1.79958e-28
6.06095e-28
2.03546e-27
6.8242e-27
2.29364e-26
7.64329e-26
2.54008e-25
8.42877e-25
2.78085e-24
9.11911e-24
3.01889e-23
9.80908e-23
3.13232e-22
1.01582e-21
3.20704e-21
1.01012e-20
3.17904e-20
9.85239e-20
3.02355e-19
9.16454e-19
2.73103e-18
8.13593e-18
2.42491e-17
7.08076e-17
2.04456e-16
5.82025e-16
1.6287e-15
4.51992e-15
1.19622e-14
3.32717e-14
8.95273e-14
2.33982e-13
5.99436e-13
1.51535e-12
3.81402e-12
9.17514e-12
2.16582e-11
5.39789e-11
1.29996e-10
3.05523e-10
7.0499e-10
1.57429e-09
3.40414e-09
7.09957e-09
1.42586e-08
2.50809e-08
4.25234e-08
7.08108e-08
1.14233e-07
1.71301e-07
2.34245e-07
2.87699e-07
3.08879e-07
2.84995e-07
2.23397e-07
1.47552e-07
7.50768e-08
2.50265e-08
6.29184e-09
1.71517e-09
5.15262e-10
1.67118e-10
5.86941e-11
2.19356e-11
8.66527e-12
3.60437e-12
1.54209e-12
6.9815e-13
3.28425e-13
1.60495e-13
8.19984e-14
4.57623e-14
3.05488e-14
2.7478e-14
3.36745e-14
4.93541e-14
7.83304e-14
1.28581e-13
2.15514e-13
3.68779e-13
6.51684e-13
1.17771e-12
2.23025e-12
4.38531e-12
9.11832e-12
2.02049e-11
4.8158e-11
1.24646e-10
2.82447e-10
2.03125e-10
6.23282e-11
1.97861e-33
1.12529e-32
4.18208e-32
1.45429e-31
5.03308e-31
1.71209e-30
5.82376e-30
1.97318e-29
6.66671e-29
2.24649e-28
7.56154e-28
2.54763e-27
8.51651e-27
2.84341e-26
9.47026e-26
3.11489e-25
1.05579e-24
3.46262e-24
1.13216e-23
3.67567e-23
1.18104e-22
3.84262e-22
1.22241e-21
3.86232e-21
1.20994e-20
3.76622e-20
1.16304e-19
3.55135e-19
1.08956e-18
3.27932e-18
9.71982e-18
2.83446e-17
8.16789e-17
2.33308e-16
6.55248e-16
1.81442e-15
4.9592e-15
1.31969e-14
3.71592e-14
9.82611e-14
2.51873e-13
6.4273e-13
1.61676e-12
3.93173e-12
9.3541e-12
2.36908e-11
5.8171e-11
1.39305e-10
3.27642e-10
7.4735e-10
1.65545e-09
3.55155e-09
7.33918e-09
1.45415e-08
2.55091e-08
4.32056e-08
7.16952e-08
1.15341e-07
1.72583e-07
2.35741e-07
2.895e-07
3.11186e-07
2.8832e-07
2.26911e-07
1.50813e-07
7.77123e-08
2.63001e-08
6.61536e-09
1.79563e-09
5.38337e-10
1.73994e-10
6.09636e-11
2.27345e-11
8.96584e-12
3.72907e-12
1.59358e-12
7.21097e-13
3.39003e-13
1.65493e-13
8.44077e-14
4.7046e-14
3.13503e-14
2.81442e-14
3.44451e-14
5.04553e-14
8.00787e-14
1.3146e-13
2.20368e-13
3.7715e-13
6.66563e-13
1.20497e-12
2.28205e-12
4.48951e-12
9.3401e-12
2.07093e-11
4.93944e-11
1.27944e-10
2.86969e-10
2.06038e-10
6.31958e-11
2.38116e-33
1.34515e-32
5.02333e-32
1.75474e-31
6.0135e-31
2.04655e-30
6.94407e-30
2.35015e-29
7.92533e-29
2.67223e-28
9.10457e-28
3.05252e-27
1.02009e-26
3.41713e-26
1.13925e-25
3.76611e-25
1.25582e-24
4.104e-24
1.33433e-23
4.33363e-23
1.38128e-22
4.48947e-22
1.42284e-21
4.47582e-21
1.38468e-20
4.34461e-20
1.32839e-19
4.05235e-19
1.23779e-18
3.72148e-18
1.1007e-17
3.20401e-17
9.17342e-17
2.62511e-16
7.30825e-16
2.01385e-15
5.48182e-15
1.45768e-14
4.05759e-14
1.05935e-13
2.70001e-13
6.78492e-13
1.67069e-12
4.03743e-12
1.0185e-11
2.55073e-11
6.24912e-11
1.49875e-10
3.49792e-10
7.95027e-10
1.75753e-09
3.76698e-09
7.82967e-09
1.46567e-08
2.58591e-08
4.37417e-08
7.23504e-08
1.16146e-07
1.73544e-07
2.37098e-07
2.91438e-07
3.13844e-07
2.91302e-07
2.30236e-07
1.53926e-07
8.0155e-08
2.75387e-08
6.95467e-09
1.87953e-09
5.61452e-10
1.81088e-10
6.32939e-11
2.35814e-11
9.29315e-12
3.85909e-12
1.64462e-12
7.43472e-13
3.49122e-13
1.70343e-13
8.67545e-14
4.8295e-14
3.21181e-14
2.87643e-14
3.5146e-14
5.14452e-14
8.16111e-14
1.33967e-13
2.24585e-13
3.84423e-13
6.79502e-13
1.22845e-12
2.32649e-12
4.57792e-12
9.52655e-12
2.11284e-11
5.04097e-11
1.30618e-10
2.91562e-10
2.09167e-10
6.4142e-11
2.85121e-33
1.54538e-32
5.80354e-32
2.02587e-31
6.93385e-31
2.35825e-30
8.0067e-30
2.71707e-29
9.18914e-29
3.12389e-28
1.05475e-27
3.54394e-27
1.18531e-26
3.97198e-26
1.3276e-25
4.39159e-25
1.44553e-24
4.73854e-24
1.54251e-23
4.98929e-23
1.6017e-22
5.09831e-22
1.62217e-21
5.08825e-21
1.58324e-20
4.87907e-20
1.49333e-19
4.48651e-19
1.37529e-18
4.08891e-18
1.1793e-17
3.5291e-17
1.01564e-16
2.85118e-16
8.15505e-16
2.22014e-15
5.94843e-15
1.5781e-14
4.2811e-14
1.14091e-13
2.88061e-13
7.18927e-13
1.76414e-12
4.32516e-12
1.08904e-11
2.71625e-11
6.63636e-11
1.58578e-10
3.6859e-10
8.3406e-10
1.83619e-09
3.91961e-09
8.0907e-09
1.47024e-08
2.61789e-08
4.42293e-08
7.28802e-08
1.16709e-07
1.74227e-07
2.37796e-07
2.92524e-07
3.15639e-07
2.94328e-07
2.3355e-07
1.57024e-07
8.25944e-08
2.87711e-08
7.29424e-09
1.96603e-09
5.84834e-10
1.89205e-10
6.59747e-11
2.45212e-11
9.64052e-12
3.99499e-12
1.69945e-12
7.66891e-13
3.59838e-13
1.75408e-13
8.91714e-14
4.95483e-14
3.28636e-14
2.93429e-14
3.57844e-14
5.23365e-14
8.30067e-14
1.36233e-13
2.28338e-13
3.90744e-13
6.90752e-13
1.24877e-12
2.3652e-12
4.65354e-12
9.68241e-12
2.14729e-11
5.123e-11
1.32752e-10
2.96091e-10
2.12374e-10
6.51231e-11
3.12341e-33
1.73065e-32
6.5262e-32
2.27547e-31
7.7896e-31
2.65213e-30
9.01632e-30
3.06212e-29
1.04133e-28
3.53109e-28
1.1924e-27
4.00743e-27
1.33932e-26
4.49925e-26
1.49005e-25
4.89949e-25
1.57819e-24
5.35805e-24
1.73288e-23
5.60909e-23
1.79977e-22
5.73265e-22
1.81186e-21
5.60377e-21
1.77097e-20
5.40512e-20
1.636e-19
4.91854e-19
1.4798e-18
4.5226e-18
1.31444e-17
3.86835e-17
1.10532e-16
3.1492e-16
8.72648e-16
2.37136e-15
6.31934e-15
1.67046e-14
4.52244e-14
1.21134e-13
3.06938e-13
7.68576e-13
1.86642e-12
4.66244e-12
1.1483e-11
2.85812e-11
6.96578e-11
1.6513e-10
3.81283e-10
8.57501e-10
1.87642e-09
3.98252e-09
8.17019e-09
1.47341e-08
2.65122e-08
4.46002e-08
7.32201e-08
1.17071e-07
1.74557e-07
2.38277e-07
2.93312e-07
3.1715e-07
2.9679e-07
2.36576e-07
1.59996e-07
8.50229e-08
3.00373e-08
7.64694e-09
2.05298e-09
6.08838e-10
1.96614e-10
6.8364e-11
2.53608e-11
9.95636e-12
4.12327e-12
1.75076e-12
7.89509e-13
3.70044e-13
1.80213e-13
9.1459e-14
5.07601e-14
3.35852e-14
2.98872e-14
3.63569e-14
5.312e-14
8.42231e-14
1.38218e-13
2.31655e-13
3.96407e-13
7.00807e-13
1.26656e-12
2.39843e-12
4.71838e-12
9.81726e-12
2.17715e-11
5.19422e-11
1.34575e-10
3.00771e-10
2.15778e-10
6.61675e-11
3.33356e-33
1.94354e-32
7.27784e-32
2.53787e-31
8.70338e-31
2.97202e-30
1.01286e-29
3.43686e-29
1.16304e-28
3.92614e-28
1.32086e-27
4.42157e-27
1.49622e-26
4.91827e-26
1.63386e-25
5.42948e-25
1.80244e-24
5.87536e-24
1.90565e-23
6.12371e-23
1.94839e-22
6.09239e-22
1.98117e-21
6.15948e-21
1.90717e-20
5.83849e-20
1.79433e-19
5.39621e-19
1.61932e-18
4.801e-18
1.39487e-17
4.14682e-17
1.16653e-16
3.3352e-16
9.18887e-16
2.50052e-15
6.68429e-15
1.73309e-14
4.77035e-14
1.28022e-13
3.20167e-13
7.96025e-13
1.96369e-12
4.91713e-12
1.19941e-11
2.97916e-11
7.20575e-11
1.69868e-10
3.90303e-10
8.73679e-10
1.90301e-09
4.0247e-09
8.21563e-09
1.47558e-08
2.67654e-08
4.4888e-08
7.34282e-08
1.17204e-07
1.74658e-07
2.38489e-07
2.93966e-07
3.18535e-07
2.98951e-07
2.39337e-07
1.62735e-07
8.73061e-08
3.13116e-08
7.99192e-09
2.14079e-09
6.33052e-10
2.03929e-10
7.07907e-11
2.62085e-11
1.02691e-11
4.24684e-12
1.80119e-12
8.11344e-13
3.79874e-13
1.84913e-13
9.37053e-14
5.19192e-14
3.4256e-14
3.03772e-14
3.68638e-14
5.37964e-14
8.52636e-14
1.3991e-13
2.34478e-13
4.01206e-13
7.09398e-13
1.28184e-12
2.42765e-12
4.77449e-12
9.93089e-12
2.20159e-11
5.25061e-11
1.35999e-10
3.05111e-10
2.18995e-10
6.71606e-11
3.91567e-33
2.1075e-32
7.9229e-32
2.76927e-31
9.48857e-31
3.23536e-30
1.10647e-29
3.74193e-29
1.25832e-28
4.199e-28
1.43083e-27
4.87242e-27
1.61895e-26
5.32214e-26
1.8038e-25
5.90452e-25
1.92442e-24
6.35823e-24
2.05147e-23
6.5211e-23
2.13433e-22
6.75018e-22
2.12714e-21
6.60085e-21
2.05943e-20
6.2711e-20
1.90799e-19
5.71855e-19
1.70533e-18
5.12078e-18
1.50403e-17
4.36554e-17
1.22767e-16
3.49388e-16
9.50193e-16
2.5571e-15
7.00825e-15
1.81038e-14
4.94299e-14
1.30483e-13
3.39224e-13
8.40542e-13
2.07719e-12
5.03088e-12
1.24064e-11
3.06604e-11
7.38698e-11
1.73506e-10
3.97306e-10
8.86506e-10
1.92459e-09
4.05271e-09
8.24537e-09
1.47709e-08
2.69442e-08
4.50894e-08
7.35388e-08
1.17222e-07
1.74628e-07
2.38532e-07
2.94381e-07
3.19666e-07
3.01031e-07
2.41841e-07
1.6525e-07
8.9423e-08
3.24953e-08
8.33318e-09
2.22697e-09
6.56608e-10
2.11005e-10
7.30935e-11
2.70106e-11
1.05708e-11
4.36521e-12
1.84927e-12
8.32085e-13
3.89288e-13
1.8933e-13
9.57867e-14
5.29842e-14
3.48613e-14
3.08061e-14
3.72929e-14
5.43628e-14
8.61304e-14
1.41315e-13
2.36811e-13
4.05149e-13
7.16433e-13
1.29421e-12
2.45118e-12
4.81923e-12
1.00211e-11
2.22095e-11
5.29513e-11
1.3711e-10
3.08978e-10
2.21902e-10
6.8061e-11
4.20129e-33
2.26329e-32
8.5135e-32
2.97804e-31
1.02351e-30
3.4885e-30
1.18577e-29
4.02066e-29
1.35855e-28
4.56912e-28
1.53595e-27
5.17235e-27
1.72956e-26
5.76852e-26
1.91771e-25
6.32333e-25
2.06248e-24
6.77199e-24
2.18273e-23
7.01202e-23
2.25519e-22
7.15555e-22
2.25607e-21
7.04185e-21
2.1693e-20
6.60604e-20
2.0111e-19
6.00399e-19
1.77132e-18
5.32624e-18
1.54859e-17
4.50657e-17
1.28893e-16
3.60909e-16
9.95551e-16
2.71575e-15
7.28001e-15
1.95597e-14
5.19264e-14
1.38766e-13
3.49156e-13
8.5465e-13
2.11833e-12
5.13639e-12
1.27249e-11
3.13313e-11
7.52403e-11
1.76182e-10
4.02242e-10
8.94914e-10
1.93823e-09
4.07177e-09
8.26616e-09
1.47771e-08
2.7066e-08
4.52193e-08
7.35609e-08
1.17149e-07
1.74479e-07
2.38431e-07
2.94578e-07
3.20454e-07
3.02591e-07
2.43809e-07
1.67311e-07
9.12023e-08
3.35121e-08
8.62467e-09
2.30116e-09
6.76824e-10
2.17057e-10
7.50648e-11
2.77051e-11
1.08288e-11
4.46664e-12
1.89055e-12
8.49893e-13
3.97312e-13
1.93103e-13
9.75656e-14
5.38922e-14
3.53724e-14
3.11631e-14
3.76436e-14
5.4821e-14
8.68293e-14
1.42448e-13
2.38693e-13
4.08333e-13
7.22138e-13
1.30423e-12
2.47012e-12
4.85502e-12
1.00928e-11
2.23621e-11
5.32995e-11
1.37971e-10
3.12272e-10
2.24398e-10
6.88359e-11
4.11876e-33
2.38095e-32
8.93192e-32
3.12276e-31
1.07139e-30
3.65763e-30
1.24641e-29
4.23466e-29
1.43047e-28
4.80868e-28
1.62426e-27
5.43647e-27
1.81569e-26
6.0501e-26
2.00821e-25
6.63564e-25
2.19287e-24
7.14034e-24
2.30622e-23
7.40333e-23
2.37585e-22
7.48725e-22
2.36943e-21
7.36361e-21
2.27014e-20
6.92881e-20
2.09162e-19
6.23336e-19
1.8518e-18
5.53218e-18
1.61307e-17
4.7268e-17
1.33879e-16
3.74143e-16
1.03129e-15
2.8224e-15
7.60015e-15
2.01394e-14
5.30717e-14
1.39862e-13
3.53973e-13
8.76626e-13
2.11884e-12
5.20037e-12
1.29786e-11
3.18455e-11
7.62775e-11
1.78211e-10
4.05999e-10
9.01363e-10
1.94838e-09
4.08523e-09
8.27921e-09
1.47798e-08
2.71428e-08
4.52921e-08
7.35444e-08
1.17042e-07
1.74311e-07
2.38298e-07
2.94689e-07
3.21064e-07
3.0388e-07
2.45567e-07
1.6907e-07
9.26927e-08
3.43658e-08
8.87551e-09
2.3643e-09
6.94006e-10
2.22173e-10
7.67178e-11
2.82746e-11
1.10395e-11
4.54918e-12
1.92402e-12
8.64272e-13
4.03764e-13
1.96126e-13
9.89862e-14
5.46137e-14
3.57745e-14
3.14394e-14
3.79117e-14
5.51689e-14
8.73594e-14
1.43307e-13
2.40121e-13
4.10744e-13
7.2646e-13
1.31179e-12
2.48453e-12
4.88216e-12
1.0147e-11
2.24769e-11
5.35594e-11
1.38609e-10
3.14884e-10
2.2639e-10
6.94547e-11
4.49394e-33
2.42922e-32
9.13512e-32
3.2289e-31
1.10619e-30
3.77128e-30
1.28307e-29
4.36034e-29
1.47827e-28
4.98849e-28
1.67787e-27
5.62796e-27
1.88433e-26
6.30184e-26
2.10072e-25
6.9381e-25
2.27686e-24
7.42294e-24
2.40257e-23
7.71624e-23
2.45843e-22
7.76365e-22
2.43081e-21
7.51701e-21
2.34299e-20
7.15081e-20
2.16943e-19
6.48691e-19
1.95007e-18
5.71201e-18
1.65692e-17
4.74984e-17
1.36675e-16
3.81222e-16
1.06329e-15
2.91096e-15
7.76895e-15
2.02425e-14
5.36706e-14
1.40683e-13
3.54993e-13
8.75546e-13
2.13983e-12
5.25867e-12
1.31576e-11
3.22107e-11
7.70083e-11
1.79633e-10
4.08646e-10
9.06037e-10
1.95539e-09
4.09479e-09
8.28772e-09
1.47803e-08
2.71885e-08
4.53307e-08
7.35107e-08
1.16935e-07
1.74147e-07
2.38146e-07
2.94697e-07
3.21401e-07
3.04676e-07
2.46665e-07
1.70209e-07
9.36891e-08
3.49502e-08
9.04702e-09
2.40833e-09
7.06048e-10
2.25738e-10
7.78723e-11
2.86795e-11
1.11888e-11
4.60753e-12
1.94769e-12
8.74439e-13
4.08324e-13
1.98261e-13
9.99887e-14
5.51223e-14
3.60581e-14
3.16316e-14
3.80953e-14
5.5405e-14
8.77183e-14
1.43888e-13
2.41086e-13
4.12377e-13
7.29389e-13
1.31691e-12
2.49433e-12
4.90057e-12
1.01837e-11
2.25543e-11
5.37347e-11
1.39038e-10
3.16717e-10
2.27793e-10
6.98908e-11
4.55982e-33
2.5047e-32
9.38801e-32
3.28192e-31
1.12798e-30
3.86132e-30
1.31525e-29
4.47049e-29
1.51669e-28
5.13112e-28
1.72892e-27
5.80354e-27
1.94078e-26
6.46937e-26
2.15151e-25
7.09795e-25
2.32642e-24
7.57634e-24
2.4412e-23
7.80674e-23
2.48745e-22
7.85565e-22
2.48356e-21
7.68076e-21
2.38713e-20
7.26393e-20
2.20425e-19
6.66083e-19
1.97947e-18
5.82356e-18
1.69322e-17
4.94215e-17
1.38955e-16
3.87272e-16
1.07851e-15
2.91139e-15
7.85133e-15
2.05325e-14
5.58259e-14
1.44857e-13
3.59781e-13
8.89121e-13
2.13952e-12
5.34517e-12
1.3252e-11
3.24296e-11
7.748e-11
1.80556e-10
4.10331e-10
9.08879e-10
1.95968e-09
4.10043e-09
8.29332e-09
1.47814e-08
2.72164e-08
4.5354e-08
7.34927e-08
1.16874e-07
1.74046e-07
2.38035e-07
2.94655e-07
3.21522e-07
3.05032e-07
2.4719e-07
1.70779e-07
9.41951e-08
3.52515e-08
9.13753e-09
2.43129e-09
7.12249e-10
2.27593e-10
7.84705e-11
2.88871e-11
1.12656e-11
4.63757e-12
1.9599e-12
8.79687e-13
4.10679e-13
1.99364e-13
1.00507e-13
5.53856e-14
3.62047e-14
3.17312e-14
3.819e-14
5.5527e-14
8.7904e-14
1.44191e-13
2.41591e-13
4.13231e-13
7.30922e-13
1.3196e-12
2.49947e-12
4.91023e-12
1.02029e-11
2.25949e-11
5.38262e-11
1.39261e-10
3.17694e-10
2.28542e-10
7.01239e-11
4.50406e-33
2.49851e-32
9.55758e-32
3.32953e-31
1.14247e-30
3.89693e-30
1.32574e-29
4.50545e-29
1.53022e-28
5.20446e-28
1.75368e-27
5.88255e-27
1.95835e-26
6.43044e-26
2.19364e-25
7.20201e-25
2.35702e-24
7.6685e-24
2.47971e-23
7.94135e-23
2.54808e-22
8.05493e-22
2.52673e-21
7.83865e-21
2.39926e-20
7.40971e-20
2.23866e-19
6.74168e-19
2.02473e-18
5.98606e-18
1.73541e-17
4.94667e-17
1.41793e-16
3.99979e-16
1.09717e-15
2.95832e-15
7.96994e-15
2.06244e-14
5.62131e-14
1.43874e-13
3.65408e-13
8.97019e-13
2.1836e-12
5.35192e-12
1.33055e-11
3.25583e-11
7.77479e-11
1.81083e-10
4.11315e-10
9.10608e-10
1.96249e-09
4.10435e-09
8.29766e-09
1.47839e-08
2.7237e-08
4.53733e-08
7.34983e-08
1.1686e-07
1.74008e-07
2.37977e-07
2.94594e-07
3.21484e-07
3.05044e-07
2.47247e-07
1.7086e-07
9.42782e-08
3.53041e-08
9.15342e-09
2.43533e-09
7.13312e-10
2.27899e-10
7.8566e-11
2.8919e-11
1.12769e-11
4.6418e-12
1.96155e-12
8.80362e-13
4.10968e-13
1.99493e-13
1.00565e-13
5.54132e-14
3.62192e-14
3.17406e-14
3.8199e-14
5.5539e-14
8.79235e-14
1.44224e-13
2.41649e-13
4.13333e-13
7.31116e-13
1.31995e-12
2.50015e-12
4.91154e-12
1.02056e-11
2.26008e-11
5.384e-11
1.39296e-10
3.1782e-10
2.28635e-10
7.01526e-11
4.49974e-33
2.54742e-32
9.58579e-32
3.35312e-31
1.15256e-30
3.9394e-30
1.34255e-29
4.56381e-29
1.54716e-28
5.22885e-28
1.76147e-27
5.91342e-27
1.97512e-26
6.54858e-26
2.20191e-25
7.24133e-25
2.36513e-24
7.62865e-24
2.50616e-23
8.02332e-23
2.56936e-22
8.13512e-22
2.55703e-21
7.96947e-21
2.45378e-20
7.46643e-20
2.22869e-19
6.86914e-19
2.03646e-18
6.00529e-18
1.75251e-17
5.03277e-17
1.43684e-16
4.00185e-16
1.10729e-15
2.97997e-15
8.02114e-15
2.08712e-14
5.65288e-14
1.44715e-13
3.6717e-13
8.89029e-13
2.20887e-12
5.36652e-12
1.33004e-11
3.26016e-11
7.78365e-11
1.81263e-10
4.11684e-10
9.11344e-10
1.96391e-09
4.10691e-09
8.30199e-09
1.47902e-08
2.72538e-08
4.53968e-08
7.35476e-08
1.16926e-07
1.74071e-07
2.38003e-07
2.94523e-07
3.2126e-07
3.04637e-07
2.46739e-07
1.70357e-07
9.38578e-08
3.50626e-08
9.08237e-09
2.41738e-09
7.08416e-10
2.26433e-10
7.80892e-11
2.8752e-11
1.12149e-11
4.6174e-12
1.95162e-12
8.76067e-13
4.09028e-13
1.98578e-13
1.00132e-13
5.51921e-14
3.60958e-14
3.1657e-14
3.81206e-14
5.54402e-14
8.77754e-14
1.43986e-13
2.41257e-13
4.12675e-13
7.29937e-13
1.3179e-12
2.49627e-12
4.90435e-12
1.01915e-11
2.25716e-11
5.37753e-11
1.39141e-10
3.17072e-10
2.28055e-10
6.99717e-11
4.5534e-33
2.52785e-32
9.46685e-32
3.31719e-31
1.14228e-30
3.91113e-30
1.33424e-29
4.53521e-29
1.5356e-28
5.17786e-28
1.73829e-27
5.81293e-27
1.93925e-26
6.46445e-26
2.15004e-25
7.08299e-25
2.30717e-24
7.53817e-24
2.46026e-23
7.8932e-23
2.50567e-22
8.03716e-22
2.51679e-21
7.90708e-21
2.42752e-20
7.36898e-20
2.22136e-19
6.75541e-19
2.00292e-18
5.90532e-18
1.71666e-17
4.91877e-17
1.43174e-16
3.95974e-16
1.06544e-15
2.90933e-15
7.86089e-15
2.02122e-14
5.43798e-14
1.45729e-13
3.57316e-13
8.96241e-13
2.15089e-12
5.37744e-12
1.32894e-11
3.25403e-11
7.77152e-11
1.81055e-10
4.11373e-10
9.11e-10
1.96386e-09
4.10806e-09
8.30644e-09
1.48014e-08
2.72702e-08
4.54297e-08
7.3648e-08
1.17082e-07
1.7425e-07
2.38131e-07
2.94467e-07
3.20878e-07
3.03848e-07
2.45702e-07
1.69305e-07
9.29655e-08
3.45495e-08
8.93128e-09
2.37921e-09
6.98016e-10
2.23325e-10
7.70787e-11
2.83998e-11
1.10837e-11
4.56569e-12
1.93053e-12
8.66952e-13
4.04916e-13
1.96643e-13
9.92178e-14
5.47268e-14
3.5837e-14
3.14828e-14
3.79576e-14
5.52343e-14
8.7466e-14
1.43488e-13
2.40433e-13
4.11289e-13
7.27464e-13
1.31361e-12
2.48809e-12
4.88914e-12
1.01616e-11
2.25091e-11
5.36361e-11
1.38806e-10
3.15482e-10
2.26827e-10
6.9589e-11
4.61689e-33
2.48104e-32
9.31594e-32
3.21616e-31
1.12733e-30
3.83297e-30
1.30467e-29
4.4305e-29
1.49986e-28
5.06236e-28
1.70345e-27
5.71214e-27
1.90827e-26
6.35294e-26
2.10367e-25
6.91079e-25
2.28881e-24
7.44064e-24
2.40732e-23
7.74183e-23
2.47849e-22
7.9045e-22
2.4848e-21
7.73146e-21
2.38197e-20
7.26739e-20
2.19654e-19
6.5934e-19
1.98327e-18
5.84026e-18
1.70144e-17
4.87446e-17
1.39685e-16
3.8968e-16
1.07695e-15
2.93277e-15
7.81544e-15
2.02327e-14
5.46145e-14
1.4442e-13
3.59758e-13
8.78693e-13
2.13777e-12
5.36971e-12
1.32171e-11
3.23768e-11
7.74047e-11
1.805e-10
4.10476e-10
9.09757e-10
1.96272e-09
4.10851e-09
8.31234e-09
1.48192e-08
2.72897e-08
4.5477e-08
7.38076e-08
1.17339e-07
1.74558e-07
2.38368e-07
2.94413e-07
3.20302e-07
3.02617e-07
2.44087e-07
1.67671e-07
9.15812e-08
3.37581e-08
8.70058e-09
2.32056e-09
6.82014e-10
2.18527e-10
7.55187e-11
2.78515e-11
1.08805e-11
4.48592e-12
1.89814e-12
8.53e-13
3.98642e-13
1.937e-13
9.78314e-14
5.40226e-14
3.54455e-14
3.12208e-14
3.77135e-14
5.49267e-14
8.70041e-14
1.42744e-13
2.39202e-13
4.09218e-13
7.23755e-13
1.30717e-12
2.47582e-12
4.86627e-12
1.01165e-11
2.24149e-11
5.3426e-11
1.383e-10
3.13111e-10
2.24999e-10
6.90196e-11
4.32607e-33
2.40238e-32
9.02837e-32
3.16715e-31
1.08432e-30
3.69115e-30
1.25742e-29
4.28829e-29
1.45109e-28
4.89339e-28
1.64452e-27
5.50993e-27
1.84285e-26
6.17075e-26
2.03936e-25
6.70036e-25
2.19022e-24
7.11838e-24
2.30397e-23
7.44433e-23
2.39021e-22
7.48221e-22
2.39609e-21
7.38899e-21
2.31982e-20
7.06885e-20
2.13673e-19
6.39863e-19
1.92523e-18
5.71208e-18
1.63435e-17
4.83443e-17
1.36288e-16
3.81071e-16
1.05505e-15
2.85978e-15
7.6871e-15
2.00832e-14
5.29075e-14
1.38694e-13
3.55629e-13
8.71232e-13
2.10078e-12
5.29514e-12
1.31087e-11
3.21274e-11
7.68896e-11
1.79511e-10
4.08756e-10
9.07172e-10
1.95965e-09
4.1068e-09
8.31727e-09
1.48401e-08
2.73012e-08
4.5523e-08
7.39998e-08
1.1766e-07
1.74946e-07
2.38664e-07
2.94317e-07
3.19491e-07
3.00892e-07
2.41899e-07
1.655e-07
8.97649e-08
3.2735e-08
8.40468e-09
2.24572e-09
6.61401e-10
2.12373e-10
7.35176e-11
2.71546e-11
1.06216e-11
4.38411e-12
1.85675e-12
8.35154e-13
3.90612e-13
1.8993e-13
9.60543e-14
5.31168e-14
3.49441e-14
3.08832e-14
3.73962e-14
5.4525e-14
8.64003e-14
1.41772e-13
2.37595e-13
4.06517e-13
7.18923e-13
1.29877e-12
2.45987e-12
4.83654e-12
1.00575e-11
2.22913e-11
5.31498e-11
1.37632e-10
3.10055e-10
2.22648e-10
6.82876e-11
4.25229e-33
2.29224e-32
8.64873e-32
3.02187e-31
1.0327e-30
3.5097e-30
1.20031e-29
4.05699e-29
1.36922e-28
4.65912e-28
1.56153e-27
5.22158e-27
1.74254e-26
5.81574e-26
1.94708e-25
6.40642e-25
2.09487e-24
6.81958e-24
2.21721e-23
7.03814e-23
2.29088e-22
7.22955e-22
2.27795e-21
7.11845e-21
2.20712e-20
6.74988e-20
2.05666e-19
6.16962e-19
1.85904e-18
5.45074e-18
1.58117e-17
4.61393e-17
1.31303e-16
3.67914e-16
9.94874e-16
2.75256e-15
7.38229e-15
1.94092e-14
5.18644e-14
1.38314e-13
3.43208e-13
8.72776e-13
2.10835e-12
5.20798e-12
1.28979e-11
3.17308e-11
7.61277e-11
1.78061e-10
4.06211e-10
9.03057e-10
1.95421e-09
4.10219e-09
8.32048e-09
1.48647e-08
2.72942e-08
4.55546e-08
7.42075e-08
1.1802e-07
1.75386e-07
2.38997e-07
2.942e-07
3.18576e-07
2.99016e-07
2.39445e-07
1.62994e-07