/*--------------------------------*- C++ -*----------------------------------*\
  =========                 |
  \\      /  F ield         | OpenFOAM: The Open Source CFD Toolbox
   \\    /   O peration     | Website:  https://openfoam.org
    \\  /    A nd           | Version:  10
     \\/     M anipulation  |
\*---------------------------------------------------------------------------*/
FoamFile
{
    format      ascii;
    class       volScalarField;
    location    "1";
    object      OH;
}
// * * * * * * * * * * * * * * * * * * * * * * * * * * * * * * * * * * * * * //

dimensions      [0 0 0 0 0 0 0];

internalField   nonuniform List<scalar> 
4000
(
3.32894e-25
8.70855e-26
2.64682e-25
1.06591e-25
5.42709e-25
1.354e-25
8.89846e-26
2.47616e-25
6.64407e-26
4.59397e-26
2.28808e-26
1.46498e-26
7.74528e-26
3.00355e-26
1.45599e-25
1.68905e-24
1.75332e-24
1.2958e-24
7.73457e-25
2.7266e-25
4.00343e-25
9.21588e-26
7.94532e-26
1.59878e-25
2.50438e-24
4.91282e-25
9.55055e-25
2.20531e-25
4.76568e-26
2.76345e-26
2.46116e-26
4.79358e-26
9.7439e-25
2.19459e-23
3.68932e-24
5.18053e-24
2.98142e-24
1.23845e-23
1.59947e-24
3.34966e-25
1.44553e-24
8.34793e-25
6.42764e-24
2.88534e-23
1.50379e-22
9.83829e-22
6.6133e-21
4.34738e-20
2.70828e-19
1.57047e-18
8.42296e-18
4.30785e-17
1.79157e-16
8.13552e-16
3.50153e-15
1.39111e-14
4.98692e-14
1.78199e-13
6.12977e-13
2.0506e-12
6.7191e-12
2.02667e-11
5.53795e-11
1.18679e-10
2.18192e-10
4.49181e-10
1.20945e-09
3.94107e-09
1.32896e-08
4.24665e-08
1.25393e-07
3.41839e-07
8.67858e-07
2.06807e-06
4.66222e-06
1.0006e-05
2.05946e-05
4.07764e-05
7.79042e-05
0.000144128
0.000258009
0.000448078
0.00075213
0.00121965
0.00193405
0.00288243
0.00345601
0.00350932
0.00314417
0.00253708
0.00185513
0.0012028
0.000703001
0.000362258
0.000163578
6.61831e-05
2.52118e-05
9.50949e-06
3.6175e-06
9.2805e-07
9.94058e-25
1.36181e-25
3.6043e-26
1.77767e-25
6.68624e-26
3.90099e-26
3.87796e-25
7.38812e-26
8.83946e-26
1.17311e-24
2.11957e-25
5.16539e-26
1.18106e-25
2.26439e-26
2.31578e-26
8.02667e-26
8.96203e-25
4.08748e-25
3.46571e-24
3.00783e-24
5.02095e-25
1.53634e-25
1.45277e-24
2.50515e-25
1.47658e-25
1.0072e-24
8.41814e-25
1.98382e-24
2.90207e-25
2.63377e-25
9.86517e-26
9.92856e-26
3.16803e-25
7.07991e-24
1.38365e-23
9.88825e-23
4.52276e-23
5.26716e-24
6.46391e-25
2.17395e-24
3.92223e-24
8.93896e-24
3.09751e-24
4.48636e-23
2.58901e-22
1.70307e-21
1.12644e-20
7.1652e-20
4.35479e-19
2.50668e-18
1.15556e-17
4.83467e-17
2.26213e-16
9.86681e-16
4.13759e-15
1.63329e-14
5.54548e-14
1.90734e-13
6.38004e-13
2.07851e-12
6.71095e-12
2.00371e-11
5.43836e-11
1.16337e-10
2.12643e-10
4.32877e-10
1.15293e-09
3.77134e-09
1.2813e-08
4.13571e-08
1.2357e-07
3.39647e-07
8.683e-07
2.08121e-06
4.7135e-06
1.01522e-05
2.09546e-05
4.15718e-05
7.95453e-05
0.000147353
0.000263852
0.000458606
0.000769906
0.00124735
0.00197571
0.00291713
0.00346634
0.00349358
0.00310778
0.00249048
0.00180741
0.00116183
0.000672596
0.000343562
0.000153785
6.18103e-05
2.34949e-05
8.90408e-06
3.40999e-06
8.77588e-07
6.73967e-25
1.09785e-25
6.24838e-25
7.67029e-25
2.45436e-24
4.05118e-25
7.23138e-26
1.79024e-26
1.302e-26
2.78727e-26
3.53149e-25
2.01137e-25
3.78209e-26
3.61464e-26
5.56888e-25
1.0772e-25
2.73638e-26
3.00707e-26
6.05394e-25
2.54282e-25
5.32877e-26
2.80598e-26
4.30477e-26
6.08167e-25
1.39741e-24
1.61981e-24
2.66982e-25
6.70615e-26
4.43028e-26
1.69687e-25
1.45732e-25
2.11288e-24
3.44494e-25
4.13726e-25
7.37229e-24
2.03737e-24
1.22578e-24
2.36003e-25
1.17878e-25
5.98492e-25
1.36892e-23
6.74674e-24
1.05556e-23
6.08986e-23
3.73583e-22
2.42488e-21
1.59839e-20
9.93807e-20
5.68828e-19
3.15913e-18
1.44468e-17
6.12209e-17
2.83186e-16
1.25315e-15
4.91763e-15
1.76262e-14
5.83151e-14
1.97723e-13
6.53155e-13
2.10695e-12
6.72761e-12
1.99195e-11
5.36862e-11
1.14351e-10
2.0822e-10
4.20294e-10
1.10998e-09
3.63466e-09
1.24712e-08
4.06274e-08
1.22746e-07
3.39814e-07
8.7499e-07
2.11058e-06
4.8045e-06
1.03953e-05
2.15143e-05
4.27628e-05
8.19726e-05
0.00015207
0.000272716
0.000473938
0.000795446
0.00128935
0.00204102
0.00296864
0.00348091
0.00347043
0.00305809
0.00242527
0.00174177
0.00110747
0.000634561
0.000320537
0.000142219
5.68343e-05
2.16358e-05
8.25138e-06
3.1805e-06
8.21445e-07
9.62541e-25
1.33321e-25
3.81505e-25
3.78187e-25
8.25905e-26
3.18182e-25
6.19157e-26
3.96909e-25
8.49397e-25
1.24694e-25
5.17188e-26
6.84925e-25
9.79532e-26
2.48736e-26
2.63046e-25
2.88475e-25
4.65873e-26
1.04371e-26
6.49287e-26
1.12075e-24
1.80791e-25
7.29833e-25
1.20787e-25
7.88252e-26
1.09542e-24
2.16388e-25
1.32197e-24
2.13439e-25
9.45401e-25
4.61061e-24
5.92094e-25
4.49078e-25
3.5155e-25
1.20011e-25
7.03702e-25
1.63215e-23
2.18538e-24
1.83533e-24
2.3079e-24
1.16417e-24
3.0044e-24
1.23673e-24
2.09345e-23
9.27327e-23
5.08132e-22
3.34335e-21
2.15294e-20
1.29414e-19
7.56889e-19
3.56367e-18
1.60017e-17
7.91576e-17
3.64513e-16
1.52038e-15
5.77376e-15
1.84784e-14
6.11012e-14
2.04591e-13
6.67917e-13
2.12502e-12
6.72151e-12
1.97635e-11
5.30287e-11
1.12903e-10
2.05057e-10
4.11603e-10
1.0825e-09
3.55511e-09
1.2282e-08
4.03214e-08
1.22842e-07
3.42168e-07
8.85503e-07
2.14484e-06
4.90175e-06
1.0755e-05
2.22406e-05
4.42466e-05
8.48455e-05
0.000157355
0.000281775
0.000488961
0.000819222
0.00134168
0.00211722
0.00302385
0.00349659
0.00345016
0.00301472
0.00235867
0.00167862
0.00105815
0.000599584
0.000299399
0.000131388
5.23528e-05
1.99535e-05
7.64917e-06
2.96873e-06
7.69406e-07
1.26628e-26
1.20254e-26
2.30906e-25
3.53312e-25
2.44812e-25
5.46153e-26
5.68507e-25
7.61534e-26
2.96087e-26
2.96077e-25
3.08364e-25
4.8695e-26
1.41655e-26
6.98902e-26
3.07664e-25
1.92987e-25
1.67532e-25
5.11265e-26
7.58456e-25
1.21265e-25
7.39398e-26
1.49254e-24
2.50731e-25
7.84844e-25
1.03546e-24
6.71073e-25
1.60673e-25
5.10368e-25
2.6804e-25
5.17914e-24
8.05459e-25
4.35679e-24
9.06827e-24
1.60944e-24
1.35139e-24
2.75042e-23
9.88136e-24
1.1019e-23
1.46247e-24
6.39919e-24
9.20861e-25
5.51653e-24
3.27078e-23
1.15438e-22
6.75473e-22
4.37352e-21
2.71517e-20
1.63333e-19
8.26899e-19
3.81412e-18
1.95509e-17
9.45902e-17
4.37534e-16
1.85577e-15
6.10994e-15
1.94839e-14
6.39221e-14
2.10782e-13
6.79575e-13
2.14599e-12
6.73609e-12
1.96991e-11
5.26334e-11
1.11869e-10
2.02768e-10
4.05674e-10
1.06723e-09
3.51346e-09
1.2211e-08
4.03307e-08
1.23711e-07
3.46267e-07
9.00464e-07
2.19116e-06
5.02297e-06
1.10486e-05
2.28805e-05
4.55852e-05
8.7448e-05
0.00016219
0.000290664
0.000504522
0.000845247
0.00138291
0.00218083
0.00306854
0.00350687
0.00342854
0.0029717
0.00230705
0.00162846
0.00101827
0.000571552
0.000282665
0.000123042
4.88605e-05
1.86422e-05
7.17997e-06
2.8104e-06
7.29977e-07
6.94677e-27
1.916e-25
2.50961e-26
8.38931e-27
5.14127e-26
1.7922e-26
1.39234e-25
2.16264e-26
5.45168e-27
3.17699e-27
1.53869e-26
2.3422e-25
3.38276e-26
2.97508e-26
4.71735e-25
6.09329e-26
1.10303e-26
7.29569e-26
5.29518e-26
8.56264e-25
1.24464e-25
8.23449e-26
1.39807e-24
1.9458e-25
6.94707e-26
1.3613e-25
2.35942e-24
2.81949e-25
1.40614e-25
2.087e-24
1.27417e-24
9.09924e-24
1.47389e-24
1.1452e-23
3.5483e-24
6.17008e-23
2.19247e-22
2.28362e-23
3.00206e-24
1.07561e-23
1.62141e-24
7.5249e-24
1.16126e-23
1.4837e-22
8.8587e-22
5.47139e-21
3.51815e-20
1.83027e-19
8.98921e-19
4.56785e-18
2.30174e-17
1.10322e-16
4.90415e-16
2.03439e-15
6.60508e-15
2.06203e-14
6.61644e-14
2.16385e-13
6.88899e-13
2.15676e-12
6.72634e-12
1.95878e-11
5.22e-11
1.10939e-10
2.01006e-10
4.01511e-10
1.05473e-09
3.47757e-09
1.21483e-08
4.03366e-08
1.24392e-07
3.49532e-07
9.12097e-07
2.22476e-06
5.11336e-06
1.1276e-05
2.33749e-05
4.66062e-05
8.94878e-05
0.000166084
0.000297674
0.000516672
0.000865085
0.00141392
0.00222898
0.00310136
0.00351279
0.00340968
0.00293648
0.00226643
0.00158918
0.000988012
0.000550571
0.000270353
0.000117078
4.63636e-05
1.77003e-05
6.83805e-06
2.68702e-06
6.99298e-07
1.18255e-26
3.32177e-25
4.39291e-26
3.62281e-26
4.06291e-25
2.24142e-25
2.88858e-26
5.70384e-27
1.8093e-27
2.05305e-26
4.61064e-25
6.48031e-26
1.94779e-25
2.02767e-25
3.99129e-25
7.74587e-26
1.00331e-26
1.40204e-26
1.03988e-25
3.50148e-26
2.51659e-25
5.64697e-26
1.81688e-26
6.9166e-26
1.7906e-24
1.5872e-24
1.99226e-25
6.85415e-26
9.35141e-25
1.13487e-24
1.36875e-25
7.64741e-26
2.62061e-25
4.85777e-24
1.41283e-23
2.42494e-23
7.13859e-24
2.55668e-24
1.13044e-23
1.23646e-23
7.4924e-24
7.99528e-24
3.34596e-23
1.86766e-22
1.06925e-21
6.62363e-21
3.90767e-20
1.87741e-19
1.02593e-18
5.29101e-18
2.59334e-17
1.21394e-16
5.30214e-16
2.16291e-15
6.94495e-15
2.14932e-14
6.79617e-14
2.19881e-13
6.94829e-13
2.16025e-12
6.69965e-12
1.9444e-11
5.17265e-11
1.10015e-10
1.99272e-10
3.97375e-10
1.04234e-09
3.43862e-09
1.2061e-08
4.02108e-08
1.24515e-07
3.5102e-07
9.18588e-07
2.24657e-06
5.17418e-06
1.14317e-05
2.37321e-05
4.73481e-05
9.0962e-05
0.000168885
0.000302704
0.000525308
0.000879158
0.00143561
0.00226244
0.00312361
0.0035158
0.00339499
0.00291019
0.00223665
0.00156055
0.0009663
0.000535611
0.000261612
0.000112832
4.46009e-05
1.70393e-05
6.59724e-06
2.59935e-06
6.77368e-07
5.07739e-28
1.00096e-26
2.17823e-25
5.50258e-25
7.20521e-26
1.63569e-26
9.69157e-26
2.31459e-25
4.28429e-26
3.57255e-25
4.66416e-26
1.04573e-26
2.99503e-27
5.65782e-27
3.40197e-27
5.75561e-27
9.15659e-27
7.64591e-26
5.02432e-26
4.72109e-25
2.59649e-25
7.10078e-25
9.23705e-26
1.31458e-26
1.61757e-26
5.74265e-26
7.07136e-26
8.3746e-25
4.42129e-24
4.97102e-25
7.98805e-26
2.13713e-26
7.74221e-26
1.13155e-25
1.98394e-24
1.13697e-23
2.60296e-22
6.97482e-23
7.20866e-24
1.36047e-24
1.37947e-23
3.63005e-24
4.9266e-23
2.25975e-22
1.31625e-21
8.09954e-21
4.23846e-20
2.19573e-19
1.18302e-18
6.01664e-18
2.93224e-17
1.33707e-16
5.71246e-16
2.28731e-15
7.25002e-15
2.217e-14
6.9321e-14
2.22218e-13
6.96736e-13
2.15239e-12
6.64308e-12
1.92329e-11
5.11212e-11
1.08973e-10
1.97268e-10
3.92043e-10
1.02711e-09
3.38836e-09
1.19267e-08
3.98976e-08
1.23967e-07
3.5053e-07
9.19636e-07
2.25427e-06
5.20166e-06
1.15141e-05
2.39251e-05
4.77722e-05
9.18243e-05
0.000170582
0.000305764
0.000530587
0.000887797
0.0014489
0.00228289
0.00313703
0.0035169
0.00338462
0.00289223
0.00221647
0.00154121
0.000951685
0.000525555
0.000255741
0.000109972
4.34153e-05
1.6592e-05
6.43386e-06
2.53959e-06
6.62374e-07
1.05179e-26
1.40865e-27
2.37783e-27
2.3905e-26
4.21038e-25
3.53651e-25
2.62092e-25
4.15247e-26
2.14898e-25
3.11153e-26
1.60325e-26
2.25449e-25
3.19847e-26
5.57522e-27
1.77289e-26
2.47525e-25
3.86007e-25
1.44059e-24
1.59589e-24
1.92431e-25
2.59809e-26
4.09474e-26
6.12854e-25
8.5097e-26
1.27455e-25
2.36617e-24
5.88215e-25
3.35825e-24
4.00564e-25
1.10124e-25
3.04814e-26
1.79344e-26
1.17081e-25
1.26582e-25
2.87386e-24
7.84157e-23
2.22723e-21
2.18956e-22
2.63612e-23
2.38373e-24
9.61513e-25
1.77473e-23
5.43445e-23
2.69069e-22
1.46705e-21
7.816e-21
4.62871e-20
2.56637e-19
1.35171e-18
6.82158e-18
3.22979e-17
1.44256e-16
6.05748e-16
2.3883e-15
7.47362e-15
2.26431e-14
7.01631e-14
2.23085e-13
6.94451e-13
2.13237e-12
6.54732e-12
1.88875e-11
5.02393e-11
1.07365e-10
1.94552e-10
3.85578e-10
1.00429e-09
3.31708e-09
1.17002e-08
3.93046e-08
1.22507e-07
3.47698e-07
9.1507e-07
2.2484e-06
5.19806e-06
1.15286e-05
2.39765e-05
4.79098e-05
9.21406e-05
0.000171311
0.000307115
0.00053299
0.000891834
0.00145521
0.00229265
0.00314345
0.00351683
0.00337816
0.00288135
0.00220422
0.00152939
0.000942726
0.000519359
0.00025211
0.000108204
4.26762e-05
1.63115e-05
6.33062e-06
2.50154e-06
6.52781e-07
8.19745e-28
2.30342e-27
7.08663e-27
1.34642e-25
2.14815e-26
6.0023e-26
1.30004e-26
1.10502e-25
2.09999e-26
1.48838e-25
2.64918e-25
3.96171e-25
4.47047e-25
8.72527e-26
6.78084e-25
1.43844e-24
4.08158e-25
7.74564e-25
9.2302e-25
2.16917e-25
4.58975e-26
1.44095e-25
9.95508e-25
1.94025e-25
1.82473e-24
2.7623e-25
1.28756e-24
2.29716e-25
2.1535e-25
3.1836e-24
3.5426e-25
3.02519e-25
5.21328e-24
6.08634e-25
1.4396e-25
1.2584e-24
1.01237e-23
2.76601e-24
4.01753e-24
6.90646e-25
4.60628e-25
9.36143e-24
5.99961e-23
2.8616e-22
1.52489e-21
9.27442e-21
5.34022e-20
2.92884e-19
1.53919e-18
7.58993e-18
3.53294e-17
1.55137e-16
6.38748e-16
2.45344e-15
7.6251e-15
2.29897e-14
7.05835e-14
2.22786e-13
6.89347e-13
2.10672e-12
6.4444e-12
1.85403e-11
4.92349e-11
1.05683e-10
1.91586e-10
3.78016e-10
9.8029e-10
3.23452e-09
1.14297e-08
3.85086e-08
1.20486e-07
3.43231e-07
9.05817e-07
2.2303e-06
5.16475e-06
1.14811e-05
2.39028e-05
4.7806e-05
9.20096e-05
0.000171253
0.000307089
0.00053309
0.000892213
0.00145601
0.00229406
0.00314444
0.00351595
0.00337488
0.00287612
0.00219817
0.00152341
0.000938108
0.000516101
0.000250168
0.000107245
4.22727e-05
1.61563e-05
6.27271e-06
2.47992e-06
6.47292e-07
5.15483e-27
1.34651e-25
2.74698e-25
8.84669e-26
9.81399e-26
1.73665e-25
2.58866e-26
7.07011e-27
5.50707e-27
1.0953e-25
1.63547e-26
7.00871e-27
3.24523e-26
7.05661e-25
5.63083e-25
5.82949e-25
2.73e-25
3.059e-25
4.8006e-26
4.78014e-26
1.10022e-24
1.44317e-25
6.68497e-26
9.56336e-25
2.36839e-24
3.01106e-25
1.04971e-24
3.25246e-24
3.88189e-24
1.46322e-24
3.36098e-25
2.77967e-24
2.8213e-24
3.22197e-24
1.08015e-24
1.89564e-23
2.59358e-24
1.49609e-23
8.34499e-24
1.20923e-23
1.62826e-24
1.38216e-23
6.93194e-23
3.0547e-22
1.80141e-21
1.06815e-20
6.12981e-20
3.36213e-19
1.73933e-18
8.50771e-18
3.94046e-17
1.72662e-16
7.17392e-16
2.46265e-15
7.72818e-15
2.31964e-14
7.05957e-14
2.21272e-13
6.8044e-13
2.06505e-12
6.28976e-12
1.80813e-11
4.82482e-11
1.03984e-10
1.88641e-10
3.70465e-10
9.54763e-10
3.14269e-09
1.11396e-08
3.76436e-08
1.18078e-07
3.37439e-07
8.92675e-07
2.20339e-06
5.11401e-06
1.13948e-05
2.3743e-05
4.7532e-05
9.15493e-05
0.000170599
0.000306022
0.000531443
0.000889806
0.00145261
0.00228904
0.00314137
0.00351453
0.00337403
0.00287514
0.00219675
0.0015218
0.000936707
0.000515007
0.000249465
0.000106877
4.21106e-05
1.60915e-05
6.24751e-06
2.47018e-06
6.44778e-07
1.95173e-25
3.21156e-26
2.14814e-25
4.46904e-25
3.93291e-25
1.83556e-25
4.09592e-25
3.61982e-25
6.61711e-26
5.65816e-25
7.60735e-26
1.6297e-25
1.50515e-25
7.61533e-26
2.95635e-25
2.05516e-25
2.13289e-25
5.23784e-26
3.92601e-25
4.82872e-26
2.77303e-26
4.13487e-25
3.72084e-25
4.88064e-26
3.36299e-26
4.38891e-26
5.11281e-26
1.09598e-25
1.29035e-24
3.2805e-25
4.4338e-24
7.47768e-25
8.01188e-24
1.45224e-23
2.66911e-24
2.58473e-23
5.90757e-24
5.05133e-23
5.02946e-24
2.44674e-24
7.58987e-25
1.06972e-23
5.34841e-23
3.41595e-22
2.04301e-21
1.20446e-20
6.86735e-20
3.73382e-19
1.91398e-18
9.27306e-18
4.25649e-17
1.84739e-16
7.54374e-16
2.44864e-15
7.81382e-15
2.33239e-14
7.03402e-14
2.19203e-13
6.70569e-13
2.03048e-12
6.15905e-12
1.76688e-11
4.7115e-11
1.02215e-10
1.85708e-10
3.63103e-10
9.30044e-10
3.0524e-09
1.08493e-08
3.68323e-08
1.15208e-07
3.30676e-07
8.77617e-07
2.17171e-06
5.05029e-06
1.12761e-05
2.35223e-05
4.71285e-05
9.08534e-05
0.000169523
0.000304232
0.000528577
0.000885422
0.00144616
0.00227929
0.0031352
0.00351263
0.00337495
0.00287723
0.00219866
0.0015233
0.000937615
0.000515462
0.000249643
0.000106928
4.2119e-05
1.609e-05
6.24526e-06
2.46879e-06
6.44357e-07
3.78835e-27
1.37024e-26
3.56115e-25
3.15387e-25
2.35616e-25
4.59986e-25
5.75962e-26
9.2255e-27
8.59068e-27
1.93873e-25
2.82524e-26
3.99603e-26
8.39181e-25
1.36554e-25
7.77156e-25
1.06061e-25
2.82729e-25
6.40393e-25
5.57593e-25
1.70023e-25
4.92626e-26
3.76586e-25
5.60127e-26
5.18271e-26
9.03823e-25
2.52826e-24
2.35523e-24
1.26736e-24
1.9949e-24
2.76704e-25
1.47577e-24
1.75011e-25
1.88642e-25
3.31032e-24
1.93457e-23
2.01473e-23
1.0187e-22
1.00869e-23
7.72553e-24
9.79057e-25
5.54785e-24
1.69909e-23
6.29605e-23
3.97681e-22
2.26321e-21
1.32548e-20
7.50846e-20
4.0188e-19
2.03262e-18
9.72438e-18
4.40835e-17
1.89004e-16
7.61482e-16
2.43472e-15
7.91839e-15
2.34044e-14
6.99086e-14
2.1645e-13
6.59523e-13
1.99014e-12
6.03359e-12
1.72725e-11
4.60865e-11
1.00447e-10
1.8271e-10
3.55499e-10
9.04118e-10
2.95496e-09
1.05192e-08
3.58201e-08
1.12403e-07
3.23821e-07
8.61376e-07
2.13578e-06
4.97523e-06
1.11354e-05
2.32548e-05
4.6647e-05
9.00042e-05
0.000168143
0.000301862
0.00052476
0.000879599
0.00143769
0.00226643
0.00312703
0.00351046
0.00337709
0.00288149
0.00220293
0.00152699
0.000940053
0.000516928
0.000250397
0.000107255
4.22425e-05
1.6132e-05
6.25888e-06
2.47319e-06
6.45387e-07
4.82806e-29
4.02382e-28
9.32888e-27
1.95178e-25
5.86968e-26
7.1353e-26
1.59232e-26
6.09063e-27
8.10007e-27
2.39743e-26
3.99237e-25
4.23818e-25
7.93832e-25
7.56669e-25
1.26897e-25
2.69606e-26
8.01651e-26
2.01107e-24
1.02891e-24
1.62282e-25
8.99964e-25
1.21265e-25
4.35848e-25
9.81989e-25
1.39309e-25
6.08679e-25
1.46402e-25
5.147e-26
6.29422e-26
7.86105e-25
1.23422e-25
5.49345e-26
9.11528e-26
4.19375e-25
4.76457e-24
9.12955e-25
4.01889e-24
1.23544e-24
8.30162e-24
9.42778e-25
7.09375e-25
9.40923e-24
6.99211e-23
4.43675e-22
2.4494e-21
1.43208e-20
7.99125e-20
4.23016e-19
2.11809e-18
1.00345e-17
4.50473e-17
1.91484e-16
7.63421e-16
2.41967e-15
7.98652e-15
2.34352e-14
6.9434e-14
2.1398e-13
6.49648e-13
1.95107e-12
5.89269e-12
1.68597e-11
4.5135e-11
9.87945e-11
1.79947e-10
3.48441e-10
8.79758e-10
2.86671e-09
1.01992e-08
3.48385e-08
1.09672e-07
3.16882e-07
8.45369e-07
2.10073e-06
4.90169e-06
1.09864e-05
2.29717e-05
4.61263e-05
8.90665e-05
0.000166613
0.000299288
0.000520588
0.000873155
0.00142815
0.00225201
0.00311783
0.00350809
0.00337977
0.00288678
0.0022084
0.00153186
0.000943436
0.000519067
0.000251546
0.000107767
4.24409e-05
1.62019e-05
6.28261e-06
2.48128e-06
6.47339e-07
2.35627e-27
4.78186e-28
4.73931e-27
1.26114e-25
4.90388e-26
1.26293e-25
3.55889e-25
5.70525e-26
3.75474e-25
5.08236e-25
5.23362e-25
8.53626e-25
1.28917e-25
5.08493e-25
6.17166e-26
1.50123e-26
1.45122e-25
1.78609e-25
7.3725e-26
1.01089e-24
1.14315e-25
3.57362e-26
2.62849e-25
4.22931e-26
4.39512e-26
1.03601e-24
2.68766e-24
1.69032e-24
2.20411e-25
1.1394e-24
1.43257e-25
2.05149e-25
4.93491e-24
1.42156e-23
1.98252e-24
1.24444e-23
3.90463e-24
5.45719e-25
5.09637e-25
1.27009e-23
9.82065e-24
2.12067e-23
8.48769e-23
4.66334e-22
2.60815e-21
1.5103e-20
8.36642e-20
4.39599e-19
2.18531e-18
1.02802e-17
4.58092e-17
1.92995e-16
7.63738e-16
2.40619e-15
8.01864e-15
2.33947e-14
6.87916e-14
2.11192e-13
6.38815e-13
1.91548e-12
5.76924e-12
1.64835e-11
4.41896e-11
9.72787e-11
1.77419e-10
3.42002e-10
8.57384e-10
2.78273e-09
9.90548e-09
3.39414e-08
1.07165e-07
3.1048e-07
8.30207e-07
2.06688e-06
4.83161e-06
1.08434e-05
2.26986e-05
4.56212e-05
8.81729e-05
0.00016514
0.000296787
0.000516516
0.000866842
0.00141878
0.00223775
0.00310865
0.00350575
0.00338258
0.00289229
0.00221418
0.00153702
0.000947041
0.000521368
0.000252798
0.000108342
4.26662e-05
1.62823e-05
6.31023e-06
2.49082e-06
6.49663e-07
1.93488e-27
3.39587e-27
5.88104e-27
1.33999e-25
1.79502e-26
7.08221e-27
8.03773e-26
1.62304e-26
9.60906e-27
1.79255e-26
3.06159e-25
8.27076e-25
1.05539e-25
3.58401e-26
4.97281e-25
8.74258e-26
7.74295e-25
1.38769e-25
2.18779e-26
3.22123e-26
4.59673e-26
6.84121e-25
8.26243e-26
1.0377e-26
1.35108e-26
1.45844e-25
2.79297e-24
3.22382e-25
5.46095e-26
1.64278e-25
1.427e-24
1.52606e-25
1.25482e-25
2.13267e-24
5.89184e-25
4.67457e-24
1.01257e-22
9.98151e-24
1.277e-24
6.30622e-24
1.43437e-24
1.78382e-23
9.60413e-23
4.72715e-22
2.73236e-21
1.57198e-20
8.65583e-20
4.52004e-19
2.23331e-18
1.04427e-17
4.62848e-17
1.93936e-16
7.63385e-16
2.39418e-15
8.03306e-15
2.33308e-14
6.81759e-14
2.08433e-13
6.29042e-13
1.88177e-12
5.66199e-12
1.61709e-11
4.34217e-11
9.60233e-11
1.75295e-10
3.36645e-10
8.38948e-10
2.71375e-09
9.65707e-09
3.31767e-08
1.05017e-07
3.04954e-07
8.17046e-07
2.03786e-06
4.77072e-06
1.07187e-05
2.246e-05
4.51798e-05
8.73835e-05
0.000163826
0.000294552
0.00051287
0.000861149
0.00141029
0.0022248
0.00310028
0.00350362
0.00338521
0.00289747
0.00221966
0.001542
0.000950512
0.000523591
0.000254014
0.000108901
4.2886e-05
1.6361e-05
6.33748e-06
2.5003e-06
6.51979e-07
3.10065e-25
1.08376e-25
7.98701e-26
1.92282e-26
2.08396e-25
2.86652e-26
2.40184e-26
4.56813e-25
6.49318e-25
3.29717e-25
4.52486e-26
4.60509e-26
8.35483e-25
1.47551e-25
1.10697e-24
1.36479e-25
1.99185e-25
3.47826e-25
4.81675e-25
1.37386e-24
1.8403e-24
2.26579e-25
4.31718e-25
4.78032e-26
9.60032e-27
1.04847e-26
2.09646e-26
5.8268e-26
1.26031e-24
8.85067e-24
2.75224e-24
2.84258e-25
8.7883e-26
1.42238e-25
2.11938e-24
5.38566e-23
8.14444e-23
3.04405e-23
1.17977e-23
1.33864e-24
8.35014e-24
2.0337e-23
9.52574e-23
4.95773e-22
2.83746e-21
1.62172e-20
8.87913e-20
4.61572e-19
2.2704e-18
1.05686e-17
4.66425e-17
1.94601e-16
7.62974e-16
2.38515e-15
8.03617e-15
2.32621e-14
6.76474e-14
2.06385e-13
6.21868e-13
1.85753e-12
5.58186e-12
1.59186e-11
4.27775e-11
9.49041e-11
1.73517e-10
3.32282e-10
8.24074e-10
2.65814e-09
9.4608e-09
3.25718e-08
1.03327e-07
3.00615e-07
8.06727e-07
2.01463e-06
4.72169e-06
1.06179e-05
2.22666e-05
4.4821e-05
8.67399e-05
0.000162748
0.000292716
0.000509874
0.000856467
0.00140328
0.00221408
0.0030933
0.00350182
0.0033874
0.00290181
0.00222428
0.00154619
0.000953438
0.000525472
0.000255043
0.00010937
4.3072e-05
1.64281e-05
6.36086e-06
2.50848e-06
6.53987e-07
7.40914e-27
8.40328e-26
5.90701e-25
1.79524e-25
3.39519e-26
2.45373e-25
3.10915e-26
1.17455e-26
4.13123e-26
2.19621e-26
2.96914e-25
2.27324e-25
3.09967e-25
1.20229e-24
7.27887e-25
9.21186e-26
7.40655e-26
1.44011e-24
1.76845e-25
9.10391e-26
1.60702e-24
1.81705e-25
2.54e-26
1.17945e-26
5.29259e-26
8.71861e-25
1.21372e-25
7.22387e-25
1.76371e-25
2.33919e-24
2.87534e-25
2.48616e-25
5.27729e-24
5.54855e-25
2.8787e-25
1.81349e-24
1.59051e-24
4.15704e-25
3.20082e-25
1.46137e-25
2.0728e-24
2.04443e-23
9.26246e-23
4.9691e-22
2.91132e-21
1.65699e-20
9.0412e-20
4.68496e-19
2.29749e-18
1.06636e-17
4.69041e-17
1.95126e-16
7.62841e-16
2.37916e-15
8.03678e-15
2.32118e-14
6.72831e-14
2.04915e-13
6.16674e-13
1.84007e-12
5.52482e-12
1.57471e-11
4.2344e-11
9.41624e-11
1.72312e-10
3.29285e-10
8.13827e-10
2.61976e-09
9.32192e-09
3.21461e-08
1.02135e-07
2.97511e-07
7.99277e-07
1.99811e-06
4.68672e-06
1.05457e-05
2.21277e-05
4.45628e-05
8.62756e-05
0.000161966
0.000291383
0.00050769
0.000853069
0.00139819
0.00220629
0.00308821
0.0035005
0.00338898
0.00290497
0.00222767
0.00154927
0.000955589
0.000526857
0.000255803
0.000109719
4.32104e-05
1.64779e-05
6.37822e-06
2.51455e-06
6.55475e-07
2.09018e-25
3.41328e-26
1.7621e-25
1.58288e-25
1.15092e-25
3.7539e-25
9.6356e-26
2.78731e-25
6.19786e-26
6.41505e-25
8.54643e-26
1.54838e-26
6.62992e-27
3.1213e-26
5.09461e-25
8.16617e-26
4.80038e-25
7.7719e-26
1.26683e-26
1.58189e-26
3.12043e-25
6.65087e-26
3.16463e-25
8.57733e-25
1.2656e-25
6.07505e-25
1.59073e-25
2.40343e-24
6.56224e-25
1.17436e-25
6.18817e-26
7.41887e-26
1.14194e-24
5.2201e-25
8.76143e-24
2.79665e-23
6.18065e-23
6.38932e-24
9.98542e-24
1.04412e-24
2.03595e-24
1.61115e-23
9.34888e-23
5.08208e-22
2.94631e-21
1.67934e-20
9.14894e-20
4.7313e-19
2.31542e-18
1.07247e-17
4.70783e-17
1.95495e-16
7.63027e-16
2.37649e-15
8.04017e-15
2.3192e-14
6.71085e-14
2.0419e-13
6.14033e-13
1.83098e-12
5.49453e-12
1.56581e-11
4.2121e-11
9.37764e-11
1.71674e-10
3.27705e-10
8.08408e-10
2.5993e-09
9.24844e-09
3.19183e-08
1.0149e-07
2.95854e-07
7.95304e-07
1.98919e-06
4.66781e-06
1.05065e-05
2.20522e-05
4.44222e-05
8.60222e-05
0.000161537
0.00029065
0.000506487
0.000851186
0.00139538
0.00220198
0.00308539
0.00349975
0.00338984
0.00290671
0.00222953
0.00155096
0.000956772
0.000527619
0.000256222
0.000109913
4.32865e-05
1.65053e-05
6.3877e-06
2.51787e-06
6.56288e-07
1.04527e-26
3.00777e-25
2.69271e-25
1.60557e-25
2.32574e-25
7.38337e-25
1.74643e-25
2.70813e-25
3.37977e-26
3.35263e-26
5.77616e-25
4.52874e-25
5.91627e-26
7.37934e-27
4.98512e-27
2.98065e-26
5.8797e-25
6.24362e-25
3.19469e-25
8.45503e-26
7.35652e-26
1.59784e-24
1.87547e-25
6.93217e-26
1.1326e-24
1.50552e-25
5.48042e-25
8.02411e-26
2.10788e-25
4.64e-24
3.72875e-24
3.10838e-24
3.2052e-25
4.06197e-26
1.43449e-25
2.32311e-24
3.2221e-23
3.47033e-23
3.21248e-23
8.32045e-24
1.17982e-23
2.36705e-23
1.04687e-22
5.15579e-22
2.97459e-21
1.69231e-20
9.21379e-20
4.75953e-19
2.32678e-18
1.07663e-17
4.7214e-17
1.95858e-16
7.63732e-16
2.37692e-15
8.04992e-15
2.32036e-14
6.70938e-14
2.04061e-13
6.13488e-13
1.82902e-12
5.48798e-12
1.56384e-11
4.20717e-11
9.36921e-11
1.7154e-10
3.27393e-10
8.07389e-10
2.59556e-09
9.23505e-09
3.18779e-08
1.01377e-07
2.95569e-07
7.94631e-07
1.9877e-06
4.6647e-06
1.05002e-05
2.20401e-05
4.43999e-05
8.59825e-05
0.00016147
0.000290537
0.000506302
0.000850899
0.00139495
0.00220132
0.00308496
0.00349963
0.00338996
0.00290694
0.00222978
0.00155118
0.000956927
0.000527716
0.000256273
0.000109935
4.32954e-05
1.65084e-05
6.38877e-06
2.51823e-06
6.56374e-07
5.55438e-26
8.30516e-27
4.07474e-27
1.2138e-26
1.57216e-25
2.33345e-26
5.09634e-27
4.94072e-27
1.20387e-26
2.90701e-25
3.8865e-26
1.87124e-26
1.32547e-25
1.5809e-26
7.79354e-27
2.60924e-26
6.70586e-25
7.6343e-25
9.79506e-26
1.92372e-26
4.79207e-27
5.57377e-26
1.07264e-24
2.16923e-25
2.59068e-24
6.87934e-25
8.76443e-26
1.67924e-26
1.48815e-25
3.1714e-24
1.29146e-24
1.88247e-25
4.37813e-26
3.49986e-26
6.55488e-26
2.7372e-25
2.30377e-24
4.81968e-24
6.69669e-25
1.61009e-24
1.09719e-24
2.07993e-23
9.67245e-23
5.16143e-22
2.97277e-21
1.69802e-20
9.24061e-20
4.77241e-19
2.33274e-18
1.07927e-17
4.73249e-17
1.96297e-16
7.65358e-16
2.38182e-15
8.07064e-15
2.32636e-14
6.73095e-14
2.04762e-13
6.15716e-13
1.83615e-12
5.51079e-12
1.57054e-11
4.22375e-11
9.39708e-11
1.71992e-10
3.28512e-10
8.11225e-10
2.60992e-09
9.28644e-09
3.20379e-08
1.01832e-07
2.96747e-07
7.97468e-07
1.99408e-06
4.67827e-06
1.05282e-05
2.20946e-05
4.45018e-05
8.61667e-05
0.000161782
0.000291071
0.00050718
0.000852276
0.00139701
0.00220449
0.00308703
0.00350017
0.00338928
0.0029056
0.00222833
0.00154986
0.000955992
0.000527108
0.000255936
0.00010978
4.32332e-05
1.64858e-05
6.38082e-06
2.51542e-06
6.55683e-07
4.14753e-28
1.12865e-27
2.47811e-27
4.60066e-26
6.9179e-27
4.19852e-27
1.52649e-26
3.04974e-25
4.98481e-26
3.64489e-25
6.98047e-26
5.22291e-25
6.81511e-26
1.12526e-26
8.07651e-27
5.46151e-26
1.24541e-24
3.16004e-25
4.84372e-25
6.21968e-26
2.65042e-26
3.53231e-25
5.16351e-26
4.71465e-26
1.07212e-24
1.80998e-25
1.6146e-24
3.17245e-25
3.22045e-24
4.1107e-24
4.49765e-25
1.83615e-25
3.61371e-24
2.52029e-24
8.59479e-24
2.73463e-23
2.71061e-24
3.85585e-25
4.35832e-26
9.04376e-26
1.55165e-24
1.54455e-23
1.00281e-22
5.24227e-22
2.97023e-21
1.69342e-20
9.22188e-20
4.76717e-19
2.33227e-18
1.08002e-17
4.7399e-17
1.96762e-16
7.67739e-16
2.39097e-15
8.10274e-15
2.33731e-14
6.77567e-14
2.06282e-13
6.20633e-13
1.85196e-12
5.56172e-12
1.58555e-11
4.26082e-11
9.45946e-11
1.72997e-10
3.30985e-10
8.19647e-10
2.64145e-09
9.39899e-09
3.23879e-08
1.02823e-07
2.99321e-07
8.03652e-07
2.00804e-06
4.70798e-06
1.05897e-05
2.22134e-05
4.47239e-05
8.65678e-05
0.00016246
0.000292232
0.000509086
0.00085526
0.00140148
0.00221134
0.00309152
0.00350132
0.00338783
0.00290273
0.00222525
0.00154704
0.000954017
0.000525826
0.000255231
0.000109458
4.31045e-05
1.6439e-05
6.36438e-06
2.50962e-06
6.54253e-07
9.25884e-27
1.63758e-25
2.61543e-26
1.64859e-25
4.81678e-26
6.19613e-26
5.0328e-25
1.08156e-25
2.84845e-26
3.13788e-25
5.23984e-26
4.02194e-25
3.76574e-25
3.80871e-25
5.60438e-26
2.65181e-25
5.47038e-25
2.66264e-25
8.74443e-25
1.05355e-25
1.35856e-26
1.20976e-26
1.68353e-25
2.09495e-26
5.40593e-26
1.22108e-25
2.83082e-24
3.34263e-25
8.21712e-25
1.83229e-24
2.19308e-24
2.55057e-25
2.57853e-25
2.97271e-24
4.96324e-24
4.40337e-23
1.5846e-23
1.52418e-24
2.34555e-25
2.52033e-24
7.71661e-24
2.24899e-23
8.9232e-23
5.14235e-22
2.94267e-21
1.67846e-20
9.16264e-20
4.74608e-19
2.32648e-18
1.07936e-17
4.7458e-17
1.97349e-16
7.71258e-16
2.40537e-15
8.14953e-15
2.35419e-14
6.84709e-14
2.0875e-13
6.28696e-13
1.87797e-12
5.64489e-12
1.60996e-11
4.32063e-11
9.55825e-11
1.7458e-10
3.34877e-10
8.32916e-10
2.69101e-09
9.57591e-09
3.29328e-08
1.0436e-07
3.03294e-07
8.13186e-07
2.02926e-06
4.75297e-06
1.06826e-05
2.23929e-05
4.50589e-05
8.71725e-05
0.00016348
0.000293976
0.000511949
0.000859723
0.00140816
0.00222156
0.00309819
0.00350301
0.00338566
0.00289844
0.00222067
0.00154287
0.000951089
0.000523932
0.000254185
0.000108974
4.29123e-05
1.63695e-05
6.34006e-06
2.50107e-06
6.5215e-07
3.48935e-25
4.56579e-26
7.55766e-26
3.88629e-25
2.79931e-25
2.47499e-25
4.32932e-25
4.18652e-25
5.9173e-25
7.62192e-26
2.53606e-26
3.87046e-25
1.69363e-25
1.55344e-25
3.48648e-25
8.20575e-25
6.32626e-25
1.10947e-25
5.71271e-26
9.64472e-25
1.81133e-25
3.0414e-26
6.74497e-27
1.36212e-26
7.38278e-26
1.57957e-24
1.02832e-24
2.91724e-25
4.63906e-24
5.1997e-25
1.93335e-25
3.69679e-24
3.80314e-24
6.2012e-25
4.60504e-24
2.34964e-24
4.54395e-25
1.65216e-25
8.05507e-26
2.99435e-25
5.1537e-24
3.11515e-23
9.56354e-23
5.09508e-22
2.90274e-21
1.65655e-20
9.05987e-20
4.70517e-19
2.31306e-18
1.07639e-17
4.74698e-17
1.97962e-16
7.75723e-16
2.42489e-15
8.20828e-15
2.37575e-14
6.94056e-14
2.12026e-13
6.39505e-13
1.91313e-12
5.75843e-12
1.64358e-11
4.40368e-11
9.69042e-11
1.76663e-10
3.40006e-10
8.50448e-10
2.75645e-09
9.80748e-09
3.36479e-08
1.06348e-07
3.0842e-07
8.25434e-07
2.05676e-06
4.81126e-06
1.08029e-05
2.26248e-05
4.54911e-05
8.79514e-05
0.000164789
0.000296216
0.000515602
0.00086543
0.00141669
0.00223461
0.00310665
0.00350512
0.00338287
0.00289298
0.00221486
0.00153758
0.00094738
0.000521543
0.000252868
0.000108365
4.26705e-05
1.6282e-05
6.30948e-06
2.49033e-06
6.4951e-07
2.81929e-27
1.10255e-26
2.78973e-25
3.1651e-25
1.08642e-25
2.3413e-25
7.09556e-25
1.03745e-25
2.95137e-25
3.79906e-26
1.35109e-26
2.30252e-26
4.88721e-25
4.43058e-25
1.71088e-25
6.48158e-26
8.79667e-25
1.09035e-25
1.87115e-25
6.81659e-25
1.37493e-25
1.65409e-24
2.28141e-25
1.22219e-24
2.21106e-24
2.8778e-24
3.53725e-25
8.037e-25
1.74567e-25
5.76478e-25
1.01796e-25
2.2672e-25
4.56127e-24
7.39099e-24
1.55215e-24
1.78208e-23
7.04759e-24
2.74068e-23
1.00924e-23
3.09494e-24
1.31351e-23
2.55892e-23
9.15929e-23
4.85165e-22
2.81725e-21
1.61936e-20
8.90438e-20
4.64236e-19
2.2914e-18
1.07049e-17
4.74056e-17
1.98503e-16
7.80899e-16
2.44847e-15
8.26676e-15
2.40094e-14
7.05211e-14
2.15944e-13
6.5242e-13
1.95485e-12
5.89123e-12
1.68201e-11
4.49524e-11
9.83998e-11
1.79094e-10
3.46093e-10
8.7148e-10
2.83459e-09
1.00839e-08
3.44965e-08
1.08741e-07
3.14571e-07
8.40092e-07
2.08952e-06
4.88038e-06
1.09449e-05
2.28976e-05
4.59979e-05
8.8861e-05
0.000166306
0.000298801
0.000519848