/*--------------------------------*- C++ -*----------------------------------*\
  =========                 |
  \\      /  F ield         | OpenFOAM: The Open Source CFD Toolbox
   \\    /   O peration     | Website:  https://openfoam.org
    \\  /    A nd           | Version:  10
     \\/     M anipulation  |
\*---------------------------------------------------------------------------*/
FoamFile
{
    format      ascii;
    class       volScalarField;
    location    "1";
    object      pC4H9;
}
// * * * * * * * * * * * * * * * * * * * * * * * * * * * * * * * * * * * * * //

dimensions      [0 0 0 0 0 0 0];

internalField   nonuniform List<scalar> 
4000
(
1.64599e-22
2.70988e-22
3.45785e-22
4.54886e-22
6.11717e-22
7.47215e-22
9.11756e-22
1.10953e-21
1.38244e-21
1.79617e-21
2.4376e-21
3.0692e-21
3.74162e-21
4.39813e-21
5.1572e-21
5.99778e-21
6.78297e-21
7.61621e-21
8.66768e-21
9.88147e-21
1.1143e-20
1.27253e-20
1.49506e-20
1.76604e-20
2.2816e-20
3.31367e-20
5.93857e-20
1.32333e-19
3.38903e-19
9.39124e-19
2.69869e-18
7.84211e-18
2.26624e-17
6.50912e-17
1.85751e-16
5.11252e-16
1.42324e-15
3.99993e-15
1.09259e-14
2.93908e-14
7.58949e-14
1.90654e-13
4.63716e-13
1.08813e-12
2.45232e-12
5.60376e-12
1.26044e-11
2.68236e-11
5.27062e-11
9.34982e-11
1.47677e-10
2.07685e-10
2.55046e-10
2.87564e-10
2.99322e-10
3.14145e-10
3.97052e-10
7.44461e-10
2.09416e-09
7.64271e-09
3.10776e-08
1.16831e-07
3.73871e-07
8.62925e-07
1.61063e-06
2.7379e-06
4.32396e-06
6.25607e-06
8.25602e-06
1.02053e-05
1.26223e-05
1.60663e-05
1.89121e-05
1.78282e-05
1.18917e-05
5.54782e-06
2.63214e-06
1.3149e-06
6.71856e-07
3.41298e-07
1.75546e-07
9.21974e-08
4.936e-08
2.68144e-08
1.46837e-08
8.03831e-09
4.36359e-09
2.33132e-09
1.21738e-09
6.17712e-10
3.04159e-10
1.43026e-10
7.09634e-11
3.74978e-11
1.78834e-11
7.48132e-12
2.65017e-12
7.54928e-13
1.81235e-13
2.72201e-14
9.53028e-23
5.53544e-22
8.23692e-22
1.4381e-21
1.96115e-21
2.24934e-21
2.59265e-21
2.90253e-21
3.41967e-21
4.04914e-21
4.62709e-21
5.32629e-21
6.04735e-21
6.64386e-21
7.36066e-21
8.17752e-21
8.91027e-21
9.78992e-21
1.07883e-20
1.20128e-20
1.33205e-20
1.48205e-20
1.71753e-20
2.01731e-20
2.60378e-20
3.78375e-20
6.84598e-20
1.56599e-19
4.13764e-19
1.1708e-18
3.39773e-18
1.03859e-17
3.03122e-17
8.67466e-17
2.46249e-16
6.87838e-16
1.94012e-15
5.29194e-15
1.43369e-14
3.77307e-14
9.73681e-14
2.41458e-13
5.85802e-13
1.36603e-12
3.171e-12
7.32706e-12
1.61805e-11
3.34255e-11
6.3618e-11
1.09589e-10
1.62968e-10
2.16231e-10
2.64707e-10
2.92181e-10
2.99671e-10
3.13188e-10
3.99104e-10
7.54811e-10
2.1177e-09
7.65221e-09
3.08106e-08
1.14733e-07
3.64568e-07
8.40382e-07
1.56419e-06
2.65945e-06
4.21071e-06
6.13761e-06
8.14567e-06
1.0105e-05
1.24911e-05
1.59215e-05
1.88893e-05
1.80233e-05
1.21647e-05
5.68714e-06
2.6914e-06
1.34112e-06
6.83848e-07
3.46758e-07
1.78035e-07
9.33875e-08
4.99441e-08
2.70881e-08
1.48025e-08
8.0843e-09
4.37697e-09
2.33151e-09
1.21323e-09
6.13182e-10
3.00696e-10
1.41117e-10
7.02567e-11
3.70207e-11
1.74088e-11
7.21529e-12
2.52389e-12
7.10161e-13
1.69763e-13
2.54163e-14
6.1186e-22
1.05986e-21
1.76421e-21
2.49279e-21
3.75136e-21
4.11017e-21
4.53122e-21
5.1057e-21
5.86775e-21
6.23166e-21
6.86355e-21
7.38382e-21
7.93985e-21
8.47433e-21
8.9408e-21
9.59519e-21
1.01032e-20
1.08598e-20
1.2094e-20
1.34419e-20
1.50821e-20
1.70048e-20
1.96344e-20
2.3445e-20
2.99871e-20
4.52162e-20
8.30318e-20
1.95729e-19
5.26618e-19
1.51123e-18
4.54752e-18
1.33424e-17
3.83643e-17
1.11225e-16
3.19446e-16
8.94551e-16
2.45434e-15
6.66093e-15
1.78366e-14
4.63219e-14
1.18081e-13
2.82307e-13
7.06868e-13
1.61722e-12
3.8351e-12
8.63077e-12
1.89446e-11
3.84791e-11
7.04246e-11
1.17974e-10
1.72317e-10
2.25575e-10
2.71413e-10
2.95538e-10
2.99185e-10
3.12691e-10
4.00861e-10
7.62346e-10
2.13767e-09
7.68324e-09
3.06786e-08
1.13314e-07
3.57161e-07
8.19065e-07
1.52253e-06
2.58887e-06
4.10565e-06
6.00885e-06
8.0398e-06
1.00169e-05
1.23833e-05
1.57862e-05
1.8867e-05
1.82207e-05
1.24658e-05
5.84449e-06
2.7583e-06
1.3708e-06
6.97428e-07
3.53031e-07
1.81112e-07
9.48958e-08
5.06774e-08
2.74081e-08
1.49374e-08
8.13431e-09
4.38977e-09
2.32973e-09
1.20726e-09
6.06531e-10
2.95757e-10
1.38589e-10
6.94018e-11
3.64178e-11
1.68645e-11
6.91973e-12
2.39285e-12
6.64734e-13
1.57994e-13
2.35843e-14
3.58186e-22
8.0501e-22
1.53361e-21
2.10325e-21
2.71262e-21
3.32878e-21
3.57864e-21
3.96955e-21
4.85947e-21
5.68848e-21
6.46175e-21
7.00273e-21
7.621e-21
8.43774e-21
9.31663e-21
1.03507e-20
1.14941e-20
1.26178e-20
1.38555e-20
1.50413e-20
1.68007e-20
1.98466e-20
2.29939e-20
2.62598e-20
3.40931e-20
5.30836e-20
1.03056e-19
2.4865e-19
6.67633e-19
1.99986e-18
5.83548e-18
1.71015e-17
4.94929e-17
1.42502e-16
4.05686e-16
1.12834e-15
3.07352e-15
8.32511e-15
2.17835e-14
5.74122e-14
1.44855e-13
3.51987e-13
8.54248e-13
1.94977e-12
4.42875e-12
1.00886e-11
2.17329e-11
4.2878e-11
7.87047e-11
1.24626e-10
1.78043e-10
2.35966e-10
2.79876e-10
2.98503e-10
2.9903e-10
3.11627e-10
4.01561e-10
7.67582e-10
2.14931e-09
7.68005e-09
3.04587e-08
1.11737e-07
3.50434e-07
8.03207e-07
1.49008e-06
2.53097e-06
4.01639e-06
5.90822e-06
7.94739e-06
9.93681e-06
1.22794e-05
1.56555e-05
1.88401e-05
1.8387e-05
1.27638e-05
5.93783e-06
2.80438e-06
1.39399e-06
7.09108e-07
3.58793e-07
1.83991e-07
9.64081e-08
5.16011e-08
2.75041e-08
1.49923e-08
8.15726e-09
4.3949e-09
2.32792e-09
1.20566e-09
5.96217e-10
2.89824e-10
1.36077e-10
6.86105e-11
3.58321e-11
1.63558e-11
6.65328e-12
2.27537e-12
6.24799e-13
1.47695e-13
2.19822e-14
2.20566e-22
5.68405e-22
8.84779e-22
1.39785e-21
1.96863e-21
2.43083e-21
3.13314e-21
3.6251e-21
4.33512e-21
5.17768e-21
5.94791e-21
6.72808e-21
7.52468e-21
8.40522e-21
9.67003e-21
1.11443e-20
1.24873e-20
1.34853e-20
1.50011e-20
1.64433e-20
1.83118e-20
2.13837e-20
2.4175e-20
2.85337e-20
3.77688e-20
6.08882e-20
1.26409e-19
3.18635e-19
8.84989e-19
2.56129e-18
7.48315e-18
2.22917e-17
6.3954e-17
1.82721e-16
5.12288e-16
1.41375e-15
3.82043e-15
1.00455e-14
2.67695e-14
6.88482e-14
1.71899e-13
4.17177e-13
9.77335e-13
2.27633e-12
5.1182e-12
1.15129e-11
2.41498e-11
4.79821e-11
8.28359e-11
1.2848e-10
1.87551e-10
2.44041e-10
2.8482e-10
2.99562e-10
2.98729e-10
3.11139e-10
4.0298e-10
7.73685e-10
2.16458e-09
7.70507e-09
3.03784e-08
1.10826e-07
3.45789e-07
7.90581e-07
1.4632e-06
2.48094e-06
3.94911e-06
5.83344e-06
7.88251e-06
9.88083e-06
1.22105e-05
1.55721e-05
1.88284e-05
1.8533e-05
1.29949e-05
6.05826e-06
2.85598e-06
1.41784e-06
7.20229e-07
3.6395e-07
1.86515e-07
9.76872e-08
5.22535e-08
2.7831e-08
1.5142e-08
8.22131e-09
4.41857e-09
2.33373e-09
1.20443e-09
5.93629e-10
2.87382e-10
1.35059e-10
6.84167e-11
3.55269e-11
1.60408e-11
6.46889e-12
2.19138e-12
5.96169e-13
1.40221e-13
2.0818e-14
1.09727e-22
3.53625e-22
7.23998e-22
1.24021e-21
1.70382e-21
2.19881e-21
2.80605e-21
3.33805e-21
3.69048e-21
4.29552e-21
5.09173e-21
6.13502e-21
7.06345e-21
7.89522e-21
9.1138e-21
1.07446e-20
1.21146e-20
1.38771e-20
1.57067e-20
1.82694e-20
2.18134e-20
2.4338e-20
2.78008e-20
3.23236e-20
4.33761e-20
7.27309e-20
1.57978e-19
4.05987e-19
1.15286e-18
3.30552e-18
9.48581e-18
2.84556e-17
8.04784e-17
2.26011e-16
6.19955e-16
1.71752e-15
4.55858e-15
1.17707e-14
3.17434e-14
8.33448e-14
2.03111e-13
4.82272e-13
1.13058e-12
2.59167e-12
5.86829e-12
1.27913e-11
2.72505e-11
5.04771e-11
8.58415e-11
1.36243e-10
1.96438e-10
2.53561e-10
2.91271e-10
3.02113e-10
2.98652e-10
3.10579e-10
4.03583e-10
7.77352e-10
2.17086e-09
7.69532e-09
3.01917e-08
1.09692e-07
3.41181e-07
7.79669e-07
1.44278e-06
2.44781e-06
3.89644e-06
5.76609e-06
7.82235e-06
9.83595e-06
1.21582e-05
1.55023e-05
1.88115e-05
1.86286e-05
1.31528e-05
6.14954e-06
2.89685e-06
1.43674e-06
7.29252e-07
3.68352e-07
1.88709e-07
9.88157e-08
5.28285e-08
2.81468e-08
1.52996e-08
8.29586e-09
4.45082e-09
2.34552e-09
1.20709e-09
5.93812e-10
2.86592e-10
1.34933e-10
6.85954e-11
3.54391e-11
1.5885e-11
6.36116e-12
2.13893e-12
5.77877e-13
1.354e-13
2.00619e-14
7.70045e-23
3.04983e-22
5.69631e-22
9.0838e-22
1.21439e-21
1.59622e-21
2.09418e-21
2.66187e-21
3.58639e-21
4.40874e-21
5.35114e-21
6.28712e-21
7.23021e-21
8.38827e-21
9.43876e-21
1.07414e-20
1.20975e-20
1.34347e-20
1.48158e-20
1.67264e-20
1.95333e-20
2.26127e-20
2.56687e-20
3.2141e-20
4.75241e-20
8.6017e-20
1.93556e-19
4.97716e-19
1.44714e-18
4.18133e-18
1.20191e-17
3.43605e-17
9.7824e-17
2.7413e-16
7.49308e-16
2.05103e-15
5.54247e-15
1.41729e-14
3.79665e-14
9.58984e-14
2.34023e-13
5.57864e-13
1.28706e-12
2.92519e-12
6.47988e-12
1.422e-11
2.91154e-11
5.17887e-11
9.068e-11
1.43661e-10
2.04087e-10
2.5992e-10
2.95268e-10
3.03387e-10
2.98272e-10
3.09851e-10
4.03632e-10
7.78601e-10
2.17039e-09
7.66369e-09
2.99358e-08
1.08396e-07
3.36487e-07
7.6941e-07
1.4238e-06
2.4176e-06
3.85306e-06
5.71085e-06
7.7729e-06
9.7952e-06
1.21093e-05
1.54376e-05
1.87933e-05
1.87179e-05
1.33082e-05
6.23881e-06
2.93761e-06
1.45585e-06
7.38577e-07
3.72868e-07
1.90978e-07
9.9983e-08
5.34324e-08
2.84779e-08
1.547e-08
8.3807e-09
4.49087e-09
2.36287e-09
1.21351e-09
5.9624e-10
2.87134e-10
1.35428e-10
6.90166e-11
3.551e-11
1.58358e-11
6.30869e-12
2.10985e-12
5.67243e-13
1.32537e-13
1.96094e-14
2.05922e-22
4.41447e-22
8.29031e-22
1.3957e-21
1.85996e-21
2.42008e-21
2.86573e-21
3.43307e-21
4.0935e-21
4.82035e-21
5.58306e-21
6.70062e-21
7.86627e-21
9.07957e-21
1.01039e-20
1.14086e-20
1.30393e-20
1.44556e-20
1.60356e-20
1.82099e-20
2.01644e-20
2.25567e-20
2.61649e-20
3.36499e-20
5.20228e-20
1.0022e-19
2.37902e-19
6.3135e-19
1.75637e-18
5.00571e-18
1.45385e-17
4.19978e-17
1.18165e-16
3.2735e-16
8.83945e-16
2.39045e-15
6.40204e-15
1.62119e-14
4.27071e-14
1.09181e-13
2.64853e-13
6.22069e-13
1.44883e-12
3.2505e-12
7.19892e-12
1.55427e-11
3.0117e-11
5.51482e-11
9.57582e-11
1.50093e-10
2.12122e-10
2.6683e-10
2.99618e-10
3.04887e-10
2.98041e-10
3.09125e-10
4.02913e-10
7.76834e-10
2.15873e-09
7.58996e-09
2.95325e-08
1.06708e-07
3.31003e-07
7.58763e-07
1.40384e-06
2.38206e-06
3.80731e-06
5.65548e-06
7.72309e-06
9.75205e-06
1.20565e-05
1.53675e-05
1.87669e-05
1.88064e-05
1.34754e-05
6.33921e-06
2.98203e-06
1.4767e-06
7.4889e-07
3.77848e-07
1.93485e-07
1.01274e-07
5.41064e-08
2.88421e-08
1.5661e-08
8.47894e-09
4.53974e-09
2.386e-09
1.22366e-09
6.00735e-10
2.88865e-10
1.36419e-10
6.96281e-11
3.57131e-11
1.58697e-11
6.29963e-12
2.09904e-12
5.62466e-13
1.31165e-13
1.93867e-14
1.87778e-22
5.71763e-22
1.02914e-21
1.62437e-21
2.00168e-21
2.53454e-21
3.09659e-21
3.84638e-21
4.62436e-21
5.57831e-21
5.94451e-21
6.74103e-21
7.96076e-21
9.0514e-21
1.04403e-20
1.16893e-20
1.32078e-20
1.50012e-20
1.66329e-20
1.79623e-20
1.98965e-20
2.29793e-20
2.70188e-20
3.60061e-20
5.7789e-20
1.17393e-19
2.85257e-19
7.71485e-19
2.16872e-18
6.12604e-18
1.74194e-17
4.96338e-17
1.38604e-16
3.82408e-16
1.03894e-15
2.76998e-15
7.30656e-15
1.8337e-14
4.79832e-14
1.20954e-13
2.94105e-13
6.94148e-13
1.59776e-12
3.60226e-12
7.63073e-12
1.54506e-11
3.14434e-11
5.88821e-11
1.00891e-10
1.57298e-10
2.19076e-10
2.72295e-10
3.02818e-10
3.05839e-10
2.97646e-10
3.08242e-10
4.01356e-10
7.71773e-10
2.13426e-09
7.46559e-09
2.89095e-08
1.04117e-07
3.23435e-07
7.43396e-07
1.37864e-06
2.34604e-06
3.75059e-06
5.59238e-06
7.65864e-06
9.69588e-06
1.19829e-05
1.52701e-05
1.87241e-05
1.88948e-05
1.36563e-05
6.45201e-06
3.03184e-06
1.50004e-06
7.60648e-07
3.8353e-07
1.96345e-07
1.02746e-07
5.48765e-08
2.92506e-08
1.58771e-08
8.59212e-09
4.59775e-09
2.41476e-09
1.23728e-09
6.07064e-10
2.91618e-10
1.37821e-10
7.03969e-11
3.60304e-11
1.59786e-11
6.32778e-12
2.10329e-12
5.62389e-13
1.30977e-13
1.93458e-14
1.83485e-22
5.77131e-22
1.01413e-21
1.4505e-21
1.83308e-21
2.32167e-21
2.98385e-21
3.70115e-21
4.53589e-21
5.37982e-21
6.24553e-21
7.46646e-21
8.48289e-21
9.57986e-21
1.11589e-20
1.27668e-20
1.42652e-20
1.57174e-20
1.7888e-20
1.98972e-20
2.13958e-20
2.37274e-20
2.85772e-20
3.86528e-20
6.46807e-20
1.33834e-19
3.32479e-19
9.03724e-19
2.57675e-18
7.35619e-18
2.08239e-17
5.81246e-17
1.60304e-16
4.37744e-16
1.17392e-15
3.09824e-15
8.04573e-15
2.0273e-14
5.36225e-14
1.32904e-13
3.17233e-13
7.45688e-13
1.70746e-12
3.72776e-12
7.80337e-12
1.67207e-11
3.34757e-11
6.21044e-11
1.06056e-10
1.63104e-10
2.24639e-10
2.76625e-10
3.05256e-10
3.0648e-10
2.97248e-10
3.07231e-10
3.99237e-10
7.64889e-10
2.10487e-09
7.32912e-09
2.82786e-08
1.01604e-07
3.15269e-07
7.28402e-07
1.35296e-06
2.30454e-06
3.69479e-06
5.52805e-06
7.59357e-06
9.62949e-06
1.18907e-05
1.51721e-05
1.86755e-05
1.89839e-05
1.38683e-05
6.59269e-06
3.09437e-06
1.5291e-06
7.74878e-07
3.90247e-07
1.99666e-07
1.0443e-07
5.57517e-08
2.9705e-08
1.61165e-08
8.71873e-09
4.66373e-09
2.44833e-09
1.25381e-09
6.14898e-10
2.95199e-10
1.39546e-10
7.12889e-11
3.64363e-11
1.61384e-11
6.38267e-12
2.11865e-12
5.65784e-13
1.31665e-13
1.94397e-14
1.9432e-22
6.20093e-22
1.17144e-21
1.48756e-21
1.85476e-21
2.30373e-21
2.69872e-21
3.19706e-21
3.81617e-21
4.55241e-21
5.67089e-21
6.8812e-21
7.93096e-21
9.20982e-21
1.00323e-20
1.11402e-20
1.22192e-20
1.34187e-20
1.5415e-20
1.80754e-20
2.05118e-20
2.33239e-20
2.85362e-20
4.06401e-20
7.04754e-20
1.52142e-19
3.79116e-19
1.03107e-18
2.93348e-18
8.36485e-18
2.36287e-17
6.58342e-17
1.80406e-16
4.93442e-16
1.31161e-15
3.44349e-15
8.90343e-15
2.241e-14
5.86185e-14
1.43523e-13
3.40488e-13
7.88589e-13
1.76782e-12
3.82999e-12
8.4178e-12
1.78064e-11
3.54335e-11
6.55279e-11
1.10542e-10
1.68304e-10
2.29744e-10
2.80502e-10
3.07135e-10
3.07104e-10
2.96842e-10
3.06132e-10
3.96464e-10
7.55134e-10
2.06323e-09
7.12825e-09
2.73957e-08
9.84573e-08
3.07505e-07
7.13904e-07
1.32882e-06
2.26656e-06
3.64059e-06
5.46046e-06
7.53169e-06
9.57436e-06
1.18203e-05
1.50745e-05
1.8618e-05
1.90721e-05
1.40762e-05
6.73028e-06
3.15523e-06
1.5571e-06
7.88992e-07
3.97026e-07
2.03058e-07
1.06165e-07
5.66618e-08
3.01778e-08
1.63711e-08
8.85354e-09
4.73449e-09
2.48486e-09
1.27231e-09
6.23778e-10
2.99371e-10
1.41495e-10
7.22643e-11
3.69073e-11
1.63369e-11
6.45763e-12
2.14226e-12
5.71738e-13
1.32999e-13
1.96325e-14
1.48482e-22
4.7543e-22
1.0754e-21
1.44889e-21
1.74982e-21
2.28948e-21
3.06318e-21
3.9027e-21
4.45288e-21
5.11871e-21
5.96121e-21
6.9518e-21
7.73126e-21
8.64764e-21
9.63e-21
1.08251e-20
1.2214e-20
1.37419e-20
1.4825e-20
1.66853e-20
1.90378e-20
2.29305e-20
2.9743e-20
4.33706e-20
7.79514e-20
1.69381e-19
4.23463e-19
1.14158e-18
3.26377e-18
9.21239e-18
2.5405e-17
7.26781e-17
2.00054e-16
5.36963e-16
1.46489e-15
3.80049e-15
9.67461e-15
2.42795e-14
6.19481e-14
1.54475e-13
3.62977e-13
8.3452e-13
1.86243e-12
4.08137e-12
8.93414e-12
1.87817e-11
3.71585e-11
6.82436e-11
1.14245e-10
1.72518e-10
2.33631e-10
2.83179e-10
3.0837e-10
3.07773e-10
2.96409e-10
3.04881e-10
3.93361e-10
7.45362e-10
2.02313e-09
6.96528e-09
2.66485e-08
9.56312e-08
2.98809e-07
6.99251e-07
1.30531e-06
2.2303e-06
3.5898e-06
5.396e-06
7.46903e-06
9.52277e-06
1.17419e-05
1.49646e-05
1.85507e-05
1.91479e-05
1.42779e-05
6.87626e-06
3.21868e-06
1.58689e-06
8.03934e-07
4.04193e-07
2.06602e-07
1.07963e-07
5.76029e-08
3.06651e-08
1.66342e-08
8.99649e-09
4.81121e-09
2.52516e-09
1.29275e-09
6.33549e-10
3.04007e-10
1.4364e-10
7.33214e-11
3.74319e-11
1.65646e-11
6.5467e-12
2.17151e-12
5.79428e-13
1.34769e-13
1.98925e-14
8.90833e-23
2.89817e-22
7.93453e-22
1.19429e-21
1.70561e-21
2.33848e-21
3.359e-21
4.16142e-21
4.61066e-21
5.5127e-21
6.47156e-21
7.26438e-21
8.24598e-21
9.19571e-21
1.02924e-20
1.16909e-20
1.2372e-20
1.33753e-20
1.50566e-20
1.71149e-20
2.02565e-20
2.36441e-20
3.01855e-20
4.44006e-20
8.14101e-20
1.80478e-19
4.58082e-19
1.24646e-18
3.51273e-18
1.01909e-17
2.83107e-17
7.96938e-17
2.1789e-16
5.93246e-16
1.56947e-15
4.06471e-15
1.0292e-14
2.5721e-14
6.54233e-14
1.63796e-13
3.85876e-13
8.89136e-13
1.96538e-12
4.37306e-12
9.37898e-12
1.96536e-11
3.87796e-11
7.06501e-11
1.17395e-10
1.76074e-10
2.36991e-10
2.85793e-10
3.10063e-10
3.08656e-10
2.96057e-10
3.03805e-10
3.90228e-10
7.34202e-10
1.98104e-09
6.78756e-09
2.59451e-08
9.29561e-08
2.90997e-07
6.84911e-07
1.28194e-06
2.19407e-06
3.53924e-06
5.33182e-06
7.40494e-06
9.46479e-06
1.16708e-05
1.48652e-05
1.84841e-05
1.92187e-05
1.44885e-05
7.03296e-06
3.28784e-06
1.61838e-06
8.19477e-07
4.11604e-07
2.10332e-07
1.09877e-07
5.86079e-08
3.1175e-08
1.69075e-08
9.14347e-09
4.8898e-09
2.56663e-09
1.31431e-09
6.44013e-10
3.09048e-10
1.45892e-10
7.43963e-11
3.7974e-11
1.68048e-11
6.64495e-12
2.20506e-12
5.88514e-13
1.36897e-13
2.02073e-14
1.11453e-22
5.66205e-22
8.10939e-22
1.24414e-21
1.67847e-21
2.14599e-21
2.96052e-21
3.66455e-21
4.33732e-21
5.29304e-21
6.09145e-21
7.09669e-21
8.21718e-21
9.53592e-21
1.11399e-20
1.25841e-20
1.35606e-20
1.39905e-20
1.56706e-20
1.72243e-20
2.09172e-20
2.43944e-20
3.01311e-20
4.38903e-20
8.19593e-20
1.88242e-19
4.96719e-19
1.36183e-18
3.83912e-18
1.08368e-17
3.0108e-17
8.55918e-17
2.30425e-16
6.2924e-16
1.65458e-15
4.28914e-15
1.089e-14
2.67277e-14
6.90403e-14
1.73074e-13
4.02769e-13
9.21582e-13
2.06402e-12
4.59971e-12
9.77987e-12
2.04522e-11
4.00468e-11
7.25102e-11
1.19833e-10
1.78847e-10
2.39636e-10
2.88222e-10
3.11701e-10
3.09619e-10
2.95863e-10
3.02876e-10
3.87443e-10
7.24588e-10
1.94253e-09
6.61192e-09
2.51739e-08
9.02268e-08
2.83849e-07
6.71722e-07
1.26078e-06
2.16108e-06
3.49206e-06
5.2766e-06
7.34542e-06
9.40921e-06
1.16033e-05
1.47656e-05
1.84144e-05
1.92774e-05
1.46768e-05
7.18713e-06
3.35527e-06
1.64921e-06
8.35051e-07
4.19128e-07
2.14059e-07
1.11768e-07
5.95969e-08
3.16811e-08
1.71779e-08
9.28865e-09
4.96733e-09
2.6075e-09
1.33549e-09
6.54249e-10
3.13977e-10
1.48121e-10
7.547e-11
3.85283e-11
1.70521e-11
6.74633e-12
2.23989e-12
5.98017e-13
1.39133e-13
2.0539e-14
2.21807e-22
6.07272e-22
9.94869e-22
1.52666e-21
1.94975e-21
2.19491e-21
2.56322e-21
3.04182e-21
3.84948e-21
5.0522e-21
6.26405e-21
7.53487e-21
8.83482e-21
9.95284e-21
1.08433e-20
1.20933e-20
1.351e-20
1.49267e-20
1.57655e-20
1.68556e-20
1.871e-20
2.22804e-20
2.94385e-20
4.42226e-20
8.52321e-20
1.98652e-19
5.22643e-19
1.43931e-18
4.04512e-18
1.15585e-17
3.24606e-17
9.01964e-17
2.42866e-16
6.604e-16
1.71496e-15
4.39587e-15
1.14237e-14
2.79301e-14
7.1612e-14
1.76713e-13
4.2584e-13
9.70284e-13
2.17571e-12
4.70897e-12
1.0108e-11
2.10351e-11
4.10138e-11
7.3956e-11
1.21761e-10
1.81143e-10
2.42066e-10
2.90167e-10
3.13022e-10
3.10389e-10
2.95705e-10
3.01979e-10
3.84517e-10
7.14853e-10
1.90377e-09
6.4563e-09
2.45006e-08
8.77496e-08
2.76825e-07
6.5977e-07
1.24158e-06
2.13126e-06
3.44987e-06
5.22485e-06
7.29806e-06
9.36118e-06
1.15434e-05
1.46764e-05
1.83487e-05
1.93289e-05
1.48495e-05
7.33312e-06
3.41898e-06
1.6786e-06
8.49647e-07
4.26125e-07
2.17523e-07
1.13523e-07
6.05118e-08
3.21457e-08
1.74268e-08
9.4225e-09
5.03898e-09
2.64538e-09
1.35517e-09
6.63766e-10
3.1856e-10
1.50166e-10
7.64417e-11
3.90326e-11
1.72827e-11
6.84171e-12
2.27295e-12
6.07115e-13
1.41284e-13
2.08591e-14
1.76223e-22
5.67299e-22
1.02681e-21
1.47885e-21
1.87209e-21
2.3832e-21
2.8976e-21
3.23424e-21
3.8263e-21
4.44833e-21
5.23703e-21
6.65982e-21
7.50074e-21
8.32689e-21
9.71263e-21
1.12465e-20
1.2772e-20
1.47068e-20
1.60894e-20
1.76978e-20
1.94798e-20
2.31892e-20
3.09058e-20
4.72131e-20
9.08275e-20
2.09775e-19
5.52189e-19
1.51493e-18
4.21462e-18
1.20628e-17
3.35354e-17
9.33304e-17
2.55208e-16
6.82705e-16
1.79597e-15
4.66207e-15
1.18548e-14
3.0058e-14
7.50318e-14
1.87386e-13
4.38455e-13
9.88991e-13
2.22358e-12
4.8127e-12
1.03644e-11
2.14925e-11
4.17631e-11
7.50611e-11
1.23199e-10
1.82745e-10
2.43698e-10
2.9159e-10
3.14117e-10
3.11038e-10
2.95609e-10
3.01245e-10
3.82042e-10
7.05831e-10
1.86989e-09
6.31468e-09
2.39272e-08
8.57136e-08
2.71176e-07
6.49982e-07
1.22555e-06
2.10627e-06
3.41468e-06
5.182e-06
7.25355e-06
9.31866e-06
1.14916e-05
1.45987e-05
1.82893e-05
1.93687e-05
1.49951e-05
7.46032e-06
3.47439e-06
1.70392e-06
8.62235e-07
4.32174e-07
2.20518e-07
1.15037e-07
6.13034e-08
3.25477e-08
1.76422e-08
9.53853e-09
5.1012e-09
2.67834e-09
1.37234e-09
6.72098e-10
3.22622e-10
1.51967e-10
7.72915e-11
3.9475e-11
1.74851e-11
6.92595e-12
2.30232e-12
6.15234e-13
1.43209e-13
2.11459e-14
1.12853e-22
5.5845e-22
9.93352e-22
1.17109e-21
1.51695e-21
2.05391e-21
2.81023e-21
3.79364e-21
4.37055e-21
4.90691e-21
5.56582e-21
6.48614e-21
7.41957e-21
8.48518e-21
1.00839e-20
1.14647e-20
1.23238e-20
1.38739e-20
1.56362e-20
1.82199e-20
2.09698e-20
2.50286e-20
3.33095e-20
5.00038e-20
9.57951e-20
2.22453e-19
5.76156e-19
1.57512e-18
4.41217e-18
1.25458e-17
3.49471e-17
9.78765e-17
2.65127e-16
7.07733e-16
1.86022e-15
4.84285e-15
1.23707e-14
3.09825e-14
7.68341e-14
1.89419e-13
4.45657e-13
1.0154e-12
2.23027e-12
4.87869e-12
1.05716e-11
2.18483e-11
4.23382e-11
7.59109e-11
1.24316e-10
1.84024e-10
2.44999e-10
2.927e-10
3.14918e-10
3.11524e-10
2.95563e-10
3.00711e-10
3.80102e-10
6.99325e-10
1.84508e-09
6.21156e-09
2.3495e-08
8.40762e-08
2.66456e-07
6.41319e-07
1.21212e-06
2.08554e-06
3.38501e-06
5.14425e-06
7.21352e-06
9.28279e-06
1.14492e-05
1.45383e-05
1.82426e-05
1.93976e-05
1.51085e-05
7.56222e-06
3.51877e-06
1.72417e-06
8.72292e-07
4.37013e-07
2.22913e-07
1.16244e-07
6.19322e-08
3.28667e-08
1.78134e-08
9.63085e-09
5.1508e-09
2.70468e-09
1.3861e-09
6.78777e-10
3.25872e-10
1.53406e-10
7.79685e-11
3.98269e-11
1.76439e-11
6.99273e-12
2.32581e-12
6.21761e-13
1.44761e-13
2.13776e-14
2.37593e-22
8.11786e-22
1.39577e-21
1.99601e-21
2.25021e-21
2.4332e-21
2.88832e-21
3.66831e-21
3.79825e-21
4.09415e-21
4.71923e-21
5.55561e-21
6.66403e-21
7.7652e-21
9.36944e-21
1.14557e-20
1.33031e-20
1.48713e-20
1.70433e-20
1.91126e-20
2.17796e-20
2.52709e-20
3.30558e-20
5.06701e-20
9.7421e-20
2.26481e-19
5.948e-19
1.63736e-18
4.64194e-18
1.29557e-17
3.59198e-17
9.85155e-17
2.7087e-16
7.21303e-16
1.9163e-15
4.99126e-15
1.26526e-14
3.12138e-14
7.7867e-14
1.91032e-13
4.48231e-13
1.01696e-12
2.25419e-12
4.93695e-12
1.07196e-11
2.21046e-11
4.27516e-11
7.65216e-11
1.25124e-10
1.84989e-10
2.45933e-10
2.93537e-10
3.15496e-10
3.11881e-10
2.95557e-10
3.00371e-10
3.78819e-10
6.9475e-10
1.82749e-09
6.1388e-09
2.31928e-08
8.29731e-08
2.63307e-07
6.35648e-07
1.20316e-06
2.07142e-06
3.36466e-06
5.11845e-06
7.18518e-06
9.25789e-06
1.14219e-05
1.44957e-05
1.82082e-05
1.9417e-05
1.51877e-05
7.63474e-06
3.55032e-06
1.73855e-06
8.79426e-07
4.40449e-07
2.24615e-07
1.17108e-07
6.23816e-08
3.30943e-08
1.79353e-08
9.69655e-09
5.18608e-09
2.7234e-09
1.39589e-09
6.83534e-10
3.28188e-10
1.54428e-10
7.84482e-11
4.00777e-11
1.77585e-11
7.0408e-12
2.34269e-12
6.26455e-13
1.45877e-13
2.15441e-14
1.2138e-22
3.73757e-22
7.19408e-22
1.21151e-21
1.54785e-21
1.92105e-21
2.45003e-21
3.31555e-21
3.72084e-21
4.26385e-21
4.85735e-21
5.67293e-21
6.64799e-21
7.7002e-21
8.92813e-21
1.0227e-20
1.1692e-20
1.3606e-20
1.61513e-20
1.89785e-20
2.18013e-20
2.51203e-20
3.24103e-20
5.09877e-20
9.90167e-20
2.31415e-19
6.05627e-19
1.68248e-18
4.71125e-18
1.32017e-17
3.66972e-17
1.02453e-16
2.7554e-16
7.33437e-16
1.94717e-15
5.00323e-15
1.2799e-14
3.16523e-14
8.08036e-14
1.96297e-13
4.53834e-13
1.03196e-12
2.25655e-12
5.01309e-12
1.0799e-11
2.22587e-11
4.30211e-11
7.6926e-11
1.25653e-10
1.85591e-10
2.46519e-10
2.94032e-10
3.15866e-10
3.12122e-10
2.95585e-10
3.00226e-10
3.78213e-10
6.92514e-10
1.81865e-09
6.10148e-09
2.30356e-08
8.24085e-08
2.61706e-07
6.3274e-07
1.19849e-06
2.06409e-06
3.354e-06
5.10459e-06
7.16998e-06
9.24392e-06
1.14047e-05
1.44724e-05
1.81896e-05
1.94267e-05
1.52293e-05
7.67343e-06
3.56713e-06
1.7462e-06
8.83219e-07
4.42279e-07
2.25522e-07
1.17568e-07
6.26224e-08
3.32164e-08
1.80009e-08
9.73196e-09
5.20512e-09
2.73352e-09
1.40118e-09
6.86105e-10
3.29439e-10
1.54978e-10
7.87057e-11
4.02128e-11
1.78213e-11
7.06702e-12
2.35189e-12
6.29011e-13
1.46485e-13
2.16349e-14
1.16389e-22
5.70654e-22
9.77475e-22
1.46651e-21
1.78351e-21
2.18628e-21
2.91412e-21
3.84614e-21
4.45066e-21
4.94428e-21
5.92292e-21
6.6607e-21
7.48358e-21
7.86664e-21
8.65958e-21
1.00829e-20
1.12605e-20
1.31626e-20
1.48394e-20
1.7754e-20
2.10103e-20
2.48788e-20
3.33408e-20
5.26037e-20
9.97396e-20
2.33631e-19
6.13331e-19
1.69987e-18
4.81742e-18
1.35655e-17
3.76105e-17
1.02605e-16
2.81216e-16
7.57431e-16
1.98326e-15
5.09308e-15
1.30149e-14
3.18536e-14
8.14723e-14
1.95242e-13
4.60301e-13
1.03998e-12
2.29818e-12
5.02121e-12
1.08435e-11
2.23497e-11
4.3174e-11
7.71537e-11
1.25953e-10
1.8594e-10
2.46879e-10
2.94345e-10
3.16099e-10
3.12281e-10
2.95643e-10
3.00243e-10
3.78156e-10
6.92182e-10
1.81713e-09
6.09457e-09
2.30054e-08
8.22947e-08
2.61382e-07
6.32169e-07
1.1976e-06
2.06273e-06
3.35207e-06
5.10213e-06
7.16725e-06
9.24151e-06
1.1402e-05
1.44685e-05
1.81865e-05
1.94281e-05
1.52357e-05
7.67947e-06
3.56971e-06
1.74735e-06
8.83785e-07
4.42549e-07
2.25653e-07
1.17634e-07
6.26564e-08
3.32335e-08
1.801e-08
9.73686e-09
5.20774e-09
2.73491e-09
1.4019e-09
6.86451e-10
3.29607e-10
1.55053e-10
7.87407e-11
4.02308e-11
1.78289e-11
7.07022e-12
2.353e-12
6.29315e-13
1.46556e-13
2.16454e-14
9.05652e-23
4.85684e-22
1.12638e-21
1.68523e-21
2.08814e-21
2.51301e-21
3.07038e-21
3.84977e-21
4.7443e-21
5.17682e-21
5.41568e-21
6.08522e-21
6.67647e-21
7.87663e-21
9.14232e-21
1.03513e-20
1.19608e-20
1.34599e-20
1.50946e-20
1.74616e-20
2.08619e-20
2.5253e-20
3.35521e-20
5.25172e-20
1.0135e-19
2.35385e-19
6.11655e-19
1.7328e-18
4.84658e-18
1.36087e-17
3.79591e-17
1.04317e-16
2.84898e-16
7.58494e-16
2.00236e-15
5.13152e-15
1.30966e-14
3.22107e-14
8.1893e-14
1.96332e-13
4.62542e-13
1.03236e-12
2.32286e-12
5.03242e-12
1.08409e-11
2.23794e-11
4.3222e-11
7.72239e-11
1.26048e-10
1.86051e-10
2.46991e-10
2.94442e-10
3.16169e-10
3.12342e-10
2.95728e-10
3.00465e-10
3.78836e-10
6.9438e-10
1.82506e-09
6.12606e-09
2.31325e-08
8.27451e-08
2.62639e-07
6.34412e-07
1.20116e-06
2.06828e-06
3.36007e-06
5.11225e-06
7.17814e-06
9.25142e-06
1.14144e-05
1.44852e-05
1.81998e-05
1.94205e-05
1.52047e-05
7.65088e-06
3.55726e-06
1.74167e-06
8.80961e-07
4.41188e-07
2.24978e-07
1.17292e-07
6.24774e-08
3.31428e-08
1.79613e-08
9.71055e-09
5.19357e-09
2.72736e-09
1.39794e-09
6.84526e-10
3.28665e-10
1.54637e-10
7.85467e-11
4.0129e-11
1.77825e-11
7.05045e-12
2.34597e-12
6.27343e-13
1.46085e-13
2.15749e-14
1.07326e-22
3.23965e-22
6.59681e-22
1.07317e-21
1.68641e-21
2.2182e-21
2.52789e-21
3.31719e-21
4.21074e-21
4.6992e-21
5.26679e-21
5.93909e-21
6.66657e-21
8.03244e-21
9.11678e-21
1.09274e-20
1.2512e-20
1.31359e-20
1.43791e-20
1.67528e-20
2.01899e-20
2.51868e-20
3.32954e-20
5.21911e-20
9.93808e-20
2.31983e-19
6.08147e-19
1.70286e-18
4.76915e-18
1.33922e-17
3.72015e-17
1.01969e-16
2.83482e-16
7.49513e-16
1.92601e-15
5.00594e-15
1.28344e-14
3.12499e-14
7.89741e-14
1.97637e-13
4.5128e-13
1.04034e-12
2.26933e-12
5.04167e-12
1.08303e-11
2.23344e-11
4.31462e-11
7.71157e-11
1.25911e-10
1.85897e-10
2.46836e-10
2.943e-10
3.16062e-10
3.12289e-10
2.95828e-10
3.00873e-10
3.80218e-10
6.99007e-10
1.84203e-09
6.19414e-09
2.34106e-08
8.37369e-08
2.65402e-07
6.39335e-07
1.20893e-06
2.08036e-06
3.37735e-06
5.13419e-06
7.2016e-06
9.27225e-06
1.14384e-05
1.4521e-05
1.8228e-05
1.94037e-05
1.51374e-05
7.58925e-06
3.53042e-06
1.72943e-06
8.74883e-07
4.38259e-07
2.23527e-07
1.16556e-07
6.20936e-08
3.29484e-08
1.7857e-08
9.65419e-09
5.16325e-09
2.71122e-09
1.38948e-09
6.8041e-10
3.26657e-10
1.53754e-10
7.8133e-11
3.99127e-11
1.76848e-11
7.00888e-12
2.33121e-12
6.23209e-13
1.45097e-13
2.14271e-14
2.93373e-22
6.00024e-22
8.38319e-22
1.23666e-21
1.64865e-21
2.04078e-21
2.53377e-21
3.22178e-21
3.94987e-21
4.61689e-21
5.46195e-21
6.08131e-21
7.02717e-21
8.2121e-21
9.74668e-21
1.15007e-20
1.29837e-20
1.48469e-20
1.63843e-20
1.84221e-20
2.06536e-20
2.43032e-20
3.18359e-20
4.99013e-20
9.89766e-20
2.32232e-19
6.0416e-19
1.66394e-18
4.71702e-18
1.32298e-17
3.68426e-17
1.00966e-16
2.76519e-16
7.36637e-16
1.94078e-15
5.02926e-15
1.27305e-14
3.12061e-14
7.91356e-14
1.95621e-13
4.53575e-13
1.02041e-12
2.25439e-12
5.03132e-12
1.07696e-11
2.22151e-11
4.29573e-11
7.68449e-11
1.25567e-10
1.85503e-10
2.46438e-10
2.93942e-10
3.15789e-10
3.12128e-10
2.95947e-10
3.01495e-10
3.82413e-10
7.06471e-10
1.86966e-09
6.30539e-09
2.38631e-08
8.53458e-08
2.69849e-07
6.47116e-07
1.22114e-06
2.09922e-06
3.40427e-06
5.16815e-06
7.23797e-06
9.30442e-06
1.14755e-05
1.45754e-05
1.82711e-05
1.9377e-05
1.50344e-05
7.49673e-06
3.49015e-06
1.71107e-06
8.65762e-07
4.3387e-07
2.2135e-07
1.1545e-07
6.15168e-08
3.26563e-08
1.77002e-08
9.56961e-09
5.11776e-09
2.68704e-09
1.37682e-09
6.74257e-10
3.23656e-10
1.52431e-10
7.75142e-11
3.95882e-11
1.75353e-11
6.94592e-12
2.30899e-12
6.17007e-13
1.43619e-13
2.12063e-14
1.43628e-22
4.95726e-22
8.80699e-22
1.16504e-21
1.37191e-21
1.70215e-21
2.23154e-21
2.92935e-21
3.53417e-21
4.24798e-21
5.31011e-21
6.2932e-21
7.68029e-21
9.16874e-21
1.04194e-20
1.18148e-20
1.33907e-20
1.53786e-20
1.71124e-20
1.89206e-20
2.15372e-20
2.47045e-20
3.22918e-20
5.03145e-20
9.75987e-20
2.25539e-19
5.87991e-19
1.615e-18
4.57443e-18
1.2933e-17
3.54108e-17
1.00092e-16
2.69847e-16
7.20645e-16
1.90282e-15
4.90972e-15
1.2522e-14
3.09545e-14
7.67411e-14
1.88212e-13
4.48004e-13
1.01126e-12
2.2179e-12
4.96395e-12
1.0677e-11
2.20376e-11
4.26588e-11
7.63948e-11
1.2497e-10
1.84822e-10
2.45751e-10
2.93329e-10
3.15321e-10
3.11846e-10
2.96091e-10
3.02316e-10
3.85331e-10
7.16468e-10
1.90699e-09
6.45682e-09
2.44837e-08
8.75679e-08
2.76028e-07
6.57555e-07
1.23723e-06
2.12386e-06
3.43913e-06
5.2117e-06
7.28345e-06
9.34534e-06
1.15231e-05
1.4646e-05
1.83252e-05
1.93414e-05
1.49008e-05
7.37869e-06
3.4387e-06
1.68756e-06
8.54067e-07
4.28241e-07
2.1855e-07
1.14037e-07
6.07795e-08
3.22827e-08
1.74998e-08
9.46146e-09
5.05961e-09
2.65613e-09
1.36064e-09
6.66399e-10
3.19827e-10
1.50741e-10
7.67227e-11
3.91726e-11
1.73442e-11
6.8654e-12
2.2806e-12
6.09093e-13
1.41733e-13
2.09247e-14
1.51926e-22
4.39048e-22
9.3435e-22
1.2294e-21
1.58959e-21
2.14536e-21
2.99294e-21
3.30041e-21
3.82444e-21
4.49974e-21
5.45795e-21
6.62819e-21
7.80573e-21
8.79673e-21
9.49551e-21
1.08584e-20
1.27971e-20
1.46068e-20
1.64937e-20
1.85752e-20
2.10872e-20
2.58977e-20
3.32577e-20
5.15006e-20
9.63759e-20
2.19624e-19
5.70315e-19
1.55921e-18
4.41528e-18
1.23371e-17
3.42296e-17
9.55341e-17
2.60076e-16
6.9628e-16
1.79792e-15
4.72993e-15
1.20366e-14
2.99102e-14
7.50976e-14
1.87156e-13
4.32575e-13
1.00997e-12
2.21725e-12
4.87709e-12
1.05012e-11
2.17564e-11
4.22227e-11
7.57553e-11
1.24143e-10
1.83852e-10
2.44761e-10
2.92439e-10
3.14609e-10
3.11418e-10
2.96256e-10
3.03344e-10
3.88851e-10
7.28421e-10
1.95145e-09
6.63618e-09
2.52111e-08
9.0123e-08
2.82896e-07
6.69471e-07
1.256e-06
2.15239e-06