/*--------------------------------*- C++ -*----------------------------------*\
  =========                 |
  \\      /  F ield         | OpenFOAM: The Open Source CFD Toolbox
   \\    /   O peration     | Website:  https://openfoam.org
    \\  /    A nd           | Version:  10
     \\/     M anipulation  |
\*---------------------------------------------------------------------------*/
FoamFile
{
    format      ascii;
    class       surfaceScalarField;
    location    "1";
    object      phi;
}
// * * * * * * * * * * * * * * * * * * * * * * * * * * * * * * * * * * * * * //

dimensions      [1 0 -1 0 0 0 0];

internalField   nonuniform List<scalar> 
7860
(
4.63777e-06
9.04535e-07
4.58959e-06
7.84907e-07
4.20603e-06
5.47054e-07
3.79804e-06
3.11659e-07
3.43389e-06
1.43934e-07
3.18318e-06
2.92791e-08
3.00418e-06
-2.06237e-08
2.8784e-06
-4.02688e-08
2.86434e-06
-8.2366e-08
2.97378e-06
-1.61874e-07
2.89514e-06
-2.81037e-07
2.88665e-06
-3.13805e-07
2.91646e-06
-3.38269e-07
2.96858e-06
-3.6584e-07
3.03638e-06
-4.00005e-07
3.1172e-06
-4.40227e-07
3.20352e-06
-4.83741e-07
3.30077e-06
-5.29674e-07
3.39604e-06
-5.7786e-07
3.49203e-06
-6.27084e-07
3.58623e-06
-6.76912e-07
3.68639e-06
-7.27547e-07
3.76388e-06
-7.81101e-07
3.84146e-06
-8.33632e-07
3.91234e-06
-8.87137e-07
3.97566e-06
-9.4118e-07
4.0267e-06
-9.95648e-07
4.0704e-06
-1.05003e-06
4.09924e-06
-1.10441e-06
4.1168e-06
-1.15858e-06
4.12256e-06
-1.21313e-06
4.11599e-06
-1.26723e-06
4.09086e-06
-1.31895e-06
4.05723e-06
-1.36689e-06
4.01242e-06
-1.41449e-06
3.95072e-06
-1.46377e-06
3.89117e-06
-1.51344e-06
3.82376e-06
-1.56702e-06
3.74165e-06
-1.62279e-06
3.65647e-06
-1.67868e-06
3.56463e-06
-1.73341e-06
3.4641e-06
-1.78759e-06
3.35408e-06
-1.84029e-06
3.23581e-06
-1.89122e-06
3.11484e-06
-1.94066e-06
2.98634e-06
-1.99074e-06
2.85164e-06
-2.0389e-06
2.70978e-06
-2.08468e-06
2.56007e-06
-2.12772e-06
2.402e-06
-2.16744e-06
2.23574e-06
-2.20337e-06
2.06326e-06
-2.23491e-06
1.88414e-06
-2.25999e-06
1.69959e-06
-2.27534e-06
1.51076e-06
-2.27551e-06
1.31814e-06
-2.25307e-06
1.12697e-06
-2.20915e-06
9.42037e-07
-2.12939e-06
7.68067e-07
-2.01735e-06
6.11209e-07
-1.88334e-06
4.72031e-07
-1.73758e-06
3.4913e-07
-1.60721e-06
2.41825e-07
-1.47877e-06
1.48984e-07
-1.35634e-06
6.93715e-08
-1.24225e-06
1.39083e-09
-1.13724e-06
-5.7707e-08
-1.04007e-06
-1.08627e-07
-9.54766e-07
-1.52119e-07
-8.79609e-07
-1.89713e-07
-8.12226e-07
-2.21625e-07
-7.50357e-07
-2.49083e-07
-6.95395e-07
-2.72617e-07
-6.44974e-07
-2.92804e-07
-5.98312e-07
-3.10056e-07
-5.54775e-07
-3.24718e-07
-5.14192e-07
-3.37178e-07
-4.77192e-07
-3.47777e-07
-4.43897e-07
-3.56758e-07
-4.13849e-07
-3.64328e-07
-3.86351e-07
-3.70729e-07
-3.61235e-07
-3.76314e-07
-3.38702e-07
-3.81552e-07
-3.19444e-07
-3.87013e-07
-3.04291e-07
-3.9328e-07
-2.94118e-07
-4.00756e-07
-2.89743e-07
-4.09593e-07
-2.89697e-07
-4.19864e-07
-2.9287e-07
-4.31642e-07
-2.98365e-07
-4.45109e-07
-3.05421e-07
-4.6051e-07
-3.13345e-07
-4.78053e-07
-3.22289e-07
-4.97847e-07
-3.29198e-07
-5.20338e-07
-3.33403e-07
-5.45753e-07
-3.3259e-07
-5.7422e-07
-3.23388e-07
-6.05589e-07
-3.01104e-07
-6.38906e-07
-2.58933e-07
-6.71662e-07
-1.87145e-07
-7.62793e-08
4.50782e-06
3.04961e-07
4.57703e-06
4.90352e-07
4.46986e-06
4.77392e-07
4.2738e-06
4.12977e-07
4.03167e-06
3.39632e-07
3.79592e-06
2.67683e-07
3.60446e-06
1.88045e-07
3.48502e-06
9.10934e-08
3.42773e-06
-1.62339e-08
3.38208e-06
-1.06169e-07
3.33185e-06
-2.24665e-07
3.34539e-06
-3.22424e-07
3.39916e-06
-3.87088e-07
3.47476e-06
-4.36637e-07
3.56014e-06
-4.8085e-07
3.64721e-06
-5.23322e-07
3.73158e-06
-5.63967e-07
3.81033e-06
-6.04307e-07
3.88104e-06
-6.44903e-07
3.94374e-06
-6.86616e-07
3.99804e-06
-7.28978e-07
4.04477e-06
-7.71813e-07
4.0808e-06
-8.15242e-07
4.10725e-06
-8.58982e-07
4.12411e-06
-9.02562e-07
4.12984e-06
-9.45651e-07
4.12475e-06
-9.89398e-07
4.10817e-06
-1.03292e-06
4.08036e-06
-1.07605e-06
4.0402e-06
-1.11838e-06
3.99467e-06
-1.15983e-06
3.96186e-06
-1.20109e-06
3.9055e-06
-1.2488e-06
3.8349e-06
-1.29679e-06
3.76385e-06
-1.3457e-06
3.7015e-06
-1.39612e-06
3.62633e-06
-1.44721e-06
3.54746e-06
-1.49813e-06
3.46853e-06
-1.54778e-06
3.38809e-06
-1.59566e-06
3.29807e-06
-1.64369e-06
3.20374e-06
-1.69086e-06
3.10068e-06
-1.7369e-06
2.9905e-06
-1.78116e-06
2.87682e-06
-1.82444e-06
2.75475e-06
-1.86802e-06
2.62567e-06
-1.90951e-06
2.48972e-06
-1.94866e-06
2.34699e-06
-1.98498e-06
2.19882e-06
-2.01874e-06
2.04596e-06
-2.04964e-06
1.88785e-06
-2.07662e-06
1.72511e-06
-2.09719e-06
1.55804e-06
-2.10818e-06
1.38852e-06
-2.10525e-06
1.21967e-06
-2.08351e-06
1.0537e-06
-2.04248e-06
8.9372e-07
-1.96845e-06
7.4292e-07
-1.86539e-06
6.04244e-07
-1.74343e-06
4.79114e-07
-1.61122e-06
3.66493e-07
-1.49341e-06
2.66521e-07
-1.37764e-06
1.79137e-07
-1.26747e-06
1.02397e-07
-1.16473e-06
3.518e-08
-1.06954e-06
-2.29161e-08
-9.8163e-07
-7.41033e-08
-9.03315e-07
-1.19404e-07
-8.33942e-07
-1.58634e-07
-7.71906e-07
-1.93975e-07
-7.14732e-07
-2.25026e-07
-6.64216e-07
-2.52126e-07
-6.17792e-07
-2.75704e-07
-5.74648e-07
-2.9625e-07
-5.34167e-07
-3.14138e-07
-4.96252e-07
-3.29675e-07
-4.61613e-07
-3.43183e-07
-4.30353e-07
-3.54964e-07
-4.02039e-07
-3.65312e-07
-3.75979e-07
-3.7455e-07
-3.51977e-07
-3.83046e-07
-3.30191e-07
-3.9121e-07
-3.11271e-07
-3.99456e-07
-2.96041e-07
-4.0812e-07
-2.85455e-07
-4.17571e-07
-2.80298e-07
-4.28097e-07
-2.79181e-07
-4.39909e-07
-2.81072e-07
-4.53181e-07
-2.85112e-07
-4.68057e-07
-2.90566e-07
-4.84784e-07
-2.96646e-07
-5.03673e-07
-3.03452e-07
-5.24927e-07
-3.08062e-07
-5.48605e-07
-3.09779e-07
-5.74789e-07
-3.06432e-07
-6.03162e-07
-2.95034e-07
-6.32865e-07
-2.71422e-07
-6.61643e-07
-2.30169e-07
-6.84418e-07
-1.64381e-07
-6.69822e-08
4.25203e-06
1.40053e-07
4.52949e-06
1.86271e-07
4.75907e-06
2.21926e-07
4.92503e-06
2.26373e-07
5.05183e-06
1.99592e-07
5.15003e-06
1.5593e-07
5.22637e-06
1.01586e-07
5.27149e-06
3.83731e-08
5.27468e-06
-2.00419e-08
5.26278e-06
-9.35708e-08
5.20476e-06
-1.65585e-07
5.11616e-06
-2.32552e-07
5.02345e-06
-2.92938e-07
4.93765e-06
-3.49299e-07
4.86049e-06
-4.02094e-07
4.78803e-06
-4.49254e-07
4.72163e-06
-4.95863e-07
4.66384e-06
-5.4178e-07
4.60523e-06
-5.87685e-07
4.55225e-06
-6.32827e-07
4.50228e-06
-6.77809e-07
4.45317e-06
-7.21741e-07
4.40412e-06
-7.65376e-07
4.35425e-06
-8.08428e-07
4.30318e-06
-8.51066e-07
4.2474e-06
-8.94102e-07
4.19365e-06
-9.3607e-07
4.1388e-06
-9.784e-07
4.08368e-06
-1.02072e-06
4.0283e-06
-1.06358e-06
3.97607e-06
-1.10733e-06
3.89142e-06
-1.15278e-06
3.8336e-06
-1.1945e-06
3.77623e-06
-1.23858e-06
3.71455e-06
-1.2837e-06
3.64953e-06
-1.32845e-06
3.57548e-06
-1.37314e-06
3.49567e-06
-1.41685e-06
3.41349e-06
-1.46007e-06
3.3184e-06
-1.50222e-06
3.21861e-06
-1.54312e-06
3.11796e-06
-1.58279e-06
3.01085e-06
-1.62316e-06
2.89802e-06
-1.66331e-06
2.77458e-06
-1.70338e-06
2.64712e-06
-1.74157e-06
2.51554e-06
-1.77789e-06
2.37883e-06
-1.81189e-06
2.23784e-06
-1.84399e-06
2.09313e-06
-1.87403e-06
1.9447e-06
-1.90115e-06
1.79223e-06
-1.92411e-06
1.63603e-06
-1.94089e-06
1.47649e-06
-1.94841e-06
1.31429e-06
-1.94297e-06
1.15622e-06
-1.92499e-06
1.00004e-06
-1.88566e-06
8.49558e-07
-1.81704e-06
7.07824e-07
-1.72253e-06
5.78095e-07
-1.61244e-06
4.61752e-07
-1.49366e-06
3.57604e-07
-1.3882e-06
2.65212e-07
-1.28454e-06
1.83411e-07
-1.18571e-06
1.11963e-07
-1.09286e-06
4.94699e-08
-1.00657e-06
-5.16194e-09
-9.26605e-07
-5.38579e-08
-8.54322e-07
-9.76834e-08
-7.89885e-07
-1.37163e-07
-7.32215e-07
-1.72942e-07
-6.7879e-07
-2.05152e-07
-6.31885e-07
-2.34156e-07
-5.88687e-07
-2.60143e-07
-5.48593e-07
-2.83298e-07
-5.10943e-07
-3.0427e-07
-4.7522e-07
-3.22979e-07
-4.42855e-07
-3.39775e-07
-4.13516e-07
-3.54957e-07
-3.86823e-07
-3.68795e-07
-3.62111e-07
-3.8156e-07
-3.39188e-07
-3.93529e-07
-3.18206e-07
-4.04981e-07
-2.99808e-07
-4.16298e-07
-2.8472e-07
-4.27586e-07
-2.7417e-07
-4.39231e-07
-2.68662e-07
-4.51551e-07
-2.66878e-07
-4.64801e-07
-2.67852e-07
-4.79221e-07
-2.70752e-07
-4.94727e-07
-2.75097e-07
-5.11727e-07
-2.79675e-07
-5.30432e-07
-2.84774e-07
-5.50819e-07
-2.87706e-07
-5.7284e-07
-2.87785e-07
-5.96322e-07
-2.82975e-07
-6.20796e-07
-2.70579e-07
-6.45255e-07
-2.46973e-07
-6.67897e-07
-2.0754e-07
-6.85634e-07
-1.46652e-07
-5.89021e-08
4.19353e-06
4.3133e-08
4.28987e-06
8.71402e-08
4.39869e-06
1.08881e-07
4.5053e-06
1.14553e-07
4.59472e-06
1.04631e-07
4.66096e-06
8.45653e-08
4.70466e-06
5.41078e-08
4.72626e-06
1.27032e-08
4.74617e-06
-4.03908e-08
4.7495e-06
-9.67779e-08
4.73757e-06
-1.53827e-07
4.7162e-06
-2.10877e-07
4.68999e-06
-2.66634e-07
4.66128e-06
-3.20218e-07
4.6309e-06
-3.71256e-07
4.60154e-06
-4.19413e-07
4.57146e-06
-4.65305e-07
4.53988e-06
-5.09725e-07
4.50556e-06
-5.53029e-07
4.46836e-06
-5.95201e-07
4.43725e-06
-6.36286e-07
4.39588e-06
-6.79014e-07
4.35167e-06
-7.20861e-07
4.30537e-06
-7.6216e-07
4.2575e-06
-8.03023e-07
4.21144e-06
-8.4331e-07
4.15858e-06
-8.83537e-07
4.10511e-06
-9.23609e-07
4.04936e-06
-9.63723e-07
3.99097e-06
-1.00406e-06
3.92885e-06
-1.04485e-06
3.86115e-06
-1.0856e-06
3.79049e-06
-1.12608e-06
3.71835e-06
-1.16586e-06
3.64247e-06
-1.2056e-06
3.56006e-06
-1.24546e-06
3.47362e-06
-1.28531e-06
3.37979e-06
-1.32443e-06
3.28685e-06
-1.36303e-06
3.18722e-06
-1.4022e-06
3.08495e-06
-1.44088e-06
2.97398e-06
-1.47928e-06
2.86101e-06
-1.51633e-06
2.74587e-06
-1.55221e-06
2.62766e-06
-1.58687e-06
2.50641e-06
-1.62039e-06
2.38071e-06
-1.65224e-06
2.25127e-06
-1.68259e-06
2.11843e-06
-1.71116e-06
1.98207e-06
-1.73764e-06
1.84226e-06
-1.76134e-06
1.69933e-06
-1.78113e-06
1.55348e-06
-1.79489e-06
1.40467e-06
-1.79923e-06
1.25693e-06
-1.79459e-06
1.11028e-06
-1.778e-06
9.6585e-07
-1.74044e-06
8.2695e-07
-1.67711e-06
6.96343e-07
-1.59071e-06
5.75669e-07
-1.49047e-06
4.66192e-07
-1.38295e-06
3.67005e-07
-1.28788e-06
2.77962e-07
-1.19453e-06
1.98409e-07
-1.10539e-06
1.27848e-07
-1.02166e-06
6.55847e-08
-9.43775e-07
1.02434e-08
-8.70853e-07
-3.93807e-08
-8.04339e-07
-8.41962e-08
-7.44831e-07
-1.24658e-07
-6.91567e-07
-1.6129e-07
-6.42009e-07
-1.94612e-07
-5.9846e-07
-2.24917e-07
-5.58279e-07
-2.52453e-07
-5.20986e-07
-2.77422e-07
-4.85946e-07
-3.00368e-07
-4.52218e-07
-3.21261e-07
-4.21908e-07
-3.40395e-07
-3.94336e-07
-3.58025e-07
-3.69153e-07
-3.74373e-07
-3.45729e-07
-3.89653e-07
-3.2388e-07
-4.04067e-07
-3.03772e-07
-4.17806e-07
-2.86059e-07
-4.31179e-07
-2.71342e-07
-4.443e-07
-2.61051e-07
-4.5752e-07
-2.55449e-07
-4.71128e-07
-2.53279e-07
-4.85376e-07
-2.53607e-07
-5.0047e-07
-2.5564e-07
-5.16422e-07
-2.59161e-07
-5.33459e-07
-2.62661e-07
-5.51781e-07
-2.66485e-07
-5.71258e-07
-2.68261e-07
-5.91794e-07
-2.67284e-07
-6.13094e-07
-2.61701e-07
-6.34693e-07
-2.49006e-07
-6.55582e-07
-2.26107e-07
-6.7417e-07
-1.88971e-07
-6.87996e-07
-1.32839e-07
-5.31848e-08
4.10291e-06
3.74435e-08
4.15164e-06
3.79535e-08
4.22693e-06
3.28418e-08
4.31584e-06
2.46082e-08
4.41127e-06
7.91765e-09
4.508e-06
-1.35887e-08
4.59742e-06
-3.67085e-08
4.67508e-06
-6.55649e-08
4.73306e-06
-9.8455e-08
4.7706e-06
-1.3462e-07
4.78999e-06
-1.73299e-07
4.79277e-06
-2.13654e-07
4.781e-06
-2.54927e-07
4.75716e-06
-2.96312e-07
4.7247e-06
-3.38852e-07
4.68673e-06
-3.81394e-07
4.64495e-06
-4.23458e-07
4.6006e-06
-4.6536e-07
4.55472e-06
-5.07038e-07
4.50773e-06
-5.48203e-07
4.44931e-06
-5.88858e-07
4.39684e-06
-6.2776e-07
4.34228e-06
-6.66568e-07
4.28504e-06
-7.05121e-07
4.22525e-06
-7.43414e-07
4.16349e-06
-7.8165e-07
4.09968e-06
-8.19885e-07
4.03413e-06
-8.58084e-07
3.96639e-06
-8.96301e-07
3.8942e-06
-9.3447e-07
3.82459e-06
-9.72106e-07
3.75075e-06
-1.01049e-06
3.67488e-06
-1.04862e-06
3.59633e-06
-1.08643e-06
3.51535e-06
-1.12409e-06
3.43179e-06
-1.16153e-06
3.34714e-06
-1.19863e-06
3.25867e-06
-1.23539e-06
3.16224e-06
-1.27182e-06
3.06751e-06
-1.307e-06
2.96859e-06
-1.34185e-06
2.8656e-06
-1.37587e-06
2.75917e-06
-1.40892e-06
2.64864e-06
-1.44107e-06
2.53325e-06
-1.47204e-06
2.41417e-06
-1.50155e-06
2.29158e-06
-1.52978e-06
2.16564e-06
-1.55658e-06
2.03634e-06
-1.58184e-06
1.90385e-06
-1.60516e-06
1.76846e-06
-1.62595e-06
1.63044e-06
-1.64309e-06
1.49023e-06
-1.6546e-06
1.34836e-06
-1.65716e-06
1.20668e-06
-1.65255e-06
1.06561e-06
-1.63644e-06
9.27747e-07
-1.6019e-06
7.95195e-07
-1.54353e-06
6.71299e-07
-1.46557e-06
5.57246e-07
-1.3751e-06
4.53991e-07
-1.27845e-06
3.60499e-07
-1.19323e-06
2.76379e-07
-1.10942e-06
2.00914e-07
-1.02911e-06
1.33266e-07
-9.53387e-07
7.27238e-08
-8.82714e-07
1.83642e-08
-8.16055e-07
-3.05278e-08
-7.55032e-07
-7.50914e-08
-6.99993e-07
-1.1586e-07
-6.50592e-07
-1.53212e-07
-6.04464e-07
-1.87467e-07
-5.64002e-07
-2.18841e-07
-5.26669e-07
-2.4771e-07
-4.91969e-07
-2.74223e-07
-4.5929e-07
-2.98645e-07
-4.27698e-07
-3.21198e-07
-3.99285e-07
-3.42092e-07
-3.73386e-07
-3.61534e-07
-3.49666e-07
-3.79697e-07
-3.27527e-07
-3.96754e-07
-3.06792e-07
-4.1287e-07
-2.87636e-07
-4.28218e-07
-2.707e-07
-4.42958e-07
-2.56599e-07
-4.57313e-07
-2.46701e-07
-4.71607e-07
-2.41168e-07
-4.86089e-07
-2.38816e-07
-5.0097e-07
-2.38751e-07
-5.16397e-07
-2.40238e-07
-5.32538e-07
-2.43054e-07
-5.49423e-07
-2.45809e-07
-5.67201e-07
-2.48748e-07
-5.85719e-07
-2.49782e-07
-6.04839e-07
-2.482e-07
-6.24276e-07
-2.42306e-07
-6.43489e-07
-2.2983e-07
-6.61633e-07
-2.07993e-07
-6.77415e-07
-1.73212e-07
-6.88948e-07
-1.2132e-07
-4.84215e-08
4.12173e-06
1.29898e-08
4.14815e-06
1.13273e-08
4.17708e-06
3.68391e-09
4.20755e-06
-6.09952e-09
4.23824e-06
-2.29842e-08
4.26693e-06
-4.24647e-08
4.29586e-06
-6.58096e-08
4.32245e-06
-9.23235e-08
4.34574e-06
-1.21895e-07
4.36491e-06
-1.53943e-07
4.37926e-06
-1.8778e-07
4.38835e-06
-2.22828e-07
4.39203e-06
-2.58747e-07
4.39082e-06
-2.95183e-07
4.38395e-06
-3.32041e-07
4.37156e-06
-3.69079e-07
4.35409e-06
-4.06033e-07
4.33129e-06
-4.4259e-07
4.30307e-06
-4.78862e-07
4.26982e-06
-5.14994e-07
4.23185e-06
-5.51006e-07
4.1908e-06
-5.86802e-07
4.14666e-06
-6.22514e-07
4.09971e-06
-6.58243e-07
4.05034e-06
-6.94091e-07
3.9986e-06
-7.29915e-07
3.94434e-06
-7.65663e-07
3.88751e-06
-8.01313e-07
3.8282e-06
-8.36854e-07
3.76643e-06
-8.72323e-07
3.69854e-06
-9.07793e-07
3.6304e-06
-9.4263e-07
3.5593e-06
-9.77373e-07
3.48462e-06
-1.01191e-06
3.40689e-06
-1.04609e-06
3.32585e-06
-1.08002e-06
3.24136e-06
-1.11357e-06
3.15276e-06
-1.14677e-06
3.06026e-06
-1.17937e-06
2.96327e-06
-1.21131e-06
2.86369e-06
-1.24238e-06
2.76036e-06
-1.27277e-06
2.65334e-06
-1.30235e-06
2.54373e-06
-1.33098e-06
2.43029e-06
-1.35873e-06
2.31404e-06
-1.38536e-06
2.19505e-06
-1.41081e-06
2.07338e-06
-1.43494e-06
1.94912e-06
-1.4576e-06
1.82239e-06
-1.47845e-06
1.69332e-06
-1.49693e-06
1.5622e-06
-1.51196e-06
1.42945e-06
-1.52177e-06
1.29579e-06
-1.52334e-06
1.16198e-06
-1.51846e-06
1.02908e-06
-1.50306e-06
8.993e-07
-1.47134e-06
7.74668e-07
-1.41785e-06
6.57368e-07
-1.34703e-06
5.48906e-07
-1.2653e-06
4.50072e-07
-1.17835e-06
3.59965e-07
-1.10196e-06
2.7833e-07
-1.02684e-06
2.04571e-07
-9.54667e-07
1.38002e-07
-8.86325e-07
7.7897e-08
-8.221e-07
2.36823e-08
-7.61388e-07
-2.51686e-08
-7.05685e-07
-6.96947e-08
-6.5494e-07
-1.10746e-07
-6.09253e-07
-1.48531e-07
-5.66453e-07
-1.83383e-07
-5.29e-07
-2.15635e-07
-4.94379e-07
-2.45418e-07
-4.62088e-07
-2.72975e-07
-4.31639e-07
-2.98466e-07
-4.02117e-07
-3.22144e-07
-3.75535e-07
-3.44213e-07
-3.51256e-07
-3.64852e-07
-3.28976e-07
-3.84205e-07
-3.08129e-07
-4.02409e-07
-2.88554e-07
-4.19601e-07
-2.7042e-07
-4.35933e-07
-2.54357e-07
-4.51553e-07
-2.40977e-07
-4.66702e-07
-2.31559e-07
-4.81684e-07
-2.26201e-07
-4.96726e-07
-2.23796e-07
-5.12008e-07
-2.23498e-07
-5.2766e-07
-2.24618e-07
-5.43835e-07
-2.2692e-07
-5.60524e-07
-2.29162e-07
-5.77842e-07
-2.31476e-07
-5.95621e-07
-2.32048e-07
-6.13705e-07
-2.30159e-07
-6.318e-07
-2.24248e-07
-6.49396e-07
-2.12272e-07
-6.65728e-07
-1.91694e-07
-6.7968e-07
-1.59288e-07
-6.89682e-07
-1.11336e-07
-4.43931e-08
4.10043e-06
9.86411e-09
4.11426e-06
-2.67979e-09
4.1341e-06
-1.63189e-08
4.16102e-06
-3.31856e-08
4.18936e-06
-5.14851e-08
4.21804e-06
-7.13079e-08
4.24497e-06
-9.28954e-08
4.26881e-06
-1.1631e-07
4.28829e-06
-1.41511e-07
4.30257e-06
-1.6836e-07
4.31133e-06
-1.96668e-07
4.31455e-06
-2.26169e-07
4.31226e-06
-2.56562e-07
4.30458e-06
-2.87612e-07
4.29164e-06
-3.19205e-07
4.27379e-06
-3.51318e-07
4.25162e-06
-3.83949e-07
4.22576e-06
-4.16817e-07
4.19655e-06
-4.49732e-07
4.16404e-06
-4.82571e-07
4.12825e-06
-5.15289e-07
4.08928e-06
-5.47912e-07
4.04718e-06
-5.80497e-07
4.00195e-06
-6.13083e-07
3.95349e-06
-6.45691e-07
3.90183e-06
-6.78305e-07
3.84701e-06
-7.10898e-07
3.78913e-06
-7.43437e-07
3.72812e-06
-7.75914e-07
3.66379e-06
-8.08294e-07
3.59654e-06
-8.40517e-07
3.52641e-06
-8.72552e-07
3.4535e-06
-9.04371e-07
3.37761e-06
-9.3595e-07
3.29842e-06
-9.67252e-07
3.21661e-06
-9.98166e-07
3.1314e-06
-1.02872e-06
3.0437e-06
-1.05877e-06
2.95288e-06
-1.08834e-06
2.85885e-06
-1.11733e-06
2.76204e-06
-1.1456e-06
2.66235e-06
-1.17311e-06
2.5595e-06
-1.19981e-06
2.45377e-06
-1.22556e-06
2.3453e-06
-1.25034e-06
2.23397e-06
-1.27408e-06
2.11983e-06
-1.2967e-06
2.00297e-06
-1.3181e-06
1.88346e-06
-1.33812e-06
1.76146e-06
-1.35647e-06
1.63719e-06
-1.37261e-06
1.51087e-06
-1.38561e-06
1.38302e-06
-1.39384e-06
1.25437e-06
-1.39454e-06
1.12566e-06
-1.38948e-06
9.98048e-07
-1.375e-06
8.73449e-07
-1.34599e-06
7.54079e-07
-1.29744e-06
6.41822e-07
-1.23352e-06
5.38024e-07
-1.16016e-06
4.43267e-07
-1.08231e-06
3.5655e-07
-1.01402e-06
2.77644e-07
-9.46808e-07
2.0596e-07
-8.8194e-07
1.41004e-07
-8.20404e-07
8.20954e-08
-7.62469e-07
2.83517e-08
-7.07109e-07
-2.05308e-08
-6.56316e-07
-6.56446e-08
-6.09712e-07
-1.07037e-07
-5.67671e-07
-1.45172e-07
-5.28107e-07
-1.80508e-07
-4.93489e-07
-2.13308e-07
-4.61435e-07
-2.43777e-07
-4.31496e-07
-2.72101e-07
-4.03213e-07
-2.98403e-07
-3.75715e-07
-3.22916e-07
-3.50942e-07
-3.45828e-07
-3.28277e-07
-3.67302e-07
-3.07446e-07
-3.87465e-07
-2.87917e-07
-4.0643e-07
-2.69551e-07
-4.24317e-07
-2.52507e-07
-4.41274e-07
-2.37389e-07
-4.57457e-07
-2.24792e-07
-4.73114e-07
-2.15911e-07
-4.88535e-07
-2.10797e-07
-5.03934e-07
-2.08422e-07
-5.19472e-07
-2.07991e-07
-5.35263e-07
-2.08863e-07
-5.51435e-07
-2.10795e-07
-5.67968e-07
-2.12676e-07
-5.8494e-07
-2.14558e-07
-6.02186e-07
-2.14855e-07
-6.19537e-07
-2.12859e-07
-6.36696e-07
-2.07138e-07
-6.53186e-07
-1.95826e-07
-6.68307e-07
-1.76612e-07
-6.81066e-07
-1.4656e-07
-6.90105e-07
-1.02317e-07
-4.07894e-08
4.10457e-06
2.60763e-09
4.11199e-06
-1.02454e-08
4.12174e-06
-2.62224e-08
4.13191e-06
-4.34995e-08
4.14207e-06
-6.1796e-08
4.15195e-06
-8.13314e-08
4.16104e-06
-1.02119e-07
4.16874e-06
-1.24144e-07
4.17448e-06
-1.47388e-07
4.1778e-06
-1.71802e-07
4.17831e-06
-1.97306e-07
4.17578e-06
-2.23751e-07
4.17006e-06
-2.50957e-07
4.16108e-06
-2.78743e-07
4.14866e-06
-3.06888e-07
4.13261e-06
-3.35365e-07
4.11269e-06
-3.64121e-07
4.08887e-06
-3.93087e-07
4.06127e-06
-4.22217e-07
4.03009e-06
-4.51472e-07
3.99556e-06
-4.80839e-07
3.95791e-06
-5.10337e-07
3.91726e-06
-5.39915e-07
3.87366e-06
-5.69552e-07
3.82713e-06
-5.99233e-07
3.7777e-06
-6.28934e-07
3.72539e-06
-6.58627e-07
3.67017e-06
-6.88282e-07
3.61205e-06
-7.17858e-07
3.551e-06
-7.47325e-07
3.4871e-06
-7.76637e-07
3.4203e-06
-8.05756e-07
3.35054e-06
-8.34649e-07
3.27784e-06
-8.63269e-07
3.20217e-06
-8.91567e-07
3.12314e-06
-9.19503e-07
3.04106e-06
-9.46985e-07
2.95593e-06
-9.73953e-07
2.86767e-06
-1.00036e-06
2.77647e-06
-1.02615e-06
2.68211e-06
-1.05129e-06
2.58468e-06
-1.07571e-06
2.48423e-06
-1.09936e-06
2.38083e-06
-1.1222e-06
2.27466e-06
-1.14415e-06
2.16574e-06
-1.16519e-06
2.05425e-06
-1.18524e-06
1.94032e-06
-1.2042e-06
1.8241e-06
-1.22193e-06
1.70578e-06
-1.23815e-06
1.58555e-06
-1.25238e-06
1.4637e-06
-1.26372e-06
1.34066e-06
-1.2707e-06
1.21714e-06
-1.27082e-06
1.09379e-06
-1.26582e-06
9.7163e-07
-1.25237e-06
8.52281e-07
-1.22589e-06
7.37819e-07
-1.18193e-06
6.29984e-07
-1.12441e-06
5.29949e-07
-1.05876e-06
4.38238e-07
-9.89291e-07
3.54071e-07
-9.28608e-07
2.77108e-07
-8.68743e-07
2.07017e-07
-8.10901e-07
1.43142e-07
-7.55706e-07
8.4861e-08
-7.03413e-07
3.17581e-08
-6.53305e-07
-1.74201e-08
-6.07031e-07
-6.24958e-08
-5.64429e-07
-1.04088e-07
-5.25864e-07
-1.42434e-07
-4.89531e-07
-1.78114e-07
-4.57623e-07
-2.1137e-07
-4.28021e-07
-2.42375e-07
-4.00358e-07
-2.71277e-07
-3.742e-07
-2.98175e-07
-3.48709e-07
-3.23294e-07
-3.25736e-07
-3.46804e-07
-3.04693e-07
-3.68857e-07
-2.85332e-07
-3.89569e-07
-2.67149e-07
-4.09039e-07
-2.50039e-07
-4.27378e-07
-2.34139e-07
-4.44734e-07
-2.2002e-07
-4.61275e-07
-2.08252e-07
-4.77256e-07
-1.99939e-07
-4.92958e-07
-1.95115e-07
-5.08586e-07
-1.92823e-07
-5.2429e-07
-1.92324e-07
-5.40171e-07
-1.93023e-07
-5.56338e-07
-1.94682e-07
-5.72768e-07
-1.96299e-07
-5.89509e-07
-1.97879e-07
-6.06404e-07
-1.98019e-07
-6.23277e-07
-1.96044e-07
-6.39831e-07
-1.90638e-07
-6.55611e-07
-1.80097e-07
-6.69958e-07
-1.62309e-07
-6.81957e-07
-1.34597e-07
-6.90381e-07
-9.39156e-08
-3.74628e-08
4.09964e-06
3.02761e-10
4.10268e-06
-1.34296e-08
4.10681e-06
-3.04797e-08
4.11177e-06
-4.85934e-08
4.1171e-06
-6.7266e-08
4.12225e-06
-8.66074e-08
4.12662e-06
-1.06615e-07
4.12965e-06
-1.27302e-07
4.13084e-06
-1.487e-07
4.12973e-06
-1.70812e-07
4.12592e-06
-1.93605e-07
4.11907e-06
-2.17019e-07
4.10903e-06
-2.4102e-07
4.09577e-06
-2.65591e-07
4.0794e-06
-2.90617e-07
4.05993e-06
-3.15998e-07
4.03739e-06
-3.41669e-07
4.0118e-06
-3.67589e-07
3.98322e-06
-3.93722e-07
3.9517e-06
-4.20032e-07
3.91727e-06
-4.46489e-07
3.87992e-06
-4.73068e-07
3.83967e-06
-4.99737e-07
3.79651e-06
-5.26464e-07
3.75043e-06
-5.53219e-07
3.70141e-06
-5.79976e-07
3.64942e-06
-6.06705e-07
3.59448e-06
-6.33378e-07
3.53652e-06
-6.59964e-07
3.47558e-06
-6.86431e-07
3.41164e-06
-7.12744e-07
3.34468e-06
-7.38864e-07
3.27475e-06
-7.64752e-07
3.20184e-06
-7.90367e-07
3.12591e-06
-8.15672e-07
3.04698e-06
-8.40612e-07
2.9651e-06
-8.65134e-07
2.8803e-06
-8.89192e-07
2.79265e-06
-9.12736e-07
2.70216e-06
-9.3572e-07
2.60894e-06
-9.58096e-07
2.51301e-06
-9.79823e-07
2.41446e-06
-1.00086e-06
2.31338e-06
-1.02115e-06
2.20984e-06
-1.04066e-06
2.10395e-06
-1.05934e-06
1.9958e-06
-1.07712e-06
1.88547e-06
-1.09391e-06
1.77309e-06
-1.10957e-06
1.65876e-06
-1.12384e-06
1.54267e-06
-1.13627e-06
1.42505e-06
-1.14604e-06
1.30632e-06
-1.15184e-06
1.18726e-06
-1.15158e-06
1.06841e-06
-1.14671e-06
9.50689e-07
-1.13419e-06
8.3576e-07
-1.1102e-06
7.2555e-07
-1.07066e-06
6.2163e-07
-1.01923e-06
5.24958e-07
-9.60714e-07
4.3592e-07
-8.98933e-07
3.53776e-07
-8.45204e-07
2.78445e-07
-7.92295e-07
2.09478e-07
-7.40983e-07
1.46298e-07
-6.91737e-07
8.83257e-08
-6.44778e-07
3.52055e-08
-5.99655e-07
-1.3848e-08
-5.57506e-07
-5.91e-08
-5.18836e-07
-1.01009e-07
-4.83701e-07
-1.39529e-07
-4.50756e-07
-1.7565e-07
-4.21292e-07
-2.09365e-07
-3.94135e-07
-2.40832e-07
-3.68746e-07
-2.7019e-07
-3.44724e-07
-2.97543e-07
-3.21238e-07
-3.23115e-07
-3.00068e-07
-3.4707e-07
-2.80657e-07
-3.69549e-07
-2.62786e-07
-3.90658e-07
-2.4598e-07
-4.10484e-07
-2.30167e-07
-4.29135e-07
-2.15457e-07
-4.46761e-07
-2.02381e-07
-4.6354e-07
-1.91473e-07
-4.79736e-07
-1.83755e-07
-4.95625e-07
-1.7925e-07
-5.11405e-07
-1.77075e-07
-5.27221e-07
-1.7655e-07
-5.43166e-07
-1.77123e-07
-5.59336e-07
-1.78572e-07
-5.75708e-07
-1.79987e-07
-5.92307e-07
-1.81348e-07
-6.08985e-07
-1.81407e-07
-6.25563e-07
-1.7953e-07
-6.41745e-07
-1.74516e-07
-6.57088e-07
-1.6481e-07
-6.7096e-07
-1.48486e-07
-6.82493e-07
-1.23103e-07
-6.90542e-07
-8.58909e-08
-3.42992e-08
4.09916e-06
-1.51514e-09
4.10182e-06
-1.62129e-08
4.10418e-06
-3.29679e-08
4.10579e-06
-5.0319e-08
4.10642e-06
-6.80251e-08
4.10587e-06
-8.61776e-08
4.10398e-06
-1.04841e-07
4.10059e-06
-1.2403e-07
4.09552e-06
-1.43743e-07
4.08856e-06
-1.63967e-07
4.07953e-06
-1.84685e-07
4.06828e-06
-2.05872e-07
4.05464e-06
-2.27484e-07
4.03843e-06
-2.49476e-07
4.01952e-06
-2.71811e-07
3.99789e-06
-2.94457e-07
3.97351e-06
-3.17378e-07
3.94637e-06
-3.40539e-07
3.91646e-06
-3.63903e-07
3.88379e-06
-3.87437e-07
3.84833e-06
-4.11108e-07
3.81007e-06
-4.34886e-07
3.769e-06
-4.58742e-07
3.72511e-06
-4.82647e-07
3.6784e-06
-5.06573e-07
3.62885e-06
-5.30495e-07
3.57647e-06
-5.54386e-07
3.52125e-06
-5.78219e-07
3.46318e-06
-6.01964e-07
3.40229e-06
-6.25591e-07
3.33856e-06
-6.49067e-07
3.272e-06
-6.72356e-07
3.20262e-06
-6.95422e-07
3.1304e-06
-7.18223e-07
3.05539e-06
-7.40717e-07
2.9776e-06
-7.62863e-07
2.89703e-06
-7.84619e-07
2.81373e-06
-8.0594e-07
2.72773e-06
-8.26785e-07
2.63908e-06
-8.47113e-07
2.54783e-06
-8.66885e-07
2.45402e-06
-8.86062e-07
2.35774e-06
-9.04607e-07
2.25903e-06
-9.22484e-07
2.15799e-06
-9.39653e-07
2.05469e-06
-9.56071e-07
1.94922e-06
-9.71682e-07
1.84169e-06
-9.86406e-07
1.73221e-06
-1.00011e-06
1.62093e-06
-1.01256e-06
1.50804e-06
-1.02333e-06
1.3938e-06
-1.03167e-06
1.27843e-06
-1.03622e-06
1.16293e-06
-1.03609e-06
1.0477e-06
-1.03129e-06
9.33699e-07
-1.01977e-06
8.22498e-07
-9.98252e-07
7.15862e-07
-9.6298e-07
6.15207e-07
-9.17307e-07
5.21475e-07
-8.65605e-07
4.34993e-07
-8.11104e-07
3.5491e-07
-7.63845e-07
2.80847e-07
-7.17088e-07
2.12645e-07
-6.71805e-07
1.49894e-07
-6.28166e-07
9.2205e-08
-5.86384e-07
3.90473e-08
-5.45918e-07
-9.95876e-09
-5.07969e-07
-5.54463e-08
-4.72979e-07
-9.76711e-08
-4.41189e-07
-1.36618e-07
-4.11539e-07
-1.73133e-07
-3.84569e-07
-2.07208e-07
-3.5988e-07
-2.39047e-07
-3.36754e-07
-2.68794e-07
-3.1485e-07
-2.96527e-07
-2.93377e-07
-3.22463e-07
-2.74031e-07
-3.46765e-07
-2.56271e-07
-3.69565e-07
-2.39914e-07
-3.90966e-07
-2.24514e-07
-4.11052e-07
-2.10031e-07
-4.2993e-07
-1.96547e-07
-4.47749e-07
-1.84549e-07
-4.64695e-07
-1.74527e-07
-4.8104e-07
-1.67423e-07
-4.97057e-07
-1.63258e-07
-5.12944e-07
-1.61225e-07
-5.2884e-07
-1.60698e-07
-5.44837e-07
-1.61177e-07
-5.6102e-07
-1.62454e-07
-5.77367e-07
-1.63704e-07
-5.93891e-07
-1.649e-07
-6.10448e-07
-1.64922e-07
-6.26858e-07
-1.6319e-07
-6.42829e-07
-1.58612e-07
-6.57923e-07
-1.49777e-07
-6.71524e-07
-1.34938e-07
-6.82792e-07
-1.11877e-07
-6.9063e-07
-7.80795e-08
-3.12244e-08
4.09835e-06
-2.51313e-09
4.099e-06
-1.69791e-08
4.099e-06
-3.30857e-08
4.09802e-06
-4.94511e-08
4.09584e-06
-6.59583e-08
4.09233e-06
-8.27831e-08
4.08738e-06
-9.99977e-08
4.08085e-06
-1.17606e-07
4.07259e-06
-1.35596e-07
4.06247e-06
-1.53955e-07
4.05035e-06
-1.72668e-07
4.0361e-06
-1.91719e-07
4.0196e-06
-2.11086e-07
4.00077e-06
-2.30744e-07
3.97954e-06
-2.50671e-07
3.95584e-06
-2.70844e-07
3.92961e-06
-2.91239e-07
3.90082e-06
-3.1183e-07
3.86942e-06
-3.3259e-07
3.83539e-06
-3.53491e-07
3.79871e-06
-3.74508e-07
3.75936e-06
-3.95613e-07
3.71733e-06
-4.1678e-07
3.67259e-06
-4.37983e-07
3.62515e-06
-4.59197e-07
3.57498e-06
-4.80396e-07
3.52208e-06
-5.01556e-07
3.46645e-06
-5.2265e-07
3.40808e-06
-5.43649e-07
3.34695e-06
-5.64526e-07
3.28308e-06
-5.85251e-07
3.21646e-06
-6.0579e-07
3.14709e-06
-6.26113e-07
3.075e-06
-6.46184e-07
3.0002e-06
-6.65969e-07
2.92272e-06
-6.85432e-07
2.84259e-06
-7.04538e-07
2.75986e-06
-7.23252e-07
2.67457e-06
-7.41539e-07
2.58677e-06
-7.59365e-07
2.49654e-06
-7.76696e-07
2.40394e-06
-7.935e-07
2.30903e-06
-8.09746e-07
2.21191e-06
-8.25399e-07
2.11264e-06
-8.40426e-07
2.01132e-06
-8.54786e-07
1.90803e-06
-8.68428e-07
1.80287e-06
-8.81274e-07
1.69594e-06
-8.932e-07
1.58739e-06
-9.03985e-07
1.47739e-06
-9.13226e-07
1.36636e-06
-9.202e-07
1.25582e-06
-9.23656e-07
1.14279e-06
-9.24464e-07
1.03104e-06
-9.19591e-07
9.20709e-07
-9.09037e-07
8.13119e-07
-8.89923e-07
7.09897e-07
-8.5872e-07
6.12312e-07
-8.18486e-07
5.21002e-07
-7.73002e-07
4.36247e-07
-7.25247e-07
3.57537e-07
-6.83849e-07
2.84623e-07
-6.42986e-07
2.17083e-07
-6.03273e-07
1.54616e-07
-5.64886e-07
9.68796e-08
-5.27982e-07
4.35094e-08
-4.92032e-07
-5.67788e-09
-4.58275e-07
-5.13857e-08
-4.26942e-07
-9.39659e-08
-3.9832e-07
-1.33371e-07
-3.71846e-07
-1.70198e-07
-3.47511e-07
-2.04629e-07
-3.25243e-07
-2.36848e-07
-3.04365e-07
-2.66978e-07
-2.84569e-07
-2.95035e-07
-2.65129e-07
-3.21305e-07
-2.47633e-07
-3.45915e-07
-2.31563e-07
-3.68996e-07
-2.16754e-07
-3.90644e-07
-2.02793e-07
-4.10947e-07
-1.89674e-07
-4.3001e-07
-1.77448e-07
-4.47986e-07
-1.66558e-07
-4.65065e-07
-1.57449e-07
-4.81524e-07
-1.50976e-07
-4.97639e-07
-1.4717e-07
-5.13607e-07
-1.45295e-07
-5.29567e-07
-1.44786e-07
-5.4561e-07
-1.45189e-07
-5.61815e-07
-1.46319e-07
-5.78163e-07
-1.47425e-07
-5.94658e-07
-1.48487e-07
-6.11161e-07
-1.48497e-07
-6.27492e-07
-1.46934e-07
-6.43359e-07
-1.42816e-07
-6.58328e-07
-1.34873e-07
-6.71794e-07
-1.21529e-07
-6.82931e-07
-1.00785e-07
-6.90667e-07
-7.03722e-08
-2.81876e-08
4.09746e-06
-2.6144e-09
4.09668e-06
-1.63102e-08
4.09481e-06
-3.13211e-08
4.09179e-06
-4.65394e-08
4.08762e-06
-6.18921e-08
4.08216e-06
-7.74277e-08
4.07522e-06
-9.31631e-08
4.06662e-06
-1.09111e-07
4.05621e-06
-1.25286e-07
4.04386e-06
-1.41703e-07
4.02946e-06
-1.58371e-07
4.01293e-06
-1.75288e-07
3.9942e-06
-1.92449e-07
3.97321e-06
-2.09839e-07
3.94989e-06
-2.27443e-07
3.9242e-06
-2.45244e-07
3.89609e-06
-2.63221e-07
3.86553e-06
-2.81354e-07
3.83248e-06
-2.99622e-07
3.79692e-06
-3.18003e-07
3.75881e-06
-3.36474e-07
3.71813e-06
-3.55012e-07
3.67487e-06
-3.73595e-07
3.62902e-06
-3.92198e-07
3.58055e-06
-4.108e-07
3.52946e-06
-4.29378e-07
3.47575e-06
-4.47908e-07
3.4194e-06
-4.66367e-07
3.36042e-06
-4.8473e-07
3.29881e-06
-5.02972e-07
3.23456e-06
-5.21067e-07
3.1677e-06
-5.38988e-07
3.09824e-06
-5.56708e-07
3.0262e-06
-5.74197e-07
2.95161e-06
-5.91428e-07
2.87449e-06
-6.08371e-07
2.7949e-06
-6.24996e-07
2.71287e-06
-6.41275e-07
2.62846e-06
-6.57178e-07
2.54173e-06
-6.72675e-07
2.45272e-06
-6.87738e-07
2.36152e-06
-7.02338e-07
2.26817e-06
-7.16447e-07
2.17276e-06
-7.30034e-07
2.07536e-06
-7.43067e-07
1.97604e-06
-7.55509e-07
1.87489e-06
-7.67313e-07
1.77199e-06
-7.78409e-07
1.66745e-06
-7.88687e-07
1.56141e-06
-7.97952e-07
1.45404e-06
-8.05856e-07
1.34566e-06
-8.11792e-07
1.23679e-06
-8.14739e-07
1.1274e-06
-8.15188e-07
1.01862e-06
-8.10381e-07
9.11169e-07
-8.01025e-07
8.06412e-07
-7.84351e-07
7.05895e-07
-7.5715e-07
6.10775e-07
-7.22138e-07
5.21685e-07
-6.82609e-07
4.38705e-07
-6.41029e-07
3.61014e-07
-6.0526e-07
2.88871e-07
-5.6995e-07
2.21903e-07
-5.35427e-07
1.59733e-07
-5.01979e-07
1.02046e-07
-4.69728e-07
4.85544e-08
-4.38138e-07
-8.6384e-10
-4.08458e-07
-4.6987e-08
-3.80637e-07
-8.98624e-08
-3.55162e-07
-1.29678e-07
-3.31769e-07
-1.66899e-07
-3.10064e-07
-2.0174e-07
-2.90221e-07
-2.34332e-07
-2.7161e-07
-2.64811e-07
-2.53967e-07
-2.93245e-07
-2.36602e-07
-3.19811e-07