/*--------------------------------*- C++ -*----------------------------------*\
  =========                 |
  \\      /  F ield         | OpenFOAM: The Open Source CFD Toolbox
   \\    /   O peration     | Website:  https://openfoam.org
    \\  /    A nd           | Version:  10
     \\/     M anipulation  |
\*---------------------------------------------------------------------------*/
FoamFile
{
    format      ascii;
    class       volScalarField;
    location    "1";
    object      PXC12H25;
}
// * * * * * * * * * * * * * * * * * * * * * * * * * * * * * * * * * * * * * //

dimensions      [0 0 0 0 0 0 0];

internalField   nonuniform List<scalar> 
4000
(
4.07237e-22
2.42335e-22
2.63707e-22
9.3346e-23
2.97335e-22
1.38524e-22
1.11048e-22
1.95171e-22
1.34258e-22
1.44645e-22
2.03082e-22
6.40576e-23
2.01909e-22
5.65838e-23
1.59285e-22
9.39765e-22
7.74744e-22
4.63922e-22
3.27566e-22
5.54565e-22
4.07983e-22
4.40127e-22
3.1727e-22
3.32415e-22
1.72777e-21
4.57481e-22
1.82279e-21
8.85322e-22
2.10632e-21
3.77048e-21
1.41803e-20
3.25147e-20
1.18243e-19
4.13258e-19
1.35728e-18
4.49914e-18
1.43187e-17
4.85402e-17
1.60913e-16
5.28442e-16
1.66958e-15
5.16861e-15
1.55605e-14
4.52379e-14
1.26277e-13
3.63654e-13
1.02375e-12
2.66775e-12
6.21454e-12
1.25545e-11
2.18954e-11
3.46797e-11
5.13541e-11
8.08564e-11
1.30075e-10
2.08038e-10
3.32235e-10
5.75668e-10
1.11929e-09
2.46592e-09
5.69446e-09
1.11796e-08
1.42994e-08
9.05964e-09
4.93295e-09
2.87973e-09
2.17162e-09
2.39264e-09
3.44042e-09
5.34685e-09
8.19871e-09
1.18901e-08
1.46406e-08
1.31834e-08
7.63036e-09
3.35597e-09
1.52919e-09
7.22042e-10
3.51846e-10
1.75944e-10
9.0397e-11
4.75108e-11
2.54524e-11
1.38359e-11
7.58151e-12
4.1528e-12
2.25552e-12
1.20553e-12
6.29568e-13
3.19216e-13
1.56585e-13
7.23923e-14
3.39764e-14
1.875e-14
1.79534e-14
3.16339e-14
5.10432e-14
5.20215e-14
1.32644e-14
1.99629e-15
4.10908e-22
2.69008e-22
8.55409e-23
8.05447e-22
7.01086e-22
5.85356e-22
6.58177e-22
1.18239e-22
6.22862e-23
4.98606e-22
1.05142e-22
4.32399e-23
3.06221e-22
6.6703e-23
4.99808e-23
5.82594e-22
1.17939e-21
1.03897e-21
2.38964e-21
2.78175e-21
1.20916e-21
4.54679e-22
1.31506e-21
1.43021e-21
2.86008e-21
2.7145e-21
1.0091e-21
2.0054e-21
6.18334e-22
5.70019e-21
1.30406e-20
4.11664e-20
1.48211e-19
5.26866e-19
1.74041e-18
5.72568e-18
1.94704e-17
6.39067e-17
2.11301e-16
6.81228e-16
2.16987e-15
6.65895e-15
2.01258e-14
5.83761e-14
1.69807e-13
4.91578e-13
1.34963e-12
3.39261e-12
7.60284e-12
1.48243e-11
2.41431e-11
3.59068e-11
5.51615e-11
8.64507e-11
1.38547e-10
2.22953e-10
3.51778e-10
6.05341e-10
1.17096e-09
2.53258e-09
5.76479e-09
1.11976e-08
1.43413e-08
9.21604e-09
5.05157e-09
2.94441e-09
2.18632e-09
2.36139e-09
3.36256e-09
5.22443e-09
8.04237e-09
1.17391e-08
1.46305e-08
1.33926e-08
7.86304e-09
3.45211e-09
1.5695e-09
7.39548e-10
3.5972e-10
1.79577e-10
9.20762e-11
4.83235e-11
2.58581e-11
1.40315e-11
7.67085e-12
4.19102e-12
2.26986e-12
1.20936e-12
6.29333e-13
3.17781e-13
1.55168e-13
7.14612e-14
3.35534e-14
1.88776e-14
1.88597e-14
3.37456e-14
5.3028e-14
4.86718e-14
1.23094e-14
1.84683e-15
1.43778e-21
2.00697e-22
5.6142e-22
8.96519e-22
2.63319e-21
4.12423e-22
7.53986e-23
4.55191e-23
7.29781e-22
1.68561e-22
8.12617e-22
4.01373e-22
9.92499e-23
4.63096e-22
1.32796e-22
8.1865e-22
1.60206e-22
7.39135e-23
9.31549e-22
4.59486e-22
1.2586e-21
2.76057e-22
3.24742e-22
1.62334e-21
2.77874e-21
4.37589e-21
1.42089e-21
2.8518e-21
1.88698e-21
6.9574e-21
1.77059e-20
5.15119e-20
1.82562e-19
6.25096e-19
2.19452e-18
7.29377e-18
2.42414e-17
8.00039e-17
2.6175e-16
8.33828e-16
2.61989e-15
7.71463e-15
2.44697e-14
6.98325e-14
2.10168e-13
5.92039e-13
1.61363e-12
3.96983e-12
8.51325e-12
1.60985e-11
2.57806e-11
3.83581e-11
5.90785e-11
9.41131e-11
1.48449e-10
2.3073e-10
3.61276e-10
6.20952e-10
1.19885e-09
2.58883e-09
5.84063e-09
1.12443e-08
1.43786e-08
9.35664e-09
5.1556e-09
3.00306e-09
2.2021e-09
2.33324e-09
3.29357e-09
5.11782e-09
7.91134e-09
1.15969e-08
1.46184e-08
1.36027e-08
8.12131e-09
3.56093e-09
1.61536e-09
7.59591e-10
3.68814e-10
1.83854e-10
9.42066e-11
4.93775e-11
2.63776e-11
1.427e-11
7.77912e-12
4.2372e-12
2.28712e-12
1.21401e-12
6.28978e-13
3.1564e-13
1.53139e-13
7.02138e-14
3.30354e-14
1.90913e-14
2.01044e-14
3.63768e-14
5.54702e-14
4.50942e-14
1.12973e-14
1.69012e-15
7.88787e-22
1.15905e-22
4.68729e-22
7.34789e-22
5.95705e-22
1.08897e-21
3.65137e-22
1.00752e-22
7.10668e-22
7.30762e-22
1.2184e-21
1.25485e-21
2.59201e-22
3.15719e-22
4.89527e-22
6.34364e-22
9.27905e-22
4.41086e-22
1.10677e-21
8.9652e-22
7.96781e-22
3.17547e-21
2.24518e-21
3.93929e-22
1.45186e-21
2.93582e-21
1.69458e-21
4.48801e-22
3.27604e-21
7.63188e-21
1.21187e-20
7.25376e-20
2.3993e-19
7.97928e-19
2.71396e-18
9.13457e-18
2.98586e-17
9.92785e-17
3.16753e-16
1.03229e-15
3.2252e-15
9.7623e-15
2.98313e-14
8.51351e-14
2.43799e-13
7.00733e-13
1.87184e-12
4.46722e-12
9.56528e-12
1.68078e-11
2.65386e-11
4.12165e-11
6.40467e-11
1.00732e-10
1.57651e-10
2.36199e-10
3.71132e-10
6.37732e-10
1.23133e-09
2.63602e-09
5.89367e-09
1.1263e-08
1.44149e-08
9.47671e-09
5.24599e-09
3.05705e-09
2.22122e-09
2.3155e-09
3.23744e-09
5.02582e-09
7.7831e-09
1.14576e-08
1.4599e-08
1.37781e-08
8.37709e-09
3.63326e-09
1.64958e-09
7.76203e-10
3.77057e-10
1.87985e-10
9.62767e-11
5.04513e-11
2.7005e-11
1.43952e-11
7.84738e-12
4.27002e-12
2.30067e-12
1.21858e-12
6.30904e-13
3.11527e-13
1.50551e-13
6.89521e-14
3.25911e-14
1.94396e-14
2.16322e-14
3.92259e-14
5.82605e-14
4.17696e-14
1.03794e-14
1.54867e-15
1.72731e-22
4.07713e-22
3.15135e-22
1.09294e-22
3.16742e-22
1.00021e-22
1.08838e-21
1.4611e-22
3.32149e-23
2.80695e-22
4.05686e-22
2.99564e-22
5.04419e-23
1.07852e-22
5.74933e-22
1.18223e-22
6.28951e-22
1.70954e-22
2.22049e-21
1.2776e-21
5.41824e-22
4.10217e-21
6.60109e-22
1.71026e-21
1.45942e-21
1.64789e-21
2.12809e-21
3.67851e-21
9.8557e-22
1.15336e-20
2.51292e-20
9.1421e-20
3.13019e-19
1.02063e-18
3.41353e-18
1.13768e-17
3.70445e-17
1.18618e-16
3.89507e-16
1.23843e-15
3.8269e-15
1.15978e-14
3.40678e-14
1.00243e-13
2.83942e-13
8.05258e-13
2.09498e-12
5.00654e-12
9.93294e-12
1.71823e-11
2.81119e-11
4.33749e-11
6.78628e-11
1.08098e-10
1.61556e-10
2.42175e-10
3.80895e-10
6.52595e-10
1.25473e-09
2.6796e-09
5.95089e-09
1.13021e-08
1.44471e-08
9.5703e-09
5.32159e-09
3.10862e-09
2.24074e-09
2.30588e-09
3.20052e-09
4.96149e-09
7.69641e-09
1.13679e-08
1.45936e-08
1.39342e-08
8.58027e-09
3.71742e-09
1.68514e-09
7.92334e-10
3.84553e-10
1.91532e-10
9.80311e-11
5.13442e-11
2.74652e-11
1.46284e-11
7.95871e-12
4.32108e-12
2.32227e-12
1.22637e-12
6.32638e-13
3.1127e-13
1.49701e-13
6.84459e-14
3.24875e-14
1.99503e-14
2.32692e-14
4.20931e-14
6.12834e-14
3.94901e-14
9.74044e-15
1.44977e-15
5.93897e-23
1.24532e-23
1.93481e-23
4.32524e-22
1.18347e-22
1.62574e-22
7.22315e-22
6.80276e-22
9.30471e-23
2.2814e-23
2.01626e-22
6.14659e-22
6.75335e-22
3.54131e-22
1.12326e-21
1.23261e-21
3.08242e-22
3.25327e-22
6.21181e-22
6.52642e-22
3.12319e-21
2.5889e-21
3.86138e-21
1.75089e-21
5.80944e-22
2.84759e-22
3.45711e-21
2.06369e-21
4.73006e-21
1.24604e-20
3.20614e-20
1.11791e-19
3.64955e-19
1.25333e-18
4.07312e-18
1.37472e-17
4.45982e-17
1.3817e-16
4.62678e-16
1.5095e-15
4.54619e-15
1.34349e-14
3.95062e-14
1.14342e-13
3.27863e-13
8.9986e-13
2.37686e-12
5.22764e-12
1.02214e-11
1.8223e-11
2.94663e-11
4.54415e-11
7.06098e-11
1.12079e-10
1.67053e-10
2.48894e-10
3.88919e-10
6.67257e-10
1.27722e-09
2.7138e-09
5.99023e-09
1.13195e-08
1.44805e-08
9.66396e-09
5.38769e-09
3.14518e-09
2.25534e-09
2.29756e-09
3.16784e-09
4.9101e-09
7.63001e-09
1.12931e-08
1.45817e-08
1.40378e-08
8.71929e-09
3.77891e-09
1.71225e-09
8.04626e-10
3.90377e-10
1.94422e-10
9.94844e-11
5.20941e-11
2.78503e-11
1.48383e-11
8.06539e-12
4.37312e-12
2.34607e-12
1.23614e-12
6.35827e-13
3.12198e-13
1.49604e-13
6.83813e-14
3.25945e-14
2.05162e-14
2.48203e-14
4.471e-14
6.41878e-14
3.81267e-14
9.34912e-15
1.38872e-15
1.65362e-23
3.30149e-22
4.59467e-23
9.77876e-23
3.8703e-22
2.53831e-22
4.26477e-23
1.55796e-23
1.00379e-23
2.22663e-22
3.19575e-22
5.40756e-23
2.55815e-22
1.15013e-21
9.32521e-22
1.03013e-21
5.85564e-22
7.17852e-22
8.03913e-22
2.24597e-22
2.71421e-21
2.58264e-21
5.46187e-22
1.55696e-22
2.29538e-21
4.06587e-21
5.57055e-22
1.41624e-21
5.72292e-21
1.32251e-20
4.1452e-20
1.29327e-19
4.4042e-19
1.48877e-18
4.90252e-18
1.63444e-17
5.34541e-17
1.67363e-16
5.58106e-16
1.74402e-15
5.28533e-15
1.57273e-14
4.53409e-14
1.29989e-13
3.62941e-13
9.98175e-13
2.51292e-12
5.27963e-12
1.07585e-11
1.91244e-11
3.04998e-11
4.67641e-11
7.25501e-11
1.14829e-10
1.70741e-10
2.54079e-10
3.95617e-10
6.77111e-10
1.29413e-09
2.73862e-09
6.01188e-09
1.13217e-08
1.4514e-08
9.75755e-09
5.45311e-09
3.18146e-09
2.26888e-09
2.29118e-09
3.1415e-09
4.865e-09
7.56851e-09
1.12233e-08
1.45677e-08
1.41352e-08
8.85705e-09
3.83805e-09
1.73871e-09
8.16735e-10
3.96148e-10
1.97231e-10
1.00901e-10
5.28233e-11
2.82288e-11
1.50446e-11
8.17229e-12
4.42701e-12
2.37205e-12
1.24781e-12
6.40485e-13
3.14064e-13
1.50106e-13
6.86279e-14
3.28364e-14
2.10782e-14
2.62071e-14
4.69956e-14
6.68067e-14
3.74248e-14
9.1369e-15
1.35517e-15
4.86476e-23
3.60458e-23
5.08941e-22
8.88031e-22
3.23196e-22
1.89696e-22
6.39938e-22
7.19719e-22
2.76748e-22
2.1308e-22
3.98751e-23
3.29733e-22
5.61412e-22
6.8761e-23
4.32665e-23
5.53426e-23
7.48053e-22
2.51526e-22
3.95298e-22
1.89924e-21
2.00714e-21
1.36408e-21
2.14008e-22
2.7433e-23
5.38901e-23
8.92384e-22
9.94196e-22
3.34078e-21
8.4805e-21
1.01697e-20
4.25775e-20
1.60125e-19
5.44025e-19
1.76025e-18
5.77048e-18
1.89313e-17
6.21083e-17
1.90586e-16
6.2357e-16
1.98815e-15
6.00961e-15
1.76448e-14
5.17147e-14
1.46144e-13
4.08653e-13
1.10753e-12
2.60104e-12
5.65309e-12
1.13562e-11
1.99085e-11
3.15814e-11
4.81513e-11
7.44759e-11
1.17441e-10
1.74067e-10
2.58214e-10
4.01151e-10
6.8531e-10
1.30601e-09
2.75206e-09
6.01277e-09
1.13002e-08
1.45493e-08
9.85887e-09
5.5225e-09
3.22542e-09
2.28448e-09
2.28524e-09
3.11528e-09
4.81842e-09
7.50306e-09
1.11482e-08
1.45459e-08
1.4233e-08
9.00592e-09
3.90277e-09
1.76675e-09
8.29535e-10
4.02243e-10
2.00151e-10
1.02371e-10
5.35809e-11
2.86245e-11
1.52578e-11
8.28435e-12
4.48488e-12
2.40102e-12
1.26167e-12
6.46662e-13
3.1681e-13
1.51149e-13
6.9126e-14
3.31734e-14
2.15998e-14
2.73632e-14
4.89196e-14
6.90974e-14
3.71848e-14
9.05024e-15
1.34091e-15
1.18153e-22
2.1994e-23
1.70279e-22
5.80574e-22
8.38156e-22
6.13148e-22
2.05249e-22
4.11641e-23
3.49441e-22
4.95646e-22
7.47169e-23
3.07885e-22
1.74082e-22
3.40021e-23
3.04317e-22
1.64029e-22
1.00309e-21
2.64465e-21
2.98037e-21
2.10754e-21
6.25623e-22
2.03737e-21
9.4857e-22
1.90735e-22
1.44756e-21
3.0036e-21
1.64609e-21
4.68831e-21
1.49542e-21
9.15421e-21
5.24415e-20
1.89685e-19
6.23634e-19
2.07022e-18
6.78735e-18
2.21137e-17
7.34049e-17
2.15231e-16
6.99152e-16
2.19448e-15
6.68042e-15
1.98298e-14
5.74368e-14
1.63174e-13
4.31109e-13
1.07888e-12
2.70649e-12
6.05344e-12
1.19297e-11
2.07033e-11
3.24541e-11
4.92758e-11
7.60567e-11
1.1958e-10
1.76592e-10
2.61316e-10
4.05278e-10
6.91e-10
1.31288e-09
2.75397e-09
5.98995e-09
1.12413e-08
1.45888e-08
1.00204e-08
5.62439e-09
3.27372e-09
2.30307e-09
2.27765e-09
3.08113e-09
4.76007e-09
7.41344e-09
1.10439e-08
1.45078e-08
1.43322e-08
9.16759e-09
3.9735e-09
1.79731e-09
8.43445e-10
4.08907e-10
2.03313e-10
1.03961e-10
5.43986e-11
2.90526e-11
1.54847e-11
8.40449e-12
4.54785e-12
2.43334e-12
1.27772e-12
6.5428e-13
3.20341e-13
1.52659e-13
6.98351e-14
3.35883e-14
2.20904e-14
2.83465e-14
5.0524e-14
7.10602e-14
3.72704e-14
9.05257e-15
1.34033e-15
1.37408e-22
5.64551e-22
4.76655e-22
3.65558e-22
1.83499e-22
3.6236e-22
7.24787e-23
1.95985e-23
2.90293e-22
8.83323e-22
4.0968e-22
1.08567e-21
8.31549e-22
2.13353e-22
2.00408e-21
2.36898e-21
1.88527e-21
1.16026e-21
1.89775e-21
3.13037e-21
2.36405e-21
1.81269e-21
1.46283e-21
2.19344e-21
2.272e-21
4.01329e-22
2.74515e-21
4.475e-21
3.84187e-21
2.46127e-20
6.3427e-20
2.15121e-19
7.1907e-19
2.33272e-18
7.54901e-18
2.41159e-17
7.63015e-17
2.36226e-16
7.8258e-16
2.40891e-15
7.17136e-15
2.11979e-14
6.11331e-14
1.67363e-13
4.37541e-13
1.17892e-12
2.89841e-12
6.40106e-12
1.25128e-11
2.13905e-11
3.32753e-11
5.03782e-11
7.75331e-11
1.21e-10
1.78383e-10
2.63829e-10
4.08242e-10
6.94398e-10
1.31487e-09
2.74726e-09
5.95534e-09
1.11755e-08
1.46262e-08
1.01811e-08
5.72815e-09
3.33182e-09
2.32395e-09
2.27024e-09
3.04625e-09
4.69218e-09
7.30204e-09
1.09379e-08
1.44632e-08
1.44319e-08
9.35666e-09
4.05904e-09
1.83457e-09
8.60292e-10
4.1673e-10
2.06913e-10
1.05736e-10
5.52986e-11
2.95202e-11
1.57275e-11
8.53234e-12
4.61546e-12
2.46856e-12
1.29564e-12
6.63098e-13
3.24507e-13
1.54543e-13
7.07047e-14
3.40506e-14
2.25236e-14
2.91109e-14
5.18154e-14
7.27148e-14
3.75833e-14
9.11751e-15
1.34938e-15
7.24408e-23
5.20201e-22
6.4526e-22
2.37744e-22
1.7668e-22
2.17108e-22
3.21601e-23
1.4833e-23
1.18477e-23
1.13719e-22
1.30174e-23
1.51192e-23
5.49297e-23
1.17363e-21
1.98969e-22
1.23943e-21
1.21401e-21
1.20264e-21
1.64245e-21
1.85593e-21
3.4575e-21
1.06793e-21
1.9008e-22
1.126e-21
2.59973e-21
2.51917e-21
3.07533e-21
4.14098e-21
1.11619e-20
2.99364e-20
8.14222e-20
2.58233e-19
7.82963e-19
2.59426e-18
8.21798e-18
2.61148e-17
8.31255e-17
2.59938e-16
8.52454e-16
2.59265e-15
7.68093e-15
2.23289e-14
6.3004e-14
1.71551e-13
4.78065e-13
1.26836e-12
3.09465e-12
6.79315e-12
1.30833e-11
2.2143e-11
3.43002e-11
5.19946e-11
8.05886e-11
1.2147e-10
1.7976e-10
2.6568e-10
4.10084e-10
6.95684e-10
1.31234e-09
2.72762e-09
5.88846e-09
1.10627e-08
1.46494e-08
1.03445e-08
5.83224e-09
3.38749e-09
2.34445e-09
2.26338e-09
3.01449e-09
4.63591e-09
7.21645e-09
1.08336e-08
1.44108e-08
1.45338e-08
9.54503e-09
4.14235e-09
1.87052e-09
8.76335e-10
4.24325e-10
2.1044e-10
1.07493e-10
5.61963e-11
2.99908e-11
1.59718e-11
8.6639e-12
4.68511e-12
2.50512e-12
1.3145e-12
6.72645e-13
3.2908e-13
1.56679e-13
7.16818e-14
3.45422e-14
2.29109e-14
2.9709e-14
5.28617e-14
7.4116e-14
3.80518e-14
9.22566e-15
1.3651e-15
2.06722e-22
5.69243e-23
7.81818e-22
7.55352e-22
3.7957e-22
3.63966e-22
7.24876e-22
1.27102e-21
8.16465e-22
9.22029e-22
2.23552e-22
1.1277e-21
5.21275e-22
3.9024e-22
3.84137e-22
6.75565e-22
1.29529e-21
1.08743e-21
1.48784e-22
3.39605e-22
1.38693e-22
1.31325e-21
1.54419e-21
1.25597e-21
2.5207e-22
2.39058e-21
3.2195e-21
5.19209e-21
1.09276e-20
3.01645e-20
8.65955e-20
2.74097e-19
8.95765e-19
2.87792e-18
9.40145e-18
2.95321e-17
9.14059e-17
2.83437e-16
8.99706e-16
2.80224e-15
8.21873e-15
2.37231e-14
6.67123e-14
1.84537e-13
5.12449e-13
1.34985e-12
3.27019e-12
7.11331e-12
1.35663e-11
2.27713e-11
3.51259e-11
5.32023e-11
8.22917e-11
1.21568e-10
1.80975e-10
2.67239e-10
4.11241e-10
6.95599e-10
1.30747e-09
2.70862e-09
5.82967e-09
1.09676e-08
1.46758e-08
1.05185e-08
5.94027e-09
3.44429e-09
2.36493e-09
2.25701e-09
2.98269e-09
4.58333e-09
7.12018e-09
1.07152e-08
1.43473e-08
1.46218e-08
9.72722e-09
4.22855e-09
1.90716e-09
8.9304e-10
4.32192e-10
2.14076e-10
1.09282e-10
5.71033e-11
3.04653e-11
1.62172e-11
8.79637e-12
4.75708e-12
2.54375e-12
1.3348e-12
6.82941e-13
3.33999e-13
1.59008e-13
7.27502e-14
3.50621e-14
2.32631e-14
3.01781e-14
5.37106e-14
7.53058e-14
3.86184e-14
9.36151e-15
1.38512e-15
8.1497e-23
4.53878e-23
8.62555e-22
6.94187e-22
6.77236e-22
2.65006e-22
4.80464e-22
3.26793e-22
8.05601e-23
8.91017e-22
3.21563e-22
9.20371e-23
1.11315e-21
5.64064e-22
5.44902e-22
6.07726e-22
4.02413e-22
9.77635e-22
2.55409e-22
8.87504e-22
2.54733e-21
2.04031e-21
1.77016e-21
1.08936e-21
1.68283e-21
3.95091e-21
3.42949e-21
3.79014e-21
8.73168e-21
2.92124e-20
9.12243e-20
2.97799e-19
9.76355e-19
3.16164e-18
1.00523e-17
3.14514e-17
9.72433e-17
3.00057e-16
9.53143e-16
2.98801e-15
8.80287e-15
2.5502e-14
7.07646e-14
1.9986e-13
5.40717e-13
1.41829e-12
3.41654e-12
7.34932e-12
1.38856e-11
2.31413e-11
3.55381e-11
5.36793e-11
8.27563e-11
1.21623e-10
1.82343e-10
2.68462e-10
4.11732e-10
6.94279e-10
1.30011e-09
2.68297e-09
5.76852e-09
1.08666e-08
1.46882e-08
1.06889e-08
6.04906e-09
3.50243e-09
2.38611e-09
2.25083e-09
2.94989e-09
4.52409e-09
7.03239e-09
1.0608e-08
1.42841e-08
1.47042e-08
9.91778e-09
4.31959e-09
1.94643e-09
9.10429e-10
4.40242e-10
2.1776e-10
1.11124e-10
5.80479e-11
3.09613e-11
1.64684e-11
8.93102e-12
4.82956e-12
2.58255e-12
1.35529e-12
6.93615e-13
3.39178e-13
1.61506e-13
7.38646e-14
3.55829e-14
2.35804e-14
3.05495e-14
5.44259e-14
7.63657e-14
3.92758e-14
9.52255e-15
1.40898e-15
2.09174e-23
5.609e-22
1.48235e-22
7.71255e-22
4.9907e-22
4.23036e-22
3.80714e-22
5.19976e-22
5.04453e-22
1.55384e-22
8.66502e-22
7.55433e-22
1.10282e-21
1.34736e-21
1.90948e-21
2.53089e-21
1.78872e-21
1.4481e-21
1.93325e-21
7.75046e-22
3.90813e-21
1.80941e-21
1.33421e-21
7.31554e-22
1.24563e-22
1.16952e-21
4.04229e-21
3.34978e-21
6.29365e-21
2.85402e-20
9.84627e-20
3.22596e-19
1.01643e-18
3.33044e-18
1.05541e-17
3.31378e-17
1.03003e-16
3.10146e-16
1.0044e-15
3.16115e-15
9.17002e-15
2.63796e-14
7.45879e-14
2.11057e-13
5.64352e-13
1.47466e-12
3.51909e-12
7.51309e-12
1.41024e-11
2.33842e-11
3.5797e-11
5.39802e-11
8.2992e-11
1.21624e-10
1.83349e-10
2.6937e-10
4.11823e-10
6.92553e-10
1.29296e-09
2.65736e-09
5.69561e-09
1.07498e-08
1.46905e-08
1.08509e-08
6.15255e-09
3.55806e-09
2.40769e-09
2.24639e-09
2.92001e-09
4.46863e-09
6.95009e-09
1.05002e-08
1.4217e-08
1.47738e-08
1.00886e-08
4.4081e-09
1.98426e-09
9.27259e-10
4.48199e-10
2.21441e-10
1.12937e-10
5.89675e-11
3.14421e-11
1.6714e-11
9.06239e-12
4.90016e-12
2.62031e-12
1.37524e-12
7.03972e-13
3.44187e-13
1.63925e-13
7.4961e-14
3.6093e-14
2.38613e-14
3.08173e-14
5.49962e-14
7.72572e-14
3.99453e-14
9.68813e-15
1.43361e-15
9.33177e-23
1.87644e-22
3.81181e-23
4.04419e-22
2.30366e-22
1.25881e-22
4.51256e-22
6.36304e-23
2.59252e-22
6.95954e-22
1.16584e-21
1.33392e-21
1.77318e-21
1.29369e-21
2.29674e-22
6.33892e-22
1.54626e-21
2.01425e-21
2.1382e-21
1.59832e-21
1.99085e-22
1.06023e-22
1.9016e-21
2.26564e-22
6.19911e-23
2.9315e-22
1.55605e-21
3.26493e-21
7.75748e-21
2.98521e-20
9.5754e-20
3.29663e-19
1.07161e-18
3.49643e-18
1.08832e-17
3.38205e-17
1.07723e-16
3.23694e-16
1.03893e-15
3.21056e-15
9.76313e-15
2.79948e-14
7.92445e-14
2.15626e-13
5.83124e-13
1.51431e-12
3.59504e-12
7.63584e-12
1.42652e-11
2.3569e-11
3.59989e-11
5.4171e-11
8.31309e-11
1.21603e-10
1.84013e-10
2.699e-10
4.11409e-10
6.90041e-10
1.28401e-09
2.63234e-09
5.63042e-09
1.0644e-08
1.46898e-08
1.10019e-08
6.25053e-09
3.61129e-09
2.42882e-09
2.24451e-09
2.89967e-09
4.42044e-09
6.87658e-09
1.04037e-08
1.41538e-08
1.48357e-08
1.02461e-08
4.49188e-09
2.01997e-09
9.43292e-10
4.55652e-10
2.24855e-10
1.14615e-10
5.98162e-11
3.18845e-11
1.69382e-11
9.1825e-12
4.96484e-12
2.65498e-12
1.39361e-12
7.13541e-13
3.48819e-13
1.66166e-13
7.59674e-14
3.65567e-14
2.41104e-14
3.10478e-14
5.54495e-14
7.79853e-14
4.0576e-14
9.84533e-15
1.45705e-15
9.92321e-23
2.54225e-22
1.14508e-22
4.78129e-22
2.53054e-22
5.13648e-23
3.45079e-22
7.90772e-23
8.45446e-23
1.8552e-23
1.01349e-22
1.80436e-21
8.66705e-22
1.34626e-22
7.86605e-22
1.22785e-22
5.62541e-22
1.70715e-21
5.46497e-22
1.2155e-21
1.69592e-22
4.48222e-22
6.19123e-22
1.04912e-21
2.44952e-21
3.91005e-22
2.48237e-21
5.01075e-22
5.89066e-21
2.70942e-20
1.04417e-19
3.47176e-19
1.12477e-18
3.63536e-18
1.15512e-17
3.63685e-17
1.12511e-16
3.55331e-16
1.10009e-15
3.43965e-15
1.0042e-14
2.83343e-14
8.05715e-14
2.19842e-13
5.97578e-13
1.54477e-12
3.65199e-12
7.72526e-12
1.43789e-11
2.36888e-11
3.61239e-11
5.42973e-11
8.32221e-11
1.21562e-10
1.84453e-10
2.70199e-10
4.10803e-10
6.87286e-10
1.27541e-09
2.60705e-09
5.56999e-09
1.05502e-08
1.4682e-08
1.11242e-08
6.3327e-09
3.65663e-09
2.44688e-09
2.24227e-09
2.8774e-09
4.37761e-09
6.81295e-09
1.03197e-08
1.40962e-08
1.48841e-08
1.03792e-08
4.56491e-09
2.05104e-09
9.57119e-10
4.62085e-10
2.27805e-10
1.16064e-10
6.05476e-11
3.22667e-11
1.71317e-11
9.28625e-12
5.02076e-12
2.68502e-12
1.40955e-12
7.21872e-13
3.52864e-13
1.68148e-13
7.68523e-14
3.69597e-14
2.4316e-14
3.1219e-14
5.5804e-14
7.85735e-14
4.11368e-14
9.98564e-15
1.47799e-15
3.45639e-22
4.03919e-22
4.97229e-22
3.06444e-22
4.38763e-22
4.435e-22
4.7654e-22
8.43948e-22
9.03002e-22
1.79979e-22
7.53506e-23
4.62534e-23
8.009e-22
2.06907e-22
1.76539e-21
9.82154e-22
2.92769e-22
5.6439e-22
8.31351e-22
2.40377e-21
1.9457e-21
2.82415e-22
1.38891e-21
8.24752e-22
2.36851e-22
3.0818e-21
4.52689e-22
3.12599e-21
1.23851e-20
4.14644e-20
1.12494e-19
3.63101e-19
1.17788e-18
3.79348e-18
1.20873e-17
3.82763e-17
1.19359e-16
3.65709e-16
1.11972e-15
3.44407e-15
1.01273e-14
2.90249e-14
8.03002e-14
2.22229e-13
6.08998e-13
1.56792e-12
3.69474e-12
7.79234e-12
1.44644e-11
2.37796e-11
3.62164e-11
5.43866e-11
8.32789e-11
1.21527e-10
1.84721e-10
2.70327e-10
4.10186e-10
6.85095e-10
1.26896e-09
2.58904e-09
5.52644e-09
1.04761e-08
1.4673e-08
1.12346e-08
6.40339e-09
3.69446e-09
2.46152e-09
2.23999e-09
2.85853e-09
4.34299e-09
6.76234e-09
1.02542e-08
1.40505e-08
1.49193e-08
1.0483e-08
4.62345e-09
2.07595e-09
9.68192e-10
4.67232e-10
2.30166e-10
1.17222e-10
6.11308e-11
3.25702e-11
1.72852e-11
9.36864e-12
5.06524e-12
2.70895e-12
1.42229e-12
7.28545e-13
3.56106e-13
1.69734e-13
7.75588e-14
3.7277e-14
2.44645e-14
3.13124e-14
5.6054e-14
7.90142e-14
4.15924e-14
1.01e-14
1.49509e-15
9.59282e-23
3.8335e-22
1.0133e-21
1.38621e-21
7.14137e-22
6.44892e-22
5.98489e-22
1.2634e-21
5.20775e-22
7.01932e-23
1.01251e-22
1.67206e-22
4.65812e-22
8.18111e-22
9.73119e-22
1.73157e-21
1.26372e-21
1.54386e-21
1.13822e-21
2.39069e-22
2.37431e-21
1.40332e-21
8.9113e-22
1.4003e-21
2.89959e-21
2.39279e-21
1.25607e-21
6.36444e-22
8.87375e-21
3.89751e-20
1.11815e-19
3.63408e-19
1.20009e-18
3.79441e-18
1.2056e-17
3.79286e-17
1.17631e-16
3.61023e-16
1.12402e-15
3.44022e-15
1.01018e-14
2.88713e-14
8.09992e-14
2.24549e-13
6.17076e-13
1.58438e-12
3.72481e-12
7.83922e-12
1.45242e-11
2.38453e-11
3.6281e-11
5.44521e-11
8.33201e-11
1.21503e-10
1.84886e-10
2.70391e-10
4.09724e-10
6.83471e-10
1.26416e-09
2.57564e-09
5.49404e-09
1.04233e-08
1.46642e-08
1.13062e-08
6.45024e-09
3.71996e-09
2.47141e-09
2.23828e-09
2.8453e-09
4.31913e-09
6.728e-09
1.02078e-08
1.40169e-08
1.49433e-08
1.05557e-08
4.66525e-09
2.0937e-09
9.76078e-10
4.70894e-10
2.31845e-10
1.18047e-10
6.15486e-11
3.27874e-11
1.73949e-11
9.42737e-12
5.09692e-12
2.72598e-12
1.43134e-12
7.33291e-13
3.58415e-13
1.70865e-13
7.80624e-14
3.75044e-14
2.45736e-14
3.13875e-14
5.62254e-14
7.93163e-14
4.19188e-14
1.01821e-14
1.50735e-15
1.04939e-22
2.69693e-23
2.25379e-22
2.7433e-22
1.45026e-22
4.25207e-22
3.41e-22
7.69382e-22
5.17019e-22
5.69641e-22
2.35245e-22
3.66008e-22
5.0413e-22
2.9239e-22
7.82822e-22
7.3487e-22
1.76696e-22
3.38475e-23
2.06373e-22
1.41924e-21
1.1539e-21
4.17244e-22
6.80238e-22
2.04419e-21
2.26407e-21
4.475e-21
7.38623e-22
6.90024e-21
1.02238e-20
2.85227e-20
1.13852e-19
3.73012e-19
1.21665e-18
3.88792e-18
1.24612e-17
3.88576e-17
1.21787e-16
3.6994e-16
1.17985e-15
3.56534e-15
1.02605e-14
2.93684e-14
8.08907e-14
2.28482e-13
6.21309e-13
1.59429e-12
3.74441e-12
7.8701e-12
1.45632e-11
2.38865e-11
3.63225e-11
5.44939e-11
8.33529e-11
1.21502e-10
1.85005e-10
2.70462e-10
4.09529e-10
6.827e-10
1.26176e-09
2.5687e-09
5.47651e-09
1.0395e-08
1.46583e-08
1.13424e-08
6.47452e-09
3.73313e-09
2.47647e-09
2.2373e-09
2.83824e-09
4.30614e-09
6.70853e-09
1.01829e-08
1.39988e-08
1.49555e-08
1.0594e-08
4.68759e-09
2.10319e-09
9.80284e-10
4.72845e-10
2.32741e-10
1.18486e-10
6.17713e-11
3.29038e-11
1.74537e-11
9.459e-12
5.114e-12
2.73519e-12
1.43625e-12
7.35859e-13
3.59666e-13
1.71477e-13
7.83347e-14
3.76275e-14
2.46339e-14
3.14325e-14
5.63158e-14
7.94743e-14
4.20938e-14
1.02261e-14
1.51394e-15
2.12675e-23
6.77081e-22
4.01106e-22
7.10873e-22
5.13632e-22
7.33724e-22
3.1756e-22
1.12988e-21
2.82496e-22
1.07421e-22
1.05795e-21
9.91392e-22
1.07545e-21
2.135e-22
5.43071e-22
7.46045e-22
2.05522e-22
8.07568e-22
8.71082e-22
1.13255e-21
1.07187e-21
7.86822e-22
6.88451e-22
6.76439e-22
1.46362e-21
2.83844e-22
7.40012e-22
1.2542e-21
9.53485e-21
3.94387e-20
1.22992e-19
3.89818e-19
1.2838e-18
4.17513e-18
1.32226e-17
4.09923e-17
1.26153e-16
3.74348e-16
1.1895e-15
3.53691e-15
1.0466e-14
2.97007e-14
8.28195e-14
2.28733e-13
6.23819e-13
1.60035e-12
3.75602e-12
7.88865e-12
1.45875e-11
2.39138e-11
3.63528e-11
5.45281e-11
8.33878e-11
1.21527e-10
1.85121e-10
2.70578e-10
4.09598e-10
6.82663e-10
1.26139e-09
2.56734e-09
5.4728e-09
1.03885e-08
1.46561e-08
1.13491e-08
6.4791e-09
3.73559e-09
2.47736e-09
2.23708e-09
2.83692e-09
4.30385e-09
6.70525e-09
1.01787e-08
1.39958e-08
1.49573e-08
1.05999e-08
4.69107e-09
2.10464e-09
9.80918e-10
4.73134e-10
2.32872e-10
1.1855e-10
6.18028e-11
3.29201e-11
1.74619e-11
9.46337e-12
5.11636e-12
2.73645e-12
1.43692e-12
7.3621e-13
3.59833e-13
1.71558e-13
7.83708e-14
3.76429e-14
2.46396e-14
3.14336e-14
5.633e-14
7.95001e-14
4.21162e-14
1.02316e-14
1.51476e-15
1.00385e-22
8.25591e-23
8.10249e-22
7.3081e-22
6.31269e-22
8.22358e-23
1.4746e-23
1.08592e-22
7.28413e-22
8.27568e-22
1.20052e-22
4.79641e-22
6.67489e-23
1.2851e-22
6.98374e-22
4.66812e-22
1.23047e-21
8.9335e-22
1.14856e-22
2.32578e-22
2.49149e-22
4.42223e-22
8.59737e-22
3.39356e-22
2.50079e-21
8.31026e-22
2.37392e-21
3.57532e-21
1.35179e-20
4.13665e-20
1.27765e-19
4.02099e-19
1.31012e-18
4.22659e-18
1.35529e-17
4.18187e-17
1.28162e-16
3.81272e-16
1.19948e-15
3.5622e-15
1.05247e-14
2.93653e-14
8.39102e-14
2.29518e-13
6.23736e-13
1.60289e-12
3.76093e-12
7.89692e-12
1.45996e-11
2.39296e-11
3.63741e-11
5.45594e-11
8.34356e-11
1.21595e-10
1.85261e-10
2.70793e-10
4.10075e-10
6.83698e-10
1.26382e-09
2.57334e-09
5.48638e-09
1.04094e-08
1.46584e-08
1.13196e-08
6.45977e-09
3.72513e-09
2.47322e-09
2.23753e-09
2.84181e-09
4.31303e-09
6.71914e-09
1.01966e-08
1.40087e-08
1.49479e-08
1.05714e-08
4.67451e-09
2.09759e-09
9.77783e-10
4.71676e-10
2.32203e-10
1.18221e-10
6.16365e-11
3.28332e-11
1.74181e-11
9.43983e-12
5.10364e-12
2.72959e-12
1.43326e-12
7.34285e-13
3.58898e-13
1.71098e-13
7.81664e-14
3.75524e-14
2.46007e-14
3.14154e-14
5.62704e-14
7.93866e-14
4.19777e-14
1.01966e-14
1.50951e-15
7.28275e-23
1.54103e-23
8.95441e-23
1.22516e-22
2.9388e-22
3.03217e-22
6.23413e-23
6.44223e-22
3.22581e-22
2.15616e-22
3.85532e-23
3.29728e-22
7.64067e-23
9.93184e-22
6.84487e-22
1.76222e-21
2.48697e-21
6.75057e-22
3.76756e-22
1.02193e-21
1.47006e-21
2.04036e-21
5.54219e-22
2.68156e-21
2.40935e-21
1.46461e-21
2.22479e-21
2.24157e-21
1.47573e-20
4.59371e-20
1.22832e-19
3.78492e-19
1.24459e-18
3.89497e-18
1.19103e-17
3.77088e-17
1.19098e-16
3.58722e-16
1.1384e-15
3.58725e-15
1.01853e-14
2.96383e-14
8.13895e-14
2.30191e-13
6.23625e-13
1.60091e-12
3.7576e-12
7.8931e-12
1.45974e-11
2.39319e-11
3.6384e-11
5.45846e-11
8.34922e-11
1.21704e-10
1.8543e-10
2.71117e-10
4.10973e-10
6.85814e-10
1.26902e-09
2.58642e-09
5.51656e-09
1.04564e-08
1.46642e-08
1.12552e-08
6.41773e-09
3.7025e-09
2.46438e-09
2.23867e-09
2.85256e-09
4.3329e-09
6.74839e-09
1.02354e-08
1.40362e-08
1.49272e-08
1.05095e-08
4.63887e-09
2.08244e-09
9.71047e-10
4.68546e-10
2.30767e-10
1.17516e-10
6.12801e-11
3.26474e-11
1.73243e-11
9.38949e-12
5.07644e-12
2.71494e-12
1.42545e-12
7.30182e-13
3.56899e-13
1.70117e-13
7.77313e-14
3.73589e-14
2.45164e-14
3.13774e-14
5.61434e-14
7.91447e-14
4.16875e-14
1.01233e-14
1.49854e-15
2.97537e-22
6.66815e-22
2.86706e-22
4.50585e-22
3.00442e-22
3.38286e-22
4.06116e-22
8.00614e-23
2.15863e-23
2.67917e-22
3.63292e-23
1.12005e-22
3.3525e-22
4.28152e-22
7.81298e-23
5.37454e-22
1.08914e-21
1.36031e-21
1.40435e-21
1.9675e-21
8.47553e-22
5.11245e-22
1.18306e-21
1.42077e-21
1.74047e-21
3.88327e-21
4.97219e-21
1.13607e-21
1.31833e-20
4.01406e-20
1.20231e-19
3.69296e-19
1.19782e-18
3.76646e-18
1.19015e-17
3.74823e-17
1.17301e-16
3.59145e-16
1.14932e-15
3.56191e-15
1.02924e-14
2.90469e-14
8.09719e-14
2.30126e-13
6.20763e-13
1.59448e-12
3.74689e-12
7.87863e-12
1.45833e-11
2.39234e-11
3.63868e-11
5.46103e-11
8.35689e-11
1.21869e-10
1.85651e-10
2.71583e-10
4.1236e-10
6.8918e-10
1.27746e-09
2.60786e-09
5.56575e-09
1.05322e-08
1.46713e-08
1.11527e-08
6.35172e-09
3.66719e-09
2.45065e-09
2.24053e-09
2.86949e-09
4.3639e-09
6.79381e-09
1.02948e-08
1.40785e-08
1.48946e-08
1.0415e-08
4.5855e-09
2.05975e-09
9.6097e-10
4.63864e-10
2.28621e-10
1.16461e-10
6.07453e-11
3.23688e-11
1.71837e-11
9.31407e-12
5.03571e-12
2.693e-12
1.41376e-12
7.24047e-13
3.53914e-13
1.68653e-13
7.70793e-14
3.70662e-14
2.43803e-14
3.12921e-14
5.59413e-14
7.87763e-14
4.1258e-14
1.0015e-14
1.48232e-15
2.70365e-22
1.66013e-22
5.10908e-22
7.76994e-22
5.2489e-22
1.58559e-22
2.40845e-22
7.02751e-22
3.11179e-22
5.47574e-23
3.93296e-22
5.54187e-22
7.06121e-22
1.28772e-21
1.0843e-21
1.30769e-21
1.35214e-21
1.74947e-21
1.13488e-21
2.02687e-21
2.91406e-21
3.47093e-22
5.19214e-23
9.10106e-23
1.71714e-21
3.77752e-21
3.1715e-21
3.70607e-21
1.27582e-20
3.382e-20
1.13387e-19
3.79877e-19
1.20304e-18
3.82183e-18
1.21903e-17
3.81391e-17
1.19331e-16
3.61747e-16
1.11328e-15
3.41185e-15
1.01971e-14
2.88319e-14
7.95157e-14
2.27004e-13
6.16409e-13
1.58432e-12
3.7279e-12
7.85033e-12
1.45514e-11
2.38974e-11
3.63744e-11
5.46262e-11
8.36529e-11
1.22077e-10
1.85883e-10
2.72123e-10
4.14096e-10
6.93515e-10
1.28851e-09
2.63628e-09
5.63142e-09
1.0633e-08
1.4675e-08
1.10132e-08
6.26391e-09
3.62059e-09
2.43249e-09
2.24273e-09
2.8911e-09
4.40439e-09
6.85255e-09
1.03717e-08
1.41313e-08
1.48516e-08
1.02929e-08
4.51779e-09
2.03092e-09
9.48136e-10
4.5789e-10
2.25881e-10
1.15109e-10
6.00638e-11
3.20136e-11
1.70043e-11
9.21777e-12
4.98371e-12
2.66501e-12
1.39884e-12
7.16216e-13
3.50106e-13
1.66786e-13
7.62471e-14
3.66926e-14
2.4204e-14
3.11775e-14
5.567e-14
7.82902e-14
4.07117e-14
9.87733e-15
1.46173e-15
1.4555e-24
2.28903e-23
6.00867e-22
3.23703e-22
3.6266e-22
3.00311e-22
1.07722e-21
5.36493e-22
4.14289e-22
3.3421e-22
2.1743e-22
4.53065e-22
1.47395e-21
1.25673e-21
1.80278e-22
6.39041e-22
6.09724e-22
9.54898e-23
1.76529e-22
1.26613e-21
2.61789e-22
2.41089e-21
3.85576e-22
3.44218e-21
3.44618e-21
4.39906e-21
3.87725e-21
7.68984e-21
1.04648e-20
3.56334e-20
1.09396e-19
3.52912e-19
1.16325e-18
3.76229e-18
1.17149e-17
3.76765e-17
1.16321e-16
3.53086e-16
1.09902e-15
3.42547e-15
9.83139e-15
2.90444e-14
8.02558e-14
2.23661e-13
6.07331e-13
1.56746e-12
3.69867e-12
7.80652e-12
1.45004e-11
2.38501e-11
3.63408e-11
5.46247e-11
8.37367e-11
1.22319e-10
1.8605e-10
2.72679e-10
4.16089e-10
6.986e-10
1.30162e-09
2.67006e-09
5.70883e-09
1.07486e-08
1.46747e-08
1.08554e-08
6.16224e-09
3.56557e-09