/*--------------------------------*- C++ -*----------------------------------*\
  =========                 |
  \\      /  F ield         | OpenFOAM: The Open Source CFD Toolbox
   \\    /   O peration     | Website:  https://openfoam.org
    \\  /    A nd           | Version:  10
     \\/     M anipulation  |
\*---------------------------------------------------------------------------*/
FoamFile
{
    format      ascii;
    class       volScalarField;
    location    "1";
    object      PXC10H21;
}
// * * * * * * * * * * * * * * * * * * * * * * * * * * * * * * * * * * * * * //

dimensions      [0 0 0 0 0 0 0];

internalField   nonuniform List<scalar> 
4000
(
8.81623e-24
1.48853e-23
1.94167e-23
2.45028e-23
3.08444e-23
3.65187e-23
4.27095e-23
4.96783e-23
5.85331e-23
7.17186e-23
9.27978e-23
1.12794e-22
1.33392e-22
1.53156e-22
1.75004e-22
1.98429e-22
2.19605e-22
2.40303e-22
2.65474e-22
2.92695e-22
3.1951e-22
3.51384e-22
3.94327e-22
4.44648e-22
5.40175e-22
7.30118e-22
1.24082e-21
2.70401e-21
7.01209e-21
2e-20
5.95458e-20
1.79736e-19
5.405e-19
1.61845e-18
4.82621e-18
1.39013e-17
4.06684e-17
1.20743e-16
3.49436e-16
1.00004e-15
2.75804e-15
7.45335e-15
1.96595e-14
5.051e-14
1.26227e-13
3.29261e-13
8.70179e-13
2.25581e-12
5.68171e-12
1.38387e-11
3.25844e-11
7.5445e-11
1.57614e-10
3.46174e-10
7.39352e-10
1.50514e-09
2.86691e-09
5.33942e-09
9.41539e-09
1.54597e-08
2.294e-08
2.88724e-08
2.78558e-08
1.54035e-08
6.67435e-09
3.19265e-09
2.07461e-09
2.13128e-09
3.04579e-09
4.86111e-09
7.7864e-09
1.18498e-08
1.53904e-08
1.48914e-08
9.4969e-09
4.25225e-09
1.93947e-09
9.16687e-10
4.46931e-10
2.23479e-10
1.14794e-10
6.03196e-11
3.2308e-11
1.75589e-11
9.61966e-12
5.26822e-12
2.86085e-12
1.52884e-12
7.98333e-13
4.04775e-13
1.98601e-13
9.19411e-14
4.33927e-14
2.41095e-14
2.18953e-14
3.46813e-14
5.57135e-14
6.70865e-14
5.00507e-14
1.60858e-14
1.14537e-23
3.14e-23
4.43579e-23
6.51629e-23
8.29731e-23
9.42451e-23
1.05551e-22
1.15645e-22
1.30374e-22
1.48181e-22
1.64271e-22
1.83477e-22
2.03302e-22
2.19799e-22
2.39082e-22
2.5995e-22
2.7881e-22
2.99921e-22
3.23278e-22
3.49472e-22
3.74896e-22
4.02271e-22
4.45195e-22
4.98129e-22
6.05387e-22
8.19851e-22
1.39749e-21
3.14585e-21
8.43975e-21
2.46317e-20
7.41347e-20
2.35995e-19
7.17267e-19
2.14243e-18
6.36318e-18
1.86352e-17
5.53504e-17
1.59348e-16
4.57622e-16
1.28212e-15
3.5442e-15
9.47244e-15
2.50088e-14
6.40577e-14
1.66307e-13
4.39492e-13
1.14564e-12
2.91124e-12
7.2249e-12
1.75523e-11
3.84217e-11
8.00774e-11
1.78158e-10
3.83177e-10
8.06951e-10
1.63998e-09
3.03722e-09
5.54204e-09
9.63429e-09
1.56054e-08
2.30117e-08
2.89025e-08
2.79823e-08
1.57254e-08
6.87669e-09
3.28657e-09
2.09964e-09
2.10642e-09
2.97394e-09
4.73916e-09
7.61769e-09
1.16691e-08
1.53321e-08
1.5066e-08
9.74347e-09
4.36639e-09
1.98731e-09
9.37446e-10
4.56256e-10
2.27771e-10
1.16772e-10
6.12738e-11
3.2782e-11
1.77858e-11
9.72197e-12
5.31098e-12
2.8761e-12
1.53222e-12
7.97269e-13
4.02583e-13
1.96634e-13
9.06962e-14
4.28473e-14
2.42442e-14
2.2828e-14
3.678e-14
5.79586e-14
6.5115e-14
4.98738e-14
1.58668e-14
2.53422e-23
4.7053e-23
7.3338e-23
9.7737e-23
1.33097e-22
1.45368e-22
1.58998e-22
1.76509e-22
1.98283e-22
2.10046e-22
2.28154e-22
2.42544e-22
2.58282e-22
2.73715e-22
2.86144e-22
3.03023e-22
3.15385e-22
3.33122e-22
3.60346e-22
3.87291e-22
4.19105e-22
4.54166e-22
5.01053e-22
5.67313e-22
6.80193e-22
9.57732e-22
1.66459e-21
3.86826e-21
1.05988e-20
3.14304e-20
9.83269e-20
3.00094e-19
8.99392e-19
2.72477e-18
8.19884e-18
2.4105e-17
6.96425e-17
1.99704e-16
5.67221e-16
1.56857e-15
4.28185e-15
1.1013e-14
3.01881e-14
7.60224e-14
2.03269e-13
5.25045e-13
1.36865e-12
3.44367e-12
8.28514e-12
1.97636e-11
4.30036e-11
9.03663e-11
1.99929e-10
4.34719e-10
8.8603e-10
1.70866e-09
3.11868e-09
5.64735e-09
9.75348e-09
1.57304e-08
2.30958e-08
2.89504e-08
2.80721e-08
1.59956e-08
7.04723e-09
3.36879e-09
2.12382e-09
2.08438e-09
2.91047e-09
4.63292e-09
7.4755e-09
1.14994e-08
1.52762e-08
1.5242e-08
1.00166e-08
4.49556e-09
2.0415e-09
9.61052e-10
4.66934e-10
2.32778e-10
1.19259e-10
6.25007e-11
3.33845e-11
1.80589e-11
9.84378e-12
5.3614e-12
2.89373e-12
1.53588e-12
7.9572e-13
3.99332e-13
1.93816e-13
8.90237e-14
4.21765e-14
2.44657e-14
2.40812e-14
3.93691e-14
6.06612e-14
6.30863e-14
4.95456e-14
1.56156e-14
1.99193e-23
4.23942e-23
7.0457e-23
9.4495e-23
1.1777e-22
1.39596e-22
1.52111e-22
1.67301e-22
1.92573e-22
2.15721e-22
2.37166e-22
2.52236e-22
2.69407e-22
2.89153e-22
3.09708e-22
3.33309e-22
3.58122e-22
3.81386e-22
4.07361e-22
4.28132e-22
4.60191e-22
5.18959e-22
5.73715e-22
6.20802e-22
7.5394e-22
1.09128e-21
2.01854e-21
4.84167e-21
1.32885e-20
4.12599e-20
1.25131e-19
3.81888e-19
1.15283e-18
3.46989e-18
1.0355e-17
3.02593e-17
8.68024e-17
2.48645e-16
6.89635e-16
1.93878e-15
5.24531e-15
1.37644e-14
3.65209e-14
9.19158e-14
2.34993e-13
6.19206e-13
1.59195e-12
3.92448e-12
9.5827e-12
2.10121e-11
4.51882e-11
1.03112e-10
2.28356e-10
4.81269e-10
9.63953e-10
1.75124e-09
3.19568e-09
5.75007e-09
9.8742e-09
1.58206e-08
2.31425e-08
2.89707e-08
2.81616e-08
1.62277e-08
7.19613e-09
3.44386e-09
2.15033e-09
2.07127e-09
2.85881e-09
4.54105e-09
7.33626e-09
1.13343e-08
1.52177e-08
1.53891e-08
1.02875e-08
4.57554e-09
2.07986e-09
9.7984e-10
4.76315e-10
2.37498e-10
1.21633e-10
6.3739e-11
3.41177e-11
1.81867e-11
9.91419e-12
5.3946e-12
2.90657e-12
1.5395e-12
7.97074e-13
3.93622e-13
1.90313e-13
8.73416e-14
4.15942e-14
2.48241e-14
2.55913e-14
4.21438e-14
6.36354e-14
6.11163e-14
4.90929e-14
1.53479e-14
1.6832e-23
3.85209e-23
5.90055e-23
8.24228e-23
1.05995e-22
1.2604e-22
1.508e-22
1.68712e-22
1.90686e-22
2.15471e-22
2.36631e-22
2.57921e-22
2.78614e-22
3.00457e-22
3.28494e-22
3.60039e-22
3.87486e-22
4.07666e-22
4.37884e-22
4.62718e-22
4.95105e-22
5.52777e-22
5.94365e-22
6.64338e-22
8.1756e-22
1.22204e-21
2.43526e-21
6.13982e-21
1.74999e-20
5.25009e-20
1.59559e-19
4.95426e-19
1.48314e-18
4.43222e-18
1.30259e-17
3.77646e-17
1.07454e-16
2.98579e-16
8.45482e-16
2.32044e-15
6.21024e-15
1.62921e-14
4.16594e-14
1.0752e-13
2.72373e-13
7.10327e-13
1.78765e-12
4.44639e-12
1.00313e-11
2.16987e-11
5.00553e-11
1.12963e-10
2.50821e-10
5.34508e-10
9.92997e-10
1.80054e-09
3.27299e-09
5.84158e-09
9.96461e-09
1.59097e-08
2.32025e-08
2.90076e-08
2.82247e-08
1.63975e-08
7.31586e-09
3.51298e-09
2.17544e-09
2.0649e-09
2.82487e-09
4.47679e-09
7.24172e-09
1.12261e-08
1.51816e-08
1.55191e-08
1.04993e-08
4.67478e-09
2.12171e-09
9.9881e-10
4.85123e-10
2.41663e-10
1.23692e-10
6.47855e-11
3.46557e-11
1.84586e-11
1.00428e-11
5.45275e-12
2.93053e-12
1.54763e-12
7.98404e-13
3.92889e-13
1.89054e-13
8.66316e-14
4.14408e-14
2.53675e-14
2.71984e-14
4.49207e-14
6.67586e-14
5.98966e-14
4.85001e-14
1.50905e-14
1.44875e-23
3.48662e-23
5.67665e-23
8.09464e-23
1.03161e-22
1.24555e-22
1.47323e-22
1.67857e-22
1.82973e-22
2.02514e-22
2.25905e-22
2.53301e-22
2.77403e-22
2.96972e-22
3.24216e-22
3.58742e-22
3.85446e-22
4.19796e-22
4.54291e-22
5.02467e-22
5.70625e-22
6.1141e-22
6.68883e-22
7.35701e-22
9.1713e-22
1.4277e-21
3.00054e-21
7.76271e-21
2.26891e-20
6.74318e-20
2.01164e-19
6.29885e-19
1.85935e-18
5.4611e-18
1.56919e-17
4.56994e-17
1.27744e-16
3.48454e-16
1.00069e-15
2.80854e-15
7.33357e-15
1.88037e-14
4.81332e-14
1.22295e-13
3.13182e-13
7.93034e-13
2.03623e-12
4.67575e-12
1.0418e-11
2.37491e-11
5.43612e-11
1.2231e-10
2.66107e-10
5.60808e-10
1.03493e-09
1.85601e-09
3.33335e-09
5.92386e-09
1.00404e-08
1.59667e-08
2.32318e-08
2.90264e-08
2.82985e-08
1.65728e-08
7.42293e-09
3.5631e-09
2.19448e-09
2.05938e-09
2.79502e-09
4.42568e-09
7.16938e-09
1.11363e-08
1.51447e-08
1.5603e-08
1.06435e-08
4.74873e-09
2.15429e-09
1.01357e-09
4.92113e-10
2.4513e-10
1.25434e-10
6.56833e-11
3.5116e-11
1.87099e-11
1.017e-11
5.51442e-12
2.95844e-12
1.55885e-12
8.01869e-13
3.93791e-13
1.88809e-13
8.65037e-14
4.15571e-14
2.59796e-14
2.87218e-14
4.7466e-14
6.97609e-14
5.94945e-14
4.85314e-14
1.50255e-14
1.36274e-23
3.34886e-23
5.32308e-23
7.45227e-23
9.32243e-23
1.12582e-22
1.33302e-22
1.54468e-22
1.8287e-22
2.07672e-22
2.33891e-22
2.58544e-22
2.83536e-22
3.11145e-22
3.33668e-22
3.60203e-22
3.87049e-22
4.12148e-22
4.36069e-22
4.6891e-22
5.20933e-22
5.73041e-22
6.16256e-22
7.19104e-22
9.84841e-22
1.66358e-21
3.63285e-21
9.44844e-21
2.83411e-20
8.49905e-20
2.5415e-19
7.57213e-19
2.25076e-18
6.59869e-18
1.89117e-17
5.44422e-17
1.55222e-16
4.19484e-16
1.1974e-15
3.22874e-15
8.45515e-15
2.1798e-14
5.48613e-14
1.38213e-13
3.45795e-13
8.797e-13
2.15846e-12
4.73208e-12
1.11288e-11
2.55844e-11
5.77652e-11
1.28454e-10
2.77107e-10
5.79113e-10
1.0627e-09
1.89746e-09
3.38161e-09
5.9753e-09
1.00908e-08
1.59996e-08
2.32394e-08
2.90358e-08
2.83806e-08
1.67516e-08
7.53027e-09
3.61321e-09
2.21228e-09
2.05549e-09
2.77101e-09
4.38096e-09
7.10273e-09
1.10534e-08
1.51088e-08
1.56812e-08
1.07859e-08
4.82066e-09
2.18651e-09
1.02834e-09
4.99156e-10
2.48559e-10
1.27164e-10
6.65746e-11
3.55785e-11
1.89623e-11
1.03008e-11
5.58023e-12
2.99006e-12
1.57299e-12
8.07449e-13
3.96004e-13
1.8938e-13
8.67922e-14
4.18505e-14
2.65984e-14
3.0092e-14
4.9696e-14
7.24589e-14
5.95889e-14
4.8776e-14
1.50499e-14
1.64841e-23
3.64275e-23
5.9102e-23
8.51689e-23
1.07272e-22
1.30795e-22
1.50572e-22
1.71894e-22
1.93819e-22
2.16671e-22
2.38432e-22
2.672e-22
2.95609e-22
3.23265e-22
3.46452e-22
3.7478e-22
4.08483e-22
4.33998e-22
4.62774e-22
5.03093e-22
5.339e-22
5.69509e-22
6.24321e-22
7.4266e-22
1.05626e-21
1.90623e-21
4.43242e-21
1.19371e-20
3.4243e-20
1.01231e-19
3.06155e-19
9.22275e-19
2.70939e-18
7.851e-18
2.22234e-17
6.32214e-17
1.78697e-16
4.78178e-16
1.34182e-15
3.66935e-15
9.56395e-15
2.43075e-14
6.19614e-14
1.54165e-13
3.8664e-13
9.72125e-13
2.23803e-12
5.10958e-12
1.19426e-11
2.72662e-11
6.14623e-11
1.34954e-10
2.87992e-10
5.96298e-10
1.08716e-09
1.92912e-09
3.41814e-09
6.01158e-09
1.0115e-08
1.59991e-08
2.32147e-08
2.90279e-08
2.84814e-08
1.69517e-08
7.64681e-09
3.67449e-09
2.23296e-09
2.05225e-09
2.74726e-09
4.33505e-09
7.03244e-09
1.09651e-08
1.50636e-08
1.57578e-08
1.09393e-08
4.90078e-09
2.22129e-09
1.04425e-09
5.06744e-10
2.52198e-10
1.28998e-10
6.75204e-11
3.60729e-11
1.9229e-11
1.0441e-11
5.65267e-12
3.02634e-12
1.59034e-12
8.15182e-13
3.99443e-13
1.90687e-13
8.74202e-14
4.22724e-14
2.71861e-14
3.12487e-14
5.15837e-14
7.48203e-14
6.00021e-14
4.91705e-14
1.51364e-14
1.59886e-23
3.92316e-23
6.35e-23
8.99109e-23
1.10038e-22
1.32596e-22
1.54408e-22
1.79588e-22
2.04242e-22
2.32254e-22
2.45114e-22
2.67113e-22
2.97639e-22
3.2312e-22
3.54423e-22
3.80363e-22
4.11598e-22
4.48033e-22
4.7818e-22
4.98126e-22
5.28458e-22
5.81514e-22
6.40736e-22
7.87017e-22
1.15691e-21
2.21027e-21
5.28625e-21
1.45515e-20
4.22105e-20
1.23648e-19
3.65666e-19
1.08617e-18
3.16751e-18
9.1474e-18
2.60694e-17
7.3084e-17
2.033e-16
5.39297e-16
1.50366e-15
4.05328e-15
1.06018e-14
2.71401e-14
6.84109e-14
1.7122e-13
4.08345e-13
9.52367e-13
2.33498e-12
5.52289e-12
1.27552e-11
2.90377e-11
6.45356e-11
1.40278e-10
2.96851e-10
6.09966e-10
1.10487e-09
1.95123e-09
3.44152e-09
6.02866e-09
1.01127e-08
1.59659e-08
2.3156e-08
2.89969e-08
2.86234e-08
1.72796e-08
7.82337e-09
3.74458e-09
2.25847e-09
2.04797e-09
2.71645e-09
4.27793e-09
6.93746e-09
1.08456e-08
1.49992e-08
1.58326e-08
1.11052e-08
4.98995e-09
2.2599e-09
1.06187e-09
5.15206e-10
2.56219e-10
1.31022e-10
6.85624e-11
3.66189e-11
1.95186e-11
1.05944e-11
5.73316e-12
3.06769e-12
1.6109e-12
8.24959e-13
4.03982e-13
1.92634e-13
8.83344e-14
4.2799e-14
2.77485e-14
3.22423e-14
5.31661e-14
7.68441e-14
6.0624e-14
4.968e-14
1.52701e-14
1.58825e-23
4.00319e-23
6.33351e-23
8.59026e-23
1.06146e-22
1.27577e-22
1.51787e-22
1.76162e-22
2.03032e-22
2.28687e-22
2.52623e-22
2.84097e-22
3.09452e-22
3.34449e-22
3.70957e-22
4.05267e-22
4.36335e-22
4.62745e-22
5.05088e-22
5.41667e-22
5.62667e-22
5.96884e-22
6.72812e-22
8.3448e-22
1.27602e-21
2.48897e-21
6.13111e-21
1.70087e-20
5.0094e-20
1.48368e-19
4.36573e-19
1.26905e-18
3.65239e-18
1.0433e-17
2.93294e-17
8.1353e-17
2.22853e-16
5.94435e-16
1.6778e-15
4.4438e-15
1.13975e-14
2.90552e-14
7.28591e-14
1.76157e-13
4.15344e-13
1.03789e-12
2.50657e-12
5.89153e-12
1.3605e-11
3.0626e-11
6.75155e-11
1.45583e-10
3.052e-10
6.18661e-10
1.1167e-09
1.96753e-09
3.45434e-09
6.03006e-09
1.00902e-08
1.59118e-08
2.30831e-08
2.8965e-08
2.87812e-08
1.76143e-08
8.00717e-09
3.82919e-09
2.28727e-09
2.04427e-09
2.68511e-09
4.21207e-09
6.82229e-09
1.07257e-08
1.49286e-08
1.59068e-08
1.12996e-08
5.10009e-09
2.30794e-09
1.08361e-09
5.25316e-10
2.6088e-10
1.33322e-10
6.9729e-11
3.72255e-11
1.98337e-11
1.07605e-11
5.82103e-12
3.11352e-12
1.63424e-12
8.3646e-13
4.09423e-13
1.95099e-13
8.94714e-14
4.33955e-14
2.82609e-14
3.30334e-14
5.44499e-14
7.85522e-14
6.13774e-14
5.02713e-14
1.5438e-14
1.60123e-23
4.06026e-23
6.61404e-23
8.56525e-23
1.05869e-22
1.27115e-22
1.45906e-22
1.65867e-22
1.88225e-22
2.11842e-22
2.42173e-22
2.72876e-22
2.99056e-22
3.30377e-22
3.47897e-22
3.71579e-22
3.93238e-22
4.16709e-22
4.55316e-22
5.05956e-22
5.45892e-22
5.85074e-22
6.64329e-22
8.63362e-22
1.37297e-21
2.81549e-21
6.97311e-21
1.93587e-20
5.69064e-20
1.68362e-19
4.94377e-19
1.43426e-18
4.10047e-18
1.17326e-17
3.26874e-17
9.02105e-17
2.46099e-16
6.56059e-16
1.83034e-15
4.78573e-15
1.22026e-14
3.06281e-14
7.51648e-14
1.80542e-13
4.50949e-13
1.11386e-12
2.68203e-12
6.30854e-12
1.44559e-11
3.24211e-11
7.13246e-11
1.53647e-10
3.24051e-10
6.19621e-10
1.1246e-09
1.97758e-09
3.45713e-09
6.01594e-09
1.00445e-08
1.58116e-08
2.29462e-08
2.88775e-08
2.89171e-08
1.79581e-08
8.19517e-09
3.91182e-09
2.31592e-09
2.04141e-09
2.65685e-09
4.1575e-09
6.73231e-09
1.06068e-08
1.48474e-08
1.59788e-08
1.14908e-08
5.20766e-09
2.35457e-09
1.10449e-09
5.35234e-10
2.65503e-10
1.35628e-10
7.09093e-11
3.78449e-11
2.01557e-11
1.09339e-11
5.91292e-12
3.16177e-12
1.65915e-12
8.49078e-13
4.15473e-13
1.97926e-13
9.07627e-14
4.40378e-14
2.87323e-14
3.36698e-14
5.54995e-14
8.00003e-14
6.22096e-14
5.09143e-14
1.56283e-14
1.49234e-23
3.67624e-23
6.47861e-23
8.61682e-23
1.04143e-22
1.27717e-22
1.55342e-22
1.83569e-22
2.04102e-22
2.25652e-22
2.49239e-22
2.75396e-22
2.95697e-22
3.17766e-22
3.40107e-22
3.65891e-22
3.94765e-22
4.2443e-22
4.40673e-22
4.72677e-22
5.095e-22
5.75816e-22
6.87389e-22
9.10665e-22
1.50209e-21
3.11941e-21
7.75942e-21
2.13694e-20
6.31746e-20
1.84957e-19
5.29752e-19
1.57989e-18
4.54047e-18
1.27445e-17
3.64839e-17
9.94703e-17
2.67029e-16
7.09931e-16
1.92972e-15
5.14961e-15
1.30049e-14
3.24121e-14
7.92484e-14
1.93044e-13
4.81064e-13
1.18281e-12
2.83888e-12
6.65099e-12
1.51775e-11
3.38944e-11
7.427e-11
1.59337e-10
3.33458e-10
6.1787e-10
1.13121e-09
1.98409e-09
3.45296e-09
5.99324e-09
9.98787e-09
1.57276e-08
2.28391e-08
2.8825e-08
2.90861e-08
1.83295e-08
8.39378e-09
3.9973e-09
2.34486e-09
2.03906e-09
2.62872e-09
4.10666e-09
6.63184e-09
1.04738e-08
1.4756e-08
1.60383e-08
1.16757e-08
5.32084e-09
2.40283e-09
1.12656e-09
5.45653e-10
2.70337e-10
1.38009e-10
7.2118e-11
3.84777e-11
2.04835e-11
1.1111e-11
6.00914e-12
3.21342e-12
1.68629e-12
8.62835e-13
4.22049e-13
2.01039e-13
9.21876e-14
4.47247e-14
2.91735e-14
3.41859e-14
5.63591e-14
8.12305e-14
6.30768e-14
5.15799e-14
1.58308e-14
1.40458e-23
3.30123e-23
5.90216e-23
8.06789e-23
1.04231e-22
1.29153e-22
1.61381e-22
1.87784e-22
2.05035e-22
2.32132e-22
2.58372e-22
2.79383e-22
3.0469e-22
3.27538e-22
3.51575e-22
3.82932e-22
3.9668e-22
4.14586e-22
4.46479e-22
4.84453e-22
5.41247e-22
5.9309e-22
6.96735e-22
9.2674e-22
1.55588e-21
3.29797e-21
8.35986e-21
2.3276e-20
6.78317e-20
2.04423e-19
5.90265e-19
1.73162e-18
4.94106e-18
1.40749e-17
3.90292e-17
1.06206e-16
2.83542e-16
7.5107e-16
2.03721e-15
5.46329e-15
1.38442e-14
3.46111e-14
8.37351e-14
2.07733e-13
5.06269e-13
1.24177e-12
2.97197e-12
6.90679e-12
1.56535e-11
3.47352e-11
7.56345e-11
1.61268e-10
3.35177e-10
6.15989e-10
1.13947e-09
1.98876e-09
3.44457e-09
5.96107e-09
9.92199e-09
1.56183e-08
2.27236e-08
2.87557e-08
2.92247e-08
1.86944e-08
8.59615e-09
4.08549e-09
2.3749e-09
2.03702e-09
2.59974e-09
4.04969e-09
6.54047e-09
1.03537e-08
1.46671e-08
1.60926e-08
1.18687e-08
5.44197e-09
2.45524e-09
1.14984e-09
5.56456e-10
2.75301e-10
1.40496e-10
7.33936e-11
3.91477e-11
2.08234e-11
1.12933e-11
6.1072e-12
3.26586e-12
1.71396e-12
8.77233e-13
4.29036e-13
2.04402e-13
9.36855e-14
4.54192e-14
2.95811e-14
3.46106e-14
5.70939e-14
8.23324e-14
6.40032e-14
5.22904e-14
1.60498e-14
1.39812e-23
3.97297e-23
5.878e-23
8.17542e-23
1.03644e-22
1.25034e-22
1.53072e-22
1.77047e-22
1.99391e-22
2.26992e-22
2.50131e-22
2.76145e-22
3.04148e-22
3.35208e-22
3.72347e-22
4.0443e-22
4.22599e-22
4.28906e-22
4.60801e-22
4.86334e-22
5.55417e-22
6.07182e-22
6.90616e-22
9.05279e-22
1.5453e-21
3.41385e-21
9.04505e-21
2.54026e-20
7.40452e-20
2.16904e-19
6.26424e-19
1.85631e-18
5.21429e-18
1.49049e-17
4.10897e-17
1.11965e-16
2.99824e-16
7.78859e-16
2.14772e-15
5.77038e-15
1.44302e-14
3.58165e-14
8.79995e-14
2.18779e-13
5.27983e-13
1.29191e-12
3.06808e-12
7.08851e-12
1.59823e-11
3.52893e-11
7.64626e-11
1.62333e-10
3.35599e-10
6.13886e-10
1.14486e-09
1.99107e-09
3.4347e-09
5.93207e-09
9.86419e-09
1.55149e-08
2.25849e-08
2.8664e-08
2.93419e-08
1.9042e-08
8.79067e-09
4.1705e-09
2.4054e-09
2.03637e-09
2.5734e-09
3.99648e-09
6.45501e-09
1.02334e-08
1.45755e-08
1.61354e-08
1.20409e-08
5.56075e-09
2.50619e-09
1.17257e-09
5.67229e-10
2.80306e-10
1.42963e-10
7.46463e-11
3.98029e-11
2.11588e-11
1.14726e-11
6.20349e-12
3.31731e-12
1.7411e-12
8.91296e-13
4.35836e-13
2.07679e-13
9.51679e-14
4.61055e-14
2.99539e-14
3.49383e-14
5.76872e-14
8.32594e-14
6.48922e-14
5.29679e-14
1.62611e-14
1.68518e-23
3.99232e-23
6.19055e-23
8.74229e-23
1.08992e-22
1.25471e-22
1.43893e-22
1.63034e-22
1.88644e-22
2.22003e-22
2.54291e-22
2.86712e-22
3.17776e-22
3.44362e-22
3.62852e-22
3.90395e-22
4.20585e-22
4.49773e-22
4.61756e-22
4.76459e-22
5.01741e-22
5.56989e-22
6.73311e-22
9.06535e-22
1.5961e-21
3.58308e-21
9.47417e-21
2.67786e-20
7.78705e-20
2.31123e-19
6.75136e-19
1.95407e-18
5.48762e-18
1.56135e-17
4.2486e-17
1.14477e-16
3.1428e-16
8.13319e-16
2.22453e-15
5.87813e-15
1.52793e-14
3.77881e-14
9.29904e-14
2.23622e-13
5.45428e-13
1.3277e-12
3.13996e-12
7.22602e-12
1.62317e-11
3.57128e-11
7.70975e-11
1.62956e-10
3.35628e-10
6.12013e-10
1.1475e-09
1.99013e-09
3.42027e-09
5.89788e-09
9.79627e-09
1.54168e-08
2.24634e-08
2.85846e-08
2.9458e-08
1.93673e-08
8.97632e-09
4.25211e-09
2.43496e-09
2.03795e-09
2.5553e-09
3.95016e-09
6.3788e-09
1.01261e-08
1.449e-08
1.61717e-08
1.21986e-08
5.67333e-09
2.55436e-09
1.19426e-09
5.77344e-10
2.84961e-10
1.45254e-10
7.58067e-11
4.04081e-11
2.14662e-11
1.16372e-11
6.29208e-12
3.36475e-12
1.76619e-12
9.04336e-13
4.42145e-13
2.10723e-13
9.65319e-14
4.67294e-14
3.02835e-14
3.52194e-14
5.81624e-14
8.40171e-14
6.56982e-14
5.35795e-14
1.64536e-14
1.59071e-23
3.97167e-23
6.38812e-23
8.72556e-23
1.07804e-22
1.30129e-22
1.51384e-22
1.68066e-22
1.89397e-22
2.09955e-22
2.32848e-22
2.69349e-22
2.90408e-22
3.09729e-22
3.40728e-22
3.73158e-22
4.04444e-22
4.43678e-22
4.6667e-22
4.91946e-22
5.15362e-22
5.73759e-22
7.00525e-22
9.62894e-22
1.70302e-21
3.77813e-21
9.9992e-21
2.81399e-20
8.09744e-20
2.40643e-19
6.95666e-19
2.01807e-18
5.76299e-18
1.61319e-17
4.45246e-17
1.21606e-16
3.26508e-16
8.78801e-16
2.33639e-15
6.2494e-15
1.57203e-14
3.84057e-14
9.47835e-14
2.28154e-13
5.58927e-13
1.35532e-12
3.19427e-12
7.32711e-12
1.64074e-11
3.59885e-11
7.74844e-11
1.6333e-10
3.35502e-10
6.10361e-10
1.14881e-09
1.98808e-09
3.40635e-09
5.8632e-09
9.73364e-09
1.53179e-08
2.2348e-08
2.85077e-08
2.95416e-08
1.96318e-08
9.13352e-09
4.32211e-09
2.4604e-09
2.03879e-09
2.53583e-09
3.90929e-09
6.31312e-09
1.0033e-08
1.44133e-08
1.61983e-08
1.23316e-08
5.77158e-09
2.59632e-09
1.213e-09
5.86085e-10
2.88988e-10
1.47235e-10
7.68081e-11
4.09317e-11
2.1732e-11
1.17797e-11
6.36882e-12
3.40591e-12
1.788e-12
9.15708e-13
4.47665e-13
2.1342e-13
9.77335e-14
4.72736e-14
3.05595e-14
3.54359e-14
5.85364e-14
8.46287e-14
6.63961e-14
5.41051e-14
1.66197e-14
1.44959e-23
3.99041e-23
6.34565e-23
8.05362e-23
1.00394e-22
1.22875e-22
1.49785e-22
1.81025e-22
2.02085e-22
2.20252e-22
2.40339e-22
2.64662e-22
2.88619e-22
3.13292e-22
3.49944e-22
3.79821e-22
3.93915e-22
4.23007e-22
4.54717e-22
5.02915e-22
5.46936e-22
6.12402e-22
7.49e-22
1.01577e-21
1.79339e-21
4.0174e-21
1.04306e-20
2.92389e-20
8.46961e-20
2.50107e-19
7.24817e-19
2.11693e-18
5.98693e-18
1.67261e-17
4.61322e-17
1.26405e-16
3.40895e-16
9.04762e-16
2.38752e-15
6.29744e-15
1.59335e-14
3.93811e-14
9.47771e-14
2.30891e-13
5.69716e-13
1.37655e-12
3.23541e-12
7.40365e-12
1.65407e-11
3.6199e-11
7.77714e-11
1.6359e-10
3.35377e-10
6.09126e-10
1.14923e-09
1.98564e-09
3.39412e-09
5.83734e-09
9.68794e-09
1.52487e-08
2.22668e-08
2.84504e-08
2.96132e-08
1.98719e-08
9.27047e-09
4.38127e-09
2.4814e-09
2.03922e-09
2.51943e-09
3.87641e-09
6.26114e-09
9.96059e-09
1.43534e-08
1.62165e-08
1.2435e-08
5.85039e-09
2.62997e-09
1.22801e-09
5.93083e-10
2.92212e-10
1.4882e-10
7.76071e-11
4.13478e-11
2.19431e-11
1.18929e-11
6.42991e-12
3.43874e-12
1.80544e-12
9.24821e-13
4.5209e-13
2.15578e-13
9.8694e-14
4.77044e-14
3.07654e-14
3.55699e-14
5.88041e-14
8.50878e-14
6.69538e-14
5.45237e-14
1.67525e-14
1.72355e-23
4.49281e-23
7.20598e-23
9.87626e-23
1.1623e-22
1.30982e-22
1.51754e-22
1.79106e-22
1.90273e-22
2.03426e-22
2.23136e-22
2.46673e-22
2.74032e-22
2.99348e-22
3.35313e-22
3.79438e-22
4.1666e-22
4.44811e-22
4.84724e-22
5.20048e-22
5.6351e-22
6.13766e-22
7.37564e-22
1.02564e-21
1.81278e-21
4.06651e-21
1.07497e-20
3.03833e-20
8.91441e-20
2.58241e-19
7.44637e-19
2.12755e-18
6.1118e-18
1.70387e-17
4.75386e-17
1.30273e-16
3.48221e-16
9.09043e-16
2.41409e-15
6.33345e-15
1.59779e-14
3.93283e-14
9.56942e-14
2.33422e-13
5.77377e-13
1.39177e-12
3.2648e-12
7.45835e-12
1.6637e-11
3.63569e-11
7.79812e-11
1.63798e-10
3.35331e-10
6.08318e-10
1.14942e-09
1.98385e-09
3.38571e-09
5.8187e-09
9.65432e-09
1.51973e-08
2.22054e-08
2.84071e-08
2.96573e-08
2.00283e-08
9.36203e-09
4.4214e-09
2.4957e-09
2.03939e-09
2.50795e-09
3.85376e-09
6.22576e-09
9.9094e-09
1.43094e-08
1.62285e-08
1.25072e-08
5.90659e-09
2.65393e-09
1.23869e-09
5.98057e-10
2.94505e-10
1.49947e-10
7.8179e-11
4.16453e-11
2.20937e-11
1.19736e-11
6.47339e-12
3.46209e-12
1.81783e-12
9.31302e-13
4.55242e-13
2.17116e-13
9.93781e-14
4.80118e-14
3.09142e-14
3.56716e-14
5.89877e-14
8.54023e-14
6.73486e-14
5.48188e-14
1.68462e-14
1.45702e-23
3.51364e-23
5.67977e-23
8.06799e-23
1.00333e-22
1.20227e-22
1.42145e-22
1.70723e-22
1.88085e-22
2.07608e-22
2.26646e-22
2.4958e-22
2.74829e-22
2.99685e-22
3.26381e-22
3.53148e-22
3.81363e-22
4.18225e-22
4.67122e-22
5.20803e-22
5.6552e-22
6.11101e-22
7.23842e-22
1.02841e-21
1.83623e-21
4.15664e-21
1.09429e-20
3.12356e-20
9.0472e-20
2.63146e-19
7.60805e-19
2.21375e-18
6.21491e-18
1.73139e-17
4.8238e-17
1.30361e-16
3.5208e-16
9.2227e-16
2.51136e-15
6.52158e-15
1.61922e-14
3.99351e-14
9.56791e-14
2.37224e-13
5.81456e-13
1.40103e-12
3.2842e-12
7.49498e-12
1.6701e-11
3.64594e-11
7.81232e-11
1.6395e-10
3.35368e-10
6.07961e-10
1.14976e-09
1.98323e-09
3.38178e-09
5.80966e-09
9.63745e-09
1.51706e-08
2.21719e-08
2.83832e-08
2.96783e-08
2.01081e-08
9.40991e-09
4.44232e-09
2.5031e-09
2.03943e-09
2.50183e-09
3.84146e-09
6.2059e-09
9.88206e-09
1.42861e-08
1.62344e-08
1.25452e-08
5.93661e-09
2.66673e-09
1.24438e-09
6.00706e-10
2.95726e-10
1.50548e-10
7.84837e-11
4.18047e-11
2.21745e-11
1.2017e-11
6.49683e-12
3.4747e-12
1.82453e-12
9.34805e-13
4.56947e-13
2.17948e-13
9.97474e-14
4.81779e-14
3.09954e-14
3.573e-14
5.90845e-14
8.55669e-14
6.75594e-14
5.49765e-14
1.68964e-14
1.44661e-23
4.00191e-23
6.29127e-23
8.67917e-23
1.06152e-22
1.25978e-22
1.51924e-22
1.81875e-22
2.02791e-22
2.21407e-22
2.50109e-22
2.71522e-22
2.93322e-22
3.02921e-22
3.21309e-22
3.52545e-22
3.75169e-22
4.1253e-22
4.41211e-22
4.94114e-22
5.48914e-22
6.04259e-22
7.43195e-22
1.05923e-21
1.84928e-21
4.18486e-21
1.10774e-20
3.15585e-20
9.26142e-20
2.70679e-19
7.80237e-19
2.21696e-18
6.34605e-18
1.78983e-17
4.91321e-17
1.32634e-16
3.57758e-16
9.26864e-16
2.52943e-15
6.47828e-15
1.64474e-14
4.02932e-14
9.76522e-14
2.37556e-13
5.83868e-13
1.40673e-12
3.29586e-12
7.51744e-12
1.67421e-11
3.65305e-11
7.82375e-11
1.64107e-10
3.35535e-10
6.08032e-10
1.15056e-09
1.98391e-09
3.38168e-09
5.80835e-09
9.63432e-09
1.51653e-08
2.2165e-08
2.83778e-08
2.9682e-08
2.01241e-08
9.41945e-09
4.4464e-09
2.50448e-09
2.0394e-09
2.50069e-09
3.8393e-09
6.20256e-09
9.87744e-09
1.42822e-08
1.62351e-08
1.25511e-08
5.9413e-09
2.66869e-09
1.24524e-09
6.011e-10
2.95905e-10
1.50635e-10
7.85271e-11
4.18271e-11
2.21858e-11
1.20231e-11
6.50007e-12
3.47643e-12
1.82545e-12
9.35282e-13
4.57175e-13
2.18058e-13
9.97965e-14
4.81992e-14
3.10044e-14
3.57341e-14
5.90996e-14
8.55936e-14
6.75879e-14
5.49976e-14
1.6903e-14
1.36669e-23
3.75586e-23
6.63155e-23
9.11058e-23
1.12043e-22
1.32368e-22
1.54797e-22
1.81716e-22
2.09643e-22
2.26313e-22
2.37507e-22
2.57893e-22
2.74005e-22
3.03108e-22
3.32299e-22
3.57607e-22
3.89763e-22
4.17542e-22
4.4496e-22
4.86672e-22
5.45452e-22
6.13707e-22
7.46555e-22
1.05859e-21
1.88046e-21
4.22159e-21
1.10616e-20
3.2208e-20
9.32191e-20
2.71677e-19
7.88139e-19
2.25628e-18
6.43325e-18
1.79174e-17
4.96184e-17
1.33691e-16
3.60274e-16
9.38395e-16
2.5445e-15
6.51835e-15
1.65327e-14
3.99514e-14
9.88156e-14
2.3828e-13
5.83881e-13
1.40918e-12
3.30103e-12
7.52834e-12
1.67653e-11
3.65793e-11
7.83384e-11
1.6431e-10
3.35931e-10
6.0872e-10
1.15216e-09
1.98659e-09
3.38719e-09
5.81795e-09
9.64974e-09
1.51876e-08
2.21911e-08
2.83957e-08
2.9664e-08
2.00614e-08
9.38243e-09
4.43019e-09
2.49862e-09
2.03915e-09
2.50493e-09
3.84801e-09
6.21675e-09
9.89716e-09
1.4299e-08
1.62304e-08
1.25228e-08
5.91909e-09
2.65921e-09
1.24101e-09
5.99125e-10
2.94994e-10
1.50187e-10
7.82998e-11
4.17083e-11
2.21256e-11
1.19907e-11
6.48261e-12
3.46703e-12
1.82044e-12
9.32654e-13
4.55897e-13
2.17432e-13
9.95182e-14
4.80758e-14
3.09489e-14
3.57037e-14
5.90347e-14
8.54756e-14
6.74252e-14
5.48773e-14
1.68646e-14
1.42776e-23
3.38595e-23
5.55996e-23
7.77316e-23
1.04315e-22
1.27717e-22
1.44285e-22
1.70655e-22
1.97965e-22
2.15325e-22
2.34352e-22
2.54315e-22
2.72972e-22
3.05916e-22
3.2974e-22
3.69787e-22
4.01714e-22
4.08886e-22
4.28791e-22
4.70965e-22
5.30684e-22
6.1376e-22
7.42898e-22
1.0523e-21
1.84233e-21
4.15884e-21
1.0995e-20
3.16369e-20
9.16723e-20
2.67221e-19
7.72107e-19
2.20473e-18
6.40552e-18
1.77042e-17
4.76456e-17
1.30253e-16
3.52543e-16
9.08227e-16
2.44782e-15
6.56663e-15
1.60966e-14
4.02957e-14
9.62893e-14
2.38902e-13
5.83745e-13
1.40744e-12
3.29818e-12
7.52538e-12
1.67666e-11
3.65988e-11
7.8415e-11
1.64536e-10
3.36511e-10
6.09982e-10
1.15456e-09
1.99133e-09
3.3983e-09
5.83829e-09
9.68301e-09
1.52359e-08
2.22482e-08
2.84351e-08
2.96241e-08
1.99233e-08
9.30138e-09
4.39492e-09
2.48602e-09
2.0387e-09
2.51425e-09
3.86686e-09
6.2468e-09
9.93993e-09
1.4335e-08
1.62198e-08
1.24613e-08
5.87127e-09
2.63879e-09
1.2319e-09
5.9488e-10
2.93038e-10
1.49224e-10
7.78124e-11
4.14539e-11
2.19968e-11
1.19216e-11
6.44528e-12
3.44694e-12
1.80975e-12
9.27052e-13
4.53169e-13
2.16098e-13
9.89266e-14
4.78125e-14
3.08297e-14
3.56402e-14
5.88963e-14
8.52238e-14
6.7082e-14
5.46218e-14
1.67829e-14
1.85283e-23
4.0318e-23
5.94969e-23
8.15898e-23
1.03183e-22
1.22989e-22
1.44134e-22
1.68763e-22
1.92836e-22
2.14681e-22
2.38613e-22
2.56668e-22
2.80993e-22
3.08395e-22
3.4245e-22
3.79643e-22
4.08983e-22
4.45311e-22
4.70454e-22
5.04683e-22
5.36739e-22
5.91319e-22
7.08125e-22
1.00254e-21
1.84108e-21
4.18404e-21
1.09466e-20
3.09374e-20
9.07897e-20
2.64241e-19
7.6523e-19
2.18495e-18
6.25001e-18
1.74238e-17
4.81628e-17
1.31294e-16
3.5052e-16
9.09432e-16
2.45972e-15
6.51094e-15
1.62157e-14
3.95305e-14
9.57633e-14
2.38722e-13
5.81022e-13
1.40155e-12
3.28815e-12
7.51033e-12
1.67499e-11
3.65976e-11
7.84856e-11
1.64825e-10
3.37364e-10
6.11954e-10
1.15802e-09
1.99852e-09
3.41579e-09
5.87088e-09
9.73688e-09
1.53145e-08
2.234e-08
2.84972e-08
2.9557e-08
1.97031e-08
9.17446e-09
4.33999e-09
2.46646e-09
2.03811e-09
2.52894e-09
3.89631e-09
6.29355e-09
1.00057e-08
1.43906e-08
1.62027e-08
1.23673e-08
5.79959e-09
2.60821e-09
1.21827e-09
5.88525e-10
2.90111e-10
1.47782e-10
7.70803e-11
4.10723e-11
2.18036e-11
1.1818e-11
6.38934e-12
3.41685e-12
1.79375e-12
9.18672e-13
4.49094e-13
2.14105e-13
9.80405e-14
4.74162e-14
3.06425e-14
3.55201e-14
5.8678e-14
8.48404e-14
6.6571e-14
5.42403e-14
1.66611e-14
1.53577e-23
3.81335e-23
6.05601e-23
8.01899e-23
9.71007e-23
1.1562e-22
1.37512e-22
1.62621e-22
1.83577e-22
2.05879e-22
2.35911e-22
2.62171e-22
2.95694e-22
3.29893e-22
3.57317e-22
3.87051e-22
4.1743e-22
4.56828e-22
4.8473e-22
5.12603e-22
5.53986e-22
5.97341e-22
7.16719e-22
1.01415e-21
1.81857e-21
4.06385e-21
1.06622e-20
3.00591e-20
8.81212e-20
2.58512e-19
7.3531e-19
2.16796e-18
6.10239e-18
1.70564e-17
4.72485e-17
1.28226e-16
3.45251e-16
9.03619e-16
2.38438e-15
6.25684e-15
1.60403e-14
3.92239e-14
9.41912e-14
2.35629e-13
5.76816e-13
1.39228e-12
3.2703e-12
7.47983e-12
1.67067e-11
3.65597e-11
7.85233e-11
1.65138e-10
3.38449e-10
6.14619e-10
1.16233e-09
2.00759e-09
3.43837e-09
5.91343e-09
9.80763e-09
1.54178e-08
2.246e-08
2.8575e-08
2.94553e-08
1.94033e-08
9.00666e-09
4.26791e-09
2.4408e-09
2.03718e-09
2.54775e-09
3.93486e-09
6.35409e-09
1.00908e-08
1.44605e-08
1.61796e-08
1.22454e-08
5.70841e-09
2.56924e-09
1.20087e-09
5.80401e-10
2.86367e-10
1.45932e-10
7.61463e-11
4.05851e-11
2.15569e-11
1.16855e-11
6.31789e-12
3.37843e-12
1.77332e-12
9.07974e-13
4.43894e-13
2.11564e-13
9.69097e-14
4.69106e-14
3.04006e-14
3.53607e-14
5.83863e-14
8.43344e-14
6.59155e-14
5.37488e-14
1.65044e-14
1.52301e-23
3.6282e-23
6.15066e-23
8.09037e-23
1.0106e-22
1.24463e-22
1.53694e-22
1.68972e-22
1.88425e-22
2.10365e-22
2.37318e-22
2.68146e-22
2.97956e-22
3.21474e-22
3.35846e-22
3.64691e-22
4.03007e-22
4.36873e-22
4.70562e-22
5.05249e-22
5.43951e-22
6.25161e-22
7.40041e-22
1.04545e-21
1.80822e-21
3.97606e-21
1.03686e-20
2.90616e-20
8.5119e-20
2.46742e-19
7.1151e-19
2.06954e-18
5.88137e-18
1.64763e-17
4.45859e-17
1.23534e-16
3.31867e-16
8.73966e-16
2.33905e-15
6.24425e-15
1.54923e-14
3.93239e-14
9.46003e-14
2.31978e-13
5.68183e-13
1.37685e-12
3.24256e-12
7.43164e-12
1.66338e-11
3.64731e-11
7.8501e-11
1.65428e-10
3.39708e-10
6.17824e-10
1.16653e-09
2.01804e-09
3.46505e-09
5.96384e-09
9.89146e-09
1.55397e-08
2.26003e-08
2.86641e-08
2.93387e-08
1.90657e-08
8.81477e-09
4.18391e-09
2.40976e-09