/*--------------------------------*- C++ -*----------------------------------*\
  =========                 |
  \\      /  F ield         | OpenFOAM: The Open Source CFD Toolbox
   \\    /   O peration     | Website:  https://openfoam.org
    \\  /    A nd           | Version:  10
     \\/     M anipulation  |
\*---------------------------------------------------------------------------*/
FoamFile
{
    format      ascii;
    class       volScalarField;
    location    "1";
    object      PXC5H11;
}
// * * * * * * * * * * * * * * * * * * * * * * * * * * * * * * * * * * * * * //

dimensions      [0 0 0 0 0 0 0];

internalField   nonuniform List<scalar> 
4000
(
9.65241e-23
1.57217e-22
1.9805e-22
2.57374e-22
3.41836e-22
4.10796e-22
4.93413e-22
5.90544e-22
7.24793e-22
9.28869e-22
1.24224e-21
1.5409e-21
1.85357e-21
2.14678e-21
2.48967e-21
2.86785e-21
3.20001e-21
3.54013e-21
3.99137e-21
4.51112e-21
5.02437e-21
5.68118e-21
6.6112e-21
7.64678e-21
9.63403e-21
1.33453e-20
2.28312e-20
4.88724e-20
1.23805e-19
3.45387e-19
1.00911e-18
2.99153e-18
8.83842e-18
2.59768e-17
7.59247e-17
2.14068e-16
6.11365e-16
1.76587e-15
4.96076e-15
1.37374e-14
3.65296e-14
9.46615e-14
2.37903e-13
5.78087e-13
1.35337e-12
3.23835e-12
7.69418e-12
1.75146e-11
3.76233e-11
7.57323e-11
1.43947e-10
2.66663e-10
4.62454e-10
8.562e-10
1.61287e-09
3.04813e-09
5.69086e-09
1.10605e-08
2.19735e-08
4.39311e-08
8.52724e-08
1.46063e-07
1.99833e-07
1.64291e-07
9.01407e-08
4.57152e-08
2.55771e-08
1.83681e-08
1.74163e-08
1.99464e-08
2.56505e-08
3.47263e-08
4.31112e-08
4.24514e-08
2.92104e-08
1.36011e-08
6.40534e-09
3.1592e-09
1.59268e-09
8.0447e-10
4.13467e-10
2.17165e-10
1.1627e-10
6.31664e-11
3.45923e-11
1.89382e-11
1.02817e-11
5.49458e-12
2.87131e-12
1.46057e-12
7.25776e-13
3.54089e-13
2.00234e-13
1.50257e-13
1.41996e-13
1.75702e-13
2.46278e-13
2.72628e-13
1.81573e-13
5.49411e-14
5.28549e-23
3.14006e-22
4.59006e-22
8.01661e-22
1.0839e-21
1.22191e-21
1.38689e-21
1.52536e-21
1.77879e-21
2.08787e-21
2.35496e-21
2.68337e-21
3.01571e-21
3.26654e-21
3.57971e-21
3.94007e-21
4.2368e-21
4.6031e-21
5.01414e-21
5.52959e-21
6.0537e-21
6.63052e-21
7.60873e-21
8.74286e-21
1.09925e-20
1.5145e-20
2.57854e-20
5.69122e-20
1.49161e-19
4.26868e-19
1.26166e-18
3.94115e-18
1.17668e-17
3.44868e-17
1.00337e-16
2.87448e-16
8.32645e-16
2.33423e-15
6.50403e-15
1.76235e-14
4.68928e-14
1.20046e-13
3.01362e-13
7.28445e-13
1.76119e-12
4.26271e-12
9.95661e-12
2.20776e-11
4.62796e-11
9.17918e-11
1.64278e-10
2.80746e-10
5.09213e-10
9.29297e-10
1.73163e-09
3.26546e-09
5.94995e-09
1.13738e-08
2.23383e-08
4.42034e-08
8.53284e-08
1.45703e-07
1.99572e-07
1.66298e-07
9.2448e-08
4.71515e-08
2.62742e-08
1.85753e-08
1.73883e-08
1.9766e-08
2.53152e-08
3.43236e-08
4.29664e-08
4.2845e-08
2.98531e-08
1.39393e-08
6.54891e-09
3.22252e-09
1.62148e-09
8.17614e-10
4.19477e-10
2.20042e-10
1.17685e-10
6.3831e-11
3.48824e-11
1.90518e-11
1.0316e-11
5.4965e-12
2.86244e-12
1.45062e-12
7.18473e-13
3.51008e-13
2.01275e-13
1.53327e-13
1.46393e-13
1.83972e-13
2.54417e-13
2.62913e-13
1.77167e-13
5.33969e-14
3.52727e-22
5.9625e-22
9.81787e-22
1.37349e-21
2.07156e-21
2.23275e-21
2.42811e-21
2.7095e-21
3.0943e-21
3.23805e-21
3.53293e-21
3.75257e-21
3.98405e-21
4.19224e-21
4.34979e-21
4.6046e-21
4.75724e-21
5.03788e-21
5.56645e-21
6.13054e-21
6.81591e-21
7.59952e-21
8.67705e-21
1.01845e-20
1.25973e-20
1.81257e-20
3.10555e-20
7.04184e-20
1.88171e-19
5.46535e-19
1.67848e-18
5.03296e-18
1.48161e-17
4.40238e-17
1.29697e-16
3.72803e-16
1.05073e-15
2.93165e-15
8.07887e-15
2.16037e-14
5.6792e-14
1.40072e-13
3.63592e-13
8.62944e-13
2.13644e-12
5.04208e-12
1.17293e-11
2.56414e-11
5.18981e-11
1.00745e-10
1.78731e-10
3.07012e-10
5.56192e-10
1.02827e-09
1.87083e-09
3.37762e-09
6.07723e-09
1.15475e-08
2.25732e-08
4.44986e-08
8.55411e-08
1.45682e-07
1.9951e-07
1.68019e-07
9.4394e-08
4.84054e-08
2.69213e-08
1.88317e-08
1.73984e-08
1.9628e-08
2.50437e-08
3.39495e-08
4.28319e-08
4.32456e-08
3.05628e-08
1.43218e-08
6.71101e-09
3.29411e-09
1.65409e-09
8.32735e-10
4.26921e-10
2.23693e-10
1.19462e-10
6.46109e-11
3.52138e-11
1.9177e-11
1.03501e-11
5.49451e-12
2.84968e-12
1.43599e-12
7.08052e-13
3.47024e-13
2.02911e-13
1.57431e-13
1.52122e-13
1.94269e-13
2.64135e-13
2.52198e-13
1.71829e-13
5.16185e-14
2.038e-22
4.4692e-22
8.45882e-22
1.1419e-21
1.45598e-21
1.76771e-21
1.85806e-21
2.0231e-21
2.47265e-21
2.87455e-21
3.23313e-21
3.44644e-21
3.6935e-21
4.045e-21
4.41923e-21
4.87027e-21
5.36849e-21
5.83553e-21
6.34182e-21
6.77925e-21
7.503e-21
8.90041e-21
1.02118e-20
1.12555e-20
1.4043e-20
2.07217e-20
3.77694e-20
8.81898e-20
2.36553e-19
7.18911e-19
2.14202e-18
6.42497e-18
1.90485e-17
5.62246e-17
1.64262e-16
4.69153e-16
1.31305e-15
3.65842e-15
9.85098e-15
2.67479e-14
6.96311e-14
1.74764e-13
4.39553e-13
1.04114e-12
2.46728e-12
5.90914e-12
1.35118e-11
2.87847e-11
5.87536e-11
1.06659e-10
1.86174e-10
3.38831e-10
6.17128e-10
1.11628e-09
2.00541e-09
3.4343e-09
6.18142e-09
1.16965e-08
2.27624e-08
4.46541e-08
8.55554e-08
1.45404e-07
1.99298e-07
1.69408e-07
9.60514e-08
4.95238e-08
2.75415e-08
1.90694e-08
1.74209e-08
1.9516e-08
2.47855e-08
3.35919e-08
4.26968e-08
4.35841e-08
3.1266e-08
1.45445e-08
6.82108e-09
3.34941e-09
1.68195e-09
8.4659e-10
4.33876e-10
2.27348e-10
1.21688e-10
6.48631e-11
3.53576e-11
1.92388e-11
1.03664e-11
5.49252e-12
2.84729e-12
1.41277e-12
6.95355e-13
3.43202e-13
2.05045e-13
1.62032e-13
1.58836e-13
2.05575e-13
2.75379e-13
2.43117e-13
1.66872e-13
4.9969e-14
1.25093e-22
3.1579e-22
4.79032e-22
7.48365e-22
1.0419e-21
1.26276e-21
1.61807e-21
1.83956e-21
2.17878e-21
2.58206e-21
2.93306e-21
3.2795e-21
3.62306e-21
4.00134e-21
4.58605e-21
5.27416e-21
5.86259e-21
6.2228e-21
6.86068e-21
7.41325e-21
8.1576e-21
9.52249e-21
1.05456e-20
1.20559e-20
1.52192e-20
2.30194e-20
4.54614e-20
1.11703e-19
3.1107e-19
9.16295e-19
2.73767e-18
8.35184e-18
2.45552e-17
7.19564e-17
2.07061e-16
5.86898e-16
1.62944e-15
4.40575e-15
1.20917e-14
3.2057e-14
8.25657e-14
2.07067e-13
5.02328e-13
1.21626e-12
2.8536e-12
6.75313e-12
1.5062e-11
3.23454e-11
6.1674e-11
1.0999e-10
2.01375e-10
3.63183e-10
6.62923e-10
1.21367e-09
2.05057e-09
3.50523e-09
6.29128e-09
1.18355e-08
2.29275e-08
4.4857e-08
8.57031e-08
1.45405e-07
1.99272e-07
1.7047e-07
9.74052e-08
5.05502e-08
2.80736e-08
1.92803e-08
1.74558e-08
1.94495e-08
2.46187e-08
3.33614e-08
4.26142e-08
4.38812e-08
3.18094e-08
1.48375e-08
6.94621e-09
3.407e-09
1.70874e-09
8.591e-10
4.4002e-10
2.30464e-10
1.23279e-10
6.56617e-11
3.57253e-11
1.93978e-11
1.04265e-11
5.50858e-12
2.84581e-12
1.40776e-12
6.90864e-13
3.42884e-13
2.08478e-13
1.67074e-13
1.65922e-13
2.17056e-13
2.87515e-13
2.37741e-13
1.62839e-13
4.86678e-14
6.10493e-23
1.93761e-22
3.92656e-22
6.67562e-22
9.02085e-22
1.14623e-21
1.448e-21
1.69652e-21
1.82812e-21
2.09538e-21
2.45925e-21
2.95388e-21
3.36264e-21
3.6976e-21
4.23928e-21
4.99669e-21
5.57391e-21
6.35503e-21
7.13898e-21
8.31228e-21
9.99566e-21
1.09832e-20
1.2309e-20
1.36857e-20
1.72638e-20
2.67606e-20
5.5444e-20
1.40772e-19
4.03425e-19
1.1783e-18
3.45841e-18
1.06359e-17
3.08366e-17
8.8835e-17
2.50072e-16
7.11692e-16
1.94104e-15
5.15368e-15
1.43271e-14
3.88095e-14
9.75382e-14
2.39235e-13
5.80913e-13
1.38429e-12
3.27444e-12
7.51361e-12
1.70438e-11
3.40063e-11
6.39473e-11
1.18314e-10
2.15127e-10
3.87522e-10
6.9603e-10
1.26102e-09
2.1173e-09
3.58635e-09
6.37248e-09
1.1945e-08
2.30336e-08
4.49293e-08
8.56575e-08
1.45189e-07
1.99169e-07
1.71518e-07
9.85749e-08
5.12713e-08
2.84798e-08
1.94697e-08
1.75007e-08
1.94067e-08
2.44951e-08
3.31713e-08
4.25305e-08
4.40721e-08
3.21795e-08
1.50604e-08
7.04577e-09
3.45285e-09
1.73057e-09
8.69802e-10
4.45373e-10
2.33217e-10
1.24684e-10
6.6432e-11
3.61109e-11
1.95812e-11
1.05066e-11
5.53865e-12
2.85342e-12
1.40921e-12
6.90169e-13
3.44465e-13
2.12363e-13
1.71953e-13
1.72627e-13
2.27667e-13
2.99317e-13
2.35813e-13
1.61409e-13
4.81269e-14
4.21698e-23
1.66967e-22
3.06744e-22
4.8289e-22
6.31409e-22
8.14237e-22
1.05468e-21
1.32247e-21
1.78575e-21
2.17218e-21
2.61322e-21
3.03371e-21
3.44124e-21
3.95775e-21
4.3905e-21
4.94876e-21
5.51066e-21
6.03183e-21
6.54519e-21
7.32593e-21
8.56874e-21
9.85156e-21
1.08456e-20
1.30558e-20
1.84036e-20
3.12413e-20
6.70923e-20
1.71482e-19
5.04523e-19
1.48725e-18
4.37439e-18
1.28124e-17
3.73999e-17
1.07545e-16
3.01828e-16
8.48892e-16
2.35941e-15
6.20476e-15
1.71408e-14
4.46416e-14
1.12409e-13
2.76995e-13
6.61726e-13
1.56313e-12
3.61646e-12
8.34779e-12
1.81638e-11
3.47131e-11
6.78468e-11
1.26005e-10
2.26311e-10
4.03486e-10
7.19243e-10
1.29321e-09
2.15972e-09
3.64342e-09
6.43293e-09
1.20053e-08
2.30839e-08
4.49201e-08
8.54929e-08
1.44849e-07
1.99025e-07
1.72576e-07
9.97477e-08
5.19897e-08
2.88457e-08
1.96319e-08
1.7534e-08
1.93646e-08
2.43791e-08
3.29947e-08
4.24481e-08
4.42483e-08
3.25427e-08
1.5279e-08
7.14531e-09
3.49938e-09
1.75314e-09
8.80754e-10
4.50886e-10
2.36055e-10
1.26153e-10
6.72373e-11
3.65259e-11
1.97884e-11
1.0605e-11
5.5817e-12
2.86983e-12
1.41586e-12
6.92472e-13
3.47247e-13
2.16299e-13
1.76483e-13
1.78749e-13
2.37064e-13
3.10052e-13
2.36051e-13
1.61272e-13
4.80083e-14
1.17943e-22
2.46554e-22
4.58203e-22
7.66926e-22
1.00475e-21
1.28797e-21
1.49136e-21
1.75368e-21
2.05603e-21
2.38127e-21
2.71165e-21
3.23291e-21
3.76317e-21
4.30391e-21
4.71657e-21
5.27407e-21
5.99549e-21
6.55978e-21
7.18683e-21
8.12181e-21
8.85627e-21
9.70528e-21
1.09116e-20
1.34278e-20
1.96039e-20
3.54657e-20
8.16349e-20
2.16117e-19
6.0988e-19
1.77443e-18
5.27891e-18
1.56312e-17
4.50987e-17
1.28172e-16
3.55304e-16
9.87588e-16
2.72115e-15
7.08674e-15
1.92522e-14
5.07841e-14
1.27198e-13
3.08849e-13
7.4569e-13
1.73892e-12
4.0257e-12
9.15443e-12
1.8796e-11
3.71416e-11
7.21037e-11
1.32884e-10
2.38381e-10
4.20593e-10
7.42588e-10
1.32365e-09
2.19674e-09
3.68487e-09
6.47146e-09
1.2029e-08
2.30598e-08
4.47752e-08
8.51117e-08
1.4426e-07
1.9876e-07
1.73716e-07
1.01009e-07
5.28715e-08
2.92598e-08
1.98021e-08
1.75651e-08
1.93177e-08
2.42541e-08
3.28049e-08
4.23432e-08
4.44188e-08
3.29329e-08
1.55257e-08
7.25426e-09
3.55031e-09
1.77812e-09
8.92792e-10
4.56951e-10
2.39182e-10
1.27787e-10
6.81196e-11
3.69892e-11
2.00271e-11
1.0724e-11
5.63832e-12
2.89496e-12
1.4273e-12
6.97434e-13
3.50925e-13
2.20148e-13
1.80568e-13
1.84068e-13
2.45115e-13
3.19543e-13
2.37651e-13
1.6202e-13
4.81769e-14
1.06437e-22
3.20543e-22
5.69261e-22
8.90727e-22
1.07371e-21
1.33773e-21
1.60475e-21
1.96855e-21
2.33538e-21
2.7942e-21
2.89396e-21
3.23312e-21
3.80286e-21
4.27452e-21
4.90241e-21
5.42445e-21
6.08071e-21
6.86952e-21
7.53163e-21
7.96661e-21
8.68163e-21
9.89878e-21
1.12235e-20
1.42911e-20
2.15227e-20
4.12779e-20
9.73294e-20
2.63417e-19
7.51567e-19
2.16845e-18
6.31259e-18
1.84363e-17
5.28034e-17
1.49537e-16
4.17234e-16
1.14326e-15
3.1012e-15
8.00507e-15
2.1605e-14
5.61991e-14
1.4113e-13
3.44661e-13
8.22615e-13
1.92873e-12
4.26096e-12
9.05292e-12
1.96144e-11
3.98264e-11
7.63822e-11
1.40334e-10
2.48519e-10
4.34426e-10
7.61227e-10
1.34724e-09
2.22215e-09
3.71057e-09
6.48656e-09
1.20115e-08
2.2958e-08
4.44913e-08
8.44761e-08
1.43241e-07
1.98366e-07
1.75571e-07
1.02877e-07
5.38473e-08
2.97719e-08
1.99902e-08
1.7594e-08
1.92501e-08
2.4079e-08
3.25453e-08
4.21934e-08
4.45829e-08
3.33535e-08
1.5804e-08
7.37691e-09
3.60762e-09
1.80665e-09
9.06511e-10
4.63859e-10
2.42738e-10
1.29649e-10
6.91076e-11
3.75123e-11
2.03013e-11
1.08648e-11
5.70828e-12
2.92827e-12
1.44301e-12
7.04682e-13
3.55321e-13
2.23889e-13
1.84276e-13
1.88745e-13
2.51948e-13
3.27758e-13
2.40117e-13
1.63395e-13
4.85497e-14
1.03972e-22
3.2275e-22
5.58912e-22
7.8528e-22
9.69656e-22
1.2054e-21
1.53157e-21
1.87706e-21
2.2788e-21
2.67259e-21
3.06555e-21
3.64984e-21
4.09602e-21
4.57146e-21
5.30953e-21
6.0421e-21
6.67897e-21
7.26469e-21
8.23914e-21
9.06887e-21
9.51205e-21
1.02329e-20
1.1919e-20
1.52496e-20
2.39586e-20
4.66154e-20
1.13072e-19
3.0824e-19
8.92513e-19
2.60294e-18
7.54087e-18
2.15648e-17
6.09767e-17
1.70852e-16
4.70436e-16
1.27561e-15
3.40699e-15
8.83667e-15
2.41225e-14
6.16835e-14
1.52017e-13
3.69776e-13
8.77856e-13
1.99125e-12
4.34789e-12
9.81806e-12
2.09363e-11
4.21696e-11
8.07591e-11
1.46694e-10
2.57775e-10
4.47709e-10
7.78743e-10
1.3622e-09
2.2379e-09
3.72621e-09
6.48354e-09
1.19642e-08
2.28111e-08
4.41426e-08
8.37831e-08
1.42226e-07
1.97831e-07
1.77379e-07
1.04812e-07
5.50383e-08
3.03332e-08
2.01939e-08
1.76175e-08
1.91612e-08
2.3856e-08
3.22835e-08
4.20284e-08
4.47451e-08
3.38462e-08
1.61526e-08
7.53151e-09
3.67922e-09
1.84128e-09
9.22733e-10
4.71874e-10
2.46804e-10
1.31763e-10
7.02058e-11
3.8091e-11
2.06076e-11
1.10245e-11
5.78964e-12
2.96848e-12
1.46224e-12
7.13777e-13
3.60256e-13
2.27486e-13
1.87578e-13
1.92654e-13
2.57588e-13
3.34765e-13
2.4311e-13
1.65199e-13
4.90636e-14
1.09583e-22
3.44946e-22
6.46082e-22
7.99867e-22
9.76572e-22
1.19297e-21
1.36796e-21
1.59364e-21
1.87839e-21
2.21715e-21
2.76179e-21
3.34038e-21
3.80658e-21
4.39002e-21
4.6861e-21
5.12955e-21
5.52918e-21
5.9716e-21
6.84222e-21
8.03983e-21
9.00046e-21
9.93609e-21
1.16883e-20
1.58437e-20
2.58943e-20
5.30402e-20
1.29116e-19
3.51451e-19
1.01544e-18
2.95697e-18
8.54824e-18
2.43982e-17
6.85391e-17
1.92345e-16
5.24822e-16
1.41562e-15
3.76509e-15
9.75727e-15
2.63466e-14
6.65215e-14
1.6296e-13
3.90451e-13
9.07338e-13
2.04357e-12
4.69953e-12
1.048e-11
2.22362e-11
4.47196e-11
8.48169e-11
1.53209e-10
2.6852e-10
4.66205e-10
8.15817e-10
1.36295e-09
2.24651e-09
3.73155e-09
6.46308e-09
1.18831e-08
2.25918e-08
4.35812e-08
8.26609e-08
1.40642e-07
1.97163e-07
1.79186e-07
1.06764e-07
5.6189e-08
3.08914e-08
2.04222e-08
1.76563e-08
1.90975e-08
2.36895e-08
3.20227e-08
4.18373e-08
4.48981e-08
3.43264e-08
1.64939e-08
7.68231e-09
3.74844e-09
1.87568e-09
9.39108e-10
4.8006e-10
2.50994e-10
1.33962e-10
7.13488e-11
3.87067e-11
2.09337e-11
1.11957e-11
5.87811e-12
3.01337e-12
1.48391e-12
7.24183e-13
3.65539e-13
2.30933e-13
1.90552e-13
1.95967e-13
2.62288e-13
3.40769e-13
2.4641e-13
1.67278e-13
4.96691e-14
8.30983e-23
2.62692e-22
5.94532e-22
7.84529e-22
9.24418e-22
1.19625e-21
1.59515e-21
2.02082e-21
2.2623e-21
2.55456e-21
2.93275e-21
3.37848e-21
3.6831e-21
4.05135e-21
4.43918e-21
4.93202e-21
5.51392e-21
6.14738e-21
6.47625e-21
7.19884e-21
8.08972e-21
9.6179e-21
1.21689e-20
1.6861e-20
2.8645e-20
5.91437e-20
1.43792e-19
3.88275e-19
1.12823e-18
3.25196e-18
9.1747e-18
2.69008e-17
7.59517e-17
2.09185e-16
5.8614e-16
1.56234e-15
4.08968e-15
1.05677e-14
2.78116e-14
7.15865e-14
1.7368e-13
4.13144e-13
9.56076e-13
2.18014e-12
4.99596e-12
1.10773e-11
2.33884e-11
4.6774e-11
8.82155e-11
1.58525e-10
2.76766e-10
4.7917e-10
8.34551e-10
1.35903e-09
2.25272e-09
3.72997e-09
6.43027e-09
1.17905e-08
2.2358e-08
4.31324e-08
8.17567e-08
1.39348e-07
1.96394e-07
1.81052e-07
1.08787e-07
5.73642e-08
3.14443e-08
2.06483e-08
1.77008e-08
1.9043e-08
2.35048e-08
3.17317e-08
4.16238e-08
4.5023e-08
3.47914e-08
1.68571e-08
7.83989e-09
3.82223e-09
1.91217e-09
9.56439e-10
4.88619e-10
2.55339e-10
1.36237e-10
7.25277e-11
3.93435e-11
2.12796e-11
1.13814e-11
5.97569e-12
3.06289e-12
1.50769e-12
7.35635e-13
3.71162e-13
2.34323e-13
1.93287e-13
1.98812e-13
2.66216e-13
3.45923e-13
2.4984e-13
1.695e-13
5.03256e-14
4.91879e-23
1.57126e-22
4.3571e-22
6.44281e-22
9.06998e-22
1.22883e-21
1.76532e-21
2.15961e-21
2.33252e-21
2.75648e-21
3.19566e-21
3.51997e-21
3.94112e-21
4.32899e-21
4.78847e-21
5.40814e-21
5.58786e-21
5.91872e-21
6.61236e-21
7.45052e-21
8.79272e-21
9.98216e-21
1.22695e-20
1.70526e-20
2.92264e-20
6.18351e-20
1.54342e-19
4.22298e-19
1.21113e-18
3.59394e-18
1.02211e-17
2.9491e-17
8.26858e-17
2.31038e-16
6.27561e-16
1.66964e-15
4.34698e-15
1.11874e-14
2.93647e-14
7.59214e-14
1.8474e-13
4.40602e-13
1.0096e-12
2.33934e-12
5.24946e-12
1.1605e-11
2.44375e-11
4.84851e-11
9.08061e-11
1.62171e-10
2.81498e-10
4.84676e-10
8.38838e-10
1.35512e-09
2.26255e-09
3.72779e-09
6.39298e-09
1.16774e-08
2.21049e-08
4.25926e-08
8.08545e-08
1.38017e-07
1.95634e-07
1.82848e-07
1.10835e-07
5.85737e-08
3.20133e-08
2.08776e-08
1.77408e-08
1.89771e-08
2.33384e-08
3.14691e-08
4.14158e-08
4.51368e-08
3.52762e-08
1.72485e-08
8.01233e-09
3.90059e-09
1.95027e-09
9.74403e-10
4.97646e-10
2.59971e-10
1.3867e-10
7.3763e-11
4.00056e-11
2.16358e-11
1.15719e-11
6.07615e-12
3.11515e-12
1.53313e-12
7.48003e-13
3.76925e-13
2.37539e-13
1.95767e-13
2.01284e-13
2.69644e-13
3.50588e-13
2.53499e-13
1.7192e-13
5.10441e-14
6.21168e-23
3.18346e-22
4.43516e-22
6.71669e-22
8.90565e-22
1.11711e-21
1.53454e-21
1.87169e-21
2.17588e-21
2.63091e-21
2.97385e-21
3.42175e-21
3.91759e-21
4.51634e-21
5.26714e-21
5.91074e-21
6.26356e-21
6.26995e-21
6.96969e-21
7.51571e-21
9.18031e-21
1.04125e-20
1.21084e-20
1.63285e-20
2.85448e-20
6.32923e-20
1.66438e-19
4.60287e-19
1.32144e-18
3.81549e-18
1.08564e-17
3.16376e-17
8.73444e-17
2.44824e-16
6.61119e-16
1.76091e-15
4.59834e-15
1.16156e-14
3.09796e-14
8.02139e-14
1.9275e-13
4.56431e-13
1.06068e-12
2.46208e-12
5.47491e-12
1.20771e-11
2.52362e-11
4.97686e-11
9.27218e-11
1.64793e-10
2.84707e-10
4.88298e-10
8.40504e-10
1.35079e-09
2.2679e-09
3.72275e-09
6.35691e-09
1.15817e-08
2.18838e-08
4.20754e-08
7.98095e-08
1.36535e-07
1.94845e-07
1.84507e-07
1.12778e-07
5.97309e-08
3.25797e-08
2.10908e-08
1.77815e-08
1.89149e-08
2.31815e-08
3.12057e-08
4.12021e-08
4.52245e-08
3.57081e-08
1.76343e-08
8.18075e-09
3.97741e-09
1.9885e-09
9.92656e-10
5.06672e-10
2.64555e-10
1.41066e-10
7.49903e-11
4.06616e-11
2.19878e-11
1.17598e-11
6.17524e-12
3.16649e-12
1.558e-12
7.60064e-13
3.8256e-13
2.40605e-13
1.98044e-13
2.03377e-13
2.72488e-13
3.54553e-13
2.57005e-13
1.74261e-13
5.17431e-14
1.25687e-22
3.3859e-22
5.44795e-22
8.28555e-22
1.04097e-21
1.13977e-21
1.2992e-21
1.50941e-21
1.89569e-21
2.49511e-21
3.07736e-21
3.67512e-21
4.2742e-21
4.75221e-21
5.07761e-21
5.60554e-21
6.21307e-21
6.79127e-21
6.99116e-21
7.27182e-21
7.84357e-21
9.09825e-21
1.15838e-20
1.61742e-20
2.92991e-20
6.62382e-20
1.73644e-19
4.84432e-19
1.38945e-18
4.06474e-18
1.16971e-17
3.33197e-17
9.19872e-17
2.5671e-16
6.84378e-16
1.80257e-15
4.82241e-15
1.21362e-14
3.21141e-14
8.18247e-14
2.03904e-13
4.80909e-13
1.11897e-12
2.51958e-12
5.65829e-12
1.24193e-11
2.58417e-11
5.07572e-11
9.42129e-11
1.6689e-10
2.87384e-10
4.90698e-10
8.41169e-10
1.34684e-09
2.26888e-09
3.71288e-09
6.31349e-09
1.14779e-08
2.16417e-08
4.16018e-08
7.88901e-08
1.35184e-07
1.93989e-07
1.85991e-07
1.14611e-07
6.08354e-08
3.31207e-08
2.13236e-08
1.78703e-08
1.88746e-08
2.3046e-08
3.09717e-08
4.10031e-08
4.52973e-08
3.61027e-08
1.79998e-08
8.34001e-09
4.05075e-09
2.02438e-09
1.00965e-09
5.15067e-10
2.68808e-10
1.43285e-10
7.61181e-11
4.12655e-11
2.23126e-11
1.19337e-11
6.2671e-12
3.2142e-12
1.58111e-12
7.71254e-13
3.87685e-13
2.43298e-13
1.99999e-13
2.05166e-13
2.74793e-13
3.57817e-13
2.60183e-13
1.76399e-13
5.2384e-14
9.95314e-23
3.17225e-22
5.67125e-22
8.04148e-22
9.98214e-22
1.25318e-21
1.49951e-21
1.62906e-21
1.89493e-21
2.16088e-21
2.5054e-21
3.20293e-21
3.53714e-21
3.84369e-21
4.45806e-21
5.13637e-21
5.78643e-21
6.64752e-21
7.14474e-21
7.70555e-21
8.22386e-21
9.52882e-21
1.22637e-20
1.74861e-20
3.16278e-20
7.01562e-20
1.83651e-19
5.09865e-19
1.44684e-18
4.23766e-18
1.20685e-17
3.44403e-17
9.66225e-17
2.65306e-16
7.16979e-16
1.91323e-15
5.00569e-15
1.30825e-14
3.36893e-14
8.68722e-14
2.09927e-13
4.89815e-13
1.14269e-12
2.57358e-12
5.80127e-12
1.26865e-11
2.63071e-11
5.15025e-11
9.52997e-11
1.68305e-10
2.89092e-10
4.92278e-10
8.41422e-10
1.34344e-09
2.26831e-09
3.70269e-09
6.2747e-09
1.13773e-08
2.14257e-08
4.11476e-08
7.80723e-08
1.34019e-07
1.93225e-07
1.87153e-07
1.1615e-07
6.17787e-08
3.35839e-08
2.1514e-08
1.79175e-08
1.88327e-08
2.2928e-08
3.07684e-08
4.08246e-08
4.53498e-08
3.64348e-08
1.83186e-08
8.47863e-09
4.114e-09
2.05536e-09
1.02434e-09
5.22329e-10
2.7248e-10
1.45205e-10
7.70938e-11
4.17885e-11
2.25942e-11
1.20846e-11
6.34704e-12
3.25585e-12
1.60134e-12
7.81155e-13
3.92165e-13
2.45595e-13
2.01625e-13
2.06604e-13
2.76632e-13
3.60466e-13
2.62933e-13
1.7825e-13
5.29399e-14
6.26978e-23
3.13912e-22
5.51675e-22
6.30394e-22
8.00497e-22
1.07145e-21
1.45715e-21
1.96257e-21
2.21409e-21
2.42922e-21
2.69903e-21
3.10444e-21
3.49775e-21
3.94966e-21
4.69277e-21
5.2816e-21
5.5335e-21
6.15992e-21
6.86161e-21
7.97154e-21
9.02396e-21
1.0493e-20
1.3469e-20
1.87372e-20
3.36319e-20
7.51139e-20
1.92003e-19
5.30182e-19
1.51426e-18
4.40645e-18
1.25744e-17
3.6121e-17
1.00366e-16
2.7505e-16
7.42721e-16
1.98818e-15
5.22607e-15
1.34795e-14
3.44689e-14
8.77082e-14
2.13166e-13
5.02644e-13
1.14479e-12
2.60755e-12
5.9163e-12
1.28935e-11
2.66626e-11
5.20723e-11
9.61362e-11
1.69413e-10
2.90406e-10
4.93442e-10
8.41546e-10
1.34092e-09
2.26697e-09
3.69371e-09
6.24231e-09
1.13044e-08
2.12691e-08
4.08254e-08
7.74746e-08
1.33099e-07
1.92605e-07
1.88189e-07
1.17465e-07
6.2566e-08
3.39636e-08
2.16689e-08
1.79508e-08
1.87975e-08
2.28338e-08
3.06106e-08
4.06853e-08
4.53852e-08
3.66928e-08
1.85742e-08
8.5897e-09
4.1646e-09
2.08012e-09
1.03611e-09
5.28136e-10
2.7541e-10
1.46731e-10
7.78687e-11
4.22042e-11
2.28184e-11
1.2205e-11
6.41096e-12
3.28923e-12
1.61756e-12
7.8907e-13
3.95726e-13
2.47386e-13
2.02849e-13
2.0761e-13
2.77979e-13
3.62466e-13
2.65132e-13
1.79734e-13
5.33862e-14
1.35655e-22
4.61273e-22
7.84488e-22
1.11088e-21
1.22626e-21
1.29137e-21
1.50668e-21
1.90093e-21
1.89935e-21
1.9819e-21
2.23933e-21
2.59915e-21
3.096e-21
3.56348e-21
4.29945e-21
5.28854e-21
6.10547e-21
6.72302e-21
7.65354e-21
8.45244e-21
9.4548e-21
1.05757e-20
1.3236e-20
1.89603e-20
3.39465e-20
7.57499e-20
1.97603e-19
5.508e-19
1.59325e-18
4.54977e-18
1.29213e-17
3.63262e-17
1.02487e-16
2.80177e-16
7.65028e-16
2.04852e-15
5.34082e-15
1.3562e-14
3.48945e-14
8.83665e-14
2.14142e-13
5.02824e-13
1.15678e-12
2.63794e-12
5.99814e-12
1.30421e-11
2.69173e-11
5.24803e-11
9.67398e-11
1.70245e-10
2.91355e-10
4.94345e-10
8.41732e-10
1.3393e-09
2.26596e-09
3.68745e-09
6.22049e-09
1.12523e-08
2.11555e-08
4.0591e-08
7.70391e-08
1.32454e-07
1.92155e-07
1.88842e-07
1.18338e-07
6.30992e-08
3.42221e-08
2.17721e-08
1.79725e-08
1.87728e-08
2.27707e-08
3.04988e-08
4.05833e-08
4.54079e-08
3.68728e-08
1.87561e-08
8.66867e-09
4.20053e-09
2.0977e-09
1.04446e-09
5.32263e-10
2.77505e-10
1.47821e-10
7.84212e-11
4.25002e-11
2.29779e-11
1.22906e-11
6.45637e-12
3.31295e-12
1.6291e-12
7.94706e-13
3.98252e-13
2.4865e-13
2.03716e-13
2.08337e-13
2.78903e-13
3.6384e-13
2.66688e-13
1.80785e-13
5.37021e-14
6.81813e-23
2.06406e-22
3.92493e-22
6.5722e-22
8.21673e-22
9.98055e-22
1.25498e-21
1.69787e-21
1.85684e-21
2.08532e-21
2.32628e-21
2.67745e-21
3.09907e-21
3.54128e-21
4.0604e-21
4.59373e-21
5.19429e-21
6.02082e-21
7.16869e-21
8.40455e-21
9.483e-21
1.04838e-20
1.27956e-20
1.89759e-20
3.44671e-20
7.77034e-20
2.01466e-19
5.66519e-19
1.61664e-18
4.63479e-18
1.32016e-17
3.77888e-17
1.04245e-16
2.84851e-16
7.77e-16
2.05204e-15
5.40258e-15
1.37574e-14
3.6251e-14
9.08732e-14
2.16918e-13
5.10379e-13
1.15745e-12
2.6795e-12
6.04195e-12
1.31319e-11
2.70841e-11
5.27515e-11
9.71374e-11
1.70773e-10
2.91973e-10
4.9494e-10
8.4199e-10
1.3386e-09
2.26584e-09
3.68472e-09
6.20998e-09
1.12267e-08
2.1098e-08
4.04693e-08
7.68063e-08
1.32115e-07
1.91916e-07
1.89168e-07
1.18793e-07
6.33765e-08
3.43562e-08
2.18263e-08
1.79833e-08
1.87585e-08
2.27338e-08
3.04389e-08
4.05289e-08
4.54189e-08
3.69674e-08
1.88531e-08
8.71077e-09
4.21966e-09
2.10704e-09
1.04891e-09
5.34463e-10
2.78621e-10
1.48406e-10
7.87177e-11
4.26594e-11
2.30639e-11
1.23368e-11
6.48091e-12
3.32577e-12
1.63534e-12
7.97747e-13
3.99611e-13
2.49324e-13
2.04182e-13
2.08736e-13
2.79389e-13
3.64559e-13
2.6752e-13
1.81347e-13
5.38715e-14
6.47058e-23
3.20391e-22
5.40413e-22
8.01156e-22
9.51775e-22
1.14315e-21
1.51437e-21
1.99166e-21
2.26502e-21
2.46231e-21
2.93336e-21
3.24663e-21
3.59279e-21
3.65985e-21
3.93799e-21
4.56067e-21
5.00096e-21
5.82745e-21
6.46314e-21
7.74368e-21
9.05452e-21
1.03402e-20
1.32984e-20
1.97684e-20
3.47679e-20
7.79603e-20
2.03739e-19
5.71947e-19
1.65493e-18
4.76711e-18
1.3537e-17
3.78559e-17
1.06438e-16
2.94473e-16
7.91946e-16
2.08996e-15
5.49492e-15
1.38408e-14
3.65328e-14
9.03244e-14
2.20097e-13
5.1457e-13
1.17973e-12
2.68371e-12
6.06702e-12
1.31856e-11
2.71805e-11
5.29092e-11
9.7375e-11
1.71107e-10
2.92415e-10
4.95451e-10
8.42453e-10
1.33877e-09
2.26699e-09
3.68532e-09
6.20873e-09
1.12221e-08
2.10867e-08
4.04445e-08
7.67584e-08
1.32042e-07
1.91861e-07
1.8923e-07
1.18883e-07
6.34306e-08
3.43815e-08
2.1836e-08
1.7985e-08
1.87559e-08
2.27276e-08
3.04287e-08
4.05199e-08
4.54201e-08
3.69819e-08
1.88683e-08
8.71725e-09
4.22255e-09
2.10844e-09
1.04956e-09
5.34782e-10
2.7878e-10
1.48488e-10
7.87592e-11
4.26816e-11
2.30758e-11
1.23432e-11
6.48428e-12
3.32752e-12
1.63618e-12
7.98154e-13
3.99795e-13
2.49416e-13
2.04244e-13
2.08783e-13
2.79467e-13
3.64675e-13
2.67632e-13
1.8142e-13
5.38932e-14
4.93303e-23
2.69392e-22
6.25412e-22
9.24019e-22
1.12192e-21
1.32338e-21
1.59237e-21
1.9805e-21
2.42545e-21
2.58812e-21
2.62577e-21
2.9017e-21
3.11024e-21
3.65388e-21
4.20468e-21
4.6932e-21
5.38332e-21
5.96951e-21
6.57941e-21
7.5423e-21
8.94231e-21
1.05305e-20
1.33752e-20
1.96025e-20
3.53257e-20
7.86669e-20
2.03534e-19
5.83968e-19
1.66592e-18
4.78446e-18
1.3671e-17
3.85127e-17
1.07896e-16
2.9489e-16
7.99872e-16
2.10683e-15
5.53182e-15
1.40054e-14
3.67375e-14
9.08556e-14
2.21187e-13
5.10655e-13
1.19289e-12
2.69033e-12
6.0662e-12
1.32051e-11
2.72153e-11
5.29685e-11
9.74752e-11
1.71275e-10
2.92699e-10
4.9594e-10
8.43306e-10
1.34017e-09
2.27006e-09
3.69069e-09
6.22049e-09
1.12462e-08
2.1136e-08
4.05435e-08
7.69398e-08
1.32304e-07
1.92039e-07
1.88969e-07
1.18531e-07
6.32167e-08
3.42773e-08
2.17937e-08
1.79756e-08
1.8765e-08
2.27536e-08
3.04717e-08
4.05588e-08
4.54111e-08
3.69114e-08
1.87966e-08
8.68608e-09
4.20835e-09
2.10148e-09
1.04625e-09
5.33145e-10
2.7795e-10
1.48054e-10
7.85389e-11
4.25632e-11
2.30118e-11
1.23088e-11
6.46595e-12
3.31791e-12
1.63151e-12
7.95866e-13
3.98776e-13
2.48922e-13
2.03918e-13
2.08527e-13
2.7913e-13
3.64155e-13
2.6699e-13
1.80987e-13
5.37625e-14
5.98585e-23
1.77113e-22
3.57848e-22
5.75578e-22
9.01362e-22
1.16862e-21
1.29349e-21
1.68805e-21
2.1293e-21
2.31838e-21
2.54229e-21
2.81153e-21
3.09399e-21
3.73049e-21
4.17484e-21
5.01996e-21
5.70079e-21
5.78037e-21
6.17237e-21
7.14548e-21
8.57842e-21
1.05251e-20
1.32921e-20
1.94989e-20
3.4406e-20
7.73826e-20
2.01996e-19
5.73183e-19
1.63816e-18
4.70631e-18
1.3392e-17
3.76188e-17
1.07339e-16
2.91139e-16
7.67885e-16
2.05106e-15
5.41214e-15
1.35648e-14
3.5385e-14
9.1477e-14
2.1564e-13
5.14748e-13
1.1644e-12
2.69592e-12
6.06179e-12
1.3182e-11
2.7176e-11
5.29142e-11
9.74165e-11
1.71246e-10
2.92788e-10
4.9634e-10
8.44433e-10
1.34267e-09
2.27503e-09
3.70081e-09
6.24502e-09
1.12981e-08
2.12432e-08
4.0759e-08
7.73382e-08
1.32883e-07
1.92429e-07
1.88388e-07
1.17758e-07
6.27498e-08
3.40521e-08
2.17027e-08
1.79557e-08
1.87849e-08
2.28074e-08
3.05649e-08
4.06424e-08
4.53907e-08
3.67583e-08
1.8642e-08
8.61889e-09
4.17776e-09
2.08651e-09
1.03914e-09
5.29625e-10
2.76166e-10
1.47122e-10
7.80668e-11
4.23098e-11
2.2875e-11
1.22352e-11
6.4268e-12
3.29741e-12
1.62152e-12
7.90985e-13
3.96605e-13
2.47859e-13
2.03217e-13
2.07991e-13
2.78413e-13
3.63047e-13
2.65637e-13
1.80069e-13
5.34857e-14
1.68767e-22
3.37774e-22
4.60851e-22
6.71645e-22
8.80728e-22
1.06811e-21
1.30263e-21
1.638e-21
1.98227e-21
2.27564e-21
2.65862e-21
2.8894e-21
3.293e-21
3.81322e-21
4.51276e-21
5.31145e-21
5.91609e-21
6.71568e-21
7.27447e-21
8.05113e-21
8.78347e-21
9.96854e-21
1.24278e-20
1.82766e-20
3.45096e-20
7.83017e-20
2.01529e-19
5.6075e-19
1.62157e-18
4.65128e-18
1.3268e-17
3.7267e-17
1.04698e-16
2.86235e-16
7.74551e-16
2.06328e-15
5.37302e-15
1.35613e-14
3.5494e-14
9.06229e-14
2.16938e-13
5.04877e-13
1.15726e-12
2.69175e-12
6.02944e-12
1.31165e-11
2.70693e-11
5.27574e-11
9.72188e-11
1.71052e-10
2.92735e-10
4.96751e-10
8.46025e-10
1.34655e-09
2.28235e-09
3.71646e-09
6.28413e-09
1.13819e-08
2.14177e-08
4.11107e-08
7.79833e-08
1.33815e-07
1.93041e-07
1.87445e-07
1.1654e-07
6.20204e-08
3.37013e-08
2.15616e-08
1.79249e-08
1.8816e-08
2.28911e-08
3.07079e-08
4.07713e-08
4.53574e-08
3.65241e-08
1.84101e-08
8.51814e-09
4.13188e-09
2.06405e-09
1.02847e-09
5.24347e-10
2.73484e-10
1.45723e-10
7.73578e-11
4.19294e-11
2.26697e-11
1.21248e-11
6.36813e-12
3.26671e-12
1.60659e-12
7.83693e-13
3.93351e-13
2.46257e-13
2.02135e-13
2.07102e-13
2.77299e-13
3.61364e-13
2.63624e-13
1.78704e-13
5.30738e-14
8.09411e-23
2.77832e-22
4.87236e-22
6.31176e-22
7.21653e-22
8.7425e-22
1.1313e-21
1.4736e-21
1.74736e-21
2.06952e-21
2.57938e-21
3.02171e-21
3.6787e-21
4.369e-21
4.89515e-21
5.48046e-21
6.14029e-21
7.00415e-21
7.66939e-21
8.30356e-21
9.26187e-21
1.01935e-20
1.27134e-20
1.87473e-20
3.41483e-20
7.58301e-20
1.96238e-19
5.44825e-19
1.57322e-18
4.54973e-18
1.27512e-17
3.6965e-17
1.0222e-16
2.80226e-16
7.6006e-16
2.01578e-15
5.29052e-15
1.34652e-14
3.442e-14
8.71248e-14
2.14382e-13
5.00618e-13
1.13836e-12
2.65594e-12
5.98042e-12
1.30176e-11
2.68949e-11
5.2482e-11
9.68404e-11
1.70633e-10
2.92456e-10
4.97069e-10
8.47995e-10
1.35182e-09
2.29183e-09
3.73677e-09
6.33551e-09
1.14931e-08
2.16502e-08
4.15811e-08
7.88495e-08
1.35068e-07
1.93848e-07
1.86124e-07
1.14916e-07
6.10594e-08
3.32401e-08
2.13739e-08
1.78816e-08
1.88548e-08
2.29988e-08
3.0893e-08
4.09334e-08
4.53118e-08
3.62196e-08
1.81142e-08
8.38939e-09
4.07315e-09
2.03527e-09
1.01479e-09
5.17559e-10
2.70055e-10
1.43935e-10
7.64506e-11
4.14426e-11
2.24072e-11
1.19837e-11
6.29316e-12
3.2275e-12
1.58753e-12
7.74381e-13
3.89184e-13
2.44191e-13
2.00725e-13
2.05935e-13
2.75819e-13
3.59148e-13
2.61042e-13
1.76951e-13
5.25454e-14
8.56071e-23
2.42997e-22
5.15537e-22
6.62375e-22
8.39477e-22
1.12111e-21
1.56128e-21
1.67017e-21
1.89471e-21
2.19217e-21
2.64013e-21
3.19408e-21
3.73176e-21
4.13852e-21
4.34678e-21
4.91652e-21
5.78849e-21
6.5427e-21
7.29415e-21
8.09494e-21
8.9967e-21
1.09149e-20
1.33925e-20
1.96799e-20
3.43198e-20
7.4718e-20
1.91479e-19
5.27006e-19
1.51908e-18
4.34094e-18
1.23319e-17
3.52856e-17
9.85149e-17
2.70755e-16
7.17793e-16
1.94245e-15
5.08616e-15
1.30158e-14
3.37162e-14
8.67755e-14
2.07027e-13
5.00676e-13
1.13978e-12
2.61122e-12
5.8848e-12
1.28586e-11
2.66355e-11
5.20781e-11
9.62838e-11
1.69959e-10
2.91884e-10
4.97175e-10
8.50183e-10
1.35812e-09
2.30162e-09
3.76101e-09
6.39704e-09
1.16256e-08
2.19262e-08
4.21352e-08
7.98553e-08
1.36484e-07
1.94666e-07
1.84557e-07
1.13019e-07
5.99253e-08