/*--------------------------------*- C++ -*----------------------------------*\
  =========                 |
  \\      /  F ield         | OpenFOAM: The Open Source CFD Toolbox
   \\    /   O peration     | Website:  https://openfoam.org
    \\  /    A nd           | Version:  10
     \\/     M anipulation  |
\*---------------------------------------------------------------------------*/
FoamFile
{
    format      ascii;
    class       volScalarField;
    location    "1";
    object      PXC6H13;
}
// * * * * * * * * * * * * * * * * * * * * * * * * * * * * * * * * * * * * * //

dimensions      [0 0 0 0 0 0 0];

internalField   nonuniform List<scalar> 
4000
(
1.17241e-22
1.89641e-22
2.36847e-22
3.04607e-22
4.00788e-22
4.76383e-22
5.65639e-22
6.68717e-22
8.11095e-22
1.02844e-21
1.36132e-21
1.67139e-21
1.99341e-21
2.28763e-21
2.6359e-21
3.0202e-21
3.34266e-21
3.6627e-21
4.10314e-21
4.60789e-21
5.08295e-21
5.69883e-21
6.57187e-21
7.45145e-21
9.12745e-21
1.19224e-20
1.89479e-20
3.7367e-20
9.0398e-20
2.47766e-19
7.23917e-19
2.15948e-18
6.4414e-18
1.91299e-17
5.65124e-17
1.61023e-16
4.6479e-16
1.35749e-15
3.85434e-15
1.07825e-14
2.89424e-14
7.56448e-14
1.91479e-13
4.67676e-13
1.09736e-12
2.61969e-12
6.16292e-12
1.37365e-11
2.84164e-11
5.37829e-11
9.32266e-11
1.52155e-10
2.30372e-10
3.65109e-10
5.98909e-10
1.02323e-09
1.80963e-09
3.48072e-09
7.15316e-09
1.54193e-08
3.36545e-08
6.66675e-08
1.05171e-07
9.89594e-08
6.97662e-08
4.55797e-08
2.96708e-08
2.05868e-08
1.58819e-08
1.41996e-08
1.51707e-08
1.84665e-08
2.15725e-08
2.03002e-08
1.34227e-08
6.20739e-09
2.91672e-09
1.43349e-09
7.20473e-10
3.63556e-10
1.86849e-10
9.81468e-11
5.2552e-11
2.85523e-11
1.56375e-11
8.56166e-12
4.6485e-12
2.4843e-12
1.29825e-12
6.60366e-13
3.28053e-13
1.59853e-13
9.0106e-14
6.79041e-14
6.56174e-14
8.31018e-14
1.18049e-13
1.35813e-13
1.03147e-13
3.19152e-14
6.52728e-23
3.73128e-22
5.37831e-22
9.33536e-22
1.25375e-21
1.39751e-21
1.56913e-21
1.70445e-21
1.9713e-21
2.29824e-21
2.56752e-21
2.90397e-21
3.2424e-21
3.48156e-21
3.79156e-21
4.15346e-21
4.43316e-21
4.78485e-21
5.17557e-21
5.6704e-21
6.14854e-21
6.65057e-21
7.56604e-21
8.52253e-21
1.04212e-20
1.34749e-20
2.09294e-20
4.2736e-20
1.07328e-19
3.04017e-19
9.00389e-19
2.83493e-18
8.54872e-18
2.53327e-17
7.45362e-17
2.15906e-16
6.32609e-16
1.79291e-15
5.0503e-15
1.38258e-14
3.71462e-14
9.5911e-14
2.42514e-13
5.89105e-13
1.42687e-12
3.44188e-12
7.94767e-12
1.72098e-11
3.45813e-11
6.39968e-11
1.04591e-10
1.59411e-10
2.48646e-10
3.8984e-10
6.34937e-10
1.08468e-09
1.8794e-09
3.56171e-09
7.2395e-09
1.54584e-08
3.354e-08
6.61521e-08
1.04355e-07
9.92768e-08
7.05681e-08
4.63957e-08
3.0284e-08
2.09276e-08
1.60636e-08
1.42495e-08
1.50857e-08
1.83229e-08
2.15529e-08
2.05299e-08
1.3739e-08
6.36562e-09
2.98385e-09
1.46306e-09
7.33912e-10
3.69698e-10
1.89662e-10
9.94961e-11
5.32169e-11
2.88661e-11
1.57756e-11
8.6166e-12
4.66585e-12
2.4861e-12
1.29472e-12
6.56095e-13
3.24851e-13
1.58488e-13
9.05813e-14
6.93713e-14
6.77942e-14
8.713e-14
1.22277e-13
1.32447e-13
1.02123e-13
3.13841e-14
4.1827e-22
6.94282e-22
1.13168e-21
1.56729e-21
2.36157e-21
2.51734e-21
2.71281e-21
3.00819e-21
3.4242e-21
3.54955e-21
3.85201e-21
4.06128e-21
4.28099e-21
4.46934e-21
4.59126e-21
4.82453e-21
4.93017e-21
5.17832e-21
5.69993e-21
6.23967e-21
6.89126e-21
7.61481e-21
8.6138e-21
9.95429e-21
1.19045e-20
1.61843e-20
2.50773e-20
5.23728e-20
1.34374e-19
3.86667e-19
1.19291e-18
3.6073e-18
1.07333e-17
3.22588e-17
9.61602e-17
2.79607e-16
7.97151e-16
2.24948e-15
6.2674e-15
1.69346e-14
4.49492e-14
1.11793e-13
2.92411e-13
6.97354e-13
1.72886e-12
4.06339e-12
9.33296e-12
1.98874e-11
3.84949e-11
6.95051e-11
1.12182e-10
1.70921e-10
2.66072e-10
4.22526e-10
6.77431e-10
1.11707e-09
1.91421e-09
3.6077e-09
7.29892e-09
1.55163e-08
3.35026e-08
6.58263e-08
1.03663e-07
9.93755e-08
7.11301e-08
4.70482e-08
3.08225e-08
2.13149e-08
1.62722e-08
1.43198e-08
1.50272e-08
1.81914e-08
2.15348e-08
2.07628e-08
1.40886e-08
6.54454e-09
3.05975e-09
1.49657e-09
7.49178e-10
3.76792e-10
1.93161e-10
1.01215e-10
5.40555e-11
2.92369e-11
1.5935e-11
8.67826e-12
4.68391e-12
2.48658e-12
1.28963e-12
6.49808e-13
3.2028e-13
1.56722e-13
9.13261e-14
7.13334e-14
7.06238e-14
9.21338e-14
1.27352e-13
1.2903e-13
1.00719e-13
3.07657e-14
2.42237e-22
5.2077e-22
9.75721e-22
1.30362e-21
1.64656e-21
1.98198e-21
2.04964e-21
2.19833e-21
2.67833e-21
3.10155e-21
3.47246e-21
3.66673e-21
3.89455e-21
4.23948e-21
4.60295e-21
5.05147e-21
5.55191e-21
6.00434e-21
6.48663e-21
6.86105e-21
7.53852e-21
8.96351e-21
1.01971e-20
1.08982e-20
1.30462e-20
1.79994e-20
2.97445e-20
6.43923e-20
1.67391e-19
5.05566e-19
1.51571e-18
4.59326e-18
1.37708e-17
4.11255e-17
1.21593e-16
3.51419e-16
9.94949e-16
2.80442e-15
7.63375e-15
2.09522e-14
5.50801e-14
1.39448e-13
3.53315e-13
8.40765e-13
1.99468e-12
4.75452e-12
1.07225e-11
2.22254e-11
4.32458e-11
7.33924e-11
1.16319e-10
1.84575e-10
2.88572e-10
4.51106e-10
7.17349e-10
1.13251e-09
1.94118e-09
3.64487e-09
7.33973e-09
1.5528e-08
3.33992e-08
6.54191e-08
1.03011e-07
9.95131e-08
7.16264e-08
4.76199e-08
3.13106e-08
2.16313e-08
1.64539e-08
1.43858e-08
1.4976e-08
1.80677e-08
2.15126e-08
2.096e-08
1.44347e-08
6.65174e-09
3.11234e-09
1.52285e-09
7.62374e-10
3.83359e-10
1.96456e-10
1.02942e-10
5.50998e-11
2.937e-11
1.601e-11
8.71143e-12
4.69398e-12
2.48705e-12
1.28924e-12
6.39619e-13
3.14666e-13
1.55019e-13
9.22948e-14
7.35214e-14
7.38894e-14
9.75152e-14
1.32904e-13
1.2567e-13
9.91111e-14
3.01146e-14
1.52364e-22
3.75787e-22
5.5756e-22
8.56172e-22
1.17445e-21
1.40196e-21
1.78392e-21
1.99988e-21
2.34926e-21
2.76864e-21
3.12336e-21
3.47151e-21
3.81332e-21
4.19021e-21
4.79677e-21
5.51304e-21
6.1037e-21
6.41303e-21
7.03325e-21
7.51672e-21
8.18802e-21
9.54375e-21
1.03846e-20
1.1533e-20
1.38468e-20
1.92829e-20
3.49125e-20
8.02154e-20
2.17743e-19
6.41437e-19
1.93263e-18
5.95921e-18
1.77251e-17
5.25689e-17
1.531e-16
4.39109e-16
1.23332e-15
3.37313e-15
9.36456e-15
2.50957e-14
6.5271e-14
1.65138e-13
4.03481e-13
9.81544e-13
2.30481e-12
5.42592e-12
1.1926e-11
2.48941e-11
4.53743e-11
7.55781e-11
1.24196e-10
1.95051e-10
3.04899e-10
4.81698e-10
7.30962e-10
1.1523e-09
1.97068e-09
3.68153e-09
7.38205e-09
1.55694e-08
3.33773e-08
6.52052e-08
1.02552e-07
9.95487e-08
7.19914e-08
4.81184e-08
3.1702e-08
2.18861e-08
1.6596e-08
1.44466e-08
1.49514e-08
1.79925e-08
2.15066e-08
2.11335e-08
1.47042e-08
6.7891e-09
3.17101e-09
1.54983e-09
7.74925e-10
3.89229e-10
1.99342e-10
1.04407e-10
5.58491e-11
2.97466e-11
1.61845e-11
8.78767e-12
4.72343e-12
2.49547e-12
1.28914e-12
6.37616e-13
3.12741e-13
1.54892e-13
9.38497e-14
7.58975e-14
7.72939e-14
1.02928e-13
1.38742e-13
1.23687e-13
9.74095e-14
2.95097e-14
7.81895e-23
2.37385e-22
4.68061e-22
7.81148e-22
1.03834e-21
1.29991e-21
1.62441e-21
1.8811e-21
1.99108e-21
2.2529e-21
2.62412e-21
3.14649e-21
3.56026e-21
3.87583e-21
4.42e-21
5.2011e-21
5.75463e-21
6.53503e-21
7.29411e-21
8.48239e-21
1.02376e-20
1.11099e-20
1.2253e-20
1.31035e-20
1.55049e-20
2.16864e-20
4.1134e-20
9.9519e-20
2.80925e-19
8.21997e-19
2.43441e-18
7.5763e-18
2.22302e-17
6.48207e-17
1.84646e-16
5.31912e-16
1.46778e-15
3.94158e-15
1.1089e-14
3.03722e-14
7.70772e-14
1.90693e-13
4.66354e-13
1.11644e-12
2.64249e-12
6.02968e-12
1.34653e-11
2.61376e-11
4.69593e-11
8.06349e-11
1.31418e-10
2.06072e-10
3.17969e-10
4.9786e-10
7.51337e-10
1.17522e-09
1.99208e-09
3.7084e-09
7.40373e-09
1.55658e-08
3.32822e-08
6.49127e-08
1.02117e-07
9.96557e-08
7.23273e-08
4.84642e-08
3.20016e-08
2.21174e-08
1.67433e-08
1.45102e-08
1.4938e-08
1.79306e-08
2.14941e-08
2.1248e-08
1.48885e-08
6.89299e-09
3.21737e-09
1.57115e-09
7.8507e-10
3.94212e-10
2.01836e-10
1.0569e-10
5.65044e-11
3.01057e-11
1.63647e-11
8.8737e-12
4.76131e-12
2.50991e-12
1.293e-12
6.38464e-13
3.12502e-13
1.55613e-13
9.56066e-14
7.81842e-14
8.04934e-14
1.07914e-13
1.44373e-13
1.23198e-13
9.70561e-14
2.93033e-14
5.58694e-23
2.06782e-22
3.69977e-22
5.71172e-22
7.33019e-22
9.28351e-22
1.18394e-21
1.46374e-21
1.96495e-21
2.36459e-21
2.82045e-21
3.24316e-21
3.64093e-21
4.15926e-21
4.56789e-21
5.11523e-21
5.65372e-21
6.1307e-21
6.57844e-21
7.31156e-21
8.55074e-21
9.76297e-21
1.0462e-20
1.21056e-20
1.61168e-20
2.496e-20
4.89456e-20
1.20283e-19
3.49984e-19
1.03578e-18
3.07583e-18
9.11231e-18
2.69232e-17
7.83697e-17
2.22644e-16
6.33939e-16
1.78341e-15
4.74421e-15
1.32642e-14
3.49194e-14
8.88016e-14
2.20745e-13
5.31025e-13
1.26004e-12
2.91682e-12
6.69447e-12
1.43482e-11
2.67002e-11
4.96557e-11
8.53676e-11
1.37393e-10
2.13313e-10
3.26925e-10
5.0862e-10
7.64042e-10
1.19095e-09
2.00755e-09
3.72199e-09
7.40886e-09
1.55357e-08
3.31449e-08
6.45699e-08
1.01687e-07
9.98032e-08
7.26868e-08
4.88182e-08
3.22711e-08
2.23114e-08
1.68565e-08
1.45597e-08
1.49231e-08
1.78722e-08
2.14788e-08
2.13545e-08
1.50696e-08
6.99437e-09
3.26351e-09
1.59267e-09
7.9549e-10
3.9927e-10
2.04383e-10
1.07001e-10
5.71836e-11
3.04776e-11
1.65565e-11
8.96962e-12
4.80693e-12
2.52997e-12
1.30071e-12
6.41604e-13
3.13592e-13
1.5687e-13
9.73851e-14
8.02962e-14
8.33979e-14
1.12315e-13
1.49453e-13
1.23608e-13
9.72425e-14
2.92925e-14
1.44861e-22
3.00822e-22
5.50246e-22
9.07449e-22
1.1722e-21
1.48265e-21
1.69096e-21
1.95992e-21
2.26375e-21
2.58683e-21
2.90726e-21
3.44357e-21
3.98014e-21
4.52275e-21
4.90673e-21
5.45412e-21
6.18296e-21
6.71215e-21
7.29791e-21
8.22357e-21
8.86845e-21
9.56484e-21
1.04678e-20
1.23168e-20
1.67479e-20
2.74484e-20
5.8697e-20
1.50123e-19
4.21147e-19
1.23238e-18
3.70545e-18
1.11039e-17
3.24293e-17
9.32993e-17
2.61811e-16
7.3675e-16
2.05494e-15
5.41339e-15
1.48829e-14
3.96999e-14
1.00435e-13
2.46008e-13
5.98178e-13
1.40091e-12
3.24373e-12
7.32884e-12
1.48246e-11
2.84733e-11
5.25468e-11
8.95284e-11
1.4377e-10
2.21125e-10
3.36111e-10
5.19044e-10
7.75363e-10
1.20237e-09
2.01664e-09
3.72404e-09
7.38936e-09
1.54551e-08
3.29137e-08
6.41059e-08
1.01197e-07
1.00007e-07
7.30953e-08
4.92673e-08
3.25767e-08
2.25108e-08
1.69664e-08
1.46067e-08
1.49047e-08
1.78077e-08
2.14539e-08
2.14599e-08
1.52645e-08
7.10816e-09
3.31369e-09
1.61609e-09
8.06943e-10
4.04785e-10
2.07161e-10
1.08434e-10
5.79316e-11
3.08815e-11
1.67686e-11
9.07893e-12
4.86148e-12
2.55594e-12
1.31225e-12
6.46856e-13
3.15862e-13
1.58528e-13
9.91225e-14
8.21921e-14
8.59115e-14
1.16087e-13
1.53946e-13
1.24592e-13
9.78188e-14
2.94201e-14
1.31678e-22
3.86044e-22
6.7526e-22
1.0459e-21
1.24353e-21
1.52598e-21
1.80071e-21
2.18067e-21
2.55818e-21
3.04046e-21
3.09338e-21
3.42099e-21
4.00839e-21
4.46956e-21
5.10712e-21
5.61263e-21
6.26345e-21
7.06288e-21
7.70043e-21
8.04329e-21
8.66368e-21
9.77362e-21
1.07417e-20
1.30497e-20
1.81428e-20
3.16329e-20
6.93079e-20
1.82185e-19
5.17391e-19
1.50348e-18
4.42548e-18
1.30818e-17
3.79286e-17
1.08754e-16
3.07223e-16
8.52168e-16
2.33981e-15
6.10977e-15
1.66895e-14
4.38989e-14
1.11374e-13
2.74441e-13
6.5963e-13
1.55314e-12
3.43128e-12
7.24745e-12
1.54551e-11
3.04431e-11
5.54546e-11
9.40856e-11
1.49181e-10
2.27428e-10
3.43412e-10
5.27148e-10
7.83123e-10
1.20922e-09
2.01894e-09
3.71345e-09
7.34318e-09
1.53192e-08
3.25568e-08
6.33725e-08
1.0054e-07
1.00426e-07
7.37441e-08
4.97694e-08
3.2964e-08
2.27347e-08
1.70969e-08
1.46547e-08
1.48728e-08
1.77163e-08
2.14112e-08
2.15652e-08
1.54752e-08
7.23576e-09
3.36987e-09
1.64229e-09
8.1994e-10
4.11024e-10
2.10302e-10
1.1005e-10
5.87781e-11
3.13305e-11
1.70063e-11
9.20353e-12
4.92543e-12
2.58772e-12
1.32739e-12
6.53991e-13
3.19145e-13
1.60506e-13
1.00809e-13
8.39047e-14
8.81134e-14
1.19289e-13
1.57835e-13
1.25949e-13
9.86937e-14
2.96529e-14
1.28388e-22
3.88178e-22
6.60876e-22
9.15547e-22
1.11237e-21
1.36337e-21
1.71374e-21
2.07931e-21
2.50377e-21
2.91237e-21
3.31161e-21
3.92992e-21
4.37427e-21
4.84216e-21
5.61009e-21
6.35902e-21
6.97734e-21
7.5231e-21
8.5245e-21
9.33385e-21
9.63177e-21
1.01279e-20
1.14509e-20
1.38396e-20
2.00345e-20
3.51951e-20
8.00357e-20
2.12822e-19
6.13969e-19
1.80388e-18
5.28149e-18
1.52843e-17
4.37483e-17
1.241e-16
3.45911e-16
9.49461e-16
2.56714e-15
6.73862e-15
1.86254e-14
4.81551e-14
1.1988e-13
2.94236e-13
7.03482e-13
1.60235e-12
3.4991e-12
7.851e-12
1.64695e-11
3.21497e-11
5.84058e-11
9.78958e-11
1.53933e-10
2.33257e-10
3.50152e-10
5.3241e-10
7.87951e-10
1.21319e-09
2.0162e-09
3.69453e-09
7.28451e-09
1.51651e-08
3.21901e-08
6.26738e-08
9.982e-08
1.00867e-07
7.44399e-08
5.04031e-08
3.33904e-08
2.2976e-08
1.72214e-08
1.4697e-08
1.48235e-08
1.76241e-08
2.13614e-08
2.16709e-08
1.57217e-08
7.39451e-09
3.44024e-09
1.67483e-09
8.35627e-10
4.1836e-10
2.13926e-10
1.11888e-10
5.97337e-11
3.18269e-11
1.72678e-11
9.34192e-12
4.9976e-12
2.62448e-12
1.34555e-12
6.62669e-13
3.23246e-13
1.62723e-13
1.02428e-13
8.54205e-14
8.99464e-14
1.21933e-13
1.61156e-13
1.27534e-13
9.97844e-14
2.99623e-14
1.33308e-22
4.09606e-22
7.56106e-22
9.22746e-22
1.11126e-21
1.3404e-21
1.5153e-21
1.74493e-21
2.03966e-21
2.39024e-21
2.97168e-21
3.58332e-21
4.05692e-21
4.66378e-21
4.91954e-21
5.33942e-21
5.69263e-21
6.08522e-21
6.96735e-21
8.20432e-21
9.09652e-21
9.80469e-21
1.1111e-20
1.42419e-20
2.1462e-20
4.00876e-20
9.16062e-20
2.42489e-19
6.98399e-19
2.04765e-18
5.98232e-18
1.72769e-17
4.91215e-17
1.39566e-16
3.85458e-16
1.05248e-15
2.83423e-15
7.43648e-15
2.03303e-14
5.18995e-14
1.28437e-13
3.10495e-13
7.26635e-13
1.64356e-12
3.77995e-12
8.37202e-12
1.74611e-11
3.3995e-11
6.10818e-11
1.01625e-10
1.591e-10
2.40716e-10
3.62999e-10
5.33368e-10
7.90696e-10
1.21425e-09
2.00851e-09
3.66532e-09
7.20139e-09
1.49304e-08
3.16399e-08
6.17017e-08
9.90973e-08
1.01345e-07
7.51619e-08
5.10227e-08
3.38226e-08
2.32522e-08
1.73634e-08
1.47493e-08
1.47955e-08
1.75313e-08
2.13009e-08
2.17754e-08
1.59637e-08
7.54985e-09
3.50878e-09
1.70623e-09
8.51162e-10
4.25737e-10
2.17612e-10
1.13774e-10
6.07232e-11
3.23411e-11
1.75448e-11
9.48861e-12
5.07462e-12
2.66427e-12
1.36573e-12
6.72413e-13
3.27921e-13
1.65093e-13
1.03975e-13
8.67778e-14
9.14937e-14
1.24138e-13
1.64007e-13
1.29253e-13
1.01017e-13
3.0323e-14
1.02334e-22
3.12436e-22
6.96566e-22
9.07284e-22
1.05334e-21
1.35129e-21
1.79397e-21
2.26212e-21
2.50293e-21
2.79564e-21
3.18079e-21
3.63922e-21
3.92537e-21
4.27923e-21
4.64645e-21
5.1256e-21
5.69919e-21
6.31973e-21
6.55983e-21
7.22814e-21
8.02215e-21
9.40568e-21
1.15711e-20
1.51071e-20
2.36979e-20
4.47496e-20
1.01539e-19
2.67216e-19
7.74844e-19
2.24914e-18
6.41203e-18
1.9035e-17
5.44151e-17
1.51725e-16
4.30576e-16
1.16177e-15
3.07843e-15
8.05233e-15
2.14492e-14
5.58395e-14
1.36856e-13
3.28477e-13
7.65537e-13
1.75318e-12
4.01691e-12
8.84247e-12
1.83406e-11
3.54784e-11
6.33205e-11
1.04677e-10
1.63076e-10
2.45956e-10
3.69748e-10
5.32905e-10
7.92678e-10
1.21334e-09
1.99739e-09
3.63338e-09
7.11547e-09
1.47429e-08
3.11887e-08
6.08773e-08
9.82793e-08
1.01857e-07
7.59217e-08
5.16578e-08
3.425e-08
2.35264e-08
1.75169e-08
1.48066e-08
1.47669e-08
1.74274e-08
2.12296e-08
2.18652e-08
1.61983e-08
7.71433e-09
3.58008e-09
1.73956e-09
8.67583e-10
4.33514e-10
2.2145e-10
1.15722e-10
6.17432e-11
3.28695e-11
1.78302e-11
9.64366e-12
5.15784e-12
2.708e-12
1.38792e-12
6.83069e-13
3.33052e-13
1.67612e-13
1.05494e-13
8.80194e-14
9.28168e-14
1.25984e-13
1.66459e-13
1.31024e-13
1.02324e-13
3.07127e-14
6.39752e-23
1.94015e-22
5.20711e-22
7.55318e-22
1.04657e-21
1.39959e-21
1.99949e-21
2.42369e-21
2.57728e-21
3.01915e-21
3.47029e-21
3.78152e-21
4.20684e-21
4.58458e-21
5.0375e-21
5.67665e-21
5.78341e-21
6.04934e-21
6.72223e-21
7.52242e-21
8.84088e-21
9.79913e-21
1.15912e-20
1.50782e-20
2.34952e-20
4.55146e-20
1.07654e-19
2.88861e-19
8.29212e-19
2.48282e-18
7.13986e-18
2.08587e-17
5.92153e-17
1.67544e-16
4.60733e-16
1.24086e-15
3.27027e-15
8.52099e-15
2.26423e-14
5.92182e-14
1.45577e-13
3.50343e-13
8.0839e-13
1.88114e-12
4.21976e-12
9.25958e-12
1.91506e-11
3.67432e-11
6.51029e-11
1.06946e-10
1.65698e-10
2.48719e-10
3.72009e-10
5.32472e-10
7.95781e-10
1.2124e-09
1.98518e-09
3.59539e-09
7.02427e-09
1.45249e-08
3.07507e-08
6.00607e-08
9.75104e-08
1.02342e-07
7.66863e-08
5.23089e-08
3.4689e-08
2.38029e-08
1.76681e-08
1.48665e-08
1.47436e-08
1.7334e-08
2.11588e-08
2.1949e-08
1.64429e-08
7.89088e-09
3.6578e-09
1.77482e-09
8.84667e-10
4.41546e-10
2.25484e-10
1.17792e-10
6.28304e-11
3.34212e-11
1.81259e-11
9.80276e-12
5.24292e-12
2.75289e-12
1.41129e-12
6.94439e-13
3.38582e-13
1.70189e-13
1.06932e-13
8.91405e-14
9.39624e-14
1.27598e-13
1.68686e-13
1.32902e-13
1.0374e-13
3.11386e-14
7.8168e-23
3.82124e-22
5.24858e-22
7.83942e-22
1.0254e-21
1.26809e-21
1.72775e-21
2.08345e-21
2.39304e-21
2.87133e-21
3.20964e-21
3.66483e-21
4.16893e-21
4.79332e-21
5.59354e-21
6.2576e-21
6.56698e-21
6.45219e-21
7.12704e-21
7.56555e-21
9.24638e-21
1.02298e-20
1.12413e-20
1.38869e-20
2.19966e-20
4.5211e-20
1.14954e-19
3.13459e-19
9.02197e-19
2.63164e-18
7.57624e-18
2.23604e-17
6.24977e-17
1.77439e-16
4.85125e-16
1.30826e-15
3.45858e-15
8.84266e-15
2.38817e-14
6.25595e-14
1.51855e-13
3.62852e-13
8.49252e-13
1.97966e-12
4.40019e-12
9.63342e-12
1.97683e-11
3.76949e-11
6.64345e-11
1.08622e-10
1.67577e-10
2.50785e-10
3.7336e-10
5.31892e-10
7.97609e-10
1.21075e-09
1.97364e-09
3.56339e-09
6.9443e-09
1.43155e-08
3.02535e-08
5.91824e-08
9.67693e-08
1.02798e-07
7.74179e-08
5.29332e-08
3.51247e-08
2.40528e-08
1.78104e-08
1.49225e-08
1.47208e-08
1.72398e-08
2.10841e-08
2.20185e-08
1.66617e-08
8.06451e-09
3.73355e-09
1.80933e-09
9.01773e-10
4.49689e-10
2.29509e-10
1.19836e-10
6.38988e-11
3.39682e-11
1.84183e-11
9.95969e-12
5.32674e-12
2.79709e-12
1.43419e-12
7.05537e-13
3.43967e-13
1.72707e-13
1.08301e-13
9.01647e-14
9.49279e-14
1.28938e-13
1.70582e-13
1.34694e-13
1.05105e-13
3.15523e-14
1.51663e-22
4.00369e-22
6.36296e-22
9.60141e-22
1.19505e-21
1.29068e-21
1.45032e-21
1.65957e-21
2.06561e-21
2.71544e-21
3.33424e-21
3.96261e-21
4.58676e-21
5.06349e-21
5.35429e-21
5.87729e-21
6.48218e-21
7.03728e-21
7.11897e-21
7.24734e-21
7.62351e-21
8.61606e-21
1.05448e-20
1.35071e-20
2.2201e-20
4.67429e-20
1.18388e-19
3.27992e-19
9.46434e-19
2.79899e-18
8.15697e-18
2.35343e-17
6.57843e-17
1.85946e-16
5.01877e-16
1.3384e-15
3.62628e-15
9.23695e-15
2.47492e-14
6.37882e-14
1.60662e-13
3.82348e-13
8.95951e-13
2.0255e-12
4.54655e-12
9.90356e-12
2.02351e-11
3.84263e-11
6.74715e-11
1.09974e-10
1.69199e-10
2.52255e-10
3.74219e-10
5.31272e-10
7.98138e-10
1.20776e-09
1.9601e-09
3.52941e-09
6.85878e-09
1.41264e-08
2.98195e-08
5.83884e-08
9.60106e-08
1.03209e-07
7.81115e-08
5.35302e-08
3.55436e-08
2.43235e-08
1.79844e-08
1.49883e-08
1.47059e-08
1.71568e-08
2.10139e-08
2.20796e-08
1.68623e-08
8.229e-09
3.80515e-09
1.84225e-09
9.17822e-10
4.57264e-10
2.3325e-10
1.2173e-10
6.4887e-11
3.44703e-11
1.86872e-11
1.01043e-11
5.40416e-12
2.83802e-12
1.45547e-12
7.15843e-13
3.4896e-13
1.74995e-13
1.09502e-13
9.10422e-14
9.57518e-14
1.30026e-13
1.72146e-13
1.36313e-13
1.06346e-13
3.19308e-14
1.22235e-22
3.81049e-22
6.71408e-22
9.39751e-22
1.15241e-21
1.43201e-21
1.69539e-21
1.81337e-21
2.08368e-21
2.34306e-21
2.6872e-21
3.44046e-21
3.75272e-21
4.02253e-21
4.64197e-21
5.32143e-21
5.95897e-21
6.82873e-21
7.23634e-21
7.67924e-21
7.98524e-21
9.02156e-21
1.12006e-20
1.47652e-20
2.43655e-20
4.97528e-20
1.25508e-19
3.45446e-19
9.85503e-19
2.91773e-18
8.41247e-18
2.43161e-17
6.90952e-17
1.92157e-16
5.25955e-16
1.42137e-15
3.76571e-15
9.96656e-15
2.59733e-14
6.77505e-14
1.65391e-13
3.89315e-13
9.14743e-13
2.06854e-12
4.66055e-12
1.01143e-11
2.05938e-11
3.89785e-11
6.82314e-11
1.10895e-10
1.70253e-10
2.53276e-10
3.74837e-10
5.30713e-10
7.98179e-10
1.20472e-09
1.94809e-09
3.49677e-09
6.78312e-09
1.39478e-08
2.94386e-08
5.77145e-08
9.53677e-08
1.03521e-07
7.86884e-08
5.40361e-08
3.58998e-08
2.4547e-08
1.81177e-08
1.50423e-08
1.4693e-08
1.70846e-08
2.09502e-08
2.21269e-08
1.70316e-08
8.37241e-09
3.86745e-09
1.87064e-09
9.31672e-10
4.63815e-10
2.36484e-10
1.23366e-10
6.5742e-11
3.49045e-11
1.892e-11
1.02297e-11
5.47137e-12
2.87363e-12
1.47403e-12
7.24859e-13
3.53376e-13
1.76994e-13
1.10526e-13
9.17705e-14
9.64126e-14
1.30895e-13
1.73415e-13
1.37709e-13
1.07417e-13
3.22583e-14
7.96819e-23
3.78645e-22
6.56964e-22
7.43241e-22
9.32265e-22
1.23134e-21
1.65555e-21
2.2132e-21
2.4634e-21
2.66357e-21
2.91866e-21
3.32247e-21
3.70062e-21
4.13647e-21
4.90169e-21
5.46741e-21
5.61499e-21
6.18431e-21
6.81809e-21
7.89896e-21
8.82828e-21
1.0047e-20
1.24796e-20
1.60047e-20
2.61755e-20
5.40729e-20
1.31725e-19
3.59397e-19
1.03154e-18
3.03448e-18
8.76532e-18
2.55038e-17
7.17756e-17
1.99239e-16
5.44962e-16
1.47753e-15
3.93245e-15
1.02674e-14
2.65657e-14
6.83706e-14
1.67882e-13
3.99442e-13
9.16129e-13
2.09546e-12
4.75217e-12
1.02773e-11
2.08673e-11
3.93999e-11
6.88161e-11
1.1162e-10
1.71072e-10
2.54042e-10
3.75261e-10
5.30297e-10
7.97962e-10
1.20207e-09
1.93814e-09
3.47307e-09
6.72786e-09
1.38194e-08
2.91556e-08
5.71745e-08
9.48267e-08
1.03797e-07
7.91784e-08
5.44524e-08
3.61871e-08
2.47263e-08
1.82198e-08
1.50844e-08
1.46823e-08
1.70289e-08
2.09002e-08
2.2161e-08
1.71633e-08
8.48733e-09
3.91736e-09
1.89335e-09
9.42746e-10
4.69057e-10
2.39071e-10
1.2467e-10
6.64214e-11
3.52493e-11
1.91049e-11
1.03294e-11
5.52497e-12
2.90209e-12
1.48889e-12
7.32085e-13
3.56906e-13
1.78584e-13
1.11324e-13
9.2317e-14
9.68724e-14
1.31531e-13
1.74375e-13
1.38823e-13
1.08274e-13
3.25207e-14
1.64903e-22
5.49061e-22
9.25647e-22
1.29991e-21
1.41875e-21
1.47336e-21
1.70088e-21
2.13585e-21
2.09377e-21
2.141e-21
2.38198e-21
2.72852e-21
3.22302e-21
3.66768e-21
4.41393e-21
5.44215e-21
6.2475e-21
6.8011e-21
7.70918e-21
8.42994e-21
9.31964e-21
1.01346e-20
1.21756e-20
1.61779e-20
2.61591e-20
5.37345e-20
1.34856e-19
3.73111e-19
1.08555e-18
3.13312e-18
9.00618e-18
2.56359e-17
7.32648e-17
2.02861e-16
5.61036e-16
1.52115e-15
4.01501e-15
1.03215e-14
2.6881e-14
6.88506e-14
1.6858e-13
3.99448e-13
9.25553e-13
2.1196e-12
4.81723e-12
1.0394e-11
2.10627e-11
3.97008e-11
6.92361e-11
1.12162e-10
1.71659e-10
2.54623e-10
3.75588e-10
5.30051e-10
7.97797e-10
1.20026e-09
1.93148e-09
3.45629e-09
6.68818e-09
1.37273e-08
2.89531e-08
5.68034e-08
9.44529e-08
1.03968e-07
7.95018e-08
5.47326e-08
3.63815e-08
2.48454e-08
1.8289e-08
1.5113e-08
1.46764e-08
1.69893e-08
2.08632e-08
2.2184e-08
1.72552e-08
8.56916e-09
3.95286e-09
1.90948e-09
9.50605e-10
4.7278e-10
2.40909e-10
1.25603e-10
6.69068e-11
3.54952e-11
1.92366e-11
1.04004e-11
5.56308e-12
2.92231e-12
1.49947e-12
7.37229e-13
3.59419e-13
1.79711e-13
1.11887e-13
9.27043e-14
9.72049e-14
1.31968e-13
1.75034e-13
1.3961e-13
1.08878e-13
3.27062e-14
8.66233e-23
2.52785e-22
4.69584e-22
7.7282e-22
9.49328e-22
1.13297e-21
1.4039e-21
1.88797e-21
2.03233e-21
2.25292e-21
2.47946e-21
2.8225e-21
3.234e-21
3.65788e-21
4.15981e-21
4.66317e-21
5.22671e-21
6.03612e-21
7.20072e-21
8.4328e-21
9.39261e-21
1.00478e-20
1.16429e-20
1.61157e-20
2.65444e-20
5.54787e-20
1.37854e-19
3.84435e-19
1.10126e-18
3.18985e-18
9.19848e-18
2.6671e-17
7.45164e-17
2.06238e-16
5.69797e-16
1.52382e-15
4.06244e-15
1.04721e-14
2.79378e-14
7.0823e-14
1.70767e-13
4.05442e-13
9.25951e-13
2.15283e-12
4.85186e-12
1.04643e-11
2.11902e-11
3.99001e-11
6.95116e-11
1.12502e-10
1.72033e-10
2.54984e-10
3.7584e-10
5.29998e-10
7.97859e-10
1.19949e-09
1.9283e-09
3.44808e-09
6.66821e-09
1.36798e-08
2.88461e-08
5.6611e-08
9.42594e-08
1.04053e-07
7.96708e-08
5.48783e-08
3.64825e-08
2.49083e-08
1.83249e-08
1.51275e-08
1.46712e-08
1.69678e-08
2.08433e-08
2.21957e-08
1.73037e-08
8.61282e-09
3.97179e-09
1.91807e-09
9.54785e-10
4.74763e-10
2.41889e-10
1.261e-10
6.71669e-11
3.56271e-11
1.93075e-11
1.04387e-11
5.58365e-12
2.93324e-12
1.50518e-12
7.4001e-13
3.60775e-13
1.80318e-13
1.12188e-13
9.29123e-14
9.73875e-14
1.32197e-13
1.75379e-13
1.4003e-13
1.09202e-13
3.28057e-14
8.21387e-23
3.86807e-22
6.42296e-22
9.39026e-22
1.09857e-21
1.30003e-21
1.70598e-21
2.23056e-21
2.50682e-21
2.68653e-21
3.18476e-21
3.48678e-21
3.81927e-21
3.81064e-21
4.03516e-21
4.64979e-21
5.0274e-21
5.83804e-21
6.39255e-21
7.67175e-21
8.89695e-21
9.87192e-21
1.22144e-20
1.69669e-20
2.6838e-20
5.51333e-20
1.3905e-19
3.87538e-19
1.12872e-18
3.28427e-18
9.43942e-18
2.67258e-17
7.61341e-17
2.13412e-16
5.81322e-16
1.55345e-15
4.13447e-15
1.05361e-14
2.81518e-14
7.03777e-14
1.73293e-13
4.08793e-13
9.43853e-13
2.15607e-12
4.87165e-12
1.05062e-11
2.12636e-11
4.00147e-11
6.96729e-11
1.12709e-10
1.72284e-10
2.55255e-10
3.76087e-10
5.30144e-10
7.9826e-10
1.19971e-09
1.92797e-09
3.44669e-09
6.66448e-09
1.36707e-08
2.88254e-08
5.65719e-08
9.42202e-08
1.04072e-07
7.97068e-08
5.49084e-08
3.65024e-08
2.49201e-08
1.83315e-08
1.513e-08
1.46704e-08
1.69642e-08
2.084e-08
2.21973e-08
1.73111e-08
8.61964e-09
3.9747e-09
1.91936e-09
9.55408e-10
4.75055e-10
2.42031e-10
1.26171e-10
6.72036e-11
3.56456e-11
1.93174e-11
1.0444e-11
5.58648e-12
2.93474e-12
1.50596e-12
7.40383e-13
3.60957e-13
1.804e-13
1.12229e-13
9.29397e-14
9.7409e-14
1.32234e-13
1.75434e-13
1.40087e-13
1.09245e-13
3.28185e-14
6.29385e-23
3.22474e-22
7.35493e-22
1.07376e-21
1.28734e-21
1.50104e-21
1.7887e-21
2.20969e-21
2.6911e-21
2.83409e-21
2.82355e-21
3.0863e-21
3.25366e-21
3.8016e-21
4.33952e-21
4.78565e-21
5.45038e-21
5.97431e-21
6.5044e-21
7.41338e-21
8.74209e-21
1.00683e-20
1.22742e-20
1.67232e-20
2.73077e-20
5.58252e-20
1.39352e-19
3.96639e-19
1.13713e-18
3.29783e-18
9.5361e-18
2.72016e-17
7.71984e-17
2.13735e-16
5.87302e-16
1.56633e-15
4.16332e-15
1.0664e-14
2.83127e-14
7.07976e-14
1.74162e-13
4.05645e-13
9.54464e-13
2.16135e-12
4.8709e-12
1.05213e-11
2.12893e-11
4.00555e-11
6.97345e-11
1.12798e-10
1.72411e-10
2.55441e-10
3.76374e-10
5.30583e-10
7.99182e-10
1.20133e-09
1.9316e-09
3.45455e-09
6.68196e-09
1.37102e-08
2.8911e-08
5.67251e-08
9.43721e-08
1.04008e-07
7.95799e-08
5.47988e-08
3.6426e-08
2.48729e-08
1.83045e-08
1.51187e-08
1.46738e-08
1.69794e-08
2.08541e-08
2.21882e-08
1.7275e-08
8.58736e-09
3.96067e-09
1.91298e-09
9.52295e-10
4.73579e-10
2.41301e-10
1.25801e-10
6.701e-11
3.55475e-11
1.92647e-11
1.04155e-11
5.57116e-12
2.92658e-12
1.50168e-12
7.38301e-13
3.59937e-13
1.79945e-13
1.12009e-13
9.27948e-14
9.72926e-14
1.32075e-13
1.75185e-13
1.39764e-13
1.08997e-13
3.27422e-14
7.64764e-23
2.18282e-22
4.28817e-22
6.76713e-22
1.0454e-21
1.33885e-21
1.45575e-21
1.88262e-21
2.35494e-21
2.52488e-21
2.73008e-21
2.98017e-21
3.2325e-21
3.88891e-21
4.29879e-21
5.16413e-21
5.82262e-21
5.75225e-21
6.02759e-21
6.94748e-21
8.32395e-21
1.00832e-20
1.22155e-20
1.66458e-20
2.63474e-20
5.47391e-20
1.37874e-19
3.88529e-19
1.11721e-18
3.24291e-18
9.33825e-18
2.65556e-17
7.674e-17
2.10691e-16
5.62385e-16
1.52126e-15
4.06543e-15
1.03154e-14
2.72496e-14
7.12874e-14
1.69745e-13
4.08944e-13
9.31536e-13
2.16599e-12
4.86749e-12
1.05029e-11
2.1258e-11
4.00114e-11
6.96822e-11
1.1275e-10
1.72396e-10
2.55517e-10
3.76663e-10
5.31273e-10
8.00606e-10
1.20433e-09
1.93909e-09
3.47133e-09
6.71964e-09
1.37956e-08
2.90976e-08
5.70606e-08
9.47011e-08
1.03857e-07
7.92956e-08
5.45558e-08
3.62586e-08
2.47697e-08
1.82458e-08
1.50942e-08
1.46792e-08
1.70123e-08
2.08842e-08
2.21682e-08
1.71968e-08
8.51781e-09
3.93046e-09
1.89925e-09
9.45596e-10
4.70405e-10
2.39733e-10
1.25006e-10
6.65953e-11
3.53374e-11
1.91519e-11
1.03546e-11
5.53839e-12
2.90915e-12
1.49254e-12
7.33851e-13
3.5776e-13
1.78976e-13
1.11536e-13
9.24831e-14
9.7049e-14
1.31735e-13
1.74653e-13
1.39082e-13
1.0847e-13
3.25801e-14
2.03779e-22
4.03811e-22
5.45875e-22
7.87137e-22
1.01926e-21
1.21815e-21
1.46407e-21
1.81974e-21
2.17963e-21
2.47265e-21
2.86007e-21
3.05545e-21
3.44106e-21
3.94731e-21
4.64618e-21
5.44771e-21
6.01054e-21
6.79371e-21
7.26799e-21
7.957e-21
8.50829e-21
9.38351e-21
1.11686e-20
1.52343e-20
2.66028e-20
5.6183e-20
1.38329e-19
3.80663e-19
1.10643e-18
3.20506e-18
9.25142e-18
2.63074e-17
7.48403e-17
2.07156e-16
5.67535e-16
1.53072e-15
4.03643e-15
1.03163e-14
2.73473e-14
7.06384e-14
1.70822e-13
4.01105e-13
9.25924e-13
2.16285e-12
4.84179e-12
1.04511e-11
2.11746e-11
3.98904e-11
6.95287e-11
1.12583e-10
1.72263e-10
2.55519e-10
3.77014e-10
5.32298e-10
8.02666e-10
1.20894e-09
1.95101e-09
3.49837e-09
6.78081e-09
1.39346e-08
2.93989e-08
5.75993e-08
9.52172e-08
1.03601e-07
7.88415e-08
5.41717e-08
3.59953e-08
2.46083e-08
1.81536e-08
1.50561e-08
1.46876e-08
1.70625e-08
2.09304e-08
2.21365e-08
1.70771e-08
8.41342e-09
3.88516e-09
1.87864e-09
9.35552e-10
4.6565e-10
2.37382e-10
1.23812e-10
6.59725e-11
3.50219e-11
1.89826e-11
1.02633e-11
5.48926e-12
2.88302e-12
1.47887e-12
7.27199e-13
3.54508e-13
1.77524e-13
1.10822e-13
9.20006e-14
9.66432e-14
1.31208e-13
1.73844e-13
1.38065e-13
1.07686e-13
3.23385e-14
1.01271e-22
3.34916e-22
5.79544e-22
7.41222e-22
8.31833e-22
9.87299e-22
1.25911e-21
1.62517e-21
1.90066e-21
2.22543e-21
2.76491e-21
3.21023e-21
3.89066e-21
4.59267e-21
5.0886e-21
5.64506e-21
6.27215e-21
7.11832e-21
7.70537e-21
8.21937e-21
9.03358e-21
9.61273e-21
1.14713e-20
1.58754e-20
2.6398e-20
5.41222e-20
1.34692e-19
3.70151e-19
1.07338e-18
3.13629e-18
8.89131e-18
2.61082e-17
7.31118e-17
2.0298e-16
5.57535e-16
1.49725e-15
3.97909e-15
1.02512e-14
2.65207e-14
6.79028e-14
1.68844e-13
3.97794e-13
9.10879e-13
2.1343e-12
4.80293e-12
1.03731e-11
2.1039e-11
3.9681e-11
6.92464e-11
1.12261e-10
1.71969e-10
2.55396e-10
3.7738e-10
5.3364e-10
8.0529e-10
1.2149e-09
1.96666e-09
3.53423e-09
6.86242e-09
1.4121e-08
2.9805e-08
5.83268e-08
9.59056e-08
1.03226e-07
7.82251e-08
5.36576e-08
3.56439e-08
2.43914e-08
1.80303e-08
1.50042e-08
1.46981e-08
1.71276e-08
2.09883e-08
2.20944e-08
1.69219e-08
8.28034e-09
3.8273e-09
1.85229e-09
9.22681e-10
4.59556e-10
2.34359e-10
1.22286e-10
6.51763e-11
3.46184e-11
1.87661e-11
1.01464e-11
5.42646e-12
2.84964e-12
1.4614e-12
7.18704e-13
3.50356e-13
1.75664e-13
1.09901e-13
9.13715e-14
9.61095e-14
1.30508e-13
1.7278e-13
1.36759e-13
1.06676e-13
3.20281e-14
1.06154e-22
2.92037e-22
6.08411e-22
7.71004e-22
9.63366e-22
1.27168e-21
1.75859e-21
1.84497e-21
2.06185e-21
2.35594e-21
2.81765e-21
3.39282e-21
3.93667e-21
4.31228e-21
4.43561e-21
4.96827e-21
5.83714e-21
6.54621e-21
7.23617e-21
7.9603e-21
8.72291e-21
1.04954e-20
1.23635e-20
1.71369e-20
2.71547e-20
5.4284e-20
1.32663e-19
3.58992e-19
1.03674e-18
2.99289e-18
8.60214e-18
2.49226e-17
7.04701e-17
1.96149e-16
5.26539e-16
1.44347e-15
3.82693e-15
9.91259e-15
2.59907e-14
6.76684e-14
1.63062e-13
3.98009e-13
9.12326e-13
2.09867e-12
4.72675e-12
1.02476e-11
2.0838e-11
3.93767e-11
6.88403e-11
1.11772e-10
1.71486e-10
2.55104e-10
3.77693e-10
5.35194e-10
8.07968e-10
1.222e-09
1.98539e-09
3.57699e-09
6.95933e-09
1.43406e-08
3.02779e-08
5.91549e-08
9.66365e-08
1.02772e-07
7.74938e-08