/*--------------------------------*- C++ -*----------------------------------*\
  =========                 |
  \\      /  F ield         | OpenFOAM: The Open Source CFD Toolbox
   \\    /   O peration     | Website:  https://openfoam.org
    \\  /    A nd           | Version:  10
     \\/     M anipulation  |
\*---------------------------------------------------------------------------*/
FoamFile
{
    format      ascii;
    class       volScalarField;
    location    "1";
    object      PXC7H15;
}
// * * * * * * * * * * * * * * * * * * * * * * * * * * * * * * * * * * * * * //

dimensions      [0 0 0 0 0 0 0];

internalField   nonuniform List<scalar> 
4000
(
1.3372e-22
2.16721e-22
2.71484e-22
3.5107e-22
4.64593e-22
5.551e-22
6.62929e-22
7.88682e-22
9.62792e-22
1.22832e-21
1.63536e-21
2.01883e-21
2.41886e-21
2.78885e-21
3.22472e-21
3.70593e-21
4.11868e-21
4.53528e-21
5.09977e-21
5.75005e-21
6.37966e-21
7.1947e-21
8.36002e-21
9.63061e-21
1.21142e-20
1.67042e-20
2.85193e-20
6.08347e-20
1.54007e-19
4.29919e-19
1.25831e-18
3.73831e-18
1.10737e-17
3.26421e-17
9.57171e-17
2.7083e-16
7.76569e-16
2.25346e-15
6.36208e-15
1.77136e-14
4.73781e-14
1.23566e-13
3.12743e-13
7.65779e-13
1.80787e-12
4.37096e-12
1.05114e-11
2.42719e-11
5.30705e-11
1.09286e-10
2.13844e-10
4.1048e-10
7.36748e-10
1.4121e-09
2.7265e-09
5.18659e-09
9.51431e-09
1.75472e-08
3.16808e-08
5.52773e-08
9.10357e-08
1.33757e-07
1.64606e-07
1.3245e-07
8.13032e-08
4.72194e-08
2.89967e-08
2.18933e-08
2.1182e-08
2.44517e-08
3.16564e-08
4.31202e-08
5.37417e-08
5.29708e-08
3.62999e-08
1.66575e-08
7.70006e-09
3.70659e-09
1.83381e-09
9.21009e-10
4.7317e-10
2.48562e-10
1.331e-10
7.23198e-11
3.96106e-11
2.1688e-11
1.17754e-11
6.29244e-12
3.2867e-12
1.66874e-12
8.23314e-13
3.90205e-13
2.00739e-13
1.30749e-13
1.20569e-13
1.66471e-13
2.52039e-13
2.83583e-13
1.76229e-13
5.35871e-14
7.11945e-23
4.28816e-22
6.22314e-22
1.08871e-21
1.46874e-21
1.64508e-21
1.85649e-21
2.02804e-21
2.35643e-21
2.75848e-21
3.09745e-21
3.51828e-21
3.94276e-21
4.25226e-21
4.64631e-21
5.10314e-21
5.46726e-21
5.92172e-21
6.43004e-21
7.07195e-21
7.71104e-21
8.40392e-21
9.62815e-21
1.10174e-20
1.38335e-20
1.89535e-20
3.20866e-20
7.06699e-20
1.85182e-19
5.30818e-19
1.57185e-18
4.9217e-18
1.47328e-17
4.33103e-17
1.26434e-16
3.63541e-16
1.05754e-15
2.97806e-15
8.34021e-15
2.27234e-14
6.08316e-14
1.56756e-13
3.96406e-13
9.65788e-13
2.35634e-12
5.76326e-12
1.36292e-11
3.06779e-11
6.5548e-11
1.33307e-10
2.45448e-10
4.33394e-10
8.17207e-10
1.54346e-09
2.94959e-09
5.61086e-09
1.00372e-08
1.81741e-08
3.23945e-08
5.58177e-08
9.13645e-08
1.33806e-07
1.64692e-07
1.33911e-07
8.29271e-08
4.84518e-08
2.96857e-08
2.21065e-08
2.11368e-08
2.42225e-08
3.12314e-08
4.26088e-08
5.35535e-08
5.34627e-08
3.71071e-08
1.70794e-08
7.87767e-09
3.78412e-09
1.8688e-09
9.3703e-10
4.80522e-10
2.52091e-10
1.34841e-10
7.31441e-11
3.99752e-11
2.18348e-11
1.18232e-11
6.29885e-12
3.27856e-12
1.65808e-12
8.14814e-13
3.85649e-13
1.99927e-13
1.32501e-13
1.24766e-13
1.75533e-13
2.60842e-13
2.71653e-13
1.71488e-13
5.19313e-14
4.85497e-22
8.10752e-22
1.32997e-21
1.85324e-21
2.79961e-21
2.99892e-21
3.24526e-21
3.60965e-21
4.11628e-21
4.28494e-21
4.66203e-21
4.93229e-21
5.21694e-21
5.46702e-21
5.64318e-21
5.95182e-21
6.11401e-21
6.4478e-21
7.11347e-21
7.81521e-21
8.66787e-21
9.63415e-21
1.09786e-20
1.28617e-20
1.58547e-20
2.27599e-20
3.86876e-20
8.74242e-20
2.33495e-19
6.79081e-19
2.0899e-18
6.28076e-18
1.85387e-17
5.52539e-17
1.63347e-16
4.71304e-16
1.33394e-15
3.7392e-15
1.03568e-14
2.78485e-14
7.36503e-14
1.82817e-13
4.78305e-13
1.14437e-12
2.86096e-12
6.82474e-12
1.60814e-11
3.5707e-11
7.37182e-11
1.46891e-10
2.68526e-10
4.77364e-10
8.99622e-10
1.72426e-09
3.21234e-09
5.83017e-09
1.02901e-08
1.85065e-08
3.28034e-08
5.63124e-08
9.17905e-08
1.34073e-07
1.64874e-07
1.35171e-07
8.42923e-08
4.95309e-08
3.03331e-08
2.23798e-08
2.11385e-08
2.40461e-08
3.08862e-08
4.21332e-08
5.3378e-08
5.39624e-08
3.79978e-08
1.75562e-08
8.07803e-09
3.87173e-09
1.90848e-09
9.55524e-10
4.89662e-10
2.56583e-10
1.37036e-10
7.41197e-11
4.03983e-11
2.20012e-11
1.18743e-11
6.30275e-12
3.26683e-12
1.64236e-12
8.02665e-13
3.79599e-13
1.99095e-13
1.34923e-13
1.30285e-13
1.86791e-13
2.71385e-13
2.58442e-13
1.65806e-13
5.0038e-14
2.78701e-22
6.04736e-22
1.14274e-21
1.53543e-21
1.94993e-21
2.35914e-21
2.45799e-21
2.65637e-21
3.24621e-21
3.76834e-21
4.22876e-21
4.48421e-21
4.78245e-21
5.22237e-21
5.68981e-21
6.26059e-21
6.89396e-21
7.47714e-21
8.10489e-21
8.62202e-21
9.51665e-21
1.13225e-20
1.29734e-20
1.41799e-20
1.76151e-20
2.59083e-20
4.6948e-20
1.09318e-19
2.93309e-19
8.92686e-19
2.66531e-18
8.01417e-18
2.38241e-17
7.05371e-17
2.06794e-16
5.929e-16
1.66634e-15
4.66472e-15
1.26234e-14
3.44732e-14
9.02942e-14
2.28167e-13
5.7831e-13
1.38108e-12
3.30438e-12
8.00397e-12
1.8545e-11
4.01545e-11
8.36931e-11
1.55685e-10
2.80311e-10
5.30862e-10
1.00661e-09
1.88456e-09
3.4643e-09
5.96174e-09
1.05233e-08
1.88246e-08
3.32034e-08
5.66599e-08
9.20223e-08
1.34123e-07
1.64951e-07
1.36216e-07
8.54627e-08
5.0493e-08
3.0955e-08
2.26334e-08
2.11562e-08
2.39024e-08
3.05575e-08
4.16782e-08
5.3202e-08
5.43844e-08
3.88807e-08
1.78328e-08
8.21343e-09
3.93909e-09
1.94236e-09
9.72537e-10
4.9823e-10
2.6108e-10
1.39747e-10
7.44919e-11
4.06075e-11
2.20956e-11
1.19053e-11
6.30671e-12
3.26706e-12
1.61673e-12
7.87832e-13
3.73632e-13
1.98724e-13
1.37909e-13
1.36893e-13
1.99152e-13
2.8374e-13
2.47351e-13
1.607e-13
4.83316e-14
1.71272e-22
4.28867e-22
6.43477e-22
1.00075e-21
1.38699e-21
1.66991e-21
2.1367e-21
2.41293e-21
2.84859e-21
3.3696e-21
3.81613e-21
4.25466e-21
4.68638e-21
5.16239e-21
5.91684e-21
6.80766e-21
7.55558e-21
7.97974e-21
8.7796e-21
9.44201e-21
1.035e-20
1.20973e-20
1.33292e-20
1.51524e-20
1.90286e-20
2.86302e-20
5.6416e-20
1.38335e-19
3.85371e-19
1.13729e-18
3.40549e-18
1.04144e-17
3.07026e-17
9.02499e-17
2.60601e-16
7.41456e-16
2.06716e-15
5.61528e-15
1.54929e-14
4.13094e-14
1.0705e-13
2.70319e-13
6.60759e-13
1.61371e-12
3.82281e-12
9.15113e-12
2.069e-11
4.51695e-11
8.78441e-11
1.60648e-10
3.0462e-10
5.72109e-10
1.08861e-09
2.06407e-09
3.55836e-09
6.114e-09
1.07581e-08
1.91087e-08
3.35091e-08
5.70139e-08
9.23286e-08
1.34334e-07
1.65108e-07
1.37019e-07
8.6423e-08
5.1382e-08
3.14892e-08
2.28598e-08
2.1191e-08
2.38162e-08
3.03445e-08
4.13841e-08
5.30928e-08
5.47539e-08
3.95617e-08
1.81978e-08
8.36798e-09
4.00956e-09
1.9751e-09
9.87935e-10
5.05819e-10
2.64933e-10
1.41721e-10
7.54856e-11
4.10707e-11
2.23e-11
1.19858e-11
6.33099e-12
3.26812e-12
1.61192e-12
7.82396e-13
3.7171e-13
2.00016e-13
1.41564e-13
1.43951e-13
2.11668e-13
2.97145e-13
2.40647e-13
1.56869e-13
4.70716e-14
8.32968e-23
2.62553e-22
5.29734e-22
8.9829e-22
1.20648e-21
1.52449e-21
1.92007e-21
2.23865e-21
2.39008e-21
2.72439e-21
3.1891e-21
3.83199e-21
4.35062e-21
4.76068e-21
5.44845e-21
6.42546e-21
7.14411e-21
8.13746e-21
9.12125e-21
1.06286e-20
1.28271e-20
1.40364e-20
1.56716e-20
1.72684e-20
2.16034e-20
3.31884e-20
6.85836e-20
1.74165e-19
4.99743e-19
1.46206e-18
4.3003e-18
1.3259e-17
3.85472e-17
1.11389e-16
3.14617e-16
8.98859e-16
2.46179e-15
6.56639e-15
1.8355e-14
5.00126e-14
1.26464e-13
3.12288e-13
7.64083e-13
1.83656e-12
4.38774e-12
1.01856e-11
2.343e-11
4.74921e-11
9.11186e-11
1.73307e-10
3.26615e-10
6.13271e-10
1.14832e-09
2.15622e-09
3.69518e-09
6.28679e-09
1.09411e-08
1.93607e-08
3.3758e-08
5.72319e-08
9.24684e-08
1.34376e-07
1.65217e-07
1.37824e-07
8.7254e-08
5.19981e-08
3.18974e-08
2.30658e-08
2.12393e-08
2.37601e-08
3.01866e-08
4.11417e-08
5.29835e-08
5.49913e-08
4.00257e-08
1.84756e-08
8.49093e-09
4.06564e-09
2.0017e-09
1.00106e-09
5.12402e-10
2.68322e-10
1.43454e-10
7.6434e-11
4.1548e-11
2.25292e-11
1.20877e-11
6.37055e-12
3.27923e-12
1.6144e-12
7.81328e-13
3.72139e-13
2.02183e-13
1.45322e-13
1.50663e-13
2.23178e-13
3.10158e-13
2.37846e-13
1.55478e-13
4.65367e-14
5.70983e-23
2.26166e-22
4.1322e-22
6.48068e-22
8.40909e-22
1.07705e-21
1.38852e-21
1.73305e-21
2.34324e-21
2.8402e-21
3.40765e-21
3.94129e-21
4.45138e-21
5.10784e-21
5.64129e-21
6.34229e-21
7.03985e-21
7.67226e-21
8.28315e-21
9.25e-21
1.08405e-20
1.2458e-20
1.36178e-20
1.6311e-20
2.29576e-20
3.88002e-20
8.29713e-20
2.12146e-19
6.2493e-19
1.84533e-18
5.43884e-18
1.59681e-17
4.67387e-17
1.34811e-16
3.79655e-16
1.07197e-15
2.99236e-15
7.90591e-15
2.19615e-14
5.75255e-14
1.45761e-13
3.6166e-13
8.70493e-13
2.07417e-12
4.84614e-12
1.13151e-11
2.49557e-11
4.84332e-11
9.67694e-11
1.84934e-10
3.44393e-10
6.40285e-10
1.1905e-09
2.2195e-09
3.78468e-09
6.41418e-09
1.10859e-08
1.95167e-08
3.39205e-08
5.73508e-08
9.24863e-08
1.34318e-07
1.65302e-07
1.38634e-07
8.80852e-08
5.26085e-08
3.22603e-08
2.32398e-08
2.12736e-08
2.37053e-08
3.00386e-08
4.09167e-08
5.28763e-08
5.52104e-08
4.04814e-08
1.87482e-08
8.61396e-09
4.12251e-09
2.02904e-09
1.01436e-09
5.19108e-10
2.71777e-10
1.45246e-10
7.74141e-11
4.20546e-11
2.27833e-11
1.22091e-11
6.42438e-12
3.30015e-12
1.62275e-12
7.83763e-13
3.74184e-13
2.04812e-13
1.48951e-13
1.56777e-13
2.33316e-13
3.21987e-13
2.37568e-13
1.55402e-13
4.6431e-14
1.62067e-22
3.36795e-22
6.24189e-22
1.04217e-21
1.35689e-21
1.73001e-21
1.98772e-21
2.32194e-21
2.70479e-21
3.11436e-21
3.52549e-21
4.1952e-21
4.87109e-21
5.5583e-21
6.06362e-21
6.76401e-21
7.68336e-21
8.3757e-21
9.14607e-21
1.03329e-20
1.12237e-20
1.2243e-20
1.36875e-20
1.67659e-20
2.44017e-20
4.39345e-20
1.0096e-19
2.67268e-19
7.55185e-19
2.20098e-18
6.56189e-18
1.94773e-17
5.63479e-17
1.60632e-16
4.46815e-16
1.2468e-15
3.45031e-15
9.02721e-15
2.46584e-14
6.54331e-14
1.64933e-13
4.03264e-13
9.81256e-13
2.3082e-12
5.39731e-12
1.24189e-11
2.58296e-11
5.18791e-11
1.02982e-10
1.95393e-10
3.63647e-10
6.69216e-10
1.23291e-09
2.27973e-09
3.86428e-09
6.51153e-09
1.11937e-08
1.96218e-08
3.39878e-08
5.73283e-08
9.23257e-08
1.34084e-07
1.6533e-07
1.39512e-07
8.89765e-08
5.3355e-08
3.2667e-08
2.34202e-08
2.13047e-08
2.36443e-08
2.98794e-08
4.06754e-08
5.2741e-08
5.54226e-08
4.09712e-08
1.90564e-08
8.74879e-09
4.18479e-09
2.05912e-09
1.02883e-09
5.26403e-10
2.7554e-10
1.47214e-10
7.84766e-11
4.26133e-11
2.30718e-11
1.23535e-11
6.49333e-12
3.33088e-12
1.63657e-12
7.8934e-13
3.77512e-13
2.0772e-13
1.52314e-13
1.62039e-13
2.4193e-13
3.3238e-13
2.38881e-13
1.56206e-13
4.66131e-14
1.46074e-22
4.37602e-22
7.73787e-22
1.20816e-21
1.44554e-21
1.78931e-21
2.13098e-21
2.60161e-21
3.07294e-21
3.66911e-21
3.76358e-21
4.18507e-21
4.91927e-21
5.51103e-21
6.31399e-21
6.96529e-21
7.79462e-21
8.80275e-21
9.62778e-21
1.01251e-20
1.09887e-20
1.2512e-20
1.40969e-20
1.78829e-20
2.6812e-20
5.12155e-20
1.20396e-19
3.25815e-19
9.30496e-19
2.68934e-18
7.84553e-18
2.29684e-17
6.59613e-17
1.87376e-16
5.24622e-16
1.44304e-15
3.93122e-15
1.01948e-14
2.76666e-14
7.23923e-14
1.82979e-13
4.50072e-13
1.08263e-12
2.56065e-12
5.71125e-12
1.22677e-11
2.69537e-11
5.56838e-11
1.09222e-10
2.06672e-10
3.79808e-10
6.92797e-10
1.26726e-09
2.32764e-09
3.92174e-09
6.57871e-09
1.12602e-08
1.96637e-08
3.39586e-08
5.71651e-08
9.19677e-08
1.33586e-07
1.65325e-07
1.40933e-07
9.02895e-08
5.41646e-08
3.31668e-08
2.36177e-08
2.13315e-08
2.35573e-08
2.96573e-08
4.03463e-08
5.25493e-08
5.56269e-08
4.14998e-08
1.94045e-08
8.90077e-09
4.25489e-09
2.09333e-09
1.04518e-09
5.34642e-10
2.79783e-10
1.49438e-10
7.96568e-11
4.32388e-11
2.34e-11
1.25222e-11
6.5773e-12
3.37089e-12
1.65529e-12
7.97643e-13
3.81904e-13
2.10836e-13
1.55446e-13
1.66614e-13
2.49169e-13
3.41322e-13
2.41212e-13
1.57616e-13
4.69952e-14
1.42565e-22
4.40424e-22
7.58388e-22
1.059e-21
1.29652e-21
1.60148e-21
2.02735e-21
2.47534e-21
2.99723e-21
3.50422e-21
4.00483e-21
4.76606e-21
5.32907e-21
5.927e-21
6.88333e-21
7.82469e-21
8.62272e-21
9.34361e-21
1.06006e-20
1.1647e-20
1.21348e-20
1.29612e-20
1.50263e-20
1.91074e-20
2.98917e-20
5.77961e-20
1.3989e-19
3.81349e-19
1.10513e-18
3.22831e-18
9.37094e-18
2.68606e-17
7.61532e-17
2.14023e-16
5.91305e-16
1.60947e-15
4.31729e-15
1.12514e-14
3.08887e-14
7.94462e-14
1.97044e-13
4.82732e-13
1.15505e-12
2.6425e-12
5.8255e-12
1.33125e-11
2.879e-11
5.90162e-11
1.15633e-10
2.16403e-10
3.94795e-10
7.15684e-10
1.29952e-09
2.35859e-09
3.95998e-09
6.62746e-09
1.12936e-08
1.96546e-08
3.38581e-08
5.69152e-08
9.15323e-08
1.33056e-07
1.65246e-07
1.42327e-07
9.16417e-08
5.51505e-08
3.37079e-08
2.38285e-08
2.13502e-08
2.34432e-08
2.93741e-08
4.00141e-08
5.23384e-08
5.58286e-08
4.21191e-08
1.98409e-08
9.0925e-09
4.34256e-09
2.13479e-09
1.06445e-09
5.44158e-10
2.84614e-10
1.5195e-10
8.09626e-11
4.39271e-11
2.37645e-11
1.27124e-11
6.67423e-12
3.41876e-12
1.67806e-12
8.08163e-13
3.87123e-13
2.14062e-13
1.58281e-13
1.70364e-13
2.55074e-13
3.48895e-13
2.44171e-13
1.59429e-13
4.7512e-14
1.49353e-22
4.68495e-22
8.74913e-22
1.07384e-21
1.30168e-21
1.58118e-21
1.80026e-21
2.08662e-21
2.45164e-21
2.88629e-21
3.59882e-21
4.35244e-21
4.94601e-21
5.69878e-21
6.04616e-21
6.59279e-21
7.07008e-21
7.59965e-21
8.71292e-21
1.02634e-20
1.14595e-20
1.25644e-20
1.46854e-20
1.98339e-20
3.23081e-20
6.58939e-20
1.59941e-19
4.34919e-19
1.25751e-18
3.66717e-18
1.06217e-17
3.03851e-17
8.55801e-17
2.40898e-16
6.59517e-16
1.78574e-15
4.77022e-15
1.24227e-14
3.37313e-14
8.56623e-14
2.11196e-13
5.09615e-13
1.19355e-12
2.7115e-12
6.30037e-12
1.42196e-11
3.06058e-11
6.26662e-11
1.2166e-10
2.26577e-10
4.12589e-10
7.48153e-10
1.36762e-09
2.36393e-09
3.98552e-09
6.65668e-09
1.12956e-08
1.95941e-08
3.36706e-08
5.64655e-08
9.07581e-08
1.32126e-07
1.65042e-07
1.43723e-07
9.29991e-08
5.60931e-08
3.42442e-08
2.40664e-08
2.13871e-08
2.33608e-08
2.9163e-08
3.96837e-08
5.20946e-08
5.60189e-08
4.27232e-08
2.02688e-08
9.27972e-09
4.42737e-09
2.17589e-09
1.08382e-09
5.53837e-10
2.89571e-10
1.54553e-10
8.23166e-11
4.46567e-11
2.41511e-11
1.29154e-11
6.77913e-12
3.47195e-12
1.70365e-12
8.20265e-13
3.92912e-13
2.17337e-13
1.60871e-13
1.73473e-13
2.59926e-13
3.55333e-13
2.47504e-13
1.61493e-13
4.81145e-14
1.12987e-22
3.55204e-22
8.05438e-22
1.05562e-21
1.23337e-21
1.59178e-21
2.12325e-21
2.68787e-21
2.99085e-21
3.35851e-21
3.839e-21
4.40865e-21
4.77862e-21
5.23271e-21
5.7086e-21
6.32362e-21
7.05599e-21
7.85111e-21
8.21164e-21
9.10083e-21
1.01931e-20
1.21113e-20
1.53113e-20
2.11303e-20
3.58021e-20
7.35843e-20
1.7809e-19
4.80425e-19
1.39704e-18
4.03245e-18
1.13976e-17
3.34984e-17
9.48318e-17
2.61966e-16
7.36614e-16
1.97089e-15
5.18134e-15
1.34539e-14
3.56017e-14
9.21879e-14
2.251e-13
5.39273e-13
1.25784e-12
2.89376e-12
6.70104e-12
1.50393e-11
3.22182e-11
6.56172e-11
1.26721e-10
2.34894e-10
4.26274e-10
7.70992e-10
1.40245e-09
2.36027e-09
4.00661e-09
6.67462e-09
1.12761e-08
1.95077e-08
3.34494e-08
5.60912e-08
9.01328e-08
1.31396e-07
1.64833e-07
1.4519e-07
9.44055e-08
5.70483e-08
3.4771e-08
2.4301e-08
2.14305e-08
2.32897e-08
2.8929e-08
3.93154e-08
5.1823e-08
5.61741e-08
4.33084e-08
2.07244e-08
9.47556e-09
4.5179e-09
2.21951e-09
1.1043e-09
5.63942e-10
2.94703e-10
1.57241e-10
8.37106e-11
4.54099e-11
2.45603e-11
1.31351e-11
6.89453e-12
3.53047e-12
1.73169e-12
8.3363e-13
3.99215e-13
2.20704e-13
1.63284e-13
1.7608e-13
2.63923e-13
3.60817e-13
2.51012e-13
1.63683e-13
4.87633e-14
6.68767e-23
2.12083e-22
5.91296e-22
8.68184e-22
1.21579e-21
1.64046e-21
2.35857e-21
2.87484e-21
3.07854e-21
3.62512e-21
4.18687e-21
4.58604e-21
5.11896e-21
5.60116e-21
6.1781e-21
6.97554e-21
7.1557e-21
7.5342e-21
8.40366e-21
9.45204e-21
1.11676e-20
1.26083e-20
1.54252e-20
2.13278e-20
3.63568e-20
7.66202e-20
1.90868e-19
5.22141e-19
1.49912e-18
4.45599e-18
1.26972e-17
3.67223e-17
1.03235e-16
2.89335e-16
7.88575e-16
2.10599e-15
5.50657e-15
1.42418e-14
3.75907e-14
9.77805e-14
2.39476e-13
5.75261e-13
1.32847e-12
3.10647e-12
7.04296e-12
1.57609e-11
3.36743e-11
6.80395e-11
1.30496e-10
2.40423e-10
4.33844e-10
7.80456e-10
1.41098e-09
2.35615e-09
4.03324e-09
6.68749e-09
1.1244e-08
1.93899e-08
3.31955e-08
5.56169e-08
8.94828e-08
1.30608e-07
1.64574e-07
1.46602e-07
9.58194e-08
5.80232e-08
3.53102e-08
2.45375e-08
2.1468e-08
2.32045e-08
2.87182e-08
3.89831e-08
5.15585e-08
5.63153e-08
4.39186e-08
2.12158e-08
9.69002e-09
4.61415e-09
2.26509e-09
1.12551e-09
5.74592e-10
3.0017e-10
1.60114e-10
8.51698e-11
4.6192e-11
2.4981e-11
1.336e-11
7.01315e-12
3.59214e-12
1.76166e-12
8.48108e-13
4.05784e-13
2.24012e-13
1.655e-13
1.78297e-13
2.67358e-13
3.65735e-13
2.54779e-13
1.66056e-13
4.94699e-14
8.4265e-23
4.34547e-22
5.99692e-22
9.04598e-22
1.1927e-21
1.48648e-21
2.03981e-21
2.47659e-21
2.86314e-21
3.45283e-21
3.88183e-21
4.45128e-21
5.08193e-21
5.85415e-21
6.8357e-21
7.66496e-21
8.08533e-21
8.01717e-21
8.89555e-21
9.53415e-21
1.1692e-20
1.3186e-20
1.51603e-20
2.02384e-20
3.52357e-20
7.80862e-20
2.05633e-19
5.68885e-19
1.63513e-18
4.72972e-18
1.34846e-17
3.9391e-17
1.09034e-16
3.06572e-16
8.30671e-16
2.22101e-15
5.82482e-15
1.47844e-14
3.96553e-14
1.0331e-13
2.49837e-13
5.95873e-13
1.39584e-12
3.26996e-12
7.34588e-12
1.64025e-11
3.4775e-11
6.9843e-11
1.33261e-10
2.44352e-10
4.38913e-10
7.86634e-10
1.41473e-09
2.35109e-09
4.05071e-09
6.69324e-09
1.12082e-08
1.92849e-08
3.29712e-08
5.51617e-08
8.8713e-08
1.29694e-07
1.64265e-07
1.47916e-07
9.71599e-08
5.89511e-08
3.58448e-08
2.47559e-08
2.15064e-08
2.31239e-08
2.85196e-08
3.86498e-08
5.12872e-08
5.64238e-08
4.44622e-08
2.17004e-08
9.89959e-09
4.70858e-09
2.31081e-09
1.14705e-09
5.85228e-10
3.05574e-10
1.6294e-10
8.66184e-11
4.69664e-11
2.53966e-11
1.35818e-11
7.13005e-12
3.65266e-12
1.79094e-12
8.62242e-13
4.12263e-13
2.27234e-13
1.67543e-13
1.80116e-13
2.70159e-13
3.69886e-13
2.58413e-13
1.68343e-13
5.01557e-14
1.71454e-22
4.59325e-22
7.35264e-22
1.11677e-21
1.39652e-21
1.51539e-21
1.71375e-21
1.97639e-21
2.47655e-21
3.26687e-21
4.02607e-21
4.80078e-21
5.5737e-21
6.17568e-21
6.56313e-21
7.22932e-21
8.0003e-21
8.72241e-21
8.90628e-21
9.17965e-21
9.81848e-21
1.1342e-20
1.44147e-20
1.99775e-20
3.60987e-20
8.16283e-20
2.14176e-19
5.98307e-19
1.71886e-18
5.03768e-18
1.45279e-17
4.14814e-17
1.14819e-16
3.21415e-16
8.59763e-16
2.2732e-15
6.10839e-15
1.54463e-14
4.11037e-14
1.05365e-13
2.64345e-13
6.2798e-13
1.47296e-12
3.34595e-12
7.59179e-12
1.68664e-11
3.56077e-11
7.1229e-11
1.35407e-10
2.47478e-10
4.43099e-10
7.90699e-10
1.41659e-09
2.34632e-09
4.05935e-09
6.68892e-09
1.11585e-08
1.9164e-08
3.27135e-08
5.47338e-08
8.80318e-08
1.28864e-07
1.6392e-07
1.49111e-07
9.84241e-08
5.98335e-08
3.63556e-08
2.49977e-08
2.1603e-08
2.30701e-08
2.83478e-08
3.83538e-08
5.10345e-08
5.65137e-08
4.4959e-08
2.21598e-08
1.00979e-08
4.79881e-09
2.35377e-09
1.1671e-09
5.95122e-10
3.10589e-10
1.65556e-10
8.79492e-11
4.76791e-11
2.57798e-11
1.37869e-11
7.23838e-12
3.70889e-12
1.81816e-12
8.75376e-13
4.18199e-13
2.30116e-13
1.69318e-13
1.81662e-13
2.72402e-13
3.73282e-13
2.61719e-13
1.70429e-13
5.07835e-14
1.35964e-22
4.32655e-22
7.70265e-22
1.08629e-21
1.34001e-21
1.67537e-21
1.9953e-21
2.14856e-21
2.4857e-21
2.81622e-21
3.25004e-21
4.16794e-21
4.57468e-21
4.93705e-21
5.71897e-21
6.58141e-21
7.40022e-21
8.50294e-21
9.08589e-21
9.74073e-21
1.03041e-20
1.18938e-20
1.53007e-20
2.17007e-20
3.91505e-20
8.6583e-20
2.26671e-19
6.29858e-19
1.78993e-18
5.25203e-18
1.49882e-17
4.28743e-17
1.20609e-16
3.32184e-16
9.00842e-16
2.41329e-15
6.34193e-15
1.66583e-14
4.31302e-14
1.11895e-13
2.72139e-13
6.39442e-13
1.50385e-12
3.41725e-12
7.7833e-12
1.72281e-11
3.62463e-11
7.22699e-11
1.36962e-10
2.49577e-10
4.45759e-10
7.93389e-10
1.41761e-09
2.342e-09
4.0637e-09
6.68145e-09
1.11114e-08
1.9043e-08
3.24783e-08
5.43114e-08
8.74078e-08
1.28131e-07
1.63583e-07
1.50052e-07
9.94801e-08
6.05821e-08
3.67905e-08
2.51941e-08
2.16509e-08
2.30152e-08
2.81984e-08
3.80967e-08
5.08081e-08
5.65784e-08
4.53773e-08
2.25607e-08
1.02705e-08
4.87668e-09
2.39088e-09
1.18445e-09
6.03681e-10
3.14918e-10
1.6782e-10
8.91006e-11
4.82963e-11
2.61121e-11
1.3965e-11
7.33263e-12
3.75796e-12
1.84198e-12
8.87006e-13
4.23413e-13
2.32606e-13
1.70804e-13
1.82888e-13
2.74175e-13
3.76027e-13
2.64591e-13
1.72234e-13
5.13278e-14
8.54833e-23
4.29045e-22
7.51476e-22
8.50768e-22
1.07354e-21
1.43091e-21
1.94167e-21
2.61338e-21
2.92856e-21
3.18866e-21
3.51848e-21
4.0298e-21
4.51847e-21
5.08231e-21
6.04184e-21
6.77796e-21
7.03564e-21
7.80182e-21
8.65948e-21
1.00672e-20
1.1364e-20
1.31731e-20
1.69036e-20
2.33405e-20
4.17443e-20
9.29952e-20
2.37176e-19
6.55073e-19
1.87346e-18
5.46158e-18
1.56172e-17
4.49685e-17
1.25287e-16
3.44405e-16
9.33268e-16
2.50812e-15
6.62161e-15
1.71624e-14
4.41209e-14
1.12941e-13
2.76269e-13
6.5613e-13
1.50622e-12
3.46185e-12
7.93719e-12
1.75077e-11
3.67332e-11
7.30644e-11
1.38157e-10
2.51213e-10
4.4779e-10
7.95351e-10
1.4182e-09
2.33876e-09
4.06522e-09
6.67313e-09
1.10706e-08
1.89535e-08
3.23072e-08
5.40144e-08
8.69604e-08
1.27563e-07
1.63319e-07
1.509e-07
1.00383e-07
6.12022e-08
3.71441e-08
2.53523e-08
2.16833e-08
2.29691e-08
2.80793e-08
3.78971e-08
5.06313e-08
5.66218e-08
4.57022e-08
2.28821e-08
1.04089e-08
4.93902e-09
2.42057e-09
1.19834e-09
6.10524e-10
3.18371e-10
1.6962e-10
9.00148e-11
4.87867e-11
2.63766e-11
1.41069e-11
7.40798e-12
3.79728e-12
1.86107e-12
8.96309e-13
4.27571e-13
2.34567e-13
1.71924e-13
1.83718e-13
2.75459e-13
3.78094e-13
2.66892e-13
1.73681e-13
5.17648e-14
1.86161e-22
6.31799e-22
1.07173e-21
1.5129e-21
1.65797e-21
1.73028e-21
2.00775e-21
2.53057e-21
2.49882e-21
2.57771e-21
2.89181e-21
3.33931e-21
3.96902e-21
4.5492e-21
5.49226e-21
6.77652e-21
7.81051e-21
8.55905e-21
9.73416e-21
1.07134e-20
1.19508e-20
1.32837e-20
1.65728e-20
2.36248e-20
4.20662e-20
9.35515e-20
2.43903e-19
6.80491e-19
1.97129e-18
5.63925e-18
1.60478e-17
4.52196e-17
1.27926e-16
3.50802e-16
9.61232e-16
2.58386e-15
6.76542e-15
1.72623e-14
4.46567e-14
1.13758e-13
2.7746e-13
6.56204e-13
1.52183e-12
3.5019e-12
8.04658e-12
1.77083e-11
3.70815e-11
7.36319e-11
1.39016e-10
2.52435e-10
4.49251e-10
7.96851e-10
1.41875e-09
2.33665e-09
4.06594e-09
6.66702e-09
1.10426e-08
1.8889e-08
3.21814e-08
5.37949e-08
8.66274e-08
1.27155e-07
1.63115e-07
1.51438e-07
1.0098e-07
6.16197e-08
3.73838e-08
2.54572e-08
2.1704e-08
2.29368e-08
2.79994e-08
3.77558e-08
5.0502e-08
5.66496e-08
4.59288e-08
2.31109e-08
1.05073e-08
4.98329e-09
2.44164e-09
1.20819e-09
6.15386e-10
3.2084e-10
1.70905e-10
9.06665e-11
4.91358e-11
2.65647e-11
1.42079e-11
7.46149e-12
3.82522e-12
1.87466e-12
9.02933e-13
4.30526e-13
2.35957e-13
1.72722e-13
1.84324e-13
2.76337e-13
3.79509e-13
2.68523e-13
1.74704e-13
5.20741e-14
9.31619e-23
2.80379e-22
5.31147e-22
8.87678e-22
1.10072e-21
1.32638e-21
1.65922e-21
2.24611e-21
2.43617e-21
2.71852e-21
3.01213e-21
3.45055e-21
3.97806e-21
4.52647e-21
5.17364e-21
5.83182e-21
6.57284e-21
7.61592e-21
9.09226e-21
1.06745e-20
1.20079e-20
1.31664e-20
1.59593e-20
2.36193e-20
4.2713e-20
9.60858e-20
2.48792e-19
7.00146e-19
2.0002e-18
5.74412e-18
1.63949e-17
4.70415e-17
1.30117e-16
3.56642e-16
9.76215e-16
2.58817e-15
6.84387e-15
1.75123e-14
4.64038e-14
1.17009e-13
2.81074e-13
6.66099e-13
1.52255e-12
3.55729e-12
8.105e-12
1.78295e-11
3.73094e-11
7.40086e-11
1.39581e-10
2.53209e-10
4.50196e-10
7.97826e-10
1.4193e-09
2.33582e-09
4.06711e-09
6.66482e-09
1.10293e-08
1.88574e-08
3.21179e-08
5.36805e-08
8.64472e-08
1.26938e-07
1.63002e-07
1.51707e-07
1.0129e-07
6.18358e-08
3.75076e-08
2.55121e-08
2.17141e-08
2.29183e-08
2.79528e-08
3.76801e-08
5.04331e-08
5.6663e-08
4.60479e-08
2.3233e-08
1.05598e-08
5.00687e-09
2.45285e-09
1.21344e-09
6.17976e-10
3.22155e-10
1.71593e-10
9.1016e-11
4.93235e-11
2.6666e-11
1.42623e-11
7.49041e-12
3.84031e-12
1.88201e-12
9.06509e-13
4.32117e-13
2.36702e-13
1.73153e-13
1.84659e-13
2.76797e-13
3.80249e-13
2.69395e-13
1.75252e-13
5.224e-14
8.80551e-23
4.37948e-22
7.34673e-22
1.0844e-21
1.27754e-21
1.52356e-21
2.01395e-21
2.64756e-21
2.99419e-21
3.23197e-21
3.8467e-21
4.23677e-21
4.66743e-21
4.7037e-21
5.0226e-21
5.80966e-21
6.3318e-21
7.37622e-21
8.13925e-21
9.77869e-21
1.14267e-20
1.29692e-20
1.66476e-20
2.46857e-20
4.31041e-20
9.62446e-20
2.51498e-19
7.06672e-19
2.04795e-18
5.90904e-18
1.68136e-17
4.71265e-17
1.32871e-16
3.68752e-16
9.95134e-16
2.6363e-15
6.96122e-15
1.76169e-14
4.67609e-14
1.1629e-13
2.85237e-13
6.71634e-13
1.55213e-12
3.56275e-12
8.1385e-12
1.7902e-11
3.74413e-11
7.4228e-11
1.3992e-10
2.537e-10
4.50871e-10
7.98647e-10
1.42011e-09
2.33623e-09
4.06968e-09
6.66679e-09
1.10286e-08
1.88523e-08
3.21055e-08
5.36569e-08
8.64091e-08
1.26889e-07
1.62973e-07
1.51758e-07
1.01351e-07
6.18774e-08
3.75305e-08
2.55218e-08
2.17156e-08
2.29149e-08
2.7945e-08
3.76672e-08
5.04216e-08
5.66646e-08
4.60662e-08
2.32521e-08
1.05679e-08
5.01045e-09
2.45452e-09
1.21422e-09
6.18351e-10
3.22342e-10
1.7169e-10
9.10649e-11
4.93496e-11
2.668e-11
1.42698e-11
7.49436e-12
3.84237e-12
1.88299e-12
9.06985e-13
4.3233e-13
2.36801e-13
1.73207e-13
1.84695e-13
2.76872e-13
3.8037e-13
2.69512e-13
1.75324e-13
5.22611e-14
6.64089e-23
3.65475e-22
8.49459e-22
1.24989e-21
1.50702e-21
1.76613e-21
2.11546e-21
2.6262e-21
3.21238e-21
3.40407e-21
3.41872e-21
3.75871e-21
3.99663e-21
4.69076e-21
5.38385e-21
5.98025e-21
6.84491e-21
7.55464e-21
8.28486e-21
9.48773e-21
1.12601e-20
1.32206e-20
1.67417e-20
2.44408e-20
4.38265e-20
9.7193e-20
2.51393e-19
7.21852e-19
2.06186e-18
5.93103e-18
1.69809e-17
4.79476e-17
1.34694e-16
3.69269e-16
1.00513e-15
2.65766e-15
7.00855e-15
1.78281e-14
4.70252e-14
1.16978e-13
2.86658e-13
6.66434e-13
1.5696e-12
3.57171e-12
8.13737e-12
1.79286e-11
3.74894e-11
7.43117e-11
1.40065e-10
2.53949e-10
4.51307e-10
7.99418e-10
1.42148e-09
2.33847e-09
4.07469e-09
6.67519e-09
1.10461e-08
1.88844e-08
3.21618e-08
5.37505e-08
8.65482e-08
1.27054e-07
1.63051e-07
1.5154e-07
1.01108e-07
6.17092e-08
3.74336e-08
2.54786e-08
2.17063e-08
2.29268e-08
2.79778e-08
3.77216e-08
5.0471e-08
5.66534e-08
4.59775e-08
2.31619e-08
1.0529e-08
4.99294e-09
2.44617e-09
1.21031e-09
6.16421e-10
3.21363e-10
1.71177e-10
9.08048e-11
4.92099e-11
2.66045e-11
1.42292e-11
7.47275e-12
3.83104e-12
1.87748e-12
9.04291e-13
4.31132e-13
2.36249e-13
1.72905e-13
1.8449e-13
2.76557e-13
3.79837e-13
2.68837e-13
1.74901e-13
5.21332e-14
8.15342e-23
2.40002e-22
4.83297e-22
7.74288e-22
1.21131e-21
1.56336e-21
1.71298e-21
2.23156e-21
2.80936e-21
3.03453e-21
3.30414e-21
3.63126e-21
3.9696e-21
4.79188e-21
5.33757e-21
6.42931e-21
7.28521e-21
7.29589e-21
7.72671e-21
8.94413e-21
1.07663e-20
1.32292e-20
1.6651e-20
2.43253e-20
4.26009e-20
9.55458e-20
2.49356e-19
7.08256e-19
2.02716e-18
5.8338e-18
1.66333e-17
4.68308e-17
1.33982e-16
3.64471e-16
9.64429e-16
2.58611e-15
6.85395e-15
1.72609e-14
4.52799e-14
1.17784e-13
2.79402e-13
6.71821e-13
1.5317e-12
3.57932e-12
8.13177e-12
1.78978e-11
3.74367e-11
7.42384e-11
1.39986e-10
2.53916e-10
4.51452e-10
8.00044e-10
1.42324e-09
2.3424e-09
4.0822e-09
6.69014e-09
1.10818e-08
1.8953e-08
3.22841e-08
5.39549e-08
8.68548e-08
1.2742e-07
1.63224e-07
1.51059e-07
1.00577e-07
6.13423e-08
3.72244e-08
2.53857e-08
2.1687e-08
2.29529e-08
2.80459e-08
3.78394e-08
5.0577e-08
5.66284e-08
4.57847e-08
2.29675e-08
1.04453e-08
4.95524e-09
2.42822e-09
1.20191e-09
6.12273e-10
3.19261e-10
1.70079e-10
9.02478e-11
4.89109e-11
2.64431e-11
1.41424e-11
7.42659e-12
3.80688e-12
1.86572e-12
8.98547e-13
4.28582e-13
2.35066e-13
1.72258e-13
1.84062e-13
2.75886e-13
3.78701e-13
2.67414e-13
1.74007e-13
5.18622e-14
2.32016e-22
4.61057e-22
6.24327e-22
9.06737e-22
1.18259e-21
1.42406e-21
1.72573e-21
2.1619e-21
2.60616e-21
2.97552e-21
3.46263e-21
3.73187e-21
4.23341e-21
4.88746e-21
5.77928e-21
6.79951e-21
7.54416e-21
8.55302e-21
9.21507e-21
1.01608e-20
1.10141e-20
1.24288e-20
1.54318e-20
2.26261e-20
4.27651e-20
9.69007e-20
2.48974e-19
6.93001e-19
2.00673e-18
5.76545e-18
1.64788e-17
4.63923e-17
1.30683e-16
3.58352e-16
9.73014e-16
2.60196e-15
6.80517e-15
1.72596e-14
4.54309e-14
1.16696e-13
2.81137e-13
6.58929e-13
1.52241e-12
3.57407e-12
8.08882e-12
1.78101e-11
3.72925e-11
7.40241e-11
1.39712e-10
2.53645e-10
4.51388e-10
8.00685e-10
1.42572e-09
2.34846e-09
4.09298e-09
6.7129e-09
1.11382e-08
1.90633e-08
3.2483e-08
5.42886e-08
8.73512e-08
1.2801e-07
1.63493e-07
1.50283e-07
9.97377e-08
6.07669e-08
3.68976e-08
2.52417e-08
2.1657e-08
2.29936e-08
2.81518e-08
3.80203e-08
5.07404e-08
5.65875e-08
4.54898e-08
2.26757e-08
1.03198e-08
4.89871e-09
2.4013e-09
1.18931e-09
6.06055e-10
3.16099e-10
1.6843e-10
8.94113e-11
4.84621e-11
2.62009e-11
1.40122e-11
7.35744e-12
3.77073e-12
1.84814e-12
8.89966e-13
4.24762e-13
2.33286e-13
1.71257e-13
1.8333e-13
2.74839e-13
3.76973e-13
2.65299e-13
1.72677e-13
5.14591e-14
1.10787e-22
3.78724e-22
6.62158e-22
8.51891e-22
9.63279e-22
1.15588e-21
1.48889e-21
1.93617e-21
2.28261e-21
2.69135e-21
3.35556e-21
3.91742e-21
4.76705e-21
5.65322e-21
6.30453e-21
7.03124e-21
7.85048e-21
8.94049e-21
9.74312e-21
1.04874e-20
1.1651e-20
1.27116e-20
1.57941e-20
2.32788e-20
4.23003e-20
9.36931e-20
2.42367e-19
6.73316e-19
1.94673e-18
5.63965e-18
1.58364e-17
4.60196e-17
1.276e-16
3.50875e-16
9.54977e-16
2.54256e-15
6.70237e-15
1.71407e-14
4.40531e-14
1.12179e-13
2.77855e-13
6.53418e-13
1.49748e-12
3.52657e-12
8.0237e-12
1.76771e-11
3.70553e-11
7.36444e-11
1.39181e-10
2.53044e-10
4.50978e-10
8.01152e-10
1.4287e-09
2.35655e-09
4.10636e-09
6.74172e-09
1.12113e-08
1.9208e-08
3.27457e-08
5.4731e-08
8.80112e-08
1.28793e-07
1.63829e-07
1.49204e-07
9.86153e-08
6.0004e-08
3.64656e-08
2.5049e-08
2.16139e-08
2.30447e-08
2.82882e-08
3.82544e-08
5.09462e-08
5.65315e-08
4.51063e-08
2.23036e-08
1.01594e-08
4.82637e-09
2.3668e-09
1.17317e-09
5.98058e-10
3.12058e-10
1.66322e-10
8.83412e-11
4.78878e-11
2.58913e-11
1.38459e-11
7.26909e-12
3.72454e-12
1.82569e-12
8.79015e-13
4.19879e-13
2.31004e-13
1.69958e-13
1.82366e-13
2.73442e-13
3.74695e-13
2.62591e-13
1.70971e-13
5.09423e-14
1.16838e-22
3.29341e-22
6.98655e-22
8.90717e-22
1.12143e-21
1.49252e-21
2.07851e-21
2.1996e-21
2.47718e-21
2.85058e-21
3.42712e-21
4.14412e-21
4.83161e-21
5.3298e-21
5.54204e-21
6.24495e-21
7.35443e-21
8.28846e-21
9.20986e-21
1.01898e-20
1.12801e-20
1.37207e-20
1.67636e-20
2.46177e-20
4.26963e-20
9.25721e-20
2.36799e-19
6.51481e-19
1.87968e-18
5.38077e-18
1.53162e-17
4.39271e-17
1.22973e-16
3.39008e-16
9.01801e-16
2.45019e-15
6.44373e-15
1.65702e-14
4.31611e-14
1.11761e-13
2.68315e-13
6.537e-13
1.49993e-12
3.46766e-12
7.89615e-12
1.74631e-11
3.67017e-11
7.30851e-11
1.38395e-10
2.52067e-10
4.50113e-10
8.01262e-10
1.43195e-09
2.36618e-09
4.11939e-09
6.77511e-09
1.12979e-08
1.93798e-08
3.30572e-08
5.52523e-08
8.87794e-08
1.29682e-07
1.64159e-07
1.47946e-07
9.73012e-08
5.9095e-08