/*--------------------------------*- C++ -*----------------------------------*\
  =========                 |
  \\      /  F ield         | OpenFOAM: The Open Source CFD Toolbox
   \\    /   O peration     | Website:  https://openfoam.org
    \\  /    A nd           | Version:  10
     \\/     M anipulation  |
\*---------------------------------------------------------------------------*/
FoamFile
{
    format      ascii;
    class       volScalarField;
    location    "1";
    object      PXC8H17;
}
// * * * * * * * * * * * * * * * * * * * * * * * * * * * * * * * * * * * * * //

dimensions      [0 0 0 0 0 0 0];

internalField   nonuniform List<scalar> 
4000
(
5.66175e-23
1.29913e-22
1.87964e-22
2.71991e-22
3.94764e-22
5.34493e-22
6.9303e-22
8.66727e-22
1.08265e-21
1.39593e-21
1.8494e-21
2.26723e-21
2.68962e-21
3.09631e-21
3.53522e-21
3.99495e-21
4.43781e-21
4.86601e-21
5.41745e-21
5.99462e-21
6.53703e-21
7.25142e-21
8.23697e-21
9.46542e-21
1.18545e-20
1.62891e-20
2.73409e-20
5.81873e-20
1.47102e-19
4.13674e-19
1.21465e-18
3.61747e-18
1.07262e-17
3.15984e-17
9.24222e-17
2.603e-16
7.4116e-16
2.12857e-15
5.92964e-15
1.62325e-14
4.25303e-14
1.08149e-13
2.65501e-13
6.27201e-13
1.42002e-12
3.25322e-12
7.3347e-12
1.57234e-11
3.15899e-11
5.92275e-11
1.05025e-10
1.82895e-10
3.03585e-10
5.43401e-10
1.00152e-09
1.85905e-09
3.39226e-09
6.34437e-09
1.18823e-08
2.20318e-08
3.95595e-08
6.40139e-08
8.42797e-08
6.63977e-08
4.13224e-08
2.50378e-08
1.5981e-08
1.26104e-08
1.28622e-08
1.5576e-08
2.07137e-08
2.83071e-08
3.47354e-08
3.30077e-08
2.14412e-08
9.71875e-09
4.46967e-09
2.13617e-09
1.05072e-09
5.26788e-10
2.70631e-10
1.42188e-10
7.61487e-11
4.13811e-11
2.26681e-11
1.2413e-11
6.74033e-12
3.6021e-12
1.88145e-12
9.55012e-13
4.7062e-13
2.21912e-13
1.12219e-13
7.22445e-14
7.05162e-14
1.05435e-13
1.64028e-13
1.96404e-13
1.54492e-13
4.85958e-14
3.62225e-23
3.53334e-22
6.00474e-22
1.05817e-21
1.46634e-21
1.72576e-21
1.96154e-21
2.21754e-21
2.6001e-21
3.09018e-21
3.44733e-21
3.78418e-21
4.18405e-21
4.48521e-21
4.83379e-21
5.24721e-21
5.63323e-21
6.03085e-21
6.42802e-21
7.05885e-21
7.701e-21
8.35895e-21
9.5634e-21
1.08389e-20
1.36614e-20
1.82371e-20
3.02401e-20
6.69453e-20
1.76577e-19
5.09701e-19
1.51682e-18
4.76037e-18
1.42657e-17
4.19125e-17
1.22032e-16
3.49228e-16
1.0082e-15
2.81021e-15
7.7625e-15
2.07849e-14
5.44429e-14
1.36652e-13
3.34668e-13
7.85369e-13
1.83029e-12
4.2358e-12
9.3793e-12
1.95559e-11
3.82667e-11
7.05657e-11
1.18544e-10
1.92126e-10
3.32738e-10
5.88906e-10
1.07622e-09
1.9973e-09
3.55781e-09
6.53846e-09
1.20965e-08
2.21824e-08
3.96062e-08
6.38712e-08
8.41207e-08
6.70811e-08
4.20496e-08
2.56361e-08
1.63251e-08
1.26992e-08
1.27958e-08
1.53948e-08
2.04214e-08
2.7983e-08
3.46619e-08
3.33908e-08
2.19692e-08
9.97436e-09
4.57713e-09
2.18298e-09
1.0718e-09
5.3647e-10
2.75084e-10
1.44331e-10
7.72107e-11
4.1887e-11
2.28944e-11
1.25062e-11
6.77236e-12
3.60812e-12
1.87799e-12
9.49469e-13
4.6597e-13
2.19301e-13
1.11627e-13
7.33143e-14
7.34091e-14
1.1154e-13
1.7035e-13
1.91261e-13
1.53257e-13
4.7827e-14
3.11058e-22
6.91812e-22
1.22385e-21
1.71307e-21
2.51406e-21
2.8393e-21
3.10778e-21
3.48218e-21
3.99695e-21
4.24299e-21
4.63684e-21
4.85249e-21
5.06968e-21
5.36452e-21
5.49638e-21
5.77814e-21
6.08105e-21
6.65462e-21
7.38606e-21
7.9054e-21
8.59578e-21
9.59151e-21
1.08676e-20
1.26423e-20
1.56017e-20
2.1725e-20
3.64554e-20
8.22002e-20
2.22569e-19
6.51912e-19
2.01412e-18
6.06862e-18
1.79352e-17
5.3431e-17
1.57557e-16
4.52398e-16
1.27081e-15
3.52469e-15
9.62841e-15
2.54403e-14
6.58391e-14
1.59288e-13
4.02514e-13
9.26768e-13
2.20483e-12
4.97019e-12
1.09444e-11
2.24813e-11
4.25034e-11
7.67791e-11
1.28023e-10
2.08678e-10
3.61977e-10
6.50766e-10
1.16401e-09
2.06865e-09
3.63788e-09
6.64242e-09
1.22243e-08
2.23309e-08
3.97098e-08
6.38567e-08
8.40096e-08
6.76271e-08
4.26457e-08
2.61568e-08
1.66495e-08
1.28206e-08
1.27584e-08
1.52489e-08
2.01825e-08
2.76807e-08
3.45913e-08
3.37778e-08
2.25528e-08
1.02634e-08
4.69864e-09
2.23607e-09
1.09585e-09
5.47714e-10
2.80657e-10
1.47076e-10
7.85557e-11
4.24918e-11
2.3161e-11
1.26142e-11
6.80831e-12
3.61386e-12
1.87299e-12
9.41274e-13
4.59317e-13
2.1582e-13
1.10973e-13
7.47977e-14
7.72023e-14
1.19047e-13
1.77888e-13
1.85858e-13
1.51411e-13
4.69179e-14
1.8203e-22
5.28981e-22
1.05686e-21
1.50439e-21
1.99176e-21
2.33122e-21
2.5266e-21
2.57033e-21
2.8796e-21
3.46409e-21
4.04873e-21
4.488e-21
5.0202e-21
5.54855e-21
5.8913e-21
6.2561e-21
6.80002e-21
7.31597e-21
7.99503e-21
8.55616e-21
9.5275e-21
1.10421e-20
1.29193e-20
1.43604e-20
1.73426e-20
2.44876e-20
4.36038e-20
1.02292e-19
2.77145e-19
8.53051e-19
2.56274e-18
7.73227e-18
2.30245e-17
6.81501e-17
1.99291e-16
5.68611e-16
1.58624e-15
4.39304e-15
1.17269e-14
3.14439e-14
8.0543e-14
1.98005e-13
4.84938e-13
1.11328e-12
2.53683e-12
5.78874e-12
1.25153e-11
2.50249e-11
4.76193e-11
8.10481e-11
1.33026e-10
2.28658e-10
3.99881e-10
7.05609e-10
1.24818e-09
2.10782e-09
3.70725e-09
6.73648e-09
1.23372e-08
2.24187e-08
3.97313e-08
6.37436e-08
8.38809e-08
6.81002e-08
4.31616e-08
2.66212e-08
1.69629e-08
1.29377e-08
1.27364e-08
1.51276e-08
1.99535e-08
2.73894e-08
3.45136e-08
3.41032e-08
2.3131e-08
1.04384e-08
4.78333e-09
2.27785e-09
1.11677e-09
5.58222e-10
2.85942e-10
1.49839e-10
8.02043e-11
4.27531e-11
2.33061e-11
1.26816e-11
6.83294e-12
3.61959e-12
1.87483e-12
9.27344e-13
4.5109e-13
2.1236e-13
1.10578e-13
7.66315e-14
8.16656e-14
1.27071e-13
1.86189e-13
1.80718e-13
1.49245e-13
4.59592e-14
1.89333e-22
3.99281e-22
5.81234e-22
9.05403e-22
1.18713e-21
1.37759e-21
1.73339e-21
2.01601e-21
2.51891e-21
3.06172e-21
3.43671e-21
3.94301e-21
4.56934e-21
5.2558e-21
5.91807e-21
6.6942e-21
7.35766e-21
8.07036e-21
8.94982e-21
9.62667e-21
1.05862e-20
1.21193e-20
1.33676e-20
1.47744e-20
1.80022e-20
2.59178e-20
5.10944e-20
1.28023e-19
3.62783e-19
1.08301e-18
3.26739e-18
1.00361e-17
2.96386e-17
8.71041e-17
2.50908e-16
7.10466e-16
1.96601e-15
5.28444e-15
1.43703e-14
3.762e-14
9.53279e-14
2.34075e-13
5.53094e-13
1.29548e-12
2.92073e-12
6.58058e-12
1.38654e-11
2.79228e-11
4.99246e-11
8.34591e-11
1.42882e-10
2.43999e-10
4.28521e-10
7.66476e-10
1.27813e-09
2.15515e-09
3.77933e-09
6.82317e-09
1.24311e-08
2.25244e-08
3.98081e-08
6.3746e-08
8.38196e-08
6.84413e-08
4.3579e-08
2.70491e-08
1.72326e-08
1.30455e-08
1.27338e-08
1.50501e-08
1.98037e-08
2.72025e-08
3.44728e-08
3.43904e-08
2.35819e-08
1.06603e-08
4.87722e-09
2.32057e-09
1.13662e-09
5.6758e-10
2.90562e-10
1.52187e-10
8.14094e-11
4.33612e-11
2.3592e-11
1.28095e-11
6.88472e-12
3.63639e-12
1.87687e-12
9.25225e-13
4.48188e-13
2.11196e-13
1.11147e-13
7.88476e-14
8.63438e-14
1.35071e-13
1.949e-13
1.77638e-13
1.46774e-13
4.50418e-14
8.85281e-23
2.80127e-22
6.21058e-22
1.03582e-21
1.35594e-21
1.66916e-21
1.92463e-21
2.30741e-21
2.44837e-21
2.67025e-21
3.06998e-21
3.75245e-21
4.4797e-21
5.02058e-21
5.82977e-21
6.63642e-21
7.33053e-21
8.25656e-21
8.94527e-21
1.01545e-20
1.178e-20
1.28099e-20
1.4207e-20
1.57345e-20
1.93478e-20
2.96258e-20
6.23395e-20
1.61611e-19
4.7112e-19
1.39246e-18
4.12086e-18
1.27596e-17
3.71696e-17
1.07401e-16
3.02668e-16
8.60508e-16
2.33914e-15
6.17402e-15
1.69979e-14
4.54433e-14
1.12354e-13
2.69831e-13
6.37962e-13
1.47031e-12
3.33712e-12
7.28886e-12
1.5593e-11
2.92971e-11
5.16385e-11
8.91267e-11
1.51791e-10
2.59429e-10
4.49573e-10
7.97177e-10
1.32212e-09
2.20918e-09
3.83407e-09
6.8955e-09
1.24986e-08
2.25734e-08
3.98079e-08
6.36687e-08
8.37575e-08
6.88033e-08
4.39431e-08
2.73445e-08
1.74388e-08
1.31442e-08
1.27404e-08
1.49947e-08
1.96916e-08
2.70477e-08
3.44251e-08
3.45783e-08
2.38899e-08
1.08273e-08
4.95101e-09
2.35414e-09
1.15254e-09
5.75453e-10
2.94513e-10
1.54223e-10
8.2452e-11
4.3931e-11
2.38798e-11
1.29485e-11
6.94713e-12
3.66114e-12
1.88426e-12
9.27096e-13
4.47715e-13
2.11366e-13
1.12239e-13
8.11122e-14
9.07472e-14
1.42389e-13
2.03298e-13
1.76853e-13
1.46412e-13
4.47532e-14
8.98708e-23
2.91043e-22
4.45688e-22
7.00907e-22
8.64451e-22
1.11818e-21
1.41493e-21
1.82978e-21
2.38896e-21
2.95655e-21
3.65491e-21
4.25868e-21
4.82177e-21
5.3478e-21
5.81575e-21
6.46316e-21
7.11641e-21
8.00996e-21
8.78784e-21
9.65225e-21
1.08131e-20
1.23321e-20
1.32851e-20
1.56479e-20
2.16997e-20
3.58924e-20
7.73245e-20
1.9856e-19
5.89862e-19
1.75745e-18
5.20817e-18
1.53495e-17
4.50223e-17
1.29855e-16
3.64839e-16
1.02501e-15
2.8389e-15
7.42031e-15
2.02961e-14
5.21746e-14
1.2916e-13
3.11448e-13
7.24457e-13
1.65448e-12
3.67405e-12
8.07135e-12
1.65987e-11
2.99303e-11
5.45117e-11
9.43736e-11
1.59063e-10
2.69574e-10
4.64344e-10
8.18102e-10
1.35043e-09
2.24806e-09
3.87616e-09
6.93786e-09
1.25364e-08
2.25847e-08
3.97574e-08
6.35439e-08
8.3694e-08
6.91775e-08
4.43096e-08
2.76368e-08
1.76215e-08
1.32276e-08
1.27432e-08
1.49431e-08
1.95866e-08
2.69036e-08
3.43757e-08
3.47533e-08
2.41932e-08
1.09901e-08
5.02431e-09
2.38791e-09
1.16872e-09
5.83325e-10
2.98484e-10
1.56268e-10
8.35134e-11
4.45109e-11
2.41798e-11
1.30993e-11
7.01945e-12
3.69337e-12
1.89692e-12
9.32178e-13
4.49185e-13
2.12459e-13
1.1362e-13
8.32822e-14
9.47153e-14
1.48801e-13
2.1086e-13
1.77422e-13
1.46826e-13
4.47594e-14
9.72282e-23
2.53825e-22
5.09833e-22
9.06869e-22
1.21954e-21
1.58859e-21
1.94814e-21
2.39085e-21
2.75789e-21
3.27081e-21
3.74827e-21
4.55451e-21
5.39838e-21
6.12708e-21
6.5746e-21
7.3666e-21
8.36233e-21
9.15135e-21
9.9174e-21
1.08816e-20
1.15793e-20
1.27835e-20
1.42916e-20
1.6964e-20
2.40218e-20
4.23021e-20
9.52178e-20
2.51967e-19
7.14735e-19
2.09544e-18
6.27921e-18
1.87077e-17
5.42283e-17
1.54576e-16
4.28951e-16
1.19104e-15
3.27012e-15
8.46505e-15
2.27709e-14
5.92558e-14
1.45856e-13
3.46436e-13
8.1349e-13
1.83353e-12
4.07014e-12
8.7983e-12
1.71183e-11
3.18104e-11
5.75845e-11
9.90149e-11
1.66857e-10
2.80427e-10
4.79227e-10
8.3801e-10
1.37546e-09
2.27712e-09
3.90544e-09
6.96097e-09
1.25376e-08
2.25355e-08
3.96183e-08
6.33239e-08
8.36055e-08
6.95968e-08
4.47058e-08
2.79946e-08
1.78258e-08
1.3314e-08
1.27443e-08
1.48874e-08
1.94738e-08
2.67481e-08
3.43085e-08
3.49262e-08
2.452e-08
1.11726e-08
5.10388e-09
2.42452e-09
1.18631e-09
5.91775e-10
3.02744e-10
1.58465e-10
8.4662e-11
4.51307e-11
2.45057e-11
1.32676e-11
7.10374e-12
3.73366e-12
1.9149e-12
9.40248e-13
4.52402e-13
2.14286e-13
1.15181e-13
8.52719e-14
9.80929e-14
1.54244e-13
2.17507e-13
1.78845e-13
1.47792e-13
4.49712e-14
1.43219e-22
4.35759e-22
8.12419e-22
1.32932e-21
1.55972e-21
1.83609e-21
2.11383e-21
2.50361e-21
2.86448e-21
3.29073e-21
3.56018e-21
4.06116e-21
4.70025e-21
5.39025e-21
6.26063e-21
7.00009e-21
7.69174e-21
8.57264e-21
9.51871e-21
1.01246e-20
1.09816e-20
1.20638e-20
1.38405e-20
1.74943e-20
2.55048e-20
4.74174e-20
1.11798e-19
3.05277e-19
8.79287e-19
2.55705e-18
7.49772e-18
2.20378e-17
6.34152e-17
1.80129e-16
5.03137e-16
1.37716e-15
3.72242e-15
9.55044e-15
2.55206e-14
6.54948e-14
1.61565e-13
3.8567e-13
8.94993e-13
2.02728e-12
4.30256e-12
8.72064e-12
1.78186e-11
3.39093e-11
6.06792e-11
1.04064e-10
1.73444e-10
2.89244e-10
4.91185e-10
8.53644e-10
1.39312e-09
2.29628e-09
3.9208e-09
6.96162e-09
1.25007e-08
2.24243e-08
3.93739e-08
6.2931e-08
8.3472e-08
7.02967e-08
4.52953e-08
2.83811e-08
1.80767e-08
1.34079e-08
1.27386e-08
1.48119e-08
1.93162e-08
2.65336e-08
3.42055e-08
3.50976e-08
2.48736e-08
1.13767e-08
5.19274e-09
2.46533e-09
1.20609e-09
6.01209e-10
3.07494e-10
1.60911e-10
8.59438e-11
4.58107e-11
2.4866e-11
1.34567e-11
7.20088e-12
3.78201e-12
1.93792e-12
9.50998e-13
4.57134e-13
2.16726e-13
1.16877e-13
8.71073e-14
1.01002e-13
1.58816e-13
2.23226e-13
1.80814e-13
1.49179e-13
4.5339e-14
1.36005e-22
4.38483e-22
7.39332e-22
1.04294e-21
1.31137e-21
1.65125e-21
2.09407e-21
2.62645e-21
3.09912e-21
3.49646e-21
3.90178e-21
4.69169e-21
5.61473e-21
6.26846e-21
7.20025e-21
8.06925e-21
8.88041e-21
9.3062e-21
1.05664e-20
1.15771e-20
1.23555e-20
1.31408e-20
1.48857e-20
1.85847e-20
2.86015e-20
5.40602e-20
1.29668e-19
3.55856e-19
1.04187e-18
3.06654e-18
8.95208e-18
2.57544e-17
7.31564e-17
2.05597e-16
5.66748e-16
1.53518e-15
4.08579e-15
1.05309e-14
2.84551e-14
7.17978e-14
1.73868e-13
4.13412e-13
9.54132e-13
2.09242e-12
4.38822e-12
9.41258e-12
1.89328e-11
3.57262e-11
6.3823e-11
1.08346e-10
1.79403e-10
2.9765e-10
5.02351e-10
8.63654e-10
1.40451e-09
2.30928e-09
3.92532e-09
6.9455e-09
1.24404e-08
2.22827e-08
3.91049e-08
6.25451e-08
8.33086e-08
7.09986e-08
4.59063e-08
2.88525e-08
1.83476e-08
1.3508e-08
1.27283e-08
1.47172e-08
1.91154e-08
2.6316e-08
3.40892e-08
3.52686e-08
2.52876e-08
1.16301e-08
5.30381e-09
2.51593e-09
1.22986e-09
6.12219e-10
3.1293e-10
1.6367e-10
8.73783e-11
4.6556e-11
2.52589e-11
1.36646e-11
7.30936e-12
3.83727e-12
1.9652e-12
9.63953e-13
4.63092e-13
2.19639e-13
1.18646e-13
8.87425e-14
1.03352e-13
1.62545e-13
2.28076e-13
1.83116e-13
1.5087e-13
4.58199e-14
1.3193e-22
4.37422e-22
7.94863e-22
1.04373e-21
1.28256e-21
1.54309e-21
1.79803e-21
2.02934e-21
2.44293e-21
2.89839e-21
3.57114e-21
4.18682e-21
4.98062e-21
5.82658e-21
6.40894e-21
6.89151e-21
7.31709e-21
7.82169e-21
8.95525e-21
1.08039e-20
1.19506e-20
1.33206e-20
1.52996e-20
1.99259e-20
3.14265e-20
6.14998e-20
1.47915e-19
4.05079e-19
1.18324e-18
3.47863e-18
1.01358e-17
2.91073e-17
8.21548e-17
2.31275e-16
6.31828e-16
1.70262e-15
4.51206e-15
1.16167e-14
3.10507e-14
7.73606e-14
1.86204e-13
4.36199e-13
9.85565e-13
2.14548e-12
4.7244e-12
1.00068e-11
2.00142e-11
3.76888e-11
6.67072e-11
1.12668e-10
1.86241e-10
3.09258e-10
5.25647e-10
8.64902e-10
1.41155e-09
2.31587e-09
3.91944e-09
6.91118e-09
1.23457e-08
2.20497e-08
3.86611e-08
6.19295e-08
8.30925e-08
7.17156e-08
4.65237e-08
2.93027e-08
1.86161e-08
1.36222e-08
1.27288e-08
1.46449e-08
1.89651e-08
2.61005e-08
3.39535e-08
3.54374e-08
2.56948e-08
1.18782e-08
5.41194e-09
2.56468e-09
1.25329e-09
6.23211e-10
3.18418e-10
1.66479e-10
8.88527e-11
4.73227e-11
2.56719e-11
1.38834e-11
7.42428e-12
3.89663e-12
1.99528e-12
9.78414e-13
4.69914e-13
2.22874e-13
1.20448e-13
9.02156e-14
1.05269e-13
1.65611e-13
2.32208e-13
1.8561e-13
1.52757e-13
4.63762e-14
7.92207e-23
2.47953e-22
5.77113e-22
8.51792e-22
1.03417e-21
1.35119e-21
1.72167e-21
2.25177e-21
2.57989e-21
3.11425e-21
3.76322e-21
4.45348e-21
5.15965e-21
5.77802e-21
6.29255e-21
6.85969e-21
7.43313e-21
8.20845e-21
8.9314e-21
9.78079e-21
1.10296e-20
1.28682e-20
1.57783e-20
2.10351e-20
3.40507e-20
6.79669e-20
1.6435e-19
4.469e-19
1.31218e-18
3.81911e-18
1.08602e-17
3.2056e-17
9.09497e-17
2.51275e-16
7.0499e-16
1.87727e-15
4.89661e-15
1.257e-14
3.27525e-14
8.31529e-14
1.98209e-13
4.60932e-13
1.03685e-12
2.2832e-12
5.00738e-12
1.05412e-11
2.09709e-11
3.92641e-11
6.9119e-11
1.16205e-10
1.91511e-10
3.17425e-10
5.37537e-10
8.63175e-10
1.41708e-09
2.31844e-09
3.9062e-09
6.86907e-09
1.22409e-08
2.1861e-08
3.83047e-08
6.14391e-08
8.28636e-08
7.24783e-08
4.71664e-08
2.97582e-08
1.88795e-08
1.37348e-08
1.27327e-08
1.45802e-08
1.87974e-08
2.58582e-08
3.37972e-08
3.55803e-08
2.60892e-08
1.21403e-08
5.52427e-09
2.61639e-09
1.27801e-09
6.34755e-10
3.24109e-10
1.69368e-10
9.03659e-11
4.81069e-11
2.60956e-11
1.41136e-11
7.54783e-12
3.96154e-12
2.0282e-12
9.94176e-13
4.77419e-13
2.26397e-13
1.22304e-13
9.15685e-14
1.06849e-13
1.68138e-13
2.35736e-13
1.88176e-13
1.54742e-13
4.69745e-14
6.41863e-23
1.97743e-22
5.3793e-22
7.63634e-22
1.13462e-21
1.5893e-21
2.25855e-21
2.79331e-21
3.16463e-21
3.70252e-21
4.29217e-21
4.82946e-21
5.46757e-21
6.09006e-21
6.62975e-21
7.50936e-21
7.98264e-21
8.27409e-21
9.28832e-21
1.04836e-20
1.24127e-20
1.39205e-20
1.66449e-20
2.1648e-20
3.55842e-20
7.23781e-20
1.78071e-19
4.89023e-19
1.41106e-18
4.22127e-18
1.20947e-17
3.51166e-17
9.89239e-17
2.77277e-16
7.54054e-16
2.00426e-15
5.20013e-15
1.32959e-14
3.45486e-14
8.80885e-14
2.10535e-13
4.90713e-13
1.09327e-12
2.44323e-12
5.25006e-12
1.10154e-11
2.18543e-11
4.06055e-11
7.10035e-11
1.18694e-10
1.94612e-10
3.20999e-10
5.40506e-10
8.61414e-10
1.42473e-09
2.32008e-09
3.88969e-09
6.81598e-09
1.21257e-08
2.16301e-08
3.79442e-08
6.09258e-08
8.2618e-08
7.32145e-08
4.78131e-08
3.02222e-08
1.91488e-08
1.38484e-08
1.27329e-08
1.45046e-08
1.86456e-08
2.56391e-08
3.36434e-08
3.57126e-08
2.65009e-08
1.24214e-08
5.64656e-09
2.67105e-09
1.30369e-09
6.46646e-10
3.30072e-10
1.72429e-10
9.19734e-11
4.8923e-11
2.6533e-11
1.4349e-11
7.67368e-12
4.02794e-12
2.06273e-12
1.01095e-12
4.85525e-13
2.30066e-13
1.2413e-13
9.27981e-14
1.08171e-13
1.70313e-13
2.38914e-13
1.90896e-13
1.56885e-13
4.76265e-14
9.61582e-23
3.35047e-22
4.76766e-22
7.20754e-22
9.99144e-22
1.35487e-21
1.95639e-21
2.32468e-21
2.69982e-21
3.24765e-21
3.73532e-21
4.51969e-21
5.37452e-21
6.3713e-21
7.38834e-21
7.97383e-21
8.32986e-21
8.54934e-21
9.35289e-21
9.99156e-21
1.21398e-20
1.33156e-20
1.49161e-20
1.93694e-20
3.28504e-20
7.16041e-20
1.89102e-19
5.29649e-19
1.53632e-18
4.47535e-18
1.28307e-17
3.7638e-17
1.04408e-16
2.93595e-16
7.93762e-16
2.1122e-15
5.49699e-15
1.37995e-14
3.64311e-14
9.3007e-14
2.1957e-13
5.08102e-13
1.14706e-12
2.56711e-12
5.4674e-12
1.1445e-11
2.25338e-11
4.1617e-11
7.24039e-11
1.20497e-10
1.96739e-10
3.23409e-10
5.41838e-10
8.59368e-10
1.42946e-09
2.31966e-09
3.87301e-09
6.77042e-09
1.20252e-08
2.14098e-08
3.75236e-08
6.03456e-08
8.23529e-08
7.39062e-08
4.84291e-08
3.06635e-08
1.94158e-08
1.39536e-08
1.2735e-08
1.44333e-08
1.85027e-08
2.54191e-08
3.34834e-08
3.58207e-08
2.68688e-08
1.26976e-08
5.76564e-09
2.7245e-09
1.32936e-09
6.58666e-10
3.36004e-10
1.75441e-10
9.35491e-11
4.97301e-11
2.69645e-11
1.45806e-11
7.79739e-12
4.09316e-12
2.09652e-12
1.0273e-12
4.9342e-13
2.33681e-13
1.25907e-13
9.39153e-14
1.09226e-13
1.72086e-13
2.41601e-13
1.93491e-13
1.58942e-13
4.82588e-14
1.34133e-22
3.61653e-22
6.29884e-22
1.00077e-21
1.26481e-21
1.46514e-21
1.71019e-21
1.99741e-21
2.47139e-21
3.25908e-21
4.02401e-21
4.94386e-21
5.82019e-21
6.73846e-21
7.37703e-21
7.86538e-21
8.26672e-21
8.8477e-21
9.13766e-21
9.61539e-21
1.02486e-20
1.13522e-20
1.37819e-20
1.90678e-20
3.36004e-20
7.52018e-20
1.97953e-19
5.56768e-19
1.61422e-18
4.76575e-18
1.38192e-17
3.96132e-17
1.09892e-16
3.07684e-16
8.21291e-16
2.16128e-15
5.7624e-15
1.44119e-14
3.77531e-14
9.48628e-14
2.31992e-13
5.34516e-13
1.20783e-12
2.62556e-12
5.64389e-12
1.17559e-11
2.30468e-11
4.23925e-11
7.349e-11
1.21937e-10
1.98522e-10
3.2503e-10
5.42503e-10
8.57459e-10
1.43134e-09
2.31606e-09
3.85175e-09
6.71983e-09
1.19131e-08
2.12069e-08
3.71561e-08
5.98252e-08
8.20734e-08
7.45403e-08
4.90121e-08
3.1083e-08
1.96712e-08
1.40722e-08
1.27712e-08
1.43793e-08
1.83777e-08
2.52231e-08
3.33335e-08
3.59145e-08
2.72063e-08
1.29593e-08
5.87822e-09
2.77553e-09
1.35346e-09
6.69848e-10
3.41514e-10
1.78233e-10
9.50054e-11
5.04702e-11
2.73609e-11
1.47938e-11
7.91154e-12
4.1535e-12
2.12787e-12
1.04248e-12
5.00749e-13
2.36993e-13
1.275e-13
9.48856e-14
1.10123e-13
1.7351e-13
2.43805e-13
1.95833e-13
1.60809e-13
4.88364e-14
9.42574e-23
4.02562e-22
7.88738e-22
1.17827e-21
1.49599e-21
1.81171e-21
2.01457e-21
2.26926e-21
2.67785e-21
2.96528e-21
3.40158e-21
4.21087e-21
4.7917e-21
5.51067e-21
6.27829e-21
6.9711e-21
7.71864e-21
8.76499e-21
9.15852e-21
9.69414e-21
1.02543e-20
1.1499e-20
1.41094e-20
2.00068e-20
3.61762e-20
8.01286e-20
2.09476e-19
5.85928e-19
1.67851e-18
4.96192e-18
1.42441e-17
4.09225e-17
1.1539e-16
3.17871e-16
8.60157e-16
2.29314e-15
5.97814e-15
1.55186e-14
3.95673e-14
1.00597e-13
2.38757e-13
5.44562e-13
1.23351e-12
2.68073e-12
5.78139e-12
1.19983e-11
2.34406e-11
4.29775e-11
7.42838e-11
1.22913e-10
1.99665e-10
3.26113e-10
5.42872e-10
8.55778e-10
1.43199e-09
2.31181e-09
3.83229e-09
6.67003e-09
1.1812e-08
2.10092e-08
3.68238e-08
5.93709e-08
8.18168e-08
7.5043e-08
4.94998e-08
3.14381e-08
1.98883e-08
1.41679e-08
1.27825e-08
1.43279e-08
1.8269e-08
2.50525e-08
3.31982e-08
3.5986e-08
2.74909e-08
1.31876e-08
5.97623e-09
2.81956e-09
1.37427e-09
6.79518e-10
3.46279e-10
1.80642e-10
9.6265e-11
5.11101e-11
2.77039e-11
1.49786e-11
8.01058e-12
4.20596e-12
2.15521e-12
1.05575e-12
5.07237e-13
2.39902e-13
1.28877e-13
9.56922e-14
1.10824e-13
1.74635e-13
2.45588e-13
1.97855e-13
1.62419e-13
4.93358e-14
8.5248e-23
3.57864e-22
6.40512e-22
8.08778e-22
1.14502e-21
1.60367e-21
2.02026e-21
2.66965e-21
3.09479e-21
3.47765e-21
3.95429e-21
4.57735e-21
5.0744e-21
5.59894e-21
6.31744e-21
6.95589e-21
7.36969e-21
7.90051e-21
8.6627e-21
1.00566e-20
1.1461e-20
1.32724e-20
1.67819e-20
2.2726e-20
3.915e-20
8.62132e-20
2.20153e-19
6.09633e-19
1.75685e-18
5.15974e-18
1.48425e-17
4.29181e-17
1.19834e-16
3.29444e-16
8.9069e-16
2.38193e-15
6.23898e-15
1.59877e-14
4.04856e-14
1.01603e-13
2.42525e-13
5.58711e-13
1.23619e-12
2.7156e-12
5.89223e-12
1.21861e-11
2.3741e-11
4.34237e-11
7.48936e-11
1.23677e-10
2.00546e-10
3.26913e-10
5.43098e-10
8.54524e-10
1.43191e-09
2.30774e-09
3.81575e-09
6.63356e-09
1.17384e-08
2.08693e-08
3.65825e-08
5.90137e-08
8.16046e-08
7.54945e-08
4.99174e-08
3.17314e-08
2.00644e-08
1.42447e-08
1.27879e-08
1.42854e-08
1.81824e-08
2.49199e-08
3.3092e-08
3.60367e-08
2.77123e-08
1.33705e-08
6.05477e-09
2.85481e-09
1.39092e-09
6.87254e-10
3.50087e-10
1.82563e-10
9.72656e-11
5.1618e-11
2.79764e-11
1.51256e-11
8.08954e-12
4.24789e-12
2.17711e-12
1.06639e-12
5.12425e-13
2.42222e-13
1.2996e-13
9.62938e-14
1.11282e-13
1.75448e-13
2.46931e-13
1.99469e-13
1.63704e-13
4.97359e-14
1.48018e-22
5.0704e-22
8.58982e-22
1.12426e-21
1.24784e-21
1.34847e-21
1.62915e-21
2.17225e-21
2.34179e-21
2.64384e-21
3.05825e-21
3.51144e-21
4.03038e-21
4.53286e-21
5.42539e-21
6.48091e-21
7.57333e-21
8.39968e-21
9.63724e-21
1.06921e-20
1.19653e-20
1.33184e-20
1.60927e-20
2.21213e-20
3.86863e-20
8.57711e-20
2.2561e-19
6.33866e-19
1.85109e-18
5.33114e-18
1.52543e-17
4.3153e-17
1.22349e-16
3.35545e-16
9.17409e-16
2.45441e-15
6.37731e-15
1.60903e-14
4.09935e-14
1.02407e-13
2.43743e-13
5.59133e-13
1.24895e-12
2.74651e-12
5.97073e-12
1.23205e-11
2.39558e-11
4.3743e-11
7.53333e-11
1.24251e-10
2.01182e-10
3.27529e-10
5.43314e-10
8.53728e-10
1.43178e-09
2.30488e-09
3.80457e-09
6.60753e-09
1.1685e-08
2.07672e-08
3.64057e-08
5.87622e-08
8.14496e-08
7.57827e-08
5.01938e-08
3.19286e-08
2.01835e-08
1.42953e-08
1.27907e-08
1.42558e-08
1.81241e-08
2.4826e-08
3.3014e-08
3.60707e-08
2.78671e-08
1.35009e-08
6.11065e-09
2.87986e-09
1.40274e-09
6.92749e-10
3.52794e-10
1.83937e-10
9.79805e-11
5.19802e-11
2.81705e-11
1.52301e-11
8.14568e-12
4.27767e-12
2.19267e-12
1.07396e-12
5.1612e-13
2.43872e-13
1.30729e-13
9.67242e-14
1.1162e-13
1.76005e-13
2.47852e-13
2.00609e-13
1.64611e-13
5.00185e-14
1.27667e-22
3.7804e-22
6.03205e-22
8.7395e-22
1.03654e-21
1.25179e-21
1.49774e-21
1.88652e-21
2.2133e-21
2.56908e-21
3.11503e-21
3.69564e-21
4.19853e-21
4.83857e-21
5.59073e-21
6.26449e-21
7.07472e-21
8.11787e-21
9.30541e-21
1.09786e-20
1.2196e-20
1.36404e-20
1.61213e-20
2.25495e-20
3.9502e-20
8.71117e-20
2.28549e-19
6.50232e-19
1.87695e-18
5.43119e-18
1.55856e-17
4.48956e-17
1.24437e-16
3.41099e-16
9.31645e-16
2.45817e-15
6.44931e-15
1.63161e-14
4.25539e-14
1.05224e-13
2.46773e-13
5.67228e-13
1.24971e-12
2.78781e-12
6.01239e-12
1.24009e-11
2.40958e-11
4.39547e-11
7.56225e-11
1.24614e-10
2.01593e-10
3.27929e-10
5.43533e-10
8.53416e-10
1.432e-09
2.30375e-09
3.79927e-09
6.59485e-09
1.16581e-08
2.07143e-08
3.6311e-08
5.86294e-08
8.13661e-08
7.59276e-08
5.03376e-08
3.20306e-08
2.0245e-08
1.43218e-08
1.27917e-08
1.42392e-08
1.80903e-08
2.47756e-08
3.29723e-08
3.60877e-08
2.79485e-08
1.35705e-08
6.14046e-09
2.8932e-09
1.40903e-09
6.95676e-10
3.54236e-10
1.84668e-10
9.83635e-11
5.21745e-11
2.82748e-11
1.52865e-11
8.17597e-12
4.29377e-12
2.20108e-12
1.07805e-12
5.18116e-13
2.44761e-13
1.31143e-13
9.69574e-14
1.1181e-13
1.76298e-13
2.48334e-13
2.01217e-13
1.65096e-13
5.01701e-14
1.2473e-22
4.37888e-22
7.63188e-22
1.05673e-21
1.23116e-21
1.41812e-21
1.91407e-21
2.53006e-21
2.9789e-21
3.2055e-21
3.67389e-21
3.97477e-21
4.29717e-21
4.43439e-21
4.86876e-21
5.61826e-21
6.21534e-21
7.31796e-21
8.13382e-21
1.00838e-20
1.18821e-20
1.34433e-20
1.70327e-20
2.39015e-20
4.03459e-20
8.81876e-20
2.31189e-19
6.56987e-19
1.92282e-18
5.58717e-18
1.5981e-17
4.49577e-17
1.2699e-16
3.52332e-16
9.48462e-16
2.50054e-15
6.55342e-15
1.64093e-14
4.28808e-14
1.04595e-13
2.50218e-13
5.71567e-13
1.2726e-12
2.79191e-12
6.03607e-12
1.24491e-11
2.41765e-11
4.40769e-11
7.57935e-11
1.2484e-10
2.01882e-10
3.2826e-10
5.43846e-10
8.53572e-10
1.43283e-09
2.30433e-09
3.79888e-09
6.59279e-09
1.1653e-08
2.07038e-08
3.62919e-08
5.8601e-08
8.1347e-08
7.59561e-08
5.03661e-08
3.20503e-08
2.02563e-08
1.43265e-08
1.27917e-08
1.42361e-08
1.80846e-08
2.4767e-08
3.29653e-08
3.60901e-08
2.79611e-08
1.35813e-08
6.14504e-09
2.89522e-09
1.40996e-09
6.96106e-10
3.54445e-10
1.84773e-10
9.84173e-11
5.22016e-11
2.82893e-11
1.52942e-11
8.18012e-12
4.29597e-12
2.20222e-12
1.0786e-12
5.18382e-13
2.4488e-13
1.31197e-13
9.69855e-14
1.11828e-13
1.76345e-13
2.48412e-13
2.013e-13
1.65161e-13
5.01897e-14
7.80825e-23
3.55658e-22
7.39904e-22
1.05099e-21
1.33092e-21
1.74045e-21
2.20622e-21
2.72917e-21
3.17463e-21
3.44795e-21
3.57271e-21
4.05808e-21
4.20799e-21
4.60742e-21
5.24405e-21
5.75192e-21
6.47083e-21
7.13346e-21
8.01987e-21
9.3216e-21
1.11726e-20
1.28747e-20
1.62868e-20
2.37789e-20
4.1344e-20
9.00198e-20
2.31826e-19
6.70607e-19
1.93264e-18
5.60207e-18
1.61291e-17
4.57013e-17
1.28521e-16
3.51832e-16
9.54118e-16
2.5096e-15
6.57405e-15
1.65726e-14
4.30895e-14
1.05182e-13
2.5143e-13
5.67478e-13
1.28635e-12
2.79813e-12
6.03501e-12
1.24663e-11
2.42048e-11
4.41212e-11
7.58625e-11
1.24948e-10
2.02058e-10
3.28557e-10
5.44359e-10
8.54406e-10
1.43467e-09
2.30745e-09
3.80546e-09
6.60542e-09
1.16769e-08
2.07477e-08
3.63665e-08
5.87041e-08
8.14082e-08
7.58405e-08
5.02542e-08
3.1971e-08
2.02081e-08
1.43054e-08
1.27898e-08
1.42473e-08
1.81085e-08
2.48032e-08
3.29951e-08
3.60767e-08
2.79004e-08
1.35299e-08
6.12295e-09
2.8853e-09
1.40528e-09
6.93925e-10
3.53369e-10
1.84227e-10
9.8132e-11
5.2057e-11
2.82116e-11
1.52523e-11
8.15754e-12
4.28394e-12
2.19591e-12
1.07553e-12
5.16879e-13
2.44211e-13
1.30891e-13
9.68253e-14
1.11719e-13
1.76145e-13
2.48065e-13
2.00832e-13
1.64789e-13
5.00734e-14
8.75746e-23
2.30962e-22
4.71289e-22
8.03191e-22
1.16095e-21
1.53096e-21
1.69174e-21
2.13679e-21
2.63286e-21
2.97178e-21
3.37647e-21
3.8928e-21
4.30251e-21
4.94835e-21
5.33939e-21
5.99472e-21
6.76727e-21
6.88677e-21
7.47032e-21
8.56376e-21
1.0467e-20
1.2607e-20
1.57614e-20
2.27845e-20
3.95276e-20
8.7916e-20
2.30768e-19
6.60514e-19
1.90275e-18
5.51258e-18
1.58067e-17
4.46851e-17
1.28115e-16
3.48503e-16
9.20167e-16
2.45548e-15
6.45822e-15
1.60902e-14
4.1558e-14
1.05921e-13
2.45347e-13
5.72013e-13
1.25711e-12
2.80391e-12
6.03084e-12
1.2445e-11
2.41705e-11
4.40759e-11
7.58142e-11
1.24918e-10
2.02097e-10
3.28779e-10
5.45005e-10
8.55852e-10
1.43748e-09
2.3131e-09
3.81892e-09
6.63235e-09
1.17283e-08
2.08427e-08
3.65297e-08
5.89313e-08
8.15418e-08
7.55837e-08
5.00082e-08
3.17977e-08
2.01041e-08
1.42604e-08
1.27863e-08
1.42715e-08
1.81582e-08
2.48816e-08
3.3059e-08
3.6047e-08
2.77687e-08
1.3419e-08
6.07537e-09
2.86396e-09
1.39519e-09
6.89238e-10
3.51059e-10
1.83057e-10
9.75209e-11
5.17474e-11
2.80454e-11
1.51625e-11
8.10925e-12
4.25825e-12
2.18246e-12
1.06898e-12
5.13674e-13
2.42787e-13
1.30237e-13
9.6481e-14
1.11491e-13
1.7572e-13
2.47325e-13
1.99843e-13
1.64001e-13
4.98266e-14
1.33245e-22
2.67477e-22
4.74268e-22
7.91389e-22
1.11606e-21
1.38571e-21
1.72374e-21
2.05658e-21
2.54699e-21
3.0567e-21
3.542e-21
3.86554e-21
4.30482e-21
4.82897e-21
5.58332e-21
6.59138e-21
7.59824e-21
8.64467e-21
9.3965e-21
1.0119e-20
1.07856e-20
1.21341e-20
1.49679e-20
2.15666e-20
3.92272e-20
8.77955e-20
2.279e-19
6.43201e-19
1.88311e-18
5.45125e-18
1.56683e-17
4.42863e-17
1.25031e-16
3.42896e-16
9.29015e-16
2.47232e-15
6.41581e-15
1.60895e-14
4.16791e-14
1.04935e-13
2.46768e-13
5.61246e-13
1.24954e-12
2.79973e-12
5.99977e-12
1.2385e-11
2.40785e-11
4.39492e-11
7.56622e-11
1.2477e-10
2.02033e-10
3.28986e-10
5.45899e-10
8.58069e-10
1.44156e-09
2.32174e-09
3.84021e-09
6.67562e-09
1.18118e-08
2.09973e-08
3.67931e-08
5.92956e-08
8.1748e-08
7.51679e-08
4.96196e-08
3.15255e-08
1.99414e-08
1.41904e-08
1.2781e-08
1.43093e-08
1.82354e-08
2.50018e-08
3.31572e-08
3.59997e-08
2.75674e-08
1.32528e-08
6.00405e-09
2.83196e-09
1.38009e-09
6.82218e-10
3.47596e-10
1.81297e-10
9.66034e-11
5.12825e-11
2.7796e-11
1.50279e-11
8.03688e-12
4.21978e-12
2.16232e-12
1.05919e-12
5.08887e-13
2.40653e-13
1.29251e-13
9.59427e-14
1.11087e-13
1.75055e-13
2.46199e-13
1.9837e-13
1.62825e-13
4.94588e-14
1.18258e-22
3.24675e-22
5.94226e-22
8.2033e-22
9.05962e-22
1.04803e-21
1.40036e-21
1.80568e-21
2.14196e-21
2.50199e-21
3.17151e-21
3.93664e-21
4.79197e-21
5.51489e-21
6.05251e-21
6.89887e-21
7.95798e-21
9.05019e-21
9.62871e-21
1.02085e-20
1.11139e-20
1.23593e-20
1.52467e-20
2.19926e-20
3.9678e-20
8.70121e-20
2.23927e-19
6.25157e-19
1.82642e-18
5.33245e-18
1.50595e-17
4.39448e-17
1.22103e-16
3.35777e-16
9.11811e-16
2.41575e-15
6.31762e-15
1.59771e-14
4.04398e-14
1.00952e-13
2.43876e-13
5.56629e-13
1.22996e-12
2.7639e-12
5.9525e-12
1.22951e-11
2.393e-11
4.37299e-11
7.53779e-11
1.24464e-10
2.01812e-10
3.29111e-10
5.46975e-10
8.61039e-10
1.44672e-09
2.33278e-09
3.86796e-09
6.73258e-09
1.19223e-08
2.12028e-08
3.71442e-08
5.97807e-08
8.20099e-08
7.45883e-08
4.90992e-08
3.11635e-08
1.97259e-08
1.40966e-08
1.27718e-08
1.43576e-08
1.8335e-08
2.51573e-08
3.32805e-08
3.59367e-08
2.73064e-08
1.30409e-08
5.91303e-09
2.79107e-09
1.36075e-09
6.73226e-10
3.43146e-10
1.7905e-10
9.54311e-11
5.06882e-11
2.74771e-11
1.48559e-11
7.9444e-12
4.17062e-12
2.1366e-12
1.04668e-12
5.02779e-13
2.37927e-13
1.27988e-13
9.52439e-14
1.10552e-13
1.74168e-13
2.44715e-13
1.96479e-13
1.61311e-13
4.89858e-14
1.29271e-22
3.0902e-22
5.82281e-22
7.87607e-22
9.89188e-22
1.36964e-21
1.86613e-21
2.02901e-21
2.35494e-21
2.80832e-21
3.33713e-21
3.93499e-21
4.54926e-21
5.01771e-21
5.41976e-21
6.18208e-21
7.32002e-21
8.2468e-21
9.15923e-21
1.00714e-20
1.12287e-20
1.34588e-20
1.64083e-20
2.32403e-20
3.97138e-20
8.48632e-20
2.17263e-19
6.06115e-19
1.76695e-18
5.09224e-18
1.45736e-17
4.19628e-17
1.17708e-16
3.24467e-16
8.61055e-16
2.32746e-15
6.073e-15
1.5444e-14
3.96087e-14
1.00519e-13
2.35649e-13
5.56422e-13
1.23053e-12
2.71787e-12
5.85973e-12
1.21498e-11
2.37088e-11
4.34091e-11
7.49634e-11
1.23982e-10
2.01392e-10
3.29082e-10
5.48137e-10
8.64565e-10
1.45189e-09
2.34576e-09
3.90099e-09
6.80035e-09
1.20535e-08
2.14453e-08
3.75543e-08
6.03351e-08
8.22779e-08
7.39183e-08
4.84908e-08