/*--------------------------------*- C++ -*----------------------------------*\
  =========                 |
  \\      /  F ield         | OpenFOAM: The Open Source CFD Toolbox
   \\    /   O peration     | Website:  https://openfoam.org
    \\  /    A nd           | Version:  10
     \\/     M anipulation  |
\*---------------------------------------------------------------------------*/
FoamFile
{
    format      ascii;
    class       volScalarField;
    location    "1";
    object      PXC9H19;
}
// * * * * * * * * * * * * * * * * * * * * * * * * * * * * * * * * * * * * * //

dimensions      [0 0 0 0 0 0 0];

internalField   nonuniform List<scalar> 
4000
(
1.21449e-22
2.68094e-22
3.86764e-22
5.52365e-22
7.88491e-22
1.059e-21
1.36785e-21
1.71192e-21
2.14236e-21
2.76664e-21
3.68565e-21
4.55765e-21
5.45339e-21
6.34027e-21
7.3013e-21
8.31951e-21
9.33205e-21
1.03539e-20
1.16109e-20
1.29526e-20
1.42957e-20
1.60321e-20
1.8518e-20
2.20611e-20
2.95037e-20
4.59932e-20
8.96743e-20
2.17074e-19
5.84418e-19
1.67144e-18
4.89219e-18
1.44149e-17
4.21553e-17
1.22466e-16
3.53546e-16
9.84359e-16
2.77494e-15
7.90513e-15
2.19091e-14
5.98843e-14
1.57348e-13
4.03478e-13
1.00595e-12
2.43456e-12
5.71011e-12
1.38313e-11
3.37847e-11
8.07916e-11
1.87629e-10
4.22234e-10
9.23741e-10
2.00058e-09
3.96013e-09
8.24182e-09
1.67442e-08
3.24422e-08
5.88238e-08
1.0358e-07
1.71462e-07
2.64799e-07
3.78426e-07
4.94027e-07
5.84266e-07
5.2995e-07
3.74205e-07
2.37793e-07
1.52864e-07
1.17733e-07
1.15098e-07
1.34695e-07
1.77983e-07
2.47548e-07
3.1406e-07
3.14131e-07
2.17144e-07
9.86841e-08
4.49633e-08
2.12296e-08
1.03432e-08
5.17038e-09
2.65537e-09
1.39506e-09
7.47104e-10
4.05981e-10
2.22383e-10
1.21772e-10
6.61179e-11
3.53284e-11
1.84442e-11
9.34753e-12
4.57985e-12
2.10816e-12
9.72113e-13
5.00243e-13
4.07675e-13
6.34531e-13
1.02706e-12
1.15696e-12
6.36632e-13
1.8993e-13
1.08573e-22
7.12348e-22
1.19527e-21
2.03646e-21
2.802e-21
3.32568e-21
3.81725e-21
4.35324e-21
5.11385e-21
6.07184e-21
6.82581e-21
7.56377e-21
8.42324e-21
9.13144e-21
9.93704e-21
1.08737e-20
1.17886e-20
1.27529e-20
1.37539e-20
1.51978e-20
1.67321e-20
1.84236e-20
2.13255e-20
2.5119e-20
3.37814e-20
5.21e-20
1.03176e-19
2.56864e-19
7.14458e-19
2.08025e-18
6.14963e-18
1.9056e-17
5.6286e-17
1.62946e-16
4.67944e-16
1.32298e-15
3.77903e-15
1.04495e-14
2.87169e-14
7.67907e-14
2.01818e-13
5.11258e-13
1.27337e-12
3.06729e-12
7.44043e-12
1.82675e-11
4.40166e-11
1.03111e-10
2.35696e-10
5.28514e-10
1.08231e-09
2.12839e-09
4.46711e-09
9.12227e-09
1.83124e-08
3.55328e-08
6.27552e-08
1.08308e-07
1.76801e-07
2.68797e-07
3.81188e-07
4.95501e-07
5.84922e-07
5.337e-07
3.79985e-07
2.4328e-07
1.56266e-07
1.18809e-07
1.1479e-07
1.33301e-07
1.75386e-07
2.44372e-07
3.12703e-07
3.16854e-07
2.2192e-07
1.01202e-07
4.60166e-08
2.16859e-08
1.05477e-08
5.26428e-09
2.69856e-09
1.41583e-09
7.57377e-10
4.10865e-10
2.24562e-10
1.22663e-10
6.64204e-11
3.53812e-11
1.84064e-11
9.29016e-12
4.53073e-12
2.07679e-12
9.56471e-13
4.9899e-13
4.2253e-13
6.73913e-13
1.06297e-12
1.09541e-12
6.10489e-13
1.81769e-13
5.93326e-22
1.33502e-21
2.33394e-21
3.26351e-21
4.72567e-21
5.38834e-21
5.95952e-21
6.71855e-21
7.7254e-21
8.29179e-21
9.12185e-21
9.66568e-21
1.02271e-20
1.09355e-20
1.13875e-20
1.2115e-20
1.29071e-20
1.41905e-20
1.57975e-20
1.70934e-20
1.87612e-20
2.10954e-20
2.42409e-20
2.91574e-20
3.883e-20
6.22077e-20
1.25794e-19
3.21289e-19
9.09976e-19
2.68294e-18
8.21365e-18
2.44151e-17
7.10463e-17
2.08409e-16
6.05684e-16
1.71715e-15
4.77208e-15
1.31265e-14
3.56692e-14
9.41168e-14
2.44376e-13
5.96562e-13
1.53588e-12
3.63398e-12
9.03909e-12
2.1679e-11
5.21839e-11
1.21012e-10
2.6827e-10
5.91457e-10
1.20624e-09
2.39183e-09
5.00258e-09
1.03608e-08
2.01762e-08
3.71496e-08
6.46658e-08
1.10775e-07
1.79645e-07
2.7212e-07
3.84064e-07
4.97543e-07
5.86053e-07
5.37012e-07
3.84803e-07
2.48081e-07
1.5948e-07
1.20216e-07
1.14743e-07
1.32211e-07
1.73263e-07
2.41414e-07
3.11438e-07
3.1962e-07
2.27185e-07
1.04047e-07
4.72037e-08
2.22008e-08
1.07799e-08
5.37287e-09
2.75236e-09
1.4423e-09
7.70335e-10
4.16675e-10
2.27113e-10
1.23689e-10
6.67552e-11
3.54279e-11
1.83518e-11
9.20543e-12
4.46044e-12
2.03451e-12
9.36856e-13
4.98196e-13
4.42493e-13
7.22541e-13
1.10591e-12
1.02547e-12
5.79828e-13
1.72422e-13
3.7779e-22
1.06845e-21
2.07452e-21
2.948e-21
3.89361e-21
4.59226e-21
5.0531e-21
5.2727e-21
5.95763e-21
7.12722e-21
8.31798e-21
9.28216e-21
1.04249e-20
1.1576e-20
1.24292e-20
1.334e-20
1.45796e-20
1.58061e-20
1.73506e-20
1.87557e-20
2.09501e-20
2.42468e-20
2.85797e-20
3.33826e-20
4.45128e-20
7.3821e-20
1.57417e-19
4.10485e-19
1.15178e-18
3.54538e-18
1.05187e-17
3.123e-17
9.14807e-17
2.66483e-16
7.67781e-16
2.16204e-15
5.96581e-15
1.63814e-14
4.34988e-14
1.16482e-13
2.99447e-13
7.43634e-13
1.85572e-12
4.38394e-12
1.0443e-11
2.54644e-11
6.04055e-11
1.37072e-10
3.08248e-10
6.29967e-10
1.26819e-09
2.71551e-09
5.6993e-09
1.14566e-08
2.19531e-08
3.82749e-08
6.6617e-08
1.13364e-07
1.82894e-07
2.74924e-07
3.86205e-07
4.98842e-07
5.86747e-07
5.39751e-07
3.88926e-07
2.52348e-07
1.62566e-07
1.2152e-07
1.14791e-07
1.31316e-07
1.71233e-07
2.38581e-07
3.10192e-07
3.21954e-07
2.32407e-07
1.05679e-07
4.79981e-08
2.25935e-08
1.09774e-08
5.47279e-09
2.80282e-09
1.46877e-09
7.86206e-10
4.19097e-10
2.28465e-10
1.24315e-10
6.69793e-11
3.54751e-11
1.83647e-11
9.06471e-12
4.37472e-12
1.99217e-12
9.19116e-13
5.00212e-13
4.67619e-13
7.76243e-13
1.15838e-12
9.69267e-13
5.53828e-13
1.64411e-13
3.87058e-22
8.38287e-22
1.25214e-21
1.9156e-21
2.51623e-21
2.96996e-21
3.71394e-21
4.35101e-21
5.3786e-21
6.49273e-21
7.33952e-21
8.42913e-21
9.74768e-21
1.11913e-20
1.26235e-20
1.42745e-20
1.57624e-20
1.73686e-20
1.92954e-20
2.09407e-20
2.31728e-20
2.65868e-20
3.00726e-20
3.54228e-20
4.86903e-20
8.45736e-20
1.94103e-19
5.28326e-19
1.53052e-18
4.53535e-18
1.3467e-17
4.0652e-17
1.18026e-16
3.41213e-16
9.68206e-16
2.70555e-15
7.40501e-15
1.97349e-14
5.33712e-14
1.39537e-13
3.54897e-13
8.80523e-13
2.11997e-12
5.12019e-12
1.20833e-11
2.91483e-11
6.76013e-11
1.54937e-10
3.23898e-10
6.52116e-10
1.39982e-09
2.9677e-09
6.24687e-09
1.27006e-08
2.26892e-08
3.95001e-08
6.85148e-08
1.15615e-07
1.85176e-07
2.77428e-07
3.88347e-07
5.00439e-07
5.87721e-07
5.41948e-07
3.92334e-07
2.56307e-07
1.65213e-07
1.22687e-07
1.14946e-07
1.30768e-07
1.69907e-07
2.36737e-07
3.09382e-07
3.23989e-07
2.3642e-07
1.07854e-07
4.89128e-08
2.30076e-08
1.11695e-08
5.56365e-09
2.84772e-09
1.49158e-09
7.97911e-10
4.25002e-10
2.3124e-10
1.25555e-10
6.74793e-11
3.56356e-11
1.83818e-11
9.04098e-12
4.34186e-12
1.97272e-12
9.11595e-13
5.06839e-13
4.95392e-13
8.30614e-13
1.21636e-12
9.34982e-13
5.36731e-13
1.59087e-13
2.15335e-22
6.34927e-22
1.3185e-21
2.13874e-21
2.80994e-21
3.47818e-21
4.0565e-21
4.86328e-21
5.27938e-21
5.85561e-21
6.75747e-21
8.1646e-21
9.6785e-21
1.09006e-20
1.26062e-20
1.43434e-20
1.59223e-20
1.79304e-20
1.9587e-20
2.21896e-20
2.56147e-20
2.82904e-20
3.23208e-20
3.87264e-20
5.52308e-20
1.03203e-19
2.48138e-19
6.79681e-19
2.00012e-18
5.85586e-18
1.70541e-17
5.18205e-17
1.48313e-16
4.21474e-16
1.17013e-15
3.28186e-15
8.8224e-15
2.30901e-14
6.32143e-14
1.68789e-13
4.18943e-13
1.01667e-12
2.45001e-12
5.82512e-12
1.38693e-11
3.24765e-11
7.67776e-11
1.63225e-10
3.37054e-10
7.11807e-10
1.51914e-09
3.21868e-09
6.64842e-09
1.33769e-08
2.37449e-08
4.08818e-08
7.00602e-08
1.17804e-07
1.87362e-07
2.79435e-07
3.89973e-07
5.01493e-07
5.88447e-07
5.44134e-07
3.95255e-07
2.5901e-07
1.67235e-07
1.23755e-07
1.1518e-07
1.30401e-07
1.68921e-07
2.3522e-07
3.08604e-07
3.25285e-07
2.39152e-07
1.09513e-07
4.96418e-08
2.33376e-08
1.13257e-08
5.64106e-09
2.8866e-09
1.51161e-09
8.0817e-10
4.30608e-10
2.34071e-10
1.26923e-10
6.80941e-11
3.58795e-11
1.84541e-11
9.05786e-12
4.33378e-12
1.96748e-12
9.10932e-13
5.15825e-13
5.22285e-13
8.80468e-13
1.27288e-12
9.18835e-13
5.28944e-13
1.56529e-13
2.17488e-22
6.49981e-22
1.01291e-21
1.55407e-21
1.95175e-21
2.51825e-21
3.17311e-21
4.04555e-21
5.18184e-21
6.35648e-21
7.77647e-21
9.06082e-21
1.03005e-20
1.15036e-20
1.26418e-20
1.41226e-20
1.56585e-20
1.76457e-20
1.94833e-20
2.15376e-20
2.42272e-20
2.78661e-20
3.14917e-20
4.04878e-20
6.4194e-20
1.27066e-19
3.11631e-19
8.4044e-19
2.51563e-18
7.40777e-18
2.15902e-17
6.24907e-17
1.80028e-16
5.10567e-16
1.41263e-15
3.9146e-15
1.07183e-14
2.77794e-14
7.55656e-14
1.94061e-13
4.82473e-13
1.17615e-12
2.78904e-12
6.57516e-12
1.53127e-11
3.60681e-11
8.17022e-11
1.66144e-10
3.59729e-10
7.65813e-10
1.61439e-09
3.38378e-09
6.93536e-09
1.38478e-08
2.44564e-08
4.19453e-08
7.13406e-08
1.19259e-07
1.89004e-07
2.80937e-07
3.91044e-07
5.02171e-07
5.89019e-07
5.46317e-07
3.98176e-07
2.61679e-07
1.69019e-07
1.24652e-07
1.15342e-07
1.30049e-07
1.68001e-07
2.33815e-07
3.07854e-07
3.26476e-07
2.41834e-07
1.11143e-07
5.03725e-08
2.36727e-08
1.14857e-08
5.71901e-09
2.92596e-09
1.5319e-09
8.18706e-10
4.36365e-10
2.37053e-10
1.28423e-10
6.8815e-11
3.62014e-11
1.85807e-11
9.10769e-12
4.34588e-12
1.97263e-12
9.15077e-13
5.25849e-13
5.46905e-13
9.24248e-13
1.32448e-12
9.14748e-13
5.27175e-13
1.5582e-13
2.29683e-22
5.86815e-22
1.1213e-21
1.90782e-21
2.56622e-21
3.33508e-21
4.10436e-21
5.03187e-21
5.85138e-21
6.94027e-21
7.99516e-21
9.63316e-21
1.13622e-20
1.29168e-20
1.40219e-20
1.57486e-20
1.78692e-20
1.96928e-20
2.15262e-20
2.37668e-20
2.57196e-20
2.89697e-20
3.40029e-20
4.47144e-20
7.38527e-20
1.54642e-19
3.89812e-19
1.0755e-18
3.06062e-18
8.86368e-18
2.60926e-17
7.62961e-17
2.17206e-16
6.08775e-16
1.66358e-15
4.55566e-15
1.23636e-14
3.17337e-14
8.48918e-14
2.20701e-13
5.4571e-13
1.31092e-12
3.14187e-12
7.31565e-12
1.70636e-11
3.96713e-11
8.47275e-11
1.78856e-10
3.85287e-10
8.15465e-10
1.71893e-09
3.56083e-09
7.22417e-09
1.42992e-08
2.51002e-08
4.27908e-08
7.23888e-08
1.20464e-07
1.90182e-07
2.81875e-07
3.91561e-07
5.02329e-07
5.89331e-07
5.48624e-07
4.01294e-07
2.64942e-07
1.71007e-07
1.25576e-07
1.15485e-07
1.29664e-07
1.67019e-07
2.32317e-07
3.06934e-07
3.27618e-07
2.44717e-07
1.12992e-07
5.11756e-08
2.40403e-08
1.16611e-08
5.80328e-09
2.9685e-09
1.55386e-09
8.30195e-10
4.42566e-10
2.40318e-10
1.30112e-10
6.96621e-11
3.66072e-11
1.8762e-11
9.1883e-12
4.37625e-12
1.98639e-12
9.22892e-13
5.36039e-13
5.67966e-13
9.61195e-13
1.3696e-12
9.18204e-13
5.29305e-13
1.56318e-13
3.09316e-22
9.0135e-22
1.6466e-21
2.64086e-21
3.16298e-21
3.77792e-21
4.4122e-21
5.25411e-21
6.06393e-21
7.00436e-21
7.6999e-21
8.81016e-21
1.01796e-20
1.16647e-20
1.34884e-20
1.51273e-20
1.67292e-20
1.86956e-20
2.08317e-20
2.24909e-20
2.47754e-20
2.79729e-20
3.39479e-20
4.76042e-20
8.21137e-20
1.80541e-19
4.68139e-19
1.31529e-18
3.78174e-18
1.08441e-17
3.12216e-17
9.00376e-17
2.54429e-16
7.10414e-16
1.95354e-15
5.27426e-15
1.40928e-14
3.58492e-14
9.52611e-14
2.44225e-13
6.05314e-13
1.4622e-12
3.46476e-12
8.11247e-12
1.80573e-11
3.91547e-11
8.849e-11
1.92806e-10
4.1094e-10
8.68438e-10
1.80644e-09
3.70693e-09
7.46248e-09
1.46682e-08
2.55856e-08
4.34183e-08
7.3159e-08
1.21295e-07
1.90906e-07
2.82256e-07
3.91489e-07
5.01883e-07
5.89488e-07
5.52292e-07
4.05835e-07
2.68412e-07
1.73441e-07
1.26582e-07
1.15599e-07
1.29128e-07
1.65659e-07
2.3029e-07
3.05667e-07
3.287e-07
2.47829e-07
1.15085e-07
5.20829e-08
2.44547e-08
1.18603e-08
5.89811e-09
3.01629e-09
1.57849e-09
8.43115e-10
4.49423e-10
2.43954e-10
1.32022e-10
7.06448e-11
3.7097e-11
1.89954e-11
9.2967e-12
4.4226e-12
2.00745e-12
9.33731e-13
5.46327e-13
5.8617e-13
9.92033e-13
1.40826e-12
9.26455e-13
5.33985e-13
1.57612e-13
2.95859e-22
9.06778e-22
1.52417e-21
2.15996e-21
2.7528e-21
3.48118e-21
4.40173e-21
5.4926e-21
6.49915e-21
7.39772e-21
8.333e-21
9.94475e-21
1.18063e-20
1.32353e-20
1.5163e-20
1.70179e-20
1.88256e-20
2.00178e-20
2.2685e-20
2.504e-20
2.72391e-20
3.01223e-20
3.6488e-20
5.16342e-20
9.35557e-20
2.08985e-19
5.47756e-19
1.54039e-18
4.49102e-18
1.30173e-17
3.73174e-17
1.05378e-16
2.93983e-16
8.1222e-16
2.20451e-15
5.89012e-15
1.54947e-14
3.95831e-14
1.06337e-13
2.68032e-13
6.52043e-13
1.56875e-12
3.6973e-12
8.3754e-12
1.84243e-11
4.25425e-11
9.47515e-11
2.05209e-10
4.37689e-10
9.15432e-10
1.8904e-09
3.85156e-09
7.68665e-09
1.49114e-08
2.59269e-08
4.39198e-08
7.36995e-08
1.21785e-07
1.91169e-07
2.82164e-07
3.90994e-07
5.01118e-07
5.89322e-07
5.55787e-07
4.10482e-07
2.72648e-07
1.76058e-07
1.27649e-07
1.15666e-07
1.28436e-07
1.63946e-07
2.28251e-07
3.04289e-07
3.29761e-07
2.51475e-07
1.17716e-07
5.32303e-08
2.49742e-08
1.21018e-08
6.00968e-09
3.07138e-09
1.60646e-09
8.57671e-10
4.56991e-10
2.47945e-10
1.34136e-10
7.17486e-11
3.76596e-11
1.92732e-11
9.42819e-12
4.48203e-12
2.03431e-12
9.46768e-13
5.56176e-13
6.00818e-13
1.01695e-12
1.44081e-12
9.37657e-13
5.40283e-13
1.59416e-13
2.90634e-22
9.09045e-22
1.62468e-21
2.16674e-21
2.70289e-21
3.28758e-21
3.87538e-21
4.43907e-21
5.33099e-21
6.32037e-21
7.7091e-21
9.02985e-21
1.06805e-20
1.24474e-20
1.37981e-20
1.50079e-20
1.61626e-20
1.74997e-20
1.9981e-20
2.38078e-20
2.67167e-20
3.07855e-20
3.80286e-20
5.60769e-20
1.03954e-19
2.38742e-19
6.2517e-19
1.75753e-18
5.10835e-18
1.47905e-17
4.23108e-17
1.19262e-16
3.30617e-16
9.14898e-16
2.46112e-15
6.54148e-15
1.71326e-14
4.3709e-14
1.16148e-13
2.89091e-13
6.99028e-13
1.65677e-12
3.82257e-12
8.59742e-12
1.9935e-11
4.55095e-11
1.0104e-10
2.19031e-10
4.63802e-10
9.67066e-10
1.99455e-09
4.0629e-09
8.15885e-09
1.49821e-08
2.61848e-08
4.42814e-08
7.40223e-08
1.21968e-07
1.91031e-07
2.81464e-07
3.89662e-07
4.99416e-07
5.88756e-07
5.59214e-07
4.15105e-07
2.76662e-07
1.78648e-07
1.28858e-07
1.15834e-07
1.27928e-07
1.62658e-07
2.26222e-07
3.02705e-07
3.30737e-07
2.55025e-07
1.20297e-07
5.43519e-08
2.54774e-08
1.23411e-08
6.12155e-09
3.12728e-09
1.6351e-09
8.72718e-10
4.64824e-10
2.52168e-10
1.36374e-10
7.29242e-11
3.8267e-11
1.9581e-11
9.57579e-12
4.55085e-12
2.06531e-12
9.6134e-13
5.65627e-13
6.12708e-13
1.03721e-12
1.46827e-12
9.50631e-13
5.47561e-13
1.61534e-13
1.99905e-22
5.80977e-22
1.24378e-21
1.82516e-21
2.26114e-21
2.93782e-21
3.72116e-21
4.79352e-21
5.54992e-21
6.68563e-21
8.04916e-21
9.51362e-21
1.10326e-20
1.24287e-20
1.36769e-20
1.50423e-20
1.64549e-20
1.82628e-20
2.00621e-20
2.22145e-20
2.53619e-20
3.03621e-20
3.9657e-20
6.00857e-20
1.14646e-19
2.65597e-19
6.99546e-19
1.9462e-18
5.6801e-18
1.62745e-17
4.5442e-17
1.31517e-16
3.66298e-16
9.9485e-16
2.74655e-15
7.21401e-15
1.86007e-14
4.73259e-14
1.22624e-13
3.11025e-13
7.44888e-13
1.75281e-12
4.02761e-12
9.17319e-12
2.12101e-11
4.81926e-11
1.06638e-10
2.30292e-10
4.85835e-10
1.00926e-09
2.07466e-09
4.21194e-09
8.40379e-09
1.49872e-08
2.64123e-08
4.45796e-08
7.42106e-08
1.21951e-07
1.90666e-07
2.80727e-07
3.88476e-07
4.98049e-07
5.8816e-07
5.62782e-07
4.19862e-07
2.807e-07
1.81178e-07
1.30047e-07
1.16037e-07
1.27487e-07
1.61235e-07
2.23968e-07
3.00963e-07
3.31513e-07
2.58464e-07
1.23051e-07
5.55276e-08
2.60156e-08
1.25953e-08
6.23987e-09
3.18563e-09
1.66476e-09
8.88254e-10
4.72886e-10
2.56524e-10
1.38741e-10
7.41949e-11
3.89345e-11
1.99192e-11
9.73747e-12
4.6272e-12
2.0999e-12
9.77332e-13
5.74804e-13
6.22442e-13
1.05369e-12
1.4915e-12
9.64487e-13
5.55328e-13
1.63816e-13
1.73003e-22
4.92686e-22
1.17141e-21
1.67068e-21
2.43145e-21
3.35293e-21
4.65857e-21
5.75634e-21
6.59942e-21
7.75203e-21
9.02409e-21
1.02355e-20
1.1639e-20
1.30394e-20
1.43188e-20
1.61939e-20
1.74091e-20
1.83835e-20
2.06499e-20
2.33838e-20
2.77184e-20
3.23016e-20
4.16903e-20
6.27087e-20
1.22912e-19
2.88479e-19
7.63134e-19
2.1343e-18
6.11947e-18
1.80041e-17
5.06301e-17
1.4417e-16
3.9872e-16
1.09836e-15
2.94072e-15
7.7096e-15
1.97726e-14
5.01017e-14
1.29451e-13
3.29749e-13
7.92e-13
1.86851e-12
4.25191e-12
9.84371e-12
2.22932e-11
5.05297e-11
1.11558e-10
2.39125e-10
5.01269e-10
1.03526e-09
2.1158e-09
4.27111e-09
8.4682e-09
1.49846e-08
2.66677e-08
4.48068e-08
7.42698e-08
1.21745e-07
1.90056e-07
2.79621e-07
3.87104e-07
4.96449e-07
5.87398e-07
5.66133e-07
4.24595e-07
2.84796e-07
1.8376e-07
1.31243e-07
1.16207e-07
1.26965e-07
1.59953e-07
2.21936e-07
2.99272e-07
3.32208e-07
2.62049e-07
1.26027e-07
5.6817e-08
2.6589e-08
1.28614e-08
6.36255e-09
3.24715e-09
1.69635e-09
9.04858e-10
4.81326e-10
2.61049e-10
1.41175e-10
7.54956e-11
3.96203e-11
2.02754e-11
9.91034e-12
4.7102e-12
2.13659e-12
9.938e-13
5.83535e-13
6.30528e-13
1.06767e-12
1.51214e-12
9.7949e-13
5.63759e-13
1.663e-13
2.26675e-22
7.26095e-22
1.06887e-21
1.59695e-21
2.19831e-21
2.9501e-21
4.1386e-21
4.9539e-21
5.80312e-21
6.97267e-21
8.0712e-21
9.70182e-21
1.14856e-20
1.35301e-20
1.56273e-20
1.70047e-20
1.80138e-20
1.88267e-20
2.07048e-20
2.2468e-20
2.71677e-20
3.12175e-20
3.91152e-20
6.03712e-20
1.22209e-19
2.99641e-19
8.256e-19
2.32985e-18
6.68761e-18
1.91318e-17
5.37995e-17
1.54708e-16
4.21381e-16
1.16413e-15
3.09835e-15
8.13053e-15
2.09126e-14
5.20311e-14
1.3656e-13
3.48321e-13
8.26274e-13
1.93545e-12
4.46575e-12
1.03583e-11
2.32479e-11
5.25865e-11
1.15235e-10
2.45617e-10
5.12367e-10
1.05329e-09
2.14272e-09
4.30921e-09
8.49982e-09
1.49742e-08
2.68522e-08
4.49693e-08
7.42548e-08
1.2148e-07
1.89447e-07
2.78484e-07
3.85393e-07
4.94505e-07
5.86499e-07
5.69209e-07
4.29054e-07
2.88676e-07
1.86313e-07
1.32342e-07
1.16382e-07
1.26472e-07
1.58747e-07
2.19901e-07
2.97548e-07
3.32717e-07
2.65239e-07
1.28964e-07
5.80785e-08
2.71522e-08
1.31284e-08
6.48703e-09
3.30858e-09
1.72757e-09
9.21192e-10
4.89705e-10
2.65528e-10
1.43579e-10
7.67785e-11
4.0296e-11
2.0625e-11
1.00793e-11
4.79137e-12
2.17309e-12
1.01028e-12
5.91748e-13
6.36895e-13
1.07889e-12
1.52943e-12
9.94056e-13
5.71913e-13
1.68712e-13
2.94025e-22
7.76302e-22
1.33697e-21
2.08081e-21
2.65715e-21
3.14196e-21
3.72205e-21
4.39571e-21
5.41079e-21
6.98607e-21
8.56155e-21
1.04314e-20
1.22509e-20
1.4164e-20
1.56278e-20
1.68417e-20
1.7928e-20
1.93607e-20
2.03711e-20
2.18544e-20
2.40313e-20
2.81023e-20
3.76409e-20
6.12446e-20
1.28144e-19
3.18609e-19
8.73435e-19
2.4647e-18
7.04613e-18
2.04088e-17
5.79912e-17
1.62982e-16
4.43889e-16
1.22105e-15
3.20872e-15
8.32646e-15
2.19312e-14
5.43611e-14
1.4157e-13
3.55402e-13
8.73706e-13
2.03846e-12
4.70998e-12
1.05978e-11
2.40231e-11
5.40735e-11
1.18019e-10
2.50607e-10
5.20976e-10
1.06756e-09
2.16454e-09
4.33403e-09
8.51813e-09
1.49625e-08
2.69696e-08
4.50542e-08
7.41435e-08
1.21104e-07
1.88666e-07
2.77339e-07
3.83828e-07
4.92717e-07
5.85506e-07
5.71963e-07
4.33239e-07
2.92354e-07
1.88753e-07
1.33569e-07
1.16874e-07
1.26131e-07
1.57701e-07
2.18095e-07
2.95946e-07
3.33122e-07
2.68151e-07
1.3175e-07
5.92725e-08
2.76907e-08
1.33796e-08
6.60302e-09
3.36575e-09
1.75656e-09
9.36317e-10
4.97404e-10
2.69651e-10
1.45796e-10
7.79644e-11
4.09222e-11
2.09498e-11
1.02364e-11
4.86691e-12
2.20678e-12
1.02535e-12
5.99076e-13
6.42326e-13
1.08779e-12
1.54351e-12
1.00738e-12
5.79372e-13
1.70924e-13
2.26003e-22
8.44067e-22
1.60627e-21
2.38567e-21
3.05529e-21
3.73482e-21
4.23931e-21
4.85066e-21
5.7442e-21
6.46149e-21
7.4629e-21
9.12953e-21
1.04393e-20
1.20095e-20
1.36887e-20
1.52684e-20
1.69657e-20
1.92103e-20
2.04173e-20
2.20188e-20
2.40887e-20
2.84971e-20
3.86416e-20
6.42943e-20
1.36038e-19
3.37182e-19
9.22789e-19
2.5934e-18
7.3349e-18
2.12724e-17
5.98442e-17
1.68511e-16
4.66229e-16
1.26189e-15
3.36002e-15
8.83102e-15
2.27511e-14
5.8522e-14
1.48404e-13
3.7703e-13
8.99338e-13
2.07608e-12
4.80891e-12
1.08226e-11
2.4626e-11
5.52301e-11
1.20144e-10
2.54324e-10
5.27134e-10
1.07703e-09
2.17835e-09
4.35063e-09
8.5299e-09
1.4949e-08
2.70453e-08
4.50951e-08
7.40015e-08
1.20689e-07
1.87906e-07
2.76149e-07
3.82319e-07
4.91073e-07
5.84529e-07
5.74077e-07
4.36702e-07
2.95456e-07
1.90823e-07
1.34561e-07
1.17107e-07
1.25791e-07
1.56794e-07
2.16528e-07
2.94515e-07
3.33397e-07
2.706e-07
1.34183e-07
6.03129e-08
2.81559e-08
1.35968e-08
6.7034e-09
3.41521e-09
1.78158e-09
9.4941e-10
5.04066e-10
2.73222e-10
1.47718e-10
7.89942e-11
4.14671e-11
2.12333e-11
1.03739e-11
4.93387e-12
2.23651e-12
1.03857e-12
6.05301e-13
6.46557e-13
1.09478e-12
1.55485e-12
1.01901e-12
5.85851e-13
1.72847e-13
2.08524e-22
7.6665e-22
1.34945e-21
1.75067e-21
2.45029e-21
3.37444e-21
4.24643e-21
5.53394e-21
6.46082e-21
7.33934e-21
8.40413e-21
9.74062e-21
1.08841e-20
1.20953e-20
1.36637e-20
1.5126e-20
1.62464e-20
1.76161e-20
1.94679e-20
2.25762e-20
2.61639e-20
3.1669e-20
4.36608e-20
7.00974e-20
1.44363e-19
3.57149e-19
9.63969e-19
2.69699e-18
7.67789e-18
2.212e-17
6.23566e-17
1.7672e-16
4.84215e-16
1.30787e-15
3.47915e-15
9.17167e-15
2.37403e-14
6.02966e-14
1.51864e-13
3.80785e-13
9.13363e-13
2.13032e-12
4.81797e-12
1.09634e-11
2.51104e-11
5.61239e-11
1.21763e-10
2.5716e-10
5.31856e-10
1.08436e-09
2.18877e-09
4.36258e-09
8.53724e-09
1.49385e-08
2.70895e-08
4.51057e-08
7.3863e-08
1.20362e-07
1.87337e-07
2.75308e-07
3.8126e-07
4.89839e-07
5.83801e-07
5.75979e-07
4.39637e-07
2.98003e-07
1.92497e-07
1.35357e-07
1.17261e-07
1.25509e-07
1.56073e-07
2.15312e-07
2.934e-07
3.3357e-07
2.72502e-07
1.36133e-07
6.11469e-08
2.85284e-08
1.37705e-08
6.78372e-09
3.45475e-09
1.80155e-09
9.59811e-10
5.09355e-10
2.76059e-10
1.49247e-10
7.98152e-11
4.19026e-11
2.14604e-11
1.04841e-11
4.98747e-12
2.2603e-12
1.04909e-12
6.10046e-13
6.49281e-13
1.09977e-12
1.56334e-12
1.02835e-12
5.91058e-13
1.74394e-13
3.15806e-22
1.01706e-21
1.71434e-21
2.27512e-21
2.60649e-21
2.91357e-21
3.544e-21
4.63765e-21
5.11932e-21
5.84745e-21
6.79096e-21
7.82684e-21
9.00128e-21
1.01788e-20
1.20536e-20
1.42439e-20
1.65421e-20
1.84451e-20
2.11315e-20
2.36968e-20
2.70947e-20
3.19e-20
4.27638e-20
6.96484e-20
1.45923e-19
3.6307e-19
9.95003e-19
2.80455e-18
8.08134e-18
2.28467e-17
6.40905e-17
1.77814e-16
4.94612e-16
1.33276e-15
3.58517e-15
9.45705e-15
2.42846e-14
6.07172e-14
1.53805e-13
3.83787e-13
9.17819e-13
2.13146e-12
4.86807e-12
1.10895e-11
2.54543e-11
5.67643e-11
1.22919e-10
2.5918e-10
5.35244e-10
1.0898e-09
2.19621e-09
4.37152e-09
8.54277e-09
1.49314e-08
2.71162e-08
4.51076e-08
7.37597e-08
1.20116e-07
1.86904e-07
2.74666e-07
3.80442e-07
4.88921e-07
5.83224e-07
5.77155e-07
4.41563e-07
2.9971e-07
1.93628e-07
1.35883e-07
1.17358e-07
1.25311e-07
1.55588e-07
2.14453e-07
2.92586e-07
3.33676e-07
2.73828e-07
1.37522e-07
6.17401e-08
2.87931e-08
1.38939e-08
6.84074e-09
3.48284e-09
1.81581e-09
9.67239e-10
5.13125e-10
2.78079e-10
1.50335e-10
8.03989e-11
4.22118e-11
2.16218e-11
1.05626e-11
5.02564e-12
2.27722e-12
1.05659e-12
6.13455e-13
6.51312e-13
1.10318e-12
1.56916e-12
1.03499e-12
5.94748e-13
1.7549e-13
2.81529e-22
7.99307e-22
1.2814e-21
1.84966e-21
2.24597e-21
2.74429e-21
3.31101e-21
4.13701e-21
4.87586e-21
5.68815e-21
6.85121e-21
8.10319e-21
9.25663e-21
1.06775e-20
1.23252e-20
1.38767e-20
1.5698e-20
1.79704e-20
2.05837e-20
2.42104e-20
2.75336e-20
3.2521e-20
4.30586e-20
7.10218e-20
1.48858e-19
3.68954e-19
1.00991e-18
2.87788e-18
8.19998e-18
2.32863e-17
6.55009e-17
1.84949e-16
5.03113e-16
1.35496e-15
3.64123e-15
9.47258e-15
2.45566e-14
6.15731e-14
1.59679e-13
3.94491e-13
9.29547e-13
2.16318e-12
4.87076e-12
1.12635e-11
2.5638e-11
5.71511e-11
1.23675e-10
2.60517e-10
5.37459e-10
1.09322e-09
2.20098e-09
4.37725e-09
8.54739e-09
1.49296e-08
2.71361e-08
4.51154e-08
7.37131e-08
1.19997e-07
1.86684e-07
2.74326e-07
3.79988e-07
4.88417e-07
5.82897e-07
5.77731e-07
4.42557e-07
3.0059e-07
1.94211e-07
1.36158e-07
1.17405e-07
1.25199e-07
1.55307e-07
2.13993e-07
2.92153e-07
3.33724e-07
2.74525e-07
1.38263e-07
6.20565e-08
2.89341e-08
1.39595e-08
6.87109e-09
3.4978e-09
1.82341e-09
9.71217e-10
5.15146e-10
2.79165e-10
1.50921e-10
8.07136e-11
4.23789e-11
2.17089e-11
1.06049e-11
5.04625e-12
2.28635e-12
1.06063e-12
6.15308e-13
6.5246e-13
1.10496e-12
1.5722e-12
1.03854e-12
5.96725e-13
1.76078e-13
2.7745e-22
9.04e-22
1.56013e-21
2.17133e-21
2.59272e-21
3.05005e-21
4.04941e-21
5.26877e-21
6.22028e-21
6.80955e-21
7.82435e-21
8.58006e-21
9.3975e-21
9.9331e-21
1.10178e-20
1.26705e-20
1.41114e-20
1.64737e-20
1.8462e-20
2.25811e-20
2.69456e-20
3.22357e-20
4.47787e-20
7.38844e-20
1.50746e-19
3.74985e-19
1.02381e-18
2.90962e-18
8.38614e-18
2.39272e-17
6.71098e-17
1.85195e-16
5.1322e-16
1.3987e-15
3.7054e-15
9.63214e-15
2.49472e-14
6.19261e-14
1.60924e-13
3.92203e-13
9.42965e-13
2.18062e-12
4.96371e-12
1.12805e-11
2.57432e-11
5.73831e-11
1.24115e-10
2.61304e-10
5.38805e-10
1.09543e-09
2.20442e-09
4.38195e-09
8.55273e-09
1.49334e-08
2.71578e-08
4.51363e-08
7.37209e-08
1.19985e-07
1.86645e-07
2.74254e-07
3.79885e-07
4.88293e-07
5.82805e-07
5.77829e-07
4.42748e-07
3.00758e-07
1.94318e-07
1.36206e-07
1.17412e-07
1.25178e-07
1.5526e-07
2.13914e-07
2.92081e-07
3.33728e-07
2.74632e-07
1.38379e-07
6.21052e-08
2.89555e-08
1.39693e-08
6.87556e-09
3.49996e-09
1.82449e-09
9.71777e-10
5.15428e-10
2.79315e-10
1.51002e-10
8.07567e-11
4.24017e-11
2.17207e-11
1.06106e-11
5.04898e-12
2.28756e-12
1.06116e-12
6.15525e-13
6.52557e-13
1.10525e-12
1.5727e-12
1.03901e-12
5.96979e-13
1.76152e-13
1.96955e-22
7.62531e-22
1.51763e-21
2.16195e-21
2.76883e-21
3.61155e-21
4.56512e-21
5.62829e-21
6.57332e-21
7.242e-21
7.67915e-21
8.75081e-21
9.28352e-21
1.02685e-20
1.16952e-20
1.29411e-20
1.45931e-20
1.62151e-20
1.83296e-20
2.13452e-20
2.57906e-20
3.13367e-20
4.36555e-20
7.41246e-20
1.54075e-19
3.79677e-19
1.02225e-18
2.96519e-18
8.43148e-18
2.39936e-17
6.77277e-17
1.88236e-16
5.19664e-16
1.39863e-15
3.73407e-15
9.68648e-15
2.50649e-14
6.25891e-14
1.61751e-13
3.94423e-13
9.47525e-13
2.16408e-12
5.01857e-12
1.13087e-11
2.5739e-11
5.74684e-11
1.24278e-10
2.61615e-10
5.39412e-10
1.09661e-09
2.2067e-09
4.38625e-09
8.56056e-09
1.49462e-08
2.7187e-08
4.51825e-08
7.38126e-08
1.20132e-07
1.86858e-07
2.74539e-07
3.80227e-07
4.88656e-07
5.83013e-07
5.7734e-07
4.41962e-07
3.0007e-07
1.93861e-07
1.35989e-07
1.17367e-07
1.25252e-07
1.55458e-07
2.14245e-07
2.92392e-07
3.33685e-07
2.74113e-07
1.37832e-07
6.18711e-08
2.88508e-08
1.39204e-08
6.85295e-09
3.48881e-09
1.81883e-09
9.68813e-10
5.13923e-10
2.78507e-10
1.50565e-10
8.05218e-11
4.22767e-11
2.16553e-11
1.05788e-11
5.03343e-12
2.28066e-12
1.05812e-12
6.14213e-13
6.51915e-13
1.10405e-12
1.57052e-12
1.03625e-12
5.95448e-13
1.75697e-13
2.13262e-22
5.49866e-22
1.05797e-21
1.73318e-21
2.46623e-21
3.23587e-21
3.67007e-21
4.6045e-21
5.64478e-21
6.43681e-21
7.36168e-21
8.49963e-21
9.4798e-21
1.088e-20
1.18747e-20
1.33517e-20
1.50706e-20
1.57539e-20
1.73334e-20
1.9983e-20
2.44909e-20
3.07623e-20
4.25229e-20
7.21099e-20
1.50084e-19
3.73291e-19
1.01833e-18
2.91948e-18
8.30202e-18
2.36144e-17
6.63845e-17
1.84059e-16
5.17839e-16
1.3851e-15
3.60198e-15
9.47633e-15
2.46199e-14
6.07697e-14
1.55998e-13
3.97144e-13
9.24139e-13
2.18128e-12
4.89925e-12
1.13321e-11
2.57213e-11
5.73715e-11
1.2411e-10
2.61379e-10
5.39165e-10
1.09659e-09
2.2076e-09
4.38972e-09
8.5702e-09
1.49676e-08
2.72252e-08
4.52563e-08
7.39906e-08
1.20439e-07
1.8732e-07
2.75165e-07
3.80994e-07
4.89482e-07
5.83494e-07
5.76267e-07
4.40238e-07
2.98567e-07
1.92872e-07
1.35523e-07
1.17275e-07
1.25412e-07
1.55871e-07
2.14962e-07
2.9306e-07
3.33587e-07
2.72985e-07
1.36652e-07
6.13665e-08
2.86254e-08
1.38153e-08
6.80434e-09
3.46484e-09
1.80668e-09
9.62465e-10
5.107e-10
2.76776e-10
1.49631e-10
8.00197e-11
4.20099e-11
2.15157e-11
1.05109e-11
5.0003e-12
2.266e-12
1.05166e-12
6.11412e-13
6.50574e-13
1.10149e-12
1.56587e-12
1.03044e-12
5.92211e-13
1.74733e-13
2.90758e-22
6.10023e-22
1.05963e-21
1.70578e-21
2.38045e-21
2.97575e-21
3.70588e-21
4.44744e-21
5.47751e-21
6.5621e-21
7.62882e-21
8.44378e-21
9.47595e-21
1.06774e-20
1.23019e-20
1.43965e-20
1.65385e-20
1.88064e-20
2.06755e-20
2.26882e-20
2.50806e-20
2.99422e-20
4.1062e-20
6.94311e-20
1.48049e-19
3.69749e-19
1.00567e-18
2.8457e-18
8.21162e-18
2.33405e-17
6.57838e-17
1.82368e-16
5.05331e-16
1.36219e-15
3.63304e-15
9.53421e-15
2.44485e-14
6.07443e-14
1.56413e-13
3.93369e-13
9.29461e-13
2.13975e-12
4.86928e-12
1.1315e-11
2.55867e-11
5.70939e-11
1.23643e-10
2.60653e-10
5.38185e-10
1.09559e-09
2.20757e-09
4.39328e-09
8.58353e-09
1.50004e-08
2.7277e-08
4.53651e-08
7.42683e-08
1.20929e-07
1.88068e-07
2.76191e-07
3.82243e-07
4.90817e-07
5.84255e-07
5.74522e-07
4.37503e-07
2.96203e-07
1.91326e-07
1.34799e-07
1.17132e-07
1.25662e-07
1.56513e-07
2.16065e-07
2.94091e-07
3.33421e-07
2.71259e-07
1.34882e-07
6.06098e-08
2.82876e-08
1.36577e-08
6.73151e-09
3.42892e-09
1.7884e-09
9.5293e-10
5.05861e-10
2.7418e-10
1.4823e-10
7.92671e-11
4.16102e-11
2.13069e-11
1.04093e-11
4.9508e-12
2.24404e-12
1.04195e-12
6.07078e-13
6.48156e-13
1.09747e-12
1.55881e-12
1.02181e-12
5.87406e-13
1.73302e-13
2.64439e-22
7.0645e-22
1.26108e-21
1.75021e-21
2.01297e-21
2.38745e-21
3.13676e-21
3.99588e-21
4.76027e-21
5.58758e-21
6.96502e-21
8.53287e-21
1.02799e-20
1.18322e-20
1.3101e-20
1.49314e-20
1.71725e-20
1.95324e-20
2.11134e-20
2.28787e-20
2.56545e-20
3.02186e-20
4.12739e-20
6.90672e-20
1.46834e-19
3.62381e-19
9.81642e-19
2.76181e-18
7.9637e-18
2.28207e-17
6.32252e-17
1.80822e-16
4.93158e-16
1.33265e-15
3.56158e-15
9.3048e-15
2.40465e-14
6.02703e-14
1.51703e-13
3.78333e-13
9.1846e-13
2.1216e-12
4.79006e-12
1.11653e-11
2.53815e-11
5.66709e-11
1.22865e-10
2.59338e-10
5.36203e-10
1.09315e-09
2.20581e-09
4.39568e-09
8.59884e-09
1.50427e-08
2.73352e-08
4.54952e-08
7.4619e-08
1.2156e-07
1.89043e-07
2.77534e-07
3.83883e-07
4.92576e-07
5.85227e-07
5.72055e-07
4.33813e-07
2.93048e-07
1.89275e-07
1.33828e-07
1.16924e-07
1.25978e-07
1.57342e-07
2.17492e-07
2.9539e-07
3.33188e-07
2.69013e-07
1.32623e-07
5.96432e-08
2.78554e-08
1.34558e-08
6.63814e-09
3.38271e-09
1.76505e-09
9.40741e-10
4.9967e-10
2.70858e-10
1.46439e-10
7.83052e-11
4.10996e-11
2.10402e-11
1.02798e-11
4.88768e-12
2.21602e-12
1.02959e-12
6.01506e-13
6.44963e-13
1.09207e-12
1.54948e-12
1.01079e-12
5.81257e-13
1.71472e-13
2.84435e-22
6.8225e-22
1.24762e-21
1.7077e-21
2.1733e-21
2.95838e-21
3.95852e-21
4.41307e-21
5.16282e-21
6.15038e-21
7.28508e-21
8.55897e-21
9.88513e-21
1.09911e-20
1.20216e-20
1.37036e-20
1.60748e-20
1.81552e-20
2.03088e-20
2.26336e-20
2.5828e-20
3.20035e-20
4.28455e-20
7.02981e-20
1.43405e-19
3.49235e-19
9.47343e-19
2.66726e-18
7.693e-18
2.17775e-17
6.11388e-17
1.72635e-16
4.75302e-16
1.28756e-15
3.36378e-15
8.96181e-15
2.31085e-14
5.82427e-14
1.48545e-13
3.76635e-13
8.87094e-13
2.12142e-12
4.79615e-12
1.09793e-11
2.498e-11
5.59889e-11
1.217e-10
2.57381e-10
5.332e-10
1.08902e-09
2.20173e-09
4.39592e-09
8.61491e-09
1.50928e-08
2.73832e-08
4.56349e-08
7.50239e-08
1.22298e-07
1.90189e-07
2.79111e-07
3.85797e-07
4.94581e-07
5.86206e-07
5.6912e-07
4.2944e-07
2.8925e-07
1.86751e-07