/*--------------------------------*- C++ -*----------------------------------*\
  =========                 |
  \\      /  F ield         | OpenFOAM: The Open Source CFD Toolbox
   \\    /   O peration     | Website:  https://openfoam.org
    \\  /    A nd           | Version:  10
     \\/     M anipulation  |
\*---------------------------------------------------------------------------*/
FoamFile
{
    format      ascii;
    class       volScalarField;
    location    "1";
    object      RR.aC3H5;
}
// * * * * * * * * * * * * * * * * * * * * * * * * * * * * * * * * * * * * * //

dimensions      [1 -3 -1 0 0 0 0];

internalField   nonuniform List<scalar> 
4000
(
-6.23492e-40
-1.66327e-38
3.76852e-39
-1.24561e-38
2.09195e-38
-7.21126e-39
-1.22424e-38
3.73891e-38
-4.3442e-39
-2.2193e-38
-1.86264e-38
-1.71827e-37
2.8665e-39
-1.6384e-37
-4.63965e-38
-1.61115e-37
-8.18625e-37
2.22981e-36
-5.40711e-36
2.03815e-35
-3.4272e-36
6.7473e-35
6.32181e-34
1.83252e-34
5.84582e-33
2.05447e-33
-1.78001e-32
-2.38296e-31
3.21275e-31
-4.40284e-30
-1.52646e-28
-1.26403e-27
-1.10051e-26
-1.00459e-25
-9.58922e-25
-8.14586e-24
-7.39794e-23
-6.45774e-22
-5.66095e-21
-4.87725e-20
-3.8664e-19
-2.99172e-18
-2.16958e-17
-1.52291e-16
-1.03e-15
-7.50508e-15
-5.7352e-14
-4.25092e-13
-2.98252e-12
-1.94356e-11
-1.17018e-10
-6.64292e-10
-2.97014e-09
-1.43041e-08
-6.35783e-08
-2.52189e-07
-8.64795e-07
-2.78842e-06
-8.00628e-06
-2.0303e-05
-4.56533e-05
-8.99088e-05
-0.000167676
-0.000306741
-0.000520225
-0.000790023
-0.00119957
-0.00200917
-0.00379714
-0.00766658
-0.0160053
-0.0338419
-0.0662085
-0.110053
-0.138434
0.106627
0.36802
0.17473
0.0264007
-0.0913614
-0.0773251
-0.0446053
-0.0240385
-0.0127442
-0.00688924
-0.003791
-0.00210662
-0.00117056
-0.000644487
-0.000348694
-0.000184216
-9.19422e-05
-4.44654e-05
-2.03681e-05
-8.7228e-06
-3.10925e-06
-9.87324e-07
-3.34323e-07
-1.15628e-07
-1.83575e-08
1.39762e-39
3.64498e-38
-2.11168e-37
1.28992e-37
-3.53479e-37
5.51209e-38
2.63495e-37
-1.14954e-37
-3.01749e-37
4.21622e-37
-1.98913e-37
-8.05313e-37
4.82457e-37
-6.16876e-37
1.58054e-38
-1.26937e-37
-7.60802e-37
-1.01264e-36
-8.50378e-37
2.68493e-35
-7.50308e-35
-1.64708e-34
-2.64245e-34
1.58289e-33
-4.0014e-33
1.90191e-32
-7.60031e-32
1.98602e-31
-7.73529e-30
-5.47369e-30
-2.63176e-28
-2.56557e-27
-2.27032e-26
-1.98388e-25
-1.80291e-24
-1.6403e-23
-1.42153e-22
-1.2697e-21
-1.03005e-20
-8.48452e-20
-6.76434e-19
-5.04613e-18
-3.68612e-17
-2.53223e-16
-1.8709e-15
-1.38797e-14
-1.03415e-13
-7.34942e-13
-4.98425e-12
-3.21024e-11
-1.67046e-10
-7.54399e-10
-3.80896e-09
-1.74852e-08
-7.50996e-08
-2.94961e-07
-9.54612e-07
-2.95371e-06
-8.23785e-06
-2.04177e-05
-4.53859e-05
-8.87339e-05
-0.000164393
-0.000298999
-0.000506434
-0.000770463
-0.00116589
-0.00194375
-0.00365161
-0.00735797
-0.0154518
-0.0328338
-0.0648421
-0.10894
-0.139369
0.0943129
0.373755
0.178234
0.0278639
-0.0919269
-0.0775602
-0.0446748
-0.0240127
-0.0127154
-0.006868
-0.00377609
-0.0020959
-0.00116287
-0.000638759
-0.000344606
-0.000181402
-9.0165e-05
-4.33809e-05
-1.97772e-05
-8.38847e-06
-2.94238e-06
-9.33592e-07
-3.20353e-07
-1.10518e-07
-1.72918e-08
1.54515e-37
-4.25878e-38
-1.18101e-37
1.00061e-36
2.44231e-36
-5.07621e-37
-9.08136e-37
-1.29948e-36
-5.33506e-37
-5.53508e-37
5.19059e-37
-3.61488e-37
-5.96294e-37
4.16215e-37
7.65321e-37
1.15842e-36
-2.83296e-38
-2.58726e-36
4.2681e-36
-1.46826e-35
6.98388e-35
-4.49054e-34
9.09977e-34
2.93419e-33
-9.96769e-34
1.08194e-32
4.07664e-33
-1.36274e-31
-7.99438e-30
-4.12916e-29
-4.7854e-28
-4.30902e-27
-3.89215e-26
-3.64967e-25
-3.27956e-24
-2.88809e-23
-2.44338e-22
-2.04828e-21
-1.7012e-20
-1.32439e-19
-1.02971e-18
-7.14721e-18
-5.553e-17
-3.75056e-16
-2.83179e-15
-2.03456e-14
-1.51288e-13
-1.05286e-12
-6.70279e-12
-4.16787e-11
-2.10532e-10
-9.67139e-10
-4.80453e-09
-2.24185e-08
-8.99343e-08
-3.18267e-07
-1.00012e-06
-3.0447e-06
-8.37774e-06
-2.05464e-05
-4.52339e-05
-8.78475e-05
-0.000161651
-0.000291752
-0.000493756
-0.000752502
-0.00113536
-0.00188006
-0.00352654
-0.00711242
-0.0149692
-0.0318952
-0.0635027
-0.107712
-0.140112
0.081589
0.380017
0.182114
0.0290654
-0.092839
-0.077806
-0.0447267
-0.0239614
-0.0126588
-0.00682773
-0.00374938
-0.00207784
-0.00115031
-0.000630344
-0.000338525
-0.000177264
-8.76394e-05
-4.19095e-05
-1.89959e-05
-7.95553e-06
-2.74427e-06
-8.73478e-07
-2.9785e-07
-1.04619e-07
-1.61577e-08
6.65804e-38
-1.5988e-37
1.22618e-37
4.28012e-37
-3.90032e-38
4.83414e-37
4.78772e-37
-1.45068e-37
9.08445e-37
-7.11503e-37
-5.42663e-37
1.25652e-36
-1.84505e-36
-8.52656e-38
-3.1529e-37
2.34455e-36
-1.46339e-36
1.63603e-36
-6.55714e-36
4.97653e-35
9.42022e-36
2.91928e-34
-5.14098e-34
-2.57067e-33
-8.56807e-33
6.00662e-34
-2.02946e-31
1.7455e-30
-1.97861e-29
-8.70011e-29
-8.88446e-28
-7.35395e-27
-6.8328e-26
-6.25185e-25
-5.56658e-24
-4.77237e-23
-3.96358e-22
-3.31147e-21
-2.66557e-20
-2.06254e-19
-1.57363e-18
-1.1037e-17
-8.23654e-17
-5.57198e-16
-3.8167e-15
-2.88488e-14
-2.08147e-13
-1.3901e-12
-9.12904e-12
-4.7518e-11
-2.33819e-10
-1.26776e-09
-6.27675e-09
-2.73702e-08
-1.05641e-07
-3.32832e-07
-1.04304e-06
-3.13141e-06
-8.50529e-06
-2.06041e-05
-4.50135e-05
-8.69533e-05
-0.000159236
-0.000286285
-0.000484074
-0.000738376
-0.00111166
-0.00183328
-0.00342327
-0.00689804
-0.0145307
-0.0310822
-0.0624425
-0.106706
-0.140929
0.0752571
0.384246
0.184977
0.0294117
-0.0939661
-0.0779779
-0.0447658
-0.0239925
-0.0124905
-0.00674716
-0.00370784
-0.00205463
-0.00113695
-0.000623353
-0.000330359
-0.000172429
-8.50464e-05
-4.04636e-05
-1.82483e-05
-7.53402e-06
-2.56226e-06
-8.19059e-07
-2.81983e-07
-9.91481e-08
-1.51241e-08
1.9354e-39
2.57024e-38
5.41923e-38
-1.22115e-38
3.82672e-38
2.89733e-38
7.61135e-37
-1.23578e-37
-1.28497e-36
4.62416e-37
7.95352e-37
3.11996e-37
-1.15956e-36
-1.33508e-36
3.54778e-36
-3.55798e-37
9.28182e-38
-1.92291e-36
-9.3341e-36
-8.03774e-35
1.15296e-34
2.49426e-34
2.00447e-33
-2.61525e-33
1.0935e-32
2.13848e-31
-6.84129e-32
2.9396e-30
-1.66084e-29
-1.15695e-28
-1.46727e-27
-1.26791e-26
-1.16112e-25
-1.0482e-24
-9.08456e-24
-7.7268e-23
-6.22436e-22
-4.82031e-21
-3.91711e-20
-3.04022e-19
-2.22621e-18
-1.5918e-17
-1.07941e-16
-7.70068e-16
-5.21745e-15
-3.84198e-14
-2.65911e-13
-1.84822e-12
-9.97935e-12
-5.09495e-11
-2.89646e-10
-1.52824e-09
-7.57002e-09
-3.35884e-08
-1.11722e-07
-3.49936e-07
-1.08668e-06
-3.2099e-06
-8.60952e-06
-2.06954e-05
-4.49146e-05
-8.6374e-05
-0.000157503
-0.000281983
-0.000476079
-0.000726679
-0.0010952
-0.00180108
-0.0033538
-0.0067473
-0.0142256
-0.0304888
-0.0615729
-0.105895
-0.141414
0.0669572
0.389162
0.187996
0.0298228
-0.0949393
-0.0781143
-0.0447636
-0.0239202
-0.0124481
-0.0067189
-0.00368935
-0.00204209
-0.00112824
-0.000617192
-0.000326304
-0.000169628
-8.34057e-05
-3.94827e-05
-1.77205e-05
-7.2247e-06
-2.42918e-06
-7.79157e-07
-2.70659e-07
-9.34662e-08
-1.44713e-08
1.27859e-39
2.51911e-38
-1.39765e-37
2.30527e-38
-4.71441e-38
-2.1546e-37
-1.40956e-37
-1.95834e-37
-2.4238e-37
-4.1597e-37
3.73428e-37
8.53313e-37
-4.58389e-37
-3.12967e-36
-8.89492e-38
-1.65138e-36
3.6025e-37
-6.31354e-36
-8.85706e-37
-2.95605e-35
3.77567e-34
-1.47887e-33
-7.37259e-34
-4.07479e-33
-2.64531e-32
-2.6564e-32
2.15112e-30
-9.34289e-30
-7.01909e-30
-2.46093e-28
-2.23291e-27
-2.09782e-26
-1.89151e-25
-1.60891e-24
-1.35715e-23
-1.12366e-22
-8.85168e-22
-6.76789e-21
-5.47499e-20
-4.49877e-19
-3.1418e-18
-2.12224e-17
-1.45043e-16
-1.01323e-15
-6.88679e-15
-4.84104e-14
-3.47383e-13
-2.01854e-12
-1.09382e-11
-6.17519e-11
-3.45053e-10
-1.80131e-09
-8.53113e-09
-3.68862e-08
-1.20754e-07
-3.69597e-07
-1.12083e-06
-3.27871e-06
-8.68674e-06
-2.07182e-05
-4.47263e-05
-8.57468e-05
-0.000155904
-0.000278385
-0.000470159
-0.000718819
-0.00108182
-0.00177285
-0.00329371
-0.00663194
-0.0140026
-0.0300584
-0.0609664
-0.105373
-0.141674
0.0605124
0.39288
0.190459
0.0303225
-0.0956997
-0.0782723
-0.0447944
-0.0238837
-0.0124361
-0.00671074
-0.00368319
-0.002037
-0.00112395
-0.00061364
-0.000323987
-0.00016789
-8.24061e-05
-3.88588e-05
-1.73761e-05
-7.01141e-06
-2.3393e-06
-7.52375e-07
-2.62858e-07
-9.08749e-08
-1.39409e-08
-5.969e-39
4.85428e-38
-2.75578e-38
-1.00021e-38
1.41619e-37
8.34383e-38
-1.30853e-37
-4.17165e-37
-4.44152e-37
6.60826e-37
6.1403e-37
-1.16274e-36
4.42455e-37
-1.34873e-37
3.69311e-37
9.95996e-37
-3.75078e-36
2.37319e-35
-4.57283e-36
-1.25089e-34
1.92424e-34
1.18877e-33
2.29734e-33
1.1979e-32
4.12251e-32
-3.14357e-32
4.777e-31
-8.99238e-30
-5.06654e-29
-3.72864e-28
-3.71939e-27
-3.20637e-26
-2.78674e-25
-2.3681e-24
-1.9428e-23
-1.60698e-22
-1.33186e-21
-9.90821e-21
-8.01053e-20
-5.97082e-19
-4.19605e-18
-2.88861e-17
-1.94154e-16
-1.25613e-15
-8.58722e-15
-5.98532e-14
-3.93707e-13
-2.06609e-12
-1.25879e-11
-7.22965e-11
-3.90592e-10
-1.99304e-09
-9.25555e-09
-3.92604e-08
-1.26884e-07
-3.84487e-07
-1.14802e-06
-3.32065e-06
-8.73148e-06
-2.06978e-05
-4.44967e-05
-8.50912e-05
-0.000154347
-0.000275061
-0.000464758
-0.000711979
-0.00107124
-0.00175039
-0.00324628
-0.00653023
-0.0137936
-0.0296323
-0.0603571
-0.104781
-0.141865
0.0536146
0.396124
0.192977
0.0313784
-0.0962037
-0.0785377
-0.0449091
-0.0239079
-0.012455
-0.00672004
-0.00368725
-0.00203811
-0.00112352
-0.000612518
-0.00032311
-0.000167045
-8.19058e-05
-3.85157e-05
-1.71761e-05
-6.87684e-06
-2.28198e-06
-7.35335e-07
-2.58097e-07
-8.92685e-08
-1.36007e-08
-4.07487e-39
6.04011e-39
6.53327e-38
2.01358e-37
-2.10214e-37
-1.91117e-37
1.61449e-37
2.04447e-37
-4.58321e-38
6.6865e-37
-5.88777e-37
-3.56011e-37
7.87359e-37
-4.91848e-36
4.62167e-37
-3.18175e-36
4.71448e-36
2.84954e-35
6.61118e-35
1.57154e-34
-2.92876e-34
-9.45783e-34
6.10105e-33
1.27709e-32
5.52551e-32
-1.63942e-31
-2.85342e-31
-2.13588e-29
-3.63363e-29
-6.20923e-28
-5.54471e-27
-4.72651e-26
-4.0396e-25
-3.39795e-24
-2.71384e-23
-2.18574e-22
-1.75656e-21
-1.28451e-20
-1.02726e-19
-7.6809e-19
-5.40805e-18
-3.58881e-17
-2.44719e-16
-1.58473e-15
-1.092e-14
-7.39805e-14
-4.26689e-13
-2.43766e-12
-1.46458e-11
-8.28514e-11
-4.46237e-10
-2.20853e-09
-1.00057e-08
-4.15598e-08
-1.3239e-07
-3.95934e-07
-1.16812e-06
-3.34688e-06
-8.73629e-06
-2.06027e-05
-4.41506e-05
-8.43044e-05
-0.00015264
-0.000271738
-0.000459193
-0.000704129
-0.00106048
-0.00172856
-0.00319859
-0.00642684
-0.0135761
-0.0291903
-0.0596553
-0.104042
-0.141926
0.045404
0.399033
0.19573
0.0331853
-0.0964233
-0.0789416
-0.0451302
-0.024003
-0.0125077
-0.00674742
-0.00370143
-0.00204513
-0.00112666
-0.000613618
-0.000323502
-0.000166977
-8.18185e-05
-3.84017e-05
-1.70929e-05
-6.80897e-06
-2.25007e-06
-7.26284e-07
-2.55647e-07
-8.84544e-08
-1.3413e-08
3.34458e-39
-7.79241e-38
3.68041e-38
2.56805e-38
5.77368e-37
6.25296e-39
6.93067e-38
-1.31657e-37
7.82572e-37
-8.55482e-37
-1.57122e-36
1.04562e-36
-2.15738e-36
4.14933e-37
-4.65004e-37
3.44581e-37
9.00147e-36
2.7715e-35
-6.35822e-35
2.80995e-34
-2.49735e-34
2.76265e-33
-1.48682e-33
2.9941e-32
-1.18752e-32
8.57476e-32
1.59176e-30
-1.90279e-29
-9.06106e-29
-8.5584e-28
-7.84082e-27
-6.52963e-26
-5.53893e-25
-4.6458e-24
-3.73889e-23
-2.9517e-22
-2.31578e-21
-1.64257e-20
-1.29775e-19
-9.63017e-19
-6.5936e-18
-4.52091e-17
-3.0057e-16
-1.9961e-15
-1.20939e-14
-7.09315e-14
-4.67139e-13
-2.87725e-12
-1.68636e-11
-9.47813e-11
-4.94713e-10
-2.3932e-09
-1.06368e-08
-4.34333e-08
-1.36416e-07
-4.0384e-07
-1.18008e-06
-3.35383e-06
-8.69911e-06
-2.0427e-05
-4.36447e-05
-8.31584e-05
-0.000150405
-0.000267115
-0.00045244
-0.000696251
-0.00104704
-0.00170315
-0.0031398
-0.00630357
-0.013302
-0.0286582
-0.0588524
-0.103182
-0.141912
0.0358036
0.401716
0.19885
0.0358108
-0.0963681
-0.0794992
-0.0454638
-0.0241695
-0.0125935
-0.00679216
-0.00372509
-0.00205757
-0.00113302
-0.000616682
-0.000324982
-0.000167567
-8.20722e-05
-3.8474e-05
-1.71039e-05
-6.78573e-06
-2.23794e-06
-7.23149e-07
-2.55027e-07
-8.82657e-08
-1.33441e-08
-5.09001e-39
-3.06571e-38
3.46786e-38
1.19428e-37
-4.74928e-38
-7.35379e-38
9.21425e-38
-8.13368e-38
-3.28357e-37
5.72964e-37
-1.22813e-38
1.38609e-36
1.61957e-36
-2.15704e-36
-1.35418e-36
-2.85463e-36
-4.88832e-36
5.43445e-35
1.38888e-35
-9.62734e-35
-6.22498e-34
-3.72292e-33
6.08422e-33
-2.2234e-32
-1.13759e-31
-1.92152e-31
7.32208e-30
-1.4883e-29
-1.79575e-28
-1.15732e-27
-1.05992e-26
-9.04344e-26
-7.34067e-25
-6.00818e-24
-4.73039e-23
-3.66654e-22
-2.73735e-21
-1.99592e-20
-1.58339e-19
-1.14413e-18
-7.69953e-18
-5.19162e-17
-3.43135e-16
-2.11536e-15
-1.25502e-14
-8.50307e-14
-5.43139e-13
-3.30504e-12
-1.93676e-11
-1.06195e-10
-5.44136e-10
-2.58414e-09
-1.12468e-08
-4.46596e-08
-1.39112e-07
-4.09539e-07
-1.18551e-06
-3.34588e-06
-8.63597e-06
-2.02186e-05
-4.31286e-05
-8.20768e-05
-0.00014802
-0.000262596
-0.000445432
-0.000687277
-0.00103422
-0.00167791
-0.00308212
-0.00617327
-0.0130303
-0.0280962
-0.0579196
-0.102021
-0.141598
0.0240176
0.404453
0.20279
0.0393989
-0.0960413
-0.0802027
-0.0459003
-0.0243989
-0.0127081
-0.00685134
-0.00375665
-0.00207448
-0.00114201
-0.000621347
-0.000327337
-0.000168681
-8.25971e-05
-3.8693e-05
-1.7189e-05
-6.80535e-06
-2.24122e-06
-7.24599e-07
-2.55824e-07
-8.85594e-08
-1.3366e-08
-1.07747e-38
3.53069e-38
9.88254e-38
2.36265e-38
1.43841e-37
9.41749e-38
-1.36734e-37
-1.20191e-37
-8.85139e-38
2.99086e-37
-1.69004e-36
-1.68722e-36
-1.48203e-36
4.19922e-36
1.2607e-36
2.35352e-36
-1.31323e-35
3.07733e-35
-1.62766e-34
6.65508e-35
-1.42518e-33
3.53015e-33
7.73201e-33
1.20822e-32
1.12437e-31
-9.79988e-32
3.61867e-30
-1.78881e-29
-1.82118e-28
-1.5751e-27
-1.33718e-26
-1.13041e-25
-9.32887e-25
-7.61294e-24
-5.88994e-23
-4.48797e-22
-3.37745e-21
-2.37864e-20
-1.91428e-19
-1.32975e-18
-8.87622e-18
-5.79863e-17
-3.65257e-16
-2.23724e-15
-1.48975e-14
-9.87454e-14
-6.28149e-13
-3.82705e-12
-2.20531e-11
-1.19823e-10
-6.09832e-10
-2.87902e-09
-1.25965e-08
-4.49109e-08
-1.40917e-07
-4.12836e-07
-1.18466e-06
-3.32231e-06
-8.53586e-06
-1.98969e-05
-4.23793e-05
-8.06821e-05
-0.000145766
-0.000258226
-0.000438712
-0.000678649
-0.00102103
-0.00165139
-0.00302676
-0.00605232
-0.0127558
-0.0275116
-0.0569038
-0.10086
-0.141397
0.0124642
0.40624
0.206592
0.0432596
-0.0955076
-0.080985
-0.0464014
-0.0246714
-0.0128432
-0.00692227
-0.00379424
-0.00209472
-0.00115293
-0.000627217
-0.000330352
-0.000170194
-8.33243e-05
-3.90212e-05
-1.73295e-05
-6.85493e-06
-2.25584e-06
-7.29416e-07
-2.57658e-07
-8.92046e-08
-1.34539e-08
4.16145e-39
-5.77259e-40
9.39695e-38
2.23803e-37
1.7196e-37
7.32018e-38
2.80022e-37
3.98635e-37
-3.51655e-37
1.26897e-36
-2.91486e-37
1.00832e-36
-1.1456e-37
3.41453e-37
-1.26084e-36
-2.33673e-36
2.40531e-35
-5.71673e-35
-1.72847e-34
-2.10334e-34
-3.63633e-34
-1.27685e-33
-8.2025e-34
-4.52867e-32
1.50705e-32
3.59365e-31
1.80431e-30
-3.68419e-29
-2.18314e-28
-1.87885e-27
-1.57558e-26
-1.37311e-25
-1.15182e-24
-9.17338e-24
-7.3098e-23
-5.47915e-22
-3.98034e-21
-2.80678e-20
-2.11258e-19
-1.55059e-18
-1.0116e-17
-6.51195e-17
-4.05882e-16
-2.57531e-15
-1.70578e-14
-1.12039e-13
-7.07552e-13
-4.28292e-12
-2.44599e-11
-1.31589e-10
-6.63369e-10
-3.10465e-09
-1.34094e-08
-4.45638e-08
-1.42322e-07
-4.14704e-07
-1.17957e-06
-3.29187e-06
-8.42543e-06
-1.96337e-05
-4.1755e-05
-7.94661e-05
-0.000143265
-0.000253832
-0.000432147
-0.000670372
-0.00100851
-0.00162595
-0.00297268
-0.00594261
-0.0124649
-0.0269195
-0.0559371
-0.0997271
-0.141064
0.00120901
0.407326
0.210571
0.0474429
-0.094793
-0.081825
-0.0469459
-0.0249725
-0.012992
-0.00700046
-0.00383663
-0.00211799
-0.00116569
-0.000634096
-0.000333888
-0.00017202
-8.42194e-05
-3.94406e-05
-1.7514e-05
-6.92717e-06
-2.27869e-06
-7.36618e-07
-2.60211e-07
-9.00914e-08
-1.35874e-08
1.53083e-39
-2.02434e-38
7.96193e-38
1.40816e-37
1.31505e-37
1.9255e-37
-2.53412e-37
-3.14972e-37
-1.72604e-37
5.15116e-37
-4.61548e-37
-2.18569e-36
6.17661e-36
-2.44673e-37
-1.33037e-37
5.78053e-36
-1.3217e-36
1.76934e-36
1.94798e-34
2.16463e-34
-1.80021e-33
-6.50824e-33
-4.12768e-33
-4.32796e-34
3.93039e-32
3.5417e-31
1.74895e-30
-1.01769e-29
-2.08567e-28
-2.59417e-27
-1.97555e-26
-1.69271e-25
-1.35678e-24
-1.10204e-23
-8.44072e-23
-6.26373e-22
-4.47177e-21
-3.14685e-20
-2.35458e-19
-1.74811e-18
-1.14955e-17
-7.47256e-17
-4.61887e-16
-2.9748e-15
-1.89542e-14
-1.24009e-13
-7.78942e-13
-4.63356e-12
-2.60919e-11
-1.38523e-10
-6.89143e-10
-3.18348e-09
-1.35549e-08
-4.42955e-08
-1.44166e-07
-4.15896e-07
-1.17199e-06
-3.25229e-06
-8.30463e-06
-1.93258e-05
-4.11564e-05
-7.82874e-05
-0.000141001
-0.000249501
-0.000425437
-0.000661796
-0.000995729
-0.00159997
-0.00291447
-0.00581887
-0.012197
-0.026366
-0.0549465
-0.0984635
-0.140541
-0.0105191
0.407952
0.214899
0.0518687
-0.0938842
-0.0827105
-0.04754
-0.025307
-0.0131541
-0.00708492
-0.0038819
-0.0021427
-0.00117929
-0.000641607
-0.000337796
-0.000174047
-8.51977e-05
-3.99003e-05
-1.77196e-05
-7.01178e-06
-2.30696e-06
-7.45546e-07
-2.63329e-07
-9.11777e-08
-1.37577e-08
-2.29946e-38
3.00398e-38
-5.75605e-38
1.07857e-37
8.1454e-38
-2.72034e-38
-2.49908e-37
-2.18003e-37
-8.58886e-37
-1.24899e-36
4.06095e-37
3.2693e-37
5.31146e-36
3.51741e-37
-7.19682e-38
-5.00875e-36
-2.40022e-36
1.90649e-35
-1.4062e-34
4.6464e-34
1.52902e-33
7.48266e-33
5.75262e-33
-3.36842e-32
-8.79774e-32
2.84325e-31
-1.06443e-29
-7.78359e-29
-3.20757e-28
-2.63617e-27
-2.27577e-26
-1.94131e-25
-1.56774e-24
-1.22602e-23
-9.41917e-23
-6.96137e-22
-5.04672e-21
-3.45278e-20
-2.66939e-19
-1.94095e-18
-1.24781e-17
-7.9627e-17
-5.11537e-16
-3.28233e-15
-2.07233e-14
-1.34505e-13
-8.31835e-13
-4.89176e-12
-2.72625e-11
-1.4327e-10
-7.0541e-10
-3.22947e-09
-1.35971e-08
-4.40007e-08
-1.45353e-07
-4.16242e-07
-1.16386e-06
-3.21746e-06
-8.19849e-06
-1.90342e-05
-4.04913e-05
-7.70737e-05
-0.000138941
-0.000245562
-0.000419386
-0.00065403
-0.00098406
-0.00157776
-0.00286221
-0.00570353
-0.0119464
-0.0258226
-0.0540258
-0.0973281
-0.140054
-0.0212627
0.407841
0.219113
0.0563262
-0.0928667
-0.0836133
-0.0481426
-0.0256466
-0.01332
-0.00717089
-0.00392778
-0.00216767
-0.001193
-0.000649151
-0.000341717
-0.000176113
-8.62132e-05
-4.03882e-05
-1.79412e-05
-7.109e-06
-2.33838e-06
-7.55283e-07
-2.66652e-07
-9.23251e-08
-1.39413e-08
-7.42838e-39
-5.19275e-40
-1.52185e-37
1.24007e-37
1.01138e-37
6.55828e-38
5.00361e-37
-4.53934e-37
2.1846e-37
1.06864e-36
8.05876e-37
2.01406e-36
1.95905e-36
8.15729e-37
2.51011e-36
2.62203e-36
-6.71902e-36
6.40028e-35
2.32182e-34
4.66174e-34
1.72247e-33
2.41829e-33
-4.5078e-33
3.23572e-32
6.27541e-32
2.09348e-31
-4.93003e-30
-4.76148e-29
-3.06246e-28
-3.02086e-27
-2.57608e-26
-2.17679e-25
-1.72264e-24
-1.34565e-23
-1.00276e-22
-7.27202e-22
-5.54621e-21
-3.77176e-20
-2.87258e-19
-1.98684e-18
-1.41085e-17
-8.89864e-17
-5.64548e-16
-3.45973e-15
-2.21129e-14
-1.42238e-13
-8.72832e-13
-5.09387e-12
-2.81807e-11
-1.47027e-10
-7.18383e-10
-3.25783e-09
-1.36069e-08
-4.37402e-08
-1.45889e-07
-4.15382e-07
-1.15313e-06
-3.17864e-06
-8.08147e-06
-1.87673e-05
-3.99079e-05
-7.59753e-05
-0.000136932
-0.000241989
-0.0004138
-0.000646824
-0.000973297
-0.00155652
-0.00280087
-0.00560169
-0.0117243
-0.0253452
-0.0531706
-0.0962675
-0.139611
-0.0308226
0.407094
0.223179
0.0604595
-0.0918419
-0.0844441
-0.048703
-0.0259643
-0.0134743
-0.007251
-0.0039706
-0.00219101
-0.00120585
-0.000656238
-0.000345403
-0.000178054
-8.71625e-05
-4.08445e-05
-1.81487e-05
-7.19578e-06
-2.36842e-06
-7.64589e-07
-2.69815e-07
-9.34206e-08
-1.41192e-08
-1.41663e-39
-2.42697e-38
-1.45637e-37
2.2429e-37
-1.23559e-37
-1.87346e-37
1.83163e-37
-5.02952e-37
-4.38377e-37
-1.84841e-37
7.52682e-38
2.1362e-36
3.44254e-37
5.13101e-37
1.87818e-36
3.6803e-36
-1.45213e-35
-1.09361e-34
1.06187e-34
-9.29517e-34
-1.06004e-33
-2.9004e-33
-9.48482e-33
3.48642e-32
-7.85386e-32
6.39315e-32
1.44009e-29
-4.75729e-29
-3.69306e-28
-3.45043e-27
-2.71157e-26
-2.30453e-25
-1.86567e-24
-1.45065e-23
-1.10176e-22
-8.23152e-22
-5.9509e-21
-4.35593e-20
-3.18992e-19
-2.27457e-18
-1.49205e-17
-9.36289e-17
-5.9411e-16
-3.59815e-15
-2.31855e-14
-1.48415e-13
-9.04561e-13
-5.24565e-12
-2.884e-11
-1.49522e-10
-7.26499e-10
-3.27568e-09
-1.36039e-08
-4.35121e-08
-1.46119e-07
-4.14161e-07
-1.14307e-06
-3.14042e-06
-7.97686e-06
-1.85144e-05
-3.93996e-05
-7.50564e-05
-0.000135296
-0.000239073
-0.000409125
-0.000640794
-0.000964527
-0.00153988
-0.00276511
-0.00551439
-0.011537
-0.0249464
-0.0524553
-0.0953854
-0.139217
-0.0386352
0.406116
0.226704
0.0639771
-0.0908947
-0.0851557
-0.0491846
-0.0262401
-0.0136083
-0.00732072
-0.00400791
-0.00221139
-0.00121709
-0.000662456
-0.000348647
-0.000179785
-8.80084e-05
-4.12537e-05
-1.83359e-05
-7.27625e-06
-2.39608e-06
-7.73101e-07
-2.72676e-07
-9.44044e-08
-1.42797e-08
1.38121e-38
1.39755e-38
6.95197e-39
-4.85703e-38
1.54663e-37
9.44245e-39
-8.05816e-38
3.17137e-37
1.23524e-36
6.10872e-37
3.25475e-37
-1.13083e-36
3.69429e-36
1.40624e-37
5.31215e-37
4.74963e-37
1.28534e-35
1.15355e-34
-1.48938e-34
8.04744e-34
4.04682e-34
4.21565e-33
-9.27927e-33
9.11204e-33
1.57579e-31
4.36317e-31
-2.0229e-29
-4.74295e-29
-2.67074e-28
-3.16924e-27
-2.89625e-26
-2.5613e-25
-2.0145e-24
-1.56429e-23
-1.18366e-22
-8.88967e-22
-6.48179e-21
-4.61307e-20
-3.33698e-19
-2.2955e-18
-1.52611e-17
-9.68353e-17
-5.81428e-16
-3.71518e-15
-2.41349e-14
-1.53224e-13
-9.29082e-13
-5.36287e-12
-2.935e-11
-1.51461e-10
-7.32635e-10
-3.28845e-09
-1.35991e-08
-4.33415e-08
-1.46156e-07
-4.12901e-07
-1.13443e-06
-3.11213e-06
-7.9e-06
-1.83325e-05
-3.902e-05
-7.43163e-05
-0.000133941
-0.00023654
-0.000405278
-0.000635877
-0.00095723
-0.0015256
-0.00273311
-0.00544678
-0.011394
-0.024635
-0.0519079
-0.0946824
-0.138892
-0.0445845
0.405021
0.229537
0.0667702
-0.0900882
-0.0857238
-0.0495777
-0.0264648
-0.0137173
-0.00737724
-0.00403812
-0.00222787
-0.00122618
-0.00066749
-0.000351274
-0.000181182
-8.8689e-05
-4.15811e-05
-1.84851e-05
-7.34493e-06
-2.41865e-06
-7.80058e-07
-2.75015e-07
-9.52098e-08
-1.44118e-08
-7.17298e-39
1.50974e-38
2.6401e-37
9.87167e-38
-2.39213e-37
2.61245e-37
1.20244e-37
4.28318e-37
4.15295e-38
-5.45826e-37
2.70828e-37
1.05529e-36
-2.34742e-37
-6.66206e-37
-2.07879e-36
4.61026e-36
-1.85369e-35
3.82643e-35
-5.0508e-35
-5.19651e-34
1.61483e-33
-1.1226e-33
-4.16508e-33
-2.58166e-32
2.35986e-31
3.58814e-31
-6.19599e-30
-4.50839e-29
-5.2966e-28
-3.63423e-27
-3.28694e-26
-2.5487e-25
-2.0955e-24
-1.61603e-23
-1.25873e-22
-9.48276e-22
-6.82283e-21
-4.63282e-20
-3.31833e-19
-2.40776e-18
-1.51589e-17
-9.60421e-17
-5.93622e-16
-3.79381e-15
-2.48162e-14
-1.56734e-13
-9.46827e-13
-5.44753e-12
-2.97215e-11
-1.52925e-10
-7.37117e-10
-3.29851e-09
-1.35989e-08
-4.32299e-08
-1.46155e-07
-4.11984e-07
-1.12851e-06
-3.09191e-06
-7.8445e-06
-1.82018e-05
-3.87501e-05
-7.38163e-05
-0.000133042
-0.000234893
-0.000402706
-0.000632514
-0.000952232
-0.00151587
-0.00271128
-0.00540033
-0.0112937
-0.02442
-0.0515203
-0.0942018
-0.138661
-0.0486571
0.404093
0.231564
0.0687459
-0.0894932
-0.0861242
-0.0498549
-0.0266241
-0.0137947
-0.00741739
-0.00405959
-0.0022396
-0.00123265
-0.000671081
-0.000353147
-0.000182181
-8.91774e-05
-4.18177e-05
-1.85939e-05
-7.39252e-06
-2.43497e-06
-7.85081e-07
-2.76698e-07
-9.57882e-08
-1.45069e-08
6.36123e-39
-1.85524e-38
9.69386e-39
-2.18752e-38
7.63259e-38
3.13713e-37
-2.37409e-37
-4.75282e-38
2.93066e-37
4.41476e-37
-5.60277e-37
-1.01687e-36
2.58396e-37
5.79057e-37
3.30384e-36
-1.25775e-35
-2.09965e-35
-2.2532e-35
4.21567e-35
7.34537e-34
-2.95307e-34
-6.20542e-33
-1.16152e-32
2.41509e-32
-1.02398e-31
3.77464e-31
-1.96766e-29
-4.75016e-29
-5.407e-28
-3.96305e-27
-3.24255e-26
-2.80328e-25
-2.16728e-24
-1.66951e-23
-1.29805e-22
-9.44319e-22
-6.94876e-21
-4.74954e-20
-3.62202e-19
-2.49944e-18
-1.59582e-17
-9.89782e-17
-6.00496e-16
-3.91e-15
-2.51529e-14
-1.58905e-13
-9.58641e-13
-5.50446e-12
-2.99686e-11
-1.53869e-10
-7.40106e-10
-3.30551e-09
-1.36037e-08
-4.31805e-08
-1.46211e-07
-4.11618e-07
-1.12567e-06
-3.08193e-06
-7.81631e-06
-1.81338e-05
-3.86072e-05
-7.35583e-05
-0.000132584
-0.00023405
-0.000401363
-0.000630754
-0.00094958
-0.00151063
-0.00269956
-0.00537513
-0.0112402
-0.0243067
-0.051312
-0.0939458
-0.138536
-0.0507841
0.403508
0.232645
0.0697934
-0.089164
-0.0863383
-0.0500046
-0.0267108
-0.0138368
-0.00743929
-0.00407131
-0.00224601
-0.00123619
-0.00067304
-0.00035417
-0.000182726
-8.94436e-05
-4.19472e-05
-1.86529e-05
-7.41704e-06
-2.44359e-06
-7.87743e-07
-2.77595e-07
-9.60987e-08
-1.45582e-08
-6.36919e-39
8.65821e-38
4.53031e-38
8.09487e-38
1.56146e-37
4.57594e-37
-2.74335e-38
8.15594e-37
-1.34017e-37
-7.17405e-37
9.49507e-37
5.71287e-37
1.7731e-37
1.0747e-37
2.56157e-36
5.66429e-36
-1.72796e-35
-2.72865e-35
1.58837e-34
-2.5074e-34
-2.78817e-33
6.67374e-33
-2.72364e-32
4.19078e-32
-1.60727e-31
1.98435e-30
-9.44321e-30
-4.97699e-29
-3.98576e-28
-4.02088e-27
-3.47464e-26
-2.82491e-25
-2.23798e-24
-1.79168e-23
-1.34854e-22
-9.73923e-22
-7.18516e-21
-4.91154e-20
-3.6451e-19
-2.44761e-18
-1.63166e-17
-1.01097e-16
-6.20473e-16
-3.93396e-15
-2.53743e-14
-1.60242e-13
-9.65723e-13
-5.53921e-12
-3.01256e-11
-1.54512e-10
-7.42427e-10
-3.31225e-09
-1.36177e-08
-4.3189e-08
-1.46388e-07
-4.11815e-07
-1.12542e-06
-3.08013e-06
-7.81047e-06
-1.81193e-05
-3.85769e-05
-7.35034e-05
-0.000132489
-0.000233884
-0.000401106
-0.000630424
-0.000949091
-0.00150968
-0.00269745
-0.00537077
-0.0112312
-0.0242878
-0.0512822
-0.0939035
-0.138513
-0.0511136
0.403449
0.232815
0.0699561
-0.0891108
-0.0863702
-0.0500271
-0.0267238
-0.0138432
-0.00744262
-0.0040731
-0.00224698
-0.00123673
-0.000673337
-0.000354326
-0.000182809
-8.94834e-05
-4.19664e-05
-1.86619e-05
-7.4222e-06
-2.44511e-06
-7.88191e-07
-2.77734e-07
-9.61429e-08
-1.4565e-08
-1.17836e-39
-2.37642e-38
6.37759e-39
-7.51114e-38
8.91162e-38
-2.27774e-37
-5.47594e-37
-5.50719e-37
1.11883e-37
8.92579e-37
-1.64322e-36
2.68558e-38
-1.51017e-37
-6.82053e-37
-1.1936e-36
1.82975e-36
-2.37335e-35
-8.88531e-35
9.81105e-35
7.00061e-34
5.86638e-34
-4.18115e-33
-1.85734e-33
-1.3001e-32
-6.28333e-32
-2.51187e-31
-1.89376e-29
-4.52095e-29
-4.06879e-28
-3.93212e-27
-3.61704e-26
-2.88295e-25
-2.32604e-24
-1.78753e-23
-1.37162e-22
-1.00021e-21
-7.26978e-21
-5.05047e-20
-3.69406e-19
-2.54363e-18
-1.63648e-17
-1.00818e-16
-6.3144e-16
-3.96392e-15
-2.53461e-14
-1.60829e-13
-9.68742e-13
-5.55525e-12
-3.02086e-11
-1.54919e-10
-7.44293e-10
-3.32013e-09
-1.36482e-08
-4.32808e-08
-1.4677e-07
-4.12864e-07
-1.12886e-06
-3.08964e-06
-7.8341e-06
-1.81726e-05
-3.86852e-05
-7.37006e-05
-0.00013284
-0.000234522
-0.000402109
-0.000631717
-0.000950994
-0.00151337
-0.0027057
-0.0053885
-0.0112689
-0.0243701
-0.0514302
-0.094088
-0.138602
-0.0495702
0.403829
0.232014
0.0691838
-0.0893498
-0.0862137
-0.0499179
-0.0266607
-0.0138127
-0.00742678
-0.00406463
-0.00224236
-0.00123417
-0.000671915
-0.000353583
-0.00018241
-8.92893e-05
-4.18716e-05
-1.86178e-05
-7.40128e-06
-2.43808e-06
-7.86042e-07
-2.77023e-07
-9.59001e-08
-1.45249e-08
2.27566e-39
-3.72869e-38
-5.97662e-39
1.56401e-38
-6.14121e-39
-2.64905e-37
-2.80232e-37
4.3852e-37
-7.42098e-38
2.38576e-37
-3.66013e-38
1.42455e-36
4.48828e-38
-8.96882e-37
1.81414e-36
-6.89496e-36
-1.82121e-35
-2.3784e-35
2.31317e-34
-3.85821e-34
-3.18935e-33
-4.91194e-33
-1.92354e-32
-5.86968e-32
-1.97982e-32
2.34468e-30
1.65187e-29
-1.46405e-29
-4.12467e-28
-3.89578e-27
-3.45877e-26
-2.73647e-25
-2.31399e-24
-1.75707e-23
-1.294e-22
-9.31338e-22
-6.9984e-21
-4.59796e-20
-3.49025e-19
-2.52133e-18
-1.5841e-17
-1.00503e-16
-6.10343e-16
-3.96331e-15
-2.53309e-14
-1.6037e-13
-9.66785e-13
-5.54913e-12
-3.02032e-11
-1.55032e-10
-7.455e-10
-3.32824e-09
-1.36917e-08
-4.34509e-08
-1.47361e-07
-4.14784e-07
-1.13599e-06
-3.11029e-06
-7.88612e-06
-1.829e-05
-3.89246e-05
-7.41366e-05
-0.00013361
-0.000235925
-0.000404296
-0.000634521
-0.000955129
-0.00152147
-0.00272381
-0.00542739
-0.0113522
-0.0245466
-0.0517525
-0.0944909
-0.138794
-0.0461545
0.40466
0.2303
0.067523
-0.08986
-0.0858738
-0.049681
-0.0265239
-0.0137464
-0.00739239
-0.00404624
-0.00223231
-0.00122862
-0.000668832
-0.000351974
-0.00018155
-8.88682e-05
-4.16666e-05
-1.85237e-05
-7.35762e-06
-2.42383e-06
-7.81645e-07
-2.75545e-07
-9.5389e-08
-1.444e-08
-1.81969e-38
2.28045e-38
-4.96525e-38
1.20959e-37
-8.21617e-38
6.14734e-38
3.05195e-37
4.17779e-38
-6.6751e-37
3.44368e-37
-2.46137e-36
9.60361e-37
3.50563e-37
2.77113e-37
-2.63952e-36
1.0739e-35
1.92673e-35
-5.88028e-35
2.03615e-34
3.52508e-34
-2.70253e-33
2.85788e-33
-9.29159e-33
7.21813e-33
-1.37144e-31
-1.39633e-31
1.74119e-29
-4.43243e-29
-4.82861e-28
-3.82686e-27
-3.33621e-26
-2.69682e-25
-2.19597e-24
-1.69435e-23
-1.29248e-22
-9.62459e-22
-6.90638e-21
-4.61642e-20
-3.44727e-19
-2.49139e-18
-1.58155e-17
-9.69798e-17
-6.03811e-16
-3.96351e-15
-2.50754e-14
-1.58949e-13
-9.60425e-13
-5.52379e-12
-3.01248e-11
-1.54926e-10
-7.46413e-10
-3.33827e-09
-1.37556e-08
-4.37183e-08
-1.48223e-07
-4.17744e-07
-1.14739e-06
-3.14376e-06
-7.97114e-06
-1.84823e-05
-3.93125e-05
-7.48386e-05
-0.000134843
-0.000238142
-0.000407712
-0.000638873
-0.000961564
-0.00153409
-0.00275208
-0.00548803
-0.0114822
-0.0248295
-0.0522519
-0.0951025
-0.139079
-0.0408469
0.40572
0.227734
0.0649987
-0.0906072
-0.0853618
-0.0493273
-0.0263207
-0.0136479
-0.0073412
-0.00401885
-0.00221734
-0.00122034
-0.000664234
-0.000349572
-0.000180267
-8.82425e-05
-4.13628e-05
-1.83843e-05
-7.29607e-06
-2.40256e-06
-7.751e-07
-2.73352e-07
-9.46315e-08
-1.43145e-08
1.50882e-38
-1.49861e-38
-1.38322e-38
2.099e-37
1.6343e-37
4.59417e-38
1.97885e-37
6.84964e-37
1.11141e-37
-5.01582e-37
-9.60247e-37
4.59941e-37
3.95173e-37
6.4536e-37
3.30746e-36
-2.22764e-36
-3.42329e-36
2.88257e-35
-5.31328e-35
-6.08232e-34
1.05443e-33
4.85225e-33
2.89412e-32
1.98015e-32
-1.92839e-31
2.19591e-30
1.4855e-29
-4.62129e-29
-4.29707e-28
-4.15829e-27
-3.05266e-26
-2.61784e-25
-2.07927e-24
-1.62788e-23
-1.24086e-22
-9.13543e-22
-6.69168e-21
-4.58238e-20
-3.2316e-19
-2.27717e-18
-1.55216e-17
-9.58079e-17
-5.81487e-16
-3.85251e-15
-2.47194e-14
-1.56753e-13
-9.49265e-13
-5.4741e-12
-2.99414e-11
-1.54463e-10
-7.46492e-10
-3.34849e-09
-1.38362e-08
-4.40811e-08
-1.4931e-07
-4.21532e-07
-1.16231e-06
-3.18815e-06
-8.08485e-06
-1.87409e-05
-3.98383e-05
-7.57984e-05
-0.000136552
-0.000241132
-0.000412217
-0.000644548
-0.000969958
-0.00155063
-0.00278901
-0.00556802
-0.0116514
-0.0251915
-0.0528958
-0.0959222
-0.139448
-0.0337295
0.406805
0.224469
0.0617192
-0.0915317