/*--------------------------------*- C++ -*----------------------------------*\
  =========                 |
  \\      /  F ield         | OpenFOAM: The Open Source CFD Toolbox
   \\    /   O peration     | Website:  https://openfoam.org
    \\  /    A nd           | Version:  10
     \\/     M anipulation  |
\*---------------------------------------------------------------------------*/
FoamFile
{
    format      ascii;
    class       volScalarField;
    location    "1";
    object      RR.C7H14;
}
// * * * * * * * * * * * * * * * * * * * * * * * * * * * * * * * * * * * * * //

dimensions      [1 -3 -1 0 0 0 0];

internalField   nonuniform List<scalar> 
4000
(
6.56211e-19
3.88285e-19
2.2097e-19
2.30039e-20
1.90113e-19
7.45474e-20
7.41948e-20
1.13188e-19
9.3751e-20
1.12669e-19
1.37892e-19
-1.52453e-21
1.53956e-19
-3.63775e-21
1.43237e-19
6.68461e-19
4.44883e-19
1.61399e-19
4.37766e-20
2.87473e-19
9.04145e-20
4.06219e-19
1.07885e-18
5.36383e-19
2.14165e-18
-8.84993e-19
2.0938e-18
1.49287e-18
4.44201e-18
5.05348e-18
2.33684e-17
5.09162e-17
1.79378e-16
6.21693e-16
2.1083e-15
7.17466e-15
2.33997e-14
7.85228e-14
2.65372e-13
8.88305e-13
2.83708e-12
8.92848e-12
2.69331e-11
7.89744e-11
2.23298e-10
6.40721e-10
1.80131e-09
4.66055e-09
1.06486e-08
2.05789e-08
3.28146e-08
4.38179e-08
5.09475e-08
5.68999e-08
6.39745e-08
7.71538e-08
1.06879e-07
1.95158e-07
5.35214e-07
2.32714e-06
1.41592e-05
8.74882e-05
0.000404105
0.00085058
0.00125063
0.00176834
0.00279033
0.00542381
0.0123476
0.0286456
0.0639204
0.136407
0.263863
0.36344
0.213083
-0.0568512
-0.114874
-0.132804
-0.125521
-0.0819763
-0.0429979
-0.021683
-0.0111525
-0.00588033
-0.00317331
-0.00174799
-0.000972333
-0.000540863
-0.000298215
-0.000161858
-8.63636e-05
-4.46231e-05
-2.17757e-05
-7.537e-06
-1.40905e-06
5.00734e-09
6.41262e-08
1.26223e-09
-4.70854e-10
-7.22991e-12
4.00149e-19
1.04208e-18
-1.74041e-19
7.97136e-19
1.01518e-18
4.18034e-19
6.43546e-19
1.11269e-19
2.50099e-20
4.584e-19
-8.09319e-20
-2.15588e-20
2.75607e-19
-1.41256e-19
2.87096e-20
8.76977e-19
9.2987e-19
9.27738e-19
2.05265e-18
2.26051e-18
1.47908e-18
5.33872e-19
1.59023e-18
1.06025e-18
4.20198e-18
2.42192e-18
1.27006e-18
2.70729e-18
1.01426e-18
8.99863e-18
2.01651e-17
6.51299e-17
2.38312e-16
8.5899e-16
2.85988e-15
9.73778e-15
3.25291e-14
1.10945e-13
3.6051e-13
1.1814e-12
3.80386e-12
1.17515e-11
3.56472e-11
1.03238e-10
3.05166e-10
8.75426e-10
2.39752e-09
5.95582e-09
1.299e-08
2.39014e-08
3.53969e-08
4.46599e-08
5.20174e-08
5.77933e-08
6.52577e-08
8.01766e-08
1.12603e-07
2.0884e-07
5.78988e-07
2.45322e-06
1.45165e-05
8.7231e-05
0.000396322
0.000838477
0.00123315
0.00173779
0.0027093
0.00520844
0.011774
0.027326
0.0615162
0.132004
0.258588
0.3658
0.226137
-0.0527568
-0.114979
-0.133747
-0.126879
-0.0828156
-0.0433321
-0.0218191
-0.0112122
-0.00590547
-0.00318345
-0.00175151
-0.000972874
-0.00054021
-0.000297168
-0.000160844
-8.55816e-05
-4.41278e-05
-2.11919e-05
-7.06463e-06
-1.23e-06
3.11146e-08
6.27216e-08
1.02698e-10
-4.22841e-10
-6.51882e-12
2.62005e-18
2.60512e-19
2.81454e-19
9.30573e-19
3.65783e-18
3.60499e-19
-1.09354e-19
-5.66305e-19
1.60431e-18
2.12585e-19
9.81928e-19
5.76102e-19
3.1996e-19
7.69587e-19
1.55897e-19
9.70251e-19
-3.8971e-20
1.90964e-19
1.34181e-18
6.21439e-19
2.29805e-18
-5.35556e-19
5.00883e-19
2.55552e-18
3.16402e-18
6.86769e-18
2.17179e-18
6.34715e-18
2.70276e-18
1.17334e-17
3.13152e-17
8.18846e-17
3.1169e-16
1.07587e-15
3.78486e-15
1.26972e-14
4.24216e-14
1.40768e-13
4.64855e-13
1.48097e-12
4.70019e-12
1.39675e-11
4.39796e-11
1.26497e-10
3.77629e-10
1.06067e-09
2.87462e-09
6.96835e-09
1.44953e-08
2.5752e-08
3.70023e-08
4.60032e-08
5.29617e-08
5.88906e-08
6.67518e-08
8.17852e-08
1.15439e-07
2.16205e-07
6.02895e-07
2.56015e-06
1.49147e-05
8.77256e-05
0.000391466
0.000828176
0.00121901
0.00171316
0.0026418
0.00499829
0.0112612
0.0262624
0.0595202
0.12796
0.253543
0.367334
0.239578
-0.0482024
-0.115199
-0.134995
-0.128537
-0.0837796
-0.0437192
-0.0219801
-0.0112831
-0.00593
-0.00319197
-0.00175366
-0.000972361
-0.000538717
-0.000295566
-0.000159297
-8.44185e-05
-4.34047e-05
-2.0364e-05
-6.46481e-06
-1.0277e-06
5.53541e-08
6.05232e-08
-7.68255e-10
-3.75387e-10
-5.82153e-12
1.02379e-18
-2.27137e-19
5.83037e-19
1.42787e-18
8.89878e-19
1.72532e-18
5.66194e-19
-3.14561e-19
8.95304e-19
1.44921e-18
2.89904e-18
2.14841e-18
2.67719e-19
6.5723e-19
7.88376e-19
1.03926e-18
2.30754e-18
1.94893e-18
2.9157e-18
1.40691e-18
7.33133e-19
5.27737e-18
5.16686e-18
-8.2951e-19
1.91671e-18
4.69659e-18
2.98685e-18
-1.11817e-19
5.8914e-18
1.09838e-17
2.25706e-17
1.25585e-16
4.22267e-16
1.41945e-15
4.85292e-15
1.63465e-14
5.34426e-14
1.79054e-13
5.81943e-13
1.85155e-12
5.83316e-12
1.74935e-11
5.39084e-11
1.5497e-10
4.38662e-10
1.25981e-09
3.3362e-09
7.8247e-09
1.61856e-08
2.67483e-08
3.77325e-08
4.73709e-08
5.40469e-08
5.98528e-08
6.82089e-08
8.2947e-08
1.1845e-07
2.24294e-07
6.3155e-07
2.6517e-06
1.51833e-05
8.75927e-05
0.00038624
0.000820304
0.0012084
0.00169466
0.00259043
0.00484613
0.0108455
0.0253293
0.0576373
0.124227
0.249062
0.368267
0.251971
-0.0454866
-0.115561
-0.13633
-0.13016
-0.0846487
-0.044052
-0.0221397
-0.0113958
-0.0059027
-0.00318231
-0.00174934
-0.000969707
-0.000536896
-0.000294728
-0.000156782
-8.29325e-05
-4.26173e-05
-1.95258e-05
-5.90793e-06
-8.46793e-07
7.34081e-08
5.80098e-08
-1.32851e-09
-3.35189e-10
-5.22648e-12
4.85588e-19
8.67831e-19
2.97571e-19
3.11934e-19
4.78622e-19
3.6775e-19
1.94935e-18
2.57454e-19
-7.22388e-19
1.19828e-19
6.5663e-19
7.25252e-19
-2.94447e-20
2.53418e-20
8.12799e-19
-3.97064e-19
1.12486e-18
6.11797e-19
3.81063e-18
2.69834e-18
5.76689e-19
6.43049e-18
3.12879e-19
3.10556e-18
1.67214e-18
1.75104e-18
5.1991e-18
6.10614e-18
7.76158e-19
1.72982e-17
4.67891e-17
1.61695e-16
5.62508e-16
1.84369e-15
6.19987e-15
2.0817e-14
6.7307e-14
2.14817e-13
7.05437e-13
2.2541e-12
6.94578e-12
2.10835e-11
6.16722e-11
1.82606e-10
5.13101e-10
1.44839e-09
3.73137e-09
8.8166e-09
1.67235e-08
2.725e-08
3.91332e-08
4.83118e-08
5.4828e-08
6.0952e-08
6.8901e-08
8.42796e-08
1.21547e-07
2.31686e-07
6.52583e-07
2.73724e-06
1.54855e-05
8.80187e-05
0.00038344
0.000814564
0.00120053
0.00168111
0.00255629
0.00474091
0.0105644
0.024669
0.0563229
0.121715
0.245696
0.369275
0.262131
-0.0419036
-0.115855
-0.137579
-0.131629
-0.0854017
-0.04433
-0.0222591
-0.0114516
-0.00593084
-0.00319501
-0.00175466
-0.000971439
-0.000536947
-0.000294077
-0.000156095
-8.23388e-05
-4.22302e-05
-1.8913e-05
-5.48474e-06
-7.13101e-07
8.65409e-08
5.59509e-08
-1.63227e-09
-3.03584e-10
-4.81254e-12
2.26108e-19
-1.22228e-20
-2.05272e-19
7.49238e-19
1.84344e-19
4.93471e-19
1.30615e-18
1.76829e-18
3.94528e-19
-3.36961e-19
3.10198e-19
1.18134e-18
1.46152e-18
1.36705e-18
1.50306e-18
2.57708e-18
1.22322e-18
1.05825e-18
1.61263e-18
7.09383e-19
7.2056e-18
4.94863e-18
7.80874e-18
3.84313e-18
3.26954e-18
-2.66881e-18
5.33938e-18
4.47447e-18
7.91925e-18
2.06837e-17
6.13575e-17
1.99178e-16
6.67157e-16
2.29086e-15
7.53793e-15
2.50159e-14
8.18507e-14
2.54511e-13
8.34243e-13
2.75812e-12
8.2912e-12
2.43851e-11
7.15945e-11
2.09639e-10
5.89379e-10
1.61963e-09
4.21897e-09
9.13723e-09
1.72324e-08
2.85965e-08
4.0269e-08
4.91168e-08
5.53458e-08
6.15447e-08
6.98418e-08
8.57975e-08
1.24125e-07
2.39104e-07
6.73183e-07
2.80459e-06
1.56791e-05
8.79364e-05
0.000380046
0.000809499
0.00119455
0.00167191
0.00252966
0.00465004
0.0103093
0.0241318
0.0553203
0.11971
0.243122
0.370043
0.269103
-0.0390887
-0.11602
-0.138495
-0.132807
-0.0860646
-0.0445914
-0.0223763
-0.0115072
-0.00596437
-0.00321261
-0.00176346
-0.000975476
-0.000538464
-0.000294337
-0.000156061
-8.21529e-05
-4.20809e-05
-1.84929e-05
-5.18615e-06
-6.20512e-07
9.57196e-08
5.4486e-08
-1.79035e-09
-2.84248e-10
-4.51957e-12
8.84739e-20
4.94619e-19
1.1711e-20
3.61575e-19
5.49154e-19
4.52648e-19
-4.82278e-20
-3.80395e-19
4.03902e-19
2.96528e-19
3.58964e-19
2.49713e-19
4.63315e-19
2.13274e-18
1.54412e-18
2.27875e-18
1.36028e-18
1.04921e-18
1.43098e-18
-4.8732e-19
4.48878e-18
5.5077e-18
1.37209e-18
-6.99684e-19
1.89842e-18
6.6712e-18
-4.81018e-19
5.62178e-18
7.97497e-18
2.48987e-17
7.47035e-17
2.38049e-16
8.10646e-16
2.73675e-15
8.96159e-15
2.98923e-14
9.83472e-14
3.0972e-13
1.01732e-12
3.1862e-12
9.63642e-12
2.86725e-11
8.33514e-11
2.33721e-10
6.58359e-10
1.79556e-09
4.47172e-09
9.21997e-09
1.80618e-08
2.9731e-08
4.10554e-08
4.95856e-08
5.56934e-08
6.1952e-08
7.04813e-08
8.69915e-08
1.26323e-07
2.44162e-07
6.88776e-07
2.85332e-06
1.57716e-05
8.75146e-05
0.000376168
0.000804351
0.0011886
0.00166325
0.00250724
0.00457663
0.0101143
0.0236784
0.0544155
0.117902
0.240625
0.370389
0.275831
-0.0361607
-0.11603
-0.139194
-0.133899
-0.0867786
-0.0449115
-0.0225256
-0.0115802
-0.00600613
-0.00323491
-0.00177516
-0.000981387
-0.000541222
-0.00029543
-0.000156536
-8.22848e-05
-4.21101e-05
-1.82429e-05
-4.98788e-06
-5.56701e-07
1.02433e-07
5.35547e-08
-1.87677e-09
-2.71866e-10
-4.33187e-12
2.41765e-19
1.51136e-19
1.01347e-18
1.46346e-18
6.60854e-19
6.91944e-19
8.7452e-19
1.22797e-18
3.14171e-19
1.37843e-19
-7.69641e-20
7.78033e-19
7.95201e-19
5.25795e-19
7.5872e-19
8.166e-20
1.63067e-18
2.08579e-21
4.17525e-19
3.46137e-18
3.94701e-18
2.32863e-18
2.24329e-19
-3.05833e-18
2.26273e-18
1.52265e-18
3.23758e-18
6.40989e-18
1.40886e-17
1.97841e-17
8.22268e-17
2.97732e-16
1.00501e-15
3.23221e-15
1.06134e-14
3.46904e-14
1.14228e-13
3.51876e-13
1.15064e-12
3.617e-12
1.09749e-11
3.20443e-11
9.39178e-11
2.63532e-10
7.43718e-10
1.99041e-09
4.62466e-09
9.84644e-09
1.89742e-08
3.06802e-08
4.18512e-08
5.0039e-08
5.60153e-08
6.23284e-08
7.10567e-08
8.79512e-08
1.28158e-07
2.48429e-07
6.99805e-07
2.87832e-06
1.57366e-05
8.65316e-05
0.00037103
0.000798643
0.00118174
0.00165232
0.00248305
0.00450442
0.00991928
0.0232204
0.0534805
0.116024
0.237836
0.370343
0.282909
-0.0326842
-0.115854
-0.139662
-0.134936
-0.0875976
-0.0453195
-0.0227213
-0.0116772
-0.00605852
-0.0032628
-0.00179005
-0.000989216
-0.000545192
-0.000297311
-0.000157466
-8.26939e-05
-4.22914e-05
-1.81378e-05
-4.87081e-06
-5.14975e-07
1.07579e-07
5.31541e-08
-1.92875e-09
-2.64636e-10
-4.22295e-12
3.07811e-19
1.71115e-19
2.02146e-19
1.30462e-18
1.62938e-18
1.08071e-18
3.39495e-19
4.4339e-20
5.92631e-19
1.28008e-18
-3.86939e-19
4.71717e-19
4.91917e-19
3.23774e-19
2.72435e-19
1.36663e-19
1.39321e-18
4.08769e-18
4.956e-18
4.17964e-18
1.26524e-18
4.05392e-18
1.67798e-18
6.30171e-19
2.91105e-18
5.92394e-18
1.59688e-18
6.17452e-18
2.99634e-18
1.8617e-17
9.76874e-17
3.51073e-16
1.15183e-15
3.83403e-15
1.24738e-14
4.06191e-14
1.32766e-13
3.9751e-13
1.29226e-12
4.05317e-12
1.21148e-11
3.61096e-11
1.04445e-10
2.96615e-10
7.80063e-10
1.93967e-09
4.80776e-09
1.05146e-08
1.98371e-08
3.16123e-08
4.24449e-08
5.03756e-08
5.62692e-08
6.26418e-08
7.15049e-08
8.86838e-08
1.29546e-07
2.51425e-07
7.06131e-07
2.87901e-06
1.55557e-05
8.46087e-05
0.000363165
0.000789577
0.00117249
0.00164027
0.0024518
0.00441981
0.00967803
0.0226762
0.0522892
0.113611
0.234475
0.36994
0.290506
-0.0285568
-0.115492
-0.139926
-0.135966
-0.0885636
-0.0458349
-0.0229714
-0.0118015
-0.00612286
-0.00329677
-0.00180825
-0.000998961
-0.000550321
-0.000299921
-0.000158798
-8.33412e-05
-4.26037e-05
-1.81554e-05
-4.81812e-06
-4.89935e-07
1.11756e-07
5.32103e-08
-1.96475e-09
-2.61264e-10
-4.17318e-12
5.35509e-19
1.10779e-18
6.97766e-19
6.80167e-19
3.60836e-19
4.19326e-19
2.2683e-20
-2.69396e-20
9.68812e-19
1.71623e-18
4.97244e-19
2.14534e-18
1.28324e-18
7.16379e-19
3.46423e-18
4.19338e-18
3.3192e-18
1.38824e-18
3.40381e-18
6.20082e-18
3.88056e-18
2.69845e-18
2.26492e-18
3.34482e-18
3.1415e-18
-2.63901e-18
2.68798e-18
6.91432e-18
7.04736e-18
4.39321e-17
1.17567e-16
3.95435e-16
1.32168e-15
4.2876e-15
1.3873e-14
4.44735e-14
1.39886e-13
4.3555e-13
1.42481e-12
4.40585e-12
1.30658e-11
3.85891e-11
1.114e-10
3.04e-10
7.91557e-10
2.1176e-09
5.1413e-09
1.10892e-08
2.06999e-08
3.23887e-08
4.29629e-08
5.06737e-08
5.64878e-08
6.28587e-08
7.1831e-08
8.9287e-08
1.30557e-07
2.53243e-07
7.07861e-07
2.86193e-06
1.53117e-05
8.26163e-05
0.000354257
0.000780026
0.00116201
0.00162552
0.00242016
0.00433414
0.00944477
0.0221072
0.0503478
0.111353
0.23088
0.368693
0.298561
-0.0233787
-0.114929
-0.140061
-0.137091
-0.0897189
-0.0464666
-0.0232762
-0.011952
-0.00619826
-0.00333596
-0.00182927
-0.00101031
-0.000556407
-0.000303128
-0.000160452
-8.41786e-05
-4.30218e-05
-1.82706e-05
-4.81512e-06
-4.77268e-07
1.15296e-07
5.36519e-08
-1.99314e-09
-2.6076e-10
-4.16742e-12
2.24049e-19
8.64865e-19
1.27379e-18
5.14147e-19
2.46716e-19
1.56665e-19
-1.98199e-19
-1.51305e-19
3.18316e-19
2.41549e-19
1.62918e-19
5.87891e-19
-2.33322e-19
2.17411e-18
2.57641e-19
2.15061e-18
2.24602e-18
1.53093e-18
3.55397e-18
4.96235e-18
6.63587e-18
1.66538e-18
-9.51729e-19
1.57745e-18
2.98322e-18
5.64558e-18
4.92565e-18
4.74062e-18
1.93082e-17
5.63338e-17
1.51085e-16
4.76836e-16
1.43112e-15
4.77921e-15
1.50512e-14
4.77028e-14
1.52619e-13
4.71248e-13
1.56236e-12
4.73813e-12
1.40122e-11
4.06919e-11
1.14583e-10
3.1207e-10
8.63863e-10
2.27616e-09
5.48281e-09
1.17339e-08
2.15319e-08
3.32145e-08
4.35894e-08
5.11031e-08
5.68934e-08
6.29766e-08
7.20919e-08
8.97378e-08
1.31196e-07
2.53961e-07
7.05368e-07
2.81779e-06
1.48786e-05
7.96832e-05
0.000345096
0.000770203
0.00115156
0.00161119
0.00238873
0.00424477
0.00921854
0.0215866
0.0492166
0.10899
0.22688
0.367249
0.306758
-0.0178719
-0.114227
-0.140011
-0.138091
-0.0909033
-0.0471438
-0.0236072
-0.0121167
-0.00628016
-0.00337914
-0.00185227
-0.00102274
-0.000563138
-0.000306762
-0.000162341
-8.51542e-05
-4.35167e-05
-1.8459e-05
-4.84919e-06
-4.73668e-07
1.18413e-07
5.43885e-08
-2.01758e-09
-2.62312e-10
-4.19321e-12
2.71546e-19
3.87579e-20
1.44381e-18
1.00184e-18
3.78591e-19
2.90824e-19
1.07061e-18
2.50382e-18
1.40534e-18
1.42183e-18
6.34763e-19
1.94237e-18
6.01451e-19
7.53493e-19
1.17339e-18
1.25818e-18
2.11425e-18
2.74739e-18
-1.15391e-19
7.7178e-19
-2.32189e-19
2.89427e-18
3.07673e-18
3.02941e-18
9.63836e-19
6.17614e-18
5.48515e-18
1.09771e-17
2.3701e-17
5.68289e-17
1.59176e-16
4.99519e-16
1.64624e-15
5.36349e-15
1.72009e-14
5.42696e-14
1.67664e-13
5.16399e-13
1.64014e-12
5.13108e-12
1.49912e-11
4.3209e-11
1.21007e-10
3.36018e-10
9.25791e-10
2.42067e-09
5.78303e-09
1.2262e-08
2.22423e-08
3.39238e-08
4.41539e-08
5.15424e-08
5.73126e-08
6.29878e-08
7.23067e-08
9.01135e-08
1.31601e-07
2.53949e-07
7.00553e-07
2.77619e-06
1.45064e-05
7.72149e-05
0.000334916
0.000759964
0.00114102
0.0015971
0.00235892
0.00416007
0.00899328
0.0210973
0.0479629
0.106432
0.222813
0.365535
0.314381
-0.0121299
-0.113443
-0.139836
-0.139044
-0.0921412
-0.0478606
-0.0239566
-0.0122904
-0.00636605
-0.00342435
-0.00187688
-0.00103628
-0.000570581
-0.000310778
-0.000164419
-8.62432e-05
-4.408e-05
-1.87076e-05
-4.91083e-06
-4.76423e-07
1.21272e-07
5.53362e-08
-2.03925e-09
-2.65267e-10
-4.24062e-12
1.83844e-19
-1.19483e-19
1.53029e-18
1.31152e-18
1.15919e-18
2.52433e-19
1.17113e-18
1.14875e-18
-1.57514e-21
1.56425e-18
7.76356e-19
-5.50203e-19
1.6783e-18
1.02653e-18
6.6994e-19
2.18066e-18
-9.56694e-20
8.649e-19
-1.99254e-19
9.28354e-19
5.06001e-18
3.09364e-18
2.32801e-18
2.60268e-18
3.81301e-18
6.41871e-18
5.93981e-18
7.27638e-18
1.44443e-17
5.66672e-17
1.70025e-16
5.48023e-16
1.79368e-15
5.82064e-15
1.84653e-14
5.7762e-14
1.77949e-13
5.46447e-13
1.7352e-12
5.46654e-12
1.6053e-11
4.65324e-11
1.29663e-10
3.62474e-10
9.76577e-10
2.54313e-09
6.04061e-09
1.26535e-08
2.27132e-08
3.43442e-08
4.44416e-08
5.17247e-08
5.74357e-08
6.30302e-08
7.2571e-08
9.04221e-08
1.31789e-07
2.53293e-07
6.93501e-07
2.7209e-06
1.41309e-05
7.47446e-05
0.000325463
0.000749434
0.00113001
0.00158243
0.00232872
0.00407568
0.00876136
0.0205599
0.0468255
0.104149
0.218861
0.363277
0.321666
-0.00572389
-0.112547
-0.139618
-0.139969
-0.0934148
-0.0486273
-0.0243355
-0.0124791
-0.00645722
-0.00347184
-0.00190239
-0.00105023
-0.000578259
-0.000315017
-0.000166634
-8.7399e-05
-4.46686e-05
-1.89838e-05
-4.98935e-06
-4.83951e-07
1.23799e-07
5.64418e-08
-2.06002e-09
-2.6939e-10
-4.30581e-12
-3.30533e-19
1.08258e-18
2.4259e-19
1.47493e-18
1.01935e-18
5.787e-19
1.42234e-18
1.1066e-18
1.11497e-18
8.57441e-19
1.35233e-18
1.23169e-18
1.40177e-18
2.06037e-18
3.99231e-18
5.17775e-18
3.81052e-18
1.37376e-18
3.47569e-18
4.92246e-19
7.61569e-18
5.08606e-18
2.46137e-18
6.44431e-21
2.09443e-20
1.05716e-18
8.09864e-18
8.43077e-18
1.2131e-17
5.30732e-17
1.89447e-16
5.91348e-16
1.9012e-15
6.1022e-15
1.94484e-14
6.08062e-14
1.89632e-13
5.71853e-13
1.85e-12
5.76691e-12
1.67111e-11
4.7959e-11
1.36658e-10
3.81225e-10
1.02108e-09
2.64377e-09
6.21901e-09
1.29235e-08
2.30294e-08
3.46136e-08
4.46151e-08
5.1838e-08
5.75043e-08
6.30586e-08
7.27722e-08
9.06577e-08
1.31843e-07
2.5243e-07
6.86806e-07
2.66768e-06
1.37021e-05
7.21178e-05
0.000316571
0.00073947
0.00111989
0.00156902
0.00230107
0.00400472
0.00855802
0.020068
0.0457803
0.10188
0.215054
0.361038
0.328107
0.000658718
-0.111628
-0.139332
-0.140824
-0.0947048
-0.0494025
-0.0247152
-0.0126673
-0.00654879
-0.00351927
-0.00192777
-0.00106406
-0.000585851
-0.000319189
-0.000168808
-8.8548e-05
-4.52648e-05
-1.92814e-05
-5.08047e-06
-4.94613e-07
1.26124e-07
5.76065e-08
-2.07785e-09
-2.73971e-10
-4.37791e-12
4.16213e-19
3.42546e-19
-2.34563e-19
6.09833e-19
2.63948e-19
3.01271e-20
6.09068e-19
-7.5709e-20
5.69007e-20
1.38273e-18
2.22987e-18
2.2482e-18
3.2438e-18
1.53758e-18
4.12663e-19
1.67084e-18
2.89345e-18
3.90774e-18
4.51277e-18
2.88682e-18
-7.2538e-19
-3.1827e-19
3.03025e-18
-9.63465e-19
-1.31931e-18
9.48222e-19
1.44166e-18
5.37374e-18
1.71867e-17
5.50832e-17
1.7196e-16
6.10958e-16
1.99958e-15
6.40428e-15
1.99983e-14
6.20339e-14
1.98066e-13
5.96764e-13
1.91749e-12
5.80471e-12
1.78368e-11
5.09127e-11
1.43963e-10
3.91314e-10
1.05407e-09
2.71417e-09
6.35076e-09
1.31247e-08
2.32643e-08
3.48141e-08
4.47454e-08
5.19067e-08
5.75461e-08
6.30761e-08
7.29101e-08
9.08021e-08
1.31724e-07
2.51152e-07
6.78368e-07
2.61609e-06
1.33253e-05
6.9779e-05
0.000307845
0.000730219
0.0011105
0.00155675
0.00227617
0.0039365
0.00836884
0.0196267
0.0448467
0.0999104
0.211574
0.358771
0.333877
0.00683938
-0.110723
-0.139038
-0.141584
-0.0958933
-0.0501249
-0.0250691
-0.0128422
-0.00663325
-0.00356305
-0.00195121
-0.00107685
-0.000592886
-0.000323063
-0.000170825
-8.96094e-05
-4.58125e-05
-1.95609e-05
-5.16919e-06
-5.06194e-07
1.28065e-07
5.87082e-08
-2.09223e-09
-2.785e-10
-4.44907e-12
1.31716e-19
5.29445e-19
4.76609e-19
8.86602e-19
4.12421e-19
3.80394e-19
9.67087e-19
5.04439e-19
7.91469e-19
-1.57635e-19
8.04955e-20
3.30412e-18
1.39766e-18
4.66299e-19
1.64436e-18
-7.49771e-20
4.98223e-19
3.8018e-18
6.96362e-19
2.3285e-18
-3.06871e-19
9.31476e-19
1.58541e-18
1.78039e-18
4.38239e-18
-1.08307e-18
2.90856e-18
2.50108e-18
1.19351e-17
5.06085e-17
1.91292e-16
6.38358e-16
2.07228e-15
6.677e-15
2.12082e-14
6.67619e-14
2.05233e-13
6.49452e-13
2.03503e-12
6.26497e-12
1.83545e-11
5.21676e-11
1.47599e-10
3.9874e-10
1.07875e-09
2.76859e-09
6.44952e-09
1.32713e-08
2.34282e-08
3.49432e-08
4.48247e-08
5.1952e-08
5.75763e-08
6.30874e-08
7.30066e-08
9.08929e-08
1.31544e-07
2.49766e-07
6.70452e-07
2.56512e-06
1.29879e-05
6.78184e-05
0.00030069
0.000722437
0.00110246
0.0015463
0.00225568
0.00388231
0.00821886
0.0192451
0.0440494
0.0982548
0.208566
0.356757
0.338592
0.0123059
-0.109922
-0.138772
-0.142198
-0.0969084
-0.050749
-0.0253734
-0.0129933
-0.00670619
-0.0036009
-0.0019715
-0.00108793
-0.000598993
-0.000326435
-0.000172586
-9.05472e-05
-4.62951e-05
-1.98119e-05
-5.25037e-06
-5.17149e-07
1.29733e-07
5.96976e-08
-2.1034e-09
-2.82626e-10
-4.51375e-12
4.11724e-19
6.75077e-19
8.74865e-19
5.85421e-19
8.54005e-19
6.66336e-19
1.23734e-18
1.62676e-18
9.52502e-19
6.13945e-20
9.85194e-20
2.98855e-19
1.00606e-18
2.60572e-19
2.68733e-18
1.76546e-18
3.32809e-19
1.05199e-18
1.16736e-18
3.1872e-18
2.43944e-18
-4.65316e-19
2.77204e-18
1.58747e-18
6.80652e-19
7.26979e-18
1.14076e-18
8.59168e-18
2.19835e-17
7.02669e-17
2.06165e-16
6.68733e-16
2.16801e-15
6.98379e-15
2.22201e-14
7.02553e-14
2.18768e-13
6.68727e-13
2.07566e-12
6.25854e-12
1.84763e-11
5.29197e-11
1.45364e-10
4.0482e-10
1.09996e-09
2.80962e-09
6.52352e-09
1.33809e-08
2.35507e-08
3.50403e-08
4.48825e-08
5.19839e-08
5.75967e-08
6.30956e-08
7.30699e-08
9.09396e-08
1.31358e-07
2.48663e-07
6.64535e-07
2.5292e-06
1.27477e-05
6.62954e-05
0.000294763
0.000715408
0.00109562
0.00153746
0.00223833
0.00383629
0.00808946
0.0189448
0.0434174
0.0969379
0.206258
0.355085
0.342128
0.0167232
-0.109266
-0.138548
-0.142664
-0.0977148
-0.0512516
-0.0256216
-0.0131157
-0.00676507
-0.00363138
-0.00198781
-0.00109683
-0.000603903
-0.000329148
-0.000174002
-9.12978e-05
-4.66801e-05
-2.00134e-05
-5.31686e-06
-5.2661e-07
1.30989e-07
6.05025e-08
-2.11147e-09
-2.86045e-10
-4.56728e-12
3.17926e-19
7.68674e-19
1.8146e-18
2.59604e-18
1.59198e-18
1.16328e-18
8.91352e-19
2.76504e-18
5.76113e-19
4.28464e-20
5.93349e-20
7.66684e-20
8.08808e-19
9.58674e-19
1.62252e-18
3.55111e-18
2.47986e-18
1.21155e-18
2.14422e-18
4.80505e-20
4.28973e-18
2.28192e-18
1.77478e-18
4.11267e-18
6.20139e-18
5.04779e-18
3.79067e-18
1.88663e-18
1.63985e-17
7.04105e-17
2.11021e-16
6.71155e-16
2.21056e-15
6.95879e-15
2.21026e-14
6.94474e-14
2.15518e-13
6.57781e-13
2.04864e-12
6.39028e-12
1.83225e-11
5.25126e-11
1.46682e-10
4.08784e-10
1.11487e-09
2.83884e-09
6.57551e-09
1.34573e-08
2.36359e-08
3.51095e-08
4.4922e-08
5.20067e-08
5.76112e-08
6.31026e-08
7.31114e-08
9.09681e-08
1.31219e-07
2.47854e-07
6.60168e-07
2.50281e-06
1.25721e-05
6.52463e-05
0.000290757
0.000710715
0.00109094
0.00153131
0.00222639
0.00380515
0.00800208
0.0187412
0.0430034
0.0960651
0.2046
0.353882
0.344555
0.0199003
-0.108791
-0.138382
-0.142985
-0.0982837
-0.051608
-0.0257966
-0.0132021
-0.00680668
-0.00365291
-0.00199934
-0.00110314
-0.00060738
-0.000331073
-0.000175006
-9.18317e-05
-4.69547e-05
-2.01589e-05
-5.36544e-06
-5.33574e-07
1.31875e-07
6.108e-08
-2.11674e-09
-2.88514e-10
-4.6059e-12
9.71388e-20
-1.57524e-19
2.13024e-19
7.6691e-19
3.5794e-19
6.94552e-19
4.31963e-19
1.28059e-18
8.95549e-19
9.24567e-19
5.81959e-19
6.2982e-19
1.18794e-18
5.7882e-19
1.13894e-18
1.18374e-18
3.67019e-20
5.39085e-19
1.36778e-18
2.63057e-18
1.93855e-18
6.015e-19
9.0795e-19
4.77707e-18
5.02523e-18
8.67761e-18
3.68901e-19
1.34494e-17
2.03531e-17
5.29263e-17
2.11578e-16
6.85117e-16
2.24045e-15
7.13614e-15
2.28978e-14
7.11073e-14
2.23616e-13
6.71882e-13
2.15746e-12
6.53029e-12
1.88659e-11
5.33813e-11
1.47505e-10
4.15274e-10
1.12189e-09
2.85649e-09
6.60944e-09
1.35076e-08
2.36915e-08
3.5153e-08
4.49475e-08
5.20216e-08
5.76225e-08
6.31103e-08
7.31419e-08
9.09958e-08
1.31167e-07
2.4748e-07
6.58019e-07
2.4893e-06
1.24787e-05
6.46992e-05
0.000288692
0.000708255
0.00108844
0.00152803
0.00222006
0.00378851
0.00795564
0.0186311
0.0427607
0.0955743
0.203734
0.353228
0.345809
0.0216048
-0.108532
-0.13829
-0.143148
-0.0985859
-0.0517992
-0.0258909
-0.0132489
-0.00682921
-0.00366459
-0.0020056
-0.00110656
-0.000609267
-0.000332117
-0.000175552
-9.21213e-05
-4.71034e-05
-2.02389e-05
-5.39201e-06
-5.37504e-07
1.32324e-07
6.13885e-08
-2.11941e-09
-2.89847e-10
-4.62679e-12
-1.179e-19
1.18644e-18
7.33062e-19
1.23286e-18
5.4514e-19
9.595e-19
6.81977e-19
2.22038e-18
7.13922e-19
1.20941e-20
1.91263e-18
1.79946e-18
2.41842e-18
6.07195e-19
1.04131e-18
1.62447e-18
2.37637e-19
1.49587e-18
1.25887e-18
2.71036e-18
3.06172e-18
1.04519e-18
1.48361e-18
2.39173e-18
2.23958e-18
3.73992e-19
6.28182e-19
2.22881e-18
1.93019e-17
6.41893e-17
2.24244e-16
7.33514e-16
2.35791e-15
7.7001e-15
2.44393e-14
7.53625e-14
2.32603e-13
6.91489e-13
2.16787e-12
6.44787e-12
1.91157e-11
5.40547e-11
1.5021e-10
4.1646e-10
1.12652e-09
2.86727e-09
6.62952e-09
1.35379e-08
2.37262e-08
3.51821e-08
4.49668e-08
5.20343e-08
5.76332e-08
6.31205e-08
7.31712e-08
9.10337e-08
1.31204e-07
2.47482e-07
6.57726e-07
2.48678e-06
1.24597e-05
6.45805e-05
0.00028824
0.00070771
0.00108788
0.00152732
0.00221878
0.00378537
0.0079471
0.0186117
0.0427212
0.0954934
0.203589
0.353118
0.346002
0.0218743
-0.108492
-0.138274
-0.143171
-0.0986313
-0.051828
-0.0259051
-0.0132559
-0.00683258
-0.00366634
-0.00200654
-0.00110707
-0.000609548
-0.000332271
-0.000175632
-9.21638e-05
-4.71251e-05
-2.02502e-05
-5.39564e-06
-5.3791e-07
1.32411e-07
6.14307e-08
-2.11993e-09
-2.90008e-10
-4.62928e-12
8.32987e-20
3.03667e-19
1.50209e-18
1.75452e-18
7.63404e-19
1.68138e-19
-9.16797e-20
6.4196e-19
1.85863e-18
1.47995e-18
1.03024e-19
1.14706e-18
-1.12201e-19
1.04632e-18
1.62422e-18
1.19936e-18
1.83111e-18
1.07021e-18
2.58675e-19
7.85604e-19
1.46961e-18
7.05684e-19
1.11099e-18
3.15535e-19
3.79075e-18
7.00197e-19
4.57203e-18
7.17258e-18
2.74131e-17
7.33086e-17
2.34251e-16
7.43516e-16
2.41096e-15
7.78741e-15
2.50642e-14
7.75168e-14
2.36533e-13
7.05567e-13
2.18692e-12
6.60156e-12
1.91605e-11
5.39497e-11
1.51583e-10
4.18062e-10
1.12596e-09
2.87213e-09
6.63802e-09
1.35514e-08
2.37436e-08
3.51995e-08
4.4981e-08
5.20457e-08
5.76446e-08
6.31353e-08
7.3203e-08
9.10945e-08
1.31377e-07
2.48037e-07
6.60006e-07
2.49874e-06
1.25338e-05
6.50011e-05
0.000289794
0.000709479
0.0010896
0.00152957
0.00222322
0.00379717
0.00798011
0.0186897
0.0428958
0.095839
0.204227
0.353584
0.345064
0.0206217
-0.108677
-0.138337
-0.143046
-0.0984087
-0.0516876
-0.025836
-0.0132217
-0.00681615
-0.00365784
-0.00200199
-0.00110458
-0.000608174
-0.000331509
-0.000175234
-9.19516e-05
-4.7016e-05
-2.01904e-05
-5.37522e-06
-5.34905e-07
1.3205e-07
6.11842e-08
-2.11815e-09
-2.88937e-10
-4.61257e-12
8.85308e-20
2.47147e-21
2.73534e-19
2.87278e-19
7.52247e-19
8.58727e-19
-1.31802e-20
1.30305e-18
7.17079e-19
2.19772e-19
-6.10191e-20
3.57861e-19
6.33053e-20
2.27262e-18
1.93744e-18
3.92059e-18
4.40472e-18
9.37406e-19
8.88442e-19
2.31957e-18
2.52889e-18
4.32438e-18
1.5796e-18
5.61473e-18
3.72979e-18
3.54373e-18
2.0485e-18
6.16095e-18
2.49286e-17
8.3406e-17
2.29328e-16
6.9399e-16
2.29632e-15
7.17437e-15
2.21563e-14
6.84563e-14
2.18568e-13
6.51198e-13
2.10226e-12
6.55485e-12
1.87983e-11
5.3814e-11
1.48749e-10
4.1821e-10
1.12572e-09
2.86845e-09
6.63227e-09
1.35453e-08
2.37409e-08
3.52027e-08
4.49884e-08
5.20543e-08
5.76554e-08
6.31535e-08
7.32376e-08
9.11797e-08
1.31691e-07
2.49151e-07
6.64836e-07
2.52475e-06
1.26982e-05
6.59454e-05
0.000293271
0.000713434
0.00109347
0.00153459
0.00223306
0.00382325
0.00805295
0.0188612
0.0432548
0.0965739
0.205592
0.354591
0.343013
0.0179241
-0.109081
-0.138477
-0.142781
-0.0979277
-0.0513849
-0.0256865
-0.0131477
-0.00678063
-0.00363945
-0.00199214
-0.0010992
-0.000605201
-0.00032986
-0.000174374
-9.14936e-05
-4.67801e-05
-2.00634e-05
-5.332e-06
-5.28441e-07
1.31317e-07
6.06699e-08
-2.11417e-09
-2.86697e-10
-4.57753e-12
8.40877e-19
1.18525e-18
5.29672e-19
9.59637e-19
8.49251e-19
4.96526e-19
2.12868e-19
2.52228e-19
6.34062e-20
3.91054e-19
2.41376e-20
1.64617e-19
5.24436e-19
5.36498e-19
1.69341e-19
1.30348e-18
1.82886e-18
2.88431e-18
2.2883e-18
3.51757e-18
1.46253e-18
1.46148e-18
3.13431e-18
2.50423e-18
4.42325e-18
9.44428e-18
6.74363e-18
1.82216e-18
2.49078e-17
7.25317e-17
2.21799e-16
6.78617e-16
2.20828e-15
6.89924e-15
2.17798e-14
6.84407e-14
2.14673e-13
6.51675e-13
2.09452e-12
6.52586e-12
1.88013e-11
5.28495e-11
1.48041e-10
4.1845e-10
1.12037e-09
2.8569e-09
6.61379e-09
1.35218e-08
2.3721e-08
3.51947e-08
4.49913e-08
5.2062e-08
5.76674e-08
6.31776e-08
7.32794e-08
9.12976e-08
1.32169e-07
2.50919e-07
6.72696e-07
2.56772e-06
1.29694e-05
6.74968e-05
0.000298898
0.000719649
0.00109953
0.00154243
0.00224853
0.00386429
0.00816764
0.0191304
0.0438174
0.0977724
0.207707
0.356077
0.339787
0.0138887
-0.109681
-0.138685
-0.14237
-0.0972026
-0.0509313
-0.0254636
-0.0130376
-0.00672774
-0.00361205
-0.00197745
-0.00109117
-0.000600765
-0.000327401
-0.000173089
-9.08103e-05
-4.64293e-05
-1.98745e-05
-5.26829e-06
-5.18993e-07
1.30218e-07
5.99086e-08
-2.10773e-09
-2.83392e-10
-4.52585e-12
3.26062e-19
2.48436e-19
1.12992e-18
1.27618e-18
9.0081e-19
1.98e-19
1.74593e-19
1.33215e-18
5.12284e-20
-3.42174e-19
1.42579e-18
9.64446e-19
1.58078e-18
2.29525e-18
1.17005e-18
1.93975e-18
2.82473e-18
3.13373e-18
2.5508e-18
3.29598e-18
5.6974e-18
-4.31334e-19
-4.34015e-19
1.77126e-18
3.89977e-18
4.90941e-18
5.40824e-18
7.76677e-18
2.01097e-17
6.57093e-17
2.17632e-16
6.9568e-16
2.20944e-15
7.03922e-15
2.23836e-14
6.9895e-14
2.19087e-13
6.60675e-13
2.02864e-12
6.2168e-12
1.86467e-11
5.25429e-11
1.45204e-10
4.12532e-10
1.11298e-09
2.83893e-09
6.58098e-09
1.34757e-08
2.36759e-08
3.51682e-08
4.49848e-08
5.20655e-08
5.76778e-08
6.32045e-08
7.33201e-08
9.14315e-08
1.32767e-07
2.53205e-07
6.83092e-07
2.62549e-06
1.33396e-05
6.96405e-05
0.000306707
0.000727843
0.00110739
0.00155255
0.00226873
0.00391856
0.00831865
0.0194876
0.0445532
0.0993184
0.210434
0.357957
0.335519
0.00880364
-0.110436
-0.138948
-0.141821
-0.0962641
-0.0503459
-0.025176
-0.0128953
-0.00665932
-0.0035765
-0.00195842
-0.00108077
-0.000595029
-0.000324226
-0.000171431
-8.99298e-05
-4.59757e-05
-1.96337e-05
-5.18748e-06
-5.07222e-07
1.2878e-07
5.89397e-08
-2.09862e-09
-2.79208e-10
-4.46037e-12
-2.14325e-19
-1.45641e-20
1.01602e-18
5.97798e-19
5.91299e-19
5.12521e-19
1.90069e-18
6.78737e-19
4.46234e-19
3.86361e-19
8.78606e-19
1.29515e-18
2.68327e-18
2.043e-18
-1.44199e-19
8.90576e-19
1.05861e-18
-6.4364e-20
2.47203e-19
1.94877e-18
-1.90561e-19
4.55517e-18
1.06323e-18
6.05041e-18
5.78231e-18
6.9596e-18
8.0092e-18
1.26249e-17
1.70242e-17
6.65375e-17
2.03109e-16
6.49599e-16
2.13776e-15
6.92375e-15
2.14183e-14
6.94363e-14
2.14194e-13
6.54649e-13
2.02283e-12
6.25077e-12
1.81099e-11
5.27626e-11
1.45935e-10
4.07367e-10
1.09611e-09
2.80906e-09
6.53049e-09
1.34044e-08
2.36035e-08
3.51189e-08
4.49648e-08
5.20618e-08
5.76846e-08
6.3233e-08
7.33459e-08
9.15675e-08
1.33454e-07
2.55904e-07
6.95566e-07
2.69531e-06
1.37854e-05
7.21688e-05
0.000315414
0.000737052
0.0011164
0.00156401
0.00229166
0.00397947
0.00848639
0.0199003
0.0454277
0.101128
0.213693
0.360106
0.330234
0.00292586
-0.111302
-0.139246
-0.141135
-0.0951508
-0.0496651
-0.024842
-0.0127295
-0.0065794
-0.0035351
-0.0019362
-0.00106861
-0.000588308
-0.000320503
-0.000169487
-8.88964e-05
-4.54419e-05
-1.93501e-05
-5.09368e-06
-4.93946e-07
1.27005e-07
5.78054e-08
-2.08659e-09
-2.74371e-10
-4.38464e-12
-1.1625e-19
3.30202e-19
-1.58163e-20
4.00934e-19