/*--------------------------------*- C++ -*----------------------------------*\
  =========                 |
  \\      /  F ield         | OpenFOAM: The Open Source CFD Toolbox
   \\    /   O peration     | Website:  https://openfoam.org
    \\  /    A nd           | Version:  10
     \\/     M anipulation  |
\*---------------------------------------------------------------------------*/
FoamFile
{
    format      ascii;
    class       volScalarField;
    location    "1";
    object      RR.CH3;
}
// * * * * * * * * * * * * * * * * * * * * * * * * * * * * * * * * * * * * * //

dimensions      [1 -3 -1 0 0 0 0];

internalField   nonuniform List<scalar> 
4000
(
1.07839e-22
1.15912e-22
1.15782e-22
1.36409e-22
1.74571e-22
1.92706e-22
2.24181e-22
2.56273e-22
3.05909e-22
3.73817e-22
4.18327e-22
4.13217e-22
4.01678e-22
3.60848e-22
3.63525e-22
3.84472e-22
3.49274e-22
2.82293e-22
3.0662e-22
3.40086e-22
3.05838e-22
3.78077e-22
5.30877e-22
5.03246e-22
7.79309e-22
9.18855e-22
2.14204e-21
4.59986e-21
1.21257e-20
3.11376e-20
8.50776e-20
2.27644e-19
6.21271e-19
1.66796e-18
4.46993e-18
1.16375e-17
2.91771e-17
7.84672e-17
2.06193e-16
5.554e-16
1.43966e-15
3.55697e-15
8.9399e-15
2.25187e-14
5.78757e-14
1.46496e-13
3.79756e-13
9.07478e-13
1.89286e-12
3.09569e-12
2.55576e-12
-8.1297e-12
-5.49291e-11
-2.57474e-10
-1.02605e-09
-3.76843e-09
-1.31117e-08
-4.60744e-08
-1.6209e-07
-5.98818e-07
-2.40683e-06
-9.09903e-06
-2.34283e-05
-2.77905e-05
-3.45152e-05
-0.000123774
-0.000413054
-0.00113267
-0.00272735
-0.00584454
-0.0106946
-0.0139828
-0.00725966
0.0118316
0.0240722
-0.0204069
-0.033676
-0.0269112
0.00114249
0.0257825
0.0515815
0.0744514
0.023337
0.00883698
-0.0283786
-0.0254209
-0.0140694
-0.00778991
-0.00427631
-0.00230753
-0.0012164
-0.000606485
-0.000294405
-0.000133831
-5.15878e-05
-1.84253e-05
-7.56098e-06
-3.22396e-06
-1.25435e-06
-2.37035e-07
-1.76922e-24
1.6371e-22
4.95697e-23
2.29717e-22
3.32203e-22
2.55297e-22
2.62919e-22
2.09257e-22
2.54924e-22
3.07565e-22
2.57905e-22
2.71834e-22
2.98983e-22
2.47563e-22
2.87872e-22
3.65703e-22
3.46641e-22
3.9304e-22
4.33375e-22
5.0592e-22
4.79503e-22
3.44536e-22
5.42421e-22
4.49289e-22
8.54478e-22
9.94523e-22
1.66312e-21
4.11271e-21
1.02567e-20
2.85689e-20
8.23314e-20
2.17381e-19
5.89509e-19
1.57434e-18
4.23628e-18
1.11616e-17
3.14391e-17
8.10937e-17
2.20056e-16
5.7862e-16
1.49626e-15
3.92353e-15
1.04385e-14
2.78978e-14
7.23736e-14
1.89749e-13
4.76128e-13
1.09982e-12
2.18251e-12
3.20139e-12
2.27044e-12
-8.97179e-12
-6.50995e-11
-2.91191e-10
-1.14368e-09
-4.04534e-09
-1.35291e-08
-4.68688e-08
-1.63107e-07
-5.95978e-07
-2.36554e-06
-8.83793e-06
-2.27502e-05
-2.7362e-05
-3.25573e-05
-0.000114135
-0.000384231
-0.00106721
-0.00258966
-0.00560586
-0.0104562
-0.0140512
-0.00788344
0.01108
0.0245788
-0.0195083
-0.0337042
-0.0272725
0.00122314
0.0263732
0.0528969
0.0748679
0.021939
0.00898403
-0.0311841
-0.0246544
-0.0136526
-0.00756022
-0.00414258
-0.00223085
-0.00117261
-0.000582708
-0.000281727
-0.000126985
-4.82209e-05
-1.72777e-05
-7.14923e-06
-3.06816e-06
-1.18687e-06
-2.21184e-07
2.72306e-22
9.46325e-23
1.40731e-22
1.10684e-22
4.54456e-22
2.05254e-22
1.46181e-22
1.82337e-22
3.97752e-22
2.28351e-22
2.7653e-22
2.19425e-22
2.28458e-22
2.33827e-22
1.59511e-22
2.52629e-22
1.74816e-22
2.05863e-22
3.61723e-22
3.65213e-22
4.19136e-22
2.83381e-22
3.75861e-22
5.85454e-22
6.69873e-22
1.47408e-21
1.758e-21
3.76408e-21
8.29105e-21
2.27332e-20
6.34648e-20
1.7552e-19
5.15534e-19
1.38304e-18
3.72088e-18
1.03342e-17
2.84581e-17
7.51828e-17
2.11833e-16
5.7286e-16
1.64155e-15
4.4098e-15
1.11975e-14
3.16547e-14
8.03347e-14
2.19416e-13
5.54219e-13
1.25812e-12
2.39031e-12
3.37741e-12
1.4217e-12
-1.29322e-11
-8.11424e-11
-3.3019e-10
-1.17231e-09
-4.08622e-09
-1.37837e-08
-4.7518e-08
-1.64292e-07
-5.95878e-07
-2.33948e-06
-8.63697e-06
-2.20921e-05
-2.67639e-05
-3.08539e-05
-0.000105773
-0.000358218
-0.00100566
-0.00247551
-0.00540844
-0.0102207
-0.0140863
-0.00846955
0.0102771
0.0249758
-0.0185122
-0.0337776
-0.0276326
0.00142119
0.0272055
0.054806
0.0751414
0.0200278
0.00901618
-0.0346056
-0.0236201
-0.0130805
-0.00723373
-0.00396166
-0.00212534
-0.00111226
-0.000550305
-0.000264958
-0.000118038
-4.40785e-05
-1.59116e-05
-6.66418e-06
-2.81393e-06
-1.10795e-06
-2.04127e-07
1.0105e-22
4.41885e-23
9.8848e-23
1.42758e-22
1.4388e-22
2.52745e-22
1.20334e-22
4.88032e-23
1.87112e-22
2.84361e-22
4.25165e-22
3.03574e-22
1.79907e-22
1.79379e-22
1.74659e-22
2.39769e-22
4.10266e-22
4.81543e-22
5.46995e-22
3.91267e-22
2.59893e-22
8.18156e-22
9.94591e-22
4.59502e-22
6.0909e-22
1.06687e-21
1.27812e-21
2.30567e-21
6.77537e-21
1.59547e-20
4.73213e-20
1.45522e-19
4.46625e-19
1.23709e-18
3.20206e-18
9.34498e-18
2.91301e-17
7.42634e-17
2.13562e-16
5.87854e-16
1.74873e-15
4.65564e-15
1.34296e-14
3.49001e-14
9.5234e-14
2.5239e-13
6.30285e-13
1.38782e-12
2.62812e-12
3.45537e-12
8.77681e-13
-1.81839e-11
-9.65076e-11
-3.74288e-10
-1.30083e-09
-4.17358e-09
-1.40605e-08
-4.79636e-08
-1.64742e-07
-5.93566e-07
-2.31079e-06
-8.45999e-06
-2.16366e-05
-2.64839e-05
-2.97058e-05
-9.94912e-05
-0.00033843
-0.000958631
-0.00237727
-0.00523172
-0.0100002
-0.0141357
-0.00901189
0.00952448
0.0252428
-0.0180161
-0.0338976
-0.0278401
0.00171379
0.0280664
0.056591
0.0750155
0.0184254
0.00871306
-0.0370069
-0.0226469
-0.01255
-0.00694426
-0.00380649
-0.00201728
-0.00105299
-0.000520354
-0.000249517
-0.000109776
-4.02756e-05
-1.47014e-05
-6.22613e-06
-2.63293e-06
-1.03626e-06
-1.88808e-07
7.98522e-23
1.16745e-22
6.94264e-23
1.10404e-22
1.04851e-22
9.27416e-23
2.36101e-22
1.0654e-22
5.92691e-23
8.0517e-23
1.12745e-22
1.50574e-22
1.30637e-22
1.28152e-22
1.7919e-22
1.96208e-22
2.96204e-22
2.62519e-22
5.48839e-22
4.3488e-22
3.02169e-22
7.67402e-22
4.25007e-22
4.70914e-22
5.1734e-22
6.20254e-22
1.42983e-21
2.21633e-21
4.51442e-21
1.39864e-20
4.57655e-20
1.30397e-19
3.69127e-19
1.13746e-18
3.31079e-18
1.0626e-17
3.15251e-17
9.0702e-17
2.48225e-16
6.47497e-16
2.06931e-15
5.32805e-15
1.53358e-14
4.03678e-14
1.06871e-13
2.86415e-13
6.96991e-13
1.55535e-12
2.71585e-12
3.44499e-12
4.56056e-14
-2.28091e-11
-1.17951e-10
-4.34924e-10
-1.34609e-09
-4.30238e-09
-1.43073e-08
-4.8441e-08
-1.65585e-07
-5.93746e-07
-2.29487e-06
-8.33745e-06
-2.12514e-05
-2.61663e-05
-2.88796e-05
-9.48209e-05
-0.000324937
-0.000926461
-0.00231074
-0.00510826
-0.00984794
-0.0141548
-0.0094148
0.00892826
0.0254375
-0.0173087
-0.0340336
-0.0280676
0.00199733
0.0288982
0.0584253
0.0747945
0.0166988
0.00826643
-0.0379398
-0.0220104
-0.0121867
-0.00673473
-0.00368491
-0.00194863
-0.00101352
-0.000499535
-0.000238466
-0.000103662
-3.75312e-05
-1.38309e-05
-5.90321e-06
-2.50294e-06
-9.58271e-07
-1.79433e-07
4.43494e-23
4.86096e-23
6.30378e-23
1.27816e-22
1.21312e-22
1.15495e-22
2.03296e-22
2.41858e-22
1.06316e-22
5.40224e-23
1.06322e-22
2.56844e-22
2.97804e-22
2.82417e-22
2.70681e-22
4.17119e-22
2.93159e-22
4.06761e-22
3.65933e-22
3.69871e-22
1.08344e-21
9.3927e-22
1.12458e-21
7.72041e-22
8.04906e-22
3.50968e-22
1.08252e-21
2.41198e-21
5.30212e-21
1.36751e-20
5.32317e-20
1.2882e-19
4.16773e-19
1.25073e-18
3.88553e-18
1.1232e-17
3.19683e-17
1.0382e-16
2.79958e-16
7.90075e-16
2.27603e-15
6.04397e-15
1.77393e-14
4.48401e-14
1.21746e-13
3.17484e-13
7.7501e-13
1.6199e-12
2.77144e-12
3.44947e-12
-6.73664e-13
-2.5312e-11
-1.24938e-10
-4.53792e-10
-1.38291e-09
-4.36639e-09
-1.44332e-08
-4.86962e-08
-1.65669e-07
-5.91443e-07
-2.27271e-06
-8.21487e-06
-2.09382e-05
-2.59774e-05
-2.82573e-05
-9.13761e-05
-0.000313442
-0.00089772
-0.00225541
-0.0050174
-0.00973542
-0.0141718
-0.00972129
0.00850778
0.0255307
-0.0167523
-0.0341363
-0.0282704
0.00218845
0.0295669
0.0598809
0.0745045
0.0154514
0.0077756
-0.0382004
-0.02162
-0.0119589
-0.00659951
-0.00360362
-0.00190302
-0.000986709
-0.000485589
-0.000230962
-9.94366e-05
-3.56782e-05
-1.32514e-05
-5.68423e-06
-2.40989e-06
-9.22664e-07
-1.71234e-07
2.59708e-23
6.10852e-23
5.94729e-23
1.03344e-22
8.64367e-23
7.13057e-23
5.50545e-23
1.9297e-23
1.59924e-22
1.20429e-22
1.66893e-22
1.83709e-22
1.52421e-22
3.11363e-22
2.69546e-22
3.08794e-22
2.94386e-22
2.60887e-22
2.0962e-22
2.3239e-22
6.41447e-22
7.9826e-22
3.50617e-22
1.74334e-22
5.4485e-22
8.84127e-22
7.39727e-22
2.49178e-21
5.461e-21
1.71704e-20
5.04719e-20
1.51796e-19
4.51536e-19
1.57903e-18
4.82229e-18
1.25976e-17
3.7592e-17
1.14006e-16
3.05131e-16
9.42533e-16
2.54648e-15
7.12701e-15
1.95517e-14
5.21146e-14
1.35035e-13
3.52822e-13
8.35438e-13
1.62974e-12
2.88635e-12
3.49646e-12
-1.09514e-12
-2.71887e-11
-1.30158e-10
-4.65337e-10
-1.40861e-09
-4.41722e-09
-1.44964e-08
-4.87312e-08
-1.65245e-07
-5.87651e-07
-2.24668e-06
-8.08734e-06
-2.06444e-05
-2.58319e-05
-2.7769e-05
-8.85384e-05
-0.000304555
-0.000875202
-0.00221028
-0.00493404
-0.00962486
-0.0141691
-0.00999581
0.00808634
0.0255995
-0.0161186
-0.0341921
-0.028538
0.00223867
0.0300367
0.0609312
0.0743097
0.0146244
0.00735979
-0.0382216
-0.0213873
-0.0118218
-0.00651691
-0.00355297
-0.00187447
-0.000969591
-0.00047673
-0.000226127
-9.66387e-05
-3.44509e-05
-1.28739e-05
-5.53972e-06
-2.34897e-06
-8.98806e-07
-1.65697e-07
6.48702e-23
6.95183e-23
1.48551e-22
2.41315e-22
2.00865e-22
2.25248e-22
1.77629e-22
1.90783e-22
1.29498e-22
9.75428e-23
7.59895e-23
1.76454e-22
1.49557e-22
2.22024e-22
1.76625e-22
1.9102e-22
3.18946e-22
2.07073e-22
2.32816e-22
5.55932e-22
5.32988e-22
3.95669e-22
1.61353e-22
1.85593e-22
6.24811e-22
5.71453e-22
1.28875e-21
2.65443e-21
7.77653e-21
2.34377e-20
5.78149e-20
1.66302e-19
5.4e-19
1.67877e-18
4.70017e-18
1.45512e-17
4.2987e-17
1.28698e-16
3.40035e-16
1.04079e-15
2.96367e-15
7.97436e-15
2.21685e-14
5.82869e-14
1.53211e-13
3.88065e-13
8.61297e-13
1.73105e-12
3.00412e-12
3.46863e-12
-1.59591e-12
-2.88356e-11
-1.34344e-10
-4.73206e-10
-1.42134e-09
-4.43635e-09
-1.44812e-08
-4.85005e-08
-1.63934e-07
-5.80832e-07
-2.21081e-06
-7.93862e-06
-2.03522e-05
-2.57186e-05
-2.72913e-05
-8.55062e-05
-0.000295858
-0.000853348
-0.00216481
-0.00484903
-0.0095081
-0.014159
-0.0102782
0.00761905
0.0256383
-0.0153089
-0.03419
-0.0289028
0.00212199
0.0302983
0.0615766
0.0743157
0.0141733
0.00708966
-0.0381966
-0.0212622
-0.011747
-0.00647102
-0.00352419
-0.00185809
-0.00095954
-0.00047152
-0.000223225
-9.49023e-05
-3.36889e-05
-1.26402e-05
-5.45271e-06
-2.31183e-06
-8.8435e-07
-1.62287e-07
6.28379e-23
9.09112e-23
9.74832e-23
2.27922e-22
2.14705e-22
2.06307e-22
1.29214e-22
1.06486e-22
1.10467e-22
2.56531e-22
6.95951e-23
1.13821e-22
2.15883e-22
1.38923e-22
1.52491e-22
1.75406e-22
2.63193e-22
5.5856e-22
6.73873e-22
5.83046e-22
4.43229e-22
6.19523e-22
3.17972e-22
3.98066e-22
6.35844e-22
1.19091e-21
1.22433e-21
2.93725e-21
7.22008e-21
2.267e-20
7.36578e-20
1.96803e-19
5.99321e-19
1.89813e-18
5.60176e-18
1.69846e-17
5.13014e-17
1.45476e-16
3.78769e-16
1.18617e-15
3.34046e-15
8.65322e-15
2.37495e-14
6.50168e-14
1.60535e-13
3.79857e-13
8.94159e-13
1.84159e-12
3.11503e-12
3.48731e-12
-1.96005e-12
-3.01516e-11
-1.37309e-10
-4.7691e-10
-1.42403e-09
-4.42825e-09
-1.43781e-08
-4.79722e-08
-1.61601e-07
-5.70091e-07
-2.15726e-06
-7.72566e-06
-1.99443e-05
-2.56118e-05
-2.67495e-05
-8.21494e-05
-0.000284874
-0.000827588
-0.00210811
-0.0047436
-0.00934973
-0.0141438
-0.0106059
0.00708483
0.0256432
-0.0143
-0.0341384
-0.0293531
0.00184263
0.0303696
0.0618628
0.0745551
0.0140291
0.00697855
-0.0381944
-0.0212149
-0.011717
-0.0064515
-0.00351123
-0.00185046
-0.000954608
-0.000468932
-0.000221729
-9.39469e-05
-3.32418e-05
-1.2508e-05
-5.40571e-06
-2.29255e-06
-8.7703e-07
-1.60495e-07
7.84402e-23
1.38359e-22
1.23766e-22
1.38139e-22
1.02068e-22
9.19285e-23
7.4283e-23
5.74229e-23
1.74242e-22
2.61056e-22
2.08331e-22
3.65091e-22
2.62405e-22
2.55283e-22
4.72509e-22
5.8108e-22
5.5027e-22
3.79041e-22
7.09327e-22
9.4614e-22
7.03675e-22
4.82085e-22
5.00191e-22
5.75807e-22
8.44945e-22
5.28655e-22
1.24349e-21
3.95434e-21
8.49791e-21
2.82068e-20
8.32104e-20
2.50172e-19
7.31343e-19
2.12806e-18
6.65092e-18
1.81071e-17
5.24966e-17
1.54373e-16
4.16855e-16
1.28885e-15
3.42613e-15
9.40924e-15
2.59298e-14
6.6157e-14
1.6302e-13
4.13315e-13
9.53216e-13
1.93337e-12
3.22696e-12
3.47269e-12
-2.38964e-12
-3.13742e-11
-1.38401e-10
-4.76019e-10
-1.42223e-09
-4.40272e-09
-1.42166e-08
-4.72989e-08
-1.5892e-07
-5.58635e-07
-2.10333e-06
-7.50611e-06
-1.95256e-05
-2.55331e-05
-2.62691e-05
-7.87234e-05
-0.000274738
-0.00080237
-0.00205054
-0.00462499
-0.00929361
-0.0140858
-0.0109119
0.00646931
0.0255455
-0.0129784
-0.0340408
-0.0299627
0.00139817
0.030282
0.0618552
0.0750053
0.0141309
0.00700772
-0.0382286
-0.0212246
-0.0117197
-0.00645125
-0.00350985
-0.00184917
-0.000953399
-0.00046825
-0.000221258
-9.35664e-05
-3.30396e-05
-1.24492e-05
-5.38814e-06
-2.28655e-06
-8.75054e-07
-1.59913e-07
5.30474e-23
1.18012e-22
1.67631e-22
9.27924e-23
8.17918e-23
9.44615e-23
4.86861e-23
6.26582e-23
1.14478e-22
1.11205e-22
1.78172e-22
2.40163e-22
1.79446e-22
3.73375e-22
1.97341e-22
3.29047e-22
3.13981e-22
2.91661e-22
5.40704e-22
8.65752e-22
9.10087e-22
5.21394e-22
2.39325e-22
3.68004e-22
6.86854e-22
1.28716e-21
2.0194e-21
3.69808e-21
1.12616e-20
3.32475e-20
9.7916e-20
2.94549e-19
9.20882e-19
2.40574e-18
7.12545e-18
2.09084e-17
5.85944e-17
1.64392e-16
4.84131e-16
1.35935e-15
3.68396e-15
1.00144e-14
2.62036e-14
6.88651e-14
1.76145e-13
4.42598e-13
1.0133e-12
2.0351e-12
3.31778e-12
3.37401e-12
-3.28813e-12
-3.54259e-11
-1.53592e-10
-4.72098e-10
-1.4184e-09
-4.35747e-09
-1.39833e-08
-4.63508e-08
-1.55089e-07
-5.42329e-07
-2.03517e-06
-7.28507e-06
-1.91691e-05
-2.54796e-05
-2.58413e-05
-7.55064e-05
-0.000264778
-0.000777817
-0.0020001
-0.00452536
-0.00913241
-0.0140227
-0.0112243
0.00583221
0.0254488
-0.0115802
-0.0339094
-0.0305641
0.000868246
0.0300722
0.0616272
0.0755975
0.0144217
0.00714335
-0.0382926
-0.0212767
-0.0117463
-0.006465
-0.00351694
-0.0018525
-0.000954903
-0.000468943
-0.000221528
-9.3603e-05
-3.30077e-05
-1.24419e-05
-5.3915e-06
-2.29008e-06
-8.76932e-07
-1.60207e-07
4.28344e-23
3.55805e-23
1.80921e-22
1.42985e-22
7.30371e-23
1.01408e-22
2.06845e-22
3.57775e-22
2.43706e-22
1.99305e-22
1.57457e-22
2.19705e-22
1.38491e-22
1.73741e-22
2.19161e-22
2.59451e-22
3.99728e-22
5.00564e-22
1.91544e-22
2.55326e-22
2.17209e-22
4.82916e-22
6.92293e-22
6.09207e-22
8.49355e-22
1.61674e-21
2.21831e-21
5.93747e-21
1.24244e-20
3.63405e-20
1.26968e-19
2.72826e-19
9.14544e-19
2.6133e-18
8.11367e-18
2.3247e-17
6.51884e-17
1.80607e-16
5.22685e-16
1.47562e-15
3.92881e-15
1.06843e-14
2.78805e-14
7.39188e-14
1.88448e-13
4.69227e-13
1.06387e-12
2.12037e-12
3.40284e-12
3.32528e-12
-3.85087e-12
-3.69871e-11
-1.47433e-10
-4.57446e-10
-1.41074e-09
-4.29772e-09
-1.37292e-08
-4.54096e-08
-1.51646e-07
-5.28882e-07
-1.97354e-06
-7.04823e-06
-1.87538e-05
-2.5467e-05
-2.5482e-05
-7.24892e-05
-0.000255413
-0.000754231
-0.00195186
-0.00443578
-0.00896381
-0.0139683
-0.0115461
0.00520014
0.02529
-0.0101324
-0.0337614
-0.0311771
0.000272821
0.0297773
0.0612458
0.0762704
0.0148555
0.00735091
-0.0383697
-0.0213613
-0.011792
-0.00648991
-0.00353046
-0.00185926
-0.000958428
-0.00047067
-0.000222357
-9.39462e-05
-3.30978e-05
-1.24709e-05
-5.40952e-06
-2.30021e-06
-8.81468e-07
-1.61108e-07
3.15956e-23
2.26469e-23
1.90797e-22
1.64845e-22
1.65287e-22
1.18443e-22
2.49492e-22
2.74896e-22
1.09834e-22
2.31985e-22
2.14218e-22
9.06846e-23
2.16615e-22
2.13053e-22
1.51391e-22
4.22946e-22
1.60043e-22
1.19083e-22
1.73937e-22
2.31569e-22
6.32992e-22
4.91998e-22
5.3144e-22
6.72965e-22
8.08156e-22
1.36796e-21
2.3272e-21
5.56088e-21
1.20444e-20
4.09963e-20
1.30973e-19
3.34022e-19
1.1144e-18
2.87645e-18
8.67109e-18
2.48719e-17
6.80783e-17
1.72707e-16
5.64149e-16
1.53157e-15
4.17668e-15
1.15388e-14
3.01632e-14
7.7627e-14
1.9948e-13
4.92887e-13
1.11195e-12
2.18759e-12
3.47098e-12
3.35045e-12
-3.87713e-12
-3.66122e-11
-1.43847e-10
-4.47753e-10
-1.40025e-09
-4.2272e-09
-1.34381e-08
-4.43718e-08
-1.48009e-07
-5.1503e-07
-1.9169e-06
-6.83481e-06
-1.83566e-05
-2.54058e-05
-2.51478e-05
-6.95462e-05
-0.000246154
-0.00073033
-0.00189903
-0.00433608
-0.00880911
-0.0139074
-0.0118387
0.00454253
0.0250439
-0.00852422
-0.0336037
-0.0318326
-0.000376788
0.0294057
0.0607323
0.0770116
0.0154199
0.00759907
-0.038445
-0.0214682
-0.0118499
-0.00652196
-0.00354849
-0.00186851
-0.000963345
-0.000473055
-0.000223524
-9.44818e-05
-3.32679e-05
-1.25249e-05
-5.438e-06
-2.31532e-06
-8.88086e-07
-1.62478e-07
1.00933e-23
1.56177e-22
9.76968e-23
1.6125e-22
1.69027e-22
1.15547e-22
2.3212e-22
2.17129e-22
2.13228e-22
2.84672e-22
2.358e-22
2.49114e-22
2.04522e-22
2.86066e-22
5.72846e-22
7.21954e-22
6.12083e-22
2.52872e-22
5.37129e-22
2.41396e-22
9.50474e-22
8.12513e-22
4.21857e-22
1.20404e-22
3.79995e-22
6.90785e-22
2.58112e-21
5.34962e-21
1.27362e-20
3.95098e-20
1.16632e-19
3.62586e-19
1.06357e-18
3.06704e-18
9.18832e-18
2.70721e-17
7.21189e-17
1.96711e-16
5.98032e-16
1.62929e-15
4.65103e-15
1.20317e-14
3.06775e-14
8.17396e-14
2.09817e-13
5.121e-13
1.14515e-12
2.23507e-12
3.51985e-12
3.37788e-12
-3.84393e-12
-3.6078e-11
-1.40857e-10
-4.40158e-10
-1.38961e-09
-4.16512e-09
-1.31928e-08
-4.34786e-08
-1.44596e-07
-5.00899e-07
-1.85784e-06
-6.6367e-06
-1.80078e-05
-2.53581e-05
-2.4885e-05
-6.69469e-05
-0.000237938
-0.000709819
-0.0018511
-0.00424163
-0.00865689
-0.0138286
-0.0121095
0.00393371
0.0247783
-0.00695726
-0.0334502
-0.0324577
-0.00104794
0.0290068
0.0601815
0.0777391
0.0160509
0.00785633
-0.0385018
-0.0215873
-0.0119145
-0.00655776
-0.00356862
-0.00187892
-0.000968986
-0.00047584
-0.000224924
-9.51542e-05
-3.35026e-05
-1.25951e-05
-5.47246e-06
-2.33288e-06
-8.95623e-07
-1.64064e-07
6.76003e-23
7.06715e-23
5.14852e-23
1.10324e-22
1.10413e-22
6.46295e-23
9.07132e-23
6.88019e-23
8.2706e-23
2.641e-22
3.44242e-22
3.71038e-22
4.35921e-22
3.13781e-22
1.80399e-22
3.04933e-22
4.42926e-22
6.7059e-22
6.01191e-22
3.45546e-22
7.6758e-23
1.54131e-22
4.18208e-22
1.56936e-22
3.03397e-22
7.94096e-22
1.7995e-21
4.91962e-21
1.30715e-20
4.19953e-20
1.22405e-19
4.01857e-19
1.17878e-18
3.34267e-18
9.83273e-18
2.63247e-17
7.79718e-17
1.95048e-16
5.75337e-16
1.82278e-15
4.5241e-15
1.21913e-14
3.23992e-14
8.5127e-14
2.1538e-13
5.26069e-13
1.16982e-12
2.27032e-12
3.55557e-12
3.39935e-12
-3.77886e-12
-3.55806e-11
-1.38442e-10
-4.33586e-10
-1.37569e-09
-4.09756e-09
-1.29343e-08
-4.25656e-08
-1.41321e-07
-4.885e-07
-1.80497e-06
-6.44743e-06
-1.76764e-05
-2.53381e-05
-2.46792e-05
-6.46261e-05
-0.000230441
-0.000690606
-0.00178512
-0.00415891
-0.00852128
-0.0137533
-0.0123432
0.00336863
0.024509
-0.00548082
-0.0332994
-0.0330144
-0.00166589
0.0286255
0.0596469
0.078387
0.0166822
0.00809007
-0.038529
-0.0217064
-0.0119793
-0.00659379
-0.00358892
-0.00188945
-0.000974696
-0.000478644
-0.000226334
-9.58404e-05
-3.37354e-05
-1.26683e-05
-5.50741e-06
-2.35048e-06
-9.03139e-07
-1.65661e-07
3.7768e-23
1.10234e-22
1.42712e-22
1.44106e-22
1.19447e-22
1.48142e-22
2.05069e-22
1.31983e-22
1.8174e-22
1.03221e-22
1.11107e-22
4.24781e-22
2.94995e-22
1.62251e-22
2.36781e-22
1.57259e-22
2.36945e-22
5.70809e-22
2.97846e-22
3.55529e-22
1.13212e-22
2.23339e-22
4.83763e-22
4.58448e-22
9.71332e-22
7.20568e-22
1.98988e-21
5.17726e-21
1.5394e-20
4.26727e-20
1.25977e-19
3.73998e-19
1.16501e-18
3.36222e-18
9.99153e-18
2.75596e-17
7.42786e-17
2.0614e-16
6.08918e-16
1.80526e-15
4.85406e-15
1.29852e-14
3.29211e-14
8.59113e-14
2.21336e-13
5.37204e-13
1.18839e-12
2.29651e-12
3.58248e-12
3.41787e-12
-3.72618e-12
-3.51788e-11
-1.36468e-10
-4.27996e-10
-1.36247e-09
-4.0376e-09
-1.26963e-08
-4.17277e-08
-1.38416e-07
-4.77524e-07
-1.76137e-06
-6.29563e-06
-1.741e-05
-2.53096e-05
-2.45329e-05
-6.28167e-05
-0.000224739
-0.000676972
-0.00175903
-0.00408889
-0.00840594
-0.0136877
-0.0125367
0.00289051
0.0242552
-0.00421335
-0.0331746
-0.0334738
-0.00219656
0.0282862
0.0591723
0.0789186
0.0172596
0.00828628
-0.0385277
-0.0218165
-0.0120394
-0.00662719
-0.00360777
-0.00189927
-0.000980084
-0.000481285
-0.000227668
-9.64954e-05
-3.39643e-05
-1.27393e-05
-5.54043e-06
-2.36682e-06
-9.1005e-07
-1.67133e-07
3.4886e-23
1.28705e-22
1.73888e-22
1.17623e-22
1.30457e-22
1.13023e-22
1.78938e-22
2.78259e-22
1.70884e-22
1.09256e-22
8.86857e-23
1.22401e-22
1.1814e-22
1.41387e-22
3.69745e-22
3.85088e-22
1.29545e-22
2.24525e-22
1.84541e-22
3.83717e-22
3.16019e-22
1.7779e-22
6.60821e-22
3.74861e-22
7.85079e-22
1.85269e-21
2.22912e-21
6.0849e-21
1.58777e-20
4.656e-20
1.26055e-19
4.28611e-19
1.19887e-18
3.51318e-18
9.74827e-18
2.82347e-17
8.08029e-17
2.13532e-16
6.28685e-16
1.92058e-15
5.08848e-15
1.26729e-14
3.36237e-14
8.77108e-14
2.24676e-13
5.45002e-13
1.20232e-12
2.31612e-12
3.6026e-12
3.43289e-12
-3.68268e-12
-3.48763e-11
-1.35035e-10
-4.23762e-10
-1.35134e-09
-3.98968e-09
-1.25188e-08
-4.11271e-08
-1.3628e-07
-4.6931e-07
-1.72681e-06
-6.167e-06
-1.71593e-05
-2.52676e-05
-2.44155e-05
-6.12766e-05
-0.000219714
-0.000664023
-0.00173037
-0.00403433
-0.00831745
-0.0136316
-0.0126824
0.00251575
0.0240394
-0.00321148
-0.0330764
-0.0338283
-0.00262571
0.028003
0.0587765
0.0793356
0.0177507
0.00843881
-0.0385071
-0.0219101
-0.0120904
-0.00665552
-0.00362373
-0.00190759
-0.000984631
-0.000483504
-0.000228778
-9.70406e-05
-3.41674e-05
-1.27998e-05
-5.56823e-06
-2.38048e-06
-9.15805e-07
-1.68362e-07
7.35164e-23
1.57528e-22
2.48854e-22
3.64389e-22
2.87562e-22
1.77837e-22
1.80281e-22
3.76989e-22
1.55441e-22
4.16155e-23
4.46125e-23
6.61125e-23
1.7775e-22
1.69063e-22
3.00506e-22
5.56736e-22
4.60682e-22
2.50368e-22
3.64088e-22
2.54449e-22
5.28473e-22
3.73011e-22
5.25606e-22
8.77009e-22
1.17068e-21
1.39077e-21
2.30615e-21
6.10277e-21
1.54942e-20
4.79879e-20
1.39876e-19
5.16753e-19
1.12963e-18
3.3855e-18
9.9614e-18
2.99369e-17
8.5072e-17
2.12627e-16
6.68936e-16
1.80851e-15
5.18276e-15
1.25728e-14
3.36594e-14
8.92492e-14
2.27616e-13
5.50583e-13
1.21208e-12
2.32971e-12
3.61595e-12
3.44262e-12
-3.65681e-12
-3.46771e-11
-1.34074e-10
-4.2084e-10
-1.34369e-09
-3.95736e-09
-1.23952e-08
-4.06955e-08
-1.34759e-07
-4.63549e-07
-1.70326e-06
-6.08226e-06
-1.69974e-05
-2.52397e-05
-2.43358e-05
-6.02413e-05
-0.000216312
-0.000655221
-0.00171069
-0.00399628
-0.00825349
-0.0135905
-0.0127818
0.00225432
0.0238815
-0.00250425
-0.0330066
-0.0340725
-0.00293299
0.0277992
0.0584936
0.0796197
0.0181089
0.00854347
-0.0384797
-0.0219793
-0.0121281
-0.00667647
-0.00363555
-0.00191375
-0.000987994
-0.000485149
-0.000229606
-9.74498e-05
-3.43141e-05
-1.2845e-05
-5.58873e-06
-2.39046e-06
-9.1999e-07
-1.69255e-07
3.31416e-23
2.85831e-23
5.40965e-23
1.50849e-22
1.10909e-22
1.14977e-22
1.0814e-22
2.37635e-22
1.49766e-22
1.57938e-22
1.31892e-22
1.47278e-22
1.84665e-22
1.72261e-22
1.71844e-22
1.62755e-22
1.09448e-22
1.97431e-22
4.09582e-22
5.57706e-22
5.17173e-22
3.1084e-22
3.13115e-22
8.57087e-22
1.08694e-21
1.81389e-21
2.04496e-21
6.61819e-21
1.62302e-20
5.10885e-20
1.571e-19
4.29503e-19
1.24588e-18
3.39762e-18
1.08185e-17
2.84171e-17
8.79156e-17
2.24355e-16
6.50982e-16
1.89092e-15
5.04727e-15
1.30532e-14
3.34499e-14
9.06622e-14
2.29113e-13
5.54226e-13
1.21861e-12
2.33875e-12
3.6248e-12
3.44795e-12
-3.64531e-12
-3.45792e-11
-1.3357e-10
-4.19359e-10
-1.34002e-09
-3.94138e-09
-1.23334e-08
-4.04762e-08
-1.33972e-07
-4.60539e-07
-1.69104e-06
-6.0392e-06
-1.69146e-05
-2.52229e-05
-2.42932e-05
-5.96996e-05
-0.000214511
-0.000650486
-0.00170004
-0.00397562
-0.00821998
-0.0135694
-0.0128355
0.00211614
0.0237951
-0.00212909
-0.0329701
-0.0342003
-0.00309681
0.0276875
0.0583378
0.0797694
0.0183093
0.00859904
-0.0384609
-0.0220183
-0.0121493
-0.00668826
-0.00364218
-0.00191721
-0.000989877
-0.000486068
-0.000230071
-9.76768e-05
-3.43927e-05
-1.28697e-05
-5.59992e-06
-2.39589e-06
-9.22264e-07
-1.69742e-07
1.37516e-23
1.39441e-22
1.4003e-22
1.7916e-22
1.07178e-22
1.14744e-22
1.51994e-22
2.91605e-22
1.87158e-22
8.4434e-23
2.84188e-22
2.80453e-22
4.15668e-22
2.04637e-22
1.5297e-22
2.57288e-22
1.45333e-22
3.67574e-22
2.24834e-22
4.8998e-22
5.63351e-22
2.45656e-22
4.60252e-22
7.86899e-22
7.62901e-22
7.50877e-22
1.99319e-21
4.83308e-21
1.64583e-20
5.01179e-20
1.4369e-19
4.58147e-19
1.21106e-18
3.83142e-18
1.11758e-17
3.18278e-17
8.75355e-17
2.30028e-16
6.55474e-16
1.96888e-15
4.90143e-15
1.31313e-14
3.45668e-14
9.01842e-14
2.30392e-13
5.56392e-13
1.22238e-12
2.34403e-12
3.6297e-12
3.44854e-12
-3.6503e-12
-3.45689e-11
-1.33449e-10
-4.19064e-10
-1.3398e-09
-3.93819e-09
-1.23199e-08
-4.04281e-08
-1.338e-07
-4.59886e-07
-1.68841e-06
-6.02995e-06
-1.68977e-05
-2.52216e-05
-2.42879e-05
-5.95999e-05
-0.000214188
-0.000649656
-0.00169818
-0.00397213
-0.00821436
-0.0135658
-0.0128428
0.00209399
0.0237815
-0.00206835
-0.0329631
-0.03422
-0.00312241
0.0276697
0.0583131
0.0797916
0.0183399
0.00860733
-0.0384579
-0.0220244
-0.0121527
-0.00669011
-0.00364321
-0.00191775
-0.00099017
-0.00048621
-0.000230141
-9.77111e-05
-3.44079e-05
-1.28739e-05
-5.60172e-06
-2.39669e-06
-9.22574e-07
-1.69804e-07
1.26203e-23
8.04805e-23
2.12636e-22
2.42761e-22
1.54372e-22
9.20721e-23
1.01239e-22
1.93527e-22
3.32714e-22
2.3499e-22
9.55711e-23
1.85152e-22
7.80032e-23
2.48749e-22
2.88132e-22
2.45772e-22
2.93461e-22
1.84711e-22
1.3308e-22
2.58742e-22
4.12245e-22
3.59123e-22
3.6476e-22
4.13672e-22
7.89613e-22
7.85175e-22
2.48947e-21
6.35798e-21
1.76484e-20
4.98544e-20
1.56468e-19
5.05925e-19
1.25335e-18
3.94261e-18
1.10447e-17
3.19247e-17
8.6224e-17
2.58447e-16
6.94798e-16
1.85987e-15
5.03578e-15
1.39429e-14
3.41415e-14
8.83383e-14
2.32336e-13
5.57358e-13
1.22385e-12
2.34611e-12
3.63108e-12
3.44387e-12
-3.67912e-12
-3.4681e-11
-1.33823e-10
-4.20305e-10
-1.34435e-09
-3.95255e-09
-1.23714e-08
-4.06034e-08
-1.3441e-07
-4.62169e-07
-1.69763e-06
-6.06259e-06
-1.69596e-05
-2.52329e-05
-2.4318e-05
-5.99974e-05
-0.0002155
-0.000653053
-0.00170576
-0.0039869
-0.00823874
-0.0135815
-0.0128033
0.00219535
0.0238445
-0.00234275
-0.03299
-0.0341269
-0.0030009
0.0277507
0.0584265
0.0796831
0.0181934
0.00856673
-0.038473
-0.0219961
-0.0121373
-0.00668155
-0.00363837
-0.00191523
-0.000988786
-0.000485536
-0.000229799
-9.75392e-05
-3.43419e-05
-1.28542e-05
-5.59292e-06
-2.39243e-06
-9.20789e-07
-1.69419e-07
2.67772e-23
4.48443e-23
6.50267e-23
8.00093e-23
1.70206e-22
2.03617e-22
6.64474e-23
1.60747e-22
1.89886e-22
1.01399e-22
9.34523e-23
1.06181e-22
7.97064e-23
3.52206e-22
3.09445e-22
5.71486e-22
6.70794e-22
2.5891e-22
1.88905e-22
3.37936e-22
4.33841e-22
6.58788e-22
5.90114e-22
9.55525e-22
8.32699e-22
1.16471e-21
1.79583e-21
5.71876e-21
1.89983e-20
4.75752e-20
1.46902e-19
4.97003e-19
1.24798e-18
3.815e-18
1.08494e-17
3.05654e-17
8.7303e-17
2.48395e-16
6.33576e-16
1.89246e-15
4.86857e-15
1.40325e-14
3.4117e-14
8.8586e-14
2.31299e-13
5.5668e-13
1.22261e-12
2.34451e-12
3.62855e-12
3.43417e-12
-3.72841e-12
-3.49027e-11
-1.3467e-10
-4.23106e-10
-1.35371e-09
-3.98425e-09
-1.24862e-08
-4.09934e-08
-1.35765e-07
-4.67258e-07
-1.71826e-06
-6.13538e-06
-1.70959e-05
-2.5254e-05
-2.43824e-05
-6.08706e-05
-0.000218366
-0.000660478
-0.00172231
-0.00401888
-0.00829145
-0.0136135
-0.0127188
0.00241541
0.0239792
-0.00293858
-0.0330481
-0.033922
-0.0027439
0.0279268
0.058674
0.0794426
0.0178777
0.00847617
-0.0385002
-0.0219354
-0.0121042
-0.00666315
-0.00362799
-0.00190982
-0.000985824
-0.000484085
-0.000229066
-9.71744e-05
-3.4205e-05
-1.28139e-05
-5.57463e-06
-2.38349e-06
-9.17027e-07
-1.68609e-07
1.23258e-22
1.46719e-22
1.23453e-22
1.88089e-22
1.87231e-22
1.34719e-22
9.50051e-23
1.09784e-22
1.23684e-22
1.32846e-22
1.70786e-22
5.42285e-23
9.70856e-23
1.21041e-22
2.01516e-22
3.03414e-22
3.11299e-22
5.59873e-22
4.17398e-22
5.24394e-22
3.7682e-22
3.74159e-22
5.02833e-22
4.1814e-22
1.10218e-21
2.01489e-21
2.55187e-21
5.11972e-21
1.72962e-20
4.82502e-20
1.50519e-19
4.01074e-19
1.26797e-18
3.48448e-18
1.0238e-17
2.95582e-17
8.67577e-17
2.47047e-16
6.47187e-16
1.85266e-15
5.01786e-15
1.28222e-14
3.51055e-14
8.99536e-14
2.28581e-13
5.54176e-13
1.21894e-12
2.33961e-12
3.62241e-12
3.41856e-12
-3.8044e-12
-3.52601e-11
-1.36064e-10
-4.27643e-10
-1.36855e-09
-4.03576e-09
-1.26741e-08
-4.16337e-08
-1.3799e-07
-4.75601e-07
-1.7519e-06
-6.25315e-06
-1.73094e-05
-2.52749e-05
-2.44833e-05
-6.22529e-05
-0.00022287
-0.000672071
-0.00174802
-0.00406836
-0.00837245
-0.0136663
-0.012586
0.00275192
0.0241744
-0.00384407
-0.0331372
-0.0336047
-0.00235374
0.0281891
0.0590437
0.0790696
0.0174181
0.0083351
-0.0385269
-0.0218469
-0.0120559
-0.00663629
-0.00361281
-0.0019019
-0.000981483
-0.000481969
-0.000227995
-9.66426e-05
-3.40126e-05
-1.27548e-05
-5.54778e-06
-2.37033e-06
-9.11474e-07
-1.67414e-07
5.13977e-23
8.72025e-23
1.70432e-22
1.87032e-22
1.35484e-22
7.68042e-23
4.73994e-23
1.46652e-22
6.04342e-23
5.98377e-23
2.39083e-22
1.9582e-22
3.02965e-22
3.62366e-22
2.90793e-22
3.92444e-22
4.5444e-22
5.85498e-22
5.23163e-22
5.00646e-22
6.72629e-22
1.65854e-22
2.04585e-22
6.74148e-22
9.41172e-22
1.17081e-21
2.43766e-21
6.00101e-21
1.38877e-20
5.21101e-20
1.35199e-19
4.34111e-19
1.21354e-18
3.50747e-18
1.06976e-17
2.96485e-17
8.19916e-17
2.44806e-16
6.4117e-16
1.81639e-15
4.85931e-15
1.33915e-14
3.39181e-14
8.79302e-14
2.27972e-13
5.5051e-13
1.21251e-12
2.33064e-12
3.6116e-12
3.39686e-12
-3.90615e-12
-3.57602e-11
-1.38061e-10
-4.34029e-10
-1.38836e-09
-4.10436e-09
-1.29263e-08
-4.24982e-08
-1.41016e-07
-4.87051e-07
-1.7986e-06
-6.41773e-06
-1.75947e-05
-2.52754e-05
-2.46125e-05
-6.40888e-05
-0.000228795
-0.000687214
-0.00178142
-0.00413324
-0.0084764
-0.0137253
-0.0124081
0.00319223
0.0244153
-0.00501359
-0.0332534
-0.0331821
-0.00184871
0.0285252
0.0595227
0.0785658
0.0168401
0.00814296
-0.0385373
-0.0217366
-0.0119957
-0.00660277
-0.00359386
-0.001892
-0.000976054
-0.000479312
-0.000226655
-9.5976e-05
-3.37726e-05
-1.26815e-05
-5.51414e-06
-2.35373e-06
-9.04453e-07
-1.65903e-07
3.42571e-23
5.31869e-23
1.61125e-22
1.12127e-22
1.1274e-22
1.29464e-22
2.85013e-22
1.1306e-22
1.2038e-22
1.08446e-22
1.81488e-22
2.92376e-22
3.46746e-22
3.27191e-22
8.2118e-23
1.5167e-22
2.6719e-22
1.80833e-22
2.38286e-22
3.24792e-22
2.63442e-22
8.10546e-22
5.46137e-22
1.02068e-21
1.20171e-21
1.65835e-21
3.10474e-21
6.77207e-21
1.43791e-20
4.5423e-20
1.6759e-19
4.31258e-19
1.11564e-18
3.72258e-18
1.17589e-17
2.63236e-17
8.4902e-17
2.04026e-16
5.9793e-16
1.83245e-15
5.06583e-15
1.32421e-14
3.28361e-14
8.74397e-14
2.24211e-13
5.44913e-13
1.20287e-12
2.31717e-12
3.59642e-12
3.37073e-12
-4.0279e-12