/*--------------------------------*- C++ -*----------------------------------*\
  =========                 |
  \\      /  F ield         | OpenFOAM: The Open Source CFD Toolbox
   \\    /   O peration     | Website:  https://openfoam.org
    \\  /    A nd           | Version:  10
     \\/     M anipulation  |
\*---------------------------------------------------------------------------*/
FoamFile
{
    format      ascii;
    class       volScalarField;
    location    "1";
    object      RR.CH2CHO;
}
// * * * * * * * * * * * * * * * * * * * * * * * * * * * * * * * * * * * * * //

dimensions      [1 -3 -1 0 0 0 0];

internalField   nonuniform List<scalar> 
4000
(
-5.94887e-37
-2.39289e-36
-8.61386e-36
-2.84681e-35
-9.19445e-35
-2.83783e-34
-8.40078e-34
-2.41579e-33
-6.83558e-33
-1.94031e-32
-5.65256e-32
-1.57471e-31
-4.26595e-31
-1.14072e-30
-3.02718e-30
-7.94691e-30
-2.02661e-29
-5.2477e-29
-1.26487e-28
-2.84894e-28
-5.50732e-28
-6.60167e-28
1.32111e-27
1.50794e-26
8.31098e-26
3.73281e-25
1.48715e-24
5.96428e-24
2.19639e-23
7.89487e-23
2.77873e-22
9.58153e-22
3.22503e-21
1.06761e-20
3.49907e-20
1.08214e-19
3.47601e-19
1.0756e-18
3.29814e-18
9.86928e-18
2.75043e-17
7.06716e-17
1.4408e-16
6.99871e-17
-1.75327e-15
-1.79396e-14
-1.42358e-13
-1.00332e-12
-6.48582e-12
-3.84863e-11
-2.10273e-10
-1.08412e-09
-4.46072e-09
-1.96842e-08
-8.01608e-08
-2.88256e-07
-8.78641e-07
-2.41454e-06
-5.57992e-06
-1.05327e-05
-1.55452e-05
-1.60727e-05
-6.56857e-06
1.38202e-05
4.41064e-05
8.10048e-05
8.63837e-05
3.52639e-05
-3.33983e-05
-8.1031e-05
-0.00013119
-2.88684e-05
0.000210089
0.000386369
0.000296686
-0.000227943
-0.000180257
-6.44547e-05
-4.56598e-06
-7.38327e-06
-2.17016e-05
-2.37235e-05
-1.5907e-05
-8.76262e-06
-4.76355e-06
-2.64117e-06
-1.47851e-06
-8.37991e-07
-4.89976e-07
-3.18799e-07
-2.74706e-07
-3.57596e-07
-5.03198e-07
-6.48649e-07
1.17803e-06
1.53637e-06
-3.71453e-07
-3.98758e-07
-1.66451e-07
-3.62449e-08
-8.96476e-37
-4.42965e-36
-1.43786e-35
-4.41015e-35
-1.32678e-34
-3.90127e-34
-1.11619e-33
-3.14894e-33
-8.48539e-33
-2.26905e-32
-6.08977e-32
-1.6466e-31
-4.47692e-31
-1.22404e-30
-3.36391e-30
-9.25839e-30
-2.53062e-29
-6.83492e-29
-1.79978e-28
-4.50832e-28
-1.03406e-27
-1.96924e-27
-1.79995e-27
9.21295e-27
7.90525e-26
4.11158e-25
1.81958e-24
7.38866e-24
2.82689e-23
1.03283e-22
3.73092e-22
1.34451e-21
4.58654e-21
1.50546e-20
4.86804e-20
1.56544e-19
4.85376e-19
1.51751e-18
4.46761e-18
1.30046e-17
3.59099e-17
8.78033e-17
1.58229e-16
-9.46763e-17
-3.82521e-15
-3.46503e-14
-2.57889e-13
-1.71766e-12
-1.06637e-11
-6.2374e-11
-2.95871e-10
-1.22942e-09
-5.67756e-09
-2.39696e-08
-9.46445e-08
-3.38346e-07
-9.76018e-07
-2.57585e-06
-5.79466e-06
-1.06967e-05
-1.56831e-05
-1.63337e-05
-7.26391e-06
1.25259e-05
4.20106e-05
7.90706e-05
8.74884e-05
3.86859e-05
-3.07269e-05
-7.84909e-05
-0.000133558
-3.95767e-05
0.000203874
0.000391489
0.000316796
-0.000224119
-0.000185271
-6.66757e-05
-4.56406e-06
-7.39428e-06
-2.21976e-05
-2.42443e-05
-1.61079e-05
-8.83216e-06
-4.79618e-06
-2.65477e-06
-1.48445e-06
-8.40823e-07
-4.92545e-07
-3.23415e-07
-2.84861e-07
-3.77725e-07
-5.23396e-07
-6.58308e-07
1.44934e-06
1.38742e-06
-4.15904e-07
-3.88201e-07
-1.58037e-07
-3.40644e-08
-6.11272e-37
-3.03453e-36
-9.6149e-36
-2.7321e-35
-7.51519e-35
-2.03714e-34
-5.50214e-34
-1.50504e-33
-4.25186e-33
-1.25568e-32
-3.80461e-32
-1.17472e-31
-3.66401e-31
-1.14113e-30
-3.52847e-30
-1.07803e-29
-3.2415e-29
-9.5412e-29
-2.72316e-28
-7.41975e-28
-1.89131e-27
-4.28001e-27
-7.3941e-27
-1.90929e-27
6.67594e-26
4.51836e-25
2.2065e-24
9.5504e-24
3.74144e-23
1.3847e-22
5.18285e-22
1.7976e-21
6.00404e-21
2.00217e-20
6.5625e-20
2.07591e-19
6.38078e-19
1.93108e-18
5.74624e-18
1.61973e-17
4.36643e-17
1.00353e-16
1.56937e-16
-3.37955e-16
-6.31088e-15
-5.15329e-14
-3.75639e-13
-2.43304e-12
-1.41422e-11
-7.97413e-11
-3.68734e-10
-1.5582e-09
-7.10606e-09
-3.06278e-08
-1.13465e-07
-3.6578e-07
-1.0242e-06
-2.66063e-06
-5.91109e-06
-1.08374e-05
-1.58294e-05
-1.65961e-05
-7.91777e-06
1.12166e-05
4.00354e-05
7.71545e-05
8.81266e-05
4.29629e-05
-2.69284e-05
-7.69986e-05
-0.000133985
-4.97699e-05
0.000197907
0.000397258
0.000339252
-0.00021962
-0.000191437
-6.92134e-05
-4.45004e-06
-7.45311e-06
-2.29755e-05
-2.49992e-05
-1.6385e-05
-8.9231e-06
-4.83878e-06
-2.67241e-06
-1.49241e-06
-8.44923e-07
-4.96294e-07
-3.30094e-07
-2.99368e-07
-4.04704e-07
-5.47766e-07
-6.52874e-07
1.75531e-06
1.18598e-06
-4.58941e-07
-3.75004e-07
-1.48948e-07
-3.17714e-08
-4.6394e-37
-2.33414e-36
-7.80298e-36
-2.36832e-35
-7.02553e-35
-2.09208e-34
-6.31128e-34
-2.01159e-33
-6.35677e-33
-2.01243e-32
-6.49462e-32
-2.0697e-31
-6.67199e-31
-2.09835e-30
-6.52856e-30
-2.00043e-29
-6.01787e-29
-1.76793e-28
-5.03568e-28
-1.37892e-27
-3.57154e-27
-8.45932e-27
-1.68448e-26
-1.95985e-26
5.20955e-26
5.28932e-25
2.82815e-24
1.24612e-23
4.88303e-23
1.89558e-22
6.79838e-22
2.36456e-21
7.94908e-21
2.62726e-20
8.5232e-20
2.67278e-19
8.12736e-19
2.46032e-18
7.19163e-18
2.00988e-17
5.28897e-17
1.16597e-16
1.38929e-16
-7.467e-16
-8.93822e-15
-7.3939e-14
-5.15117e-13
-3.18209e-12
-1.9016e-11
-9.05224e-11
-4.07469e-10
-2.0156e-09
-9.18927e-09
-3.71385e-08
-1.32601e-07
-3.8367e-07
-1.07137e-06
-2.74593e-06
-6.03424e-06
-1.0947e-05
-1.59412e-05
-1.68235e-05
-8.48391e-06
1.02235e-05
3.84986e-05
7.56131e-05
8.89017e-05
4.6429e-05
-2.36889e-05
-7.53236e-05
-0.000134467
-5.94123e-05
0.000193093
0.0004031
0.000361489
-0.000217859
-0.000196688
-7.12499e-05
-4.29295e-06
-7.79229e-06
-2.39798e-05
-2.58293e-05
-1.67471e-05
-8.95354e-06
-4.86213e-06
-2.68421e-06
-1.49904e-06
-8.49302e-07
-5.0159e-07
-3.35986e-07
-3.14196e-07
-4.314e-07
-5.73741e-07
-6.23788e-07
2.03472e-06
9.78462e-07
-4.93521e-07
-3.6335e-07
-1.40613e-07
-2.96942e-08
-6.97652e-37
-3.5678e-36
-1.23487e-35
-3.90761e-35
-1.20798e-34
-3.72756e-34
-1.1557e-33
-3.59848e-33
-1.11601e-32
-3.56226e-32
-1.11658e-31
-3.50941e-31
-1.11124e-30
-3.44059e-30
-1.07501e-29
-3.25646e-29
-9.68168e-29
-2.86909e-28
-8.17393e-28
-2.24566e-27
-5.86407e-27
-1.414e-26
-2.96181e-26
-4.33769e-26
2.5757e-26
5.96253e-25
3.47975e-24
1.60983e-23
6.48231e-23
2.43739e-22
8.75835e-22
3.11892e-21
1.0391e-20
3.41419e-20
1.08759e-19
3.40011e-19
1.01915e-18
2.96576e-18
8.70153e-18
2.42181e-17
6.15468e-17
1.2984e-16
1.0908e-16
-1.26116e-15
-1.27405e-14
-9.92386e-14
-6.55884e-13
-4.1999e-12
-2.07698e-11
-9.68094e-11
-4.99318e-10
-2.40752e-09
-1.09855e-08
-4.5215e-08
-1.40331e-07
-4.03976e-07
-1.11856e-06
-2.8211e-06
-6.12269e-06
-1.10464e-05
-1.60444e-05
-1.70115e-05
-8.93044e-06
9.39105e-06
3.71953e-05
7.43497e-05
8.97007e-05
4.93172e-05
-2.11537e-05
-7.39017e-05
-0.000135158
-6.59645e-05
0.000189438
0.00040975
0.000380797
-0.000214918
-0.000202475
-7.34645e-05
-4.19944e-06
-8.03258e-06
-2.48564e-05
-2.65804e-05
-1.70147e-05
-9.06087e-06
-4.91639e-06
-2.71008e-06
-1.51215e-06
-8.56509e-07
-5.07178e-07
-3.43933e-07
-3.2933e-07
-4.56219e-07
-5.97669e-07
-5.71668e-07
2.24913e-06
8.11405e-07
-5.1709e-07
-3.54106e-07
-1.34958e-07
-2.79492e-08
-1.20989e-36
-6.43016e-36
-2.26985e-35
-7.36204e-35
-2.32822e-34
-7.30283e-34
-2.28276e-33
-7.12469e-33
-2.21867e-32
-6.89821e-32
-2.13093e-31
-6.50849e-31
-2.02508e-30
-6.13521e-30
-1.8387e-29
-5.51781e-29
-1.61505e-28
-4.64329e-28
-1.30789e-27
-3.53069e-27
-9.26793e-27
-2.22702e-26
-4.73666e-26
-7.55531e-26
-4.99397e-27
7.27301e-25
4.48637e-24
2.03907e-23
8.40414e-23
3.13204e-22
1.11312e-21
3.9643e-21
1.30925e-20
4.22856e-20
1.32735e-19
4.09583e-19
1.21935e-18
3.50736e-18
1.02479e-17
2.91609e-17
7.1134e-17
1.38979e-16
5.47377e-17
-1.88236e-15
-1.73375e-14
-1.25593e-13
-8.55031e-13
-4.58107e-12
-2.27018e-11
-1.16299e-10
-5.90423e-10
-2.82234e-09
-1.23528e-08
-4.96556e-08
-1.51899e-07
-4.27603e-07
-1.15649e-06
-2.89084e-06
-6.20034e-06
-1.11165e-05
-1.61197e-05
-1.71678e-05
-9.31329e-06
8.72193e-06
3.62497e-05
7.34736e-05
9.00625e-05
5.18122e-05
-1.82035e-05
-7.23473e-05
-0.000135809
-7.22309e-05
0.000186442
0.000414819
0.000394903
-0.000211745
-0.000207082
-7.52696e-05
-4.07859e-06
-8.17987e-06
-2.55965e-05
-2.72145e-05
-1.72471e-05
-9.16774e-06
-4.97356e-06
-2.73953e-06
-1.52782e-06
-8.65318e-07
-5.1354e-07
-3.51876e-07
-3.43244e-07
-4.77357e-07
-6.18709e-07
-5.13183e-07
2.38357e-06
6.87281e-07
-5.33348e-07
-3.4795e-07
-1.30386e-07
-2.68363e-08
-1.97164e-36
-1.01502e-35
-3.63316e-35
-1.17145e-34
-3.65676e-34
-1.15873e-33
-3.59325e-33
-1.11556e-32
-3.45774e-32
-1.06723e-31
-3.28093e-31
-1.0037e-30
-3.0497e-30
-9.18172e-30
-2.74138e-29
-8.10973e-29
-2.37152e-28
-6.75734e-28
-1.87773e-27
-5.10901e-27
-1.3173e-26
-3.17416e-26
-6.823e-26
-1.13728e-25
-4.36423e-26
8.13991e-25
5.40118e-24
2.45774e-23
1.02752e-22
3.91204e-22
1.38866e-21
4.75558e-21
1.57614e-20
5.0986e-20
1.5839e-19
4.88864e-19
1.48801e-18
4.24119e-18
1.23537e-17
3.32686e-17
7.99405e-17
1.46616e-16
-3.03859e-17
-2.51313e-15
-2.20533e-14
-1.56371e-13
-9.71094e-13
-4.70757e-12
-2.60007e-11
-1.3531e-10
-6.65164e-10
-3.11141e-09
-1.33754e-08
-5.28458e-08
-1.59788e-07
-4.45698e-07
-1.18741e-06
-2.93541e-06
-6.2542e-06
-1.1163e-05
-1.61711e-05
-1.73073e-05
-9.67172e-06
8.11157e-06
3.53869e-05
7.27336e-05
9.04785e-05
5.39041e-05
-1.60897e-05
-7.1139e-05
-0.000136047
-7.66428e-05
0.000183409
0.000418652
0.000407827
-0.000207425
-0.000211405
-7.72535e-05
-4.10015e-06
-8.27297e-06
-2.62077e-05
-2.77805e-05
-1.74831e-05
-9.2825e-06
-5.03498e-06
-2.77209e-06
-1.54548e-06
-8.75312e-07
-5.20358e-07
-3.59309e-07
-3.55177e-07
-4.94566e-07
-6.36967e-07
-4.57808e-07
2.48392e-06
5.99304e-07
-5.44652e-07
-3.44142e-07
-1.27469e-07
-2.61208e-08
-2.85028e-36
-1.47778e-35
-5.24782e-35
-1.70778e-34
-5.40754e-34
-1.69491e-33
-5.28351e-33
-1.64042e-32
-5.07253e-32
-1.56132e-31
-4.77649e-31
-1.45305e-30
-4.39725e-30
-1.32013e-29
-3.90889e-29
-1.14482e-28
-3.31009e-28
-9.37761e-28
-2.59432e-27
-6.96181e-27
-1.79184e-26
-4.31596e-26
-9.3214e-26
-1.59251e-25
-8.93046e-26
9.54569e-25
6.60803e-24
3.0709e-23
1.22334e-22
4.54579e-22
1.65009e-21
5.74284e-21
1.8925e-20
6.04658e-20
1.86074e-19
5.6712e-19
1.7072e-18
4.81638e-18
1.39317e-17
3.73329e-17
8.81452e-17
1.49233e-16
-1.27688e-16
-3.38407e-15
-2.8434e-14
-1.92898e-13
-1.04966e-12
-5.51748e-12
-3.00619e-11
-1.54133e-10
-7.55854e-10
-3.43625e-09
-1.44385e-08
-5.59624e-08
-1.66982e-07
-4.59957e-07
-1.21166e-06
-2.96882e-06
-6.28497e-06
-1.11804e-05
-1.61997e-05
-1.74365e-05
-1.00354e-05
7.51587e-06
3.44777e-05
7.18367e-05
9.09755e-05
5.5956e-05
-1.39884e-05
-6.98756e-05
-0.000136095
-8.18341e-05
0.000179156
0.000420957
0.000420079
-0.000201308
-0.000215733
-7.96118e-05
-4.31031e-06
-8.27796e-06
-2.66899e-05
-2.82899e-05
-1.77322e-05
-9.40788e-06
-5.10189e-06
-2.80804e-06
-1.56514e-06
-8.86417e-07
-5.27546e-07
-3.66141e-07
-3.65061e-07
-5.08347e-07
-6.52271e-07
-4.14244e-07
2.5642e-06
5.40074e-07
-5.53719e-07
-3.42353e-07
-1.25822e-07
-2.57059e-08
-3.76205e-36
-1.95841e-35
-6.9857e-35
-2.27714e-34
-7.22456e-34
-2.26589e-33
-7.05552e-33
-2.18648e-32
-6.74342e-32
-2.08084e-31
-6.34905e-31
-1.92283e-30
-5.77841e-30
-1.73299e-29
-5.10717e-29
-1.48691e-28
-4.27383e-28
-1.20485e-27
-3.30689e-27
-8.9509e-27
-2.29466e-26
-5.48218e-26
-1.2016e-25
-2.08188e-25
-1.41325e-25
1.09702e-24
7.90524e-24
3.7404e-23
1.51158e-22
5.59852e-22
1.94905e-21
6.70778e-21
2.19904e-20
7.0487e-20
2.18042e-19
6.58309e-19
1.94253e-18
5.42851e-18
1.55777e-17
4.13418e-17
9.46842e-17
1.48222e-16
-2.46405e-16
-4.5041e-15
-3.18197e-14
-1.86017e-13
-1.14922e-12
-6.47799e-12
-3.44349e-11
-1.75473e-10
-8.34978e-10
-3.71495e-09
-1.53374e-08
-5.85312e-08
-1.72352e-07
-4.70213e-07
-1.22803e-06
-2.98726e-06
-6.29262e-06
-1.11699e-05
-1.6209e-05
-1.75877e-05
-1.04836e-05
6.72252e-06
3.34069e-05
7.0904e-05
9.13807e-05
5.81295e-05
-1.15632e-05
-6.8742e-05
-0.000136119
-8.83529e-05
0.000173541
0.000422057
0.000432126
-0.000192943
-0.000220205
-8.24021e-05
-4.71753e-06
-8.18741e-06
-2.70439e-05
-2.87572e-05
-1.80013e-05
-9.54561e-06
-5.17496e-06
-2.84745e-06
-1.58674e-06
-8.98553e-07
-5.35053e-07
-3.72386e-07
-3.73063e-07
-5.19196e-07
-6.64883e-07
-3.85305e-07
2.60654e-06
5.03551e-07
-5.61159e-07
-3.42279e-07
-1.25175e-07
-2.55245e-08
-4.6155e-36
-2.48046e-35
-8.75294e-35
-2.83652e-34
-9.10458e-34
-2.85224e-33
-8.91462e-33
-2.76654e-32
-8.53534e-32
-2.61653e-31
-7.97631e-31
-2.42603e-30
-7.2751e-30
-2.16493e-29
-6.3903e-29
-1.83642e-28
-5.40637e-28
-1.51386e-27
-4.15651e-27
-1.10593e-26
-2.804e-26
-6.82967e-26
-1.48057e-25
-2.61111e-25
-2.02086e-25
1.19891e-24
9.07313e-24
4.31229e-23
1.78578e-22
6.66483e-22
2.33657e-21
7.81181e-21
2.52536e-20
7.96623e-20
2.4385e-19
7.29628e-19
2.11678e-18
5.95798e-18
1.71111e-17
4.45868e-17
9.97908e-17
1.4508e-16
-3.45209e-16
-4.85878e-15
-3.31925e-14
-2.22995e-13
-1.33186e-12
-7.40705e-12
-3.93612e-11
-1.95822e-10
-9.15557e-10
-4.00424e-09
-1.62119e-08
-6.0234e-08
-1.76045e-07
-4.78045e-07
-1.23796e-06
-2.99298e-06
-6.28078e-06
-1.11377e-05
-1.61971e-05
-1.77079e-05
-1.09353e-05
5.95676e-06
3.22669e-05
6.97874e-05
9.18671e-05
6.03127e-05
-9.6972e-06
-6.88769e-05
-0.000130464
-9.40331e-05
0.000166883
0.000421014
0.000443705
-0.000181267
-0.000225458
-8.60195e-05
-5.37895e-06
-8.01651e-06
-2.72914e-05
-2.91994e-05
-1.82907e-05
-9.69441e-06
-5.25294e-06
-2.88961e-06
-1.60986e-06
-9.1148e-07
-5.42775e-07
-3.7809e-07
-3.7943e-07
-5.27598e-07
-6.74844e-07
-3.70156e-07
2.64583e-06
4.8525e-07
-5.67454e-07
-3.4355e-07
-1.25291e-07
-2.55205e-08
-5.59895e-36
-2.9745e-35
-1.05541e-34
-3.44245e-34
-1.09292e-33
-3.42936e-33
-1.06917e-32
-3.31561e-32
-1.02092e-31
-3.12503e-31
-9.66684e-31
-2.92396e-30
-8.76288e-30
-2.61787e-29
-7.73028e-29
-2.2589e-28
-6.47015e-28
-1.81441e-27
-4.95671e-27
-1.3229e-26
-3.33948e-26
-8.13092e-26
-1.76669e-25
-3.1608e-25
-2.82096e-25
1.26889e-24
9.99465e-24
4.83775e-23
2.00093e-22
7.49742e-22
2.63159e-21
8.79279e-21
2.82152e-20
8.95283e-20
2.71086e-19
8.04761e-19
2.33833e-18
6.48247e-18
1.87149e-17
4.75623e-17
1.04403e-16
1.40396e-16
-4.00616e-16
-5.20155e-15
-3.96799e-14
-2.58589e-13
-1.53338e-12
-8.52924e-12
-4.4562e-11
-2.19728e-10
-1.02123e-09
-4.44575e-09
-1.81194e-08
-6.06658e-08
-1.78666e-07
-4.83182e-07
-1.24173e-06
-2.9865e-06
-6.2485e-06
-1.10681e-05
-1.61462e-05
-1.7816e-05
-1.133e-05
5.24055e-06
3.11891e-05
6.86594e-05
9.21025e-05
6.27337e-05
-7.14595e-06
-6.76833e-05
-0.000129684
-9.95577e-05
0.000159231
0.000419261
0.000454687
-0.0001681
-0.00023022
-8.95805e-05
-6.11605e-06
-7.75831e-06
-2.74274e-05
-2.96016e-05
-1.8588e-05
-9.8493e-06
-5.33515e-06
-2.9337e-06
-1.63392e-06
-9.24852e-07
-5.50593e-07
-3.83331e-07
-3.84467e-07
-5.34101e-07
-6.82797e-07
-3.66812e-07
2.67711e-06
4.80105e-07
-5.73055e-07
-3.45835e-07
-1.25969e-07
-2.56464e-08
-6.5627e-36
-3.44783e-35
-1.22555e-34
-3.99507e-34
-1.26699e-33
-3.97275e-33
-1.23884e-32
-3.85077e-32
-1.18753e-31
-3.67452e-31
-1.12443e-30
-3.41005e-30
-1.02315e-29
-3.05785e-29
-9.06299e-29
-2.63261e-28
-7.52688e-28
-2.11285e-27
-5.78737e-27
-1.53731e-26
-3.9172e-26
-9.39615e-26
-2.06132e-25
-3.71814e-25
-3.46498e-25
1.30199e-24
1.08842e-23
5.19813e-23
2.19728e-22
8.16645e-22
2.81398e-21
9.57687e-21
3.12492e-20
9.81338e-20
3.0188e-19
8.88828e-19
2.53512e-18
7.03391e-18
1.95955e-17
5.08589e-17
1.08811e-16
1.34904e-16
-4.93766e-16
-6.13024e-15
-4.56281e-14
-2.92781e-13
-1.71921e-12
-9.48999e-12
-4.91287e-11
-2.39915e-10
-1.10518e-09
-4.77424e-09
-1.92352e-08
-6.0355e-08
-1.80811e-07
-4.8687e-07
-1.24136e-06
-2.97293e-06
-6.20575e-06
-1.10055e-05
-1.61001e-05
-1.79092e-05
-1.17559e-05
4.53754e-06
3.01527e-05
6.75622e-05
9.22484e-05
6.49553e-05
-4.27337e-06
-6.62623e-05
-0.000128215
-0.000105276
0.000151275
0.000416807
0.00046412
-0.000153808
-0.000234833
-9.33233e-05
-6.95027e-06
-7.44126e-06
-2.74816e-05
-2.99683e-05
-1.8887e-05
-1.00067e-05
-5.41858e-06
-2.97945e-06
-1.65925e-06
-9.38994e-07
-5.58604e-07
-3.88258e-07
-3.88554e-07
-5.39305e-07
-6.89314e-07
-3.72166e-07
2.70372e-06
4.84728e-07
-5.78077e-07
-3.48797e-07
-1.27028e-07
-2.58613e-08
-7.18462e-36
-3.87486e-35
-1.38314e-34
-4.50325e-34
-1.42878e-33
-4.48599e-33
-1.40114e-32
-4.35439e-32
-1.35152e-31
-4.17038e-31
-1.2771e-30
-3.87651e-30
-1.16274e-29
-3.49255e-29
-1.02569e-28
-2.9704e-28
-8.40035e-28
-2.40157e-27
-6.55563e-27
-1.74525e-26
-4.45025e-26
-1.0708e-25
-2.35047e-25
-4.28957e-25
-4.27295e-25
1.31308e-24
1.15005e-23
5.6095e-23
2.31159e-22
8.99655e-22
3.1157e-21
1.05317e-20
3.38943e-20
1.07169e-19
3.23875e-19
9.48231e-19
2.68691e-18
7.43395e-18
2.0634e-17
5.36061e-17
1.13278e-16
1.26515e-16
-6.2554e-16
-7.24418e-15
-5.08317e-14
-3.23634e-13
-1.88768e-12
-1.02376e-11
-5.226e-11
-2.51963e-10
-1.14631e-09
-4.89289e-09
-1.94583e-08
-6.01121e-08
-1.83475e-07
-4.89632e-07
-1.2382e-06
-2.95227e-06
-6.15481e-06
-1.09233e-05
-1.60473e-05
-1.79876e-05
-1.21336e-05
3.83997e-06
2.9089e-05
6.63837e-05
9.2295e-05
6.70433e-05
-1.58343e-06
-6.45656e-05
-0.000126768
-0.000110532
0.000143051
0.000413024
0.000472438
-0.000137303
-0.0002398
-9.73653e-05
-7.90952e-06
-7.09794e-06
-2.74738e-05
-3.03236e-05
-1.92028e-05
-1.01708e-05
-5.5045e-06
-3.02591e-06
-1.68474e-06
-9.53148e-07
-5.66644e-07
-3.92943e-07
-3.91886e-07
-5.43338e-07
-6.9445e-07
-3.83572e-07
2.72525e-06
4.95787e-07
-5.82857e-07
-3.52353e-07
-1.28406e-07
-2.61487e-08
-7.57822e-36
-4.36782e-35
-1.54421e-34
-5.02697e-34
-1.59711e-33
-5.02934e-33
-1.57619e-32
-4.90214e-32
-1.51558e-31
-4.6586e-31
-1.42153e-30
-4.28677e-30
-1.3078e-29
-3.8931e-29
-1.14462e-28
-3.28306e-28
-9.52967e-28
-2.66304e-27
-7.29037e-27
-1.93285e-26
-4.91405e-26
-1.17914e-25
-2.62854e-25
-4.85931e-25
-5.20798e-25
1.27447e-24
1.24088e-23
6.15609e-23
2.52357e-22
9.43405e-22
3.31153e-21
1.12205e-20
3.61583e-20
1.12619e-19
3.41224e-19
9.97903e-19
2.84913e-18
7.77533e-18
2.19021e-17
5.61046e-17
1.161e-16
1.21091e-16
-7.45977e-16
-8.10709e-15
-5.5789e-14
-3.51134e-13
-2.01393e-12
-1.07924e-11
-5.45217e-11
-2.60262e-10
-1.17243e-09
-4.96304e-09
-1.95349e-08
-5.98164e-08
-1.85289e-07
-4.91287e-07
-1.2338e-06
-2.93299e-06
-6.10965e-06
-1.08449e-05
-1.59783e-05
-1.80507e-05
-1.24656e-05
3.21327e-06
2.81401e-05
6.53042e-05
9.23407e-05
6.87849e-05
6.95791e-07
-6.30765e-05
-0.000125301
-0.000114615
0.000135141
0.00040933
0.000479393
-0.000120599
-0.000244444
-0.000101337
-8.92255e-06
-6.7275e-06
-2.74243e-05
-3.0648e-05
-1.95087e-05
-1.03324e-05
-5.58865e-06
-3.07125e-06
-1.70951e-06
-9.66822e-07
-5.74281e-07
-3.97207e-07
-3.94628e-07
-5.46646e-07
-6.98887e-07
-3.99166e-07
2.75318e-06
5.11213e-07
-5.87172e-07
-3.56077e-07
-1.29901e-07
-2.64649e-08
-9.08589e-36
-4.72921e-35
-1.68337e-34
-5.49637e-34
-1.74515e-33
-5.48399e-33
-1.72724e-32
-5.35833e-32
-1.64814e-31
-5.08451e-31
-1.56312e-30
-4.73137e-30
-1.42104e-29
-4.23202e-29
-1.24859e-28
-3.613e-28
-1.02266e-27
-2.9073e-27
-7.9227e-27
-2.10279e-26
-5.38838e-26
-1.30096e-25
-2.87809e-25
-5.37694e-25
-6.04229e-25
1.21687e-24
1.26003e-23
6.33035e-23
2.61544e-22
9.99908e-22
3.51766e-21
1.18894e-20
3.78821e-20
1.17757e-19
3.50654e-19
1.01736e-18
2.98482e-18
8.11795e-18
2.26734e-17
5.66377e-17
1.2003e-16
1.101e-16
-8.77865e-16
-8.61566e-15
-5.96895e-14
-3.71441e-13
-2.11185e-12
-1.12266e-11
-5.62934e-11
-2.66815e-10
-1.1932e-09
-5.00637e-09
-1.95623e-08
-5.95471e-08
-1.8627e-07
-4.91474e-07
-1.2266e-06
-2.9095e-06
-6.05549e-06
-1.07686e-05
-1.59146e-05
-1.81033e-05
-1.27826e-05
2.64648e-06
2.72646e-05
6.42768e-05
9.229e-05
7.06084e-05
4.12006e-06
-6.16165e-05
-0.000124017
-0.00011862
0.000127557
0.000405513
0.000485326
-0.000104339
-0.000248661
-0.000105077
-9.89272e-06
-6.38017e-06
-2.73495e-05
-3.09267e-05
-1.97865e-05
-1.04789e-05
-5.66501e-06
-3.11248e-06
-1.73205e-06
-9.7926e-07
-5.81184e-07
-4.00947e-07
-3.96819e-07
-5.49227e-07
-7.02598e-07
-4.16111e-07
2.75755e-06
5.26715e-07
-5.91101e-07
-3.59667e-07
-1.31367e-07
-2.67765e-08
-9.76654e-36
-5.08904e-35
-1.81247e-34
-5.92034e-34
-1.88681e-33
-5.93371e-33
-1.85505e-32
-5.76954e-32
-1.78322e-31
-5.46276e-31
-1.66419e-30
-5.0613e-30
-1.5199e-29
-4.52653e-29
-1.33555e-28
-3.88193e-28
-1.10226e-27
-3.11421e-27
-8.48353e-27
-2.24942e-26
-5.78182e-26
-1.39799e-25
-3.10645e-25
-5.86855e-25
-6.92476e-25
1.12799e-24
1.29101e-23
6.54192e-23
2.68012e-22
1.02727e-21
3.57684e-21
1.21008e-20
3.92089e-20
1.21812e-19
3.67522e-19
1.08322e-18
3.08884e-18
8.7261e-18
2.38624e-17
6.00791e-17
1.21937e-16
1.041e-16
-9.55703e-16
-9.01868e-15
-6.26987e-14
-3.87686e-13
-2.18769e-12
-1.15526e-11
-5.75633e-11
-2.71144e-10
-1.20609e-09
-5.03347e-09
-1.95678e-08
-5.93011e-08
-1.86814e-07
-4.91049e-07
-1.21937e-06
-2.88537e-06
-6.00509e-06
-1.06909e-05
-1.58515e-05
-1.81406e-05
-1.30365e-05
2.1817e-06
2.65282e-05
6.339e-05
9.21815e-05
7.19946e-05
6.20515e-06
-6.03008e-05
-0.000122857
-0.000122241
0.000121109
0.00040208
0.000489905
-8.99637e-05
-0.000252228
-0.000108279
-1.07556e-05
-6.0817e-06
-2.72674e-05
-3.1151e-05
-2.00222e-05
-1.06041e-05
-5.73033e-06
-3.1478e-06
-1.75137e-06
-9.8992e-07
-5.87074e-07
-4.04053e-07
-3.98469e-07
-5.50998e-07
-7.04974e-07
-4.3022e-07
2.76871e-06
5.43593e-07
-5.93815e-07
-3.62713e-07
-1.32654e-07
-2.70534e-08
-9.77781e-36
-5.35285e-35
-1.90804e-34
-6.22902e-34
-1.97988e-33
-6.23259e-33
-1.95271e-32
-6.08632e-32
-1.88065e-31
-5.75476e-31
-1.76479e-30
-5.33282e-30
-1.59987e-29
-4.76136e-29
-1.40237e-28
-4.0747e-28
-1.17401e-27
-3.28936e-27
-8.99298e-27
-2.38626e-26
-6.13986e-26
-1.47984e-25
-3.31097e-25
-6.2572e-25
-7.48525e-25
1.13426e-24
1.31948e-23
6.86208e-23
2.81787e-22
1.05616e-21
3.71872e-21
1.27276e-20
4.07146e-20
1.26345e-19
3.80689e-19
1.12632e-18
3.2345e-18
8.97506e-18
2.43583e-17
6.02646e-17
1.22484e-16
9.87447e-17
-9.28084e-16
-9.36418e-15
-6.53988e-14
-4.00348e-13
-2.24621e-12
-1.18036e-11
-5.85408e-11
-2.7449e-10
-1.21574e-09
-5.05247e-09
-1.95668e-08
-5.91133e-08
-1.87049e-07
-4.90314e-07
-1.21284e-06
-2.86705e-06
-5.96776e-06
-1.06355e-05
-1.58055e-05
-1.8168e-05
-1.3241e-05
1.78372e-06
2.59295e-05
6.26642e-05
9.20607e-05
7.31003e-05
7.88404e-06
-5.90857e-05
-0.00012263
-0.000124417
0.000116063
0.0003992
0.000493162
-7.8329e-05
-0.000255017
-0.000110827
-1.14659e-05
-5.84068e-06
-2.71873e-05
-3.13246e-05
-2.02117e-05
-1.07049e-05
-5.7827e-06
-3.17608e-06
-1.76682e-06
-9.98434e-07
-5.9176e-07
-4.06483e-07
-3.99664e-07
-5.52248e-07
-7.06707e-07
-4.42124e-07
2.78665e-06
5.57647e-07
-5.95914e-07
-3.65187e-07
-1.33708e-07
-2.72807e-08
-1.05037e-35
-5.49808e-35
-1.95442e-34
-6.46108e-34
-2.04987e-33
-6.44511e-33
-2.01518e-32
-6.27612e-32
-1.94497e-31
-5.97773e-31
-1.8235e-30
-5.52083e-30
-1.65946e-29
-4.95516e-29
-1.46707e-28
-4.26652e-28
-1.22038e-27
-3.4245e-27
-9.38614e-27
-2.49727e-26
-6.39039e-26
-1.54783e-25
-3.44849e-25
-6.56405e-25
-8.04907e-25
1.10174e-24
1.36401e-23
6.97917e-23
2.95053e-22
1.09613e-21
3.82438e-21
1.26733e-20
4.15061e-20
1.28337e-19
3.92929e-19
1.16319e-18
3.30643e-18
8.97898e-18
2.42502e-17
6.13755e-17
1.22047e-16
9.88098e-17
-9.59118e-16
-9.5954e-15
-6.73472e-14
-4.09596e-13
-2.28849e-12
-1.19843e-11
-5.92504e-11
-2.77002e-10
-1.22274e-09
-5.06719e-09
-1.95696e-08
-5.89899e-08
-1.87173e-07
-4.89737e-07
-1.20831e-06
-2.85377e-06
-5.94015e-06
-1.05939e-05
-1.57691e-05
-1.81819e-05
-1.3373e-05
1.52623e-06
2.55293e-05
6.21613e-05
9.19533e-05
7.38193e-05
9.01158e-06
-5.8295e-05
-0.000121101
-0.000126233
0.000112516
0.00039714
0.000495327
-7.00025e-05
-0.000256959
-0.000112628
-1.19819e-05
-5.66886e-06
-2.71242e-05
-3.14418e-05
-2.03446e-05
-1.07759e-05
-5.81958e-06
-3.19603e-06
-1.77773e-06
-1.00444e-06
-5.95072e-07
-4.08199e-07
-4.0051e-07
-5.53163e-07
-7.08068e-07
-4.51214e-07
2.79171e-06
5.67658e-07
-5.97473e-07
-3.6699e-07
-1.34476e-07
-2.74461e-08
-1.06289e-35
-5.68307e-35
-2.01362e-34
-6.56983e-34
-2.09091e-33
-6.60311e-33
-2.06696e-32
-6.43708e-32
-1.99515e-31
-6.14678e-31
-1.87883e-30
-5.6961e-30
-1.71168e-29
-5.09668e-29
-1.50472e-28
-4.37226e-28
-1.24975e-27
-3.50822e-27
-9.58571e-27
-2.54124e-26
-6.5079e-26
-1.57392e-25
-3.54699e-25
-6.76165e-25
-8.46638e-25
1.05565e-24
1.37633e-23
7.1987e-23
2.98814e-22
1.11699e-21
3.89808e-21
1.32716e-20
4.21151e-20
1.30202e-19
3.98168e-19
1.15755e-18
3.33799e-18
9.08157e-18
2.52682e-17
6.23416e-17
1.23597e-16
9.48503e-17
-9.77381e-16
-9.92569e-15
-6.82945e-14
-4.15263e-13
-2.31652e-12
-1.21055e-11
-5.97203e-11
-2.78614e-10
-1.22736e-09
-5.07722e-09
-1.95772e-08
-5.8935e-08
-1.87303e-07
-4.89552e-07
-1.20614e-06
-2.84721e-06
-5.926e-06
-1.05717e-05
-1.57479e-05
-1.81863e-05
-1.34373e-05
1.39621e-06
2.53215e-05
6.18957e-05
9.18807e-05
7.41827e-05
9.59256e-06
-5.78654e-05
-0.000121503
-0.000127104
0.000110495
0.000396004
0.000496409
-6.55302e-05
-0.000257982
-0.000113585
-1.22581e-05
-5.57575e-06
-2.70869e-05
-3.15027e-05
-2.04162e-05
-1.08143e-05
-5.83956e-06
-3.20683e-06
-1.78363e-06
-1.0077e-06
-5.96863e-07
-4.09129e-07
-4.00988e-07
-5.53727e-07
-7.09172e-07
-4.57102e-07
2.78971e-06
5.71846e-07
-5.98694e-07
-3.68072e-07
-1.34919e-07
-2.75403e-08
-1.08346e-35
-5.74005e-35
-2.04061e-34
-6.66598e-34
-2.11934e-33
-6.66565e-33
-2.08357e-32
-6.48606e-32
-2.01198e-31
-6.23441e-31
-1.90565e-30
-5.7777e-30
-1.73213e-29
-5.06101e-29
-1.53789e-28
-4.44143e-28
-1.26772e-27
-3.54978e-27
-9.71532e-27
-2.58369e-26
-6.61669e-26
-1.6055e-25
-3.58376e-25
-6.84523e-25
-8.45627e-25
1.12079e-24
1.40371e-23
7.29651e-23
3.07556e-22
1.15436e-21
4.01644e-21
1.3449e-20
4.27278e-20
1.35123e-19
4.05934e-19
1.17462e-18
3.38968e-18
9.22336e-18
2.5318e-17
6.16921e-17
1.2405e-16
9.18033e-17
-1.02784e-15
-9.99523e-15
-6.89063e-14
-4.18749e-13
-2.33322e-12
-1.21788e-11
-6.00155e-11
-2.79695e-10
-1.23088e-09
-5.08657e-09
-1.95952e-08
-5.89452e-08
-1.8753e-07
-4.89824e-07
-1.20603e-06
-2.84601e-06
-5.92271e-06
-1.05658e-05
-1.57409e-05
-1.81832e-05
-1.34458e-05
1.37482e-06
2.52842e-05
6.18457e-05
9.18674e-05
7.42523e-05
9.70837e-06
-5.7775e-05
-0.000121414
-0.000127238
0.000110262
0.000395812
0.000496571
-6.4807e-05
-0.000258127
-0.000113729
-1.22997e-05
-5.56055e-06
-2.70803e-05
-3.15113e-05
-2.04268e-05
-1.082e-05
-5.84254e-06
-3.20845e-06
-1.78451e-06
-1.00818e-06
-5.97123e-07
-4.09251e-07
-4.01008e-07
-5.5368e-07
-7.08929e-07
-4.56633e-07
2.79495e-06
5.73792e-07
-5.98469e-07
-3.68111e-07
-1.3495e-07
-2.75481e-08
-1.07728e-35
-5.74265e-35
-2.05417e-34
-6.70444e-34
-2.13416e-33
-6.72508e-33
-2.10635e-32
-6.56212e-32
-2.03279e-31
-6.25637e-31
-1.91195e-30
-5.79828e-30
-1.74182e-29
-5.14987e-29
-1.54061e-28
-4.46038e-28
-1.27148e-27
-3.52309e-27
-9.79146e-27
-2.58917e-26
-6.6452e-26
-1.60927e-25
-3.58198e-25
-6.80384e-25
-8.20809e-25
1.19961e-24
1.42894e-23
7.4582e-23
3.09318e-22
1.15752e-21
4.06042e-21
1.34967e-20
4.36506e-20
1.34722e-19
4.0889e-19
1.18977e-18
3.40393e-18
9.34303e-18
2.54584e-17
6.26601e-17
1.24043e-16
9.18859e-17
-1.05685e-15
-1.00815e-14
-6.88188e-14
-4.20256e-13
-2.34016e-12
-1.22116e-11
-6.01675e-11
-2.80365e-10
-1.23367e-09
-5.09732e-09
-1.96335e-08
-5.90522e-08
-1.87946e-07
-4.90842e-07
-1.20895e-06
-2.85244e-06
-5.93413e-06
-1.05811e-05
-1.57518e-05
-1.81713e-05
-1.33863e-05
1.48201e-06
2.54446e-05
6.20399e-05
9.19045e-05
7.39661e-05
9.27917e-06
-5.8047e-05
-0.000120671
-0.000126518
0.000111734
0.00039664
0.000495767
-6.80702e-05
-0.00025737
-0.000113023
-1.20901e-05
-5.62532e-06
-2.71059e-05
-3.14667e-05
-2.03746e-05
-1.07922e-05
-5.82807e-06
-3.20063e-06
-1.78024e-06
-1.00583e-06
-5.95843e-07
-4.08626e-07
-4.00796e-07
-5.53557e-07
-7.08822e-07
-4.53869e-07
2.78872e-06
5.68058e-07
-5.98282e-07
-3.67471e-07
-1.34653e-07
-2.74822e-08
-1.0958e-35
-5.69408e-35
-2.02663e-34
-6.62669e-34
-2.11247e-33
-6.66868e-33
-2.09119e-32
-6.51664e-32
-2.01733e-31
-6.19969e-31
-1.88977e-30
-5.71033e-30
-1.71151e-29
-5.09564e-29
-1.50549e-28
-4.37474e-28
-1.24127e-27
-3.48378e-27
-9.62001e-27
-2.5504e-26
-6.49081e-26
-1.59234e-25
-3.53517e-25
-6.77445e-25
-8.21685e-25
1.13118e-24
1.38748e-23
7.3177e-23
3.01695e-22
1.13242e-21
3.96203e-21
1.30976e-20
4.3583e-20
1.3356e-19
3.96361e-19
1.14581e-18
3.33533e-18
8.90338e-18
2.47463e-17
6.23617e-17
1.22881e-16
9.19828e-17
-1.0055e-15
-1.00851e-14
-6.87681e-14
-4.18997e-13
-2.33515e-12
-1.21968e-11
-6.01497e-11
-2.80529e-10
-1.23542e-09
-5.10832e-09
-1.96882e-08
-5.92512e-08
-1.88562e-07
-4.92642e-07
-1.21494e-06
-2.86648e-06
-5.95989e-06
-1.06166e-05
-1.57794e-05
-1.81509e-05
-1.32622e-05
1.71123e-06
2.57914e-05
6.2461e-05
9.1981e-05
7.33385e-05
8.3381e-06
-5.87022e-05
-0.000121244
-0.000124921
0.000114797
0.000398417
0.00049399
-7.50979e-05
-0.000255721
-0.000111494
-1.16513e-05
-5.76776e-06
-2.71616e-05
-3.13694e-05
-2.02617e-05
-1.07318e-05
-5.79673e-06
-3.18368e-06
-1.77098e-06
-1.00073e-06
-5.93037e-07
-4.07192e-07
-4.00121e-07
-5.52804e-07
-7.07568e-07
-4.44789e-07
2.77941e-06
5.59714e-07
-5.96746e-07
-3.65812e-07
-1.3395e-07
-2.73309e-08
-1.07988e-35
-5.61012e-35
-1.99725e-34
-6.52827e-34
-2.07705e-33
-6.53841e-33
-2.04584e-32
-6.36852e-32
-1.97059e-31
-6.05968e-31
-1.85083e-30
-5.60917e-30
-1.68471e-29
-5.0136e-29
-1.47463e-28
-4.25822e-28
-1.23071e-27
-3.43754e-27
-9.39887e-27
-2.49643e-26
-6.39369e-26
-1.55862e-25
-3.47255e-25
-6.58546e-25
-7.90831e-25
1.18996e-24
1.3971e-23
7.13974e-23
3.01323e-22
1.12332e-21
3.93267e-21
1.30315e-20
4.23754e-20
1.31116e-19
3.96707e-19
1.16768e-18
3.31787e-18
8.92937e-18
2.4615e-17
6.20697e-17
1.22827e-16
9.64016e-17
-9.86947e-16
-1.00777e-14
-6.80583e-14
-4.15166e-13
-2.31947e-12
-1.21402e-11
-5.99896e-11
-2.80308e-10
-1.23668e-09
-5.12187e-09
-1.97685e-08
-5.95651e-08
-1.89448e-07
-4.95388e-07
-1.22446e-06
-2.88922e-06
-6.00212e-06
-1.06752e-05
-1.5825e-05
-1.8119e-05
-1.30648e-05
2.07064e-06
2.63332e-05
6.31119e-05
9.20755e-05
7.23346e-05
6.85877e-06
-5.9755e-05
-0.000122365
-0.000123046
0.000119376
0.000400982
0.000491085
-8.56418e-05
-0.000253228
-0.000109195
-1.09988e-05
-5.98478e-06
-2.72422e-05
-3.12209e-05
-2.0093e-05
-1.06418e-05
-5.74993e-06
-3.15838e-06
-1.75715e-06
-9.9311e-07
-5.8886e-07
-4.05078e-07
-3.99172e-07
-5.51859e-07
-7.06027e-07
-4.32572e-07
2.77389e-06
5.46317e-07
-5.94731e-07
-3.63417e-07
-1.32923e-07
-2.71092e-08
-1.00222e-35
-5.43176e-35
-1.92923e-34
-6.32542e-34
-2.00647e-33
-6.29697e-33
-1.97033e-32
-6.16473e-32
-1.90654e-31
-5.85695e-31
-1.78664e-30
-5.40949e-30
-1.62609e-29
-4.87443e-29
-1.43111e-28
-4.14226e-28
-1.18012e-27
-3.29703e-27
-9.00636e-27
-2.40098e-26
-6.18008e-26
-1.49585e-25
-3.32066e-25
-6.25691e-25