/*--------------------------------*- C++ -*----------------------------------*\
  =========                 |
  \\      /  F ield         | OpenFOAM: The Open Source CFD Toolbox
   \\    /   O peration     | Website:  https://openfoam.org
    \\  /    A nd           | Version:  10
     \\/     M anipulation  |
\*---------------------------------------------------------------------------*/
FoamFile
{
    format      ascii;
    class       volScalarField;
    location    "1";
    object      RR.C12H24;
}
// * * * * * * * * * * * * * * * * * * * * * * * * * * * * * * * * * * * * * //

dimensions      [1 -3 -1 0 0 0 0];

internalField   nonuniform List<scalar> 
4000
(
1.04793e-45
4.82033e-45
1.3585e-44
1.84581e-44
1.72821e-43
3.7047e-43
1.26021e-42
4.94566e-42
1.01915e-41
4.41797e-41
2.05741e-41
3.92794e-40
5.82665e-40
2.11284e-39
3.64627e-39
4.72422e-38
1.4638e-37
2.83379e-37
6.11431e-37
3.59557e-36
2.02801e-36
3.3361e-35
1.88612e-34
5.3471e-34
5.60378e-33
-2.73347e-33
5.74347e-32
1.34275e-31
1.29954e-30
8.75062e-30
8.86044e-29
6.9837e-28
7.294e-27
7.48288e-26
7.42515e-25
6.84795e-24
6.71479e-23
6.29148e-22
5.91508e-21
5.44041e-20
4.565e-19
3.71382e-18
2.79402e-17
2.00198e-16
1.35122e-15
9.54302e-15
6.73107e-14
4.30227e-13
2.36546e-12
1.06495e-11
3.839e-11
1.14282e-10
2.68683e-10
6.34452e-10
1.44897e-09
3.26686e-09
7.39371e-09
1.84872e-08
5.08488e-08
1.54777e-07
4.97679e-07
1.40604e-06
2.65396e-06
2.22466e-06
1.36907e-06
8.2798e-07
5.52161e-07
4.80401e-07
5.37648e-07
6.64987e-07
7.94292e-07
7.69327e-07
1.25783e-07
-1.37952e-06
-1.82944e-06
-8.72439e-07
-3.70967e-07
-1.64523e-07
-7.57585e-08
-3.59557e-08
-1.7602e-08
-8.85363e-09
-4.57096e-09
-2.42339e-09
-1.32135e-09
-7.45843e-10
-4.43181e-10
-2.95086e-10
-2.50607e-10
-3.02618e-10
-4.91118e-10
-9.58322e-10
-2.01692e-09
-4.34534e-09
1.34381e-09
3.13528e-09
4.21077e-09
2.22651e-09
3.31608e-11
2.2416e-13
1.31608e-45
2.23251e-44
-2.6651e-44
2.06417e-43
7.69879e-43
7.4182e-43
2.93284e-42
1.82545e-42
-2.45274e-42
8.09868e-41
9.83644e-42
-6.80113e-41
1.39838e-39
5.32131e-40
5.70415e-39
7.79493e-38
3.24307e-37
1.01983e-36
5.73929e-36
2.15568e-35
5.54541e-35
3.68599e-35
6.13748e-34
1.00309e-33
1.51134e-32
2.64423e-32
2.90406e-32
3.98699e-31
8.43011e-31
1.47602e-29
1.41947e-28
1.35956e-27
1.45205e-26
1.4794e-25
1.43106e-24
1.4049e-23
1.30278e-22
1.25227e-21
1.08724e-20
9.5522e-20
8.07656e-19
6.31101e-18
4.76826e-17
3.32703e-16
2.44569e-15
1.74363e-14
1.18302e-13
7.10296e-13
3.66349e-12
1.56339e-11
4.89359e-11
1.24241e-10
3.10608e-10
7.1444e-10
1.61319e-09
3.68126e-09
8.14624e-09
2.00192e-08
5.43499e-08
1.60869e-07
5.07032e-07
1.40901e-06
2.65001e-06
2.25702e-06
1.40275e-06
8.5346e-07
5.66069e-07
4.84601e-07
5.37642e-07
6.65774e-07
8.01941e-07
7.95299e-07
1.91815e-07
-1.32988e-06
-1.8841e-06
-9.10628e-07
-3.8582e-07
-1.7054e-07
-7.83005e-08
-3.70672e-08
-1.80914e-08
-9.08192e-09
-4.68296e-09
-2.47851e-09
-1.34905e-09
-7.60755e-10
-4.52563e-10
-3.03344e-10
-2.61942e-10
-3.21994e-10
-5.2865e-10
-1.03727e-09
-2.18996e-09
-4.4615e-09
1.70122e-09
3.30581e-09
4.44035e-09
1.91703e-09
2.87054e-11
2.08715e-13
5.05053e-45
2.63708e-45
5.36802e-45
9.25693e-44
1.12159e-42
3.64248e-43
-3.75477e-43
-3.06221e-42
3.89027e-41
2.94316e-41
2.40764e-40
3.34751e-40
2.53552e-40
5.75174e-39
9.90592e-39
7.07383e-38
1.04035e-37
5.26454e-37
5.52243e-36
9.00169e-36
8.21036e-35
-7.57776e-35
1.37639e-34
2.97334e-33
1.4414e-32
1.01014e-31
1.56809e-31
9.95779e-31
3.39416e-30
3.20528e-29
2.90634e-28
2.48651e-27
2.54744e-26
2.5725e-25
2.60103e-24
2.46204e-23
2.25095e-22
2.033e-21
1.80903e-20
1.49923e-19
1.23063e-18
8.92217e-18
7.20075e-17
4.92821e-16
3.68633e-15
2.52404e-14
1.69138e-13
9.80709e-13
4.67947e-12
1.89612e-11
5.71515e-11
1.44391e-10
3.55429e-10
8.29046e-10
1.81629e-09
3.90683e-09
8.52493e-09
2.08467e-08
5.62687e-08
1.66029e-07
5.1723e-07
1.41871e-06
2.65119e-06
2.28634e-06
1.4343e-06
8.78354e-07
5.81248e-07
4.92146e-07
5.40235e-07
6.68726e-07
8.10657e-07
8.21626e-07
2.56013e-07
-1.27411e-06
-1.94044e-06
-9.5437e-07
-4.03039e-07
-1.77576e-07
-8.1313e-08
-3.84112e-08
-1.87311e-08
-9.38735e-09
-4.83108e-09
-2.54984e-09
-1.38578e-09
-7.81245e-10
-4.66175e-10
-3.1616e-10
-2.79148e-10
-3.52608e-10
-5.87885e-10
-1.16084e-09
-2.45646e-09
-4.44655e-09
2.08583e-09
3.49382e-09
4.67548e-09
1.60291e-09
2.45392e-11
1.93305e-13
1.12787e-45
-1.38501e-45
1.06176e-44
1.05202e-43
2.6718e-43
1.24571e-42
2.56672e-42
7.68736e-43
1.79029e-41
1.20871e-40
8.34833e-40
2.2429e-39
2.23878e-39
1.34588e-38
4.34189e-38
1.58343e-37
1.22894e-36
2.54007e-36
1.56251e-35
2.7903e-35
3.17896e-35
7.65598e-34
3.79661e-33
8.86546e-34
1.90112e-32
1.05343e-31
1.33242e-31
2.57676e-31
6.1643e-30
4.65674e-29
3.89826e-28
4.64009e-27
4.57258e-26
4.49527e-25
4.37899e-24
4.08946e-23
3.63272e-22
3.29841e-21
2.84064e-20
2.34146e-19
1.88706e-18
1.38395e-17
1.06798e-16
7.31736e-16
4.94136e-15
3.53649e-14
2.27848e-13
1.25135e-12
6.02268e-12
2.09761e-11
6.13176e-11
1.69458e-10
4.14465e-10
9.32093e-10
2.01228e-09
4.06723e-09
8.92071e-09
2.17394e-08
5.85269e-08
1.70453e-07
5.24543e-07
1.42265e-06
2.65185e-06
2.31345e-06
1.46216e-06
9.01395e-07
5.96689e-07
4.99541e-07
5.43973e-07
6.73345e-07
8.2293e-07
8.50844e-07
3.17246e-07
-1.22186e-06
-1.99045e-06
-9.88204e-07
-4.1768e-07
-1.84113e-07
-8.43244e-08
-3.98289e-08
-1.94017e-08
-9.7162e-09
-5.0092e-09
-2.60447e-09
-1.41775e-09
-8.00813e-10
-4.80162e-10
-3.29858e-10
-2.98557e-10
-3.88438e-10
-6.58082e-10
-1.30873e-09
-2.79084e-09
-4.25249e-09
2.4396e-09
3.67758e-09
4.9073e-09
1.34327e-09
2.11371e-11
1.79699e-13
8.06363e-46
5.78446e-45
1.11279e-44
6.08502e-44
2.01697e-43
3.39557e-43
6.62638e-42
3.25969e-42
-1.49163e-41
8.37141e-41
2.93658e-40
1.26199e-39
9.35915e-40
9.23035e-39
5.99357e-38
-1.11996e-38
5.06424e-37
2.29095e-36
3.25573e-35
8.33902e-35
1.38717e-34
1.86632e-33
1.52134e-33
9.64036e-33
2.0643e-32
4.06552e-32
4.88692e-31
1.99867e-30
3.52397e-30
8.25344e-29
7.78902e-28
8.25253e-27
7.96118e-26
7.6125e-25
7.15718e-24
6.61976e-23
5.73236e-22
4.78308e-21
4.18032e-20
3.46086e-19
2.66772e-18
1.99853e-17
1.39759e-16
1.00929e-15
6.71986e-15
4.65962e-14
2.8576e-13
1.61098e-12
6.50429e-12
2.2113e-11
7.03875e-11
1.89283e-10
4.61555e-10
1.05189e-09
2.09679e-09
4.24406e-09
9.31702e-09
2.25404e-08
6.01636e-08
1.74529e-07
5.3237e-07
1.43098e-06
2.65575e-06
2.33504e-06
1.48681e-06
9.24131e-07
6.10675e-07
5.06487e-07
5.47774e-07
6.78204e-07
8.33525e-07
8.74322e-07
3.67959e-07
-1.17613e-06
-2.03769e-06
-1.02696e-06
-4.32921e-07
-1.90563e-07
-8.71381e-08
-4.10814e-08
-1.99899e-08
-1.00027e-08
-5.15416e-09
-2.67903e-09
-1.45743e-09
-8.23674e-10
-4.95842e-10
-3.4484e-10
-3.1936e-10
-4.25468e-10
-7.31201e-10
-1.46495e-09
-3.14338e-09
-3.95332e-09
2.72994e-09
3.8622e-09
5.12661e-09
1.1589e-09
1.87312e-11
1.70234e-13
3.61006e-46
-2.86846e-46
-4.69433e-45
1.61405e-43
3.6369e-43
1.42613e-42
8.21484e-42
4.12611e-41
5.15601e-41
-2.56346e-41
2.50811e-40
3.03581e-39
1.55915e-38
3.75349e-38
1.70718e-37
8.65608e-37
1.63843e-36
6.81281e-36
2.06643e-35
3.67385e-35
8.61965e-34
2.03528e-33
1.0135e-32
1.69906e-32
4.67549e-32
-1.06945e-31
6.30826e-31
2.08933e-30
1.5968e-29
1.34523e-28
1.2498e-27
1.29843e-26
1.23185e-25
1.17595e-24
1.0682e-23
9.62912e-23
8.29526e-22
6.71488e-21
5.83943e-20
5.13221e-19
3.77468e-18
2.66235e-17
1.8746e-16
1.32528e-15
8.82514e-15
5.81418e-14
3.66841e-13
1.74269e-12
7.00672e-12
2.53954e-11
7.88278e-11
2.09075e-10
4.96345e-10
1.11844e-09
2.21907e-09
4.44756e-09
9.646e-09
2.3336e-08
6.17554e-08
1.77781e-07
5.37883e-07
1.43459e-06
2.65814e-06
2.3561e-06
1.50723e-06
9.39654e-07
6.21772e-07
5.13393e-07
5.52235e-07
6.82862e-07
8.42036e-07
8.92828e-07
4.0738e-07
-1.14327e-06
-2.07003e-06
-1.05631e-06
-4.44905e-07
-1.95609e-07
-8.93709e-08
-4.21214e-08
-2.04844e-08
-1.02469e-08
-5.27729e-09
-2.74558e-09
-1.49424e-09
-8.45466e-10
-5.11034e-10
-3.59359e-10
-3.39322e-10
-4.60441e-10
-8.00033e-10
-1.60981e-09
-3.46939e-09
-3.64833e-09
2.95625e-09
4.02866e-09
5.31974e-09
1.03672e-09
1.7178e-11
1.6382e-13
1.24381e-45
1.63057e-44
4.77363e-45
1.73281e-43
5.86654e-43
1.84032e-42
-1.79524e-42
-1.14606e-41
4.24368e-41
1.03051e-40
8.85043e-40
2.66525e-39
1.46634e-38
9.70748e-38
2.63243e-37
1.06028e-36
1.75427e-36
7.42556e-36
3.11426e-35
1.87592e-35
7.06463e-34
2.89437e-33
1.67046e-33
-2.98809e-33
6.17899e-32
3.88326e-31
2.13272e-31
3.44326e-30
1.88997e-29
2.26888e-28
2.01359e-27
1.88557e-26
1.81659e-25
1.71003e-24
1.52056e-23
1.37529e-22
1.22652e-21
9.86439e-21
8.57827e-20
6.80469e-19
5.05042e-18
3.63065e-17
2.51121e-16
1.63768e-15
1.0965e-14
7.1522e-14
4.13815e-13
1.78593e-12
7.84527e-12
2.84471e-11
8.53669e-11
2.22125e-10
5.21368e-10
1.16521e-09
2.30261e-09
4.60701e-09
9.92391e-09
2.38745e-08
6.29592e-08
1.80178e-07
5.41057e-07
1.43485e-06
2.65898e-06
2.37657e-06
1.52719e-06
9.5448e-07
6.31009e-07
5.18667e-07
5.55047e-07
6.86059e-07
8.48615e-07
9.08536e-07
4.42312e-07
-1.10926e-06
-2.09865e-06
-1.08397e-06
-4.56447e-07
-2.00519e-07
-9.15598e-08
-4.31268e-08
-2.09644e-08
-1.04832e-08
-5.39704e-09
-2.80992e-09
-1.52976e-09
-8.66442e-10
-5.25466e-10
-3.72759e-10
-3.57218e-10
-4.91249e-10
-8.60301e-10
-1.73601e-09
-3.75359e-09
-3.39381e-09
3.13899e-09
4.17624e-09
5.48499e-09
9.58878e-10
1.62038e-11
1.6004e-13
1.38362e-45
5.42998e-45
1.17272e-43
6.43286e-43
1.12886e-42
3.67227e-42
1.33323e-41
5.66291e-41
7.30205e-41
3.12982e-40
-1.61601e-40
5.16063e-39
1.52735e-38
4.70896e-38
1.43445e-37
5.29873e-37
5.97028e-36
4.38051e-36
1.45053e-35
2.38419e-34
7.37157e-34
2.12129e-33
-2.00761e-34
-2.08396e-32
6.99112e-32
3.13725e-31
1.22385e-30
6.28208e-30
4.08763e-29
2.65713e-28
2.8512e-27
2.86229e-26
2.69821e-25
2.42323e-24
2.12491e-23
1.85872e-22
1.62763e-21
1.27487e-20
1.09824e-19
8.75062e-19
6.50985e-18
4.50915e-17
3.15903e-16
2.06142e-15
1.38547e-14
8.7386e-14
4.44228e-13
2.05804e-12
8.84532e-12
3.13178e-11
9.28895e-11
2.36195e-10
5.46663e-10
1.21037e-09
2.37905e-09
4.73563e-09
1.01547e-08
2.43245e-08
6.38149e-08
1.81533e-07
5.41514e-07
1.42991e-06
2.65705e-06
2.39746e-06
1.54726e-06
9.71799e-07
6.40768e-07
5.23528e-07
5.57304e-07
6.88362e-07
8.53812e-07
9.22093e-07
4.76457e-07
-1.07127e-06
-2.12493e-06
-1.11318e-06
-4.68269e-07
-2.05554e-07
-9.38055e-08
-4.41479e-08
-2.14517e-08
-1.0723e-08
-5.51862e-09
-2.87433e-09
-1.56509e-09
-8.87062e-10
-5.39247e-10
-3.849e-10
-3.7263e-10
-5.17048e-10
-9.10215e-10
-1.84005e-09
-3.98735e-09
-3.212e-09
3.28597e-09
4.30509e-09
5.63044e-09
9.12259e-10
1.56394e-11
1.58268e-13
1.83549e-45
1.01544e-44
6.61025e-44
9.4992e-43
3.27488e-42
6.4189e-42
4.97546e-42
1.05585e-41
1.22842e-40
7.85574e-40
-5.31246e-40
5.53346e-39
2.77648e-39
2.06619e-38
1.5014e-37
8.91692e-38
2.46767e-36
3.02978e-35
1.30392e-34
2.99976e-34
2.79368e-34
2.45291e-33
4.02872e-33
4.3497e-33
6.19474e-32
3.74445e-31
5.81262e-31
7.31506e-30
3.25401e-29
3.531e-28
3.93996e-27
3.96816e-26
3.63994e-25
3.33951e-24
2.92987e-23
2.51584e-22
2.13178e-21
1.62727e-20
1.38622e-19
1.09719e-18
7.9239e-18
5.68829e-17
3.8814e-16
2.59271e-15
1.5314e-14
8.39752e-14
4.82804e-13
2.37463e-12
9.88344e-12
3.44281e-11
9.91532e-11
2.47857e-10
5.67697e-10
1.24779e-09
2.43755e-09
4.83247e-09
1.03266e-08
2.4636e-08
6.43162e-08
1.81822e-07
5.38875e-07
1.41694e-06
2.64977e-06
2.42848e-06
1.57478e-06
9.89289e-07
6.52071e-07
5.28492e-07
5.59114e-07
6.89539e-07
8.58104e-07
9.35735e-07
5.13024e-07
-1.02701e-06
-2.14897e-06
-1.14418e-06
-4.80792e-07
-2.10863e-07
-9.61852e-08
-4.52217e-08
-2.19636e-08
-1.09742e-08
-5.64568e-09
-2.94043e-09
-1.60096e-09
-9.07665e-10
-5.52523e-10
-3.95838e-10
-3.85566e-10
-5.37849e-10
-9.49765e-10
-1.92202e-09
-4.17066e-09
-3.10452e-09
3.40087e-09
4.41778e-09
5.75953e-09
8.88196e-10
1.53734e-11
1.58049e-13
5.78574e-45
5.55784e-44
1.80172e-43
6.18328e-43
1.00163e-42
3.14429e-42
3.47768e-42
1.39979e-41
3.21303e-40
1.4335e-39
1.12556e-39
1.56769e-38
5.34344e-38
8.02095e-38
1.09577e-36
4.26952e-36
1.21324e-35
1.65206e-35
1.43096e-34
6.63833e-34
1.61464e-33
3.47369e-33
8.73337e-33
2.99708e-32
1.40191e-31
-1.60384e-31
1.31925e-30
8.71514e-30
5.56248e-29
6.76806e-28
5.8478e-27
5.36352e-26
4.83522e-25
4.27128e-24
3.66846e-23
3.09253e-22
2.50621e-21
1.9708e-20
1.68932e-19
1.30093e-18
9.25078e-18
6.51901e-17
4.42837e-16
2.74345e-15
1.58653e-14
9.98594e-14
5.54317e-13
2.67325e-12
1.10169e-11
3.72799e-11
1.05274e-10
2.59516e-10
5.87535e-10
1.27288e-09
2.47924e-09
4.91095e-09
1.04491e-08
2.48201e-08
6.44673e-08
1.81289e-07
5.34588e-07
1.40201e-06
2.6387e-06
2.45756e-06
1.60189e-06
1.00985e-06
6.63478e-07
5.32922e-07
5.59748e-07
6.89042e-07
8.57742e-07
9.46119e-07
5.46999e-07
-9.76855e-07
-2.1683e-06
-1.17918e-06
-4.95195e-07
-2.16959e-07
-9.88456e-08
-4.63914e-08
-2.25123e-08
-1.12401e-08
-5.77891e-09
-3.00825e-09
-1.63711e-09
-9.28123e-10
-5.6526e-10
-4.05634e-10
-3.96237e-10
-5.54132e-10
-9.79962e-10
-1.98407e-09
-4.30838e-09
-3.06201e-09
3.49277e-09
4.51571e-09
5.87586e-09
8.80579e-10
1.53257e-11
1.59005e-13
3.14648e-45
4.59431e-44
2.51634e-43
5.0327e-43
8.29101e-43
2.19639e-42
8.13885e-43
-2.28989e-41
1.65306e-40
3.94864e-40
7.99807e-40
6.18135e-39
-7.44276e-39
2.7268e-37
2.21163e-37
2.39499e-36
9.20496e-36
1.74972e-35
1.37811e-34
7.54251e-34
2.57834e-33
3.36839e-33
-4.18807e-34
2.59344e-32
1.73456e-31
7.83482e-31
3.08787e-30
1.08427e-29
1.07143e-28
9.36274e-28
7.94782e-27
7.01964e-26
5.97907e-25
5.39172e-24
4.50352e-23
3.72619e-22
3.04882e-21
2.33804e-20
2.03756e-19
1.51113e-18
1.06661e-17
7.27695e-17
4.71175e-16
2.89706e-15
1.8767e-14
1.15112e-13
6.32572e-13
3.03007e-12
1.21841e-11
4.05122e-11
1.12999e-10
2.76568e-10
6.28016e-10
1.28227e-09
2.51149e-09
4.96838e-09
1.05235e-08
2.48861e-08
6.43016e-08
1.79592e-07
5.26288e-07
1.37829e-06
2.62439e-06
2.4857e-06
1.628e-06
1.02869e-06
6.74451e-07
5.37756e-07
5.60389e-07
6.88204e-07
8.58412e-07
9.54571e-07
5.81284e-07
-9.22149e-07
-2.18555e-06
-1.21403e-06
-5.09381e-07
-2.22856e-07
-1.0146e-07
-4.75482e-08
-2.30583e-08
-1.15057e-08
-5.91235e-09
-3.07581e-09
-1.67343e-09
-9.48264e-10
-5.77382e-10
-4.14367e-10
-4.04969e-10
-5.66637e-10
-1.00237e-09
-2.0296e-09
-4.40843e-09
-3.07161e-09
3.56617e-09
4.60197e-09
5.98237e-09
8.84652e-10
1.54337e-11
1.60807e-13
1.98564e-45
-3.02393e-45
4.33998e-43
1.13452e-42
1.37241e-42
5.07276e-42
3.29289e-41
2.7574e-40
4.85637e-40
1.83796e-39
2.61921e-39
2.21195e-38
3.32589e-38
1.71637e-37
6.77928e-37
1.9878e-36
8.76289e-36
3.78e-35
3.31994e-36
1.28245e-34
1.07171e-34
3.68873e-33
1.6058e-32
5.0169e-32
6.41456e-32
7.97238e-31
2.64835e-30
1.71955e-29
1.3045e-28
1.05399e-27
8.93012e-27
8.23909e-26
7.51254e-25
6.58489e-24
5.67861e-23
4.63095e-22
3.62734e-21
2.77438e-20
2.24616e-19
1.76441e-18
1.21651e-17
8.1727e-17
5.23182e-16
3.33218e-15
2.14262e-14
1.29768e-13
7.04514e-13
3.33208e-12
1.31918e-11
4.31952e-11
1.19067e-10
2.89258e-10
6.52416e-10
1.28166e-09
2.53903e-09
5.01612e-09
1.05679e-08
2.48754e-08
6.39587e-08
1.77905e-07
5.18831e-07
1.35749e-06
2.60706e-06
2.51479e-06
1.65434e-06
1.04716e-06
6.84824e-07
5.4225e-07
5.61023e-07
6.87362e-07
8.5796e-07
9.62125e-07
6.13959e-07
-8.67482e-07
-2.19695e-06
-1.24764e-06
-5.22952e-07
-2.28654e-07
-1.04026e-07
-4.86798e-08
-2.35883e-08
-1.17626e-08
-6.04144e-09
-3.14098e-09
-1.70837e-09
-9.6793e-10
-5.89144e-10
-4.22427e-10
-4.12221e-10
-5.76233e-10
-1.01893e-09
-2.06293e-09
-4.48013e-09
-3.11952e-09
3.62646e-09
4.67916e-09
6.08055e-09
8.96811e-10
1.56484e-11
1.63174e-13
5.95591e-46
-1.47195e-44
5.11237e-43
1.35078e-42
4.11022e-42
6.9602e-42
4.69493e-41
1.73392e-40
1.54125e-40
2.50827e-39
3.91216e-39
-8.19951e-39
7.86581e-38
1.4651e-37
3.08262e-37
4.0963e-36
4.89607e-36
1.50204e-35
3.13677e-35
2.71202e-34
2.98467e-33
5.36265e-33
1.46529e-32
4.57309e-32
2.39326e-31
1.19766e-30
3.62604e-30
1.98519e-29
1.24531e-28
1.24774e-27
1.0881e-26
9.99855e-26
8.84719e-25
7.8313e-24
6.53392e-23
5.25874e-22
4.07112e-21
3.10783e-20
2.50757e-19
1.99101e-18
1.38461e-17
9.39079e-17
5.95818e-16
3.8483e-15
2.37307e-14
1.42864e-13
7.69092e-13
3.56405e-12
1.38729e-11
4.47828e-11
1.22068e-10
2.941e-10
6.58424e-10
1.28183e-09
2.57081e-09
5.05323e-09
1.05839e-08
2.47943e-08
6.34412e-08
1.75596e-07
5.11091e-07
1.33591e-06
2.58845e-06
2.54166e-06
1.68039e-06
1.06583e-06
6.95324e-07
5.46489e-07
5.60967e-07
6.85499e-07
8.57197e-07
9.67951e-07
6.42869e-07
-8.12336e-07
-2.20327e-06
-1.28317e-06
-5.3754e-07
-2.34672e-07
-1.06639e-07
-4.98192e-08
-2.41302e-08
-1.20272e-08
-6.17431e-09
-3.20639e-09
-1.74294e-09
-9.86976e-10
-6.00229e-10
-4.29672e-10
-4.18298e-10
-5.83577e-10
-1.03068e-09
-2.08601e-09
-4.52929e-09
-3.1945e-09
3.6744e-09
4.74836e-09
6.17362e-09
9.15333e-10
1.59499e-11
1.66033e-13
-2.92578e-45
1.09419e-43
7.33469e-44
1.52947e-42
3.62607e-42
5.58111e-42
6.67988e-41
1.48509e-40
4.99894e-40
1.7864e-39
6.39737e-39
1.91308e-38
8.31053e-38
4.33114e-37
2.47743e-36
9.5655e-36
2.22358e-35
3.42817e-35
2.31167e-34
1.30603e-34
5.03493e-33
9.48097e-33
1.15438e-32
2.98695e-33
1.57552e-32
2.29865e-31
4.44257e-30
2.27609e-29
1.28332e-28
1.3279e-27
1.26748e-26
1.14478e-25
1.0101e-24
8.66883e-24
7.25824e-23
5.8261e-22
4.58864e-21
3.40214e-20
2.84157e-19
2.21085e-18
1.49998e-17
9.99023e-17
6.59488e-16
4.24005e-15
2.58864e-14
1.54328e-13
8.1647e-13
3.73255e-12
1.43554e-11
4.58625e-11
1.23988e-10
2.97147e-10
6.61338e-10
1.2811e-09
2.5941e-09
5.08029e-09
1.05832e-08
2.4692e-08
6.29407e-08
1.73322e-07
5.02015e-07
1.31204e-06
2.56915e-06
2.56628e-06
1.70467e-06
1.08314e-06
7.05314e-07
5.50013e-07
5.60634e-07
6.83302e-07
8.55746e-07
9.72194e-07
6.69412e-07
-7.60414e-07
-2.2063e-06
-1.31685e-06
-5.51348e-07
-2.40407e-07
-1.09187e-07
-5.0941e-08
-2.46546e-08
-1.22807e-08
-6.301e-09
-3.26921e-09
-1.77592e-09
-1.00498e-09
-6.1052e-10
-4.36122e-10
-4.23274e-10
-5.89101e-10
-1.03909e-09
-2.10232e-09
-4.56273e-09
-3.28756e-09
3.71553e-09
4.81032e-09
6.2579e-09
9.36994e-10
1.62882e-11
1.69011e-13
9.3402e-45
3.30518e-44
-8.82457e-44
1.10444e-42
1.36027e-42
4.30619e-42
3.1575e-41
-2.4842e-41
9.07796e-41
2.96007e-39
1.18719e-38
4.65966e-38
1.95859e-37
4.57792e-37
7.6712e-37
4.54563e-36
1.91338e-35
8.67372e-35
2.88696e-34
5.96447e-34
-2.80669e-34
-6.22517e-34
1.40086e-32
-1.83927e-32
-8.77146e-32
9.26171e-32
1.53863e-30
1.4929e-29
1.5912e-28
1.48523e-27
1.33787e-26
1.26972e-25
1.11132e-24
9.51817e-24
7.70005e-23
6.08011e-22
5.03608e-21
3.71273e-20
3.05909e-19
2.25248e-18
1.69912e-17
1.11796e-16
7.27805e-16
4.46334e-15
2.75601e-14
1.62676e-13
8.52781e-13
3.8629e-12
1.47292e-11
4.67086e-11
1.25519e-10
2.99104e-10
6.63017e-10
1.28019e-09
2.60915e-09
5.09516e-09
1.05606e-08
2.4547e-08
6.23094e-08
1.71084e-07
4.93879e-07
1.2903e-06
2.54929e-06
2.58901e-06
1.72755e-06
1.09956e-06
7.14896e-07
5.53981e-07
5.60477e-07
6.81284e-07
8.54143e-07
9.75674e-07
6.92503e-07
-7.11477e-07
-2.20682e-06
-1.34845e-06
-5.64324e-07
-2.45838e-07
-1.11553e-07
-5.19699e-08
-2.51345e-08
-1.25117e-08
-6.416e-09
-3.32565e-09
-1.8055e-09
-1.02107e-09
-6.1962e-10
-4.41645e-10
-4.2722e-10
-5.93024e-10
-1.04449e-09
-2.11242e-09
-4.58248e-09
-3.38096e-09
3.74494e-09
4.86163e-09
6.32968e-09
9.59018e-10
1.66261e-11
1.71858e-13
3.40006e-45
7.53114e-44
2.9702e-43
1.62069e-42
3.6306e-42
7.76524e-42
4.75738e-41
6.3572e-41
7.29719e-40
3.87925e-40
1.00901e-39
5.58671e-38
7.2939e-38
1.91563e-37
1.17148e-36
-4.15785e-37
2.50461e-36
8.61525e-35
8.97233e-36
3.85244e-34
-5.88977e-35
2.08252e-33
5.66918e-33
2.86646e-32
2.76579e-31
8.49701e-32
1.90656e-30
1.22137e-29
1.45135e-28
1.53155e-27
1.45146e-26
1.34912e-25
1.2019e-24
1.02885e-23
8.54687e-23
6.95753e-22
5.42258e-21
4.32961e-20
3.40864e-19
2.59376e-18
1.79628e-17
1.17474e-16
7.65556e-16
4.63644e-15
2.88417e-14
1.69317e-13
8.80701e-13
3.95995e-12
1.49949e-11
4.72646e-11
1.26476e-10
3.00394e-10
6.64078e-10
1.27901e-09
2.61895e-09
5.10279e-09
1.05305e-08
2.43881e-08
6.17066e-08
1.68828e-07
4.86398e-07
1.27146e-06
2.53166e-06
2.60665e-06
1.74646e-06
1.11337e-06
7.23044e-07
5.57429e-07
5.60901e-07
6.79437e-07
8.52559e-07
9.78541e-07
7.11782e-07
-6.69827e-07
-2.2051e-06
-1.37554e-06
-5.75497e-07
-2.50471e-07
-1.13573e-07
-5.28487e-08
-2.55437e-08
-1.27073e-08
-6.51366e-09
-3.37349e-09
-1.83057e-09
-1.03468e-09
-6.27257e-10
-4.46178e-10
-4.30279e-10
-5.95786e-10
-1.04791e-09
-2.11853e-09
-4.59368e-09
-3.46689e-09
3.76857e-09
4.90456e-09
6.38985e-09
9.79494e-10
1.6936e-11
1.74399e-13
8.09617e-45
8.28816e-44
3.65922e-43
8.95273e-43
4.31238e-42
1.34827e-41
6.79512e-41
2.86992e-40
8.62279e-40
1.15916e-39
3.46704e-39
9.95433e-39
7.07253e-38
1.20319e-37
1.61084e-36
3.65179e-36
4.53859e-36
2.46515e-35
1.16621e-34
6.41777e-34
2.12577e-33
-9.93154e-34
2.51626e-32
3.37329e-32
8.17832e-32
1.46266e-30
2.83522e-30
2.36991e-29
2.00701e-28
1.85018e-27
1.61819e-26
1.49859e-25
1.30384e-24
1.11334e-23
9.23945e-23
7.5726e-22
5.9941e-21
4.58179e-20
3.5595e-19
2.60842e-18
1.83166e-17
1.21392e-16
7.47669e-16
4.78277e-15
2.99832e-14
1.7445e-13
9.02069e-13
4.03403e-12
1.51978e-11
4.76914e-11
1.27191e-10
3.01308e-10
6.64721e-10
1.27803e-09
2.62472e-09
5.10521e-09
1.05004e-08
2.42617e-08
6.12517e-08
1.67217e-07
4.81005e-07
1.25657e-06
2.5162e-06
2.62188e-06
1.76248e-06
1.12464e-06
7.29518e-07
5.59959e-07
5.6071e-07
6.77859e-07
8.50901e-07
9.80017e-07
7.26094e-07
-6.37243e-07
-2.20216e-06
-1.39684e-06
-5.84335e-07
-2.54133e-07
-1.15169e-07
-5.35434e-08
-2.5868e-08
-1.28642e-08
-6.59143e-09
-3.41145e-09
-1.85039e-09
-1.0454e-09
-6.33238e-10
-4.49668e-10
-4.32522e-10
-5.97627e-10
-1.04992e-09
-2.12194e-09
-4.59933e-09
-3.53805e-09
3.78647e-09
4.9371e-09
6.43636e-09
9.96693e-10
1.71944e-11
1.76479e-13
8.20883e-45
9.58697e-44
8.69093e-43
3.69884e-42
7.44161e-42
1.62414e-41
3.86251e-41
4.84607e-40
3.72039e-40
-4.44869e-41
6.65765e-40
7.59218e-39
5.72914e-38
1.6119e-37
1.23896e-36
6.55431e-36
1.80532e-35
1.93935e-35
1.76708e-34
1.75245e-34
2.91995e-33
4.9327e-33
1.10867e-32
8.02003e-32
4.27502e-31
1.05593e-30
4.0351e-30
1.69244e-29
1.9271e-28
1.98027e-27
1.71732e-26
1.49464e-25
1.35934e-24
1.13931e-23
9.63722e-23
7.8665e-22
6.1346e-21
4.54708e-20
3.51471e-19
2.73219e-18
1.81469e-17
1.2021e-16
7.62049e-16
4.87922e-15
3.08008e-14
1.78164e-13
9.1732e-13
4.08659e-12
1.53422e-11
4.80051e-11
1.27695e-10
3.01983e-10
6.65193e-10
1.27738e-09
2.62821e-09
5.10602e-09
1.04779e-08
2.41678e-08
6.09124e-08
1.66019e-07
4.77003e-07
1.2461e-06
2.50526e-06
2.63148e-06
1.77298e-06
1.13216e-06
7.33856e-07
5.61598e-07
5.60495e-07
6.76668e-07
8.50072e-07
9.81482e-07
7.3612e-07
-6.14142e-07
-2.19934e-06
-1.41185e-06
-5.9058e-07
-2.56715e-07
-1.16292e-07
-5.40312e-08
-2.6095e-08
-1.29731e-08
-6.64552e-09
-3.43784e-09
-1.86417e-09
-1.05285e-09
-6.37383e-10
-4.5206e-10
-4.34016e-10
-5.98778e-10
-1.05106e-09
-2.12378e-09
-4.60206e-09
-3.58999e-09
3.79784e-09
4.95972e-09
6.46867e-09
1.00923e-09
1.73816e-11
1.77967e-13
3.46948e-45
6.40207e-45
1.77914e-43
1.53543e-42
2.69881e-42
1.44751e-41
9.249e-42
1.65342e-40
6.90433e-40
1.10111e-39
4.1565e-39
1.6385e-38
8.05023e-38
1.87186e-37
9.77368e-37
2.55487e-36
3.26707e-36
3.03391e-35
1.31322e-34
8.31099e-34
1.43713e-33
4.17129e-33
1.47071e-32
1.03998e-31
4.30305e-31
1.55515e-30
1.64723e-30
3.47146e-29
2.09404e-28
1.7901e-27
1.75299e-26
1.62205e-25
1.40301e-24
1.18213e-23
1.0054e-22
7.96303e-22
6.37238e-21
4.68529e-20
3.85675e-19
2.83942e-18
1.91314e-17
1.2385e-16
7.70328e-16
5.02578e-15
3.11889e-14
1.80409e-13
9.27315e-13
4.12136e-12
1.54364e-11
4.82019e-11
1.28017e-10
3.02412e-10
6.65577e-10
1.2772e-09
2.63072e-09
5.10746e-09
1.04678e-08
2.41222e-08
6.07409e-08
1.65394e-07
4.74834e-07
1.24051e-06
2.49934e-06
2.63613e-06
1.77833e-06
1.13598e-06
7.36052e-07
5.62423e-07
5.60331e-07
6.75982e-07
8.49186e-07
9.81825e-07
7.41303e-07
-6.01843e-07
-2.19745e-06
-1.41973e-06
-5.93869e-07
-2.58073e-07
-1.16882e-07
-5.4288e-08
-2.62147e-08
-1.30307e-08
-6.67426e-09
-3.45184e-09
-1.87148e-09
-1.0568e-09
-6.39576e-10
-4.53319e-10
-4.34788e-10
-5.99346e-10
-1.05158e-09
-2.12458e-09
-4.60312e-09
-3.61838e-09
3.80315e-09
4.97139e-09
6.48562e-09
1.01602e-09
1.74829e-11
1.78769e-13
-1.80422e-46
1.59894e-43
3.77795e-43
2.22549e-42
4.24293e-42
1.66286e-41
3.36991e-41
4.11767e-40
6.08387e-40
-2.81551e-41
1.2348e-38
3.45121e-38
1.63849e-37
7.92689e-38
6.38421e-37
3.12433e-36
1.35451e-36
4.73439e-35
1.067e-34
8.43576e-34
2.96269e-33
3.73188e-33
1.93339e-32
5.39844e-32
2.08023e-31
5.43668e-32
8.72315e-31
1.38217e-29
2.28676e-28
2.04397e-27
1.89688e-26
1.70826e-25
1.46449e-24
1.2912e-23
1.06556e-22
8.36047e-22
6.6498e-21
4.87379e-20
3.88399e-19
2.77593e-18
1.9592e-17
1.26587e-16
7.9614e-16
5.05379e-15
3.14391e-14
1.81777e-13
9.33191e-13
4.14203e-12
1.54942e-11
4.83295e-11
1.28249e-10
3.02763e-10
6.66014e-10
1.27753e-09
2.63332e-09
5.11068e-09
1.04695e-08
2.41175e-08
6.07098e-08
1.65261e-07
4.74349e-07
1.23919e-06
2.49777e-06
2.63679e-06
1.77922e-06
1.13662e-06
7.36397e-07
5.62523e-07
5.60257e-07
6.75815e-07
8.49027e-07
9.81867e-07
7.42164e-07
-5.99676e-07
-2.19686e-06
-1.42083e-06
-5.94326e-07
-2.58259e-07
-1.16962e-07
-5.4322e-08
-2.62303e-08
-1.30381e-08
-6.6779e-09
-3.4536e-09
-1.87239e-09
-1.05729e-09
-6.39847e-10
-4.53478e-10
-4.34892e-10
-5.99436e-10
-1.05168e-09
-2.12478e-09
-4.60345e-09
-3.62183e-09
3.80473e-09
4.97355e-09
6.48836e-09
1.01682e-09
1.74946e-11
1.78866e-13
3.69853e-45
3.64585e-44
7.90308e-43
2.51271e-42
3.99522e-42
6.10055e-42
2.15703e-41
2.5241e-40
1.30816e-39
3.94809e-39
2.58916e-39
3.63738e-38
-4.25063e-39
1.25223e-37
1.35449e-36
3.0653e-36
1.46426e-35
2.53654e-35
4.8094e-35
1.49216e-34
1.96938e-33
3.60838e-33
1.00644e-32
4.27948e-32
2.54134e-31
6.83111e-32
4.07148e-30
2.51719e-29
2.50836e-28
2.13968e-27
1.94442e-26
1.70932e-25
1.50525e-24
1.26431e-23
1.05922e-22
8.39117e-22
6.62499e-21
4.97746e-20
3.92376e-19
2.89182e-18
1.96553e-17
1.26162e-16
8.10241e-16
5.09094e-15
3.13909e-14
1.82354e-13
9.35509e-13
4.15063e-12
1.55213e-11
4.83998e-11
1.28407e-10
3.03086e-10
6.66657e-10
1.27869e-09
2.63664e-09
5.11748e-09
1.04894e-08
2.41725e-08
6.08728e-08
1.65778e-07
4.75974e-07
1.24322e-06
2.50165e-06
2.63249e-06
1.77469e-06
1.13343e-06
7.34548e-07
5.61776e-07
5.60256e-07
6.76186e-07
8.49586e-07
9.81417e-07
7.38487e-07
-6.08319e-07
-2.19768e-06
-1.41475e-06
-5.91787e-07
-2.57207e-07
-1.16503e-07
-5.41225e-08
-2.61372e-08
-1.29933e-08
-6.65555e-09
-3.4427e-09
-1.8667e-09
-1.05422e-09
-6.38153e-10
-4.52524e-10
-4.34341e-10
-5.99092e-10
-1.05148e-09
-2.12458e-09
-4.60362e-09
-3.59952e-09
3.80036e-09
4.96464e-09
6.47558e-09
1.01129e-09
1.74126e-11
1.7823e-13
2.0907e-46
-1.79192e-44
1.05666e-43
5.2185e-43
5.06646e-42
2.13016e-41
-2.16508e-42
2.37943e-40
4.36931e-40
9.45829e-40
1.10865e-39
9.44633e-39
1.17413e-38
5.10145e-37
1.44247e-36
8.35892e-36
3.48057e-35
1.77775e-35
8.5678e-35
4.54648e-34
1.8744e-33
9.93564e-33
1.35716e-32
1.43324e-31
3.15097e-31
7.67568e-31
2.19813e-30
2.27865e-29
2.36051e-28
2.23054e-27
1.87568e-26
1.6025e-25
1.48286e-24
1.21995e-23
9.73064e-23
7.61595e-22
6.25792e-21
4.46893e-20
3.693e-19
2.86278e-18
1.89984e-17
1.2565e-16
7.82814e-16
5.09188e-15
3.13691e-14
1.81817e-13
9.33499e-13
4.14522e-12
1.55129e-11
4.84033e-11
1.28475e-10
3.03354e-10
6.67458e-10
1.28069e-09
2.64089e-09
5.12828e-09
1.05281e-08
2.42883e-08
6.12286e-08
1.66922e-07
4.79639e-07
1.25243e-06
2.51059e-06
2.62334e-06
1.76502e-06
1.12665e-06
7.30653e-07
5.6024e-07
5.60335e-07
6.77094e-07
8.5041e-07
9.80226e-07
7.30299e-07
-6.27327e-07
-2.19966e-06
-1.40181e-06
-5.86389e-07
-2.54972e-07
-1.15529e-07
-5.36989e-08
-2.59396e-08
-1.28979e-08
-6.60807e-09
-3.41956e-09
-1.85462e-09
-1.0477e-09
-6.34552e-10
-4.50486e-10
-4.33145e-10
-5.98302e-10
-1.05093e-09
-2.1239e-09
-4.60336e-09
-3.55232e-09
3.79109e-09
4.9462e-09
6.44862e-09
9.99766e-10
1.72412e-11
1.76893e-13
1.68219e-44
9.67583e-44
1.92584e-43
1.66699e-42
4.33108e-42
8.36684e-42
1.90447e-41
7.67685e-41
2.42611e-40
1.82786e-39
2.33226e-39
6.35447e-39
3.57712e-38
6.40282e-38
4.07388e-37
4.26833e-36
1.82505e-35
8.46608e-35
2.08487e-34
8.75645e-34
1.40866e-33
3.56039e-33
2.04554e-32
7.5968e-32
3.28079e-31
1.8178e-30
4.218e-30
1.50468e-29
2.4405e-28
2.08121e-27
1.83646e-26
1.57037e-25
1.40139e-24
1.17004e-23
9.68546e-23
7.84187e-22
6.14895e-21
4.49008e-20
3.65806e-19
2.82914e-18
1.8965e-17
1.21343e-16
7.74032e-16
5.09148e-15
3.10645e-14
1.80243e-13
9.2762e-13
4.12749e-12
1.54745e-11
4.83538e-11
1.28487e-10
3.03638e-10
6.68575e-10
1.28376e-09
2.64661e-09
5.14418e-09
1.05887e-08
2.44743e-08
6.18099e-08
1.68813e-07
4.8566e-07
1.26744e-06
2.5247e-06
2.60859e-06
1.74984e-06
1.11606e-06
7.24601e-07
5.57876e-07
5.60467e-07
6.78506e-07
8.51715e-07
9.78981e-07
7.17229e-07
-6.56599e-07
-2.20204e-06
-1.38228e-06
-5.7829e-07
-2.5162e-07
-1.1407e-07
-5.30646e-08
-2.5644e-08
-1.27559e-08
-6.53756e-09
-3.38517e-09
-1.83666e-09
-1.038e-09
-6.29181e-10
-4.47432e-10
-4.31328e-10
-5.97061e-10
-1.04998e-09
-2.12262e-09
-4.60234e-09
-3.48259e-09
3.77807e-09
4.91834e-09
6.40798e-09
9.82879e-10
1.69894e-11
1.74915e-13
1.02571e-44
6.30116e-44
5.29256e-43
2.16158e-42
5.73801e-42
4.07171e-42
1.43884e-41
2.81868e-40
1.11386e-40
-3.83952e-40
7.40893e-39
2.29485e-38
1.45075e-37
5.25308e-37
9.37485e-37
4.11667e-36
1.99649e-35
7.80643e-35
1.45384e-34
6.45681e-34
3.10298e-33
-9.12405e-34
-1.5868e-33
5.03004e-32
2.79246e-31
1.17076e-30
4.91166e-30
1.99401e-29
1.96209e-28
1.9114e-27
1.72442e-26
1.56692e-25
1.35059e-24
1.15002e-23
9.58343e-23
7.67211e-22
6.10819e-21
4.51804e-20
3.42931e-19
2.58287e-18
1.86247e-17
1.19702e-16
7.4602e-16
4.95329e-15
3.06328e-14
1.77859e-13
9.17558e-13
4.09419e-12
1.53931e-11
4.82205e-11
1.28381e-10
3.0383e-10
6.69841e-10
1.2877e-09
2.65286e-09
5.16303e-09
1.06655e-08
2.47158e-08
6.25767e-08
1.71335e-07
4.93773e-07
1.28777e-06
2.54317e-06
2.58785e-06
1.72954e-06
1.10201e-06
7.16599e-07
5.547e-07
5.60572e-07
6.80264e-07
8.53222e-07
9.76931e-07
7.00244e-07
-6.94322e-07
-2.2041e-06
-1.35733e-06
-5.67971e-07
-2.4734e-07
-1.12202e-07
-5.22512e-08
-2.52628e-08
-1.25724e-08
-6.44621e-09
-3.34059e-09
-1.8133e-09
-1.02538e-09
-6.22185e-10
-4.43428e-10
-4.2889e-10
-5.95293e-10
-1.04842e-09
-2.1203e-09
-4.59956e-09
-3.39401e-09
3.76015e-09
4.88183e-09
6.35497e-09
9.61695e-10
1.66723e-11
1.72401e-13
-4.72027e-46
6.74925e-45
4.20643e-43
7.38692e-43
2.81253e-42
9.86331e-42
1.11305e-40
1.144e-40
1.48939e-40
8.32675e-40
5.68133e-39
2.61712e-38
1.53314e-37
3.35454e-37
-8.26732e-38
2.36002e-36
1.18154e-35
8.70936e-36