/*--------------------------------*- C++ -*----------------------------------*\
  =========                 |
  \\      /  F ield         | OpenFOAM: The Open Source CFD Toolbox
   \\    /   O peration     | Website:  https://openfoam.org
    \\  /    A nd           | Version:  10
     \\/     M anipulation  |
\*---------------------------------------------------------------------------*/
FoamFile
{
    format      ascii;
    class       volScalarField;
    location    "1";
    object      RR.C10H20;
}
// * * * * * * * * * * * * * * * * * * * * * * * * * * * * * * * * * * * * * //

dimensions      [1 -3 -1 0 0 0 0];

internalField   nonuniform List<scalar> 
4000
(
8.08369e-19
4.78317e-19
2.72206e-19
2.83363e-20
2.34193e-19
9.18308e-20
9.13961e-20
1.39431e-19
1.15486e-19
1.3879e-19
1.69859e-19
-1.88644e-21
1.89644e-19
-4.49433e-21
1.76434e-19
8.23441e-19
5.48017e-19
1.98797e-19
5.38958e-20
3.54093e-19
1.11336e-19
5.0036e-19
1.32894e-18
6.60683e-19
2.63814e-18
-1.09034e-18
2.57905e-18
1.83849e-18
5.47058e-18
6.22119e-18
2.87747e-17
6.26851e-17
2.20858e-16
7.65506e-16
2.59614e-15
8.83534e-15
2.88167e-14
9.67049e-14
3.26832e-13
1.09407e-12
3.49437e-12
1.09973e-11
3.31745e-11
9.72773e-11
2.75052e-10
7.89234e-10
2.21885e-09
5.74088e-09
1.31169e-08
2.53482e-08
4.04155e-08
5.39482e-08
6.26557e-08
6.96609e-08
7.70389e-08
8.82494e-08
1.08229e-07
1.60831e-07
4.02764e-07
2.0672e-06
1.48782e-05
9.88796e-05
0.000465059
0.000968115
0.00139644
0.00193888
0.00303389
0.00593919
0.0136774
0.0319271
0.0712651
0.1515
0.291008
0.396037
0.223413
-0.0711504
-0.127755
-0.143268
-0.133829
-0.0870713
-0.0456282
-0.0230073
-0.0118338
-0.00623963
-0.00336725
-0.00185484
-0.00103178
-0.000573936
-0.000316454
-0.000171761
-9.1653e-05
-4.73699e-05
-2.31396e-05
-7.99451e-06
-1.4629e-06
3.23344e-08
7.81925e-08
2.07075e-09
-5.04183e-10
-7.75296e-12
4.92933e-19
1.28371e-18
-2.14402e-19
9.81962e-19
1.25056e-18
5.14953e-19
7.92755e-19
1.37056e-19
3.07935e-20
5.64674e-19
-9.97181e-20
-2.65809e-20
3.39487e-19
-1.74038e-19
3.5334e-20
1.08029e-18
1.14544e-18
1.14281e-18
2.52855e-18
2.78461e-18
1.82197e-18
6.57591e-19
1.95888e-18
1.30599e-18
5.17618e-18
2.98332e-18
1.56424e-18
3.33434e-18
1.24755e-18
1.10797e-17
2.48239e-17
8.01785e-17
2.93408e-16
1.05768e-15
3.52157e-15
1.19915e-14
4.00594e-14
1.36635e-13
4.44005e-13
1.45507e-12
4.68514e-12
1.44745e-11
4.3908e-11
1.27164e-10
3.75896e-10
1.07834e-09
2.95326e-09
7.33639e-09
1.6001e-08
2.94401e-08
4.35942e-08
5.49822e-08
6.39485e-08
7.06748e-08
7.83226e-08
9.08863e-08
1.12953e-07
1.73055e-07
4.48728e-07
2.21559e-06
1.53243e-05
9.86674e-05
0.000456201
0.000954923
0.0013782
0.00190716
0.00294625
0.00569987
0.0130348
0.0304506
0.0685921
0.146649
0.285307
0.39889
0.237841
-0.0669565
-0.128016
-0.144336
-0.135293
-0.0879692
-0.0459862
-0.0231536
-0.011898
-0.00626675
-0.00337823
-0.00185869
-0.00103242
-0.000573276
-0.000315361
-0.000170695
-9.08287e-05
-4.68489e-05
-2.25214e-05
-7.49004e-06
-1.27086e-06
5.97143e-08
7.61753e-08
6.61676e-10
-4.52913e-10
-6.99119e-12
3.22757e-18
3.20908e-19
3.467e-19
1.14633e-18
4.50595e-18
4.44058e-19
-1.34745e-19
-6.97654e-19
1.97626e-18
2.61837e-19
1.20957e-18
7.09637e-19
3.94101e-19
9.47983e-19
1.91991e-19
1.19517e-18
-4.80665e-20
2.35181e-19
1.65287e-18
7.65456e-19
2.83082e-18
-6.59837e-19
6.1691e-19
3.14794e-18
3.8975e-18
8.45989e-18
2.67494e-18
7.81792e-18
3.32683e-18
1.44463e-17
3.85522e-17
1.00798e-16
3.83745e-16
1.32468e-15
4.66051e-15
1.56357e-14
5.22419e-14
1.73363e-13
5.72516e-13
1.82402e-12
5.78912e-12
1.7204e-11
5.41714e-11
1.55814e-10
4.65156e-10
1.30653e-09
3.54096e-09
8.58362e-09
1.7855e-08
3.17192e-08
4.55699e-08
5.66297e-08
6.50829e-08
7.18954e-08
7.97842e-08
9.22864e-08
1.1532e-07
1.79746e-07
4.74047e-07
2.34147e-06
1.58138e-05
9.93246e-05
0.000450719
0.000943701
0.00136353
0.0018818
0.00287355
0.00546679
0.0124603
0.02926
0.0663723
0.142192
0.279846
0.40083
0.252719
-0.0622796
-0.128415
-0.145736
-0.137078
-0.0890009
-0.0464017
-0.0233268
-0.0119745
-0.00629338
-0.00338758
-0.00186114
-0.00103196
-0.000571741
-0.000313687
-0.000169068
-8.96027e-05
-4.60884e-05
-2.16439e-05
-6.84921e-06
-1.05393e-06
8.485e-08
7.32494e-08
-4.15816e-10
-4.02222e-10
-6.24434e-12
1.26118e-18
-2.79812e-19
7.18213e-19
1.75894e-18
1.09619e-18
2.12535e-18
6.97451e-19
-3.87531e-19
1.10286e-18
1.7852e-18
3.57121e-18
2.64652e-18
3.29741e-19
8.09564e-19
9.71115e-19
1.28017e-18
2.84252e-18
2.40076e-18
3.59168e-18
1.73304e-18
9.03017e-19
6.50093e-18
6.36477e-18
-1.02202e-18
2.36094e-18
5.7853e-18
3.67886e-18
-1.39065e-19
7.25388e-18
1.35199e-17
2.77716e-17
1.54607e-16
5.19888e-16
1.74771e-15
5.97562e-15
2.01295e-14
6.58139e-14
2.20513e-13
7.1672e-13
2.28045e-12
7.18459e-12
2.1547e-11
6.64012e-11
1.90886e-10
5.40335e-10
1.55182e-09
4.10954e-09
9.63846e-09
1.9937e-08
3.29461e-08
4.64684e-08
5.83045e-08
6.63778e-08
7.29505e-08
8.11822e-08
9.33953e-08
1.18032e-07
1.87525e-07
5.05661e-07
2.45178e-06
1.61527e-05
9.92405e-05
0.00044479
0.000935161
0.00135261
0.00186296
0.00281859
0.00529827
0.0119948
0.0282154
0.0642777
0.138077
0.274993
0.402071
0.266465
-0.0595093
-0.128917
-0.147211
-0.138822
-0.0899318
-0.0467597
-0.0234987
-0.0120953
-0.00626503
-0.00337767
-0.00185673
-0.00102924
-0.000569861
-0.000312827
-0.000166413
-8.8034e-05
-4.52599e-05
-2.07548e-05
-6.25401e-06
-8.599e-07
1.03327e-07
7.00229e-08
-1.12096e-09
-3.59265e-10
-5.60703e-12
5.98182e-19
1.06905e-18
3.66562e-19
3.84251e-19
5.89585e-19
4.53001e-19
2.40133e-18
3.17121e-19
-8.89927e-19
1.4757e-19
8.08838e-19
8.93367e-19
-3.63306e-20
3.11537e-20
1.00119e-18
-4.89219e-19
1.38559e-18
7.53558e-19
4.69411e-18
3.3239e-18
7.1028e-19
7.9214e-18
3.85261e-19
3.82547e-18
2.05962e-18
2.15671e-18
6.40394e-18
7.52027e-18
9.51312e-19
2.1295e-17
5.75957e-17
1.99057e-16
6.92554e-16
2.27006e-15
7.63418e-15
2.56346e-14
8.28878e-14
2.64558e-13
8.68815e-13
2.77625e-12
8.55499e-12
2.59688e-11
7.59641e-11
2.24927e-10
6.32028e-10
1.78412e-09
4.5963e-09
1.08602e-08
2.05995e-08
3.35639e-08
4.81916e-08
5.94553e-08
6.73042e-08
7.4143e-08
8.18907e-08
9.46333e-08
1.2078e-07
1.94562e-07
5.28469e-07
2.5533e-06
1.65245e-05
9.97952e-05
0.000441648
0.000928946
0.00134459
0.00184947
0.00278241
0.00518192
0.0116801
0.027476
0.062815
0.135307
0.271347
0.403355
0.277714
-0.0558207
-0.129355
-0.148595
-0.1404
-0.0907385
-0.0470588
-0.0236276
-0.0121556
-0.00629548
-0.00339144
-0.00186254
-0.00103117
-0.000569962
-0.000312161
-0.000165698
-8.74117e-05
-4.48558e-05
-2.01045e-05
-5.8011e-06
-7.16229e-07
1.16795e-07
6.74134e-08
-1.51347e-09
-3.25477e-10
-5.16378e-12
2.78536e-19
-1.50602e-20
-2.52877e-19
9.22956e-19
2.27073e-19
6.07876e-19
1.60899e-18
2.17828e-18
4.8598e-19
-4.15128e-19
3.82085e-19
1.45521e-18
1.80036e-18
1.68398e-18
1.85151e-18
3.17456e-18
1.50676e-18
1.30353e-18
1.98644e-18
8.73734e-19
8.87623e-18
6.09592e-18
9.6192e-18
4.73404e-18
4.02739e-18
-3.28806e-18
6.57658e-18
5.50978e-18
9.74918e-18
2.54612e-17
7.55297e-17
2.45194e-16
8.21366e-16
2.82064e-15
9.28176e-15
3.08051e-14
1.00799e-13
3.13441e-13
1.02745e-12
3.39702e-12
1.02121e-11
3.00354e-11
8.81858e-11
2.58225e-10
7.25985e-10
1.99505e-09
5.19692e-09
1.12552e-08
2.12264e-08
3.5222e-08
4.95885e-08
6.04386e-08
6.79166e-08
7.47924e-08
8.28338e-08
9.60343e-08
1.23148e-07
2.02009e-07
5.51812e-07
2.63595e-06
1.67722e-05
9.97525e-05
0.000437808
0.000923476
0.00133853
0.00184029
0.00275416
0.00508155
0.0113945
0.0268745
0.0616992
0.133096
0.268558
0.404324
0.285442
-0.0529057
-0.129627
-0.149612
-0.141666
-0.0914476
-0.0473395
-0.0237537
-0.0122155
-0.0063315
-0.00341036
-0.00187201
-0.00103552
-0.00057161
-0.000312458
-0.000165673
-8.72209e-05
-4.47029e-05
-1.96584e-05
-5.48112e-06
-6.16515e-07
1.26268e-07
6.5569e-08
-1.72407e-09
-3.04813e-10
-4.85012e-12
1.08988e-19
6.09306e-19
1.44214e-20
4.45407e-19
6.76479e-19
5.57592e-19
-5.94279e-20
-4.68621e-19
4.97527e-19
3.65249e-19
4.42155e-19
3.07565e-19
5.7069e-19
2.6272e-18
1.90209e-18
2.80705e-18
1.67561e-18
1.2924e-18
1.76269e-18
-6.00436e-19
5.52947e-18
6.78464e-18
1.69007e-18
-8.62133e-19
2.33832e-18
8.21759e-18
-5.93616e-19
6.9226e-18
9.81622e-18
3.06486e-17
9.19561e-17
2.93043e-16
9.98021e-16
3.36962e-15
1.10347e-14
3.681e-14
1.21113e-13
3.81435e-13
1.25294e-12
3.92427e-12
1.1869e-11
3.53163e-11
1.02667e-10
2.87888e-10
8.10954e-10
2.21176e-09
5.50826e-09
1.13571e-08
2.2248e-08
3.6619e-08
5.05555e-08
6.10103e-08
6.83257e-08
7.52366e-08
8.34783e-08
9.71609e-08
1.25231e-07
2.07289e-07
5.70167e-07
2.69788e-06
1.69012e-05
9.93103e-05
0.000433401
0.0009179
0.00133247
0.00183165
0.0027304
0.00500052
0.0111763
0.0263667
0.060692
0.131101
0.265849
0.404827
0.292918
-0.0498568
-0.129732
-0.1504
-0.142842
-0.0922106
-0.0476817
-0.0239135
-0.0122937
-0.00637617
-0.00343421
-0.00188453
-0.00104185
-0.000574568
-0.000313634
-0.000166186
-8.73663e-05
-4.47385e-05
-1.93929e-05
-5.26826e-06
-5.47561e-07
1.33294e-07
6.43966e-08
-1.84187e-09
-2.91585e-10
-4.64926e-12
2.97822e-19
1.86177e-19
1.24846e-18
1.80279e-18
8.14072e-19
8.52367e-19
1.07727e-18
1.51268e-18
3.86985e-19
1.69766e-19
-9.48549e-20
9.58385e-19
9.79526e-19
6.47642e-19
9.34571e-19
1.00508e-19
2.00868e-18
2.46192e-21
5.14221e-19
4.26384e-18
4.86208e-18
2.86842e-18
2.7617e-19
-3.7677e-18
2.78708e-18
1.87516e-18
3.987e-18
7.89276e-18
1.73457e-17
2.43436e-17
1.0121e-16
3.6652e-16
1.23733e-15
3.97963e-15
1.30687e-14
4.27184e-14
1.4067e-13
4.33352e-13
1.41713e-12
4.45487e-12
1.35176e-11
3.94694e-11
1.15683e-10
3.24609e-10
9.16098e-10
2.45177e-09
5.69665e-09
1.21288e-08
2.33717e-08
3.77878e-08
5.15338e-08
6.15624e-08
6.87029e-08
7.56453e-08
8.40606e-08
9.80865e-08
1.27063e-07
2.12082e-07
5.84347e-07
2.73453e-06
1.68848e-05
9.82132e-05
0.000427535
0.000911689
0.0013254
0.00182067
0.00270476
0.00492086
0.0109581
0.025854
0.059651
0.12903
0.262818
0.404909
0.300802
-0.0462168
-0.129646
-0.150949
-0.143961
-0.0930849
-0.0481168
-0.0241222
-0.0123971
-0.00643205
-0.00346396
-0.00190041
-0.00105021
-0.000578806
-0.000315644
-0.00016718
-8.78049e-05
-4.49345e-05
-1.92813e-05
-5.14217e-06
-5.02197e-07
1.38803e-07
6.388e-08
-1.91264e-09
-2.83869e-10
-4.53281e-12
3.79183e-19
2.10786e-19
2.49009e-19
1.60711e-18
2.00718e-18
1.33127e-18
4.18189e-19
5.45868e-20
7.30009e-19
1.57685e-18
-4.76707e-19
5.81044e-19
6.05918e-19
3.98779e-19
3.35525e-19
1.68263e-19
1.71616e-18
5.03542e-18
6.10505e-18
5.14867e-18
1.55847e-18
4.99376e-18
2.06688e-18
7.76061e-19
3.58571e-18
7.2969e-18
1.96562e-18
7.60206e-18
3.67921e-18
2.28992e-17
1.20239e-16
4.32185e-16
1.41807e-15
4.72064e-15
1.53595e-14
5.00192e-14
1.63501e-13
4.89552e-13
1.59155e-12
4.99207e-12
1.49216e-11
4.44768e-11
1.2865e-10
3.6536e-10
9.60867e-10
2.38927e-09
5.92219e-09
1.29517e-08
2.44345e-08
3.89354e-08
5.22633e-08
6.19717e-08
6.89996e-08
7.59875e-08
8.45229e-08
9.88202e-08
1.28558e-07
2.15879e-07
5.94264e-07
2.74541e-06
1.67037e-05
9.60311e-05
0.000418521
0.000901784
0.00131586
0.00180844
0.00267153
0.0048275
0.0106883
0.0252447
0.0583243
0.126364
0.259162
0.404616
0.309285
-0.0418741
-0.129376
-0.151288
-0.145076
-0.0941154
-0.0486655
-0.0243884
-0.0125295
-0.00650056
-0.00350014
-0.00191979
-0.00106058
-0.000584269
-0.000318425
-0.0001686
-8.84953e-05
-4.52687e-05
-1.93002e-05
-5.08491e-06
-4.74691e-07
1.43411e-07
6.39217e-08
-1.95957e-09
-2.80281e-10
-4.47976e-12
6.59679e-19
1.36465e-18
8.59551e-19
8.37868e-19
4.44489e-19
5.16537e-19
2.79168e-20
-3.32178e-20
1.19342e-18
2.11414e-18
6.12491e-19
2.64273e-18
1.58072e-18
8.82414e-19
4.26741e-18
5.16561e-18
4.08873e-18
1.71002e-18
4.19293e-18
7.63848e-18
4.78021e-18
3.32399e-18
2.7899e-18
4.12015e-18
3.86955e-18
-3.25168e-18
3.30946e-18
8.5127e-18
8.66734e-18
5.40776e-17
1.44708e-16
4.86783e-16
1.62717e-15
5.27906e-15
1.70823e-14
5.47652e-14
1.72267e-13
5.36399e-13
1.75479e-12
5.42644e-12
1.6093e-11
4.75308e-11
1.37216e-10
3.74456e-10
9.75025e-10
2.60844e-09
6.33303e-09
1.36595e-08
2.54972e-08
3.98912e-08
5.28998e-08
6.23334e-08
6.92534e-08
7.62265e-08
8.48668e-08
9.94498e-08
1.29753e-07
2.1862e-07
5.99308e-07
2.73582e-06
1.64465e-05
9.37587e-05
0.000408295
0.000891299
0.00130491
0.0017934
0.00263789
0.00473299
0.0104275
0.0246076
0.0561591
0.12387
0.255245
0.403406
0.318319
-0.0364007
-0.128915
-0.151505
-0.146298
-0.0953477
-0.0493376
-0.0247127
-0.0126896
-0.00658076
-0.00354183
-0.00194216
-0.00107266
-0.000590745
-0.000321838
-0.000170361
-8.93868e-05
-4.57146e-05
-1.94229e-05
-5.0808e-06
-4.60386e-07
1.47447e-07
6.44314e-08
-1.99373e-09
-2.79763e-10
-4.47389e-12
2.75999e-19
1.0654e-18
1.56914e-18
6.33352e-19
3.03906e-19
1.92972e-19
-2.44179e-19
-1.86415e-19
3.92095e-19
2.97522e-19
2.00648e-19
7.24152e-19
-2.87487e-19
2.67816e-18
3.17305e-19
2.64919e-18
2.76673e-18
1.88581e-18
4.37794e-18
6.11286e-18
8.17442e-18
2.05138e-18
-1.1726e-18
1.94296e-18
3.67454e-18
6.9538e-18
6.06574e-18
5.83429e-18
2.37693e-17
6.93494e-17
1.85982e-16
5.87014e-16
1.76188e-15
5.88431e-15
1.85329e-14
5.87412e-14
1.87947e-13
5.80362e-13
1.92421e-12
5.83569e-12
1.72586e-11
5.01208e-11
1.41137e-10
3.84397e-10
1.06409e-09
2.80376e-09
6.7537e-09
1.44537e-08
2.65219e-08
4.09079e-08
5.36692e-08
6.28539e-08
6.97178e-08
7.63691e-08
8.51538e-08
9.99513e-08
1.30651e-07
2.20458e-07
6.00484e-07
2.69872e-06
1.5977e-05
9.03932e-05
0.000397752
0.000880478
0.00129394
0.00177868
0.00260443
0.00463448
0.0101745
0.0240246
0.0548983
0.121258
0.250883
0.40199
0.327515
-0.0305601
-0.128305
-0.151526
-0.147388
-0.0966107
-0.0500576
-0.0250645
-0.0128647
-0.00666783
-0.00358773
-0.0019666
-0.00108587
-0.000597902
-0.000325702
-0.000172369
-9.04245e-05
-4.62416e-05
-1.96235e-05
-5.11634e-06
-4.55768e-07
1.51108e-07
6.52984e-08
-2.0205e-09
-2.81445e-10
-4.50183e-12
3.3451e-19
4.77404e-20
1.77858e-18
1.23413e-18
4.66361e-19
3.58238e-19
1.31883e-18
3.08436e-18
1.73117e-18
1.75148e-18
7.819e-19
2.3927e-18
7.40852e-19
9.28142e-19
1.4454e-18
1.54984e-18
2.6044e-18
3.38434e-18
-1.42251e-19
9.5062e-19
-2.86158e-19
3.56522e-18
3.78994e-18
3.73159e-18
1.18686e-18
7.60728e-18
6.75474e-18
1.35163e-17
2.91788e-17
6.99544e-17
1.95938e-16
6.1492e-16
2.02674e-15
6.60377e-15
2.11801e-14
6.68283e-14
2.06475e-13
6.35968e-13
2.02e-12
6.31968e-12
1.84644e-11
5.32212e-11
1.4905e-10
4.13895e-10
1.14037e-09
2.98176e-09
7.12351e-09
1.51042e-08
2.73967e-08
4.17811e-08
5.43627e-08
6.33886e-08
7.0213e-08
7.6395e-08
8.5394e-08
1.00398e-07
1.31371e-07
2.21568e-07
5.99082e-07
2.66137e-06
1.55715e-05
8.75638e-05
0.000386038
0.000869186
0.00128285
0.00176418
0.00257267
0.00454112
0.00992273
0.0234765
0.0535008
0.11843
0.246444
0.400271
0.33609
-0.0244462
-0.127606
-0.151416
-0.148429
-0.0979306
-0.0508195
-0.0254358
-0.0130492
-0.0067591
-0.00363577
-0.00199276
-0.00110026
-0.000605812
-0.00032997
-0.000174578
-9.15821e-05
-4.68408e-05
-1.98881e-05
-5.18135e-06
-4.57928e-07
1.54553e-07
6.64201e-08
-2.04211e-09
-2.84628e-10
-4.55294e-12
2.26472e-19
-1.47191e-19
1.88511e-18
1.61562e-18
1.42797e-18
3.10945e-19
1.44266e-18
1.41508e-18
-1.97922e-21
1.92691e-18
9.56319e-19
-6.7784e-19
2.06739e-18
1.26448e-18
8.25203e-19
2.68621e-18
-1.17944e-19
1.06535e-18
-2.45563e-19
1.1435e-18
6.23316e-18
3.81082e-18
2.86761e-18
3.2059e-18
4.69668e-18
7.90607e-18
7.31466e-18
8.95692e-18
1.77745e-17
6.97498e-17
2.09287e-16
6.74628e-16
2.20827e-15
7.16661e-15
2.27368e-14
7.11287e-14
2.19141e-13
6.72974e-13
2.13708e-12
6.73286e-12
1.97722e-11
5.73148e-11
1.59712e-10
4.46483e-10
1.20293e-09
3.13261e-09
7.4408e-09
1.55864e-08
2.79767e-08
4.22986e-08
5.47162e-08
6.36109e-08
7.03615e-08
7.64567e-08
8.56812e-08
1.00769e-07
1.31867e-07
2.22124e-07
5.95171e-07
2.60934e-06
1.51595e-05
8.47266e-05
0.000375145
0.000857527
0.00127121
0.00174903
0.00254049
0.00444813
0.00966348
0.0228746
0.0522326
0.115905
0.242126
0.397949
0.344319
-0.0176036
-0.1268
-0.151266
-0.149443
-0.0992891
-0.0516343
-0.0258383
-0.0132497
-0.00685597
-0.00368624
-0.00201987
-0.00111509
-0.00061397
-0.000334474
-0.000176931
-9.28104e-05
-4.74666e-05
-2.01822e-05
-5.26447e-06
-4.65226e-07
1.57675e-07
6.77333e-08
-2.06111e-09
-2.89063e-10
-4.62312e-12
-4.07176e-19
1.33359e-18
2.98833e-19
1.81691e-18
1.2557e-18
7.12867e-19
1.75212e-18
1.36316e-18
1.37347e-18
1.05622e-18
1.66586e-18
1.51723e-18
1.72674e-18
2.53804e-18
4.91794e-18
6.37824e-18
4.69399e-18
1.6922e-18
4.2815e-18
6.06264e-19
9.38142e-18
6.26522e-18
3.0319e-18
7.67917e-21
2.53482e-20
1.30128e-18
9.97388e-18
1.03784e-17
1.4923e-17
6.5319e-17
2.33201e-16
7.27965e-16
2.34064e-15
7.51326e-15
2.39474e-14
7.48774e-14
2.33529e-13
7.04263e-13
2.27847e-12
7.1028e-12
2.05829e-11
5.90719e-11
1.68328e-10
4.69581e-10
1.25775e-09
3.25658e-09
7.66054e-09
1.5919e-08
2.83662e-08
4.26302e-08
5.49294e-08
6.37492e-08
7.04456e-08
7.65019e-08
8.59063e-08
1.01067e-07
1.32194e-07
2.22206e-07
5.90994e-07
2.55866e-06
1.46873e-05
8.17047e-05
0.000364888
0.000846474
0.0012605
0.00173518
0.00251107
0.00436995
0.00943622
0.0223238
0.0510669
0.113394
0.237965
0.395635
0.351606
-0.0107653
-0.125962
-0.151041
-0.150383
-0.100665
-0.0524581
-0.0262417
-0.0134496
-0.00695325
-0.00373663
-0.00204683
-0.00112977
-0.000622036
-0.000338907
-0.000179241
-9.40312e-05
-4.81002e-05
-2.0499e-05
-5.36111e-06
-4.75871e-07
1.60596e-07
6.91185e-08
-2.07601e-09
-2.93985e-10
-4.70069e-12
5.1272e-19
4.21967e-19
-2.88961e-19
7.51223e-19
3.25133e-19
3.7094e-20
7.50274e-19
-9.32887e-20
7.00632e-20
1.70331e-18
2.74687e-18
2.76944e-18
3.99589e-18
1.89403e-18
5.08265e-19
2.05817e-18
3.56426e-18
4.81374e-18
5.55906e-18
3.55608e-18
-8.93703e-19
-3.92214e-19
3.7327e-18
-1.18713e-18
-1.62569e-18
1.16704e-18
1.7732e-18
6.61213e-18
2.115e-17
6.77913e-17
2.11648e-16
7.52091e-16
2.46175e-15
7.88518e-15
2.46244e-14
7.6389e-14
2.43915e-13
7.34942e-13
2.36158e-12
7.14936e-12
2.19693e-11
6.27102e-11
1.77325e-10
4.82007e-10
1.29838e-09
3.34329e-09
7.82282e-09
1.61668e-08
2.86555e-08
4.28771e-08
5.50894e-08
6.38332e-08
7.04975e-08
7.65324e-08
8.60692e-08
1.01284e-07
1.32378e-07
2.219e-07
5.85095e-07
2.50871e-06
1.42718e-05
7.9015e-05
0.000354819
0.000836201
0.00125056
0.0017225
0.0024846
0.00429487
0.00922485
0.0218295
0.0500255
0.111214
0.23416
0.393277
0.358144
-0.00412799
-0.125131
-0.150805
-0.151221
-0.101933
-0.0532258
-0.0266176
-0.0136355
-0.00704298
-0.00378314
-0.00207173
-0.00114336
-0.00062951
-0.000343022
-0.000181384
-9.51587e-05
-4.86822e-05
-2.07965e-05
-5.45528e-06
-4.87622e-07
1.63071e-07
7.043e-08
-2.08693e-09
-2.98851e-10
-4.77722e-12
1.62256e-19
6.52204e-19
5.87112e-19
1.09217e-18
5.08034e-19
4.68577e-19
1.1913e-18
6.21379e-19
9.74959e-19
-1.94223e-19
9.91195e-20
4.07021e-18
1.72168e-18
5.74359e-19
2.02557e-18
-9.2447e-20
6.13654e-19
4.68323e-18
8.57714e-19
2.8683e-18
-3.78159e-19
1.14731e-18
1.95283e-18
2.19294e-18
5.39805e-18
-1.33531e-18
3.58008e-18
3.07296e-18
1.46797e-17
6.22762e-17
2.35457e-16
7.8583e-16
2.55125e-15
8.221e-15
2.61144e-14
8.22115e-14
2.52741e-13
7.99832e-13
2.50635e-12
7.71625e-12
2.2607e-11
6.42558e-11
1.81804e-10
4.91155e-10
1.32878e-09
3.41032e-09
7.94448e-09
1.63473e-08
2.88573e-08
4.3036e-08
5.51868e-08
6.38885e-08
7.05355e-08
7.65538e-08
8.61873e-08
1.01439e-07
1.32457e-07
2.21419e-07
5.79312e-07
2.45877e-06
1.38986e-05
7.67587e-05
0.000346559
0.000827539
0.00124201
0.00171169
0.00246285
0.00423532
0.00905736
0.0214019
0.0491361
0.109382
0.230868
0.391175
0.363496
0.00175417
-0.124391
-0.150588
-0.1519
-0.103016
-0.0538891
-0.0269408
-0.013796
-0.00712046
-0.00382334
-0.00209328
-0.00115513
-0.000635997
-0.000346604
-0.000183254
-9.6155e-05
-4.91949e-05
-2.10637e-05
-5.54148e-06
-4.98777e-07
1.65211e-07
7.1608e-08
-2.0946e-09
-3.03283e-10
-4.84677e-12
5.07191e-19
8.31605e-19
1.07771e-18
7.21156e-19
1.05201e-18
8.20824e-19
1.52423e-18
2.00393e-18
1.17333e-18
7.55899e-20
1.21319e-19
3.68101e-19
1.23929e-18
3.20928e-19
3.31037e-18
2.17473e-18
4.09889e-19
1.29582e-18
1.43794e-18
3.92611e-18
3.00494e-18
-5.7338e-19
3.41458e-18
1.95527e-18
8.3794e-19
8.95428e-18
1.40223e-18
1.05754e-17
2.70568e-17
8.64906e-17
2.53771e-16
8.23221e-16
2.66911e-15
8.59876e-15
2.73605e-14
8.65138e-14
2.6941e-13
8.23571e-13
2.55639e-12
7.70831e-12
2.2757e-11
6.51821e-11
1.79052e-10
4.98643e-10
1.35491e-09
3.46087e-09
8.03563e-09
1.64823e-08
2.90082e-08
4.31555e-08
5.52579e-08
6.39276e-08
7.05611e-08
7.65695e-08
8.62678e-08
1.01537e-07
1.32481e-07
2.2096e-07
5.7492e-07
2.42369e-06
1.36339e-05
7.50082e-05
0.000339715
0.000819705
0.00123473
0.00170251
0.00244439
0.0041847
0.00891284
0.0210655
0.0484308
0.107924
0.228342
0.389422
0.367518
0.0065153
-0.123783
-0.150402
-0.152417
-0.103877
-0.0544232
-0.0272045
-0.013926
-0.007183
-0.00385572
-0.00211061
-0.00116459
-0.000641213
-0.000349486
-0.000184758
-9.69524e-05
-4.96039e-05
-2.12782e-05
-5.61212e-06
-5.08443e-07
1.6684e-07
7.25667e-08
-2.09956e-09
-3.06954e-10
-4.90432e-12
3.91643e-19
9.46902e-19
2.23534e-18
3.19798e-18
1.9611e-18
1.433e-18
1.09801e-18
3.40616e-18
7.09668e-19
5.27494e-20
7.30569e-20
9.44038e-20
9.963e-19
1.18091e-18
1.99867e-18
4.37444e-18
3.05477e-18
1.49237e-18
2.64129e-18
5.90543e-20
5.28426e-18
2.81087e-18
2.18609e-18
5.06599e-18
7.6388e-18
6.21704e-18
4.66651e-18
2.3154e-18
2.01757e-17
8.66649e-17
2.59747e-16
8.26203e-16
2.7215e-15
8.56789e-15
2.72155e-14
8.55176e-14
2.65406e-13
8.10085e-13
2.52311e-12
7.87057e-12
2.25675e-11
6.46807e-11
1.80675e-10
5.03526e-10
1.37328e-09
3.49686e-09
8.09967e-09
1.65764e-08
2.91132e-08
4.32406e-08
5.53064e-08
6.39555e-08
7.05792e-08
7.65816e-08
8.63209e-08
1.01599e-07
1.32478e-07
2.20589e-07
5.71593e-07
2.39769e-06
1.34399e-05
7.38012e-05
0.000335088
0.000814468
0.00122974
0.0016961
0.00243168
0.00415047
0.00881526
0.0208375
0.0479689
0.106957
0.226527
0.38816
0.370282
0.00994352
-0.12334
-0.150263
-0.152772
-0.104484
-0.0548019
-0.0273904
-0.0140178
-0.0072272
-0.00387859
-0.00212287
-0.00117129
-0.000644907
-0.000351531
-0.000185825
-9.75195e-05
-4.98956e-05
-2.14331e-05
-5.66374e-06
-5.1558e-07
1.67992e-07
7.32546e-08
-2.10248e-09
-3.09606e-10
-4.94584e-12
1.19662e-19
-1.94053e-19
2.62413e-19
9.44726e-19
4.40924e-19
8.55584e-19
5.32104e-19
1.5775e-18
1.10317e-18
1.13892e-18
7.16863e-19
7.75816e-19
1.46334e-18
7.12976e-19
1.40297e-18
1.45815e-18
4.51282e-20
6.63988e-19
1.68482e-18
3.2404e-18
2.38789e-18
7.40803e-19
1.11828e-18
5.88445e-18
6.1899e-18
1.06885e-17
4.51257e-19
1.6559e-17
2.50469e-17
6.51252e-17
2.60429e-16
8.43378e-16
2.75829e-15
8.7863e-15
2.81948e-14
8.75624e-14
2.7538e-13
8.27453e-13
2.65713e-12
8.04301e-12
2.32368e-11
6.57507e-11
1.81688e-10
5.1152e-10
1.38193e-09
3.5186e-09
8.14146e-09
1.66384e-08
2.91816e-08
4.32943e-08
5.53377e-08
6.39736e-08
7.0593e-08
7.65926e-08
8.63576e-08
1.01643e-07
1.32491e-07
2.20424e-07
5.69952e-07
2.38435e-06
1.33364e-05
7.31714e-05
0.000332701
0.000811718
0.00122706
0.00169268
0.00242493
0.00413217
0.00876339
0.0207142
0.0476979
0.106414
0.225579
0.387471
0.371711
0.0117843
-0.123098
-0.150185
-0.152954
-0.104807
-0.0550051
-0.0274906
-0.0140675
-0.00725113
-0.003891
-0.00212951
-0.00117492
-0.000646911
-0.00035264
-0.000186405
-9.78272e-05
-5.00536e-05
-2.15183e-05
-5.69197e-06
-5.19628e-07
1.68581e-07
7.36223e-08
-2.10386e-09
-3.11037e-10
-4.9683e-12
-1.45239e-19
1.46154e-18
9.03031e-19
1.51872e-18
6.71528e-19
1.18197e-18
8.40085e-19
2.73519e-18
8.79425e-19
1.48577e-20
2.35607e-18
2.21666e-18
2.97913e-18
7.47929e-19
1.2827e-18
2.00107e-18
2.92659e-19
1.84263e-18
1.55067e-18
3.3387e-18
3.77151e-18
1.28738e-18
1.82741e-18
2.946e-18
2.75833e-18
4.59477e-19
7.70622e-19
2.73659e-18
2.37514e-17
7.89977e-17
2.76025e-16
9.02988e-16
2.90297e-15
9.48086e-15
3.00934e-14
9.28037e-14
2.8645e-13
8.51603e-13
2.66995e-12
7.9415e-12
2.35445e-11
6.65802e-11
1.8502e-10
5.12981e-10
1.38763e-09
3.53188e-09
8.16619e-09
1.66757e-08
2.92243e-08
4.333e-08
5.53614e-08
6.3989e-08
7.06058e-08
7.66048e-08
8.63884e-08
1.01683e-07
1.32535e-07
2.2046e-07
5.69749e-07
2.38184e-06
1.33152e-05
7.30343e-05
0.000332177
0.000811106
0.00122646
0.00169193
0.00242356
0.00412871
0.00875385
0.0206925
0.0476539
0.106324
0.225419
0.387355
0.371932
0.0120755
-0.123061
-0.150171
-0.152979
-0.104855
-0.0550357
-0.0275056
-0.0140749
-0.00725472
-0.00389286
-0.00213051
-0.00117547
-0.00064721
-0.000352804
-0.00018649
-9.78724e-05
-5.00766e-05
-2.15303e-05
-5.69582e-06
-5.20028e-07
1.68691e-07
7.36726e-08
-2.10425e-09
-3.1121e-10
-4.97097e-12
1.02613e-19
3.74075e-19
1.85038e-18
2.16134e-18
9.404e-19
2.07103e-19
-1.12965e-19
7.90781e-19
2.28956e-18
1.82307e-18
1.2687e-19
1.41299e-18
-1.38267e-19
1.28887e-18
2.00077e-18
1.47738e-18
2.25561e-18
1.31827e-18
3.18549e-19
9.67644e-19
1.81023e-18
8.69144e-19
1.36839e-18
3.88384e-19
4.66917e-18
8.61307e-19
5.62892e-18
8.82653e-18
3.37431e-17
9.02313e-17
2.88351e-16
9.15307e-16
2.96828e-15
9.58841e-15
3.08631e-14
9.54571e-14
2.91289e-13
8.68942e-13
2.69342e-12
8.1308e-12
2.35998e-11
6.64508e-11
1.86712e-10
5.14954e-10
1.38693e-09
3.53786e-09
8.17667e-09
1.66923e-08
2.92458e-08
4.33514e-08
5.53788e-08
6.40028e-08
7.06189e-08
7.662e-08
8.64158e-08
1.01725e-07
1.3264e-07
2.20816e-07
5.71595e-07
2.39371e-06
1.33971e-05
7.35179e-05
0.000333972
0.000813077
0.00122829
0.00169425
0.00242827
0.00414167
0.00879072
0.0207798
0.0478488
0.106707
0.226118
0.387844
0.370863
0.010723
-0.123233
-0.150224
-0.15284
-0.104618
-0.0548866
-0.0274322
-0.0140385
-0.00723727
-0.00388383
-0.00212568
-0.00117282
-0.00064575
-0.000351994
-0.000186067
-9.76469e-05
-4.99608e-05
-2.14667e-05
-5.67412e-06
-5.16947e-07
1.68218e-07
7.33788e-08
-2.10357e-09
-3.10061e-10
-4.95301e-12
1.09058e-19
3.04165e-21
3.36954e-19
3.53881e-19
9.26659e-19
1.05782e-18
-1.62575e-20
1.60516e-18
8.83315e-19
2.70694e-19
-7.52097e-20
4.40794e-19
7.79343e-20
2.79953e-18
2.38662e-18
4.8296e-18
5.42598e-18
1.15467e-18
1.09435e-18
2.8573e-18
3.11514e-18
5.32692e-18
1.94565e-18
6.91633e-18
4.59409e-18
4.36421e-18
2.52031e-18
7.58045e-18
3.0683e-17
1.02671e-16
2.82291e-16
8.54314e-16
2.82706e-15
8.83327e-15
2.72814e-14
8.42969e-14
2.69161e-13
8.01976e-13
2.58914e-12
8.07326e-12
2.31536e-11
6.62837e-11
1.8322e-10
5.15137e-10
1.38665e-09
3.53334e-09
8.16958e-09
1.66848e-08
2.92424e-08
4.33554e-08
5.53878e-08
6.40131e-08
7.06306e-08
7.66372e-08
8.64403e-08
1.01772e-07
1.32811e-07
2.21508e-07
5.75513e-07
2.41963e-06
1.35793e-05
7.46047e-05
0.000337989
0.000817485
0.0012324
0.00169945
0.00243872
0.00417034
0.00887206
0.0209719
0.0482494
0.10752
0.227612
0.388902
0.368528
0.00781158
-0.123609
-0.15034
-0.152546
-0.104104
-0.0545648
-0.0272734
-0.0139599
-0.00719953
-0.0038643
-0.00211521
-0.00116711
-0.000642591
-0.000350242
-0.000185153
-9.71604e-05
-4.97101e-05
-2.13315e-05
-5.62818e-06
-5.10306e-07
1.67256e-07
7.27662e-08
-2.10184e-09
-3.07654e-10
-4.91534e-12
1.03585e-18
1.46007e-18
6.52482e-19
1.18214e-18
1.04616e-18
6.1164e-19
2.62205e-19
3.10685e-19
7.80754e-20
4.81692e-19
2.96903e-20
2.0274e-19
6.45986e-19
6.60837e-19
2.08533e-19
1.60564e-18
2.25283e-18
3.553e-18
2.81878e-18
4.33308e-18
1.80151e-18
1.8002e-18
3.86087e-18
3.08461e-18
5.44834e-18
1.16329e-17
8.30412e-18
2.23582e-18
3.06576e-17
8.92764e-17
2.73018e-16
8.3538e-16
2.71866e-15
8.49444e-15
2.68175e-14
8.42772e-14
2.64364e-13
8.02564e-13
2.57961e-12
8.03756e-12
2.31573e-11
6.50956e-11
1.82348e-10
5.15433e-10
1.38006e-09
3.51911e-09
8.14682e-09
1.66559e-08
2.9218e-08
4.33455e-08
5.53914e-08
6.40222e-08
7.06432e-08
7.66585e-08
8.64654e-08
1.01829e-07
1.33063e-07
2.22598e-07
5.81905e-07
2.46258e-06
1.38802e-05
7.6391e-05
0.000344488
0.000824405
0.00123882
0.00170757
0.00245516
0.00421545
0.00900015
0.0212735
0.0488771
0.108848
0.229928
0.390458
0.36486
0.00346089
-0.124167
-0.150514
-0.15209
-0.10333
-0.0540828
-0.0270367
-0.0138431
-0.00714336
-0.00383518
-0.00209961
-0.00115857
-0.000637879
-0.000347631
-0.000183789
-9.64346e-05
-4.93376e-05
-2.11303e-05
-5.56046e-06
-5.00595e-07
1.65815e-07
7.1859e-08
-2.09864e-09
-3.04107e-10
-4.85978e-12
4.01667e-19
3.06038e-19
1.39192e-18
1.57209e-18
1.10967e-18
2.43897e-19
2.15058e-19
1.64102e-18
6.30783e-20
-4.21549e-19
1.75635e-18
1.18803e-18
1.94727e-18
2.82738e-18
1.44127e-18
2.38944e-18
3.47961e-18
3.86025e-18
3.14214e-18
4.0601e-18
7.01833e-18
-5.31512e-19
-5.34856e-19
2.18167e-18
4.80348e-18
6.04658e-18
6.65917e-18
9.55908e-18
2.47477e-17
8.08734e-17
2.67891e-16
8.56405e-16
2.72012e-15
8.66697e-15
2.75617e-14
8.60695e-14
2.69803e-13
8.13651e-13
2.49847e-12
7.6569e-12
2.29668e-11
6.4718e-11
1.78855e-10
5.08143e-10
1.37095e-09
3.49697e-09
8.1064e-09
1.65991e-08
2.91624e-08
4.33129e-08
5.53833e-08
6.4026e-08
7.06533e-08
7.66804e-08
8.64816e-08
1.01881e-07
1.33356e-07
2.23975e-07
5.90321e-07
2.52032e-06
1.4291e-05
7.88596e-05
0.000353505
0.000833512
0.00124715
0.00171802
0.00247662
0.00427514
0.00916885
0.0216736
0.0496981
0.110559
0.232911
0.392423
0.360011
-0.00201459
-0.124866
-0.150733
-0.151482
-0.102329
-0.0534607
-0.0267312
-0.0136919
-0.00707068
-0.00379743
-0.0020794
-0.00114753
-0.000631787
-0.000344258
-0.000182028
-9.54994e-05
-4.88558e-05
-2.08741e-05
-5.47459e-06
-4.88517e-07
1.63937e-07
7.07046e-08
-2.09346e-09
-2.99614e-10
-4.78939e-12
-2.64023e-19
-1.79453e-20
1.2516e-18
7.36401e-19
7.28392e-19
6.31342e-19
2.34139e-18
8.36092e-19
5.49673e-19
4.75912e-19
1.08229e-18
1.59541e-18
3.3054e-18
2.51665e-18
-1.77705e-19
1.097e-18
1.30398e-18
-7.93949e-20
3.04405e-19
2.40051e-18
-2.34892e-19
5.61123e-18
1.30955e-18
7.45303e-18
7.12254e-18
8.57217e-18
9.8633e-18
1.5544e-17
2.09477e-17
8.18971e-17
2.50009e-16
7.99664e-16
2.63188e-15
8.52487e-15
2.63733e-14
8.55056e-14
2.63778e-13
8.06233e-13
2.49133e-12
7.69875e-12
2.23057e-11
6.49887e-11
1.79755e-10
5.01781e-10
1.35017e-09
3.46018e-09
8.04421e-09
1.65112e-08
2.90731e-08
4.32522e-08
5.53587e-08
6.40209e-08
7.06583e-08
7.67018e-08
8.64787e-08
1.01915e-07
1.33673e-07
2.25577e-07
6.00439e-07
2.59035e-06
1.47868e-05
8.17736e-05
0.000363557
0.000843736
0.00125666
0.00172979
0.0025009
0.0043421
0.00935618
0.0221359
0.0506736
0.112562
0.236477
0.394662
0.354017
-0.00833219
-0.125664
-0.150978
-0.150725
-0.101141
-0.0527373
-0.0263764
-0.0135157
-0.00698579
-0.00375345
-0.00205579
-0.00113461
-0.000624648
-0.000340303
-0.000179963
-9.44018e-05
-4.82888e-05
-2.05721e-05
-5.37495e-06
-4.74937e-07
1.61637e-07
6.93534e-08
-2.08573e-09
-2.9442e-10
-4.70798e-12
-1.43208e-19
4.06763e-19
-1.9491e-20
4.93891e-19
2.12951e-19
1.62259e-19