/*--------------------------------*- C++ -*----------------------------------*\
  =========                 |
  \\      /  F ield         | OpenFOAM: The Open Source CFD Toolbox
   \\    /   O peration     | Website:  https://openfoam.org
    \\  /    A nd           | Version:  10
     \\/     M anipulation  |
\*---------------------------------------------------------------------------*/
FoamFile
{
    format      ascii;
    class       volScalarField;
    location    "1";
    object      RR.C4H81;
}
// * * * * * * * * * * * * * * * * * * * * * * * * * * * * * * * * * * * * * //

dimensions      [1 -3 -1 0 0 0 0];

internalField   nonuniform List<scalar> 
4000
(
3.36803e-20
1.19586e-19
6.92992e-20
6.18003e-21
4.651e-20
4.0235e-20
5.70506e-20
6.53877e-20
5.08425e-20
7.18048e-20
9.20415e-20
5.95789e-20
1.2365e-19
1.10144e-19
1.69223e-19
3.01767e-19
2.70812e-19
1.10278e-19
1.77173e-19
2.57698e-19
4.76633e-20
2.28737e-19
1.53602e-19
2.16392e-19
9.97016e-19
1.00183e-19
1.26811e-18
1.00055e-18
2.77188e-18
8.89875e-18
2.52426e-17
7.04611e-17
2.40354e-16
8.10403e-16
2.64634e-15
8.31874e-15
2.73063e-14
8.69113e-14
2.76605e-13
8.67585e-13
2.58781e-12
7.55714e-12
2.10725e-11
5.68531e-11
1.47252e-10
3.8245e-10
9.67961e-10
2.25822e-09
4.7051e-09
8.602e-09
1.42205e-08
2.34282e-08
3.9262e-08
7.37639e-08
1.41493e-07
2.7864e-07
6.1525e-07
1.74866e-06
6.05203e-06
2.34447e-05
9.39436e-05
0.000344283
0.00109222
0.00237783
0.0040847
0.00647093
0.010625
0.0207127
0.047812
0.114134
0.266963
0.615154
1.33179
2.17332
1.88688
-0.220567
-1.63475
-1.05772
-0.530874
-0.266334
-0.131779
-0.0662003
-0.0340752
-0.0179781
-0.00970791
-0.0053505
-0.00297763
-0.00165676
-0.000913211
-0.000494621
-0.000261607
-0.000130789
-6.3387e-05
-2.90733e-05
-1.2624e-05
-3.97588e-06
-1.10294e-06
-3.89245e-07
-1.06237e-07
-1.01326e-08
1.05767e-19
5.24111e-19
-2.05309e-19
5.04146e-19
5.81145e-19
2.58845e-19
2.04796e-19
2.74427e-20
1.73782e-20
3.3277e-19
1.06814e-19
3.13736e-20
2.77896e-19
1.24148e-19
1.89326e-19
3.99424e-19
5.23325e-19
5.01541e-19
7.59657e-19
1.10177e-18
9.76398e-19
1.37932e-19
1.07952e-18
4.26054e-19
2.20034e-18
1.30915e-18
1.68507e-19
2.47326e-18
1.91197e-18
9.39356e-18
3.33221e-17
9.76249e-17
3.35978e-16
1.12703e-15
3.65767e-15
1.19757e-14
3.79737e-14
1.22496e-13
3.74679e-13
1.14856e-12
3.43915e-12
9.84348e-12
2.75068e-11
7.32032e-11
1.96774e-10
5.11251e-10
1.26103e-09
2.82735e-09
5.65145e-09
1.00094e-08
1.58296e-08
2.4698e-08
4.36851e-08
8.1254e-08
1.53887e-07
3.04349e-07
6.58911e-07
1.83785e-06
6.23241e-06
2.36405e-05
9.35898e-05
0.000339767
0.00107004
0.00232967
0.00399662
0.00632642
0.0103038
0.0198838
0.0455276
0.10861
0.256092
0.592546
1.2971
2.16709
1.9513
-0.154366
-1.64153
-1.07545
-0.539042
-0.269981
-0.133327
-0.0668876
-0.0343934
-0.0181232
-0.00977345
-0.00537921
-0.00298873
-0.00165969
-0.000912648
-0.000492808
-0.000259672
-0.000129278
-6.23176e-05
-2.84527e-05
-1.22131e-05
-3.73544e-06
-1.04569e-06
-3.74517e-07
-1.01178e-07
-9.59928e-09
7.21859e-19
3.89755e-20
1.99796e-20
3.62596e-19
1.39873e-18
3.90399e-19
-1.13889e-19
-1.5307e-19
9.40762e-19
4.64551e-19
6.45785e-19
3.2201e-19
1.80845e-20
3.83008e-19
1.21521e-19
4.75949e-19
3.30399e-19
5.1516e-19
9.8717e-19
4.49056e-19
8.7767e-19
-1.5836e-19
2.85548e-20
6.36391e-19
1.25026e-18
3.14747e-18
2.17493e-18
2.91283e-18
5.7869e-18
1.54429e-17
4.59303e-17
1.3334e-16
4.42311e-16
1.4704e-15
4.89802e-15
1.57547e-14
4.96813e-14
1.55443e-13
4.8208e-13
1.43639e-12
4.24101e-12
1.16909e-11
3.36786e-11
8.87308e-11
2.39775e-10
6.09095e-10
1.48592e-09
3.25743e-09
6.24853e-09
1.08127e-08
1.69478e-08
2.68886e-08
4.81678e-08
9.13994e-08
1.68554e-07
3.17931e-07
6.81157e-07
1.88836e-06
6.34638e-06
2.38684e-05
9.36289e-05
0.000337374
0.00105424
0.00228809
0.00392222
0.00620475
0.0100323
0.0190683
0.0434812
0.104173
0.247048
0.571896
1.26439
2.15656
2.01536
-0.0838863
-1.64966
-1.09516
-0.548169
-0.274113
-0.1352
-0.0677416
-0.0347877
-0.018288
-0.00984639
-0.00541078
-0.00300066
-0.00166249
-0.000911535
-0.000489931
-0.000256763
-0.000127147
-6.08858e-05
-2.76506e-05
-1.16697e-05
-3.46596e-06
-9.86378e-07
-3.57345e-07
-9.59141e-08
-9.06093e-09
2.57936e-19
5.59602e-21
8.22338e-20
6.03315e-19
5.49817e-19
7.69563e-19
9.40883e-19
1.36923e-19
1.58977e-19
6.30274e-19
1.22269e-18
1.0577e-18
6.10719e-19
6.80439e-19
7.38394e-19
5.58879e-19
1.11008e-18
6.61057e-19
1.39425e-18
8.40127e-19
1.71268e-19
9.53218e-19
3.02077e-18
9.06523e-19
1.82752e-18
2.30234e-18
2.56414e-19
1.03684e-18
6.41558e-18
1.69316e-17
5.08776e-17
1.7841e-16
5.88593e-16
1.93831e-15
6.3177e-15
2.02008e-14
6.29332e-14
1.97669e-13
6.03074e-13
1.79202e-12
5.242e-12
1.45226e-11
4.0964e-11
1.0757e-10
2.76479e-10
7.14562e-10
1.70243e-09
3.61391e-09
6.9216e-09
1.1295e-08
1.75396e-08
2.9606e-08
5.41623e-08
1.00455e-07
1.82439e-07
3.26549e-07
7.02086e-07
1.93579e-06
6.44807e-06
2.39816e-05
9.33444e-05
0.000334157
0.00103897
0.00225603
0.00386508
0.00610967
0.00982169
0.0184789
0.0418234
0.100283
0.238536
0.55291
1.23562
2.14569
2.07279
-0.0441211
-1.65667
-1.11004
-0.555858
-0.277801
-0.136902
-0.0685939
-0.0353153
-0.0182953
-0.00986498
-0.0054235
-0.00300658
-0.00166443
-0.000912989
-0.000484074
-0.000252834
-0.000124875
-5.94793e-05
-2.69007e-05
-1.1128e-05
-3.22895e-06
-9.35139e-07
-3.41901e-07
-9.12664e-08
-8.58541e-09
2.6308e-19
3.299e-19
2.07127e-19
3.33485e-19
2.02355e-19
9.48085e-20
7.43396e-19
1.17478e-19
-1.76331e-20
3.45854e-19
2.55147e-19
3.04538e-19
1.38344e-19
4.61254e-19
4.30734e-19
1.68541e-19
1.81369e-19
7.58609e-19
1.94338e-18
1.89674e-18
1.25884e-18
2.96911e-18
1.5043e-18
1.6023e-18
1.3786e-18
4.49031e-19
2.40489e-18
3.35561e-18
3.59974e-18
2.10299e-17
6.98128e-17
2.40994e-16
7.7269e-16
2.50749e-15
8.05912e-15
2.56534e-14
7.88902e-14
2.37541e-13
7.30369e-13
2.17479e-12
6.22575e-12
1.74192e-11
4.67514e-11
1.2581e-10
3.20396e-10
8.13449e-10
1.88408e-09
4.0298e-09
7.1597e-09
1.15531e-08
1.87235e-08
3.17963e-08
5.87958e-08
1.10263e-07
1.8802e-07
3.3641e-07
7.23537e-07
1.98026e-06
6.53712e-06
2.41584e-05
9.34313e-05
0.00033278
0.0010295
0.00223221
0.00382033
0.00603439
0.00967801
0.0180696
0.0407022
0.0975291
0.232608
0.540073
1.21395
2.13801
2.12042
0.00668384
-1.66423
-1.12528
-0.563117
-0.281079
-0.138377
-0.0692922
-0.0356562
-0.0184681
-0.00994952
-0.00546434
-0.00302518
-0.00167173
-0.000914719
-0.000483744
-0.000251598
-0.000123875
-5.86909e-05
-2.64421e-05
-1.0732e-05
-3.06215e-06
-8.99924e-07
-3.30863e-07
-8.76573e-08
-8.27355e-09
3.28527e-20
5.35242e-20
3.71845e-20
4.41859e-19
3.57423e-19
3.92591e-19
4.75235e-19
8.04498e-19
4.01547e-19
-4.42107e-20
8.26586e-20
4.5236e-19
8.1972e-19
4.37211e-19
8.1859e-19
1.01698e-18
7.65602e-19
1.13142e-18
8.14818e-19
6.00982e-19
2.62879e-18
2.12031e-18
3.36423e-18
1.94442e-18
1.92901e-18
-9.6048e-19
2.0988e-18
3.14053e-18
9.02141e-18
2.68425e-17
8.51763e-17
2.9459e-16
9.53654e-16
3.10905e-15
9.83184e-15
3.08959e-14
9.46896e-14
2.80842e-13
8.61391e-13
2.64705e-12
7.39267e-12
2.0075e-11
5.40346e-11
1.43647e-10
3.6534e-10
9.02289e-10
2.11054e-09
4.17299e-09
7.37277e-09
1.22106e-08
1.9826e-08
3.41375e-08
6.26731e-08
1.16192e-07
1.9625e-07
3.47596e-07
7.40156e-07
2.0185e-06
6.60063e-06
2.42187e-05
9.31672e-05
0.000330531
0.00101944
0.00221136
0.00378629
0.00598382
0.00956653
0.017716
0.0396828
0.0952928
0.228106
0.529951
1.19749
2.13299
2.15247
0.0455498
-1.66936
-1.13773
-0.569166
-0.283955
-0.139698
-0.0699274
-0.0359661
-0.0186429
-0.0100421
-0.00551235
-0.00304904
-0.00168261
-0.000918793
-0.000485206
-0.000251546
-0.000123629
-5.83373e-05
-2.62072e-05
-1.04634e-05
-2.95509e-06
-8.78507e-07
-3.23823e-07
-8.55957e-08
-8.05444e-09
6.04995e-20
3.89931e-19
1.83235e-20
3.39215e-19
2.06703e-19
2.57763e-19
-9.78133e-20
-5.64561e-20
1.44202e-19
1.78921e-19
5.22056e-19
3.86814e-19
7.07355e-19
1.01528e-18
7.88987e-19
8.86845e-19
2.26492e-19
9.88867e-19
1.11259e-18
7.5565e-19
1.45279e-18
2.19181e-18
1.87054e-19
-9.07848e-20
2.58482e-18
3.27769e-18
1.70653e-18
3.80402e-18
8.27464e-18
3.68029e-17
1.1025e-16
3.53003e-16
1.15811e-15
3.73715e-15
1.16982e-14
3.68397e-14
1.15095e-13
3.40282e-13
1.04396e-12
3.04563e-12
8.53836e-12
2.3416e-11
6.23751e-11
1.59428e-10
4.05652e-10
9.95852e-10
2.23535e-09
4.22144e-09
7.71406e-09
1.28027e-08
2.06996e-08
3.57259e-08
6.54149e-08
1.20207e-07
2.01612e-07
3.55886e-07
7.53219e-07
2.04122e-06
6.63448e-06
2.4197e-05
9.26412e-05
0.000327628
0.00100855
0.00219079
0.00375327
0.00593644
0.00947281
0.0174311
0.0389072
0.0934102
0.224056
0.520804
1.1818
2.12594
2.18242
0.0856223
-1.67184
-1.15065
-0.575556
-0.287001
-0.141131
-0.0706201
-0.0363096
-0.0188327
-0.0101435
-0.00556626
-0.00307704
-0.00169642
-0.000924966
-0.000488023
-0.00025241
-0.000123924
-5.83081e-05
-2.61411e-05
-1.03044e-05
-2.89148e-06
-8.6693e-07
-3.20064e-07
-8.44715e-08
-7.9302e-09
6.50941e-20
4.69453e-20
3.22071e-19
5.75603e-19
3.4273e-19
3.63538e-19
3.77086e-19
5.01722e-19
2.62313e-19
3.8525e-19
-9.88598e-20
4.31155e-19
3.63441e-19
5.13964e-19
3.04894e-19
7.47051e-19
1.81326e-18
5.33333e-19
3.90079e-19
1.36683e-18
1.07552e-18
1.63412e-18
-2.9504e-19
-9.78055e-19
1.91522e-18
3.53805e-18
3.88229e-18
6.73097e-18
1.462e-17
3.89874e-17
1.33019e-16
4.37674e-16
1.415e-15
4.43581e-15
1.37762e-14
4.2712e-14
1.32217e-13
3.86101e-13
1.17901e-12
3.44712e-12
9.67839e-12
2.60373e-11
6.98063e-11
1.78248e-10
4.53528e-10
1.09131e-09
2.29959e-09
4.47215e-09
8.08756e-09
1.33267e-08
2.16978e-08
3.74853e-08
6.82807e-08
1.24174e-07
2.06522e-07
3.62301e-07
7.62672e-07
2.05384e-06
6.6291e-06
2.40356e-05
9.16465e-05
0.000323437
0.000995056
0.0021687
0.00371722
0.00587821
0.0093717
0.0171518
0.0381338
0.0915148
0.21989
0.511396
1.16458
2.11608
2.21253
0.132333
-1.67128
-1.16499
-0.582708
-0.290439
-0.142775
-0.0714202
-0.0367092
-0.0190464
-0.0102575
-0.00562744
-0.00310957
-0.00171323
-0.000933184
-0.000492064
-0.000254087
-0.000124666
-5.8542e-05
-2.62099e-05
-1.02418e-05
-2.86091e-06
-8.63194e-07
-3.18847e-07
-8.40711e-08
-7.87982e-09
1.00586e-19
9.58399e-20
2.8845e-19
9.49557e-19
8.45713e-19
4.46959e-19
2.3629e-19
6.05209e-20
2.91765e-19
3.13432e-19
-6.09808e-20
1.93502e-19
-9.80655e-20
1.7741e-20
2.96526e-19
1.59111e-19
1.55586e-19
1.10609e-18
1.74341e-18
9.7278e-19
3.09467e-19
4.57587e-19
5.11255e-19
2.23468e-19
3.86128e-19
1.04609e-18
1.32051e-18
6.02772e-18
1.30041e-17
4.33148e-17
1.52298e-16
5.1332e-16
1.63133e-15
5.19377e-15
1.6149e-14
4.95697e-14
1.50817e-13
4.35138e-13
1.32163e-12
3.85213e-12
1.06566e-11
2.91647e-11
7.71462e-11
1.99132e-10
4.75212e-10
1.06912e-09
2.3823e-09
4.7447e-09
8.44945e-09
1.3881e-08
2.25451e-08
3.89548e-08
7.06267e-08
1.27358e-07
2.10091e-07
3.66689e-07
7.67938e-07
2.05405e-06
6.58059e-06
2.37122e-05
8.99854e-05
0.000316565
0.000975405
0.00213516
0.00366994
0.00581632
0.00924262
0.0168262
0.0371808
0.0892727
0.214616
0.499466
1.14419
2.10322
2.24366
0.186447
-1.66755
-1.18127
-0.590979
-0.294449
-0.144714
-0.0723637
-0.0371808
-0.0192905
-0.0103868
-0.00569692
-0.00314694
-0.00173303
-0.000943348
-0.00049721
-0.000256476
-0.000125783
-5.89927e-05
-2.63879e-05
-1.02438e-05
-2.85561e-06
-8.65146e-07
-3.19666e-07
-8.42378e-08
-7.88709e-09
2.03411e-19
3.66717e-19
3.69901e-19
3.25502e-19
1.10857e-19
2.01929e-19
6.84301e-20
1.22504e-19
5.0578e-19
5.50346e-19
2.26761e-20
4.46495e-19
8.73653e-19
4.04432e-19
1.35924e-18
1.8074e-18
1.63013e-18
6.46703e-19
1.95898e-18
2.29361e-18
2.29194e-18
1.8327e-18
1.16005e-18
7.09448e-19
2.36626e-18
3.52337e-20
2.76251e-18
5.86722e-18
1.67007e-17
6.09171e-17
1.89379e-16
5.98367e-16
1.87655e-15
5.85258e-15
1.79845e-14
5.47008e-14
1.62944e-13
4.77117e-13
1.45529e-12
4.18541e-12
1.14851e-11
3.11563e-11
8.21678e-11
2.04194e-10
4.82041e-10
1.15724e-09
2.53003e-09
4.97765e-09
8.81467e-09
1.43633e-08
2.33341e-08
4.03584e-08
7.27709e-08
1.29477e-07
2.12518e-07
3.69857e-07
7.69952e-07
2.04548e-06
6.50912e-06
2.33336e-05
8.82376e-05
0.000309693
0.00095343
0.00210082
0.00361891
0.00574168
0.00911202
0.0164974
0.0362633
0.0869336
0.206362
0.488284
1.12273
2.08501
2.2737
0.252448
-1.66024
-1.20184
-0.601086
-0.299247
-0.147005
-0.0734636
-0.0377255
-0.019564
-0.0105293
-0.00577351
-0.00318837
-0.0017553
-0.000955102
-0.000503236
-0.000259428
-0.000127198
-5.96136e-05
-2.66515e-05
-1.03101e-05
-2.86971e-06
-8.7141e-07
-3.22062e-07
-8.48375e-08
-7.93827e-09
1.34501e-20
3.48226e-19
3.10183e-19
2.9866e-19
1.50103e-19
1.40977e-19
1.68009e-19
-1.26285e-19
3.69529e-19
1.25437e-19
1.1351e-19
1.49503e-19
1.36473e-19
8.68728e-19
3.9309e-19
6.03459e-19
9.24512e-19
5.24491e-19
1.11475e-18
2.6557e-18
2.37079e-18
1.80467e-18
5.0898e-19
1.24185e-18
2.92815e-18
3.5783e-18
6.09167e-18
8.09391e-18
2.4102e-17
7.25837e-17
2.21086e-16
6.80211e-16
2.08338e-15
6.55503e-15
1.98706e-14
5.9882e-14
1.79038e-13
5.1841e-13
1.59569e-12
4.49793e-12
1.22968e-11
3.28199e-11
8.44464e-11
2.09214e-10
5.21742e-10
1.23448e-09
2.67791e-09
5.23715e-09
9.16741e-09
1.48781e-08
2.4266e-08
4.22282e-08
7.66626e-08
1.30328e-07
2.14284e-07
3.71731e-07
7.68721e-07
2.02653e-06
6.39791e-06
2.27532e-05
8.57114e-05
0.000300729
0.0009318
0.00206653
0.00356922
0.00567038
0.00898236
0.0161533
0.0353738
0.0848011
0.201399
0.476692
1.09916
2.06516
2.30439
0.319455
-1.6493
-1.22162
-0.611155
-0.304145
-0.149386
-0.0746179
-0.0383016
-0.0198517
-0.0106813
-0.00585465
-0.00323228
-0.0017791
-0.000967943
-0.000509882
-0.000262789
-0.000128823
-6.03555e-05
-2.69771e-05
-1.04206e-05
-2.89781e-06
-8.80742e-07
-3.25597e-07
-8.57479e-08
-8.02102e-09
4.74243e-20
4.47836e-20
4.81797e-19
4.5968e-19
1.84827e-19
2.56831e-19
1.69056e-19
9.8459e-19
3.33965e-19
6.80318e-19
3.29236e-19
6.10689e-19
4.63691e-19
7.29079e-19
6.46687e-19
6.25285e-19
5.84159e-19
9.20436e-19
2.56016e-19
3.84947e-19
4.51567e-19
7.91342e-19
1.72073e-18
1.89205e-18
8.79819e-19
2.69903e-18
3.85167e-18
9.08627e-18
2.51012e-17
7.46549e-17
2.2856e-16
7.33125e-16
2.33391e-15
7.25746e-15
2.23856e-14
6.69834e-14
1.9601e-13
5.64931e-13
1.67342e-12
4.85494e-12
1.31147e-11
3.47413e-11
8.88882e-11
2.23996e-10
5.55625e-10
1.30451e-09
2.80772e-09
5.44948e-09
9.47003e-09
1.53155e-08
2.50105e-08
4.35909e-08
7.89075e-08
1.30447e-07
2.15735e-07
3.72888e-07
7.65552e-07
2.00461e-06
6.28455e-06
2.2274e-05
8.35487e-05
0.000292729
0.000907442
0.00203122
0.00351979
0.00560074
0.0088595
0.015828
0.0344893
0.082803
0.195933
0.464259
1.0755
2.04452
2.33131
0.38634
-1.63576
-1.24206
-0.621633
-0.309249
-0.151853
-0.0758082
-0.0388951
-0.0201465
-0.0108369
-0.00593951
-0.00327903
-0.0018048
-0.000981796
-0.000517034
-0.000266483
-0.000130639
-6.12081e-05
-2.7355e-05
-1.05652e-05
-2.93594e-06
-8.92141e-07
-3.29882e-07
-8.68618e-08
-8.12475e-09
8.03824e-20
-4.49121e-20
5.99435e-19
3.55416e-19
5.40274e-19
3.89628e-19
5.41608e-19
4.95683e-19
4.05304e-19
9.28234e-19
4.73085e-19
-1.97937e-19
4.49282e-19
4.05132e-19
1.77247e-19
1.24448e-18
9.54299e-19
4.48963e-19
8.12443e-19
9.53317e-19
2.69703e-18
1.573e-18
1.418e-18
1.2658e-18
2.74061e-18
4.64519e-18
5.24712e-18
1.18238e-17
2.58879e-17
8.19545e-17
2.53454e-16
8.09862e-16
2.52676e-15
7.90047e-15
2.39403e-14
7.11286e-14
2.0687e-13
5.96537e-13
1.76547e-12
5.15549e-12
1.39868e-11
3.72271e-11
9.48184e-11
2.40199e-10
5.83682e-10
1.36461e-09
2.92233e-09
5.61362e-09
9.68239e-09
1.56e-08
2.54468e-08
4.42579e-08
7.9701e-08
1.30673e-07
2.17481e-07
3.7364e-07
7.61105e-07
1.97718e-06
6.1613e-06
2.17357e-05
8.14796e-05
0.000284961
0.000885094
0.00199584
0.00346922
0.00552882
0.00873485
0.0155046
0.0335817
0.0806124
0.190984
0.453181
1.05273
2.0212
2.35463
0.457895
-1.61912
-1.26397
-0.63268
-0.314593
-0.154486
-0.0770896
-0.0395343
-0.0204563
-0.0109985
-0.00602639
-0.00332653
-0.00183093
-0.000996206
-0.000524553
-0.000270373
-0.000132518
-6.20905e-05
-2.77494e-05
-1.07271e-05
-2.98093e-06
-9.05242e-07
-3.34854e-07
-8.81664e-08
-8.24737e-09
-3.57182e-20
4.15005e-19
1.1753e-19
3.82135e-19
3.34513e-19
7.85843e-20
7.80753e-19
3.86503e-19
3.50693e-19
5.45648e-19
3.76207e-19
6.09986e-19
8.60906e-19
1.21171e-18
2.08065e-18
2.32133e-18
1.58927e-18
9.85021e-19
1.86214e-18
4.81986e-19
4.2381e-18
2.24614e-18
6.76884e-19
1.17858e-20
4.7591e-19
6.95153e-19
4.75623e-18
1.19264e-17
2.5443e-17
8.44361e-17
2.73531e-16
8.62514e-16
2.69578e-15
8.29369e-15
2.51737e-14
7.47167e-14
2.19408e-13
6.23781e-13
1.87922e-12
5.43163e-12
1.45622e-11
3.83835e-11
9.96729e-11
2.51988e-10
6.08737e-10
1.4153e-09
3.00314e-09
5.72824e-09
9.8297e-09
1.57984e-08
2.57494e-08
4.4754e-08
8.02316e-08
1.30863e-07
2.1876e-07
3.73988e-07
7.56511e-07
1.95278e-06
6.0495e-06
2.12096e-05
7.92041e-05
0.000276985
0.000864441
0.00196298
0.00342315
0.00546322
0.00862031
0.0152332
0.0327879
0.0786117
0.186449
0.442268
1.031
1.99903
2.37448
0.525968
-1.60075
-1.28508
-0.643696
-0.320004
-0.157116
-0.0783578
-0.040164
-0.0207639
-0.0111581
-0.00611184
-0.00337311
-0.0018565
-0.00101024
-0.000531861
-0.00027421
-0.000134406
-6.29961e-05
-2.81595e-05
-1.0908e-05
-3.02938e-06
-9.18763e-07
-3.39933e-07
-8.94975e-08
-8.37333e-09
2.17583e-19
1.40002e-19
-6.19104e-20
4.81963e-19
2.74195e-19
1.03086e-19
1.92269e-19
-1.17098e-19
5.33418e-20
8.95834e-19
8.19776e-19
1.23582e-18
1.46921e-18
1.41204e-18
9.43195e-19
1.18897e-18
1.23894e-18
1.90243e-18
1.72338e-18
1.34941e-18
2.95312e-20
-1.30793e-19
3.76626e-19
-2.734e-19
-8.67681e-19
1.10613e-19
2.37935e-18
7.3337e-18
2.82646e-17
8.93019e-17
2.79431e-16
9.04607e-16
2.82023e-15
8.68122e-15
2.58927e-14
7.62396e-14
2.29893e-13
6.51177e-13
1.94801e-12
5.48001e-12
1.54838e-11
4.05617e-11
1.04617e-10
2.58367e-10
6.27273e-10
1.45067e-09
3.06251e-09
5.81363e-09
9.94093e-09
1.59546e-08
2.60064e-08
4.51119e-08
8.06068e-08
1.30994e-07
2.19532e-07
3.73707e-07
7.50702e-07
1.92649e-06
5.93238e-06
2.0736e-05
7.72058e-05
0.000269748
0.00084415
0.00193284
0.00338075
0.00540311
0.00851706
0.0149731
0.032003
0.0768216
0.182412
0.432809
1.01127
1.97759
2.39161
0.589154
-1.58154
-1.30489
-0.653991
-0.32502
-0.159557
-0.0795323
-0.0407457
-0.0210455
-0.0113043
-0.00619021
-0.00341588
-0.00188002
-0.00102318
-0.000538597
-0.000277742
-0.000136134
-6.38255e-05
-2.85344e-05
-1.10685e-05
-3.07515e-06
-9.31397e-07
-3.44694e-07
-9.07512e-08
-8.49261e-09
1.02512e-20
3.25305e-19
3.532e-19
6.25419e-19
5.04717e-19
4.03844e-19
2.72808e-19
1.25941e-19
6.85087e-19
1.86011e-19
9.08721e-20
8.93041e-19
2.88405e-19
5.5758e-19
7.86992e-19
-1.6126e-19
1.8193e-19
1.79387e-18
-2.33928e-19
3.07219e-19
-4.68633e-20
6.2599e-19
6.80555e-20
3.8052e-19
2.38787e-18
1.14517e-18
1.99106e-18
6.66999e-18
2.67181e-17
9.05988e-17
2.89135e-16
9.32685e-16
2.93697e-15
9.03202e-15
2.73558e-14
8.18469e-14
2.38875e-13
7.04579e-13
2.05907e-12
5.88401e-12
1.59285e-11
4.15948e-11
1.07236e-10
2.63101e-10
6.41189e-10
1.47808e-09
3.10715e-09
5.8763e-09
1.00201e-08
1.60594e-08
2.61731e-08
4.53621e-08
8.08896e-08
1.31073e-07
2.20016e-07
3.73222e-07
7.45321e-07
1.90125e-06
5.82878e-06
2.0299e-05
7.54852e-05
0.000263732
0.000827585
0.0019079
0.00334495
0.00535222
0.00843163
0.0147657
0.0314239
0.0752774
0.178974
0.424876
0.994344
1.95914
2.40495
0.642933
-1.56389
-1.32172
-0.662844
-0.329342
-0.161664
-0.0805392
-0.0412463
-0.0212878
-0.0114302
-0.00625772
-0.00345277
-0.00190034
-0.00103439
-0.000544449
-0.00028085
-0.000137654
-6.4559e-05
-2.88676e-05
-1.12152e-05
-3.11666e-06
-9.42655e-07
-3.48912e-07
-9.18607e-08
-8.59834e-09
1.24461e-19
2.54241e-19
4.12463e-19
1.82261e-19
3.90633e-19
5.78986e-19
5.8287e-19
6.62236e-19
7.51091e-19
3.82733e-19
4.61731e-19
3.66144e-19
4.36663e-19
4.61205e-19
8.20206e-19
6.64517e-19
5.29099e-19
5.01632e-19
8.49218e-19
1.15895e-18
1.5127e-18
-3.98393e-21
2.17215e-18
5.77315e-19
8.61563e-19
3.82734e-18
4.89529e-18
1.00861e-17
3.1183e-17
9.92667e-17
3.07999e-16
9.86925e-16
3.0566e-15
9.40405e-15
2.84507e-14
8.5456e-14
2.51504e-13
7.25411e-13
2.10385e-12
5.89945e-12
1.60867e-11
4.22628e-11
1.05998e-10
2.67118e-10
6.53196e-10
1.49879e-09
3.1406e-09
5.92325e-09
1.00799e-08
1.61406e-08
2.63018e-08
4.55498e-08
8.10863e-08
1.31125e-07
2.2029e-07
3.72694e-07
7.40805e-07
1.88268e-06
5.75265e-06
1.99817e-05
7.41942e-05
0.000258911
0.000813764
0.00188566
0.00331474
0.00530957
0.00835954
0.0145897
0.0309217
0.0740623
0.176271
0.418614
0.981421
1.94433
2.41438
0.685118
-1.54895
-1.33503
-0.669911
-0.3328
-0.163355
-0.0813574
-0.0416504
-0.0214827
-0.0115312
-0.00631182
-0.00348231
-0.00191663
-0.00104338
-0.000549142
-0.000283336
-0.000138865
-6.51407e-05
-2.91307e-05
-1.13393e-05
-3.15048e-06
-9.51793e-07
-3.52337e-07
-9.27628e-08
-8.68447e-09
1.70188e-19
4.20526e-19
8.17705e-19
8.52152e-19
5.1045e-19
3.56646e-19
2.42718e-19
9.40049e-19
1.96062e-19
-3.98176e-21
3.48901e-20
2.17212e-19
4.20075e-19
2.37214e-19
7.1377e-19
7.22215e-19
8.10772e-19
9.48093e-20
1.22082e-18
8.09932e-19
1.61951e-18
6.70825e-19
4.55373e-19
1.31314e-18
3.24623e-18
2.69281e-18
5.19651e-18
9.5663e-18
3.057e-17
1.03534e-16
3.17744e-16
9.82022e-16
3.11772e-15
9.48426e-15
2.8966e-14
8.68139e-14
2.53793e-13
7.21055e-13
2.08815e-12
6.03189e-12
1.60028e-11
4.20386e-11
1.06974e-10
2.69724e-10
6.61601e-10
1.51347e-09
3.16407e-09
5.95606e-09
1.0122e-08
1.62005e-08
2.63935e-08
4.56905e-08
8.12292e-08
1.3117e-07
2.20463e-07
3.72314e-07
7.37721e-07
1.86948e-06
5.6982e-06
1.9756e-05
7.32834e-05
0.000255639
0.000804476
0.00187096
0.00329434
0.00528017
0.00830996
0.0144705
0.0305826
0.0732392
0.174477
0.414433
0.972183
1.93384
2.42066
0.714783
-1.53791
-1.34441
-0.674921
-0.335252
-0.164553
-0.0819326
-0.0419349
-0.02162
-0.0116023
-0.00634997
-0.00350316
-0.00192812
-0.00104974
-0.000552462
-0.000285099
-0.000139727
-6.55578e-05
-2.93208e-05
-1.14252e-05
-3.1748e-06
-9.58324e-07
-3.5478e-07
-9.34062e-08
-8.74595e-09
6.00103e-20
1.19795e-19
1.91965e-19
4.69023e-19
2.78869e-19
4.32261e-19
1.36048e-19
1.10818e-19
4.85677e-19
2.15675e-19
2.9887e-19
4.55844e-19
4.79233e-19
3.89818e-19
7.19088e-19
4.80455e-19
1.78539e-19
9.05854e-19
9.01154e-19
1.89791e-18
7.68199e-19
1.51872e-18
1.54247e-18
2.21304e-18
3.85674e-18
3.0118e-18
2.63573e-18
1.27952e-17
3.1255e-17
9.70479e-17
3.18519e-16
1.02326e-15
3.17038e-15
9.667e-15
2.96431e-14
8.74385e-14
2.59086e-13
7.32256e-13
2.18768e-12
6.14981e-12
1.64248e-11
4.26601e-11
1.07503e-10
2.73602e-10
6.655e-10
1.52223e-09
3.17932e-09
5.9777e-09
1.01495e-08
1.62381e-08
2.64518e-08
4.57767e-08
8.1328e-08
1.31221e-07
2.20611e-07
3.72196e-07
7.36275e-07
1.86303e-06
5.67073e-06
1.96395e-05
7.2805e-05
0.000253949
0.000799709
0.00186333
0.00328356
0.00526467
0.00828373
0.0144068
0.0304026
0.0727945
0.17345
0.412117
0.967361
1.92822
2.42378
0.730484
-1.53181
-1.34937
-0.677588
-0.33656
-0.165195
-0.0822421
-0.0420887
-0.0216942
-0.0116409
-0.00637061
-0.00351444
-0.00193435
-0.00105318
-0.000554261
-0.000286054
-0.000140194
-6.57842e-05
-2.94231e-05
-1.14694e-05
-3.1877e-06
-9.61808e-07
-3.56089e-07
-9.3752e-08
-8.77908e-09
1.81229e-20
4.26488e-19
4.36254e-19
5.38063e-19
4.15349e-19
3.75435e-19
2.972e-19
7.9414e-19
5.01671e-19
2.10378e-20
7.08324e-19
4.83429e-19
8.42006e-19
4.19226e-20
2.58021e-19
3.21363e-19
-1.71198e-23
1.03376e-18
5.10976e-19
1.76526e-18
2.11746e-18
1.08125e-18
1.77037e-18
1.18978e-18
1.88029e-18
6.28192e-20
1.02037e-18
6.88808e-18
3.46801e-17
1.04299e-16
3.33395e-16
1.05253e-15
3.23317e-15
1.0097e-14
3.04709e-14
8.95287e-14
2.64438e-13
7.46477e-13
2.19427e-12
6.07638e-12
1.66098e-11
4.3126e-11
1.09299e-10
2.74345e-10
6.68047e-10
1.52757e-09
3.18831e-09
5.99058e-09
1.01663e-08
1.62618e-08
2.6491e-08
4.58384e-08
8.14071e-08
1.31291e-07
2.20797e-07
3.7236e-07
7.36223e-07
1.86207e-06
5.6657e-06
1.96166e-05
7.27076e-05
0.000253588
0.00079868
0.0018617
0.0032813
0.00526148
0.00827854
0.0143949
0.0303695
0.0727165
0.173281
0.411734
0.966564
1.9273
2.42425
0.73295
-1.53089
-1.35013
-0.677994
-0.336759
-0.165292
-0.0822886
-0.0421116
-0.0217053
-0.0116466
-0.00637369
-0.00351613
-0.00193527
-0.00105369
-0.000554526
-0.000286194
-0.000140261
-6.58169e-05
-2.94384e-05
-1.14783e-05
-3.18976e-06
-9.62323e-07
-3.56268e-07
-9.37971e-08
-8.78327e-09
-8.58603e-23
2.07512e-19
5.57904e-19
5.61248e-19
3.60214e-19
3.46623e-19
4.50233e-19
9.55465e-19
1.06035e-18
9.75483e-19
3.07462e-19
9.96172e-19
1.02887e-19
2.12918e-20
7.80641e-19
5.41514e-19
8.13365e-19
3.01073e-19
3.91302e-19
1.98938e-19
1.63585e-18
1.08905e-18
7.19257e-19
1.72295e-18
1.65453e-18
-2.34111e-19
4.18608e-18
1.05385e-17
3.42789e-17
1.05476e-16
3.35286e-16
1.04427e-15
3.23478e-15
9.76935e-15
2.9491e-14
8.70625e-14
2.58506e-13
7.47984e-13
2.20099e-12
6.20005e-12
1.66415e-11
4.30741e-11
1.10242e-10
2.752e-10
6.67726e-10
1.52998e-09
3.19204e-09
5.99612e-09
1.01741e-08
1.62734e-08
2.65116e-08
4.58771e-08
8.14758e-08
1.31402e-07
2.21066e-07
3.72953e-07
7.38146e-07
1.86861e-06
5.68998e-06
1.97122e-05
7.30824e-05
0.000254893
0.000802283
0.00186729
0.00328905
0.00527254
0.0082972
0.0144401
0.0304976
0.0730314
0.174015
0.413377
0.970108
1.93135
2.42185
0.721449
-1.53527
-1.34647
-0.676025
-0.335796
-0.164821
-0.0820617
-0.0419991
-0.0216512
-0.0116186
-0.00635867
-0.00350791
-0.00193074
-0.00105118
-0.000553211
-0.000285492
-0.000139919
-6.565e-05
-2.93615e-05
-1.14406e-05
-3.17938e-06
-9.59587e-07
-3.55247e-07
-9.35277e-08
-8.75746e-09
9.39797e-20
-1.1172e-19
9.0212e-20
1.88993e-19
3.99715e-19
5.89496e-19
-3.84014e-20
4.06156e-19
2.26222e-19
1.80453e-19
1.41087e-19
2.56047e-19
-5.57825e-20
8.21767e-19
8.02305e-19
1.10726e-18
2.00916e-18
1.70922e-19
6.48677e-19
3.8679e-19
1.1329e-18
1.78599e-18
8.5082e-19
3.16592e-18
2.64038e-18
1.93006e-18
2.6881e-18
9.8285e-18
3.33062e-17
1.08365e-16
3.30627e-16
1.01673e-15
3.24148e-15
9.74287e-15
2.88356e-14
8.44943e-14
2.54408e-13
7.12125e-13
2.13686e-12
6.17209e-12
1.6366e-11
4.30121e-11
1.08394e-10
2.7532e-10
6.67582e-10
1.52806e-09
3.18924e-09
5.99301e-09
1.01713e-08
1.62711e-08
2.65111e-08
4.58881e-08
8.15273e-08
1.31547e-07
2.21422e-07
3.73979e-07
7.42027e-07
1.88249e-06
5.74253e-06
1.9921e-05
7.39104e-05
0.000257798
0.000810309
0.00187976
0.00330626
0.00529698
0.0083383
0.01454
0.0307802
0.0737247
0.175557
0.416886
0.977723
1.94014
2.41654
0.696402
-1.5447
-1.33854
-0.671776
-0.333719
-0.163803
-0.0815708
-0.0417557
-0.0215341
-0.0115579
-0.00632614
-0.00349013
-0.00192092
-0.00104573
-0.00055037
-0.000283979
-0.000139178
-6.52899e-05
-2.91977e-05
-1.13621e-05
-3.15805e-06
-9.53866e-07
-3.53093e-07
-9.2958e-08
-8.70284e-09
1.8648e-19
1.49195e-19
9.13044e-20
3.70344e-19
3.47268e-19
1.97899e-19
2.18154e-19
2.44405e-19
2.55236e-19
6.85539e-19
2.81986e-19
1.63017e-19
2.23891e-19
2.21592e-19
4.10145e-19
9.45665e-19
1.53602e-18
1.94631e-18
1.47296e-18
1.75129e-18
9.81643e-19
7.24535e-19
1.16764e-18
1.99597e-18
2.62268e-18
4.09999e-18
3.41439e-18
7.92415e-18
3.54946e-17
1.06278e-16
3.29797e-16
1.00623e-15
3.16001e-15
9.56967e-15
2.88649e-14
8.61026e-14
2.52872e-13
7.15177e-13
2.12925e-12
6.1433e-12
1.63687e-11
4.22651e-11
1.0788e-10
2.7543e-10
6.64521e-10
1.52207e-09
3.18055e-09
5.98223e-09
1.01595e-08
1.62569e-08
2.64939e-08
4.58802e-08
8.15776e-08
1.3175e-07
2.21906e-07
3.75529e-07
7.48179e-07
1.90491e-06
5.82837e-06
2.02635e-05
7.52615e-05
0.000262525
0.000823254
0.00189947
0.00333327
0.00533514
0.00840275
0.0146971
0.0312253
0.0748139
0.177977
0.422581
0.989569
1.95338
2.40785
0.65822
-1.55844
-1.32655
-0.665397
-0.330602
-0.162279
-0.0808381
-0.0413934
-0.0213595
-0.0114673
-0.00627758
-0.00346357
-0.00190625
-0.00103761
-0.000546125
-0.000281721
-0.000138077
-6.47561e-05
-2.89548e-05
-1.1251e-05
-3.12635e-06
-9.45364e-07
-3.49895e-07
-9.21125e-08
-8.62184e-09
2.42439e-19
1.96648e-19
4.66557e-19
7.10672e-19
5.18453e-19
1.10682e-19
2.29994e-19
7.14958e-19
1.86206e-19
6.3051e-20
4.15596e-19
5.67326e-19
1.13511e-18
1.21819e-18
6.21528e-19
6.86441e-19
1.00531e-18
1.4696e-18
6.19225e-19
7.68763e-19
1.0098e-18
-3.05458e-19
-5.68305e-20
1.27818e-18
1.89126e-18
3.43954e-18
5.8229e-18
8.0237e-18
2.97007e-17
1.00924e-16
3.1761e-16
1.0077e-15
3.10976e-15
9.54658e-15
2.89414e-14
8.58294e-14
2.53563e-13
7.19872e-13
2.06395e-12
5.86728e-12
1.62209e-11
4.20213e-11
1.06007e-10
2.71821e-10
6.60296e-10
1.51297e-09
3.16553e-09
5.96183e-09
1.01351e-08
1.62261e-08
2.64518e-08
4.58399e-08
8.16074e-08
1.31991e-07
2.22467e-07
3.77481e-07
7.56228e-07
1.93477e-06
5.94396e-06
2.07285e-05
7.71109e-05
0.000269043
0.000841213
0.00192579
0.00336869
0.00538471
0.00848678
0.0149045
0.0318111
0.0762596
0.181145
0.42995
1.00488
1.97041
2.39602
0.608762
-1.57527
-1.31102
-0.657197
-0.326591
-0.16031
-0.0798908
-0.0409239
-0.0211332
-0.0113496
-0.00621452
-0.00342912
-0.00188725
-0.0010271
-0.000540636
-0.000278806
-0.000136652
-6.40679e-05
-2.86419e-05
-1.11082e-05
-3.08604e-06
-9.34522e-07
-3.45811e-07
-9.10332e-08
-8.51847e-09
8.39708e-20
7.75402e-20
3.68792e-19
2.39712e-19
1.39267e-19
1.56147e-19
8.99813e-19
2.58147e-19
1.26457e-19
1.87345e-19
4.31997e-19
5.57081e-19
9.87208e-19
5.09782e-19
-6.44428e-20
5.80782e-19
1.13965e-18
4.41644e-19
6.40251e-19
2.44936e-19
-5.08405e-20
2.02957e-18
4.77813e-19
2.37777e-18
3.2098e-18
3.95846e-18
4.38369e-18
1.12774e-17
3.108e-17
9.94532e-17
3.02262e-16
9.59116e-16
2.99971e-15
9.24207e-15
2.71823e-14
8.3256e-14
2.43843e-13
7.06994e-13
2.04748e-12
5.87819e-12
1.57618e-11
4.21006e-11
1.06255e-10
2.68311e-10
6.50622e-10
1.49773e-09
3.14242e-09
5.93056e-09
1.00975e-08
1.61764e-08
2.63801e-08
4.5758e-08
8.15991e-08
1.3225e-07
2.22969e-07
3.79748e-07
7.65828e-07
1.97048e-06
6.08208e-06
2.12807e-05
7.92828e-05
0.00027656
0.00086117
0.00195569
0.00340976
0.00544154
0.00858225
0.0151364
0.0325079
0.0779293
0.184921
0.438653
1.02331
1.99046
2.38076
0.549563
-1.59387
-1.2925
-0.647516
-0.32187
-0.158018
-0.0787875
-0.0403754
-0.0208682
-0.0112122
-0.00614071
-0.00338872
-0.00186494
-0.00101475
-0.000534185
-0.000275382
-0.000134974
-6.32551e-05
-2.82716e-05
-1.094e-05
-3.03862e-06
-9.21759e-07
-3.41015e-07
-8.9769e-08
-8.39765e-09
7.19667e-20
2.21238e-19
6.26053e-20
2.16442e-19
1.35728e-19
2.89041e-20
4.07883e-19
2.26324e-19
1.74312e-19
4.30841e-19
2.05724e-19
1.06053e-21
3.91316e-19
5.96897e-20
3.44624e-19
7.22192e-19
6.14605e-19
1.55967e-18
3.70208e-19
1.14589e-18
1.23133e-18
1.57907e-18
4.23564e-19
3.09883e-18
1.59608e-18
3.73618e-18
4.7341e-18
1.22526e-17
3.54022e-17
9.67918e-17
3.03421e-16
9.36761e-16
2.90145e-15
9.01565e-15
2.76758e-14
8.34906e-14
2.44884e-13
6.99201e-13