/*--------------------------------*- C++ -*----------------------------------*\
  =========                 |
  \\      /  F ield         | OpenFOAM: The Open Source CFD Toolbox
   \\    /   O peration     | Website:  https://openfoam.org
    \\  /    A nd           | Version:  10
     \\/     M anipulation  |
\*---------------------------------------------------------------------------*/
FoamFile
{
    format      ascii;
    class       volScalarField;
    location    "1";
    object      RR.CH2;
}
// * * * * * * * * * * * * * * * * * * * * * * * * * * * * * * * * * * * * * //

dimensions      [1 -3 -1 0 0 0 0];

internalField   nonuniform List<scalar> 
4000
(
-1.55953e-41
-4.06744e-40
7.49495e-41
-4.10096e-40
5.36729e-40
-3.30107e-40
-4.1893e-40
1.07234e-39
-4.51778e-40
-8.90154e-40
-5.15288e-40
-5.80598e-39
4.45591e-39
-5.13795e-39
-7.57944e-39
1.08589e-37
2.37236e-37
1.91452e-37
-2.02793e-36
-1.50154e-36
7.31777e-36
1.41799e-37
-1.97115e-34
-2.36797e-34
8.99968e-34
-3.14029e-33
-4.82826e-32
7.06902e-32
-5.69092e-31
4.10526e-31
4.69625e-31
4.06889e-30
-1.70568e-28
1.68311e-28
-1.81019e-29
-2.28876e-26
-1.28362e-26
-5.74524e-26
-2.75698e-25
-5.75856e-25
-4.97266e-24
-3.65581e-23
-2.42355e-22
-1.55237e-21
-9.68654e-21
-6.44197e-20
-4.46406e-19
-2.99132e-18
-1.88639e-17
-1.09649e-16
-5.83542e-16
-2.90429e-15
-1.17463e-14
-5.0004e-14
-1.93297e-13
-6.76925e-13
-2.17261e-12
-6.57065e-12
-1.79318e-11
-4.35748e-11
-9.2284e-11
-1.57154e-10
-1.98033e-10
-4.74481e-10
-1.97612e-09
-7.78084e-09
-2.84724e-08
-9.22422e-08
-2.67985e-07
-7.12623e-07
-1.73347e-06
-3.85244e-06
-7.94491e-06
-1.57877e-05
-3.14382e-05
-6.59645e-05
-0.000122283
-0.000208339
-0.000316193
-0.000420813
-0.000358739
0.000341101
0.000932898
0.00122165
0.000700223
-0.00067066
-0.00036959
-0.000203824
-0.000111519
-6.00149e-05
-3.16117e-05
-1.58453e-05
-7.40312e-06
-2.85479e-06
-1.36786e-06
-6.91198e-07
-2.82352e-07
-9.58232e-08
-2.81511e-08
-5.25955e-09
7.71088e-41
3.35758e-40
-2.74729e-39
1.35544e-39
-4.84087e-39
4.5435e-40
2.58922e-39
-1.54541e-39
-6.09878e-39
6.93225e-39
-2.44906e-39
-1.52777e-38
6.85463e-39
-1.69127e-38
4.87641e-39
-4.04984e-38
2.89318e-38
4.5169e-37
2.4008e-36
1.07073e-35
8.45463e-36
-1.51394e-35
1.11639e-34
-1.29871e-33
2.61745e-33
1.52625e-32
-4.42815e-32
1.39577e-32
1.50281e-31
-1.318e-30
-7.33364e-31
-1.10723e-29
5.80027e-29
9.07159e-28
2.7448e-28
8.1442e-27
4.62267e-26
-7.72458e-26
-1.90967e-25
-1.24065e-24
-9.48816e-24
-5.96224e-23
-3.99665e-22
-2.55201e-21
-1.72351e-20
-1.16587e-19
-7.85594e-19
-5.01511e-18
-3.01824e-17
-1.69361e-16
-7.66005e-16
-3.12815e-15
-1.39952e-14
-5.74469e-14
-2.20332e-13
-7.37128e-13
-2.24666e-12
-6.66135e-12
-1.78954e-11
-4.31218e-11
-9.09219e-11
-1.54313e-10
-1.93586e-10
-4.46131e-10
-1.83908e-09
-7.22695e-09
-2.65981e-08
-8.72803e-08
-2.55942e-07
-6.87376e-07
-1.6957e-06
-3.80329e-06
-7.89268e-06
-1.57532e-05
-3.14009e-05
-6.60148e-05
-0.000122765
-0.000209505
-0.000317784
-0.00042093
-0.000347438
0.000382125
0.000957846
0.0012703
0.000491258
-0.000633188
-0.000349109
-0.000192626
-0.000105121
-5.64638e-05
-2.96678e-05
-1.48323e-05
-6.82376e-06
-2.6111e-06
-1.2833e-06
-6.44615e-07
-2.59761e-07
-8.75212e-08
-2.5596e-08
-4.7619e-09
1.53381e-39
-6.20869e-40
-8.55557e-40
1.08418e-38
2.40199e-38
-5.82648e-39
-1.10693e-38
-1.33084e-38
-6.27213e-39
-7.26021e-39
8.83492e-39
-4.79131e-39
-1.59643e-39
1.35633e-38
2.38753e-40
7.72782e-38
1.37539e-38
5.51041e-38
-2.3354e-36
-1.40456e-35
3.26937e-35
-3.45111e-35
-5.02419e-34
9.88012e-35
6.27292e-33
-1.27524e-32
1.27469e-32
-1.1821e-31
-7.14217e-31
-7.7992e-31
-9.48152e-30
5.44891e-29
1.60996e-28
-9.74239e-28
6.1328e-28
-1.11383e-26
-3.27431e-27
-3.01325e-26
1.5782e-25
-1.41995e-24
-1.22629e-23
-8.21369e-23
-6.05214e-22
-3.73789e-21
-2.56867e-20
-1.67932e-19
-1.12701e-18
-7.02113e-18
-3.96196e-17
-2.14807e-16
-9.51867e-16
-3.92039e-15
-1.7249e-14
-6.65196e-14
-2.2665e-13
-7.41791e-13
-2.28958e-12
-6.73926e-12
-1.79465e-11
-4.28812e-11
-8.98534e-11
-1.51911e-10
-1.89593e-10
-4.22489e-10
-1.72555e-09
-6.76751e-09
-2.50307e-08
-8.30235e-08
-2.46802e-07
-6.69004e-07
-1.66612e-06
-3.76551e-06
-7.86311e-06
-1.57607e-05
-3.14597e-05
-6.62879e-05
-0.000123677
-0.000211343
-0.000320174
-0.000420993
-0.000329661
0.000440343
0.000991728
0.00134299
0.000150491
-0.000575321
-0.000317665
-0.000175121
-9.57213e-05
-5.12467e-05
-2.6843e-05
-1.338e-05
-6.02712e-06
-2.29456e-06
-1.16929e-06
-5.84343e-07
-2.33028e-07
-7.78899e-08
-2.26839e-08
-4.20616e-09
8.21197e-40
-1.43009e-39
9.93668e-40
3.50316e-39
-2.69579e-40
3.48596e-39
4.54927e-39
-4.52589e-39
5.46015e-39
-1.15858e-38
-1.1217e-38
9.82628e-39
-2.40821e-38
-3.34199e-39
3.46027e-38
-3.88633e-38
2.00119e-37
-1.78595e-36
-1.87285e-38
-5.88693e-36
4.47065e-35
8.17637e-35
1.08611e-33
-3.70753e-33
1.85045e-33
2.24236e-33
4.71853e-32
-2.62331e-31
7.56984e-31
6.00815e-31
-1.23635e-29
2.60413e-29
9.824e-29
3.52926e-29
3.17004e-27
1.34858e-28
-1.01545e-25
-5.52982e-26
-3.96459e-25
-3.1914e-24
-1.91696e-23
-1.2681e-22
-8.79225e-22
-5.45215e-21
-3.41282e-20
-2.33205e-19
-1.51238e-18
-9.00027e-18
-5.16489e-17
-2.3701e-16
-1.04634e-15
-4.97623e-15
-2.07287e-14
-7.6077e-14
-2.52561e-13
-7.65925e-13
-2.34953e-12
-6.8054e-12
-1.79304e-11
-4.25589e-11
-8.88595e-11
-1.49994e-10
-1.87128e-10
-4.06287e-10
-1.64543e-09
-6.43586e-09
-2.39112e-08
-7.99897e-08
-2.39759e-07
-6.55077e-07
-1.64476e-06
-3.74602e-06
-7.86028e-06
-1.57917e-05
-3.15176e-05
-6.70889e-05
-0.000125122
-0.000213848
-0.000323284
-0.000421374
-0.000311458
0.000494016
0.00102145
0.00142171
-0.000213888
-0.00051662
-0.000286336
-0.000158433
-8.68291e-05
-4.60508e-05
-2.41158e-05
-1.20359e-05
-5.28993e-06
-2.01488e-06
-1.06087e-06
-5.28104e-07
-2.08625e-07
-6.92943e-08
-2.00888e-08
-3.71386e-09
-1.88046e-41
2.76173e-40
4.58381e-40
-4.43408e-40
-3.68312e-40
-8.10389e-41
8.68684e-39
-3.18004e-39
-1.37983e-38
9.78961e-40
1.01871e-38
-1.37404e-40
-1.13997e-38
-9.91278e-39
9.05882e-38
-2.51202e-37
-1.81609e-37
-1.30359e-38
9.2366e-36
1.19131e-35
-1.35166e-37
1.07253e-34
-1.14858e-33
6.26341e-33
9.52484e-33
-1.42887e-35
-9.73834e-32
5.91254e-31
-1.07341e-30
9.38321e-31
-3.62583e-30
8.05535e-29
5.06906e-28
3.86059e-28
-9.47942e-27
-6.61229e-26
-6.197e-25
-1.24829e-25
-2.65929e-25
-3.71358e-24
-2.78848e-23
-1.83582e-22
-1.13891e-21
-7.42995e-21
-4.58156e-20
-3.03578e-19
-1.87928e-18
-1.14234e-17
-5.44219e-17
-2.48633e-16
-1.25816e-15
-5.92656e-15
-2.51728e-14
-8.90487e-14
-2.64109e-13
-7.97107e-13
-2.39641e-12
-6.85252e-12
-1.79443e-11
-4.23833e-11
-8.81562e-11
-1.4854e-10
-1.85189e-10
-3.94909e-10
-1.58787e-09
-6.20471e-09
-2.32077e-08
-7.80904e-08
-2.356e-07
-6.47427e-07
-1.63643e-06
-3.7483e-06
-7.89949e-06
-1.5921e-05
-3.18025e-05
-6.77371e-05
-0.00012657
-0.000216456
-0.00032667
-0.000422662
-0.000294985
0.00054573
0.00104365
0.00147515
-0.00043869
-0.000476093
-0.000264027
-0.000146117
-8.00614e-05
-4.2427e-05
-2.21843e-05
-1.10518e-05
-4.74033e-06
-1.81534e-06
-9.82228e-07
-4.86193e-07
-1.90402e-07
-6.28939e-08
-1.81498e-08
-3.34999e-09
1.18516e-41
1.97199e-40
-1.15912e-39
-4.89987e-40
-9.27224e-40
-1.75796e-39
-1.47442e-39
9.53374e-40
-4.8003e-39
-3.83359e-39
6.53513e-39
1.56844e-38
-1.03351e-38
-6.82371e-38
-3.25169e-38
1.02582e-37
3.82288e-37
-4.37457e-36
3.99982e-36
-7.20893e-36
9.74463e-35
-6.65424e-34
-4.41798e-34
-2.76045e-33
-1.87515e-32
-5.66372e-32
-3.85354e-31
3.01743e-34
2.40269e-30
9.61945e-30
1.74292e-29
3.25421e-29
-7.3623e-28
1.61178e-27
-2.78639e-28
6.38459e-26
4.35726e-25
-5.30451e-25
-5.94832e-25
-5.24688e-24
-3.92703e-23
-2.40646e-22
-1.52255e-21
-9.6345e-21
-5.92911e-20
-3.72881e-19
-2.35059e-18
-1.20199e-17
-5.7621e-17
-2.89918e-16
-1.44104e-15
-6.59135e-15
-2.70358e-14
-9.41127e-14
-2.73577e-13
-8.11189e-13
-2.42461e-12
-6.88517e-12
-1.78965e-11
-4.21073e-11
-8.73876e-11
-1.47263e-10
-1.83846e-10
-3.85869e-10
-1.54507e-09
-6.03404e-09
-2.26158e-08
-7.64651e-08
-2.32277e-07
-6.421e-07
-1.63134e-06
-3.75274e-06
-7.93526e-06
-1.60257e-05
-3.20332e-05
-6.82725e-05
-0.000127779
-0.000218664
-0.000329801
-0.000424598
-0.000283281
0.000583128
0.00105535
0.00150673
-0.000560151
-0.000452762
-0.000250812
-0.000138608
-7.58028e-05
-4.01265e-05
-2.09324e-05
-1.04087e-05
-4.37291e-06
-1.69001e-06
-9.3205e-07
-4.58569e-07
-1.78271e-07
-5.86093e-08
-1.68532e-08
-3.10374e-09
3.56605e-42
2.74813e-40
-1.80393e-40
-4.13316e-40
1.57884e-39
6.22498e-40
-2.24849e-39
-6.89944e-39
-4.76555e-39
5.0541e-39
1.10976e-38
-2.16565e-38
4.95798e-39
7.7954e-39
7.33454e-38
4.53346e-37
8.94937e-37
-4.44595e-36
1.75923e-35
1.18469e-35
8.848e-35
8.35426e-34
-6.15295e-34
-3.0684e-33
-5.08844e-33
5.02876e-32
-2.01841e-31
-3.48089e-31
-5.0815e-31
-4.42237e-31
-1.33342e-30
9.34337e-29
-6.10282e-30
-5.15553e-29
-8.90136e-28
-1.61484e-26
4.0041e-25
-7.36499e-26
-1.16693e-24
-7.31996e-24
-5.06007e-23
-3.26199e-22
-2.00407e-21
-1.17771e-20
-7.21937e-20
-4.44094e-19
-2.55237e-18
-1.18939e-17
-6.39034e-17
-3.26632e-16
-1.57583e-15
-7.06592e-15
-2.84405e-14
-9.7412e-14
-2.80993e-13
-8.24569e-13
-2.43869e-12
-6.88964e-12
-1.78264e-11
-4.18003e-11
-8.66156e-11
-1.4604e-10
-1.82696e-10
-3.777e-10
-1.50735e-09
-5.88898e-09
-2.21313e-08
-7.50895e-08
-2.2929e-07
-6.36425e-07
-1.62362e-06
-3.74939e-06
-7.95193e-06
-1.6089e-05
-3.21751e-05
-6.85949e-05
-0.00012864
-0.000220357
-0.000332357
-0.000426621
-0.000275963
0.000607926
0.00106118
0.00152437
-0.000621875
-0.000440566
-0.000243745
-0.000134495
-7.34119e-05
-3.8815e-05
-2.02037e-05
-1.00273e-05
-4.14908e-06
-1.61789e-06
-9.02205e-07
-4.41253e-07
-1.70538e-07
-5.5866e-08
-1.6019e-08
-2.94484e-09
-8.40965e-42
-3.11778e-41
1.79254e-40
9.53837e-40
-1.37038e-39
-1.33001e-39
5.11921e-40
1.4344e-39
-2.50801e-39
3.4855e-39
-2.5691e-39
-1.33618e-38
-7.90962e-39
-4.08788e-38
1.67949e-37
-1.39506e-37
-3.23186e-37
-1.38313e-36
-1.17834e-35
5.17205e-35
3.01854e-34
-3.95178e-34
-2.64635e-33
-9.77554e-33
-1.74032e-32
-7.27533e-32
1.04028e-31
1.22088e-30
3.3925e-30
2.90036e-30
-9.04926e-29
-1.04486e-28
1.26639e-28
6.3635e-28
-1.6271e-27
-5.6946e-26
-2.34384e-24
5.6691e-25
-1.91421e-24
-1.06646e-23
-6.50327e-23
-4.09353e-22
-2.47739e-21
-1.45264e-20
-8.85835e-20
-5.24752e-19
-2.66335e-18
-1.35002e-17
-7.20058e-17
-3.62895e-16
-1.72562e-15
-7.51778e-15
-2.96544e-14
-9.99244e-14
-2.85352e-13
-8.32081e-13
-2.44328e-12
-6.86332e-12
-1.7686e-11
-4.13719e-11
-8.56841e-11
-1.44758e-10
-1.81632e-10
-3.69013e-10
-1.46637e-09
-5.72679e-09
-2.16261e-08
-7.36252e-08
-2.25842e-07
-6.2921e-07
-1.61106e-06
-3.73401e-06
-7.9402e-06
-1.60921e-05
-3.21904e-05
-6.86422e-05
-0.000128991
-0.000221283
-0.000333963
-0.000428247
-0.000272715
0.000621913
0.00106409
0.00153348
-0.000651423
-0.000434608
-0.000240227
-0.000132406
-7.21695e-05
-3.81242e-05
-1.98117e-05
-9.81759e-06
-4.02005e-06
-1.57936e-06
-8.861e-07
-4.31146e-07
-1.65919e-07
-5.42031e-08
-1.55094e-08
-2.84729e-09
3.42461e-41
-9.42563e-41
2.21602e-40
4.76029e-40
5.47675e-40
-4.64109e-40
-9.35164e-41
-2.59992e-39
-3.99124e-40
-2.70045e-39
-1.14642e-38
7.07513e-39
-3.42759e-38
3.93743e-38
-1.52689e-37
-7.82112e-37
1.17456e-37
9.28451e-36
4.30052e-35
1.21903e-35
-9.57105e-35
-2.58015e-34
-2.81782e-33
-1.54683e-33
1.43644e-32
4.76629e-32
-4.37694e-31
1.33712e-30
-3.93286e-31
-6.49259e-30
4.35454e-29
-5.33107e-29
-2.28742e-28
-3.40769e-27
6.1767e-27
-5.83716e-26
2.02929e-23
-5.4388e-25
-1.88227e-24
-1.23825e-23
-8.1061e-23
-4.97971e-22
-2.99599e-21
-1.77291e-20
-9.49124e-20
-4.9013e-19
-2.82859e-18
-1.54459e-17
-8.0427e-17
-3.9964e-16
-1.84738e-15
-7.88899e-15
-3.05894e-14
-1.01478e-13
-2.87544e-13
-8.34781e-13
-2.43516e-12
-6.80415e-12
-1.74714e-11
-4.07912e-11
-8.4439e-11
-1.4306e-10
-1.80566e-10
-3.57495e-10
-1.41572e-09
-5.53419e-09
-2.09349e-08
-7.17497e-08
-2.21014e-07
-6.18697e-07
-1.58977e-06
-3.70282e-06
-7.89903e-06
-1.60329e-05
-3.2076e-05
-6.84028e-05
-0.00012884
-0.000221412
-0.000334554
-0.000429298
-0.000272889
0.000627398
0.00106585
0.00153758
-0.000663176
-0.000432014
-0.000238662
-0.000131456
-7.1591e-05
-3.77971e-05
-1.96212e-05
-9.7134e-06
-3.95211e-06
-1.56047e-06
-8.78105e-07
-4.25817e-07
-1.63399e-07
-5.32805e-08
-1.52236e-08
-2.79222e-09
-1.16426e-41
-8.77875e-41
3.74649e-40
2.62716e-40
-1.32843e-40
-1.15546e-40
-4.5751e-40
-6.73847e-40
-4.31853e-39
3.55227e-39
-4.89693e-39
8.38574e-39
1.09772e-38
-2.99833e-38
1.43321e-37
3.53667e-37
-1.45621e-36
1.26739e-36
1.09469e-35
9.7722e-35
3.5618e-34
-1.77392e-33
-7.60443e-34
-1.24166e-32
-2.26301e-33
-2.40501e-31
2.78322e-31
-2.04681e-30
-4.85892e-30
1.31538e-29
-6.63111e-29
-1.04004e-28
-1.79148e-29
-4.00006e-27
-5.61305e-27
-3.2068e-27
3.7866e-25
-8.07666e-25
-2.7443e-24
-1.50872e-23
-9.30965e-23
-5.70192e-22
-3.35096e-21
-1.82074e-20
-9.51089e-20
-5.65807e-19
-3.20637e-18
-1.73245e-17
-8.97798e-17
-4.35579e-16
-1.97336e-15
-8.23518e-15
-3.10708e-14
-1.01944e-13
-2.89095e-13
-8.3442e-13
-2.41663e-12
-6.72627e-12
-1.72331e-11
-4.02022e-11
-8.32555e-11
-1.41416e-10
-1.79352e-10
-3.45872e-10
-1.36326e-09
-5.33204e-09
-2.0268e-08
-6.97693e-08
-2.15702e-07
-6.05915e-07
-1.56808e-06
-3.65797e-06
-7.8258e-06
-1.59057e-05
-3.18168e-05
-6.78517e-05
-0.000128198
-0.000220839
-0.000334276
-0.000429807
-0.000275781
0.000626053
0.00106723
0.00153857
-0.000663867
-0.00043135
-0.000238226
-0.000131173
-7.1408e-05
-3.76877e-05
-1.95546e-05
-9.67516e-06
-3.92275e-06
-1.55302e-06
-8.75411e-07
-4.23699e-07
-1.6232e-07
-5.28709e-08
-1.50936e-08
-2.76683e-09
1.02921e-44
1.74701e-42
1.22452e-40
1.43248e-42
1.68464e-41
8.18086e-40
-7.37759e-40
-9.12766e-40
-6.37953e-41
3.72058e-39
-7.46234e-39
-6.60752e-39
-6.32088e-38
1.94052e-37
-2.80809e-37
7.15207e-37
2.51727e-37
9.00254e-36
3.22988e-36
-7.36252e-35
1.1883e-34
-2.11996e-34
-5.21402e-33
-1.09509e-32
1.16062e-33
8.95317e-32
4.59196e-31
8.75725e-31
2.98203e-30
2.33747e-30
-1.31748e-28
7.39654e-29
-4.56307e-28
-2.08969e-28
7.14522e-27
-3.23498e-26
-1.59865e-24
-1.25226e-24
-3.12172e-24
-1.81201e-23
-1.06297e-22
-6.21588e-22
-3.44195e-21
-1.85617e-20
-1.09273e-19
-6.43588e-19
-3.64254e-18
-1.96965e-17
-1.00553e-16
-4.83564e-16
-2.17516e-15
-9.01897e-15
-3.38309e-14
-1.02448e-13
-2.90547e-13
-8.3014e-13
-2.38701e-12
-6.61742e-12
-1.68972e-11
-3.93559e-11
-8.1687e-11
-1.39663e-10
-1.78557e-10
-3.34759e-10
-1.31233e-09
-5.13298e-09
-1.95783e-08
-6.76996e-08
-2.1042e-07
-5.93004e-07
-1.53886e-06
-3.6036e-06
-7.72985e-06
-1.57385e-05
-3.14914e-05
-6.71462e-05
-0.000127246
-0.000219733
-0.00033326
-0.00042976
-0.000280428
0.00061973
0.00106843
0.00153734
-0.000656372
-0.000431998
-0.000238549
-0.000131335
-7.14901e-05
-3.77237e-05
-1.95699e-05
-9.6813e-06
-3.92005e-06
-1.55291e-06
-8.76152e-07
-4.23774e-07
-1.62235e-07
-5.28167e-08
-1.5072e-08
-2.76213e-09
-1.19263e-41
5.80957e-41
3.28404e-41
3.77139e-40
7.85833e-40
-3.55205e-40
6.39626e-40
9.94734e-40
-1.62268e-39
5.92593e-39
-4.44627e-39
1.16054e-39
-9.27166e-39
-3.40116e-39
-7.42345e-37
-1.7868e-36
-4.98713e-36
-2.47841e-35
-5.6772e-35
-2.7837e-35
-7.7308e-34
-3.91416e-33
-1.97836e-33
-1.34632e-32
-1.31688e-31
-3.84214e-32
-3.79735e-31
-2.27778e-30
-4.40554e-30
1.35932e-29
6.50056e-30
-1.64795e-28
1.033e-27
5.82739e-27
-3.13708e-26
8.94751e-27
-9.55002e-26
3.29122e-25
-3.68781e-24
-2.29452e-23
-1.20345e-22
-6.60747e-22
-3.69606e-21
-2.08314e-20
-1.22802e-19
-7.20028e-19
-4.05206e-18
-2.17766e-17
-1.10185e-16
-5.24643e-16
-2.3355e-15
-9.53476e-15
-3.36158e-14
-9.93891e-14
-2.90809e-13
-8.22921e-13
-2.35279e-12
-6.50611e-12
-1.6605e-11
-3.87014e-11
-8.03387e-11
-1.37893e-10
-1.77544e-10
-3.24003e-10
-1.2637e-09
-4.94424e-09
-1.89213e-08
-6.56951e-08
-2.05302e-07
-5.81191e-07
-1.50604e-06
-3.54415e-06
-7.62675e-06
-1.55519e-05
-3.11191e-05
-6.63236e-05
-0.000126072
-0.000218213
-0.000331738
-0.000429347
-0.000286255
0.000609747
0.00106955
0.00153423
-0.000641755
-0.000433808
-0.000239537
-0.00013188
-7.17884e-05
-3.78748e-05
-1.96494e-05
-9.72186e-06
-3.93763e-06
-1.55832e-06
-8.7947e-07
-4.25446e-07
-1.6286e-07
-5.30137e-08
-1.51265e-08
-2.77194e-09
-1.79324e-41
-7.05671e-41
-9.39124e-41
1.15529e-40
5.88495e-40
7.50876e-40
-1.15293e-39
7.2977e-41
-3.35909e-41
1.75384e-39
-1.02304e-39
-1.39392e-38
3.81e-38
-1.70459e-37
-4.65602e-38
-1.64296e-36
-4.31382e-36
-1.25796e-35
-4.79754e-35
-1.20112e-34
1.25525e-34
-1.9051e-33
-7.11833e-33
-4.00805e-32
-5.38881e-32
-3.55058e-31
-1.49146e-30
-1.82622e-30
-2.90779e-30
-4.98138e-29
-7.95336e-29
-3.12027e-28
5.31214e-28
-9.85342e-29
3.20719e-27
-3.30045e-26
2.2522e-24
-1.49855e-24
-3.70542e-24
-2.5632e-23
-1.2797e-22
-7.38038e-22
-4.08567e-21
-2.36236e-20
-1.34587e-19
-7.86179e-19
-4.38938e-18
-2.3137e-17
-1.15191e-16
-5.40567e-16
-2.37304e-15
-9.54522e-15
-3.30894e-14
-9.79533e-14
-2.90168e-13
-8.12483e-13
-2.31172e-12
-6.38342e-12
-1.62891e-11
-3.80066e-11
-7.91028e-11
-1.36183e-10
-1.76534e-10
-3.13463e-10
-1.21469e-09
-4.75193e-09
-1.82399e-08
-6.3542e-08
-1.99349e-07
-5.6685e-07
-1.47406e-06
-3.48332e-06
-7.51271e-06
-1.53374e-05
-3.0687e-05
-6.53702e-05
-0.000124725
-0.000216487
-0.000329899
-0.000428625
-0.000292952
0.000596651
0.00107056
0.00152955
-0.000620379
-0.000436657
-0.000241099
-0.000132748
-7.22754e-05
-3.81275e-05
-1.97825e-05
-9.78925e-06
-3.9696e-06
-1.56807e-06
-8.847e-07
-4.28296e-07
-1.64018e-07
-5.34013e-08
-1.5239e-08
-2.79276e-09
-5.45393e-42
2.2427e-41
9.40366e-41
4.65454e-40
-3.58805e-40
-4.21179e-40
-4.85045e-40
-2.25953e-39
-1.14504e-41
-4.55904e-39
6.34996e-39
3.05882e-39
-3.4617e-39
7.80007e-38
2.17156e-37
-7.21792e-37
2.94914e-36
5.71897e-36
-4.87223e-35
-1.01902e-34
6.62674e-35
1.1534e-33
-4.6896e-33
-2.08065e-32
-8.10552e-32
-2.27096e-31
4.31138e-31
-5.42257e-30
-3.6137e-31
-3.48011e-29
-1.21306e-28
-2.40167e-28
-1.49988e-27
1.58482e-27
4.28817e-28
-5.57784e-26
8.86553e-25
-1.50018e-24
-4.47672e-24
-2.40995e-23
-1.32212e-22
-7.75564e-22
-4.44882e-21
-2.57567e-20
-1.45728e-19
-8.4199e-19
-4.62418e-18
-2.40616e-17
-1.18433e-16
-5.49827e-16
-2.38897e-15
-9.50086e-15
-3.26327e-14
-9.68963e-14
-2.89376e-13
-8.03113e-13
-2.27668e-12
-6.2792e-12
-1.59986e-11
-3.72956e-11
-7.77524e-11
-1.34602e-10
-1.75796e-10
-3.04186e-10
-1.1707e-09
-4.57848e-09
-1.76256e-08
-6.16487e-08
-1.93842e-07
-5.53076e-07
-1.44295e-06
-3.42188e-06
-7.40222e-06
-1.5132e-05
-3.02757e-05
-6.44083e-05
-0.000123342
-0.000214638
-0.000327876
-0.000427815
-0.000299917
0.000582126
0.00107119
0.00152353
-0.000593412
-0.000440419
-0.000243152
-0.000133883
-7.2906e-05
-3.84553e-05
-1.99572e-05
-9.8783e-06
-4.01413e-06
-1.58192e-06
-8.91863e-07
-4.32067e-07
-1.65552e-07
-5.39158e-08
-1.53888e-08
-2.8205e-09
-4.38628e-42
4.08327e-41
-2.83006e-40
1.20772e-41
-1.33148e-40
-6.61472e-40
3.76828e-40
-2.9914e-39
-2.42782e-39
-2.744e-40
1.57772e-40
-2.8038e-40
3.79516e-38
9.18911e-38
-2.20943e-37
8.08013e-37
2.45406e-36
-1.33431e-37
-3.33959e-35
6.40622e-35
-7.9858e-34
-2.87916e-33
4.72892e-33
-1.91115e-32
-2.63583e-32
-4.90531e-31
8.85369e-31
-1.00379e-30
-9.87476e-32
-8.40406e-31
-3.26046e-29
-2.22813e-28
4.40252e-28
1.96759e-27
-7.65562e-27
-2.0896e-26
3.5316e-25
-1.01273e-24
-4.69066e-24
-2.29942e-23
-1.50437e-22
-8.44295e-22
-4.8573e-21
-2.69079e-20
-1.54017e-19
-8.81987e-19
-4.80031e-18
-2.47578e-17
-1.20842e-16
-5.56358e-16
-2.39565e-15
-9.45041e-15
-3.22634e-14
-9.59662e-14
-2.8781e-13
-7.92747e-13
-2.23958e-12
-6.16991e-12
-1.57205e-11
-3.66852e-11
-7.65575e-11
-1.33075e-10
-1.75151e-10
-2.95945e-10
-1.13058e-09
-4.41894e-09
-1.70523e-08
-5.9846e-08
-1.89212e-07
-5.40754e-07
-1.41475e-06
-3.36558e-06
-7.29804e-06
-1.49366e-05
-2.98939e-05
-6.35097e-05
-0.000122043
-0.000212884
-0.000326007
-0.000427065
-0.000306452
0.00056769
0.0010712
0.00151681
-0.000563358
-0.00044477
-0.000245522
-0.000135187
-7.36265e-05
-3.88293e-05
-2.01536e-05
-9.97775e-06
-4.06413e-06
-1.59787e-06
-8.99502e-07
-4.36155e-07
-1.67217e-07
-5.44756e-08
-1.5552e-08
-2.85076e-09
2.3992e-41
4.98303e-41
-1.88792e-40
1.85073e-43
9.39754e-41
-3.76357e-40
1.04993e-39
-1.00373e-39
2.02798e-39
1.61041e-39
3.40835e-40
1.81872e-38
-2.43938e-38
-1.44847e-37
-6.69227e-39
-2.34181e-36
1.412e-36
-5.57567e-37
-8.13361e-35
3.99151e-35
-2.19454e-35
1.4262e-33
-5.48919e-33
1.04941e-32
-3.10733e-32
-1.37185e-31
9.42942e-31
-3.61545e-30
-7.46801e-30
4.53115e-30
-1.34464e-29
1.18223e-28
-1.37203e-28
3.60107e-27
1.67453e-26
4.86687e-26
-1.94657e-25
2.28245e-25
-3.04494e-24
-2.74907e-23
-1.59539e-22
-8.91805e-22
-5.08135e-21
-2.78491e-20
-1.60445e-19
-9.13388e-19
-4.93293e-18
-2.52645e-17
-1.22493e-16
-5.6041e-16
-2.3987e-15
-9.40734e-15
-3.19559e-14
-9.51469e-14
-2.86158e-13
-7.83415e-13
-2.2047e-12
-6.06998e-12
-1.54701e-11
-3.61303e-11
-7.5563e-11
-1.31826e-10
-1.74561e-10
-2.89247e-10
-1.097e-09
-4.28418e-09
-1.65618e-08
-5.82706e-08
-1.84667e-07
-5.29936e-07
-1.39062e-06
-3.31735e-06
-7.2086e-06
-1.47717e-05
-2.95695e-05
-6.27434e-05
-0.000120936
-0.000211383
-0.000324392
-0.000426423
-0.000312141
0.000554562
0.00107122
0.00151004
-0.000532977
-0.000449282
-0.000247972
-0.000136531
-7.43656e-05
-3.92132e-05
-2.03572e-05
-1.00796e-05
-4.11544e-06
-1.61462e-06
-9.07351e-07
-4.40229e-07
-1.68861e-07
-5.50261e-08
-1.57121e-08
-2.88037e-09
6.34881e-42
1.17906e-40
1.58763e-40
-1.95256e-44
3.75303e-40
1.07933e-39
1.67729e-43
2.30292e-39
3.53121e-39
-2.07595e-39
6.16867e-39
-2.32976e-39
4.21748e-38
-3.00742e-40
2.10908e-38
8.96769e-37
-1.34701e-36
-8.25573e-36
1.40212e-35
2.3596e-34
4.23244e-34
5.90913e-34
-1.7111e-33
-5.53677e-34
2.13536e-32
7.98032e-32
-1.64394e-30
4.03384e-30
-1.17811e-30
1.14033e-29
4.74293e-29
4.35988e-29
-5.08702e-28
-2.07307e-27
-3.55241e-26
-3.06768e-26
2.06012e-24
-6.35477e-25
-3.66904e-24
-2.88569e-23
-1.62719e-22
-9.22879e-22
-4.98971e-21
-2.86489e-20
-1.66016e-19
-9.37368e-19
-5.03419e-18
-2.56463e-17
-1.23728e-16
-5.63353e-16
-2.4002e-15
-9.37314e-15
-3.17307e-14
-9.45129e-14
-2.84653e-13
-7.75827e-13
-2.17898e-12
-5.99919e-12
-1.52894e-11
-3.57232e-11
-7.47779e-11
-1.30732e-10
-1.73981e-10
-2.83757e-10
-1.07049e-09
-4.17962e-09
-1.61845e-08
-5.70738e-08
-1.81277e-07
-5.21733e-07
-1.37213e-06
-3.2798e-06
-7.139e-06
-1.46409e-05
-2.93122e-05
-6.21349e-05
-0.000120053
-0.000210175
-0.000323089
-0.000425895
-0.000316741
0.000543436
0.00107085
0.00150395
-0.000505418
-0.000453431
-0.000250221
-0.00013776
-7.50388e-05
-3.95623e-05
-2.05401e-05
-1.01708e-05
-4.16089e-06
-1.62974e-06
-9.14496e-07
-4.43798e-07
-1.70296e-07
-5.55059e-08
-1.58514e-08
-2.90611e-09
2.3607e-41
3.29304e-41
8.20498e-41
3.90109e-41
-1.88196e-40
3.76522e-40
-7.37785e-40
-1.55251e-40
1.01431e-39
-1.50525e-39
-3.0108e-39
6.01915e-39
-1.17358e-41
1.44439e-37
1.92385e-37
-2.31324e-36
6.69791e-36
2.18323e-35
8.49264e-35
-1.53948e-34
1.00062e-33
1.56992e-33
3.37027e-33
5.65162e-33
2.6215e-32
-1.25099e-31
3.96771e-31
-4.06741e-30
-9.80127e-30
-1.05257e-29
4.9911e-29
1.85249e-29
-5.31732e-28
-4.66587e-29
4.3428e-27
-1.21354e-25
-1.58249e-24
-1.23994e-24
-5.00437e-24
-2.98476e-23
-1.60252e-22
-9.05001e-22
-5.07765e-21
-2.91546e-20
-1.7015e-19
-9.54978e-19
-5.10642e-18
-2.59222e-17
-1.24633e-16
-5.65601e-16
-2.40187e-15
-9.35048e-15
-3.15786e-14
-9.40653e-14
-2.83581e-13
-7.70662e-13
-2.16084e-12
-5.94782e-12
-1.51596e-11
-3.54341e-11
-7.42343e-11
-1.3001e-10
-1.73615e-10
-2.80176e-10
-1.05278e-09
-4.10928e-09
-1.59303e-08
-5.62659e-08
-1.78973e-07
-5.16022e-07
-1.35885e-06
-3.25293e-06
-7.08896e-06
-1.45487e-05
-2.91314e-05
-6.17062e-05
-0.00011943
-0.00020932
-0.000322172
-0.000425537
-0.000320026
0.00053533
0.00107039
0.00149923
-0.000483982
-0.000456677
-0.000251977
-0.000138719
-7.55625e-05
-3.98334e-05
-2.06821e-05
-1.02414e-05
-4.1961e-06
-1.64167e-06
-9.19948e-07
-4.46525e-07
-1.71385e-07
-5.58685e-08
-1.59565e-08
-2.92547e-09
1.17574e-41
-1.87148e-41
5.81911e-41
-1.8866e-40
9.00662e-40
7.08338e-41
-3.77857e-40
1.95048e-39
2.05153e-39
-1.5052e-39
-6.7777e-39
7.55582e-39
5.91496e-38
1.48061e-37
1.0049e-36
3.08233e-36
-6.16634e-36
5.21857e-36
-8.7943e-35
1.39524e-34
-3.95008e-34
-1.82083e-36
3.03925e-33
-1.84407e-32
-7.58801e-32
3.36042e-31
-4.05964e-31
1.47311e-30
-1.31945e-29
-3.39101e-29
-1.03898e-30
3.29233e-28
-4.60034e-28
-5.50256e-27
-8.88347e-27
2.19186e-26
-2.71657e-24
-6.46291e-25
-4.92738e-24
-2.8559e-23
-1.67286e-22
-9.33069e-22
-5.11721e-21
-2.99512e-20
-1.72098e-19
-9.65486e-19
-5.15505e-18
-2.61086e-17
-1.25246e-16
-5.67165e-16
-2.40372e-15
-9.34109e-15
-3.15007e-14
-9.38438e-14
-2.83087e-13
-7.68095e-13
-2.15175e-12
-5.92162e-12
-1.50921e-11
-3.52818e-11
-7.39479e-11
-1.2964e-10
-1.73423e-10
-2.78325e-10
-1.04348e-09
-4.0722e-09
-1.57948e-08
-5.58297e-08
-1.77724e-07
-5.1291e-07
-1.35184e-06
-3.23877e-06
-7.06259e-06
-1.44992e-05
-2.90346e-05
-6.14769e-05
-0.000119096
-0.00020886
-0.000321678
-0.000425344
-0.00032181
0.000530827
0.00107006
0.00149651
-0.000471736
-0.000458565
-0.000252995
-0.000139272
-7.58636e-05
-3.99889e-05
-2.07633e-05
-1.02816e-05
-4.21665e-06
-1.64851e-06
-9.22995e-07
-4.4805e-07
-1.71991e-07
-5.60701e-08
-1.60148e-08
-2.93621e-09
-1.2911e-42
4.71206e-41
9.39905e-41
3.7639e-40
2.80789e-40
1.23815e-39
-7.52749e-40
-2.27959e-40
1.62503e-39
-1.52607e-39
6.33333e-39
-2.50557e-39
-4.81681e-38
-9.5756e-38
5.08854e-37
7.06265e-37
9.24749e-36
-1.23316e-35
4.75501e-35
2.81745e-35
-9.74841e-34
1.74337e-33
-3.15858e-33
-1.68486e-32
-4.80986e-32
-1.53477e-34
1.04997e-31
2.38666e-30
-2.59234e-30
6.87333e-29
-5.25956e-29
-5.16986e-29
7.82285e-28
-1.75206e-27
-2.32557e-27
-2.83807e-26
-2.69779e-24
-2.43982e-25
-3.12876e-24
-2.85327e-23
-1.68104e-22
-9.53001e-22
-5.29297e-21
-3.00939e-20
-1.73312e-19
-9.7223e-19
-5.18433e-18
-2.62303e-17
-1.25686e-16
-5.68525e-16
-2.40685e-15
-9.34377e-15
-3.14857e-14
-9.38157e-14
-2.83125e-13
-7.6758e-13
-2.14966e-12
-5.91562e-12
-1.5077e-11
-3.52482e-11
-7.38846e-11
-1.29554e-10
-1.73378e-10
-2.77963e-10
-1.04171e-09
-4.06534e-09
-1.57702e-08
-5.57517e-08
-1.77501e-07
-5.12368e-07
-1.35062e-06
-3.23634e-06
-7.05806e-06
-1.44909e-05
-2.90187e-05
-6.14397e-05
-0.000119043
-0.000208787
-0.0003216
-0.000425314
-0.000322089
0.000530128
0.00107001
0.00149609
-0.000469794
-0.000458845
-0.000253144
-0.000139352
-7.59067e-05
-4.0011e-05
-2.07746e-05
-1.02871e-05
-4.21941e-06
-1.64944e-06
-9.23473e-07
-4.48267e-07
-1.72074e-07
-5.60969e-08
-1.60223e-08
-2.93758e-09
-5.87956e-42
-7.52568e-41
1.61994e-40
4.88982e-41
-1.88106e-40
-2.98701e-40
-1.50743e-39
-4.74375e-43
1.332e-43
3.15992e-39
-2.17237e-39
-1.89016e-38
-2.40837e-38
-1.7201e-37
-1.36997e-37
-2.03789e-36
7.92718e-36
3.08246e-35
-5.36963e-35
9.86177e-35
-4.12497e-34
7.14056e-35
6.41295e-33
-1.00597e-32
2.52166e-32
-2.79113e-32
-4.7146e-31
-9.64748e-31
1.15615e-30
-8.83655e-30
6.59057e-29
2.00475e-28
2.11507e-28
1.32187e-27
-1.93373e-26
-3.71306e-26
-1.69191e-24
-7.0844e-25
-4.6238e-24
-2.72707e-23
-1.69536e-22
-9.46911e-22
-5.38355e-21
-3.03467e-20
-1.7313e-19
-9.75596e-19
-5.20014e-18
-2.63026e-17
-1.26015e-16
-5.69942e-16
-2.41257e-15
-9.36485e-15
-3.15545e-14
-9.40436e-14
-2.83922e-13
-7.69933e-13
-2.15713e-12
-5.93606e-12
-1.5128e-11
-3.53607e-11
-7.40924e-11
-1.29815e-10
-1.73484e-10
-2.79308e-10
-1.04848e-09
-4.09208e-09
-1.58669e-08
-5.60585e-08
-1.7837e-07
-5.14533e-07
-1.35552e-06
-3.24639e-06
-7.07678e-06
-1.45259e-05
-2.90874e-05
-6.16034e-05
-0.000119282
-0.000209118
-0.000321956
-0.000425453
-0.000320791
0.000533421
0.00107026
0.0014981
-0.000478824
-0.000457437
-0.000252381
-0.000138935
-7.56784e-05
-3.98926e-05
-2.07125e-05
-1.02563e-05
-4.20343e-06
-1.64407e-06
-9.21001e-07
-4.47052e-07
-1.7159e-07
-5.59352e-08
-1.59754e-08
-2.92892e-09
2.7303e-41
-7.58338e-41
-9.43112e-41
-3.5615e-40
-5.90845e-40
-7.34209e-40
1.38961e-39
-9.88739e-41
-2.69096e-43
3.71024e-39
7.79688e-40
-1.5192e-38
-4.72098e-38
6.21903e-38
-5.36647e-37
-2.50174e-40
-1.14421e-39
1.09595e-35
-9.86663e-35
-1.02421e-37
-1.68397e-35
8.11383e-34
3.50366e-33
3.78477e-32
-3.54154e-32
1.12886e-32
8.06156e-31
-8.1434e-33
6.4283e-30
4.00935e-30
1.28821e-28
-6.79028e-30
-8.76727e-28
-3.42283e-27
2.43609e-26
1.48571e-25
-1.80673e-24
-1.05325e-24
-4.78508e-24
-3.03678e-23
-1.6996e-22
-9.45522e-22
-5.19328e-21
-3.03256e-20
-1.73218e-19
-9.74273e-19
-5.19729e-18
-2.63122e-17
-1.26188e-16
-5.71271e-16
-2.42033e-15
-9.40242e-15
-3.17045e-14
-9.45391e-14
-2.85508e-13
-7.75154e-13
-2.17398e-12
-5.98187e-12
-1.52414e-11
-3.56105e-11
-7.45552e-11
-1.30399e-10
-1.7372e-10
-2.823e-10
-1.06341e-09
-4.15096e-09
-1.60795e-08
-5.67346e-08
-1.80288e-07
-5.19294e-07
-1.36643e-06
-3.26842e-06
-7.11786e-06
-1.4603e-05
-2.92391e-05
-6.19636e-05
-0.000119808
-0.000209845
-0.000322743
-0.000425765
-0.000317965
0.000540534
0.00107074
0.00150231
-0.000497864
-0.000454516
-0.000250799
-0.000138071
-7.52056e-05
-3.96476e-05
-2.0584e-05
-1.01923e-05
-4.17141e-06
-1.63315e-06
-9.15951e-07
-4.44573e-07
-1.70595e-07
-5.56027e-08
-1.58788e-08
-2.91108e-09
-3.54448e-41
2.19098e-41
-1.98821e-40
2.09599e-40
-7.52975e-40
2.72142e-40
-7.32855e-40
-1.63955e-39
-3.01046e-39
3.79736e-39
-3.07687e-39
-4.51256e-41
-1.20747e-41
1.1213e-37
-1.92948e-37
2.46726e-36
2.94567e-36
-4.53551e-36
3.64435e-35
4.78236e-36
-7.91179e-34
-1.5127e-33
4.48187e-33
2.63462e-32
1.54939e-32
-1.92044e-31
5.40605e-31
3.59248e-33
-1.05521e-31
2.10919e-29
6.55431e-29
-5.26598e-28
-8.83297e-28
-5.06333e-27
-1.18138e-26
-3.93825e-26
-2.90644e-24
-3.04235e-25
-4.31808e-24
-2.90647e-23
-1.65897e-22
-9.22157e-22
-5.1719e-21
-3.03741e-20
-1.71921e-19
-9.6805e-19
-5.17753e-18
-2.62732e-17
-1.26264e-16
-5.7277e-16
-2.43132e-15
-9.46136e-15
-3.19499e-14
-9.53345e-14
-2.87997e-13
-7.83643e-13
-2.20158e-12
-6.05722e-12
-1.54276e-11
-3.60173e-11
-7.52996e-11
-1.31322e-10
-1.74057e-10
-2.8708e-10
-1.08702e-09
-4.24379e-09
-1.64134e-08
-5.77908e-08
-1.83274e-07
-5.26679e-07
-1.38329e-06
-3.30255e-06
-7.18125e-06
-1.47208e-05
-2.94711e-05
-6.25138e-05
-0.000120612
-0.000210954
-0.000323949
-0.000426262
-0.000313727
0.000550969
0.00107124
0.00150824
-0.000524655
-0.000450459
-0.0002486
-0.000136868
-7.45464e-05
-3.93057e-05
-2.04043e-05
-1.01029e-05
-4.12585e-06
-1.61812e-06
-9.09067e-07
-4.41063e-07
-1.69179e-07
-5.51277e-08
-1.57405e-08
-2.88549e-09
5.89003e-42
-2.62943e-42
6.39393e-42
2.75137e-40
-8.91761e-41
-1.11572e-39
-4.04978e-40
4.23966e-39
1.29102e-39
3.12534e-39
6.01712e-39
3.38585e-39
-2.41396e-38
1.30014e-37
-1.52578e-37