/*--------------------------------*- C++ -*----------------------------------*\
  =========                 |
  \\      /  F ield         | OpenFOAM: The Open Source CFD Toolbox
   \\    /   O peration     | Website:  https://openfoam.org
    \\  /    A nd           | Version:  10
     \\/     M anipulation  |
\*---------------------------------------------------------------------------*/
FoamFile
{
    format      ascii;
    class       volScalarField;
    location    "1";
    object      RR.C2H3CHO;
}
// * * * * * * * * * * * * * * * * * * * * * * * * * * * * * * * * * * * * * //

dimensions      [1 -3 -1 0 0 0 0];

internalField   nonuniform List<scalar> 
4000
(
-1.2828e-38
3.16993e-39
7.01793e-41
-9.01295e-39
4.80642e-39
2.01761e-38
-1.38996e-38
2.88145e-38
-3.1798e-39
-3.69165e-38
4.74787e-38
-1.0148e-37
2.71702e-39
-5.232e-38
-3.51226e-38
-2.26086e-38
9.74281e-37
3.99566e-36
1.61004e-35
4.95017e-35
1.94487e-34
-1.64752e-35
4.00024e-35
5.5255e-33
2.45496e-32
-3.0601e-32
1.51368e-31
-7.20253e-31
-8.90735e-31
3.12361e-30
7.47244e-30
-1.74225e-29
1.66563e-28
-1.86001e-28
-1.20579e-27
-1.09841e-25
-5.36396e-26
4.1359e-26
-5.4751e-26
2.2674e-25
3.03283e-26
1.28696e-24
2.2313e-24
1.66703e-22
4.15274e-22
2.06429e-21
3.30486e-20
3.88459e-19
4.3671e-18
4.95866e-17
5.48908e-16
6.04746e-15
5.06367e-14
4.92108e-13
4.36359e-12
3.29407e-11
1.99336e-10
1.08009e-09
4.76726e-09
1.66484e-08
4.46367e-08
8.43946e-08
1.081e-07
1.5369e-07
4.0794e-07
1.11949e-06
3.06207e-06
8.64503e-06
2.4214e-05
6.48607e-05
0.000164279
0.000396824
0.000913856
0.00189133
0.00330095
0.00391137
0.00370391
0.00149081
-0.00247009
-0.00329145
-0.00192681
-0.000994043
-0.000514725
-0.000271737
-0.000146763
-8.08993e-05
-4.50348e-05
-2.50765e-05
-1.38546e-05
-7.56386e-06
-4.11828e-06
-2.28139e-06
-1.34713e-06
-1.21892e-06
-5.28274e-07
1.81229e-06
6.77062e-07
1.04914e-07
7.82963e-09
4.33007e-09
5.66379e-39
-3.11384e-38
-1.75423e-37
1.92854e-37
-1.01853e-37
2.54915e-37
-1.08307e-37
-3.0975e-37
-7.35844e-41
4.7791e-37
-2.09042e-37
-1.9028e-37
-1.34001e-37
4.98975e-38
-1.27581e-37
-6.88259e-37
-1.08943e-36
-7.17278e-37
-1.26434e-35
-3.3444e-35
-1.59254e-34
-2.95742e-34
1.07947e-33
5.0488e-33
-1.24167e-32
-1.30172e-32
1.82739e-31
7.60381e-31
1.57478e-30
6.43617e-30
-2.88134e-30
7.98165e-30
7.25346e-29
-4.58878e-28
-4.76376e-28
9.8868e-26
-1.12601e-25
1.20782e-26
-3.58131e-26
2.0757e-25
-5.34623e-27
2.69269e-24
-6.93337e-24
-2.73535e-22
7.51951e-22
7.52688e-21
7.11308e-20
7.39779e-19
8.3497e-18
9.5513e-17
8.8309e-16
7.1851e-15
7.22045e-14
6.59485e-13
5.58464e-12
4.1689e-11
2.31902e-10
1.18247e-09
5.00216e-09
1.68684e-08
4.44549e-08
8.32319e-08
1.05863e-07
1.47575e-07
3.88709e-07
1.06669e-06
2.89765e-06
8.19773e-06
2.29749e-05
6.17254e-05
0.000158183
0.000384829
0.000893162
0.00187198
0.00331535
0.00399395
0.00380311
0.00159328
-0.0024721
-0.00333781
-0.00194929
-0.0010043
-0.000519476
-0.000273941
-0.000147782
-8.13593e-05
-4.52221e-05
-2.51347e-05
-1.38573e-05
-7.54769e-06
-4.105e-06
-2.27952e-06
-1.35177e-06
-1.28553e-06
-3.02569e-07
1.8418e-06
6.25426e-07
9.4072e-08
6.23284e-09
3.92144e-09
3.38327e-38
-2.55628e-37
-2.19027e-37
1.94351e-37
1.12632e-36
-5.34175e-37
-5.1607e-37
-4.54172e-38
5.84e-37
-2.95873e-37
8.76782e-37
-5.4797e-37
-1.32597e-36
3.36814e-37
6.03627e-37
-4.7907e-37
-2.66839e-36
5.99598e-36
2.71731e-35
5.5805e-35
3.30224e-34
8.26086e-34
3.08066e-33
-5.27547e-33
2.27677e-32
-1.04128e-31
-4.54195e-31
1.37945e-30
-7.10272e-31
1.42476e-29
4.26173e-30
-9.66546e-29
2.62956e-28
-2.27035e-29
-1.76034e-26
-1.69406e-26
1.75833e-26
1.37377e-26
-1.20455e-25
-2.76422e-25
8.05407e-25
-2.75694e-24
-3.36076e-24
3.50536e-22
1.19289e-21
1.23235e-20
1.07579e-19
1.15645e-18
1.21744e-17
1.34567e-16
1.21138e-15
1.01776e-14
1.00825e-13
9.49937e-13
7.30563e-12
4.67638e-11
2.48997e-10
1.23949e-09
5.13917e-09
1.70751e-08
4.43707e-08
8.22312e-08
1.03503e-07
1.41523e-07
3.72334e-07
1.02319e-06
2.76023e-06
7.76582e-06
2.18974e-05
5.92769e-05
0.000153276
0.000374775
0.000877704
0.00185895
0.00334299
0.00410564
0.00393399
0.00171446
-0.00248959
-0.00340049
-0.00198
-0.00101859
-0.000526051
-0.000276768
-0.000149074
-8.19454e-05
-4.54657e-05
-2.52154e-05
-1.38648e-05
-7.52469e-06
-4.08607e-06
-2.27501e-06
-1.35828e-06
-1.37156e-06
2.18706e-08
1.83289e-06
5.62787e-07
7.18905e-08
3.82686e-09
3.44729e-09
1.20243e-38
-4.81505e-38
-1.1914e-37
8.94802e-38
-7.55743e-38
5.14384e-37
6.152e-40
1.92459e-37
-1.07084e-37
-3.55501e-37
-3.52833e-37
2.38547e-37
-4.39848e-37
-7.30793e-37
-1.59731e-37
3.13877e-37
-1.68422e-36
8.49157e-37
4.93122e-35
9.86143e-35
-3.17929e-34
2.36728e-34
2.9997e-33
1.28322e-33
1.17651e-32
2.25313e-31
2.2222e-31
3.22282e-31
-5.43415e-30
4.81311e-30
-3.20661e-29
-1.67745e-28
-1.58379e-28
3.36247e-28
-3.91089e-27
-1.30663e-26
-2.27482e-26
-4.1238e-27
-1.31257e-25
1.22322e-25
-1.41664e-24
7.09722e-25
-6.60081e-23
9.22692e-23
1.57969e-21
1.67664e-20
1.56372e-19
1.62443e-18
1.8029e-17
1.59386e-16
1.39482e-15
1.4905e-14
1.4839e-13
1.27389e-12
9.27767e-12
5.01044e-11
2.65812e-10
1.29611e-09
5.27477e-09
1.72031e-08
4.41924e-08
8.12758e-08
1.0161e-07
1.36949e-07
3.59617e-07
9.89119e-07
2.65322e-06
7.45403e-06
2.10433e-05
5.7224e-05
0.000148899
0.000366117
0.000864899
0.00185277
0.00337389
0.00422829
0.00407374
0.0018246
-0.00253344
-0.00347509
-0.00201403
-0.00103511
-0.000535592
-0.00027762
-0.000149731
-8.23353e-05
-4.56613e-05
-2.5303e-05
-1.39217e-05
-7.46185e-06
-4.05492e-06
-2.26803e-06
-1.37211e-06
-1.46202e-06
3.55404e-07
1.78701e-06
5.03795e-07
5.81683e-08
1.54699e-09
3.00487e-09
-4.78863e-39
4.09034e-38
-6.1421e-39
-1.43979e-37
-7.6548e-39
-1.72102e-37
2.83885e-37
-1.90421e-37
2.25781e-37
7.3988e-37
3.71741e-37
7.8075e-37
-1.74844e-36
-4.09488e-37
2.45588e-37
7.68785e-37
-2.55162e-36
2.31977e-35
2.37742e-35
-1.87621e-34
7.66713e-34
-1.33909e-33
-2.86318e-33
-1.18322e-33
3.21669e-32
6.23116e-32
3.56156e-31
-1.18155e-30
-6.45491e-30
1.98602e-29
-5.19822e-29
-2.35267e-28
-1.89699e-28
-9.09526e-28
1.35838e-28
1.79441e-25
1.64576e-24
1.00323e-25
2.50166e-25
2.4802e-25
-1.91261e-24
3.06452e-26
-1.39367e-22
2.67774e-22
2.91697e-21
1.94882e-20
2.10966e-19
2.32761e-18
2.01298e-17
1.74194e-16
1.86855e-15
1.94089e-14
1.9475e-13
1.7227e-12
1.00948e-11
5.40849e-11
2.83195e-10
1.34772e-09
5.38087e-09
1.73514e-08
4.41307e-08
8.05712e-08
9.99539e-08
1.3311e-07
3.49395e-07
9.61801e-07
2.57893e-06
7.23765e-06
2.04741e-05
5.58114e-05
0.000146031
0.00036075
0.000858196
0.00185455
0.00341659
0.0043431
0.00420301
0.00192951
-0.00257089
-0.00353832
-0.00204268
-0.00104872
-0.000542165
-0.000280951
-0.00015139
-8.31585e-05
-4.60552e-05
-2.54763e-05
-1.3985e-05
-7.4833e-06
-4.06398e-06
-2.27799e-06
-1.39522e-06
-1.5377e-06
6.47762e-07
1.74523e-06
4.58771e-07
4.83248e-08
-1.78913e-09
2.80916e-09
9.44235e-39
-1.20045e-38
-7.22316e-38
9.70284e-43
-9.61833e-38
-1.9278e-37
2.89073e-37
3.20672e-37
2.48579e-37
-3.45127e-37
2.784e-37
3.5332e-37
-2.34458e-36
-1.21467e-36
8.50115e-37
7.04879e-37
-2.57604e-36
2.17729e-35
5.66945e-35
-3.34182e-34
-4.06963e-35
2.82569e-33
6.30331e-33
2.05917e-32
6.11332e-32
1.8303e-31
5.74523e-31
-6.29017e-31
7.21282e-30
1.28635e-29
-6.80659e-29
1.38229e-28
-5.51809e-28
-2.10106e-28
4.14354e-27
1.79398e-25
3.13504e-24
-9.97853e-25
-1.45875e-26
7.70249e-25
-1.42849e-24
4.92892e-24
7.38144e-23
3.57884e-22
3.15476e-21
2.72675e-20
2.87159e-19
2.58322e-18
2.25515e-17
2.24473e-16
2.3717e-15
2.44677e-14
2.31646e-13
1.98014e-12
1.13517e-11
5.87981e-11
2.97202e-10
1.39474e-09
5.46675e-09
1.74231e-08
4.39638e-08
7.98823e-08
9.862e-08
1.29915e-07
3.4148e-07
9.43256e-07
2.52112e-06
7.04976e-06
1.99591e-05
5.4663e-05
0.000143819
0.00035661
0.000853005
0.00185554
0.00344656
0.00443223
0.00430655
0.00201734
-0.00259583
-0.00359189
-0.00206816
-0.00106103
-0.000548124
-0.00028425
-0.000153143
-8.4079e-05
-4.65242e-05
-2.57016e-05
-1.40827e-05
-7.53051e-06
-4.08853e-06
-2.29518e-06
-1.4207e-06
-1.59167e-06
8.86543e-07
1.71228e-06
4.27642e-07
4.12509e-08
-2.82284e-09
2.57505e-09
-3.88212e-39
-1.37312e-38
-4.11791e-38
-4.87597e-38
2.22458e-41
-9.38182e-38
-1.93004e-37
-3.90331e-37
-1.94352e-37
1.97913e-37
8.64776e-37
-1.00084e-38
1.60651e-36
6.10702e-38
-1.03946e-37
3.59305e-36
-6.31349e-36
5.29776e-35
1.13482e-34
-4.31232e-34
4.36606e-34
-2.12119e-33
-5.52669e-33
-4.91991e-32
-1.61349e-32
-9.99071e-32
4.59891e-31
1.59816e-30
1.08313e-29
-1.08865e-29
1.04896e-28
1.58151e-28
-7.2883e-28
2.72204e-27
7.2075e-27
-9.27057e-27
-3.80896e-26
-3.5739e-25
-4.65206e-26
-1.43945e-25
3.49852e-24
-2.31875e-24
1.53754e-22
1.66555e-22
4.57747e-21
3.49719e-20
3.32982e-19
2.63821e-18
2.69378e-17
2.76167e-16
2.80908e-15
2.82302e-14
2.60852e-13
2.17298e-12
1.22348e-11
6.24758e-11
3.08644e-10
1.42435e-09
5.52152e-09
1.74409e-08
4.37444e-08
7.9217e-08
9.74784e-08
1.27044e-07
3.34023e-07
9.2605e-07
2.47242e-06
6.89577e-06
1.95556e-05
5.36658e-05
0.000141718
0.000352295
0.000846187
0.00185278
0.00346699
0.00450625
0.0043972
0.00210624
-0.00260611
-0.00364232
-0.00209498
-0.00107418
-0.000554602
-0.000287778
-0.000155028
-8.50853e-05
-4.7053e-05
-2.59694e-05
-1.42104e-05
-7.5963e-06
-4.12383e-06
-2.31752e-06
-1.44777e-06
-1.63317e-06
1.06284e-06
1.68865e-06
4.06296e-07
3.64775e-08
-3.56622e-09
2.41363e-09
2.7574e-39
-6.00877e-39
-5.4259e-38
1.23926e-38
9.63578e-38
-9.64043e-38
1.14136e-37
1.27271e-37
7.19062e-39
2.90714e-37
-5.11973e-37
9.96791e-37
-8.70527e-37
-2.7806e-37
-6.55839e-37
-5.85964e-36
1.01606e-35
-4.96328e-35
-2.6733e-35
8.93839e-34
-9.43624e-35
3.91114e-33
-7.91003e-33
-2.41712e-32
1.55474e-31
3.72447e-31
-3.57341e-31
3.59804e-30
-1.22991e-29
7.96944e-30
4.1394e-30
3.46004e-28
-1.18176e-28
3.5904e-27
5.34373e-27
-2.44314e-26
-3.78316e-24
1.15205e-24
-3.87069e-25
4.55625e-25
-2.5934e-24
-6.10083e-23
-2.47049e-22
1.34207e-21
3.62255e-21
4.47608e-20
3.65745e-19
3.22162e-18
3.2718e-17
3.30545e-16
3.36897e-15
3.26471e-14
2.92286e-13
2.36596e-12
1.30516e-11
6.53814e-11
3.17406e-10
1.44462e-09
5.54075e-09
1.73742e-08
4.33955e-08
7.85004e-08
9.64967e-08
1.24343e-07
3.26285e-07
9.05569e-07
2.42016e-06
6.74273e-06
1.91428e-05
5.2623e-05
0.000139399
0.000347412
0.000837519
0.001844
0.00347537
0.00456902
0.00447288
0.00219924
-0.00259647
-0.00369028
-0.0021242
-0.00108876
-0.00056188
-0.000291641
-0.000157087
-8.6193e-05
-4.76452e-05
-2.62793e-05
-1.43667e-05
-7.67832e-06
-4.16806e-06
-2.34395e-06
-1.47432e-06
-1.66545e-06
1.1823e-06
1.67596e-06
3.93411e-07
3.33426e-08
-4.07656e-09
2.31281e-09
-6.8744e-39
-1.29074e-38
3.31885e-38
-9.60992e-38
1.69733e-37
-9.96453e-38
2.14364e-37
7.81842e-38
-3.7757e-38
-3.83704e-37
-4.26484e-38
-7.75277e-37
1.6243e-37
8.51819e-37
8.96516e-37
3.2443e-37
2.68723e-35
8.16372e-36
-1.79456e-34
-3.00167e-34
-9.56887e-34
-4.92593e-33
-2.90726e-33
5.98855e-32
4.04993e-32
8.38269e-33
-1.84524e-30
-2.48829e-30
4.18719e-30
1.53393e-29
-2.37444e-28
-2.88345e-28
-2.68617e-28
-2.59724e-27
1.84823e-27
2.92694e-26
5.47338e-23
-1.12221e-24
2.89062e-25
1.35891e-24
-2.83369e-24
2.31814e-23
3.41875e-22
8.17796e-22
4.94169e-21
4.24086e-20
4.09465e-19
3.96686e-18
3.91431e-17
3.9469e-16
3.88041e-15
3.65939e-14
3.19688e-13
2.52797e-12
1.3665e-11
6.7446e-11
3.22955e-10
1.45285e-09
5.52286e-09
1.72185e-08
4.28752e-08
7.75371e-08
9.54816e-08
1.20817e-07
3.16318e-07
8.83975e-07
2.35434e-06
6.56249e-06
1.86211e-05
5.1339e-05
0.000136265
0.000340765
0.000825822
0.00182832
0.00347156
0.00462093
0.00453742
0.00229882
-0.00256581
-0.00373733
-0.00215678
-0.0011052
-0.000570134
-0.000295907
-0.000159348
-8.74099e-05
-4.83018e-05
-2.66294e-05
-1.45493e-05
-7.7744e-06
-4.21975e-06
-2.37376e-06
-1.49938e-06
-1.69189e-06
1.27377e-06
1.67415e-06
3.8684e-07
3.15277e-08
-4.40018e-09
2.25921e-09
3.03181e-39
-9.93042e-39
4.04857e-38
6.56423e-38
1.42038e-38
-3.27217e-37
4.79257e-39
1.89426e-37
-3.70351e-37
1.91836e-37
-6.19552e-37
4.71005e-37
5.19642e-38
-5.93901e-37
2.11857e-36
-5.36321e-36
2.87516e-35
-2.02338e-35
-6.45423e-35
-7.22643e-34
-2.32939e-33
-3.27772e-33
1.82447e-32
6.46271e-32
5.25496e-32
5.98872e-31
-8.45369e-31
1.55472e-30
1.45552e-29
-5.19513e-30
-2.36851e-29
1.78626e-28
1.44495e-27
3.73811e-27
1.07695e-26
1.19797e-26
-2.11149e-23
-1.04901e-24
4.16702e-25
6.10484e-25
-1.74797e-25
-7.89618e-23
3.3926e-22
7.90929e-22
5.80924e-21
5.65641e-20
4.957e-19
4.72103e-18
4.68153e-17
4.59308e-16
4.4268e-15
4.08461e-14
3.47024e-13
2.63634e-12
1.4085e-11
6.89831e-11
3.25868e-10
1.45144e-09
5.47979e-09
1.7021e-08
4.23397e-08
7.6683e-08
9.46227e-08
1.17635e-07
3.06101e-07
8.58562e-07
2.28774e-06
6.37825e-06
1.81064e-05
4.99577e-05
0.000132198
0.000333868
0.000811777
0.00180729
0.00345562
0.00466728
0.0045982
0.00241487
-0.00251365
-0.00378523
-0.00219325
-0.00112358
-0.000579334
-0.000300544
-0.000161771
-8.87152e-05
-4.90095e-05
-2.70113e-05
-1.47527e-05
-7.88131e-06
-4.27715e-06
-2.40623e-06
-1.52287e-06
-1.7156e-06
1.32843e-06
1.68135e-06
3.85119e-07
3.07068e-08
-4.58339e-09
2.2415e-09
6.02614e-39
1.25901e-38
-7.8764e-39
1.93912e-41
5.14692e-38
1.86034e-37
-1.92007e-38
2.82787e-37
5.36371e-37
1.26183e-37
-5.9671e-37
-7.21018e-37
-1.47529e-37
-3.4772e-38
4.80573e-37
2.33855e-36
-7.84579e-36
-2.21882e-35
6.53551e-35
-4.13696e-34
2.90287e-33
4.1052e-33
2.75294e-32
7.43493e-32
-3.98223e-31
-8.76648e-31
-9.54264e-31
1.239e-31
-1.04161e-29
-3.1086e-29
2.1061e-28
4.52406e-28
-1.57343e-27
-3.38196e-27
1.39122e-26
-1.05943e-25
2.16006e-25
-1.83837e-24
7.89427e-25
5.98311e-25
1.11183e-24
6.60968e-24
3.46192e-22
7.51518e-22
7.20302e-21
6.37547e-20
5.86395e-19
5.67473e-18
5.54556e-17
5.40962e-16
5.19429e-15
4.77447e-14
4.103e-13
2.65985e-12
1.43757e-11
6.99275e-11
3.26224e-10
1.44019e-09
5.40437e-09
1.6704e-08
4.15467e-08
7.55888e-08
9.39377e-08
1.14711e-07
2.96247e-07
8.34403e-07
2.22159e-06
6.18261e-06
1.75987e-05
4.86686e-05
0.000128993
0.00032649
0.000795717
0.0017807
0.00343086
0.00470121
0.00464519
0.00252554
-0.00244648
-0.00382857
-0.00223044
-0.00114259
-0.000588929
-0.000305351
-0.000164316
-9.00751e-05
-4.97463e-05
-2.74114e-05
-1.49695e-05
-7.99538e-06
-4.33825e-06
-2.44036e-06
-1.54473e-06
-1.73765e-06
1.35976e-06
1.69577e-06
3.87086e-07
3.06482e-08
-4.65606e-09
2.25047e-09
2.96981e-39
-1.71742e-38
9.3377e-39
1.20549e-37
1.2855e-37
-1.83129e-38
1.6887e-38
-9.24722e-38
-5.35721e-38
9.14006e-37
3.25784e-37
1.5781e-36
2.02658e-37
-1.39846e-36
-1.7252e-36
1.00833e-35
2.85339e-35
4.22871e-35
4.18517e-35
-1.45741e-33
3.33958e-33
-7.33737e-33
6.61617e-33
-1.07663e-31
-5.46137e-32
-8.74748e-31
2.78055e-30
5.89287e-30
-9.91441e-30
3.13295e-29
-1.92346e-28
-7.34637e-28
-1.90873e-27
1.87961e-27
-5.82971e-27
-2.85477e-26
1.25901e-23
-6.27399e-26
-3.75279e-25
-4.20053e-25
-2.09117e-25
-1.54517e-23
3.37588e-22
1.50635e-21
6.92011e-21
7.27981e-20
6.81776e-19
6.53929e-18
6.34763e-17
6.13616e-16
5.84055e-15
5.32088e-14
4.49597e-13
2.63292e-12
1.46084e-11
7.05296e-11
3.24883e-10
1.4243e-09
5.3186e-09
1.64415e-08
4.08891e-08
7.46655e-08
9.32765e-08
1.11926e-07
2.86603e-07
8.11e-07
2.15903e-06
5.99595e-06
1.70899e-05
4.74536e-05
0.000125363
0.000318265
0.000778794
0.0017527
0.00340143
0.00472677
0.00468318
0.0026371
-0.00236719
-0.00386948
-0.00226845
-0.00116201
-0.000598724
-0.00031023
-0.000166893
-9.14811e-05
-5.05212e-05
-2.78376e-05
-1.51998e-05
-8.11548e-06
-4.40262e-06
-2.47637e-06
-1.5657e-06
-1.75869e-06
1.37531e-06
1.71613e-06
3.91838e-07
3.1165e-08
-4.64296e-09
2.27875e-09
-1.66247e-40
-2.41141e-38
7.57761e-40
-4.25268e-38
4.91679e-38
9.64935e-38
-4.55545e-39
-5.60752e-37
-2.12949e-37
6.50603e-37
2.55124e-37
-1.36973e-36
9.38593e-38
-2.23875e-37
1.63473e-36
8.02981e-36
3.47389e-35
-5.27638e-35
-1.85824e-34
1.10949e-33
8.44844e-34
-9.3132e-33
4.42256e-32
-1.33247e-32
8.64057e-32
-6.11906e-31
-3.79297e-30
-8.79354e-30
-1.97952e-29
4.37118e-29
4.99878e-29
-1.08002e-28
-1.36836e-27
-4.93829e-27
6.77868e-27
-2.53056e-25
-1.33397e-24
-2.24105e-24
1.22336e-25
-4.5026e-25
-3.00529e-24
-6.20694e-24
3.49994e-22
9.57458e-22
9.60282e-21
8.49118e-20
7.64137e-19
7.21113e-18
6.89057e-17
6.5618e-16
6.15145e-15
5.51337e-14
4.56887e-13
2.61162e-12
1.49078e-11
7.09413e-11
3.22437e-10
1.40272e-09
5.2226e-09
1.61294e-08
4.02547e-08
7.37744e-08
9.27167e-08
1.09315e-07
2.77014e-07
7.87346e-07
2.09611e-06
5.80928e-06
1.65592e-05
4.60985e-05
0.000122063
0.000310801
0.000762548
0.00172358
0.00336579
0.00474732
0.00471778
0.00275008
-0.00227791
-0.00390687
-0.00230768
-0.00118241
-0.000609072
-0.000315268
-0.000169528
-9.28999e-05
-5.12977e-05
-2.82651e-05
-1.54358e-05
-8.23954e-06
-4.46833e-06
-2.51214e-06
-1.58504e-06
-1.77856e-06
1.37767e-06
1.73889e-06
3.98104e-07
3.19763e-08
-4.59425e-09
2.31964e-09
-6.44746e-39
3.58549e-38
-4.83129e-38
1.12246e-37
-4.47722e-38
-5.66488e-38
-5.5419e-40
2.81091e-39
-2.06361e-37
-5.46964e-38
-1.22512e-36
4.63689e-37
-2.77853e-37
1.43199e-37
5.18406e-36
-2.97037e-36
-4.98761e-35
-2.50236e-35
1.55627e-34
-1.5841e-33
4.28775e-33
1.19486e-32
-5.32988e-32
1.08679e-31
2.94885e-32
-3.50482e-31
2.6261e-30
-1.507e-29
1.06679e-29
9.58636e-29
3.63011e-29
-3.86581e-29
1.37122e-29
2.06179e-29
1.02401e-26
-1.14416e-26
-7.50463e-25
-2.10615e-24
-6.63666e-25
-1.51757e-24
-3.75024e-24
-1.54899e-23
1.93746e-22
9.16523e-22
1.05906e-20
9.00014e-20
8.2702e-19
7.70688e-18
7.27432e-17
6.85529e-16
6.34756e-15
5.62534e-14
4.59095e-13
2.58797e-12
1.51068e-11
7.11291e-11
3.19668e-10
1.38335e-09
5.13779e-09
1.5834e-08
3.9544e-08
7.28404e-08
9.22381e-08
1.07048e-07
2.68391e-07
7.65916e-07
2.03835e-06
5.65166e-06
1.60914e-05
4.48521e-05
0.000119012
0.000303564
0.000747226
0.00169571
0.00333105
0.00476158
0.00474579
0.00285718
-0.0021825
-0.00394216
-0.0023468
-0.00120258
-0.000619241
-0.000320251
-0.000172116
-9.42867e-05
-5.20539e-05
-2.86803e-05
-1.56638e-05
-8.35882e-06
-4.53198e-06
-2.54724e-06
-1.60336e-06
-1.79726e-06
1.36661e-06
1.76432e-06
4.05717e-07
3.31031e-08
-4.48859e-09
2.36946e-09
9.40312e-39
1.25632e-38
-2.04069e-40
7.56571e-39
5.92354e-38
1.15578e-37
2.88602e-37
-2.10612e-37
-1.30305e-37
1.95524e-37
1.27147e-38
-4.52399e-39
3.05757e-37
9.04773e-38
-3.93417e-36
-1.42154e-35
4.29731e-35
-1.84496e-34
-3.15257e-34
-1.85098e-33
-1.14623e-33
9.76312e-33
-3.0675e-32
8.45607e-32
3.72797e-31
1.42504e-31
-1.25859e-31
8.5399e-30
-2.90908e-29
8.81002e-29
-1.48448e-28
5.95984e-28
-7.60239e-28
2.4098e-27
-7.85304e-26
-2.9524e-26
-6.55673e-25
-2.01714e-24
-7.09074e-25
8.49662e-25
4.25877e-24
-7.61056e-23
6.14307e-23
2.1452e-21
1.09228e-20
9.49552e-20
8.75077e-19
8.08457e-18
7.58647e-17
7.08681e-16
6.50338e-15
5.69415e-14
4.59696e-13
2.5671e-12
1.5205e-11
7.10055e-11
3.15844e-10
1.36142e-09
5.04328e-09
1.55622e-08
3.89226e-08
7.20092e-08
9.18228e-08
1.05101e-07
2.60513e-07
7.46182e-07
1.98543e-06
5.49749e-06
1.56187e-05
4.37318e-05
0.000116275
0.000297084
0.000732922
0.00166907
0.00329731
0.00477151
0.00476881
0.00295554
-0.00209092
-0.0039722
-0.00238263
-0.0012211
-0.000628568
-0.000324783
-0.000174472
-9.55504e-05
-5.27438e-05
-2.90597e-05
-1.58725e-05
-8.4678e-06
-4.58967e-06
-2.57865e-06
-1.61895e-06
-1.81251e-06
1.36014e-06
1.78843e-06
4.1324e-07
3.42556e-08
-4.37455e-09
2.4194e-09
9.51584e-39
1.32194e-38
-9.67286e-38
-4.81617e-38
1.38568e-38
-3.8602e-37
-1.62916e-38
-6.55709e-37
-5.2809e-37
3.90392e-38
-7.20766e-37
-2.86334e-38
-3.87108e-37
2.82647e-37
6.11252e-36
6.56361e-36
7.69693e-36
1.69094e-34
8.02468e-35
-7.59345e-34
-2.54296e-33
1.23296e-32
5.97614e-32
-1.79304e-31
3.30096e-31
2.27136e-31
-1.53564e-31
-8.5755e-30
-3.0421e-29
7.70824e-29
-2.32742e-29
-2.68116e-28
1.35722e-27
-5.16214e-27
-3.46641e-27
7.93585e-27
5.64091e-24
8.1412e-26
6.92283e-25
-5.97272e-25
5.69252e-24
5.64825e-24
4.63879e-23
1.60719e-21
1.00583e-20
1.03946e-19
9.12462e-19
8.39941e-18
7.80503e-17
7.23993e-16
6.6009e-15
5.7376e-14
4.59667e-13
2.54877e-12
1.52533e-11
7.07742e-11
3.12193e-10
1.3397e-09
4.95849e-09
1.53028e-08
3.83755e-08
7.13053e-08
9.15018e-08
1.03605e-07
2.54079e-07
7.29805e-07
1.94159e-06
5.37115e-06
1.52571e-05
4.27586e-05
0.000113931
0.000291517
0.000720426
0.00164633
0.00326759
0.00477765
0.00478657
0.00303714
-0.00201005
-0.00399601
-0.00241321
-0.00123685
-0.000636543
-0.000328656
-0.000176487
-9.66324e-05
-5.33352e-05
-2.93856e-05
-1.60523e-05
-8.56186e-06
-4.64002e-06
-2.60598e-06
-1.63249e-06
-1.82599e-06
1.35011e-06
1.81022e-06
4.20309e-07
3.53829e-08
-4.25423e-09
2.46611e-09
6.72267e-39
2.42145e-38
-5.04236e-38
6.42642e-41
-9.64193e-38
8.98936e-38
7.8864e-38
5.84015e-37
7.60497e-37
2.41706e-38
2.53251e-38
-2.17485e-37
-1.28083e-37
6.80054e-37
6.1012e-36
-6.75082e-36
5.59144e-35
-1.62229e-35
2.63529e-34
-5.7518e-34
-2.37474e-33
1.17909e-32
1.29658e-32
7.8637e-33
3.39363e-31
-4.45719e-31
-4.60864e-31
-1.36392e-29
1.90373e-30
1.67248e-29
-3.69026e-30
-5.18763e-28
1.47844e-27
-1.79142e-27
-1.32864e-26
-1.30699e-26
5.95017e-24
2.43844e-24
8.46202e-25
1.79417e-24
5.51425e-25
-1.27599e-22
7.20276e-23
1.54469e-21
1.27236e-20
1.0498e-19
9.3522e-19
8.62766e-18
7.97248e-17
7.3611e-16
6.67481e-15
5.76882e-14
4.59526e-13
2.53515e-12
1.52691e-11
7.05149e-11
3.09042e-10
1.3236e-09
4.89631e-09
1.51173e-08
3.79717e-08
7.07428e-08
9.12481e-08
1.02411e-07
2.48896e-07
7.16692e-07
1.90648e-06
5.26909e-06
1.496e-05
4.19969e-05
0.000112112
0.000287239
0.000710881
0.00162848
0.00324362
0.00478088
0.00479936
0.00310061
-0.00194392
-0.00401364
-0.00243761
-0.00124961
-0.00064296
-0.000331761
-0.000178099
-9.74961e-05
-5.38071e-05
-2.96457e-05
-1.61959e-05
-8.63693e-06
-4.67993e-06
-2.62757e-06
-1.64307e-06
-1.83651e-06
1.33245e-06
1.82714e-06
4.25984e-07
3.63022e-08
-4.15357e-09
2.50512e-09
-2.47319e-40
-8.18985e-39
5.76367e-38
2.66953e-38
-9.64632e-38
-4.18058e-40
9.91471e-38
5.62035e-39
1.70913e-37
-1.87148e-37
3.18298e-37
-1.35633e-37
-2.44865e-37
1.80147e-36
-1.76262e-36
-1.29367e-35
-1.24002e-35
-1.59439e-35
-7.71456e-34
-4.84794e-34
6.29848e-33
3.07336e-33
4.20496e-32
1.34546e-31
2.5054e-31
-5.64816e-31
-3.44971e-30
2.96203e-31
2.05661e-30
-4.99934e-29
-2.6275e-28
-6.30146e-28
1.93293e-27
3.36741e-27
6.40454e-27
-2.08339e-26
1.1779e-24
2.0413e-24
-7.00729e-25
-1.59928e-24
3.3557e-26
-1.46461e-22
3.81539e-23
1.60584e-21
1.27883e-20
1.09729e-19
9.64277e-19
8.78673e-18
8.10303e-17
7.45343e-16
6.72987e-15
5.79378e-14
4.59585e-13
2.5263e-12
1.52758e-11
7.03236e-11
3.06879e-10
1.31208e-09
4.85141e-09
1.49839e-08
3.76835e-08
7.03647e-08
9.11028e-08
1.01693e-07
2.45515e-07
7.07895e-07
1.88279e-06
5.20055e-06
1.47598e-05
4.14802e-05
0.000110853
0.00028417
0.000703966
0.00161582
0.00322647
0.00478238
0.00480774
0.00314476
-0.0018963
-0.00402543
-0.0024548
-0.00125855
-0.000647471
-0.000333945
-0.000179232
-9.8104e-05
-5.41395e-05
-2.9829e-05
-1.62973e-05
-8.68989e-06
-4.70811e-06
-2.64281e-06
-1.6504e-06
-1.84348e-06
1.32377e-06
1.8397e-06
4.30207e-07
3.69987e-08
-4.07442e-09
2.53374e-09
-3.17907e-41
-1.09061e-38
2.66006e-38
-4.77944e-38
2.1889e-38
8.57852e-38
-1.94113e-37
3.6544e-37
-1.48598e-38
2.28352e-37
-3.96427e-37
1.61283e-37
2.15392e-37
1.2354e-36
3.89034e-36
2.16519e-35
2.94825e-35
-3.68637e-35
6.99147e-35
1.3579e-33
3.22675e-34
-2.01334e-32
7.32841e-33
2.15955e-31
1.43433e-31
-4.1951e-31
5.80843e-31
8.14652e-30
-5.02286e-29
-6.84658e-29
-3.46375e-29
-6.89925e-28
-2.33697e-28
-2.98528e-27
-5.41771e-26
5.22242e-26
-1.08705e-24
-4.95485e-25
-9.22049e-25
-1.6642e-24
-3.54984e-24
-1.39715e-22
9.33291e-23
1.63779e-21
1.24678e-20
1.09198e-19
9.76275e-19
8.90644e-18
8.19272e-17
7.51252e-16
6.76675e-15
5.81136e-14
4.59884e-13
2.52256e-12
1.52888e-11
7.02547e-11
3.05857e-10
1.30646e-09
4.82877e-09
1.49149e-08
3.75311e-08
7.01708e-08
9.10378e-08
1.0135e-07
2.43777e-07
7.03329e-07
1.8704e-06
5.16405e-06
1.46532e-05
4.12002e-05
0.000110173
0.000282615
0.000700441
0.00160909
0.00321723
0.00478281
0.00481189
0.00316798
-0.00187055
-0.00403141
-0.00246398
-0.00126336
-0.000649906
-0.000335123
-0.000179844
-9.84325e-05
-5.43191e-05
-2.99281e-05
-1.6352e-05
-8.71853e-06
-4.72335e-06
-2.65097e-06
-1.65419e-06
-1.84664e-06
1.32053e-06
1.84656e-06
4.32463e-07
3.73638e-08
-4.03366e-09
2.54918e-09
-1.14325e-39
2.42924e-38
-2.41329e-38
-1.77541e-38
2.12872e-37
1.47974e-37
-2.89327e-37
2.86548e-37
7.66082e-38
-5.25465e-37
1.07915e-36
9.28181e-38
1.02603e-37
1.29756e-36
-6.85022e-36
-2.98559e-36
-1.16884e-35
-3.59365e-35
-8.09034e-34
9.64079e-35
-4.11751e-33
2.8609e-32
-3.52318e-32
1.86584e-31
4.48308e-31
-6.82143e-31
-1.08162e-30
-3.74245e-30
-3.76222e-29
-1.74728e-29
-3.59777e-28
-1.23892e-28
3.72869e-27
-4.27301e-27
3.04284e-26
1.29749e-26
-3.67783e-24
-4.17601e-27
-7.53108e-25
-3.23549e-25
6.78628e-24
-1.23973e-22
5.72733e-23
1.52472e-21
1.25421e-20
1.1309e-19
9.84255e-19
8.96562e-18
8.24336e-17
7.55446e-16
6.79663e-15
5.82879e-14
4.60626e-13
2.52363e-12
1.53188e-11
7.03167e-11
3.05809e-10
1.30557e-09
4.8244e-09
1.49008e-08
3.75001e-08
7.01333e-08
9.10389e-08
1.0131e-07
2.43451e-07
7.0243e-07
1.868e-06
5.15719e-06
1.46334e-05
4.11502e-05
0.000110055
0.000282341
0.000699771
0.00160796
0.00321567
0.00478273
0.00481243
0.00317152
-0.00186648
-0.00403222
-0.00246535
-0.00126407
-0.000650266
-0.000335298
-0.000179935
-9.84814e-05
-5.43458e-05
-2.99428e-05
-1.63601e-05
-8.72279e-06
-4.72561e-06
-2.65226e-06
-1.65502e-06
-1.84783e-06
1.31843e-06
1.84754e-06
4.32841e-07
3.74338e-08
-4.02409e-09
2.55148e-09
-6.13056e-43
1.75865e-39
-3.42581e-40
7.36235e-39
1.44722e-37
2.62807e-38
-2.89581e-37
2.03196e-37
2.31341e-37
-6.41302e-38
2.27715e-37
2.1499e-37
-4.02217e-37
-1.06327e-36
-2.59542e-36
-1.90925e-35
-3.68876e-36
5.16455e-35
5.87027e-34
4.83811e-34
-5.00115e-33
1.40753e-32
8.56726e-33
1.63996e-32
3.44131e-31
-8.11757e-31
4.6289e-30
-1.14874e-29
-4.3906e-29
9.32613e-30
2.4193e-28
-9.76017e-28
-3.05457e-28
6.30641e-27
1.01216e-26
-4.29173e-25
-1.14087e-23
3.13723e-26
1.95612e-26
-1.1026e-25
-2.46276e-25
-7.09232e-23
4.20671e-23
1.4947e-21
1.27235e-20
1.12945e-19
9.88228e-19
8.99491e-18
8.27553e-17
7.58413e-16
6.82181e-15
5.84951e-14
4.62174e-13
2.53168e-12
1.53781e-11
7.05803e-11
3.07164e-10
1.31128e-09
4.84429e-09
1.49568e-08
3.76188e-08
7.02885e-08
9.11111e-08
1.01616e-07
2.44783e-07
7.05786e-07
1.87698e-06
5.18323e-06
1.47088e-05
4.13475e-05
0.000110533
0.000283487
0.000701996
0.00161282
0.00322232
0.00478226
0.00480926
0.00315456
-0.00188518
-0.00402776
-0.00245861
-0.00126056
-0.000648488
-0.000334441
-0.000179491
-9.82432e-05
-5.42156e-05
-2.98709e-05
-1.63203e-05
-8.70195e-06
-4.71451e-06
-2.6462e-06
-1.65194e-06
-1.84452e-06
1.32465e-06
1.84254e-06
4.31033e-07
3.71242e-08
-4.06047e-09
2.53911e-09
3.18528e-39
-3.33481e-38
-1.20733e-38
-6.53637e-38
-5.90557e-38
-5.47089e-39
7.49634e-38
1.41935e-37
-5.17595e-39
1.03128e-38
3.33382e-37
-8.31913e-37
-3.31292e-37
-1.34803e-36
3.84601e-36
5.28697e-36
2.37287e-35
-3.52614e-35
-8.158e-34
1.27229e-35
-5.39865e-33
2.33995e-32
-2.46951e-32
-2.00318e-31
3.32658e-31
3.39578e-31
1.88895e-30
-1.1134e-29
8.4906e-30
1.26973e-29
7.22168e-30
-2.67167e-28
-3.39886e-27
5.09937e-27
-1.15413e-26
5.49421e-26
3.65651e-24
-4.0578e-24
-9.05608e-25
7.38564e-25
6.70685e-24
-6.60026e-23
6.91082e-23
1.58847e-21
1.28746e-20
1.12808e-19
9.82171e-19
8.99585e-18
8.2752e-17
7.59447e-16
6.83988e-15
5.87131e-14
4.64364e-13
2.54627e-12
1.54678e-11
7.10511e-11
3.09931e-10
1.32352e-09
4.88769e-09
1.50795e-08
3.78792e-08
7.06237e-08
9.12439e-08
1.02259e-07
2.47704e-07
7.132e-07
1.89679e-06
5.24082e-06
1.48755e-05
4.17822e-05
0.00011159
0.000286017
0.000707646
0.00162344
0.00323685
0.00478118
0.00480242
0.00311757
-0.00192559
-0.00401803
-0.00244408
-0.00125295
-0.000644646
-0.000332587
-0.000178529
-9.77276e-05
-5.39337e-05
-2.97153e-05
-1.62341e-05
-8.65696e-06
-4.69058e-06
-2.63331e-06
-1.64593e-06
-1.83905e-06
1.33801e-06
1.83172e-06
4.27334e-07
3.65125e-08
-4.12976e-09
2.51342e-09
-3.46584e-39
5.77232e-39
-1.50293e-38
5.59202e-38
-8.83952e-40
-7.11774e-38
2.8174e-38
1.13337e-37
-5.92102e-37
3.61354e-37
-1.2497e-36
-2.21252e-37
2.44327e-38
-1.32134e-36
-2.51758e-37
1.95785e-35
-5.85607e-35
-2.23153e-34
-7.18558e-34
-2.20307e-34
6.16308e-33
-1.99367e-32
1.56327e-32
6.97287e-32
2.97606e-31
1.06598e-30
-3.44986e-31
-3.07011e-30
5.16851e-29
9.04536e-29
7.03103e-29
5.11198e-28
2.30066e-27
-7.84464e-27
1.01211e-26
2.19032e-25
-5.70483e-24
-2.16593e-25
7.67313e-25
1.85309e-24
-8.90821e-25
-4.95752e-25
4.52022e-23
1.52779e-21
1.26551e-20
1.09245e-19
9.81554e-19
8.94923e-18
8.25765e-17
7.59383e-16
6.85571e-15
5.89851e-14
4.67556e-13
2.5691e-12
1.55976e-11
7.17727e-11
3.14342e-10
1.34337e-09
4.95868e-09
1.52805e-08
3.83005e-08
7.11567e-08
9.14377e-08
1.0329e-07
2.52352e-07
7.24948e-07
1.92818e-06
5.33165e-06
1.51383e-05
4.24655e-05
0.000113247
0.000289924
0.000716883
0.00163978
0.00325885
0.00477896
0.00479172
0.00306107
-0.00198599
-0.00400286
-0.00242228
-0.00124161
-0.000638926
-0.000329823
-0.000177094
-9.69575e-05
-5.35125e-05
-2.94827e-05
-1.61054e-05
-8.58965e-06
-4.65472e-06
-2.614e-06
-1.63675e-06
-1.83021e-06
1.3509e-06
1.81568e-06
4.2185e-07
3.56097e-08
-4.23096e-09
2.47561e-09
6.02201e-39
-2.1544e-38
2.61882e-38
2.67091e-38
1.64585e-37
-1.08918e-38
5.67028e-38
3.67745e-37
8.03106e-38
2.03175e-38
1.85093e-37
-2.21153e-37
7.70467e-37
-1.37949e-36
1.78007e-36
-1.06109e-35
1.40344e-36
-2.14323e-34
-5.92162e-34
-1.66981e-33
5.03118e-33
-9.00272e-33
8.30453e-33
1.80389e-31
-2.35828e-31
2.65113e-31
1.34536e-30
-1.02916e-30
-5.07648e-30
-7.70763e-29
-2.69268e-28
-4.2381e-28
-3.31152e-28
5.93659e-27
1.65546e-25
1.71153e-26
6.99266e-24
-4.58629e-25
8.93092e-25
-2.09147e-25
2.35718e-24
-6.01453e-23
4.25432e-23
1.61148e-21
1.25903e-20
1.10098e-19
9.68094e-19
8.85685e-18
8.20663e-17
7.57261e-16
6.86198e-15
5.92668e-14
4.71577e-13
2.60003e-12
1.57601e-11
7.26927e-11
3.20122e-10
1.36972e-09
5.05375e-09
1.5551e-08
3.887e-08
7.18771e-08
9.16986e-08
1.04757e-07
2.58678e-07
7.4072e-07
1.97015e-06
5.45302e-06
1.54856e-05
4.33737e-05
0.000115418
0.000294994
0.000727877
0.0016609
0.0032871
0.00477514
0.00477723
0.00298697
-0.00206275
-0.00398222
-0.002394
-0.00122691
-0.000631508
-0.000326238
-0.000175227
-9.59566e-05
-5.29655e-05
-2.9181e-05
-1.59385e-05
-8.50246e-06
-4.60841e-06
-2.58897e-06
-1.62498e-06
-1.81882e-06
1.36653e-06
1.79477e-06
4.14854e-07
3.44767e-08
-4.35468e-09
2.42808e-09
6.52166e-39
-2.29563e-38
2.25142e-40
7.9182e-38
1.46032e-38
-4.93548e-38
1.16396e-37