/*--------------------------------*- C++ -*----------------------------------*\
  =========                 |
  \\      /  F ield         | OpenFOAM: The Open Source CFD Toolbox
   \\    /   O peration     | Website:  https://openfoam.org
    \\  /    A nd           | Version:  10
     \\/     M anipulation  |
\*---------------------------------------------------------------------------*/
FoamFile
{
    format      ascii;
    class       volScalarField;
    location    "1";
    object      RR.C3H6;
}
// * * * * * * * * * * * * * * * * * * * * * * * * * * * * * * * * * * * * * //

dimensions      [1 -3 -1 0 0 0 0];

internalField   nonuniform List<scalar> 
4000
(
3.7758e-20
1.34066e-19
7.76899e-20
6.92759e-21
5.21408e-20
4.51059e-20
6.39574e-20
7.33038e-20
5.6997e-20
8.0497e-20
1.03183e-19
6.67884e-20
1.38616e-19
1.23474e-19
1.89705e-19
3.38295e-19
3.0359e-19
1.23614e-19
1.98607e-19
2.88878e-19
5.34069e-20
2.56401e-19
1.7216e-19
2.42544e-19
1.11767e-18
1.12213e-19
1.42148e-18
1.12128e-18
3.10639e-18
9.97306e-18
2.82896e-17
7.89646e-17
2.69374e-16
9.08286e-16
2.96606e-15
9.32401e-15
3.06069e-14
9.74185e-14
3.10051e-13
9.72498e-13
2.90073e-12
8.47062e-12
2.36173e-11
6.3703e-11
1.64903e-10
4.27736e-10
1.07915e-09
2.49844e-09
5.1102e-09
8.93712e-09
1.33637e-08
1.82233e-08
2.48288e-08
4.14393e-08
8.86312e-08
2.29592e-07
6.56927e-07
2.12979e-06
7.12203e-06
2.3074e-05
7.04853e-05
0.000195578
0.000494648
0.000842441
0.00117155
0.00176486
0.00293664
0.00588684
0.0140111
0.0347651
0.0854592
0.211082
0.51863
1.09075
1.65077
1.47097
1.04073
-0.0714347
-1.05228
-1.05141
-0.600529
-0.307676
-0.158688
-0.0836462
-0.0451181
-0.024841
-0.0138112
-0.00767799
-0.00422904
-0.00228894
-0.00120967
-0.000604003
-0.000292479
-0.000134274
-5.80284e-05
-2.00971e-05
-5.7684e-06
-1.57705e-06
-4.02617e-07
-3.8402e-08
1.18574e-19
5.87572e-19
-2.30173e-19
5.65188e-19
6.51509e-19
2.90182e-19
2.29587e-19
3.07584e-20
1.94742e-20
3.73055e-19
1.19736e-19
3.51597e-20
3.11531e-19
1.39164e-19
2.12232e-19
4.47767e-19
5.86669e-19
5.62244e-19
8.5161e-19
1.23515e-18
1.09459e-18
1.54587e-19
1.21018e-18
4.77577e-19
2.46668e-18
1.46754e-18
1.88668e-19
2.77217e-18
2.14195e-18
1.05266e-17
3.73437e-17
1.09405e-16
3.76539e-16
1.26315e-15
4.09955e-15
1.34228e-14
4.25636e-14
1.37305e-13
4.19983e-13
1.28745e-12
3.85496e-12
1.1033e-11
3.08267e-11
8.2013e-11
2.2029e-10
5.71336e-10
1.40331e-09
3.11518e-09
6.07932e-09
1.01625e-08
1.43564e-08
1.87373e-08
2.65991e-08
4.53041e-08
9.78511e-08
2.54969e-07
7.02481e-07
2.21697e-06
7.27424e-06
2.32283e-05
7.047e-05
0.000194416
0.000488653
0.000834238
0.00115405
0.00172722
0.00284519
0.00564271
0.0133177
0.0329989
0.0817247
0.202405
0.500754
1.07072
1.65576
1.49694
1.06482
-0.0525603
-1.05492
-1.05848
-0.603243
-0.308673
-0.159042
-0.0837531
-0.045135
-0.0248249
-0.013784
-0.00765023
-0.00420385
-0.00226864
-0.00119457
-0.000593989
-0.000286155
-0.000130753
-5.598e-05
-1.89645e-05
-5.41222e-06
-1.48769e-06
-3.80365e-07
-3.60895e-08
8.09265e-19
4.36901e-20
2.23909e-20
4.06492e-19
1.56808e-18
4.37655e-19
-1.27697e-19
-1.71624e-19
1.05465e-18
5.2078e-19
7.23956e-19
3.60975e-19
2.02462e-20
4.29356e-19
1.36204e-19
5.33547e-19
3.70371e-19
5.775e-19
1.10666e-18
5.03381e-19
9.83888e-19
-1.77601e-19
3.19367e-20
7.13358e-19
1.40153e-18
3.52841e-18
2.43795e-18
3.26475e-18
6.48547e-18
1.73066e-17
5.14728e-17
1.4943e-16
4.95706e-16
1.64797e-15
5.48972e-15
1.76584e-14
5.56861e-14
1.74235e-13
5.40368e-13
1.61006e-12
4.75371e-12
1.31034e-11
3.77411e-11
9.93969e-11
2.6835e-10
6.80256e-10
1.65113e-09
3.57697e-09
6.67743e-09
1.083e-08
1.49961e-08
1.9644e-08
2.84577e-08
5.08387e-08
1.09288e-07
2.68615e-07
7.26061e-07
2.26862e-06
7.38376e-06
2.34282e-05
7.07009e-05
0.000194269
0.000485194
0.000827764
0.0011401
0.00169625
0.00276838
0.00540393
0.0126979
0.0315811
0.0786387
0.194563
0.484487
1.0503
1.65951
1.52613
1.09139
-0.0338319
-1.06048
-1.06683
-0.606108
-0.309703
-0.159399
-0.0837709
-0.0450833
-0.0247631
-0.0137268
-0.00760145
-0.00416629
-0.00223811
-0.00117223
-0.000579781
-0.000277605
-0.000126123
-5.33189e-05
-1.76463e-05
-5.02787e-06
-1.39046e-06
-3.56299e-07
-3.36552e-08
2.89167e-19
6.26978e-21
9.2184e-20
6.76359e-19
6.1638e-19
8.62732e-19
1.0548e-18
1.53486e-19
1.78206e-19
7.06568e-19
1.37071e-18
1.18575e-18
6.84638e-19
7.62795e-19
8.27764e-19
6.26508e-19
1.24445e-18
7.41049e-19
1.56301e-18
9.41791e-19
1.91934e-19
1.06856e-18
3.38645e-18
1.01618e-18
2.04866e-18
2.58089e-18
2.87014e-19
1.1613e-18
7.18947e-18
1.89731e-17
5.70125e-17
1.99937e-16
6.59644e-16
2.17238e-15
7.08086e-15
2.26418e-14
7.05395e-14
2.21565e-13
6.75989e-13
2.00868e-12
5.87562e-12
1.62767e-11
4.59021e-11
1.20482e-10
3.09344e-10
7.9748e-10
1.88882e-09
3.95598e-09
7.33436e-09
1.12044e-08
1.5306e-08
2.07293e-08
3.09945e-08
5.60251e-08
1.20725e-07
2.75443e-07
7.4479e-07
2.31086e-06
7.46374e-06
2.35194e-05
7.06939e-05
0.000193526
0.000481332
0.000822875
0.00112982
0.00167238
0.00270915
0.00523124
0.0121973
0.0303435
0.0757321
0.187343
0.470175
1.03256
1.66072
1.54798
1.11073
-0.0231769
-1.06908
-1.07451
-0.608243
-0.310694
-0.160329
-0.0830489
-0.0447694
-0.0246067
-0.0136375
-0.00754772
-0.0041389
-0.00219382
-0.00114525
-0.000565053
-0.000269198
-0.000121713
-5.07038e-05
-1.64466e-05
-4.68313e-06
-1.30297e-06
-3.34699e-07
-3.14742e-08
2.94935e-19
3.69844e-19
2.32203e-19
3.73859e-19
2.26848e-19
1.06277e-19
8.33398e-19
1.31686e-19
-1.97884e-20
3.87708e-19
2.86015e-19
3.41383e-19
1.55061e-19
5.17068e-19
4.82847e-19
1.88898e-19
2.03274e-19
8.50405e-19
2.17863e-18
2.12634e-18
1.41118e-18
3.32853e-18
1.68634e-18
1.79618e-18
1.54536e-18
5.03126e-19
2.69552e-18
3.76049e-18
4.03162e-18
2.35648e-17
7.82323e-17
2.70073e-16
8.65962e-16
2.81028e-15
9.03263e-15
2.87531e-14
8.8425e-14
2.66256e-13
8.18671e-13
2.43772e-12
6.97818e-12
1.95224e-11
5.2384e-11
1.40889e-10
3.58365e-10
9.07209e-10
2.08746e-09
4.39404e-09
7.55924e-09
1.13944e-08
1.59081e-08
2.15784e-08
3.3009e-08
6.20187e-08
1.24692e-07
2.83911e-07
7.64453e-07
2.3509e-06
7.54045e-06
2.36646e-05
7.08869e-05
0.000193559
0.000479488
0.000819685
0.00112234
0.00165402
0.00266901
0.00511148
0.0118591
0.0294691
0.0737145
0.182506
0.459626
1.01883
1.66446
1.57215
1.13136
-0.0116268
-1.07646
-1.08109
-0.609921
-0.311259
-0.160512
-0.0831374
-0.0447857
-0.024594
-0.0136143
-0.00752245
-0.00411547
-0.00217602
-0.00113131
-0.000556449
-0.00026377
-0.000118714
-4.87972e-05
-1.55769e-05
-4.42983e-06
-1.23911e-06
-3.18089e-07
-2.9951e-08
3.68303e-20
6.00037e-20
4.16837e-20
4.95357e-19
4.00695e-19
4.40119e-19
5.32767e-19
9.01897e-19
4.50152e-19
-4.95839e-20
9.26439e-20
5.07106e-19
9.18946e-19
4.90116e-19
9.17668e-19
1.14008e-18
8.5825e-19
1.26835e-18
9.13409e-19
6.73667e-19
2.947e-18
2.37694e-18
3.77147e-18
2.17972e-18
2.16239e-18
-1.07712e-18
2.35221e-18
3.51894e-18
1.01085e-17
3.00776e-17
9.54462e-17
3.3013e-16
1.06876e-15
3.48447e-15
1.10195e-14
3.4629e-14
1.06134e-13
3.14791e-13
9.6553e-13
2.96704e-12
8.28598e-12
2.24982e-11
6.05403e-11
1.6084e-10
4.08498e-10
1.00564e-09
2.33427e-09
4.54295e-09
7.75653e-09
1.18765e-08
1.64297e-08
2.24369e-08
3.45782e-08
6.52047e-08
1.30599e-07
2.93574e-07
7.78468e-07
2.38014e-06
7.58314e-06
2.37036e-05
7.08316e-05
0.000193036
0.000477054
0.000816817
0.00111675
0.00164162
0.00263772
0.00500803
0.0115517
0.0287575
0.0721782
0.178675
0.451507
1.00908
1.66606
1.58927
1.14719
-0.00153877
-1.08191
-1.087
-0.611828
-0.312019
-0.16082
-0.0833637
-0.0449016
-0.0246459
-0.0136315
-0.00752194
-0.00410701
-0.00216855
-0.00112382
-0.000551805
-0.000260564
-0.000116862
-4.75039e-05
-1.49983e-05
-4.26072e-06
-1.19636e-06
-3.07446e-07
-2.88585e-08
6.78249e-20
4.37145e-19
2.05396e-20
3.80286e-19
2.31726e-19
2.88967e-19
-1.09667e-19
-6.33044e-20
1.61646e-19
2.00565e-19
5.85245e-19
4.33623e-19
7.92973e-19
1.13818e-18
8.8448e-19
9.9418e-19
2.53861e-19
1.10854e-18
1.24724e-18
8.47071e-19
1.62862e-18
2.45711e-18
2.09583e-19
-1.01928e-19
2.89759e-18
3.67418e-18
1.91227e-18
4.26232e-18
9.26995e-18
4.12399e-17
1.23545e-16
3.95589e-16
1.29789e-15
4.1884e-15
1.31113e-14
4.12909e-14
1.29005e-13
3.81416e-13
1.17017e-12
3.41379e-12
9.56996e-12
2.62414e-11
6.98794e-11
1.78487e-10
4.53435e-10
1.10915e-09
2.46973e-09
4.59174e-09
8.07224e-09
1.22897e-08
1.68161e-08
2.30048e-08
3.57055e-08
6.74077e-08
1.3439e-07
3.00285e-07
7.8834e-07
2.39461e-06
7.59742e-06
2.36745e-05
7.06007e-05
0.000192135
0.000474151
0.000813835
0.00111133
0.00163
0.00261139
0.00492464
0.0113179
0.0281605
0.0708017
0.175238
0.443935
0.998867
1.66584
1.60453
1.16217
0.0115772
-1.08454
-1.09332
-0.614801
-0.313382
-0.161457
-0.0837486
-0.0451066
-0.0247512
-0.0136819
-0.00754267
-0.00411233
-0.00216943
-0.00112164
-0.00055017
-0.000259077
-0.000115901
-4.67106e-05
-1.46359e-05
-4.15358e-06
-1.17007e-06
-3.00882e-07
-2.81747e-08
7.29752e-20
5.26278e-20
3.61066e-19
6.45295e-19
3.84221e-19
4.07547e-19
4.22733e-19
5.62459e-19
2.94057e-19
4.31876e-19
-1.10856e-19
4.83331e-19
4.07412e-19
5.76156e-19
3.41766e-19
8.37455e-19
2.03276e-18
5.97845e-19
4.37237e-19
1.53225e-18
1.20565e-18
1.83188e-18
-3.30889e-19
-1.09664e-18
2.14688e-18
3.966e-18
4.35129e-18
7.54308e-18
1.63822e-17
4.36852e-17
1.49058e-16
4.90477e-16
1.58579e-15
4.97141e-15
1.54402e-14
4.78727e-14
1.48196e-13
4.32772e-13
1.32153e-12
3.86377e-12
1.08475e-11
2.91781e-11
7.81991e-11
1.99526e-10
5.06773e-10
1.21463e-09
2.53897e-09
4.85111e-09
8.41218e-09
1.2637e-08
1.72341e-08
2.36223e-08
3.68711e-08
6.95418e-08
1.37727e-07
3.05025e-07
7.93641e-07
2.39581e-06
7.56997e-06
2.35277e-05
7.00657e-05
0.000190548
0.000470088
0.00081031
0.00110518
0.00161565
0.00258301
0.00484284
0.0110849
0.0275604
0.0693891
0.17172
0.435782
0.987005
1.66332
1.61985
1.17738
0.0293758
-1.08368
-1.10047
-0.61918
-0.315516
-0.162499
-0.0843183
-0.045409
-0.0249113
-0.0137648
-0.00758349
-0.00413044
-0.00217771
-0.00112409
-0.000551019
-0.00025899
-0.00011566
-4.63463e-05
-1.44422e-05
-4.09674e-06
-1.15625e-06
-2.97454e-07
-2.78067e-08
1.12765e-19
1.07442e-19
3.23373e-19
1.06453e-18
9.48109e-19
5.01068e-19
2.64887e-19
6.78311e-20
3.27073e-19
3.51359e-19
-6.83924e-20
2.16901e-19
-1.09977e-19
1.98468e-20
3.32382e-19
1.78322e-19
1.74363e-19
1.23995e-18
1.95443e-18
1.09049e-18
3.46846e-19
5.12887e-19
5.73035e-19
2.50358e-19
4.32613e-19
1.17221e-18
1.47909e-18
6.75404e-18
1.45687e-17
4.85312e-17
1.70659e-16
5.75247e-16
1.82822e-15
5.82089e-15
1.80996e-14
5.55589e-14
1.69044e-13
4.87735e-13
1.48139e-12
4.3177e-12
1.19437e-11
3.26815e-11
8.64151e-11
2.22863e-10
5.30896e-10
1.18994e-09
2.62805e-09
5.13099e-09
8.73342e-09
1.29825e-08
1.7569e-08
2.41302e-08
3.78275e-08
7.12335e-08
1.4001e-07
3.07719e-07
7.94056e-07
2.38252e-06
7.49764e-06
2.32528e-05
6.91403e-05
0.000187728
0.000463817
0.000804552
0.00109707
0.0016002
0.00254664
0.00474737
0.010798
0.026852
0.0676046
0.167265
0.426206
0.972895
1.65843
1.63532
1.1933
0.0523376
-1.07926
-1.10874
-0.625134
-0.318491
-0.163973
-0.0850805
-0.0458101
-0.0251253
-0.0138788
-0.00764287
-0.00416009
-0.00219242
-0.00113051
-0.00055393
-0.000260044
-0.000115998
-4.62769e-05
-1.43794e-05
-4.07737e-06
-1.15216e-06
-2.96471e-07
-2.76841e-08
2.28041e-19
4.11119e-19
4.14687e-19
3.64909e-19
1.24272e-19
2.2637e-19
7.67021e-20
1.3732e-19
5.67002e-19
6.16961e-19
2.53927e-20
5.00525e-19
9.79402e-19
4.53359e-19
1.52378e-18
2.02619e-18
1.82745e-18
7.24936e-19
2.19611e-18
2.57124e-18
2.56937e-18
2.05451e-18
1.30038e-18
7.95172e-19
2.65249e-18
3.88783e-20
3.09547e-18
6.5735e-18
1.8711e-17
6.82594e-17
2.12214e-16
6.70553e-16
2.10303e-15
6.55923e-15
2.01568e-14
6.13098e-14
1.82636e-13
5.34787e-13
1.6312e-12
4.69122e-12
1.28722e-11
3.49124e-11
9.20348e-11
2.28513e-10
5.3847e-10
1.28716e-09
2.7874e-09
5.36779e-09
9.04983e-09
1.32728e-08
1.78757e-08
2.46232e-08
3.87295e-08
7.23416e-08
1.4142e-07
3.09072e-07
7.9077e-07
2.35955e-06
7.40287e-06
2.29279e-05
6.8133e-05
0.000184821
0.000456425
0.000798156
0.00108804
0.00158153
0.00250978
0.00465094
0.0105223
0.0261172
0.0648729
0.163146
0.416456
0.956627
1.64936
1.65187
1.21161
0.082872
-1.07132
-1.11837
-0.632668
-0.322265
-0.165842
-0.0860147
-0.0462946
-0.0253848
-0.0140185
-0.00771754
-0.00419918
-0.0022123
-0.00114009
-0.000558483
-0.000262
-0.000116793
-4.64866e-05
-1.44181e-05
-4.0869e-06
-1.15555e-06
-2.97362e-07
-2.77488e-08
1.50778e-20
3.90389e-19
3.47737e-19
3.34817e-19
1.68269e-19
1.58037e-19
1.8834e-19
-1.41592e-19
4.14257e-19
1.40605e-19
1.27228e-19
1.67574e-19
1.52961e-19
9.73876e-19
4.40641e-19
6.76478e-19
1.0364e-18
5.87938e-19
1.24966e-18
2.97719e-18
2.65776e-18
2.02308e-18
5.70477e-19
1.39203e-18
3.28239e-18
4.01088e-18
6.82754e-18
9.06922e-18
2.70069e-17
8.13341e-17
2.47748e-16
7.62272e-16
2.33482e-15
7.34647e-15
2.22706e-14
6.71169e-14
2.00675e-13
5.8107e-13
1.78856e-12
5.04147e-12
1.37816e-11
3.67756e-11
9.45837e-11
2.34117e-10
5.82645e-10
1.37226e-09
2.94647e-09
5.63022e-09
9.35315e-09
1.35826e-08
1.82504e-08
2.53192e-08
4.05257e-08
7.25879e-08
1.42192e-07
3.0907e-07
7.83864e-07
2.32464e-06
7.26603e-06
2.24222e-05
6.65874e-05
0.000180706
0.00044878
0.000791419
0.00107916
0.00156366
0.00247318
0.00455017
0.0102547
0.0254465
0.0632102
0.158902
0.405863
0.938879
1.63973
1.6678
1.22867
0.114235
-1.06094
-1.12805
-0.640972
-0.326489
-0.167953
-0.0870611
-0.0468449
-0.0256773
-0.0141763
-0.00780291
-0.00424515
-0.002236
-0.00115202
-0.000564235
-0.000264613
-0.000117923
-4.68913e-05
-1.45309e-05
-4.11747e-06
-1.16437e-06
-2.99612e-07
-2.79495e-08
5.31661e-20
5.02041e-20
5.40131e-19
5.15335e-19
2.07199e-19
2.87919e-19
1.89512e-19
1.10379e-18
3.74384e-19
7.62673e-19
3.69074e-19
6.84603e-19
5.19802e-19
8.17321e-19
7.24947e-19
7.00948e-19
6.54836e-19
1.03182e-18
2.86946e-19
4.31481e-19
5.06157e-19
8.87055e-19
1.92895e-18
2.12095e-18
9.85989e-19
3.02506e-18
4.3161e-18
1.01812e-17
2.81255e-17
8.3652e-17
2.56117e-16
8.21563e-16
2.61559e-15
8.13374e-15
2.50894e-14
7.50764e-14
2.19698e-13
6.33214e-13
1.87569e-12
5.44159e-12
1.46981e-11
3.89277e-11
9.95544e-11
2.50629e-10
6.20329e-10
1.44935e-09
3.08588e-09
5.84443e-09
9.61347e-09
1.38532e-08
1.85731e-08
2.58669e-08
4.16139e-08
7.23422e-08
1.42679e-07
3.0811e-07
7.74577e-07
2.28729e-06
7.12668e-06
2.20126e-05
6.52824e-05
0.000177108
0.000440027
0.000784223
0.00107034
0.00154621
0.00243844
0.00445478
0.00998868
0.0248175
0.0613784
0.154348
0.395273
0.921344
1.62857
1.68235
1.24443
0.147532
-1.04859
-1.13796
-0.649906
-0.331031
-0.170224
-0.0881803
-0.0474328
-0.0259968
-0.0143519
-0.00789932
-0.00429712
-0.00226276
-0.00116584
-0.000571015
-0.000267797
-0.000119329
-4.74456e-05
-1.46974e-05
-4.16277e-06
-1.17691e-06
-3.02787e-07
-2.82432e-08
9.01153e-20
-5.03516e-20
6.72015e-19
3.98447e-19
6.05687e-19
4.36796e-19
6.07174e-19
5.55684e-19
4.5436e-19
1.04061e-18
5.30339e-19
-2.21938e-19
5.03646e-19
4.54146e-19
1.98661e-19
1.39511e-18
1.06979e-18
5.03264e-19
9.10749e-19
1.06867e-18
3.02351e-18
1.76335e-18
1.58956e-18
1.41887e-18
3.07209e-18
5.20682e-18
5.88037e-18
1.32498e-17
2.90065e-17
9.1831e-17
2.84013e-16
9.07558e-16
2.83171e-15
8.85436e-15
2.68319e-14
7.97222e-14
2.3187e-13
6.68638e-13
1.97886e-12
5.77842e-12
1.56753e-11
4.17119e-11
1.0619e-10
2.68724e-10
6.51516e-10
1.51544e-09
3.2086e-09
6.00864e-09
9.79196e-09
1.40207e-08
1.87486e-08
2.61052e-08
4.18971e-08
7.21665e-08
1.43494e-07
3.07103e-07
7.64526e-07
2.2433e-06
6.97853e-06
2.15404e-05
6.40131e-05
0.000173527
0.000431886
0.000776748
0.00106125
0.00152825
0.00240323
0.00435992
0.00971598
0.0241301
0.0597262
0.150324
0.385316
0.903403
1.61483
1.6969
1.26091
0.182956
-1.03442
-1.14766
-0.659448
-0.335972
-0.172707
-0.0893775
-0.0480557
-0.0263312
-0.0145347
-0.00799989
-0.00435263
-0.00229169
-0.00118083
-0.000578249
-0.000271197
-0.00012085
-4.80775e-05
-1.48996e-05
-4.21929e-06
-1.19251e-06
-3.06746e-07
-2.86143e-08
-4.00437e-20
4.65254e-19
1.31758e-19
4.28401e-19
3.7501e-19
8.809e-20
8.75278e-19
4.33286e-19
3.93137e-19
6.11694e-19
4.21733e-19
6.83815e-19
9.65113e-19
1.35839e-18
2.33254e-18
2.60235e-18
1.78165e-18
1.10423e-18
2.08754e-18
5.40268e-19
4.75118e-18
2.518e-18
7.58705e-19
1.30079e-20
5.33155e-19
7.78456e-19
5.32985e-18
1.33643e-17
2.85061e-17
9.46101e-17
3.06511e-16
9.66559e-16
3.02113e-15
9.29505e-15
2.82142e-14
8.37438e-14
2.45923e-13
6.99174e-13
2.10636e-12
6.0879e-12
1.63201e-11
4.30069e-11
1.11622e-10
2.81885e-10
6.79348e-10
1.57107e-09
3.29474e-09
6.1219e-09
9.91186e-09
1.41303e-08
1.88621e-08
2.62671e-08
4.20421e-08
7.19632e-08
1.43917e-07
3.05802e-07
7.55144e-07
2.20621e-06
6.84765e-06
2.1084e-05
6.25866e-05
0.000169747
0.000424206
0.000769608
0.00105303
0.00151192
0.0023709
0.00428026
0.00947768
0.0235039
0.0582182
0.146381
0.37587
0.88665
1.60154
1.70992
1.2757
0.217601
-1.01913
-1.15727
-0.66917
-0.340965
-0.175203
-0.0905893
-0.0486824
-0.0266661
-0.0147171
-0.00810007
-0.0044077
-0.00232033
-0.0011959
-0.000585656
-0.000274755
-0.000122466
-4.87894e-05
-1.51216e-05
-4.28061e-06
-1.20915e-06
-3.10942e-07
-2.90104e-08
2.43928e-19
1.56952e-19
-6.94116e-20
5.40315e-19
3.07387e-19
1.15558e-19
2.15538e-19
-1.31291e-19
5.97829e-20
1.00428e-18
9.19011e-19
1.38543e-18
1.64708e-18
1.58298e-18
1.05735e-18
1.33288e-18
1.38889e-18
2.13273e-18
1.93198e-18
1.51272e-18
3.30194e-20
-1.46735e-19
4.22093e-19
-3.06712e-19
-9.73143e-19
1.23086e-19
2.66504e-18
8.21507e-18
3.16685e-17
1.00062e-16
3.13117e-16
1.01372e-15
3.16059e-15
9.72935e-15
2.902e-14
8.54505e-14
2.57675e-13
7.29881e-13
2.18346e-12
6.14211e-12
1.73526e-11
4.54464e-11
1.17153e-10
2.89004e-10
6.99925e-10
1.60985e-09
3.35781e-09
6.20558e-09
1.00004e-08
1.42128e-08
1.89532e-08
2.63762e-08
4.21264e-08
7.17729e-08
1.43947e-07
3.03942e-07
7.44493e-07
2.16739e-06
6.70971e-06
2.0671e-05
6.13267e-05
0.0001663
0.000416539
0.000762901
0.00104551
0.001497
0.00234161
0.00420348
0.00925136
0.0229433
0.0568775
0.142972
0.367382
0.870905
1.58874
1.72159
1.28888
0.25017
-1.00437
-1.16586
-0.678221
-0.345622
-0.177529
-0.09171
-0.0492627
-0.0269766
-0.0148865
-0.00819324
-0.00445904
-0.00234704
-0.00120994
-0.000592521
-0.000278053
-0.000123964
-4.94272e-05
-1.53333e-05
-4.33951e-06
-1.22513e-06
-3.14979e-07
-2.93937e-08
1.14916e-20
3.64693e-19
3.95963e-19
7.01142e-19
5.65823e-19
4.52733e-19
3.05828e-19
1.41176e-19
7.68025e-19
2.08514e-19
1.01851e-19
1.00115e-18
3.23293e-19
6.25057e-19
8.82241e-19
-1.80839e-19
2.039e-19
2.01101e-18
-2.62329e-19
3.44336e-19
-5.26293e-20
7.01681e-19
7.61507e-20
4.26376e-19
2.67658e-18
1.28286e-18
2.2296e-18
7.47064e-18
2.99339e-17
1.01513e-16
3.23991e-16
1.04519e-15
3.29142e-15
1.01225e-14
3.06599e-14
9.17356e-14
2.67743e-13
7.89739e-13
2.30793e-12
6.59489e-12
1.78509e-11
4.66032e-11
1.20082e-10
2.94285e-10
7.15368e-10
1.63986e-09
3.40512e-09
6.26662e-09
1.00625e-08
1.42667e-08
1.90106e-08
2.64502e-08
4.21815e-08
7.16052e-08
1.43844e-07
3.02135e-07
7.35165e-07
2.13055e-06
6.5883e-06
2.02855e-05
6.02303e-05
0.000163399
0.000410185
0.000757189
0.00103912
0.00148443
0.00231747
0.00414235
0.00907508
0.0224596
0.0557368
0.140115
0.360128
0.857637
1.57744
1.73123
1.29983
0.27782
-0.991172
-1.17295
-0.686032
-0.349628
-0.17954
-0.0926792
-0.0497651
-0.0272458
-0.0150335
-0.00827428
-0.00450382
-0.00237041
-0.00122238
-0.000598601
-0.000280993
-0.000125307
-5.00123e-05
-1.55265e-05
-4.39293e-06
-1.2395e-06
-3.18599e-07
-2.97381e-08
1.39531e-19
2.85024e-19
4.62403e-19
2.04326e-19
4.37927e-19
6.49084e-19
6.53435e-19
7.42406e-19
8.42018e-19
4.29054e-19
5.17615e-19
4.10449e-19
4.89503e-19
5.17011e-19
9.19476e-19
7.44928e-19
5.93108e-19
5.62309e-19
9.51974e-19
1.2992e-18
1.69577e-18
-4.58433e-21
2.43501e-18
6.46987e-19
9.65441e-19
4.28975e-18
5.48539e-18
1.13e-17
3.49383e-17
1.11229e-16
3.45132e-16
1.10598e-15
3.42548e-15
1.05395e-14
3.18871e-14
9.57808e-14
2.81898e-13
8.13087e-13
2.35812e-12
6.61218e-12
1.80281e-11
4.73511e-11
1.18696e-10
2.98765e-10
7.28689e-10
1.66252e-09
3.44051e-09
6.31212e-09
1.01088e-08
1.43076e-08
1.90539e-08
2.65046e-08
4.22177e-08
7.14799e-08
1.43684e-07
3.00618e-07
7.27533e-07
2.1039e-06
6.49964e-06
2.00072e-05
5.94125e-05
0.000161084
0.000404903
0.000752005
0.00103373
0.00147391
0.00229717
0.00409075
0.00892426
0.0220799
0.0548404
0.13787
0.354627
0.847281
1.56822
1.73851
1.30823
0.299724
-0.980278
-1.1784
-0.692316
-0.352898
-0.181172
-0.0934626
-0.0501702
-0.0274625
-0.0151518
-0.00833955
-0.00453991
-0.00238925
-0.00123239
-0.000603473
-0.000283335
-0.000126373
-5.05051e-05
-1.56839e-05
-4.43671e-06
-1.25129e-06
-3.21569e-07
-3.00211e-08
1.90794e-19
4.71442e-19
9.16712e-19
9.55327e-19
5.72249e-19
3.99821e-19
2.72094e-19
1.05386e-18
2.19786e-19
-4.48267e-21
3.9093e-20
2.43488e-19
4.7091e-19
2.65901e-19
8.00155e-19
8.09612e-19
9.08884e-19
1.0622e-19
1.36856e-18
9.07914e-19
1.81551e-18
7.51935e-19
5.10358e-19
1.47191e-18
3.63885e-18
3.01782e-18
5.82299e-18
1.07171e-17
3.42501e-17
1.16011e-16
3.56053e-16
1.10048e-15
3.49398e-15
1.06293e-14
3.24645e-14
9.73024e-14
2.84463e-13
8.08203e-13
2.34051e-12
6.76059e-12
1.79341e-11
4.70999e-11
1.19788e-10
3.01672e-10
7.38009e-10
1.67858e-09
3.4653e-09
6.34375e-09
1.0141e-08
1.4337e-08
1.90843e-08
2.65456e-08
4.22468e-08
7.14005e-08
1.43564e-07
2.99568e-07
7.22411e-07
2.08502e-06
6.43602e-06
1.98075e-05
5.88276e-05
0.000159494
0.000401305
0.000748507
0.00103006
0.00146668
0.00228324
0.0040559
0.00882262
0.0218232
0.054247
0.136369
0.350707
0.839996
1.56162
1.74351
1.31403
0.315165
-0.972401
-1.18216
-0.696772
-0.355206
-0.182325
-0.0940171
-0.0504569
-0.027616
-0.0152357
-0.00838584
-0.00456557
-0.00240264
-0.00123952
-0.000606957
-0.000285022
-0.000127147
-5.08487e-05
-1.57976e-05
-4.46825e-06
-1.25976e-06
-3.237e-07
-3.02243e-08
6.72763e-20
1.34299e-19
2.15206e-19
5.2581e-19
3.12629e-19
4.84593e-19
1.5251e-19
1.24221e-19
5.44469e-19
2.41771e-19
3.35036e-19
5.11014e-19
5.37232e-19
4.36984e-19
8.06119e-19
5.38584e-19
2.00103e-19
1.01548e-18
1.0102e-18
2.12764e-18
8.61116e-19
1.7025e-18
1.7291e-18
2.48077e-18
4.32328e-18
3.37542e-18
2.95209e-18
1.43367e-17
3.50179e-17
1.08738e-16
3.56918e-16
1.14669e-15
3.553e-15
1.08342e-14
3.32234e-14
9.80027e-14
2.90396e-13
8.20758e-13
2.45208e-12
6.89275e-12
1.84069e-11
4.77959e-11
1.20379e-10
3.05999e-10
7.42331e-10
1.68814e-09
3.48138e-09
6.36459e-09
1.0162e-08
1.43556e-08
1.9104e-08
2.65717e-08
4.22711e-08
7.137e-08
1.43538e-07
2.9908e-07
7.19901e-07
2.07564e-06
6.4036e-06
1.97035e-05
5.85166e-05
0.000158664
0.000399441
0.000746655
0.00102809
0.00146285
0.00227588
0.0040373
0.00876867
0.0216846
0.0539071
0.13554
0.348671
0.836142
1.55805
1.74609
1.31706
0.323372
-0.96811
-1.18411
-0.699164
-0.356452
-0.182951
-0.0943179
-0.0506127
-0.0276995
-0.0152813
-0.008411
-0.0045795
-0.00240992
-0.00124339
-0.000608847
-0.000285941
-0.000127566
-5.1027e-05
-1.58581e-05
-4.48517e-06
-1.26432e-06
-3.24851e-07
-3.03344e-08
2.03168e-20
4.78128e-19
4.89074e-19
6.03209e-19
4.65635e-19
4.20885e-19
3.33173e-19
8.90283e-19
5.62396e-19
2.35622e-20
7.94065e-19
5.41935e-19
9.43928e-19
4.69625e-20
2.89224e-19
3.60229e-19
-7.18343e-23
1.15888e-18
5.72779e-19
1.97892e-18
2.37376e-18
1.21206e-18
1.98458e-18
1.3336e-18
2.1075e-18
6.93432e-20
1.14109e-18
7.7143e-18
3.88572e-17
1.16865e-16
3.73591e-16
1.1795e-15
3.62338e-15
1.13161e-14
3.41513e-14
1.00346e-13
2.96395e-13
8.36698e-13
2.45946e-12
6.81045e-12
1.86141e-11
4.83177e-11
1.22389e-10
3.06828e-10
7.45156e-10
1.69398e-09
3.49088e-09
6.37706e-09
1.0175e-08
1.43678e-08
1.91181e-08
2.65924e-08
4.2299e-08
7.13868e-08
1.43632e-07
2.99097e-07
7.19482e-07
2.07374e-06
6.3968e-06
1.96814e-05
5.84497e-05
0.000158477
0.000399017
0.00074622
0.00102764
0.00146205
0.00227441
0.0040338
0.00875876
0.0216603
0.0538512
0.135404
0.348332
0.835513
1.55747
1.74647
1.31751
0.32464
-0.967432
-1.1844
-0.699525
-0.356639
-0.183045
-0.0943632
-0.0506362
-0.0277121
-0.0152882
-0.00841479
-0.00458158
-0.00241101
-0.00124397
-0.000609125
-0.000286075
-0.000127628
-5.10617e-05
-1.58678e-05
-4.48764e-06
-1.26495e-06
-3.25003e-07
-3.03485e-08
-9.66206e-23
2.32636e-19
6.25454e-19
6.292e-19
4.03822e-19
3.88583e-19
5.04736e-19
1.07114e-18
1.18873e-18
1.09358e-18
3.44667e-19
1.11677e-18
1.15314e-19
2.38332e-20
8.75124e-19
6.07036e-19
9.11797e-19
3.37466e-19
4.38613e-19
2.22945e-19
1.83383e-18
1.2208e-18
8.06192e-19
1.93133e-18
1.8544e-18
-2.6355e-19
4.6901e-18
1.18066e-17
3.84073e-17
1.18184e-16
3.75709e-16
1.17024e-15
3.62515e-15
1.09488e-14
3.30527e-14
9.75804e-14
2.89743e-13
8.38385e-13
2.46699e-12
6.94906e-12
1.86497e-11
4.82596e-11
1.23443e-10
3.07781e-10
7.44801e-10
1.69662e-09
3.49487e-09
6.38258e-09
1.01816e-08
1.43748e-08
1.91273e-08
2.66094e-08
4.23379e-08
7.14723e-08
1.43909e-07
2.99819e-07
7.21946e-07
2.08192e-06
6.42325e-06
1.97627e-05
5.86848e-05
0.0001591
0.000400388
0.000747498
0.00102897
0.00146473
0.00227963
0.00404702
0.00879716
0.0217586
0.054095
0.135992
0.349827
0.838311
1.56002
1.74452
1.31526
0.318631
-0.970544
-1.18296
-0.697775
-0.355729
-0.182588
-0.0941447
-0.0505233
-0.0276516
-0.0152551
-0.00839652
-0.00457143
-0.0024057
-0.00124113
-0.000607741
-0.0002854
-0.000127315
-5.09127e-05
-1.58194e-05
-4.47429e-06
-1.26139e-06
-3.24107e-07
-3.02628e-08
1.05359e-19
-1.2525e-19
1.01133e-19
2.11873e-19
4.48108e-19
6.60866e-19
-4.30628e-20
4.55321e-19
2.53595e-19
2.02282e-19
1.58146e-19
2.87024e-19
-6.25679e-20
9.21235e-19
8.99412e-19
1.24129e-18
2.25238e-18
1.91558e-19
7.27156e-19
4.33547e-19
1.26998e-18
2.00213e-18
9.53687e-19
3.54903e-18
2.95964e-18
2.16269e-18
3.01079e-18
1.10107e-17
3.73172e-17
1.21425e-16
3.7049e-16
1.13937e-15
3.63267e-15
1.09191e-14
3.23181e-14
9.4702e-14
2.85151e-13
7.98192e-13
2.39512e-12
6.91771e-12
1.83411e-11
4.81901e-11
1.21376e-10
3.07917e-10
7.44646e-10
1.69454e-09
3.49198e-09
6.37987e-09
1.01804e-08
1.43756e-08
1.91303e-08
2.66206e-08
4.23831e-08
7.16197e-08
1.44365e-07
3.01238e-07
7.27238e-07
2.09988e-06
6.48159e-06
1.99425e-05
5.92087e-05
0.0001605
0.000403467
0.000750384
0.00103196
0.0014707
0.00229117
0.00407624
0.0088819
0.0219749
0.0546056
0.137253
0.353056
0.844406
1.56557
1.74026
1.31033
0.305565
-0.977289
-1.17981
-0.693991
-0.353758
-0.181601
-0.0936712
-0.0502784
-0.0275205
-0.0151835
-0.00835692
-0.00454946
-0.00239423
-0.001235
-0.000604743
-0.000283941
-0.000126646
-5.06003e-05
-1.57195e-05
-4.44638e-06
-1.25388e-06
-3.22213e-07
-3.00815e-08
2.09058e-19
1.67258e-19
1.02356e-19
4.15182e-19
3.8931e-19
2.21853e-19
2.44558e-19
2.73984e-19
2.86124e-19
7.68527e-19
3.16106e-19
1.82728e-19
2.50969e-19
2.48386e-19
4.59763e-19
1.06012e-18
1.72195e-18
2.18191e-18
1.65124e-18
1.96326e-18
1.10041e-18
8.12153e-19
1.30887e-18
2.23742e-18
2.93979e-18
4.59537e-18
3.82504e-18
8.87599e-18
3.97708e-17
1.19086e-16
3.69561e-16
1.1276e-15
3.54137e-15
1.0725e-14
3.23511e-14
9.65048e-14
2.8343e-13
8.01614e-13
2.38659e-12
6.88546e-12
1.83441e-11
4.73537e-11
1.20802e-10
3.08041e-10
7.41255e-10
1.68802e-09
3.48291e-09
6.36986e-09
1.01726e-08
1.43712e-08
1.9129e-08
2.66294e-08
4.24437e-08
7.18465e-08
1.45042e-07
3.03468e-07
7.35777e-07
2.12917e-06
6.57721e-06
2.02374e-05
6.00634e-05
0.000162779
0.000408437
0.000754917
0.00103667
0.00148006
0.00230931
0.00412224
0.00901549
0.022315
0.0554074
0.139295
0.358113
0.853756
1.57383
1.73362
1.30276
0.285773
-0.98728
-1.17497
-0.688315
-0.350818
-0.180131
-0.0929662
-0.0499134
-0.027325
-0.0150765
-0.00829784
-0.00451667
-0.0023771
-0.00122586
-0.000600289
-0.000281779
-0.000125656
-5.01564e-05
-1.55712e-05
-4.40502e-06
-1.24275e-06
-3.19404e-07
-2.98129e-08
2.71795e-19
2.20457e-19
5.23047e-19
7.9672e-19
5.81225e-19
1.24076e-19
2.57833e-19
8.01517e-19
2.08737e-19
7.06659e-20
4.65895e-19
6.35993e-19
1.27252e-18
1.36566e-18
6.96738e-19
7.69504e-19
1.12698e-18
1.64748e-18
6.94124e-19
8.61762e-19
1.13198e-18
-3.42561e-19
-6.38635e-20
1.43271e-18
2.11981e-18
3.85498e-18
6.52526e-18
8.98782e-18
3.32759e-17
1.13084e-16
3.55904e-16
1.12925e-15
3.48507e-15
1.06992e-14
3.2437e-14
9.61991e-14
2.84205e-13
8.06878e-13
2.31339e-12
6.57612e-12
1.81785e-11
4.70807e-11
1.18707e-10
3.04016e-10
7.36577e-10
1.67809e-09
3.46714e-09
6.35059e-09
1.01552e-08
1.4359e-08
1.91201e-08
2.66311e-08
4.25129e-08
7.21507e-08
1.45926e-07
3.06407e-07
7.47157e-07
2.16846e-06
6.70612e-06
2.06367e-05
6.12275e-05
0.000165907
0.000415313
0.000760872
0.00104284
0.00149229
0.00233306
0.00418318
0.00919176
0.0227675
0.0564599
0.141947
0.364661
0.865888
1.58436
1.7249
1.29279
0.260109
-0.999877
-1.16853
-0.680974
-0.347021
-0.17823
-0.0920539
-0.0494399
-0.0270716
-0.0149381
-0.00822144
-0.00447433
-0.00235498
-0.00121408
-0.000594533
-0.000278996
-0.000124382
-4.95861e-05
-1.53825e-05
-4.35243e-06
-1.22858e-06
-3.15828e-07
-2.9471e-08
9.41379e-20
8.69273e-20
4.13443e-19
2.68732e-19
1.56123e-19
1.75044e-19
1.00875e-18
2.89391e-19
1.41751e-19
2.1001e-19
4.84281e-19
6.24506e-19
1.10671e-18
5.71469e-19
-7.22902e-20
6.51057e-19
1.27759e-18
4.95052e-19
7.177e-19
2.74508e-19
-5.70958e-20
2.2752e-18
5.35514e-19
2.66544e-18
3.59802e-18
4.43676e-18
4.91186e-18
1.26358e-17
3.4823e-17
1.11439e-16
3.38704e-16
1.07481e-15
3.36173e-15
1.03579e-14
3.04654e-14
9.33149e-14
2.73311e-13
7.92445e-13
2.29494e-12
6.58836e-12
1.76642e-11
4.71697e-11
1.18985e-10
3.00102e-10
7.25851e-10
1.66144e-09
3.44281e-09
6.32074e-09
1.01275e-08
1.43371e-08
1.91012e-08
2.66216e-08
4.25832e-08
7.25121e-08
1.46851e-07
3.09975e-07
7.60934e-07
2.2157e-06
6.86001e-06
2.11088e-05
6.25869e-05
0.000169496
0.000422861
0.00076746
0.00104997
0.00150637
0.00236029
0.00425213
0.00939411
0.0232918
0.0577147
0.145089
0.372586
0.88046
1.59662
1.71417
1.28057
0.229531
-1.01424
-1.16063
-0.672428
-0.342612
-0.176017
-0.0909887
-0.0488886
-0.0267758
-0.0147762
-0.00813192
-0.00442469
-0.00232906
-0.00120028
-0.000587777
-0.000275717
-0.000122878
-4.89142e-05
-1.51606e-05
-4.2909e-06
-1.21204e-06
-3.11658e-07
-2.90731e-08
8.06798e-20
2.48024e-19
7.01823e-20
2.42646e-19
1.52156e-19
3.23947e-20
4.57259e-19
2.53714e-19
1.954e-19
4.82988e-19
2.30608e-19
1.15782e-21
4.38664e-19
6.68767e-20
3.86306e-19
8.09586e-19
6.88964e-19
1.74846e-18
4.14952e-19
1.28456e-18
1.38032e-18
1.77016e-18
4.74704e-19
3.47383e-18
1.78892e-18
4.18761e-18
5.30481e-18
1.37292e-17
3.96695e-17
1.08458e-16
3.40006e-16
1.04977e-15
3.25162e-15
1.01042e-14
3.10187e-14
9.35786e-14
2.74479e-13
7.83712e-13
2.26494e-12
6.47525e-12
1.76205e-11
4.59646e-11
1.17846e-10