/*--------------------------------*- C++ -*----------------------------------*\
  =========                 |
  \\      /  F ield         | OpenFOAM: The Open Source CFD Toolbox
   \\    /   O peration     | Website:  https://openfoam.org
    \\  /    A nd           | Version:  10
     \\/     M anipulation  |
\*---------------------------------------------------------------------------*/
FoamFile
{
    format      ascii;
    class       volScalarField;
    location    "1";
    object      RR.C2H6;
}
// * * * * * * * * * * * * * * * * * * * * * * * * * * * * * * * * * * * * * //

dimensions      [1 -3 -1 0 0 0 0];

internalField   nonuniform List<scalar> 
4000
(
4.8068e-41
-2.0948e-40
5.67657e-41
1.57449e-40
5.7729e-40
3.08646e-39
-6.72365e-40
-1.0318e-38
7.18579e-38
2.01958e-37
2.71474e-37
-5.64649e-37
-6.96578e-38
1.14674e-35
-1.07597e-35
1.49451e-34
1.45592e-34
-1.06144e-33
-1.72648e-34
7.71211e-33
1.08207e-32
-6.34803e-32
3.40825e-31
-1.72457e-32
1.55087e-30
-1.01433e-30
2.16631e-29
1.86542e-29
1.80228e-28
-8.32286e-28
-3.8795e-27
-5.84842e-27
2.95247e-26
1.17213e-26
1.74742e-25
-6.70453e-24
2.17865e-23
1.6975e-22
1.40153e-21
1.08657e-20
7.59227e-20
5.37623e-19
3.49229e-18
2.18782e-17
1.30506e-16
8.20467e-16
5.31987e-15
3.30241e-14
1.91607e-13
1.02494e-12
5.08946e-12
2.42508e-11
9.51434e-11
4.1039e-10
1.68773e-09
6.37624e-09
2.14054e-08
7.02004e-08
2.18735e-07
6.61126e-07
1.98813e-06
5.73003e-06
1.70818e-05
5.20979e-05
0.000138872
0.000311154
0.000655907
0.00132999
0.00268365
0.00564401
0.0140776
0.0443019
0.152717
0.417008
0.687842
0.462456
0.0608321
-0.267664
-0.334625
-0.213727
-0.119919
-0.066811
-0.0369687
-0.0197434
-0.010693
-0.00588871
-0.00327444
-0.00182054
-0.00100285
-0.000542824
-0.000286885
-0.000143238
-6.9434e-05
-3.20433e-05
-1.40015e-05
-4.54613e-06
-1.19296e-06
-2.97218e-07
-6.27875e-08
-4.58786e-09
-5.2172e-41
1.20464e-40
1.692e-39
6.55714e-39
1.02674e-38
2.87172e-39
2.4373e-39
2.48876e-38
-5.19339e-38
1.82881e-37
7.13994e-39
-1.15743e-36
1.52784e-36
-2.82577e-36
5.66985e-35
-8.95351e-35
2.94641e-34
1.23232e-33
3.18767e-35
-6.17708e-33
-1.69159e-33
9.46641e-32
3.85403e-31
-7.63724e-31
3.43524e-30
8.23201e-30
5.21727e-29
1.18816e-28
7.79802e-29
1.77378e-28
4.77001e-28
1.22879e-26
4.22113e-27
-3.26656e-26
-1.78495e-25
9.58046e-24
4.81533e-23
2.85679e-22
2.30504e-21
1.82607e-20
1.33344e-19
8.99565e-19
5.88538e-18
3.59548e-17
2.31741e-16
1.48296e-15
9.34657e-15
5.53282e-14
3.08183e-13
1.61872e-12
7.05101e-12
2.73077e-11
1.19676e-10
4.94954e-10
1.97222e-09
7.37925e-09
2.34454e-08
7.39998e-08
2.24776e-07
6.65531e-07
1.97765e-06
5.64406e-06
1.66482e-05
5.02983e-05
0.000133534
0.000298824
0.000628521
0.00127957
0.00257751
0.00538896
0.0133841
0.041845
0.145355
0.406845
0.69229
0.480138
0.0711075
-0.265953
-0.337727
-0.215766
-0.120847
-0.0672883
-0.0371277
-0.0197898
-0.0107058
-0.00588931
-0.00327036
-0.00181523
-0.000997576
-0.000538386
-0.000283497
-0.00014096
-6.79932e-05
-3.12448e-05
-1.35053e-05
-4.26213e-06
-1.11456e-06
-2.78265e-07
-5.89122e-08
-4.30098e-09
2.64227e-40
1.42963e-39
3.92367e-39
7.98402e-39
1.34414e-38
1.7152e-38
6.59553e-38
-8.54688e-38
-7.73168e-39
-6.48159e-38
-4.07897e-37
7.24583e-37
2.88906e-36
6.48228e-36
1.94376e-35
-1.79146e-36
3.58377e-34
-1.31677e-33
6.21164e-33
-5.17788e-33
-4.6792e-32
-4.81091e-32
4.32683e-31
7.19817e-31
4.44043e-30
1.3771e-29
-4.41381e-29
1.77015e-28
-7.81777e-29
-9.34247e-28
6.43389e-27
-9.20574e-27
-6.23298e-26
3.10608e-26
-3.53531e-24
1.98731e-23
9.05894e-23
4.94626e-22
3.93664e-21
2.98744e-20
2.02952e-19
1.28861e-18
8.86204e-18
5.29388e-17
3.45691e-16
2.13442e-15
1.33674e-14
7.72382e-14
4.03251e-13
2.04442e-12
8.65748e-12
3.41227e-11
1.4794e-10
6.23334e-10
2.33526e-09
7.91787e-09
2.44453e-08
7.60046e-08
2.28134e-07
6.69675e-07
1.97264e-06
5.58725e-06
1.63251e-05
4.87741e-05
0.000129055
0.000288322
0.00060443
0.00122798
0.00248308
0.00518755
0.0127985
0.0396756
0.138747
0.396441
0.695846
0.49943
0.0821626
-0.264755
-0.341541
-0.218116
-0.121969
-0.0678858
-0.0373135
-0.0198245
-0.0107066
-0.00588149
-0.00326052
-0.00180572
-0.000989758
-0.000531727
-0.000278498
-0.000137739
-6.60515e-05
-3.01976e-05
-1.28541e-05
-3.93912e-06
-1.03133e-06
-2.57899e-07
-5.47938e-08
-4.00123e-09
1.39578e-40
8.54129e-40
2.76302e-39
7.288e-39
6.20692e-39
1.81599e-39
-5.74908e-38
-1.21839e-39
-4.82291e-38
-8.97395e-38
-1.72155e-37
2.05875e-37
-6.25284e-37
2.6618e-35
-4.19146e-35
-1.43484e-34
5.39547e-34
3.5455e-33
5.94267e-33
-2.67921e-32
-2.10325e-32
-8.08199e-33
-2.77261e-31
-1.27773e-30
-3.43346e-30
2.60431e-29
-4.42338e-29
-1.87997e-28
-7.23352e-28
-3.51631e-27
-2.44561e-27
1.07461e-26
-1.32498e-26
1.9681e-25
5.43758e-24
2.74602e-24
1.36144e-22
8.1403e-22
6.3294e-21
4.44767e-20
3.15218e-19
1.98199e-18
1.31144e-17
7.80662e-17
4.6468e-16
2.98735e-15
1.80909e-14
9.9832e-14
5.3513e-13
2.31274e-12
9.51791e-12
4.35481e-11
1.891e-10
7.50383e-10
2.71355e-09
8.22103e-09
2.53267e-08
7.78111e-08
2.30948e-07
6.70961e-07
1.96178e-06
5.51954e-06
1.60122e-05
4.75575e-05
0.000125542
0.000279881
0.000584702
0.00118921
0.00240437
0.00501159
0.0122579
0.0377035
0.132991
0.387454
0.697798
0.512558
0.0894818
-0.265137
-0.345404
-0.220306
-0.123002
-0.0684865
-0.0376333
-0.0196899
-0.0106472
-0.00585231
-0.0032436
-0.00179526
-0.000984497
-0.000521844
-0.000272414
-0.0001344
-6.41468e-05
-2.92058e-05
-1.22062e-05
-3.64941e-06
-9.57427e-07
-2.39894e-07
-5.11271e-08
-3.73364e-09
1.77783e-41
3.46962e-40
1.50244e-39
2.53726e-39
8.41745e-39
2.73425e-39
-2.11184e-39
-2.22032e-38
4.09521e-38
-6.49165e-38
-4.23142e-38
-9.13322e-37
-1.23308e-35
1.49049e-35
-1.63359e-35
-4.36365e-34
-7.60477e-34
3.49522e-34
7.34428e-33
-7.10005e-33
1.40168e-32
-3.65732e-31
-7.59371e-31
-1.33113e-30
4.84182e-30
-2.66964e-29
-1.1261e-28
4.25741e-28
-1.8856e-28
3.19493e-27
1.23583e-26
-2.16554e-26
8.15512e-26
-2.50588e-25
1.00369e-23
2.49878e-23
1.95436e-22
1.22142e-21
9.75056e-21
6.88694e-20
4.48564e-19
2.86094e-18
1.7227e-17
1.07396e-16
6.30372e-16
3.94079e-15
2.28016e-14
1.30486e-13
5.84799e-13
2.46823e-12
1.15311e-11
5.15449e-11
2.24245e-10
9.07528e-10
2.8527e-09
8.59403e-09
2.62573e-08
7.95061e-08
2.33382e-07
6.73542e-07
1.95757e-06
5.48028e-06
1.58054e-05
4.66607e-05
0.000122763
0.000272837
0.000570307
0.00116134
0.00235071
0.00488901
0.0118974
0.0363925
0.128783
0.380444
0.700692
0.527734
0.0976265
-0.265157
-0.348819
-0.22217
-0.123874
-0.0689759
-0.0377708
-0.0197418
-0.0106648
-0.00585669
-0.0032421
-0.00179143
-0.000980098
-0.000518221
-0.000269408
-0.000132509
-6.29442e-05
-2.85456e-05
-1.17275e-05
-3.4401e-06
-9.03449e-07
-2.26753e-07
-4.83079e-08
-3.5446e-09
-7.74714e-42
6.10958e-40
2.31014e-39
4.60168e-39
-1.64367e-38
-5.39182e-39
1.11207e-38
3.52937e-38
-1.4847e-37
8.32429e-38
-1.31136e-36
6.10018e-36
-1.29108e-35
2.95747e-35
1.66316e-35
-2.49719e-34
-6.82846e-34
-5.71741e-34
-1.44164e-32
1.84034e-32
2.11331e-31
-5.03445e-31
1.55482e-30
-5.29337e-30
-8.58576e-30
4.09253e-29
-1.58289e-28
1.90094e-28
-1.90345e-27
-2.5713e-27
-1.25804e-26
-1.03306e-27
2.0355e-27
-2.03827e-24
9.63001e-24
4.5171e-23
2.16079e-22
1.76099e-21
1.34129e-20
9.99204e-20
6.3314e-19
3.81551e-18
2.3115e-17
1.40977e-16
8.27612e-16
4.92381e-15
2.94361e-14
1.42399e-13
6.371e-13
2.93421e-12
1.35051e-11
5.98648e-11
2.50082e-10
9.87935e-10
3.06053e-09
9.02577e-09
2.69609e-08
8.08777e-08
2.34889e-07
6.73257e-07
1.94679e-06
5.42977e-06
1.55916e-05
4.58499e-05
0.000120602
0.000268184
0.000559252
0.00113682
0.00230227
0.00479222
0.0116272
0.0353839
0.125569
0.375528
0.702231
0.538712
0.104054
-0.264967
-0.351637
-0.223845
-0.124687
-0.0694332
-0.0379159
-0.0198209
-0.010704
-0.0058754
-0.0032497
-0.00179324
-0.000979129
-0.000516991
-0.000267908
-0.000131544
-6.22598e-05
-2.81512e-05
-1.14001e-05
-3.30121e-06
-8.67586e-07
-2.17937e-07
-4.65035e-08
-3.41123e-09
-2.63882e-42
-5.45296e-41
-1.70505e-39
6.75004e-40
6.49585e-40
-1.00034e-39
-1.32965e-38
2.9118e-38
1.72779e-37
-4.13357e-38
3.3162e-37
-5.13773e-36
2.27476e-35
2.25207e-35
-1.68321e-34
4.22951e-34
-3.29534e-36
1.42994e-33
2.3395e-32
5.29663e-32
2.13493e-32
-1.71632e-32
7.22554e-31
-2.8237e-30
2.47637e-30
4.97307e-30
-8.55129e-29
-1.70126e-28
-1.38848e-27
-7.19246e-27
1.14559e-26
5.30179e-26
-9.63029e-26
4.83233e-25
1.81131e-24
5.03242e-23
3.97847e-22
3.05604e-21
1.91412e-20
1.33127e-19
8.37833e-19
5.157e-18
3.07273e-17
1.74395e-16
1.02711e-15
6.07973e-15
3.34599e-14
1.46816e-13
7.25582e-13
3.38849e-12
1.51229e-11
6.56383e-11
2.69315e-10
1.04521e-09
3.1987e-09
9.34318e-09
2.75037e-08
8.16424e-08
2.35467e-07
6.71268e-07
1.93281e-06
5.37264e-06
1.53695e-05
4.50602e-05
0.000118518
0.000263838
0.000550032
0.00111698
0.00226463
0.00470909
0.0113855
0.0344691
0.122603
0.37041
0.702811
0.548974
0.110751
-0.263914
-0.354299
-0.225674
-0.125626
-0.0699539
-0.0381243
-0.0199344
-0.0107632
-0.00590614
-0.00326483
-0.00179989
-0.000981328
-0.000517689
-0.000267637
-0.000131281
-6.1974e-05
-2.79623e-05
-1.11969e-05
-3.21412e-06
-8.44995e-07
-2.12472e-07
-4.53834e-08
-3.32809e-09
-2.2011e-40
-9.62469e-40
-1.4789e-40
-1.01278e-39
1.29864e-39
1.37432e-38
5.13701e-38
1.08002e-37
-1.9354e-37
-6.83722e-37
2.14354e-36
-8.6781e-36
3.45832e-35
5.1027e-35
2.229e-34
2.36793e-34
2.25931e-33
1.37432e-32
-6.84611e-33
8.50144e-32
1.34882e-31
-1.59195e-31
-2.47123e-32
1.13591e-31
2.5597e-29
-9.57166e-29
1.26389e-28
-9.84202e-28
-1.28614e-27
5.03147e-28
-1.21563e-26
-1.12033e-26
-1.111e-26
-4.25801e-24
2.04851e-23
9.47609e-23
4.33942e-22
3.83306e-21
2.59538e-20
1.68902e-19
1.0781e-18
6.39175e-18
3.85039e-17
2.18203e-16
1.29106e-15
7.40055e-15
3.6037e-14
1.70686e-13
8.32725e-13
3.83252e-12
1.70663e-11
7.20783e-11
2.89104e-10
1.10022e-09
3.32126e-09
9.58049e-09
2.78739e-08
8.19911e-08
2.34855e-07
6.66171e-07
1.91102e-06
5.2991e-06
1.5108e-05
4.42309e-05
0.000116332
0.00025868
0.000540221
0.00109752
0.00222677
0.00462499
0.011139
0.0335516
0.119447
0.36451
0.702242
0.559843
0.118327
-0.261649
-0.356848
-0.227782
-0.126758
-0.0705775
-0.0384162
-0.0200889
-0.0108446
-0.0059494
-0.00328741
-0.00181116
-0.000986481
-0.0005201
-0.000268446
-0.000131595
-6.20129e-05
-2.7939e-05
-1.11011e-05
-3.16715e-06
-8.33063e-07
-2.09534e-07
-4.47864e-08
-3.28357e-09
2.64041e-41
1.10146e-39
-1.09934e-39
8.04358e-40
4.78365e-39
1.04628e-38
-4.61407e-38
-1.12123e-37
-4.27607e-37
-8.94152e-37
-3.10199e-36
1.34809e-35
1.71724e-35
2.29655e-34
-1.18464e-34
-3.71111e-34
6.01244e-33
1.23514e-32
3.58304e-32
-3.78041e-32
-2.42215e-31
3.5292e-31
-3.41646e-30
2.32714e-31
-4.09952e-30
4.96908e-29
-4.47287e-28
7.45393e-28
-1.88859e-27
1.8754e-27
-1.60273e-26
-1.47964e-26
-2.05522e-25
5.49841e-24
5.13348e-24
1.02693e-22
7.49514e-22
4.50728e-21
3.12599e-20
2.13952e-19
1.31446e-18
8.01731e-18
4.7033e-17
2.72822e-16
1.43221e-15
7.17901e-15
3.93333e-14
1.98884e-13
9.4741e-13
4.33406e-12
1.87499e-11
7.7533e-11
3.0555e-10
1.14437e-09
3.40875e-09
9.73691e-09
2.80564e-08
8.18615e-08
2.32984e-07
6.57812e-07
1.87906e-06
5.18789e-06
1.47482e-05
4.29916e-05
0.000113433
0.000253378
0.000528164
0.00107498
0.0021797
0.00452386
0.010827
0.0324202
0.115782
0.357544
0.700527
0.571404
0.127053
-0.258103
-0.35938
-0.230272
-0.128132
-0.0713294
-0.0388006
-0.020287
-0.0109487
-0.00600508
-0.00331713
-0.00182672
-0.000994307
-0.000524004
-0.000270178
-0.00013239
-6.23167e-05
-2.80491e-05
-1.10817e-05
-3.15117e-06
-8.29072e-07
-2.08558e-07
-4.45947e-08
-3.26897e-09
-8.24643e-42
1.29726e-40
4.83435e-40
1.6962e-39
4.69433e-39
2.52026e-38
1.27231e-38
1.73547e-37
8.92633e-37
-1.11104e-36
-5.29735e-36
-1.38746e-35
3.56549e-35
1.94504e-34
2.7474e-34
-1.61032e-33
4.87862e-33
2.13969e-33
-2.18589e-32
8.64795e-33
1.75884e-31
7.90907e-31
2.84943e-30
1.12772e-29
5.38975e-29
2.77113e-29
4.2769e-28
6.15535e-28
1.40316e-27
-2.87178e-28
1.45812e-26
-3.16909e-26
1.14209e-25
4.93845e-24
5.37275e-24
1.40161e-22
7.82649e-22
5.20934e-21
3.88937e-20
2.54255e-19
1.53631e-18
9.22964e-18
5.3788e-17
2.90324e-16
1.49027e-15
8.51353e-15
4.52439e-14
2.25735e-13
1.07452e-12
4.80251e-12
2.04277e-11
8.31077e-11
3.21443e-10
1.17299e-09
3.4655e-09
9.84243e-09
2.80942e-08
8.13966e-08
2.30477e-07
6.48395e-07
1.8469e-06
5.08338e-06
1.43613e-05
4.17754e-05
0.000110457
0.00024717
0.000516121
0.00105241
0.00213407
0.00441701
0.0104481
0.0313628
0.112097
0.349557
0.696584
0.584359
0.13785
-0.252963
-0.362136
-0.233252
-0.129775
-0.0722134
-0.0392717
-0.0205243
-0.0110721
-0.0060712
-0.00335278
-0.0018458
-0.00100432
-0.000529106
-0.000272646
-0.000133566
-6.28294e-05
-2.82642e-05
-1.11325e-05
-3.15906e-06
-8.3117e-07
-2.09079e-07
-4.47116e-08
-3.2771e-09
-5.27033e-41
-1.02955e-39
-7.53472e-40
-6.91311e-40
-7.13111e-39
-2.33827e-38
2.39124e-38
5.14771e-38
-6.00632e-37
-2.70422e-36
-3.27836e-37
-2.42296e-35
-2.45537e-35
1.53798e-34
1.77666e-34
7.77452e-34
5.9583e-33
2.49997e-32
4.8022e-32
-7.83566e-32
8.88625e-33
-2.68086e-31
6.95728e-30
8.87704e-30
5.15709e-30
-2.02671e-28
1.34799e-28
-2.50747e-28
-6.42888e-28
6.80068e-27
5.04436e-27
9.83372e-26
-8.87735e-27
-8.39224e-24
2.38695e-23
1.49488e-22
9.91132e-22
6.67153e-21
4.62559e-20
2.9493e-19
1.77661e-18
1.03198e-17
5.73724e-17
3.06908e-16
1.75084e-15
9.78083e-15
5.16623e-14
2.57694e-13
1.2061e-12
5.34249e-12
2.26001e-11
9.15847e-11
3.56648e-10
1.17703e-09
3.50029e-09
9.8933e-09
2.7991e-08
8.05506e-08
2.26863e-07
6.34264e-07
1.80011e-06
4.94595e-06
1.39911e-05
4.0592e-05
0.000107617
0.000241453
0.000504439
0.0010287
0.00209033
0.00432217
0.0101646
0.0302996
0.108133
0.34088
0.692395
0.597131
0.148731
-0.247181
-0.36452
-0.23631
-0.131507
-0.0731535
-0.0397921
-0.020786
-0.0112103
-0.00614475
-0.0033925
-0.00186729
-0.0010159
-0.000535082
-0.000275657
-0.000135018
-6.34934e-05
-2.85561e-05
-1.12329e-05
-3.18432e-06
-8.3769e-07
-2.10685e-07
-4.50517e-08
-3.30169e-09
-1.39263e-41
-1.5053e-40
-1.45525e-40
3.05007e-39
-5.03001e-39
8.57008e-39
-1.10214e-37
8.48292e-38
5.41992e-37
-3.01878e-36
4.03247e-36
1.55642e-35
4.77111e-35
4.36725e-35
4.93578e-34
-2.71405e-33
2.82311e-33
-1.0726e-32
2.4597e-32
1.51489e-31
-8.20304e-31
7.18204e-31
-4.91468e-30
-1.07627e-30
-5.57038e-29
-7.00455e-29
4.61107e-28
-1.42509e-27
3.93268e-28
7.89309e-27
-2.51624e-26
-1.10842e-25
1.51294e-25
9.55338e-24
2.68325e-23
2.63094e-22
1.19601e-21
7.86672e-21
5.24487e-20
3.44807e-19
2.02028e-18
1.1575e-17
6.35277e-17
3.51119e-16
1.98901e-15
1.09993e-14
5.76109e-14
2.85303e-13
1.32336e-12
5.80812e-12
2.43714e-11
9.80828e-11
3.77879e-10
1.16668e-09
3.5255e-09
9.90928e-09
2.77903e-08
7.95669e-08
2.23043e-07
6.23012e-07
1.76185e-06
4.82883e-06
1.3582e-05
3.93908e-05
0.00010482
0.000235966
0.000493514
0.00100625
0.00204687
0.00423439
0.00985861
0.0291771
0.104217
0.332371
0.687322
0.60921
0.159509
-0.240742
-0.366758
-0.239528
-0.133326
-0.0741325
-0.040344
-0.0210632
-0.0113567
-0.00622438
-0.00343629
-0.00189134
-0.00102886
-0.000541761
-0.000279106
-0.00013671
-6.42899e-05
-2.89114e-05
-1.13713e-05
-3.22207e-06
-8.47285e-07
-2.13031e-07
-4.55433e-08
-3.3375e-09
7.37232e-42
9.45706e-41
-2.13928e-40
2.97163e-39
-1.594e-39
2.86728e-38
9.20194e-38
3.22052e-38
5.19591e-38
8.16914e-37
-2.45849e-37
1.51053e-35
-4.50743e-35
-3.07256e-34
5.48471e-34
3.08913e-33
6.91354e-33
2.31717e-32
-1.79356e-32
-3.57625e-32
7.41351e-31
-1.27156e-30
3.02072e-30
-1.70694e-29
3.58244e-29
1.3566e-28
1.59412e-28
5.41494e-28
8.76394e-28
-2.39727e-27
1.00021e-26
1.00143e-25
-1.8244e-24
1.09011e-23
6.52571e-24
2.03207e-22
1.5221e-21
8.41956e-21
5.74761e-20
3.87902e-19
2.2866e-18
1.32e-17
7.20465e-17
4.03006e-16
2.20045e-15
1.21183e-14
6.31694e-14
3.07632e-13
1.40724e-12
6.09739e-12
2.52633e-11
1.00414e-10
3.81544e-10
1.15864e-09
3.56324e-09
9.91815e-09
2.75502e-08
7.83744e-08
2.19015e-07
6.09999e-07
1.72546e-06
4.71578e-06
1.32174e-05
3.82346e-05
0.00010204
0.000230445
0.000482559
0.000983922
0.00200183
0.0041384
0.00958638
0.0281963
0.100585
0.323711
0.680796
0.62157
0.171237
-0.23366
-0.368798
-0.242827
-0.135243
-0.0751783
-0.040944
-0.0213586
-0.0115112
-0.00630737
-0.00348164
-0.00191629
-0.00104263
-0.000548936
-0.000282821
-0.000138503
-6.51336e-05
-2.92916e-05
-1.15296e-05
-3.26832e-06
-8.59266e-07
-2.15993e-07
-4.6164e-08
-3.38271e-09
4.35437e-41
3.72982e-40
-3.28586e-42
-9.35443e-41
3.17987e-39
-3.37117e-38
9.36454e-38
2.65318e-37
5.78349e-37
3.28402e-36
1.44026e-35
-2.55868e-35
2.10721e-35
-4.97877e-35
9.23546e-34
-1.52425e-33
4.95216e-33
1.03631e-32
3.95813e-32
-1.46056e-31
2.15218e-31
1.73323e-30
8.84134e-31
-7.48155e-30
-4.08989e-29
-1.54922e-28
1.8143e-28
-1.71352e-28
1.97558e-27
3.15882e-27
2.38105e-26
7.12556e-26
-1.81325e-24
1.02519e-23
4.4281e-23
2.73975e-22
1.41249e-21
9.78281e-21
6.64211e-20
4.31444e-19
2.48079e-18
1.4104e-17
7.95918e-17
4.44046e-16
2.40301e-15
1.31328e-14
6.74058e-14
3.24412e-13
1.46848e-12
6.29847e-12
2.58314e-11
1.01767e-10
3.82413e-10
1.14989e-09
3.58595e-09
9.9101e-09
2.73128e-08
7.73708e-08
2.15567e-07
5.97912e-07
1.68531e-06
4.59949e-06
1.28861e-05
3.7183e-05
9.95321e-05
0.000225473
0.000472516
0.000965106
0.001962
0.00405006
0.00933742
0.0272614
0.097177
0.315669
0.674432
0.632884
0.182403
-0.226455
-0.370593
-0.246182
-0.137173
-0.0762176
-0.0415416
-0.0216557
-0.0116659
-0.00639008
-0.0035267
-0.00194104
-0.00105622
-0.000556009
-0.000286541
-0.00014033
-6.60117e-05
-2.96928e-05
-1.17074e-05
-3.31916e-06
-8.72217e-07
-2.19164e-07
-4.6824e-08
-3.43083e-09
1.58093e-41
-4.31998e-40
1.36718e-39
3.05333e-39
8.93282e-39
-3.73045e-38
-1.02107e-37
4.3558e-38
-5.18946e-37
6.57403e-37
-3.5232e-36
2.21408e-35
1.01835e-34
-2.73627e-34
6.10407e-34
3.41562e-34
3.40568e-34
-2.58424e-32
-1.06576e-31
-3.59731e-31
7.22802e-31
9.75453e-31
-2.13066e-30
1.98159e-30
6.52172e-29
1.80153e-28
5.51537e-28
1.22387e-27
-1.54878e-27
-4.60188e-27
3.62e-26
-5.70211e-26
-1.54647e-26
9.81117e-24
4.69561e-23
2.77829e-22
1.76943e-21
1.02891e-20
7.01411e-20
4.40622e-19
2.79801e-18
1.56741e-17
8.76208e-17
4.68461e-16
2.56339e-15
1.38858e-14
7.06944e-14
3.37553e-13
1.51648e-12
6.45759e-12
2.62857e-11
1.02593e-10
3.82419e-10
1.14212e-09
3.59364e-09
9.87506e-09
2.70153e-08
7.62712e-08
2.11791e-07
5.86903e-07
1.6503e-06
4.49486e-06
1.25634e-05
3.62316e-05
9.72432e-05
0.000220942
0.000463404
0.000946776
0.00190409
0.00397192
0.00911866
0.0264511
0.0941439
0.308141
0.668235
0.643135
0.1928
-0.219488
-0.372107
-0.249287
-0.138965
-0.0771794
-0.0420963
-0.0219299
-0.0118088
-0.00646657
-0.00356843
-0.00196399
-0.00106886
-0.000562586
-0.000289995
-0.000142018
-6.6823e-05
-3.00632e-05
-1.18681e-05
-3.36783e-06
-8.84667e-07
-2.22221e-07
-4.7461e-08
-3.47736e-09
-2.53204e-41
1.26029e-40
-9.09359e-40
3.46046e-39
-9.74368e-39
-1.58964e-39
3.6854e-38
-4.42274e-37
-1.19531e-36
-2.96753e-37
-1.13539e-35
-2.19043e-35
8.262e-35
-5.62547e-35
-5.24495e-35
-8.39608e-34
1.34232e-32
-3.01338e-33
-1.16658e-31
4.72608e-31
5.82582e-31
-1.26261e-30
-7.22892e-30
3.47978e-30
-8.47157e-29
1.7821e-28
-9.07002e-28
1.01285e-27
5.15782e-27
-1.08828e-26
6.10717e-26
-4.57962e-26
-7.76634e-26
9.37695e-24
2.50114e-23
2.1366e-22
1.77672e-21
1.19266e-20
7.90519e-20
5.03846e-19
2.95803e-18
1.65352e-17
9.23021e-17
4.87561e-16
2.68782e-15
1.44896e-14
7.3257e-14
3.47503e-13
1.55127e-12
6.56377e-12
2.65691e-11
1.03102e-10
3.82107e-10
1.13546e-09
3.59524e-09
9.83519e-09
2.67463e-08
7.52091e-08
2.08463e-07
5.76543e-07
1.61997e-06
4.40824e-06
1.23037e-05
3.54647e-05
9.53463e-05
0.000217166
0.000455885
0.00093198
0.00187554
0.00390471
0.00893421
0.0257706
0.0915707
0.301826
0.662708
0.651668
0.201717
-0.213426
-0.373237
-0.251945
-0.140507
-0.0780014
-0.0425745
-0.0221666
-0.0119323
-0.00653277
-0.00360459
-0.00198392
-0.00107987
-0.000568333
-0.000293053
-0.000143511
-6.75446e-05
-3.03943e-05
-1.20151e-05
-3.41215e-06
-8.95931e-07
-2.24975e-07
-4.80332e-08
-3.51914e-09
1.07868e-40
1.77036e-40
4.12225e-40
-1.15323e-39
1.30788e-38
-1.41076e-38
-1.07529e-38
8.03998e-38
-1.30304e-36
7.93725e-37
-4.62588e-36
-6.35997e-36
-3.26826e-35
3.24013e-34
1.15823e-33
2.97124e-33
-1.01589e-32
5.44642e-32
2.56123e-32
3.3208e-31
-3.4811e-31
-1.82041e-30
6.489e-30
-1.23513e-29
3.4456e-29
-4.79473e-29
8.11736e-29
1.20856e-27
4.27885e-27
1.20649e-26
1.26181e-26
-2.81788e-26
2.05984e-25
1.00972e-23
4.73645e-23
3.02335e-22
2.12025e-21
1.32211e-20
8.3556e-20
5.11796e-19
3.04527e-18
1.7161e-17
9.09664e-17
5.04232e-16
2.79835e-15
1.49617e-14
7.52402e-14
3.5519e-13
1.57818e-12
6.6465e-12
2.67839e-11
1.03466e-10
3.81821e-10
1.13052e-09
3.59335e-09
9.79779e-09
2.6519e-08
7.4433e-08
2.06037e-07
5.69146e-07
1.59755e-06
4.339e-06
1.2089e-05
3.47906e-05
9.37563e-05
0.000214056
0.000449682
0.000919545
0.00185054
0.00385183
0.00879824
0.0252549
0.0896353
0.296916
0.658162
0.658198
0.208759
-0.208524
-0.37404
-0.254062
-0.141743
-0.0786685
-0.0429617
-0.0223578
-0.0120319
-0.00658606
-0.00363369
-0.00199997
-0.00108874
-0.000572962
-0.000295509
-0.000144706
-6.8119e-05
-3.06566e-05
-1.21383e-05
-3.44835e-06
-9.05167e-07
-2.27237e-07
-4.85031e-08
-3.55346e-09
-1.7311e-41
-1.03653e-40
-1.28135e-39
5.10274e-39
-1.19372e-38
-4.39758e-38
1.86268e-37
-1.69767e-38
2.46149e-37
5.94927e-37
-4.90058e-36
4.21022e-35
-1.25876e-35
4.28184e-34
3.71088e-34
-2.65677e-33
-6.11716e-33
-5.00078e-32
4.47566e-32
-4.28848e-31
8.781e-31
1.87776e-30
-3.4818e-30
-1.5831e-29
3.94175e-29
1.44764e-28
7.05934e-28
1.59092e-27
-6.43017e-27
-3.49802e-27
3.23747e-27
9.20726e-26
3.58762e-25
2.14308e-24
4.56316e-23
3.02872e-22
2.15904e-21
1.26952e-20
8.3691e-20
5.37114e-19
3.04174e-18
1.71155e-17
9.28972e-17
5.15355e-16
2.87813e-15
1.5307e-14
7.66766e-14
3.6075e-13
1.5978e-12
6.70912e-12
2.69419e-11
1.0376e-10
3.81736e-10
1.12737e-09
3.59176e-09
9.77203e-09
2.63675e-08
7.38882e-08
2.0431e-07
5.63876e-07
1.58164e-06
4.29218e-06
1.19462e-05
3.43529e-05
9.26999e-05
0.000211949
0.000445462
0.000911124
0.00183353
0.00381573
0.00869486
0.0248926
0.0882614
0.293471
0.654894
0.662715
0.213729
-0.205012
-0.374569
-0.255558
-0.142617
-0.0791372
-0.0432349
-0.0224931
-0.0121023
-0.00662378
-0.0036543
-0.00201134
-0.00109504
-0.000576249
-0.000297258
-0.00014556
-6.85323e-05
-3.08469e-05
-1.22246e-05
-3.47449e-06
-9.11815e-07
-2.28863e-07
-4.88403e-08
-3.57809e-09
-5.68154e-41
3.59694e-40
1.2187e-40
6.73351e-41
-1.92253e-40
-4.23981e-38
7.37079e-39
1.77502e-37
5.01823e-37
3.04761e-36
-1.04008e-35
3.2654e-35
-6.60442e-35
3.71318e-34
-1.39522e-33
1.40603e-33
-7.78001e-33
-3.9838e-33
-2.93713e-32
-1.30132e-31
-8.37622e-31
-1.71833e-30
-6.15451e-30
-1.63255e-29
-1.16023e-28
-2.36202e-28
-8.69888e-28
-1.09823e-27
3.88943e-27
-6.73498e-27
-4.04329e-26
6.75661e-26
-1.08375e-25
2.10741e-24
4.9963e-23
2.93075e-22
2.13605e-21
1.33611e-20
8.79577e-20
5.55888e-19
3.19347e-18
1.75938e-17
9.3966e-17
5.30401e-16
2.91758e-15
1.55197e-14
7.76343e-14
3.64495e-13
1.61091e-12
6.74981e-12
2.70485e-11
1.03972e-10
3.81844e-10
1.126e-09
3.59251e-09
9.76197e-09
2.62969e-08
7.36267e-08
2.03453e-07
5.61193e-07
1.57331e-06
4.26817e-06
1.18738e-05
3.41296e-05
9.21494e-05
0.000210854
0.000443258
0.000906637
0.00182447
0.00379624
0.00864819
0.0247072
0.0875537
0.291653
0.653125
0.665069
0.216363
-0.203125
-0.37482
-0.256355
-0.143086
-0.0793891
-0.0433829
-0.0225664
-0.0121405
-0.00664426
-0.00366549
-0.00201751
-0.00109845
-0.000578035
-0.000298207
-0.000146023
-6.87572e-05
-3.09497e-05
-1.22695e-05
-3.48846e-06
-9.15389e-07
-2.2974e-07
-4.90225e-08
-3.59141e-09
2.07503e-41
1.93093e-40
3.94116e-41
3.79454e-39
4.69173e-39
-9.91562e-39
1.57956e-37
3.52473e-37
2.44617e-38
-4.42477e-36
-1.03055e-36
-1.28951e-35
-1.47361e-34
-3.43748e-34
-1.85907e-33
-2.86042e-33
-4.27738e-33
1.46018e-33
-4.37679e-32
8.55217e-33
2.52994e-32
3.5777e-30
-1.14777e-29
-3.98568e-30
-3.53858e-29
-1.75909e-29
5.60794e-28
-1.95538e-27
-3.28159e-27
-3.80465e-27
1.32873e-26
1.04156e-25
-4.76702e-25
2.30662e-24
4.86494e-23
2.2872e-22
2.19359e-21
1.34644e-20
8.9233e-20
5.46626e-19
3.25601e-18
1.79598e-17
9.69412e-17
5.33825e-16
2.94267e-15
1.565e-14
7.82042e-14
3.66763e-13
1.61918e-12
6.77743e-12
2.71323e-11
1.04185e-10
3.82254e-10
1.1263e-09
3.59699e-09
9.76742e-09
2.62934e-08
7.35894e-08
2.03306e-07
5.60695e-07
1.57172e-06
4.26331e-06
1.1859e-05
3.40842e-05
9.20388e-05
0.000210639
0.000442841
0.000905815
0.00182282
0.00379283
0.00863929
0.0246758
0.0874345
0.291358
0.652838
0.665434
0.216779
-0.202826
-0.374851
-0.256474
-0.143156
-0.0794267
-0.0434049
-0.0225773
-0.0121463
-0.00664734
-0.00366717
-0.00201844
-0.00109896
-0.0005783
-0.000298347
-0.000146091
-6.87898e-05
-3.0965e-05
-1.22781e-05
-3.4906e-06
-9.15896e-07
-2.29857e-07
-4.9046e-08
-3.59309e-09
-5.63009e-41
5.72713e-41
4.22761e-40
1.36918e-39
-7.86616e-39
-5.43815e-38
-1.81358e-37
6.86442e-38
-7.5346e-37
2.53625e-36
-1.11367e-36
2.41872e-36
1.13758e-34
-2.62504e-34
-1.85976e-33
2.6486e-33
-1.0628e-32
2.95587e-33
-1.14299e-31
-4.73896e-31
-1.41776e-30
1.22431e-30
8.79215e-30
1.88253e-29
1.12914e-28
9.14317e-29
-3.30383e-28
5.5721e-28
-1.9958e-27
-8.83439e-27
4.89929e-26
1.08354e-25
3.84094e-25
1.65617e-24
4.97531e-23
3.80265e-22
2.1693e-21
1.42177e-20
9.18911e-20
5.64556e-19
3.26643e-18
1.79197e-17
9.84916e-17
5.37193e-16
2.94014e-15
1.57049e-14
7.84374e-14
3.67774e-13
1.62346e-12
6.79491e-12
2.72011e-11
1.04444e-10
3.83179e-10
1.12897e-09
3.60734e-09
9.79562e-09
2.63851e-08
7.38607e-08
2.0409e-07
5.62977e-07
1.57842e-06
4.2824e-06
1.19155e-05
3.42542e-05
9.24496e-05
0.000211452
0.000444469
0.000909063
0.00182928
0.00380657
0.00867046
0.0248118
0.0879519
0.292681
0.65411
0.663687
0.214837
-0.2042
-0.374645
-0.255886
-0.142812
-0.0792421
-0.0432968
-0.022524
-0.0121185
-0.00663245
-0.00365903
-0.00201394
-0.00109646
-0.000576994
-0.000297649
-0.000145751
-6.86241e-05
-3.0888e-05
-1.22405e-05
-3.47946e-06
-9.13077e-07
-2.29169e-07
-4.89033e-08
-3.58268e-09
3.48161e-41
-8.48305e-41
-1.17581e-39
-3.59335e-39
3.99902e-39
-3.86404e-38
2.64201e-38
-2.81101e-38
-5.79611e-37
2.05311e-36
-7.22004e-36
-1.81999e-35
-8.01092e-35
-2.64798e-34
-4.62789e-34
2.91353e-33
3.08109e-33
1.31682e-32
-5.9186e-32
-2.82075e-31
-8.7577e-31
-1.14654e-31
1.50355e-29
2.90479e-29
-2.34424e-30
1.22894e-28
7.9277e-28
1.59508e-27
-3.91175e-27
-1.32006e-26
1.57757e-26
1.18585e-25
1.11544e-25
2.98522e-24
5.26332e-23
2.92432e-22
2.01707e-21
1.27205e-20
8.72081e-20
5.61334e-19
3.17494e-18
1.7852e-17
9.54448e-17
5.37172e-16
2.93722e-15
1.56561e-14
7.82584e-14
3.67295e-13
1.62295e-12
6.79953e-12
2.72466e-11
1.04716e-10
3.845e-10
1.13378e-09
3.62351e-09
9.84651e-09
2.65706e-08
7.44318e-08
2.05764e-07
5.6788e-07
1.593e-06
4.32436e-06
1.20402e-05
3.46314e-05
9.3358e-05
0.000213239
0.000448027
0.000916185
0.00184349
0.00383692
0.00875223
0.0251121
0.0890818
0.295566
0.656866
0.65987
0.210634
-0.207175
-0.374228
-0.254619
-0.142069
-0.0788426
-0.0430629
-0.0224084
-0.0120583
-0.00660021
-0.00364141
-0.0020042
-0.00109106
-0.000574175
-0.000296145
-0.000145015
-6.82665e-05
-3.07235e-05
-1.21625e-05
-3.45641e-06
-9.07181e-07
-2.27721e-07
-4.86022e-08
-3.56065e-09
-8.12262e-41
-6.86532e-41
-1.13006e-39
-4.9966e-39
1.4091e-38
1.0689e-38
7.86112e-38
2.49211e-38
2.40402e-37
3.26141e-36
-1.15462e-36
5.41811e-35
7.46436e-35
-4.61586e-34
4.8981e-34
1.25482e-33
1.12379e-32
5.61022e-32
6.01948e-33
2.66714e-31
9.37537e-31
-9.99418e-31
-1.53759e-30
-1.20166e-29
1.09914e-29
1.7268e-28
-8.44795e-28
-9.34008e-28
1.83895e-27
2.11387e-27
-3.78468e-26
-1.01911e-25
-1.72042e-25
2.3307e-24
5.30254e-23
2.26163e-22
2.15906e-21
1.27255e-20
8.43676e-20
5.52499e-19
3.1604e-18
1.72562e-17
9.43641e-17
5.36421e-16
2.90633e-15
1.55105e-14
7.7712e-14
3.65504e-13
1.61841e-12
6.79427e-12
2.7281e-11
1.05052e-10
3.86426e-10
1.14127e-09
3.64705e-09
9.92434e-09
2.68641e-08
7.53501e-08
2.08483e-07
5.75877e-07
1.61666e-06
4.39234e-06
1.2242e-05
3.5235e-05
9.47949e-05
0.00021605
0.00045362
0.000927326
0.00186573
0.00388452
0.00888122
0.0255801
0.0908643
0.300001
0.660948
0.653954
0.204259
-0.211633
-0.373536
-0.252711
-0.140955
-0.0782455
-0.0427145
-0.0222363
-0.0119685
-0.00655212
-0.00361511
-0.00198968
-0.00108301
-0.000569966
-0.000293902
-0.000143923
-6.77367e-05
-3.048e-05
-1.20507e-05
-3.4222e-06
-8.9844e-07
-2.25576e-07
-4.81563e-08
-3.52804e-09
-3.10742e-41
-3.54746e-40
1.44671e-39
-1.32569e-39
1.11002e-38
-5.25266e-38
-4.92976e-38
1.85885e-37
-1.57786e-36
1.9602e-36
1.08633e-35
5.4071e-36
-1.49061e-35
2.67262e-34
-9.6177e-34
3.21458e-34
7.0442e-33
5.73476e-32
-6.15812e-32
-3.98502e-31
-1.8277e-31
3.41359e-30
-9.88773e-30
-2.21821e-30
-2.44553e-29
4.01269e-29
-4.35689e-28
-5.3304e-28
3.32931e-27
8.07165e-27
-1.22265e-26
-8.85581e-26
4.49678e-25
2.32518e-24
4.79875e-23
2.93314e-22
1.99114e-21
1.32906e-20
8.08536e-20
5.08299e-19
3.09974e-18
1.70031e-17
9.11044e-17
5.21783e-16
2.86268e-15
1.52882e-14
7.67821e-14
3.62121e-13
1.60827e-12
6.77359e-12
2.72867e-11
1.05405e-10
3.88883e-10
1.15149e-09
3.67729e-09
1.00247e-08
2.72493e-08
7.65683e-08
2.12119e-07
5.86649e-07
1.64882e-06
4.48581e-06
1.25245e-05
3.60594e-05
9.67116e-05
0.000219761
0.000460983
0.000941988
0.0018947
0.00394736
0.00905051
0.0261968
0.0931771
0.30577
0.666124
0.646203
0.196037
-0.217314
-0.37255
-0.250248
-0.139513
-0.0774721
-0.0422634
-0.0220136
-0.0118521
-0.00648981
-0.00358108
-0.0019709
-0.00107261
-0.000564532
-0.000291011
-0.000142511
-6.70546e-05
-3.01666e-05
-1.19071e-05
-3.37867e-06
-8.87324e-07
-2.22848e-07
-4.75886e-08
-3.48653e-09
-1.06994e-40
-1.19484e-40
1.02041e-39
-2.50625e-39
-1.06134e-38
-2.57959e-38
-8.34228e-39
-4.29425e-37
-1.52963e-36
6.46577e-38
-1.02607e-35
-4.31904e-35
-6.13234e-35
-4.13772e-34
6.32948e-34
7.93709e-34
-1.7033e-33
-7.04495e-33
6.6498e-34
4.41748e-31
-3.56426e-31
1.99172e-30
-7.11547e-30
8.46884e-30
-6.53231e-29
9.1207e-29
5.40473e-28
5.23983e-29
7.39301e-27
1.48861e-26
6.04681e-26
-9.01652e-26
-4.21854e-25
9.42245e-24
2.71421e-23
3.6996e-22
1.96262e-21
1.18795e-20
7.79152e-20
5.02391e-19
2.91489e-18
1.69324e-17
9.09394e-17
5.06844e-16
2.77155e-15
1.49305e-14
7.53804e-14
3.56983e-13
1.59223e-12
6.73374e-12
2.72462e-11
1.05716e-10
3.91738e-10
1.16382e-09
3.70814e-09
1.01436e-08
2.77115e-08
7.80286e-08
2.16465e-07
5.99436e-07
1.68654e-06
4.59341e-06
1.28399e-05
3.70097e-05
9.89657e-05
0.000224141
0.000469646
0.000958619
0.0019478
0.00401958
0.0092541
0.0269544
0.0960039
0.312728
0.672099
0.636726
0.186254
-0.223936