/*--------------------------------*- C++ -*----------------------------------*\
  =========                 |
  \\      /  F ield         | OpenFOAM: The Open Source CFD Toolbox
   \\    /   O peration     | Website:  https://openfoam.org
    \\  /    A nd           | Version:  10
     \\/     M anipulation  |
\*---------------------------------------------------------------------------*/
FoamFile
{
    format      ascii;
    class       volScalarField;
    location    "1";
    object      RR.CH2O;
}
// * * * * * * * * * * * * * * * * * * * * * * * * * * * * * * * * * * * * * //

dimensions      [1 -3 -1 0 0 0 0];

internalField   nonuniform List<scalar> 
4000
(
-2.20619e-37
5.96721e-36
1.91483e-35
5.87479e-35
2.00508e-34
6.65725e-34
2.10448e-33
6.48448e-33
1.96969e-32
6.02148e-32
1.90036e-31
5.83584e-31
1.77171e-30
5.39795e-30
1.6606e-29
5.15056e-29
1.58676e-28
5.21691e-28
1.66494e-27
5.39832e-27
1.76292e-26
5.80573e-26
1.949e-25
6.51544e-25
2.20436e-24
7.44031e-24
2.45157e-23
8.51613e-23
2.83958e-22
9.4961e-22
3.17667e-21
1.05937e-20
3.49883e-20
1.15052e-19
3.7866e-19
1.18665e-18
3.90441e-18
1.24849e-17
4.0079e-17
1.27682e-16
3.91052e-16
1.19459e-15
3.58343e-15
1.09287e-14
3.47696e-14
1.29576e-13
5.81984e-13
2.99297e-12
1.64285e-11
8.96276e-11
4.68902e-10
2.37385e-09
9.78695e-09
4.40749e-08
1.86625e-07
7.14606e-07
2.38864e-06
7.58213e-06
2.18754e-05
5.79051e-05
0.000144234
0.0003316
0.000701657
0.00113701
0.00145609
0.00176171
0.00210435
0.00249794
0.00303062
0.003967
0.00583386
0.00931531
0.014262
0.0177243
0.0149611
0.00428622
-0.00355033
-0.00801734
-0.0104956
-0.00831751
-0.0035695
0.00126592
0.0010306
0.00218153
-0.00103374
-0.00312982
-0.00173058
-0.000957689
-0.000526193
-0.000285503
-0.000153984
-8.43287e-05
-5.3807e-05
-3.18677e-05
2.0751e-05
3.39676e-05
3.77829e-06
-2.79987e-06
-1.74854e-06
-1.69362e-07
5.48964e-36
-2.02192e-36
2.0162e-35
9.87162e-35
1.80151e-34
6.1888e-34
2.07175e-33
6.17058e-33
1.81888e-32
5.29298e-32
1.5478e-31
4.60848e-31
1.39587e-30
4.3117e-30
1.36109e-29
4.38634e-29
1.43716e-28
4.79487e-28
1.62098e-27
5.51885e-27
1.89348e-26
6.56585e-26
2.2708e-25
7.85932e-25
2.7278e-24
9.38825e-24
3.22526e-23
1.1043e-22
3.74895e-22
1.25821e-21
4.27639e-21
1.48096e-20
4.93808e-20
1.60594e-19
5.20844e-19
1.69861e-18
5.38859e-18
1.74309e-17
5.3722e-17
1.67347e-16
5.16146e-16
1.55199e-15
4.71716e-15
1.44371e-14
4.99854e-14
1.97759e-13
9.24171e-13
4.79358e-12
2.61213e-11
1.42463e-10
6.54224e-10
2.67969e-09
1.24094e-08
5.34993e-08
2.19432e-07
8.32763e-07
2.63081e-06
8.02137e-06
2.25026e-05
5.82808e-05
0.000143664
0.000328262
0.000692195
0.00112482
0.00144353
0.00174826
0.00209153
0.00248836
0.00301828
0.00393598
0.00577137
0.00922719
0.0142751
0.0180482
0.015594
0.00479154
-0.00340308
-0.00800485
-0.0105807
-0.00839127
-0.00354008
0.00131091
0.000978565
0.00227504
-0.00162906
-0.00301387
-0.0016673
-0.000922917
-0.000506146
-0.000274272
-0.000147931
-8.16197e-05
-5.29457e-05
-2.95715e-05
2.57376e-05
3.23711e-05
2.8444e-06
-2.80743e-06
-1.67327e-06
-1.59425e-07
1.31981e-36
-1.28879e-35
2.47272e-35
4.61802e-35
2.86178e-34
1.68846e-34
6.25945e-34
1.844e-33
6.37552e-33
1.96941e-32
6.55739e-32
2.23678e-31
7.8189e-31
2.77488e-30
9.9373e-30
3.58078e-29
1.29655e-28
4.71222e-28
1.71313e-27
6.20579e-27
2.24431e-26
8.06787e-26
2.88112e-25
1.01969e-24
3.57338e-24
1.24303e-23
4.3073e-23
1.5035e-22
5.10372e-22
1.7099e-21
5.95518e-21
1.97448e-20
6.41864e-20
2.11271e-19
6.93282e-19
2.21856e-18
6.97674e-18
2.18456e-17
6.82641e-17
2.06833e-16
6.29615e-16
1.82656e-15
5.79696e-15
1.78809e-14
6.45024e-14
2.59057e-13
1.25346e-12
6.55083e-12
3.41195e-11
1.80885e-10
8.10702e-10
3.38267e-09
1.54799e-08
6.80004e-08
2.61541e-07
8.96899e-07
2.75271e-06
8.26241e-06
2.28864e-05
5.8716e-05
0.000143544
0.000326344
0.000685567
0.00111452
0.00143332
0.0017379
0.00208312
0.00248605
0.0030183
0.00392386
0.00573178
0.00916661
0.0143272
0.018442
0.0163714
0.00542615
-0.0032221
-0.00800636
-0.0107018
-0.00848632
-0.00349372
0.00135304
0.000907683
0.00240279
-0.00250058
-0.00284618
-0.00157541
-0.000871146
-0.000477962
-0.000258375
-0.000139408
-7.78351e-05
-5.16521e-05
-2.61758e-05
3.14006e-05
2.9898e-05
1.83141e-06
-2.8987e-06
-1.5983e-06
-1.49517e-07
-2.82866e-36
-3.56619e-35
-2.48454e-35
3.28968e-35
9.18458e-35
2.15559e-34
5.76149e-34
1.6087e-33
6.02433e-33
2.10841e-32
7.7759e-32
2.85262e-31
1.0664e-30
3.91496e-30
1.4374e-29
5.26396e-29
1.92126e-28
6.98015e-28
2.52141e-27
9.06422e-27
3.24291e-26
1.15376e-25
4.07747e-25
1.42862e-24
5.05962e-24
1.75032e-23
6.02052e-23
2.05445e-22
6.82871e-22
2.35691e-21
7.82622e-21
2.58616e-20
8.42461e-20
2.74456e-19
8.89275e-19
2.81895e-18
8.75699e-18
2.74503e-17
8.4313e-17
2.54871e-16
7.70602e-16
2.26217e-15
7.09522e-15
2.22674e-14
7.75595e-14
3.33754e-13
1.62724e-12
8.35629e-12
4.51894e-11
2.04465e-10
8.93957e-10
4.36351e-09
1.99801e-08
8.24339e-08
3.05737e-07
9.36288e-07
2.86639e-06
8.4898e-06
2.3229e-05
5.89217e-05
0.000143099
0.000323993
0.000679172
0.0011068
0.00142619
0.00173093
0.0020791
0.00248761
0.00302372
0.00392211
0.00571453
0.00913932
0.0144144
0.0188359
0.0171743
0.005978
-0.00305443
-0.00803565
-0.010866
-0.00861928
-0.0034754
0.00135079
0.000831733
0.00252597
-0.00332851
-0.0026831
-0.0014876
-0.000823898
-0.000452835
-0.000242349
-0.000131156
-7.4429e-05
-5.05038e-05
-2.258e-05
3.63352e-05
2.71454e-05
9.38163e-07
-2.91688e-06
-1.52921e-06
-1.40632e-07
-4.50533e-36
8.60137e-36
2.16969e-35
4.11655e-35
1.04035e-34
1.5407e-34
7.35509e-34
2.48084e-33
8.56628e-33
3.15728e-32
1.14286e-31
4.16482e-31
1.54033e-30
5.59905e-30
2.07677e-29
7.53149e-29
2.71797e-28
9.9945e-28
3.5998e-27
1.28927e-26
4.58912e-26
1.61934e-25
5.67242e-25
1.97393e-24
6.82976e-24
2.34226e-23
7.97228e-23
2.74028e-22
9.18337e-22
3.05089e-21
1.00752e-20
3.39232e-20
1.09241e-19
3.52971e-19
1.12143e-18
3.53874e-18
1.0823e-17
3.25829e-17
1.00895e-16
3.05875e-16
9.06186e-16
2.70104e-15
8.09642e-15
2.66437e-14
9.45744e-14
4.1226e-13
1.99251e-12
1.07602e-11
4.90876e-11
2.18104e-10
1.09124e-09
5.20375e-09
2.3881e-08
1.00415e-07
3.22661e-07
9.82687e-07
2.98221e-06
8.69562e-06
2.35099e-05
5.92257e-05
0.000143045
0.000322849
0.000675312
0.00110137
0.00142118
0.00172699
0.00207924
0.00249229
0.00303225
0.00392855
0.0057126
0.00914246
0.0145264
0.0192557
0.0179247
0.00655157
-0.00290243
-0.00806733
-0.011012
-0.00872435
-0.00343704
0.00134897
0.000751418
0.00257862
-0.00380256
-0.00257673
-0.00142792
-0.000790201
-0.000433826
-0.000232025
-0.000125748
-7.22648e-05
-4.97823e-05
-1.9303e-05
4.00961e-05
2.49566e-05
2.82426e-07
-2.93231e-06
-1.48738e-06
-1.31678e-07
1.28263e-36
2.10256e-36
1.84428e-36
1.63892e-35
7.69504e-35
3.71458e-34
1.22281e-33
4.5191e-33
1.60115e-32
5.73593e-32
2.04135e-31
7.20999e-31
2.62191e-30
9.33412e-30
3.31388e-29
1.19398e-28
4.24185e-28
1.50667e-27
5.35926e-27
1.87534e-26
6.68049e-26
2.31239e-25
7.94397e-25
2.70957e-24
9.28483e-24
3.2038e-23
1.07545e-22
3.56049e-22
1.20272e-21
3.93321e-21
1.27991e-20
4.28817e-20
1.36633e-19
4.33089e-19
1.35329e-18
4.20981e-18
1.27947e-17
3.80703e-17
1.1763e-16
3.68552e-16
1.06729e-15
3.09643e-15
9.39855e-15
3.10812e-14
1.1333e-13
4.90715e-13
2.49593e-12
1.16338e-11
5.33474e-11
2.60414e-10
1.28521e-09
6.08016e-09
2.6773e-08
1.09885e-07
3.47853e-07
1.03615e-06
3.0725e-06
8.87406e-06
2.37126e-05
5.93096e-05
0.000142609
0.000321168
0.000671147
0.00109663
0.00141763
0.00172437
0.00207923
0.00249786
0.00304396
0.00393766
0.0057129
0.00914337
0.0146105
0.019554
0.0184641
0.00702084
-0.00276641
-0.00808027
-0.0111216
-0.00881557
-0.00341728
0.00132696
0.00068025
0.00258711
-0.00404555
-0.00251677
-0.00139324
-0.00076994
-0.000421952
-0.00022559
-0.00012236
-7.10417e-05
-4.93624e-05
-1.66168e-05
4.27593e-05
2.33522e-05
-1.65458e-07
-2.94755e-06
-1.44674e-06
-1.26823e-07
6.2787e-37
6.85702e-36
4.54681e-36
4.4002e-35
1.84926e-34
5.26927e-34
1.9718e-33
6.78059e-33
2.41451e-32
8.56227e-32
3.02898e-31
1.07339e-30
3.80169e-30
1.34416e-29
4.75879e-29
1.68803e-28
5.98998e-28
2.10199e-27
7.35977e-27
2.59665e-26
9.01325e-26
3.10801e-25
1.06476e-24
3.62043e-24
1.22007e-23
4.07242e-23
1.36194e-22
4.4143e-22
1.48754e-21
4.9209e-21
1.5914e-20
5.1221e-20
1.63348e-19
5.17457e-19
1.59793e-18
4.97271e-18
1.54587e-17
4.56546e-17
1.41183e-16
4.20211e-16
1.22489e-15
3.61131e-15
1.096e-14
3.50846e-14
1.31123e-13
5.77064e-13
2.77631e-12
1.18882e-11
6.06785e-11
3.01552e-10
1.44425e-09
6.69219e-09
2.89415e-08
1.1668e-07
3.64883e-07
1.07645e-06
3.14405e-06
8.98157e-06
2.38259e-05
5.92545e-05
0.000141951
0.000319118
0.000666584
0.00109185
0.00141411
0.0017217
0.00207831
0.00250031
0.00304963
0.00394155
0.00570744
0.00913505
0.0146638
0.0198001
0.0189451
0.00745671
-0.0026233
-0.00807496
-0.0112195
-0.008914
-0.00342987
0.00129118
0.000618402
0.00257342
-0.0041661
-0.00248624
-0.00137512
-0.000759036
-0.000415355
-0.000221992
-0.000120472
-7.0481e-05
-4.9226e-05
-1.45822e-05
4.46139e-05
2.22162e-05
-4.73418e-07
-2.95941e-06
-1.42087e-06
-1.23725e-07
9.74559e-37
4.58588e-36
1.03379e-35
9.08122e-35
2.12304e-34
8.41704e-34
2.77261e-33
9.84552e-33
3.47315e-32
1.22427e-31
4.31155e-31
1.51859e-30
5.3545e-30
1.88763e-29
6.62065e-29
2.32222e-28
8.14176e-28
2.83958e-27
9.87093e-27
3.4219e-26
1.18159e-25
4.04343e-25
1.37438e-24
4.63824e-24
1.5554e-23
5.18605e-23
1.71454e-22
5.57995e-22
1.78908e-21
5.75711e-21
1.88783e-20
6.15295e-20
1.94678e-19
6.08769e-19
1.86094e-18
5.7115e-18
1.75462e-17
5.12946e-17
1.57906e-16
4.71383e-16
1.38019e-15
4.00745e-15
1.23725e-14
4.02725e-14
1.54593e-13
6.8053e-13
2.96299e-12
1.37585e-11
6.96744e-11
3.42126e-10
1.63656e-09
7.37718e-09
3.11822e-08
1.23252e-07
3.80155e-07
1.10733e-06
3.19647e-06
9.04657e-06
2.38275e-05
5.89633e-05
0.000140823
0.00031626
0.000660807
0.00108644
0.00140975
0.00171765
0.00207627
0.00250094
0.00305244
0.00394112
0.00569381
0.00910959
0.014681
0.0199927
0.0193804
0.00789232
-0.00247678
-0.00804887
-0.0113025
-0.00902077
-0.00347529
0.00124998
0.000566815
0.00255275
-0.00422639
-0.00247325
-0.0013671
-0.000753998
-0.000412169
-0.000220245
-0.000119573
-7.0329e-05
-4.92573e-05
-1.31619e-05
4.59127e-05
2.14871e-05
-6.77474e-07
-2.97197e-06
-1.40622e-06
-1.21888e-07
-2.08132e-36
-3.20012e-37
3.38088e-35
4.64985e-35
3.01228e-34
1.0145e-33
3.75297e-33
1.29185e-32
4.53839e-32
1.60383e-31
5.62948e-31
1.97199e-30
6.89829e-30
2.42713e-29
8.4627e-29
2.94699e-28
1.02592e-27
3.55584e-27
1.22319e-26
4.28078e-26
1.46795e-25
4.92141e-25
1.69591e-24
5.65712e-24
1.88835e-23
6.32319e-23
2.08388e-22
6.81472e-22
2.20449e-21
7.05628e-21
2.22464e-20
7.15757e-20
2.24812e-19
7.03914e-19
2.16083e-18
6.56337e-18
1.97603e-17
5.72677e-17
1.75369e-16
5.2247e-16
1.50979e-15
4.49241e-15
1.38064e-14
4.63376e-14
1.65234e-13
6.54393e-13
3.1978e-12
1.59618e-11
7.93067e-11
3.87888e-10
1.80367e-09
7.96154e-09
3.30599e-08
1.28587e-07
3.9128e-07
1.12854e-06
3.2271e-06
9.06002e-06
2.3712e-05
5.84193e-05
0.000139072
0.000311693
0.000652401
0.00107803
0.00140409
0.00171278
0.00207174
0.00249881
0.00305113
0.00393322
0.00566511
0.00905419
0.0146579
0.020137
0.0197766
0.00833568
-0.00231849
-0.00800201
-0.0113725
-0.00913798
-0.00355218
0.00120702
0.000524136
0.00253217
-0.00425657
-0.00247092
-0.00136528
-0.000752613
-0.000411152
-0.000219673
-0.000119301
-7.04179e-05
-4.94145e-05
-1.22801e-05
4.68736e-05
2.10907e-05
-8.05276e-07
-2.98678e-06
-1.4004e-06
-1.21029e-07
2.88199e-36
7.99155e-36
4.92284e-35
1.19102e-34
3.72528e-34
1.30084e-33
4.57327e-33
1.62074e-32
5.68009e-32
1.99001e-31
6.97086e-31
2.45247e-30
8.55471e-30
2.9856e-29
1.04207e-28
3.5688e-28
1.27872e-27
4.39765e-27
1.51245e-26
5.17082e-26
1.7456e-25
6.01852e-25
2.0215e-24
6.76016e-24
2.24455e-23
7.41767e-23
2.43808e-22
7.91329e-22
2.59811e-21
8.35612e-21
2.65063e-20
8.28418e-20
2.56421e-19
7.89189e-19
2.39417e-18
7.20235e-18
2.13136e-17
6.22883e-17
1.91489e-16
5.63076e-16
1.61643e-15
4.78098e-15
1.47472e-14
4.75898e-14
1.68404e-13
7.55116e-13
3.63952e-12
1.80725e-11
9.00675e-11
4.31192e-10
1.97238e-09
8.56306e-09
3.48749e-08
1.3207e-07
3.98696e-07
1.14373e-06
3.24029e-06
9.03401e-06
2.35258e-05
5.77727e-05
0.000137242
0.000307172
0.00064275
0.00106887
0.0013972
0.0017062
0.00206611
0.00249404
0.00304474
0.00391708
0.00561732
0.00898715
0.0146002
0.020228
0.0201594
0.00883565
-0.00213088
-0.00793546
-0.0114384
-0.00926951
-0.00365759
0.00116345
0.000489027
0.002514
-0.00426944
-0.00247545
-0.00136744
-0.000753596
-0.000411559
-0.000219866
-0.000119437
-7.06499e-05
-4.96478e-05
-1.18406e-05
4.75829e-05
2.09591e-05
-8.76155e-07
-3.00418e-06
-1.40138e-06
-1.20919e-07
1.60629e-36
2.14193e-35
3.13145e-35
1.48619e-34
4.64548e-34
1.55573e-33
5.46381e-33
1.91651e-32
6.70791e-32
2.34765e-31
8.35834e-31
2.92024e-30
1.01783e-29
3.56587e-29
1.24494e-28
4.34754e-28
1.50468e-27
5.17496e-27
1.76734e-26
6.05546e-26
2.02348e-25
6.97864e-25
2.33492e-24
7.77908e-24
2.53782e-23
8.49314e-23
2.75581e-22
8.94969e-22
2.92151e-21
9.39201e-21
2.97498e-20
9.27825e-20
2.84691e-19
8.80786e-19
2.64153e-18
7.88228e-18
2.3367e-17
6.72801e-17
2.08446e-16
6.00819e-16
1.72147e-15
5.02057e-15
1.51355e-14
4.89439e-14
1.90272e-13
8.50986e-13
4.12457e-12
2.0613e-11
1.01413e-10
4.82014e-10
2.19379e-09
9.48522e-09
3.88933e-08
1.32726e-07
4.03595e-07
1.15236e-06
3.23673e-06
8.96636e-06
2.32364e-05
5.67728e-05
0.000134544
0.000301159
0.000633209
0.00105949
0.00139023
0.00169935
0.00205952
0.00248839
0.00303845
0.00390114
0.00557501
0.00890417
0.0145079
0.0202778
0.0204889
0.00930584
-0.00193995
-0.00784899
-0.0114785
-0.00939515
-0.0037763
0.00112193
0.000460998
0.0024982
-0.00426969
-0.00248479
-0.00137236
-0.000756205
-0.000412952
-0.000220586
-0.00011985
-7.09732e-05
-4.99429e-05
-1.17441e-05
4.81292e-05
2.10242e-05
-9.05905e-07
-3.02361e-06
-1.40728e-06
-1.2135e-07
1.08047e-36
1.81078e-35
5.12579e-35
1.67167e-34
5.62491e-34
1.81898e-33
6.22836e-33
2.20688e-32
7.72393e-32
2.73888e-31
9.62778e-31
3.37379e-30
1.1766e-29
4.12072e-29
1.44258e-28
4.99699e-28
1.72496e-27
5.93534e-27
2.0314e-26
6.91714e-26
2.34094e-25
7.85171e-25
2.64395e-24
8.77208e-24
2.89077e-23
9.44844e-23
3.07816e-22
9.79435e-22
3.22282e-21
1.02444e-20
3.18236e-20
1.0076e-19
3.13768e-19
9.59502e-19
2.92317e-18
8.64735e-18
2.51589e-17
7.25444e-17
2.16927e-16
6.44966e-16
1.82914e-15
5.31027e-15
1.60001e-14
5.34704e-14
2.09815e-13
9.42327e-13
4.57227e-12
2.28044e-11
1.11476e-10
5.25505e-10
2.37257e-09
1.01836e-08
4.12758e-08
1.31715e-07
4.07392e-07
1.15708e-06
3.22176e-06
8.88068e-06
2.29197e-05
5.59565e-05
0.000132278
0.000295824
0.000622189
0.0010495
0.00138313
0.00169242
0.00205263
0.00248195
0.00303186
0.00388644
0.00552323
0.00880479
0.0143943
0.0202907
0.0207731
0.00976397
-0.00174448
-0.00774763
-0.0115052
-0.00952021
-0.00390503
0.00108103
0.00043903
0.00248342
-0.00425795
-0.00249812
-0.00137963
-0.000760203
-0.000415133
-0.000221713
-0.000120477
-7.13727e-05
-5.02924e-05
-1.18934e-05
4.85805e-05
2.12377e-05
-9.04883e-07
-3.04398e-06
-1.4165e-06
-1.22151e-07
1.77361e-36
6.85673e-36
4.45378e-35
1.60848e-34
5.87753e-34
1.97453e-33
6.97733e-33
2.46396e-32
8.7193e-32
3.07939e-31
1.08314e-30
3.79616e-30
1.3216e-29
4.64949e-29
1.61005e-28
5.55406e-28
1.89002e-27
6.65325e-27
2.26755e-26
7.73199e-26
2.61487e-25
8.79131e-25
2.9393e-24
9.74219e-24
3.20068e-23
1.04049e-22
3.34233e-22
1.06794e-21
3.42051e-21
1.12779e-20
3.50903e-20
1.10312e-19
3.3879e-19
1.04289e-18
3.11845e-18
9.16943e-18
2.64943e-17
7.62687e-17
2.27699e-16
6.81928e-16
1.94642e-15
5.70331e-15
1.72109e-14
5.86617e-14
2.26343e-13
1.02316e-12
4.97361e-12
2.45021e-11
1.18377e-10
5.51461e-10
2.4596e-09
1.04292e-08
4.16996e-08
1.30915e-07
4.12448e-07
1.1601e-06
3.20047e-06
8.77085e-06
2.25757e-05
5.50044e-05
0.000130102
0.00029061
0.000612048
0.00103922
0.00137543
0.00168475
0.00204487
0.00247395
0.00302169
0.00386623
0.00547532
0.00871209
0.0142734
0.0202735
0.0210309
0.0102423
-0.00153382
-0.00764028
-0.0115224
-0.00964311
-0.00404373
0.00103812
0.000420933
0.00246776
-0.0042342
-0.00251456
-0.0013886
-0.000765172
-0.000417918
-0.000223166
-0.000121263
-7.18152e-05
-5.06546e-05
-1.22152e-05
4.89264e-05
2.15403e-05
-8.85803e-07
-3.06666e-06
-1.42865e-06
-1.23262e-07
2.77167e-36
7.7417e-36
4.32059e-35
1.88782e-34
6.17112e-34
2.23205e-33
7.75537e-33
2.7621e-32
9.71931e-32
3.41072e-31
1.19573e-30
4.16121e-30
1.47694e-29
5.1403e-29
1.7805e-28
6.06149e-28
2.12968e-27
7.27742e-27
2.4814e-26
8.39118e-26
2.81425e-25
9.38707e-25
3.17433e-24
1.04748e-23
3.43597e-23
1.11417e-22
3.65144e-22
1.17256e-21
3.73519e-21
1.1861e-20
3.72952e-20
1.17345e-19
3.60456e-19
1.09205e-18
3.27181e-18
9.60734e-18
2.79676e-17
7.93915e-17
2.41249e-16
7.15364e-16
2.01805e-15
5.86193e-15
1.81935e-14
6.23888e-14
2.41394e-13
1.09309e-12
5.26978e-12
2.57518e-11
1.23338e-10
5.69292e-10
2.51462e-09
1.05719e-08
4.18159e-08
1.30034e-07
4.15669e-07
1.16084e-06
3.17794e-06
8.67511e-06
2.22749e-05
5.41015e-05
0.000127677
0.000285202
0.000602636
0.00102951
0.00136836
0.00167767
0.0020374
0.00246636
0.00301108
0.0038454
0.0054281
0.00861365
0.0141493
0.0202428
0.0212474
0.010692
-0.00132589
-0.007527
-0.0115276
-0.00976298
-0.004183
0.000994766
0.000406844
0.0024505
-0.00419908
-0.00253315
-0.00139872
-0.000770769
-0.000421041
-0.000224792
-0.000122144
-7.22905e-05
-5.10383e-05
-1.26559e-05
4.92057e-05
2.19083e-05
-8.50944e-07
-3.08811e-06
-1.4416e-06
-1.24476e-07
2.30394e-36
2.67828e-35
2.27794e-35
2.18873e-34
6.60802e-34
2.40253e-33
8.58366e-33
2.99768e-32
1.04916e-31
3.69821e-31
1.30611e-30
4.56061e-30
1.58983e-29
5.53509e-29
1.92417e-28
6.61947e-28
2.25375e-27
7.8473e-27
2.66121e-26
9.0174e-26
3.05265e-25
1.02267e-24
3.40736e-24
1.12617e-23
3.68425e-23
1.19091e-22
3.85442e-22
1.22924e-21
3.90596e-21
1.25823e-20
3.95811e-20
1.24098e-19
3.76725e-19
1.13836e-18
3.35026e-18
9.75139e-18
2.917e-17
8.2507e-17
2.48946e-16
7.18016e-16
2.14381e-15
6.21115e-15
1.9233e-14
6.43575e-14
2.5284e-13
1.14389e-12
5.49739e-12
2.67246e-11
1.27213e-10
5.83362e-10
2.55846e-09
1.06595e-08
4.18363e-08
1.29254e-07
4.17076e-07
1.15827e-06
3.14837e-06
8.56859e-06
2.19439e-05
5.3277e-05
0.000125543
0.000280263
0.000593252
0.00102045
0.00136181
0.00167124
0.00203086
0.00245999
0.00300184
0.00382711
0.00538506
0.00852659
0.0140302
0.0202012
0.021433
0.0111053
-0.00112853
-0.00741796
-0.0115271
-0.00986997
-0.00431155
0.000953297
0.000396499
0.00243248
-0.00415575
-0.00255229
-0.00140916
-0.00077654
-0.000424256
-0.000226464
-0.000123034
-7.27526e-05
-5.13954e-05
-1.31165e-05
4.94122e-05
2.22734e-05
-8.11465e-07
-3.1076e-06
-1.45417e-06
-1.25672e-07
3.32675e-36
2.13671e-35
5.12621e-35
2.19619e-34
7.45156e-34
2.59648e-33
9.14105e-33
3.21078e-32
1.12893e-31
3.94525e-31
1.3801e-30
4.84816e-30
1.69077e-29
5.8899e-29
2.04775e-28
7.06794e-28
2.409e-27
8.32044e-27
2.81353e-26
9.50045e-26
3.22406e-25
1.07875e-24
3.59339e-24
1.18652e-23
3.86884e-23
1.24751e-22
4.04471e-22
1.2853e-21
4.03564e-21
1.30092e-20
4.04103e-20
1.26431e-19
3.89479e-19
1.1754e-18
3.50316e-18
1.03642e-17
3.01481e-17
8.87828e-17
2.62162e-16
7.69411e-16
2.19853e-15
6.35537e-15
1.97441e-14
6.58322e-14
2.61529e-13
1.18412e-12
5.67293e-12
2.74551e-11
1.30001e-10
5.92708e-10
2.58578e-09
1.0714e-08
4.18186e-08
1.28572e-07
4.17648e-07
1.15477e-06
3.12083e-06
8.46402e-06
2.16486e-05
5.24977e-05
0.00012369
0.000276129
0.000585502
0.00101276
0.00135603
0.00166556
0.00202503
0.00245418
0.00299465
0.00381059
0.00534756
0.00845247
0.013923
0.0201581
0.02158
0.0114555
-0.000957316
-0.00732361
-0.0115214
-0.00995895
-0.00442184
0.000916218
0.000388999
0.00241485
-0.00410879
-0.00257054
-0.0014191
-0.000782031
-0.000427313
-0.000228054
-0.000123888
-7.31846e-05
-5.17189e-05
-1.35534e-05
4.95763e-05
2.26173e-05
-7.70813e-07
-3.12415e-06
-1.46544e-06
-1.26756e-07
4.22799e-36
1.87338e-35
4.73831e-35
2.29312e-34
7.69011e-34
2.77135e-33
9.56555e-33
3.38689e-32
1.18782e-31
4.14355e-31
1.45875e-30
5.08478e-30
1.77119e-29
6.16257e-29
2.13789e-28
7.38671e-28
2.56228e-27
8.748e-27
2.96637e-26
1.00057e-25
3.38887e-25
1.12341e-24
3.76439e-24
1.23652e-23
4.0376e-23
1.30745e-22
4.19386e-22
1.35169e-21
4.25043e-21
1.33972e-20
4.20002e-20
1.32788e-19
4.04024e-19
1.21723e-18
3.6233e-18
1.07576e-17
3.14984e-17
9.10352e-17
2.66907e-16
7.68214e-16
2.21152e-15
6.4437e-15
1.9379e-14
6.70741e-14
2.69241e-13
1.21526e-12
5.80798e-12
2.80171e-11
1.3215e-10
5.99959e-10
2.6064e-09
1.07527e-08
4.17975e-08
1.28061e-07
4.17694e-07
1.1512e-06
3.09716e-06
8.38671e-06
2.14318e-05
5.19362e-05
0.0001223
0.000272778
0.000578986
0.00100579
0.00135103
0.00166056
0.00201959
0.00244834
0.00298716
0.00379728
0.0053166
0.00839091
0.0138386
0.0201188
0.0216877
0.0117296
-0.000819616
-0.00724731
-0.0115135
-0.0100281
-0.00451035
0.000885086
0.000384012
0.00239909
-0.0040642
-0.00258642
-0.00142773
-0.000786791
-0.000429955
-0.000229427
-0.000124616
-7.35475e-05
-5.19803e-05
-1.39244e-05
4.96647e-05
2.28967e-05
-7.36601e-07
-3.13749e-06
-1.47472e-06
-1.27653e-07
4.61611e-36
1.59304e-36
8.22582e-35
2.32528e-34
7.68346e-34
2.84731e-33
9.9145e-33
3.48353e-32
1.22552e-31
4.29839e-31
1.50467e-30
5.25795e-30
1.83601e-29
6.41239e-29
2.23574e-28
7.72472e-28
2.65533e-27
9.07947e-27
3.08615e-26
1.04221e-25
3.49646e-25
1.1643e-24
3.85058e-24
1.26377e-23
4.15198e-23
1.34643e-22
4.34655e-22
1.38033e-21
4.4441e-21
1.38976e-20
4.31809e-20
1.32371e-19
4.11662e-19
1.23551e-18
3.73392e-18
1.10866e-17
3.21131e-17
9.07343e-17
2.64495e-16
7.83924e-16
2.19236e-15
6.3859e-15
1.95578e-14
6.78805e-14
2.74759e-13
1.23797e-12
5.90577e-12
2.84233e-11
1.33717e-10
6.05434e-10
2.62147e-09
1.07833e-08
4.17924e-08
1.27727e-07
4.17654e-07
1.14862e-06
3.08101e-06
8.33151e-06
2.12752e-05
5.15322e-05
0.000121309
0.000270497
0.000574578
0.0010011
0.00134753
0.00165695
0.00201558
0.00244396
0.00298156
0.00378765
0.00529708
0.00835116
0.0137766
0.0200887
0.0217602
0.0119219
-0.000721191
-0.00719261
-0.0115063
-0.010076
-0.00457272
0.000862601
0.000381073
0.00238704
-0.00402835
-0.00259836
-0.00143423
-0.000790366
-0.000431937
-0.000230456
-0.000125162
-7.38177e-05
-5.21713e-05
-1.41958e-05
4.97321e-05
2.31033e-05
-7.10111e-07
-3.14666e-06
-1.48135e-06
-1.28294e-07
2.16447e-36
2.49705e-35
6.62445e-35
2.02766e-34
8.24611e-34
2.8853e-33
1.0062e-32
3.57262e-32
1.25732e-31
4.42036e-31
1.55042e-30
5.42231e-30
1.89106e-29
6.58019e-29
2.28785e-28
7.89624e-28
2.71047e-27
9.25968e-27
3.13112e-26
1.05195e-25
3.53006e-25
1.17435e-24
3.93045e-24
1.28174e-23
4.2339e-23
1.36561e-22
4.40732e-22
1.42076e-21
4.50229e-21
1.41546e-20
4.39542e-20
1.38398e-19
4.17456e-19
1.25232e-18
3.78082e-18
1.10231e-17
3.2396e-17
9.17123e-17
2.76734e-16
7.98754e-16
2.25228e-15
6.48658e-15
1.96618e-14
6.92368e-14
2.77383e-13
1.25194e-12
5.97089e-12
2.86969e-11
1.3476e-10
6.08973e-10
2.63154e-09
1.08047e-08
4.1804e-08
1.27576e-07
4.17789e-07
1.14757e-06
3.07325e-06
8.30429e-06
2.11957e-05
5.1322e-05
0.000120783
0.000269313
0.000572303
0.000998632
0.00134563
0.00165497
0.00201334
0.00244144
0.00297835
0.00378227
0.00528431
0.00832731
0.0137439
0.0200715
0.0217969
0.0120234
-0.000668276
-0.00716302
-0.0115015
-0.0101012
-0.00460621
0.000850221
0.000379646
0.00238013
-0.00400752
-0.00260515
-0.00143791
-0.00079239
-0.000433056
-0.000231037
-0.000125469
-7.39691e-05
-5.22843e-05
-1.43443e-05
4.9757e-05
2.32135e-05
-6.95967e-07
-3.15162e-06
-1.48493e-06
-1.2864e-07
4.68597e-36
1.36174e-35
5.79081e-35
2.62315e-34
8.57849e-34
2.92738e-33
1.02177e-32
3.59582e-32
1.26705e-31
4.48665e-31
1.57349e-30
5.50063e-30
1.9114e-29
6.49981e-29
2.33722e-28
8.01189e-28
2.74663e-27
9.37306e-27
3.18459e-26
1.07657e-25
3.61867e-25
1.20755e-24
4.00074e-24
1.31298e-23
4.24379e-23
1.39632e-22
4.48069e-22
1.43713e-21
4.61397e-21
1.4589e-20
4.52786e-20
1.40243e-19
4.23739e-19
1.29931e-18
3.85432e-18
1.11831e-17
3.28958e-17
9.31975e-17
2.77267e-16
7.8849e-16
2.27914e-15
6.56577e-15
2.00634e-14
6.94858e-14
2.79155e-13
1.26067e-12
6.01012e-12
2.88638e-11
1.35421e-10
6.1137e-10
2.63934e-09
1.08256e-08
4.18442e-08
1.27597e-07
4.18273e-07
1.14809e-06
3.07251e-06
8.29926e-06
2.11789e-05
5.12763e-05
0.000120669
0.000269049
0.000571793
0.000998067
0.00134518
0.0016545
0.00201282
0.00244084
0.00297759
0.00378113
0.00528213
0.00832318
0.0137378
0.0200681
0.0218023
0.0120395
-0.000659787
-0.00715803
-0.0115003
-0.0101047
-0.00461123
0.000848374
0.000379482
0.00237907
-0.00400421
-0.00260619
-0.00143847
-0.000792697
-0.000433224
-0.000231124
-0.000125515
-7.39926e-05
-5.23018e-05
-1.43641e-05
4.97755e-05
2.32317e-05
-6.93663e-07
-3.15226e-06
-1.48538e-06
-1.28683e-07
2.20926e-36
1.73393e-35
7.65945e-35
2.47443e-34
8.3982e-34
2.88819e-33
1.02679e-32
3.6377e-32
1.28478e-31
4.51395e-31
1.58215e-30
5.53531e-30
1.92891e-29
6.65544e-29
2.34799e-28
8.07398e-28
2.76464e-27
9.3094e-27
3.22857e-26
1.08492e-25
3.66296e-25
1.22268e-24
4.05937e-24
1.33865e-23
4.36685e-23
1.41147e-22
4.52725e-22
1.46314e-21
4.64467e-21
1.46402e-20
4.57737e-20
1.40801e-19
4.33105e-19
1.29745e-18
3.88788e-18
1.13454e-17
3.31103e-17
9.46726e-17
2.7938e-16
8.06362e-16
2.28536e-15
6.55681e-15
2.02887e-14
6.98818e-14
2.79001e-13
1.26479e-12
6.02738e-12
2.89415e-11
1.3577e-10
6.12888e-10
2.64566e-09
1.08504e-08
4.19352e-08
1.27862e-07
4.19343e-07
1.15097e-06
3.0818e-06
8.32496e-06
2.12449e-05
5.14394e-05
0.000121063
0.000269937
0.000573471
0.000999793
0.00134641
0.00165575
0.00201419
0.0024423
0.00297942
0.00378438
0.00529079
0.00833906
0.0137613
0.0200798
0.0217748
0.0119655
-0.000697632
-0.00717882
-0.0115029
-0.010086
-0.00458661
0.000857536
0.000380472
0.00238412
-0.00401971
-0.00260121
-0.00143576
-0.000791205
-0.000432396
-0.000230695
-0.000125288
-7.38817e-05
-5.22181e-05
-1.42431e-05
4.97507e-05
2.31424e-05
-7.0575e-07
-3.14855e-06
-1.48257e-06
-1.28405e-07
4.72644e-36
1.25797e-35
6.3885e-35
2.12947e-34
8.50966e-34
2.87001e-33
1.0266e-32
3.63388e-32
1.27723e-31
4.47429e-31
1.56305e-30
5.44322e-30
1.89332e-29
6.59033e-29
2.29242e-28
7.9042e-28
2.69197e-27
9.2278e-27
3.17104e-26
1.07036e-25
3.56556e-25
1.21061e-24
3.99265e-24
1.33091e-23
4.3247e-23
1.39163e-22
4.44925e-22
1.44641e-21
4.56616e-21
1.44052e-20
4.48642e-20
1.37325e-19
4.33313e-19
1.28907e-18
3.77534e-18
1.09406e-17
3.24744e-17
9.00782e-17
2.71375e-16
8.03636e-16
2.24766e-15
6.55346e-15
1.98853e-14
6.99757e-14
2.79086e-13
1.26227e-12
6.01751e-12
2.89132e-11
1.35746e-10
6.13307e-10
2.64979e-09
1.08763e-08
4.20669e-08
1.28358e-07
4.21012e-07
1.15626e-06
3.10112e-06
8.38085e-06
2.13906e-05
5.18005e-05
0.00012194
0.000271925
0.000577221
0.00100367
0.00134919
0.00165854
0.00201727
0.00244565
0.00298371
0.00379204
0.00530793
0.00837251
0.0138122
0.0201054
0.0217148
0.0118046
-0.000780098
-0.00722445
-0.0115093
-0.0100454
-0.00453331
0.000876991
0.000382646
0.00239463
-0.00405196
-0.00259069
-0.00143004
-0.000788053
-0.000430647
-0.000229788
-0.000124807
-7.36466e-05
-5.2056e-05
-1.39932e-05
4.97268e-05
2.29594e-05
-7.30149e-07
-3.14061e-06
-1.47664e-06
-1.27826e-07
-4.75475e-36
1.56458e-35
5.85981e-35
2.35831e-34
7.71138e-34
2.83914e-33
1.01132e-32
3.54626e-32
1.24849e-31
4.38058e-31
1.53383e-30
5.35923e-30
1.8672e-29
6.49167e-29
2.24762e-28
7.70828e-28
2.68375e-27
9.14658e-27
3.10895e-26
1.05155e-25
3.54566e-25
1.19417e-24
3.9635e-24
1.30425e-23
4.25615e-23
1.37804e-22
4.4265e-22
1.41268e-21
4.5458e-21
1.4293e-20
4.46015e-20
1.368e-19
4.22832e-19
1.27012e-18
3.7946e-18
1.12e-17
3.24298e-17
9.07505e-17
2.71094e-16
8.01804e-16
2.25343e-15
6.44271e-15
1.9809e-14
7.0116e-14
2.77291e-13
1.25359e-12
5.98352e-12
2.87927e-11
1.35413e-10
6.12901e-10
2.65294e-09
1.09085e-08
4.22607e-08
1.29138e-07
4.23451e-07
1.16442e-06
3.13197e-06
8.47149e-06
2.16289e-05
5.23926e-05
0.000123367
0.000275143
0.000583242
0.00100973
0.00135348
0.00166284
0.00202196
0.00245072
0.00299026
0.00380402
0.00533506
0.00842903
0.0138908
0.0201427
0.0216202
0.0115597
-0.000903716
-0.00729336
-0.0115177
-0.00998403
-0.00445336
0.000905033
0.000386091
0.00240922
-0.00409627
-0.00257565
-0.00142186
-0.000783536
-0.000428136
-0.000228484
-0.000124115
-7.33083e-05
-5.18064e-05
-1.36244e-05
4.96602e-05
2.26886e-05
-7.65387e-07
-3.12857e-06
-1.46782e-06
-1.26968e-07
3.5632e-36
1.94139e-35
6.17092e-35
2.45546e-34
7.74768e-34
2.73803e-33
9.76109e-33
3.45361e-32
1.2113e-31
4.24265e-31
1.48413e-30
5.17876e-30
1.80525e-29
6.32212e-29
2.18287e-28
7.5047e-28
2.57052e-27
8.76526e-27
2.98027e-26
1.01397e-25
3.43997e-25
1.15112e-24
3.82357e-24
1.24713e-23
4.17044e-23
1.34645e-22
4.32507e-22
1.37618e-21
4.42565e-21
1.40687e-20
4.34126e-20
1.36007e-19
4.13609e-19
1.24867e-18
3.7312e-18
1.09432e-17
3.20504e-17
9.09548e-17
2.62996e-16
7.66893e-16
2.23996e-15
6.41992e-15
1.94236e-14
6.89503e-14
2.74723e-13
1.24008e-12
5.92347e-12
2.85563e-11
1.34637e-10
6.11154e-10
2.65331e-09
1.09417e-08
4.25065e-08
1.302e-07
4.26541e-07
1.17489e-06
3.17241e-06
8.5918e-06
2.1948e-05
5.31907e-05
0.000125306
0.000279552
0.000591546
0.00101769
0.00135889
0.00166813
0.00202762
0.00245671
0.00299814
0.00381928
0.00536974
0.00850058
0.0139905
0.0201881
0.0214939
0.0112428
-0.00106115
-0.00738167
-0.0115262
-0.00990334
-0.00434933
0.00093998
0.000391187
0.00242618
-0.00414625
-0.00255743
-0.00141194
-0.000778055
-0.000425084
-0.000226897
-0.000123274
-7.28926e-05
-5.15081e-05
-1.31631e-05
4.95559e-05
2.23432e-05
-8.09101e-07
-3.11282e-06
-1.45654e-06
-1.25871e-07
3.73749e-36
1.23972e-35
6.50168e-35
2.25599e-34
7.37754e-34
2.60963e-33
9.31826e-33
3.26902e-32
1.14202e-31
4.05206e-31
1.41235e-30
4.92067e-30
1.71217e-29
5.96352e-29
2.09312e-28
7.20516e-28
2.46892e-27
8.43201e-27
2.88995e-26
9.77904e-26
3.29041e-25
1.1002e-24
3.66384e-24
1.2114e-23
3.98195e-23
1.29092e-22
4.18561e-22
1.33289e-21
4.29781e-21
1.34394e-20
4.15832e-20
1.3056e-19
4.00623e-19
1.20929e-18
3.50702e-18
1.05994e-17
3.08276e-17
8.95206e-17
2.61952e-16
7.72011e-16
2.18179e-15
6.464e-15
1.95755e-14
6.79172e-14
2.68627e-13
1.2174e-12
5.83098e-12
2.81904e-11
1.33385e-10
6.07717e-10
2.64923e-09
1.09702e-08
4.27912e-08
1.31486e-07
4.29631e-07
1.18719e-06
3.22079e-06
8.73572e-06
2.23284e-05
5.41337e-05
0.000127563
0.000284566
0.000600623
0.00102648
0.00136485
0.00167366
0.00203288
0.00246127
0.00300492
0.00383626
0.00541087
0.00858156
0.0141076
0.0202372
0.0213356
0.0108638
-0.00124495
-0.00748487
-0.0115317
-0.00980577
-0.00422755
0.000978852