/*--------------------------------*- C++ -*----------------------------------*\
  =========                 |
  \\      /  F ield         | OpenFOAM: The Open Source CFD Toolbox
   \\    /   O peration     | Website:  https://openfoam.org
    \\  /    A nd           | Version:  10
     \\/     M anipulation  |
\*---------------------------------------------------------------------------*/
FoamFile
{
    format      ascii;
    class       volScalarField;
    location    "1";
    object      RR.C4H7;
}
// * * * * * * * * * * * * * * * * * * * * * * * * * * * * * * * * * * * * * //

dimensions      [1 -3 -1 0 0 0 0];

internalField   nonuniform List<scalar> 
4000
(
-2.43066e-36
-9.89993e-36
-3.63217e-35
-1.22331e-34
-4.03145e-34
-1.27158e-33
-3.8528e-33
-1.13607e-32
-3.30287e-32
-9.65507e-32
-2.9078e-31
-8.4608e-31
-2.4189e-30
-6.9047e-30
-1.98216e-29
-5.71971e-29
-1.63559e-28
-4.94936e-28
-1.45361e-27
-4.32238e-27
-1.29063e-26
-3.87255e-26
-1.17981e-25
-3.56856e-25
-1.08901e-24
-3.31086e-24
-9.82352e-24
-3.04491e-23
-9.07852e-23
-2.70789e-22
-8.06075e-22
-2.38715e-21
-6.98827e-21
-2.03394e-20
-5.90636e-20
-1.63635e-19
-4.71592e-19
-1.31992e-18
-3.69248e-18
-1.02403e-17
-2.73372e-17
-7.25336e-17
-1.90599e-16
-5.2304e-16
-1.60667e-15
-6.54201e-15
-3.64019e-14
-2.37314e-13
-1.59096e-12
-1.01712e-11
-6.02975e-11
-3.35347e-10
-1.46354e-09
-6.83444e-09
-2.93817e-08
-1.12392e-07
-3.69889e-07
-1.13301e-06
-3.06087e-06
-7.22316e-06
-1.48259e-05
-2.5244e-05
-3.33953e-05
-2.64785e-05
2.52319e-06
5.30085e-05
9.42178e-05
8.35624e-05
-3.20137e-06
-0.000152657
-0.000323237
-0.000248923
0.000215821
0.00103113
0.00120677
-0.000468139
-0.000461947
-0.00024116
-0.000114262
-6.84852e-05
-3.75593e-05
-1.93448e-05
-1.00145e-05
-5.28504e-06
-2.85374e-06
-1.57278e-06
-8.75457e-07
-4.87573e-07
-2.69685e-07
-1.47879e-07
-8.18226e-08
-4.81119e-08
-3.25537e-08
-3.45957e-08
-5.51035e-08
1.87768e-08
1.06933e-07
2.21622e-08
-3.42593e-09
-1.29059e-09
-3.38226e-36
-1.68546e-35
-5.54231e-35
-1.72415e-34
-5.27182e-34
-1.57815e-33
-4.60981e-33
-1.33198e-32
-3.68158e-32
-1.01267e-31
-2.80568e-31
-7.87244e-31
-2.23672e-30
-6.44822e-30
-1.88987e-29
-5.62714e-29
-1.69513e-28
-5.17651e-28
-1.5962e-27
-4.94043e-27
-1.53538e-26
-4.80799e-26
-1.49822e-25
-4.65911e-25
-1.44963e-24
-4.46438e-24
-1.36903e-23
-4.17654e-23
-1.2616e-22
-3.76191e-22
-1.1323e-21
-3.45708e-21
-1.01831e-20
-2.91853e-20
-8.31666e-20
-2.37748e-19
-6.60706e-19
-1.8625e-18
-5.01753e-18
-1.35908e-17
-3.62953e-17
-9.47466e-17
-2.5181e-16
-7.00204e-16
-2.39632e-15
-1.07618e-14
-6.25823e-14
-4.04348e-13
-2.64923e-12
-1.67709e-11
-8.60154e-11
-3.809e-10
-1.87096e-09
-8.32738e-09
-3.45837e-08
-1.30832e-07
-4.06259e-07
-1.19361e-06
-3.13195e-06
-7.23849e-06
-1.47295e-05
-2.50346e-05
-3.3367e-05
-2.73706e-05
-7.68857e-08
4.91813e-05
9.16908e-05
8.45655e-05
1.92483e-06
-0.00014153
-0.000321064
-0.000263233
0.000187284
0.00100717
0.00125297
-0.000445582
-0.000468079
-0.000245659
-0.00011605
-6.94385e-05
-3.79822e-05
-1.95316e-05
-1.00981e-05
-5.32255e-06
-2.87041e-06
-1.57989e-06
-8.78049e-07
-4.88128e-07
-2.69433e-07
-1.47456e-07
-8.16296e-08
-4.83716e-08
-3.30397e-08
-3.70509e-08
-5.64898e-08
3.1715e-08
1.04955e-07
1.94083e-08
-3.74906e-09
-1.25754e-09
-2.16737e-36
-1.10114e-35
-3.51238e-35
-1.00921e-34
-2.80719e-34
-7.70541e-34
-2.10496e-33
-5.82547e-33
-1.66852e-32
-5.01982e-32
-1.55654e-31
-4.94707e-31
-1.59963e-30
-5.20955e-30
-1.70221e-29
-5.56718e-29
-1.8215e-28
-5.9598e-28
-1.94512e-27
-6.31094e-27
-2.04048e-26
-6.5495e-26
-2.08628e-25
-6.58071e-25
-2.05261e-24
-6.33967e-24
-1.94804e-23
-6.01665e-23
-1.80846e-22
-5.35746e-22
-1.6389e-21
-4.79229e-21
-1.37375e-20
-3.96852e-20
-1.13912e-19
-3.19033e-19
-8.76125e-19
-2.39078e-18
-6.49415e-18
-1.70945e-17
-4.50847e-17
-1.13923e-16
-3.14161e-16
-8.84546e-16
-3.21071e-15
-1.4853e-14
-8.94339e-14
-5.75356e-13
-3.55665e-12
-2.17523e-11
-1.08149e-10
-4.86622e-10
-2.35038e-09
-1.06258e-08
-4.1247e-08
-1.40782e-07
-4.24351e-07
-1.2263e-06
-3.17473e-06
-7.26291e-06
-1.46695e-05
-2.48859e-05
-3.33653e-05
-2.82565e-05
-2.55492e-06
4.53257e-05
8.85032e-05
8.6536e-05
8.87646e-06
-0.000132835
-0.000315838
-0.000275952
0.000160011
0.000980578
0.00129692
-0.000419163
-0.000474991
-0.000250623
-0.00011807
-7.05569e-05
-3.84962e-05
-1.97634e-05
-1.02012e-05
-5.3644e-06
-2.88844e-06
-1.5874e-06
-8.80641e-07
-4.88516e-07
-2.68992e-07
-1.46777e-07
-8.13163e-08
-4.86597e-08
-3.36438e-08
-4.03846e-08
-5.70407e-08
4.68893e-08
1.01083e-07
1.66041e-08
-4.09633e-09
-1.22646e-09
-1.63908e-36
-8.27065e-36
-2.75943e-35
-8.36241e-35
-2.48296e-34
-7.41222e-34
-2.24747e-33
-7.22115e-33
-2.31044e-32
-7.43934e-32
-2.45582e-31
-8.04977e-31
-2.68895e-30
-8.8251e-30
-2.89243e-29
-9.44332e-29
-3.0697e-28
-9.92201e-28
-3.18495e-27
-1.01635e-26
-3.22473e-26
-1.01656e-25
-3.18103e-25
-9.86243e-25
-3.08271e-24
-9.42294e-24
-2.85852e-23
-8.60523e-23
-2.5258e-22
-7.6429e-22
-2.23216e-21
-6.48297e-21
-1.855e-20
-5.29443e-20
-1.49787e-19
-4.14387e-19
-1.12455e-18
-3.06106e-18
-8.17741e-18
-2.14453e-17
-5.60323e-17
-1.42479e-16
-3.89898e-16
-1.12644e-15
-4.00244e-15
-2.0082e-14
-1.21106e-13
-7.5674e-13
-4.84057e-12
-2.482e-11
-1.20049e-10
-6.35338e-10
-3.05602e-09
-1.29153e-08
-4.82266e-08
-1.46854e-07
-4.41073e-07
-1.25661e-06
-3.21014e-06
-7.26303e-06
-1.45898e-05
-2.47278e-05
-3.33504e-05
-2.89227e-05
-4.48922e-06
4.21997e-05
8.61795e-05
8.77979e-05
1.40099e-05
-0.00012485
-0.000311144
-0.000288153
0.000135252
0.000955102
0.00133341
-0.000402825
-0.000479187
-0.000254073
-0.000119754
-7.15954e-05
-3.89646e-05
-1.99954e-05
-1.0344e-05
-5.36045e-06
-2.89074e-06
-1.58948e-06
-8.81533e-07
-4.88697e-07
-2.69321e-07
-1.45262e-07
-8.07471e-08
-4.88916e-08
-3.44252e-08
-4.41713e-08
-5.64777e-08
6.17445e-08
9.66894e-08
1.39758e-08
-4.3957e-09
-1.1984e-09
-2.49009e-36
-1.26607e-35
-4.36605e-35
-1.37553e-34
-4.23698e-34
-1.306e-33
-4.05677e-33
-1.27017e-32
-3.97764e-32
-1.28784e-31
-4.11589e-31
-1.32679e-30
-4.33846e-30
-1.39701e-29
-4.58155e-29
-1.47175e-28
-4.70143e-28
-1.52587e-27
-4.85893e-27
-1.53785e-26
-4.83466e-26
-1.50595e-25
-4.65336e-25
-1.42726e-24
-4.35069e-24
-1.31398e-23
-3.9317e-23
-1.18639e-22
-3.49641e-22
-1.02017e-21
-2.95635e-21
-8.70875e-21
-2.459e-20
-6.94481e-20
-1.92679e-19
-5.30488e-19
-1.41874e-18
-3.72174e-18
-9.9674e-18
-2.61182e-17
-6.69706e-17
-1.72518e-16
-4.54404e-16
-1.38117e-15
-5.06571e-15
-2.58612e-14
-1.53166e-13
-1.00352e-12
-5.29969e-12
-2.66328e-11
-1.48458e-10
-7.63669e-10
-3.67044e-09
-1.57729e-08
-5.09126e-08
-1.54042e-07
-4.58167e-07
-1.28409e-06
-3.24004e-06
-7.27616e-06
-1.45437e-05
-2.46227e-05
-3.33441e-05
-2.94738e-05
-6.13318e-06
3.95899e-05
8.46625e-05
8.91046e-05
1.7779e-05
-0.000118846
-0.000307736
-0.000295922
0.000116436
0.000935671
0.00136346
-0.000381657
-0.000484683
-0.000257911
-0.000121451
-7.25553e-05
-3.93855e-05
-2.01907e-05
-1.04357e-05
-5.4068e-06
-2.91326e-06
-1.60027e-06
-8.86382e-07
-4.90574e-07
-2.69802e-07
-1.4538e-07
-8.09555e-08
-4.94273e-08
-3.53782e-08
-4.78205e-08
-5.52497e-08
7.4706e-08
9.29963e-08
1.1988e-08
-4.62322e-09
-1.17768e-09
-4.33992e-36
-2.29777e-35
-8.06224e-35
-2.59906e-34
-8.18077e-34
-2.55956e-33
-8.00484e-33
-2.50847e-32
-7.87425e-32
-2.47889e-31
-7.79161e-31
-2.43517e-30
-7.80485e-30
-2.4536e-29
-7.69527e-29
-2.44451e-28
-7.66676e-28
-2.40157e-27
-7.53098e-27
-2.32604e-26
-7.29321e-26
-2.22672e-25
-6.74575e-25
-2.02621e-24
-6.10061e-24
-1.84602e-23
-5.44418e-23
-1.58419e-22
-4.69057e-22
-1.34675e-21
-3.84641e-21
-1.12374e-20
-3.13452e-20
-8.6865e-20
-2.37361e-19
-6.4451e-19
-1.70869e-18
-4.42684e-18
-1.18082e-17
-3.17989e-17
-7.97859e-17
-2.00784e-16
-5.36564e-16
-1.65062e-15
-6.28218e-15
-3.18096e-14
-1.98189e-13
-1.09657e-12
-5.81457e-12
-3.22737e-11
-1.76691e-10
-8.98628e-10
-4.12849e-09
-1.7284e-08
-5.49014e-08
-1.62313e-07
-4.71404e-07
-1.30735e-06
-3.25913e-06
-7.26639e-06
-1.44693e-05
-2.44956e-05
-3.33098e-05
-2.9887e-05
-7.30552e-06
3.77036e-05
8.28213e-05
8.97511e-05
2.20895e-05
-0.000113322
-0.000305159
-0.000302754
0.00010227
0.00092228
0.00138313
-0.000364471
-0.000489173
-0.000261129
-0.000122873
-7.33907e-05
-3.97687e-05
-2.0373e-05
-1.05221e-05
-5.4557e-06
-2.93916e-06
-1.6137e-06
-8.93065e-07
-4.93649e-07
-2.71039e-07
-1.46033e-07
-8.1465e-08
-5.00589e-08
-3.63444e-08
-5.09895e-08
-5.41285e-08
8.48188e-08
9.03293e-08
1.05613e-08
-4.82434e-09
-1.16898e-09
-7.09804e-36
-3.63806e-35
-1.29481e-34
-4.14697e-34
-1.2877e-33
-4.06657e-33
-1.26076e-32
-3.92653e-32
-1.22567e-31
-3.82654e-31
-1.19578e-30
-3.73912e-30
-1.16859e-29
-3.64565e-29
-1.1379e-28
-3.55668e-28
-1.11276e-27
-3.44449e-27
-1.06223e-26
-3.29877e-26
-1.00882e-25
-3.06408e-25
-9.24396e-25
-2.76716e-24
-8.20688e-24
-2.40888e-23
-7.07726e-23
-2.01788e-22
-5.9446e-22
-1.72031e-21
-4.87221e-21
-1.37181e-20
-3.82707e-20
-1.05899e-19
-2.85423e-19
-7.73355e-19
-2.08572e-18
-5.35886e-18
-1.42719e-17
-3.66866e-17
-9.23758e-17
-2.35747e-16
-6.3242e-16
-1.90417e-15
-7.48132e-15
-3.86042e-14
-2.2407e-13
-1.12434e-12
-6.69458e-12
-3.77868e-11
-1.99904e-10
-9.93018e-10
-4.47208e-09
-1.83679e-08
-5.75943e-08
-1.68527e-07
-4.81831e-07
-1.32101e-06
-3.26768e-06
-7.24423e-06
-1.43846e-05
-2.43562e-05
-3.32575e-05
-3.02356e-05
-8.30788e-06
3.62045e-05
8.16219e-05
9.04836e-05
2.50102e-05
-0.000108916
-0.00030239
-0.000307493
8.93471e-05
0.000908154
0.00140096
-0.000345537
-0.000493516
-0.000264582
-0.000124345
-7.42292e-05
-4.01858e-05
-2.05764e-05
-1.06216e-05
-5.51073e-06
-2.9686e-06
-1.62937e-06
-9.01233e-07
-4.97728e-07
-2.72953e-07
-1.47084e-07
-8.21782e-08
-5.07369e-08
-3.72792e-08
-5.36487e-08
-5.29902e-08
9.26477e-08
8.85402e-08
9.58262e-09
-4.98943e-09
-1.16777e-09
-1.02861e-35
-5.30886e-35
-1.87346e-34
-6.05539e-34
-1.90673e-33
-5.9553e-33
-1.85521e-32
-5.77574e-32
-1.79771e-31
-5.59362e-31
-1.73828e-30
-5.40131e-30
-1.68014e-29
-5.22298e-29
-1.61512e-28
-4.99195e-28
-1.5423e-27
-4.74105e-27
-1.45211e-26
-4.433e-26
-1.34821e-25
-4.06434e-25
-1.21643e-24
-3.61279e-24
-1.06556e-23
-3.12335e-23
-9.07598e-23
-2.59641e-22
-7.31871e-22
-2.06609e-21
-5.9101e-21
-1.68079e-20
-4.64627e-20
-1.26889e-19
-3.38518e-19
-9.03577e-19
-2.40764e-18
-6.12356e-18
-1.62104e-17
-4.17102e-17
-1.05146e-16
-2.64444e-16
-7.21993e-16
-2.22464e-15
-9.07175e-15
-4.6834e-14
-2.42549e-13
-1.3253e-12
-7.78947e-12
-4.32963e-11
-2.28217e-10
-1.09904e-09
-4.82766e-09
-1.9417e-08
-6.00101e-08
-1.73281e-07
-4.89388e-07
-1.32867e-06
-3.26258e-06
-7.19877e-06
-1.42666e-05
-2.41855e-05
-3.31857e-05
-3.05748e-05
-9.35108e-06
3.4551e-05
8.06152e-05
9.12491e-05
2.78634e-05
-0.000104443
-0.000299351
-0.000312652
7.54868e-05
0.000891675
0.00141804
-0.000322017
-0.000498078
-0.00026859
-0.000125966
-7.51224e-05
-4.06672e-05
-2.08159e-05
-1.07408e-05
-5.57449e-06
-3.00265e-06
-1.64768e-06
-9.11004e-07
-5.02824e-07
-2.75527e-07
-1.48493e-07
-8.30618e-08
-5.1454e-08
-3.81537e-08
-5.58282e-08
-5.19863e-08
9.85203e-08
8.76697e-08
8.93471e-09
-5.12898e-09
-1.17247e-09
-1.36031e-35
-7.05106e-35
-2.49831e-34
-8.0884e-34
-2.55106e-33
-7.97141e-33
-2.47975e-32
-7.70288e-32
-2.39029e-31
-7.45334e-31
-2.30894e-30
-7.13839e-30
-2.20361e-29
-6.83723e-29
-2.10236e-28
-6.45219e-28
-1.97917e-27
-6.04525e-27
-1.83319e-26
-5.63834e-26
-1.70293e-25
-5.04122e-25
-1.52563e-24
-4.47987e-24
-1.31416e-23
-3.86352e-23
-1.11841e-22
-3.21147e-22
-9.11907e-22
-2.56182e-21
-7.08468e-21
-1.99062e-20
-5.46087e-20
-1.48982e-19
-3.98352e-19
-1.05318e-18
-2.75698e-18
-6.94434e-18
-1.82665e-17
-4.67982e-17
-1.16503e-16
-2.98762e-16
-8.13961e-16
-2.60346e-15
-9.86951e-15
-4.51571e-14
-2.6501e-13
-1.56246e-12
-8.96921e-12
-4.95286e-11
-2.52844e-10
-1.18963e-09
-5.1261e-09
-2.02704e-08
-6.17723e-08
-1.76544e-07
-4.93722e-07
-1.32926e-06
-3.24317e-06
-7.12842e-06
-1.41029e-05
-2.39327e-05
-3.30658e-05
-3.09711e-05
-1.04889e-05
3.28776e-05
7.9178e-05
9.18181e-05
3.10691e-05
-9.96458e-05
-0.000295516
-0.000319234
5.9261e-05
0.000872247
0.00143469
-0.000292947
-0.000503104
-0.000273285
-0.000127825
-7.61173e-05
-4.12363e-05
-2.11022e-05
-1.08846e-05
-5.6489e-06
-3.04209e-06
-1.66892e-06
-9.22461e-07
-5.08937e-07
-2.78729e-07
-1.50227e-07
-8.40957e-08
-5.22065e-08
-3.89558e-08
-5.75777e-08
-5.19062e-08
1.02875e-07
8.74955e-08
8.54673e-09
-5.2489e-09
-1.18176e-09
-1.67272e-35
-8.9468e-35
-3.13627e-34
-1.00913e-33
-3.21966e-33
-1.00465e-32
-3.13643e-32
-9.75427e-32
-3.02702e-31
-9.37288e-31
-2.89975e-30
-9.00017e-30
-2.77093e-29
-8.52732e-29
-2.62449e-28
-7.93753e-28
-2.49632e-27
-7.56698e-27
-2.29321e-26
-6.90888e-26
-2.05592e-25
-6.23001e-25
-1.8426e-24
-5.42394e-24
-1.584e-23
-4.59845e-23
-1.32665e-22
-3.77988e-22
-1.0864e-21
-3.0656e-21
-8.53374e-21
-2.33766e-20
-6.33232e-20
-1.7012e-19
-4.50483e-19
-1.18029e-18
-3.03344e-18
-7.67318e-18
-2.02171e-17
-5.11782e-17
-1.26485e-16
-3.2252e-16
-8.81938e-16
-2.71628e-15
-1.01865e-14
-5.33169e-14
-3.06722e-13
-1.7925e-12
-1.0296e-11
-5.54531e-11
-2.77798e-10
-1.28296e-09
-5.4145e-09
-2.08293e-08
-6.29501e-08
-1.78879e-07
-4.955e-07
-1.32459e-06
-3.21609e-06
-7.05068e-06
-1.39416e-05
-2.36964e-05
-3.293e-05
-3.13574e-05
-1.16734e-05
3.10876e-05
7.80717e-05
9.2518e-05
3.33977e-05
-9.64427e-05
-0.000286944
-0.000324453
4.29849e-05
0.000848764
0.00144861
-0.000254853
-0.000509467
-0.000279376
-0.000130103
-7.72743e-05
-4.19097e-05
-2.1439e-05
-1.10528e-05
-5.73354e-06
-3.08627e-06
-1.6927e-06
-9.35355e-07
-5.15901e-07
-2.82454e-07
-1.52222e-07
-8.52424e-08
-5.29844e-08
-3.9678e-08
-5.89491e-08
-5.20077e-08
1.06064e-07
8.79012e-08
8.36146e-09
-5.35298e-09
-1.19446e-09
-2.03158e-35
-1.07476e-34
-3.78804e-34
-1.22666e-33
-3.87044e-33
-1.20949e-32
-3.76561e-32
-1.16993e-31
-3.62243e-31
-1.11972e-30
-3.5145e-30
-1.08429e-29
-3.33508e-29
-1.03006e-28
-3.17017e-28
-9.75499e-28
-2.97668e-27
-9.02556e-27
-2.71714e-26
-8.19903e-26
-2.41774e-25
-7.31785e-25
-2.15547e-24
-6.32351e-24
-1.81933e-23
-5.33883e-23
-1.52205e-22
-4.33468e-22
-1.23954e-21
-3.49389e-21
-9.70564e-21
-2.65386e-20
-7.1336e-20
-1.9252e-19
-5.04034e-19
-1.30976e-18
-3.36742e-18
-8.39599e-18
-2.22593e-17
-5.53141e-17
-1.36233e-16
-3.42859e-16
-9.16732e-16
-2.82597e-15
-1.17213e-14
-6.11739e-14
-3.53126e-13
-2.07156e-12
-1.17087e-11
-6.24777e-11
-3.10753e-10
-1.42628e-09
-6.04996e-09
-2.09432e-08
-6.37328e-08
-1.80209e-07
-4.9482e-07
-1.31425e-06
-3.17648e-06
-6.93571e-06
-1.37125e-05
-2.33937e-05
-3.28003e-05
-3.17202e-05
-1.27916e-05
2.9312e-05
7.66443e-05
9.34585e-05
3.68064e-05
-9.17924e-05
-0.000282309
-0.00032908
2.59012e-05
0.000824071
0.00146216
-0.000213701
-0.00051534
-0.000285372
-0.000132386
-7.84295e-05
-4.26143e-05
-2.17966e-05
-1.12333e-05
-5.82395e-06
-3.13413e-06
-1.71827e-06
-9.49212e-07
-5.23433e-07
-2.86552e-07
-1.54407e-07
-8.64709e-08
-5.37763e-08
-4.03313e-08
-6.00284e-08
-5.24633e-08
1.08389e-07
8.8739e-08
8.32427e-09
-5.44509e-09
-1.20959e-09
-2.38568e-35
-1.24773e-34
-4.40517e-34
-1.42557e-33
-4.49263e-33
-1.40265e-32
-4.36707e-32
-1.35974e-31
-4.21609e-31
-1.31708e-30
-4.08835e-30
-1.26438e-29
-3.89241e-29
-1.20215e-28
-3.71175e-28
-1.13422e-27
-3.4523e-27
-1.04705e-26
-3.1577e-26
-9.47072e-26
-2.82231e-25
-8.33842e-25
-2.46974e-24
-7.21356e-24
-2.09228e-23
-6.01573e-23
-1.72262e-22
-4.82059e-22
-1.38585e-21
-3.86441e-21
-1.05518e-20
-2.91977e-20
-7.93669e-20
-2.11698e-19
-5.61764e-19
-1.44793e-18
-3.65967e-18
-9.12681e-18
-2.34507e-17
-5.975e-17
-1.45666e-16
-3.64907e-16
-9.76005e-16
-3.11806e-15
-1.31149e-14
-6.87833e-14
-3.96601e-13
-2.3169e-12
-1.29849e-11
-6.8592e-11
-3.37814e-10
-1.53664e-09
-6.43487e-09
-2.07891e-08
-6.4342e-08
-1.80938e-07
-4.92469e-07
-1.30159e-06
-3.134e-06
-6.84382e-06
-1.35229e-05
-2.31216e-05
-3.26246e-05
-3.20496e-05
-1.38358e-05
2.76494e-05
7.52346e-05
9.41042e-05
4.05523e-05
-8.70665e-05
-0.00027681
-0.000334234
8.55799e-06
0.000799327
0.00147189
-0.000170277
-0.000521325
-0.000291722
-0.000134794
-7.96192e-05
-4.3349e-05
-2.21691e-05
-1.14214e-05
-5.91778e-06
-3.18374e-06
-1.74536e-06
-9.64149e-07
-5.31656e-07
-2.91006e-07
-1.56754e-07
-8.77723e-08
-5.45942e-08
-4.09394e-08
-6.0882e-08
-5.31614e-08
1.10128e-07
8.98901e-08
8.39448e-09
-5.52679e-09
-1.22617e-09
-2.6157e-35
-1.40425e-34
-4.97789e-34
-1.60884e-33
-5.07181e-33
-1.58542e-32
-4.94339e-32
-1.53859e-31
-4.80064e-31
-1.4953e-30
-4.64371e-30
-1.43691e-29
-4.41919e-29
-1.37115e-28
-4.19176e-28
-1.276e-27
-3.83505e-27
-1.18608e-26
-3.56146e-26
-1.06931e-25
-3.18394e-25
-9.42325e-25
-2.77374e-24
-8.09462e-24
-2.34135e-23
-6.70034e-23
-1.89397e-22
-5.31837e-22
-1.49097e-21
-4.28728e-21
-1.17019e-20
-3.21578e-20
-8.63642e-20
-2.31819e-19
-6.049e-19
-1.55045e-18
-3.89358e-18
-9.67789e-18
-2.47694e-17
-6.34288e-17
-1.55393e-16
-3.92474e-16
-1.05492e-15
-3.45375e-15
-1.4336e-14
-7.56801e-14
-4.36236e-13
-2.50901e-12
-1.38691e-11
-7.22801e-11
-3.51156e-10
-1.57619e-09
-6.50646e-09
-2.06715e-08
-6.51554e-08
-1.81422e-07
-4.89234e-07
-1.28568e-06
-3.08881e-06
-6.73818e-06
-1.33439e-05
-2.2861e-05
-3.24662e-05
-3.23692e-05
-1.48815e-05
2.59536e-05
7.37869e-05
9.45437e-05
4.38216e-05
-8.18424e-05
-0.000271598
-0.000338664
-7.95204e-06
0.000773049
0.00147772
-0.000121012
-0.000528028
-0.000298646
-0.000137389
-8.08589e-05
-4.41367e-05
-2.25732e-05
-1.1626e-05
-6.01739e-06
-3.2358e-06
-1.77338e-06
-9.79477e-07
-5.40094e-07
-2.95669e-07
-1.59221e-07
-8.91129e-08
-5.53966e-08
-4.14892e-08
-6.15672e-08
-5.40842e-08
1.11311e-07
9.12573e-08
8.53851e-09
-5.6056e-09
-1.24454e-09
-2.76179e-35
-1.58449e-34
-5.56379e-34
-1.7977e-33
-5.67451e-33
-1.77891e-32
-5.56518e-32
-1.73333e-31
-5.38629e-31
-1.67096e-30
-5.16973e-30
-1.58901e-29
-4.97102e-29
-1.52772e-28
-4.67369e-28
-1.40709e-27
-4.34812e-27
-1.31037e-26
-3.93988e-26
-1.17484e-25
-3.47336e-25
-1.02007e-24
-3.03296e-24
-8.81275e-24
-2.54415e-23
-7.2524e-23
-2.08447e-22
-5.87401e-22
-1.64027e-21
-4.5626e-21
-1.25627e-20
-3.45441e-20
-9.26759e-20
-2.44966e-19
-6.3965e-19
-1.63577e-18
-4.13277e-18
-1.01521e-17
-2.63647e-17
-6.68969e-17
-1.62357e-16
-4.06931e-16
-1.12208e-15
-3.71084e-15
-1.54842e-14
-8.17965e-14
-4.66017e-13
-2.65246e-12
-1.45114e-11
-7.48342e-11
-3.5967e-10
-1.59962e-09
-6.52867e-09
-2.05406e-08
-6.56808e-08
-1.81558e-07
-4.85852e-07
-1.27199e-06
-3.04973e-06
-6.6391e-06
-1.31454e-05
-2.25919e-05
-3.23153e-05
-3.26464e-05
-1.58033e-05
2.4432e-05
7.25355e-05
9.48116e-05
4.63741e-05
-7.72597e-05
-0.000266497
-0.000341643
-2.34855e-05
0.000748611
0.00148092
-7.18297e-05
-0.000534461
-0.000305473
-0.000140018
-8.21074e-05
-4.49281e-05
-2.29761e-05
-1.18292e-05
-6.11709e-06
-3.28763e-06
-1.80115e-06
-9.94618e-07
-5.48405e-07
-3.00235e-07
-1.61623e-07
-9.04172e-08
-5.61809e-08
-4.2005e-08
-6.21237e-08
-5.4827e-08
1.12186e-07
9.27316e-08
8.73289e-09
-5.67346e-09
-1.26244e-09
-3.31406e-35
-1.71727e-34
-6.07093e-34
-1.96732e-33
-6.2061e-33
-1.94143e-32
-6.1028e-32
-1.89578e-31
-5.86003e-31
-1.82401e-30
-5.68557e-30
-1.75356e-29
-5.39834e-29
-1.65923e-28
-5.09243e-28
-1.54715e-27
-4.65106e-27
-1.42576e-26
-4.26341e-26
-1.27248e-25
-3.79258e-25
-1.11869e-24
-3.28124e-24
-9.54949e-24
-2.75142e-23
-7.83029e-23
-2.22725e-22
-6.23215e-22
-1.73351e-21
-4.87599e-21
-1.34128e-20
-3.67545e-20
-9.76537e-20
-2.57698e-19
-6.62198e-19
-1.67768e-18
-4.33686e-18
-1.06128e-17
-2.73962e-17
-6.78927e-17
-1.72657e-16
-4.31704e-16
-1.19211e-15
-3.86246e-15
-1.63853e-14
-8.63434e-14
-4.8926e-13
-2.76541e-12
-1.50178e-11
-7.68666e-11
-3.66507e-10
-1.61421e-09
-6.53495e-09
-2.04243e-08
-6.59198e-08
-1.81186e-07
-4.81428e-07
-1.25682e-06
-3.00688e-06
-6.54906e-06
-1.29714e-05
-2.23447e-05
-3.21597e-05
-3.29016e-05
-1.6671e-05
2.29579e-05
7.11746e-05
9.50377e-05
5.40906e-05
-7.31499e-05
-0.000261988
-0.000344607
-3.75351e-05
0.000725629
0.0014823
-2.43328e-05
-0.000540339
-0.000311923
-0.000142496
-8.32554e-05
-4.56618e-05
-2.33497e-05
-1.20174e-05
-6.20871e-06
-3.3353e-06
-1.82673e-06
-1.00858e-06
-5.56077e-07
-3.04454e-07
-1.63837e-07
-9.16092e-08
-5.68821e-08
-4.24503e-08
-6.25651e-08
-5.60638e-08
1.1269e-07
9.41216e-08
8.9373e-09
-5.73127e-09
-1.27893e-09
-3.56582e-35
-1.84953e-34
-6.542e-34
-2.12087e-33
-6.7148e-33
-2.10204e-32
-6.55887e-32
-2.04239e-31
-6.3428e-31
-1.96024e-30
-6.05258e-30
-1.87569e-29
-5.77307e-29
-1.77437e-28
-5.44539e-28
-1.66098e-27
-5.00341e-27
-1.52328e-26
-4.54611e-26
-1.35284e-25
-4.0396e-25
-1.19e-24
-3.48964e-24
-1.015e-23
-2.91628e-23
-8.27775e-23
-2.35673e-22
-6.57371e-22
-1.81017e-21
-5.09632e-21
-1.38585e-20
-3.78364e-20
-1.01646e-19
-2.67337e-19
-6.93052e-19
-1.77996e-18
-4.48391e-18
-1.13542e-17
-2.87902e-17
-7.24938e-17
-1.77924e-16
-4.44704e-16
-1.23209e-15
-3.9795e-15
-1.70855e-14
-8.99791e-14
-5.07324e-13
-2.85063e-12
-1.53831e-11
-7.82208e-11
-3.708e-10
-1.62347e-09
-6.53488e-09
-2.03226e-08
-6.60261e-08
-1.80673e-07
-4.7733e-07
-1.24199e-06
-2.96882e-06
-6.46409e-06
-1.28204e-05
-2.21369e-05
-3.20261e-05
-3.3099e-05
-1.73807e-05
2.17228e-05
6.9984e-05
9.49575e-05
5.52771e-05
-6.97896e-05
-0.000258129
-0.000347472
-4.93165e-05
0.000706054
0.00148201
1.73896e-05
-0.000545406
-0.000317457
-0.00014465
-8.4239e-05
-4.62947e-05
-2.36704e-05
-1.21797e-05
-6.2877e-06
-3.37642e-06
-1.84881e-06
-1.02064e-06
-5.62718e-07
-3.08115e-07
-1.65758e-07
-9.26466e-08
-5.74814e-08
-4.28079e-08
-6.28547e-08
-5.69238e-08
1.13106e-07
9.53893e-08
9.13533e-09
-5.77818e-09
-1.29324e-09
-3.57489e-35
-1.94759e-34
-6.8938e-34
-2.2336e-33
-7.05218e-33
-2.2096e-32
-6.90883e-32
-2.15587e-31
-6.69277e-31
-2.06575e-30
-6.42058e-30
-1.97629e-29
-6.07557e-29
-1.86554e-28
-5.71344e-28
-1.74244e-27
-5.33128e-27
-1.60724e-26
-4.81135e-26
-1.43126e-25
-4.26947e-25
-1.24814e-24
-3.67832e-24
-1.06385e-23
-3.05666e-23
-8.70501e-23
-2.45497e-22
-6.93635e-22
-1.91299e-21
-5.2756e-21
-1.44405e-20
-3.97709e-20
-1.05616e-19
-2.77236e-19
-7.17561e-19
-1.84791e-18
-4.68729e-18
-1.17044e-17
-2.95201e-17
-7.31106e-17
-1.80612e-16
-4.54061e-16
-1.21995e-15
-4.07798e-15
-1.77032e-14
-9.28147e-14
-5.2131e-13
-2.91659e-12
-1.56663e-11
-7.92763e-11
-3.74053e-10
-1.63011e-09
-6.53361e-09
-2.02468e-08
-6.60473e-08
-1.80145e-07
-4.73818e-07
-1.23107e-06
-2.94092e-06
-6.40275e-06
-1.27057e-05
-2.19625e-05
-3.18981e-05
-3.32433e-05
-1.79294e-05
2.07611e-05
6.90625e-05
9.50371e-05
5.70093e-05
-6.66009e-05
-0.000255583
-0.00034876
-5.83371e-05
0.000690702
0.00148073
5.09571e-05
-0.000549372
-0.000321864
-0.000146381
-8.50192e-05
-4.68023e-05
-2.3931e-05
-1.23108e-05
-6.35129e-06
-3.40946e-06
-1.86652e-06
-1.03031e-06
-5.68044e-07
-3.11051e-07
-1.67298e-07
-9.34723e-08
-5.79526e-08
-4.30835e-08
-6.30636e-08
-5.73551e-08
1.1333e-07
9.64194e-08
9.30335e-09
-5.81424e-09
-1.30474e-09
-3.84319e-35
-2.00235e-34
-7.06735e-34
-2.31857e-33
-7.30682e-33
-2.28645e-32
-7.13396e-32
-2.22416e-31
-6.92483e-31
-2.14683e-30
-6.63631e-30
-2.04674e-29
-6.3048e-29
-1.94247e-28
-5.97927e-28
-1.82463e-27
-5.53839e-27
-1.67206e-26
-5.0173e-26
-1.49531e-25
-4.42469e-25
-1.29879e-24
-3.78454e-24
-1.0934e-23
-3.15671e-23
-8.99117e-23
-2.54742e-22
-7.10052e-22
-1.99983e-21
-5.47738e-21
-1.48823e-20
-3.99327e-20
-1.08065e-19
-2.82329e-19
-7.40146e-19
-1.9088e-18
-4.80552e-18
-1.17781e-17
-2.95576e-17
-7.49792e-17
-1.80574e-16
-4.53317e-16
-1.23616e-15
-4.14491e-15
-1.81461e-14
-9.48876e-14
-5.31442e-13
-2.96423e-12
-1.58723e-11
-8.00716e-11
-3.76426e-10
-1.63535e-09
-6.53433e-09
-2.01978e-08
-6.60522e-08
-1.79768e-07
-4.71439e-07
-1.22331e-06
-2.92088e-06
-6.35884e-06
-1.26244e-05
-2.18444e-05
-3.18107e-05
-3.33331e-05
-1.82887e-05
2.01148e-05
6.84377e-05
9.50773e-05
5.81935e-05
-6.4477e-05
-0.00025258
-0.000349989
-6.45783e-05
0.00067985
0.00147942
7.49839e-05
-0.000552142
-0.00032498
-0.000147614
-8.55688e-05
-4.71609e-05
-2.41142e-05
-1.24031e-05
-6.39612e-06
-3.43274e-06
-1.87901e-06
-1.03714e-06
-5.71806e-07
-3.13129e-07
-1.68387e-07
-9.40569e-08
-5.82882e-08
-4.32821e-08
-6.3213e-08
-5.78676e-08
1.13458e-07
9.71598e-08
9.42702e-09
-5.83899e-09
-1.31287e-09
-3.89173e-35
-2.07085e-34
-7.28646e-34
-2.35907e-33
-7.4568e-33
-2.34333e-32
-7.31944e-32
-2.2818e-31
-7.1051e-31
-2.20804e-30
-6.83902e-30
-2.1119e-29
-6.50223e-29
-1.99716e-28
-6.1303e-28
-1.86882e-27
-5.66654e-27
-1.71031e-26
-5.11014e-26
-1.51573e-25
-4.48551e-25
-1.31428e-24
-3.87298e-24
-1.11301e-23
-3.22807e-23
-9.14283e-23
-2.58581e-22
-7.30236e-22
-2.02768e-21
-5.58318e-21
-1.51789e-20
-4.16882e-20
-1.09843e-19
-2.87083e-19
-7.53175e-19
-1.90929e-18
-4.85993e-18
-1.19158e-17
-3.07749e-17
-7.63271e-17
-1.85087e-16
-4.60617e-16
-1.24537e-15
-4.23922e-15
-1.83664e-14
-9.61768e-14
-5.38205e-13
-2.9963e-12
-1.60095e-11
-8.05854e-11
-3.7801e-10
-1.63899e-09
-6.5373e-09
-2.0177e-08
-6.60823e-08
-1.79625e-07
-4.70313e-07
-1.21953e-06
-2.91078e-06
-6.33614e-06
-1.25814e-05
-2.17833e-05
-3.17651e-05
-3.33767e-05
-1.84721e-05
1.97802e-05
6.80983e-05
9.50744e-05
5.87864e-05
-6.33266e-05
-0.000252075
-0.000350667
-6.80588e-05
0.000674085
0.00147854
8.78389e-05
-0.000553579
-0.000326633
-0.00014827
-8.58596e-05
-4.73525e-05
-2.42126e-05
-1.24529e-05
-6.4203e-06
-3.44532e-06
-1.88576e-06
-1.04083e-06
-5.7384e-07
-3.14252e-07
-1.68975e-07
-9.43732e-08
-5.84708e-08
-4.33973e-08
-6.33155e-08
-5.82614e-08
1.13459e-07
9.75462e-08
9.49269e-09
-5.85225e-09
-1.31724e-09
-3.9672e-35
-2.09201e-34
-7.38462e-34
-2.39372e-33
-7.55881e-33
-2.3659e-32
-7.37943e-32
-2.29947e-31
-7.16494e-31
-2.23961e-30
-6.93692e-30
-2.14211e-29
-6.57826e-29
-1.98101e-28
-6.26385e-28
-1.89752e-27
-5.74526e-27
-1.73049e-26
-5.18603e-26
-1.54575e-25
-4.58033e-25
-1.34727e-24
-3.9329e-24
-1.1369e-23
-3.23468e-23
-9.32992e-23
-2.62613e-22
-7.37359e-22
-2.0706e-21
-5.7345e-21
-1.55853e-20
-4.21855e-20
-1.11368e-19
-2.96858e-19
-7.67438e-19
-1.93974e-18
-4.94241e-18
-1.21217e-17
-3.09251e-17
-7.56735e-17
-1.87098e-16
-4.65786e-16
-1.27043e-15
-4.25978e-15
-1.85092e-14
-9.69666e-14
-5.42251e-13
-3.01586e-12
-1.60966e-11
-8.09347e-11
-3.79239e-10
-1.64248e-09
-6.54455e-09
-2.01828e-08
-6.61663e-08
-1.79724e-07
-4.7024e-07
-1.2189e-06
-2.90877e-06
-6.33139e-06
-1.25723e-05
-2.17698e-05
-3.1754e-05
-3.33824e-05
-1.85031e-05
1.97234e-05
6.80444e-05
9.50835e-05
5.89066e-05
-6.31151e-05
-0.000251856
-0.000350762
-6.84868e-05
0.000673149
0.00147838
8.99023e-05
-0.000553815
-0.000326885
-0.00014837
-8.5903e-05
-4.7381e-05
-2.42272e-05
-1.24603e-05
-6.42386e-06
-3.44717e-06
-1.88675e-06
-1.04137e-06
-5.74135e-07
-3.14414e-07
-1.6906e-07
-9.44167e-08
-5.8493e-08
-4.34026e-08
-6.32992e-08
-5.81794e-08
1.13538e-07
9.76119e-08
9.50223e-09
-5.85395e-09
-1.31779e-09
-3.94362e-35
-2.09268e-34
-7.43248e-34
-2.40712e-33
-7.61011e-33
-2.38653e-32
-7.45876e-32
-2.32607e-31
-7.23901e-31
-2.2474e-30
-6.95979e-30
-2.14995e-29
-6.61698e-29
-2.01779e-28
-6.27654e-28
-1.9066e-27
-5.76598e-27
-1.71675e-26
-5.23675e-26
-1.55211e-25
-4.6164e-25
-1.35765e-24
-3.96876e-24
-1.15208e-23
-3.30702e-23
-9.39612e-23
-2.6453e-22
-7.48511e-22
-2.08157e-21
-5.74462e-21
-1.57149e-20
-4.23003e-20
-1.13519e-19
-2.96709e-19
-7.73371e-19
-1.96314e-18
-4.96212e-18
-1.2271e-17
-3.10897e-17
-7.70334e-17
-1.87415e-16
-4.65243e-16
-1.28333e-15
-4.28131e-15
-1.84996e-14
-9.73095e-14
-5.43958e-13
-3.02481e-12
-1.61424e-11
-8.11546e-11
-3.80221e-10
-1.64649e-09
-6.55959e-09
-2.02269e-08
-6.6341e-08
-1.80186e-07
-4.71672e-07
-1.22262e-06
-2.9174e-06
-6.34935e-06
-1.26048e-05
-2.18155e-05
-3.17856e-05
-3.3343e-05
-1.83569e-05
1.99807e-05
6.82918e-05
9.50657e-05
5.84557e-05
-6.3929e-05
-0.000251853
-0.000350279
-6.59276e-05
0.000677371
0.00147898
8.04815e-05
-0.000552721
-0.000325662
-0.000147881
-8.56867e-05
-4.72395e-05
-2.41547e-05
-1.24236e-05
-6.4061e-06
-3.43794e-06
-1.8818e-06
-1.03866e-06
-5.7264e-07
-3.13587e-07
-1.68627e-07
-9.41867e-08
-5.83656e-08
-4.33371e-08
-6.32823e-08
-5.80831e-08
1.13467e-07
9.72909e-08
9.44608e-09
-5.84458e-09
-1.31443e-09
-4.01034e-35
-2.07414e-34
-7.33016e-34
-2.37832e-33
-7.52989e-33
-2.36559e-32
-7.40221e-32
-2.30907e-31
-7.18103e-31
-2.22593e-30
-6.87444e-30
-2.11548e-29
-6.49586e-29
-1.99504e-28
-6.12772e-28
-1.86753e-27
-5.61932e-27
-1.69791e-26
-5.13852e-26
-1.5282e-25
-4.4942e-25
-1.34232e-24
-3.90215e-24
-1.14368e-23
-3.27219e-23
-9.26476e-23
-2.6008e-22
-7.40109e-22
-2.04996e-21
-5.65775e-21
-1.54062e-20
-4.12689e-20
-1.13237e-19
-2.94555e-19
-7.53674e-19
-1.90296e-18
-4.88748e-18
-1.17745e-17
-3.03079e-17
-7.67176e-17
-1.84538e-16
-4.64544e-16
-1.25771e-15
-4.28126e-15
-1.84817e-14
-9.70304e-14
-5.42809e-13
-3.02121e-12
-1.61386e-11
-8.12124e-11
-3.80843e-10
-1.65056e-09
-6.58069e-09
-2.03065e-08
-6.6608e-08
-1.81017e-07
-4.746e-07
-1.2306e-06
-2.93619e-06
-6.38865e-06
-1.26763e-05
-2.19168e-05
-3.18557e-05
-3.32578e-05
-1.80401e-05
2.05351e-05
6.88214e-05
9.50204e-05
5.74714e-05
-6.57277e-05
-0.000253765
-0.000349035
-6.05835e-05
0.000686509
0.00148014
6.01443e-05
-0.000550385
-0.000323021
-0.000146833
-8.52209e-05
-4.69345e-05
-2.3998e-05
-1.23444e-05
-6.36773e-06
-3.418e-06
-1.8711e-06
-1.03281e-06
-5.69413e-07
-3.11802e-07
-1.67692e-07
-9.36853e-08
-5.80775e-08
-4.3165e-08
-6.31514e-08
-5.77869e-08
1.13458e-07
9.66425e-08
9.33236e-09
-5.82401e-09
-1.3073e-09
-3.94812e-35
-2.04157e-34
-7.21711e-34
-2.34101e-33
-7.39818e-33
-2.31777e-32
-7.23665e-32
-2.25496e-31
-7.00945e-31
-2.17409e-30
-6.72834e-30
-2.07675e-29
-6.39002e-29
-1.9614e-28
-5.99702e-28
-1.81688e-27
-5.57474e-27
-1.67592e-26
-5.02121e-26
-1.49631e-25
-4.44259e-25
-1.31743e-24
-3.85232e-24
-1.1162e-23
-3.20469e-23
-9.11889e-23
-2.57134e-22
-7.19873e-22
-2.02704e-21
-5.58548e-21
-1.52623e-20
-4.09351e-20
-1.10299e-19
-2.88794e-19
-7.50809e-19
-1.92599e-18
-4.84468e-18
-1.17653e-17
-3.00912e-17
-7.61524e-17
-1.84221e-16
-4.55674e-16
-1.24891e-15
-4.27739e-15
-1.83157e-14
-9.61849e-14
-5.39127e-13
-3.00665e-12
-1.60935e-11
-8.11474e-11
-3.81289e-10
-1.65551e-09
-6.61132e-09
-2.04306e-08
-6.69944e-08
-1.8229e-07
-4.79251e-07
-1.24348e-06
-2.96681e-06
-6.45272e-06
-1.27918e-05
-2.20784e-05
-3.19637e-05
-3.31165e-05
-1.75354e-05
2.14048e-05
6.96346e-05
9.49176e-05
5.59036e-05
-6.85581e-05
-0.000256875
-0.000348015
-5.24298e-05
0.000700382
0.00148129
2.96065e-05
-0.000546818
-0.00031904
-0.000145265
-8.45187e-05
-4.64767e-05
-2.37641e-05
-1.22265e-05
-6.31057e-06
-3.38827e-06
-1.85514e-06
-1.02408e-06
-5.64598e-07
-3.0914e-07
-1.66297e-07
-9.29385e-08
-5.7654e-08
-4.29202e-08
-6.29869e-08