/*--------------------------------*- C++ -*----------------------------------*\
  =========                 |
  \\      /  F ield         | OpenFOAM: The Open Source CFD Toolbox
   \\    /   O peration     | Website:  https://openfoam.org
    \\  /    A nd           | Version:  10
     \\/     M anipulation  |
\*---------------------------------------------------------------------------*/
FoamFile
{
    format      ascii;
    class       volScalarField;
    location    "1";
    object      RR.CH3O;
}
// * * * * * * * * * * * * * * * * * * * * * * * * * * * * * * * * * * * * * //

dimensions      [1 -3 -1 0 0 0 0];

internalField   nonuniform List<scalar> 
4000
(
-1.06849e-36
-4.51052e-36
-1.73198e-35
-6.08493e-35
-2.09141e-34
-6.88125e-34
-2.17607e-33
-6.70126e-33
-2.03602e-32
-6.22394e-32
-1.96413e-31
-6.03148e-31
-1.83119e-30
-5.57914e-30
-1.71635e-29
-5.32346e-29
-1.64002e-28
-5.39204e-28
-1.72083e-27
-5.57954e-27
-1.8221e-26
-6.00063e-26
-2.01442e-25
-6.73415e-25
-2.27836e-24
-7.69007e-24
-2.53386e-23
-8.80201e-23
-2.9349e-22
-9.81487e-22
-3.28331e-21
-1.09493e-20
-3.61627e-20
-1.18913e-19
-3.91361e-19
-1.2264e-18
-4.03474e-18
-1.28977e-17
-4.13713e-17
-1.31529e-16
-4.00831e-16
-1.20991e-15
-3.53275e-15
-1.01595e-14
-2.87147e-14
-8.49939e-14
-2.57573e-13
-7.69338e-13
-2.24435e-12
-6.36198e-12
-1.75386e-11
-4.77772e-11
-1.16466e-10
-3.08402e-10
-8.18571e-10
-2.15827e-09
-5.47719e-09
-1.40882e-08
-3.44642e-08
-7.78998e-08
-1.61256e-07
-2.46617e-07
8.28738e-08
1.02654e-06
7.37918e-07
-1.19974e-07
-4.22002e-07
-4.3953e-07
-5.13722e-07
-7.575e-07
-1.13495e-06
-5.45108e-07
1.63802e-06
3.19923e-06
1.58202e-06
-2.57397e-06
-2.35683e-06
-1.78523e-06
-1.00684e-06
-4.53564e-07
6.10517e-07
2.25731e-06
1.69578e-06
4.51653e-06
3.75721e-06
-3.12137e-06
-1.71892e-06
-9.47407e-07
-5.18185e-07
-2.78919e-07
-1.47223e-07
-7.46574e-08
-3.89573e-08
-2.11014e-08
-7.61042e-09
2.52166e-09
7.32477e-09
6.66217e-09
1.82375e-09
-1.57039e-09
-1.17558e-36
-6.06508e-36
-2.08555e-35
-6.80115e-35
-2.18114e-34
-6.86321e-34
-2.1127e-33
-6.44595e-33
-1.87994e-32
-5.45973e-32
-1.59981e-31
-4.76333e-31
-1.44267e-30
-4.45651e-30
-1.40679e-29
-4.5336e-29
-1.4854e-28
-4.95583e-28
-1.67539e-27
-5.70411e-27
-1.95705e-26
-6.78626e-26
-2.34703e-25
-8.12315e-25
-2.81937e-24
-9.70341e-24
-3.33353e-23
-1.14137e-22
-3.8748e-22
-1.30045e-21
-4.41994e-21
-1.53067e-20
-5.10382e-20
-1.65982e-19
-5.38309e-19
-1.75546e-18
-5.56804e-18
-1.80037e-17
-5.54281e-17
-1.72195e-16
-5.27602e-16
-1.56235e-15
-4.58658e-15
-1.30479e-14
-3.87045e-14
-1.1505e-13
-3.43977e-13
-1.00657e-12
-2.89162e-12
-8.17908e-12
-2.08569e-11
-4.99705e-11
-1.31604e-10
-3.41285e-10
-8.92996e-10
-2.35056e-09
-5.79615e-09
-1.46434e-08
-3.54999e-08
-7.9531e-08
-1.63746e-07
-2.49681e-07
6.63886e-08
1.00203e-06
7.64702e-07
-9.07953e-08
-4.14931e-07
-4.40776e-07
-5.0975e-07
-7.44756e-07
-1.14431e-06
-6.30791e-07
1.56707e-06
3.27219e-06
1.75626e-06
-2.57932e-06
-2.40863e-06
-1.8173e-06
-9.96973e-07
-3.99504e-07
7.29962e-07
2.37024e-06
1.76768e-06
4.8404e-06
2.65445e-06
-2.93205e-06
-1.616e-06
-8.91435e-07
-4.86394e-07
-2.61385e-07
-1.37708e-07
-6.98292e-08
-3.66831e-08
-1.98508e-08
-6.53566e-09
3.26341e-09
7.52952e-09
6.34155e-09
1.54052e-09
-1.6407e-09
-5.90996e-37
-3.07388e-36
-1.03217e-35
-3.12002e-35
-9.11967e-35
-2.6232e-34
-7.48259e-34
-2.15616e-33
-6.45155e-33
-2.05107e-32
-6.77309e-32
-2.3111e-31
-8.08398e-31
-2.86804e-30
-1.02708e-29
-3.70099e-29
-1.34007e-28
-4.87041e-28
-1.77064e-27
-6.41412e-27
-2.31965e-26
-8.33871e-26
-2.97783e-25
-1.05392e-24
-3.69334e-24
-1.28475e-23
-4.45189e-23
-1.55397e-22
-5.27505e-22
-1.7673e-21
-6.15509e-21
-2.04076e-20
-6.63407e-20
-2.18359e-19
-7.16519e-19
-2.29273e-18
-7.20844e-18
-2.25587e-17
-7.03941e-17
-2.1257e-16
-6.418e-16
-1.82867e-15
-5.55682e-15
-1.57155e-14
-4.72019e-14
-1.3815e-13
-4.12837e-13
-1.19738e-12
-3.34629e-12
-9.30252e-12
-2.32606e-11
-5.64947e-11
-1.47748e-10
-3.85669e-10
-9.77977e-10
-2.44593e-09
-5.95363e-09
-1.49421e-08
-3.60291e-08
-8.06961e-08
-1.6603e-07
-2.53035e-07
5.37806e-08
9.78192e-07
7.82033e-07
-6.54704e-08
-4.05402e-07
-4.3785e-07
-5.0207e-07
-7.41543e-07
-1.14405e-06
-7.11522e-07
1.4954e-06
3.34731e-06
1.94893e-06
-2.59005e-06
-2.47656e-06
-1.85679e-06
-9.80204e-07
-3.22574e-07
9.0502e-07
2.51216e-06
1.87112e-06
5.31794e-06
8.90632e-07
-2.64475e-06
-1.46052e-06
-8.05234e-07
-4.40302e-07
-2.35945e-07
-1.24035e-07
-6.29882e-08
-3.35483e-08
-1.80961e-08
-5.16729e-09
4.02598e-09
7.72495e-09
6.1525e-09
1.24023e-09
-1.71048e-09
-2.57947e-37
-1.34634e-36
-4.73546e-36
-1.52092e-35
-4.79448e-35
-1.52807e-34
-4.99053e-34
-1.74872e-33
-6.15426e-33
-2.19331e-32
-8.06637e-32
-2.94953e-31
-1.10238e-30
-4.04647e-30
-1.48564e-29
-5.44066e-29
-1.98576e-28
-7.21446e-28
-2.60606e-27
-9.36849e-27
-3.35178e-26
-1.19249e-25
-4.21435e-25
-1.47658e-24
-5.22947e-24
-1.80907e-23
-6.22263e-23
-2.12341e-22
-7.05795e-22
-2.43603e-21
-8.08893e-21
-2.67297e-20
-8.70734e-20
-2.83662e-19
-9.19066e-19
-2.91307e-18
-9.04687e-18
-2.83389e-17
-8.68893e-17
-2.61544e-16
-7.82775e-16
-2.24682e-15
-6.69016e-15
-1.89223e-14
-5.40041e-14
-1.62602e-13
-4.79012e-13
-1.36597e-12
-3.87459e-12
-9.75328e-12
-2.42432e-11
-6.4912e-11
-1.69613e-10
-4.30834e-10
-1.07617e-09
-2.48786e-09
-6.08115e-09
-1.52058e-08
-3.65597e-08
-8.16427e-08
-1.67584e-07
-2.55043e-07
4.30352e-08
9.622e-07
7.99518e-07
-4.20548e-08
-3.97347e-07
-4.39196e-07
-5.02867e-07
-7.34006e-07
-1.15066e-06
-7.90112e-07
1.43619e-06
3.41648e-06
2.13977e-06
-2.62084e-06
-2.54436e-06
-1.89527e-06
-9.60141e-07
-2.43297e-07
1.07015e-06
2.61986e-06
1.96122e-06
5.85626e-06
-9.35471e-07
-2.36216e-06
-1.30985e-06
-7.25102e-07
-3.97637e-07
-2.11199e-07
-1.11115e-07
-5.68199e-08
-3.07361e-08
-1.64627e-08
-3.86829e-09
4.70003e-09
7.89122e-09
5.78926e-09
9.43272e-10
-1.77294e-09
-2.48784e-37
-1.32993e-36
-4.94712e-36
-1.71505e-35
-5.88356e-35
-2.03367e-34
-7.11442e-34
-2.51385e-33
-8.89268e-33
-3.26327e-32
-1.17973e-31
-4.30365e-31
-1.59217e-30
-5.78701e-30
-2.14643e-29
-7.78433e-29
-2.80921e-28
-1.033e-27
-3.72064e-27
-1.33255e-26
-4.74318e-26
-1.6737e-25
-5.86284e-25
-2.0402e-24
-7.05903e-24
-2.42089e-23
-8.2399e-23
-2.83227e-22
-9.49164e-22
-3.15331e-21
-1.04134e-20
-3.50618e-20
-1.12907e-19
-3.64808e-19
-1.15898e-18
-3.6567e-18
-1.11799e-17
-3.36286e-17
-1.03907e-16
-3.13365e-16
-9.17238e-16
-2.66017e-15
-7.52471e-15
-2.18999e-14
-6.21534e-14
-1.84683e-13
-5.34634e-13
-1.54988e-12
-3.96025e-12
-9.92467e-12
-2.68483e-11
-7.12827e-11
-1.87593e-10
-4.84791e-10
-1.10245e-09
-2.54936e-09
-6.22197e-09
-1.54625e-08
-3.69846e-08
-8.25069e-08
-1.69167e-07
-2.57167e-07
3.58151e-08
9.48155e-07
8.1039e-07
-2.12195e-08
-3.91573e-07
-4.41143e-07
-5.05239e-07
-7.31025e-07
-1.16001e-06
-8.48377e-07
1.3873e-06
3.49117e-06
2.30425e-06
-2.64285e-06
-2.614e-06
-1.93422e-06
-9.43423e-07
-1.7235e-07
1.22744e-06
2.70386e-06
2.02491e-06
6.22056e-06
-2.02501e-06
-2.17407e-06
-1.20614e-06
-6.67783e-07
-3.66136e-07
-1.94345e-07
-1.02176e-07
-5.2457e-08
-2.87485e-08
-1.52168e-08
-2.84132e-09
5.21924e-09
7.99393e-09
5.42559e-09
1.00609e-09
-1.85906e-09
-3.8757e-37
-2.16413e-36
-8.27676e-36
-2.96774e-35
-1.05001e-34
-3.71227e-34
-1.31477e-33
-4.66878e-33
-1.66049e-32
-5.92215e-32
-2.10731e-31
-7.45256e-31
-2.71019e-30
-9.64783e-30
-3.4251e-29
-1.23406e-28
-4.38424e-28
-1.55725e-27
-5.53916e-27
-1.93829e-26
-6.90474e-26
-2.39001e-25
-8.21064e-25
-2.80053e-24
-9.59652e-24
-3.31135e-23
-1.11156e-22
-3.68001e-22
-1.2431e-21
-4.06524e-21
-1.32287e-20
-4.4321e-20
-1.41218e-19
-4.47609e-19
-1.39856e-18
-4.34991e-18
-1.32149e-17
-3.92808e-17
-1.21055e-16
-3.76821e-16
-1.07581e-15
-3.02522e-15
-8.58346e-15
-2.47206e-14
-7.03229e-14
-2.04582e-13
-6.01512e-13
-1.58746e-12
-4.06195e-12
-1.0782e-11
-2.88734e-11
-7.60235e-11
-1.96237e-10
-5.02968e-10
-1.14041e-09
-2.61726e-09
-6.31983e-09
-1.5663e-08
-3.731e-08
-8.30824e-08
-1.70107e-07
-2.58463e-07
2.87951e-08
9.38205e-07
8.23101e-07
-5.90443e-09
-3.85194e-07
-4.40597e-07
-5.06619e-07
-7.28729e-07
-1.16755e-06
-8.98334e-07
1.35029e-06
3.54813e-06
2.42498e-06
-2.65346e-06
-2.6697e-06
-1.96691e-06
-9.32616e-07
-1.16855e-07
1.34619e-06
2.74845e-06
2.05222e-06
6.44879e-06
-2.5999e-06
-2.07034e-06
-1.1471e-06
-6.341e-07
-3.46973e-07
-1.83981e-07
-9.65562e-08
-4.97358e-08
-2.75124e-08
-1.43704e-08
-2.10183e-09
5.60869e-09
8.08667e-09
5.21906e-09
8.15726e-10
-1.89567e-09
-6.10484e-37
-3.30069e-36
-1.28139e-35
-4.56497e-35
-1.59278e-34
-5.69488e-34
-1.99976e-33
-7.06025e-33
-2.49808e-32
-8.83966e-32
-3.13099e-31
-1.10949e-30
-3.929e-30
-1.38927e-29
-4.91853e-29
-1.74469e-28
-6.19105e-28
-2.17255e-27
-7.60683e-27
-2.68382e-26
-9.31582e-26
-3.21234e-25
-1.1005e-24
-3.74196e-24
-1.26103e-23
-4.20912e-23
-1.40766e-22
-4.56248e-22
-1.53747e-21
-5.08608e-21
-1.64482e-20
-5.294e-20
-1.68828e-19
-5.348e-19
-1.65135e-18
-5.13791e-18
-1.59638e-17
-4.70884e-17
-1.45158e-16
-4.28884e-16
-1.22963e-15
-3.49496e-15
-9.82084e-15
-2.71112e-14
-7.73445e-14
-2.22916e-13
-6.26951e-13
-1.56917e-12
-4.29406e-12
-1.15152e-11
-3.03615e-11
-7.91635e-11
-2.02766e-10
-5.15848e-10
-1.1645e-09
-2.66457e-09
-6.39173e-09
-1.57711e-08
-3.74898e-08
-8.34203e-08
-1.70668e-07
-2.59599e-07
2.1003e-08
9.27746e-07
8.35088e-07
8.466e-09
-3.8081e-07
-4.40941e-07
-5.08061e-07
-7.26258e-07
-1.17173e-06
-9.37421e-07
1.31249e-06
3.59307e-06
2.53949e-06
-2.65124e-06
-2.71975e-06
-1.99978e-06
-9.28268e-07
-7.63052e-08
1.4325e-06
2.77151e-06
2.05849e-06
6.58365e-06
-2.88886e-06
-2.01878e-06
-1.11696e-06
-6.16419e-07
-3.36621e-07
-1.78285e-07
-9.3401e-08
-4.82207e-08
-2.684e-08
-1.38463e-08
-1.59026e-09
5.89476e-09
8.17082e-09
5.08323e-09
6.89304e-10
-1.92356e-09
-8.70403e-37
-4.74159e-36
-1.82436e-35
-6.56038e-35
-2.32175e-34
-8.18985e-34
-2.88725e-33
-1.01805e-32
-3.58975e-32
-1.26546e-31
-4.4561e-31
-1.56953e-30
-5.5345e-30
-1.95103e-29
-6.84291e-29
-2.40018e-28
-8.41507e-28
-2.93491e-27
-1.02023e-26
-3.53677e-26
-1.22125e-25
-4.17916e-25
-1.42051e-24
-4.79394e-24
-1.60761e-23
-5.36014e-23
-1.77209e-22
-5.76726e-22
-1.84914e-21
-5.95036e-21
-1.95119e-20
-6.35944e-20
-2.01209e-19
-6.29166e-19
-1.92311e-18
-5.90087e-18
-1.81169e-17
-5.28885e-17
-1.62227e-16
-4.80221e-16
-1.37974e-15
-3.84747e-15
-1.08967e-14
-3.01314e-14
-8.63061e-14
-2.45569e-13
-6.41696e-13
-1.68048e-12
-4.56799e-12
-1.21546e-11
-3.19226e-11
-8.22237e-11
-2.08617e-10
-5.26588e-10
-1.18298e-09
-2.69507e-09
-6.43138e-09
-1.58126e-08
-3.75125e-08
-8.3423e-08
-1.70625e-07
-2.60333e-07
1.15609e-08
9.16129e-07
8.46175e-07
2.56668e-08
-3.76025e-07
-4.41693e-07
-5.09143e-07
-7.22742e-07
-1.17336e-06
-9.78251e-07
1.26471e-06
3.62521e-06
2.65496e-06
-2.63262e-06
-2.7645e-06
-2.03353e-06
-9.30481e-07
-4.86672e-08
1.48814e-06
2.78665e-06
2.0539e-06
6.65314e-06
-3.02733e-06
-1.99498e-06
-1.10271e-06
-6.07842e-07
-3.31459e-07
-1.75401e-07
-9.17699e-08
-4.74521e-08
-2.65153e-08
-1.35498e-08
-1.26226e-09
6.10706e-09
8.23914e-09
5.00265e-09
6.04518e-10
-1.94759e-09
-1.13545e-36
-6.21137e-36
-2.4005e-35
-8.64341e-35
-3.06288e-34
-1.07984e-33
-3.79784e-33
-1.33523e-32
-4.69343e-32
-1.65868e-31
-5.82e-31
-2.03808e-30
-7.13018e-30
-2.50861e-29
-8.74683e-29
-3.04593e-28
-1.06036e-27
-3.67521e-27
-1.26425e-26
-4.42449e-26
-1.51723e-25
-5.08661e-25
-1.75284e-24
-5.84702e-24
-1.95174e-23
-6.53545e-23
-2.15383e-22
-7.04349e-22
-2.27849e-21
-7.29314e-21
-2.29931e-20
-7.39776e-20
-2.32352e-19
-7.2749e-19
-2.23294e-18
-6.78052e-18
-2.03999e-17
-5.90263e-17
-1.80019e-16
-5.31255e-16
-1.5035e-15
-4.27305e-15
-1.19529e-14
-3.34753e-14
-8.93791e-14
-2.35074e-13
-6.60276e-13
-1.80327e-12
-4.83427e-12
-1.27899e-11
-3.31617e-11
-8.46116e-11
-2.1301e-10
-5.33944e-10
-1.19374e-09
-2.7103e-09
-6.43773e-09
-1.57774e-08
-3.73683e-08
-8.31164e-08
-1.70152e-07
-2.6101e-07
-3.06861e-09
8.99028e-07
8.67415e-07
4.50876e-08
-3.70509e-07
-4.42361e-07
-5.09628e-07
-7.17268e-07
-1.17033e-06
-1.02482e-06
1.20526e-06
3.64853e-06
2.77414e-06
-2.59443e-06
-2.80577e-06
-2.06822e-06
-9.38579e-07
-3.15486e-08
1.51951e-06
2.80371e-06
2.04428e-06
6.67727e-06
-3.08335e-06
-1.98527e-06
-1.09672e-06
-6.04129e-07
-3.29154e-07
-1.7409e-07
-9.10126e-08
-4.71114e-08
-2.63941e-08
-1.34065e-08
-1.04127e-09
6.26675e-09
8.31073e-09
4.96612e-09
5.51232e-10
-1.96931e-09
-1.38009e-36
-7.79165e-36
-2.97635e-35
-1.06436e-34
-3.81943e-34
-1.34466e-33
-4.74664e-33
-1.67006e-32
-5.86571e-32
-2.0563e-31
-7.20589e-31
-2.53467e-30
-8.84199e-30
-3.08586e-29
-1.07704e-28
-3.6886e-28
-1.32165e-27
-4.54528e-27
-1.56322e-26
-5.34439e-26
-1.8042e-25
-6.22055e-25
-2.08936e-24
-6.9871e-24
-2.3199e-23
-7.66667e-23
-2.51993e-22
-8.17893e-22
-2.68533e-21
-8.63661e-21
-2.7396e-20
-8.56217e-20
-2.6502e-19
-8.15612e-19
-2.47401e-18
-7.44016e-18
-2.20005e-17
-6.41801e-17
-1.96407e-16
-5.71576e-16
-1.60408e-15
-4.51637e-15
-1.25958e-14
-3.38882e-14
-8.952e-14
-2.54598e-13
-7.04602e-13
-1.91065e-12
-5.10948e-12
-1.33731e-11
-3.43837e-11
-8.70117e-11
-2.17102e-10
-5.37597e-10
-1.19851e-09
-2.71528e-09
-6.41897e-09
-1.56887e-08
-3.71166e-08
-8.2583e-08
-1.69315e-07
-2.61905e-07
-1.91182e-08
8.79648e-07
8.85345e-07
6.82512e-08
-3.64878e-07
-4.43924e-07
-5.1057e-07
-7.10672e-07
-1.17681e-06
-1.06015e-06
1.13767e-06
3.65009e-06
2.89767e-06
-2.53074e-06
-2.84925e-06
-2.10843e-06
-9.52722e-07
-2.25501e-08
1.5321e-06
2.82333e-06
2.03249e-06
6.66916e-06
-3.0882e-06
-1.98315e-06
-1.09524e-06
-6.03115e-07
-3.28472e-07
-1.73677e-07
-9.07656e-08
-4.70188e-08
-2.63898e-08
-1.33679e-08
-9.20601e-10
6.38768e-09
8.38736e-09
4.96473e-09
5.22097e-10
-1.98946e-09
-1.65879e-36
-9.26201e-36
-3.5582e-35
-1.28117e-34
-4.53899e-34
-1.59979e-33
-5.62953e-33
-1.9783e-32
-6.92991e-32
-2.42696e-31
-8.64045e-31
-3.01831e-30
-1.05204e-29
-3.68556e-29
-1.28674e-28
-4.49348e-28
-1.55519e-27
-5.34867e-27
-1.82667e-26
-6.25874e-26
-2.09141e-25
-7.21291e-25
-2.4133e-24
-8.04022e-24
-2.62301e-23
-8.77825e-23
-2.84832e-22
-9.25012e-22
-3.01958e-21
-9.70727e-21
-3.07483e-20
-9.58957e-20
-2.94237e-19
-9.10265e-19
-2.72954e-18
-8.14202e-18
-2.41164e-17
-6.93012e-17
-2.1362e-16
-6.08892e-16
-1.70246e-15
-4.71411e-15
-1.28246e-14
-3.44216e-14
-9.68556e-14
-2.72421e-13
-7.51765e-13
-2.03737e-12
-5.40945e-12
-1.41009e-11
-3.61566e-11
-9.1378e-11
-2.29671e-10
-5.33071e-10
-1.19769e-09
-2.70964e-09
-6.37544e-09
-1.55387e-08
-3.67238e-08
-8.16284e-08
-1.67466e-07
-2.60838e-07
-3.42421e-08
8.59416e-07
9.03574e-07
9.11053e-08
-3.57942e-07
-4.43946e-07
-5.11221e-07
-7.0455e-07
-1.16904e-06
-1.09885e-06
1.05911e-06
3.64643e-06
3.01899e-06
-2.45177e-06
-2.88577e-06
-2.14541e-06
-9.69838e-07
-1.98131e-08
1.53086e-06
2.84585e-06
2.02007e-06
6.6373e-06
-3.05519e-06
-1.98605e-06
-1.09669e-06
-6.03853e-07
-3.28849e-07
-1.73849e-07
-9.08506e-08
-4.70854e-08
-2.64619e-08
-1.3403e-08
-8.65776e-10
6.48253e-09
8.46924e-09
4.98968e-09
5.1076e-10
-2.00846e-09
-1.92976e-36
-1.06429e-35
-4.09436e-35
-1.4726e-34
-5.20911e-34
-1.83424e-33
-6.45708e-33
-2.27569e-32
-7.98923e-32
-2.82978e-31
-9.95251e-31
-3.48686e-30
-1.21608e-29
-4.25902e-29
-1.49101e-28
-5.16473e-28
-1.78287e-27
-6.13459e-27
-2.0996e-26
-7.14935e-26
-2.41952e-25
-8.11529e-25
-2.7327e-24
-9.06655e-24
-2.98781e-23
-9.76562e-23
-3.18149e-22
-1.01231e-21
-3.33101e-21
-1.05883e-20
-3.28917e-20
-1.04141e-19
-3.24287e-19
-9.91605e-19
-3.02048e-18
-8.93171e-18
-2.59621e-17
-7.46996e-17
-2.22196e-16
-6.52533e-16
-1.80315e-15
-4.95612e-15
-1.34125e-14
-3.67265e-14
-1.03088e-13
-2.88586e-13
-7.93708e-13
-2.1448e-12
-5.67299e-12
-1.47292e-11
-3.76273e-11
-9.47535e-11
-2.36275e-10
-5.24437e-10
-1.19503e-09
-2.6956e-09
-6.31292e-09
-1.53621e-08
-3.62587e-08
-8.07842e-08
-1.65924e-07
-2.60986e-07
-5.07521e-08
8.39141e-07
9.2286e-07
1.14811e-07
-3.50866e-07
-4.43302e-07
-5.11209e-07
-6.98882e-07
-1.15826e-06
-1.13843e-06
9.78774e-07
3.63505e-06
3.13072e-06
-2.361e-06
-2.91905e-06
-2.18193e-06
-9.89509e-07
-2.16743e-08
1.51945e-06
2.86947e-06
2.00825e-06
6.5872e-06
-2.98928e-06
-1.99356e-06
-1.1008e-06
-6.06128e-07
-3.30104e-07
-1.74489e-07
-9.11973e-08
-4.72775e-08
-2.65947e-08
-1.34918e-08
-8.54854e-10
6.5616e-09
8.55585e-09
5.03354e-09
5.12252e-10
-2.02639e-09
-2.0938e-36
-1.1873e-35
-4.58942e-35
-1.64758e-34
-5.82721e-34
-2.05362e-33
-7.23826e-33
-2.55142e-32
-9.02219e-32
-3.18362e-31
-1.11975e-30
-3.92386e-30
-1.36595e-29
-4.80558e-29
-1.6641e-28
-5.74051e-28
-1.95346e-27
-6.8766e-27
-2.34367e-26
-7.99155e-26
-2.70265e-25
-9.08642e-25
-3.03797e-24
-1.00692e-23
-3.30812e-23
-1.07542e-22
-3.45453e-22
-1.10379e-21
-3.53533e-21
-1.16564e-20
-3.62681e-20
-1.14013e-19
-3.50147e-19
-1.07777e-18
-3.22218e-18
-9.47048e-18
-2.73372e-17
-7.85149e-17
-2.331e-16
-6.88972e-16
-1.91266e-15
-5.28571e-15
-1.42416e-14
-3.92863e-14
-1.07926e-13
-3.0139e-13
-8.25335e-13
-2.20991e-12
-5.80118e-12
-1.49571e-11
-3.79556e-11
-9.49595e-11
-2.34951e-10
-5.16907e-10
-1.19567e-09
-2.68236e-09
-6.24594e-09
-1.51514e-08
-3.57622e-08
-7.96929e-08
-1.64319e-07
-2.60697e-07
-6.62491e-08
8.16571e-07
9.40077e-07
1.39137e-07
-3.43582e-07
-4.43041e-07
-5.11142e-07
-6.91505e-07
-1.1477e-06
-1.17316e-06
8.9706e-07
3.60822e-06
3.2366e-06
-2.25225e-06
-2.954e-06
-2.22001e-06
-1.0117e-06
-2.74254e-08
1.50022e-06
2.89433e-06
1.9959e-06
6.52273e-06
-2.89226e-06
-2.00546e-06
-1.10733e-06
-6.09771e-07
-3.32157e-07
-1.75559e-07
-9.17709e-08
-4.75711e-08
-2.67705e-08
-1.36202e-08
-8.83378e-10
6.62018e-09
8.64287e-09
5.09087e-09
5.22594e-10
-2.04435e-09
-2.19811e-36
-1.33432e-35
-5.10591e-35
-1.83338e-34
-6.49593e-34
-2.2964e-33
-8.11488e-33
-2.85737e-32
-1.00456e-31
-3.5277e-31
-1.23579e-30
-4.30079e-30
-1.5265e-29
-5.31285e-29
-1.84028e-28
-6.26497e-28
-2.20118e-27
-7.52171e-27
-2.5647e-26
-8.67286e-26
-2.90873e-25
-9.7022e-25
-3.28089e-24
-1.08265e-23
-3.55131e-23
-1.15157e-22
-3.77402e-22
-1.21193e-21
-3.86058e-21
-1.22591e-20
-3.85469e-20
-1.21282e-19
-3.72537e-19
-1.12857e-18
-3.38059e-18
-9.92233e-18
-2.88541e-17
-8.17123e-17
-2.4681e-16
-7.21797e-16
-1.9783e-15
-5.40992e-15
-1.48838e-14
-4.097e-14
-1.11906e-13
-3.10762e-13
-8.4421e-13
-2.24667e-12
-5.86555e-12
-1.50452e-11
-3.79875e-11
-9.45257e-11
-2.32773e-10
-5.09651e-10
-1.19359e-09
-2.66747e-09
-6.18391e-09
-1.49775e-08
-3.53478e-08
-7.87535e-08
-1.62457e-07
-2.59681e-07
-8.01257e-08
7.94675e-07
9.55464e-07
1.6193e-07
-3.36472e-07
-4.4336e-07
-5.11008e-07
-6.84405e-07
-1.13626e-06
-1.20231e-06
8.19009e-07
3.58107e-06
3.3293e-06
-2.13856e-06
-2.98603e-06
-2.25627e-06
-1.03504e-06
-3.50591e-08
1.47735e-06
2.91745e-06
1.98419e-06
6.44933e-06
-2.76908e-06
-2.02139e-06
-1.11603e-06
-6.14592e-07
-3.34846e-07
-1.7696e-07
-9.25236e-08
-4.79521e-08
-2.69876e-08
-1.37795e-08
-9.45995e-10
6.67014e-09
8.72936e-09
5.15508e-09
5.38972e-10
-2.06061e-09
-2.63529e-36
-1.44011e-35
-5.54603e-35
-1.99666e-34
-7.06562e-34
-2.49155e-33
-8.84632e-33
-3.10346e-32
-1.08442e-31
-3.82201e-31
-1.35006e-30
-4.71377e-30
-1.64317e-29
-5.72087e-29
-1.98876e-28
-6.84167e-28
-2.3294e-27
-8.11072e-27
-2.75054e-26
-9.32011e-26
-3.15513e-25
-1.057e-24
-3.52174e-24
-1.16398e-23
-3.80792e-23
-1.23089e-22
-3.98381e-22
-1.2705e-21
-4.03708e-21
-1.30046e-20
-4.09095e-20
-1.28261e-19
-3.89351e-19
-1.17642e-18
-3.4616e-18
-1.00709e-17
-3.00917e-17
-8.4901e-17
-2.54569e-16
-7.24122e-16
-2.0945e-15
-5.69626e-15
-1.55587e-14
-4.17408e-14
-1.14641e-13
-3.16792e-13
-8.56735e-13
-2.27006e-12
-5.9018e-12
-1.5077e-11
-3.79189e-11
-9.40271e-11
-2.30726e-10
-5.03492e-10
-1.18853e-09
-2.64777e-09
-6.11048e-09
-1.47849e-08
-3.48616e-08
-7.78135e-08
-1.6076e-07
-2.58872e-07
-9.31473e-08
7.74192e-07
9.69155e-07
1.83633e-07
-3.29798e-07
-4.44468e-07
-4.52269e-07
-6.79619e-07
-1.12638e-06
-1.22786e-06
7.45467e-07
3.55132e-06
3.41189e-06
-2.02569e-06
-3.0149e-06
-2.28939e-06
-1.05714e-06
-4.35625e-08
1.45356e-06
2.93669e-06
1.97256e-06
6.37497e-06
-2.63107e-06
-2.04012e-06
-1.12624e-06
-6.20217e-07
-3.37961e-07
-1.78579e-07
-9.33807e-08
-4.83777e-08
-2.72189e-08
-1.39442e-08
-1.00401e-09
6.70557e-09
8.80549e-09
5.21729e-09
5.57287e-10
-2.07485e-09
-2.82215e-36
-1.54379e-35
-5.94846e-35
-2.14247e-34
-7.60987e-34
-2.68364e-33
-9.45153e-33
-3.3249e-32
-1.16691e-31
-4.07869e-31
-1.42642e-30
-5.01062e-30
-1.74754e-29
-6.08765e-29
-2.11649e-28
-7.3052e-28
-2.48987e-27
-8.59974e-27
-2.90798e-26
-9.81937e-26
-3.33229e-25
-1.11496e-24
-3.71402e-24
-1.22635e-23
-3.99872e-23
-1.28939e-22
-4.18049e-22
-1.32845e-21
-4.1711e-21
-1.34459e-20
-4.17664e-20
-1.30672e-19
-4.02531e-19
-1.21469e-18
-3.61953e-18
-1.07033e-17
-3.10986e-17
-9.13302e-17
-2.67936e-16
-7.74667e-16
-2.1441e-15
-5.80735e-15
-1.58594e-14
-4.22757e-14
-1.16595e-13
-3.21225e-13
-8.65466e-13
-2.28553e-12
-5.92349e-12
-1.50873e-11
-3.78332e-11
-9.3551e-11
-2.2888e-10
-4.98447e-10
-1.18323e-09
-2.62907e-09
-6.04546e-09
-1.4597e-08
-3.4426e-08
-7.68699e-08
-1.59115e-07
-2.57946e-07
-1.03508e-07
7.56391e-07
9.79515e-07
2.02469e-07
-3.24001e-07
-4.50065e-07
-4.79306e-07
-6.81295e-07
-1.11889e-06
-1.24877e-06
6.82908e-07
3.52379e-06
3.47881e-06
-1.9245e-06
-3.03958e-06
-2.31721e-06
-1.07656e-06
-5.19863e-08
1.43128e-06
2.95109e-06
1.96383e-06
6.30532e-06
-2.49083e-06
-2.05983e-06
-1.13694e-06
-6.26089e-07
-3.41195e-07
-1.8026e-07
-9.42745e-08
-4.88166e-08
-2.74514e-08
-1.41049e-08
-1.06719e-09
6.73359e-09
8.8724e-09
5.27437e-09
5.75475e-10
-2.08674e-09
-2.80735e-36
-1.61429e-35
-6.22808e-35
-2.24265e-34
-7.9486e-34
-2.80856e-33
-9.92045e-33
-3.49784e-32
-1.22698e-31
-4.28188e-31
-1.50766e-30
-5.25536e-30
-1.83063e-29
-6.36947e-29
-2.20965e-28
-7.63468e-28
-2.64829e-27
-9.04167e-27
-3.06595e-26
-1.03416e-25
-3.50263e-25
-1.16112e-24
-3.89075e-24
-1.27802e-23
-4.17314e-23
-1.35134e-22
-4.33465e-22
-1.39706e-21
-4.39311e-21
-1.38469e-20
-4.34097e-20
-1.37243e-19
-4.17562e-19
-1.25791e-18
-3.74361e-18
-1.11091e-17
-3.24884e-17
-9.36326e-17
-2.72697e-16
-7.73204e-16
-2.15441e-15
-5.87143e-15
-1.55676e-14
-4.27118e-14
-1.18317e-13
-3.24464e-13
-8.71648e-13
-2.29599e-12
-5.93659e-12
-1.50874e-11
-3.77531e-11
-9.31758e-11
-2.27537e-10
-4.94698e-10
-1.17837e-09
-2.61324e-09
-5.99047e-09
-1.44572e-08
-3.40993e-08
-7.61881e-08
-1.57969e-07
-2.57305e-07
-1.12045e-07
7.40908e-07
9.88799e-07
2.18244e-07
-3.18693e-07
-4.5006e-07
-4.80197e-07
-6.77563e-07
-1.11306e-06
-1.26415e-06
6.34265e-07
3.49886e-06
3.52879e-06
-1.84179e-06
-3.05882e-06
-2.33901e-06
-1.09254e-06
-5.95366e-08
1.41214e-06
2.96157e-06
1.9558e-06
6.24562e-06
-2.36304e-06
-2.07818e-06
-1.14688e-06
-6.31522e-07
-3.44172e-07
-1.81804e-07
-9.50869e-08
-4.92125e-08
-2.76557e-08
-1.42439e-08
-1.13976e-09
6.74982e-09
8.92387e-09
5.32078e-09
5.90943e-10
-2.09611e-09
-3.00463e-36
-1.65075e-35
-6.3476e-35
-2.31741e-34
-8.19626e-34
-2.89191e-33
-1.01956e-32
-3.59524e-32
-1.26631e-31
-4.4427e-31
-1.55517e-30
-5.43457e-30
-1.89766e-29
-6.62763e-29
-2.31079e-28
-7.98402e-28
-2.74447e-27
-9.38425e-27
-3.18975e-26
-1.0772e-25
-3.61384e-25
-1.20338e-24
-3.97984e-24
-1.30619e-23
-4.29136e-23
-1.39163e-22
-4.49246e-22
-1.42667e-21
-4.59328e-21
-1.43641e-20
-4.463e-20
-1.36812e-19
-4.25456e-19
-1.2768e-18
-3.85785e-18
-1.14485e-17
-3.31205e-17
-9.33189e-17
-2.70217e-16
-7.88415e-16
-2.13522e-15
-5.81652e-15
-1.56617e-14
-4.29815e-14
-1.19515e-13
-3.26797e-13
-8.76185e-13
-2.30397e-12
-5.94752e-12
-1.50915e-11
-3.77083e-11
-9.29285e-11
-2.26678e-10
-4.92202e-10
-1.17497e-09
-2.60238e-09
-5.9538e-09
-1.43585e-08
-3.38644e-08
-7.5692e-08
-1.57089e-07
-2.56745e-07
-1.17635e-07
7.30357e-07
9.94337e-07
2.28853e-07
-3.14828e-07
-4.49579e-07
-4.7981e-07
-6.74594e-07
-1.10587e-06
-1.27378e-06
5.99924e-07
3.48162e-06
3.56291e-06
-1.78172e-06
-3.07231e-06
-2.35426e-06
-1.10417e-06
-6.52487e-08
1.39804e-06
2.96801e-06
1.94973e-06
6.20118e-06
-2.2633e-06
-2.09266e-06
-1.15471e-06
-6.3579e-07
-3.46505e-07
-1.83012e-07
-9.57208e-08
-4.95211e-08
-2.78134e-08
-1.43485e-08
-1.18607e-09
6.76138e-09
8.96073e-09
5.35451e-09
6.02518e-10
-2.10264e-09
-3.03376e-36
-1.70342e-35
-6.53199e-35
-2.35167e-34
-8.35092e-34
-2.96064e-33
-1.0451e-32
-3.68558e-32
-1.29883e-31
-4.56926e-31
-1.60248e-30
-5.60443e-30
-1.95453e-29
-6.80108e-29
-2.36466e-28
-8.1613e-28
-2.80146e-27
-9.57052e-27
-3.23623e-26
-1.08726e-25
-3.64856e-25
-1.21378e-24
-4.0624e-24
-1.32476e-23
-4.37603e-23
-1.41146e-22
-4.55527e-22
-1.46845e-21
-4.65343e-21
-1.46297e-20
-4.54293e-20
-1.43041e-19
-4.31444e-19
-1.29417e-18
-3.90629e-18
-1.13829e-17
-3.34114e-17
-9.43185e-17
-2.82586e-16
-8.02937e-16
-2.19051e-15
-5.89756e-15
-1.57175e-14
-4.35714e-14
-1.20026e-13
-3.28236e-13
-8.79358e-13
-2.30993e-12
-5.95679e-12
-1.51004e-11
-3.76961e-11
-9.28188e-11
-2.26218e-10
-4.90864e-10
-1.17337e-09
-2.59706e-09
-5.93565e-09
-1.43094e-08
-3.37453e-08
-7.54358e-08
-1.56605e-07
-2.56407e-07
-1.20477e-07
7.24719e-07
9.9704e-07
2.34389e-07
-3.12772e-07
-4.49251e-07
-4.79549e-07
-6.72932e-07
-1.10418e-06
-1.27883e-06
5.81193e-07
3.47195e-06
3.5805e-06
-1.74921e-06
-3.07927e-06
-2.36228e-06
-1.11039e-06
-6.8495e-08
1.39013e-06
2.97116e-06
1.94628e-06
6.17615e-06
-2.2061e-06
-2.10112e-06
-1.15927e-06
-6.38267e-07
-3.47853e-07
-1.83708e-07
-9.60846e-08
-4.96975e-08
-2.79045e-08
-1.44063e-08
-1.2082e-09
6.76675e-09
8.9799e-09
5.37248e-09
6.08717e-10
-2.10618e-09
-3.09192e-36
-1.72156e-35
-6.62443e-35
-2.38747e-34
-8.46536e-34
-2.98857e-33
-1.05353e-32
-3.7142e-32
-1.3095e-31
-4.63729e-31
-1.62604e-30
-5.68515e-30
-1.97555e-29
-6.71801e-29
-2.41568e-28
-8.28085e-28
-2.83884e-27
-9.68771e-27
-3.29149e-26
-1.11271e-25
-3.74015e-25
-1.24809e-24
-4.13505e-24
-1.35705e-23
-4.38624e-23
-1.4432e-22
-4.6311e-22
-1.48538e-21
-4.76885e-21
-1.50786e-20
-4.67982e-20
-1.44948e-19
-4.37937e-19
-1.34272e-18
-3.98219e-18
-1.1548e-17
-3.39256e-17
-9.58374e-17
-2.8311e-16
-7.92773e-16
-2.21521e-15
-5.9626e-15
-1.59833e-14
-4.36612e-14
-1.20434e-13
-3.29275e-13
-8.81651e-13
-2.31464e-12
-5.96568e-12
-1.5115e-11
-3.77138e-11
-9.28202e-11
-2.26129e-10
-4.90499e-10
-1.17354e-09
-2.59649e-09
-5.93203e-09
-1.42984e-08
-3.37177e-08
-7.53749e-08
-1.56487e-07
-2.56295e-07
-1.21042e-07
7.23507e-07
9.97599e-07
2.35558e-07
-3.12329e-07
-4.49159e-07
-4.79468e-07
-6.72602e-07
-1.10359e-06
-1.2796e-06
5.78597e-07
3.47029e-06
3.58322e-06
-1.74393e-06
-3.08036e-06
-2.3635e-06
-1.11137e-06
-6.90378e-08
1.38887e-06
2.97162e-06
1.94578e-06
6.17231e-06
-2.19703e-06
-2.10238e-06
-1.15994e-06
-6.3863e-07
-3.48047e-07
-1.83808e-07
-9.61361e-08
-4.97223e-08
-2.79176e-08
-1.44151e-08
-1.21486e-09
6.7691e-09
8.98394e-09
5.37541e-09
6.09615e-10
-2.10668e-09
-3.07994e-36
-1.72467e-35
-6.68263e-35
-2.40779e-34
-8.55269e-34
-3.02619e-33
-1.06893e-32
-3.77005e-32
-1.3274e-31
-4.66391e-31
-1.6353e-30
-5.72127e-30
-1.99367e-29
-6.87887e-29
-2.42681e-28
-8.34501e-28
-2.85744e-27
-9.62191e-27
-3.33695e-26
-1.12134e-25
-3.78592e-25
-1.26372e-24
-4.19564e-24
-1.38358e-23
-4.51345e-23
-1.45886e-22
-4.67923e-22
-1.51225e-21
-4.80059e-21
-1.51316e-20
-4.73099e-20
-1.45524e-19
-4.47616e-19
-1.34079e-18
-4.01686e-18
-1.17155e-17
-3.41465e-17
-9.73491e-17
-2.85255e-16
-8.10389e-16
-2.22119e-15
-5.95555e-15
-1.61358e-14
-4.38688e-14
-1.20453e-13
-3.30086e-13
-8.83572e-13
-2.31941e-12
-5.97756e-12
-1.51443e-11
-3.77855e-11
-9.2994e-11
-2.2655e-10
-4.91416e-10
-1.17623e-09
-2.60252e-09
-5.94868e-09
-1.43395e-08
-3.38113e-08
-7.55678e-08
-1.5682e-07
-2.56469e-07
-1.18816e-07
7.27575e-07
9.95402e-07
2.31423e-07
-3.13788e-07
-4.49293e-07
-4.79571e-07
-6.73727e-07
-1.10414e-06
-1.27565e-06
5.92143e-07
3.47718e-06
3.5702e-06
-1.76752e-06
-3.07501e-06
-2.35757e-06
-1.10669e-06
-6.66437e-08
1.39469e-06
2.96943e-06
1.94826e-06
6.19065e-06
-2.23926e-06
-2.09608e-06
-1.15653e-06
-6.36765e-07
-3.47027e-07
-1.83278e-07
-9.5858e-08
-4.95874e-08
-2.78477e-08
-1.43686e-08
-1.18867e-09
6.76611e-09
8.96917e-09
5.36104e-09
6.04303e-10
-2.10418e-09
-3.13895e-36
-1.71332e-35
-6.6045e-35
-2.3849e-34
-8.48739e-34
-3.00915e-33
-1.06411e-32
-3.75283e-32
-1.3196e-31
-4.62505e-31
-1.61546e-30
-5.62601e-30
-1.95692e-29
-6.81156e-29
-2.36938e-28
-8.16953e-28
-2.78233e-27
-9.53757e-27
-3.27749e-26
-1.10629e-25
-3.68526e-25
-1.25125e-24
-4.12668e-24
-1.37558e-23
-4.46988e-23
-1.43835e-22
-4.59861e-22
-1.49496e-21
-4.71944e-21
-1.48887e-20
-4.63698e-20
-1.41931e-19
-4.47831e-19
-1.33214e-18
-3.90063e-18
-1.12978e-17
-3.34919e-17
-9.26441e-17
-2.77166e-16
-8.07768e-16
-2.18659e-15
-5.95469e-15
-1.58745e-14
-4.39647e-14
-1.20677e-13
-3.30364e-13
-8.84727e-13
-2.32354e-12
-5.99096e-12
-1.51849e-11
-3.79028e-11
-9.33182e-11
-2.27421e-10
-4.93533e-10
-1.18138e-09
-2.61511e-09
-5.98532e-09
-1.44315e-08
-3.40218e-08
-7.60005e-08
-1.57577e-07
-2.56896e-07
-1.1385e-07
7.3662e-07
9.90424e-07
2.22287e-07
-3.16941e-07
-4.49557e-07
-4.7975e-07
-6.76134e-07
-1.10878e-06
-1.26755e-06
6.21136e-07
3.49203e-06
3.54175e-06
-1.81836e-06
-3.06367e-06
-2.34476e-06
-1.09695e-06
-6.14996e-08
1.40731e-06
2.96432e-06
1.95355e-06
6.22976e-06
-2.32803e-06
-2.08305e-06
-1.14948e-06
-6.32916e-07
-3.44922e-07
-1.82188e-07
-9.52853e-08
-4.93089e-08
-2.77067e-08
-1.42745e-08
-1.13793e-09
6.7596e-09
8.93886e-09
5.33137e-09
5.93543e-10
-2.09869e-09
-3.10324e-36
-1.69318e-35
-6.52546e-35
-2.35374e-34
-8.35406e-34
-2.95245e-33
-1.04175e-32
-3.67049e-32
-1.2904e-31
-4.52766e-31
-1.58552e-30
-5.53913e-30
-1.9299e-29
-6.70956e-29
-2.32308e-28
-7.96703e-28
-2.77384e-27
-9.45363e-27
-3.21331e-26
-1.08685e-25
-3.66469e-25
-1.23426e-24
-4.09655e-24
-1.34804e-23
-4.39902e-23
-1.4243e-22
-4.57509e-22
-1.46011e-21
-4.6984e-21
-1.47728e-20
-4.60983e-20
-1.41389e-19
-4.37e-19
-1.31256e-18
-3.92053e-18
-1.15656e-17
-3.34468e-17
-9.33378e-17
-2.76914e-16
-8.0617e-16
-2.19288e-15
-5.86798e-15
-1.58478e-14
-4.41264e-14
-1.20499e-13
-3.30135e-13
-8.85284e-13
-2.32752e-12
-6.00722e-12
-1.5241e-11
-3.80775e-11
-9.38259e-11
-2.28836e-10
-4.97017e-10
-1.18938e-09
-2.63514e-09
-6.04446e-09
-1.45811e-08
-3.43658e-08
-7.6711e-08
-1.58815e-07
-2.57578e-07
-1.05754e-07
7.50658e-07
9.82047e-07
2.07945e-07
-3.21762e-07
-4.49873e-07
-4.79952e-07
-6.79808e-07
-1.11586e-06
-1.25391e-06
6.65676e-07
3.51312e-06
3.49688e-06
-1.89415e-06
-3.04654e-06
-2.32532e-06
-1.08234e-06
-5.41112e-08
1.42574e-06
2.95562e-06
1.96108e-06
6.28647e-06
-2.45247e-06
-2.0651e-06
-1.13976e-06
-6.27602e-07
-3.42009e-07
-1.80677e-07
-9.449e-08
-4.89231e-08
-2.75074e-08
-1.41398e-08
-1.07399e-09
6.74867e-09
8.89296e-09
5.28727e-09
5.77811e-10