/*--------------------------------*- C++ -*----------------------------------*\
  =========                 |
  \\      /  F ield         | OpenFOAM: The Open Source CFD Toolbox
   \\    /   O peration     | Website:  https://openfoam.org
    \\  /    A nd           | Version:  10
     \\/     M anipulation  |
\*---------------------------------------------------------------------------*/
FoamFile
{
    format      ascii;
    class       volScalarField;
    location    "1";
    object      RR.C2H4;
}
// * * * * * * * * * * * * * * * * * * * * * * * * * * * * * * * * * * * * * //

dimensions      [1 -3 -1 0 0 0 0];

internalField   nonuniform List<scalar> 
4000
(
1.27078e-20
1.21624e-20
1.19307e-20
1.27246e-20
1.69236e-20
1.83495e-20
2.15229e-20
2.54015e-20
3.04598e-20
3.94125e-20
5.44988e-20
7.00327e-20
8.99007e-20
1.08444e-19
1.33525e-19
1.65349e-19
1.91616e-19
2.20279e-19
2.61372e-19
3.09058e-19
3.55678e-19
4.19758e-19
5.06827e-19
6.0516e-19
7.98501e-19
1.11005e-18
1.96703e-18
4.28989e-18
1.11242e-17
3.18626e-17
9.58071e-17
2.91191e-16
8.82086e-16
2.65917e-15
7.99404e-15
2.28698e-14
6.79607e-14
1.95582e-13
5.60302e-13
1.58158e-12
4.2565e-12
1.12027e-11
2.82614e-11
6.92801e-11
1.64204e-10
3.92429e-10
9.3387e-10
2.12379e-09
4.53598e-09
9.00405e-09
1.67247e-08
2.9831e-08
4.90518e-08
8.25267e-08
1.2952e-07
1.60696e-07
4.10234e-08
-7.59214e-07
-3.84932e-06
-1.24132e-05
-2.2002e-05
5.13547e-05
0.000687316
0.0025854
0.0054548
0.009225
0.0156111
0.0318102
0.0776235
0.198648
0.515169
1.37272
3.59871
7.78826
11.7683
9.03244
4.06841
1.38107
-1.14448
-3.83605
-5.0049
-4.08972
-2.35901
-1.25936
-0.684881
-0.376892
-0.209361
-0.116296
-0.0640131
-0.0346255
-0.0182896
-0.00912982
-0.00442966
-0.00205678
-0.00087349
-0.000267851
-6.89114e-05
-1.79136e-05
-4.05346e-06
-3.22156e-07
8.8991e-21
4.12717e-20
4.52286e-20
8.23279e-20
1.01234e-19
1.04669e-19
1.12793e-19
1.14479e-19
1.29433e-19
1.52414e-19
1.66011e-19
1.89475e-19
2.18286e-19
2.36429e-19
2.66116e-19
3.03958e-19
3.35949e-19
3.72109e-19
4.20225e-19
4.77399e-19
5.27945e-19
5.84547e-19
6.9767e-19
8.10928e-19
1.0631e-18
1.45764e-18
2.47056e-18
5.5622e-18
1.48163e-17
4.33125e-17
1.32427e-16
4.16893e-16
1.27293e-15
3.78698e-15
1.11891e-14
3.31011e-14
9.49483e-14
2.75504e-13
7.59731e-13
2.09328e-12
5.62843e-12
1.45143e-11
3.65916e-11
8.85085e-11
2.16999e-10
5.22303e-10
1.22108e-09
2.69645e-09
5.59571e-09
1.08846e-08
1.90822e-08
3.13719e-08
5.34591e-08
8.8088e-08
1.34588e-07
1.56137e-07
6.65167e-09
-8.54839e-07
-4.0109e-06
-1.23946e-05
-2.11411e-05
5.25608e-05
0.000670991
0.00251875
0.00532163
0.00901106
0.0151181
0.0304578
0.0736705
0.188103
0.490726
1.31083
3.46641
7.64152
11.8078
9.28037
4.18828
1.43693
-1.12672
-3.86432
-5.04873
-4.10188
-2.35171
-1.25352
-0.681199
-0.374531
-0.207832
-0.115289
-0.0633115
-0.0341499
-0.0179743
-0.00893641
-0.00431543
-0.00199626
-0.000833494
-0.000249302
-6.41299e-05
-1.67974e-05
-3.80991e-06
-3.02305e-07
6.39336e-20
8.2375e-20
1.32799e-19
1.77617e-19
2.70937e-19
2.56521e-19
2.68856e-19
2.92303e-19
3.38868e-19
3.37596e-19
3.71534e-19
3.84513e-19
4.02947e-19
4.25336e-19
4.35944e-19
4.68146e-19
4.78644e-19
5.15911e-19
5.83641e-19
6.41848e-19
7.26619e-19
8.03847e-19
9.31992e-19
1.11649e-18
1.39054e-18
2.01115e-18
3.36275e-18
7.67675e-18
2.06628e-17
6.03565e-17
1.88971e-16
5.71143e-16
1.70032e-15
5.10698e-15
1.52267e-14
4.41864e-14
1.2538e-13
3.52223e-13
9.80349e-13
2.6249e-12
6.96535e-12
1.73426e-11
4.47907e-11
1.07069e-10
2.63521e-10
6.21497e-10
1.44357e-09
3.13734e-09
6.27973e-09
1.19596e-08
2.06482e-08
3.40815e-08
5.77703e-08
9.52117e-08
1.39652e-07
1.52597e-07
-1.17397e-08
-9.08485e-07
-4.11122e-06
-1.2411e-05
-2.03381e-05
5.48457e-05
0.000663059
0.00246636
0.00521275
0.00883322
0.0147042
0.0291342
0.0701321
0.179652
0.470639
1.25497
3.3454
7.48976
11.8344
9.54941
4.32089
1.49722
-1.11484
-3.90916
-5.11043
-4.11368
-2.34003
-1.24389
-0.674976
-0.37064
-0.205372
-0.113676
-0.0622849
-0.033445
-0.0175118
-0.00866142
-0.00416015
-0.00191544
-0.000781831
-0.000228197
-5.90757e-05
-1.55812e-05
-3.54915e-06
-2.81507e-07
3.53665e-20
6.14681e-20
1.22966e-19
1.6457e-19
2.0138e-19
2.43185e-19
2.43732e-19
2.54462e-19
3.13625e-19
3.62325e-19
4.11315e-19
4.31678e-19
4.55672e-19
5.0166e-19
5.41514e-19
5.9435e-19
6.54463e-19
7.04251e-19
7.72275e-19
8.14294e-19
9.04504e-19
1.10119e-18
1.26108e-18
1.34543e-18
1.69674e-18
2.48445e-18
4.43929e-18
1.0337e-17
2.80282e-17
8.44975e-17
2.53701e-16
7.65641e-16
2.27994e-15
6.77088e-15
1.99174e-14
5.71543e-14
1.60333e-13
4.49765e-13
1.23137e-12
3.28368e-12
8.61855e-12
2.14831e-11
5.44111e-11
1.29619e-10
3.04832e-10
7.30949e-10
1.66486e-09
3.52091e-09
7.09957e-09
1.26548e-08
2.14785e-08
3.73147e-08
6.31821e-08
1.01131e-07
1.43717e-07
1.49107e-07
-3.07749e-08
-9.61604e-07
-4.20165e-06
-1.23726e-05
-1.96583e-05
5.59227e-05
0.000652616
0.00242307
0.00512752
0.00869386
0.014385
0.0281788
0.0672812
0.172299
0.451738
1.20354
3.23907
7.35746
11.8415
9.73012
4.41831
1.54309
-1.11543
-3.96368
-5.16944
-4.12184
-2.33594
-1.22334
-0.664685
-0.365257
-0.202387
-0.111985
-0.0613929
-0.0325349
-0.0169813
-0.00838088
-0.00400777
-0.00183753
-0.000731241
-0.000209352
-5.45941e-05
-1.4498e-05
-3.31444e-06
-2.62742e-07
2.20211e-20
4.97838e-20
6.94625e-20
1.05822e-19
1.45201e-19
1.69693e-19
2.25284e-19
2.42989e-19
2.85055e-19
3.46018e-19
3.87631e-19
4.32684e-19
4.75815e-19
5.29227e-19
6.07859e-19
6.91076e-19
7.66303e-19
8.07268e-19
9.05038e-19
9.64142e-19
1.0464e-18
1.25953e-18
1.33573e-18
1.53232e-18
1.89884e-18
2.82013e-18
5.52676e-18
1.35288e-17
3.76003e-17
1.11114e-16
3.3305e-16
1.02142e-15
3.00571e-15
8.84441e-15
2.55241e-14
7.29325e-14
2.01648e-13
5.44891e-13
1.49661e-12
3.98834e-12
1.02578e-11
2.57721e-11
6.23752e-11
1.51729e-10
3.53896e-10
8.358e-10
1.85579e-09
3.98302e-09
7.42594e-09
1.30423e-08
2.3135e-08
3.9758e-08
6.71566e-08
1.07318e-07
1.44588e-07
1.45391e-07
-4.98507e-08
-1.00904e-06
-4.274e-06
-1.2368e-05
-1.90548e-05
5.76386e-05
0.000648328
0.00239342
0.00506205
0.00858425
0.0141688
0.0275164
0.0653559
0.167108
0.438643
1.16902
3.16017
7.25415
11.8656
9.93847
4.52142
1.58882
-1.11557
-4.01335
-5.22679
-4.12744
-2.32252
-1.21544
-0.659739
-0.362266
-0.200517
-0.110783
-0.0606023
-0.03204
-0.0166569
-0.0081967
-0.00390231
-0.00178121
-0.000693159
-0.0001955
-5.12832e-05
-1.36947e-05
-3.13023e-06
-2.49494e-07
1.1308e-20
3.01354e-20
5.93304e-20
1.03785e-19
1.334e-19
1.67225e-19
2.0877e-19
2.44093e-19
2.51314e-19
2.83373e-19
3.35402e-19
4.07056e-19
4.64144e-19
5.02464e-19
5.82151e-19
6.85057e-19
7.47714e-19
8.49365e-19
9.4792e-19
1.0975e-18
1.34387e-18
1.4372e-18
1.61916e-18
1.75163e-18
2.1765e-18
3.28382e-18
6.83112e-18
1.72437e-17
4.96059e-17
1.45023e-16
4.29525e-16
1.31018e-15
3.8131e-15
1.10166e-14
3.13162e-14
8.8268e-14
2.42078e-13
6.46181e-13
1.76829e-12
4.84268e-12
1.21621e-11
2.97363e-11
7.21758e-11
1.73582e-10
4.0446e-10
9.3062e-10
2.09496e-09
4.16001e-09
7.7218e-09
1.39925e-08
2.46346e-08
4.21653e-08
6.99418e-08
1.10053e-07
1.45688e-07
1.40874e-07
-6.56399e-08
-1.0526e-06
-4.32782e-06
-1.23183e-05
-1.85245e-05
5.84226e-05
0.000641672
0.00236533
0.00501085
0.00851001
0.0140002
0.0269447
0.0636037
0.162882
0.428698
1.14181
3.09982
7.18192
11.8765
10.0897
4.60141
1.62512
-1.11352
-4.05271
-5.27392
-4.13364
-2.31384
-1.21129
-0.657187
-0.360704
-0.199492
-0.110075
-0.0600984
-0.0317314
-0.0164448
-0.00807921
-0.00383343
-0.00174331
-0.000666457
-0.000186105
-4.90395e-05
-1.31423e-05
-3.00988e-06
-2.39732e-07
7.37864e-21
2.97625e-20
4.56113e-20
7.31171e-20
9.35216e-20
1.18552e-19
1.4947e-19
1.84928e-19
2.53131e-19
3.05617e-19
3.67866e-19
4.21245e-19
4.77387e-19
5.51398e-19
5.99766e-19
6.7585e-19
7.41983e-19
8.11722e-19
8.78516e-19
9.67779e-19
1.15193e-18
1.32192e-18
1.40687e-18
1.66569e-18
2.36211e-18
3.94549e-18
8.31866e-18
2.13839e-17
6.20125e-17
1.83918e-16
5.4124e-16
1.59015e-15
4.6312e-15
1.33683e-14
3.75165e-14
1.05575e-13
2.94943e-13
7.80774e-13
2.13348e-12
5.57074e-12
1.4012e-11
3.45381e-11
8.30216e-11
1.92896e-10
4.49788e-10
1.03293e-09
2.23658e-09
4.24199e-09
8.17871e-09
1.48615e-08
2.57952e-08
4.3718e-08
7.18589e-08
1.11842e-07
1.46183e-07
1.37044e-07
-7.87737e-08
-1.08032e-06
-4.35977e-06
-1.2248e-05
-1.8104e-05
5.86041e-05
0.000633467
0.00233669
0.00496023
0.0084397
0.0138582
0.0264841
0.0622751
0.159353
0.419846
1.1175
3.04372
7.1064
11.8752
10.2315
4.6806
1.66391
-1.10127
-4.07754
-5.3127
-4.14476
-2.31191
-1.2107
-0.656687
-0.360332
-0.199178
-0.109801
-0.0598628
-0.0315797
-0.0163282
-0.00801445
-0.0037936
-0.00172023
-0.000648827
-0.000179984
-4.75805e-05
-1.27881e-05
-2.9325e-06
-2.33419e-07
1.82341e-20
3.58429e-20
6.93862e-20
1.15929e-19
1.43943e-19
1.83847e-19
2.13096e-19
2.51083e-19
2.88766e-19
3.33842e-19
3.75174e-19
4.52453e-19
5.28938e-19
5.95134e-19
6.45189e-19
7.21393e-19
8.2738e-19
8.93214e-19
9.74145e-19
1.10885e-18
1.1919e-18
1.29238e-18
1.43884e-18
1.72384e-18
2.51775e-18
4.47083e-18
1.01608e-17
2.67729e-17
7.53334e-17
2.18731e-16
6.52352e-16
1.93906e-15
5.59969e-15
1.59509e-14
4.43078e-14
1.22915e-13
3.39416e-13
8.89588e-13
2.4167e-12
6.31335e-12
1.58728e-11
3.83944e-11
9.27556e-11
2.15202e-10
5.02019e-10
1.13193e-09
2.31297e-09
4.53295e-09
8.67656e-09
1.56359e-08
2.70907e-08
4.53647e-08
7.37452e-08
1.13448e-07
1.46432e-07
1.33731e-07
-8.93764e-08
-1.0999e-06
-4.36509e-06
-1.21361e-05
-1.77574e-05
5.78839e-05
0.000621693
0.00230461
0.00490449
0.00835242
0.0137047
0.0260326
0.0609529
0.155817
0.410812
1.09275
2.98355
7.01911
11.8584
10.3823
4.76553
1.70849
-1.07555
-4.08599
-5.34379
-4.163
-2.3176
-1.21388
-0.658241
-0.361104
-0.199526
-0.109923
-0.05987
-0.0315654
-0.0162946
-0.00799329
-0.00377745
-0.00170932
-0.000638824
-0.000176384
-4.6747e-05
-1.25845e-05
-2.88836e-06
-2.29799e-07
1.77848e-20
4.86045e-20
8.57924e-20
1.37308e-19
1.60642e-19
1.94294e-19
2.25555e-19
2.72762e-19
3.21386e-19
3.84882e-19
3.84719e-19
4.37399e-19
5.1519e-19
5.76169e-19
6.64153e-19
7.2765e-19
8.18937e-19
9.33657e-19
1.02318e-18
1.06554e-18
1.14536e-18
1.31871e-18
1.46255e-18
1.851e-18
2.75063e-18
5.19388e-18
1.20722e-17
3.26055e-17
9.29604e-17
2.69874e-16
7.78206e-16
2.28616e-15
6.55339e-15
1.86669e-14
5.20029e-14
1.42895e-13
3.87474e-13
1.00581e-12
2.71529e-12
7.06216e-12
1.75078e-11
4.29221e-11
1.02367e-10
2.40014e-10
5.28689e-10
1.11947e-09
2.41197e-09
4.85402e-09
9.17519e-09
1.64689e-08
2.81558e-08
4.6684e-08
7.52332e-08
1.14645e-07
1.46445e-07
1.31102e-07
-9.67979e-08
-1.10897e-06
-4.34301e-06
-1.19778e-05
-1.74552e-05
5.58929e-05
0.000603513
0.00225386
0.00482861
0.00825851
0.0135079
0.0255062
0.0593279
0.15166
0.399486
1.06163
2.91326
6.91606
11.8262
10.543
4.85981
1.76034
-1.0356
-4.07865
-5.36884
-4.1891
-2.33074
-1.22063
-0.661712
-0.362924
-0.20047
-0.110396
-0.0600889
-0.0316678
-0.0163306
-0.00800792
-0.00378044
-0.00170828
-0.000634316
-0.000174713
-4.63777e-05
-1.24978e-05
-2.87004e-06
-2.28268e-07
1.80169e-20
5.23251e-20
8.49187e-20
1.16432e-19
1.4002e-19
1.73319e-19
2.17408e-19
2.64876e-19
3.21855e-19
3.76284e-19
4.19579e-19
5.10247e-19
5.70776e-19
6.27055e-19
7.43745e-19
8.39819e-19
9.18364e-19
9.78717e-19
1.12136e-18
1.24149e-18
1.28026e-18
1.35879e-18
1.57149e-18
1.98505e-18
3.07371e-18
5.80471e-18
1.40221e-17
3.80541e-17
1.10291e-16
3.22191e-16
9.34753e-16
2.6755e-15
7.57069e-15
2.12276e-14
5.85469e-14
1.59402e-13
4.24476e-13
1.10781e-12
2.99692e-12
7.69913e-12
1.89299e-11
4.6034e-11
1.09388e-10
2.47583e-10
5.39333e-10
1.21323e-09
2.57237e-09
5.1335e-09
9.68326e-09
1.71766e-08
2.91221e-08
4.79378e-08
7.66037e-08
1.15375e-07
1.46325e-07
1.28876e-07
-1.01537e-07
-1.10945e-06
-4.30374e-06
-1.18121e-05
-1.72526e-05
5.36974e-05
0.000582583
0.00220122
0.00474654
0.00814405
0.0133082
0.0249749
0.0577702
0.147372
0.381691
1.03303
2.84177
6.79638
11.763
10.7234
4.97364
1.82477
-0.980385
-4.05707
-5.38927
-4.22243
-2.35036
-1.23044
-0.666763
-0.365608
-0.201904
-0.111153
-0.0604795
-0.0318637
-0.0164221
-0.00805094
-0.00379848
-0.00171505
-0.000634614
-0.000174519
-4.63631e-05
-1.25006e-05
-2.87141e-06
-2.2833e-07
1.79335e-20
5.45354e-20
9.85518e-20
1.14981e-19
1.39536e-19
1.68501e-19
1.89442e-19
2.1892e-19
2.58485e-19
3.05797e-19
3.78911e-19
4.56002e-19
5.16846e-19
6.12006e-19
6.38596e-19
7.04803e-19
7.51485e-19
8.05386e-19
9.30842e-19
1.10834e-18
1.23468e-18
1.33212e-18
1.53192e-18
2.06874e-18
3.32221e-18
6.6721e-18
1.60273e-17
4.33745e-17
1.25459e-16
3.65922e-16
1.05994e-15
3.02795e-15
8.49937e-15
2.39423e-14
6.5266e-14
1.76204e-13
4.69598e-13
1.20853e-12
3.29209e-12
8.29638e-12
2.03057e-11
4.86359e-11
1.12857e-10
2.54353e-10
5.82366e-10
1.29425e-09
2.73082e-09
5.43746e-09
1.01538e-08
1.79001e-08
3.02389e-08
4.96561e-08
7.93684e-08
1.15394e-07
1.46059e-07
1.27142e-07
-1.03698e-07
-1.10123e-06
-4.23953e-06
-1.15744e-05
-1.71103e-05
4.9977e-05
0.000560847
0.00214766
0.00466571
0.00803425
0.0131098
0.0244196
0.0562563
0.143451
0.37126
1.00365
2.76428
6.66664
11.6977
10.8997
5.0878
1.88904
-0.919343
-4.02537
-5.40463
-4.26002
-2.37447
-1.24244
-0.673079
-0.368948
-0.203698
-0.11212
-0.0609989
-0.0321299
-0.0165553
-0.00811503
-0.00382765
-0.00172763
-0.000638341
-0.000175398
-4.66061e-05
-1.25683e-05
-2.8871e-06
-2.29551e-07
1.33933e-20
3.65677e-20
8.99458e-20
1.14163e-19
1.27616e-19
1.66806e-19
2.22318e-19
2.86017e-19
3.10882e-19
3.53366e-19
4.0432e-19
4.73512e-19
5.11412e-19
5.62457e-19
6.12722e-19
6.78365e-19
7.57109e-19
8.43092e-19
8.70715e-19
9.72625e-19
1.08037e-18
1.29609e-18
1.62226e-18
2.20138e-18
3.66098e-18
7.44011e-18
1.7854e-17
4.78315e-17
1.39552e-16
4.02963e-16
1.14711e-15
3.32014e-15
9.4384e-15
2.6291e-14
7.27094e-14
1.94743e-13
5.09907e-13
1.31237e-12
3.46032e-12
8.94143e-12
2.16338e-11
5.14321e-11
1.18677e-10
2.71525e-10
6.18942e-10
1.36733e-09
2.86884e-09
5.68344e-09
1.05511e-08
1.84971e-08
3.11115e-08
5.09157e-08
8.09618e-08
1.15035e-07
1.45758e-07
1.25617e-07
-1.04253e-07
-1.08913e-06
-4.17119e-06
-1.13893e-05
-1.70019e-05
4.70469e-05
0.000536965
0.00209189
0.00458441
0.00792633
0.0129216
0.0238946
0.0547509
0.139774
0.359794
0.972208
2.6871
6.53882
11.6216
11.0656
5.20025
1.95503
-0.853091
-3.98602
-5.41609
-4.30018
-2.40157
-1.25592
-0.680204
-0.372806
-0.205815
-0.113281
-0.0616245
-0.0324511
-0.0167213
-0.00819643
-0.00386606
-0.00174484
-0.000644633
-0.000177045
-4.7029e-05
-1.26808e-05
-2.91262e-06
-2.3157e-07
9.45456e-21
2.18437e-20
7.1217e-20
9.64754e-20
1.33402e-19
1.74681e-19
2.54791e-19
3.06054e-19
3.2278e-19
3.89877e-19
4.46309e-19
4.82826e-19
5.53726e-19
5.99731e-19
6.58324e-19
7.49477e-19
7.63301e-19
8.08769e-19
9.00263e-19
1.01988e-18
1.22247e-18
1.35448e-18
1.64756e-18
2.23872e-18
3.73459e-18
7.77279e-18
1.91505e-17
5.21397e-17
1.48986e-16
4.45543e-16
1.26978e-15
3.65131e-15
1.0252e-14
2.87388e-14
7.81317e-14
2.08097e-13
5.41397e-13
1.38898e-12
3.64898e-12
9.47572e-12
2.30045e-11
5.49005e-11
1.26228e-10
2.90307e-10
6.50092e-10
1.43226e-09
2.9974e-09
5.88803e-09
1.0852e-08
1.89028e-08
3.16054e-08
5.14317e-08
8.12801e-08
1.14745e-07
1.45549e-07
1.24451e-07
-1.03414e-07
-1.07188e-06
-4.09513e-06
-1.11832e-05
-1.69321e-05
4.40114e-05
0.000515204
0.00203679
0.00450154
0.00781475
0.0127307
0.0233735
0.0532118
0.135766
0.349484
0.944503
2.6145
6.40732
11.5259
11.2338
5.32312
2.02442
-0.783226
-3.94039
-5.42386
-4.34358
-2.4321
-1.27082
-0.688019
-0.376989
-0.208096
-0.114536
-0.0623181
-0.0328116
-0.0169085
-0.00828676
-0.00390871
-0.00176433
-0.000652422
-0.000179226
-4.75898e-05
-1.28297e-05
-2.94629e-06
-2.34242e-07
7.79453e-21
5.21027e-20
6.28592e-20
9.9526e-20
1.27656e-19
1.57859e-19
2.21363e-19
2.63518e-19
3.01606e-19
3.6287e-19
4.10027e-19
4.72692e-19
5.45702e-19
6.33417e-19
7.43661e-19
8.29659e-19
8.63446e-19
8.46968e-19
9.54247e-19
1.00334e-18
1.27205e-18
1.39491e-18
1.57622e-18
2.07162e-18
3.56541e-18
7.83012e-18
2.06144e-17
5.69879e-17
1.62852e-16
4.71888e-16
1.35895e-15
3.91108e-15
1.09743e-14
3.02942e-14
8.2455e-14
2.19179e-13
5.74019e-13
1.45493e-12
3.88049e-12
9.98024e-12
2.39861e-11
5.67259e-11
1.32607e-10
3.04611e-10
6.78967e-10
1.49015e-09
3.0942e-09
6.04088e-09
1.10737e-08
1.91934e-08
3.19382e-08
5.17678e-08
8.13918e-08
1.14435e-07
1.45302e-07
1.23552e-07
-1.01963e-07
-1.05591e-06
-4.02686e-06
-1.09826e-05
-1.68794e-05
4.06847e-05
0.000494909
0.00198535
0.00442544
0.00771252
0.0125554
0.0229367
0.0518691
0.132123
0.340121
0.91751
2.54576
6.28481
11.4337
11.3862
5.44074
2.09132
-0.712494
-3.8915
-5.4296
-4.38674
-2.46311
-1.28612
-0.696009
-0.38125
-0.210415
-0.11581
-0.0630194
-0.033176
-0.0171007
-0.00838122
-0.00395427
-0.00178553
-0.000661514
-0.000181707
-4.82124e-05
-1.29924e-05
-2.98281e-06
-2.37148e-07
2.02745e-20
5.08325e-20
7.51738e-20
1.21898e-19
1.4827e-19
1.59194e-19
1.84804e-19
2.07495e-19
2.64019e-19
3.53783e-19
4.34301e-19
5.17611e-19
6.04573e-19
6.68545e-19
7.01429e-19
7.74739e-19
8.55905e-19
9.31507e-19
9.47716e-19
9.76165e-19
1.0269e-18
1.18213e-18
1.50875e-18
2.04569e-18
3.64391e-18
8.19706e-18
2.14189e-17
5.96948e-17
1.71058e-16
5.0218e-16
1.4468e-15
4.15352e-15
1.15396e-14
3.17998e-14
8.51381e-14
2.24277e-13
6.01753e-13
1.51986e-12
4.02764e-12
1.01167e-11
2.54296e-11
5.97699e-11
1.38992e-10
3.1287e-10
7.0105e-10
1.53189e-09
3.16743e-09
6.15823e-09
1.12457e-08
1.94249e-08
3.22149e-08
5.19894e-08
8.14298e-08
1.1416e-07
1.45022e-07
1.22948e-07
-9.94972e-08
-1.03783e-06
-3.9532e-06
-1.08044e-05
-1.68276e-05
3.77867e-05
0.000475084
0.00193782
0.00435495
0.00761819
0.0123965
0.0225157
0.0506157
0.128863
0.331814
0.894209
2.48406
6.16964
11.3448
11.5227
5.55161
2.15453
-0.646998
-3.84489
-5.43298
-4.42624
-2.49214
-1.30038
-0.70347
-0.385236
-0.212588
-0.117007
-0.0636802
-0.0335197
-0.0172819
-0.00846981
-0.00399699
-0.00180545
-0.000669911
-0.000184126
-4.88195e-05
-1.3151e-05
-3.01842e-06
-2.39989e-07
1.55289e-20
4.90642e-20
8.48366e-20
1.22636e-19
1.46619e-19
1.81686e-19
2.14804e-19
2.28897e-19
2.69153e-19
2.99264e-19
3.45203e-19
4.58999e-19
4.89844e-19
5.28511e-19
6.20284e-19
7.00546e-19
7.84547e-19
9.16105e-19
9.54953e-19
1.02652e-18
1.07089e-18
1.2365e-18
1.57941e-18
2.21575e-18
3.98905e-18
8.67641e-18
2.2695e-17
6.28832e-17
1.78266e-16
5.23605e-16
1.49053e-15
4.26392e-15
1.199e-14
3.29508e-14
8.91109e-14
2.38114e-13
6.21954e-13
1.62731e-12
4.23347e-12
1.0793e-11
2.61688e-11
6.14085e-11
1.42698e-10
3.19195e-10
7.17844e-10
1.56465e-09
3.22361e-09
6.24654e-09
1.13708e-08
1.9581e-08
3.23913e-08
5.21351e-08
8.14384e-08
1.13928e-07
1.4478e-07
1.22554e-07
-9.69577e-08
-1.02e-06
-3.88765e-06
-1.06406e-05
-1.68033e-05
3.53551e-05
0.000459012
0.00189881
0.00429551
0.00753815
0.0122652
0.0221808
0.04962
0.126053
0.324762
0.874701
2.43143
6.07263
11.2661
11.6352
5.64767
2.2084
-0.591037
-3.80367
-5.43452
-4.45967
-2.51734
-1.31279
-0.709976
-0.388717
-0.214489
-0.118056
-0.0642612
-0.0338228
-0.0174438
-0.00854892
-0.00403536
-0.00182344
-0.000677679
-0.000186351
-4.93732e-05
-1.32948e-05
-3.05061e-06
-2.42556e-07
1.20881e-20
4.88199e-20
8.29451e-20
9.08383e-20
1.19203e-19
1.58257e-19
2.1267e-19
2.86589e-19
3.18239e-19
3.41881e-19
3.79743e-19
4.35937e-19
4.93365e-19
5.43951e-19
6.53804e-19
7.23729e-19
7.38644e-19
8.21205e-19
9.0922e-19
1.072e-18
1.20023e-18
1.37433e-18
1.77153e-18
2.39912e-18
4.23656e-18
9.38529e-18
2.37276e-17
6.63611e-17
1.8833e-16
5.41706e-16
1.55203e-15
4.48073e-15
1.24516e-14
3.4163e-14
9.22535e-14
2.47287e-13
6.50559e-13
1.67676e-12
4.33697e-12
1.08762e-11
2.65456e-11
6.25798e-11
1.4181e-10
3.2467e-10
7.32354e-10
1.58979e-09
3.26644e-09
6.31393e-09
1.14669e-08
1.97029e-08
3.25265e-08
5.22418e-08
8.14393e-08
1.13755e-07
1.44584e-07
1.22325e-07
-9.47326e-08
-1.00686e-06
-3.84003e-06
-1.05223e-05
-1.67611e-05
3.35261e-05
0.000446029
0.00186434
0.00424523
0.0074711
0.0121546
0.0218981
0.0487703
0.123848
0.319232
0.859448
2.39154
5.99682
11.2017
11.7203
5.72418
2.25111
-0.546499
-3.76979
-5.43465
-4.48662
-2.53791
-1.32289
-0.715262
-0.391541
-0.21603
-0.118906
-0.0647326
-0.0340688
-0.0175749
-0.00861272
-0.00406613
-0.00183781
-0.000684248
-0.000188185
-4.98299e-05
-1.34134e-05
-3.07714e-06
-2.44674e-07
2.10085e-20
6.99878e-20
1.17511e-19
1.63571e-19
1.69964e-19
1.77346e-19
2.08111e-19
2.73609e-19
2.60526e-19
2.7201e-19
3.09592e-19
3.58573e-19
4.24946e-19
4.82134e-19
5.84964e-19
7.22547e-19
8.26512e-19
8.98072e-19
1.0267e-18
1.11521e-18
1.26427e-18
1.3882e-18
1.7173e-18
2.42704e-18
4.26376e-18
9.38067e-18
2.4396e-17
6.77852e-17
1.96829e-16
5.62268e-16
1.59871e-15
4.48967e-15
1.27236e-14
3.47386e-14
9.50558e-14
2.55038e-13
6.65607e-13
1.68389e-12
4.33632e-12
1.1144e-11
2.65328e-11
6.24957e-11
1.43339e-10
3.28279e-10
7.42604e-10
1.60787e-09
3.29708e-09
6.36205e-09
1.1536e-08
1.97939e-08
3.26235e-08
5.23236e-08
8.14469e-08
1.13643e-07
1.44454e-07
1.22198e-07
-9.31267e-08
-9.97313e-07
-3.80543e-06
-1.04378e-05
-1.67408e-05
3.22504e-05
0.000437265
0.0018416
0.00421139
0.00742495
0.0120787
0.0217072
0.048198
0.12236
0.315579
0.849223
2.36315
5.94355
11.1555
11.7788
5.77854
2.28129
-0.515026
-3.74542
-5.43429
-4.50543
-2.55249
-1.33008
-0.719022
-0.393552
-0.217129
-0.119513
-0.0650694
-0.0342445
-0.0176687
-0.00865856
-0.00408838
-0.0018483
-0.000688883
-0.000189515
-5.01599e-05
-1.3499e-05
-3.09625e-06
-2.46199e-07
1.22616e-20
3.21721e-20
5.97796e-20
9.76145e-20
1.16443e-19
1.42327e-19
1.73974e-19
2.38778e-19
2.55751e-19
2.86992e-19
3.20124e-19
3.71529e-19
4.28416e-19
4.8607e-19
5.6043e-19
6.29356e-19
7.00382e-19
8.09513e-19
9.63474e-19
1.13882e-18
1.26753e-18
1.37866e-18
1.66141e-18
2.44023e-18
4.33813e-18
9.65274e-18
2.48025e-17
6.99075e-17
1.99404e-16
5.72419e-16
1.6296e-15
4.68967e-15
1.29283e-14
3.53131e-14
9.66788e-14
2.54928e-13
6.73259e-13
1.70373e-12
4.51617e-12
1.13393e-11
2.71575e-11
6.33636e-11
1.44117e-10
3.32909e-10
7.4761e-10
1.61882e-09
3.31713e-09
6.394e-09
1.15814e-08
1.98514e-08
3.26863e-08
5.2377e-08
8.14617e-08
1.1359e-07
1.44387e-07
1.22103e-07
-9.23855e-08
-9.92641e-07
-3.78792e-06
-1.0394e-05
-1.67328e-05
3.15777e-05
0.000432764
0.00182983
0.00419353
0.0074006
0.0120385
0.0216054
0.0478945
0.121557
0.313487
0.843611
2.34841
5.91536
11.1306
11.8091
5.80746
2.29732
-0.49825
-3.73216
-5.43384
-4.51551
-2.56044
-1.33399
-0.721075
-0.394649
-0.217728
-0.119844
-0.0652531
-0.0343405
-0.0177199
-0.00868353
-0.00410055
-0.00185399
-0.000691323
-0.000190229
-5.03378e-05
-1.35451e-05
-3.10658e-06
-2.47025e-07
1.02611e-20
5.46442e-20
8.15863e-20
1.21618e-19
1.37502e-19
1.63577e-19
2.14027e-19
2.89309e-19
3.17002e-19
3.37408e-19
4.10434e-19
4.46469e-19
4.91748e-19
4.86473e-19
5.26972e-19
6.1571e-19
6.6131e-19
7.8203e-19
8.55179e-19
1.04297e-18
1.21523e-18
1.35853e-18
1.7473e-18
2.55212e-18
4.3679e-18
9.64619e-18
2.50972e-17
7.03818e-17
2.04213e-16
5.89384e-16
1.67605e-15
4.75081e-15
1.31213e-14
3.65998e-14
9.87114e-14
2.59481e-13
6.85587e-13
1.73388e-12
4.53613e-12
1.12348e-11
2.74249e-11
6.39663e-11
1.46318e-10
3.33934e-10
7.50752e-10
1.62536e-09
3.32872e-09
6.41254e-09
1.16084e-08
1.98876e-08
3.27307e-08
5.24222e-08
8.14929e-08
1.1359e-07
1.44374e-07
1.21998e-07
-9.24269e-08
-9.91968e-07
-3.78465e-06
-1.03854e-05
-1.67332e-05
3.14235e-05
0.000431764
0.00182728
0.00418972
0.00739553
0.0120305
0.0215862
0.0478388
0.121416
0.313144
0.842685
2.34596
5.91077
11.1265
11.8138
5.81195
2.29978
-0.495668
-3.73007
-5.43372
-4.51703
-2.56164
-1.33459
-0.721387
-0.394817
-0.217819
-0.119894
-0.0652807
-0.0343549
-0.0177276
-0.00868723
-0.00410233
-0.00185484
-0.000691765
-0.000190337
-5.03631e-05
-1.35514e-05
-3.10793e-06
-2.4713e-07
8.34515e-21
4.05865e-20
9.70476e-20
1.3597e-19
1.59679e-19
1.8621e-19
2.24023e-19
2.8162e-19
3.46119e-19
3.63635e-19
3.59091e-19
4.06566e-19
4.20772e-19
4.96284e-19
5.71583e-19
6.2879e-19
7.18995e-19
7.90605e-19
8.62811e-19
9.9247e-19
1.18479e-18
1.37672e-18
1.7383e-18
2.52003e-18
4.46753e-18
9.77331e-18
2.54066e-17
7.17411e-17
2.05514e-16
5.90893e-16
1.69157e-15
4.76646e-15
1.33877e-14
3.65716e-14
9.94893e-14
2.62703e-13
6.88318e-13
1.75566e-12
4.56135e-12
1.1435e-11
2.74662e-11
6.39107e-11
1.47458e-10
3.34836e-10
7.5042e-10
1.62791e-09
3.33287e-09
6.41944e-09
1.16197e-08
1.99053e-08
3.27584e-08
5.24648e-08
8.15546e-08
1.13665e-07
1.44434e-07
1.21847e-07
-9.36279e-08
-9.96885e-07
-3.80018e-06
-1.04213e-05
-1.67426e-05
3.19255e-05
0.000435144
0.00183594
0.0042026
0.00741288
0.012059
0.0216586
0.0480549
0.121986
0.314645
0.846683
2.35681
5.93125
11.1444
11.7912
5.79052
2.28794
-0.507974
-3.7397
-5.43402
-4.50968
-2.55585
-1.33175
-0.7199
-0.394021
-0.217385
-0.119654
-0.0651468
-0.0342849
-0.01769
-0.00866892
-0.00409338
-0.00185057
-0.000689753
-0.000189768
-5.02226e-05
-1.35151e-05
-3.09982e-06
-2.46482e-07
1.11095e-20
2.57697e-20
5.41426e-20
8.44464e-20
1.32121e-19
1.69202e-19
1.79244e-19
2.4056e-19
2.98399e-19
3.17936e-19
3.50361e-19
3.90981e-19
4.2292e-19
5.20603e-19
5.63769e-19
6.83312e-19
7.73356e-19
7.51145e-19
8.0329e-19
9.39344e-19
1.13551e-18
1.39062e-18
1.71421e-18
2.51193e-18
4.31608e-18
9.59381e-18
2.48922e-17
7.07462e-17
2.02099e-16
5.81536e-16
1.65696e-15
4.64321e-15
1.33448e-14
3.62272e-14
9.65525e-14
2.53413e-13
6.75492e-13
1.67989e-12
4.44189e-12
1.13889e-11
2.70646e-11
6.38442e-11
1.45216e-10
3.34783e-10
7.4984e-10
1.625e-09
3.32812e-09
6.41296e-09
1.16127e-08
1.99015e-08
3.2766e-08
5.24993e-08
8.16387e-08
1.13807e-07
1.4456e-07
1.21637e-07
-9.60128e-08
-1.00734e-06
-3.83382e-06
-1.04989e-05
-1.67572e-05
3.30742e-05
0.000442762
0.00185536
0.00423131
0.00745132
0.012122
0.0218187
0.048532
0.12324
0.31779
0.855273
2.38021
5.97586
11.1832
11.7418
5.74432
2.26231
-0.534674
-3.76056
-5.43462
-4.49368
-2.54331
-1.32558
-0.716671
-0.392295
-0.216441
-0.119132
-0.0648565
-0.0341335
-0.0176089
-0.00862922
-0.00407402
-0.00184145
-0.000685517
-0.000188586
-4.99283e-05
-1.34386e-05
-3.0827e-06
-2.45113e-07
2.73272e-20
5.17594e-20
6.5619e-20
9.91454e-20
1.2724e-19
1.52719e-19
1.84414e-19
2.28351e-19
2.75857e-19
3.16648e-19
3.65945e-19
3.94058e-19
4.50961e-19
5.17242e-19
6.04464e-19
7.15489e-19
7.96715e-19
9.07869e-19
9.72886e-19
1.07769e-18
1.14875e-18
1.29169e-18
1.60549e-18
2.32692e-18
4.34386e-18
9.74051e-18
2.48612e-17
6.89769e-17
2.00224e-16
5.74634e-16
1.64257e-15
4.60992e-15
1.29949e-14
3.55265e-14
9.62695e-14
2.56827e-13
6.6997e-13
1.68017e-12
4.41224e-12
1.13133e-11
2.70313e-11
6.27459e-11
1.44394e-10
3.34508e-10
7.45748e-10
1.61696e-09
3.31528e-09
6.3944e-09
1.15898e-08
1.98794e-08
3.27587e-08
5.25342e-08
8.17589e-08
1.1403e-07
1.44758e-07
1.21333e-07
-9.97994e-08
-1.02428e-06
-3.88879e-06
-1.0625e-05
-1.67716e-05
3.49897e-05
0.000455242
0.00188638
0.00427652
0.00751145
0.0122208
0.0220707
0.0492845
0.125214
0.322733
0.869133
2.41684
6.04421
11.2409
11.6647
5.67473
2.22359
-0.575074
-3.79171
-5.43508
-4.46955
-2.52465
-1.3164
-0.711862
-0.389722
-0.215035
-0.118354
-0.0644241
-0.0339075
-0.017488
-0.00857033
-0.00404537
-0.00182796
-0.00067947
-0.000186834
-4.94924e-05
-1.33254e-05
-3.05735e-06
-2.43086e-07
1.44088e-20
4.21655e-20
7.45816e-20
9.59924e-20
1.04196e-19
1.20662e-19
1.58223e-19
2.10202e-19
2.39021e-19
2.78959e-19
3.56601e-19
4.15555e-19
5.08538e-19
6.01679e-19
6.60989e-19
7.42583e-19
8.321e-19
9.51467e-19
1.02148e-18
1.10061e-18
1.23004e-18
1.31424e-18
1.62492e-18
2.38988e-18
4.30936e-18
9.43926e-18
2.42437e-17
6.705e-17
1.93985e-16
5.63599e-16
1.59477e-15
4.56604e-15
1.26788e-14
3.48405e-14
9.45006e-14
2.50668e-13
6.59546e-13
1.67408e-12
4.2775e-12
1.08358e-11
2.67379e-11
6.22905e-11
1.41922e-10
3.29952e-10
7.39988e-10
1.60494e-09
3.29427e-09
6.36179e-09
1.1546e-08
1.98324e-08
3.27277e-08
5.25598e-08
8.19086e-08
1.14337e-07
1.4504e-07
1.20987e-07
-1.04721e-07
-1.04674e-06
-3.96244e-06
-1.07948e-05
-1.67869e-05
3.76605e-05
0.000472868
0.00192841
0.00433624
0.00758976
0.0123501
0.0224048
0.0502782
0.127843
0.329238
0.887198
2.46435
6.13295
11.3144
11.5628
5.58585
2.17373
-0.627438
-3.83148
-5.43495
-4.43797
-2.50054
-1.30456
-0.705642
-0.386398
-0.21322
-0.117351
-0.0638672
-0.0336166
-0.0173325
-0.00849441
-0.00400857
-0.00181065
-0.000671739
-0.000184613
-4.89393e-05
-1.31816e-05
-3.02512e-06
-2.4051e-07
1.3221e-20
3.48169e-20
7.94853e-20
9.47287e-20
1.2034e-19
1.58882e-19
2.27234e-19
2.30829e-19
2.61874e-19
3.01681e-19
3.62824e-19
4.38048e-19
5.14709e-19
5.60832e-19
5.72308e-19
6.56628e-19
7.75879e-19
8.64134e-19
9.62342e-19
1.07293e-18
1.1705e-18
1.45185e-18
1.73211e-18
2.55282e-18
4.34917e-18
9.31037e-18
2.36813e-17
6.49284e-17
1.87673e-16
5.36554e-16
1.52285e-15
4.37257e-15
1.22473e-14
3.3684e-14
8.89376e-14
2.422e-13
6.33073e-13
1.63603e-12
4.21767e-12
1.07929e-11
2.59595e-11
6.21423e-11
1.41654e-10
3.25017e-10
7.27959e-10
1.58563e-09
3.26304e-09
6.31398e-09
1.14818e-08
1.97574e-08
3.26664e-08
5.25657e-08
8.20767e-08
1.14707e-07
1.45359e-07
1.20633e-07
-1.10577e-07
-1.07366e-06
-4.05037e-06
-1.09934e-05
-1.67757e-05
4.08898e-05
0.000492736
0.00197625
0.00440561
0.00768005
0.0124982
0.0227829
0.0513995
0.130893
0.337009
0.908688
2.5219
6.23953
11.3997
11.437
5.48129
2.11458
-0.689636
-3.87726
-5.43359
-4.40084
-2.47255
-1.29081
-0.698436
-0.382535
-0.211106
-0.116181
-0.0632169
-0.0332771
-0.0171512
-0.00840565
-0.00396538
-0.00179029
-0.000662701
-0.000182023
-4.82951e-05
-1.30142e-05
-2.98765e-06
-2.37517e-07
1.97368e-20
4.69881e-20
6.25082e-20
9.33716e-20
1.16486e-19
1.5099e-19
2.13238e-19
2.3635e-19
2.7398e-19
3.39904e-19
3.77446e-19
4.3544e-19
4.93597e-19
5.39516e-19
6.24922e-19
7.21685e-19
7.93051e-19
9.41506e-19
1.05991e-18
1.16169e-18
1.26123e-18
1.36633e-18
1.60101e-18
2.35311e-18
4.01522e-18
8.81407e-18
2.28484e-17
6.2973e-17
1.79845e-16
5.13179e-16
1.49996e-15
4.22263e-15
1.17273e-14
3.23549e-14
8.78728e-14
2.35328e-13
6.21184e-13
1.5983e-12
4.13871e-12
1.05604e-11
2.57376e-11
6.03929e-11
1.39816e-10
3.18333e-10
7.1411e-10
1.55856e-09
3.21787e-09
6.24643e-09
1.13843e-08
1.96462e-08
3.25584e-08
5.25211e-08
8.22023e-08
1.15075e-07
1.45687e-07
1.20396e-07
-1.16531e-07
-1.10266e-06
-4.14697e-06
-1.12121e-05
-1.675e-05
4.45655e-05
0.000515008
0.00202971
0.00448192
0.00777861
0.012661
0.0232144
0.052706
0.134399
0.345928
0.934105
2.58862
6.36253
11.4923
11.2885
5.3648
2.04819
-0.759588
-3.92735
-5.43052
-4.35868
-2.44127
-1.27542
-0.690406
-0.378236
-0.208755
-0.114883
-0.0624963
-0.0329015
-0.0169512
-0.00830762
-0.00391786
-0.00176799
-0.00065296
-0.000179238