/*--------------------------------*- C++ -*----------------------------------*\
  =========                 |
  \\      /  F ield         | OpenFOAM: The Open Source CFD Toolbox
   \\    /   O peration     | Website:  https://openfoam.org
    \\  /    A nd           | Version:  10
     \\/     M anipulation  |
\*---------------------------------------------------------------------------*/
FoamFile
{
    format      ascii;
    class       volScalarField;
    location    "1";
    object      RR.C5H9;
}
// * * * * * * * * * * * * * * * * * * * * * * * * * * * * * * * * * * * * * //

dimensions      [1 -3 -1 0 0 0 0];

internalField   nonuniform List<scalar> 
4000
(
-1.91046e-45
-7.93172e-45
-2.98224e-44
-1.02764e-43
-3.46487e-43
-1.11816e-42
-3.4667e-42
-1.04623e-41
-3.11399e-41
-9.3225e-41
-2.87888e-40
-8.62681e-40
-2.54888e-39
-7.53967e-39
-2.24766e-38
-6.74547e-38
-2.00833e-37
-6.35475e-37
-1.95149e-36
-6.07762e-36
-1.90318e-35
-5.99737e-35
-1.9219e-34
-6.12221e-34
-1.97022e-33
-6.31668e-33
-1.97575e-32
-6.4806e-32
-2.04143e-31
-6.43656e-31
-2.026e-30
-6.34519e-30
-1.96451e-29
-6.04474e-29
-1.85675e-28
-5.43158e-28
-1.6569e-27
-4.90612e-27
-1.45199e-26
-4.25193e-26
-1.19277e-25
-3.29872e-25
-8.81472e-25
-2.31392e-24
-5.95431e-24
-1.58624e-23
-4.31688e-23
-1.15594e-22
-3.01218e-22
-7.58339e-22
-1.84505e-21
-4.39931e-21
-9.44005e-21
-2.15721e-20
-4.92773e-20
-1.13052e-19
-2.61325e-19
-6.73959e-19
-1.96605e-18
-6.65633e-18
-2.67829e-17
-1.20729e-16
-6.72053e-16
-4.33356e-15
-2.44631e-14
-1.02976e-13
-3.50297e-13
-9.5728e-13
-2.07411e-12
-3.36793e-12
-3.04264e-12
1.53497e-12
1.06127e-11
1.08011e-11
-4.28645e-12
-4.46823e-12
-1.9076e-12
-8.45866e-13
-3.89444e-13
-1.84812e-13
-9.04618e-14
-4.54916e-14
-2.34744e-14
-1.24272e-14
-6.74667e-15
-3.75976e-15
-2.15237e-15
-1.29651e-15
-8.89497e-16
-8.0799e-16
-1.06505e-15
-1.88675e-15
-3.82666e-15
-3.1401e-15
1.79206e-14
-3.75218e-15
-2.72361e-15
-9.72516e-16
-1.67122e-16
-1.10357e-18
-2.3216e-45
-1.17843e-44
-3.97087e-44
-1.2678e-43
-3.97899e-43
-1.22429e-42
-3.68119e-42
-1.09602e-41
-3.11977e-41
-8.84025e-41
-2.52558e-40
-7.32175e-40
-2.15493e-39
-6.45392e-39
-1.97059e-38
-6.12854e-38
-1.93317e-37
-6.1955e-37
-2.00837e-36
-6.54479e-36
-2.14471e-35
-7.09022e-35
-2.3342e-34
-7.6762e-34
-2.5278e-33
-8.24058e-33
-2.67667e-32
-8.65088e-32
-2.76838e-31
-8.74498e-31
-2.79102e-30
-9.04394e-30
-2.82223e-29
-8.56966e-29
-2.58767e-28
-7.83735e-28
-2.30622e-27
-6.88932e-27
-1.96088e-26
-5.60638e-26
-1.57473e-25
-4.27069e-25
-1.14391e-24
-2.96858e-24
-7.96498e-24
-2.13854e-23
-5.7419e-23
-1.50422e-22
-3.85079e-22
-9.63827e-22
-2.18637e-21
-4.65199e-21
-1.06444e-20
-2.38324e-20
-5.36905e-20
-1.23291e-19
-2.77466e-19
-7.01072e-19
-2.00848e-18
-6.63914e-18
-2.6083e-17
-1.14812e-16
-6.24674e-16
-3.96893e-15
-2.24286e-14
-9.52437e-14
-3.27347e-13
-9.09624e-13
-2.0026e-12
-3.33798e-12
-3.18746e-12
1.16338e-12
1.03773e-11
1.14799e-11
-3.9762e-12
-4.65023e-12
-1.98095e-12
-8.75728e-13
-4.02119e-13
-1.90377e-13
-9.29209e-14
-4.66433e-14
-2.40413e-14
-1.27068e-14
-6.8872e-15
-3.83494e-15
-2.19865e-15
-1.33558e-15
-9.41047e-16
-8.93776e-16
-1.22787e-15
-2.22242e-15
-4.54302e-15
3.10194e-16
1.55049e-14
-3.99176e-15
-2.60304e-15
-9.1832e-16
-1.47133e-16
-1.00908e-18
-1.29683e-45
-6.62505e-45
-2.17613e-44
-6.42826e-44
-1.83768e-43
-5.1738e-43
-1.44767e-42
-4.09728e-42
-1.20263e-41
-3.73311e-41
-1.19994e-40
-3.97197e-40
-1.34326e-39
-4.59239e-39
-1.5801e-38
-5.45587e-38
-1.88853e-37
-6.54825e-37
-2.26739e-36
-7.81131e-36
-2.6833e-35
-9.1523e-35
-3.09812e-34
-1.03835e-33
-3.44162e-33
-1.13019e-32
-3.69232e-32
-1.21278e-31
-3.87213e-31
-1.21822e-30
-3.96785e-30
-1.23149e-29
-3.74401e-29
-1.14832e-28
-3.49978e-28
-1.03966e-27
-3.0272e-27
-8.75171e-27
-2.51693e-26
-6.99343e-26
-1.93767e-25
-5.06691e-25
-1.39592e-24
-3.59058e-24
-9.71922e-24
-2.5662e-23
-6.87787e-23
-1.783e-22
-4.42848e-22
-1.08949e-21
-2.43037e-21
-5.22934e-21
-1.1902e-20
-2.69499e-20
-5.9009e-20
-1.28558e-19
-2.84866e-19
-7.13936e-19
-2.02441e-18
-6.6085e-18
-2.54887e-17
-1.09973e-16
-5.85078e-16
-3.64734e-15
-2.06765e-14
-8.84875e-14
-3.06717e-13
-8.6589e-13
-1.94825e-12
-3.32146e-12
-3.30982e-12
8.17957e-13
1.01325e-11
1.21275e-11
-3.60818e-12
-4.86806e-12
-2.06973e-12
-9.12025e-13
-4.17667e-13
-1.97318e-13
-9.62267e-14
-4.82225e-14
-2.48073e-14
-1.30756e-14
-7.07652e-15
-3.93964e-15
-2.26678e-15
-1.39789e-15
-1.02317e-15
-1.03897e-15
-1.50971e-15
-2.81512e-15
-5.82545e-15
6.35064e-15
1.22763e-14
-4.35017e-15
-2.52939e-15
-8.80802e-16
-1.29799e-16
-9.30814e-19
-6.95905e-46
-3.57847e-45
-1.23324e-44
-3.87512e-44
-1.19404e-43
-3.71149e-43
-1.1775e-42
-3.98428e-42
-1.34838e-41
-4.60609e-41
-1.61852e-40
-5.64949e-40
-2.01245e-39
-7.03865e-39
-2.45967e-38
-8.56524e-38
-2.97012e-37
-1.02426e-36
-3.50857e-36
-1.1949e-35
-4.04625e-35
-1.36126e-34
-4.54522e-34
-1.50326e-33
-5.01644e-33
-1.63481e-32
-5.28869e-32
-1.69642e-31
-5.29825e-31
-1.71026e-30
-5.31495e-30
-1.64156e-29
-4.99224e-29
-1.51381e-28
-4.55242e-28
-1.33754e-27
-3.84913e-27
-1.11178e-26
-3.14384e-26
-8.70185e-26
-2.38642e-25
-6.26221e-25
-1.69204e-24
-4.34594e-24
-1.1216e-23
-3.03151e-23
-7.99923e-23
-2.03176e-22
-5.11911e-22
-1.15296e-21
-2.54311e-21
-5.95195e-21
-1.35601e-20
-2.98372e-20
-6.43482e-20
-1.30965e-19
-2.90951e-19
-7.25665e-19
-2.03949e-18
-6.56799e-18
-2.49343e-17
-1.05851e-16
-5.54682e-16
-3.42456e-15
-1.94004e-14
-8.34506e-14
-2.91488e-13
-8.33027e-13
-1.90063e-12
-3.30335e-12
-3.4263e-12
5.00866e-13
9.93822e-12
1.27021e-11
-3.2029e-12
-5.04222e-12
-2.14703e-12
-9.46472e-13
-4.33508e-13
-2.04766e-13
-9.9746e-14
-4.99453e-14
-2.57378e-14
-1.33628e-14
-7.24322e-15
-4.04006e-15
-2.33642e-15
-1.46366e-15
-1.11486e-15
-1.20047e-15
-1.83114e-15
-3.50189e-15
-7.38579e-15
1.34612e-14
8.94406e-15
-4.77135e-15
-2.51221e-15
-8.62597e-16
-1.17021e-16
-8.77727e-19
-8.18829e-46
-4.29208e-45
-1.5471e-44
-5.15771e-44
-1.69356e-43
-5.58601e-43
-1.86099e-42
-6.25488e-42
-2.10326e-41
-7.32201e-41
-2.51295e-40
-8.69804e-40
-3.05298e-39
-1.05345e-38
-3.70388e-38
-1.274e-37
-4.35693e-37
-1.51575e-36
-5.16636e-36
-1.74979e-35
-5.88521e-35
-1.96073e-34
-6.47878e-34
-2.12456e-33
-6.92127e-33
-2.23282e-32
-7.13699e-32
-2.30129e-31
-7.23248e-31
-2.2497e-30
-6.94694e-30
-2.18115e-29
-6.55097e-29
-1.96831e-28
-5.80572e-28
-1.69824e-27
-4.81465e-27
-1.33848e-26
-3.80134e-26
-1.05232e-25
-2.82624e-25
-7.48245e-25
-1.92753e-24
-5.07368e-24
-1.30108e-23
-3.46965e-23
-8.96871e-23
-2.31943e-22
-5.30864e-22
-1.18495e-21
-2.80922e-21
-6.5012e-21
-1.48586e-20
-3.31956e-20
-6.60998e-20
-1.34488e-19
-2.98396e-19
-7.3858e-19
-2.05705e-18
-6.5585e-18
-2.45927e-17
-1.03078e-16
-5.32987e-16
-3.25599e-15
-1.84314e-14
-7.97589e-14
-2.81286e-13
-8.10839e-13
-1.86917e-12
-3.29476e-12
-3.5205e-12
2.57019e-13
9.76243e-12
1.32059e-11
-2.8683e-12
-5.23838e-12
-2.22699e-12
-9.80262e-13
-4.48234e-13
-2.11314e-13
-1.02818e-13
-5.14401e-14
-2.64933e-14
-1.37502e-14
-7.4479e-15
-4.15563e-15
-2.41203e-15
-1.53087e-15
-1.20308e-15
-1.35451e-15
-2.13366e-15
-4.15121e-15
-8.84875e-15
1.96814e-14
6.24784e-15
-5.17106e-15
-2.53339e-15
-8.59596e-16
-1.08344e-16
-8.47895e-19
-1.34302e-45
-7.3309e-45
-2.70486e-44
-9.28034e-44
-3.12874e-43
-1.05183e-42
-3.53878e-42
-1.19321e-41
-4.02886e-41
-1.36381e-40
-4.60616e-40
-1.54603e-39
-5.32643e-39
-1.79758e-38
-6.0486e-38
-2.06294e-37
-6.93829e-37
-2.33084e-36
-7.83843e-36
-2.59328e-35
-8.71554e-35
-2.84807e-34
-9.23013e-34
-2.96586e-33
-9.5567e-33
-3.09585e-32
-9.75843e-32
-3.03244e-31
-9.59046e-31
-2.93653e-30
-8.93715e-30
-2.78751e-29
-8.27679e-29
-2.44061e-28
-7.08797e-28
-2.04466e-27
-5.75136e-27
-1.57962e-26
-4.47102e-26
-1.2737e-25
-3.3395e-25
-8.59426e-25
-2.2209e-24
-5.78322e-24
-1.48454e-23
-3.86797e-23
-1.01632e-22
-2.40718e-22
-5.51151e-22
-1.29309e-21
-3.03992e-21
-6.997e-21
-1.5675e-20
-3.46665e-20
-6.87219e-20
-1.38607e-19
-3.03869e-19
-7.48869e-19
-2.06783e-18
-6.53007e-18
-2.42244e-17
-1.00608e-16
-5.15303e-16
-3.12629e-15
-1.77187e-14
-7.69605e-14
-2.72269e-13
-7.90402e-13
-1.84297e-12
-3.29249e-12
-3.59481e-12
6.8533e-14
9.64375e-12
1.35853e-11
-2.60578e-12
-5.38269e-12
-2.28877e-12
-1.00631e-12
-4.59772e-13
-2.16694e-13
-1.05377e-13
-5.27043e-14
-2.71299e-14
-1.40931e-14
-7.63576e-15
-4.26386e-15
-2.48264e-15
-1.59151e-15
-1.27923e-15
-1.48283e-15
-2.38216e-15
-4.67247e-15
-1.00145e-14
2.43394e-14
4.30557e-15
-5.49132e-15
-2.56646e-15
-8.63454e-16
-1.02903e-16
-8.30996e-19
-2.14823e-45
-1.13566e-44
-4.25091e-44
-1.44924e-43
-4.81999e-43
-1.63732e-42
-5.46209e-42
-1.83102e-41
-6.15012e-41
-2.06537e-40
-6.94059e-40
-2.33283e-39
-7.83349e-39
-2.62511e-38
-8.80173e-38
-2.95514e-37
-9.92502e-37
-3.29516e-36
-1.09021e-35
-3.63196e-35
-1.1903e-34
-3.87262e-34
-1.25087e-33
-4.00694e-33
-1.27106e-32
-3.98902e-32
-1.25269e-31
-3.81244e-31
-1.20122e-30
-3.7138e-30
-1.122e-29
-3.36824e-29
-1.00075e-28
-2.94844e-28
-8.45479e-28
-2.43576e-27
-6.98657e-27
-1.90317e-26
-5.3823e-26
-1.4602e-25
-3.8382e-25
-9.97086e-25
-2.55307e-24
-6.40375e-24
-1.64735e-23
-4.27113e-23
-1.07552e-22
-2.42095e-22
-5.86986e-22
-1.38888e-21
-3.21388e-21
-7.32047e-21
-1.62626e-20
-3.56831e-20
-7.03946e-20
-1.41533e-19
-3.08101e-19
-7.54569e-19
-2.07106e-18
-6.49113e-18
-2.387e-17
-9.82861e-17
-4.99362e-16
-3.01435e-15
-1.71174e-14
-7.47002e-14
-2.65341e-13
-7.74415e-13
-1.82061e-12
-3.28463e-12
-3.65469e-12
-1.0363e-13
9.50688e-12
1.39152e-11
-2.3255e-12
-5.51733e-12
-2.34813e-12
-1.03155e-12
-4.71023e-13
-2.21861e-13
-1.07844e-13
-5.39181e-14
-2.77444e-14
-1.44221e-14
-7.81544e-15
-4.36669e-15
-2.54804e-15
-1.64443e-15
-1.34123e-15
-1.58271e-15
-2.57222e-15
-5.0662e-15
-1.08935e-14
2.77091e-14
2.94385e-15
-5.73926e-15
-2.60158e-15
-8.70204e-16
-9.9455e-17
-8.22504e-19
-3.08126e-45
-1.64102e-44
-6.09024e-44
-2.09575e-43
-7.06946e-43
-2.37239e-42
-7.94933e-42
-2.66268e-41
-8.91583e-41
-2.98371e-40
-9.9702e-40
-3.33079e-39
-1.11359e-38
-3.72015e-38
-1.23589e-37
-4.10346e-37
-1.36138e-36
-4.49115e-36
-1.47578e-35
-4.83248e-35
-1.57563e-34
-5.08811e-34
-1.63063e-33
-5.18373e-33
-1.6358e-32
-5.12757e-32
-1.59242e-31
-4.86434e-31
-1.46288e-30
-4.40588e-30
-1.34712e-29
-4.08907e-29
-1.20473e-28
-3.50257e-28
-9.94014e-28
-2.82361e-27
-8.00435e-27
-2.15866e-26
-6.07065e-26
-1.64838e-25
-4.33536e-25
-1.10527e-24
-2.8483e-24
-7.14689e-24
-1.8441e-23
-4.71222e-23
-1.11122e-22
-2.60754e-22
-6.28219e-22
-1.47553e-21
-3.40767e-21
-7.65886e-21
-1.68353e-20
-3.66183e-20
-7.18277e-20
-1.43641e-19
-3.10849e-19
-7.57026e-19
-2.0645e-18
-6.42143e-18
-2.34155e-17
-9.57059e-17
-4.82231e-16
-2.89793e-15
-1.64733e-14
-7.22721e-14
-2.58517e-13
-7.58414e-13
-1.79626e-12
-3.27148e-12
-3.70755e-12
-2.76439e-13
9.3382e-12
1.42232e-11
-1.99694e-12
-5.65667e-12
-2.40855e-12
-1.05727e-12
-4.82492e-13
-2.27075e-13
-1.10332e-13
-5.51422e-14
-2.83644e-14
-1.47495e-14
-7.99314e-15
-4.46726e-15
-2.61004e-15
-1.69124e-15
-1.39144e-15
-1.65899e-15
-2.71408e-15
-5.35714e-15
-1.15417e-14
3.00933e-14
2.04203e-15
-5.93205e-15
-2.63742e-15
-8.78814e-16
-9.75097e-17
-8.20225e-19
-4.03911e-45
-2.16014e-44
-8.05312e-44
-2.77541e-43
-9.37776e-43
-3.14722e-42
-1.05262e-41
-3.51686e-41
-1.17402e-40
-3.9386e-40
-1.31182e-39
-4.35924e-39
-1.44628e-38
-4.82248e-38
-1.59299e-37
-5.25202e-37
-1.73018e-36
-5.67269e-36
-1.84547e-35
-6.09453e-35
-1.97386e-34
-6.25244e-34
-2.02908e-33
-6.37693e-33
-2.00237e-32
-6.30003e-32
-1.94966e-31
-5.98115e-31
-1.81322e-30
-5.43376e-30
-1.60195e-29
-4.80233e-29
-1.40429e-28
-4.08336e-28
-1.16263e-27
-3.27043e-27
-9.09753e-27
-2.43043e-26
-6.79276e-26
-1.83711e-25
-4.76275e-25
-1.23334e-24
-3.13942e-24
-7.97239e-24
-1.93076e-23
-4.5933e-23
-1.15513e-22
-2.81227e-22
-6.6915e-22
-1.56562e-21
-3.56496e-21
-7.93121e-21
-1.72901e-20
-3.73334e-20
-7.28e-20
-1.44954e-19
-3.12032e-19
-7.55647e-19
-2.047e-18
-6.31855e-18
-2.28215e-17
-9.22655e-17
-4.61349e-16
-2.75198e-15
-1.57274e-14
-6.94758e-14
-2.49471e-13
-7.38342e-13
-1.7621e-12
-3.24345e-12
-3.74845e-12
-4.73979e-13
9.13253e-12
1.45327e-11
-1.60285e-12
-5.79963e-12
-2.47184e-12
-1.08416e-12
-4.94567e-13
-2.32528e-13
-1.12933e-13
-5.64186e-14
-2.90095e-14
-1.50841e-14
-8.17309e-15
-4.56787e-15
-2.67031e-15
-1.73384e-15
-1.43298e-15
-1.71778e-15
-2.82011e-15
-5.57251e-15
-1.20196e-14
3.177e-14
1.48265e-15
-6.08782e-15
-2.67501e-15
-8.89173e-16
-9.67585e-17
-8.23075e-19
-4.931e-45
-2.72067e-44
-1.00302e-43
-3.43463e-43
-1.17479e-42
-3.93724e-42
-1.32186e-41
-4.42112e-41
-1.47547e-40
-4.91266e-40
-1.63423e-39
-5.45426e-39
-1.80471e-38
-5.96958e-38
-1.97406e-37
-6.40722e-37
-2.16869e-36
-7.05651e-36
-2.29478e-35
-7.41472e-35
-2.3649e-34
-7.68662e-34
-2.43492e-33
-7.67256e-33
-2.39765e-32
-7.44684e-32
-2.29765e-31
-6.99529e-31
-2.14957e-30
-6.47239e-30
-1.92033e-29
-5.60408e-29
-1.61661e-28
-4.62543e-28
-1.30317e-27
-3.631e-27
-9.92074e-27
-2.66595e-26
-7.46835e-26
-1.99392e-25
-5.126e-25
-1.31611e-24
-3.33866e-24
-8.16656e-24
-1.95621e-23
-4.99364e-23
-1.23737e-22
-2.99314e-22
-7.11611e-22
-1.64624e-21
-3.71731e-21
-8.20362e-21
-1.77222e-20
-3.77719e-20
-7.33856e-20
-1.45766e-19
-3.1205e-19
-7.51643e-19
-2.02392e-18
-6.20471e-18
-2.2237e-17
-8.90784e-17
-4.39345e-16
-2.60612e-15
-1.4951e-14
-6.65795e-14
-2.40882e-13
-7.17269e-13
-1.72077e-12
-3.18552e-12
-3.93435e-12
-6.42633e-13
8.88469e-12
1.47774e-11
-1.12664e-12
-5.96166e-12
-2.54619e-12
-1.11553e-12
-5.0822e-13
-2.38516e-13
-1.15737e-13
-5.7775e-14
-2.96876e-14
-1.54281e-14
-8.35495e-15
-4.66852e-15
-2.72926e-15
-1.77336e-15
-1.46827e-15
-1.76401e-15
-2.90037e-15
-5.73366e-15
-1.23747e-14
3.29407e-14
1.17762e-15
-6.21773e-15
-2.7146e-15
-9.0087e-16
-9.69591e-17
-8.30194e-19
-5.94685e-45
-3.24648e-44
-1.20352e-43
-4.14931e-43
-1.4023e-42
-4.70621e-42
-1.57536e-41
-5.26357e-41
-1.7524e-40
-5.82714e-40
-1.96851e-39
-6.52757e-39
-2.1581e-38
-7.16644e-38
-2.37021e-37
-7.83812e-37
-2.56811e-36
-8.3575e-36
-2.69941e-35
-8.73857e-35
-2.76018e-34
-8.96953e-34
-2.83013e-33
-8.88713e-33
-2.73272e-32
-8.5886e-32
-2.61758e-31
-7.97041e-31
-2.43604e-30
-7.33019e-30
-2.17104e-29
-6.32352e-29
-1.80955e-28
-5.20186e-28
-1.44874e-27
-4.00331e-27
-1.09472e-26
-2.899e-26
-8.17681e-26
-2.14018e-25
-5.47839e-25
-1.38454e-24
-3.42795e-24
-8.35651e-24
-2.11849e-23
-5.34946e-23
-1.32208e-22
-3.19822e-22
-7.54518e-22
-1.73839e-21
-3.91507e-21
-8.62588e-21
-1.87324e-20
-3.7728e-20
-7.3669e-20
-1.46042e-19
-3.10903e-19
-7.44625e-19
-1.99171e-18
-6.04202e-18
-2.14435e-17
-8.52439e-17
-4.19378e-16
-2.47015e-15
-1.42252e-14
-6.38243e-14
-2.32405e-13
-6.97398e-13
-1.68864e-12
-3.15464e-12
-3.9665e-12
-8.40117e-13
8.59118e-12
1.50185e-11
-6.10049e-13
-6.11233e-12
-2.61675e-12
-1.14484e-12
-5.2122e-13
-2.44267e-13
-1.18453e-13
-5.90973e-14
-3.03523e-14
-1.57643e-14
-8.53494e-15
-4.76685e-15
-2.78586e-15
-1.80987e-15
-1.49875e-15
-1.80113e-15
-2.96203e-15
-5.85576e-15
-1.26411e-14
3.37518e-14
1.05549e-15
-6.33036e-15
-2.75596e-15
-9.13891e-16
-9.78518e-17
-8.404e-19
-6.94035e-45
-3.74414e-44
-1.39026e-43
-4.78897e-43
-1.61628e-42
-5.4196e-42
-1.81469e-41
-6.07952e-41
-2.02815e-40
-6.81944e-40
-2.27699e-39
-7.5717e-39
-2.50558e-38
-8.31903e-38
-2.76e-37
-9.05752e-37
-2.96024e-36
-9.63756e-36
-3.11899e-35
-1.00355e-34
-3.20715e-34
-1.0154e-33
-3.22332e-33
-1.00792e-32
-3.12805e-32
-9.61776e-32
-2.94365e-31
-8.79459e-31
-2.70631e-30
-8.05407e-30
-2.34234e-29
-6.91349e-29
-2.00368e-28
-5.6946e-28
-1.60897e-27
-4.40936e-27
-1.18444e-26
-3.13881e-26
-8.56325e-26
-2.30164e-25
-5.82415e-25
-1.46123e-24
-3.59863e-24
-8.92768e-24
-2.25656e-23
-5.67168e-23
-1.39661e-22
-3.36832e-22
-7.91453e-22
-1.8157e-21
-4.07329e-21
-8.94469e-21
-1.93164e-20
-3.74158e-20
-7.38259e-20
-1.45942e-19
-3.0888e-19
-7.36263e-19
-1.95645e-18
-5.91263e-18
-2.08063e-17
-8.2049e-17
-3.98744e-16
-2.34109e-15
-1.35415e-14
-6.12241e-14
-2.24298e-13
-6.77731e-13
-1.65694e-12
-3.12608e-12
-3.99827e-12
-1.04581e-12
8.29169e-12
1.52174e-11
-7.91398e-14
-6.2522e-12
-2.68437e-12
-1.17377e-12
-5.34039e-13
-2.49917e-13
-1.211e-13
-6.03802e-14
-3.09967e-14
-1.6089e-14
-8.7083e-15
-4.86329e-15
-2.84166e-15
-1.84506e-15
-1.52595e-15
-1.83178e-15
-3.01085e-15
-5.95149e-15
-1.2846e-14
3.43059e-14
1.06423e-15
-6.42969e-15
-2.798e-15
-9.27644e-16
-9.92182e-17
-8.52625e-19
-7.55855e-45
-4.18964e-44
-1.56281e-43
-5.37514e-43
-1.81437e-42
-6.09048e-42
-2.04223e-41
-6.84132e-41
-2.29807e-40
-7.70191e-40
-2.57241e-39
-8.55745e-39
-2.82768e-38
-9.4324e-38
-3.09694e-37
-1.01232e-36
-3.2642e-36
-1.08573e-35
-3.49883e-35
-1.12721e-34
-3.59975e-34
-1.14213e-33
-3.60164e-33
-1.12519e-32
-3.48179e-32
-1.0652e-31
-3.21683e-31
-9.648e-31
-2.89149e-30
-8.89838e-30
-2.58975e-29
-7.5907e-29
-2.17208e-28
-6.21239e-28
-1.7249e-27
-4.69986e-27
-1.25418e-26
-3.31386e-26
-9.01206e-26
-2.43555e-25
-6.18728e-25
-1.55961e-24
-3.82726e-24
-9.55809e-24
-2.37044e-23
-5.94629e-23
-1.46025e-22
-3.49232e-22
-8.14885e-22
-1.85721e-21
-4.13944e-21
-9.03215e-21
-1.93632e-20
-3.7168e-20
-7.41958e-20
-1.45883e-19
-3.06668e-19
-7.26345e-19
-1.9199e-18
-5.76227e-18
-2.02022e-17
-7.89667e-17
-3.79943e-16
-2.21633e-15
-1.28714e-14
-5.86534e-14
-2.16194e-13
-6.57366e-13
-1.6202e-12
-3.08966e-12
-4.02513e-12
-1.23133e-12
7.98465e-12
1.53528e-11
4.88097e-13
-6.39687e-12
-2.75784e-12
-1.204e-12
-5.47138e-13
-2.55615e-13
-1.23806e-13
-6.16998e-14
-3.16587e-14
-1.64142e-14
-8.87958e-15
-4.95687e-15
-2.89489e-15
-1.87785e-15
-1.55041e-15
-1.85739e-15
-3.04865e-15
-6.02358e-15
-1.29988e-14
3.46682e-14
1.16811e-15
-6.51906e-15
-2.84118e-15
-9.42287e-16
-1.00978e-16
-8.66687e-19
-7.94749e-45
-4.71376e-44
-1.74115e-43
-5.98931e-43
-2.02511e-42
-6.81913e-42
-2.29342e-41
-7.6813e-41
-2.56719e-40
-8.56553e-40
-2.84982e-39
-9.41688e-39
-3.16914e-38
-1.04641e-37
-3.43759e-37
-1.11008e-36
-3.68893e-36
-1.19322e-35
-3.84925e-35
-1.23079e-34
-3.90026e-34
-1.22778e-33
-3.91378e-33
-1.21734e-32
-3.7604e-32
-1.14665e-31
-3.52659e-31
-1.06232e-30
-3.16944e-30
-9.41443e-30
-2.76621e-29
-8.11422e-29
-2.32051e-28
-6.53435e-28
-1.81674e-27
-4.9408e-27
-1.32742e-26
-3.46328e-26
-9.56791e-26
-2.56054e-25
-6.43417e-25
-1.60631e-24
-4.01549e-24
-1.00147e-23
-2.47184e-23
-6.17428e-23
-1.50459e-22
-3.57728e-22
-8.30301e-22
-1.88267e-21
-4.17475e-21
-9.0659e-21
-1.93297e-20
-3.691e-20
-7.43806e-20
-1.45679e-19
-3.04564e-19
-7.18304e-19
-1.89003e-18
-5.62975e-18
-1.95596e-17
-7.59253e-17
-3.63491e-16
-2.1063e-15
-1.22771e-14
-5.63626e-14
-2.09052e-13
-6.39768e-13
-1.58597e-12
-3.05253e-12
-4.04217e-12
-1.40336e-12
7.69114e-12
1.54649e-11
1.02699e-12
-6.52509e-12
-2.8265e-12
-1.2325e-12
-5.59788e-13
-2.61174e-13
-1.26403e-13
-6.29545e-14
-3.22854e-14
-1.67243e-14
-9.04201e-15
-5.04507e-15
-2.94458e-15
-1.90782e-15
-1.57172e-15
-1.87848e-15
-3.07878e-15
-6.0807e-15
-1.31166e-14
3.48784e-14
1.33608e-15
-6.59911e-15
-2.883e-15
-9.5664e-16
-1.02891e-16
-8.81048e-19
-9.52774e-45
-5.09322e-44
-1.8938e-43
-6.53309e-43
-2.20702e-42
-7.41484e-42
-2.50581e-41
-8.36619e-41
-2.78011e-40
-9.30816e-40
-3.12206e-39
-1.03512e-38
-3.4248e-38
-1.13114e-37
-3.72906e-37
-1.21623e-36
-3.92413e-36
-1.29228e-35
-4.1462e-35
-1.32777e-34
-4.24477e-34
-1.34213e-33
-4.21749e-33
-1.31394e-32
-4.04947e-32
-1.23196e-31
-3.74545e-31
-1.12021e-30
-3.3314e-30
-1.00237e-29
-2.94402e-29
-8.60674e-29
-2.43567e-28
-6.84479e-28
-1.87111e-27
-5.04343e-27
-1.38918e-26
-3.61157e-26
-9.91017e-26
-2.58709e-25
-6.81978e-25
-1.69294e-24
-4.20764e-24
-1.0262e-23
-2.54719e-23
-6.33393e-23
-1.53709e-22
-3.6397e-22
-8.41489e-22
-1.9008e-21
-4.19864e-21
-9.07792e-21
-1.9279e-20
-3.66805e-20
-7.4367e-20
-1.45178e-19
-3.01837e-19
-7.09165e-19
-1.85611e-18
-5.50856e-18
-1.90134e-17
-7.327e-17
-3.48001e-16
-2.00825e-15
-1.17346e-14
-5.42331e-14
-2.02254e-13
-6.22759e-13
-1.55526e-12
-3.01978e-12
-4.05678e-12
-1.55582e-12
7.41353e-12
1.55458e-11
1.54052e-12
-6.63831e-12
-2.89036e-12
-1.2592e-12
-5.71417e-13
-2.66224e-13
-1.28758e-13
-6.4088e-14
-3.28495e-14
-1.70007e-14
-9.18675e-15
-5.12358e-15
-2.98862e-15
-1.93398e-15
-1.58958e-15
-1.89489e-15
-3.10052e-15
-6.12072e-15
-1.31967e-14
3.49694e-14
1.527e-15
-6.66456e-15
-2.92006e-15
-9.69558e-16
-1.04742e-16
-8.9444e-19
-1.02182e-44
-5.46805e-44
-2.0343e-43
-7.0207e-43
-2.38051e-42
-8.00075e-42
-2.68296e-41
-8.9815e-41
-2.99834e-40
-9.9613e-40
-3.30821e-39
-1.10306e-38
-3.65058e-38
-1.20626e-37
-3.97754e-37
-1.3022e-36
-4.20765e-36
-1.37555e-35
-4.40253e-35
-1.4052e-34
-4.50228e-34
-1.42173e-33
-4.46683e-33
-1.39061e-32
-4.27257e-32
-1.29642e-31
-3.94671e-31
-1.17651e-30
-3.461e-30
-1.04186e-29
-3.02376e-29
-8.81383e-29
-2.52625e-28
-7.0816e-28
-1.9565e-27
-5.35152e-27
-1.43486e-26
-3.87005e-26
-1.04198e-25
-2.76252e-25
-7.00676e-25
-1.73506e-24
-4.31036e-24
-1.04466e-23
-2.60353e-23
-6.45686e-23
-1.56131e-22
-3.68482e-22
-8.49199e-22
-1.91216e-21
-4.21162e-21
-9.07978e-21
-1.9226e-20
-3.64875e-20
-7.42922e-20
-1.44642e-19
-2.99343e-19
-7.00055e-19
-1.82529e-18
-5.39008e-18
-1.85267e-17
-7.10538e-17
-3.35618e-16
-1.92939e-15
-1.12897e-14
-5.24734e-14
-1.96594e-13
-6.08261e-13
-1.52758e-12
-2.98949e-12
-4.06735e-12
-1.68359e-12
7.17302e-12
1.55999e-11
1.98599e-12
-6.73002e-12
-2.9451e-12
-1.28188e-12
-5.81299e-13
-2.70514e-13
-1.30755e-13
-6.50423e-14
-3.33259e-14
-1.72337e-14
-9.30871e-15
-5.18968e-15
-3.02558e-15
-1.95571e-15
-1.60395e-15
-1.90736e-15
-3.11601e-15
-6.14822e-15
-1.32498e-14
3.49904e-14
1.71893e-15
-6.7162e-15
-2.9513e-15
-9.80564e-16
-1.064e-16
-9.06142e-19
-1.01919e-44
-5.73104e-44
-2.13469e-43
-7.36393e-43
-2.49085e-42
-8.38429e-42
-2.81906e-41
-9.4589e-41
-3.15648e-40
-1.04726e-39
-3.50194e-39
-1.1591e-38
-3.83176e-38
-1.26485e-37
-4.1621e-37
-1.36332e-36
-4.48009e-36
-1.44887e-35
-4.65076e-35
-1.48336e-34
-4.74554e-34
-1.48584e-33
-4.69338e-33
-1.45314e-32
-4.46775e-32
-1.36078e-31
-4.10133e-31
-1.23925e-30
-3.65057e-30
-1.07561e-29
-3.14518e-29
-9.25656e-29
-2.62139e-28
-7.33632e-28
-2.02377e-27
-5.5536e-27
-1.49973e-26
-3.98155e-26
-1.0653e-25
-2.77525e-25
-7.08482e-25
-1.76337e-24
-4.26378e-24
-1.06029e-23
-2.65242e-23
-6.55008e-23
-1.57949e-22
-3.71852e-22
-8.5493e-22
-1.92058e-21
-4.22075e-21
-9.07987e-21
-1.91864e-20
-3.63449e-20
-7.41949e-20
-1.44163e-19
-2.97231e-19
-6.93438e-19
-1.80314e-18
-5.30756e-18
-1.81773e-17
-6.93272e-17
-3.25673e-16
-1.86469e-15
-1.09374e-14
-5.1079e-14
-1.92085e-13
-5.96687e-13
-1.50561e-12
-2.96613e-12
-4.07458e-12
-1.78121e-12
6.98559e-12
1.56263e-11
2.33906e-12
-6.7987e-12
-2.98844e-12
-1.29981e-12
-5.89102e-13
-2.73903e-13
-1.32335e-13
-6.58059e-14
-3.37044e-14
-1.74181e-14
-9.40491e-15
-5.24168e-15
-3.05455e-15
-1.97257e-15
-1.61481e-15
-1.91624e-15
-3.12628e-15
-6.16595e-15
-1.32828e-14
3.49683e-14
1.88711e-15
-6.75508e-15
-2.97595e-15
-9.8928e-16
-1.07763e-16
-9.156e-19
-1.09272e-44
-5.87254e-44
-2.18022e-43
-7.62173e-43
-2.57288e-42
-8.64847e-42
-2.90195e-41
-9.73371e-41
-3.26005e-40
-1.08706e-39
-3.61464e-39
-1.19926e-38
-3.97392e-38
-1.31662e-37
-4.35453e-37
-1.42678e-36
-4.64836e-36
-1.50556e-35
-4.84445e-35
-1.54758e-34
-4.90702e-34
-1.54295e-33
-4.81435e-33
-1.489e-32
-4.60292e-32
-1.40288e-31
-4.25158e-31
-1.26662e-30
-3.81492e-30
-1.11585e-29
-3.23691e-29
-9.26271e-29
-2.67655e-28
-7.45751e-28
-2.08649e-27
-5.73204e-27
-1.5342e-26
-3.99091e-26
-1.06233e-25
-2.83938e-25
-7.06204e-25
-1.75612e-24
-4.30373e-24
-1.07048e-23
-2.68686e-23
-6.61714e-23
-1.59255e-22
-3.74284e-22
-8.59135e-22
-1.92708e-21
-4.22801e-21
-9.08194e-21
-1.91641e-20
-3.62544e-20
-7.41317e-20
-1.4385e-19
-2.95869e-19
-6.88892e-19
-1.78759e-18
-5.24931e-18
-1.79311e-17
-6.81711e-17
-3.19116e-16
-1.82255e-15
-1.07031e-14
-5.01429e-14
-1.89057e-13
-5.88888e-13
-1.49066e-12
-2.94939e-12
-4.07782e-12
-1.84797e-12
6.851e-12
1.56424e-11
2.5902e-12
-6.84483e-12
-3.01896e-12
-1.31241e-12
-5.94582e-13
-2.76279e-13
-1.3344e-13
-6.63359e-14
-3.39675e-14
-1.75462e-14
-9.47176e-15
-5.27782e-15
-3.07466e-15
-1.9842e-15
-1.62217e-15
-1.92203e-15
-3.1326e-15
-6.17661e-15
-1.33019e-14
3.49376e-14
2.01291e-15
-6.78124e-15
-2.99318e-15
-9.95363e-16
-1.08744e-16
-9.22335e-19
-1.10455e-44
-6.06411e-44
-2.24489e-43
-7.74127e-43
-2.6227e-42
-8.85662e-42
-2.97547e-41
-9.98062e-41
-3.34393e-40
-1.118e-39
-3.72485e-39
-1.23709e-38
-4.0954e-38
-1.3522e-37
-4.46e-37
-1.45984e-36
-4.75017e-36
-1.53762e-35
-4.92385e-35
-1.56505e-34
-4.9638e-34
-1.55854e-33
-4.92061e-33
-1.51301e-32
-4.69944e-32
-1.42445e-31
-4.31248e-31
-1.30294e-30
-3.86657e-30
-1.13716e-29
-3.30012e-29
-9.67669e-29
-2.71811e-28
-7.57408e-28
-2.11882e-27
-5.71788e-27
-1.54983e-26
-4.03631e-26
-1.10773e-25
-2.89021e-25
-7.23557e-25
-1.78109e-24
-4.32527e-24
-1.08596e-23
-2.70326e-23
-6.65832e-23
-1.60128e-22
-3.75943e-22
-8.62018e-22
-1.93154e-21
-4.23354e-21
-9.08557e-21
-1.91553e-20
-3.62106e-20
-7.4118e-20
-1.43721e-19
-2.95234e-19
-6.86716e-19
-1.77988e-18
-5.21954e-18
-1.78009e-17
-6.75722e-17
-3.15753e-16
-1.80078e-15
-1.05804e-14
-4.96493e-14
-1.87436e-13
-5.84644e-13
-1.48238e-12
-2.9398e-12
-4.07926e-12
-1.88341e-12
6.77956e-12
1.56475e-11
2.72362e-12
-6.86833e-12
-3.03507e-12
-1.31906e-12
-5.97467e-13
-2.7753e-13
-1.34024e-13
-6.66167e-14
-3.41075e-14
-1.76143e-14
-9.50734e-15
-5.29705e-15
-3.08535e-15
-1.99037e-15
-1.62602e-15
-1.92498e-15
-3.13572e-15
-6.18177e-15
-1.33109e-14
3.49153e-14
2.08184e-15
-6.79507e-15
-3.0024e-15
-9.98617e-16
-1.09272e-16
-9.25948e-19
-1.12527e-44
-6.12645e-44
-2.27553e-43
-7.85578e-43
-2.65818e-42
-8.93982e-42
-2.99944e-41
-1.00578e-40
-3.37169e-40
-1.13441e-39
-3.7794e-39
-1.25503e-38
-4.14198e-38
-1.33854e-37
-4.55701e-37
-1.48177e-36
-4.8147e-36
-1.55602e-35
-5.00255e-35
-1.59908e-34
-5.07923e-34
-1.60055e-33
-5.00306e-33
-1.54778e-32
-4.71105e-32
-1.45525e-31
-4.38252e-31
-1.31669e-30
-3.95562e-30
-1.17011e-29
-3.39313e-29
-9.79975e-29
-2.75739e-28
-7.84526e-28
-2.15979e-27
-5.80669e-27
-1.57525e-26
-4.10385e-26
-1.11178e-25
-2.86061e-25
-7.31163e-25
-1.79937e-24
-4.39545e-24
-1.08914e-23
-2.71436e-23
-6.68447e-23
-1.60672e-22
-3.77008e-22
-8.63986e-22
-1.93493e-21
-4.23884e-21
-9.09242e-21
-1.91611e-20
-3.62078e-20
-7.41654e-20
-1.43764e-19
-2.95189e-19
-6.86376e-19
-1.77843e-18
-5.21351e-18
-1.77742e-17
-6.74461e-17
-3.15058e-16
-1.79641e-15
-1.05562e-14
-4.95534e-14
-1.87125e-13
-5.83832e-13
-1.48077e-12
-2.9379e-12
-4.07917e-12
-1.88927e-12
6.767e-12
1.5647e-11
2.74512e-12
-6.87139e-12
-3.03735e-12
-1.31998e-12
-5.97863e-13
-2.777e-13
-1.34101e-13
-6.66537e-14
-3.41258e-14
-1.76232e-14
-9.51194e-15
-5.29954e-15
-3.08673e-15
-1.99118e-15
-1.62655e-15
-1.92541e-15
-3.13622e-15
-6.18269e-15
-1.33127e-14
3.49145e-14
2.0906e-15
-6.79694e-15
-3.00358e-15
-9.99031e-16
-1.09334e-16
-9.26387e-19
-1.11991e-44
-6.13419e-44
-2.29348e-43
-7.91342e-43
-2.68187e-42
-9.03871e-42
-3.03874e-41
-1.01957e-40
-3.4136e-40
-1.14002e-39
-3.79749e-39
-1.26165e-38
-4.17426e-38
-1.36747e-37
-4.57277e-37
-1.49123e-36
-4.83961e-36
-1.54458e-35
-5.0623e-35
-1.60875e-34
-5.13086e-34
-1.61686e-33
-5.06307e-33
-1.57354e-32
-4.83276e-32
-1.46872e-31
-4.4224e-31
-1.33901e-30
-3.97987e-30
-1.17333e-29
-3.42641e-29
-9.83532e-29
-2.81471e-28
-7.83907e-28
-2.17767e-27
-5.88332e-27
-1.58287e-26
-4.15981e-26
-1.11877e-25
-2.91586e-25
-7.326e-25
-1.79768e-24
-4.43275e-24
-1.09308e-23
-2.71402e-23
-6.69819e-23
-1.60956e-22
-3.77628e-22
-8.65347e-22
-1.93787e-21
-4.24513e-21
-9.10559e-21
-1.91885e-20
-3.62601e-20
-7.43027e-20
-1.44049e-19
-2.95969e-19
-6.8854e-19
-1.7851e-18
-5.23706e-18
-1.78707e-17
-6.78882e-17
-3.17526e-16
-1.81221e-15
-1.06444e-14
-4.9904e-14
-1.88258e-13
-5.86739e-13
-1.48632e-12
-2.94407e-12
-4.07743e-12
-1.86358e-12
6.81764e-12
1.56404e-11
2.64741e-12
-6.85309e-12
-3.02503e-12
-1.31489e-12
-5.95646e-13
-2.76738e-13
-1.33653e-13
-6.64383e-14
-3.40185e-14
-1.7571e-14
-9.48476e-15
-5.28487e-15
-3.07861e-15
-1.98653e-15
-1.62371e-15
-1.92337e-15
-3.13431e-15
-6.17976e-15
-1.33083e-14
3.49413e-14
2.03306e-15
-6.78726e-15
-2.99665e-15
-9.96552e-16
-1.08911e-16
-9.2355e-19
-1.14098e-44
-6.09034e-44
-2.26545e-43
-7.83237e-43
-2.6588e-42
-8.97801e-42
-3.02183e-41
-1.01399e-40
-3.39144e-40
-1.13028e-39
-3.75231e-39
-1.24124e-38
-4.09779e-38
-1.35311e-37
-4.4652e-37
-1.46044e-36
-4.7145e-36
-1.52957e-35
-4.96955e-35
-1.58564e-34
-4.99551e-34
-1.60032e-33
-4.98056e-33
-1.5635e-32
-4.78504e-32
-1.44849e-31
-4.34809e-31
-1.32407e-30
-3.91674e-30
-1.15492e-29
-3.35819e-29
-9.59097e-29
-2.81178e-28
-7.78671e-28
-2.11967e-27
-5.69195e-27
-1.55672e-26
-3.97956e-26
-1.08927e-25
-2.90522e-25
-7.21624e-25
-1.7963e-24
-4.3628e-24
-1.09379e-23
-2.71459e-23
-6.69286e-23
-1.60899e-22
-3.77674e-22
-8.65862e-22
-1.93992e-21
-4.25151e-21
-9.12309e-21
-1.92332e-20
-3.63616e-20
-7.45254e-20
-1.44571e-19
-2.9755e-19
-6.93117e-19
-1.79949e-18
-5.28833e-18
-1.80838e-17
-6.88732e-17
-3.23033e-16
-1.84758e-15
-1.08408e-14
-5.06819e-14
-1.9077e-13
-5.93197e-13
-1.49863e-12
-2.95775e-12
-4.07385e-12
-1.80733e-12
6.92837e-12
1.56268e-11
2.43609e-12
-6.81338e-12
-2.99875e-12
-1.30402e-12
-5.90918e-13
-2.74688e-13
-1.32698e-13
-6.5978e-14
-3.37897e-14
-1.74599e-14
-9.42683e-15
-5.2536e-15
-3.06127e-15
-1.97659e-15
-1.61758e-15
-1.91885e-15
-3.12987e-15
-6.17277e-15
-1.3297e-14
3.49892e-14
1.91398e-15
-6.76585e-15
-2.98176e-15
-9.91257e-16
-1.08023e-16
-9.17562e-19
-1.12681e-44
-6.01272e-44
-2.23656e-43
-7.72645e-43
-2.61659e-42
-8.80825e-42
-2.95793e-41
-9.91478e-41
-3.31488e-40
-1.10569e-39
-3.67932e-39
-1.22086e-38
-4.03783e-38
-1.33194e-37
-4.3744e-37
-1.42274e-36
-4.68938e-36
-1.51305e-35
-4.86468e-35
-1.55517e-34
-4.95217e-34
-1.57438e-33
-4.92974e-33
-1.52892e-32
-4.69703e-32
-1.42981e-31
-4.31197e-31
-1.29042e-30
-3.88602e-30
-1.14324e-29
-3.33375e-29
-9.53566e-29
-2.74114e-28
-7.64917e-28
-2.11893e-27
-5.78766e-27
-1.54794e-26
-3.98962e-26
-1.08392e-25
-2.89037e-25
-7.21725e-25
-1.76687e-24
-4.34394e-24
-1.09464e-23
-2.70334e-23
-6.66959e-23
-1.60535e-22
-3.7722e-22
-8.65699e-22
-1.94145e-21
-4.25892e-21
-9.14713e-21
-1.93004e-20
-3.65204e-20
-7.48492e-20
-1.4536e-19
-3.00024e-19
-7.00407e-19
-1.82272e-18
-5.37168e-18
-1.84287e-17
-7.04655e-17
-3.31934e-16
-1.90441e-15
-1.11543e-14
-5.19171e-14
-1.94741e-13
-6.03341e-13
-1.51784e-12
-2.97873e-12
-4.06754e-12
-1.71931e-12
7.09872e-12
1.55984e-11
2.11521e-12
-6.75164e-12
-2.95934e-12
-1.28773e-12
-5.83832e-13
-2.71616e-13
-1.31268e-13
-6.52912e-14
-3.34487e-14
-1.7294e-14