/*--------------------------------*- C++ -*----------------------------------*\
  =========                 |
  \\      /  F ield         | OpenFOAM: The Open Source CFD Toolbox
   \\    /   O peration     | Website:  https://openfoam.org
    \\  /    A nd           | Version:  10
     \\/     M anipulation  |
\*---------------------------------------------------------------------------*/
FoamFile
{
    format      ascii;
    class       volScalarField;
    location    "1";
    object      RR.C2H2;
}
// * * * * * * * * * * * * * * * * * * * * * * * * * * * * * * * * * * * * * //

dimensions      [1 -3 -1 0 0 0 0];

internalField   nonuniform List<scalar> 
4000
(
-6.33057e-40
1.0155e-40
6.12785e-40
2.06685e-39
9.91796e-38
-2.80454e-37
-1.10736e-36
2.93701e-36
-9.21871e-36
-3.37053e-36
-6.67468e-35
-1.7794e-35
-7.54707e-34
-1.40731e-33
-7.65874e-34
-1.31515e-32
-2.00347e-34
-1.09818e-31
-5.8654e-32
-9.18625e-31
4.28721e-31
-7.79236e-30
1.31376e-30
2.00465e-30
-3.10228e-28
-5.67717e-29
-2.89199e-27
-6.96418e-28
-2.01294e-26
1.14439e-26
3.15065e-26
-1.10026e-25
-2.51314e-25
3.844e-25
-3.9484e-24
-3.51808e-24
-2.33841e-23
3.59422e-23
1.16764e-23
5.15646e-21
1.79882e-20
7.76197e-20
2.76766e-19
1.24234e-18
8.05663e-18
4.99537e-17
2.85825e-16
1.23267e-15
9.01438e-16
-5.8633e-14
-8.38122e-13
-8.02204e-12
-4.98394e-11
-3.09565e-10
-1.63441e-09
-7.32302e-09
-2.78932e-08
-1.0184e-07
-3.42121e-07
-1.05229e-06
-2.93621e-06
-7.04952e-06
-1.49003e-05
-2.57432e-05
-3.94971e-05
-6.39836e-05
-0.000108345
-0.000222767
-0.000512945
-0.00109518
-0.00161747
0.000853674
0.0211909
0.111018
0.387195
0.784716
1.11503
1.97772
3.77118
5.533
5.81267
4.3393
1.53005
-2.10472
-5.06242
-3.08605
-1.71062
-0.948444
-0.521301
-0.28172
-0.148916
-0.0748965
-0.0370776
-0.0160743
-0.00516665
-0.00127808
-0.000298608
-7.03958e-05
-1.3924e-05
-9.25124e-07
-9.22846e-40
1.69591e-40
-1.17705e-38
-4.40215e-38
-1.57035e-37
5.60225e-39
-1.04376e-36
8.89801e-38
-7.5532e-36
2.56769e-36
-5.551e-35
-2.62255e-35
-5.16733e-34
1.66478e-35
-4.55904e-33
1.69619e-33
-3.60613e-32
-1.49207e-31
1.6846e-32
-1.35541e-30
1.22776e-31
-1.13457e-29
-4.29337e-29
-1.37889e-30
-3.80666e-28
4.14774e-30
2.19607e-28
-1.5422e-27
3.60039e-27
-1.04635e-25
-3.04336e-26
-2.1928e-26
-1.42739e-25
7.88518e-25
-2.75095e-24
4.07601e-24
2.63383e-23
-9.44082e-23
-1.91699e-21
-8.71441e-21
2.14062e-20
9.07524e-20
3.87295e-19
2.37007e-18
1.46737e-17
8.80499e-17
4.72417e-16
1.76181e-15
-1.91388e-15
-1.27393e-13
-1.32852e-12
-9.33279e-12
-6.67693e-11
-3.8835e-10
-1.96214e-09
-8.68344e-09
-3.11236e-08
-1.08981e-07
-3.55595e-07
-1.06539e-06
-2.93128e-06
-6.97721e-06
-1.4679e-05
-2.53688e-05
-3.87722e-05
-6.27077e-05
-0.000104918
-0.000213717
-0.000490285
-0.0010572
-0.00162899
0.000499571
0.0192827
0.104909
0.375617
0.782251
1.114
1.97717
3.78988
5.58104
5.86197
4.34454
1.45717
-2.24645
-5.09825
-3.02393
-1.67589
-0.928672
-0.509363
-0.274616
-0.144724
-0.0725798
-0.0357515
-0.0152157
-0.00477502
-0.00116647
-0.000274194
-6.51833e-05
-1.29498e-05
-8.61674e-07
-4.85987e-40
-2.53337e-40
-7.04644e-39
-2.62519e-38
6.321e-38
-2.23504e-37
4.73543e-37
-1.43216e-36
1.69982e-37
-1.16233e-35
2.50493e-36
7.13413e-36
-3.81183e-34
-1.67148e-33
-7.89228e-35
-1.12767e-32
-4.11699e-32
1.04188e-32
5.16688e-32
-1.32363e-30
1.70048e-31
6.3545e-31
-4.80224e-29
-1.82163e-29
-1.06104e-29
-1.58042e-27
7.34487e-28
-4.0044e-28
-3.4571e-27
-2.28122e-26
-4.36745e-25
2.46107e-25
-4.09546e-24
5.33376e-25
7.72956e-25
5.4832e-24
-1.47955e-23
-9.83959e-23
-1.80984e-21
1.07537e-20
5.24305e-21
9.27577e-20
6.12784e-19
3.56078e-18
2.22963e-17
1.22656e-16
6.43583e-16
2.07975e-15
-5.88878e-15
-1.89828e-13
-1.81621e-12
-1.27268e-11
-8.77816e-11
-5.13771e-10
-2.38987e-09
-9.43126e-09
-3.2768e-08
-1.12912e-07
-3.63512e-07
-1.07802e-06
-2.93448e-06
-6.93409e-06
-1.45161e-05
-2.50503e-05
-3.81988e-05
-6.16902e-05
-0.000102102
-0.000204901
-0.000469995
-0.00102618
-0.00163587
0.000190736
0.0175985
0.0990532
0.363319
0.779673
1.11433
1.98134
3.82136
5.6481
5.92903
4.34473
1.35003
-2.4546
-5.11231
-2.93658
-1.62618
-0.899447
-0.492662
-0.26451
-0.138764
-0.0693386
-0.0339355
-0.0140941
-0.0043133
-0.00104582
-0.00024919
-5.96716e-05
-1.19206e-05
-7.95455e-07
-5.04063e-40
-1.75796e-39
-6.91635e-39
1.92968e-38
-5.44172e-38
-1.92634e-38
-4.86183e-37
-1.72552e-36
-5.27341e-37
1.63026e-35
-5.56827e-35
-2.3775e-34
3.32617e-35
-1.67455e-33
-7.02002e-33
3.38175e-33
6.51945e-33
-2.33874e-31
-9.23666e-31
-1.23603e-31
-7.74608e-30
-2.74687e-29
7.03285e-30
-2.43194e-28
-3.91135e-29
4.81747e-28
-7.74574e-27
1.1702e-27
5.88373e-27
-8.06921e-28
-1.00344e-25
1.36086e-25
2.7826e-26
-1.60114e-23
-4.89965e-24
-1.25864e-22
-1.91337e-24
-9.46245e-22
-4.44648e-22
1.05098e-20
3.8375e-20
1.82162e-19
6.7683e-19
4.88826e-18
2.77156e-17
1.68685e-16
8.27982e-16
2.27588e-15
-1.23788e-14
-2.27415e-13
-2.08696e-12
-1.77676e-11
-1.19774e-10
-6.42256e-10
-2.84884e-09
-9.90078e-09
-3.43333e-08
-1.16726e-07
-3.71165e-07
-1.08583e-06
-2.92922e-06
-6.88057e-06
-1.43609e-05
-2.48054e-05
-3.77709e-05
-6.09212e-05
-9.99577e-05
-0.00019855
-0.000453574
-0.000998463
-0.00164166
-9.03634e-05
0.0161371
0.0941779
0.351498
0.780329
1.11784
1.99305
3.86361
5.72257
5.99211
4.34073
1.26047
-2.71108
-5.06058
-2.84309
-1.57491
-0.871202
-0.477525
-0.253182
-0.132484
-0.0661736
-0.0321677
-0.0130364
-0.00388919
-0.000941738
-0.000227267
-5.47758e-05
-1.09989e-05
-7.35788e-07
5.4156e-40
1.06479e-40
8.6179e-39
-3.09384e-38
-1.05559e-37
2.81268e-37
-9.55158e-37
3.8143e-37
9.0035e-36
-3.05873e-35
-1.32178e-34
2.88062e-34
-8.87294e-34
-4.09426e-33
-1.18324e-33
-2.93034e-32
-1.26298e-31
5.63804e-32
-8.18038e-32
-4.05841e-30
-3.47793e-31
-4.39659e-30
-1.25349e-28
5.20995e-29
-1.07887e-27
4.75667e-28
5.87369e-28
-3.17276e-26
-2.4295e-28
-3.16226e-25
1.00803e-25
-2.85954e-25
4.21222e-25
8.47102e-25
-5.83969e-24
-5.05434e-24
1.61861e-23
-2.2732e-22
-4.20055e-21
1.06736e-20
7.79453e-21
1.94797e-19
1.03113e-18
7.2113e-18
3.85513e-17
2.20118e-16
1.00368e-15
2.45254e-15
-1.44909e-14
-2.51442e-13
-2.75364e-12
-2.23072e-11
-1.48989e-10
-8.07335e-10
-3.02852e-09
-1.04564e-08
-3.59385e-08
-1.20198e-07
-3.77225e-07
-1.09492e-06
-2.93178e-06
-6.85335e-06
-1.42616e-05
-2.4628e-05
-3.74558e-05
-6.03513e-05
-9.85292e-05
-0.000194157
-0.000442471
-0.000978659
-0.0016444
-0.000278758
0.0150582
0.0902572
0.342925
0.779232
1.12056
2.00325
3.90175
5.78938
6.05212
4.33156
1.14332
-2.90558
-4.9988
-2.77627
-1.53663
-0.848955
-0.464466
-0.245739
-0.128156
-0.063907
-0.0308353
-0.0122263
-0.00357688
-0.000864848
-0.000210821
-5.10642e-05
-1.02744e-05
-6.92441e-07
-8.26194e-40
4.56313e-39
1.67241e-38
-5.52986e-38
2.5491e-38
5.39091e-37
-1.95561e-36
-3.04136e-37
2.02841e-35
-5.34844e-35
1.77034e-35
-5.32074e-34
-1.69229e-33
-3.22623e-34
-1.51529e-32
-5.5826e-32
1.48046e-32
-4.49493e-31
-1.98959e-30
1.34173e-31
-1.74391e-29
-5.5654e-29
-8.23135e-30
-5.09132e-28
-4.9745e-30
1.09186e-28
9.5231e-28
2.43456e-27
-1.37705e-25
9.82422e-27
-1.00347e-24
-2.85894e-25
9.1876e-25
-4.63085e-25
-6.91546e-23
4.04571e-24
-5.32787e-22
-1.43656e-23
5.03431e-21
2.04657e-20
5.4798e-20
2.92325e-19
1.2639e-18
8.92971e-18
5.00839e-17
2.72847e-16
1.24295e-15
2.53576e-15
-1.75897e-14
-3.30671e-13
-3.43728e-12
-2.71259e-11
-1.70801e-10
-8.95781e-10
-3.29679e-09
-1.1099e-08
-3.72032e-08
-1.23293e-07
-3.82006e-07
-1.09931e-06
-2.92547e-06
-6.81473e-06
-1.41585e-05
-2.44706e-05
-3.72144e-05
-5.9965e-05
-9.7429e-05
-0.000190374
-0.000432336
-0.000962264
-0.00164511
-0.000421373
0.0142424
0.087535
0.336986
0.777835
1.12191
2.00939
3.92962
5.84344
6.10195
4.32545
1.05117
-3.05427
-4.94289
-2.73032
-1.51001
-0.83321
-0.454998
-0.24044
-0.125042
-0.0623143
-0.0298734
-0.0116464
-0.00336152
-0.000812214
-0.000199402
-4.84377e-05
-9.77752e-06
-6.59842e-07
-1.99227e-39
-6.86035e-39
-2.96895e-38
-1.14172e-37
2.67239e-37
-9.99654e-37
1.95166e-37
-7.22939e-36
-2.87898e-35
1.87984e-36
-2.48423e-34
-8.57499e-34
2.96557e-35
-8.3609e-33
-2.81681e-32
-1.872e-34
-2.72886e-31
-1.03789e-30
-2.32676e-31
-8.04633e-30
3.21512e-30
1.34697e-30
-2.78804e-28
-9.12096e-29
-1.94152e-27
-8.89197e-28
-3.12241e-27
-5.93527e-27
8.56921e-28
3.44011e-26
-1.80566e-25
-3.22634e-25
-5.33222e-25
6.22092e-25
-9.98031e-24
1.25774e-23
1.24618e-22
-2.32018e-21
-8.07378e-21
1.99428e-20
5.25218e-20
2.25099e-19
2.33495e-18
1.12579e-17
6.19147e-17
3.30801e-16
1.39734e-15
2.66176e-15
-2.28139e-14
-4.09192e-13
-4.00902e-12
-3.05857e-11
-1.8748e-10
-9.5989e-10
-3.47969e-09
-1.15878e-08
-3.8218e-08
-1.25205e-07
-3.84969e-07
-1.10041e-06
-2.91366e-06
-6.76869e-06
-1.40491e-05
-2.43144e-05
-3.69782e-05
-5.9596e-05
-9.64869e-05
-0.000187286
-0.000424516
-0.000947996
-0.00164355
-0.000542911
0.0135198
0.0849212
0.330854
0.775654
1.12137
2.00984
3.94536
5.88418
6.14538
4.32858
0.988354
-3.15938
-4.90117
-2.70038
-1.49263
-0.822866
-0.448712
-0.236927
-0.122958
-0.061261
-0.0292228
-0.0112495
-0.00321505
-0.000776883
-0.000191673
-4.66703e-05
-9.44091e-06
-6.37681e-07
2.14553e-39
-1.64592e-38
2.87534e-40
-1.11617e-37
-4.38571e-37
1.01151e-37
-3.47085e-36
-1.36492e-35
-4.76455e-36
-1.26656e-34
-5.2084e-34
1.35168e-33
-3.88307e-33
1.17491e-33
3.85206e-32
-1.08216e-31
-2.59722e-32
-1.09017e-30
-3.82353e-30
5.00269e-31
-3.3708e-29
1.45382e-29
5.57204e-29
-1.05018e-27
-3.80513e-28
-8.52581e-27
-3.41107e-27
-6.59106e-26
-1.33269e-26
-6.15828e-25
2.42475e-25
1.00904e-24
-3.08788e-25
6.90196e-24
1.29236e-23
-2.54592e-22
9.83774e-23
-2.23235e-21
-8.34952e-21
4.47371e-21
9.17932e-20
4.01382e-19
2.4166e-18
1.31137e-17
7.53003e-17
3.91501e-16
1.45981e-15
2.57972e-15
-3.02849e-14
-4.93476e-13
-4.72741e-12
-3.45206e-11
-2.04878e-10
-1.02228e-09
-3.64463e-09
-1.19653e-08
-3.89745e-08
-1.26454e-07
-3.85809e-07
-1.09632e-06
-2.89116e-06
-6.70574e-06
-1.39159e-05
-2.41428e-05
-3.67122e-05
-5.91296e-05
-9.5456e-05
-0.000184229
-0.000416617
-0.000933134
-0.00163948
-0.00065709
0.0127859
0.0821381
0.323891
0.772235
1.11864
2.00333
3.94682
5.91106
6.18386
4.34401
0.957331
-3.22312
-4.87735
-2.68389
-1.48293
-0.816996
-0.445074
-0.23488
-0.12172
-0.0606371
-0.0288212
-0.010998
-0.00312229
-0.000754516
-0.00018682
-4.55465e-05
-9.22699e-06
-6.23603e-07
-3.50369e-39
-1.29578e-38
-5.49336e-38
-1.92319e-38
5.80376e-37
-1.80531e-36
4.84424e-37
-1.41765e-35
-6.04178e-35
2.90746e-35
-4.94779e-34
-2.00323e-33
-5.52882e-34
-1.52531e-32
-1.37531e-33
-1.37401e-31
-4.54627e-31
-1.65642e-31
-3.52257e-30
-1.50657e-29
4.64529e-30
-1.35587e-28
1.72842e-29
-9.35684e-28
-4.47552e-28
7.12614e-28
-3.18023e-26
4.18961e-27
-2.36323e-25
-2.64444e-26
-1.9346e-24
-4.12696e-25
-5.13893e-25
1.74752e-24
7.90502e-24
4.36351e-24
5.94079e-23
2.81559e-21
1.12937e-20
6.25661e-21
1.07828e-19
4.3944e-19
3.19342e-18
1.67835e-17
8.44781e-17
3.83981e-16
1.57201e-15
2.48493e-15
-3.86885e-14
-5.89432e-13
-5.36534e-12
-3.79488e-11
-2.1965e-10
-1.07337e-09
-3.76574e-09
-1.22273e-08
-3.94329e-08
-1.26869e-07
-3.84429e-07
-1.08678e-06
-2.85492e-06
-6.60617e-06
-1.37266e-05
-2.388e-05
-3.6355e-05
-5.8616e-05
-9.41238e-05
-0.000180635
-0.000406748
-0.00091489
-0.00163085
-0.00078748
0.0119708
0.0790534
0.315991
0.767475
1.11372
1.98996
3.93446
5.9256
6.21939
4.37251
0.955845
-3.2512
-4.87071
-2.67856
-1.47954
-0.814781
-0.443588
-0.234007
-0.121156
-0.0603512
-0.0286193
-0.0108599
-0.00306912
-0.000741785
-0.000184074
-4.4912e-05
-9.10663e-06
-6.15702e-07
-3.61963e-39
1.94687e-38
6.65519e-38
-2.23572e-37
1.11765e-37
2.36998e-36
-8.27489e-36
2.07413e-36
-5.44883e-35
-2.37592e-34
-3.35964e-35
-1.92816e-33
-7.53682e-33
1.84991e-32
-6.8088e-32
-2.95446e-32
-5.42415e-31
-2.05375e-30
-6.76838e-31
-1.4442e-29
1.82833e-30
1.11702e-31
-4.7303e-28
2.21208e-28
-4.29623e-27
1.81685e-27
-2.88463e-26
1.26319e-26
-3.39513e-26
5.85953e-26
-2.87377e-25
9.45818e-25
-2.40686e-24
7.76814e-24
-1.30833e-22
6.45808e-24
-1.03509e-21
2.1758e-22
9.71904e-21
4.36025e-20
9.76641e-20
5.93603e-19
3.56772e-18
1.79444e-17
8.80988e-17
4.48642e-16
1.73912e-15
2.24129e-15
-4.8848e-14
-6.86429e-13
-6.03883e-12
-4.15539e-11
-2.34019e-10
-1.10689e-09
-3.84711e-09
-1.24173e-08
-3.96509e-08
-1.26634e-07
-3.8159e-07
-1.07469e-06
-2.81649e-06
-6.50892e-06
-1.35138e-05
-2.36035e-05
-3.59604e-05
-5.79835e-05
-9.27552e-05
-0.000176965
-0.000397137
-0.00089528
-0.00162233
-0.000898079
0.0111924
0.075817
0.30651
0.76051
1.10606
1.96914
3.90964
5.93023
6.25349
4.41277
0.979149
-3.25053
-4.87837
-2.68204
-1.48113
-0.815436
-0.443791
-0.234046
-0.121113
-0.0603264
-0.0285709
-0.0108081
-0.00304662
-0.000736288
-0.000182914
-4.4645e-05
-9.05664e-06
-6.12451e-07
4.97892e-39
-3.24563e-38
-8.49419e-39
-2.4234e-37
-9.54336e-37
-6.01859e-38
-6.65918e-36
-2.79728e-35
1.06841e-35
-2.47391e-34
-1.06008e-33
2.42259e-33
-8.42971e-33
3.72686e-33
-5.85649e-32
-2.39484e-31
7.3965e-32
-1.83084e-30
8.69216e-31
1.6161e-30
-5.84261e-29
2.23115e-29
-5.08134e-28
1.70761e-28
-4.06593e-27
-1.7997e-27
-5.49584e-27
2.00599e-27
5.33133e-26
-3.94224e-26
-1.98101e-25
5.19135e-25
-8.02372e-25
1.85517e-24
-2.62737e-25
5.94704e-23
-1.09503e-21
4.0935e-23
1.1169e-20
2.40295e-20
3.11372e-20
7.72099e-19
3.66459e-18
1.81008e-17
1.01187e-16
5.05234e-16
1.91082e-15
1.7882e-15
-6.12012e-14
-8.10895e-13
-6.97773e-12
-4.73122e-11
-2.66508e-10
-1.11373e-09
-3.90188e-09
-1.25286e-08
-3.96368e-08
-1.25721e-07
-3.76807e-07
-1.05528e-06
-2.75864e-06
-6.37809e-06
-1.33044e-05
-2.33233e-05
-3.55689e-05
-5.73649e-05
-9.13862e-05
-0.00017309
-0.000387708
-0.00087702
-0.00160849
-0.00100238
0.0103828
0.0723939
0.297096
0.753235
1.09781
1.94598
3.87693
5.92559
6.28405
4.46033
1.02062
-3.22809
-4.89722
-2.69223
-1.48645
-0.818233
-0.445261
-0.234769
-0.121461
-0.060495
-0.0286376
-0.01082
-0.00304611
-0.000735957
-0.000182892
-4.46427e-05
-9.05747e-06
-6.1256e-07
-6.09564e-40
-3.16575e-38
-1.24075e-37
3.05597e-37
-1.04653e-36
-4.11034e-36
9.55934e-36
-3.19525e-35
2.56963e-36
3.17714e-34
-1.00711e-33
-6.92974e-35
-8.10092e-33
-3.06012e-32
-3.9506e-33
-2.4333e-31
-9.91946e-31
-9.51783e-32
-8.52811e-30
-3.70806e-30
-6.51945e-29
1.48138e-29
6.72353e-29
-2.17484e-27
-1.1396e-28
-1.65171e-26
1.93667e-27
-1.20985e-25
-1.09346e-26
-1.07664e-24
-6.42681e-26
-9.04589e-24
-3.11384e-24
2.00786e-24
8.65338e-24
6.20336e-23
-9.78383e-22
-4.25255e-21
1.07893e-20
1.18416e-20
1.90812e-19
6.33694e-19
4.35876e-18
2.08248e-17
1.15915e-16
5.62183e-16
2.05885e-15
1.26633e-15
-7.28393e-14
-9.2142e-13
-7.75795e-12
-5.17724e-11
-2.86124e-10
-1.10409e-09
-3.94456e-09
-1.25929e-08
-3.94663e-08
-1.24499e-07
-3.71428e-07
-1.03923e-06
-2.71022e-06
-6.26397e-06
-1.30659e-05
-2.30298e-05
-3.51763e-05
-5.67536e-05
-9.00814e-05
-0.000169406
-0.000378263
-0.000859642
-0.00159105
-0.00110574
0.00960757
0.0691776
0.287896
0.745196
1.08882
1.9199
3.83796
5.9143
6.31186
4.51244
1.07461
-3.18967
-4.92373
-2.7075
-1.49472
-0.822748
-0.447698
-0.236001
-0.1221
-0.0608111
-0.028792
-0.0108786
-0.00306134
-0.000739259
-0.000183664
-4.48239e-05
-9.09348e-06
-6.15002e-07
-7.31088e-39
-3.25845e-38
-1.04199e-37
-5.526e-38
1.25023e-36
-3.94486e-36
-1.72482e-36
-3.04189e-35
-1.27206e-34
1.53768e-35
-1.01109e-33
-3.5937e-33
-1.41267e-33
-3.41692e-32
1.327e-32
-2.65987e-31
-9.38941e-31
2.564e-31
-8.05151e-30
-1.00162e-30
-1.21924e-30
-2.79324e-28
7.09881e-29
-2.25897e-27
-6.99996e-28
-1.69508e-26
3.79379e-27
-1.33162e-25
-5.42454e-26
-4.70014e-26
-4.17438e-25
-7.41584e-24
-2.76123e-25
-6.12883e-23
2.69377e-23
4.74622e-24
7.81933e-23
-3.82211e-21
9.6834e-21
1.23578e-20
1.19706e-19
8.07026e-19
4.20319e-18
2.39077e-17
1.27393e-16
6.09655e-16
2.19539e-15
9.46685e-16
-8.00449e-14
-9.83024e-13
-8.11835e-12
-5.32849e-11
-2.89578e-10
-1.09675e-09
-4.00086e-09
-1.26354e-08
-3.92027e-08
-1.22884e-07
-3.65458e-07
-1.02018e-06
-2.66335e-06
-6.15211e-06
-1.28474e-05
-2.27337e-05
-3.47726e-05
-5.61183e-05
-8.87555e-05
-0.000165729
-0.000368499
-0.000840242
-0.00157379
-0.0011909
0.00891159
0.066078
0.278286
0.735891
1.07892
1.89249
3.79526
5.89746
6.3373
4.56959
1.13934
-3.1401
-4.95535
-2.72604
-1.50478
-0.828285
-0.450779
-0.237589
-0.122933
-0.0612154
-0.0289961
-0.0109659
-0.00308673
-0.000745108
-0.000185019
-4.51436e-05
-9.15629e-06
-6.19209e-07
-7.88976e-39
3.57537e-38
-1.09098e-37
-5.03048e-37
1.20283e-36
-4.03364e-36
-1.41181e-35
4.02423e-35
-1.28482e-34
1.44928e-35
1.2327e-33
-3.60736e-33
-1.14143e-33
-3.15288e-32
-1.32829e-31
2.98546e-32
-1.10077e-30
1.75337e-32
-7.92699e-30
-3.36839e-29
7.63073e-30
-2.22134e-28
-8.32513e-29
-1.86212e-27
8.19792e-28
3.63731e-27
-3.25452e-27
1.01996e-26
-5.06495e-26
1.56831e-25
1.44761e-25
-6.87787e-26
-3.29693e-24
-7.25365e-23
-3.28737e-24
-5.63313e-22
-7.83665e-24
-4.57177e-21
1.00746e-20
7.45041e-21
1.18823e-19
9.81196e-19
4.92753e-18
2.63681e-17
1.38568e-16
6.61775e-16
2.31471e-15
7.49489e-16
-8.53295e-14
-1.02484e-12
-8.34315e-12
-5.41502e-11
-2.9053e-10
-1.08871e-09
-4.03734e-09
-1.26499e-08
-3.8917e-08
-1.21455e-07
-3.60202e-07
-1.00213e-06
-2.61089e-06
-6.03528e-06
-1.26448e-05
-2.24572e-05
-3.44043e-05
-5.55357e-05
-8.75316e-05
-0.000162628
-0.000359911
-0.000822254
-0.00155639
-0.00126665
0.0082723
0.0632672
0.269657
0.726516
1.06927
1.8653
3.75025
5.87756
6.36099
4.62676
1.20695
-3.08499
-4.98858
-2.746
-1.51561
-0.834256
-0.454099
-0.239306
-0.123851
-0.0616679
-0.0292332
-0.0110732
-0.00311954
-0.000752472
-0.000186686
-4.55328e-05
-9.23212e-06
-6.24271e-07
-7.16893e-39
3.87721e-38
-1.03262e-37
-4.79622e-37
1.84287e-37
-4.12741e-36
-1.59952e-35
9.34395e-37
-1.08056e-34
-4.34418e-34
-3.08581e-35
-3.77853e-33
-1.68137e-33
4.18118e-32
-1.19552e-31
5.676e-32
-9.77354e-31
-3.66126e-30
-7.19526e-31
-2.9757e-29
-8.11844e-30
-2.61934e-28
8.99805e-29
-1.29221e-28
1.53196e-28
8.40428e-28
-7.25131e-27
-1.17864e-26
-3.61548e-26
-1.14173e-25
2.00697e-25
3.98023e-25
1.51216e-24
5.67019e-24
-2.4776e-23
-4.95576e-22
-2.3897e-22
-4.2515e-21
1.97024e-21
6.06939e-21
2.73543e-19
1.02788e-18
5.00529e-18
2.8579e-17
1.47366e-16
6.90042e-16
2.38362e-15
5.40011e-16
-8.94162e-14
-1.05806e-12
-8.51984e-12
-5.46731e-11
-2.90709e-10
-1.0816e-09
-4.05414e-09
-1.26243e-08
-3.85345e-08
-1.19846e-07
-3.54353e-07
-9.85523e-07
-2.56482e-06
-5.92935e-06
-1.24444e-05
-2.22019e-05
-3.40651e-05
-5.49994e-05
-8.64209e-05
-0.000159625
-0.000352091
-0.000805977
-0.0015399
-0.00132893
0.00771571
0.060702
0.261801
0.717516
1.06033
1.83994
3.7083
5.85764
6.38118
4.67931
1.27103
-3.03116
-5.01961
-2.76529
-1.52612
-0.840064
-0.45734
-0.240988
-0.124749
-0.0621084
-0.0294657
-0.0111805
-0.00315225
-0.000760032
-0.000188393
-4.59319e-05
-9.30983e-06
-6.29459e-07
-6.73919e-39
4.33232e-38
1.34315e-37
-4.19371e-37
-1.73954e-36
4.83969e-36
-1.41705e-35
1.94682e-36
-1.10294e-34
-4.28154e-34
7.15604e-35
-3.95652e-33
-1.6461e-32
2.98198e-33
-1.14806e-31
-2.57694e-32
-8.90182e-31
-4.21772e-30
1.81193e-30
-3.19859e-29
1.48396e-29
-2.35605e-28
8.34861e-30
-3.10716e-28
-7.26458e-27
3.29807e-27
-7.24776e-26
1.55188e-26
-5.24648e-25
4.69297e-26
-2.94575e-25
-6.95263e-25
1.26036e-24
-1.11317e-23
-2.31807e-23
-5.80809e-22
-1.72133e-22
-4.67502e-21
1.95317e-20
1.19677e-20
2.01088e-19
1.00619e-18
5.66165e-18
2.8789e-17
1.54065e-16
7.18697e-16
2.45111e-15
4.6315e-16
-9.23244e-14
-1.07984e-12
-8.62989e-12
-5.4999e-11
-2.90594e-10
-1.0754e-09
-4.06166e-09
-1.25866e-08
-3.81754e-08
-1.18263e-07
-3.49122e-07
-9.69727e-07
-2.52453e-06
-5.8405e-06
-1.22797e-05
-2.19894e-05
-3.37786e-05
-5.4544e-05
-8.54938e-05
-0.000157178
-0.000345521
-0.000791755
-0.0015251
-0.00137894
0.00725244
0.0585936
0.255229
0.709607
1.0528
1.81871
3.67206
5.8392
6.39729
4.72394
1.32715
-2.9827
-5.04642
-2.78254
-1.53552
-0.84528
-0.46026
-0.24251
-0.125574
-0.0625115
-0.0296801
-0.0112808
-0.00318315
-0.000767141
-0.00018999
-4.63044e-05
-9.38212e-06
-6.34275e-07
-7.65508e-39
1.96269e-39
1.60055e-37
-4.1588e-37
-1.73637e-36
4.59461e-36
-1.43871e-35
-6.17157e-35
1.39308e-34
-4.97802e-34
-1.90558e-34
-3.72749e-33
-1.40201e-32
-6.68231e-33
-1.19337e-31
-5.27663e-31
-2.33155e-31
-3.71021e-30
8.61651e-31
-2.93336e-29
-1.8811e-30
7.16696e-30
-9.00958e-28
3.15513e-28
-8.25113e-27
2.26801e-27
-6.22087e-26
2.48892e-26
-4.60483e-25
2.01545e-25
-3.95362e-24
-1.61795e-24
-7.72257e-25
-4.68643e-24
-2.39261e-23
-5.37197e-22
-2.49411e-22
5.56363e-21
2.30592e-20
1.24097e-20
2.06591e-19
1.18346e-18
5.64741e-18
3.03903e-17
1.60187e-16
7.37673e-16
2.49635e-15
3.3877e-16
-9.46131e-14
-1.09676e-12
-8.71252e-12
-5.52309e-11
-2.90449e-10
-1.07078e-09
-4.06329e-09
-1.25472e-08
-3.78668e-08
-1.1709e-07
-3.45285e-07
-9.5842e-07
-2.49469e-06
-5.76917e-06
-1.21421e-05
-2.18001e-05
-3.35379e-05
-5.41656e-05
-8.47289e-05
-0.000155159
-0.000340004
-0.000780496
-0.00151272
-0.0014148
0.00690929
0.0569883
0.250136
0.703193
1.04686
1.80197
3.64287
5.82336
6.40918
4.76001
1.373
-2.9426
-5.06788
-2.79676
-1.54328
-0.849583
-0.46267
-0.243767
-0.126252
-0.0628419
-0.029855
-0.0113632
-0.00320945
-0.000773111
-0.00019133
-4.66168e-05
-9.44273e-06
-6.38314e-07
-7.36138e-39
-2.34947e-41
1.41033e-37
-4.34054e-37
-1.71993e-36
5.4317e-36
-1.43284e-35
-5.2907e-35
1.48496e-34
-4.5164e-34
-2.27772e-34
5.09742e-33
-1.45911e-32
9.47008e-34
-1.353e-31
-4.76238e-31
5.26078e-32
-3.60351e-30
-8.37438e-31
-2.8927e-29
-1.31852e-28
-4.6602e-30
-9.07557e-28
3.69879e-29
-8.59088e-27
3.26816e-27
-6.71905e-26
1.89289e-26
-4.54657e-25
-1.32566e-25
-3.917e-24
-1.80357e-25
-5.20617e-25
5.76245e-24
3.36036e-24
-4.41929e-24
1.30162e-22
5.76033e-21
2.07272e-20
8.39176e-20
2.08608e-19
1.19442e-18
5.66538e-18
3.04716e-17
1.62581e-16
7.55116e-16
2.54469e-15
2.78215e-16
-9.63337e-14
-1.10958e-12
-8.7734e-12
-5.54148e-11
-2.90427e-10
-1.06778e-09
-4.06368e-09
-1.25187e-08
-3.76562e-08
-1.16254e-07
-3.42515e-07
-9.50279e-07
-2.47334e-06
-5.72059e-06
-1.20496e-05
-2.16748e-05
-3.33752e-05
-5.39048e-05
-8.42049e-05
-0.000153796
-0.000336279
-0.000772825
-0.00150465
-0.0014395
0.00666881
0.0558743
0.246594
0.698602
1.04269
1.79022
3.62212
5.81171
6.41717
4.78521
1.40558
-2.91364
-5.08294
-2.80705
-1.5489
-0.852697
-0.464417
-0.244677
-0.126745
-0.0630826
-0.0299831
-0.0114242
-0.00322849
-0.000777482
-0.000192309
-4.68449e-05
-9.48692e-06
-6.41255e-07
9.47118e-39
-4.11777e-39
1.67763e-37
-4.25646e-37
-2.01951e-36
3.18469e-38
-1.3905e-35
-5.89116e-35
1.56382e-34
-4.88437e-34
-1.97852e-33
5.08195e-33
-1.47889e-32
1.28929e-33
-1.16812e-31
-5.51335e-31
-2.20049e-31
-4.0266e-30
-4.68781e-32
-2.79943e-29
-1.11581e-28
4.48917e-29
-1.073e-27
2.43105e-28
-7.57871e-27
-3.53229e-27
-6.98378e-26
1.62658e-26
-5.32733e-25
5.71362e-26
-3.96925e-24
-1.91263e-24
-3.2351e-24
1.13116e-23
1.09552e-23
-1.95215e-23
-1.46901e-23
5.04156e-21
2.21119e-20
8.23036e-20
2.04601e-19
1.20994e-18
5.69844e-18
3.10649e-17
1.66613e-16
7.61097e-16
2.57075e-15
1.74042e-16
-9.74413e-14
-1.11794e-12
-8.81488e-12
-5.55473e-11
-2.90544e-10
-1.06648e-09
-4.06575e-09
-1.25081e-08
-3.75568e-08
-1.15846e-07
-3.41121e-07
-9.46074e-07
-2.46204e-06
-5.69542e-06
-1.20021e-05
-2.16095e-05
-3.32889e-05
-5.37665e-05
-8.39277e-05
-0.000153068
-0.000334299
-0.000768666
-0.00149958
-0.00145162
0.00654533
0.0552923
0.244729
0.696132
1.04047
1.78397
3.61093
5.8052
6.42121
4.79874
1.42339
-2.89767
-5.09115
-2.81274
-1.55201
-0.854421
-0.465383
-0.245181
-0.127017
-0.0632154
-0.0300548
-0.0114577
-0.00323882
-0.000779861
-0.000192841
-4.69687e-05
-9.51095e-06
-6.42859e-07
1.00388e-38
-6.52568e-38
1.40789e-37
-4.26759e-37
-2.09634e-36
7.19662e-37
-1.4973e-35
-6.38849e-35
1.28085e-34
-5.0861e-34
-1.69416e-33
4.70477e-33
-1.66536e-32
-6.83924e-33
-1.2254e-31
-5.09118e-31
-1.53352e-32
-4.24035e-30
-8.16428e-31
-3.29508e-29
-1.38738e-28
-2.52831e-29
-1.12558e-27
-3.10945e-29
-7.52887e-27
-1.60673e-28
-6.28633e-26
-2.22766e-26
-5.79138e-25
1.04408e-25
-4.11675e-24
-1.11768e-24
-3.30234e-24
1.12206e-23
6.38015e-24
1.26166e-22
1.83932e-22
5.34805e-21
2.27033e-20
8.30345e-20
2.05685e-19
1.06975e-18
6.30968e-18
3.2759e-17
1.67701e-16
7.67683e-16
2.59435e-15
1.66707e-16
-9.81914e-14
-1.12381e-12
-8.84793e-12
-5.56798e-11
-2.90896e-10
-1.0668e-09
-4.07152e-09
-1.25159e-08
-3.75516e-08
-1.15782e-07
-3.40856e-07
-9.45221e-07
-2.4597e-06
-5.69001e-06
-1.19918e-05
-2.15953e-05
-3.327e-05
-5.37369e-05
-8.38718e-05
-0.000152931
-0.000333935
-0.000767935
-0.00149877
-0.00145362
0.00652524
0.055199
0.244433
0.695736
1.04012
1.78299
3.60918
5.80414
6.42177
4.80077
1.42609
-2.89524
-5.09243
-2.81364
-1.55249
-0.85469
-0.465532
-0.245259
-0.127059
-0.0632356
-0.0300655
-0.0114626
-0.00324041
-0.000780202
-0.000192915
-4.69853e-05
-9.51405e-06
-6.43061e-07
9.52281e-39
-5.31517e-38
-4.90611e-39
-5.01599e-37
-1.87884e-36
-7.82187e-37
-1.48746e-35
-6.31826e-35
-8.74444e-36
-4.43902e-34
-1.90803e-33
4.57229e-33
-1.3782e-32
2.59877e-33
-1.1307e-31
-4.83731e-31
-5.89613e-32
-4.01581e-30
-1.88281e-30
-2.92953e-29
-1.34522e-28
-1.74941e-29
-9.04349e-28
-2.41855e-28
-8.86047e-27
3.15243e-27
-6.81072e-26
-2.67184e-26
-4.62772e-25
2.04869e-25
-4.52856e-24
5.4156e-25
-3.16563e-23
4.95458e-24
2.61074e-23
-1.26936e-22
1.71863e-22
5.60724e-21
2.0581e-20
8.12227e-20
2.11078e-19
1.06182e-18
6.07069e-18
3.25766e-17
1.66161e-16
7.71648e-16
2.57552e-15
1.22947e-16
-9.86816e-14
-1.12799e-12
-8.87646e-12
-5.58423e-11
-2.91667e-10
-1.06942e-09
-4.08349e-09
-1.25519e-08
-3.76817e-08
-1.16197e-07
-3.4209e-07
-9.48654e-07
-2.46845e-06
-5.70932e-06
-1.20275e-05
-2.16424e-05
-3.33302e-05
-5.3833e-05
-8.40674e-05
-0.000153448
-0.000335345
-0.000770884
-0.00150242
-0.00144453
0.00661607
0.0556248
0.245796
0.697526
1.04171
1.7875
3.61725
5.80878
6.41877
4.7909
1.41307
-2.90695
-5.08655
-2.80952
-1.55025
-0.853441
-0.464829
-0.244892
-0.126859
-0.0631386
-0.0300124
-0.0114371
-0.00323214
-0.000778302
-0.00019249
-4.68864e-05
-9.49491e-06
-6.41789e-07
8.33526e-39
-6.98911e-39
1.3755e-37
-4.91092e-37
-2.00065e-36
2.90535e-38
-1.34869e-35
-5.81068e-35
1.63038e-34
-4.58817e-34
-1.77246e-33
4.39595e-33
-1.70745e-32
-7.80065e-34
-1.27918e-31
-4.93477e-31
1.94009e-31
-4.03609e-30
-1.10057e-30
-3.21296e-29
-1.22223e-28
5.30133e-29
-1.06046e-27
-4.42443e-28
-8.32458e-27
-3.47253e-28
-7.18458e-26
-1.50123e-26
-4.75939e-25
8.55105e-26
-4.61561e-24
-1.01665e-24
-3.38248e-23
-3.44861e-24
-3.01102e-23
8.05209e-23
3.01354e-23
4.85191e-21
2.25105e-20
8.22151e-20
2.02e-19
1.03738e-18
6.4021e-18
3.25685e-17
1.65765e-16
7.67338e-16
2.55623e-15
1.1508e-16
-9.87278e-14
-1.12979e-12
-8.89788e-12
-5.60166e-11
-2.9277e-10
-1.07421e-09
-4.10182e-09
-1.26165e-08
-3.79471e-08
-1.17083e-07
-3.44771e-07
-9.56158e-07
-2.48775e-06
-5.75219e-06
-1.21069e-05
-2.17476e-05
-3.34652e-05
-5.40471e-05
-8.45004e-05
-0.000154591
-0.000338454
-0.000777363
-0.0015096
-0.00142412
0.00681406
0.0565563
0.248776
0.701399
1.04521
1.7974
3.6349
5.81886
6.41224
4.76938
1.38479
-2.93234
-5.07358
-2.80058
-1.54536
-0.850726
-0.463304
-0.244097
-0.126428
-0.0629275
-0.0298995
-0.0113825
-0.00321461
-0.000774339
-0.000191602
-4.66788e-05
-9.45459e-06
-6.39102e-07
9.17268e-39
1.55708e-39
1.46406e-37
-4.1533e-37
-1.6795e-36
5.40227e-36
-1.5238e-35
-5.77731e-35
1.36846e-34
-5.13532e-34
2.17715e-34
4.75987e-33
-1.43879e-32
5.18314e-33
-1.32672e-31
-4.85246e-31
1.52672e-31
-3.81003e-30
-3.24293e-31
-2.86821e-29
-1.34008e-28
-4.36851e-29
-9.34971e-28
-1.27023e-28
-7.27288e-27
-2.61713e-27
-6.46808e-26
9.3388e-27
-5.73918e-25
-1.38484e-26
-3.81495e-24
-1.74976e-24
1.89358e-25
-1.11578e-23
-1.72893e-23
1.0615e-22
7.70266e-23
5.19904e-21
2.29149e-20
8.75655e-20
1.9676e-19
1.18129e-18
5.1112e-18
3.24284e-17
1.65208e-16
7.61043e-16
2.54986e-15
1.40884e-16
-9.858e-14
-1.12984e-12
-8.91714e-12
-5.62372e-11
-2.94386e-10
-1.08168e-09
-4.12838e-09
-1.27155e-08
-3.83689e-08
-1.18516e-07
-3.49147e-07
-9.68453e-07
-2.51914e-06
-5.82155e-06
-1.22343e-05
-2.19136e-05
-3.36776e-05
-5.43828e-05
-8.51824e-05
-0.000156391
-0.000343346
-0.000787498
-0.00152066
-0.00139207
0.00712886
0.0580073
0.253358
0.707189
1.05054
1.8125
3.66152
5.83374
6.40204
4.73695
1.34252
-2.97015
-5.05377
-2.78726
-1.53808
-0.846683
-0.461033
-0.242911
-0.125785
-0.0626148
-0.029731
-0.0113022
-0.00318923
-0.000768475
-0.000190287
-4.63718e-05
-9.39499e-06
-6.35132e-07
-7.05374e-39
-5.08072e-39
1.39704e-37
-4.97965e-37
-1.87118e-36
4.55278e-36
-1.37152e-35
-6.75124e-35
1.60175e-34
-5.2144e-34
-1.87318e-34
-4.04414e-33
-1.36178e-32
-6.72537e-33
-1.1781e-31
-5.1121e-31
-2.16508e-31
-4.10366e-30
-1.39159e-30
-3.4356e-29
-1.41923e-29
3.03748e-29
-9.82062e-28
3.66382e-30
-7.89905e-27
-1.60538e-27
-6.32488e-26
-3.78211e-28
-4.92687e-25
5.54484e-26
-3.68635e-24
9.59056e-25
3.35418e-25
-6.76548e-24
2.00835e-23
-6.02109e-22
-1.28671e-22
5.72838e-21
2.28228e-20
1.17084e-20
1.98912e-19
1.19094e-18
5.74077e-18
3.23775e-17
1.63102e-16
7.50427e-16
2.51376e-15
1.33328e-16
-9.791e-14
-1.1273e-12
-8.92635e-12
-5.64702e-11
-2.96433e-10
-1.09181e-09
-4.16185e-09
-1.28419e-08
-3.89207e-08
-1.20414e-07
-3.55e-07
-9.8501e-07
-2.56173e-06
-5.91649e-06
-1.24106e-05
-2.21352e-05
-3.39576e-05
-5.48212e-05
-8.60794e-05
-0.000158779
-0.000349785
-0.000800857
-0.00153456
-0.00134783
0.00754317
0.0599173
0.259368
0.714566
1.05754
1.83233
3.69596
5.85243
6.38816
4.69453
1.28771
-3.01862
-5.02755
-2.77018
-1.52876
-0.841505
-0.458127
-0.241394
-0.124964
-0.0622137
-0.0295174
-0.0112001
-0.00315707
-0.000761073
-0.000188625
-4.59837e-05
-9.31959e-06
-6.30107e-07
-8.15575e-39
6.23063e-39
1.61124e-37
-4.80523e-37
-2.03286e-36
4.74062e-36
-1.53014e-35
-3.2919e-36
1.38805e-34
-5.12765e-34
-2.01036e-34
-3.89059e-33
-1.69982e-32
6.1275e-33
-1.08648e-31
1.78587e-32
-9.42036e-31
-4.21299e-30
-5.94625e-31
-3.33517e-29
1.18626e-29
-1.92225e-28
-1.02365e-27
-2.10329e-28
-7.99394e-27
8.1081e-28
-6.41379e-26
1.14553e-26
-5.15457e-25
1.06529e-25
-4.47369e-24
3.60666e-25
2.73881e-24
-2.77265e-24
5.30997e-24
-5.75048e-22
2.48843e-22
-3.92474e-21
2.02282e-20
1.02468e-20
2.07604e-19
1.1992e-18
5.6453e-18
3.08827e-17
1.57014e-16
7.31681e-16
2.50274e-15
1.73155e-16
-9.67581e-14
-1.1205e-12
-8.91856e-12
-5.66811e-11
-2.98806e-10
-1.10409e-09
-4.19524e-09
-1.29901e-08
-3.95804e-08
-1.22687e-07
-3.61995e-07
-1.00466e-06
-2.61158e-06
-6.02507e-06
-1.26048e-05
-2.2386e-05
-3.42844e-05
-5.53299e-05
-8.71278e-05
-0.000161537
-0.000356906
-0.000816177
-0.00155039
-0.00129072
0.00805652
0.0622629
0.266679
0.723154
1.06598
1.85623
3.7365