/*--------------------------------*- C++ -*----------------------------------*\
  =========                 |
  \\      /  F ield         | OpenFOAM: The Open Source CFD Toolbox
   \\    /   O peration     | Website:  https://openfoam.org
    \\  /    A nd           | Version:  10
     \\/     M anipulation  |
\*---------------------------------------------------------------------------*/
FoamFile
{
    format      ascii;
    class       volScalarField;
    location    "1";
    object      RR.CO;
}
// * * * * * * * * * * * * * * * * * * * * * * * * * * * * * * * * * * * * * //

dimensions      [1 -3 -1 0 0 0 0];

internalField   nonuniform List<scalar> 
4000
(
1.09245e-36
4.48812e-36
1.66503e-35
5.66781e-35
1.88819e-34
6.02763e-34
1.84544e-33
5.49712e-33
1.61701e-32
4.78186e-32
1.45569e-31
4.29782e-31
1.24761e-30
3.61614e-30
1.05671e-29
3.09892e-29
9.02313e-29
2.78425e-28
8.35584e-28
2.53379e-27
7.72491e-27
2.37006e-26
7.36658e-26
2.28002e-25
7.11823e-25
2.21439e-24
6.72261e-24
2.13177e-23
6.50675e-23
1.98824e-22
6.06917e-22
1.84618e-21
5.5601e-21
1.67406e-20
5.05345e-20
1.46916e-19
4.53754e-19
1.39658e-18
4.47556e-18
1.50396e-17
5.17729e-17
1.91532e-16
7.3922e-16
3.0107e-15
1.27445e-14
6.11435e-14
3.17814e-13
1.68649e-12
8.94449e-12
4.6421e-11
2.33243e-10
1.15203e-09
4.69647e-09
2.0989e-08
8.78532e-08
3.28469e-07
1.05443e-06
3.12868e-06
8.11566e-06
1.82977e-05
3.61002e-05
6.18561e-05
9.61843e-05
0.000134264
0.000179442
0.000261564
0.00046473
0.000996081
0.00230093
0.00534283
0.0120852
0.026356
0.0554585
0.105173
0.165668
0.162541
0.127588
0.162009
0.302467
0.630874
1.3567
3.05655
6.43161
11.4647
15.5563
3.5915
-2.88551
-4.93032
-4.89479
-4.01838
-2.88334
-1.71763
-0.836485
-0.327293
-0.108624
-0.0357064
-0.0124674
-0.00435645
-0.00132589
-0.000148298
1.42666e-36
7.17402e-36
2.38281e-35
7.52106e-35
2.3254e-34
7.05807e-34
2.09037e-33
6.12266e-33
1.71629e-32
4.78448e-32
1.34427e-31
3.82862e-31
1.10536e-30
3.24499e-30
9.69323e-30
2.94203e-29
9.04494e-29
2.8233e-28
8.91124e-28
2.81999e-27
8.97081e-27
2.88167e-26
9.1811e-26
2.92652e-25
9.32252e-25
2.93971e-24
9.24975e-24
2.89216e-23
8.95356e-23
2.73725e-22
8.45342e-22
2.65386e-21
8.04926e-21
2.38691e-20
7.08725e-20
2.134e-19
6.35638e-19
1.98158e-18
6.13205e-18
2.0319e-17
7.1587e-17
2.64076e-16
1.04628e-15
4.27071e-15
1.98401e-14
9.73249e-14
5.06284e-13
2.65335e-12
1.39219e-11
7.2569e-11
3.221e-10
1.29795e-09
5.95914e-09
2.55371e-08
1.03653e-07
3.84743e-07
1.16757e-06
3.32607e-06
8.38951e-06
1.84879e-05
3.61044e-05
6.15628e-05
9.55415e-05
0.000133401
0.000177881
0.000257145
0.000449911
0.00095817
0.00220678
0.00512648
0.0117042
0.0256754
0.0544284
0.104406
0.16685
0.16685
0.130161
0.164173
0.306725
0.641925
1.38712
3.1458
6.62587
11.7731
15.4541
3.19326
-3.06549
-4.98456
-4.88212
-3.97086
-2.81808
-1.65225
-0.789996
-0.304302
-0.100328
-0.0331259
-0.0116198
-0.00407397
-0.00123947
-0.00013765
8.99412e-37
4.32127e-36
1.4055e-35
4.10322e-35
1.15637e-34
3.20355e-34
8.85774e-34
2.47551e-33
7.18238e-33
2.19414e-32
6.92292e-32
2.245e-31
7.41673e-31
2.47044e-30
8.26729e-30
2.7748e-29
9.31701e-29
3.13292e-28
1.05079e-27
3.49617e-27
1.16152e-26
3.83034e-26
1.25281e-25
4.06449e-25
1.29858e-24
4.12018e-24
1.29948e-23
4.11946e-23
1.27116e-22
3.86433e-22
1.21456e-21
3.65352e-21
1.07782e-20
3.22129e-20
9.64779e-20
2.84774e-19
8.40121e-19
2.53596e-18
7.97243e-18
2.57779e-17
8.99238e-17
3.20325e-16
1.36151e-15
5.62321e-15
2.71186e-14
1.31731e-13
6.91099e-13
3.59414e-12
1.80281e-11
9.1547e-11
3.98529e-10
1.63821e-09
7.4479e-09
3.25985e-08
1.24094e-07
4.15479e-07
1.22418e-06
3.43231e-06
8.5469e-06
1.86702e-05
3.61818e-05
6.14442e-05
9.51662e-05
0.000132856
0.000176939
0.00025407
0.000438337
0.000922314
0.00212561
0.00495957
0.011404
0.0250995
0.0536185
0.103957
0.168635
0.172325
0.133664
0.167499
0.313364
0.658489
1.43402
3.27645
6.90098
12.2271
15.1615
2.63908
-3.30588
-5.04395
-4.85099
-3.89526
-2.72032
-1.56083
-0.730577
-0.276621
-0.0910098
-0.0303069
-0.0107183
-0.00376534
-0.00114495
-0.000126268
5.48965e-37
2.73565e-36
9.32361e-36
2.88133e-35
8.72197e-35
2.66214e-34
8.25886e-34
2.72382e-33
8.98479e-33
2.97718e-32
1.01524e-31
3.42792e-31
1.18042e-30
3.99914e-30
1.35028e-29
4.55209e-29
1.52203e-28
5.07277e-28
1.67752e-27
5.50484e-27
1.80003e-26
5.83189e-26
1.87928e-25
6.00218e-25
1.92852e-24
6.0542e-24
1.88725e-23
5.84451e-23
1.75986e-22
5.47727e-22
1.64301e-21
4.90852e-21
1.44747e-20
4.27806e-20
1.26136e-19
3.68344e-19
1.07267e-18
3.24552e-18
1.00492e-17
3.26157e-17
1.14216e-16
4.19189e-16
1.75703e-15
7.42569e-15
3.35997e-14
1.72697e-13
8.96666e-13
4.55749e-12
2.35816e-11
1.02817e-10
4.38731e-10
2.11172e-09
9.62319e-09
3.95737e-08
1.45248e-07
4.35121e-07
1.27863e-06
3.53647e-06
8.70222e-06
1.87903e-05
3.61875e-05
6.1264e-05
9.4799e-05
0.000132467
0.000176331
0.000251937
0.000429769
0.000896893
0.0020621
0.00482051
0.0111428
0.0246216
0.0530174
0.103798
0.170514
0.177565
0.137537
0.171918
0.321968
0.678271
1.4835
3.40467
7.14919
12.7584
14.5998
2.08961
-3.51695
-5.07962
-4.81152
-3.80228
-2.6152
-1.47402
-0.675973
-0.251763
-0.0825698
-0.0278169
-0.00990444
-0.00348363
-0.00105879
-0.000115962
7.22476e-37
3.73931e-36
1.31536e-35
4.25605e-35
1.35876e-34
4.34298e-34
1.39809e-33
4.5373e-33
1.47104e-32
4.94648e-32
1.63618e-31
5.46828e-31
1.85255e-30
6.16065e-30
2.08968e-29
6.92567e-29
2.28375e-28
7.66275e-28
2.51925e-27
8.22169e-27
2.66289e-26
8.54894e-26
2.7211e-25
8.59838e-25
2.69674e-24
8.37418e-24
2.57808e-23
8.00567e-23
2.42072e-22
7.2631e-22
2.16427e-21
6.56404e-21
1.91079e-20
5.58974e-20
1.61762e-19
4.70135e-19
1.34988e-18
3.9223e-18
1.22693e-17
4.01892e-17
1.38401e-16
5.21189e-16
2.0733e-15
9.27593e-15
4.22996e-14
2.15692e-13
1.09772e-12
5.79256e-12
2.54372e-11
1.09398e-10
5.33877e-10
2.51675e-09
1.15136e-08
4.82733e-08
1.53614e-07
4.57754e-07
1.33348e-06
3.62937e-06
8.82057e-06
1.89202e-05
3.62489e-05
6.12138e-05
9.46297e-05
0.000132297
0.000176078
0.000250666
0.000424343
0.000879676
0.00202035
0.00472598
0.0109715
0.0243428
0.0527039
0.104058
0.172884
0.182838
0.141133
0.175876
0.329692
0.696179
1.53247
3.54126
7.43052
13.1894
14.0696
1.66956
-3.68095
-5.10321
-4.76782
-3.73002
-2.53265
-1.40472
-0.63301
-0.232663
-0.076268
-0.0259011
-0.0092689
-0.00326375
-0.000988969
-0.000108197
1.22143e-36
6.54908e-36
2.35923e-35
7.86394e-35
2.56855e-34
8.341e-34
2.70934e-33
8.80619e-33
2.8714e-32
9.3595e-32
3.05327e-31
9.87826e-31
3.28507e-30
1.06786e-29
3.46871e-29
1.13938e-28
3.69033e-28
1.19274e-27
3.86926e-27
1.23319e-26
3.9862e-26
1.25608e-25
3.91367e-25
1.21105e-24
3.75777e-24
1.16999e-23
3.54809e-23
1.06262e-22
3.23637e-22
9.54599e-22
2.80343e-21
8.43713e-21
2.4286e-20
6.96908e-20
1.98381e-19
5.68792e-19
1.62229e-18
4.66906e-18
1.46275e-17
4.98611e-17
1.68837e-16
6.17783e-16
2.49604e-15
1.1192e-14
5.18326e-14
2.58674e-13
1.36451e-12
6.23023e-12
2.75661e-11
1.2998e-10
6.27074e-10
2.93926e-09
1.29276e-08
5.29667e-08
1.66103e-07
4.83957e-07
1.37703e-06
3.71333e-06
8.91688e-06
1.89907e-05
3.62347e-05
6.10869e-05
9.44088e-05
0.000132111
0.000175862
0.000249799
0.000420245
0.000865019
0.00198284
0.00464946
0.0108397
0.0241117
0.0524445
0.104228
0.174539
0.186928
0.144004
0.178906
0.335714
0.710726
1.57197
3.65159
7.65207
13.5242
13.6295
1.36486
-3.79924
-5.11693
-4.72969
-3.67159
-2.46685
-1.35202
-0.60126
-0.218969
-0.0718655
-0.0245397
-0.00881089
-0.0031034
-0.00093971
-0.000102326
1.97283e-36
1.02561e-35
3.75063e-35
1.24179e-34
3.98794e-34
1.31152e-33
4.22072e-33
1.36527e-32
4.42281e-32
1.43323e-31
4.64736e-31
1.50639e-30
4.86792e-30
1.57456e-29
5.08657e-29
1.6449e-28
5.31676e-28
1.70331e-27
5.42097e-27
1.73805e-26
5.47957e-26
1.71874e-25
5.34111e-25
1.647e-24
5.02888e-24
1.52034e-23
4.58942e-23
1.34757e-22
4.07993e-22
1.21377e-21
3.53844e-21
1.02582e-20
2.95261e-20
8.45672e-20
2.37935e-19
6.81308e-19
1.98775e-18
5.69948e-18
1.79881e-17
5.83984e-17
2.01122e-16
7.53349e-16
3.04429e-15
1.29113e-14
6.07502e-14
3.02493e-13
1.49829e-12
6.33229e-12
3.11443e-11
1.49673e-10
7.02893e-10
3.23401e-09
1.39889e-08
5.63419e-08
1.746e-07
5.03921e-07
1.41216e-06
3.76585e-06
8.97903e-06
1.90191e-05
3.61709e-05
6.091e-05
9.41404e-05
0.00013188
0.000175587
0.000248878
0.000416556
0.000852614
0.00195292
0.00458214
0.0107124
0.0238853
0.0521404
0.104202
0.175761
0.190491
0.146522
0.181244
0.340047
0.721097
1.60051
3.73186
7.81491
13.7679
13.3105
1.15736
-3.87929
-5.12515
-4.70135
-3.62896
-2.41913
-1.31443
-0.578923
-0.20943
-0.0687959
-0.0235896
-0.0084879
-0.00299108
-0.000905076
-9.82072e-05
2.84644e-36
1.48911e-35
5.39937e-35
1.80301e-34
5.89621e-34
1.90822e-33
6.18446e-33
1.99919e-32
6.44967e-32
2.08651e-31
6.70498e-31
2.16178e-30
6.96057e-30
2.2442e-29
7.18311e-29
2.29936e-28
7.34866e-28
2.33104e-27
7.38927e-27
2.32422e-26
7.3046e-26
2.26773e-25
7.00226e-25
2.14124e-24
6.50566e-24
1.96419e-23
5.86381e-23
1.72796e-22
4.99783e-22
1.45141e-21
4.27418e-21
1.25278e-20
3.57526e-20
1.01126e-19
2.81669e-19
7.94546e-19
2.28949e-18
6.50631e-18
2.05084e-17
6.72428e-17
2.34327e-16
8.66919e-16
3.57328e-15
1.53577e-14
7.3387e-14
3.61072e-13
1.6068e-12
7.2996e-12
3.5568e-11
1.69187e-10
7.94614e-10
3.56405e-09
1.50887e-08
5.96251e-08
1.82297e-07
5.19482e-07
1.439e-06
3.8023e-06
9.00337e-06
1.89847e-05
3.602e-05
6.06321e-05
9.37574e-05
0.000131552
0.000175163
0.000247591
0.000412354
0.000839985
0.00192178
0.00451065
0.0105692
0.0236161
0.0517045
0.103873
0.176465
0.193799
0.148652
0.182744
0.342378
0.726836
1.61699
3.7808
7.91898
13.9275
13.1211
1.03244
-3.92998
-5.13077
-4.68341
-3.60134
-2.38761
-1.28963
-0.564184
-0.203145
-0.0667731
-0.0229599
-0.00827472
-0.00291589
-0.000881875
-9.5453e-05
3.74263e-36
1.97093e-35
7.1921e-35
2.40202e-34
7.84572e-34
2.54585e-33
8.2111e-33
2.64766e-32
8.54302e-32
2.76365e-31
8.87358e-31
2.84829e-30
9.10687e-30
2.92304e-29
9.31849e-29
2.95815e-28
9.3799e-28
2.96199e-27
9.27954e-27
2.95248e-26
9.18643e-26
2.80557e-25
8.75662e-25
2.64784e-24
8.0084e-24
2.42342e-23
7.2126e-23
2.13164e-22
6.22031e-22
1.79624e-21
5.10908e-21
1.47863e-20
4.186e-20
1.1849e-19
3.30731e-19
9.25527e-19
2.61859e-18
7.3814e-18
2.32172e-17
7.62789e-17
2.63118e-16
1.01008e-15
4.13376e-15
1.82036e-14
7.89389e-14
3.46903e-13
1.7306e-12
8.41297e-12
4.02592e-11
1.90952e-10
8.74169e-10
3.84675e-09
1.60164e-08
6.23167e-08
1.87989e-07
5.30476e-07
1.45619e-06
3.81819e-06
8.98875e-06
1.88847e-05
3.576e-05
6.01581e-05
9.31554e-05
0.000130948
0.000174459
0.000246028
0.000406769
0.00082471
0.0018816
0.00442103
0.0103718
0.0232239
0.0510716
0.1032
0.176641
0.196863
0.150513
0.183469
0.342814
0.72825
1.62235
3.80136
7.97144
14.0162
13.0494
0.974875
-3.95637
-5.13555
-4.67499
-3.58661
-2.36993
-1.2751
-0.555375
-0.199347
-0.0655366
-0.022574
-0.00814365
-0.00286952
-0.000867524
-9.3748e-05
4.58692e-36
2.4925e-35
8.99009e-35
2.97908e-34
9.87425e-34
3.1991e-33
1.03638e-32
3.34603e-32
1.07683e-31
3.45536e-31
1.11202e-30
3.57679e-30
1.14178e-29
3.63129e-29
1.15943e-28
3.62214e-28
1.17941e-27
3.70269e-27
1.15762e-26
3.59901e-26
1.10598e-25
3.45796e-25
1.05442e-24
3.19731e-24
9.61456e-24
2.8747e-23
8.54028e-23
2.50179e-22
7.39329e-22
2.14459e-21
6.14308e-21
1.73218e-20
4.84224e-20
1.3479e-19
3.72542e-19
1.03157e-18
2.8718e-18
8.16175e-18
2.57907e-17
8.36035e-17
2.87222e-16
1.09547e-15
4.5041e-15
1.88899e-14
8.10786e-14
4.01927e-13
1.96464e-12
9.48516e-12
4.54933e-11
2.11705e-10
9.55308e-10
4.14e-09
1.69167e-08
6.40884e-08
1.91856e-07
5.38669e-07
1.46554e-06
3.81742e-06
8.94636e-06
1.87499e-05
3.54718e-05
5.96705e-05
9.2422e-05
0.000130216
0.000173541
0.000243971
0.000400806
0.000808599
0.00184123
0.00432342
0.0100821
0.022833
0.0503551
0.10224
0.176277
0.199973
0.152337
0.183552
0.341623
0.726012
1.61845
3.7985
7.98193
14.0484
13.0737
0.969437
-3.96566
-5.14
-4.67432
-3.58211
-2.36244
-1.26848
-0.551059
-0.19741
-0.0648984
-0.0223742
-0.00807527
-0.00284511
-0.000859898
-9.28357e-05
5.54649e-36
2.98384e-35
1.08103e-34
3.61811e-34
1.1826e-33
3.83739e-33
1.23938e-32
4.00654e-32
1.28581e-31
4.11932e-31
1.34124e-30
4.29405e-30
1.3685e-29
4.37865e-29
1.39501e-28
4.4509e-28
1.4028e-27
4.39729e-27
1.36636e-26
4.26139e-26
1.2958e-25
4.0498e-25
1.23037e-24
3.71586e-24
1.10075e-23
3.32668e-23
9.76473e-23
2.85925e-22
8.41633e-22
2.43855e-21
6.96684e-21
1.96151e-20
5.44091e-20
1.52129e-19
4.15884e-19
1.14374e-18
3.18573e-18
8.9319e-18
2.84663e-17
9.08195e-17
3.1261e-16
1.17383e-15
4.70325e-15
1.97035e-14
9.30174e-14
4.55165e-13
2.22456e-12
1.07758e-11
5.10769e-11
2.36366e-10
1.06279e-09
4.59204e-09
1.89048e-08
6.44879e-08
1.94531e-07
5.43777e-07
1.46739e-06
3.79994e-06
8.86961e-06
1.85256e-05
3.50217e-05
5.89858e-05
9.16626e-05
0.000129412
0.000172533
0.000241869
0.000394766
0.000791227
0.00180078
0.00423097
0.00987398
0.0224
0.0494947
0.101
0.175529
0.202599
0.153844
0.183156
0.339326
0.72114
1.60774
3.77806
7.96041
14.0374
13.1723
1.00291
-3.96137
-5.1445
-4.67968
-3.58545
-2.3632
-1.26775
-0.550048
-0.196827
-0.0646891
-0.0223075
-0.00805208
-0.00283657
-0.000857137
-9.24964e-05
6.4945e-36
3.45023e-35
1.25232e-34
4.18964e-34
1.36623e-33
4.42725e-33
1.43195e-32
4.63306e-32
1.49322e-31
4.83484e-31
1.55778e-30
4.99016e-30
1.59145e-29
5.10358e-29
1.63087e-28
5.15094e-28
1.62436e-27
5.085e-27
1.5843e-26
4.90972e-26
1.50993e-25
4.60029e-25
1.40604e-24
4.23547e-24
1.26415e-23
3.73894e-23
1.10285e-22
3.17555e-22
9.38666e-22
2.69136e-21
7.55307e-21
2.1541e-20
6.0366e-20
1.67023e-19
4.63209e-19
1.26398e-18
3.46287e-18
9.72967e-18
2.99764e-17
9.92057e-17
3.38566e-16
1.26489e-15
5.05625e-15
2.18984e-14
1.03623e-13
5.0525e-13
2.46138e-12
1.18795e-11
5.59734e-11
2.57215e-10
1.14857e-09
4.93037e-09
2.00694e-08
6.40817e-08
1.9668e-07
5.47148e-07
1.46419e-06
3.77396e-06
8.77995e-06
1.8337e-05
3.46392e-05
5.83744e-05
9.07651e-05
0.000128527
0.000171457
0.000239732
0.000388933
0.000774466
0.00175982
0.00414332
0.00963537
0.0219116
0.0485767
0.0996683
0.174507
0.204896
0.155162
0.182411
0.336215
0.714395
1.59241
3.74547
7.91601
13.9942
13.3235
1.06713
-3.94716
-5.14939
-4.68972
-3.59457
-2.36986
-1.27133
-0.551424
-0.197205
-0.0647821
-0.0223344
-0.00806056
-0.00283912
-0.000857781
-9.25583e-05
7.10883e-36
3.8738e-35
1.41108e-34
4.71306e-34
1.53854e-33
4.99212e-33
1.61856e-32
5.22878e-32
1.69444e-31
5.47139e-31
1.76319e-30
5.67146e-30
1.80536e-29
5.79797e-29
1.83626e-28
5.78431e-28
1.79619e-27
5.75166e-27
1.78471e-26
5.52328e-26
1.70213e-25
5.1959e-25
1.5757e-24
4.7397e-24
1.41283e-23
4.15615e-23
1.2097e-22
3.491e-22
1.00704e-21
2.98096e-21
8.36182e-21
2.36875e-20
6.5655e-20
1.82769e-19
4.97732e-19
1.35068e-18
3.67815e-18
1.03401e-17
3.1853e-17
1.06495e-16
3.67526e-16
1.38981e-15
5.54144e-15
2.44542e-14
1.12365e-13
5.47927e-13
2.66269e-12
1.26952e-11
5.92038e-11
2.69274e-10
1.18943e-09
5.04876e-09
2.02876e-08
6.37613e-08
1.99408e-07
5.49547e-07
1.45779e-06
3.73823e-06
8.67886e-06
1.81096e-05
3.42645e-05
5.77667e-05
8.99244e-05
0.000127604
0.000170304
0.000237484
0.000382951
0.000757486
0.00171663
0.00404438
0.00941751
0.0214712
0.0476897
0.0982633
0.173201
0.207073
0.156482
0.181478
0.33263
0.706414
1.57342
3.7033
7.85504
13.9301
13.5104
1.15095
-3.92598
-5.1539
-4.7027
-3.60773
-2.38079
-1.2777
-0.554331
-0.19821
-0.0650755
-0.0224259
-0.00809144
-0.00284961
-0.000860872
-9.29077e-05
7.48625e-36
4.37258e-35
1.57632e-34
5.26204e-34
1.71925e-33
5.59969e-33
1.81821e-32
5.88672e-32
1.89402e-31
6.11139e-31
1.95762e-30
6.25252e-30
2.02714e-29
6.45291e-29
2.04196e-28
6.36127e-28
2.0353e-27
6.34247e-27
1.96927e-26
6.06012e-26
1.84956e-25
5.60029e-25
1.71825e-24
5.14502e-24
1.5296e-23
4.48994e-23
1.3285e-22
3.85408e-22
1.1063e-21
3.16589e-21
8.96409e-21
2.53894e-20
7.03616e-20
1.92854e-19
5.25891e-19
1.42375e-18
3.90383e-18
1.08273e-17
3.40354e-17
1.12824e-16
3.83419e-16
1.4368e-15
5.9417e-15
2.62335e-14
1.20164e-13
5.83929e-13
2.80963e-12
1.3291e-11
6.15046e-11
2.77476e-10
1.21505e-09
5.11737e-09
2.03544e-08
6.33935e-08
2.01221e-07
5.50762e-07
1.4503e-06
3.70606e-06
8.58964e-06
1.78931e-05
3.38384e-05
5.71199e-05
8.91312e-05
0.000126723
0.000169219
0.000235394
0.000377373
0.000743018
0.00167826
0.00395276
0.00921471
0.0210247
0.0468232
0.0969082
0.171889
0.208914
0.157678
0.180459
0.328776
0.6978
1.55335
3.65806
7.78705
13.8542
13.7112
1.24428
-3.90107
-5.15789
-4.71661
-3.62244
-2.3932
-1.28574
-0.558265
-0.199651
-0.0655109
-0.0225584
-0.00813583
-0.00286479
-0.000865388
-9.34252e-05
8.99194e-36
4.72652e-35
1.7173e-34
5.73475e-34
1.87705e-33
6.10565e-33
1.99149e-32
6.42665e-32
2.05902e-31
6.66001e-31
2.15263e-30
6.87826e-30
2.19596e-29
6.98367e-29
2.22274e-28
6.9824e-28
2.16706e-27
6.86999e-27
2.12592e-26
6.55243e-26
2.01852e-25
6.13632e-25
1.85521e-24
5.56436e-24
1.65311e-23
4.83997e-23
1.41583e-22
4.07524e-22
1.16612e-21
3.37493e-21
9.55305e-21
2.69809e-20
7.39652e-20
2.02359e-19
5.42855e-19
1.4568e-18
4.09411e-18
1.13179e-17
3.53498e-17
1.13591e-16
4.15785e-16
1.5596e-15
6.39593e-15
2.72379e-14
1.26235e-13
6.10328e-13
2.923e-12
1.3755e-11
6.32992e-11
2.8392e-10
1.23528e-09
5.15924e-09
2.03727e-08
6.30643e-08
2.02135e-07
5.50355e-07
1.43954e-06
3.6689e-06
8.48833e-06
1.76916e-05
3.34611e-05
5.65269e-05
8.83354e-05
0.000125899
0.000168204
0.00023347
0.000372298
0.000728865
0.00164328
0.00387008
0.00903202
0.0206345
0.0460296
0.0956042
0.170586
0.210463
0.158766
0.17947
0.325154
0.689708
1.53434
3.61463
7.72028
13.7776
13.9029
1.33705
-3.87565
-5.16129
-4.73023
-3.63718
-2.40632
-1.29404
-0.562393
-0.20119
-0.0659723
-0.0227016
-0.00818402
-0.00288138
-0.000870367
-9.39997e-05
9.65409e-36
5.081e-35
1.84804e-34
6.19123e-34
2.02915e-33
6.59315e-33
2.13618e-32
6.90658e-32
2.22506e-31
7.12581e-31
2.28348e-30
7.35053e-30
2.34715e-29
7.46295e-29
2.37141e-28
7.49666e-28
2.32938e-27
7.33996e-27
2.26124e-26
6.95792e-26
2.14374e-25
6.50985e-25
1.97205e-24
5.90357e-24
1.74574e-23
5.10145e-23
1.49524e-22
4.29146e-22
1.21459e-21
3.52251e-21
9.85162e-21
2.77169e-20
7.68842e-20
2.09876e-19
5.68759e-19
1.55075e-18
4.25182e-18
1.22603e-17
3.75669e-17
1.23603e-16
4.28696e-16
1.60146e-15
6.61165e-15
2.80229e-14
1.30811e-13
6.31106e-13
3.00976e-12
1.40999e-11
6.45764e-11
2.88164e-10
1.24781e-09
5.1852e-09
2.03706e-08
6.27702e-08
2.02598e-07
5.49359e-07
1.42915e-06
3.63166e-06
8.39638e-06
1.74967e-05
3.31261e-05
5.60226e-05
8.76723e-05
0.000125203
0.000167331
0.000231833
0.000368053
0.000717231
0.00161325
0.00379794
0.00887488
0.0203044
0.0453392
0.0944847
0.169418
0.21167
0.159694
0.178622
0.322018
0.682655
1.51777
3.5765
7.6602
13.7071
14.0718
1.42149
-3.852
-5.16397
-4.74241
-3.6506
-2.41815
-1.30185
-0.566326
-0.202665
-0.0664178
-0.0228395
-0.00823039
-0.00289735
-0.000875164
-9.45542e-05
9.65235e-36
5.33742e-35
1.94327e-34
6.49354e-34
2.12549e-33
6.92061e-33
2.24474e-32
7.27854e-32
2.34419e-31
7.50196e-31
2.42373e-30
7.72448e-30
2.46031e-29
7.84114e-29
2.48823e-28
7.84277e-28
2.4829e-27
7.73119e-27
2.39159e-26
7.34797e-26
2.26192e-25
6.82544e-25
2.07316e-24
6.18141e-24
1.82847e-23
5.35904e-23
1.55712e-22
4.51696e-22
1.28306e-21
3.64062e-21
1.02581e-20
2.91307e-20
7.98682e-20
2.17631e-19
5.89045e-19
1.61063e-18
4.447e-18
1.25878e-17
3.82763e-17
1.23007e-16
4.29995e-16
1.62755e-15
6.45734e-15
2.86273e-14
1.34843e-13
6.47184e-13
3.07647e-12
1.43651e-11
6.55585e-11
2.9144e-10
1.25719e-09
5.20345e-09
2.03644e-08
6.25479e-08
2.02757e-07
5.48148e-07
1.42002e-06
3.60378e-06
8.32853e-06
1.73566e-05
3.28759e-05
5.56117e-05
8.71084e-05
0.000124571
0.000166584
0.000230469
0.00036457
0.00070768
0.00158829
0.00374111
0.0087499
0.0200383
0.0448089
0.0936013
0.168462
0.212541
0.160422
0.177943
0.319495
0.676934
1.50424
3.54492
7.61054
13.6482
14.209
1.4922
-3.83205
-5.16597
-4.75242
-3.66175
-2.42838
-1.30838
-0.56962
-0.203907
-0.0668012
-0.0229568
-0.00826986
-0.00291097
-0.000879264
-9.50291e-05
1.03582e-35
5.48476e-35
1.9859e-34
6.74294e-34
2.20527e-33
7.14564e-33
2.31657e-32
7.49047e-32
2.42393e-31
7.79008e-31
2.50197e-30
7.99859e-30
2.55348e-29
8.15611e-29
2.60051e-28
8.21319e-28
2.57736e-27
8.03855e-27
2.4951e-26
7.67857e-26
2.34148e-25
7.09237e-25
2.13288e-24
6.34541e-24
1.88636e-23
5.53248e-23
1.61523e-22
4.62495e-22
1.34078e-21
3.77967e-21
1.05729e-20
2.92074e-20
8.16938e-20
2.21454e-19
6.07443e-19
1.66206e-18
4.53668e-18
1.25497e-17
3.78495e-17
1.25792e-16
4.24776e-16
1.60989e-15
6.53899e-15
2.90225e-14
1.37737e-13
6.58902e-13
3.12464e-12
1.45563e-11
6.62734e-11
2.93907e-10
1.26403e-09
5.21775e-09
2.03641e-08
6.24019e-08
2.02827e-07
5.47241e-07
1.41372e-06
3.58372e-06
8.27906e-06
1.72545e-05
3.26948e-05
5.53287e-05
8.67243e-05
0.000124147
0.00016607
0.000229524
0.000362184
0.000701213
0.00157137
0.00370241
0.0086673
0.0198629
0.0444273
0.0929728
0.167771
0.213115
0.160934
0.177462
0.317704
0.672863
1.49464
3.5225
7.57477
13.6052
14.3065
1.54337
-3.81738
-5.16729
-4.75962
-3.66982
-2.43569
-1.31317
-0.572051
-0.204829
-0.0670806
-0.0230429
-0.00829878
-0.00292096
-0.000882272
-9.53778e-05
1.04885e-35
5.66181e-35
2.04598e-34
6.84364e-34
2.24524e-33
7.32424e-33
2.37543e-32
7.67939e-32
2.4855e-31
8.01879e-31
2.57586e-30
8.25385e-30
2.63175e-29
8.38542e-29
2.66631e-28
8.40491e-28
2.63429e-27
8.21599e-27
2.53765e-26
7.76617e-26
2.3718e-25
7.17483e-25
2.18124e-24
6.45497e-24
1.92754e-23
5.62484e-23
1.63723e-22
4.75695e-22
1.35982e-21
3.84855e-21
1.07734e-20
3.04903e-20
8.29734e-20
2.24829e-19
6.17277e-19
1.65997e-18
4.59515e-18
1.27356e-17
3.99431e-17
1.29246e-16
4.42096e-16
1.64877e-15
6.60428e-15
2.97268e-14
1.39176e-13
6.66177e-13
3.15671e-12
1.46847e-11
6.67483e-11
2.95499e-10
1.26859e-09
5.22769e-09
2.03705e-08
6.23363e-08
2.02937e-07
5.46904e-07
1.4107e-06
3.5738e-06
8.2538e-06
1.72008e-05
3.25971e-05
5.51793e-05
8.6523e-05
0.00012392
0.000165789
0.000229017
0.000360917
0.000697745
0.00156232
0.00368139
0.00861901
0.0197626
0.0442271
0.0926376
0.167397
0.213403
0.161202
0.177202
0.316739
0.670657
1.48942
3.5102
7.55497
13.5813
14.36
1.57177
-3.80921
-5.16798
-4.76358
-3.67427
-2.4397
-1.31581
-0.573396
-0.205335
-0.0672333
-0.0230894
-0.00831443
-0.00292637
-0.000883905
-9.55676e-05
1.06728e-35
5.71657e-35
2.07126e-34
6.94354e-34
2.27825e-33
7.38521e-33
2.39331e-32
7.74844e-32
2.5097e-31
8.13628e-31
2.6152e-30
8.36949e-30
2.66364e-29
8.30476e-29
2.7228e-28
8.52492e-28
2.67238e-27
8.32896e-27
2.57546e-26
7.93351e-26
2.42739e-25
7.36193e-25
2.21538e-24
6.59918e-24
1.9343e-23
5.74862e-23
1.66398e-22
4.80911e-22
1.38955e-21
3.9594e-21
1.1075e-20
3.08887e-20
8.41162e-20
2.32773e-19
6.28995e-19
1.68482e-18
4.67114e-18
1.29743e-17
4.00873e-17
1.2751e-16
4.50268e-16
1.67777e-15
6.76876e-15
2.98602e-14
1.4013e-13
6.70711e-13
3.17613e-12
1.47637e-11
6.7052e-11
2.96587e-10
1.27214e-09
5.23729e-09
2.03894e-08
6.23465e-08
2.0318e-07
5.47183e-07
1.41047e-06
3.57196e-06
8.24825e-06
1.71884e-05
3.2574e-05
5.51427e-05
8.64729e-05
0.000123862
0.000165716
0.000228896
0.000360647
0.000697062
0.0015606
0.00367757
0.00861089
0.0197457
0.0441929
0.0925809
0.167333
0.213442
0.161242
0.177159
0.316586
0.670313
1.48861
3.50831
7.55195
13.5777
14.3682
1.57612
-3.80798
-5.16809
-4.76415
-3.67491
-2.44027
-1.31616
-0.573569
-0.205399
-0.0672523
-0.0230954
-0.00831637
-0.00292701
-0.000884085
-9.55877e-05
1.05912e-35
5.72343e-35
2.08527e-34
6.97451e-34
2.29186e-33
7.46219e-33
2.42377e-32
7.85355e-32
2.53297e-31
8.16291e-31
2.62372e-30
8.40413e-30
2.68177e-29
8.47732e-29
2.73211e-28
8.59153e-28
2.68141e-27
8.261e-27
2.60401e-26
7.96508e-26
2.44697e-25
7.42456e-25
2.23878e-24
6.69246e-24
1.98009e-23
5.78909e-23
1.67761e-22
4.88111e-22
1.39816e-21
3.96735e-21
1.11697e-20
3.09553e-20
8.58484e-20
2.32606e-19
6.34344e-19
1.70773e-18
4.70225e-18
1.31682e-17
4.03502e-17
1.30887e-16
4.50913e-16
1.66743e-15
6.85209e-15
3.01137e-14
1.40033e-13
6.72784e-13
3.18482e-12
1.48017e-11
6.72183e-11
2.97296e-10
1.27507e-09
5.24875e-09
2.04312e-08
6.24672e-08
2.03662e-07
5.48428e-07
1.41428e-06
3.58146e-06
8.26894e-06
1.72285e-05
3.26431e-05
5.52472e-05
8.66097e-05
0.000124006
0.000165888
0.000229222
0.000361515
0.00069948
0.00156692
0.00369224
0.00864514
0.0198153
0.0443401
0.092822
0.1676
0.213225
0.16104
0.177345
0.317287
0.671915
1.49242
3.5173
7.56647
13.5953
14.3294
1.55532
-3.81401
-5.16758
-4.7612
-3.67155
-2.43718
-1.31412
-0.572513
-0.204992
-0.0671271
-0.0230563
-0.0083032
-0.00292245
-0.000882711
-9.54281e-05
1.07863e-35
5.67226e-35
2.05995e-34
6.90258e-34
2.26921e-33
7.39586e-33
2.40302e-32
7.8e-32
2.51728e-31
8.09232e-31
2.5943e-30
8.27424e-30
2.62802e-29
8.38523e-29
2.66082e-28
8.39213e-28
2.61129e-27
8.16809e-27
2.55319e-26
7.85114e-26
2.3854e-25
7.34072e-25
2.19993e-24
6.65283e-24
1.95888e-23
5.7038e-23
1.64711e-22
4.82695e-22
1.37734e-21
3.90709e-21
1.09481e-20
3.02052e-20
8.56804e-20
2.30814e-19
6.16703e-19
1.64931e-18
4.60529e-18
1.24875e-17
3.90163e-17
1.29779e-16
4.39967e-16
1.65864e-15
6.66999e-15
3.00963e-14
1.40002e-13
6.71469e-13
3.18033e-12
1.47909e-11
6.72184e-11
2.97526e-10
1.27706e-09
5.26081e-09
2.04918e-08
6.26925e-08
2.04395e-07
5.50673e-07
1.42217e-06
3.60217e-06
8.31505e-06
1.73186e-05
3.27996e-05
5.54855e-05
8.69227e-05
0.000124341
0.00016629
0.000229972
0.000363463
0.000704861
0.00158093
0.00372467
0.00871636
0.019963
0.0446547
0.093349
0.168185
0.212749
0.160611
0.177758
0.318824
0.675417
1.50074
3.53692
7.59804
13.6334
14.2446
1.51034
-3.82699
-5.16644
-4.7548
-3.66434
-2.43061
-1.30977
-0.570276
-0.204138
-0.0668623
-0.022976
-0.00827609
-0.00291304
-0.000879859
-9.50963e-05
1.06508e-35
5.59835e-35
2.02901e-34
6.81422e-34
2.22613e-33
7.24907e-33
2.35274e-32
7.6066e-32
2.45638e-31
7.91482e-31
2.53998e-30
8.13353e-30
2.59288e-29
8.23964e-29
2.60784e-28
8.17107e-28
2.59529e-27
8.0636e-27
2.49733e-26
7.68894e-26
2.35948e-25
7.21174e-25
2.17336e-24
6.48653e-24
1.91999e-23
5.62492e-23
1.63142e-22
4.70096e-22
1.36224e-21
3.85984e-21
1.08539e-20
3.00008e-20
8.34916e-20
2.26636e-19
6.16338e-19
1.6766e-18
4.57652e-18
1.25441e-17
3.88971e-17
1.29035e-16
4.3932e-16
1.62543e-15
6.62527e-15
3.01006e-14
1.39026e-13
6.6705e-13
3.16423e-12
1.47379e-11
6.70829e-11
2.97406e-10
1.27868e-09
5.27591e-09
2.0581e-08
6.30477e-08
2.05456e-07
5.54118e-07
1.43474e-06
3.63575e-06
8.39056e-06
1.74666e-05
3.30543e-05
5.58712e-05
8.74257e-05
0.000124871
0.000166925
0.000231159
0.000366546
0.000713337
0.00160298
0.00377561
0.00882807
0.0202065
0.0451442
0.0941576
0.169065
0.211993
0.159968
0.178394
0.321157
0.680714
1.51329
3.56635
7.64515
13.6902
14.1166
1.4433
-3.84609
-5.1646
-4.74521
-3.65358
-2.42084
-1.30334
-0.566984
-0.202883
-0.0664784
-0.0228573
-0.00823607
-0.00289917
-0.000875666
-9.4609e-05
9.87945e-36
5.42195e-35
1.95885e-34
6.59282e-34
2.15371e-33
6.98835e-33
2.26696e-32
7.3637e-32
2.37703e-31
7.64311e-31
2.45079e-30
7.84498e-30
2.49747e-29
8.00831e-29
2.53265e-28
7.94611e-28
2.48551e-27
7.72774e-27
2.38905e-26
7.3875e-26
2.27689e-25
6.93072e-25
2.08786e-24
6.18706e-24
1.86743e-23
5.46075e-23
1.58798e-22
4.5549e-22
1.32098e-21
3.78793e-21
1.05385e-20
2.97087e-20
8.13545e-20
2.22128e-19
6.04033e-19
1.63401e-18
4.50667e-18
1.25151e-17
3.7454e-17
1.22321e-16
4.35758e-16
1.60861e-15
6.43141e-15
2.94711e-14
1.37568e-13
6.60001e-13
3.13512e-12
1.46305e-11
6.67479e-11
2.96692e-10
1.27906e-09
5.29144e-09
2.06933e-08
6.35291e-08
2.06779e-07
5.58491e-07
1.45111e-06
3.68008e-06
8.49112e-06
1.76648e-05
3.3398e-05
5.63958e-05
8.81167e-05
0.000125576
0.000167756
0.000232718
0.000370626
0.000724592
0.00163198
0.00384308
0.00897384
0.020519
0.0457778
0.0951997
0.170186
0.21096
0.159153
0.179237
0.324199
0.687608
1.5297
3.60456
7.70592
13.7628
13.9495
1.3584
-3.87021
-5.1621
-4.7329
-3.63981
-2.40817
-1.29516
-0.562823
-0.201299
-0.0659942
-0.0227076
-0.00818557
-0.00288168
-0.000870384
-9.39958e-05
9.76668e-36
5.15757e-35
1.87959e-34
6.28089e-34
2.05162e-33
6.63707e-33
2.17021e-32
6.98009e-32
2.24279e-31
7.28364e-31
2.32698e-30
7.42345e-30
2.36662e-29
7.53483e-29
2.41264e-28
7.5915e-28
2.37352e-27
7.38675e-27
2.30534e-26
7.10021e-26
2.17019e-25
6.58464e-25
1.98821e-24
5.96005e-24
1.77661e-23
5.21097e-23
1.52624e-22
4.39375e-22
1.27753e-21
3.60289e-21
1.00681e-20
2.84297e-20
7.865e-20
2.14607e-19
5.67766e-19
1.57674e-18
4.32205e-18
1.22911e-17
3.72941e-17
1.23014e-16
4.2017e-16
1.61991e-15
6.50459e-15
2.89842e-14
1.34403e-13
6.48377e-13
3.09015e-12
1.44619e-11
6.61932e-11
2.95211e-10
1.27742e-09
5.3047e-09
2.08229e-08
6.41118e-08
2.08064e-07
5.63555e-07
1.47059e-06
3.73294e-06
8.61075e-06
1.78986e-05
3.37967e-05
5.69886e-05
8.88685e-05
0.000126365
0.000168715
0.000234542
0.000375466
0.00073773
0.00166426
0.00392106
0.0091466
0.0208811
0.046534
0.0964415
0.171491
0.209633
0.158197
0.180256
0.327813
0.695717
1.54884
3.64916
7.77653
13.8462
13.7533
1.26101
-3.89763
-5.1589
-4.71848
-3.62384
-2.39401
-1.28573
-0.558028
-0.199483
-0.0654395
-0.0225357
-0.00812761
-0.00286165
-0.000864346
-9.32961e-05
9.2138e-36
4.85195e-35
1.76734e-34
5.92323e-34
1.92981e-33
6.18659e-33
2.04961e-32
6.56849e-32
2.11348e-31
6.76567e-31
2.16184e-30
6.87983e-30
2.20513e-29
6.9942e-29
2.21617e-28
7.06426e-28
2.20202e-27
6.85526e-27
2.13848e-26
6.57353e-26
2.01908e-25
6.11391e-25
1.88248e-24
5.62633e-24
1.67635e-23
4.90224e-23
1.45989e-22
4.23257e-22
1.21663e-21
3.43914e-21
9.88808e-21
2.74257e-20
7.52181e-20
2.05842e-19
5.60004e-19
1.52787e-18
4.23962e-18
1.20317e-17
3.67331e-17
1.21447e-16
4.23526e-16
1.57523e-15
6.41974e-15
2.8131e-14
1.30777e-13
6.31873e-13
3.02351e-12
1.42114e-11
6.5279e-11
2.92595e-10
1.27174e-09
5.30574e-09
2.09213e-08
6.46735e-08
2.09032e-07
5.67964e-07
1.49032e-06
3.78923e-06
8.74059e-06
1.81542e-05
3.42335e-05
5.76378e-05
8.96901e-05
0.000127238
0.000169772
0.000236555
0.000380688
0.000752134
0.00170192
0.00401014
0.00934298
0.0213118
0.0473968
0.0978577
0.172914
0.207994
0.157126
0.181415
0.331881
0.704802
1.57035
3.69881
7.85432
13.9362
13.5346
1.15549
-3.92698
-5.15514
-4.7027
-3.60652
-2.37855
-1.27563
-0.552929
-0.197561
-0.0648556
-0.0223548
-0.00806651
-0.00284052
-0.000857973
-9.25584e-05
8.55116e-36
4.48751e-35
1.62607e-34
5.4207e-34
1.76426e-33
5.8031e-33
1.88163e-32
6.06083e-32
1.95156e-31
6.26454e-31
2.00557e-30
6.35706e-30
2.05514e-29
6.46603e-29
2.06761e-28
6.43697e-28
2.0514e-27
6.3701e-27
1.99111e-26
6.12751e-26
1.88379e-25
5.7814e-25
1.75137e-24
5.25998e-24
1.5684e-23
4.64454e-23
1.36143e-22
4.00315e-22
1.1528e-21