/*--------------------------------*- C++ -*----------------------------------*\
  =========                 |
  \\      /  F ield         | OpenFOAM: The Open Source CFD Toolbox
   \\    /   O peration     | Website:  https://openfoam.org
    \\  /    A nd           | Version:  10
     \\/     M anipulation  |
\*---------------------------------------------------------------------------*/
FoamFile
{
    format      ascii;
    class       volScalarField;
    location    "1";
    object      RR.C6H12;
}
// * * * * * * * * * * * * * * * * * * * * * * * * * * * * * * * * * * * * * //

dimensions      [1 -3 -1 0 0 0 0];

internalField   nonuniform List<scalar> 
4000
(
5.62781e-19
3.33001e-19
1.89508e-19
1.97286e-20
1.63045e-19
6.39334e-20
6.3631e-20
9.70726e-20
8.04028e-20
9.66273e-20
1.18259e-19
-1.30769e-21
1.32036e-19
-3.12024e-21
1.22842e-19
5.73286e-19
3.8154e-19
1.38418e-19
3.75423e-20
2.46541e-19
7.75392e-20
3.4838e-19
9.25238e-19
4.60009e-19
1.83671e-18
-7.59006e-19
1.79565e-18
1.28021e-18
3.80924e-18
4.33301e-18
2.00383e-17
4.3658e-17
1.53812e-16
5.33099e-16
1.80789e-15
6.15249e-15
2.00662e-14
6.73374e-14
2.27573e-13
7.61785e-13
2.43303e-12
7.65694e-12
2.30976e-11
6.77282e-11
1.915e-10
5.49484e-10
1.54481e-09
3.99692e-09
9.13235e-09
1.76488e-08
2.81432e-08
3.75847e-08
4.37194e-08
4.89181e-08
5.53703e-08
6.80824e-08
9.8063e-08
1.88141e-07
5.21566e-07
2.16841e-06
1.25655e-05
7.58683e-05
0.00034785
0.000730735
0.00107434
0.00152225
0.00241023
0.004691
0.0106546
0.0246263
0.0547474
0.116389
0.224104
0.306466
0.17547
-0.0526066
-0.0982055
-0.111229
-0.104358
-0.0680279
-0.0356705
-0.0179876
-0.00925185
-0.00487822
-0.00263255
-0.00145012
-0.000806647
-0.000448703
-0.000247403
-0.000134282
-7.16532e-05
-3.70299e-05
-1.80743e-05
-6.24495e-06
-1.15543e-06
1.31918e-08
5.61749e-08
1.22892e-09
-3.92693e-10
-6.0321e-12
3.43176e-19
8.93709e-19
-1.49261e-19
6.83641e-19
8.70641e-19
3.58514e-19
5.51919e-19
9.54265e-20
2.14488e-20
3.93134e-19
-6.94094e-20
-1.84899e-20
2.36366e-19
-1.21145e-19
2.46208e-20
7.52112e-19
7.97475e-19
7.95646e-19
1.76039e-18
1.93866e-18
1.26848e-18
4.57856e-19
1.36381e-18
9.09284e-19
3.60369e-18
2.07707e-18
1.08918e-18
2.32168e-18
8.69404e-19
7.71609e-18
1.72899e-17
5.5844e-17
2.04343e-16
7.36576e-16
2.45236e-15
8.35037e-15
2.78949e-14
9.51415e-14
3.0916e-13
1.01314e-12
3.26211e-12
1.00779e-11
3.05708e-11
8.85364e-11
2.6171e-10
7.50768e-10
2.05612e-09
5.10776e-09
1.11404e-08
2.04983e-08
3.03583e-08
3.83077e-08
4.46443e-08
4.97107e-08
5.65618e-08
7.10057e-08
1.03681e-07
2.01305e-07
5.61711e-07
2.27949e-06
1.28743e-05
7.56475e-05
0.000341173
0.000720357
0.00105927
0.00149568
0.00233972
0.0045047
0.0101614
0.0234969
0.0526983
0.112654
0.219678
0.308584
0.186581
-0.0492835
-0.0983696
-0.112044
-0.105495
-0.0687275
-0.0359493
-0.0181013
-0.00930178
-0.00489928
-0.00264105
-0.00145309
-0.000807124
-0.000448175
-0.000246542
-0.000133445
-7.10071e-05
-3.6621e-05
-1.75896e-05
-5.85192e-06
-1.00641e-06
3.465e-08
5.48326e-08
2.19889e-10
-3.52687e-10
-5.43909e-12
2.24701e-18
2.23421e-19
2.41381e-19
7.98079e-19
3.13703e-18
3.09171e-19
-9.37854e-20
-4.85676e-19
1.37589e-18
1.82317e-19
8.42122e-19
4.94076e-19
2.74403e-19
6.60013e-19
1.33698e-19
8.32105e-19
-3.3425e-20
1.63772e-19
1.15076e-18
5.32955e-19
1.97085e-18
-4.5931e-19
4.29561e-19
2.19166e-18
2.71351e-18
5.88985e-18
1.86249e-18
5.44324e-18
2.31732e-18
1.00609e-17
2.68507e-17
7.02084e-17
2.67261e-16
9.22535e-16
3.24553e-15
1.08881e-14
3.63781e-14
1.20716e-13
3.98642e-13
1.27003e-12
4.03079e-12
1.19784e-11
3.77166e-11
1.08483e-10
3.23855e-10
9.09634e-10
2.46529e-09
5.97612e-09
1.24313e-08
2.20855e-08
3.17355e-08
3.94617e-08
4.54629e-08
5.06925e-08
5.79615e-08
7.25674e-08
1.0647e-07
2.08399e-07
5.83732e-07
2.37395e-06
1.32191e-05
7.60741e-05
0.000337009
0.000711522
0.00104707
0.00147423
0.00228091
0.00432272
0.00972028
0.0225865
0.0509969
0.109223
0.215441
0.31
0.198033
-0.0455804
-0.0986363
-0.113116
-0.106881
-0.0695314
-0.0362726
-0.018236
-0.00936115
-0.0049199
-0.00264826
-0.00145495
-0.000806739
-0.000446959
-0.000245225
-0.000132168
-7.00461e-05
-3.60238e-05
-1.69022e-05
-5.35284e-06
-8.38076e-07
5.44666e-08
5.28137e-08
-5.42551e-10
-3.13145e-10
-4.85766e-12
8.78025e-19
-1.94797e-19
5.00025e-19
1.22457e-18
7.63178e-19
1.47967e-18
4.8558e-19
-2.69775e-19
7.67831e-19
1.24287e-18
2.48628e-18
1.84252e-18
2.29599e-19
5.63652e-19
6.76125e-19
8.91292e-19
1.97899e-18
1.67144e-18
2.50056e-18
1.20659e-18
6.28744e-19
4.52598e-18
4.4312e-18
-7.11418e-19
1.64379e-18
4.02786e-18
2.56148e-18
-9.61957e-20
5.05172e-18
9.41728e-18
1.93491e-17
1.07681e-16
3.62076e-16
1.21715e-15
4.16138e-15
1.40175e-14
4.5829e-14
1.53547e-13
4.99052e-13
1.58784e-12
5.0024e-12
1.50022e-11
4.62315e-11
1.32902e-10
3.76197e-10
1.08042e-09
2.86115e-09
6.71053e-09
1.3881e-08
2.294e-08
3.23619e-08
4.06373e-08
4.64063e-08
5.1558e-08
5.93328e-08
7.3677e-08
1.09389e-07
2.16094e-07
6.09808e-07
2.45439e-06
1.3451e-05
7.59602e-05
0.000332526
0.000704772
0.00103792
0.0014581
0.00223607
0.00419087
0.00936254
0.0217875
0.0493917
0.106056
0.211676
0.31089
0.208605
-0.0433811
-0.0989963
-0.114252
-0.108238
-0.0702566
-0.036551
-0.0183695
-0.00945519
-0.00489753
-0.0026404
-0.00145145
-0.00080458
-0.000445472
-0.000244543
-0.000130088
-6.88172e-05
-3.53733e-05
-1.6206e-05
-4.88948e-06
-6.87555e-07
6.91335e-08
5.05472e-08
-1.03581e-09
-2.79645e-10
-4.36149e-12
4.16451e-19
7.4427e-19
2.55203e-19
2.67521e-19
4.10476e-19
3.1539e-19
1.67181e-18
2.20797e-19
-6.19536e-19
1.02766e-19
5.63138e-19
6.2199e-19
-2.52546e-20
2.17311e-20
6.97071e-19
-3.40534e-19
9.64699e-19
5.24685e-19
3.26807e-18
2.31415e-18
4.94573e-19
5.51491e-18
2.6832e-19
2.66338e-18
1.43403e-18
1.50167e-18
4.45872e-18
5.23635e-18
6.64458e-19
1.48318e-17
4.01169e-17
1.38641e-16
4.82327e-16
1.58092e-15
5.31639e-15
1.7851e-14
5.77182e-14
1.84217e-13
6.04956e-13
1.93306e-12
5.95657e-12
1.80809e-11
5.28896e-11
1.56603e-10
4.40036e-10
1.24215e-09
3.20005e-09
7.56119e-09
1.43423e-08
2.33703e-08
3.35637e-08
4.14466e-08
4.70871e-08
5.25508e-08
5.99746e-08
7.49522e-08
1.1239e-07
2.23117e-07
6.28998e-07
2.52972e-06
1.37125e-05
7.63273e-05
0.000330126
0.000699851
0.00103112
0.00144626
0.00220621
0.00409961
0.00912057
0.0212221
0.0482711
0.103925
0.208848
0.311825
0.217262
-0.0404628
-0.0993039
-0.115316
-0.109465
-0.0708852
-0.0367836
-0.0184696
-0.00950199
-0.00492114
-0.00265107
-0.00145593
-0.000806057
-0.000445536
-0.000244014
-0.000129525
-6.83284e-05
-3.50547e-05
-1.56969e-05
-4.53718e-06
-5.76237e-07
7.98074e-08
4.87018e-08
-1.30569e-09
-2.53305e-10
-4.01637e-12
1.93915e-19
-1.04824e-20
-1.76046e-19
6.42562e-19
1.58097e-19
4.23211e-19
1.12018e-18
1.51652e-18
3.38355e-19
-2.88986e-19
2.66031e-19
1.01314e-18
1.25343e-18
1.17241e-18
1.28905e-18
2.21016e-18
1.04905e-18
9.07573e-19
1.38302e-18
6.08375e-19
6.17967e-18
4.24404e-18
6.69693e-18
3.29593e-18
2.804e-18
-2.2889e-18
4.57898e-18
3.83687e-18
6.79013e-18
1.77341e-17
5.26079e-17
1.70778e-16
5.72052e-16
1.96436e-15
6.46377e-15
2.14516e-14
7.01899e-14
2.18255e-13
7.15415e-13
2.36529e-12
7.11037e-12
2.09123e-11
6.13989e-11
1.79786e-10
5.05452e-10
1.389e-09
3.61822e-09
7.83617e-09
1.47788e-08
2.45252e-08
3.45383e-08
4.21396e-08
4.75396e-08
5.30863e-08
6.08535e-08
7.64081e-08
1.14874e-07
2.30094e-07
6.47609e-07
2.58867e-06
1.38794e-05
7.62566e-05
0.000327215
0.000695508
0.00102597
0.00143823
0.00218293
0.00402076
0.00890089
0.020762
0.0474162
0.102223
0.206685
0.312532
0.223207
-0.0381611
-0.0994896
-0.116098
-0.110449
-0.0714379
-0.037002
-0.0185676
-0.00954852
-0.00494916
-0.00266579
-0.0014633
-0.000809439
-0.000446812
-0.00024424
-0.000129501
-6.81772e-05
-3.49329e-05
-1.53477e-05
-4.28846e-06
-4.99077e-07
8.72855e-08
4.73924e-08
-1.44767e-09
-2.37193e-10
-3.77212e-12
7.58772e-20
4.24196e-19
1.00438e-20
3.10094e-19
4.70967e-19
3.882e-19
-4.13613e-20
-3.26235e-19
3.46395e-19
2.54308e-19
3.07854e-19
2.14158e-19
3.97347e-19
1.82908e-18
1.32427e-18
1.9543e-18
1.1666e-18
8.99822e-19
1.22724e-18
-4.17943e-19
3.84966e-18
4.72351e-18
1.17672e-18
-6.00085e-19
1.62809e-18
5.72128e-18
-4.12771e-19
4.82069e-18
6.8375e-18
2.13478e-17
6.40502e-17
2.04106e-16
6.95086e-16
2.3467e-15
7.68454e-15
2.56332e-14
8.43362e-14
2.65601e-13
8.72417e-13
2.7324e-12
8.26401e-12
2.45891e-11
7.14816e-11
2.00438e-10
5.6461e-10
1.53988e-09
3.83498e-09
7.90713e-09
1.54901e-08
2.54982e-08
3.52132e-08
4.25434e-08
4.7844e-08
5.34551e-08
6.14505e-08
7.75487e-08
1.16979e-07
2.34815e-07
6.61597e-07
2.63107e-06
1.39586e-05
7.58936e-05
0.000323887
0.000691096
0.00102083
0.00143067
0.00216334
0.00395707
0.00873294
0.0203736
0.0466445
0.100688
0.204585
0.312881
0.228952
-0.0357587
-0.099546
-0.116701
-0.111363
-0.0720327
-0.0372688
-0.0186921
-0.00960942
-0.00498397
-0.00268437
-0.00147305
-0.000814368
-0.000449114
-0.000245154
-0.0001299
-6.82893e-05
-3.49587e-05
-1.51397e-05
-4.12317e-06
-4.45823e-07
9.27868e-08
4.65594e-08
-1.52594e-09
-2.26877e-10
-3.61568e-12
2.07343e-19
1.29618e-19
8.69172e-19
1.25509e-18
5.66762e-19
5.93426e-19
7.50007e-19
1.05313e-18
2.69439e-19
1.18216e-19
-6.60074e-20
6.67256e-19
6.81979e-19
4.5093e-19
6.50691e-19
7.00296e-20
1.39849e-18
1.78364e-21
3.58072e-19
2.96853e-18
3.38504e-18
1.99707e-18
1.92376e-19
-2.62292e-18
1.94052e-18
1.30575e-18
2.77631e-18
5.4964e-18
1.20802e-17
1.69603e-17
7.04988e-17
2.55281e-16
8.61745e-16
2.77153e-15
9.10096e-15
2.97477e-14
9.79542e-14
3.01751e-13
9.86744e-13
3.10184e-12
9.41189e-12
2.74808e-11
8.05433e-11
2.26005e-10
6.37813e-10
1.70698e-09
3.96614e-09
8.4444e-09
1.62726e-08
2.63124e-08
3.58963e-08
4.29343e-08
4.81266e-08
5.37969e-08
6.19881e-08
7.84623e-08
1.18718e-07
2.38735e-07
6.71306e-07
2.6523e-06
1.39269e-05
7.50473e-05
0.000319479
0.000686203
0.00101492
0.00142115
0.00214221
0.00389443
0.00856494
0.0199813
0.045847
0.0990946
0.202238
0.312902
0.235006
-0.0328965
-0.0994513
-0.117115
-0.112232
-0.0727144
-0.0376082
-0.0188549
-0.00969012
-0.00502756
-0.00270758
-0.00148544
-0.000820884
-0.000452419
-0.00024672
-0.000130675
-6.86308e-05
-3.51105e-05
-1.50521e-05
-4.02542e-06
-4.10906e-07
9.70456e-08
4.61955e-08
-1.573e-09
-2.20857e-10
-3.52494e-12
2.63985e-19
1.46752e-19
1.73365e-19
1.11887e-18
1.3974e-18
9.26837e-19
2.91158e-19
3.80255e-20
5.08252e-19
1.09782e-18
-3.31848e-19
4.04553e-19
4.21876e-19
2.77673e-19
2.33643e-19
1.17201e-19
1.19484e-18
3.50569e-18
4.25036e-18
3.58454e-18
1.08509e-18
3.47671e-18
1.43905e-18
5.40423e-19
2.49653e-18
5.08037e-18
1.36915e-18
5.29435e-18
2.56669e-18
1.59576e-17
8.3754e-17
3.01016e-16
9.87635e-16
3.28758e-15
1.06963e-14
3.48316e-14
1.13852e-13
3.40884e-13
1.10819e-12
3.47589e-12
1.03894e-11
3.09672e-11
8.95716e-11
2.54376e-10
6.68983e-10
1.66347e-09
4.12317e-09
9.01738e-09
1.70127e-08
2.71119e-08
3.64058e-08
4.32247e-08
4.83498e-08
5.40813e-08
6.24051e-08
7.9154e-08
1.20011e-07
2.41409e-07
6.76607e-07
2.65187e-06
1.37685e-05
7.3392e-05
0.000312729
0.000678433
0.00100696
0.00141067
0.00211496
0.00382106
0.00835714
0.019515
0.0448306
0.0970447
0.199407
0.312629
0.241512
-0.0294879
-0.0992096
-0.117363
-0.113095
-0.0735179
-0.0380366
-0.0190627
-0.00979346
-0.00508104
-0.00273582
-0.00150057
-0.000828985
-0.000456683
-0.00024889
-0.000131782
-6.91694e-05
-3.53706e-05
-1.50666e-05
-3.98122e-06
-3.89853e-07
1.0055e-07
4.62334e-08
-1.6051e-09
-2.18052e-10
-3.48353e-12
4.59264e-19
9.50065e-19
5.98419e-19
5.83326e-19
3.09461e-19
3.59623e-19
1.94531e-20
-2.31045e-20
8.30873e-19
1.47188e-18
4.26445e-19
1.83989e-18
1.10053e-18
6.1438e-19
2.971e-18
3.59632e-18
2.84662e-18
1.19058e-18
2.91918e-18
5.31795e-18
3.32804e-18
2.31424e-18
1.94242e-18
2.86856e-18
2.69416e-18
-2.26343e-18
2.30483e-18
5.92863e-18
6.04036e-18
3.76667e-17
1.00798e-16
3.39049e-16
1.13326e-15
3.6765e-15
1.1896e-14
3.81367e-14
1.19957e-13
3.73505e-13
1.22186e-12
3.77833e-12
1.1205e-11
3.30935e-11
9.55357e-11
2.6071e-10
6.78841e-10
1.81606e-09
4.40921e-09
9.5102e-09
1.77526e-08
2.77779e-08
3.68506e-08
4.34821e-08
4.85426e-08
5.42776e-08
6.27067e-08
7.9718e-08
1.20931e-07
2.42947e-07
6.77697e-07
2.63572e-06
1.35554e-05
7.16767e-05
0.000305084
0.000670248
0.000997939
0.00139785
0.00208738
0.00374679
0.00815623
0.0190273
0.0431741
0.0951264
0.196376
0.311646
0.248431
-0.0251988
-0.0988129
-0.117514
-0.114041
-0.0744787
-0.0385614
-0.019316
-0.0099185
-0.00514367
-0.00276837
-0.00151803
-0.000838413
-0.00046174
-0.000251556
-0.000133157
-6.98655e-05
-3.57183e-05
-1.51621e-05
-3.97835e-06
-3.79065e-07
1.03566e-07
4.66091e-08
-1.62973e-09
-2.1764e-10
-3.47884e-12
1.9215e-19
7.41727e-19
1.09243e-18
4.40944e-19
2.11589e-19
1.34359e-19
-1.6998e-19
-1.29763e-19
2.72994e-19
2.07157e-19
1.3972e-19
5.04186e-19
-2.00104e-19
1.86456e-18
2.20956e-19
1.8444e-18
1.92623e-18
1.31295e-18
3.04796e-18
4.25581e-18
5.69106e-18
1.42826e-18
-8.16239e-19
1.35282e-18
2.55841e-18
4.84159e-18
4.22385e-18
4.06425e-18
1.6555e-17
4.83012e-17
1.2954e-16
4.0885e-16
1.2271e-15
4.09803e-15
1.29063e-14
4.09058e-14
1.30876e-13
4.04118e-13
1.33982e-12
4.06329e-12
1.20166e-11
3.48969e-11
9.82659e-11
2.67631e-10
7.4085e-10
1.95205e-09
4.7021e-09
1.00631e-08
1.84662e-08
2.84862e-08
3.73885e-08
4.3853e-08
4.8902e-08
5.43813e-08
6.29456e-08
8.01329e-08
1.21483e-07
2.43414e-07
6.74825e-07
2.59521e-06
1.31773e-05
6.91505e-05
0.000297221
0.00066183
0.000988951
0.00138541
0.00206001
0.00366932
0.00796135
0.0185811
0.0422086
0.0931185
0.193003
0.310499
0.255471
-0.020628
-0.0983005
-0.11751
-0.114883
-0.0754634
-0.0391237
-0.0195908
-0.0100553
-0.00521169
-0.00280423
-0.00153713
-0.000848734
-0.00046733
-0.000254574
-0.000134726
-7.06759e-05
-3.61297e-05
-1.53185e-05
-4.00633e-06
-3.75803e-07
1.06259e-07
4.72431e-08
-1.6503e-09
-2.18941e-10
-3.50046e-12
2.32884e-19
3.32397e-20
1.23824e-18
8.59199e-19
3.24688e-19
2.49416e-19
9.18177e-19
2.14733e-18
1.20525e-18
1.21939e-18
5.44385e-19
1.66582e-18
5.15815e-19
6.46209e-19
1.00632e-18
1.07904e-18
1.81322e-18
2.35621e-18
-9.89669e-20
6.61888e-19
-1.99138e-19
2.48218e-18
2.63865e-18
2.59806e-18
8.2653e-19
5.29659e-18
4.70363e-18
9.41265e-18
2.03219e-17
4.87246e-17
1.36476e-16
4.28294e-16
1.41156e-15
4.59905e-15
1.47497e-14
4.65371e-14
1.43778e-13
4.42837e-13
1.40652e-12
4.40028e-12
1.28561e-11
3.70555e-11
1.03775e-10
2.88168e-10
7.9396e-10
2.07598e-09
4.95956e-09
1.05161e-08
1.90754e-08
2.90947e-08
3.78731e-08
4.42318e-08
4.92686e-08
5.43887e-08
6.31416e-08
8.04725e-08
1.21802e-07
2.43194e-07
6.69851e-07
2.55734e-06
1.28527e-05
6.70249e-05
0.000288483
0.000653056
0.000979884
0.00137319
0.00203405
0.00359589
0.00776729
0.0181617
0.0411384
0.090945
0.189571
0.309121
0.262029
-0.01585
-0.0977188
-0.117404
-0.115687
-0.0764925
-0.0397189
-0.0198809
-0.0101994
-0.00528299
-0.00284176
-0.00155756
-0.00085998
-0.00047351
-0.000257908
-0.000136452
-7.15802e-05
-3.65976e-05
-1.5525e-05
-4.05724e-06
-3.77811e-07
1.0876e-07
4.80616e-08
-1.66803e-09
-2.21412e-10
-3.54011e-12
1.57669e-19
-1.02471e-19
1.31241e-18
1.12479e-18
9.94148e-19
2.16492e-19
1.00439e-18
9.85191e-19
-1.35158e-21
1.34153e-18
6.65818e-19
-4.71868e-19
1.43934e-18
8.80371e-19
5.74552e-19
1.87017e-18
-8.2052e-20
7.41752e-19
-1.70889e-19
7.9617e-19
4.33957e-18
2.65316e-18
1.99653e-18
2.23208e-18
3.27003e-18
5.50461e-18
5.09351e-18
6.23867e-18
1.23829e-17
4.85845e-17
1.45776e-16
4.69882e-16
1.53798e-15
4.99103e-15
1.58339e-14
4.95318e-14
1.52598e-13
4.68605e-13
1.48804e-12
4.68796e-12
1.37667e-11
3.99057e-11
1.11198e-10
3.10857e-10
8.37514e-10
2.181e-09
5.18048e-09
1.08518e-08
1.94792e-08
2.94552e-08
3.81201e-08
4.4389e-08
4.93756e-08
5.44234e-08
6.33839e-08
8.07498e-08
1.21916e-07
2.42346e-07
6.62839e-07
2.50719e-06
1.25252e-05
6.48972e-05
0.000280369
0.000644031
0.00097042
0.00136047
0.00200777
0.00352274
0.00756749
0.017701
0.0401675
0.0890043
0.186234
0.307281
0.268313
-0.0105086
-0.0970509
-0.117266
-0.116468
-0.0775515
-0.0403554
-0.0201954
-0.0103561
-0.00535868
-0.00288119
-0.00157875
-0.00087156
-0.000479884
-0.000261427
-0.00013829
-7.25399e-05
-3.70865e-05
-1.57544e-05
-4.12221e-06
-3.83796e-07
1.10997e-07
4.90185e-08
-1.68461e-09
-2.24858e-10
-3.5946e-12
-2.83472e-19
9.2844e-19
2.0805e-19
1.26493e-18
8.74219e-19
4.96305e-19
1.21983e-18
9.4904e-19
9.56222e-19
7.35359e-19
1.15979e-18
1.05632e-18
1.20219e-18
1.76701e-18
3.42389e-18
4.44055e-18
3.26798e-18
1.17816e-18
2.98082e-18
4.22154e-19
6.53137e-18
4.3619e-18
2.1109e-18
5.48909e-21
1.78732e-20
9.06404e-19
6.94491e-18
7.22852e-18
1.03984e-17
4.55013e-17
1.62431e-16
5.0703e-16
1.63017e-15
5.23246e-15
1.66769e-14
5.21423e-14
1.62616e-13
4.90392e-13
1.58649e-12
4.94554e-12
1.43312e-11
4.1129e-11
1.17197e-10
3.26938e-10
8.75679e-10
2.26731e-09
5.33347e-09
1.10833e-08
1.97504e-08
2.96863e-08
3.82692e-08
4.44866e-08
4.9435e-08
5.44459e-08
6.35667e-08
8.09577e-08
1.21908e-07
2.4135e-07
6.56243e-07
2.45894e-06
1.21511e-05
6.26342e-05
0.000272736
0.000635492
0.000961722
0.00134885
0.00198372
0.00346123
0.00739229
0.0172794
0.039275
0.0870751
0.18302
0.30545
0.273874
-0.00517639
-0.0963594
-0.117069
-0.117191
-0.0786242
-0.0409989
-0.0205106
-0.0105123
-0.0054347
-0.00292057
-0.00159981
-0.000883037
-0.000486186
-0.000264891
-0.000140095
-7.34938e-05
-3.75816e-05
-1.60016e-05
-4.19768e-06
-3.92381e-07
1.13072e-07
5.00274e-08
-1.69851e-09
-2.28684e-10
-3.65485e-12
3.56953e-19
2.93774e-19
-2.01166e-19
5.23006e-19
2.26367e-19
2.58375e-20
5.22349e-19
-6.49301e-20
4.87985e-20
1.18586e-18
1.91238e-18
1.9281e-18
2.78195e-18
1.31866e-18
3.53906e-19
1.43294e-18
2.48148e-18
3.35136e-18
3.87024e-18
2.47579e-18
-6.2211e-19
-2.72967e-19
2.59879e-18
-8.26328e-19
-1.13156e-18
8.12964e-19
1.23569e-18
4.60664e-18
1.4734e-17
4.72241e-17
1.47431e-16
5.23839e-16
1.71452e-15
5.49148e-15
1.71484e-14
5.3195e-14
1.69848e-13
5.11754e-13
1.64436e-12
4.97796e-12
1.52965e-11
4.36622e-11
1.23462e-10
3.3559e-10
9.03971e-10
2.32768e-09
5.44645e-09
1.12559e-08
1.9952e-08
2.98583e-08
3.8381e-08
4.45458e-08
4.94711e-08
5.44592e-08
6.36901e-08
8.10777e-08
1.21731e-07
2.39962e-07
6.4804e-07
2.41226e-06
1.18223e-05
6.06191e-05
0.000265244
0.000627565
0.000953659
0.00133822
0.00196205
0.0034021
0.00722914
0.016901
0.0384777
0.0854003
0.18008
0.30359
0.278859
-5.36611e-06
-0.0956754
-0.116865
-0.117836
-0.0796125
-0.0415987
-0.0208044
-0.0106575
-0.00550481
-0.00295691
-0.00161927
-0.000893655
-0.000492027
-0.000268107
-0.00014177
-7.43749e-05
-3.80364e-05
-1.62338e-05
-4.27119e-06
-4.01774e-07
1.14818e-07
5.09822e-08
-1.70946e-09
-2.32467e-10
-3.71429e-12
1.12962e-19
4.54063e-19
4.0875e-19
7.60369e-19
3.53701e-19
3.26234e-19
8.29394e-19
4.32617e-19
6.7878e-19
-1.35192e-19
6.90335e-20
2.83368e-18
1.19866e-18
3.99905e-19
1.41024e-18
-6.43055e-20
4.27282e-19
3.2605e-18
5.97208e-19
1.99697e-18
-2.63189e-19
7.98841e-19
1.35966e-18
1.52686e-18
3.75833e-18
-9.29125e-19
2.4937e-18
2.14288e-18
1.02299e-17
4.33858e-17
1.64009e-16
5.47335e-16
1.77686e-15
5.72534e-15
1.81859e-14
5.72494e-14
1.75994e-13
5.56937e-13
1.74517e-12
5.37267e-12
1.57405e-11
4.47384e-11
1.2658e-10
3.41959e-10
9.25136e-10
2.37435e-09
5.53116e-09
1.13816e-08
2.00925e-08
2.99691e-08
3.84491e-08
4.45849e-08
4.94971e-08
5.44673e-08
6.37754e-08
8.11486e-08
1.21506e-07
2.38484e-07
6.40379e-07
2.3662e-06
1.15279e-05
5.89296e-05
0.000259101
0.000620895
0.000946751
0.00132918
0.00194422
0.00335511
0.0070999
0.0165738
0.0377969
0.0839925
0.177538
0.301934
0.282938
0.00457393
-0.095068
-0.116678
-0.118358
-0.0804567
-0.0421168
-0.021057
-0.0107829
-0.00556536
-0.00298833
-0.00163611
-0.000902853
-0.000497096
-0.000270906
-0.000143231
-7.51534e-05
-3.84371e-05
-1.64424e-05
-4.33847e-06
-4.10672e-07
1.16324e-07
5.184e-08
-1.71777e-09
-2.35913e-10
-3.76832e-12
3.53103e-19
5.78961e-19
7.50303e-19
5.0207e-19
7.32413e-19
5.71464e-19
1.06117e-18
1.39514e-18
8.16886e-19
5.26524e-20
8.44912e-20
2.56303e-19
8.62821e-19
2.2347e-19
2.30471e-18
1.51409e-18
2.85419e-19
9.02201e-19
1.00115e-18
2.73341e-18
2.09211e-18
-3.99078e-19
2.37734e-18
1.36141e-18
5.83637e-19
6.23445e-18
9.77562e-19
7.36619e-18
1.88472e-17
6.02446e-17
1.76762e-16
5.73379e-16
1.85894e-15
5.98841e-15
1.90536e-14
6.02451e-14
1.87601e-13
5.73467e-13
1.78001e-12
5.36715e-12
1.58449e-11
4.53833e-11
1.24664e-10
3.47173e-10
9.43324e-10
2.40955e-09
5.59462e-09
1.14756e-08
2.01976e-08
3.00524e-08
3.84988e-08
4.46124e-08
4.95146e-08
5.44731e-08
6.38305e-08
8.11809e-08
1.21285e-07
2.37325e-07
6.3467e-07
2.33373e-06
1.13182e-05
5.76171e-05
0.000254012
0.000614871
0.000940873
0.00132152
0.00192913
0.00331521
0.00698837
0.0163163
0.037257
0.0828723
0.175587
0.300555
0.286001
0.00827824
-0.0945692
-0.116519
-0.118754
-0.0811274
-0.0425341
-0.021263
-0.0108845
-0.00561423
-0.00301363
-0.00164965
-0.000910247
-0.000501172
-0.000273158
-0.000144406
-7.57765e-05
-3.87568e-05
-1.66098e-05
-4.39359e-06
-4.18368e-07
1.17463e-07
5.25379e-08
-1.72364e-09
-2.38767e-10
-3.81303e-12
2.7266e-19
6.59231e-19
1.55624e-18
2.22642e-18
1.36532e-18
9.97657e-19
7.64442e-19
2.37136e-18
4.94086e-19
3.67452e-20
5.08858e-20
6.5751e-20
6.93649e-19
8.22177e-19
1.3915e-18
3.0455e-18
2.12677e-18
1.03905e-18
1.83892e-18
4.12008e-20
3.67896e-18
1.95701e-18
1.52206e-18
3.52707e-18
5.31834e-18
4.3288e-18
3.25016e-18
1.61575e-18
1.40572e-17
6.03672e-17
1.80925e-16
5.75455e-16
1.89543e-15
5.96695e-15
1.89529e-14
5.9552e-14
1.84814e-13
5.64079e-13
1.75684e-12
5.48013e-12
1.5713e-11
4.50342e-11
1.25794e-10
3.50573e-10
9.56118e-10
2.4346e-09
5.6392e-09
1.15411e-08
2.02707e-08
3.01117e-08
3.85327e-08
4.46321e-08
4.95271e-08
5.44783e-08
6.38665e-08
8.11996e-08
1.21124e-07
2.36477e-07
6.3046e-07
2.30987e-06
1.1165e-05
5.67129e-05
0.000250572
0.000610848
0.000936855
0.0013162
0.00191875
0.00328822
0.00691305
0.0161416
0.0369034
0.0821301
0.174186
0.299563
0.288104
0.0109444
-0.0942069
-0.116402
-0.119027
-0.0816005
-0.0428299
-0.0214083
-0.0109563
-0.00564877
-0.0030315
-0.00165923
-0.00091548
-0.000504058
-0.000274756
-0.00014524
-7.62197e-05
-3.89848e-05
-1.67307e-05
-4.43387e-06
-4.24041e-07
1.18268e-07
5.30387e-08
-1.72739e-09
-2.40829e-10
-3.8453e-12
8.33084e-20
-1.35095e-19
1.82694e-19
6.57719e-19
3.06977e-19
5.95662e-19
3.70461e-19
1.09826e-18
7.68042e-19
7.92928e-19
4.99099e-19
5.40146e-19
1.0188e-18
4.96406e-19
9.76776e-19
1.0152e-18
3.14718e-20
4.62325e-19
1.17303e-18
2.25603e-18
1.66253e-18
5.15845e-19
7.78655e-19
4.09687e-18
4.30963e-18
7.44181e-18
3.15562e-19
1.15322e-17
1.74486e-17
4.53719e-17
1.81401e-16
5.87423e-16
1.92106e-15
6.11903e-15
1.96348e-14
6.09756e-14
1.91759e-13
5.76171e-13
1.85015e-12
5.60019e-12
1.6179e-11
4.57792e-11
1.26499e-10
3.56138e-10
9.62138e-10
2.44974e-09
5.6683e-09
1.15843e-08
2.03183e-08
3.01491e-08
3.85546e-08
4.46449e-08
4.95368e-08
5.44846e-08
6.38934e-08
8.12212e-08
1.2106e-07
2.36081e-07
6.28383e-07
2.29765e-06
1.10835e-05
5.62414e-05
0.0002488
0.000608739
0.000934706
0.00131337
0.00191325
0.00327379
0.00687302
0.0160472
0.036696
0.0817126
0.173454
0.299023
0.289191
0.0123755
-0.0940091
-0.116336
-0.119166
-0.0818519
-0.0429887
-0.0214866
-0.0109951
-0.00566747
-0.0030412
-0.00166442
-0.000918318
-0.000505625
-0.000275622
-0.000145693
-7.646e-05
-3.91082e-05
-1.67972e-05
-4.4559e-06
-4.2725e-07
1.18678e-07
5.33063e-08
-1.72927e-09
-2.41942e-10
-3.86274e-12
-1.01114e-19
1.01752e-18
6.28689e-19
1.05733e-18
4.67524e-19
8.22888e-19
5.84878e-19
1.90424e-18
6.12274e-19
1.03712e-20
1.64031e-18
1.54326e-18
2.07409e-18
5.20741e-19
8.93045e-19
1.39318e-18
2.03798e-19
1.28289e-18
1.07963e-18
2.32446e-18
2.62579e-18
8.96366e-19
1.27235e-18
2.05116e-18
1.9206e-18
3.20447e-19
5.37914e-19
1.90912e-18
1.6547e-17
5.50309e-17
1.92262e-16
6.28927e-16
2.02179e-15
6.60266e-15
2.09567e-14
6.46249e-14
1.99466e-13
5.92986e-13
1.85908e-12
5.52952e-12
1.63933e-11
4.63567e-11
1.28819e-10
3.57155e-10
9.66105e-10
2.45898e-09
5.68552e-09
1.16102e-08
2.0348e-08
3.0174e-08
3.85712e-08
4.46558e-08
4.95461e-08
5.44934e-08
6.392e-08
8.12557e-08
1.2109e-07
2.36071e-07
6.28086e-07
2.29536e-06
1.10668e-05
5.61391e-05
0.000248411
0.000608272
0.000934226
0.00131275
0.00191214
0.00327107
0.00686566
0.0160306
0.0366623
0.0816438
0.173331
0.298932
0.289359
0.0126018
-0.0939783
-0.116324
-0.119186
-0.0818897
-0.0430126
-0.0214983
-0.0110009
-0.00567027
-0.00304265
-0.0016652
-0.000918743
-0.000505858
-0.00027575
-0.00014576
-7.64954e-05
-3.91262e-05
-1.68065e-05
-4.4589e-06
-4.27575e-07
1.18756e-07
5.33429e-08
-1.72966e-09
-2.42077e-10
-3.86483e-12
7.14388e-20
2.60431e-19
1.28822e-18
1.50472e-18
6.54712e-19
1.44199e-19
-7.86268e-20
5.50558e-19
1.594e-18
1.26923e-18
8.83545e-20
9.83742e-19
-9.62277e-20
8.97343e-19
1.39296e-18
1.02859e-18
1.5704e-18
9.17832e-19
2.21838e-19
6.73743e-19
1.26036e-18
6.05195e-19
9.52789e-19
2.70564e-19
3.25092e-18
6.00206e-19
3.92024e-18
6.14897e-18
2.35032e-17
6.28517e-17
2.00845e-16
6.37505e-16
2.06728e-15
6.67754e-15
2.14926e-14
6.64724e-14
2.02835e-13
6.05059e-13
1.87542e-12
5.66132e-12
1.64317e-11
4.62666e-11
1.29997e-10
3.58529e-10
9.65623e-10
2.46315e-09
5.69282e-09
1.16218e-08
2.0363e-08
3.01889e-08
3.85834e-08
4.46657e-08
4.95562e-08
5.45069e-08
6.39502e-08
8.13158e-08
1.21265e-07
2.36623e-07
6.30249e-07
2.30614e-06
1.11315e-05
5.65015e-05
0.000249746
0.000609789
0.000935707
0.0013147
0.001916
0.00328131
0.00689412
0.0160975
0.0368115
0.0819377
0.173871
0.299316
0.288546
0.0115503
-0.0941195
-0.116368
-0.119079
-0.0817045
-0.0428961
-0.0214409
-0.0109725
-0.00565664
-0.0030356
-0.00166143
-0.000916678
-0.000504717
-0.000275118
-0.000145429
-7.63192e-05
-3.90357e-05
-1.67569e-05
-4.44198e-06
-4.25126e-07
1.18426e-07
5.31291e-08
-1.72846e-09
-2.41183e-10
-3.85087e-12
7.59259e-20
2.11972e-21
2.34589e-19
2.46376e-19
6.45143e-19
7.36462e-19
-1.13038e-20
1.11752e-18
6.14981e-19
1.88481e-19
-5.23325e-20
3.06908e-19
5.42901e-20
1.94905e-18
1.66159e-18
3.36238e-18
3.77758e-18
8.03934e-19
7.6194e-19
1.9893e-18
2.16882e-18
3.70866e-18
1.35467e-18
4.81527e-18
3.19864e-18
3.03888e-18
1.75602e-18
5.28139e-18
2.13726e-17
7.15117e-17
1.96623e-16
5.95034e-16
1.96896e-15
6.15179e-15
1.89988e-14
5.87021e-14
1.87429e-13
5.58433e-13
1.80282e-12
5.62126e-12
1.6121e-11
4.61503e-11
1.27566e-10
3.58656e-10
9.65422e-10
2.46e-09
5.68788e-09
1.16166e-08
2.03607e-08
3.01917e-08
3.85897e-08
4.46732e-08
4.95658e-08
5.45239e-08
6.39844e-08
8.14031e-08
1.21588e-07
2.37742e-07
6.34842e-07
2.32958e-06
1.1275e-05
5.73154e-05
0.000252731
0.000613179
0.000939032
0.00131904
0.00192456
0.00330393
0.00695691
0.0162446
0.0371181
0.0825626
0.175024
0.300147
0.286769
0.00928617
-0.0944273
-0.116468
-0.118853
-0.0813045
-0.0426447
-0.0213169
-0.0109111
-0.00562715
-0.00302033
-0.00165325
-0.000912209
-0.000502249
-0.000273749
-0.000144715
-7.59391e-05
-3.88398e-05
-1.66514e-05
-4.40614e-06
-4.19855e-07
1.17757e-07
5.2683e-08
-1.72574e-09
-2.39312e-10
-3.8216e-12
7.21154e-19
1.01649e-18
4.54258e-19
8.23005e-19
7.28336e-19
4.25831e-19
1.8256e-19
2.16315e-19
5.43779e-20
3.35376e-19
2.06997e-20
1.41177e-19
4.49766e-19
4.6011e-19
1.45227e-19
1.11789e-18
1.56846e-18
2.47364e-18
1.96249e-18
3.01674e-18
1.25428e-18
1.25338e-18
2.68802e-18
2.14764e-18
3.79337e-18
8.09933e-18
5.78267e-18
1.56041e-18
2.13548e-17
6.2186e-17
1.90167e-16
5.81851e-16
1.89347e-15
5.91586e-15
1.86759e-14
5.86886e-14
1.84089e-13
5.58842e-13
1.79618e-12
5.59639e-12
1.61237e-11
4.53231e-11
1.26959e-10
3.58862e-10
9.60834e-10
2.45009e-09
5.67203e-09
1.15964e-08
2.03437e-08
3.01848e-08
3.85922e-08
4.46799e-08
4.95766e-08
5.45466e-08
6.40267e-08
8.1526e-08
1.22083e-07
2.39523e-07
6.42319e-07
2.36828e-06
1.15116e-05
5.86523e-05
0.000257563
0.000618505
0.000944231
0.00132583
0.00193802
0.00333951
0.00705577
0.0164755
0.0375987
0.0835822
0.176812
0.301371
0.283975
0.00590159
-0.0948842
-0.116616
-0.118504
-0.0807014
-0.0422682
-0.0211319
-0.0108197
-0.00558325
-0.00299758
-0.00164106
-0.000905543
-0.000498567
-0.000271708
-0.000143649
-7.53719e-05
-3.85486e-05
-1.64944e-05
-4.35331e-06
-4.12149e-07
1.16754e-07
5.20227e-08
-1.72124e-09
-2.36553e-10
-3.77843e-12
2.79638e-19
2.13064e-19
9.69046e-19
1.09448e-18
7.72554e-19
1.69809e-19
1.49735e-19
1.14248e-18
4.39339e-20
-2.93457e-19
1.22278e-18
8.27128e-19
1.35571e-18
1.96845e-18
1.00346e-18
1.66357e-18
2.42254e-18
2.68755e-18
2.18761e-18
2.82669e-18
4.8862e-18
-3.69935e-19
-3.72243e-19
1.51902e-18
3.34442e-18
4.21014e-18
4.63743e-18
6.65871e-18
1.72401e-17
5.63353e-17
1.86594e-16
5.96486e-16
1.89447e-15
6.03593e-15
1.91939e-14
5.99361e-14
1.87875e-13
5.66561e-13
1.73968e-12
5.33135e-12
1.5991e-11
4.50602e-11
1.24526e-10
3.53787e-10
9.54492e-10
2.43468e-09
5.64389e-09
1.15569e-08
2.03049e-08
3.01621e-08
3.85866e-08
4.46829e-08
4.95862e-08
5.45725e-08
6.40696e-08
8.16685e-08
1.22707e-07
2.41833e-07
6.52217e-07
2.42031e-06
1.18344e-05
6.04996e-05
0.000264267
0.000625527
0.000950983
0.0013346
0.0019556
0.00338656
0.00718591
0.0167818
0.0382271
0.084897
0.179116
0.302919
0.280282
0.00163996
-0.0954575
-0.116803
-0.118037
-0.079921
-0.0417822
-0.0208932
-0.0107016
-0.00552646
-0.00296808
-0.00162526
-0.000896914
-0.000493806
-0.000269073
-0.000142273
-7.46411e-05
-3.8172e-05
-1.62944e-05
-4.28631e-06
-4.02556e-07
1.15445e-07
5.11823e-08
-1.71472e-09
-2.33059e-10
-3.72374e-12
-1.83809e-19
-1.24904e-20
8.71363e-19
5.12684e-19
5.0711e-19
4.39548e-19
1.63008e-18
5.82099e-19
3.82699e-19
3.3135e-19
7.5351e-19
1.11074e-18
2.30123e-18
1.75211e-18
-1.23672e-19
7.63772e-19
9.07881e-19
-5.52061e-20
2.11999e-19
1.6713e-18
-1.6344e-19
3.9066e-18
9.11828e-19
5.18892e-18
4.95893e-18
5.96843e-18
6.8681e-18
1.08253e-17
1.45941e-17
5.70464e-17
1.74141e-16
5.56972e-16
1.83301e-15
5.93693e-15
1.83662e-14
5.95429e-14
1.83679e-13
5.61394e-13
1.7347e-12
5.36049e-12
1.55307e-11
4.52486e-11
1.25153e-10
3.49357e-10
9.40026e-10
2.40907e-09
5.60059e-09
1.14957e-08
2.02428e-08
3.01198e-08
3.85695e-08
4.46797e-08
4.95927e-08
5.46003e-08
6.40997e-08
8.18174e-08
1.23429e-07
2.44566e-07
6.64088e-07
2.48313e-06
1.2223e-05
6.26777e-05
0.000271742
0.000633419
0.000958727
0.00134453
0.00197556
0.00343938
0.00733058
0.0171356
0.0389739
0.0864358
0.18187
0.304684
0.275712
-0.00328042
-0.0961139
-0.117012
-0.117455
-0.0789951
-0.0412171
-0.0206159
-0.010564
-0.00546012
-0.00293371
-0.00160682
-0.000886818
-0.000488227
-0.000265982
-0.000140659
-7.37833e-05
-3.77288e-05
-1.60587e-05
-4.20856e-06
-3.91751e-07
1.13835e-07