/*--------------------------------*- C++ -*----------------------------------*\
  =========                 |
  \\      /  F ield         | OpenFOAM: The Open Source CFD Toolbox
   \\    /   O peration     | Website:  https://openfoam.org
    \\  /    A nd           | Version:  10
     \\/     M anipulation  |
\*---------------------------------------------------------------------------*/
FoamFile
{
    format      ascii;
    class       volScalarField;
    location    "1";
    object      RR.C8H16;
}
// * * * * * * * * * * * * * * * * * * * * * * * * * * * * * * * * * * * * * //

dimensions      [1 -3 -1 0 0 0 0];

internalField   nonuniform List<scalar> 
4000
(
1.55879e-18
9.22349e-19
5.249e-19
5.46423e-20
4.51601e-19
1.77081e-19
1.76243e-19
2.6887e-19
2.22697e-19
2.67635e-19
3.27548e-19
-3.63039e-21
3.65704e-19
-8.65533e-21
3.40234e-19
1.58787e-18
1.05677e-18
3.83366e-19
1.03954e-19
6.82834e-19
2.14726e-19
9.64894e-19
2.56267e-18
1.27406e-18
5.08725e-18
-2.10242e-18
4.97342e-18
3.54559e-18
1.05501e-17
1.19994e-17
5.54958e-17
1.20905e-16
4.25968e-16
1.47639e-15
5.00694e-15
1.70395e-14
5.55743e-14
1.86496e-13
6.30288e-13
2.10987e-12
6.73864e-12
2.12072e-11
6.39734e-11
1.87587e-10
5.30401e-10
1.52192e-09
4.27871e-09
1.10703e-08
2.52937e-08
4.88803e-08
7.79402e-08
1.04073e-07
1.21036e-07
1.35414e-07
1.53426e-07
1.89462e-07
2.75306e-07
5.33025e-07
1.47257e-06
6.00899e-06
3.41944e-05
0.000204656
0.000933361
0.00194223
0.00281759
0.00393212
0.00616818
0.0120914
0.027948
0.0656204
0.147442
0.315475
0.609835
0.835647
0.477507
-0.145612
-0.268261
-0.302384
-0.282925
-0.184166
-0.0965205
-0.0486696
-0.0250331
-0.0131993
-0.00712305
-0.00392371
-0.00218261
-0.0012141
-0.000669423
-0.000363341
-0.000193881
-0.000100203
-4.89249e-05
-1.68913e-05
-3.10988e-06
4.25552e-08
1.52824e-07
3.3062e-09
-1.06453e-09
-1.63467e-11
9.50532e-19
2.4754e-18
-4.13432e-19
1.89354e-18
2.4115e-18
9.93004e-19
1.5287e-18
2.64299e-19
5.9393e-20
1.08889e-18
-1.92271e-19
-5.12373e-20
6.54662e-19
-3.35578e-19
6.81612e-20
2.08317e-18
2.20881e-18
2.20374e-18
4.8759e-18
5.36967e-18
3.5134e-18
1.2681e-18
3.77741e-18
2.51845e-18
9.98143e-18
5.75293e-18
3.01658e-18
6.43018e-18
2.40705e-18
2.13692e-17
4.7881e-17
1.54649e-16
5.65905e-16
2.03991e-15
6.79178e-15
2.31265e-14
7.72563e-14
2.63502e-13
8.56252e-13
2.80602e-12
9.03494e-12
2.79126e-11
8.46717e-11
2.4522e-10
7.24864e-10
2.07942e-09
5.6949e-09
1.4147e-08
3.08552e-08
5.67713e-08
8.40726e-08
1.06073e-07
1.23591e-07
1.37611e-07
1.56771e-07
1.97764e-07
2.91297e-07
5.70178e-07
1.58413e-06
6.31391e-06
3.50399e-05
0.000204103
0.000915625
0.00191547
0.00278016
0.00386716
0.00598992
0.0116034
0.0266276
0.062561
0.141861
0.305276
0.59771
0.841399
0.5079
-0.136594
-0.268744
-0.30462
-0.286017
-0.186064
-0.0972773
-0.0489787
-0.0251689
-0.0132566
-0.00714625
-0.00393185
-0.00218396
-0.0012127
-0.00066711
-0.000361086
-0.000192137
-9.91003e-05
-4.76144e-05
-1.58258e-05
-2.70633e-06
1.0013e-07
1.49073e-07
5.74939e-10
-9.56092e-10
-1.47401e-11
6.22379e-18
6.18821e-19
6.68561e-19
2.2105e-18
8.68894e-18
8.56309e-19
-2.59807e-19
-1.34527e-18
3.8109e-18
5.04936e-19
2.33247e-18
1.36844e-18
7.59989e-19
1.82805e-18
3.7026e-19
2.30471e-18
-9.26427e-20
4.53554e-19
3.18731e-18
1.47611e-18
5.45879e-18
-1.2723e-18
1.18969e-18
6.07034e-18
7.51576e-18
1.63136e-17
5.15845e-18
1.50762e-17
6.41712e-18
2.78628e-17
7.43588e-17
1.94426e-16
7.40145e-16
2.55489e-15
8.9884e-15
3.01547e-14
1.00751e-13
3.34332e-13
1.10408e-12
3.51753e-12
1.11639e-11
3.31762e-11
1.04463e-10
3.00467e-10
8.96988e-10
2.51944e-09
6.82818e-09
1.65521e-08
3.44304e-08
6.11666e-08
8.7885e-08
1.09264e-07
1.25852e-07
1.40337e-07
1.60712e-07
2.02207e-07
2.99236e-07
5.90195e-07
1.64533e-06
6.57308e-06
3.59816e-05
0.000205292
0.000904603
0.00189272
0.00275005
0.00381521
0.00584217
0.0111281
0.0254474
0.0600947
0.137226
0.295909
0.586105
0.84523
0.539222
-0.126542
-0.269508
-0.307556
-0.289786
-0.188246
-0.0981558
-0.0493449
-0.0253305
-0.0133129
-0.00716601
-0.003937
-0.00218299
-0.00120945
-0.000663566
-0.000357642
-0.000189543
-9.74899e-05
-4.57549e-05
-1.44729e-05
-2.25064e-06
1.53172e-07
1.43493e-07
-1.488e-09
-8.48914e-10
-1.3165e-11
2.43196e-18
-5.39562e-19
1.38496e-18
3.39181e-18
2.11383e-18
4.09837e-18
1.34493e-18
-7.47261e-19
2.1267e-18
3.44246e-18
6.88647e-18
5.10337e-18
6.3589e-19
1.56115e-18
1.87267e-18
2.46863e-18
5.48134e-18
4.62949e-18
6.92599e-18
3.34193e-18
1.74139e-18
1.2536e-17
1.22734e-17
-1.97065e-18
4.5528e-18
1.11561e-17
7.09442e-18
-2.67215e-19
1.39904e-17
2.60785e-17
5.35765e-17
2.98205e-16
1.00273e-15
3.37079e-15
1.15248e-14
3.88216e-14
1.26925e-13
4.25262e-13
1.38218e-12
4.39773e-12
1.38549e-11
4.15512e-11
1.28047e-10
3.681e-10
1.04196e-09
2.99245e-09
7.92458e-09
1.85862e-08
3.84453e-08
6.35327e-08
8.9619e-08
1.12515e-07
1.28458e-07
1.42744e-07
1.64577e-07
2.05349e-07
3.07517e-07
6.11844e-07
1.71766e-06
6.7938e-06
3.66168e-05
0.000205017
0.000892709
0.00187537
0.00272758
0.00377652
0.00573039
0.0107847
0.0244917
0.0579317
0.132853
0.28726
0.575794
0.847624
0.568137
-0.120573
-0.270513
-0.310656
-0.293472
-0.190215
-0.0989128
-0.0497084
-0.025586
-0.0132528
-0.00714501
-0.00392767
-0.00217722
-0.00120547
-0.000661744
-0.000352025
-0.000186224
-9.57351e-05
-4.3871e-05
-1.32168e-05
-1.84331e-06
1.92312e-07
1.37261e-07
-2.82209e-09
-7.58119e-10
-1.18208e-11
1.15349e-18
2.06148e-18
7.06854e-19
7.40966e-19
1.13692e-18
8.73543e-19
4.63055e-18
6.11529e-19
-1.71604e-18
2.84591e-19
1.55973e-18
1.72273e-18
-7.00139e-20
6.01241e-20
1.93068e-18
-9.43307e-19
2.67193e-18
1.45318e-18
9.05183e-18
6.40964e-18
1.36975e-18
1.52751e-17
7.43035e-19
7.37687e-18
3.97179e-18
4.15907e-18
1.23493e-17
1.45027e-17
1.83791e-18
4.1074e-17
1.11094e-16
3.83942e-16
1.33575e-15
4.37824e-15
1.47236e-14
4.94386e-14
1.59853e-13
5.10202e-13
1.67549e-12
5.35386e-12
1.64976e-11
5.00783e-11
1.46488e-10
4.33744e-10
1.21878e-09
3.44041e-09
8.86323e-09
2.09422e-08
3.97228e-08
6.47241e-08
9.29451e-08
1.14752e-07
1.3034e-07
1.4551e-07
1.66381e-07
2.08963e-07
3.16029e-07
6.316e-07
1.77089e-06
7.00037e-06
3.73306e-05
0.000206034
0.000886368
0.00186274
0.00271104
0.0037487
0.0056567
0.0105476
0.0238457
0.056401
0.1298
0.281439
0.568047
0.850146
0.59181
-0.112646
-0.271378
-0.313564
-0.296808
-0.191921
-0.0995454
-0.0499809
-0.0257135
-0.0133172
-0.00717413
-0.00393994
-0.00218129
-0.00120568
-0.000660334
-0.000350512
-0.000184908
-9.48782e-05
-4.24929e-05
-1.22615e-05
-1.54208e-06
2.20785e-07
1.32196e-07
-3.55164e-09
-6.86731e-10
-1.0886e-11
5.37107e-19
-2.90385e-20
-4.87621e-19
1.77976e-18
4.37883e-19
1.17219e-18
3.10266e-18
4.20044e-18
9.37147e-19
-8.00474e-19
7.3681e-19
2.80614e-18
3.47171e-18
3.24729e-18
3.57035e-18
6.12163e-18
2.90558e-18
2.5137e-18
3.83057e-18
1.68494e-18
1.71163e-17
1.1755e-17
1.8549e-17
9.12889e-18
7.76629e-18
-6.34014e-18
1.26824e-17
1.06262e-17
1.88041e-17
4.91108e-17
1.45686e-16
4.72936e-16
1.58422e-15
5.44013e-15
1.79012e-14
5.94104e-14
1.94394e-13
6.04475e-13
1.98142e-12
6.55098e-12
1.96933e-11
5.79204e-11
1.70056e-10
4.97954e-10
1.39996e-09
3.84715e-09
1.00214e-08
2.17037e-08
4.09317e-08
6.79219e-08
9.56422e-08
1.16667e-07
1.31589e-07
1.47001e-07
1.68855e-07
2.13093e-07
3.23066e-07
6.5118e-07
1.82243e-06
7.16207e-06
3.77881e-05
0.000205867
0.000878651
0.00185161
0.00269851
0.00372977
0.00559926
0.0103431
0.0232595
0.0551556
0.127471
0.276791
0.562123
0.852057
0.608068
-0.106392
-0.271904
-0.3157
-0.299483
-0.193421
-0.100139
-0.0502476
-0.0258402
-0.0133934
-0.00721415
-0.00395998
-0.0021905
-0.00120916
-0.000660962
-0.000350458
-0.000184504
-9.4553e-05
-4.15474e-05
-1.15869e-05
-1.33326e-06
2.4074e-07
1.28604e-07
-3.93524e-09
-6.43068e-10
-1.02244e-11
2.10165e-19
1.17494e-18
2.78129e-20
8.58893e-19
1.30448e-18
1.07523e-18
-1.14583e-19
-9.03633e-19
9.59414e-19
7.04345e-19
8.52651e-19
5.93125e-19
1.10052e-18
5.06614e-18
3.6679e-18
5.41296e-18
3.23117e-18
2.49224e-18
3.39911e-18
-1.15774e-18
1.06627e-17
1.30831e-17
3.25913e-18
-1.66231e-18
4.50925e-18
1.58465e-17
-1.14392e-18
1.33509e-17
1.89346e-17
5.91174e-17
1.77372e-16
5.6523e-16
1.92494e-15
6.49898e-15
2.1282e-14
7.09913e-14
2.33573e-13
7.35602e-13
2.41625e-12
7.56774e-12
2.28885e-11
6.8104e-11
1.97982e-10
5.55155e-10
1.56381e-09
4.26504e-09
1.06218e-08
2.19002e-08
4.29016e-08
7.06162e-08
9.75095e-08
1.17782e-07
1.3243e-07
1.48029e-07
1.70537e-07
2.16324e-07
3.2902e-07
6.64408e-07
1.86113e-06
7.27845e-06
3.80075e-05
0.000204911
0.000869815
0.00184026
0.00268598
0.00371191
0.00555085
0.010178
0.0228118
0.0541049
0.125369
0.272602
0.556372
0.852989
0.623781
-0.0998615
-0.27208
-0.317351
-0.301968
-0.195035
-0.100863
-0.0505856
-0.0260056
-0.0134879
-0.0072646
-0.00398647
-0.00220389
-0.00121542
-0.00066345
-0.000351544
-0.000184811
-9.46266e-05
-4.09842e-05
-1.11385e-05
-1.1891e-06
2.55443e-07
1.26318e-07
-4.14666e-09
-6.15116e-10
-9.80067e-12
5.74297e-19
3.59011e-19
2.40743e-18
3.47636e-18
1.5698e-18
1.64365e-18
2.07735e-18
2.91694e-18
7.46257e-19
3.27394e-19
-1.82875e-19
1.84812e-18
1.88889e-18
1.24892e-18
1.80222e-18
1.93885e-19
3.87347e-18
4.83813e-21
9.91681e-19
8.22215e-18
9.37577e-18
5.53136e-18
5.32686e-19
-7.26516e-18
5.37462e-18
3.61632e-18
7.68914e-18
1.52222e-17
3.34551e-17
4.69627e-17
1.95226e-16
7.06951e-16
2.38649e-15
7.6755e-15
2.52048e-14
8.23863e-14
2.71289e-13
8.35723e-13
2.7329e-12
8.59097e-12
2.60677e-11
7.61129e-11
2.23081e-10
6.25967e-10
1.76656e-09
4.72787e-09
1.09851e-08
2.33883e-08
4.50686e-08
7.28703e-08
9.93992e-08
1.18861e-07
1.3321e-07
1.48982e-07
1.72051e-07
2.18911e-07
3.33929e-07
6.75354e-07
1.88791e-06
7.3369e-06
3.79264e-05
0.000202651
0.000858083
0.00182764
0.0026714
0.00368919
0.00549855
0.0100157
0.0223642
0.0530443
0.123198
0.268251
0.549947
0.853023
0.640338
-0.0920768
-0.271848
-0.318495
-0.304332
-0.196884
-0.101784
-0.0510271
-0.0262245
-0.0136061
-0.00732754
-0.00402006
-0.00222157
-0.00122439
-0.000667703
-0.000353647
-0.000185739
-9.50403e-05
-4.07471e-05
-1.0873e-05
-1.09451e-06
2.66862e-07
1.25313e-07
-4.27383e-09
-5.98806e-10
-9.55498e-12
7.31187e-19
4.06468e-19
4.80176e-19
3.09904e-18
3.8705e-18
2.56714e-18
8.06421e-19
1.05284e-19
1.40772e-18
3.0407e-18
-9.19211e-19
1.12048e-18
1.16845e-18
7.69025e-19
6.4706e-19
3.24533e-19
3.30938e-18
9.70997e-18
1.17726e-17
9.92838e-18
3.00534e-18
9.62968e-18
3.98573e-18
1.49667e-18
6.91465e-18
1.40712e-17
3.79144e-18
1.46622e-17
7.10332e-18
4.41822e-17
2.31932e-16
8.33605e-16
2.73512e-15
9.10467e-15
2.96229e-14
9.64664e-14
3.15318e-13
9.44105e-13
3.06926e-12
9.62694e-12
2.87751e-11
8.57691e-11
2.48086e-10
7.04548e-10
1.8529e-09
4.60734e-09
1.142e-08
2.49752e-08
4.71181e-08
7.50838e-08
1.00809e-07
1.19663e-07
1.33827e-07
1.49774e-07
1.73225e-07
2.20866e-07
3.37565e-07
6.82776e-07
1.90244e-06
7.33617e-06
3.75027e-05
0.000198215
0.000840094
0.00180754
0.00265167
0.00366394
0.00543078
0.00982548
0.0218109
0.0517845
0.120432
0.262657
0.542199
0.85225
0.658136
-0.0828019
-0.27122
-0.319192
-0.306686
-0.199064
-0.102945
-0.0515904
-0.0265045
-0.0137511
-0.00740408
-0.00406107
-0.00224352
-0.00123594
-0.000673586
-0.00035665
-0.0001872
-9.57464e-05
-4.07864e-05
-1.07528e-05
-1.03739e-06
2.76301e-07
1.25404e-07
-4.3607e-09
-5.91215e-10
-9.44295e-12
1.27207e-18
2.63149e-18
1.6575e-18
1.61569e-18
8.57128e-19
9.96064e-19
5.38523e-20
-6.40293e-20
2.30132e-18
4.07677e-18
1.18112e-18
5.09607e-18
3.04819e-18
1.70164e-18
8.22901e-18
9.96103e-18
7.88447e-18
3.29756e-18
8.08542e-18
1.47295e-17
9.2179e-18
6.40984e-18
5.37996e-18
7.94516e-18
7.46201e-18
-6.26974e-18
6.38297e-18
1.64187e-17
1.67236e-17
1.04309e-16
2.79131e-16
9.38925e-16
3.13841e-15
1.01817e-14
3.29456e-14
1.0562e-13
3.32225e-13
1.03445e-12
3.38407e-12
1.04646e-11
3.10341e-11
9.16584e-11
2.64605e-10
7.2209e-10
1.8802e-09
5.02998e-09
1.22122e-08
2.63401e-08
4.91673e-08
7.69275e-08
1.02039e-07
1.20373e-07
1.3436e-07
1.50322e-07
1.74073e-07
2.22457e-07
3.40139e-07
6.86995e-07
1.90527e-06
7.29233e-06
3.69302e-05
0.000193615
0.000819701
0.00178629
0.00262914
0.00363286
0.00536209
0.00963291
0.0212764
0.0504683
0.115929
0.257423
0.533909
0.849536
0.677061
-0.0711264
-0.270177
-0.319627
-0.309265
-0.20167
-0.104366
-0.0522764
-0.0268433
-0.0139208
-0.00749229
-0.00410839
-0.00226907
-0.00124965
-0.000680807
-0.000360376
-0.000189086
-9.66894e-05
-4.10451e-05
-1.07445e-05
-1.00799e-06
2.84465e-07
1.26416e-07
-4.42748e-09
-5.90107e-10
-9.43042e-12
5.32215e-19
2.05444e-18
3.02581e-18
1.22131e-18
5.86041e-19
3.72125e-19
-4.7084e-19
-3.59448e-19
7.56107e-19
5.73744e-19
3.86948e-19
1.39644e-18
-5.54319e-19
5.1644e-18
6.11928e-19
5.10856e-18
5.33521e-18
3.63653e-18
8.44215e-18
1.17877e-17
1.5763e-17
3.95585e-18
-2.261e-18
3.74686e-18
7.086e-18
1.34098e-17
1.16981e-17
1.12543e-17
4.58463e-17
1.33762e-16
3.58731e-16
1.13224e-15
3.39826e-15
1.13491e-14
3.57434e-14
1.13288e-13
3.62465e-13
1.11923e-12
3.71079e-12
1.12538e-11
3.32819e-11
9.66531e-11
2.72167e-10
7.41259e-10
2.05194e-09
5.40661e-09
1.30234e-08
2.78714e-08
5.11432e-08
7.88885e-08
1.03527e-07
1.21397e-07
1.35354e-07
1.50609e-07
1.74743e-07
2.23624e-07
3.41667e-07
6.88189e-07
1.8971e-06
7.18182e-06
3.59104e-05
0.000186825
0.000798702
0.0017644
0.00260659
0.0036025
0.00529375
0.00943207
0.0207578
0.0492638
0.113303
0.251945
0.524683
0.846375
0.696322
-0.0586771
-0.268819
-0.319646
-0.311563
-0.204342
-0.10589
-0.0530208
-0.0272137
-0.014105
-0.0075894
-0.00416011
-0.00229702
-0.00126479
-0.000688982
-0.000364625
-0.000191282
-9.7804e-05
-4.14689e-05
-1.08199e-05
-9.98917e-07
2.91791e-07
1.28132e-07
-4.48339e-09
-5.93644e-10
-9.48918e-12
6.45042e-19
9.20608e-20
3.42967e-18
2.3798e-18
8.99303e-19
6.9081e-19
2.54314e-18
5.94765e-18
3.33827e-18
3.37744e-18
1.50779e-18
4.61394e-18
1.42865e-18
1.78981e-18
2.78725e-18
2.98866e-18
5.02219e-18
6.52617e-18
-2.74218e-19
1.83319e-18
-5.51695e-19
6.87502e-18
7.30838e-18
7.1959e-18
2.28899e-18
1.46699e-17
1.30269e-17
2.60681e-17
5.6279e-17
1.34932e-16
3.77939e-16
1.18607e-15
3.9091e-15
1.27367e-14
4.08487e-14
1.28885e-13
3.98198e-13
1.22647e-12
3.89552e-12
1.21872e-11
3.56071e-11
1.02632e-10
2.87425e-10
7.98142e-10
2.19904e-09
5.74986e-09
1.37365e-08
2.91259e-08
5.28303e-08
8.0573e-08
1.04867e-07
1.22444e-07
1.36369e-07
1.50628e-07
1.75293e-07
2.24575e-07
3.42528e-07
6.87455e-07
1.88307e-06
7.07848e-06
3.5035e-05
0.000181116
0.000775364
0.00174154
0.00258379
0.00357257
0.00522889
0.00924178
0.0202416
0.0481316
0.110393
0.246017
0.515297
0.842581
0.714262
-0.0456582
-0.267273
-0.319387
-0.313758
-0.207133
-0.107501
-0.0538064
-0.0276041
-0.0142981
-0.00769105
-0.00421545
-0.00232748
-0.00128152
-0.000698013
-0.000369299
-0.000193731
-9.90716e-05
-4.20281e-05
-1.09574e-05
-1.00407e-06
2.98624e-07
1.3035e-07
-4.53167e-09
-6.00353e-10
-9.5968e-12
4.36711e-19
-2.83829e-19
3.63511e-18
3.11544e-18
2.75358e-18
5.99616e-19
2.78193e-18
2.72875e-18
-3.78642e-21
3.71573e-18
1.84413e-18
-1.30705e-18
3.98664e-18
2.43839e-18
1.59132e-18
5.17994e-18
-2.27355e-19
2.05442e-18
-4.73433e-19
2.20513e-18
1.20196e-17
7.34861e-18
5.52984e-18
6.18221e-18
9.05706e-18
1.52461e-17
1.41068e-17
1.72766e-17
3.42887e-17
1.34541e-16
4.03691e-16
1.30124e-15
4.25921e-15
1.38222e-14
4.38512e-14
1.37178e-13
4.22625e-13
1.29784e-12
4.1213e-12
1.29839e-11
3.81292e-11
1.10526e-10
3.07985e-10
8.60984e-10
2.31968e-09
6.04074e-09
1.43484e-08
3.00557e-08
5.39487e-08
8.15711e-08
1.0555e-07
1.22878e-07
1.36665e-07
1.50722e-07
1.75973e-07
2.25351e-07
3.4281e-07
6.84945e-07
1.8634e-06
6.94137e-06
3.41507e-05
0.000175396
0.000753678
0.00171799
0.0025599
0.00354132
0.00516314
0.00905224
0.0197104
0.0468887
0.107753
0.240724
0.506174
0.837524
0.731451
-0.0310989
-0.265496
-0.319042
-0.315894
-0.210006
-0.109225
-0.054658
-0.0280283
-0.014503
-0.00779782
-0.00427281
-0.00235884
-0.00129878
-0.000707542
-0.000374278
-0.00019633
-0.000100396
-4.26498e-05
-1.1133e-05
-1.01998e-06
3.0476e-07
1.32946e-07
-4.57692e-09
-6.09702e-10
-9.74462e-12
-7.85165e-19
2.5716e-18
5.76249e-19
3.5036e-18
2.4214e-18
1.37465e-18
3.37867e-18
2.62862e-18
2.64851e-18
2.03675e-18
3.21234e-18
2.92576e-18
3.32977e-18
4.89422e-18
9.48343e-18
1.22994e-17
9.05159e-18
3.26319e-18
8.25618e-18
1.16917e-18
1.80905e-17
1.20815e-17
5.84662e-18
1.49985e-20
4.92028e-20
2.50999e-18
1.92347e-17
2.0018e-17
2.87914e-17
1.26e-16
4.49814e-16
1.40412e-15
4.51453e-15
1.44908e-14
4.6186e-14
1.44408e-13
4.50372e-13
1.35818e-12
4.39397e-12
1.36974e-11
3.96924e-11
1.13914e-10
3.246e-10
9.05524e-10
2.42538e-09
6.27981e-09
1.47721e-08
3.0697e-08
5.46997e-08
8.22108e-08
1.05962e-07
1.23147e-07
1.36828e-07
1.50783e-07
1.76485e-07
2.2593e-07
3.42755e-07
6.8205e-07
1.84493e-06
6.8095e-06
3.314e-05
0.000169309
0.000733266
0.00169568
0.00253791
0.00351272
0.00510299
0.00889292
0.0192448
0.0457514
0.105328
0.235463
0.497386
0.832496
0.746662
-0.0165593
-0.263653
-0.31854
-0.317874
-0.212916
-0.110968
-0.0555114
-0.0284512
-0.0147089
-0.00790443
-0.00432985
-0.00238992
-0.00131585
-0.000716921
-0.000379165
-0.000198913
-0.000101736
-4.33194e-05
-1.13372e-05
-1.0429e-06
3.10468e-07
1.35684e-07
-4.61491e-09
-6.20083e-10
-9.90804e-12
9.8869e-19
8.13691e-19
-5.57204e-19
1.44861e-18
6.26971e-19
7.15424e-20
1.44678e-18
-1.79872e-19
1.35127e-19
3.28456e-18
5.29688e-18
5.34041e-18
7.70541e-18
3.65236e-18
9.80171e-19
3.96889e-18
6.87312e-18
9.28251e-18
1.07197e-17
6.85736e-18
-1.72324e-18
-7.56203e-19
7.19798e-18
-2.28897e-18
-3.13451e-18
2.25117e-18
3.42125e-18
1.27558e-17
4.07997e-17
1.3077e-16
4.08261e-16
1.45066e-15
4.74813e-15
1.52081e-14
4.74918e-14
1.47323e-13
4.70402e-13
1.41734e-12
4.55424e-12
1.37871e-11
4.23661e-11
1.2093e-10
3.41951e-10
9.29487e-10
2.50374e-09
6.44701e-09
1.5085e-08
3.11749e-08
5.52577e-08
8.26869e-08
1.06272e-07
1.23311e-07
1.36927e-07
1.50818e-07
1.76829e-07
2.2626e-07
3.42217e-07
6.78053e-07
1.82197e-06
6.68182e-06
3.22513e-05
0.000163888
0.000713228
0.00167495
0.0025175
0.00348654
0.00504881
0.00873979
0.0188126
0.0447312
0.103161
0.230896
0.48935
0.827389
0.760299
-0.00245457
-0.261827
-0.318013
-0.319639
-0.215597
-0.112592
-0.0563068
-0.0288445
-0.0148987
-0.00800285
-0.00438254
-0.00241867
-0.00133166
-0.000725628
-0.000383699
-0.000201298
-0.000102968
-4.39485e-05
-1.1536e-05
-1.06806e-06
3.15281e-07
1.38276e-07
-4.64491e-09
-6.30346e-10
-1.00693e-11
3.12882e-19
1.25766e-18
1.13215e-18
2.10606e-18
9.79667e-19
9.03583e-19
2.29724e-18
1.19824e-18
1.88006e-18
-3.74496e-19
1.91166e-19
7.8487e-18
3.32e-18
1.1076e-18
3.90602e-18
-1.78199e-19
1.1834e-18
9.03085e-18
1.65404e-18
5.5311e-18
-7.29111e-19
2.21249e-18
3.76581e-18
4.22889e-18
1.04095e-17
-2.57412e-18
6.90559e-18
5.93139e-18
2.83236e-17
1.20137e-16
4.54176e-16
1.51573e-15
4.92074e-15
1.58558e-14
5.03653e-14
1.58552e-13
4.87423e-13
1.54248e-12
4.83343e-12
1.48803e-11
4.35958e-11
1.23911e-10
3.50588e-10
9.47126e-10
2.56236e-09
6.57628e-09
1.53196e-08
3.15229e-08
5.56468e-08
8.29935e-08
1.0646e-07
1.23418e-07
1.36999e-07
1.50839e-07
1.77067e-07
2.26452e-07
3.41551e-07
6.73806e-07
1.80054e-06
6.55573e-06
3.14551e-05
0.000159342
0.000696792
0.00165748
0.00249998
0.00346423
0.00500427
0.00861824
0.018469
0.0438488
0.101311
0.227058
0.482402
0.822842
0.771455
0.0100395
-0.260205
-0.317531
-0.321068
-0.217888
-0.113996
-0.0569907
-0.029184
-0.0150626
-0.00808791
-0.00442814
-0.00244357
-0.00134539
-0.000733206
-0.000387656
-0.000203406
-0.000104053
-4.45134e-05
-1.1718e-05
-1.0919e-06
3.19437e-07
1.40604e-07
-4.66773e-09
-6.39694e-10
-1.02158e-11
9.78028e-19
1.6036e-18
2.07818e-18
1.39063e-18
2.02863e-18
1.58283e-18
2.93922e-18
3.86424e-18
2.26258e-18
1.45795e-19
2.3398e-19
7.09861e-19
2.38979e-18
6.18906e-19
6.38352e-18
4.19365e-18
7.90469e-19
2.49883e-18
2.77289e-18
7.57089e-18
5.7946e-18
-1.10553e-18
6.58458e-18
3.77061e-18
1.6162e-18
1.72676e-17
2.70611e-18
2.03988e-17
5.21914e-17
1.66832e-16
4.89496e-16
1.58785e-15
5.14808e-15
1.65844e-14
5.27684e-14
1.66849e-13
5.19569e-13
1.58826e-12
4.92992e-12
1.4865e-11
4.3885e-11
1.25697e-10
3.4528e-10
9.61567e-10
2.61274e-09
6.67374e-09
1.54954e-08
3.17833e-08
5.59379e-08
8.32239e-08
1.06597e-07
1.23494e-07
1.37047e-07
1.50854e-07
1.7722e-07
2.26536e-07
3.409e-07
6.70484e-07
1.78458e-06
6.46686e-06
3.08883e-05
0.000155811
0.000683174
0.00164169
0.00248505
0.0034453
0.00496652
0.00851508
0.018173
0.0431548
0.0998448
0.224004
0.47707
0.81906
0.779831
0.0201482
-0.258872
-0.31712
-0.322155
-0.219708
-0.115126
-0.0575486
-0.0294591
-0.015195
-0.00815641
-0.0044648
-0.00246359
-0.00135643
-0.000739304
-0.000390839
-0.000205093
-0.000104918
-4.4967e-05
-1.18672e-05
-1.11253e-06
3.22587e-07
1.42499e-07
-4.68387e-09
-6.47438e-10
-1.03371e-11
7.55214e-19
1.82593e-18
4.31046e-18
6.16674e-18
3.78165e-18
2.76329e-18
2.11733e-18
6.56818e-18
1.36849e-18
1.01742e-19
1.40906e-19
1.82074e-19
1.92122e-18
2.27721e-18
3.85412e-18
8.43538e-18
5.89065e-18
2.87785e-18
5.09334e-18
1.13981e-19
1.01899e-17
5.42039e-18
4.21564e-18
9.76907e-18
1.47304e-17
1.19893e-17
9.00074e-18
4.47104e-18
3.89234e-17
1.6717e-16
5.01024e-16
1.5936e-15
5.24912e-15
1.65249e-14
5.2489e-14
1.64929e-13
5.11849e-13
1.56226e-12
4.86575e-12
1.5178e-11
4.35197e-11
1.2473e-10
3.48411e-10
9.70983e-10
2.64817e-09
6.74314e-09
1.56189e-08
3.19647e-08
5.61402e-08
8.33881e-08
1.06691e-07
1.23548e-07
1.37081e-07
1.50868e-07
1.77319e-07
2.26584e-07
3.4043e-07
6.68055e-07
1.77281e-06
6.40154e-06
3.04739e-05
0.000153378
0.000673968
0.00163114
0.00247483
0.0034321
0.00494054
0.00844532
0.0179733
0.0426843
0.098884
0.22198
0.473241
0.816337
0.785583
0.027425
-0.257903
-0.316814
-0.322903
-0.220992
-0.115927
-0.0579418
-0.0296533
-0.0152885
-0.00820481
-0.00449073
-0.00247776
-0.00136424
-0.000743631
-0.000393096
-0.000206293
-0.000105535
-4.52945e-05
-1.19762e-05
-1.12774e-06
3.24814e-07
1.43859e-07
-4.69421e-09
-6.53031e-10
-1.04245e-11
2.30747e-19
-3.74192e-19
5.06021e-19
1.82174e-18
8.50251e-19
1.64985e-18
1.02608e-18
3.04194e-18
2.12729e-18
2.19622e-18
1.38237e-18
1.49606e-18
2.82183e-18
1.37489e-18
2.70542e-18
2.81183e-18
8.70908e-20
1.28046e-18
3.24896e-18
6.24863e-18
4.60474e-18
1.42864e-18
2.15655e-18
1.13473e-17
1.19365e-17
2.06117e-17
8.72406e-19
3.19375e-17
4.83168e-17
1.25635e-16
5.02342e-16
1.62674e-15
5.32009e-15
1.69461e-14
5.43777e-14
1.68872e-13
5.31084e-13
1.59575e-12
5.1242e-12
1.55105e-11
4.48103e-11
1.26794e-10
3.50364e-10
9.86399e-10
2.66485e-09
6.78507e-09
1.56995e-08
3.20843e-08
5.62722e-08
8.34916e-08
1.06751e-07
1.23584e-07
1.37108e-07
1.50885e-07
1.77394e-07
2.26643e-07
3.40239e-07
6.66919e-07
1.76699e-06
6.36807e-06
3.02531e-05
0.000152109
0.000669221
0.00162561
0.00246936
0.00342506
0.00492674
0.00840804
0.0178671
0.0424301
0.098321
0.220842
0.47124
0.814855
0.788556
0.0313314
-0.257374
-0.316642
-0.323285
-0.221674
-0.116357
-0.0581539
-0.0297585
-0.0153391
-0.00823106
-0.00450479
-0.00248545
-0.00136848
-0.000745977
-0.000394322
-0.000206944
-0.00010587
-4.54747e-05
-1.20358e-05
-1.13636e-06
3.25949e-07
1.44586e-07
-4.6994e-09
-6.56051e-10
-1.04719e-11
-2.80067e-19
2.81833e-18
1.74134e-18
2.92859e-18
1.29493e-18
2.27922e-18
1.61997e-18
5.27435e-18
1.69584e-18
2.86806e-20
4.5433e-18
4.27447e-18
5.74476e-18
1.44229e-18
2.4735e-18
3.85876e-18
5.644e-19
3.55326e-18
2.99026e-18
6.43819e-18
7.27279e-18
2.48262e-18
3.52399e-18
5.68106e-18
5.31934e-18
8.86884e-19
1.48827e-18
5.28345e-18
4.58191e-17
1.52388e-16
5.32422e-16
1.74169e-15
5.59908e-15
1.82856e-14
5.80389e-14
1.78979e-13
5.5243e-13
1.64232e-12
5.14893e-12
1.53147e-11
4.54038e-11
1.28393e-10
3.5679e-10
9.89216e-10
2.67584e-09
6.81067e-09
1.57471e-08
3.21562e-08
5.63545e-08
8.35605e-08
1.06797e-07
1.23614e-07
1.37133e-07
1.50909e-07
1.77469e-07
2.26739e-07
3.40322e-07
6.66884e-07
1.76616e-06
6.3618e-06
3.02081e-05
0.000151833
0.00066818
0.00162438
0.00246813
0.00342351
0.00492394
0.00840099
0.0178476
0.0423853
0.0982294
0.220654
0.470905
0.814605
0.789016
0.0319493
-0.257291
-0.316611
-0.323339
-0.221776
-0.116422
-0.0581857
-0.0297742
-0.0153467
-0.00823499
-0.0045069
-0.00248659
-0.00136911
-0.000746324
-0.000394504
-0.00020704
-0.000105918
-4.55e-05
-1.20439e-05
-1.13722e-06
3.26164e-07
1.44685e-07
-4.70048e-09
-6.56415e-10
-1.04775e-11
1.97871e-19
7.21339e-19
3.56812e-18
4.16776e-18
1.8134e-18
3.99377e-19
-2.17811e-19
1.5249e-18
4.41503e-18
3.51549e-18
2.4468e-19
2.72473e-18
-2.66584e-19
2.48541e-18
3.85817e-18
2.84892e-18
4.34961e-18
2.54212e-18
6.14342e-19
1.86602e-18
3.49082e-18
1.67611e-18
2.63885e-18
7.49166e-19
9.00406e-18
1.66176e-18
1.08566e-17
1.70269e-17
6.50864e-17
1.7405e-16
5.56192e-16
1.76545e-15
5.72505e-15
1.8493e-14
5.95232e-14
1.84096e-13
5.61763e-13
1.67576e-12
5.19418e-12
1.56798e-11
4.55103e-11
1.28144e-10
3.60052e-10
9.9302e-10
2.6745e-09
6.82221e-09
1.57673e-08
3.21883e-08
5.6396e-08
8.36018e-08
1.06831e-07
1.23641e-07
1.37161e-07
1.50947e-07
1.77554e-07
2.26911e-07
3.40822e-07
6.68452e-07
1.77219e-06
6.3913e-06
3.0383e-05
0.000152808
0.000671752
0.00162835
0.00247188
0.00342831
0.00493358
0.0084274
0.017923
0.0425654
0.0986344
0.221456
0.472378
0.81566
0.786792
0.029079
-0.257669
-0.316727
-0.323046
-0.221274
-0.116106
-0.0580303
-0.0296973
-0.0153098
-0.00821589
-0.00449667
-0.002481
-0.00136602
-0.00074461
-0.000393608
-0.000206563
-0.000105673
-4.53655e-05
-1.19981e-05
-1.13066e-06
3.25252e-07
1.44104e-07
-4.69715e-09
-6.5399e-10
-1.04397e-11
2.10299e-19
5.86717e-21
6.49759e-19
6.82404e-19
1.78691e-18
2.03984e-18
-3.13344e-20
3.09529e-18
1.70334e-18
5.22012e-19
-1.44996e-19
8.50029e-19
1.50323e-19
5.39843e-18
4.60222e-18
9.31307e-18
1.04631e-17
2.22665e-18
2.11033e-18
5.50988e-18
6.00709e-18
1.02721e-17
3.752e-18
1.33371e-17
8.85927e-18
8.41645e-18
4.86223e-18
1.4624e-17
5.91853e-17
1.98037e-16
5.44501e-16
1.64782e-15
5.45274e-15
1.70368e-14
5.26162e-14
1.62575e-13
5.19092e-13
1.54662e-12
4.99309e-12
1.55688e-11
4.46498e-11
1.27821e-10
3.53319e-10
9.93373e-10
2.67394e-09
6.81348e-09
1.57537e-08
3.21737e-08
5.63895e-08
8.36095e-08
1.06848e-07
1.23662e-07
1.37188e-07
1.50994e-07
1.77651e-07
2.27162e-07
3.41748e-07
6.71634e-07
1.78501e-06
6.45546e-06
3.07712e-05
0.000154999
0.000679742
0.00163723
0.00248031
0.00343903
0.00495495
0.00848582
0.0180896
0.0429617
0.0994674
0.22316
0.475531
0.81794
0.781931
0.0228994
-0.258492
-0.316985
-0.322427
-0.220188
-0.115425
-0.0576943
-0.029531
-0.0152299
-0.00817456
-0.00447453
-0.0024689
-0.00135934
-0.000740904
-0.000391675
-0.000205533
-0.000105143
-4.50796e-05
-1.19011e-05
-1.11651e-06
3.23397e-07
1.42893e-07
-4.68962e-09
-6.48914e-10
-1.03603e-11
1.99745e-18
2.81549e-18
1.2582e-18
2.27955e-18
2.01733e-18
1.17945e-18
5.05632e-19
5.9912e-19
1.50578e-19
9.28886e-19
5.72861e-20
3.90985e-19
1.24571e-18
1.27435e-18
4.02173e-19
3.09625e-18
4.34425e-18
6.8514e-18
5.4356e-18
8.35566e-18
3.47399e-18
3.47149e-18
7.44515e-18
5.94833e-18
1.05065e-17
2.24329e-17
1.60152e-17
4.31766e-18
5.91361e-17
1.72207e-16
5.2662e-16
1.61131e-15
5.24367e-15
1.63833e-14
5.17218e-14
1.62537e-13
5.0984e-13
1.54775e-12
4.97471e-12
1.55e-11
4.46571e-11
1.2553e-10
3.51637e-10
9.93944e-10
2.66124e-09
6.78605e-09
1.57098e-08
3.2118e-08
5.63423e-08
8.35905e-08
1.06855e-07
1.2368e-07
1.37218e-07
1.51058e-07
1.77772e-07
2.27516e-07
3.43172e-07
6.76697e-07
1.80587e-06
6.56141e-06
3.14113e-05
0.000158597
0.000692671
0.00165118
0.00249349
0.00345578
0.00498857
0.00857776
0.0183519
0.0435839
0.100773
0.225939
0.480419
0.8213
0.774292
0.0136627
-0.259713
-0.317369
-0.321468
-0.218552
-0.114406
-0.0571936
-0.0292837
-0.0151111
-0.00811296
-0.00444152
-0.00245085
-0.00134937
-0.000735379
-0.000388788
-0.000203998
-0.000104354
-4.46543e-05
-1.17582e-05
-1.09583e-06
3.20619e-07
1.411e-07
-4.67718e-09
-6.4143e-10
-1.02432e-11
7.74543e-19
5.90141e-19
2.68406e-18
3.0315e-18
2.13981e-18
4.70321e-19
4.14714e-19
3.16442e-18
1.21655e-19
-8.12859e-19
3.38683e-18
2.29093e-18
3.755e-18
5.45215e-18
2.77929e-18
4.60768e-18
6.70988e-18
7.44389e-18
6.05915e-18
7.82926e-18
1.35337e-17
-1.0248e-18
-1.03122e-18
4.20717e-18
9.26304e-18
1.16606e-17
1.28432e-17
1.84391e-17
4.77394e-17
1.56002e-16
5.16728e-16
1.65185e-15
5.24646e-15
1.6716e-14
5.31566e-14
1.65993e-13
5.20327e-13
1.56913e-12
4.81824e-12
1.47659e-11
4.42897e-11
1.24802e-10
3.449e-10
9.79886e-10
2.64367e-09
6.74335e-09
1.56318e-08
3.20086e-08
5.62351e-08
8.35276e-08
1.0684e-07
1.23689e-07
1.37245e-07
1.51132e-07
1.77896e-07
2.27927e-07
3.44966e-07
6.83268e-07
1.83349e-06
6.70381e-06
3.22844e-05
0.000163567
0.000710609
0.00166956
0.00251057
0.00347737
0.00503249
0.00869943
0.0186974
0.0444096
0.10248
0.229524
0.486716
0.825547
0.764189
0.00203451
-0.261245
-0.317853
-0.320189
-0.216434
-0.113089
-0.0565472
-0.0289638
-0.0149573
-0.00803307
-0.00439875
-0.00242749
-0.00133648
-0.000728243
-0.000385062
-0.000202019
-0.000103335
-4.41124e-05
-1.15769e-05
-1.0701e-06
3.16995e-07
1.38818e-07
-4.65921e-09
-6.31953e-10
-1.00949e-11
-5.09119e-19
-3.46017e-20
2.4135e-18
1.42002e-18
1.40458e-18
1.21744e-18
4.51497e-18
1.61227e-18
1.05997e-18
9.17737e-19
2.08703e-18
3.07649e-18
6.3739e-18
4.85295e-18
-3.42621e-19
2.11542e-18
2.51456e-18
-1.53018e-19
5.8708e-19
4.62904e-18
-4.52837e-19
1.08204e-17
2.5254e-18
1.43721e-17
1.37349e-17
1.65307e-17
1.90217e-17
2.99798e-17
4.04111e-17
1.57974e-16
4.8224e-16
1.54242e-15
5.07626e-15
1.64418e-14
5.08644e-14
1.64905e-13
5.08708e-13
1.55482e-12
4.80445e-12
1.48466e-11
4.30147e-11
1.25324e-10
3.46637e-10
9.67617e-10
2.6036e-09
6.67242e-09
1.55119e-08
3.18391e-08
5.60631e-08
8.34106e-08
1.06793e-07
1.2368e-07
1.37264e-07
1.51211e-07
1.77984e-07
2.2836e-07
3.47045e-07
6.91045e-07
1.86661e-06
6.87569e-06
3.33353e-05
0.000169429
0.000730604
0.00169019
0.00253013
0.00350173
0.00508227
0.00883619
0.0190809
0.0453639
0.10451
0.23372
0.494244
0.830393
0.75169
-0.0113878
-0.262997
-0.318395
-0.318594
-0.213922
-0.111559
-0.0557965
-0.0285911
-0.0147777
-0.00794003
-0.00434881
-0.00240015
-0.00132138
-0.000719875
-0.000380692
-0.000199696
-0.000102135
-4.34739e-05
-1.13665e-05
-1.04113e-06
3.12544e-07
1.36147e-07
-4.63497e-09
-6.20996e-10
-9.92336e-12
-2.76148e-19
7.84372e-19
-3.75795e-20
9.52387e-19
4.10649e-19
3.12901e-19
2.38255e-18
1.77257e-18
1.04699e-18
3.79275e-18
3.20518e-18
2.43355e-18
1.64592e-18
-1.92464e-18
1.07881e-18
4.90295e-18
1.21443e-19
4.01564e-18
1.12109e-18
5.33362e-18
7.53354e-18