/*--------------------------------*- C++ -*----------------------------------*\
  =========                 |
  \\      /  F ield         | OpenFOAM: The Open Source CFD Toolbox
   \\    /   O peration     | Website:  https://openfoam.org
    \\  /    A nd           | Version:  10
     \\/     M anipulation  |
\*---------------------------------------------------------------------------*/
FoamFile
{
    format      ascii;
    class       volScalarField;
    location    "1";
    object      RR.CH4;
}
// * * * * * * * * * * * * * * * * * * * * * * * * * * * * * * * * * * * * * //

dimensions      [1 -3 -1 0 0 0 0];

internalField   nonuniform List<scalar> 
4000
(
1.46801e-22
1.67876e-22
1.84652e-22
2.18538e-22
2.57588e-22
2.99765e-22
3.52655e-22
4.20612e-22
5.23335e-22
7.08664e-22
1.10008e-21
1.61729e-21
2.22609e-21
2.91309e-21
3.70058e-21
4.5955e-21
5.58351e-21
6.74964e-21
8.12438e-21
9.72544e-21
1.15349e-20
1.37535e-20
1.67053e-20
2.06653e-20
2.77899e-20
4.26572e-20
7.95619e-20
1.87124e-19
4.9746e-19
1.4285e-18
4.23389e-18
1.26377e-17
3.74383e-17
1.10273e-16
3.23592e-16
9.03524e-16
2.61795e-15
7.33474e-15
2.04421e-14
5.61029e-14
1.46847e-13
3.75638e-13
9.20564e-13
2.19066e-12
5.03443e-12
1.16278e-11
2.66808e-11
5.84208e-11
1.19927e-10
2.28996e-10
4.15484e-10
7.73976e-10
1.54353e-09
4.20288e-09
1.41588e-08
5.05493e-08
1.69658e-07
5.63012e-07
1.75934e-06
5.21516e-06
1.53265e-05
4.59853e-05
0.000155533
0.00048767
0.00108814
0.00188155
0.00322203
0.00633921
0.0141082
0.0324155
0.0747049
0.173308
0.392898
0.76995
1.19796
1.28807
1.19571
1.11553
0.957674
0.438239
-0.199949
-0.776917
-0.952392
-0.609648
-0.435592
-0.247919
-0.137523
-0.0762966
-0.0419542
-0.0226761
-0.011976
-0.00599247
-0.00294719
-0.00138004
-0.000472849
-0.000118421
-2.80581e-05
-6.32497e-06
-1.16013e-06
-6.82664e-08
2.38102e-22
8.55377e-22
1.28129e-21
1.83141e-21
2.20791e-21
2.48209e-21
2.73292e-21
2.99182e-21
3.39133e-21
3.89442e-21
4.50958e-21
5.26558e-21
6.0773e-21
6.88868e-21
7.82299e-21
8.85887e-21
9.95757e-21
1.12672e-20
1.27219e-20
1.45766e-20
1.67428e-20
1.93572e-20
2.29316e-20
2.77973e-20
3.6778e-20
5.56826e-20
1.05256e-19
2.50028e-19
6.82024e-19
1.97658e-18
5.94171e-18
1.83269e-17
5.4667e-17
1.58644e-16
4.56805e-16
1.31633e-15
3.67404e-15
1.03709e-14
2.78184e-14
7.45039e-14
1.9458e-13
4.87278e-13
1.19159e-12
2.79512e-12
6.63273e-12
1.54351e-11
3.48086e-11
7.39898e-11
1.47508e-10
2.76248e-10
4.76831e-10
8.23105e-10
1.76656e-09
4.83312e-09
1.61411e-08
5.71294e-08
1.82135e-07
5.84116e-07
1.78398e-06
5.21482e-06
1.52299e-05
4.54289e-05
0.000152176
0.000474287
0.00106007
0.00183554
0.00311832
0.00608664
0.0134646
0.0309044
0.071638
0.166706
0.380623
0.756303
1.19428
1.30059
1.20575
1.12552
0.967758
0.441074
-0.20867
-0.795384
-0.955073
-0.604843
-0.433503
-0.244113
-0.135345
-0.0750244
-0.041164
-0.0221923
-0.0116822
-0.00582502
-0.0028562
-0.00132181
-0.00043874
-0.000108626
-2.57844e-05
-5.83562e-06
-1.07427e-06
-6.33854e-08
9.9891e-22
2.10022e-21
3.33848e-21
4.48135e-21
6.13618e-21
6.69616e-21
7.29305e-21
8.03117e-21
8.79388e-21
9.3479e-21
1.01769e-20
1.09309e-20
1.17273e-20
1.24815e-20
1.32986e-20
1.42593e-20
1.51962e-20
1.64899e-20
1.83821e-20
2.0738e-20
2.34454e-20
2.70054e-20
3.14498e-20
3.78697e-20
4.93533e-20
7.58622e-20
1.44495e-19
3.51711e-19
9.67581e-19
2.80031e-18
8.59664e-18
2.54069e-17
7.37561e-17
2.15869e-16
6.2641e-16
1.7688e-15
4.88099e-15
1.33307e-14
3.60431e-14
9.37613e-14
2.41518e-13
5.84145e-13
1.46173e-12
3.38433e-12
8.05567e-12
1.83489e-11
4.10838e-11
8.59073e-11
1.65062e-10
3.0275e-10
5.17553e-10
9.1112e-10
2.01119e-09
5.74619e-09
1.84878e-08
6.04911e-08
1.88471e-07
5.96466e-07
1.80336e-06
5.23121e-06
1.51968e-05
4.51502e-05
0.000150026
0.000463658
0.00103715
0.00179716
0.00303007
0.00584243
0.0128965
0.0296876
0.069111
0.160706
0.369405
0.742497
1.18961
1.31454
1.21754
1.1377
0.979503
0.44274
-0.222803
-0.821305
-0.957245
-0.59832
-0.428892
-0.238605
-0.13215
-0.0731054
-0.0400425
-0.0214943
-0.0112594
-0.00558901
-0.00273246
-0.00124273
-0.000398202
-9.79314e-05
-2.34283e-05
-5.32536e-06
-9.83466e-07
-5.82611e-08
7.08533e-22
1.77036e-21
3.21584e-21
4.20349e-21
5.36601e-21
6.37919e-21
6.93332e-21
7.75219e-21
9.26849e-21
1.05595e-20
1.16662e-20
1.26934e-20
1.39855e-20
1.54362e-20
1.69443e-20
1.86778e-20
2.0438e-20
2.23521e-20
2.44775e-20
2.68074e-20
3.02245e-20
3.51582e-20
4.0708e-20
4.74284e-20
6.24506e-20
9.90993e-20
1.9753e-19
4.87408e-19
1.33269e-18
3.97169e-18
1.16696e-17
3.43255e-17
9.95763e-17
2.87907e-16
8.23989e-16
2.29853e-15
6.26685e-15
1.70798e-14
4.54232e-14
1.17639e-13
2.99546e-13
7.24647e-13
1.77673e-12
4.10132e-12
9.32802e-12
2.15818e-11
4.73661e-11
9.62818e-11
1.86365e-10
3.21671e-10
5.4078e-10
1.02373e-09
2.34982e-09
6.65754e-09
2.11051e-08
6.22464e-08
1.93658e-07
6.06299e-07
1.81431e-06
5.22605e-06
1.51256e-05
4.47679e-05
0.000147787
0.000454962
0.00101916
0.00176724
0.00296233
0.00566407
0.0124339
0.0286243
0.0667289
0.155171
0.359517
0.730594
1.184
1.32582
1.22778
1.14942
0.990525
0.442587
-0.237659
-0.845109
-0.958972
-0.588215
-0.420427
-0.23234
-0.128703
-0.0711946
-0.0390206
-0.020679
-0.0108012
-0.00535455
-0.00261217
-0.00116517
-0.000360692
-8.86283e-05
-2.13515e-05
-4.86688e-06
-9.02543e-07
-5.36623e-08
4.68137e-22
1.22338e-21
1.99093e-21
3.07809e-21
4.27415e-21
5.20745e-21
6.45669e-21
7.60688e-21
9.15181e-21
1.07576e-20
1.2149e-20
1.35826e-20
1.5138e-20
1.67863e-20
1.9131e-20
2.19642e-20
2.4238e-20
2.60127e-20
2.84642e-20
3.12863e-20
3.49685e-20
4.02533e-20
4.59908e-20
5.4396e-20
7.29974e-20
1.20014e-19
2.53316e-19
6.49489e-19
1.81575e-18
5.26416e-18
1.54016e-17
4.60232e-17
1.31892e-16
3.77488e-16
1.05926e-15
2.94105e-15
7.90612e-15
2.07568e-14
5.53265e-14
1.43131e-13
3.57093e-13
8.7043e-13
2.04121e-12
4.80536e-12
1.084e-11
2.46956e-11
5.27973e-11
1.08961e-10
1.958e-10
3.32582e-10
5.85883e-10
1.11484e-09
2.63549e-09
7.77261e-09
2.19756e-08
6.45383e-08
1.99144e-07
6.15731e-07
1.82687e-06
5.23679e-06
1.51081e-05
4.46107e-05
0.00014653
0.000448956
0.00100544
0.00174402
0.0029167
0.00554125
0.0121219
0.0278752
0.0650714
0.151461
0.352199
0.72134
1.18141
1.33755
1.23808
1.16059
1.00044
0.441996
-0.25294
-0.87014
-0.95755
-0.583182
-0.413943
-0.227902
-0.126134
-0.0696812
-0.0381166
-0.0201555
-0.0104893
-0.00518801
-0.00252415
-0.00110457
-0.00033301
-8.17319e-05
-1.97917e-05
-4.52198e-06
-8.41259e-07
-5.02835e-08
2.8795e-22
9.08051e-22
1.75969e-21
2.78079e-21
3.79292e-21
4.83878e-21
5.97745e-21
7.01508e-21
7.91295e-21
9.29201e-21
1.08152e-20
1.27121e-20
1.4428e-20
1.60078e-20
1.84355e-20
2.14593e-20
2.41692e-20
2.74798e-20
3.09454e-20
3.59585e-20
4.18582e-20
4.65233e-20
5.31067e-20
6.25348e-20
8.53925e-20
1.47352e-19
3.24805e-19
8.41542e-19
2.40666e-18
6.90667e-18
1.99512e-17
5.92553e-17
1.67796e-16
4.71494e-16
1.30324e-15
3.57069e-15
9.5172e-15
2.46685e-14
6.54929e-14
1.73863e-13
4.23842e-13
1.0057e-12
2.36459e-12
5.50521e-12
1.23991e-11
2.75103e-11
5.96439e-11
1.14146e-10
2.04117e-10
3.57235e-10
6.28384e-10
1.20777e-09
2.83527e-09
8.29506e-09
2.32385e-08
6.70662e-08
2.03028e-07
6.22349e-07
1.83126e-06
5.22651e-06
1.50432e-05
4.43357e-05
0.000145048
0.000443283
0.000994567
0.00172801
0.00288024
0.00543445
0.0118422
0.027271
0.0638097
0.148501
0.346566
0.71485
1.17925
1.34571
1.24565
1.169
1.00849
0.442119
-0.264795
-0.889606
-0.955723
-0.580103
-0.409111
-0.224854
-0.124353
-0.0686126
-0.0374617
-0.0197845
-0.0102656
-0.00507178
-0.00246227
-0.00106047
-0.000313903
-7.69978e-05
-1.87087e-05
-4.27973e-06
-7.97887e-07
-4.77983e-08
2.35559e-22
7.88382e-22
1.44841e-21
2.16003e-21
2.8613e-21
3.73591e-21
4.85726e-21
6.08013e-21
7.85031e-21
9.50631e-21
1.1351e-20
1.31642e-20
1.50437e-20
1.70843e-20
1.91551e-20
2.16553e-20
2.43227e-20
2.69125e-20
2.9592e-20
3.33399e-20
3.82001e-20
4.40033e-20
5.05858e-20
6.39333e-20
9.55198e-20
1.75494e-19
4.03168e-19
1.05095e-18
3.02321e-18
8.782e-18
2.52138e-17
7.21407e-17
2.04448e-16
5.73658e-16
1.56488e-15
4.27931e-15
1.16047e-14
2.983e-14
7.90484e-14
2.00179e-13
4.88607e-13
1.16776e-12
2.7203e-12
6.1219e-12
1.3799e-11
3.05931e-11
6.3871e-11
1.16945e-10
2.16524e-10
3.80418e-10
6.62523e-10
1.27078e-09
2.98104e-09
8.66184e-09
2.4064e-08
6.887e-08
2.05811e-07
6.25426e-07
1.83009e-06
5.20468e-06
1.49497e-05
4.39785e-05
0.00014338
0.000437553
0.000983856
0.00171306
0.00284987
0.00534819
0.0116262
0.0267595
0.0626775
0.145861
0.341313
0.708119
1.17613
1.3527
1.25203
1.17625
1.01651
0.444633
-0.272184
-0.903453
-0.954753
-0.578565
-0.405955
-0.22294
-0.123229
-0.0679319
-0.0370378
-0.0195446
-0.0101186
-0.00499641
-0.0024218
-0.00103017
-0.000300967
-7.38279e-05
-1.79784e-05
-4.11742e-06
-7.6871e-07
-4.61222e-08
4.73982e-22
1.03315e-21
1.7918e-21
2.91565e-21
3.97059e-21
5.15677e-21
6.11042e-21
7.27647e-21
8.76964e-21
1.02956e-20
1.18468e-20
1.39829e-20
1.6306e-20
1.86073e-20
2.05786e-20
2.31625e-20
2.61855e-20
2.90409e-20
3.20261e-20
3.5854e-20
3.95229e-20
4.44024e-20
5.20176e-20
6.7506e-20
1.05183e-19
2.06555e-19
4.96642e-19
1.32625e-18
3.68839e-18
1.04888e-17
3.04923e-17
8.82038e-17
2.4776e-16
6.86249e-16
1.85322e-15
4.99265e-15
1.3382e-14
3.4061e-14
8.97145e-14
2.27226e-13
5.5391e-13
1.29937e-12
3.04021e-12
6.82982e-12
1.53938e-11
3.34961e-11
6.61476e-11
1.24964e-10
2.29879e-10
4.01246e-10
7.01525e-10
1.33969e-09
3.12871e-09
9.00474e-09
2.47628e-08
7.01259e-08
2.07347e-07
6.25212e-07
1.81997e-06
5.15995e-06
1.47952e-05
4.34561e-05
0.00014121
0.000431192
0.000972063
0.00169473
0.00281749
0.00526317
0.0114095
0.0262435
0.0615147
0.143148
0.335649
0.700366
1.17148
1.35933
1.25753
1.1825
1.02484
0.450173
-0.27462
-0.911962
-0.955401
-0.578495
-0.404499
-0.22204
-0.122684
-0.0675892
-0.0368149
-0.0194163
-0.0100368
-0.00495447
-0.00239873
-0.00101131
-0.000292891
-7.1846e-05
-1.7525e-05
-4.01531e-06
-7.50363e-07
-4.50695e-08
4.18183e-22
1.28998e-21
2.2828e-21
3.37816e-21
4.14672e-21
5.34965e-21
6.64606e-21
8.25332e-21
9.78033e-21
1.15687e-20
1.24505e-20
1.40235e-20
1.64179e-20
1.8591e-20
2.13454e-20
2.36678e-20
2.64921e-20
2.95512e-20
3.24721e-20
3.50372e-20
3.91687e-20
4.5095e-20
5.34886e-20
7.21e-20
1.17188e-19
2.42178e-19
5.96698e-19
1.62252e-18
4.57032e-18
1.2971e-17
3.64493e-17
1.04219e-16
2.90629e-16
8.04542e-16
2.17797e-15
5.81327e-15
1.5305e-14
3.85841e-14
1.0097e-13
2.5448e-13
6.11787e-13
1.45336e-12
3.35696e-12
7.61615e-12
1.62459e-11
3.32799e-11
6.91059e-11
1.33837e-10
2.43388e-10
4.24212e-10
7.34373e-10
1.39615e-09
3.24779e-09
9.26833e-09
2.52279e-08
7.08434e-08
2.07561e-07
6.21462e-07
1.80017e-06
5.08969e-06
1.45569e-05
4.2604e-05
0.000138021
0.000421224
0.000955854
0.00167476
0.00277567
0.00516281
0.0111404
0.025629
0.0600406
0.139693
0.328985
0.691209
1.16523
1.36559
1.26243
1.18802
1.03378
0.458935
-0.272341
-0.915875
-0.957876
-0.57972
-0.404578
-0.222014
-0.122633
-0.0675323
-0.0367609
-0.0193802
-0.0100083
-0.00493941
-0.00238965
-0.00100166
-0.000288429
-7.07583e-05
-1.72765e-05
-3.95917e-06
-7.40287e-07
-4.44944e-08
3.88706e-22
1.19661e-21
2.20648e-21
3.14208e-21
4.02988e-21
5.08999e-21
6.53737e-21
8.02717e-21
9.55448e-21
1.11117e-20
1.29302e-20
1.51814e-20
1.72713e-20
1.94127e-20
2.22386e-20
2.51953e-20
2.81445e-20
3.11845e-20
3.50385e-20
3.84856e-20
4.15825e-20
4.65302e-20
5.65388e-20
7.71495e-20
1.31506e-19
2.77626e-19
6.96514e-19
1.89708e-18
5.42758e-18
1.54907e-17
4.38326e-17
1.22168e-16
3.36406e-16
9.17212e-16
2.45888e-15
6.50564e-15
1.68212e-14
4.25902e-14
1.11619e-13
2.77942e-13
6.62843e-13
1.5616e-12
3.59288e-12
7.87778e-12
1.66146e-11
3.60547e-11
7.36859e-11
1.41544e-10
2.57112e-10
4.43459e-10
7.63897e-10
1.45052e-09
3.3591e-09
9.43051e-09
2.55027e-08
7.12079e-08
2.06774e-07
6.15425e-07
1.77627e-06
5.0121e-06
1.43103e-05
4.17487e-05
0.000134417
0.000411001
0.000938431
0.00165082
0.00273372
0.00506128
0.0108776
0.0249829
0.0577962
0.136509
0.322186
0.680687
1.1561
1.37159
1.26724
1.19365
1.04399
0.470934
-0.26594
-0.916021
-0.961994
-0.582012
-0.405907
-0.22269
-0.122978
-0.067704
-0.0368414
-0.0194168
-0.0100216
-0.00494541
-0.0023915
-0.000999179
-0.000286789
-7.03471e-05
-1.71829e-05
-3.93774e-06
-7.36451e-07
-4.428e-08
4.59589e-22
1.31003e-21
2.46451e-21
3.2437e-21
4.10286e-21
5.08404e-21
5.97602e-21
7.02471e-21
8.23809e-21
9.74112e-21
1.19645e-20
1.42707e-20
1.63868e-20
1.86434e-20
2.04112e-20
2.24134e-20
2.44837e-20
2.68557e-20
3.04628e-20
3.53293e-20
3.98219e-20
4.59677e-20
5.69537e-20
8.18022e-20
1.4353e-19
3.15255e-19
7.93443e-19
2.16683e-18
6.17634e-18
1.76187e-17
4.97688e-17
1.38466e-16
3.78308e-16
1.03636e-15
2.74674e-15
7.20488e-15
1.86389e-14
4.65396e-14
1.22733e-13
3.00002e-13
7.11976e-13
1.65252e-12
3.71455e-12
8.10422e-12
1.79251e-11
3.84292e-11
7.81472e-11
1.49789e-10
2.69394e-10
4.62327e-10
7.97408e-10
1.52864e-09
3.61511e-09
9.42584e-09
2.56291e-08
7.12041e-08
2.05004e-07
6.06549e-07
1.74359e-06
4.89804e-06
1.3956e-05
4.06309e-05
0.000130862
0.000400731
0.000921237
0.00162783
0.002692
0.00495637
0.0106264
0.0243985
0.0564189
0.133213
0.314768
0.669213
1.14675
1.37709
1.27131
1.19823
1.05362
0.484383
-0.256766
-0.913315
-0.967296
-0.585111
-0.408224
-0.223905
-0.123622
-0.0680469
-0.0370237
-0.0195084
-0.0100666
-0.00496712
-0.00240152
-0.00100207
-0.000287186
-7.04234e-05
-1.72013e-05
-3.94141e-06
-7.37132e-07
-4.43271e-08
3.63958e-22
1.15372e-21
2.2765e-21
3.11838e-21
3.87733e-21
5.02955e-21
6.49211e-21
7.98098e-21
9.2198e-21
1.06469e-20
1.24483e-20
1.43219e-20
1.59658e-20
1.77486e-20
1.96079e-20
2.19311e-20
2.44793e-20
2.73727e-20
2.97773e-20
3.3397e-20
3.80473e-20
4.54215e-20
5.89924e-20
8.70758e-20
1.59406e-19
3.50986e-19
8.88267e-19
2.39439e-18
6.88491e-18
1.94435e-17
5.39684e-17
1.52138e-16
4.20523e-16
1.13886e-15
3.05998e-15
7.96369e-15
2.02492e-14
5.05665e-14
1.29195e-13
3.2345e-13
7.589e-13
1.74814e-12
3.90686e-12
8.64559e-12
1.90344e-11
4.05626e-11
8.20134e-11
1.5639e-10
2.79681e-10
4.77845e-10
8.23635e-10
1.58569e-09
3.75117e-09
9.31815e-09
2.56918e-08
7.09357e-08
2.02556e-07
5.96984e-07
1.71035e-06
4.80643e-06
1.3656e-05
3.96314e-05
0.000126869
0.00039009
0.000903899
0.00160526
0.00265232
0.00485643
0.0103772
0.0238515
0.0549014
0.129666
0.307335
0.657912
1.13678
1.38155
1.27458
1.20217
1.06307
0.499071
-0.245623
-0.908495
-0.973303
-0.588773
-0.411221
-0.225534
-0.12451
-0.0685326
-0.0372856
-0.0196418
-0.0101357
-0.00500112
-0.00241799
-0.00100898
-0.000289056
-7.08445e-05
-1.72979e-05
-3.9625e-06
-7.40948e-07
-4.4556e-08
2.5779e-22
7.95369e-22
1.69785e-21
2.59148e-21
3.7111e-21
5.1158e-21
7.07763e-21
8.63397e-21
9.70129e-21
1.14003e-20
1.33961e-20
1.51104e-20
1.68491e-20
1.87127e-20
2.09517e-20
2.33911e-20
2.49523e-20
2.69572e-20
3.03592e-20
3.42455e-20
3.99006e-20
4.66601e-20
6.00928e-20
9.00145e-20
1.66561e-19
3.75726e-19
9.61868e-19
2.62326e-18
7.37659e-18
2.15228e-17
5.97874e-17
1.67361e-16
4.57019e-16
1.24576e-15
3.29195e-15
8.51999e-15
2.15291e-14
5.35903e-14
1.36294e-13
3.42834e-13
8.06776e-13
1.86467e-12
4.15249e-12
9.23666e-12
1.99854e-11
4.24767e-11
8.56986e-11
1.62122e-10
2.88004e-10
4.89365e-10
8.39605e-10
1.60833e-09
3.7702e-09
9.23312e-09
2.58333e-08
7.06471e-08
1.99891e-07
5.85847e-07
1.67577e-06
4.70304e-06
1.33706e-05
3.86643e-05
0.00012326
0.000379672
0.000886273
0.001582
0.00261215
0.00475635
0.0101185
0.0232518
0.0535322
0.12653
0.300324
0.646351
1.12529
1.38542
1.27785
1.20614
1.07237
0.514572
-0.232713
-0.901937
-0.980104
-0.592994
-0.414735
-0.227437
-0.125545
-0.0691016
-0.037601
-0.019805
-0.0102209
-0.00504232
-0.00243793
-0.00101829
-0.000291869
-7.15099e-05
-1.74533e-05
-3.99701e-06
-7.47194e-07
-4.49251e-08
3.31978e-22
1.20345e-21
1.82971e-21
2.69542e-21
3.64944e-21
4.715e-21
6.29392e-21
7.74084e-21
9.07966e-21
1.09972e-20
1.25546e-20
1.45635e-20
1.68113e-20
1.93005e-20
2.2033e-20
2.45576e-20
2.66292e-20
2.77825e-20
3.09645e-20
3.4279e-20
4.08564e-20
4.79065e-20
6.0051e-20
8.93959e-20
1.69556e-19
3.93328e-19
1.04538e-18
2.88138e-18
8.08756e-18
2.2854e-17
6.41015e-17
1.79504e-16
4.8989e-16
1.31476e-15
3.47742e-15
8.97931e-15
2.28343e-14
5.61596e-14
1.44957e-13
3.61171e-13
8.4148e-13
1.92826e-12
4.36326e-12
9.69187e-12
2.08766e-11
4.42201e-11
8.85459e-11
1.66532e-10
2.94375e-10
4.9801e-10
8.50813e-10
1.62289e-09
3.77131e-09
9.14808e-09
2.58869e-08
7.02851e-08
1.97414e-07
5.76587e-07
1.64575e-06
4.60454e-06
1.30566e-05
3.76763e-05
0.000119956
0.000370046
0.000870073
0.0015607
0.00257537
0.00467177
0.0098905
0.0227023
0.0522786
0.123436
0.293649
0.635559
1.11453
1.38838
1.28058
1.20956
1.08115
0.530442
-0.219294
-0.894583
-0.986842
-0.597409
-0.418434
-0.229447
-0.126637
-0.0697022
-0.0379333
-0.0199773
-0.0103124
-0.00508731
-0.00246017
-0.00102928
-0.000295374
-7.23164e-05
-1.76386e-05
-4.03799e-06
-7.54575e-07
-4.53592e-08
4.9075e-22
1.38096e-21
2.27656e-21
3.35238e-21
4.27296e-21
4.85927e-21
5.64499e-21
6.72322e-21
8.3936e-21
1.06179e-20
1.28446e-20
1.52775e-20
1.77308e-20
2.01063e-20
2.19297e-20
2.42222e-20
2.68003e-20
2.92753e-20
3.0831e-20
3.34327e-20
3.75672e-20
4.48095e-20
5.91805e-20
9.07384e-20
1.76673e-19
4.16271e-19
1.10188e-18
3.0369e-18
8.5181e-18
2.43679e-17
6.8332e-17
1.90768e-16
5.15625e-16
1.38167e-15
3.59588e-15
9.20338e-15
2.39485e-14
5.87073e-14
1.50599e-13
3.66488e-13
8.92075e-13
2.03093e-12
4.57152e-12
9.95919e-12
2.15678e-11
4.5491e-11
9.07238e-11
1.69965e-10
2.99408e-10
5.05083e-10
8.60443e-10
1.6325e-09
3.76738e-09
9.07397e-09
2.58492e-08
6.97653e-08
1.94565e-07
5.66825e-07
1.61405e-06
4.51595e-06
1.27799e-05
3.6775e-05
0.00011672
0.00036123
0.000855073
0.00154107
0.002542
0.00459075
0.00968157
0.0222107
0.0511628
0.120764
0.287634
0.625404
1.10437
1.39071
1.28297
1.21268
1.08902
0.545069
-0.206603
-0.887229
-0.992977
-0.601581
-0.421936
-0.231368
-0.127683
-0.0702795
-0.0382538
-0.0201437
-0.0104009
-0.00513056
-0.00248152
-0.00104008
-0.000298825
-7.31315e-05
-1.78264e-05
-4.07963e-06
-7.62084e-07
-4.58003e-08
4.31246e-22
1.23521e-21
2.22082e-21
3.19406e-21
4.07977e-21
5.17097e-21
6.17835e-21
6.96407e-21
8.18898e-21
9.58828e-21
1.11493e-20
1.36222e-20
1.53763e-20
1.71541e-20
1.98351e-20
2.30124e-20
2.57971e-20
2.9135e-20
3.21221e-20
3.51383e-20
3.89847e-20
4.6364e-20
6.20091e-20
9.59769e-20
1.87484e-19
4.39291e-19
1.16451e-18
3.20028e-18
8.88477e-18
2.54388e-17
7.05044e-17
1.96167e-16
5.36269e-16
1.43236e-15
3.76234e-15
9.76103e-15
2.47445e-14
6.27387e-14
1.58124e-13
3.9057e-13
9.18028e-13
2.08749e-12
4.69645e-12
1.01677e-11
2.20945e-11
4.64941e-11
9.24108e-11
1.72584e-10
3.03136e-10
5.09946e-10
8.66694e-10
1.63871e-09
3.76201e-09
9.01192e-09
2.57869e-08
6.92618e-08
1.92055e-07
5.57554e-07
1.58628e-06
4.43391e-06
1.25429e-05
3.60294e-05
0.000114102
0.000354048
0.000842452
0.00152448
0.00251468
0.0045274
0.00951939
0.0217869
0.0502128
0.118525
0.28248
0.616841
1.09558
1.39236
1.28501
1.21529
1.09547
0.5576
-0.195515
-0.880547
-0.998146
-0.605257
-0.425015
-0.233072
-0.128613
-0.0707938
-0.0385402
-0.020293
-0.0104813
-0.00516982
-0.00250099
-0.00105006
-0.000302058
-7.38908e-05
-1.80007e-05
-4.11824e-06
-7.69035e-07
-4.62078e-08
2.76827e-22
1.20253e-21
2.11361e-21
2.57292e-21
3.36065e-21
4.55544e-21
6.04358e-21
7.96642e-21
9.22336e-21
1.04386e-20
1.18197e-20
1.3659e-20
1.54868e-20
1.7567e-20
2.04332e-20
2.31079e-20
2.49659e-20
2.79764e-20
3.14072e-20
3.62422e-20
4.16643e-20
5.00163e-20
6.64538e-20
1.01434e-19
1.97747e-19
4.64524e-19
1.21375e-18
3.37305e-18
9.38284e-18
2.63178e-17
7.34221e-17
2.06065e-16
5.56886e-16
1.48481e-15
3.89448e-15
1.01319e-14
2.58648e-14
6.46738e-14
1.62113e-13
3.94025e-13
9.32234e-13
2.12984e-12
4.67439e-12
1.03485e-11
2.2552e-11
4.72695e-11
9.37059e-11
1.74599e-10
3.06034e-10
5.13805e-10
8.71573e-10
1.64335e-09
3.75781e-09
8.96598e-09
2.57189e-08
6.8834e-08
1.89989e-07
5.50826e-07
1.56595e-06
4.3743e-06
1.23634e-05
3.54282e-05
0.000111939
0.000347694
0.000831725
0.0015105
0.0024914
0.00447238
0.00937461
0.0214539
0.0494585
0.116752
0.278563
0.610153
1.08852
1.39338
1.28654
1.21729
1.10042
0.567597
-0.186471
-0.874888
-1.0023
-0.608296
-0.427532
-0.234471
-0.129376
-0.0712159
-0.0387753
-0.0204157
-0.0105471
-0.00520184
-0.00251675
-0.0010582
-0.000304788
-7.4525e-05
-1.81464e-05
-4.15055e-06
-7.74852e-07
-4.65486e-08
5.03152e-22
1.67638e-21
2.7559e-21
3.87773e-21
4.53286e-21
5.11408e-21
6.14967e-21
7.54584e-21
8.07946e-21
8.9294e-21
1.0287e-20
1.19789e-20
1.40736e-20
1.61963e-20
1.92015e-20
2.29696e-20
2.66512e-20
2.98325e-20
3.39751e-20
3.80788e-20
4.28389e-20
5.00191e-20
6.60285e-20
1.02505e-19
2.00326e-19
4.73349e-19
1.25325e-18
3.44952e-18
9.80499e-18
2.73115e-17
7.56259e-17
2.06629e-16
5.6952e-16
1.51097e-15
4.0142e-15
1.04562e-14
2.64938e-14
6.50654e-14
1.62328e-13
4.04136e-13
9.32967e-13
2.12972e-12
4.72773e-12
1.0468e-11
2.28758e-11
4.78294e-11
9.46378e-11
1.76048e-10
3.08131e-10
5.16713e-10
8.75115e-10
1.64705e-09
3.75583e-09
8.93606e-09
2.56704e-08
6.85402e-08
1.88605e-07
5.46074e-07
1.55141e-06
4.3318e-06
1.22366e-05
3.50207e-05
0.00011049
0.000343526
0.000824509
0.00150087
0.00247539
0.00443506
0.00927655
0.0212278
0.0489708
0.115579
0.275767
0.605444
1.08352
1.39398
1.2876
1.21868
1.10384
0.574655
-0.180031
-0.870789
-1.00518
-0.610476
-0.429327
-0.235477
-0.129925
-0.0715198
-0.0389449
-0.0205041
-0.0105947
-0.00522505
-0.00252825
-0.00106419
-0.000306762
-7.49875e-05
-1.82524e-05
-4.17404e-06
-7.79078e-07
-4.67961e-08
3.25067e-22
9.71877e-22
1.71677e-21
2.69174e-21
3.47502e-21
4.28967e-21
5.43331e-21
7.12234e-21
7.98098e-21
9.14196e-21
1.04017e-20
1.2079e-20
1.39918e-20
1.61209e-20
1.85425e-20
2.10792e-20
2.40135e-20
2.76115e-20
3.23404e-20
3.75691e-20
4.3093e-20
4.9909e-20
6.4947e-20
1.03096e-19
2.04136e-19
4.83027e-19
1.2741e-18
3.54931e-18
9.9355e-18
2.78198e-17
7.71101e-17
2.15843e-16
5.78716e-16
1.53647e-15
4.08405e-15
1.04601e-14
2.67963e-14
6.58193e-14
1.68906e-13
4.11019e-13
9.54616e-13
2.15862e-12
4.75483e-12
1.06145e-11
2.30363e-11
4.81694e-11
9.52485e-11
1.77012e-10
3.09512e-10
5.18554e-10
8.77416e-10
1.64957e-09
3.75585e-09
8.92189e-09
2.56536e-08
6.84044e-08
1.87931e-07
5.43721e-07
1.54402e-06
4.30972e-06
1.21697e-05
3.48101e-05
0.000109749
0.000341379
0.000820706
0.00149579
0.0024669
0.00441506
0.00922426
0.0211056
0.0486797
0.114922
0.274313
0.602953
1.08084
1.39423
1.28814
1.21939
1.10561
0.578425
-0.176537
-0.868512
-1.00673
-0.611674
-0.430312
-0.236031
-0.130228
-0.0716871
-0.0390381
-0.0205528
-0.0106208
-0.0052378
-0.00253459
-0.00106748
-0.000307833
-7.52388e-05
-1.83099e-05
-4.1868e-06
-7.81376e-07
-4.69308e-08
3.38504e-22
1.21002e-21
2.09708e-21
3.12467e-21
3.90631e-21
4.76137e-21
6.28852e-21
8.00625e-21
9.3659e-21
1.04778e-20
1.22666e-20
1.37089e-20
1.52246e-20
1.6231e-20
1.7917e-20
2.07201e-20
2.30951e-20
2.66393e-20
2.98845e-20
3.53868e-20
4.15955e-20
4.95833e-20
6.67826e-20
1.0667e-19
2.05599e-19
4.89638e-19
1.29137e-18
3.58185e-18
1.01582e-17
2.86055e-17
7.92336e-17
2.18504e-16
5.87065e-16
1.59015e-15
4.16624e-15
1.06382e-14
2.72811e-14
6.69761e-14
1.6974e-13
4.07492e-13
9.63986e-13
2.17848e-12
4.8248e-12
1.06492e-11
2.3135e-11
4.83706e-11
9.55971e-11
1.77562e-10
3.10316e-10
5.19682e-10
8.79031e-10
1.65185e-09
3.75857e-09
8.92189e-09
2.56734e-08
6.84104e-08
1.87825e-07
5.43244e-07
1.54244e-06
4.30496e-06
1.21553e-05
3.47639e-05
0.000109587
0.000340918
0.0008199
0.00149473
0.00246523
0.00441131
0.00921468
0.0210841
0.0486331
0.114814
0.274071
0.602546
1.0804
1.39425
1.28821
1.21949
1.10586
0.578996
-0.176003
-0.86816
-1.00696
-0.611858
-0.430464
-0.236117
-0.130274
-0.0717128
-0.0390523
-0.0205602
-0.0106248
-0.0052397
-0.00253553
-0.00106795
-0.000307993
-7.52742e-05
-1.83177e-05
-4.18845e-06
-7.81664e-07
-4.69474e-08
2.76678e-22
1.11619e-21
2.32836e-21
3.45581e-21
4.43841e-21
5.46288e-21
6.64317e-21
8.12444e-21
9.77162e-21
1.07137e-20
1.14144e-20
1.27556e-20
1.40861e-20
1.63562e-20
1.87871e-20
2.11738e-20
2.43017e-20
2.73529e-20
3.05786e-20
3.50433e-20
4.15899e-20
5.03278e-20
6.73029e-20
1.06855e-19
2.09346e-19
4.93611e-19
1.30202e-18
3.64057e-18
1.02163e-17
2.86688e-17
7.99221e-17
2.19156e-16
5.98739e-16
1.5897e-15
4.20092e-15
1.07735e-14
2.73962e-14
6.77697e-14
1.70614e-13
4.14562e-13
9.65156e-13
2.17586e-12
4.86164e-12
1.06778e-11
2.3122e-11
4.84432e-11
9.57113e-11
1.77745e-10
3.1061e-10
5.20173e-10
8.7999e-10
1.65423e-09
3.76562e-09
8.94134e-09
2.57471e-08
6.86156e-08
1.88506e-07
5.45301e-07
1.54839e-06
4.32203e-06
1.22059e-05
3.49238e-05
0.000110145
0.000342505
0.000822655
0.00149836
0.00247125
0.00442549
0.00925179
0.0211708
0.0488446
0.115278
0.275142
0.604355
1.08233
1.39403
1.28778
1.21893
1.10453
0.576231
-0.178557
-0.869831
-1.00584
-0.610989
-0.42975
-0.235715
-0.130055
-0.071591
-0.0389841
-0.0205246
-0.0106055
-0.00523033
-0.00253085
-0.00106546
-0.000307141
-7.50743e-05
-1.82719e-05
-4.17827e-06
-7.7983e-07
-4.68402e-08
3.12788e-22
8.38963e-22
1.60229e-21
2.49682e-21
3.71789e-21
4.79162e-21
5.60001e-21
7.14315e-21
8.99285e-21
1.00276e-20
1.12522e-20
1.26127e-20
1.40907e-20
1.65312e-20
1.85837e-20
2.18958e-20
2.48332e-20
2.64104e-20
2.90096e-20
3.35582e-20
4.0236e-20
4.98903e-20
6.64913e-20
1.0554e-19
2.05166e-19
4.85738e-19
1.27922e-18
3.59578e-18
1.00533e-17
2.82268e-17
7.83261e-17
2.13598e-16
5.96885e-16
1.57604e-15
4.08468e-15
1.04165e-14
2.69299e-14
6.49984e-14
1.66376e-13
4.12891e-13
9.51574e-13
2.17348e-12
4.78924e-12
1.06732e-11
2.30991e-11
4.83443e-11
9.55482e-11
1.77512e-10
3.10324e-10
5.19926e-10
8.80159e-10
1.65637e-09
3.77606e-09
8.97864e-09
2.58737e-08
6.90186e-08
1.89963e-07
5.49816e-07
1.56155e-06
4.35976e-06
1.23185e-05
3.52816e-05
0.000111395
0.000346062
0.000828788
0.00150638
0.00248454
0.00445678
0.0093336
0.0213612
0.0492706
0.116267
0.277446
0.608295
1.08654
1.3935
1.28685
1.21774
1.10166
0.570234
-0.184097
-0.873443
-1.00338
-0.609108
-0.428196
-0.234842
-0.129578
-0.0713268
-0.0388365
-0.0204476
-0.0105639
-0.00521002
-0.00252076
-0.00106013
-0.000305334
-7.46566e-05
-1.81758e-05
-4.1569e-06
-7.75974e-07
-4.66144e-08
5.66903e-22
1.22826e-21
1.83931e-21
2.67726e-21
3.57941e-21
4.51522e-21
5.63492e-21
7.07942e-21
8.56659e-21
9.8713e-21
1.16147e-20
1.29144e-20
1.4803e-20
1.71291e-20
2.0105e-20
2.33859e-20
2.61105e-20
2.94919e-20
3.25517e-20
3.64401e-20
4.10307e-20
4.83782e-20
6.36949e-20
1.01538e-19
2.04207e-19
4.84782e-19
1.27113e-18
3.50515e-18
9.95287e-18
2.78794e-17
7.76236e-17
2.12091e-16
5.81265e-16
1.54515e-15
4.06839e-15
1.05403e-14
2.66864e-14
6.49324e-14
1.6509e-13
4.09892e-13
9.49683e-13
2.13694e-12
4.75891e-12
1.06577e-11
2.29664e-11
4.80847e-11
9.51327e-11
1.769e-10
3.09522e-10
5.19039e-10
8.79723e-10
1.65875e-09
3.79148e-09
9.03758e-09
2.60645e-08
6.96515e-08
1.92307e-07
5.57166e-07
1.58309e-06
4.42159e-06
1.25019e-05
3.58644e-05
0.000113427
0.000351754
0.000838451
0.00151894
0.00250538
0.0045059
0.0094622
0.0216601
0.0499384
0.11788
0.281045
0.614335
1.09286
1.39256
1.28544
1.21594
1.09724
0.561178
-0.192399
-0.878761
-0.999649
-0.606324
-0.425873
-0.233544
-0.128869
-0.0709337
-0.0386168
-0.0203328
-0.0105021
-0.00517995
-0.00250582
-0.00105228
-0.000302714
-7.40387e-05
-1.80338e-05
-4.12532e-06
-7.70281e-07
-4.6281e-08
3.31954e-22
1.14458e-21
1.88264e-21
2.50709e-21
3.07047e-21
3.93437e-21
5.13021e-21
6.45141e-21
7.81812e-21
9.29545e-21
1.12028e-20
1.31691e-20
1.58234e-20
1.86663e-20
2.11574e-20
2.3734e-20
2.66828e-20
3.04497e-20
3.38193e-20
3.72838e-20
4.22805e-20
4.94347e-20
6.49128e-20
1.01936e-19
2.01355e-19
4.714e-19
1.2375e-18
3.40065e-18
9.64411e-18
2.73214e-17
7.53542e-17
2.09849e-16
5.66763e-16
1.51369e-15
3.98822e-15
1.0275e-14
2.62337e-14
6.45993e-14
1.60053e-13
3.92803e-13
9.38866e-13
2.11946e-12
4.67789e-12
1.05107e-11
2.27755e-11
4.77003e-11
9.44694e-11
1.75863e-10
3.08079e-10
5.17334e-10
8.7841e-10
1.66096e-09
3.81154e-09
9.11936e-09
2.63175e-08
7.04854e-08
1.95424e-07
5.67011e-07
1.61211e-06
4.50538e-06
1.27525e-05
3.66703e-05
0.000116281
0.000359499
0.000851219
0.00153527
0.00253257
0.00457058
0.00963109
0.0220566
0.0508146
0.119968
0.285704
0.622165
1.10101
1.39118
1.28363
1.21361
1.09138
0.549428
-0.203133
-0.885516
-0.994722
-0.602767
-0.422867
-0.231876
-0.127958
-0.0704295
-0.0383354
-0.0201859
-0.010423
-0.00514135
-0.00248674
-0.00104227
-0.000299392
-7.32573e-05
-1.7854e-05
-4.08536e-06
-7.63074e-07
-4.58589e-08
4.04091e-22
1.06146e-21
2.0362e-21
2.73695e-21
3.54909e-21
4.73574e-21
6.3271e-21
7.12006e-21
8.26804e-21
9.66877e-21
1.15347e-20
1.37398e-20
1.59325e-20
1.78945e-20
1.95516e-20
2.22088e-20
2.59737e-20
2.95381e-20
3.30819e-20
3.69979e-20
4.19144e-20
5.09747e-20
6.61843e-20
1.03588e-19
1.97628e-19
4.5723e-19
1.19849e-18
3.28087e-18
9.32311e-18
2.60038e-17
7.18957e-17
2.00936e-16
5.4742e-16
1.46304e-15
3.75453e-15
9.92627e-15
2.51699e-14
6.30981e-14
1.57593e-13
3.90547e-13
9.10783e-13
2.11154e-12
4.66322e-12
1.03442e-11
2.23916e-11
4.70919e-11
9.34985e-11
1.74378e-10
3.06032e-10
5.14754e-10
8.76009e-10
1.66245e-09
3.83509e-09
9.21869e-09
2.6589e-08
7.14978e-08
1.99193e-07
5.78839e-07
1.64671e-06
4.60419e-06
1.30443e-05
3.75946e-05
0.000119468
0.000368346
0.00086599
0.00155397
0.00256321
0.00464149
0.00981008
0.022515
0.0518589
0.122424
0.291324
0.631565
1.11064
1.3892
1.28144
1.21081
1.08416
0.535516
-0.215565
-0.89319
-0.988855
-0.598679
-0.419377
-0.22995
-0.126905
-0.0698451
-0.0380088
-0.0200155
-0.0103313
-0.00509651
-0.00246442
-0.00103063
-0.000295554
-7.23546e-05
-1.76463e-05
-4.03925e-06
-7.54764e-07
-4.5372e-08
5.3879e-22
1.23173e-21
1.85985e-21
2.64388e-21
3.48811e-21
4.60382e-21
6.10807e-21
7.18484e-21
8.56305e-21
1.02938e-20
1.18034e-20
1.38257e-20
1.58943e-20
1.807e-20
2.05688e-20
2.33757e-20
2.64407e-20
3.0758e-20
3.51765e-20
3.87789e-20
4.30589e-20
4.92584e-20
6.3284e-20
9.75737e-20
1.86405e-19
4.32796e-19
1.15142e-18
3.1699e-18
8.89976e-18
2.48131e-17
7.06789e-17
1.93728e-16
5.2341e-16
1.40328e-15
3.69937e-15
9.61085e-15
2.46221e-14
6.1503e-14
1.5436e-13
3.81702e-13
9.01522e-13
2.0503e-12
4.59544e-12
1.01248e-11
2.19486e-11
4.62474e-11
9.21119e-11
1.72319e-10
3.0301e-10
5.11101e-10
8.72001e-10
1.66149e-09
3.85489e-09
9.31906e-09
2.68376e-08
7.2464e-08
2.03175e-07
5.9175e-07
1.68486e-06
4.71362e-06
1.33687e-05
3.86277e-05
0.00012304
0.000378322
0.000882273
0.0015745
0.00259743
0.00472476
0.0100309
0.0230434
0.0530546
0.125345
0.297815
0.642409
1.12138
1.38648
1.27891
1.20761
1.0758
0.519889