/*--------------------------------*- C++ -*----------------------------------*\
  =========                 |
  \\      /  F ield         | OpenFOAM: The Open Source CFD Toolbox
   \\    /   O peration     | Website:  https://openfoam.org
    \\  /    A nd           | Version:  10
     \\/     M anipulation  |
\*---------------------------------------------------------------------------*/
FoamFile
{
    format      ascii;
    class       volScalarField;
    location    "1";
    object      RR.CH2*;
}
// * * * * * * * * * * * * * * * * * * * * * * * * * * * * * * * * * * * * * //

dimensions      [1 -3 -1 0 0 0 0];

internalField   nonuniform List<scalar> 
4000
(
6.32124e-45
-5.57475e-44
7.5799e-45
-1.40117e-44
5.56771e-44
-3.50986e-44
-9.44426e-44
-1.67995e-43
-7.99703e-43
-1.51164e-42
4.22507e-42
8.82198e-42
1.64891e-41
2.77368e-41
7.61511e-41
5.44199e-40
5.65862e-39
-3.58511e-39
1.48428e-39
8.79073e-39
1.80311e-38
-1.30739e-37
1.31486e-37
-1.01462e-36
-4.52074e-37
2.17613e-35
3.66334e-34
-3.07387e-34
-4.90036e-35
-9.00208e-35
-1.25719e-33
-1.01226e-32
-5.49108e-32
-1.39441e-31
2.94049e-31
2.7796e-30
-1.10304e-29
-7.65083e-30
-7.09353e-29
-2.50161e-29
-3.88795e-28
-1.51665e-27
-9.53877e-27
-4.95757e-26
-2.27722e-25
-9.83842e-25
1.91495e-25
5.2709e-23
5.88768e-22
3.07348e-21
4.16305e-21
-3.69452e-20
-2.34108e-19
-1.15054e-18
-4.938e-18
-1.9915e-17
-7.8906e-17
-3.22738e-16
-1.32403e-15
-5.49418e-15
-2.45176e-14
-1.26962e-13
-7.73985e-13
-4.89747e-12
-2.81201e-11
-1.38768e-10
-5.89813e-10
-2.15525e-09
-6.94679e-09
-2.01455e-08
-5.32407e-08
-1.30096e-07
-2.95867e-07
-6.3247e-07
-1.29607e-06
-2.62683e-06
-4.98296e-06
-8.88185e-06
-1.43936e-05
-2.06871e-05
-2.14157e-05
7.90603e-06
4.16596e-05
6.63488e-05
4.48237e-05
-3.46975e-05
-1.91081e-05
-1.05309e-05
-5.75785e-06
-3.09532e-06
-1.62612e-06
-8.08065e-07
-3.85172e-07
-1.70649e-07
-7.41745e-08
-3.03321e-08
-1.1e-08
-3.50742e-09
-9.80389e-10
-1.74897e-10
1.65081e-43
2.00704e-43
-8.44544e-44
1.22067e-43
-8.06247e-43
3.03042e-43
3.65162e-43
7.77071e-44
-1.66953e-43
1.66067e-42
2.30412e-42
4.63521e-42
1.52132e-41
2.95755e-41
6.33279e-41
1.4624e-40
4.36999e-40
6.73562e-40
3.14336e-39
6.81495e-39
-1.06409e-38
6.52839e-38
1.19469e-37
-2.67551e-37
3.19124e-36
5.29427e-36
1.62356e-35
2.77552e-35
2.01646e-34
-1.75421e-33
4.00158e-33
-1.21404e-32
4.82492e-32
-5.07117e-33
-5.992e-31
7.83285e-31
2.25668e-29
-2.41573e-29
-1.74493e-29
-9.53752e-29
-2.26829e-28
-1.23486e-27
-6.44159e-27
-8.11152e-27
2.4373e-25
3.61617e-24
4.25925e-23
3.59805e-22
1.80074e-21
2.86299e-21
-7.54832e-21
-5.91776e-20
-3.0822e-19
-1.36389e-18
-5.7391e-18
-2.21194e-17
-8.32829e-17
-3.3275e-16
-1.32856e-15
-5.39657e-15
-2.35307e-14
-1.18764e-13
-7.12223e-13
-4.4877e-12
-2.58075e-11
-1.28145e-10
-5.49124e-10
-2.03516e-09
-6.62488e-09
-1.94008e-08
-5.19553e-08
-1.2795e-07
-2.928e-07
-6.29321e-07
-1.29362e-06
-2.62726e-06
-4.99428e-06
-8.914e-06
-1.44437e-05
-2.06893e-05
-2.0966e-05
9.85644e-06
4.31933e-05
6.94762e-05
3.28876e-05
-3.26135e-05
-1.79712e-05
-9.91068e-06
-5.4045e-06
-2.89979e-06
-1.51928e-06
-7.52463e-07
-3.56257e-07
-1.5726e-07
-6.83175e-08
-2.77363e-08
-9.96067e-09
-3.15552e-09
-8.77543e-10
-1.55747e-10
4.38697e-42
-1.30619e-42
2.62108e-42
3.58377e-42
5.5741e-42
-9.12877e-43
-1.51263e-42
-2.11322e-42
-8.13996e-43
-3.97827e-43
2.06146e-42
1.32157e-42
7.48014e-42
2.08392e-41
5.97594e-41
1.51971e-40
3.0064e-40
7.28281e-40
2.75218e-39
4.06008e-39
2.78204e-38
8.46187e-38
3.66218e-37
1.62196e-36
2.60454e-36
-2.14418e-36
-8.10092e-35
1.40451e-34
3.98415e-34
8.97414e-33
-9.91269e-33
1.18715e-32
3.04324e-31
-6.11596e-31
-6.06964e-32
-1.17487e-30
5.29626e-30
-1.38338e-29
5.87654e-29
7.58092e-29
3.20391e-28
2.6124e-27
1.26921e-26
1.80415e-25
2.19986e-24
1.96094e-23
1.5633e-22
7.66434e-22
2.2294e-21
1.52947e-21
-1.48769e-20
-8.23794e-20
-3.89517e-19
-1.60118e-18
-5.98282e-18
-2.25619e-17
-8.58448e-17
-3.40061e-16
-1.34183e-15
-5.35083e-15
-2.27663e-14
-1.12017e-13
-6.601e-13
-4.13813e-12
-2.39295e-11
-1.19594e-10
-5.16322e-10
-1.93464e-09
-6.38216e-09
-1.88653e-08
-5.09549e-08
-1.2621e-07
-2.90547e-07
-6.27575e-07
-1.29436e-06
-2.63553e-06
-5.02017e-06
-8.96961e-06
-1.45232e-05
-2.06898e-05
-2.02544e-05
1.26506e-05
4.52993e-05
7.41298e-05
1.34436e-05
-2.93993e-05
-1.62282e-05
-8.94268e-06
-4.88607e-06
-2.61301e-06
-1.36428e-06
-6.73056e-07
-3.16566e-07
-1.393e-07
-6.06486e-08
-2.44571e-08
-8.72497e-09
-2.74371e-09
-7.58468e-10
-1.33959e-10
1.49775e-41
-1.0397e-41
1.5982e-42
5.02391e-43
-8.90323e-43
2.3333e-42
-3.86329e-43
-3.40188e-43
6.14673e-42
-2.41533e-42
-5.8224e-42
1.93127e-42
7.29443e-42
2.51901e-41
7.54222e-41
2.4549e-40
8.78874e-40
2.33094e-39
6.71155e-39
1.77381e-38
5.31104e-38
1.60346e-37
6.43937e-37
-2.29589e-36
1.02649e-35
1.51511e-35
5.54565e-35
3.59529e-34
6.60469e-33
-5.55556e-33
-1.10735e-33
-3.50952e-33
-5.02913e-32
1.04843e-30
-1.0035e-30
6.3854e-32
2.69818e-29
-1.94002e-29
-4.69843e-29
-1.23707e-28
1.58823e-27
1.09675e-26
1.08538e-25
9.44526e-25
7.32712e-24
5.896e-23
3.29275e-22
1.29636e-21
2.20319e-21
-1.88893e-21
-2.05615e-20
-1.09063e-19
-4.77631e-19
-1.85885e-18
-6.7577e-18
-2.35388e-17
-8.8986e-17
-3.46806e-16
-1.3466e-15
-5.2906e-15
-2.21567e-14
-1.07193e-13
-6.25027e-13
-3.90955e-12
-2.26361e-11
-1.13575e-10
-4.93435e-10
-1.86479e-09
-6.20125e-09
-1.84663e-08
-5.0232e-08
-1.25132e-07
-2.89381e-07
-6.26915e-07
-1.29488e-06
-2.66387e-06
-5.06756e-06
-9.05377e-06
-1.46351e-05
-2.0711e-05
-1.95283e-05
1.5251e-05
4.71457e-05
7.92553e-05
-7.26468e-06
-2.61638e-05
-1.4503e-05
-8.02485e-06
-4.39701e-06
-2.32992e-06
-1.21574e-06
-6.00217e-07
-2.8019e-07
-1.22968e-07
-5.34613e-08
-2.14722e-08
-7.60938e-09
-2.37694e-09
-6.53181e-10
-1.14815e-10
-8.48059e-42
-3.00834e-42
6.50867e-42
9.74265e-42
9.09225e-42
-8.93969e-42
1.25158e-41
-4.12092e-42
-2.98708e-41
1.58942e-41
1.7472e-41
-6.16538e-42
-9.02865e-42
-1.61327e-41
2.1333e-40
4.60039e-40
-4.70238e-40
4.97766e-39
1.12797e-38
3.72852e-38
1.04073e-37
3.30738e-37
9.37599e-37
3.24717e-36
9.51198e-36
1.39995e-35
-1.28491e-34
3.65688e-34
2.12991e-34
-1.51112e-34
-1.79832e-32
3.12184e-32
-2.27249e-32
5.76175e-32
-7.81636e-31
-5.21116e-31
-3.92707e-29
7.75432e-29
2.93303e-28
4.21624e-28
6.58299e-27
4.56049e-26
3.29324e-25
2.98763e-24
2.13288e-23
1.29088e-22
6.16549e-22
1.52367e-21
5.40325e-22
-4.1489e-21
-2.69447e-20
-1.32817e-19
-5.86278e-19
-2.1958e-18
-7.12428e-18
-2.47021e-17
-9.15623e-17
-3.51831e-16
-1.35491e-15
-5.2659e-15
-2.17494e-14
-1.03817e-13
-6.00164e-13
-3.74706e-12
-2.17447e-11
-1.09604e-10
-4.79829e-10
-1.82329e-09
-6.10104e-09
-1.82636e-08
-4.99677e-08
-1.24994e-07
-2.90141e-07
-6.30722e-07
-1.30545e-06
-2.68865e-06
-5.11945e-06
-9.1507e-06
-1.47736e-05
-2.07947e-05
-1.89214e-05
1.77189e-05
4.8618e-05
8.276e-05
-1.99582e-05
-2.39474e-05
-1.3284e-05
-7.35275e-06
-4.02841e-06
-2.13281e-06
-1.11074e-06
-5.47215e-07
-2.53492e-07
-1.11008e-07
-4.82464e-08
-1.92766e-08
-6.78812e-09
-2.10766e-09
-5.76034e-10
-1.00848e-10
-4.69086e-43
6.58809e-41
-5.97232e-41
-2.68384e-41
-4.59347e-42
-1.23296e-40
-1.17327e-41
-1.05119e-40
-5.62613e-41
-2.74857e-41
2.85404e-41
9.6638e-41
-1.06677e-41
-7.43205e-41
7.45313e-40
1.05309e-40
1.34868e-39
1.7055e-39
2.41811e-38
-3.90086e-38
2.84901e-37
5.31405e-37
1.61224e-36
-2.75119e-37
-1.25053e-35
6.4923e-35
1.43363e-34
-3.85862e-34
2.01746e-33
8.50943e-34
8.72621e-32
-5.15886e-32
7.56208e-32
4.87294e-31
2.32068e-30
5.70908e-30
3.14041e-29
9.72168e-29
4.30738e-28
2.87648e-27
2.23981e-26
1.6532e-25
1.11119e-24
8.82681e-24
4.97939e-23
2.56245e-22
7.0036e-22
8.21417e-22
-4.90932e-22
-5.92623e-21
-3.16265e-20
-1.4888e-19
-6.33543e-19
-2.33538e-18
-7.43246e-18
-2.53391e-17
-9.34507e-17
-3.55825e-16
-1.35568e-15
-5.22301e-15
-2.1361e-14
-1.01052e-13
-5.81038e-13
-3.62577e-12
-2.10978e-11
-1.06721e-10
-4.68826e-10
-1.78958e-09
-6.02496e-09
-1.81308e-08
-4.98267e-08
-1.25023e-07
-2.91052e-07
-6.34157e-07
-1.3145e-06
-2.71026e-06
-5.16498e-06
-9.23657e-06
-1.49078e-05
-2.09122e-05
-1.8523e-05
1.94825e-05
4.94517e-05
8.49053e-05
-2.67869e-05
-2.26872e-05
-1.25701e-05
-6.94736e-06
-3.79883e-06
-2.00879e-06
-1.04316e-06
-5.12987e-07
-2.36083e-07
-1.03263e-07
-4.48881e-08
-1.78497e-08
-6.25158e-09
-1.93113e-09
-5.25374e-10
-9.16626e-11
-3.81697e-41
2.47609e-40
-1.35909e-40
-5.84291e-41
4.50484e-40
9.38775e-41
-1.21116e-41
-5.99041e-41
-2.74769e-40
7.79128e-41
3.05225e-40
-2.56837e-41
-8.02537e-41
-3.17228e-41
3.00826e-40
7.80335e-42
2.62507e-39
5.66178e-39
-2.02053e-39
8.24822e-38
1.94141e-37
6.20899e-37
1.84185e-36
6.35842e-36
2.03174e-35
3.52023e-36
3.43238e-34
-1.22223e-33
3.22315e-34
5.88054e-33
1.28699e-32
3.11093e-32
-1.53499e-31
1.22569e-30
5.69607e-31
4.37558e-30
5.07029e-29
2.72539e-28
1.24008e-27
1.0026e-26
7.59525e-26
5.3361e-25
3.38387e-24
1.94435e-23
1.05129e-22
3.3039e-22
3.92253e-22
1.2945e-22
-1.1668e-21
-7.07641e-21
-3.49909e-20
-1.60345e-19
-6.68728e-19
-2.42713e-18
-7.67389e-18
-2.59083e-17
-9.45388e-17
-3.57801e-16
-1.35321e-15
-5.17131e-15
-2.09753e-14
-9.84782e-14
-5.63919e-13
-3.51909e-12
-2.05312e-11
-1.04229e-10
-4.59537e-10
-1.76012e-09
-5.95483e-09
-1.79863e-08
-4.96058e-08
-1.24821e-07
-2.9132e-07
-6.36067e-07
-1.32018e-06
-2.72418e-06
-5.19768e-06
-9.30188e-06
-1.50166e-05
-2.10264e-05
-1.8295e-05
2.06291e-05
4.98987e-05
8.61529e-05
-3.02505e-05
-2.20373e-05
-1.21931e-05
-6.72797e-06
-3.67139e-06
-1.93879e-06
-1.00417e-06
-4.92997e-07
-2.25756e-07
-9.86474e-08
-4.28396e-08
-1.69682e-08
-5.9179e-09
-1.82091e-09
-4.93658e-10
-8.59052e-11
-8.99133e-41
1.45539e-41
4.31503e-40
1.08247e-39
-1.1171e-39
-1.52859e-40
1.07556e-39
-6.22327e-40
2.85346e-40
1.09464e-39
-6.80952e-40
-9.44272e-40
2.20422e-40
-2.92861e-39
3.98638e-40
-4.69133e-41
2.84867e-39
1.00005e-38
2.60159e-38
5.79863e-38
2.7708e-37
8.90738e-37
1.85348e-36
6.35619e-36
1.62435e-35
4.10721e-35
2.48124e-34
1.24753e-33
-4.87149e-34
4.68224e-32
-8.26383e-32
-1.51208e-32
3.57341e-32
4.69726e-31
-4.05178e-31
1.26227e-29
-5.57536e-29
7.21005e-28
4.72749e-27
3.42809e-26
2.38541e-25
1.57871e-24
9.02073e-24
4.09751e-23
1.31604e-22
2.4948e-22
1.60737e-22
-1.76895e-22
-1.5257e-21
-7.97108e-21
-3.84609e-20
-1.71064e-19
-6.99249e-19
-2.49875e-18
-7.82727e-18
-2.62736e-17
-9.51475e-17
-3.57487e-16
-1.34252e-15
-5.09497e-15
-2.05149e-14
-9.56464e-14
-5.45362e-13
-3.40341e-12
-1.98976e-11
-1.01365e-10
-4.49458e-10
-1.72742e-09
-5.87001e-09
-1.77917e-08
-4.92215e-08
-1.24186e-07
-2.90497e-07
-6.35538e-07
-1.32069e-06
-2.72761e-06
-5.20982e-06
-9.33372e-06
-1.50794e-05
-2.11074e-05
-1.82103e-05
2.12498e-05
5.01198e-05
8.6814e-05
-3.19053e-05
-2.17222e-05
-1.20068e-05
-6.61726e-06
-3.60561e-06
-1.90213e-06
-9.83267e-07
-4.82139e-07
-2.20022e-07
-9.60783e-08
-4.16769e-08
-1.64575e-08
-5.72217e-09
-1.75568e-09
-4.74778e-10
-8.24658e-11
1.24643e-41
-5.64789e-40
1.4411e-40
-2.70254e-40
3.46921e-39
-3.95319e-40
1.14181e-39
-3.16953e-40
7.28088e-39
-6.75539e-39
-8.34726e-39
4.96275e-39
-3.64598e-39
4.40898e-39
7.03792e-39
5.74201e-39
1.8808e-38
3.47475e-38
-9.39233e-39
1.59486e-37
8.21536e-37
1.10035e-35
-5.55281e-36
6.65534e-36
4.03003e-37
9.22114e-35
1.5983e-34
3.6123e-34
1.36542e-33
5.68517e-33
-4.39381e-32
2.9508e-32
2.69259e-32
8.33282e-31
6.33989e-30
4.02256e-29
1.36691e-27
2.19888e-27
1.69353e-26
1.14453e-25
7.06636e-25
3.96265e-24
1.85597e-23
5.8276e-23
1.11856e-22
1.15993e-22
1.37454e-23
-3.0834e-22
-1.7523e-21
-8.82289e-21
-4.12803e-20
-1.79827e-19
-7.22805e-19
-2.54447e-18
-7.91292e-18
-2.64511e-17
-9.51047e-17
-3.54774e-16
-1.32304e-15
-4.98356e-15
-1.988e-14
-9.18608e-14
-5.21382e-13
-3.25263e-12
-1.91056e-11
-9.78257e-11
-4.35151e-10
-1.68433e-09
-5.74714e-09
-1.74985e-08
-4.85566e-08
-1.22958e-07
-2.88472e-07
-6.32396e-07
-1.31579e-06
-2.71984e-06
-5.20117e-06
-9.32985e-06
-1.50915e-05
-2.11446e-05
-1.8237e-05
2.14569e-05
5.02174e-05
8.71016e-05
-3.25571e-05
-2.15822e-05
-1.19224e-05
-6.56616e-06
-3.57459e-06
-1.88457e-06
-9.73005e-07
-4.76737e-07
-2.17095e-07
-9.47596e-08
-4.10674e-08
-1.61839e-08
-5.6157e-09
-1.7198e-09
-4.64306e-10
-8.05482e-11
-6.77624e-41
-3.01467e-40
2.10515e-40
8.92524e-40
-5.40594e-40
-8.75997e-40
5.97576e-40
-2.91583e-40
-3.47126e-39
2.25166e-39
5.74954e-40
7.58752e-39
1.46589e-38
-1.54488e-38
3.16307e-38
7.08912e-38
9.71289e-38
3.07966e-37
7.42123e-37
1.96178e-36
4.87364e-36
1.17348e-35
3.02885e-35
7.99938e-35
2.11612e-34
5.2175e-34
1.59841e-33
7.31006e-33
6.69808e-33
3.48476e-32
1.0726e-31
3.45222e-31
1.32353e-30
6.06817e-30
3.61798e-29
2.04077e-28
1.34656e-27
8.39978e-27
5.93369e-26
3.48119e-25
1.83217e-24
8.06971e-24
2.54013e-23
4.7975e-23
5.30746e-23
1.9654e-23
-5.69158e-23
-3.74384e-22
-1.97232e-21
-9.63995e-21
-4.41448e-20
-1.87932e-19
-7.3527e-19
-2.56142e-18
-7.97495e-18
-2.65023e-17
-9.45212e-17
-3.50528e-16
-1.30025e-15
-4.86964e-15
-1.92626e-14
-8.80852e-14
-4.96679e-13
-3.10008e-12
-1.82778e-11
-9.406e-11
-4.2096e-10
-1.63727e-09
-5.60846e-09
-1.71356e-08
-4.77913e-08
-1.21261e-07
-2.85208e-07
-6.26394e-07
-1.30468e-06
-2.70002e-06
-5.17171e-06
-9.29321e-06
-1.5059e-05
-2.11409e-05
-1.83481e-05
2.13328e-05
5.02437e-05
8.71392e-05
-3.25836e-05
-2.15394e-05
-1.18953e-05
-6.54902e-06
-3.56377e-06
-1.87817e-06
-9.69112e-07
-4.7464e-07
-2.1589e-07
-9.42088e-08
-4.08085e-08
-1.60643e-08
-5.56781e-09
-1.70331e-09
-4.59411e-10
-7.96428e-11
-1.29323e-40
2.70841e-40
7.62385e-40
1.03202e-40
1.10564e-39
6.99682e-40
-1.38501e-39
-1.27974e-39
-9.41038e-40
2.63163e-39
-1.34739e-38
-1.11013e-38
7.41721e-39
6.85325e-38
1.56881e-37
4.65636e-37
1.29881e-36
3.69103e-36
1.02883e-35
2.84375e-35
7.85152e-35
2.12028e-34
5.78282e-34
1.57496e-33
4.36246e-33
1.1469e-32
3.1489e-32
8.57704e-32
2.45099e-31
7.15583e-31
2.10643e-30
6.54012e-30
2.17003e-29
7.84698e-29
3.19131e-28
1.43541e-27
7.09397e-27
3.61552e-26
1.97573e-25
9.27372e-25
3.57627e-24
1.04311e-23
1.98009e-23
1.97605e-23
1.00767e-23
-8.41362e-24
-7.74958e-23
-4.31864e-22
-2.21519e-21
-1.07137e-20
-4.87268e-20
-2.06444e-19
-8.04735e-19
-2.57648e-18
-8.02628e-18
-2.64005e-17
-9.33696e-17
-3.44015e-16
-1.2667e-15
-4.71232e-15
-1.85423e-14
-8.4366e-14
-4.73728e-13
-2.95124e-12
-1.74612e-11
-9.02738e-11
-4.06042e-10
-1.5868e-09
-5.46545e-09
-1.67544e-08
-4.68448e-08
-1.19212e-07
-2.81042e-07
-6.18707e-07
-1.29075e-06
-2.67394e-06
-5.12932e-06
-9.23333e-06
-1.49903e-05
-2.11004e-05
-1.8509e-05
2.09705e-05
5.02233e-05
8.69954e-05
-3.21466e-05
-2.15619e-05
-1.19061e-05
-6.55424e-06
-3.5663e-06
-1.87914e-06
-9.69415e-07
-4.74727e-07
-2.15833e-07
-9.4167e-08
-4.07833e-08
-1.60476e-08
-5.55938e-09
-1.69993e-09
-4.58297e-10
-7.94244e-11
5.61157e-41
-4.22447e-41
9.65789e-40
2.2878e-39
1.71581e-39
5.40422e-40
2.74527e-39
3.35613e-39
-3.57472e-39
1.11142e-38
-1.60236e-39
1.38872e-38
2.66717e-38
8.54189e-38
3.1882e-37
1.11582e-36
3.75705e-36
1.24217e-35
4.01218e-35
1.26493e-34
3.90356e-34
1.18198e-33
3.55666e-33
1.04948e-32
3.06765e-32
8.89154e-32
2.5725e-31
7.36216e-31
2.17394e-30
6.44687e-30
1.89483e-29
5.80592e-29
1.82546e-28
6.00513e-28
2.08982e-27
7.63993e-27
2.92527e-26
1.14888e-25
4.41362e-25
1.53818e-24
3.98496e-24
7.2673e-24
8.04906e-24
5.28464e-24
-1.67682e-25
-1.49077e-23
-8.88824e-23
-4.78603e-22
-2.42882e-21
-1.16305e-20
-5.23539e-20
-2.18285e-19
-7.97813e-19
-2.50427e-18
-8.04343e-18
-2.61922e-17
-9.19759e-17
-3.37286e-16
-1.23794e-15
-4.58362e-15
-1.78898e-14
-8.06534e-14
-4.50565e-13
-2.81003e-12
-1.6686e-11
-8.66725e-11
-3.91804e-10
-1.53805e-09
-5.32694e-09
-1.64051e-08
-4.57758e-08
-1.16963e-07
-2.76577e-07
-6.10229e-07
-1.27475e-06
-2.64314e-06
-5.07772e-06
-9.15519e-06
-1.48968e-05
-2.10355e-05
-1.87029e-05
2.04352e-05
5.01729e-05
8.6705e-05
-3.13082e-05
-2.16432e-05
-1.19505e-05
-6.5788e-06
-3.5798e-06
-1.88596e-06
-9.7301e-07
-4.76513e-07
-2.16657e-07
-9.45087e-08
-4.09315e-08
-1.6106e-08
-5.57927e-09
-1.70586e-09
-4.59857e-10
-7.96908e-11
2.07348e-41
-9.68637e-41
7.1081e-40
1.31421e-39
1.03498e-39
1.44829e-39
-2.55761e-39
-2.69669e-39
-1.53055e-39
3.51367e-39
-2.43707e-39
-1.60101e-38
4.21514e-38
5.11485e-38
2.42701e-37
9.34678e-37
3.5113e-36
1.33665e-35
4.7955e-35
1.69451e-34
5.833e-34
1.96564e-33
6.51525e-33
2.11408e-32
6.74223e-32
2.11371e-31
6.54012e-31
2.00453e-30
6.13282e-30
1.92766e-29
5.84586e-29
1.80983e-28
5.58672e-28
1.7715e-27
5.61122e-27
1.79515e-26
5.69902e-26
1.78908e-25
5.27606e-25
1.33731e-24
2.42609e-24
2.95838e-24
2.15087e-24
4.66156e-25
-2.70915e-24
-1.71783e-23
-9.64119e-23
-5.08864e-22
-2.54028e-21
-1.19878e-20
-5.32123e-20
-2.18579e-19
-7.85414e-19
-2.46943e-18
-8.03182e-18
-2.58664e-17
-9.02524e-17
-3.29754e-16
-1.20653e-15
-4.4564e-15
-1.72899e-14
-7.71773e-14
-4.28239e-13
-2.66744e-12
-1.58934e-11
-8.29324e-11
-3.76715e-10
-1.48461e-09
-5.16321e-09
-1.59746e-08
-4.47246e-08
-1.1467e-07
-2.7172e-07
-6.00605e-07
-1.25612e-06
-2.60733e-06
-5.01884e-06
-9.06777e-06
-1.47878e-05
-2.09512e-05
-1.89193e-05
1.97509e-05
5.0092e-05
8.62977e-05
-3.00903e-05
-2.17789e-05
-1.2025e-05
-6.62028e-06
-3.60313e-06
-1.89808e-06
-9.79424e-07
-4.79667e-07
-2.1815e-07
-9.5142e-08
-4.12089e-08
-1.62215e-08
-5.62102e-09
-1.71904e-09
-4.63497e-10
-8.03322e-11
-7.25445e-41
2.79848e-40
-6.69248e-40
1.10708e-39
7.29827e-40
-5.64234e-40
-2.48315e-39
-2.21355e-39
-7.79558e-39
-1.12678e-38
3.25141e-39
2.39273e-40
2.61481e-38
4.28242e-38
1.0212e-37
4.09167e-37
1.67237e-36
6.67421e-36
2.57846e-35
9.75337e-35
3.60154e-34
1.29885e-33
4.68959e-33
1.63175e-32
5.58006e-32
1.86433e-31
6.23415e-31
2.02879e-30
6.515e-30
2.0759e-29
6.5599e-29
2.06764e-28
6.38983e-28
1.95211e-27
5.88263e-27
1.73418e-26
4.95677e-26
1.32458e-25
3.32103e-25
6.62569e-25
9.25749e-25
8.18129e-25
3.33047e-25
-4.67333e-25
-3.01013e-24
-1.84965e-23
-1.01615e-22
-5.2931e-22
-2.6123e-21
-1.21955e-20
-5.35808e-20
-2.17599e-19
-7.74674e-19
-2.44385e-18
-8.01367e-18
-2.55665e-17
-8.87473e-17
-3.23157e-16
-1.17658e-15
-4.32194e-15
-1.66829e-14
-7.40182e-14
-4.08477e-13
-2.5391e-12
-1.51778e-11
-7.95343e-11
-3.62975e-10
-1.43736e-09
-5.01182e-09
-1.55618e-08
-4.37086e-08
-1.12383e-07
-2.6704e-07
-5.91436e-07
-1.23838e-06
-2.57117e-06
-4.95883e-06
-8.97609e-06
-1.46711e-05
-2.08623e-05
-1.91441e-05
1.90025e-05
4.99846e-05
8.5802e-05
-2.85593e-05
-2.19641e-05
-1.21262e-05
-6.67626e-06
-3.63426e-06
-1.91427e-06
-9.88064e-07
-4.83962e-07
-2.2023e-07
-9.60357e-08
-4.16022e-08
-1.6383e-08
-5.6793e-09
-1.73746e-09
-4.68597e-10
-8.12332e-11
-1.18881e-40
-6.44598e-41
-1.07368e-39
1.03477e-39
7.34799e-40
3.80858e-40
4.30249e-39
-4.45974e-39
1.58837e-39
8.58854e-39
6.82242e-39
1.17563e-38
1.11907e-38
1.79019e-38
1.26411e-38
9.60786e-38
5.31066e-37
2.18829e-36
8.73015e-36
3.46258e-35
1.34679e-34
5.1162e-34
1.90633e-33
6.95496e-33
2.48138e-32
8.64745e-32
2.98342e-31
1.00266e-30
3.32187e-30
1.10892e-29
3.58359e-29
1.14565e-28
3.51575e-28
1.06413e-27
3.11027e-27
8.79598e-27
2.43173e-26
5.97647e-26
1.35664e-25
2.36292e-25
2.80239e-25
1.85068e-25
-4.91293e-26
-5.29303e-25
-3.47173e-24
-1.9375e-23
-1.05486e-22
-5.44688e-22
-2.6658e-21
-1.23421e-20
-5.37367e-20
-2.16465e-19
-7.65965e-19
-2.42092e-18
-7.97163e-18
-2.52244e-17
-8.71318e-17
-3.16258e-16
-1.14893e-15
-4.20703e-15
-1.6145e-14
-7.11198e-14
-3.9043e-13
-2.42486e-12
-1.45292e-11
-7.64263e-11
-3.50276e-10
-1.39265e-09
-4.87144e-09
-1.51923e-08
-4.27889e-08
-1.103e-07
-2.62671e-07
-5.82775e-07
-1.22195e-06
-2.53756e-06
-4.90287e-06
-8.89022e-06
-1.45643e-05
-2.07813e-05
-1.9355e-05
1.82654e-05
4.98506e-05
8.52737e-05
-2.68574e-05
-2.21835e-05
-1.22456e-05
-6.74202e-06
-3.67058e-06
-1.93314e-06
-9.97999e-07
-4.88866e-07
-2.22596e-07
-9.70528e-08
-4.20437e-08
-1.65649e-08
-5.74498e-09
-1.75826e-09
-4.74366e-10
-8.22537e-11
-3.96197e-41
-2.82165e-40
-1.23461e-39
1.65311e-39
-1.07245e-39
-1.66567e-39
1.39428e-39
-4.10028e-39
-4.0403e-39
-2.79943e-39
7.31289e-40
1.73949e-38
-9.23212e-39
-8.90864e-39
1.28917e-38
1.92796e-38
1.18596e-37
5.7399e-37
2.26309e-36
9.37855e-36
3.77558e-35
1.47696e-34
5.66827e-34
2.13181e-33
7.8147e-33
2.78482e-32
9.93419e-32
3.42615e-31
1.15251e-30
3.91999e-30
1.28154e-29
4.16725e-29
1.31673e-28
4.01711e-28
1.18753e-27
3.37717e-27
8.94934e-27
2.20253e-26
4.67362e-26
7.5917e-26
7.95088e-26
4.02227e-26
-1.39452e-25
-6.00621e-25
-3.58853e-24
-2.00533e-23
-1.08397e-22
-5.55867e-22
-2.70241e-21
-1.2433e-20
-5.38093e-20
-2.15492e-19
-7.58695e-19
-2.40054e-18
-7.92593e-18
-2.49111e-17
-8.56003e-17
-3.09974e-16
-1.12383e-15
-4.10697e-15
-1.57104e-14
-6.88166e-14
-3.76049e-13
-2.33208e-12
-1.39967e-11
-7.38644e-11
-3.39761e-10
-1.35539e-09
-4.75464e-09
-1.4871e-08
-4.20053e-08
-1.08524e-07
-2.58942e-07
-5.75491e-07
-1.20801e-06
-2.50901e-06
-4.85546e-06
-8.81743e-06
-1.44731e-05
-2.07128e-05
-1.95392e-05
1.76002e-05
4.97308e-05
8.47583e-05
-2.51394e-05
-2.24148e-05
-1.23712e-05
-6.81082e-06
-3.70839e-06
-1.95278e-06
-1.00841e-06
-4.93969e-07
-2.25055e-07
-9.81104e-08
-4.24986e-08
-1.67504e-08
-5.81156e-09
-1.77927e-09
-4.80182e-10
-8.32807e-11
1.6788e-40
9.14744e-41
-4.80209e-41
-3.8511e-40
1.16931e-39
-1.24731e-40
-7.74047e-40
2.31452e-39
9.21153e-39
4.33979e-39
2.32403e-39
-6.48053e-39
1.88551e-38
1.31204e-39
2.92474e-38
-4.81396e-39
3.64055e-38
1.29737e-37
5.80059e-37
2.29541e-36
9.27953e-36
3.64172e-35
1.4441e-34
5.53415e-34
2.0808e-33
7.66071e-33
2.76165e-32
9.87949e-32
3.405e-31
1.1633e-30
3.89492e-30
1.3058e-29
4.14356e-29
1.28385e-28
3.83919e-28
1.10608e-27
2.98346e-27
7.13303e-27
1.47311e-26
2.31527e-26
2.20857e-26
-1.13672e-26
-1.072e-25
-6.29752e-25
-3.66875e-24
-2.05802e-23
-1.10621e-22
-5.64293e-22
-2.72981e-21
-1.2499e-20
-5.38459e-20
-2.14718e-19
-7.53363e-19
-2.38468e-18
-7.88369e-18
-2.46556e-17
-8.4472e-17
-3.05492e-16
-1.10577e-15
-4.03255e-15
-1.53639e-14
-6.69278e-14
-3.64343e-13
-2.25758e-12
-1.35796e-11
-7.18554e-11
-3.31493e-10
-1.32605e-09
-4.66237e-09
-1.46265e-08
-4.14041e-08
-1.0715e-07
-2.56052e-07
-5.69733e-07
-1.19695e-06
-2.48637e-06
-4.81779e-06
-8.75933e-06
-1.44e-05
-2.06577e-05
-1.9688e-05
1.70388e-05
4.96119e-05
8.43051e-05
-2.3582e-05
-2.26298e-05
-1.24876e-05
-6.87443e-06
-3.74319e-06
-1.97082e-06
-1.01787e-06
-4.98587e-07
-2.27259e-07
-9.90542e-08
-4.29055e-08
-1.69151e-08
-5.87066e-09
-1.7979e-09
-4.85339e-10
-8.41911e-11
-9.21878e-41
6.46727e-41
2.36812e-39
7.92444e-40
-2.72685e-39
2.67863e-39
9.89016e-40
3.79292e-39
-4.73981e-41
-4.79031e-39
2.3344e-39
6.2973e-39
1.98341e-39
1.6708e-38
2.12971e-38
-9.39807e-39
-6.49646e-39
6.16589e-38
1.46767e-37
4.69044e-37
2.13225e-36
8.35569e-36
3.32877e-35
1.30513e-34
5.06709e-34
1.91148e-33
7.09811e-33
2.56168e-32
9.26707e-32
3.21724e-31
1.09423e-30
3.63903e-30
1.2122e-29
3.80957e-29
1.1749e-28
3.43185e-28
9.05136e-28
2.19379e-27
4.5808e-27
6.65394e-27
6.94544e-27
-2.13176e-26
-1.12056e-25
-5.80038e-25
-3.74189e-24
-2.09706e-23
-1.12213e-22
-5.70385e-22
-2.74988e-21
-1.25494e-20
-5.38856e-20
-2.14206e-19
-7.49763e-19
-2.37346e-18
-7.85347e-18
-2.44805e-17
-8.36713e-17
-3.02242e-16
-1.09283e-15
-3.98039e-15
-1.51315e-14
-6.56927e-14
-3.56675e-13
-2.20849e-12
-1.33004e-11
-7.05002e-11
-3.25899e-10
-1.30614e-09
-4.59946e-09
-1.44563e-08
-4.09767e-08
-1.06171e-07
-2.53986e-07
-5.65691e-07
-1.1892e-06
-2.47046e-06
-4.79131e-06
-8.71846e-06
-1.43488e-05
-2.06199e-05
-1.9795e-05
1.66311e-05
4.9516e-05
8.39602e-05
-2.23712e-05
-2.27992e-05
-1.25792e-05
-6.92435e-06
-3.77044e-06
-1.98492e-06
-1.02526e-06
-5.02191e-07
-2.28981e-07
-9.9797e-08
-4.32226e-08
-1.7043e-08
-5.91631e-09
-1.81225e-09
-4.89299e-10
-8.4889e-11
3.54353e-41
-1.75179e-40
3.06064e-41
-3.31329e-40
6.74121e-40
2.88358e-39
-2.58546e-39
-7.26623e-40
2.63503e-39
3.21376e-39
-6.06899e-39
-3.02611e-39
6.79909e-39
-1.17374e-38
2.79847e-38
1.2937e-38
-1.26506e-38
-1.93668e-38
-1.06936e-38
8.32155e-38
4.28842e-37
1.80998e-36
7.56419e-36
3.02577e-35
1.19812e-34
4.61391e-34
1.74283e-33
6.58655e-33
2.40174e-32
8.58638e-32
3.01496e-31
1.05732e-30
3.50231e-30
1.12788e-29
3.58324e-29
1.04929e-28
2.94753e-28
7.07925e-28
1.34512e-27
1.61914e-27
-6.47713e-28
-2.24715e-26
-1.30826e-25
-5.83773e-25
-3.81995e-24
-2.11963e-23
-1.13277e-22
-5.74499e-22
-2.76349e-21
-1.25844e-20
-5.39288e-20
-2.13998e-19
-7.47934e-19
-2.36799e-18
-7.83982e-18
-2.43943e-17
-8.32709e-17
-3.00583e-16
-1.08609e-15
-3.95288e-15
-1.50111e-14
-6.50607e-14
-3.52717e-13
-2.18288e-12
-1.31534e-11
-6.97835e-11
-3.22911e-10
-1.29539e-09
-4.56537e-09
-1.43637e-08
-4.07485e-08
-1.05655e-07
-2.52897e-07
-5.6353e-07
-1.18505e-06
-2.46195e-06
-4.77715e-06
-8.69656e-06
-1.43214e-05
-2.05996e-05
-1.98532e-05
1.64053e-05
4.94593e-05
8.37635e-05
-2.16792e-05
-2.28982e-05
-1.26326e-05
-6.95329e-06
-3.78616e-06
-1.99304e-06
-1.0295e-06
-5.04251e-07
-2.29973e-07
-1.0022e-07
-4.3402e-08
-1.71152e-08
-5.942e-09
-1.82031e-09
-4.9152e-10
-8.52803e-11
-1.41263e-41
6.39038e-40
2.59279e-40
5.47712e-40
1.25571e-39
4.13058e-39
-3.11692e-40
6.52169e-39
-1.60363e-39
-6.27365e-39
6.90256e-39
1.10467e-38
-1.12522e-38
-1.49867e-39
5.49592e-39
3.20077e-39
1.42756e-38
5.62766e-40
3.46381e-38
3.05374e-38
9.11502e-38
5.68077e-37
1.92643e-36
7.95798e-36
3.29271e-35
1.3219e-34
5.11925e-34
1.96412e-33
7.46216e-33
2.80882e-32
1.00674e-31
3.58282e-31
1.2152e-30
4.14502e-30
1.33951e-29
4.00379e-29
1.13764e-28
2.80244e-28
4.59995e-28
5.10207e-28
-4.90759e-27
-2.61689e-26
-1.13608e-25
-6.24372e-25
-3.841e-24
-2.13425e-23
-1.13924e-22
-5.77188e-22
-2.77326e-21
-1.2615e-20
-5.40008e-20
-2.14068e-19
-7.47613e-19
-2.36748e-18
-7.84159e-18
-2.43792e-17
-8.31851e-17
-3.00217e-16
-1.0846e-15
-3.94693e-15
-1.4986e-14
-6.49341e-14
-3.5196e-13
-2.17808e-12
-1.31261e-11
-6.96516e-11
-3.22369e-10
-1.29346e-09
-4.55925e-09
-1.43476e-08
-4.0709e-08
-1.05566e-07
-2.52712e-07
-5.63168e-07
-1.18437e-06
-2.46056e-06
-4.77487e-06
-8.69309e-06
-1.43171e-05
-2.05965e-05
-1.98623e-05
1.63703e-05
4.94508e-05
8.37335e-05
-2.15695e-05
-2.29128e-05
-1.26404e-05
-6.95748e-06
-3.7884e-06
-1.99419e-06
-1.03009e-06
-5.04534e-07
-2.30107e-07
-1.00277e-07
-4.34265e-08
-1.71248e-08
-5.94535e-09
-1.82134e-09
-4.91799e-10
-8.53288e-11
-1.71848e-41
-2.59607e-40
-6.14212e-41
-8.25175e-40
6.55049e-40
-2.18593e-39
-4.64465e-39
-4.68887e-39
3.64274e-40
6.4735e-39
-1.13502e-38
-3.72804e-39
-6.54591e-40
-1.51675e-38
3.96292e-39
-2.73732e-39
9.45512e-39
2.16189e-38
-1.79975e-38
-1.98368e-38
7.54299e-38
4.15529e-37
2.07568e-36
8.16711e-36
3.37596e-35
1.32494e-34
5.11316e-34
1.98938e-33
7.47873e-33
2.79482e-32
1.01524e-31
3.57422e-31
1.23906e-30
4.15703e-30
1.36374e-29
4.19381e-29
1.11063e-28
3.08137e-28
6.56328e-28
8.11332e-29
-3.65302e-27
-9.89411e-27
-1.41327e-25
-7.99652e-25
-3.59983e-24
-2.14055e-23
-1.14273e-22
-5.78795e-22
-2.7806e-21
-1.26468e-20
-5.41313e-20
-2.14563e-19
-7.49313e-19
-2.37359e-18
-7.86566e-18
-2.44643e-17
-8.35299e-17
-3.01547e-16
-1.08976e-15
-3.96738e-15
-1.50758e-14
-6.54053e-14
-3.54878e-13
-2.19678e-12
-1.32324e-11
-7.01649e-11
-3.24487e-10
-1.30099e-09
-4.5829e-09
-1.44118e-08
-4.08686e-08
-1.05932e-07
-2.53485e-07
-5.64699e-07
-1.18731e-06
-2.46662e-06
-4.78501e-06
-8.70884e-06
-1.43368e-05
-2.0611e-05
-1.98199e-05
1.65353e-05
4.94924e-05
8.38783e-05
-2.20797e-05
-2.28389e-05
-1.26003e-05
-6.93561e-06
-3.77645e-06
-1.98799e-06
-1.02683e-06
-5.02947e-07
-2.29339e-07
-9.99465e-08
-4.32846e-08
-1.70676e-08
-5.92488e-09
-1.81489e-09
-4.90013e-10
-8.50137e-11
8.60426e-42
-1.29616e-40
-1.26714e-40
6.99754e-41
-2.79246e-40
-2.57426e-39
-2.93557e-39
3.61067e-39
-1.06796e-39
1.85565e-39
9.68902e-40
9.21696e-39
-1.30202e-38
6.9444e-39
2.32911e-39
-1.08e-38
4.39931e-38
-9.54952e-39
2.99287e-38
1.13938e-37
4.42261e-37
1.92098e-36
7.40639e-36
3.09577e-35
1.20948e-34
4.64309e-34
1.75277e-33
6.63236e-33
2.42437e-32
8.72224e-32
3.04904e-31
1.04044e-30
3.61724e-30
1.16343e-29
3.61078e-29
1.06981e-28
2.97041e-28
7.49451e-28
1.53987e-27
1.62274e-27
-1.5491e-27
-6.12657e-27
-1.16223e-25
-7.51057e-25
-3.77343e-24
-2.13789e-23
-1.14214e-22
-5.79018e-22
-2.78449e-21
-1.26766e-20
-5.43073e-20
-2.15438e-19
-7.52969e-19
-2.38662e-18
-7.91287e-18
-2.46499e-17
-8.4299e-17
-3.04515e-16
-1.10124e-15
-4.01304e-15
-1.52761e-14
-6.64518e-14
-3.61339e-13
-2.23814e-12
-1.34671e-11
-7.12971e-11
-3.29156e-10
-1.31761e-09
-4.63516e-09
-1.45534e-08
-4.1221e-08
-1.06736e-07
-2.55184e-07
-5.6808e-07
-1.19382e-06
-2.47999e-06
-4.80736e-06
-8.74351e-06
-1.43806e-05
-2.06435e-05
-1.9728e-05
1.6892e-05
4.95794e-05
8.41845e-05
-2.31552e-05
-2.2686e-05
-1.25176e-05
-6.89047e-06
-3.75178e-06
-1.97521e-06
-1.02013e-06
-4.99671e-07
-2.27768e-07
-9.92688e-08
-4.29941e-08
-1.69506e-08
-5.88298e-09
-1.80168e-09
-4.86357e-10
-8.43683e-11
-2.43201e-40
2.89954e-40
-6.88588e-40
1.10498e-39
-8.55901e-40
3.36769e-40
2.58676e-39
1.73989e-40
-6.30108e-39
3.41259e-39
-1.72551e-38
3.23726e-39
7.43288e-39
1.12089e-38
-1.10106e-38
-4.35827e-40
3.93425e-38
2.91559e-38
1.31902e-37
5.11446e-37
2.02031e-36
8.34234e-36
3.38623e-35
1.33118e-34
5.11745e-34
1.92976e-33
7.13322e-33
2.58461e-32
9.352e-32
3.27209e-31
1.12417e-30
3.74075e-30
1.23827e-29
3.90916e-29
1.19883e-28
3.50868e-28
9.50059e-28
2.27595e-27
4.58056e-27
6.8939e-27
4.78067e-27
-1.84494e-26
-7.26304e-26
-6.9262e-25
-3.76408e-24
-2.12527e-23
-1.13781e-22
-5.78168e-22
-2.78621e-21
-1.27102e-20
-5.45564e-20
-2.16807e-19
-7.5893e-19
-2.40746e-18
-7.98679e-18
-2.49509e-17
-8.55598e-17
-3.09412e-16
-1.12018e-15
-4.08774e-15
-1.56005e-14
-6.81331e-14
-3.71636e-13
-2.30375e-12
-1.38381e-11
-7.30803e-11
-3.36481e-10
-1.34357e-09
-4.71653e-09
-1.4773e-08
-4.17658e-08
-1.07981e-07
-2.57814e-07
-5.73258e-07
-1.20379e-06
-2.50045e-06
-4.84159e-06
-8.79661e-06
-1.44477e-05
-2.06943e-05
-1.95909e-05
1.74164e-05
4.96982e-05
8.46216e-05
-2.46685e-05
-2.2475e-05
-1.24033e-05
-6.82802e-06
-3.71761e-06
-1.95748e-06
-1.01081e-06
-4.95128e-07
-2.25581e-07
-9.83309e-08
-4.25917e-08
-1.6787e-08
-5.8242e-09
-1.78311e-09
-4.81208e-10
-8.34582e-11
1.39253e-40
-2.24319e-40
-2.15899e-40
1.84626e-39
1.56825e-39
4.14929e-40
1.76685e-39
6.3849e-39
6.31202e-40
-4.99762e-39
-1.03595e-38
3.55094e-39
-2.89934e-39
2.20949e-39
1.20303e-38
3.39077e-38
4.19368e-38
1.40117e-37
4.95233e-37
2.24912e-36
9.20277e-36
3.66637e-35
1.43956e-34
5.47947e-34
2.1138e-33
7.76306e-33
2.80219e-32
9.8885e-32
3.48435e-31
1.20564e-30
3.99743e-30
1.32903e-29
4.22364e-29
1.31148e-28
3.94437e-28
1.12327e-27
3.00196e-27
7.16239e-27
1.47375e-26
2.27114e-26
2.04815e-26
9.98068e-27
-8.68427e-26
-7.03682e-25