/*--------------------------------*- C++ -*----------------------------------*\
  =========                 |
  \\      /  F ield         | OpenFOAM: The Open Source CFD Toolbox
   \\    /   O peration     | Website:  https://openfoam.org
    \\  /    A nd           | Version:  10
     \\/     M anipulation  |
\*---------------------------------------------------------------------------*/
FoamFile
{
    format      ascii;
    class       volScalarField;
    location    "1";
    object      RR.C2H5;
}
// * * * * * * * * * * * * * * * * * * * * * * * * * * * * * * * * * * * * * //

dimensions      [1 -3 -1 0 0 0 0];

internalField   nonuniform List<scalar> 
4000
(
1.7153e-19
1.01679e-19
5.82889e-20
7.42562e-21
4.98724e-20
2.02373e-20
2.00484e-20
2.99339e-20
2.49438e-20
2.9807e-20
3.63959e-20
9.86544e-22
4.08489e-20
8.10006e-22
3.84839e-20
1.72728e-19
1.15858e-19
4.37096e-20
1.38886e-20
7.62887e-20
2.61974e-20
1.07002e-19
2.78879e-19
1.40629e-19
5.50534e-19
-2.21754e-19
5.38687e-19
3.85443e-19
1.13812e-18
1.29375e-18
5.96646e-18
1.29918e-17
4.57613e-17
1.586e-16
5.37866e-16
1.8305e-15
5.97027e-15
2.00355e-14
6.77139e-14
2.26673e-13
7.23976e-13
2.27845e-12
6.87314e-12
2.01537e-11
5.69824e-11
1.63489e-10
4.59529e-10
1.18826e-09
2.71074e-09
5.21409e-09
8.18111e-09
1.02313e-08
9.16552e-09
-2.45674e-09
-5.47618e-08
-2.51138e-07
-8.77672e-07
-2.83678e-06
-8.24534e-06
-2.13692e-05
-4.8017e-05
-8.16645e-05
-8.17708e-05
-8.56232e-05
-0.000146519
-0.00017958
-0.000115721
8.65415e-05
0.000225478
-0.000260145
-0.00114578
-0.000625917
0.00147424
0.00391979
0.00330066
-0.00208196
-0.00148997
-0.000567973
-0.000144215
-0.000124934
-0.000177206
-0.000148984
-9.03519e-05
-4.89846e-05
-2.6894e-05
-1.48198e-05
-8.23615e-06
-4.57748e-06
-2.5217e-06
-1.36689e-06
-7.2709e-07
-3.73396e-07
-2.01e-07
-1.34295e-07
-5.91119e-08
1.76124e-07
8.01318e-09
-3.74054e-08
-2.03319e-08
-5.21414e-09
1.0863e-19
2.71507e-19
-3.96046e-20
2.0775e-19
2.6303e-19
1.10335e-19
1.6764e-19
3.15686e-20
9.39147e-21
1.19917e-19
-1.77432e-20
-2.54331e-21
7.3381e-20
-3.29127e-20
1.05832e-20
2.27212e-19
2.40849e-19
2.4045e-19
5.27707e-19
5.80914e-19
3.81627e-19
1.40544e-19
4.10315e-19
2.75208e-19
1.07722e-18
6.23049e-19
3.29191e-19
6.96073e-19
2.63834e-19
2.30095e-18
5.14839e-18
1.66162e-17
6.07918e-17
2.19131e-16
7.29595e-16
2.48438e-15
8.29954e-15
2.83083e-14
9.19899e-14
3.01465e-13
9.70681e-13
2.99886e-12
9.09688e-12
2.63453e-11
7.78723e-11
2.23366e-10
6.11546e-10
1.51803e-09
3.30405e-09
6.03968e-09
8.76485e-09
1.03262e-08
8.43604e-09
-5.75616e-09
-6.64429e-08
-2.92546e-07
-9.59611e-07
-2.97671e-06
-8.41374e-06
-2.13691e-05
-4.75124e-05
-8.03752e-05
-8.08631e-05
-8.35059e-05
-0.000143685
-0.000180102
-0.000124616
6.90883e-05
0.000223946
-0.000203629
-0.00112978
-0.000696893
0.00136899
0.00387541
0.00346678
-0.00203177
-0.00151629
-0.000581127
-0.000147441
-0.000126597
-0.000179103
-0.000150084
-9.04728e-05
-4.89217e-05
-2.68328e-05
-1.4766e-05
-8.19683e-06
-4.54891e-06
-2.50026e-06
-1.35163e-06
-7.16869e-07
-3.67687e-07
-1.98866e-07
-1.36105e-07
-4.21595e-08
1.79134e-07
-4.50045e-10
-3.76363e-08
-1.95776e-08
-4.95491e-09
6.75763e-19
7.32953e-20
7.8332e-20
2.43698e-19
9.39491e-19
9.76803e-20
-2.24393e-20
-1.39219e-19
4.14665e-19
5.93657e-20
2.55651e-19
1.52025e-19
8.66269e-20
2.01381e-19
4.47675e-20
2.52645e-19
-4.88767e-21
5.38577e-20
3.47653e-19
1.63874e-19
5.91874e-19
-1.31249e-19
1.3337e-19
6.57862e-19
8.13258e-19
1.75861e-18
5.60147e-19
1.62578e-18
6.95327e-19
2.99906e-18
7.99307e-18
2.08884e-17
7.95075e-17
2.74446e-16
9.65557e-16
3.23938e-15
1.08235e-14
3.59176e-14
1.18615e-13
3.77906e-13
1.19941e-12
3.56435e-12
1.12232e-11
3.22805e-11
9.63616e-11
2.70619e-10
7.33168e-10
1.77566e-09
3.68473e-09
6.49607e-09
9.11206e-09
1.03964e-08
7.51461e-09
-1.08548e-08
-8.1384e-08
-3.14743e-07
-1.00001e-06
-3.05175e-06
-8.51521e-06
-2.14021e-05
-4.71434e-05
-7.92421e-05
-7.97294e-05
-8.1513e-05
-0.000141151
-0.000180529
-0.000132855
5.29868e-05
0.000226609
-0.000161503
-0.00110188
-0.000759582
0.00126664
0.00381926
0.00362659
-0.00197197
-0.00154545
-0.000595065
-0.000150813
-0.000128883
-0.000181748
-0.000151478
-9.05652e-05
-4.87728e-05
-2.67023e-05
-1.46696e-05
-8.13078e-06
-4.50245e-06
-2.46894e-06
-1.329e-06
-7.01865e-07
-3.59563e-07
-1.95944e-07
-1.38233e-07
-1.75585e-08
1.76558e-07
-9.07119e-09
-3.73788e-08
-1.87203e-08
-4.67639e-09
2.68433e-19
-5.08762e-20
1.55837e-19
3.71377e-19
2.33974e-19
4.47107e-19
1.51181e-19
-7.36864e-20
2.35037e-19
3.76347e-19
7.4633e-19
5.54702e-19
7.46626e-20
1.74049e-19
2.07502e-19
2.71526e-19
5.95221e-19
5.03702e-19
7.5046e-19
3.65395e-19
1.93452e-19
1.35329e-18
1.32511e-18
-2.05287e-19
4.95654e-19
1.20518e-18
7.68781e-19
-2.22248e-20
1.50945e-18
2.80748e-18
5.75965e-18
3.20365e-17
1.07713e-16
3.62088e-16
1.23801e-15
4.17041e-15
1.36353e-14
4.56862e-14
1.48492e-13
4.72469e-13
1.48852e-12
4.46413e-12
1.37569e-11
3.95462e-11
1.11933e-10
3.21412e-10
8.50803e-10
1.9934e-09
4.11131e-09
6.7404e-09
9.26541e-09
1.03675e-08
6.09814e-09
-1.59358e-08
-9.70245e-08
-3.2712e-07
-1.0353e-06
-3.11788e-06
-8.58988e-06
-2.13615e-05
-4.67347e-05
-7.8263e-05
-7.89996e-05
-8.00165e-05
-0.000139137
-0.000180723
-0.00013904
4.00045e-05
0.000226005
-0.000120848
-0.00107146
-0.000817953
0.00117503
0.00376178
0.00376363
-0.0019354
-0.00156258
-0.000603689
-0.000153113
-0.000131459
-0.000184422
-0.000152811
-9.09527e-05
-4.82115e-05
-2.64149e-05
-1.45187e-05
-8.04626e-06
-4.45369e-06
-2.44365e-06
-1.29843e-06
-6.84277e-07
-3.51297e-07
-1.93464e-07
-1.40689e-07
9.81551e-09
1.68963e-07
-1.63912e-08
-3.72459e-08
-1.79124e-08
-4.42093e-09
1.3108e-19
2.28633e-19
8.30769e-20
8.6727e-20
1.2925e-19
1.00931e-19
5.04576e-19
7.27343e-20
-1.77371e-19
3.75615e-20
1.74546e-19
1.92038e-19
-6.00579e-22
1.33646e-20
2.14329e-19
-9.44754e-20
2.9395e-19
1.62996e-19
9.79419e-19
6.95533e-19
1.54029e-19
1.64808e-18
8.67002e-20
7.9947e-19
4.33621e-19
4.53742e-19
1.33371e-18
1.56497e-18
2.03881e-19
4.41852e-18
1.19387e-17
4.12451e-17
1.43484e-16
4.70304e-16
1.58163e-15
5.31094e-15
1.71727e-14
5.48114e-14
1.80003e-13
5.75191e-13
1.77244e-12
5.38023e-12
1.5738e-11
4.6598e-11
1.30925e-10
3.69508e-10
9.51489e-10
2.24545e-09
4.24681e-09
6.86271e-09
9.54474e-09
1.02869e-08
4.84804e-09
-2.22485e-08
-1.02648e-07
-3.42314e-07
-1.07224e-06
-3.17948e-06
-8.65901e-06
-2.13719e-05
-4.64685e-05
-7.74919e-05
-7.82372e-05
-7.88088e-05
-0.000137461
-0.00018068
-0.000143275
3.10609e-05
0.000225243
-9.03258e-05
-0.00104835
-0.000855246
0.00110446
0.00371852
0.00387217
-0.00188699
-0.00158459
-0.00061374
-0.000155694
-0.000133895
-0.000186973
-0.000153999
-9.09469e-05
-4.81237e-05
-2.63279e-05
-1.44583e-05
-8.00388e-06
-4.42332e-06
-2.4217e-06
-1.28398e-06
-6.74632e-07
-3.46691e-07
-1.92648e-07
-1.43081e-07
3.49405e-08
1.61002e-07
-2.18633e-08
-3.71036e-08
-1.73892e-08
-4.21542e-09
6.48554e-20
4.02568e-21
-4.52479e-20
1.98366e-19
5.41857e-20
1.33079e-19
3.4049e-19
4.58435e-19
1.07808e-19
-7.88949e-20
8.62698e-20
3.08599e-19
3.80103e-19
3.55984e-19
3.90688e-19
6.64801e-19
3.19251e-19
2.77141e-19
4.18626e-19
1.88087e-19
1.84609e-18
1.27005e-18
2.00002e-18
9.87883e-19
8.41476e-19
-6.74186e-19
1.36961e-18
1.14854e-18
2.02674e-18
5.28164e-18
1.5654e-17
5.0803e-17
1.70169e-16
5.84368e-16
1.92297e-15
6.38216e-15
2.08834e-14
6.49392e-14
2.1287e-13
7.03804e-13
2.11577e-12
6.22275e-12
1.827e-11
5.34956e-11
1.50385e-10
4.13175e-10
1.0757e-09
2.32686e-09
4.3748e-09
7.18883e-09
9.75804e-09
1.01601e-08
3.92347e-09
-2.54412e-08
-1.11101e-07
-3.59879e-07
-1.10001e-06
-3.22823e-06
-8.69475e-06
-2.13112e-05
-4.61226e-05
-7.67825e-05
-7.77114e-05
-7.77831e-05
-0.000136153
-0.000180814
-0.000147162
2.24882e-05
0.000226467
-6.22398e-05
-0.0010294
-0.000886669
0.0010519
0.00369028
0.00394609
-0.00184623
-0.00160277
-0.000622363
-0.000157971
-0.000135812
-0.000189101
-0.000155046
-9.10204e-05
-4.81445e-05
-2.63183e-05
-1.44463e-05
-7.9907e-06
-4.41036e-06
-2.41e-06
-1.27632e-06
-6.69075e-07
-3.44378e-07
-1.92812e-07
-1.44993e-07
5.52132e-08
1.54061e-07
-2.56962e-08
-3.70535e-08
-1.69827e-08
-4.08634e-09
2.97277e-20
1.33386e-19
1.01344e-20
9.94281e-20
1.47302e-19
1.2267e-19
-5.16876e-21
-8.99488e-20
1.10222e-19
8.28142e-20
9.87463e-20
7.08594e-20
1.25373e-19
5.51452e-19
4.01218e-19
5.8871e-19
3.54288e-19
2.74892e-19
3.72327e-19
-1.1728e-19
1.15275e-18
1.4128e-18
3.57277e-19
-1.71506e-19
4.91579e-19
1.70967e-18
-1.15909e-19
1.44128e-18
2.04061e-18
6.35626e-18
1.90569e-17
6.07154e-17
2.06767e-16
6.98103e-16
2.28614e-15
7.62623e-15
2.50923e-14
7.90263e-14
2.59586e-13
8.13039e-13
2.45904e-12
7.31682e-12
2.12701e-11
5.96403e-11
1.67982e-10
4.58033e-10
1.14006e-09
2.34782e-09
4.58324e-09
7.4613e-09
9.89601e-09
1.00489e-08
3.22342e-09
-2.77231e-08
-1.16719e-07
-3.72758e-07
-1.12126e-06
-3.2548e-06
-8.7024e-06
-2.12147e-05
-4.57611e-05
-7.6113e-05
-7.72964e-05
-7.6817e-05
-0.000134818
-0.000180694
-0.000149962
1.594e-05
0.000225616
-4.09674e-05
-0.00101103
-0.000910392
0.00100289
0.00365894
0.00401666
-0.00179959
-0.00162137
-0.000632323
-0.00016061
-0.000137167
-0.000190871
-0.000156132
-9.12869e-05
-4.82797e-05
-2.63779e-05
-1.44749e-05
-8.00208e-06
-4.4126e-06
-2.40785e-06
-1.27429e-06
-6.66916e-07
-3.43804e-07
-1.93687e-07
-1.46676e-07
7.10354e-08
1.48659e-07
-2.84035e-08
-3.71086e-08
-1.67465e-08
-4.00805e-09
6.88514e-20
4.572e-20
2.6581e-19
3.80658e-19
1.7581e-19
1.83744e-19
2.30342e-19
3.2055e-19
8.73228e-20
4.23175e-20
-1.25086e-20
2.05707e-19
2.10087e-19
1.41324e-19
2.00771e-19
2.79644e-20
4.2331e-19
7.64893e-21
1.13677e-19
8.90544e-19
1.01449e-18
6.01431e-19
6.43528e-20
-7.73482e-19
5.84571e-19
3.95622e-19
8.33135e-19
1.64227e-18
3.60057e-18
5.04982e-18
2.09737e-17
7.59376e-17
2.56344e-16
8.24479e-16
2.70752e-15
8.85033e-15
2.9144e-14
8.97823e-14
2.93603e-13
9.22969e-13
2.80061e-12
8.17724e-12
2.39664e-11
6.72468e-11
1.89758e-10
5.07715e-10
1.179e-09
2.50685e-09
4.81216e-09
7.6868e-09
1.00236e-08
9.90699e-09
2.49444e-09
-2.99159e-08
-1.2169e-07
-3.82339e-07
-1.13553e-06
-3.26537e-06
-8.6711e-06
-2.10433e-05
-4.52937e-05
-7.54256e-05
-7.70296e-05
-7.5873e-05
-0.000133402
-0.000180344
-0.000152524
9.56782e-06
0.000224074
-2.04263e-05
-0.000991713
-0.000936377
0.000948984
0.00362079
0.00408934
-0.00173968
-0.0016421
-0.000644721
-0.000163901
-0.000137927
-0.000192334
-0.000157339
-9.17906e-05
-4.85406e-05
-2.65089e-05
-1.45434e-05
-8.0368e-06
-4.42894e-06
-2.41444e-06
-1.27719e-06
-6.67703e-07
-3.44636e-07
-1.95058e-07
-1.48256e-07
8.2693e-08
1.45032e-07
-3.03438e-08
-3.72619e-08
-1.66411e-08
-3.96841e-09
8.57082e-20
5.08187e-20
5.87377e-20
3.40117e-19
4.23006e-19
2.82967e-19
9.37887e-20
1.84552e-20
1.58393e-19
3.33845e-19
-9.16221e-20
1.27529e-19
1.32682e-19
8.97652e-20
7.66595e-20
4.20048e-20
3.62707e-19
1.05041e-18
1.27202e-18
1.07387e-18
3.30034e-19
1.04178e-18
4.35366e-19
1.67925e-19
7.50039e-19
1.51893e-18
4.14328e-19
1.58202e-18
7.68978e-19
4.75033e-18
2.49157e-17
8.9541e-17
2.93789e-16
9.77998e-16
3.18213e-15
1.03629e-14
3.38741e-14
1.01426e-13
3.2974e-13
1.03427e-12
3.09147e-12
9.21464e-12
2.66527e-11
7.56878e-11
1.99028e-10
4.94772e-10
1.22561e-09
2.67634e-09
5.02816e-09
7.90574e-09
1.01096e-08
9.77406e-09
1.88429e-09
-3.16685e-08
-1.2521e-07
-3.88579e-07
-1.14221e-06
-3.25782e-06
-8.59836e-06
-2.0791e-05
-4.46707e-05
-7.45385e-05
-7.68844e-05
-7.46081e-05
-0.000131491
-0.000180011
-0.000155718
1.86495e-06
0.000220989
7.09043e-07
-0.000967966
-0.000969547
0.000885409
0.00357537
0.00416585
-0.00166349
-0.00166594
-0.000659926
-0.00016802
-0.000138166
-0.00019355
-0.000158717
-9.2542e-05
-4.89264e-05
-2.67089e-05
-1.46497e-05
-8.09301e-06
-4.45799e-06
-2.42877e-06
-1.28434e-06
-6.70975e-07
-3.4661e-07
-1.96782e-07
-1.49816e-07
9.04415e-08
1.43124e-07
-3.16928e-08
-3.75049e-08
-1.66398e-08
-3.95901e-09
1.43823e-19
2.89884e-19
1.85233e-19
1.80741e-19
9.92381e-20
1.14165e-19
1.29299e-20
2.63484e-22
2.54405e-19
4.45165e-19
1.34045e-19
5.5468e-19
3.34647e-19
1.89968e-19
8.91292e-19
1.07739e-18
8.54271e-19
3.61435e-19
8.75859e-19
1.58973e-18
9.97533e-19
6.95824e-19
5.85167e-19
8.60775e-19
8.08846e-19
-6.66587e-19
6.92743e-19
1.77066e-18
1.80236e-18
1.12098e-17
2.99847e-17
1.00852e-16
3.37107e-16
1.09369e-15
3.53904e-15
1.13462e-14
3.56902e-14
1.11132e-13
3.63561e-13
1.12426e-12
3.33416e-12
9.84734e-12
2.84273e-11
7.75719e-11
2.01959e-10
5.40135e-10
1.31052e-09
2.82202e-09
5.24365e-09
8.08603e-09
1.01758e-08
9.62478e-09
1.28543e-09
-3.27934e-08
-1.27469e-07
-3.92706e-07
-1.14302e-06
-3.23767e-06
-8.50617e-06
-2.05184e-05
-4.40686e-05
-7.37485e-05
-7.68379e-05
-7.34397e-05
-0.000129491
-0.000179369
-0.000158511
-5.75562e-06
0.000214959
1.37332e-05
-0.000922959
-0.000998288
0.000819222
0.00351581
0.00424112
-0.00156133
-0.00169658
-0.000680187
-0.000173427
-0.000138034
-0.000194599
-0.000160279
-9.35165e-05
-4.94208e-05
-2.69659e-05
-1.47871e-05
-8.16688e-06
-4.49739e-06
-2.44937e-06
-1.29488e-06
-6.76218e-07
-3.49484e-07
-1.98759e-07
-1.51434e-07
9.54374e-08
1.427e-07
-3.2602e-08
-3.78227e-08
-1.67192e-08
-3.97282e-09
6.43299e-20
2.27882e-19
3.3225e-19
1.38368e-19
7.01114e-20
4.71272e-20
-4.34445e-20
-3.14766e-20
8.83823e-20
6.87879e-20
4.87167e-20
1.57179e-19
-5.24187e-20
5.62021e-19
7.28852e-20
5.56019e-19
5.80371e-19
3.97857e-19
9.14189e-19
1.27364e-18
1.70077e-18
4.32159e-19
-2.35807e-19
4.09691e-19
7.68442e-19
1.44784e-18
1.26379e-18
1.2157e-18
4.93119e-18
1.43737e-17
3.85355e-17
1.21617e-16
3.65013e-16
1.21908e-15
3.83956e-15
1.21699e-14
3.89387e-14
1.2024e-13
3.98661e-13
1.20905e-12
3.57565e-12
1.03839e-11
2.92395e-11
7.96309e-11
2.20403e-10
5.80557e-10
1.39745e-09
2.98539e-09
5.45108e-09
8.2761e-09
1.02499e-08
9.38947e-09
-7.97693e-11
-3.28953e-08
-1.28813e-07
-3.94576e-07
-1.13815e-06
-3.20315e-06
-8.37765e-06
-2.01231e-05
-4.32379e-05
-7.28559e-05
-7.70098e-05
-7.24312e-05
-0.000127579
-0.000178762
-0.000161267
-1.29158e-05
0.000212192
3.25647e-05
-0.000896324
-0.00102515
0.000748175
0.00345359
0.00431703
-0.00144881
-0.00172632
-0.000700672
-0.000179177
-0.000137548
-0.000195411
-0.000161911
-9.46363e-05
-4.99911e-05
-2.72692e-05
-1.49481e-05
-8.25371e-06
-4.54433e-06
-2.47467e-06
-1.30798e-06
-6.8295e-07
-3.53015e-07
-2.00904e-07
-1.53119e-07
9.82239e-08
1.43432e-07
-3.31961e-08
-3.8197e-08
-1.68577e-08
-4.0036e-09
7.64526e-20
1.70379e-20
3.75643e-19
2.6284e-19
1.0377e-19
8.13681e-20
2.80389e-19
6.46181e-19
3.65819e-19
3.70027e-19
1.69144e-19
5.02879e-19
1.60639e-19
1.99442e-19
3.0661e-19
3.2825e-19
5.46738e-19
7.0833e-19
-2.23294e-20
2.04098e-19
-5.21458e-20
7.45805e-19
7.92362e-19
7.80268e-19
2.53028e-19
1.58323e-18
1.40654e-18
2.80728e-18
6.05191e-18
1.44989e-17
4.0598e-17
1.27397e-16
4.19887e-16
1.36813e-15
4.388e-15
1.38453e-14
4.27775e-14
1.31761e-13
4.18507e-13
1.30932e-12
3.82546e-12
1.10262e-11
3.08787e-11
8.57409e-11
2.362e-10
6.17394e-10
1.47386e-09
3.11919e-09
5.62807e-09
8.43964e-09
1.03254e-08
9.24356e-09
-8.26485e-10
-3.24373e-08
-1.29781e-07
-3.95006e-07
-1.12933e-06
-3.1636e-06
-8.24276e-06
-1.98092e-05
-4.25508e-05
-7.2024e-05
-7.71323e-05
-7.14352e-05
-0.000125652
-0.000178106
-0.00016385
-2.00509e-05
0.000209876
5.14191e-05
-0.000864825
-0.00105408
0.000676444
0.00339067
0.00438295
-0.00132805
-0.00175688
-0.00072268
-0.000185444
-0.000136841
-0.000196049
-0.000163572
-9.58483e-05
-5.06108e-05
-2.76005e-05
-1.51281e-05
-8.35264e-06
-4.59865e-06
-2.50397e-06
-1.32312e-06
-6.9087e-07
-3.57118e-07
-2.03226e-07
-1.54874e-07
9.94553e-08
1.45053e-07
-3.35532e-08
-3.86049e-08
-1.70356e-08
-4.04582e-09
5.40687e-20
-2.3349e-20
3.97715e-19
3.4188e-19
3.03001e-19
7.15696e-20
3.06045e-19
3.0033e-19
6.73545e-21
4.06374e-19
2.05281e-19
-1.33294e-19
4.35478e-19
2.69128e-19
1.78115e-19
5.63688e-19
-1.72926e-20
2.2787e-19
-4.37342e-20
2.44059e-19
1.29856e-18
7.96688e-19
6.01268e-19
6.71352e-19
9.80212e-19
1.64513e-18
1.52253e-18
1.86262e-18
3.68904e-18
1.44563e-17
4.33631e-17
1.39766e-16
4.57493e-16
1.48473e-15
4.71053e-15
1.47363e-14
4.54016e-14
1.39427e-13
4.42763e-13
1.39492e-12
4.09641e-12
1.18743e-11
3.30874e-11
9.24909e-11
2.49153e-10
6.48608e-10
1.53941e-09
3.21832e-09
5.74525e-09
8.53634e-09
1.03654e-08
9.20095e-09
-9.30783e-10
-3.20561e-08
-1.31241e-07
-3.95129e-07
-1.11894e-06
-3.11601e-06
-8.10185e-06
-1.94513e-05
-4.19074e-05
-7.12525e-05
-7.73031e-05
-7.05424e-05
-0.000123687
-0.000177324
-0.000166308
-2.74115e-05
0.000205213
7.06148e-05
-0.000834946
-0.00107961
0.000606387
0.00332025
0.00443987
-0.00118922
-0.00179113
-0.000746858
-0.00019242
-0.000136099
-0.00019658
-0.000165329
-9.71923e-05
-5.1286e-05
-2.79585e-05
-1.53201e-05
-8.45746e-06
-4.65631e-06
-2.5358e-06
-1.33973e-06
-6.99545e-07
-3.61464e-07
-2.0555e-07
-1.56621e-07
9.9477e-08
1.47213e-07
-3.37674e-08
-3.90536e-08
-1.72493e-08
-4.09799e-09
-7.72143e-20
2.83448e-19
6.90605e-20
3.83586e-19
2.6731e-19
1.54842e-19
3.70161e-19
2.89573e-19
2.91709e-19
2.25978e-19
3.52287e-19
3.21494e-19
3.64901e-19
5.32991e-19
1.02607e-18
1.32863e-18
9.79671e-19
3.57743e-19
8.94208e-19
1.32752e-19
1.95084e-18
1.30521e-18
6.35306e-19
8.72684e-21
1.23781e-20
2.76709e-19
2.07348e-18
2.15709e-18
3.09818e-18
1.35382e-17
4.83175e-17
1.50816e-16
4.84915e-16
1.55655e-15
4.96133e-15
1.55129e-14
4.83824e-14
1.4591e-13
4.72057e-13
1.47157e-12
4.26436e-12
1.22383e-11
3.48723e-11
9.72749e-11
2.60504e-10
6.7426e-10
1.58479e-09
3.28663e-09
5.82378e-09
8.59779e-09
1.03886e-08
9.17971e-09
-9.36419e-10
-3.16526e-08
-1.32086e-07
-3.94567e-07
-1.10873e-06
-3.07608e-06
-7.98122e-06
-1.91177e-05
-4.12012e-05
-7.04874e-05
-7.75324e-05
-6.98091e-05
-0.000121895
-0.000176571
-0.00016842
-3.38415e-05
0.00019997
8.66758e-05
-0.000806182
-0.00109902
0.000540112
0.00325458
0.00448654
-0.00104879
-0.0018244
-0.000770956
-0.000199713
-0.000135301
-0.000197013
-0.000167042
-9.85385e-05
-5.19711e-05
-2.83205e-05
-1.55135e-05
-8.56279e-06
-4.71414e-06
-2.5676e-06
-1.35629e-06
-7.08306e-07
-3.65892e-07
-2.07882e-07
-1.58357e-07
9.89301e-08
1.49754e-07
-3.38474e-08
-3.94945e-08
-1.74706e-08
-4.1529e-09
1.13375e-19
9.45724e-20
-5.27221e-20
1.62789e-19
7.45092e-20
1.48315e-20
1.62592e-19
-1.21821e-20
2.16618e-20
3.60047e-19
5.76257e-19
5.80933e-19
8.35036e-19
3.99561e-19
1.12449e-19
4.33568e-19
7.45608e-19
1.00448e-18
1.1589e-18
7.43913e-19
-1.7802e-19
-7.41199e-20
7.80503e-19
-2.3882e-19
-3.29694e-19
2.48893e-19
3.74408e-19
1.37677e-18
4.38828e-18
1.40502e-17
4.38516e-17
1.55814e-16
5.10006e-16
1.6336e-15
5.10158e-15
1.58261e-14
5.05342e-14
1.52266e-13
4.89276e-13
1.48121e-12
4.5516e-12
1.29921e-11
3.67362e-11
9.98488e-11
2.68917e-10
6.92198e-10
1.6183e-09
3.33753e-09
5.88204e-09
8.6432e-09
1.04052e-08
9.16723e-09
-9.16489e-10
-3.13004e-08
-1.3232e-07
-3.92906e-07
-1.09613e-06
-3.03269e-06
-7.85023e-06
-1.88157e-05
-4.05816e-05
-6.97724e-05
-7.77503e-05
-6.91892e-05
-0.000120232
-0.000175843
-0.000170371
-3.98092e-05
0.000193786
0.000101184
-0.000780142
-0.00111732
0.000479182
0.00319167
0.00452539
-0.000911732
-0.00185536
-0.000793895
-0.000206643
-0.000134579
-0.000197335
-0.000168591
-9.97885e-05
-5.26052e-05
-2.86564e-05
-1.56933e-05
-8.66085e-06
-4.7681e-06
-2.59734e-06
-1.37178e-06
-7.16479e-07
-3.69975e-07
-2.09985e-07
-1.59904e-07
9.74245e-08
1.52209e-07
-3.38558e-08
-3.98995e-08
-1.76806e-08
-4.20554e-09
4.0764e-20
1.42274e-19
1.28788e-19
2.33428e-19
1.12404e-19
1.04229e-19
2.53967e-19
1.35887e-19
2.09143e-19
-3.30946e-20
2.76815e-20
8.50434e-19
3.63853e-19
1.26144e-19
4.26815e-19
-1.20098e-20
1.34284e-19
9.77442e-19
1.84849e-19
6.01414e-19
-7.12071e-20
2.44848e-19
4.11737e-19
4.61481e-19
1.12552e-18
-2.69562e-19
7.48759e-19
6.43483e-19
3.04769e-18
1.29075e-17
4.87843e-17
1.62803e-16
5.28546e-16
1.70317e-15
5.41027e-15
1.70324e-14
5.23628e-14
1.6571e-13
5.1927e-13
1.59866e-12
4.68372e-12
1.33123e-11
3.7664e-11
1.01743e-10
2.75212e-10
7.06066e-10
1.64341e-09
3.37457e-09
5.92261e-09
8.67232e-09
1.0415e-08
9.16076e-09
-8.87911e-10
-3.1e-08
-1.32313e-07
-3.91068e-07
-1.08475e-06
-2.9907e-06
-7.73456e-06
-1.85321e-05
-4.00477e-05
-6.91775e-05
-7.79329e-05
-6.87199e-05
-0.000118823
-0.000175151
-0.00017178
-4.39377e-05
0.000194751
0.000114544
-0.000756974
-0.00113373
0.000427747
0.00313757
0.00455422
-0.000790291
-0.00188207
-0.00081369
-0.000212739
-0.000133983
-0.000197561
-0.000169892
-0.000100867
-5.31548e-05
-2.89481e-05
-1.58496e-05
-8.74622e-06
-4.81516e-06
-2.62336e-06
-1.38536e-06
-7.23734e-07
-3.73576e-07
-2.11809e-07
-1.61193e-07
9.62404e-08
1.54555e-07
-3.37938e-08
-4.02454e-08
-1.78658e-08
-4.25238e-09
1.1223e-19
1.79444e-19
2.30434e-19
1.5656e-19
2.25109e-19
1.77209e-19
3.22945e-19
4.22332e-19
2.50242e-19
2.28066e-20
3.22809e-20
8.34103e-20
2.63908e-19
7.36363e-20
6.93007e-19
4.57718e-19
9.2067e-20
2.75618e-19
3.05063e-19
8.20576e-19
6.29723e-19
-1.11656e-19
7.14592e-19
4.12238e-19
1.80732e-19
1.86229e-18
2.97534e-19
2.19786e-18
5.61199e-18
1.79243e-17
5.25783e-17
1.70549e-16
5.52965e-16
1.78144e-15
5.66843e-15
1.79238e-14
5.58163e-14
1.70628e-13
5.29636e-13
1.59702e-12
4.71478e-12
1.35041e-11
3.70937e-11
1.03294e-10
2.8062e-10
7.16522e-10
1.66223e-09
3.40228e-09
5.95294e-09
8.69411e-09
1.0422e-08
9.15617e-09
-8.65052e-10
-3.07768e-08
-1.32176e-07
-3.89369e-07
-1.07512e-06
-2.95998e-06
-7.64993e-06
-1.83271e-05
-3.96402e-05
-6.8663e-05
-7.80312e-05
-6.83102e-05
-0.000117613
-0.000174539
-0.000172976
-4.80388e-05
0.000191371
0.000124864
-0.000743072
-0.00114297
0.000388096
0.00309452
0.00457372
-0.000691898
-0.00190328
-0.000829559
-0.000217719
-0.000133512
-0.000197697
-0.000170933
-0.000101743
-5.36009e-05
-2.91843e-05
-1.5976e-05
-8.8152e-06
-4.8532e-06
-2.64439e-06
-1.39635e-06
-7.29577e-07
-3.76461e-07
-2.13253e-07
-1.62217e-07
9.52525e-08
1.56433e-07
-3.37331e-08
-4.05257e-08
-1.80174e-08
-4.29079e-09
8.82897e-20
2.03331e-19
4.70277e-19
6.69723e-19
4.13459e-19
3.04043e-19
2.34638e-19
7.12853e-19
1.54179e-19
1.80746e-20
2.22818e-20
2.67044e-20
2.13564e-19
2.51813e-19
4.2124e-19
9.13466e-19
6.40049e-19
3.16341e-19
5.5438e-19
1.93772e-20
1.10197e-18
5.89514e-19
4.60065e-19
1.05674e-18
1.58977e-18
1.29517e-18
9.73842e-19
4.86501e-19
4.18629e-18
1.79603e-17
5.38162e-17
1.71167e-16
5.63818e-16
1.77504e-15
5.63838e-15
1.77173e-14
5.49866e-14
1.67834e-13
5.22741e-13
1.63063e-12
4.67553e-12
1.34003e-11
3.743e-11
1.04306e-10
2.84425e-10
7.23967e-10
1.67545e-09
3.42158e-09
5.97399e-09
8.7095e-09
1.04263e-08
9.15161e-09
-8.53625e-10
-3.06323e-08
-1.32067e-07
-3.88191e-07
-1.06869e-06
-2.93834e-06
-7.58947e-06
-1.81811e-05
-3.9353e-05
-6.8321e-05
-7.81102e-05
-6.80605e-05
-0.000116799
-0.000174094
-0.000173744
-5.0807e-05
0.000188868
0.000131389
-0.00072527
-0.00115069
0.000360374
0.00306395
0.0045863
-0.000621087
-0.00191822
-0.000840829
-0.000221318
-0.000133183
-0.000197772
-0.000171654
-0.000102362
-5.39172e-05
-2.93518e-05
-1.60657e-05
-8.86422e-06
-4.88025e-06
-2.65937e-06
-1.40417e-06
-7.33747e-07
-3.78525e-07
-2.14289e-07
-1.6295e-07
9.43367e-08
1.57797e-07
-3.36789e-08
-4.07247e-08
-1.81259e-08
-4.31836e-09
3.19391e-20
-3.30582e-20
6.15149e-20
2.0288e-19
9.84995e-20
1.84411e-19
1.17391e-19
3.33981e-19
2.35708e-19
2.43113e-19
1.55669e-19
1.67883e-19
3.10329e-19
1.54863e-19
2.97819e-19
3.09251e-19
1.64937e-20
1.44712e-19
3.56213e-19
6.78507e-19
5.01879e-19
1.60625e-19
2.3883e-19
1.22631e-18
1.28958e-18
2.2216e-18
1.00499e-19
3.43757e-18
5.19551e-18
1.34975e-17
5.39574e-17
1.74725e-16
5.7144e-16
1.82029e-15
5.84128e-15
1.8141e-14
5.70532e-14
1.71432e-13
5.50507e-13
1.66636e-12
4.81419e-12
1.36219e-11
3.76399e-11
1.05961e-10
2.86215e-10
7.28465e-10
1.68407e-09
3.4343e-09
5.98771e-09
8.71916e-09
1.04289e-08
9.14779e-09
-8.52229e-10
-3.05653e-08
-1.32068e-07
-3.87696e-07
-1.06562e-06
-2.92778e-06
-7.55904e-06
-1.81056e-05
-3.92016e-05
-6.81458e-05
-7.81541e-05
-6.79398e-05
-0.000116373
-0.000173856
-0.000174142
-5.22977e-05
0.000187394
0.000134775
-0.000723052
-0.00115467
0.000345049
0.00304757
0.00459239
-0.00058309
-0.00192615
-0.000846843
-0.000223241
-0.000133003
-0.000197801
-0.000172038
-0.000102698
-5.4089e-05
-2.9443e-05
-1.61145e-05
-8.89089e-06
-4.89496e-06
-2.66752e-06
-1.40843e-06
-7.36014e-07
-3.79646e-07
-2.14859e-07
-1.63364e-07
9.36919e-08
1.58484e-07
-3.36623e-08
-4.08353e-08
-1.81853e-08
-4.3334e-09
-2.29447e-20
3.09958e-19
1.94242e-19
3.21804e-19
1.46278e-19
2.52033e-19
1.812e-19
5.73839e-19
1.8935e-19
1.02237e-20
4.95291e-19
4.66406e-19
6.24379e-19
1.62105e-19
2.72901e-19
4.21738e-19
6.77788e-20
3.88911e-19
3.28419e-19
6.98874e-19
7.88545e-19
2.73868e-19
3.85751e-19
6.17503e-19
5.78609e-19
1.02287e-19
1.66665e-19
5.73752e-19
4.92708e-18
1.63716e-17
5.71886e-17
1.87075e-16
6.01414e-16
1.96419e-15
6.23464e-15
1.92269e-14
5.93465e-14
1.76436e-13
5.53165e-13
1.64533e-12
4.87795e-12
1.37938e-11
3.83301e-11
1.06264e-10
2.87395e-10
7.31211e-10
1.68918e-09
3.44194e-09
5.99626e-09
8.72558e-09
1.04308e-08
9.14311e-09
-8.642e-10
-3.05692e-08
-1.32229e-07
-3.87861e-07
-1.06532e-06
-2.92591e-06
-7.55291e-06
-1.80898e-05
-3.91695e-05
-6.81078e-05
-7.81656e-05
-6.79207e-05
-0.00011629
-0.000173806
-0.000174208
-5.2552e-05
0.00018716
0.000135404
-0.000721792
-0.00115528
0.000343059
0.00304492
0.00459333
-0.000576946
-0.00192735
-0.000847763
-0.000223534
-0.000132972
-0.000197801
-0.000172094
-0.000102748
-5.41147e-05
-2.94566e-05
-1.61218e-05
-8.89487e-06
-4.89715e-06
-2.66872e-06
-1.40906e-06
-7.36347e-07
-3.79807e-07
-2.14934e-07
-1.634e-07
9.37784e-08
1.58639e-07
-3.3646e-08
-4.08467e-08
-1.81922e-08
-4.3352e-09
2.84068e-20
8.46497e-20
3.90518e-19
4.54945e-19
2.01984e-19
5.0055e-20
-1.62588e-20
1.70984e-19
4.8151e-19
3.84859e-19
3.3431e-20
2.99896e-19
-2.15021e-20
2.74181e-19
4.21675e-19
3.13237e-19
4.74475e-19
2.80271e-19
7.31418e-20
2.07625e-19
3.82197e-19
1.87215e-19
2.90649e-19
8.76012e-20
9.74507e-19
1.8554e-19
1.17323e-18
1.83549e-18
6.99722e-18
1.86991e-17
5.97423e-17
1.89627e-16
6.14945e-16
1.98647e-15
6.39411e-15
1.97766e-14
6.03493e-14
1.80028e-13
5.58026e-13
1.68455e-12
4.88939e-12
1.3767e-11
3.86806e-11
1.06672e-10
2.87251e-10
7.32448e-10
1.69134e-09
3.44536e-09
6.00057e-09
8.72937e-09
1.04318e-08
9.13594e-09
-8.98087e-10
-3.06729e-08
-1.32644e-07
-3.88987e-07
-1.06892e-06
-2.93595e-06
-7.57853e-06
-1.81491e-05
-3.92833e-05
-6.82384e-05
-7.81292e-05
-6.8017e-05
-0.000116611
-0.000173979
-0.000173908
-5.1471e-05
0.000188211
0.000133161
-0.000720633
-0.00115209
0.0003544
0.00305694
0.00458878
-0.000604788
-0.00192151
-0.000843341
-0.000222093
-0.000133093
-0.000197775
-0.000171812
-0.000102502
-5.39894e-05
-2.93902e-05
-1.60863e-05
-8.87542e-06
-4.8864e-06
-2.66275e-06
-1.40594e-06
-7.34677e-07
-3.78989e-07
-2.14534e-07
-1.63139e-07
9.40967e-08
1.58012e-07
-3.3695e-08
-4.077e-08
-1.81479e-08
-4.32377e-09
2.97421e-20
7.77699e-21
7.69587e-20
8.04658e-20
1.99137e-19
2.26312e-19
3.77777e-21
3.39713e-19
1.90156e-19
6.32294e-20
-8.43704e-21
9.84714e-20
2.32919e-20
5.87167e-19
5.01618e-19
1.00777e-18
1.13133e-18
2.46376e-19
2.33878e-19
5.99135e-19
6.52554e-19
1.1108e-18
4.1025e-19
1.4401e-18
9.58953e-19
9.11292e-19
5.29177e-19
1.57733e-18
6.36323e-18
2.12765e-17
5.84868e-17
1.76991e-16
5.85687e-16
1.83002e-15
5.65203e-15
1.74644e-14
5.57647e-14
1.66154e-13
5.36422e-13
1.67263e-12
4.79694e-12
1.37324e-11
3.79573e-11
1.0671e-10
2.87192e-10
7.31513e-10
1.68988e-09
3.44381e-09
5.99988e-09
8.73001e-09
1.04318e-08
9.12713e-09
-9.49669e-10
-3.08682e-08
-1.33309e-07
-3.91077e-07
-1.07638e-06
-2.95759e-06
-7.63447e-06
-1.82789e-05
-3.95343e-05
-6.8525e-05
-7.80391e-05
-6.82242e-05
-0.00011731
-0.000174348
-0.000173244
-4.91116e-05
0.000190401
0.000127688
-0.000731534
-0.00114496
0.000378029
0.00308283
0.00457843
-0.000664746
-0.00190885
-0.000833787
-0.000219067
-0.00013337
-0.000197718
-0.000171199
-0.000101971
-5.3718e-05
-2.92463e-05
-1.60092e-05
-8.83331e-06
-4.86314e-06
-2.64984e-06
-1.39919e-06
-7.31076e-07
-3.77207e-07
-2.1364e-07
-1.62493e-07
9.49354e-08
1.56842e-07
-3.37459e-08
-4.05939e-08
-1.80511e-08
-4.2991e-09
2.21761e-19
3.09653e-19
1.42332e-19
2.52069e-19
2.23895e-19
1.33869e-19
6.14713e-20
7.15155e-20
2.33218e-20
1.06945e-19
1.32967e-20
4.91501e-20
1.40984e-19
1.44061e-19
5.03494e-20
3.39809e-19
4.73898e-19
7.43274e-19
5.91154e-19
9.04895e-19
3.80389e-19
3.80118e-19
8.07057e-19
6.46222e-19
1.13594e-18
2.41727e-18
1.7275e-18
4.70006e-19
6.35797e-18
1.85013e-17
5.65657e-17
1.73068e-16
5.63229e-16
1.75982e-15
5.55593e-15
1.74603e-14
5.47707e-14
1.66276e-13
5.34447e-13
1.66523e-12
4.79772e-12
1.34862e-11
3.77766e-11
1.06772e-10
2.85827e-10
7.2857e-10
1.68518e-09
3.43788e-09
5.99497e-09
8.72812e-09
1.04311e-08
9.11513e-09
-1.02689e-09
-3.1176e-08
-1.34289e-07
-3.94302e-07
-1.08827e-06
-2.99257e-06
-7.72566e-06
-1.84908e-05
-3.99389e-05
-6.89763e-05
-7.78717e-05
-6.85553e-05
-0.000118393
-0.000174893
-0.000172162
-4.54125e-05
0.000193639
0.000118631
-0.000749878
-0.00113736
0.000413866
0.00312157
0.0045607
-0.0007544
-0.00188973
-0.000819427
-0.000214536
-0.000133799
-0.000197616
-0.000170274
-0.000101179
-5.3314e-05
-2.9032e-05
-1.58943e-05
-8.77052e-06
-4.82845e-06
-2.6306e-06
-1.38914e-06
-7.25711e-07
-3.74568e-07
-2.12328e-07
-1.61571e-07
9.62656e-08
1.55055e-07
-3.38293e-08
-4.03347e-08
-1.7908e-08
-4.26264e-09
9.03666e-20
7.05534e-20
2.95532e-19
3.32861e-19
2.37055e-19
5.76784e-20
5.17032e-20
3.47141e-19
2.02147e-20
-8.01935e-20
3.71036e-19
2.53288e-19
4.10591e-19
5.92938e-19
3.05755e-19
5.02203e-19
7.28069e-19
8.06933e-19
6.5815e-19
8.48337e-19
1.46124e-18
-1.02981e-19
-1.03676e-19
4.59144e-19
1.00234e-18
1.25986e-18
1.3867e-18
1.9873e-18
5.13357e-18
1.67604e-17
5.55035e-17
1.77424e-16
5.63533e-16
1.79557e-15
5.71011e-15
1.78317e-14
5.58976e-14
1.68573e-13
5.17637e-13
1.58637e-12
4.75826e-12
1.3408e-11
3.70529e-11
1.05262e-10
2.83941e-10
7.2399e-10
1.67684e-09
3.42625e-09
5.98381e-09
8.72207e-09
1.04289e-08
9.10093e-09
-1.1276e-09
-3.16001e-08
-1.35557e-07
-3.98482e-07
-1.10392e-06
-3.03908e-06
-7.84776e-06
-1.8776e-05
-4.04861e-05
-6.95826e-05
-7.76143e-05
-6.90166e-05
-0.0001198
-0.000175539
-0.000170648
-4.05534e-05
0.00019756
0.000106487
-0.000771572
-0.00112353
0.000461425
0.00317144
0.00453564
-0.000867424
-0.00186501
-0.000800995
-0.000208788
-0.000134377
-0.000197454
-0.000169058
-0.000100154
-5.27926e-05
-2.87547e-05
-1.57459e-05
-8.68947e-06
-4.78371e-06