/*--------------------------------*- C++ -*----------------------------------*\
  =========                 |
  \\      /  F ield         | OpenFOAM: The Open Source CFD Toolbox
   \\    /   O peration     | Website:  https://openfoam.org
    \\  /    A nd           | Version:  10
     \\/     M anipulation  |
\*---------------------------------------------------------------------------*/
FoamFile
{
    format      ascii;
    class       volScalarField;
    location    "1";
    object      RR.C12H25O2;
}
// * * * * * * * * * * * * * * * * * * * * * * * * * * * * * * * * * * * * * //

dimensions      [1 -3 -1 0 0 0 0];

internalField   nonuniform List<scalar> 
4000
(
-1.40914e-32
-6.09388e-32
-2.41495e-31
-8.72575e-31
-3.0833e-30
-1.04314e-29
-3.39376e-29
-1.07575e-28
-3.36556e-28
-1.05977e-27
-3.44806e-27
-1.09582e-26
-3.45524e-26
-1.09639e-25
-3.52022e-25
-1.14118e-24
-3.67876e-24
-1.27274e-23
-4.27111e-23
-1.45874e-22
-5.02588e-22
-1.75015e-21
-6.22696e-21
-2.20992e-20
-7.94767e-20
-2.85389e-19
-1.00027e-18
-3.71827e-18
-1.32408e-17
-4.73632e-17
-1.69715e-16
-6.06937e-16
-2.15129e-15
-7.60334e-15
-2.69221e-14
-9.06195e-14
-3.22444e-13
-1.11318e-12
-3.86377e-12
-1.33019e-11
-4.38276e-11
-1.43211e-10
-4.51771e-10
-1.39857e-09
-4.22149e-09
-1.31901e-08
-4.08458e-08
-1.16085e-07
-2.84399e-07
-5.5836e-07
-8.30302e-07
-9.27436e-07
-7.87811e-07
-2.56785e-07
1.49938e-06
7.20612e-06
2.41028e-05
7.4181e-05
0.000206324
0.000515108
0.00109834
0.00150013
-0.000255714
-0.00141244
-0.000496743
-0.0001279
-3.06784e-05
-7.58363e-06
-2.02547e-06
-5.97381e-07
-1.96496e-07
-6.55255e-08
-2.18439e-08
-1.16052e-08
-1.01506e-08
-5.57554e-09
-2.37625e-09
-1.0542e-09
-4.85717e-10
-2.30877e-10
-1.13558e-10
-5.79722e-11
-3.13101e-11
-1.88389e-11
-1.39319e-11
-1.39491e-11
-1.85387e-11
-2.94341e-11
-5.13523e-11
-9.49552e-11
-1.84183e-10
-3.81947e-10
-8.19222e-10
-1.87335e-09
-4.59277e-09
-1.19516e-08
-2.73859e-08
5.81718e-08
7.17223e-09
-3.3966e-09
-1.34025e-32
-7.08894e-32
-2.5149e-31
-8.46901e-31
-2.80583e-30
-9.13174e-30
-2.9124e-29
-9.21825e-29
-2.78843e-28
-8.40154e-28
-2.55593e-27
-7.91311e-27
-2.49778e-26
-8.06315e-26
-2.66703e-25
-9.0278e-25
-3.11427e-24
-1.09662e-23
-3.91872e-23
-1.41287e-22
-5.1443e-22
-1.89584e-21
-6.97735e-21
-2.57401e-20
-9.53194e-20
-3.50538e-19
-1.28845e-18
-4.72521e-18
-1.71922e-17
-6.18999e-17
-2.26079e-16
-8.44257e-16
-3.03043e-15
-1.06261e-14
-3.72319e-14
-1.3129e-13
-4.50135e-13
-1.57895e-12
-5.2583e-12
-1.77336e-11
-5.90496e-11
-1.89727e-10
-6.03542e-10
-1.84841e-09
-5.87657e-09
-1.83259e-08
-5.50968e-08
-1.49396e-07
-3.45398e-07
-6.33287e-07
-8.56455e-07
-9.00978e-07
-7.36336e-07
-1.26216e-07
1.87267e-06
8.39911e-06
2.64005e-05
7.81841e-05
0.000211484
0.000516432
0.00108749
0.00147709
-0.000218468
-0.00141587
-0.000514238
-0.000134698
-3.26599e-05
-8.04765e-06
-2.1419e-06
-6.31411e-07
-2.06864e-07
-6.90101e-08
-2.28125e-08
-1.18079e-08
-1.04219e-08
-5.82437e-09
-2.47452e-09
-1.0941e-09
-5.0262e-10
-2.38297e-10
-1.16848e-10
-5.9537e-11
-3.21221e-11
-1.93075e-11
-1.42811e-11
-1.43332e-11
-1.91151e-11
-3.04526e-11
-5.33478e-11
-9.89183e-11
-1.92463e-10
-4.00362e-10
-8.61891e-10
-1.97858e-09
-4.87319e-09
-1.26772e-08
-2.74754e-08
6.1165e-08
5.25801e-09
-3.48169e-09
-5.8474e-33
-3.1276e-32
-1.08731e-31
-3.40817e-31
-1.03187e-30
-3.07184e-30
-9.04359e-30
-2.68617e-29
-8.29968e-29
-2.7401e-28
-9.42656e-28
-3.36309e-27
-1.23459e-26
-4.61437e-26
-1.74692e-25
-6.67505e-25
-2.56965e-24
-9.94991e-24
-3.85941e-23
-1.4936e-22
-5.77521e-22
-2.22107e-21
-8.48902e-21
-3.21732e-20
-1.20845e-19
-4.51314e-19
-1.68078e-18
-6.31219e-18
-2.30526e-17
-8.31723e-17
-3.13122e-16
-1.11974e-15
-3.92535e-15
-1.39869e-14
-4.97904e-14
-1.72647e-13
-5.88626e-13
-2.0014e-12
-6.78486e-12
-2.22553e-11
-7.30492e-11
-2.25699e-10
-7.49023e-10
-2.2852e-09
-7.37244e-09
-2.25449e-08
-6.69538e-08
-1.75915e-07
-3.85519e-07
-6.75896e-07
-8.72483e-07
-8.94699e-07
-6.84109e-07
5.93659e-08
2.31627e-06
9.02076e-06
2.75644e-05
8.04137e-05
0.000214834
0.000518935
0.00108017
0.00145393
-0.000198285
-0.00140774
-0.000525674
-0.000139733
-3.42243e-05
-8.48248e-06
-2.25577e-06
-6.62107e-07
-2.15814e-07
-7.22259e-08
-2.3687e-08
-1.19652e-08
-1.07e-08
-6.11072e-09
-2.58939e-09
-1.14121e-09
-5.22855e-10
-2.47364e-10
-1.21198e-10
-6.16527e-11
-3.32053e-11
-1.99247e-11
-1.47513e-11
-1.48492e-11
-1.98733e-11
-3.17618e-11
-5.57303e-11
-1.03705e-10
-2.02143e-10
-4.20968e-10
-9.07787e-10
-2.08945e-09
-5.15769e-09
-1.33647e-08
-2.66612e-08
6.35625e-08
3.49173e-09
-3.54487e-09
-1.96941e-33
-1.05296e-32
-3.82557e-32
-1.27137e-31
-4.14968e-31
-1.37321e-30
-4.68262e-30
-1.72823e-29
-6.44315e-29
-2.4424e-28
-9.59382e-28
-3.74846e-27
-1.4994e-26
-5.88953e-26
-2.31618e-25
-9.09238e-25
-3.55933e-24
-1.38803e-23
-5.38527e-23
-2.08058e-22
-8.0035e-22
-3.06281e-21
-1.16448e-20
-4.3908e-20
-1.67612e-19
-6.24685e-19
-2.31723e-18
-8.52634e-18
-3.0545e-17
-1.14221e-16
-4.10061e-16
-1.46586e-15
-5.16658e-15
-1.82556e-14
-6.42915e-14
-2.21393e-13
-7.45944e-13
-2.54658e-12
-8.49584e-12
-2.78543e-11
-9.08851e-11
-2.84226e-10
-9.23317e-10
-2.8246e-09
-8.61631e-09
-2.70434e-08
-7.84143e-08
-1.99438e-07
-4.28455e-07
-6.87354e-07
-8.77167e-07
-8.86818e-07
-6.09653e-07
2.42181e-07
2.79636e-06
9.4206e-06
2.8669e-05
8.25238e-05
0.000217698
0.000519478
0.00107214
0.00143733
-0.00017266
-0.00140757
-0.000537545
-0.000144503
-3.57462e-05
-8.89816e-06
-2.36444e-06
-6.91938e-07
-2.25205e-07
-7.56653e-08
-2.46186e-08
-1.21371e-08
-1.09619e-08
-6.34128e-09
-2.69025e-09
-1.18622e-09
-5.436e-10
-2.57149e-10
-1.25848e-10
-6.39603e-11
-3.44912e-11
-2.04578e-11
-1.51951e-11
-1.53421e-11
-2.05715e-11
-3.28971e-11
-5.77434e-11
-1.08641e-10
-2.11636e-10
-4.40713e-10
-9.53357e-10
-2.2007e-09
-5.44697e-09
-1.40141e-08
-2.50341e-08
6.3775e-08
2.19707e-09
-3.56251e-09
-1.40411e-33
-7.7618e-33
-3.04245e-32
-1.1238e-31
-4.13284e-31
-1.53689e-30
-5.79541e-30
-2.20862e-29
-8.42672e-29
-3.34236e-28
-1.30327e-27
-5.12813e-27
-2.04444e-26
-7.99625e-26
-3.19724e-25
-1.24823e-24
-4.8526e-24
-1.92529e-23
-7.47371e-23
-2.88546e-22
-1.1075e-21
-4.21488e-21
-1.59302e-20
-5.98343e-20
-2.23491e-19
-8.27797e-19
-3.04711e-18
-1.13278e-17
-4.10541e-17
-1.47672e-16
-5.28334e-16
-1.93147e-15
-6.74521e-15
-2.36873e-14
-8.18202e-14
-2.80658e-13
-9.31991e-13
-3.05051e-12
-1.03015e-11
-3.39621e-11
-1.08376e-10
-3.43555e-10
-1.05832e-09
-3.34754e-09
-1.01552e-08
-3.13172e-08
-8.84774e-08
-2.24306e-07
-4.37106e-07
-6.95577e-07
-8.92353e-07
-8.70314e-07
-5.52408e-07
4.56954e-07
2.97815e-06
9.89148e-06
2.97749e-05
8.43934e-05
0.000220077
0.000521083
0.00106697
0.00142165
-0.000160915
-0.00140123
-0.000544455
-0.00014814
-3.69843e-05
-9.24125e-06
-2.45143e-06
-7.16292e-07
-2.32872e-07
-7.83357e-08
-2.53544e-08
-1.22844e-08
-1.12246e-08
-6.60468e-09
-2.79579e-09
-1.23099e-09
-5.63175e-10
-2.65886e-10
-1.29978e-10
-6.60082e-11
-3.55847e-11
-2.11088e-11
-1.56864e-11
-1.58624e-11
-2.13086e-11
-3.41343e-11
-6.00208e-11
-1.13069e-10
-2.20703e-10
-4.60044e-10
-9.98049e-10
-2.3106e-09
-5.7333e-09
-1.46601e-08
-2.30942e-08
6.3557e-08
1.20241e-09
-3.5506e-09
-2.01272e-33
-1.17051e-32
-4.76387e-32
-1.83908e-31
-7.03789e-31
-2.69497e-30
-1.03364e-29
-3.97204e-29
-1.52737e-28
-5.88621e-28
-2.26114e-27
-8.62784e-27
-3.39245e-26
-1.3033e-25
-4.99149e-25
-1.94275e-24
-7.44953e-24
-2.85805e-23
-1.09767e-22
-4.14385e-22
-1.59622e-21
-5.96293e-21
-2.21158e-20
-8.15369e-20
-3.02445e-19
-1.13081e-18
-4.10772e-18
-1.47079e-17
-5.38731e-17
-1.90861e-16
-6.72859e-16
-2.45591e-15
-8.49913e-15
-2.92847e-14
-9.94585e-14
-3.36654e-13
-1.11384e-12
-3.61017e-12
-1.21943e-11
-4.16557e-11
-1.29722e-10
-3.98143e-10
-1.23181e-09
-3.85817e-09
-1.17228e-08
-3.52298e-08
-1.00152e-07
-2.3156e-07
-4.502e-07
-7.23652e-07
-8.97532e-07
-8.49415e-07
-5.05934e-07
5.67825e-07
3.24003e-06
1.04129e-05
3.06354e-05
8.60213e-05
0.00022172
0.000520931
0.00106027
0.00140958
-0.00014434
-0.00140017
-0.000553039
-0.000151421
-3.79789e-05
-9.52983e-06
-2.5325e-06
-7.38993e-07
-2.39725e-07
-8.07559e-08
-2.6039e-08
-1.24289e-08
-1.14127e-08
-6.80589e-09
-2.87956e-09
-1.26631e-09
-5.78829e-10
-2.73196e-10
-1.33476e-10
-6.77706e-11
-3.65265e-11
-2.16989e-11
-1.61509e-11
-1.63668e-11
-2.20305e-11
-3.53492e-11
-6.22523e-11
-1.17345e-10
-2.29513e-10
-4.78579e-10
-1.04095e-09
-2.41596e-09
-6.00647e-09
-1.52871e-08
-2.12602e-08
6.3248e-08
6.34034e-10
-3.56555e-09
-3.11089e-33
-1.75178e-32
-7.24936e-32
-2.78141e-31
-1.04953e-30
-4.07252e-30
-1.54929e-29
-5.92278e-29
-2.26725e-28
-8.6758e-28
-3.32159e-27
-1.27169e-26
-4.86458e-26
-1.85837e-25
-7.11122e-25
-2.72655e-24
-1.04496e-23
-3.96078e-23
-1.49969e-22
-5.72101e-22
-2.14604e-21
-7.99803e-21
-2.96195e-20
-1.089e-19
-3.96939e-19
-1.43403e-18
-5.19357e-18
-1.82166e-17
-6.67383e-17
-2.39928e-16
-8.42731e-16
-2.94848e-15
-1.02234e-14
-3.52399e-14
-1.18464e-13
-4.02517e-13
-1.36819e-12
-4.40626e-12
-1.49149e-11
-4.82233e-11
-1.51301e-10
-4.70331e-10
-1.44183e-09
-4.30945e-09
-1.31262e-08
-3.89371e-08
-1.05088e-07
-2.31758e-07
-4.69156e-07
-7.39991e-07
-8.94064e-07
-8.33439e-07
-4.7311e-07
6.46554e-07
3.41778e-06
1.08084e-05
3.13079e-05
8.69986e-05
0.000222615
0.000519779
0.00105318
0.0013998
-0.000124593
-0.00139955
-0.000561736
-0.000154807
-3.8979e-05
-9.81252e-06
-2.60609e-06
-7.59577e-07
-2.46058e-07
-8.30016e-08
-2.66939e-08
-1.25646e-08
-1.15823e-08
-6.99434e-09
-2.96011e-09
-1.30064e-09
-5.94161e-10
-2.8026e-10
-1.36872e-10
-6.94745e-11
-3.74406e-11
-2.22672e-11
-1.65954e-11
-1.68468e-11
-2.27148e-11
-3.64978e-11
-6.43572e-11
-1.21376e-10
-2.37799e-10
-4.95981e-10
-1.08113e-09
-2.51443e-09
-6.26115e-09
-1.58721e-08
-1.97281e-08
6.31137e-08
2.48955e-10
-3.59088e-09
-4.42339e-33
-2.51027e-32
-1.02884e-31
-3.98549e-31
-1.52591e-30
-5.82963e-30
-2.22568e-29
-8.49499e-29
-3.24077e-28
-1.23547e-27
-4.7037e-27
-1.79115e-26
-6.82659e-26
-2.6015e-25
-9.86377e-25
-3.74076e-24
-1.41757e-23
-5.34346e-23
-2.00809e-22
-7.52805e-22
-2.81008e-21
-1.0397e-20
-3.82272e-20
-1.39612e-19
-5.06947e-19
-1.83101e-18
-6.55789e-18
-2.31213e-17
-8.0328e-17
-2.8057e-16
-1.00263e-15
-3.5621e-15
-1.22708e-14
-4.18085e-14
-1.39324e-13
-4.66886e-13
-1.56858e-12
-5.00202e-12
-1.68818e-11
-5.48363e-11
-1.72801e-10
-5.27405e-10
-1.63221e-09
-4.89012e-09
-1.49492e-08
-4.36201e-08
-1.09579e-07
-2.48727e-07
-4.90732e-07
-7.55595e-07
-8.924e-07
-8.15636e-07
-4.39325e-07
7.21797e-07
3.57461e-06
1.11095e-05
3.17998e-05
8.7575e-05
0.000222513
0.000516831
0.00104406
0.00139222
-9.73967e-05
-0.00140105
-0.000571418
-0.000158789
-4.0167e-05
-1.01342e-05
-2.68885e-06
-7.82615e-07
-2.53143e-07
-8.54853e-08
-2.745e-08
-1.27217e-08
-1.1743e-08
-7.19165e-09
-3.04243e-09
-1.33578e-09
-6.09863e-10
-2.87426e-10
-1.40313e-10
-7.11972e-11
-3.83605e-11
-2.28272e-11
-1.70238e-11
-1.72992e-11
-2.33497e-11
-3.75539e-11
-6.62813e-11
-1.25058e-10
-2.45319e-10
-5.1178e-10
-1.11736e-09
-2.60268e-09
-6.48847e-09
-1.63985e-08
-1.8587e-08
6.32327e-08
-8.22697e-12
-3.62577e-09
-5.76329e-33
-3.28466e-32
-1.35202e-31
-5.24267e-31
-2.00879e-30
-7.66469e-30
-2.91811e-29
-1.11047e-28
-4.22479e-28
-1.61529e-27
-6.12703e-27
-2.3188e-26
-8.77017e-26
-3.33649e-25
-1.25789e-24
-4.73707e-24
-1.78327e-23
-6.68195e-23
-2.48392e-22
-9.41941e-22
-3.49174e-21
-1.26389e-20
-4.7225e-20
-1.70555e-19
-6.17258e-19
-2.24198e-18
-8.01462e-18
-2.84394e-17
-9.98466e-17
-3.46967e-16
-1.18824e-15
-4.16781e-15
-1.427e-14
-4.87857e-14
-1.6349e-13
-5.42081e-13
-1.78344e-12
-5.64568e-12
-1.89745e-11
-6.15362e-11
-1.91044e-10
-5.9663e-10
-1.82349e-09
-5.5327e-09
-1.56826e-08
-4.23479e-08
-1.14089e-07
-2.65525e-07
-5.10006e-07
-7.6641e-07
-8.86097e-07
-8.00813e-07
-4.11925e-07
7.81534e-07
3.6873e-06
1.13147e-05
3.20829e-05
8.76725e-05
0.000221374
0.000511924
0.0010318
0.00138548
-5.21465e-05
-0.00140278
-0.000588896
-0.000164511
-4.17865e-05
-1.05333e-05
-2.79454e-06
-8.10971e-07
-2.62173e-07
-8.87626e-08
-2.8435e-08
-1.29259e-08
-1.19018e-08
-7.39991e-09
-3.12958e-09
-1.37276e-09
-6.26459e-10
-2.94941e-10
-1.43912e-10
-7.29902e-11
-3.93093e-11
-2.33881e-11
-1.74389e-11
-1.77223e-11
-2.3929e-11
-3.85042e-11
-6.79973e-11
-1.28336e-10
-2.51958e-10
-5.25729e-10
-1.14904e-09
-2.67928e-09
-6.68446e-09
-1.68604e-08
-1.78664e-08
6.36397e-08
-1.73474e-10
-3.66953e-09
-6.99542e-33
-4.11874e-32
-1.67449e-31
-6.44572e-31
-2.5033e-30
-9.54053e-30
-3.64589e-29
-1.38811e-28
-5.27407e-28
-1.99958e-27
-7.5783e-27
-2.8826e-26
-1.08736e-25
-4.10538e-25
-1.54948e-24
-5.73168e-24
-2.22785e-23
-8.28424e-23
-3.08096e-22
-1.13901e-21
-4.15677e-21
-1.5532e-20
-5.64571e-20
-2.04451e-19
-7.35794e-19
-2.63882e-18
-9.41793e-18
-3.31886e-17
-1.1853e-16
-4.14058e-16
-1.42699e-15
-4.85063e-15
-1.63559e-14
-5.49293e-14
-1.81751e-13
-5.9763e-13
-1.93599e-12
-6.20123e-12
-2.09381e-11
-6.69058e-11
-2.06136e-10
-6.37844e-10
-1.94678e-09
-5.67069e-09
-1.59335e-08
-4.64755e-08
-1.224e-07
-2.80378e-07
-5.28424e-07
-7.74305e-07
-8.81178e-07
-7.86274e-07
-3.85297e-07
8.19519e-07
3.76226e-06
1.14597e-05
3.21961e-05
8.74007e-05
0.000219624
0.000506339
0.00101983
0.00138005
-2.43843e-06
-0.00140542
-0.000606539
-0.000170933
-4.36409e-05
-1.09993e-05
-2.91127e-06
-8.43457e-07
-2.71035e-07
-9.21595e-08
-2.94786e-08
-1.31314e-08
-1.20393e-08
-7.63093e-09
-3.22905e-09
-1.41492e-09
-6.44874e-10
-3.03065e-10
-1.4774e-10
-7.48698e-11
-4.02887e-11
-2.39482e-11
-1.78366e-11
-1.81135e-11
-2.445e-11
-3.93451e-11
-6.94995e-11
-1.31201e-10
-2.57696e-10
-5.3776e-10
-1.17606e-09
-2.74393e-09
-6.84875e-09
-1.72546e-08
-1.75382e-08
6.43073e-08
-2.70725e-10
-3.72034e-09
-8.414e-33
-4.89437e-32
-2.00227e-31
-7.76219e-31
-2.97304e-30
-1.13422e-29
-4.3208e-29
-1.64303e-28
-6.22532e-28
-2.36018e-27
-9.09412e-27
-3.4339e-26
-1.29457e-25
-4.90722e-25
-1.8541e-24
-7.00563e-24
-2.62252e-23
-9.7553e-23
-3.60335e-22
-1.33626e-21
-4.82524e-21
-1.80572e-20
-6.54056e-20
-2.35905e-19
-8.32566e-19
-3.02829e-18
-1.06658e-17
-3.76544e-17
-1.33707e-16
-4.67243e-16
-1.60944e-15
-5.46185e-15
-1.82472e-14
-6.16941e-14
-2.02011e-13
-6.59267e-13
-2.1427e-12
-6.75913e-12
-2.30048e-11
-7.20102e-11
-2.2133e-10
-6.73265e-10
-2.00517e-09
-5.83392e-09
-1.7496e-08
-5.02513e-08
-1.31202e-07
-2.96734e-07
-5.46903e-07
-7.86036e-07
-8.79569e-07
-7.68506e-07
-3.2146e-07
8.20485e-07
3.81124e-06
1.15389e-05
3.21473e-05
8.6739e-05
0.000216942
0.000497918
0.00100331
0.00137727
5.22678e-05
-0.00140662
-0.000625499
-0.000177571
-4.55173e-05
-1.14985e-05
-3.03651e-06
-8.76671e-07
-2.8102e-07
-9.56327e-08
-3.06058e-08
-1.3358e-08
-1.217e-08
-7.85574e-09
-3.32585e-09
-1.45528e-09
-6.62807e-10
-3.11036e-10
-1.51521e-10
-7.67318e-11
-4.12586e-11
-2.44959e-11
-1.82202e-11
-1.84729e-11
-2.4913e-11
-4.00801e-11
-7.08033e-11
-1.33685e-10
-2.62608e-10
-5.48033e-10
-1.19887e-09
-2.79804e-09
-6.98537e-09
-1.75899e-08
-1.75273e-08
6.518e-08
-3.18032e-10
-3.77597e-09
-9.79173e-33
-5.62057e-32
-2.30197e-31
-8.91278e-31
-3.40843e-30
-1.29941e-29
-4.9549e-29
-1.89096e-28
-7.18516e-28
-2.75642e-27
-1.0488e-26
-3.97359e-26
-1.49834e-25
-5.67779e-25
-2.15015e-24
-8.0563e-24
-3.00907e-23
-1.1205e-22
-4.15089e-22
-1.53017e-21
-5.6063e-21
-2.03513e-20
-7.42552e-20
-2.66828e-19
-9.52671e-19
-3.37667e-18
-1.19406e-17
-4.1236e-17
-1.47942e-16
-5.11235e-16
-1.72468e-15
-5.96055e-15
-2.02715e-14
-6.77339e-14
-2.25664e-13
-7.29896e-13
-2.32619e-12
-7.35592e-12
-2.41075e-11
-7.80713e-11
-2.37158e-10
-7.16053e-10
-2.12145e-09
-6.30351e-09
-1.88344e-08
-5.36769e-08
-1.38859e-07
-3.10236e-07
-5.6274e-07
-7.96375e-07
-8.8101e-07
-7.6104e-07
-3.01832e-07
8.14685e-07
3.84995e-06
1.15784e-05
3.19883e-05
8.59126e-05
0.000214058
0.000491109
0.0009895
0.00137257
0.000109651
-0.00140965
-0.000646731
-0.000184814
-4.75019e-05
-1.20137e-05
-3.16901e-06
-9.10993e-07
-2.92682e-07
-9.96911e-08
-3.18769e-08
-1.36107e-08
-1.22828e-08
-8.072e-09
-3.41894e-09
-1.49505e-09
-6.80421e-10
-3.18823e-10
-1.55181e-10
-7.85249e-11
-4.219e-11
-2.5018e-11
-1.85817e-11
-1.88117e-11
-2.53413e-11
-4.07427e-11
-7.19454e-11
-1.35859e-10
-2.66889e-10
-5.5701e-10
-1.2184e-09
-2.84334e-09
-7.09843e-09
-1.78728e-08
-1.77484e-08
6.61935e-08
-3.28454e-10
-3.83394e-09
-1.0604e-32
-6.27042e-32
-2.58125e-31
-9.96954e-31
-3.81062e-30
-1.45378e-29
-5.55101e-29
-2.1207e-28
-8.12239e-28
-3.10171e-27
-1.18002e-26
-4.47178e-26
-1.68251e-25
-6.40552e-25
-2.39879e-24
-8.95095e-24
-3.29231e-23
-1.25743e-22
-4.64074e-22
-1.7138e-21
-6.27684e-21
-2.28545e-20
-8.27574e-20
-2.97125e-19
-1.05777e-18
-3.7277e-18
-1.29907e-17
-4.50867e-17
-1.57426e-16
-5.66721e-16
-1.91747e-15
-6.57691e-15
-2.20278e-14
-7.41178e-14
-2.42046e-13
-7.78032e-13
-2.46246e-12
-7.79134e-12
-2.55348e-11
-8.33067e-11
-2.54512e-10
-7.7334e-10
-2.27922e-09
-6.82864e-09
-1.99195e-08
-5.65016e-08
-1.44897e-07
-3.18896e-07
-5.70962e-07
-7.99396e-07
-8.78605e-07
-7.55928e-07
-2.96736e-07
8.04243e-07
3.89877e-06
1.15981e-05
3.17653e-05
8.4859e-05
0.000210926
0.000483302
0.000976515
0.0013688
0.000164634
-0.00140778
-0.00066769
-0.0001922
-4.95522e-05
-1.25476e-05
-3.30929e-06
-9.48285e-07
-3.0387e-07
-1.03496e-07
-3.30979e-08
-1.38524e-08
-1.23719e-08
-8.29504e-09
-3.5181e-09
-1.53602e-09
-6.9823e-10
-3.26615e-10
-1.589e-10
-8.03586e-11
-4.31386e-11
-2.55319e-11
-1.89261e-11
-1.91219e-11
-2.57243e-11
-4.13311e-11
-7.29624e-11
-1.37778e-10
-2.70566e-10
-5.64683e-10
-1.23512e-09
-2.88246e-09
-7.19671e-09
-1.81289e-08
-1.81672e-08
6.73251e-08
-3.15096e-10
-3.8958e-09
-1.11593e-32
-7.06899e-32
-2.87935e-31
-1.11264e-30
-4.26149e-30
-1.63066e-29
-6.23683e-29
-2.37674e-28
-9.043e-28
-3.43664e-27
-1.30251e-26
-4.90226e-26
-1.88442e-25
-7.09097e-25
-2.65518e-24
-9.76231e-24
-3.71932e-23
-1.37517e-22
-5.07356e-22
-1.85667e-21
-6.74051e-21
-2.43629e-20
-8.93404e-20
-3.19511e-19
-1.13641e-18
-4.00139e-18
-1.42636e-17
-4.98007e-17
-1.72667e-16
-5.97007e-16
-2.04473e-15
-7.02143e-15
-2.35523e-14
-7.79665e-14
-2.55344e-13
-8.20142e-13
-2.61678e-12
-8.1505e-12
-2.72413e-11
-8.79361e-11
-2.64846e-10
-7.96581e-10
-2.40589e-09
-7.19106e-09
-2.08469e-08
-5.87278e-08
-1.4897e-07
-3.24746e-07
-5.76117e-07
-8.00642e-07
-8.7653e-07
-7.52693e-07
-2.95459e-07
7.92979e-07
3.92892e-06
1.15963e-05
3.15326e-05
8.39388e-05
0.000208168
0.000475806
0.000962118
0.00136594
0.000218042
-0.00140403
-0.000688139
-0.000199437
-5.16356e-05
-1.30696e-05
-3.44306e-06
-9.83952e-07
-3.1436e-07
-1.07178e-07
-3.42951e-08
-1.40887e-08
-1.24466e-08
-8.50275e-09
-3.61164e-09
-1.57493e-09
-7.15543e-10
-3.34259e-10
-1.62486e-10
-8.21083e-11
-4.40374e-11
-2.60195e-11
-1.92461e-11
-1.94026e-11
-2.60636e-11
-4.18463e-11
-7.38463e-11
-1.39458e-10
-2.73804e-10
-5.71496e-10
-1.24967e-09
-2.91564e-09
-7.27832e-09
-1.83421e-08
-1.86744e-08
6.84731e-08
-2.81795e-10
-3.95494e-09
-1.34516e-32
-7.65129e-32
-3.13499e-31
-1.21402e-30
-4.64086e-30
-1.7709e-29
-6.80473e-29
-2.58147e-28
-9.75753e-28
-3.72338e-27
-1.4236e-26
-5.37523e-26
-2.02635e-25
-7.63072e-25
-2.86843e-24
-1.06691e-23
-3.92764e-23
-1.48212e-22
-5.44053e-22
-1.99717e-21
-7.32606e-21
-2.65979e-20
-9.60492e-20
-3.44065e-19
-1.22002e-18
-4.27715e-18
-1.5043e-17
-5.22077e-17
-1.8082e-16
-6.35602e-16
-2.18046e-15
-7.45666e-15
-2.46732e-14
-8.14085e-14
-2.61693e-13
-8.33838e-13
-2.74135e-12
-8.50931e-12
-2.82337e-11
-8.84189e-11
-2.83365e-10
-8.48521e-10
-2.54166e-09
-7.38748e-09
-2.15413e-08
-6.0302e-08
-1.5201e-07
-3.29132e-07
-5.79961e-07
-8.01523e-07
-8.74502e-07
-7.50217e-07
-2.95426e-07
7.82922e-07
3.94046e-06
1.15627e-05
3.12339e-05
8.29199e-05
0.000205172
0.000469033
0.000949418
0.00136226
0.000269371
-0.00140026
-0.000707805
-0.000206419
-5.36135e-05
-1.35889e-05
-3.57285e-06
-1.0193e-06
-3.24628e-07
-1.1069e-07
-3.54401e-08
-1.4321e-08
-1.2511e-08
-8.69448e-09
-3.69927e-09
-1.61167e-09
-7.3157e-10
-3.41252e-10
-1.65759e-10
-8.3698e-11
-4.48492e-11
-2.64534e-11
-1.95277e-11
-1.96449e-11
-2.63508e-11
-4.22758e-11
-7.4575e-11
-1.40836e-10
-2.76424e-10
-5.77006e-10
-1.26133e-09
-2.94207e-09
-7.3431e-09
-1.85167e-08
-1.92029e-08
6.95339e-08
-2.41271e-10
-4.00872e-09
-1.44272e-32
-8.2138e-32
-3.36717e-31
-1.30456e-30
-5.00553e-30
-1.90901e-29
-7.27337e-29
-2.76762e-28
-1.05041e-27
-3.97207e-27
-1.50383e-26
-5.71701e-26
-2.15709e-25
-8.12809e-25
-3.05494e-24
-1.13903e-23
-4.19591e-23
-1.5691e-22
-5.74162e-22
-2.10082e-21
-7.7309e-21
-2.80415e-20
-1.01252e-19
-3.62272e-19
-1.2802e-18
-4.47975e-18
-1.57951e-17
-5.45987e-17
-1.86578e-16
-6.567e-16
-2.22319e-15
-7.6004e-15
-2.55948e-14
-8.45086e-14
-2.75835e-13
-8.94996e-13
-2.85915e-12
-9.27288e-12
-3.00051e-11
-9.56512e-11
-2.91558e-10
-8.68744e-10
-2.60624e-09
-7.53329e-09
-2.20561e-08
-6.15029e-08
-1.54246e-07
-3.32192e-07
-5.82334e-07
-8.01727e-07
-8.7312e-07
-7.48745e-07
-2.95968e-07
7.74119e-07
3.94367e-06
1.15208e-05
3.09553e-05
8.19231e-05
0.000202494
0.000462668
0.000938569
0.00135926
0.000311447
-0.00139521
-0.000724129
-0.000212388
-5.53265e-05
-1.4035e-05
-3.69115e-06
-1.05128e-06
-3.33904e-07
-1.13864e-07
-3.64819e-08
-1.45367e-08
-1.25647e-08
-8.85829e-09
-3.77529e-09
-1.64323e-09
-7.45339e-10
-3.47255e-10
-1.68562e-10
-8.50483e-11
-4.55399e-11
-2.68208e-11
-1.97641e-11
-1.98459e-11
-2.65863e-11
-4.26257e-11
-7.51661e-11
-1.41956e-10
-2.78548e-10
-5.81458e-10
-1.27069e-09
-2.96312e-09
-7.39435e-09
-1.86565e-08
-1.96906e-08
7.04723e-08
-1.98031e-10
-4.05493e-09
-1.43261e-32
-8.58145e-32
-3.52407e-31
-1.36581e-30
-5.23292e-30
-2.00125e-29
-7.64979e-29
-2.91695e-28
-1.10616e-27
-4.17422e-27
-1.59063e-26
-5.99721e-26
-2.25965e-25
-8.50248e-25
-3.18894e-24
-1.19168e-23
-4.47234e-23
-1.65154e-22
-6.05961e-22
-2.21397e-21
-8.12728e-21
-2.91801e-20
-1.06119e-19
-3.78003e-19
-1.33942e-18
-4.70949e-18
-1.64117e-17
-5.75932e-17
-1.97183e-16
-6.77839e-16
-2.32186e-15
-8.02759e-15
-2.66873e-14
-8.7945e-14
-2.86801e-13
-9.34004e-13
-2.99972e-12
-9.51531e-12
-3.05526e-11
-9.53519e-11
-2.9291e-10
-8.80435e-10
-2.56063e-09
-7.64609e-09
-2.24944e-08
-6.24063e-08
-1.55921e-07
-3.34486e-07
-5.84117e-07
-8.01836e-07
-8.72003e-07
-7.47649e-07
-2.9647e-07
7.67477e-07
3.94194e-06
1.14798e-05
3.07182e-05
8.11874e-05
0.000200529
0.00045806
0.000930174
0.00135569
0.000345882
-0.00138952
-0.000739037
-0.000217689
-5.68172e-05
-1.44174e-05
-3.79178e-06
-1.07777e-06
-3.41519e-07
-1.16412e-07
-3.73151e-08
-1.47142e-08
-1.26033e-08
-8.98601e-09
-3.83562e-09
-1.66825e-09
-7.56254e-10
-3.52018e-10
-1.70791e-10
-8.6134e-11
-4.60907e-11
-2.71117e-11
-1.99495e-11
-2.00016e-11
-2.67664e-11
-4.28907e-11
-7.56107e-11
-1.42795e-10
-2.80127e-10
-5.84781e-10
-1.27765e-09
-2.97881e-09
-7.43303e-09
-1.87633e-08
-2.01019e-08
7.12259e-08
-1.60164e-10
-4.09188e-09
-1.53284e-32
-8.76761e-32
-3.58812e-31
-1.41126e-30
-5.39489e-30
-2.0602e-29
-7.86356e-29
-3.00133e-28
-1.14363e-27
-4.34022e-27
-1.64353e-26
-6.21283e-26
-2.34675e-25
-8.86457e-25
-3.34078e-24
-1.24781e-23
-4.63852e-23
-1.71567e-22
-6.3101e-22
-2.30688e-21
-8.38292e-21
-3.02505e-20
-1.08465e-19
-3.8631e-19
-1.37904e-18
-4.86255e-18
-1.70728e-17
-5.89655e-17
-2.07042e-16
-7.05445e-16
-2.39119e-15
-7.98651e-15
-2.72089e-14
-8.94183e-14
-2.96398e-13
-9.63755e-13
-3.0547e-12
-9.45121e-12
-3.01687e-11
-9.73375e-11
-2.90016e-10
-8.72531e-10
-2.58401e-09
-7.71963e-09
-2.2803e-08
-6.30501e-08
-1.57096e-07
-3.36082e-07
-5.85365e-07
-8.01871e-07
-8.71163e-07
-7.46833e-07
-2.96706e-07
7.63026e-07
3.9399e-06
1.14502e-05
3.05556e-05
8.06602e-05
0.000199107
0.000454746
0.000924256
0.00135345
0.000369199
-0.00138529
-0.000748942
-0.00022128
-5.78418e-05
-1.46814e-05
-3.86063e-06
-1.09574e-06
-3.46637e-07
-1.18178e-07
-3.79014e-08
-1.48358e-08
-1.26281e-08
-9.0751e-09
-3.87823e-09
-1.6859e-09
-7.63941e-10
-3.55366e-10
-1.72353e-10
-8.68894e-11
-4.64745e-11
-2.73142e-11
-2.00782e-11
-2.01092e-11
-2.68906e-11
-4.30731e-11
-7.5917e-11
-1.43375e-10
-2.81219e-10
-5.8709e-10
-1.28246e-09
-2.9896e-09
-7.45919e-09
-1.88361e-08
-2.03992e-08
7.17625e-08
-1.31247e-10
-4.11787e-09
-1.54718e-32
-9.05287e-32
-3.69544e-31
-1.43268e-30
-5.50285e-30
-2.11195e-29
-8.07075e-29
-3.08073e-28
-1.17483e-27
-4.47096e-27
-1.69585e-26
-6.41351e-26
-2.41842e-25
-9.09912e-25
-3.41998e-24
-1.27585e-23
-4.73474e-23
-1.74874e-22
-6.39495e-22
-2.32554e-21
-8.454e-21
-3.0508e-20
-1.1071e-19
-3.91489e-19
-1.40682e-18
-4.93506e-18
-1.73447e-17
-6.08721e-17
-2.10043e-16
-7.19092e-16
-2.43276e-15
-8.3761e-15
-2.7593e-14
-9.05757e-14
-2.99612e-13
-9.57146e-13
-3.08673e-12
-9.58073e-12
-3.17844e-11
-9.95697e-11
-2.99232e-10
-8.8811e-10
-2.60056e-09
-7.85091e-09
-2.29535e-08
-6.34499e-08
-1.5787e-07
-3.37126e-07
-5.86147e-07
-8.01879e-07
-8.70641e-07
-7.46311e-07
-2.96696e-07
7.60898e-07
3.94032e-06
1.14375e-05
3.04767e-05
8.03986e-05
0.000198381
0.00045301
0.000921105
0.00135231
0.000381236
-0.0013828
-0.000754074
-0.000223168
-5.83799e-05
-1.48214e-05
-3.89729e-06
-1.10545e-06
-3.49491e-07
-1.19127e-07
-3.82167e-08
-1.49009e-08
-1.26403e-08
-9.12184e-09
-3.9008e-09
-1.69523e-09
-7.68004e-10
-3.57138e-10
-1.73182e-10
-8.72912e-11
-4.66792e-11
-2.74218e-11
-2.01463e-11
-2.01657e-11
-2.69552e-11
-4.31677e-11
-7.60756e-11
-1.43675e-10
-2.81784e-10
-5.88292e-10
-1.28497e-09
-2.9952e-09
-7.4728e-09
-1.88747e-08
-2.05617e-08
7.20464e-08
-1.15972e-10
-4.13183e-09
-1.57999e-32
-9.16494e-32
-3.75432e-31
-1.45646e-30
-5.58221e-30
-2.13278e-29
-8.13804e-29
-3.10549e-28
-1.18446e-27
-4.53994e-27
-1.72135e-26
-6.50672e-26
-2.44262e-25
-8.95892e-25
-3.49454e-24
-1.29461e-23
-4.80043e-23
-1.77302e-22
-6.52298e-22
-2.38825e-21
-8.69503e-21
-3.14377e-20
-1.1292e-19
-4.01944e-19
-1.41012e-18
-5.05332e-18
-1.76492e-17
-6.16996e-17
-2.15891e-16
-7.43293e-16
-2.51425e-15
-8.49863e-15
-2.80414e-14
-9.4185e-14
-3.05497e-13
-9.69798e-13
-3.13232e-12
-9.73892e-12
-3.18267e-11
-9.82019e-11
-3.03491e-10
-9.00205e-10
-2.65036e-09
-7.87442e-09
-2.30529e-08
-6.36932e-08
-1.58333e-07
-3.37776e-07
-5.86695e-07
-8.02e-07
-8.70384e-07
-7.45909e-07
-2.96276e-07
7.60891e-07
3.94481e-06
1.14415e-05
3.04674e-05
8.03479e-05
0.000198224
0.000452622
0.000920392
0.00135199
0.000383772
-0.00138227
-0.000755141
-0.000223557
-5.84887e-05
-1.4849e-05
-3.90444e-06
-1.10728e-06
-3.50004e-07
-1.19295e-07
-3.82691e-08
-1.49121e-08
-1.2642e-08
-9.12896e-09
-3.90421e-09
-1.69662e-09
-7.68598e-10
-3.57393e-10
-1.73299e-10
-8.73468e-11
-4.67068e-11
-2.74358e-11
-2.01547e-11
-2.01722e-11
-2.69624e-11
-4.31784e-11
-7.6094e-11
-1.43711e-10
-2.81855e-10
-5.88448e-10
-1.28531e-09
-2.99598e-09
-7.47482e-09
-1.888e-08
-2.0578e-08
7.20884e-08
-1.13465e-10
-4.13353e-09
-1.57645e-32
-9.18745e-32
-3.79252e-31
-1.47151e-30
-5.65141e-30
-2.16407e-29
-8.27208e-29
-3.15632e-28
-1.202e-27
-4.56766e-27
-1.73216e-26
-6.55371e-26
-2.46843e-25
-9.19978e-25
-3.51386e-24
-1.30628e-23
-4.83725e-23
-1.76023e-22
-6.62339e-22
-2.4099e-21
-8.81782e-21
-3.19038e-20
-1.14875e-19
-4.10946e-19
-1.45521e-18
-5.11095e-18
-1.78338e-17
-6.27907e-17
-2.17078e-16
-7.45403e-16
-2.54048e-15
-8.51821e-15
-2.86508e-14
-9.3814e-14
-3.08011e-13
-9.84859e-13
-3.15853e-12
-9.91039e-12
-3.2079e-11
-1.00616e-10
-3.04163e-10
-8.97561e-10
-2.67498e-09
-7.91364e-09
-2.30434e-08
-6.38015e-08
-1.58538e-07
-3.38106e-07
-5.87066e-07
-8.02231e-07
-8.70368e-07
-7.45557e-07
-2.95139e-07
7.63908e-07
3.95601e-06
1.14704e-05
3.05574e-05
8.05884e-05
0.000198813
0.000453935
0.000922666
0.00135265
0.00037442
-0.00138401
-0.000751165
-0.000222114
-5.80776e-05
-1.47428e-05
-3.87686e-06
-1.1e-06
-3.47844e-07
-1.18578e-07
-3.80295e-08
-1.48603e-08
-1.26307e-08
-9.0935e-09
-3.88713e-09
-1.68953e-09
-7.65505e-10
-3.56043e-10
-1.72667e-10
-8.70399e-11
-4.65501e-11
-2.7353e-11
-2.01019e-11
-2.01279e-11
-2.69115e-11
-4.31042e-11
-7.59707e-11
-1.4348e-10
-2.81425e-10
-5.87542e-10
-1.28345e-09
-2.9919e-09
-7.465e-09
-1.88526e-08
-2.04479e-08
7.18623e-08
-1.27415e-10
-4.12284e-09
-1.60434e-32
-9.12162e-32
-3.74583e-31
-1.4572e-30
-5.60876e-30
-2.15204e-29
-8.23285e-29
-3.13951e-28
-1.19318e-27
-4.51906e-27
-1.70584e-26
-6.42324e-26
-2.41692e-25
-9.10002e-25
-3.42129e-24
-1.27449e-23
-4.69396e-23
-1.74263e-22
-6.49174e-22
-2.37433e-21
-8.55385e-21
-3.15068e-20
-1.12608e-19
-4.0766e-19
-1.43695e-18
-5.02011e-18
-1.74576e-17
-6.18425e-17
-2.12404e-16
-7.30954e-16
-2.48378e-15
-8.28771e-15
-2.86302e-14
-9.2901e-14
-2.97048e-13
-9.42278e-13
-3.07494e-12
-9.33597e-12
-3.09925e-11
-9.99702e-11
-2.98101e-10
-8.94609e-10
-2.62141e-09
-7.91292e-09
-2.3037e-08
-6.37259e-08
-1.58435e-07
-3.38061e-07
-5.87219e-07
-8.02563e-07
-8.70599e-07
-7.45287e-07
-2.93401e-07
7.698e-07
3.97408e-06
1.15247e-05
3.07467e-05
8.11148e-05
0.000200121
0.000456857
0.000927752
0.00135409
0.000353564
-0.00138764
-0.000742409
-0.000218951
-5.71823e-05
-1.45121e-05
-3.81683e-06
-1.08418e-06
-3.43278e-07
-1.17021e-07
-3.75157e-08
-1.47495e-08
-1.26066e-08
-9.01682e-09
-3.85039e-09
-1.67429e-09
-7.58855e-10
-3.53142e-10
-1.71309e-10
-8.63795e-11
-4.62137e-11
-2.71758e-11
-1.99894e-11
-2.00345e-11
-2.68047e-11
-4.29485e-11
-7.57114e-11
-1.42991e-10
-2.80512e-10
-5.85619e-10
-1.27948e-09
-2.98313e-09
-7.44378e-09
-1.87929e-08
-2.0171e-08
7.13926e-08
-1.54573e-10
-4.10004e-09
-1.58377e-32
-8.99989e-32
-3.69324e-31
-1.43425e-30
-5.50328e-30
-2.10477e-29
-8.03581e-29
-3.06223e-28
-1.16398e-27
-4.41515e-27
-1.67142e-26
-6.31293e-26
-2.37853e-25
-8.94333e-25
-3.34803e-24
-1.24115e-23
-4.6816e-23
-1.72722e-22
-6.35887e-22
-2.33049e-21
-8.51803e-21
-3.10943e-20
-1.11862e-19
-3.99246e-19
-1.41419e-18
-4.97461e-18
-1.73757e-17
-6.03273e-17
-2.11504e-16
-7.2405e-16
-2.46195e-15
-8.24261e-15
-2.78688e-14
-9.1596e-14
-2.99611e-13
-9.6896e-13
-3.07331e-12
-9.41645e-12
-3.09501e-11
-9.95775e-11
-2.98127e-10
-8.78664e-10
-2.60883e-09
-7.91636e-09
-2.29281e-08
-6.34863e-08
-1.58063e-07
-3.377e-07
-5.87218e-07
-8.03038e-07
-8.71078e-07
-7.45023e-07
-2.90785e-07
7.79197e-07
4.00084e-06
1.16092e-05
3.10499e-05
8.19702e-05
0.000202264
0.000461644
0.000935959
0.00135607
0.000319681
-0.00139235
-0.000728539
-0.000214015
-5.5793e-05
-1.41556e-05
-3.72428e-06
-1.05976e-06
-3.3626e-07
-1.14652e-07
-3.67268e-08
-1.45806e-08
-1.25672e-08
-8.89962e-09
-3.795e-09
-1.65133e-09
-7.48844e-10
-3.48779e-10
-1.6927e-10
-8.53922e-11
-4.57122e-11
-2.69114e-11
-1.98216e-11
-1.9895e-11
-2.66452e-11
-4.27162e-11
-7.53246e-11
-1.42262e-10
-2.79153e-10
-5.82755e-10
-1.27355e-09
-2.96996e-09
-7.41194e-09
-1.8703e-08
-1.97624e-08
7.06923e-08
-1.93871e-10