/*--------------------------------*- C++ -*----------------------------------*\
  =========                 |
  \\      /  F ield         | OpenFOAM: The Open Source CFD Toolbox
   \\    /   O peration     | Website:  https://openfoam.org
    \\  /    A nd           | Version:  10
     \\/     M anipulation  |
\*---------------------------------------------------------------------------*/
FoamFile
{
    format      ascii;
    class       volScalarField;
    location    "1";
    object      RR.C12OOH;
}
// * * * * * * * * * * * * * * * * * * * * * * * * * * * * * * * * * * * * * //

dimensions      [1 -3 -1 0 0 0 0];

internalField   nonuniform List<scalar> 
4000
(
-1.12244e-34
-4.84609e-34
-1.92354e-33
-6.94804e-33
-2.45518e-32
-8.30726e-32
-2.70294e-31
-8.56832e-31
-2.68071e-30
-8.43992e-30
-2.74451e-29
-8.72315e-29
-2.75077e-28
-8.72904e-28
-2.80265e-27
-9.0845e-27
-2.92707e-26
-1.01352e-25
-3.4007e-25
-1.16144e-24
-4.00167e-24
-1.39362e-23
-4.95807e-23
-1.75971e-22
-6.32826e-22
-2.27207e-21
-7.95916e-21
-2.96106e-20
-1.05428e-19
-3.77126e-19
-1.35137e-18
-4.83295e-18
-1.71309e-17
-6.05471e-17
-2.14346e-16
-7.2126e-16
-2.56817e-15
-8.86389e-15
-3.07713e-14
-1.05915e-13
-3.49006e-13
-1.14031e-12
-3.59741e-12
-1.11369e-11
-3.36129e-11
-1.05047e-10
-3.25435e-10
-9.25933e-10
-2.27566e-09
-4.5124e-09
-6.95588e-09
-8.98144e-09
-1.2459e-08
-2.65164e-08
-7.49971e-08
-2.18294e-07
-5.94731e-07
-1.40892e-06
-2.40496e-06
-7.24654e-07
1.38665e-05
4.69708e-05
2.38718e-05
-3.48665e-05
-1.70943e-05
-5.54972e-06
-1.60214e-06
-4.5411e-07
-1.34944e-07
-4.45957e-08
-1.70796e-08
-4.59009e-09
5.6096e-10
-5.79901e-10
-3.52779e-09
-2.51322e-09
-1.07405e-09
-4.76604e-10
-2.19593e-10
-1.043e-10
-5.11307e-11
-2.58064e-11
-1.34527e-11
-7.33618e-12
-4.33026e-12
-2.99146e-12
-2.69852e-12
-3.33229e-12
-5.19871e-12
-9.24061e-12
-1.77064e-11
-3.65928e-11
-7.84298e-11
-1.79352e-10
-4.39567e-10
-1.09299e-09
-1.91096e-09
5.91014e-09
-9.13661e-10
-6.05683e-10
-1.06691e-34
-5.64381e-34
-2.00215e-33
-6.74191e-33
-2.23358e-32
-7.269e-32
-2.3186e-31
-7.33747e-31
-2.21972e-30
-6.68796e-30
-2.03464e-29
-6.29944e-29
-1.98851e-28
-6.41942e-28
-2.1234e-27
-7.18769e-27
-2.47955e-26
-8.73138e-26
-3.12009e-25
-1.12495e-24
-4.09613e-24
-1.50949e-23
-5.55554e-23
-2.04952e-22
-7.58936e-22
-2.79104e-21
-1.02588e-20
-3.76233e-20
-1.36886e-19
-4.92903e-19
-1.80003e-18
-6.72262e-18
-2.41279e-17
-8.46109e-17
-2.96486e-16
-1.04536e-15
-3.58248e-15
-1.25736e-14
-4.18701e-14
-1.4121e-13
-4.70154e-13
-1.51062e-12
-4.8055e-12
-1.47138e-11
-4.68057e-11
-1.45946e-10
-4.39054e-10
-1.19225e-09
-2.76853e-09
-5.14937e-09
-7.25081e-09
-8.92336e-09
-1.32118e-08
-2.94611e-08
-8.71703e-08
-2.39705e-07
-6.10579e-07
-1.41086e-06
-2.2742e-06
-4.29286e-07
1.39664e-05
4.61921e-05
2.46564e-05
-3.44632e-05
-1.75715e-05
-5.80805e-06
-1.69982e-06
-4.8192e-07
-1.42961e-07
-4.71583e-08
-1.8076e-08
-5.04185e-09
5.36777e-10
-4.37071e-10
-3.5543e-09
-2.62803e-09
-1.12024e-09
-4.9543e-10
-2.27595e-10
-1.07822e-10
-5.26917e-11
-2.65416e-11
-1.38193e-11
-7.52365e-12
-4.43465e-12
-3.06444e-12
-2.77243e-12
-3.43945e-12
-5.39426e-12
-9.61852e-12
-1.8485e-11
-3.8306e-11
-8.23647e-11
-1.88968e-10
-4.64729e-10
-1.14288e-09
-1.76399e-09
5.88662e-09
-1.00993e-09
-5.90609e-10
-4.65647e-35
-2.4903e-34
-8.65734e-34
-2.71361e-33
-8.21502e-33
-2.44573e-32
-7.20027e-32
-2.13864e-31
-6.60762e-31
-2.18147e-30
-7.5048e-30
-2.67748e-29
-9.82911e-29
-3.67373e-28
-1.39084e-27
-5.31458e-27
-2.04597e-26
-7.92226e-26
-3.07291e-25
-1.18924e-24
-4.59829e-24
-1.76844e-23
-6.75895e-23
-2.56161e-22
-9.62196e-22
-3.59352e-21
-1.3384e-20
-5.02576e-20
-1.83543e-19
-6.62041e-19
-2.49338e-18
-8.91533e-18
-3.12435e-17
-1.11393e-16
-3.96451e-16
-1.3747e-15
-4.68651e-15
-1.59369e-14
-5.4019e-14
-1.77195e-13
-5.81577e-13
-1.7967e-12
-5.9646e-12
-1.81923e-11
-5.87289e-11
-1.79559e-10
-5.33619e-10
-1.40431e-09
-3.09277e-09
-5.51025e-09
-7.4972e-09
-9.35095e-09
-1.48196e-08
-3.28785e-08
-8.56184e-08
-2.3511e-07
-6.20422e-07
-1.42282e-06
-2.2646e-06
-3.02382e-07
1.40897e-05
4.55682e-05
2.48118e-05
-3.39132e-05
-1.78766e-05
-5.99956e-06
-1.77786e-06
-5.0891e-07
-1.51273e-07
-4.95789e-08
-1.89251e-08
-5.46726e-09
5.19018e-10
-2.79867e-10
-3.57705e-09
-2.76343e-09
-1.1755e-09
-5.18107e-10
-2.37346e-10
-1.12191e-10
-5.47822e-11
-2.75469e-11
-1.43138e-11
-7.77205e-12
-4.57648e-12
-3.16571e-12
-2.87526e-12
-3.58646e-12
-5.64332e-12
-1.01058e-11
-1.94584e-11
-4.03614e-11
-8.69019e-11
-1.9984e-10
-4.91889e-10
-1.18856e-09
-1.51253e-09
5.78336e-09
-1.07425e-09
-5.69817e-10
-1.56819e-35
-8.38382e-35
-3.04594e-34
-1.01225e-33
-3.30387e-33
-1.09328e-32
-3.72864e-32
-1.37588e-31
-5.12946e-31
-1.94397e-30
-7.63869e-30
-2.98462e-29
-1.19374e-28
-4.68906e-28
-1.84409e-27
-7.23919e-27
-2.83387e-26
-1.10513e-25
-4.28773e-25
-1.65656e-24
-6.37244e-24
-2.43863e-23
-9.27161e-23
-3.49625e-22
-1.3345e-21
-4.9738e-21
-1.84498e-20
-6.78833e-20
-2.43092e-19
-9.09559e-19
-3.26502e-18
-1.16716e-17
-4.11401e-17
-1.4531e-16
-5.11966e-16
-1.76276e-15
-5.93661e-15
-2.02781e-14
-6.76516e-14
-2.21814e-13
-7.23606e-13
-2.2635e-12
-7.35144e-12
-2.24953e-11
-6.86082e-11
-2.15417e-10
-6.25057e-10
-1.59294e-09
-3.44107e-09
-5.61418e-09
-7.62172e-09
-9.93668e-09
-1.59732e-08
-3.62807e-08
-9.4358e-08
-2.47083e-07
-6.45577e-07
-1.44556e-06
-2.22533e-06
-1.54945e-07
1.41242e-05
4.50127e-05
2.53296e-05
-3.35467e-05
-1.81878e-05
-6.17481e-06
-1.85288e-06
-5.3447e-07
-1.59077e-07
-5.19175e-08
-1.98159e-08
-5.91642e-09
4.97606e-10
-1.37758e-10
-3.58823e-09
-2.87466e-09
-1.22469e-09
-5.40046e-10
-2.47448e-10
-1.16949e-10
-5.70349e-11
-2.86514e-11
-1.49094e-11
-7.97961e-12
-4.70836e-12
-3.26579e-12
-2.97746e-12
-3.7264e-12
-5.87668e-12
-1.06433e-11
-2.04928e-11
-4.25117e-11
-9.18307e-11
-2.11801e-10
-5.2192e-10
-1.2339e-09
-1.18595e-09
5.50523e-09
-1.10349e-09
-5.46587e-10
-1.11793e-35
-6.17973e-35
-2.4223e-34
-8.94723e-34
-3.29039e-33
-1.22361e-32
-4.614e-32
-1.75834e-31
-6.70973e-31
-2.66098e-30
-1.03764e-29
-4.08307e-29
-1.62766e-28
-6.36696e-28
-2.54546e-27
-9.93804e-27
-3.86393e-26
-1.53287e-25
-5.95052e-25
-2.29738e-24
-8.81784e-24
-3.35586e-23
-1.26835e-22
-4.76398e-22
-1.77943e-21
-6.59107e-21
-2.42633e-20
-9.01907e-20
-3.2688e-19
-1.17581e-18
-4.20722e-18
-1.53781e-17
-5.37094e-17
-1.88604e-16
-6.51481e-16
-2.23443e-15
-7.42078e-15
-2.4281e-14
-8.19953e-14
-2.70456e-13
-8.62757e-13
-2.73564e-12
-8.42378e-12
-2.66605e-11
-8.08682e-11
-2.49478e-10
-7.05422e-10
-1.79208e-09
-3.51174e-09
-5.69354e-09
-7.8697e-09
-1.03774e-08
-1.81357e-08
-4.12055e-08
-9.98233e-08
-2.61513e-07
-6.60293e-07
-1.44097e-06
-2.19491e-06
-5.27662e-08
1.42147e-05
4.46103e-05
2.54074e-05
-3.31563e-05
-1.83551e-05
-6.31087e-06
-1.91676e-06
-5.56222e-07
-1.65458e-07
-5.3855e-08
-2.05446e-08
-6.25075e-09
4.90759e-10
-5.5773e-12
-3.61575e-09
-3.00019e-09
-1.27582e-09
-5.61734e-10
-2.56927e-10
-1.21174e-10
-5.90232e-11
-2.96239e-11
-1.54074e-11
-8.24398e-12
-4.863e-12
-3.37746e-12
-3.09002e-12
-3.88413e-12
-6.14804e-12
-1.11612e-11
-2.15446e-11
-4.47552e-11
-9.69854e-11
-2.24408e-10
-5.53418e-10
-1.2836e-09
-8.50634e-10
5.24329e-09
-1.1222e-09
-5.27724e-10
-1.60279e-35
-9.31907e-35
-3.79286e-34
-1.46422e-33
-5.60336e-33
-2.14566e-32
-8.22954e-32
-3.16241e-31
-1.21602e-30
-4.6864e-30
-1.80019e-29
-6.86996e-29
-2.70091e-28
-1.03764e-27
-3.97345e-27
-1.54687e-26
-5.93134e-26
-2.27563e-25
-8.73931e-25
-3.29963e-24
-1.27085e-23
-4.74758e-23
-1.76084e-22
-6.49225e-22
-2.40827e-21
-9.00323e-21
-3.27045e-20
-1.17114e-19
-4.28921e-19
-1.51966e-18
-5.35535e-18
-1.95559e-17
-6.76685e-17
-2.33156e-16
-7.91778e-16
-2.68039e-15
-8.86875e-15
-2.87363e-14
-9.70838e-14
-3.31687e-13
-1.03285e-12
-3.1704e-12
-9.80605e-12
-3.07298e-11
-9.33488e-11
-2.80676e-10
-7.98686e-10
-1.85026e-09
-3.61993e-09
-5.94624e-09
-8.03714e-09
-1.05964e-08
-1.89428e-08
-4.35743e-08
-1.03419e-07
-2.65033e-07
-6.71877e-07
-1.44587e-06
-2.15283e-06
3.50759e-08
1.4218e-05
4.42179e-05
2.57127e-05
-3.28838e-05
-1.85881e-05
-6.43183e-06
-1.96446e-06
-5.73602e-07
-1.71319e-07
-5.56845e-08
-2.12025e-08
-6.56032e-09
4.69595e-10
8.76363e-11
-3.62986e-09
-3.09426e-09
-1.31583e-09
-5.78615e-10
-2.64411e-10
-1.24665e-10
-6.06868e-11
-3.04497e-11
-1.58293e-11
-8.47904e-12
-5.0065e-12
-3.48491e-12
-3.2012e-12
-4.04172e-12
-6.41938e-12
-1.16729e-11
-2.25881e-11
-4.69539e-11
-1.02036e-10
-2.3673e-10
-5.83901e-10
-1.33482e-09
-5.52211e-10
5.03362e-09
-1.1322e-09
-5.15905e-10
-2.47677e-35
-1.39483e-34
-5.7716e-34
-2.21443e-33
-8.35696e-33
-3.24238e-32
-1.23352e-31
-4.71563e-31
-1.80514e-30
-6.90751e-30
-2.64459e-29
-1.0125e-28
-3.8731e-28
-1.47963e-27
-5.662e-27
-2.17092e-26
-8.3198e-26
-3.15358e-25
-1.19411e-24
-4.555e-24
-1.70867e-23
-6.368e-23
-2.35829e-22
-8.6705e-22
-3.16038e-21
-1.14181e-20
-4.13483e-20
-1.45063e-19
-5.31388e-19
-1.91025e-18
-6.70976e-18
-2.34759e-17
-8.14062e-17
-2.8053e-16
-9.4322e-16
-3.20476e-15
-1.08934e-14
-3.5072e-14
-1.18772e-13
-3.83945e-13
-1.20473e-12
-3.74501e-12
-1.14793e-11
-3.43109e-11
-1.04543e-10
-3.10189e-10
-8.37877e-10
-1.85201e-09
-3.77509e-09
-6.09762e-09
-8.08983e-09
-1.07627e-08
-1.95707e-08
-4.51454e-08
-1.06996e-07
-2.70429e-07
-6.75898e-07
-1.44748e-06
-2.13129e-06
9.62833e-08
1.41671e-05
4.38143e-05
2.61227e-05
-3.26046e-05
-1.88222e-05
-6.55826e-06
-2.01311e-06
-5.90511e-07
-1.76492e-07
-5.72715e-08
-2.17762e-08
-6.82989e-09
4.46052e-10
1.78018e-10
-3.63357e-09
-3.18113e-09
-1.35388e-09
-5.94827e-10
-2.71646e-10
-1.27994e-10
-6.22794e-11
-3.12373e-11
-1.62338e-11
-8.70338e-12
-5.1433e-12
-3.58737e-12
-3.30698e-12
-4.19103e-12
-6.67549e-12
-1.21548e-11
-2.35688e-11
-4.90159e-11
-1.06765e-10
-2.48251e-10
-6.12325e-10
-1.38413e-09
-3.07624e-10
4.88704e-09
-1.14319e-09
-5.09681e-10
-3.52187e-35
-1.99865e-34
-8.19151e-34
-3.1732e-33
-1.21491e-32
-4.64148e-32
-1.77206e-31
-6.76359e-31
-2.58025e-30
-9.83659e-30
-3.74503e-29
-1.4261e-28
-5.4353e-28
-2.07128e-27
-7.85351e-27
-2.9784e-26
-1.12866e-25
-4.25445e-25
-1.59884e-24
-5.99389e-24
-2.23738e-23
-8.27798e-23
-3.04365e-22
-1.11158e-21
-4.03632e-21
-1.45785e-20
-5.22128e-20
-1.84081e-19
-6.396e-19
-2.23302e-18
-7.98501e-18
-2.83626e-17
-9.77031e-17
-3.32878e-16
-1.10941e-15
-3.7171e-15
-1.2489e-14
-3.9816e-14
-1.34441e-13
-4.36637e-13
-1.37584e-12
-4.19984e-12
-1.29971e-11
-3.89343e-11
-1.19051e-10
-3.47527e-10
-8.73801e-10
-1.98829e-09
-3.95256e-09
-6.24914e-09
-8.16993e-09
-1.0898e-08
-2.00997e-08
-4.63484e-08
-1.09021e-07
-2.74201e-07
-6.80289e-07
-1.44417e-06
-2.10647e-06
1.2302e-07
1.40154e-05
4.33546e-05
2.67783e-05
-3.23147e-05
-1.90704e-05
-6.70304e-06
-2.07101e-06
-6.09628e-07
-1.82186e-07
-5.89985e-08
-2.23923e-08
-7.12844e-09
4.00513e-10
2.67562e-10
-3.62348e-09
-3.27007e-09
-1.39214e-09
-6.11148e-10
-2.78935e-10
-1.31317e-10
-6.38683e-11
-3.20225e-11
-1.66368e-11
-8.92378e-12
-5.27626e-12
-3.68516e-12
-3.40553e-12
-4.32743e-12
-6.90675e-12
-1.25882e-11
-2.44457e-11
-5.08581e-11
-1.10966e-10
-2.58442e-10
-6.37482e-10
-1.42931e-09
-1.20993e-10
4.80015e-09
-1.15624e-09
-5.07944e-10
-4.5888e-35
-2.61527e-34
-1.07646e-33
-4.17417e-33
-1.59938e-32
-6.10253e-32
-2.32337e-31
-8.84143e-31
-3.36382e-30
-1.28606e-29
-4.87823e-29
-1.8462e-28
-6.98292e-28
-2.65647e-27
-1.00152e-26
-3.77165e-26
-1.41985e-25
-5.32013e-25
-1.97789e-24
-7.49966e-24
-2.77993e-23
-1.00586e-22
-3.76044e-22
-1.35798e-21
-4.91483e-21
-1.78506e-20
-6.38129e-20
-2.26438e-19
-7.9498e-19
-2.76252e-18
-9.4622e-18
-3.3185e-17
-1.13625e-16
-3.88437e-16
-1.30173e-15
-4.31603e-15
-1.41989e-14
-4.494e-14
-1.51107e-13
-4.89948e-13
-1.52123e-12
-4.7507e-12
-1.4521e-11
-4.40548e-11
-1.24897e-10
-3.37389e-10
-9.09846e-10
-2.12322e-09
-4.11204e-09
-6.35751e-09
-8.19364e-09
-1.10184e-08
-2.05405e-08
-4.7131e-08
-1.10261e-07
-2.76851e-07
-6.82577e-07
-1.43844e-06
-2.08456e-06
1.15355e-07
1.37287e-05
4.27111e-05
2.78798e-05
-3.18379e-05
-1.9552e-05
-6.91161e-06
-2.14624e-06
-6.32481e-07
-1.89231e-07
-6.1076e-08
-2.31557e-08
-7.52126e-09
3.25307e-10
3.61314e-10
-3.59825e-09
-3.36122e-09
-1.43191e-09
-6.28046e-10
-2.8652e-10
-1.34749e-10
-6.55076e-11
-3.28301e-11
-1.70496e-11
-9.14515e-12
-5.40733e-12
-3.7787e-12
-3.4961e-12
-4.44877e-12
-7.1087e-12
-1.29643e-11
-2.52001e-11
-5.24417e-11
-1.1455e-10
-2.6708e-10
-6.58688e-10
-1.46931e-09
8.86427e-12
4.76743e-09
-1.17148e-09
-5.09787e-10
-5.57101e-35
-3.27913e-34
-1.33319e-33
-5.13238e-33
-1.99307e-32
-7.59618e-32
-2.90281e-31
-1.10519e-30
-4.19913e-30
-1.59204e-29
-6.03392e-29
-2.29508e-28
-8.65751e-28
-3.26873e-27
-1.23362e-26
-4.56182e-26
-1.77398e-25
-6.59594e-25
-2.45304e-24
-9.0685e-24
-3.30991e-23
-1.23662e-22
-4.49513e-22
-1.62784e-21
-5.85841e-21
-2.10107e-20
-7.4985e-20
-2.64198e-19
-9.4381e-19
-3.29673e-18
-1.13616e-17
-3.86209e-17
-1.30228e-16
-4.37352e-16
-1.44697e-15
-4.75856e-15
-1.54147e-14
-4.93637e-14
-1.66739e-13
-5.32703e-13
-1.64141e-12
-5.079e-12
-1.55008e-11
-4.5155e-11
-1.26897e-10
-3.70291e-10
-9.76242e-10
-2.24283e-09
-4.26456e-09
-6.44312e-09
-8.23454e-09
-1.11236e-08
-2.06475e-08
-4.74064e-08
-1.11744e-07
-2.78806e-07
-6.81393e-07
-1.42797e-06
-2.06484e-06
8.50298e-08
1.34127e-05
4.20293e-05
2.9077e-05
-3.13189e-05
-2.00122e-05
-7.14112e-06
-2.2334e-06
-6.59154e-07
-1.96933e-07
-6.34465e-08
-2.37826e-08
-7.91559e-09
2.29903e-10
4.53228e-10
-3.54965e-09
-3.46131e-09
-1.47729e-09
-6.47246e-10
-2.94896e-10
-1.38438e-10
-6.72392e-11
-3.36717e-11
-1.74749e-11
-9.36763e-12
-5.53553e-12
-3.86737e-12
-3.5782e-12
-4.55458e-12
-7.28075e-12
-1.32824e-11
-2.58307e-11
-5.37611e-11
-1.17506e-10
-2.74141e-10
-6.76065e-10
-1.50356e-09
8.80211e-11
4.77998e-09
-1.18848e-09
-5.14365e-10
-6.70019e-35
-3.89678e-34
-1.5942e-33
-6.18021e-33
-2.36711e-32
-9.0306e-32
-3.44018e-31
-1.30816e-30
-4.95656e-30
-1.8793e-29
-7.24053e-29
-2.73405e-28
-1.03076e-27
-3.90719e-27
-1.47627e-26
-5.57787e-26
-2.08804e-25
-7.76709e-25
-2.86907e-24
-1.06386e-23
-3.84023e-23
-1.43788e-22
-5.20761e-22
-1.87817e-21
-6.62609e-21
-2.41139e-20
-8.49233e-20
-2.99822e-19
-1.06461e-18
-3.72022e-18
-1.28142e-17
-4.34863e-17
-1.45296e-16
-4.91196e-16
-1.60846e-15
-5.24857e-15
-1.70605e-14
-5.38087e-14
-1.8318e-13
-5.73363e-13
-1.76233e-12
-5.36083e-12
-1.59666e-11
-4.64511e-11
-1.39349e-10
-4.00397e-10
-1.04659e-09
-2.37453e-09
-4.41895e-09
-6.56975e-09
-8.36328e-09
-1.15922e-08
-2.21611e-08
-4.81716e-08
-1.13493e-07
-2.79376e-07
-6.77533e-07
-1.41398e-06
-2.04175e-06
2.43549e-08
1.29559e-05
4.13456e-05
3.04934e-05
-3.07126e-05
-2.05059e-05
-7.3745e-06
-2.31898e-06
-6.87136e-07
-2.05136e-07
-6.58296e-08
-2.45776e-08
-8.31565e-09
1.16882e-10
5.5082e-10
-3.49087e-09
-3.55603e-09
-1.52079e-09
-6.6537e-10
-3.02946e-10
-1.4201e-10
-6.89293e-11
-3.44968e-11
-1.78931e-11
-9.58494e-12
-5.6609e-12
-3.9508e-12
-3.65178e-12
-4.64557e-12
-7.42551e-12
-1.35479e-11
-2.63501e-11
-5.48438e-11
-1.19906e-10
-2.7983e-10
-6.90104e-10
-1.53276e-09
1.26785e-10
4.82724e-09
-1.20662e-09
-5.20897e-10
-7.79662e-35
-4.47503e-34
-1.83281e-33
-7.09629e-33
-2.71377e-32
-1.03459e-31
-3.94512e-31
-1.50557e-30
-5.72106e-30
-2.19467e-29
-8.35054e-29
-3.16376e-28
-1.19301e-27
-4.52079e-27
-1.71194e-26
-6.41445e-26
-2.39582e-25
-8.92151e-25
-3.30496e-24
-1.21833e-23
-4.46368e-23
-1.62018e-22
-5.9124e-22
-2.12448e-21
-7.58514e-21
-2.68855e-20
-9.50665e-20
-3.28199e-19
-1.17805e-18
-4.07033e-18
-1.37266e-17
-4.74671e-17
-1.61405e-16
-5.3933e-16
-1.7967e-15
-5.81133e-15
-1.85212e-14
-5.85772e-14
-1.91968e-13
-6.21585e-13
-1.88836e-12
-5.7016e-12
-1.68942e-11
-5.01892e-11
-1.50009e-10
-4.27712e-10
-1.10783e-09
-2.48331e-09
-4.55101e-09
-6.67731e-09
-8.471e-09
-1.18001e-08
-2.13775e-08
-4.70244e-08
-1.14872e-07
-2.79051e-07
-6.71726e-07
-1.39881e-06
-2.02946e-06
-3.46648e-08
1.2548e-05
4.05568e-05
3.1865e-05
-3.00812e-05
-2.10572e-05
-7.62679e-06
-2.40809e-06
-7.15355e-07
-2.13637e-07
-6.82679e-08
-2.54843e-08
-8.77347e-09
-1.34336e-11
6.4197e-10
-3.42102e-09
-3.64443e-09
-1.56218e-09
-6.83069e-10
-3.10789e-10
-1.45474e-10
-7.05543e-11
-3.52868e-11
-1.82932e-11
-9.79188e-12
-5.77942e-12
-4.03002e-12
-3.71994e-12
-4.72625e-12
-7.54829e-12
-1.37711e-11
-2.67838e-11
-5.57497e-11
-1.21875e-10
-2.84392e-10
-7.01355e-10
-1.55739e-09
1.35572e-10
4.89918e-09
-1.22517e-09
-5.28681e-10
-8.43475e-35
-4.99217e-34
-2.05529e-33
-7.93771e-33
-3.03401e-32
-1.15751e-31
-4.41978e-31
-1.68855e-30
-6.46717e-30
-2.46961e-29
-9.39537e-29
-3.56038e-28
-1.3394e-27
-5.1003e-27
-1.90991e-26
-7.12643e-26
-2.62028e-25
-1.00128e-24
-3.69504e-24
-1.36453e-23
-4.99762e-23
-1.81967e-22
-6.58911e-22
-2.36568e-21
-8.42181e-21
-2.96791e-20
-1.03432e-19
-3.58999e-19
-1.25366e-18
-4.51193e-18
-1.52679e-17
-5.23652e-17
-1.75397e-16
-5.90113e-16
-1.92714e-15
-6.19455e-15
-1.96066e-14
-6.20451e-14
-2.03257e-13
-6.6337e-13
-2.02656e-12
-6.15752e-12
-1.81443e-11
-5.43725e-11
-1.5866e-10
-4.5023e-10
-1.15605e-09
-2.55305e-09
-4.61973e-09
-6.71222e-09
-8.47953e-09
-1.17869e-08
-2.11093e-08
-4.68061e-08
-1.15219e-07
-2.76435e-07
-6.63595e-07
-1.38183e-06
-2.01345e-06
-1.17023e-07
1.21432e-05
3.98393e-05
3.31445e-05
-2.93304e-05
-2.15922e-05
-7.88187e-06
-2.49996e-06
-7.44649e-07
-2.22627e-07
-7.08956e-08
-2.63522e-08
-9.20485e-09
-1.52544e-10
7.2333e-10
-3.33722e-09
-3.73476e-09
-1.60655e-09
-7.01377e-10
-3.18739e-10
-1.48945e-10
-7.22061e-11
-3.60951e-11
-1.87018e-11
-9.99731e-12
-5.89456e-12
-4.10426e-12
-3.78128e-12
-4.79657e-12
-7.65401e-12
-1.39604e-11
-2.71404e-11
-5.64897e-11
-1.23483e-10
-2.88149e-10
-7.10776e-10
-1.57973e-09
1.20325e-10
4.99051e-09
-1.24482e-09
-5.37677e-10
-8.88472e-35
-5.62846e-34
-2.29251e-33
-8.85883e-33
-3.39302e-32
-1.29834e-31
-4.96576e-31
-1.89236e-30
-7.20005e-30
-2.73625e-29
-1.03704e-28
-3.90352e-28
-1.50035e-27
-5.64581e-27
-2.11393e-26
-7.7694e-26
-2.96164e-25
-1.09492e-24
-4.03953e-24
-1.47826e-23
-5.36679e-23
-1.93993e-22
-7.11315e-22
-2.54396e-21
-9.04805e-21
-3.18612e-20
-1.13566e-19
-3.96515e-19
-1.37482e-18
-4.75353e-18
-1.62814e-17
-5.59055e-17
-1.87526e-16
-6.20779e-16
-2.03301e-15
-6.52913e-15
-2.0835e-14
-6.48847e-14
-2.16855e-13
-7.00199e-13
-2.10812e-12
-6.34161e-12
-1.91623e-11
-5.72723e-11
-1.66025e-10
-4.67977e-10
-1.18859e-09
-2.6002e-09
-4.66298e-09
-6.72885e-09
-8.47911e-09
-1.17598e-08
-2.09314e-08
-4.67873e-08
-1.15568e-07
-2.74029e-07
-6.55886e-07
-1.36664e-06
-1.99566e-06
-1.77279e-07
1.17219e-05
3.91542e-05
3.43948e-05
-2.85418e-05
-2.21087e-05
-8.12914e-06
-2.59273e-06
-7.73107e-07
-2.31062e-07
-7.33764e-08
-2.71515e-08
-9.61074e-09
-2.90766e-10
7.98604e-10
-3.25404e-09
-3.81683e-09
-1.64828e-09
-7.1872e-10
-3.26448e-10
-1.52342e-10
-7.3796e-11
-3.68653e-11
-1.90889e-11
-1.0193e-11
-6.00295e-12
-4.1727e-12
-3.83602e-12
-4.85723e-12
-7.74308e-12
-1.412e-11
-2.74419e-11
-5.712e-11
-1.24823e-10
-2.91194e-10
-7.18394e-10
-1.59832e-09
9.12615e-11
5.08993e-09
-1.26344e-09
-5.46765e-10
-1.07102e-34
-6.09193e-34
-2.49606e-33
-9.66597e-33
-3.69505e-32
-1.41004e-31
-5.41781e-31
-2.05533e-30
-7.76918e-30
-2.96466e-29
-1.13345e-28
-4.27977e-28
-1.6134e-27
-6.07568e-27
-2.28381e-26
-8.49449e-26
-3.12748e-25
-1.18003e-24
-4.3318e-24
-1.59019e-23
-5.83302e-23
-2.11774e-22
-7.64746e-22
-2.73943e-21
-9.71358e-21
-3.40554e-20
-1.19772e-19
-4.15687e-19
-1.43983e-18
-5.06077e-18
-1.73617e-17
-5.93679e-17
-1.96452e-16
-6.48151e-16
-2.08338e-15
-6.63933e-15
-2.18262e-14
-6.77692e-14
-2.24806e-13
-7.03871e-13
-2.25642e-12
-6.7567e-12
-2.02392e-11
-5.8818e-11
-1.71578e-10
-4.80529e-10
-1.2129e-09
-2.63557e-09
-4.69537e-09
-6.7412e-09
-8.47073e-09
-1.17286e-08
-2.08052e-08
-4.67483e-08
-1.15646e-07
-2.71517e-07
-6.4803e-07
-1.35032e-06
-1.98657e-06
-2.47187e-07
1.13366e-05
3.84681e-05
3.55688e-05
-2.77555e-05
-2.25959e-05
-8.3647e-06
-2.67963e-06
-8.01239e-07
-2.3859e-07
-7.58681e-08
-2.79408e-08
-9.99974e-09
-4.29767e-10
8.65112e-10
-3.17226e-09
-3.89091e-09
-1.6873e-09
-7.35066e-10
-3.33573e-10
-1.55444e-10
-7.52443e-11
-3.75641e-11
-1.94386e-11
-1.03678e-11
-6.09924e-12
-4.23274e-12
-3.88282e-12
-4.90739e-12
-7.81475e-12
-1.42468e-11
-2.7677e-11
-5.76108e-11
-1.25853e-10
-2.93514e-10
-7.24155e-10
-1.61356e-09
5.54289e-11
5.18603e-09
-1.28026e-09
-5.55305e-10
-1.1487e-34
-6.5398e-34
-2.68093e-33
-1.0387e-32
-3.98537e-32
-1.51995e-31
-5.79106e-31
-2.20357e-30
-8.36332e-30
-3.16258e-29
-1.19739e-28
-4.5519e-28
-1.7175e-27
-6.4717e-27
-2.43234e-26
-9.06873e-26
-3.34098e-25
-1.24929e-24
-4.57153e-24
-1.67275e-23
-6.15537e-23
-2.2327e-22
-8.06174e-22
-2.88438e-21
-1.01928e-20
-3.56693e-20
-1.25759e-19
-4.3471e-19
-1.48557e-18
-5.22873e-18
-1.77025e-17
-6.05176e-17
-2.0379e-16
-6.72873e-16
-2.19629e-15
-7.1261e-15
-2.27673e-14
-7.38394e-14
-2.38926e-13
-7.61577e-13
-2.32144e-12
-6.91788e-12
-2.0753e-11
-5.99808e-11
-1.75676e-10
-4.90103e-10
-1.23077e-09
-2.66025e-09
-4.71537e-09
-6.74599e-09
-8.46502e-09
-1.17085e-08
-2.07045e-08
-4.66778e-08
-1.15575e-07
-2.69138e-07
-6.40179e-07
-1.33578e-06
-1.97465e-06
-3.11075e-07
1.10005e-05
3.78959e-05
3.65094e-05
-2.70443e-05
-2.29919e-05
-8.5642e-06
-2.75441e-06
-8.25253e-07
-2.46316e-07
-7.81823e-08
-2.86683e-08
-1.03549e-08
-5.56932e-10
9.18159e-10
-3.09946e-09
-3.95252e-09
-1.72096e-09
-7.49028e-10
-3.39663e-10
-1.58095e-10
-7.64796e-11
-3.81555e-11
-1.97354e-11
-1.05157e-11
-6.18046e-12
-4.28297e-12
-3.92135e-12
-4.9479e-12
-7.87178e-12
-1.43473e-11
-2.78625e-11
-5.79967e-11
-1.26657e-10
-2.95307e-10
-7.28618e-10
-1.62574e-09
1.99823e-11
5.27324e-09
-1.29464e-09
-5.62832e-10
-1.14104e-34
-6.83236e-34
-2.80585e-33
-1.08746e-32
-4.16648e-32
-1.59341e-31
-6.09079e-31
-2.32245e-30
-8.80713e-30
-3.32363e-29
-1.26645e-28
-4.77502e-28
-1.79916e-27
-6.76978e-27
-2.53908e-26
-9.48863e-26
-3.56084e-25
-1.31495e-24
-4.82467e-24
-1.76284e-23
-6.47073e-23
-2.32304e-22
-8.44942e-22
-3.00966e-21
-1.06645e-20
-3.74968e-20
-1.30677e-19
-4.58546e-19
-1.57004e-18
-5.39724e-18
-1.84887e-17
-6.39144e-17
-2.12489e-16
-7.00231e-16
-2.28364e-15
-7.43684e-15
-2.38846e-14
-7.57696e-14
-2.4327e-13
-7.58942e-13
-2.33165e-12
-7.01111e-12
-2.03854e-11
-6.08871e-11
-1.79165e-10
-4.97306e-10
-1.24416e-09
-2.67876e-09
-4.73042e-09
-6.74918e-09
-8.45937e-09
-1.1691e-08
-2.06297e-08
-4.66087e-08
-1.15413e-07
-2.67189e-07
-6.3465e-07
-1.32589e-06
-1.96813e-06
-3.59624e-07
1.07461e-05
3.74071e-05
3.72219e-05
-2.63985e-05
-2.33586e-05
-8.74109e-06
-2.81891e-06
-8.45576e-07
-2.52587e-07
-8.00183e-08
-2.92553e-08
-1.06256e-08
-6.58199e-10
9.56023e-10
-3.03973e-09
-3.99947e-09
-1.74762e-09
-7.60078e-10
-3.4448e-10
-1.60193e-10
-7.74597e-11
-3.86302e-11
-1.99718e-11
-1.0633e-11
-6.24454e-12
-4.32227e-12
-3.95105e-12
-4.97851e-12
-7.91416e-12
-1.44214e-11
-2.79976e-11
-5.8279e-11
-1.27241e-10
-2.96611e-10
-7.31991e-10
-1.63509e-09
-1.14212e-11
5.34464e-09
-1.30615e-09
-5.68951e-10
-1.2205e-34
-6.98071e-34
-2.85704e-33
-1.12362e-32
-4.29543e-32
-1.64035e-31
-6.26105e-31
-2.38969e-30
-9.10564e-30
-3.4557e-29
-1.30859e-28
-4.94674e-28
-1.86853e-27
-7.05817e-27
-2.65995e-26
-9.93518e-26
-3.69322e-25
-1.36602e-24
-5.02411e-24
-1.83673e-23
-6.67445e-23
-2.40854e-22
-8.63598e-22
-3.0759e-21
-1.098e-20
-3.87164e-20
-1.35932e-19
-4.69527e-19
-1.64845e-18
-5.61687e-18
-1.90387e-17
-6.35673e-17
-2.16665e-16
-7.11986e-16
-2.36003e-15
-7.67335e-15
-2.43208e-14
-7.52603e-14
-2.40149e-13
-7.75058e-13
-2.30842e-12
-6.94857e-12
-2.05791e-11
-6.14666e-11
-1.81621e-10
-5.0244e-10
-1.25356e-09
-2.69164e-09
-4.74101e-09
-6.75111e-09
-8.45522e-09
-1.16786e-08
-2.05763e-08
-4.65445e-08
-1.15264e-07
-2.65803e-07
-6.30513e-07
-1.31819e-06
-1.96251e-06
-3.92927e-07
1.05672e-05
3.70776e-05
3.77057e-05
-2.59488e-05
-2.35979e-05
-8.85986e-06
-2.86307e-06
-8.59568e-07
-2.56851e-07
-8.12555e-08
-2.96241e-08
-1.0816e-08
-7.29965e-10
9.84238e-10
-2.99653e-09
-4.03184e-09
-1.7665e-09
-7.67885e-10
-3.47877e-10
-1.6167e-10
-7.81473e-11
-3.89607e-11
-2.01367e-11
-1.07147e-11
-6.28912e-12
-4.34953e-12
-3.97153e-12
-4.99946e-12
-7.94299e-12
-1.44718e-11
-2.80894e-11
-5.84718e-11
-1.27637e-10
-2.97489e-10
-7.34197e-10
-1.64146e-09
-3.465e-11
5.39605e-09
-1.31423e-09
-5.73308e-10
-1.2321e-34
-7.20762e-34
-2.94231e-33
-1.14072e-32
-4.38146e-32
-1.68155e-31
-6.42599e-31
-2.45291e-30
-9.35412e-30
-3.5598e-29
-1.35024e-28
-5.10648e-28
-1.92556e-27
-7.24483e-27
-2.72301e-26
-1.01584e-25
-3.76982e-25
-1.39233e-24
-5.09162e-24
-1.85162e-23
-6.7311e-23
-2.42917e-22
-8.81363e-22
-3.11733e-21
-1.12009e-20
-3.92944e-20
-1.38105e-19
-4.84669e-19
-1.67241e-18
-5.72506e-18
-1.93724e-17
-6.66881e-17
-2.197e-16
-7.21225e-16
-2.38548e-15
-7.62139e-15
-2.45758e-14
-7.63016e-14
-2.53077e-13
-7.92766e-13
-2.38257e-12
-7.07162e-12
-2.07118e-11
-6.25085e-11
-1.82824e-10
-5.05628e-10
-1.25975e-09
-2.70007e-09
-4.74763e-09
-6.75223e-09
-8.45281e-09
-1.16728e-08
-2.05495e-08
-4.65204e-08
-1.1521e-07
-2.65082e-07
-6.28343e-07
-1.31398e-06
-1.95874e-06
-4.08385e-07
1.04741e-05
3.69078e-05
3.79533e-05
-2.57072e-05
-2.37205e-05
-8.92204e-06
-2.88613e-06
-8.66944e-07
-2.59112e-07
-8.19203e-08
-2.9849e-08
-1.09174e-08
-7.7005e-10
9.98561e-10
-2.97321e-09
-4.04861e-09
-1.77649e-09
-7.72015e-10
-3.49673e-10
-1.62452e-10
-7.85121e-11
-3.91366e-11
-2.02248e-11
-1.07583e-11
-6.31289e-12
-4.364e-12
-3.98231e-12
-5.01036e-12
-7.95788e-12
-1.44978e-11
-2.81366e-11
-5.85711e-11
-1.27841e-10
-2.97937e-10
-7.3531e-10
-1.64485e-09
-4.75674e-11
5.42348e-09
-1.31858e-09
-5.75654e-10
-1.25815e-34
-7.297e-34
-2.9892e-33
-1.15963e-32
-4.44457e-32
-1.69813e-31
-6.4796e-31
-2.47263e-30
-9.42963e-30
-3.61485e-29
-1.37055e-28
-5.18061e-28
-1.94466e-27
-7.13092e-27
-2.78257e-26
-1.03078e-25
-3.82213e-25
-1.41169e-24
-5.19366e-24
-1.90154e-23
-6.92302e-23
-2.50308e-22
-8.99067e-22
-3.20019e-21
-1.12284e-20
-4.02342e-20
-1.40529e-19
-4.91286e-19
-1.71898e-18
-5.91812e-18
-2.00193e-17
-6.76653e-17
-2.23288e-16
-7.49891e-16
-2.43231e-15
-7.72118e-15
-2.49399e-14
-7.75572e-14
-2.53407e-13
-7.81651e-13
-2.41674e-12
-7.16805e-12
-2.11067e-11
-6.26977e-11
-1.83615e-10
-5.07569e-10
-1.26345e-09
-2.70532e-09
-4.75228e-09
-6.75408e-09
-8.45282e-09
-1.16722e-08
-2.05427e-08
-4.65357e-08
-1.15255e-07
-2.64885e-07
-6.27682e-07
-1.31262e-06
-1.95712e-06
-4.10713e-07
1.04547e-05
3.68698e-05
3.8005e-05
-2.56556e-05
-2.37456e-05
-8.93465e-06
-2.8907e-06
-8.6836e-07
-2.59538e-07
-8.20406e-08
-2.98849e-08
-1.09342e-08
-7.75565e-10
1.00093e-09
-2.96928e-09
-4.05107e-09
-1.77798e-09
-7.72624e-10
-3.49935e-10
-1.62565e-10
-7.85639e-11
-3.91612e-11
-2.0237e-11
-1.07643e-11
-6.31609e-12
-4.3659e-12
-3.98368e-12
-5.01174e-12
-7.9598e-12
-1.45012e-11
-2.81432e-11
-5.85857e-11
-1.27873e-10
-2.9801e-10
-7.3552e-10
-1.6453e-09
-4.85928e-11
5.42724e-09
-1.31909e-09
-5.75936e-10
-1.25538e-34
-7.31514e-34
-3.01959e-33
-1.17163e-32
-4.49969e-32
-1.72305e-31
-6.58627e-31
-2.51308e-30
-9.57036e-30
-3.6368e-29
-1.37916e-28
-5.21807e-28
-1.96531e-27
-7.32554e-27
-2.79767e-26
-1.04006e-25
-3.85121e-25
-1.4009e-24
-5.27409e-24
-1.91882e-23
-7.02074e-23
-2.54021e-22
-9.14642e-22
-3.27195e-21
-1.15863e-20
-4.06935e-20
-1.42002e-19
-4.99946e-19
-1.72843e-18
-5.9351e-18
-2.02275e-17
-6.78262e-17
-2.28116e-16
-7.46897e-16
-2.45244e-15
-7.84181e-15
-2.51483e-14
-7.88849e-14
-2.55463e-13
-8.01111e-13
-2.42177e-12
-7.14457e-12
-2.13054e-11
-6.30324e-11
-1.83519e-10
-5.08432e-10
-1.26509e-09
-2.70799e-09
-4.75542e-09
-6.75669e-09
-8.45558e-09
-1.16792e-08
-2.05625e-08
-4.66065e-08
-1.15465e-07
-2.65445e-07
-6.291e-07
-1.31486e-06
-1.95753e-06
-3.94738e-07
1.05277e-05
3.69962e-05
3.78085e-05
-2.5836e-05
-2.36491e-05
-8.88667e-06
-2.87291e-06
-8.62703e-07
-2.57819e-07
-8.15365e-08
-2.97064e-08
-1.08563e-08
-7.45316e-10
9.9103e-10
-2.98578e-09
-4.03833e-09
-1.77045e-09
-7.69504e-10
-3.48575e-10
-1.61973e-10
-7.8288e-11
-3.90283e-11
-2.01704e-11
-1.07314e-11
-6.29812e-12
-4.35493e-12
-3.97549e-12
-5.00345e-12
-7.94855e-12
-1.44817e-11
-2.81082e-11
-5.85123e-11
-1.27725e-10
-2.9769e-10
-7.34699e-10
-1.64292e-09
-3.79231e-11
5.40503e-09
-1.3158e-09
-5.741e-10
-1.27739e-34
-7.26268e-34
-2.98247e-33
-1.16024e-32
-4.46577e-32
-1.71347e-31
-6.55502e-31
-2.49968e-30
-9.50008e-30
-3.59806e-29
-1.35819e-28
-5.11421e-28
-1.92439e-27
-7.2456e-27
-2.72404e-26
-1.01473e-25
-3.73747e-25
-1.38756e-24
-5.1687e-24
-1.89038e-23
-6.8075e-23
-2.50887e-22
-8.96644e-22
-3.2457e-21
-1.14408e-20
-3.99702e-20
-1.39011e-19
-4.92384e-19
-1.69092e-18
-5.82035e-18
-1.97759e-17
-6.59672e-17
-2.2797e-16
-7.39658e-16
-2.36509e-15
-7.50343e-15
-2.44801e-14
-7.43253e-14
-2.46829e-13
-7.95922e-13
-2.37368e-12
-7.12056e-12
-2.08744e-11
-6.30155e-11
-1.83483e-10
-5.07829e-10
-1.26427e-09
-2.70763e-09
-4.7567e-09
-6.75992e-09
-8.4609e-09
-1.16935e-08
-2.06104e-08
-4.67465e-08
-1.15864e-07
-2.66783e-07
-6.32598e-07
-1.32054e-06
-1.95949e-06
-3.60706e-07
1.06899e-05
3.72772e-05
3.73665e-05
-2.62294e-05
-2.34363e-05
-8.78143e-06
-2.8342e-06
-8.50446e-07
-2.54091e-07
-8.0445e-08
-2.93646e-08
-1.06888e-08
-6.81941e-10
9.6887e-10
-3.02166e-09
-4.01073e-09
-1.7543e-09
-7.62815e-10
-3.45662e-10
-1.60706e-10
-7.76968e-11
-3.87427e-11
-2.00277e-11
-1.06607e-11
-6.25966e-12
-4.33152e-12
-3.95808e-12
-4.98592e-12
-7.92481e-12
-1.44406e-11
-2.80342e-11
-5.83577e-11
-1.27412e-10
-2.97009e-10
-7.32939e-10
-1.63769e-09
-1.52759e-11
5.35899e-09
-1.30871e-09
-5.70211e-10
-1.261e-34
-7.16572e-34
-2.94056e-33
-1.14195e-32
-4.38173e-32
-1.67583e-31
-6.39814e-31
-2.43815e-30
-9.26762e-30
-3.51536e-29
-1.33079e-28
-5.02638e-28
-1.8938e-27
-7.12072e-27
-2.66566e-26
-9.88279e-26
-3.72741e-25
-1.37522e-24
-5.06298e-24
-1.85557e-23
-6.78228e-23
-2.47572e-22
-8.90648e-22
-3.1788e-21
-1.12598e-20
-3.9608e-20
-1.38347e-19
-4.80364e-19
-1.684e-18
-5.76505e-18
-1.96021e-17
-6.56329e-17
-2.21892e-16
-7.29314e-16
-2.38556e-15
-7.71482e-15
-2.44681e-14
-7.49622e-14
-2.46384e-13
-7.92903e-13
-2.37373e-12
-6.99677e-12
-2.077e-11
-6.30421e-11
-1.82617e-10
-5.05919e-10
-1.2613e-09
-2.70473e-09
-4.75668e-09
-6.76428e-09
-8.46945e-09
-1.17168e-08
-2.06903e-08
-4.69633e-08
-1.1648e-07
-2.68991e-07
-6.38446e-07
-1.33026e-06
-1.96335e-06
-3.04549e-07
1.09553e-05
3.77258e-05
3.66282e-05
-2.68272e-05
-2.30963e-05
-8.61666e-06
-2.77403e-06
-8.31501e-07
-2.48348e-07
-7.87626e-08
-2.88419e-08
-1.04407e-08
-5.87288e-10
9.3278e-10
-3.07552e-09
-3.96826e-09
-1.73006e-09
-7.52784e-10
-3.41293e-10
-1.58807e-10
-7.68116e-11
-3.83169e-11
-1.98153e-11
-1.05556e-11
-6.2023e-12