/*--------------------------------*- C++ -*----------------------------------*\
  =========                 |
  \\      /  F ield         | OpenFOAM: The Open Source CFD Toolbox
   \\    /   O peration     | Website:  https://openfoam.org
    \\  /    A nd           | Version:  10
     \\/     M anipulation  |
\*---------------------------------------------------------------------------*/
FoamFile
{
    format      ascii;
    class       volScalarField;
    location    "1";
    object      RR.CO2;
}
// * * * * * * * * * * * * * * * * * * * * * * * * * * * * * * * * * * * * * //

dimensions      [1 -3 -1 0 0 0 0];

internalField   nonuniform List<scalar> 
4000
(
-2.81581e-41
1.80075e-40
-9.93649e-40
-2.97807e-39
1.00622e-38
-1.45454e-38
-2.25815e-37
7.18785e-37
-1.31724e-36
6.16011e-36
4.74758e-36
-1.78367e-35
6.60315e-35
1.55623e-34
1.39612e-33
-3.68134e-33
9.06871e-33
-2.04573e-32
5.13718e-32
2.42418e-31
-3.77394e-31
1.30426e-30
-5.57281e-30
1.09842e-29
-7.14997e-29
2.20863e-30
8.41233e-29
-3.65432e-27
1.13087e-27
7.44534e-27
-4.94963e-27
-1.97651e-25
7.29799e-25
-8.67355e-25
-5.36598e-24
-3.15032e-24
2.15096e-23
8.54168e-23
4.46998e-22
1.5894e-23
1.88021e-22
8.01128e-21
9.1331e-21
-3.56996e-20
-1.23405e-20
-4.47733e-19
5.60273e-19
2.3432e-17
7.93886e-17
1.63988e-15
2.03508e-14
2.33792e-13
1.96161e-12
1.85967e-11
1.59444e-10
1.16572e-09
6.90173e-09
3.73263e-08
1.71312e-07
6.7147e-07
2.30514e-06
6.78697e-06
1.7587e-05
3.35863e-05
4.90138e-05
6.58506e-05
8.60959e-05
0.000112979
0.000160946
0.000270894
0.000533937
0.00111767
0.00234022
0.00445744
0.00664097
0.00542576
0.000907079
-0.0198675
-0.109218
-0.381272
-1.0026
-2.32193
-4.08429
-4.6461
-3.54545
6.9302
11.505
11.6127
9.81608
7.46243
5.13745
3.0038
1.46492
0.580291
0.192697
0.0617137
0.0209423
0.00717975
0.00215514
0.000238615
1.67695e-40
-6.46044e-40
-8.9516e-40
8.40162e-39
1.6701e-38
-7.87463e-38
5.65661e-38
-6.37174e-37
-7.00464e-37
7.20566e-36
1.23245e-35
2.85548e-35
3.60886e-35
2.69606e-34
6.2274e-34
3.30044e-33
-1.17072e-32
-5.12579e-33
1.12889e-31
8.77658e-32
-6.55334e-31
-3.51109e-30
-1.5072e-29
-1.50112e-29
6.95372e-29
-2.44781e-28
6.26718e-28
-1.53621e-27
1.29593e-26
-1.17534e-26
4.51073e-26
-1.67861e-25
-1.85506e-25
-2.48635e-24
-4.09381e-24
-2.97868e-23
5.78431e-23
5.5999e-23
3.78919e-22
1.64939e-21
-8.42513e-22
1.21375e-20
-1.786e-20
4.18274e-20
2.45238e-19
1.02824e-19
-2.13555e-19
4.48283e-17
2.58352e-16
3.37799e-15
3.3679e-14
2.82022e-13
2.81433e-12
2.50103e-11
2.04984e-10
1.48639e-09
8.0974e-09
4.12019e-08
1.81191e-07
6.84125e-07
2.30599e-06
6.71783e-06
1.7302e-05
3.30901e-05
4.83586e-05
6.50281e-05
8.51258e-05
0.000111784
0.000158338
0.000263763
0.00051879
0.00108731
0.00228583
0.00439884
0.0066643
0.00556467
0.00108682
-0.0194908
-0.109164
-0.384907
-1.0193
-2.37521
-4.14726
-4.68088
-3.2699
7.32585
11.6584
11.6236
9.75089
7.36056
5.0187
2.89202
1.3867
0.540859
0.178085
0.0571882
0.0195051
0.00671244
0.00201462
0.000221512
3.10348e-41
8.87467e-40
9.20692e-40
-6.99367e-40
-8.81461e-39
-3.71359e-38
-2.79557e-38
-9.99241e-38
5.73399e-37
3.36762e-36
5.6988e-36
-2.02757e-35
-1.02325e-34
1.67208e-34
2.67196e-34
2.6375e-33
5.62685e-34
3.59954e-32
8.96581e-32
3.80802e-31
-1.5394e-30
-3.36261e-31
6.22225e-30
3.46816e-29
-2.0542e-29
2.77583e-29
1.82221e-27
7.35326e-27
-8.62137e-27
2.22602e-26
1.1565e-25
7.7302e-26
1.23695e-24
-2.02897e-24
-1.50159e-23
-2.89208e-23
-9.17016e-23
-1.27145e-22
-2.7008e-22
-1.96259e-21
1.86872e-21
1.45778e-20
1.15402e-20
9.89533e-21
-2.5404e-19
2.40238e-19
1.59197e-18
6.99963e-18
4.33196e-16
4.94488e-15
4.6957e-14
4.01958e-13
3.94787e-12
3.61775e-11
2.69419e-10
1.67348e-09
8.72487e-09
4.33555e-08
1.86937e-07
6.96116e-07
2.31491e-06
6.68527e-06
1.71086e-05
3.26761e-05
4.78213e-05
6.43634e-05
8.43768e-05
0.00011086
0.000156441
0.000258614
0.000507036
0.00106104
0.00223911
0.00434474
0.00669236
0.00572743
0.00128681
-0.0191539
-0.109629
-0.390934
-1.04559
-2.45327
-4.23365
-4.73602
-2.7812
7.87089
11.8496
11.6065
9.63845
7.20294
4.84202
2.73573
1.28625
0.493033
0.161568
0.0522466
0.0179798
0.00620246
0.00186107
0.000203241
-9.52468e-41
2.6548e-40
1.56102e-39
-3.40305e-39
1.23431e-38
1.38385e-38
4.94019e-39
2.02032e-37
3.22093e-37
-3.92471e-37
-7.72041e-36
2.74062e-35
1.80496e-34
-1.52387e-34
1.40039e-33
3.46082e-33
6.65351e-33
-2.65128e-32
-2.05959e-31
-3.02197e-31
4.44355e-31
5.80768e-30
-3.47032e-30
2.78551e-29
2.50939e-29
-4.17983e-28
-1.60761e-27
-6.19127e-27
-4.99347e-27
5.19599e-26
-3.55748e-26
-9.12223e-26
-1.42933e-25
2.9468e-24
-6.35919e-25
1.10371e-23
4.30864e-23
1.29779e-22
-3.50275e-22
-1.36589e-21
2.5279e-21
-8.4983e-21
1.46138e-20
-5.19643e-20
-1.66911e-19
-3.54593e-19
-5.7792e-19
5.04702e-17
6.34482e-16
5.85429e-15
5.43808e-14
5.92848e-13
5.82222e-12
4.85093e-11
3.42374e-10
1.80038e-09
9.3546e-09
4.55397e-08
1.92829e-07
7.04322e-07
2.31518e-06
6.63756e-06
1.6917e-05
3.23569e-05
4.74235e-05
6.38695e-05
8.38628e-05
0.000110307
0.000155164
0.000254637
0.000497018
0.00103876
0.00220116
0.00430238
0.00671626
0.00585125
0.00143399
-0.0190201
-0.110766
-0.398693
-1.07369
-2.52932
-4.31079
-4.79825
-2.12044
8.38047
11.9871
11.5554
9.51908
7.01283
4.65233
2.58691
1.19356
0.449876
0.146572
0.0478908
0.0166053
0.0057376
0.00172117
0.000186697
5.62582e-41
2.8623e-40
-2.12197e-40
2.99994e-39
-2.20571e-38
-6.90014e-38
-5.07844e-38
-8.35131e-37
4.37385e-37
5.58983e-36
-1.45938e-35
1.06011e-34
-1.65915e-34
5.85551e-34
-1.20068e-33
-5.37054e-33
-2.06658e-32
-6.62934e-32
-3.3244e-34
3.29916e-31
-1.96517e-30
6.48763e-30
-3.06423e-29
5.61911e-29
-8.38618e-29
-5.03046e-28
-2.49357e-27
7.88618e-27
-1.74079e-26
7.15211e-26
1.33432e-25
-6.77672e-25
-1.07952e-24
-5.48205e-24
-3.48058e-24
4.51149e-23
1.23677e-22
1.30278e-22
2.88654e-22
-1.7653e-21
6.11242e-21
-1.39403e-20
6.51468e-20
1.01013e-19
2.37578e-19
5.65494e-19
-1.92469e-17
9.14131e-17
6.39652e-16
6.29513e-15
7.34203e-14
7.75284e-13
7.64217e-12
6.55483e-11
3.73561e-10
1.94981e-09
1.00047e-08
4.75258e-08
1.97351e-07
7.13143e-07
2.32221e-06
6.61958e-06
1.68044e-05
3.21314e-05
4.71286e-05
6.35175e-05
8.3597e-05
0.000110049
0.000154504
0.000252192
0.000490632
0.00102524
0.00217622
0.00427601
0.00675133
0.00598792
0.00158374
-0.0188768
-0.111794
-0.40571
-1.10151
-2.61018
-4.39065
-4.85212
-1.52389
8.79156
12.1014
11.5086
9.40085
6.87084
4.50592
2.46921
1.1209
0.416736
0.135391
0.0445536
0.0155352
0.00537537
0.00160788
0.000174246
1.32095e-40
1.67921e-39
-1.89506e-39
-1.24251e-38
-2.54799e-38
3.71714e-38
2.57216e-37
1.96402e-37
1.30116e-36
6.06234e-36
-5.75451e-35
-8.008e-35
3.45216e-34
-1.61821e-33
-7.44448e-33
-1.1588e-32
-2.58997e-32
-2.15493e-31
3.97987e-31
1.09087e-30
6.70331e-30
-2.17766e-30
3.64725e-29
-1.11191e-28
-2.71752e-29
-1.09114e-27
-7.82605e-28
3.22698e-27
2.00493e-26
-6.26286e-26
-3.11601e-25
-6.65958e-25
-1.87306e-24
-5.55651e-24
1.9978e-23
3.96767e-24
-3.75603e-23
2.29598e-22
6.27318e-23
2.43337e-21
6.67519e-21
-2.26067e-21
4.49583e-20
-1.14755e-19
-1.43255e-19
5.93217e-19
2.18917e-17
9.16201e-17
8.19483e-16
8.68126e-15
9.51275e-14
9.86271e-13
9.13379e-12
7.56247e-11
4.21677e-10
2.12774e-09
1.05363e-08
4.93786e-08
2.01171e-07
7.18232e-07
2.32046e-06
6.58551e-06
1.66794e-05
3.19297e-05
4.69075e-05
6.32828e-05
8.33865e-05
0.000109877
0.00015404
0.000250321
0.00048581
0.00101433
0.00215709
0.00425804
0.0067749
0.00609347
0.00171065
-0.0187125
-0.112414
-0.411019
-1.12329
-2.67406
-4.4489
-4.8915
-1.03899
9.10141
12.1889
11.4716
9.30534
6.75897
4.39061
2.38027
1.06733
0.392986
0.12759
0.0421914
0.014766
0.00511166
0.00152808
0.000164834
-4.11402e-40
2.32706e-41
-1.51543e-39
-2.24942e-38
-9.35489e-39
-5.06002e-38
-8.28189e-37
-1.43662e-36
2.48938e-36
2.24274e-35
8.60116e-36
2.1705e-34
-2.0901e-34
-1.05205e-33
-5.43229e-33
5.66446e-33
-3.11705e-32
1.06598e-31
-5.80592e-31
8.30225e-31
7.49852e-30
1.12965e-29
-3.96651e-29
2.37406e-28
-7.43317e-28
-2.60944e-28
-4.59389e-27
-5.13152e-27
-5.61777e-26
-4.41163e-26
-2.92993e-25
-3.3571e-25
-2.21856e-24
-6.3574e-24
-7.92396e-24
-3.73686e-23
7.13877e-23
-2.96258e-22
1.29541e-21
-2.83148e-21
2.33705e-21
7.8764e-21
5.02644e-21
-1.19395e-19
2.45336e-19
-8.99165e-19
2.04136e-17
6.09759e-17
8.77772e-16
1.044e-14
1.13583e-13
1.14212e-12
1.03109e-11
8.31757e-11
4.55725e-10
2.26813e-09
1.09765e-08
5.05685e-08
2.03723e-07
7.2054e-07
2.31262e-06
6.54053e-06
1.6541e-05
3.17264e-05
4.66896e-05
6.3053e-05
8.31743e-05
0.000109655
0.000153556
0.0002486
0.00048118
0.00100409
0.00213797
0.00423598
0.00678912
0.00618912
0.00184138
-0.0184329
-0.112341
-0.413861
-1.13772
-2.71885
-4.48985
-4.91911
-0.685981
9.32043
12.2521
11.4468
9.23763
6.67894
4.30777
2.31722
1.02977
0.376482
0.122168
0.0405496
0.0142253
0.00492733
0.00147205
0.000158235
-1.10154e-40
8.38058e-40
-6.36396e-39
-2.10865e-40
1.50897e-38
9.07014e-38
-8.11687e-37
3.50157e-36
5.91987e-36
2.87046e-35
-1.0028e-34
-3.10053e-34
-3.27459e-34
9.45772e-37
-1.30358e-32
9.34783e-33
-2.88785e-32
5.2084e-33
-3.02055e-31
-3.45188e-30
-2.02917e-30
-1.02329e-29
3.6574e-29
2.08152e-28
4.33354e-28
-2.08052e-28
2.92515e-27
-1.47024e-27
1.85425e-26
4.25345e-26
-2.70281e-25
-8.61521e-25
-3.03341e-24
-7.22354e-24
8.17096e-24
1.18018e-23
2.19353e-22
4.71856e-22
-1.06433e-21
3.0277e-21
-4.34977e-21
2.01487e-20
2.73528e-20
1.6948e-19
-3.60349e-19
-5.51787e-19
2.05663e-17
1.02453e-16
1.06451e-15
1.28953e-14
1.37753e-13
1.32918e-12
1.15825e-11
9.07848e-11
4.87512e-10
2.38063e-09
1.13229e-08
5.14324e-08
2.04878e-07
7.18702e-07
2.2943e-06
6.47366e-06
1.63639e-05
3.14991e-05
4.64375e-05
6.27461e-05
8.29045e-05
0.000109364
0.000152948
0.000246654
0.000475943
0.00099244
0.00211483
0.00420547
0.00679165
0.00628448
0.00198047
-0.0180039
-0.111426
-0.413896
-1.14402
-2.74407
-4.516
-4.93765
-0.464753
9.46227
12.2992
11.4356
9.1967
6.62829
4.25375
2.27596
1.00513
0.365661
0.118615
0.0394671
0.0138699
0.00480432
0.00143461
0.00015383
-1.15857e-40
-3.40158e-41
-1.2034e-38
4.67584e-38
1.09628e-37
4.11813e-39
-1.49946e-36
-4.49398e-37
8.30993e-36
4.27063e-35
-1.00675e-34
-8.81753e-35
-8.23454e-34
2.57743e-33
8.35274e-33
4.63884e-32
-8.41082e-32
-3.83507e-31
5.57928e-31
-2.1405e-30
7.84951e-30
2.14657e-29
7.56445e-29
-1.49016e-28
6.53769e-28
-3.07282e-27
-6.37933e-27
-2.17354e-26
1.78704e-26
1.92359e-26
4.52025e-25
1.95499e-24
2.15031e-24
-4.79627e-24
8.66994e-24
1.07366e-22
-1.72592e-22
-9.39798e-22
-6.91617e-22
3.81099e-21
1.22424e-20
-1.21324e-20
1.08713e-20
-2.48011e-19
-4.00437e-19
-3.92889e-19
2.04973e-17
4.05473e-17
1.4573e-15
1.56414e-14
1.5945e-13
1.49472e-12
1.27009e-11
9.72322e-11
5.11722e-10
2.46245e-09
1.15545e-08
5.18593e-08
2.04583e-07
7.1252e-07
2.26271e-06
6.36318e-06
1.61046e-05
3.11447e-05
4.61015e-05
6.24029e-05
8.24937e-05
0.000108912
0.000151993
0.000244019
0.000468704
0.000976165
0.00208503
0.00416478
0.0067823
0.00638046
0.00213309
-0.0174217
-0.109676
-0.411232
-1.14272
-2.75167
-4.53038
-4.94962
-0.359358
9.5423
12.3332
11.4375
9.17924
6.60255
4.22414
2.25219
0.990602
0.359196
0.116463
0.0388095
0.0136528
0.00472884
0.00141153
0.000151111
8.07463e-40
-6.09925e-39
-1.3224e-38
4.59167e-38
8.38362e-38
3.19548e-37
8.42089e-37
-3.6345e-36
-2.55079e-36
-3.99063e-35
-2.23707e-34
2.35175e-34
-1.4782e-33
6.47128e-33
-2.3902e-33
3.23163e-32
-1.44146e-31
4.39671e-31
-2.17193e-31
-1.12701e-31
6.52837e-30
2.84271e-30
-3.75911e-29
-4.75472e-28
1.32103e-28
2.79413e-27
-8.02e-27
1.95181e-26
-6.55791e-26
-2.09187e-25
-7.22831e-25
4.60393e-25
-1.26416e-24
8.9808e-24
-6.43959e-23
-1.05578e-22
-3.41559e-23
-3.82275e-22
-1.49361e-21
8.20772e-21
1.09441e-20
-1.39087e-20
-3.0095e-20
-2.16563e-19
3.86371e-19
-3.82738e-19
3.95375e-18
1.92479e-16
1.84663e-15
1.84395e-14
1.83256e-13
1.67357e-12
1.38122e-11
1.01598e-10
5.28637e-10
2.52533e-09
1.16906e-08
5.19252e-08
2.03235e-07
7.0412e-07
2.22835e-06
6.25281e-06
1.58081e-05
3.07681e-05
4.57194e-05
6.19652e-05
8.20351e-05
0.000108348
0.00015086
0.000240934
0.0004575
0.000960191
0.00205272
0.00411442
0.00675707
0.00648702
0.00231756
-0.016646
-0.107133
-0.406214
-1.13506
-2.74472
-4.53563
-4.95687
-0.347518
9.57538
12.3599
11.4502
9.1807
6.59651
4.21264
2.2419
0.983737
0.355996
0.115381
0.0384756
0.0135413
0.00468957
0.00139937
0.000149665
7.14876e-41
3.89151e-39
-2.10322e-38
-6.57417e-39
-2.14281e-37
3.18119e-37
-1.21184e-37
5.89881e-36
1.20717e-35
-7.85146e-36
-2.89625e-35
-5.02135e-34
1.80494e-33
-1.4402e-33
2.23258e-32
4.79776e-32
2.14403e-31
1.17434e-31
3.36835e-31
-2.5579e-30
3.50859e-30
-6.03542e-29
-1.14625e-29
1.28603e-29
1.1007e-27
-2.21106e-27
4.20778e-27
1.20253e-26
6.18219e-26
2.48026e-25
3.94086e-25
-2.42066e-25
-5.30195e-25
-1.59052e-23
2.79595e-23
2.11129e-23
-2.3142e-22
-7.79008e-22
-9.27633e-22
1.01146e-21
1.40397e-21
-3.73977e-21
1.13706e-19
2.49144e-19
1.79641e-19
-1.13894e-19
4.38897e-17
2.77065e-16
2.08397e-15
2.19105e-14
2.15861e-13
1.9591e-12
1.63358e-11
1.02777e-10
5.40818e-10
2.56644e-09
1.17338e-08
5.16299e-08
2.00618e-07
6.90115e-07
2.17593e-06
6.10338e-06
1.55141e-05
3.03848e-05
4.53388e-05
6.1531e-05
8.15441e-05
0.00010772
0.000149727
0.000237991
0.000449784
0.000942684
0.00201569
0.00405667
0.00672534
0.00658402
0.00248927
-0.0158611
-0.104255
-0.399708
-1.12289
-2.72688
-4.53361
-4.9602
-0.40726
9.57389
12.38
11.4716
9.19666
6.6055
4.21568
2.24164
0.982517
0.355176
0.115065
0.0383732
0.0135059
0.00467645
0.00139512
0.000149139
-8.30637e-40
6.07977e-39
9.11841e-39
6.52954e-38
-1.57042e-37
-8.7706e-37
-8.79996e-37
5.93784e-36
-1.56597e-35
-5.00708e-35
-1.28727e-34
-3.78191e-34
-8.65709e-34
-2.1545e-33
-3.0037e-32
-4.77088e-32
1.61918e-31
-5.83679e-31
1.68553e-30
-7.31972e-30
-1.93397e-29
5.02488e-30
-1.777e-28
1.21056e-28
-1.53352e-27
3.79093e-27
-5.11784e-27
-2.31102e-26
-8.6498e-26
3.35779e-25
-5.82643e-25
3.65829e-24
7.72108e-24
9.56226e-24
-8.50752e-24
-5.95481e-25
-9.90636e-23
2.65335e-22
9.56873e-22
-2.32577e-21
-7.47384e-21
7.59444e-21
-3.14376e-20
1.43536e-19
2.51503e-19
1.57564e-19
4.68535e-17
2.06705e-16
2.32758e-15
2.49342e-14
2.43463e-13
2.18533e-12
1.79055e-11
1.01975e-10
5.50822e-10
2.59566e-09
1.17155e-08
5.11506e-08
1.97554e-07
6.7838e-07
2.1317e-06
5.97193e-06
1.51772e-05
2.99804e-05
4.49532e-05
6.10975e-05
8.10533e-05
0.000107081
0.000148575
0.00023522
0.000440929
0.000923213
0.0019775
0.00399803
0.00668704
0.00667506
0.00265614
-0.0150306
-0.101102
-0.392145
-1.10773
-2.70156
-4.52611
-4.9604
-0.519284
9.54426
12.3965
11.5004
9.22386
6.62564
4.22914
2.24875
0.985399
0.356054
0.115291
0.0384337
0.0135237
0.00468161
0.00139639
0.000149258
-1.0012e-39
-1.38968e-39
9.01132e-39
-9.92744e-38
1.5607e-37
6.49471e-37
-2.29632e-36
6.17812e-36
1.46587e-35
9.42116e-35
-1.64972e-34
8.27552e-34
-1.03287e-33
2.38681e-33
2.7826e-32
7.35353e-32
2.23871e-31
-5.91458e-31
-1.77855e-30
5.62516e-30
9.11358e-30
-2.15205e-29
-1.04461e-28
-3.49543e-28
1.8828e-27
-2.17815e-27
-3.69318e-27
-1.80529e-26
-9.46255e-26
-2.13509e-25
5.75148e-25
-3.38349e-24
2.53214e-24
-1.43356e-23
-2.34691e-23
-6.41885e-23
-2.23463e-23
-2.09164e-22
-6.20626e-22
-3.23231e-21
-4.2815e-21
3.11702e-20
-5.61249e-21
7.34684e-21
2.56913e-19
-1.82409e-18
4.55179e-17
2.9801e-16
2.5441e-15
2.68936e-14
2.57123e-13
2.27032e-12
1.8236e-11
1.0138e-10
5.63302e-10
2.61699e-09
1.16541e-08
5.04626e-08
1.94054e-07
6.64341e-07
2.08884e-06
5.84322e-06
1.48688e-05
2.95706e-05
4.45481e-05
6.06356e-05
8.0527e-05
0.00010638
0.000147254
0.000231995
0.000432839
0.000905613
0.00194066
0.00393687
0.00663914
0.00676712
0.00283025
-0.0141868
-0.0978405
-0.383924
-1.09004
-2.66998
-4.51475
-4.9591
-0.666266
9.49687
12.409
11.5327
9.25825
6.65355
4.2501
2.2606
0.990878
0.35803
0.115874
0.038607
0.0135794
0.00469992
0.00140165
0.000149839
1.42759e-39
-4.753e-39
2.33273e-38
1.03268e-37
-2.8983e-37
2.34899e-37
-3.2633e-37
1.38325e-36
1.41378e-35
1.13002e-35
3.14314e-34
3.45483e-34
-3.02411e-33
-6.74143e-33
2.49377e-32
1.75458e-32
-1.50382e-31
-2.46291e-31
3.44016e-30
-4.49029e-30
1.70299e-29
7.92504e-30
-2.23636e-28
-1.5933e-28
8.87642e-29
7.48999e-27
-4.86179e-27
-5.93753e-27
2.88836e-26
-1.15906e-25
2.67094e-25
-2.63503e-24
-1.92176e-24
1.79937e-23
-3.65216e-23
1.03813e-22
1.0215e-23
-8.6282e-22
-3.67787e-21
-2.50438e-21
-1.31033e-20
2.84006e-20
-1.27479e-19
-4.50026e-20
-4.85324e-19
1.39198e-18
4.01247e-17
2.19987e-16
2.79244e-15
2.82462e-14
2.66666e-13
2.322e-12
1.83611e-11
1.00674e-10
5.71885e-10
2.62941e-09
1.15762e-08
4.98298e-08
1.90942e-07
6.50977e-07
2.0408e-06
5.70902e-06
1.45827e-05
2.91858e-05
4.41757e-05
6.02096e-05
8.00264e-05
0.000105756
0.00014603
0.000228963
0.000425309
0.000887908
0.00190512
0.00387916
0.00659203
0.00684973
0.0029901
-0.0133795
-0.0945572
-0.375414
-1.07184
-2.63659
-4.50103
-4.9563
-0.828848
9.43975
12.4186
11.5658
9.295
6.68436
4.2737
2.27526
0.998102
0.360769
0.116713
0.0388511
0.0136577
0.00472588
0.0014092
0.000150689
-1.57035e-39
5.68995e-39
2.77436e-39
8.6154e-38
2.8681e-37
4.67173e-37
1.46731e-36
-1.00405e-35
6.4119e-36
9.15424e-35
-4.17877e-34
-7.50411e-34
8.91845e-34
-2.63503e-33
-2.10686e-32
4.14263e-32
-4.09826e-32
-2.83869e-31
2.28708e-30
4.5804e-30
4.47131e-30
6.87276e-29
-1.6606e-28
-3.49573e-28
-2.51004e-28
4.11625e-27
1.44538e-26
1.37677e-26
9.23678e-26
-4.26505e-25
-2.31627e-25
3.76434e-24
-3.58232e-24
1.41348e-23
5.70658e-23
9.12359e-23
1.49987e-22
5.639e-23
3.47267e-21
4.95117e-21
5.97464e-21
-2.56658e-20
1.23206e-19
2.32723e-21
-1.78583e-19
-2.08541e-18
1.09407e-17
2.19094e-16
2.85738e-15
2.95161e-14
2.74072e-13
2.35503e-12
1.84128e-11
1.00036e-10
5.7658e-10
2.62985e-09
1.14584e-08
4.90947e-08
1.87433e-07
6.38643e-07
1.9986e-06
5.58715e-06
1.42988e-05
2.88287e-05
4.38308e-05
5.98195e-05
7.95772e-05
0.000105182
0.000144933
0.00022624
0.000418521
0.000872428
0.00187275
0.00382439
0.00654604
0.0069227
0.0031332
-0.0126424
-0.0915894
-0.367625
-1.0549
-2.60472
-4.4868
-4.95273
-0.987245
9.38003
12.4255
11.597
9.33082
6.715
4.2983
2.29024
1.0056
0.363657
0.117589
0.0391125
0.013742
0.00475409
0.00141749
0.000151629
9.24431e-40
-8.30986e-39
-9.80996e-39
1.03497e-37
-9.93253e-39
1.22155e-36
-2.89039e-36
-7.59988e-36
-2.70932e-35
3.34523e-35
-4.27119e-34
-5.2123e-34
2.16689e-33
1.07944e-32
-6.46066e-33
1.40276e-32
-8.79114e-32
5.27339e-31
2.01531e-30
-1.17165e-30
-2.47386e-29
-4.74637e-29
-1.68798e-28
-2.33358e-28
7.69258e-28
-2.37072e-28
8.12572e-27
3.92667e-26
9.5123e-28
-1.29439e-25
-8.91263e-25
-1.44685e-24
-4.19677e-24
-2.96751e-23
-6.44362e-23
1.10138e-22
2.64243e-22
-9.92621e-22
4.1219e-21
-3.65301e-21
-1.43833e-20
-5.81876e-20
2.32069e-20
-4.41795e-20
-2.7954e-20
-1.78791e-18
1.25037e-17
3.7548e-16
2.96424e-15
3.01611e-14
2.7872e-13
2.37644e-12
1.8434e-11
9.94486e-11
5.79196e-10
2.6254e-09
1.13421e-08
4.83574e-08
1.84265e-07
6.26865e-07
1.96171e-06
5.48517e-06
1.40656e-05
2.85296e-05
4.35333e-05
5.94818e-05
7.91883e-05
0.00010469
0.000144018
0.000223853
0.000412685
0.000859352
0.00184484
0.00377792
0.00650511
0.00698229
0.00325118
-0.0120368
-0.0891017
-0.360968
-1.04028
-2.57684
-4.47334
-4.94892
-1.12893
9.32394
12.4301
11.6244
9.36288
6.74283
4.32054
2.30431
1.01271
0.366411
0.118432
0.0393632
0.0138228
0.00478116
0.00142545
0.000152535
3.90582e-40
-8.35077e-39
1.58884e-38
-3.69098e-38
1.84228e-37
-1.34251e-36
-2.78897e-36
1.0906e-35
3.2493e-35
-8.25697e-35
2.16817e-34
5.95678e-34
-2.8144e-33
-5.25517e-33
2.14807e-32
6.82257e-33
-4.57527e-32
3.58102e-31
-2.88038e-30
-2.15285e-30
-2.91556e-29
-1.2256e-28
1.84801e-28
8.83003e-28
-2.07664e-28
7.39215e-27
-1.22605e-26
3.84825e-26
2.94771e-26
9.25664e-27
3.60888e-25
-3.17961e-24
-5.61597e-24
-3.09717e-23
2.312e-24
-8.84998e-23
-3.04634e-23
9.74279e-22
-1.34364e-21
5.38644e-21
1.56687e-20
-2.66761e-21
7.70812e-20
1.81357e-19
2.29333e-19
2.00054e-18
7.87277e-18
3.20099e-16
3.12793e-15
3.06797e-14
2.81888e-13
2.39098e-12
1.84413e-11
9.90062e-11
5.80353e-10
2.61871e-09
1.12396e-08
4.78053e-08
1.81933e-07
6.18428e-07
1.93434e-06
5.40322e-06
1.38707e-05
2.82601e-05
4.32782e-05
5.91923e-05
7.88442e-05
0.000104242
0.0001432
0.000221966
0.000408029
0.000848852
0.00182346
0.00374139
0.00647158
0.00702715
0.00334196
-0.011568
-0.0871496
-0.355648
-1.02844
-2.55375
-4.46189
-4.94556
-1.24515
9.276
12.4331
11.6465
9.38924
6.76589
4.3396
2.31601
1.01864
0.36872
0.119155
0.0395759
0.0138915
0.00480421
0.00143225
0.000153309
-3.96254e-40
-5.00707e-39
2.05799e-38
-5.61054e-38
-4.5444e-37
-3.32378e-37
2.45537e-36
2.78867e-36
1.02814e-35
1.16707e-34
-1.9505e-34
1.93081e-35
1.48726e-33
-9.32067e-33
-1.17294e-32
3.9917e-32
7.12029e-32
-3.90276e-31
-6.5923e-31
1.16307e-29
-2.06367e-29
6.9684e-29
-5.26566e-29
9.57618e-28
-1.71839e-29
2.40073e-27
-2.66572e-26
1.97381e-26
2.29581e-26
-2.6228e-25
-9.39386e-25
-3.06386e-24
6.36707e-24
-3.18301e-23
-4.15541e-23
-1.43305e-22
3.41289e-23
6.27171e-22
-1.63971e-21
2.21935e-21
-2.09785e-21
1.59854e-20
9.60895e-20
-1.27672e-19
1.25768e-19
2.08436e-18
1.23519e-17
3.05655e-16
3.29083e-15
3.11109e-14
2.8529e-13
2.40433e-12
1.84515e-11
9.87133e-11
5.80978e-10
2.6135e-09
1.11685e-08
4.74082e-08
1.8024e-07
6.12327e-07
1.91474e-06
5.3473e-06
1.3739e-05
2.80804e-05
4.31028e-05
5.89883e-05
7.85986e-05
0.000103923
0.000142626
0.000220665
0.000404975
0.000841913
0.00180814
0.00371559
0.00644745
0.0070577
0.00340456
-0.0112433
-0.0857868
-0.351899
-1.02008
-2.53737
-4.4534
-4.94295
-1.32848
9.24096
12.4349
11.6623
9.40825
6.78259
4.35325
2.3246
1.02301
0.370431
0.119681
0.0397318
0.0139418
0.0048211
0.00143723
0.000153878
-3.46177e-40
7.94595e-39
-3.21809e-38
6.61174e-38
3.06333e-37
-2.38776e-37
-2.96694e-37
-8.38216e-36
3.79711e-35
-2.34467e-35
5.13394e-35
6.99347e-35
1.56948e-33
-2.96953e-33
4.4071e-32
-9.13178e-32
-2.41207e-31
-2.12615e-31
-3.68839e-30
1.32096e-29
5.21581e-30
-2.46016e-29
-2.44174e-28
4.93034e-28
-6.87047e-28
2.19345e-27
2.37411e-26
5.96955e-26
-9.32083e-26
-3.0431e-26
-1.84202e-24
2.23798e-24
-8.04476e-24
-3.57248e-24
-1.96373e-24
3.36671e-23
2.57931e-22
-2.67116e-22
-1.48836e-21
7.2762e-21
-2.65525e-21
-6.20071e-20
-1.14097e-19
2.61989e-19
4.37824e-19
-9.1156e-19
7.9194e-18
3.12501e-16
3.29881e-15
3.14052e-14
2.86383e-13
2.41082e-12
1.84695e-11
9.85966e-11
5.81639e-10
2.61186e-09
1.11349e-08
4.72136e-08
1.79382e-07
6.09155e-07
1.90429e-06
5.31822e-06
1.36712e-05
2.79863e-05
4.30086e-05
5.88784e-05
7.84645e-05
0.000103746
0.000142312
0.000219954
0.00040316
0.000837948
0.00180009
0.00370186
0.00643435
0.00707339
0.00343724
-0.0110726
-0.0850643
-0.349887
-1.01555
-2.52839
-4.4486
-4.94144
-1.37435
9.22141
12.4357
11.671
9.4187
6.79179
4.36075
2.32932
1.02543
0.371372
0.119968
0.0398162
0.013969
0.00483026
0.00143993
0.000154187
-6.88173e-40
1.36391e-38
-5.23633e-38
3.28639e-39
2.45481e-37
6.77542e-37
-3.15285e-36
7.35337e-37
-3.63978e-35
-7.81177e-37
1.49325e-34
-2.82897e-34
-3.70723e-33
8.81565e-33
9.3265e-33
-2.51654e-32
-2.86331e-31
3.82439e-32
-3.66339e-30
-1.36289e-29
-5.11122e-30
-4.98878e-29
7.12883e-29
7.07369e-28
-1.12465e-27
-4.20891e-27
9.12399e-27
-3.71406e-26
-4.43351e-26
9.22314e-26
2.00378e-24
3.41447e-24
3.20764e-24
2.05174e-23
-2.23449e-23
-2.25527e-22
-2.84666e-22
-9.16583e-22
-2.2213e-21
-7.09773e-21
-9.83939e-21
4.16083e-20
-4.66329e-20
5.70024e-20
-1.85569e-19
7.20996e-19
1.14113e-17
3.07388e-16
3.1551e-15
3.15687e-14
2.87902e-13
2.41864e-12
1.84993e-11
9.86388e-11
5.82798e-10
2.61432e-09
1.11337e-08
4.71819e-08
1.79209e-07
6.08469e-07
1.90202e-06
5.3117e-06
1.3656e-05
2.7965e-05
4.29871e-05
5.88537e-05
7.84347e-05
0.000103707
0.000142246
0.000219818
0.000402849
0.00083727
0.00179873
0.00369956
0.00643212
0.0070756
0.00344203
-0.0110467
-0.084954
-0.349578
-1.01486
-2.52701
-4.44785
-4.94121
-1.38135
9.21848
12.4359
11.6724
9.42025
6.79313
4.36182
2.32996
1.02575
0.371492
0.120006
0.0398273
0.0139724
0.00483134
0.00144023
0.00015422
1.42414e-39
-4.21493e-40
4.58699e-38
-2.83198e-38
-3.5893e-37
-4.67877e-37
2.04379e-36
-4.01462e-36
-1.72636e-35
5.7655e-35
-2.92789e-34
2.59745e-34
-1.89765e-33
-5.1924e-33
-1.03614e-32
3.99139e-32
2.76658e-31
8.77991e-31
-2.45396e-30
-1.05303e-29
-6.95187e-30
1.1431e-28
2.25839e-28
-3.52043e-28
-1.672e-27
-1.35172e-27
7.63679e-27
4.40117e-26
7.69427e-26
-1.68432e-25
-5.69129e-25
3.34291e-24
-7.75703e-24
4.74518e-25
2.49401e-23
-9.98139e-23
-1.86e-22
2.20575e-24
1.44509e-21
1.26606e-21
-1.63459e-20
4.81696e-20
8.90794e-20
-3.43554e-20
-1.27827e-20
3.67238e-19
7.77577e-18
3.17681e-16
3.16567e-15
3.18402e-14
2.88616e-13
2.42722e-12
1.85571e-11
9.89253e-11
5.84866e-10
2.62332e-09
1.11799e-08
4.73794e-08
1.79947e-07
6.1097e-07
1.90984e-06
5.33347e-06
1.37061e-05
2.80317e-05
4.30509e-05
5.89267e-05
7.85219e-05
0.000103819
0.000142449
0.000220293
0.000404119
0.000839999
0.00180465
0.00370941
0.00644139
0.00706373
0.00341778
-0.0111716
-0.0854814
-0.351042
-1.01815
-2.53356
-4.45138
-4.94233
-1.34781
9.23305
12.4355
11.6661
9.41252
6.78625
4.3561
2.32634
1.02386
0.370743
0.119771
0.0397569
0.0139497
0.00482367
0.00143797
0.000153961
-2.47183e-40
-7.73837e-39
-5.5833e-39
-7.63837e-38
2.3827e-37
-6.54715e-37
2.15647e-36
-8.19855e-36
-3.78491e-35
1.09204e-34
-2.98205e-34
-1.37644e-33
-2.60858e-33
-9.20717e-34
-1.65608e-32
8.97003e-32
-4.42674e-31
4.20582e-31
-2.63386e-30
1.1916e-29
-1.39346e-29
-7.17944e-30
1.01491e-29
5.66492e-28
1.74124e-27
8.15718e-28
1.64794e-26
-7.35251e-27
1.02102e-25
4.69416e-25
-7.14267e-25
-3.35417e-24
1.46638e-23
-2.19809e-23
1.91432e-23
1.80388e-23
-4.53201e-22
-6.31707e-22
-2.25248e-21
2.61518e-21
1.1252e-20
-6.21874e-20
1.00994e-19
-7.83247e-20
-2.14387e-19
-5.82533e-19
1.28972e-17
3.16515e-16
3.15519e-15
3.17254e-14
2.89475e-13
2.43485e-12
1.86306e-11
9.94336e-11
5.87923e-10
2.63917e-09
1.12741e-08
4.78052e-08
1.81575e-07
6.16516e-07
1.92735e-06
5.38236e-06
1.38183e-05
2.81816e-05
4.31942e-05
5.90902e-05
7.8717e-05
0.000104074
0.000142908
0.000221364
0.000406745
0.000845819
0.00181725
0.00373097
0.00646163
0.00703781
0.00336487
-0.0114453
-0.0866357
-0.354234
-1.02534
-2.54784
-4.45896
-4.94474
-1.27472
9.26436
12.4344
11.6523
9.39578
6.77143
4.34387
2.31857
1.01986
0.369167
0.119275
0.0396119
0.0139027
0.00480779
0.00143325
0.000153421
1.76615e-39
1.32559e-38
-1.12114e-38
-2.51475e-38
-7.11089e-38
-1.19991e-36
1.83915e-36
-2.53908e-36
5.34624e-35
-8.3294e-35
-3.78002e-34
-1.88335e-34
-3.45549e-33
-7.05285e-33
6.6989e-33
-1.04455e-31
2.85591e-31
-7.69499e-31
1.50134e-32
-6.0395e-30
1.64233e-29
-9.36241e-29
1.52627e-28
-7.39798e-28
9.90652e-28
-1.18047e-27
-1.19202e-26
1.573e-28
-5.81057e-26
-1.78039e-25
1.92649e-24
4.88792e-25
-7.20305e-24
-1.07349e-23
1.00748e-24
1.60569e-22
-3.16177e-22
-4.16041e-24
-1.80047e-21
7.75133e-21
6.39338e-21
3.03992e-20
6.51583e-20
6.5371e-20
5.51061e-20
-1.40108e-18
9.67546e-18
3.20179e-16
3.15823e-15
3.16674e-14
2.90287e-13
2.44354e-12
1.87462e-11
1.00241e-10
5.92294e-10
2.66334e-09
1.14243e-08
4.84961e-08
1.84247e-07
6.25651e-07
1.95595e-06
5.46186e-06
1.39994e-05
2.8418e-05
4.34176e-05
5.93438e-05
7.90187e-05
0.000104466
0.000143626
0.000223049
0.000410873
0.000855374
0.0018368
0.003764
0.00649188
0.00699752
0.00328368
-0.011866
-0.0884001
-0.359081
-1.03622
-2.56923
-4.47004
-4.94829
-1.16497
9.31087
12.4323
11.6317
9.37074
6.74931
4.3257
2.30711
1.01397
0.366849
0.118556
0.0393977
0.0138333
0.0047844
0.00142632
0.000152627
1.53745e-39
-3.2808e-39
-3.00196e-38
1.46778e-38
3.31087e-37
-1.50125e-37
3.45595e-36
4.78686e-36
1.77023e-35
-4.41814e-35
2.15176e-34
8.99374e-34
2.26794e-33
7.86641e-33
-2.78817e-32
2.30002e-32
-3.98826e-31
2.44908e-31
-1.56102e-30
5.98646e-30
-1.43828e-29
-1.09431e-28
5.4872e-29
4.81524e-28
2.92134e-28
-9.42639e-28
-1.158e-26
5.08498e-26
2.23997e-25
-2.65224e-25
1.56222e-24
2.30451e-24
-3.04514e-24
2.07372e-23
3.79941e-24
-7.26391e-24
2.21089e-22
-4.72021e-22
2.45281e-21
3.14044e-21
3.69766e-21
-3.09704e-20
-6.77548e-20
4.41071e-20
3.3097e-19
-1.26092e-18
9.19844e-18
3.1152e-16
3.29644e-15
3.15557e-14
2.89216e-13
2.45187e-12
1.88873e-11
1.01322e-10
5.97691e-10
2.69387e-09
1.16202e-08
4.94123e-08
1.87826e-07
6.37985e-07
1.99491e-06
5.57114e-06
1.42505e-05
2.87318e-05
4.37058e-05
5.96661e-05
7.93967e-05
0.000104958
0.000144545
0.00022527
0.00041627
0.000867688
0.00186228
0.00380678
0.00653036
0.00694388
0.00317606
-0.0124245
-0.0907253
-0.365414
-1.05043
-2.59692
-4.48392
-4.9526
-1.02269
9.36898
12.4291
11.6049
9.33863
6.721
4.30221
2.29249
1.00651
0.363921
0.117648
0.0391274
0.0137458
0.0047549
0.00141758
0.000151629
1.37095e-39
9.61104e-39
2.77028e-38
-9.66942e-38
-4.09406e-37
-5.50442e-38
9.87926e-37
4.51636e-36
-1.19286e-35
-1.04663e-35
-4.51176e-34
3.4621e-34
2.15615e-33
1.02796e-32
-2.68649e-32
-1.21251e-32
-1.68704e-31
3.88097e-32
2.10269e-30
7.66022e-30
2.73938e-29
-4.44325e-29
-9.68697e-29
-9.40124e-28
-1.81157e-27
2.03062e-27
1.50885e-26
-1.23328e-26
1.74424e-26
-4.87235e-26
-8.6324e-26
1.07907e-24
5.7599e-24
-2.8752e-23
3.9602e-23
1.81725e-22
-3.21777e-22
6.80968e-22
-3.59157e-21
-5.65418e-21
1.69119e-21
5.49861e-21
-7.71114e-20
-1.04891e-19
-1.15932e-19
-1.39428e-19
1.0507e-17
3.14958e-16
2.98635e-15
3.12372e-14
2.88686e-13
2.45824e-12
1.90443e-11
1.02636e-10
6.02838e-10
2.72906e-09
1.1854e-08
5.05108e-08
1.92115e-07
6.52666e-07
2.04062e-06
5.69635e-06
1.45267e-05
2.90828e-05
4.40319e-05
6.00221e-05
7.97917e-05
0.000105439
0.00014549
0.000227828
0.000422684
0.000882
0.00189277
0.00385799
0.00657501
0.00687725
0.00304378
-0.0131087
-0.0935369
-0.372933
-1.06708
-2.62916
-4.49951
-4.95731
-0.857002
9.43493
12.4246
11.5735
9.30115
6.68819
4.27577
2.27564
0.997899
0.360556
0.116607
0.0388169
0.0136452
0.00472108
0.00140759
0.000150489
9.80078e-40
-1.33608e-38
-1.71712e-38
-8.2751e-38
3.97086e-37
-4.31081e-37
-2.71972e-36
-1.31443e-35
1.6842e-35
1.59012e-35
3.0758e-34
5.80323e-34
8.85934e-34
9.69005e-33
2.39486e-32
-8.77579e-32
3.98272e-32
4.66174e-32
-1.44531e-30
-5.66161e-30
9.55038e-30
-7.01525e-29
-1.72581e-28
5.5356e-28
-5.56715e-28
-7.87154e-27
1.35213e-27
2.10352e-27
-2.51065e-26
-1.26101e-25
7.30433e-25
7.43684e-25
4.02198e-24
1.11268e-24
-2.25989e-23
-4.93902e-23
3.03906e-22
-5.61865e-22
-1.06372e-21
-7.40432e-22
1.42833e-21
5.57603e-20
4.89246e-20
-2.51431e-19
-9.67598e-20
5.06263e-19
9.60182e-18
3.43701e-16
3.17849e-15
3.08794e-14
2.86237e-13
2.45575e-12
1.91582e-11
1.03887e-10
6.06544e-10
2.7594e-09
1.20913e-08
5.16877e-08
1.96811e-07