/*--------------------------------*- C++ -*----------------------------------*\
  =========                 |
  \\      /  F ield         | OpenFOAM: The Open Source CFD Toolbox
   \\    /   O peration     | Website:  https://openfoam.org
    \\  /    A nd           | Version:  10
     \\/     M anipulation  |
\*---------------------------------------------------------------------------*/
FoamFile
{
    format      ascii;
    class       volScalarField;
    location    "1";
    object      RR.C2H3;
}
// * * * * * * * * * * * * * * * * * * * * * * * * * * * * * * * * * * * * * //

dimensions      [1 -3 -1 0 0 0 0];

internalField   nonuniform List<scalar> 
4000
(
1.19278e-36
4.8592e-36
1.78277e-35
6.00359e-35
1.97855e-34
6.24066e-34
1.89087e-33
5.57559e-33
1.62098e-32
4.7385e-32
1.42708e-31
4.15238e-31
1.18714e-30
3.38868e-30
9.72801e-30
2.80711e-29
8.02711e-29
2.42904e-28
7.13399e-28
2.12133e-27
6.3341e-27
1.90056e-26
5.79023e-26
1.75137e-25
5.34462e-25
1.62489e-24
4.82115e-24
1.49437e-23
4.45552e-23
1.32896e-22
3.95601e-22
1.17155e-21
3.42963e-21
9.9818e-21
2.89845e-20
8.02889e-20
2.31285e-19
6.46506e-19
1.80197e-18
4.94594e-18
1.28438e-17
3.16167e-17
6.77564e-17
9.63198e-17
-1.62561e-16
-2.77281e-15
-2.10574e-14
-1.2691e-13
-6.48181e-13
-2.78331e-12
-9.86384e-12
-2.90338e-11
-6.69193e-11
-1.62239e-10
-4.4397e-10
-1.35281e-09
-4.05499e-09
-1.23137e-08
-3.54313e-08
-9.40728e-08
-2.23449e-07
-4.31807e-07
-6.4328e-07
-1.46524e-06
-5.00398e-06
-1.67051e-05
-5.28845e-05
-0.000146624
-0.000352144
-0.000745318
-0.00131806
-0.0016053
-0.000494561
0.00247997
0.00498509
-0.00107702
-0.00180501
-2.90894e-05
0.00158982
0.00128883
0.00019165
-0.000505621
-0.00054687
-0.000427044
-0.000317097
-0.000185359
-0.000102859
-5.70842e-05
-3.13976e-05
-1.69726e-05
-8.96177e-06
-4.47235e-06
-2.15089e-06
-9.76686e-07
-3.98487e-07
-1.62761e-07
-6.40303e-08
-2.15547e-08
-6.25303e-09
-1.1416e-09
1.66073e-36
8.27281e-36
2.71981e-35
8.46358e-35
2.58705e-34
7.74526e-34
2.26243e-33
6.53704e-33
1.80684e-32
4.96999e-32
1.37697e-31
3.86362e-31
1.09773e-30
3.16465e-30
9.27507e-30
2.76168e-29
8.31933e-29
2.54052e-28
7.8338e-28
2.42465e-27
7.53531e-27
2.35965e-26
7.35291e-26
2.28659e-25
7.11445e-25
2.19101e-24
6.71889e-24
2.04975e-23
6.19164e-23
1.84625e-22
5.55703e-22
1.69664e-21
4.99752e-21
1.43228e-20
4.08113e-20
1.16641e-19
3.23946e-19
9.11529e-19
2.4437e-18
6.53007e-18
1.68094e-17
3.98093e-17
8.03131e-17
8.1696e-17
-5.07808e-16
-5.49404e-15
-3.74297e-14
-2.0804e-13
-9.94034e-13
-4.07012e-12
-1.23315e-11
-3.08037e-11
-7.4464e-11
-1.77324e-10
-4.90678e-10
-1.51032e-09
-4.35498e-09
-1.28185e-08
-3.6052e-08
-9.37535e-08
-2.19814e-07
-4.21274e-07
-6.23037e-07
-1.37861e-06
-4.65558e-06
-1.54554e-05
-4.91069e-05
-0.000137693
-0.000333509
-0.000713867
-0.00128875
-0.0016182
-0.000584124
0.00235503
0.00504699
-0.00093219
-0.00182274
-4.95594e-05
0.00160291
0.00130353
0.00019173
-0.000515516
-0.000550887
-0.000428295
-0.000317474
-0.00018297
-0.00010147
-5.62582e-05
-3.08747e-05
-1.66464e-05
-8.76001e-06
-4.35416e-06
-2.08201e-06
-9.40867e-07
-3.80029e-07
-1.55822e-07
-6.06046e-08
-2.02127e-08
-5.82399e-09
-1.05666e-09
1.08433e-36
5.40388e-36
1.72784e-35
4.96003e-35
1.37911e-34
3.78049e-34
1.03291e-33
2.85898e-33
8.18871e-33
2.46362e-32
7.63915e-32
2.42791e-31
7.85062e-31
2.55673e-30
8.35406e-30
2.73225e-29
8.93955e-29
2.92494e-28
9.54621e-28
3.09727e-27
1.00142e-26
3.21435e-26
1.0239e-25
3.22966e-25
1.00737e-24
3.11137e-24
9.56051e-24
2.95283e-23
8.8755e-23
2.62931e-22
8.04328e-22
2.35193e-21
6.7419e-21
1.94755e-20
5.58962e-20
1.56503e-19
4.29434e-19
1.16917e-18
3.15583e-18
8.16938e-18
2.05934e-17
4.63984e-17
8.9156e-17
4.90797e-17
-9.31595e-16
-8.16096e-15
-5.31985e-14
-2.83306e-13
-1.2513e-12
-4.83207e-12
-1.42029e-11
-3.48826e-11
-8.25982e-11
-2.00465e-10
-5.44739e-10
-1.58989e-09
-4.5031e-09
-1.30912e-08
-3.63432e-08
-9.346e-08
-2.16833e-07
-4.12001e-07
-6.03303e-07
-1.30015e-06
-4.34909e-06
-1.43504e-05
-4.56874e-05
-0.000129392
-0.000318239
-0.000688463
-0.00125927
-0.00162621
-0.000667553
0.00222463
0.00509134
-0.000767803
-0.00184157
-6.70003e-05
0.00162235
0.00131993
0.000189158
-0.000530007
-0.000556551
-0.000429871
-0.000317121
-0.000179467
-9.94148e-05
-5.50074e-05
-3.01328e-05
-1.61757e-05
-8.46979e-06
-4.18761e-06
-1.98908e-06
-8.93169e-07
-3.57134e-07
-1.47157e-07
-5.66216e-08
-1.86879e-08
-5.34419e-09
-9.63784e-10
8.05758e-37
4.04278e-36
1.35289e-35
4.10726e-35
1.21918e-34
3.63906e-34
1.10304e-33
3.54391e-33
1.13391e-32
3.65105e-32
1.20527e-31
3.95065e-31
1.31968e-30
4.33117e-30
1.41954e-29
4.63458e-29
1.50654e-28
4.86951e-28
1.56311e-27
4.98804e-27
1.58263e-26
4.98903e-26
1.56118e-25
4.84026e-25
1.51293e-24
4.62457e-24
1.4029e-23
4.22325e-23
1.23961e-22
3.75095e-22
1.09549e-21
3.18166e-21
9.10365e-21
2.59819e-20
7.34967e-20
2.03252e-19
5.51007e-19
1.4955e-18
3.96389e-18
1.01805e-17
2.51527e-17
5.52973e-17
9.55092e-17
-1.39896e-17
-1.3902e-15
-1.16868e-14
-7.14307e-14
-3.577e-13
-1.58877e-12
-5.28775e-12
-1.50022e-11
-3.96726e-11
-9.24736e-11
-2.22531e-10
-6.10096e-10
-1.62703e-09
-4.62933e-09
-1.33123e-08
-3.65623e-08
-9.29757e-08
-2.13917e-07
-4.04328e-07
-5.89765e-07
-1.24473e-06
-4.12128e-06
-1.35034e-05
-4.30503e-05
-0.000122841
-0.000304428
-0.00066449
-0.0012306
-0.00163498
-0.00074479
0.00210455
0.0051138
-0.000671084
-0.00185031
-7.0409e-05
0.0016453
0.00133257
0.000183107
-0.000544499
-0.000563118
-0.000429346
-0.000314154
-0.000175426
-9.71898e-05
-5.37698e-05
-2.94735e-05
-1.56187e-05
-8.15367e-06
-4.022e-06
-1.89942e-06
-8.47274e-07
-3.35718e-07
-1.38974e-07
-5.29179e-08
-1.7303e-08
-4.9104e-09
-8.804e-10
1.22008e-36
6.22072e-36
2.14308e-35
6.74965e-35
2.07944e-34
6.40934e-34
1.99103e-33
6.23377e-33
1.95213e-32
6.32044e-32
2.01999e-31
6.51163e-31
2.12923e-30
6.85621e-30
2.24853e-29
7.22305e-29
2.30736e-28
7.48866e-28
2.38466e-27
7.54743e-27
2.37274e-26
7.39087e-26
2.28377e-25
7.00467e-25
2.13522e-24
6.44873e-24
1.92959e-23
5.82252e-23
1.71596e-22
5.00674e-22
1.4509e-21
4.274e-21
1.20678e-20
3.40803e-20
9.45374e-20
2.60158e-19
6.94868e-19
1.81658e-18
4.81876e-18
1.23098e-17
2.95495e-17
6.3624e-17
9.73361e-17
-1.00148e-16
-2.05102e-15
-1.56118e-14
-8.92281e-14
-4.56373e-13
-1.70672e-12
-5.51139e-12
-1.68371e-11
-4.30304e-11
-1.00117e-10
-2.50118e-10
-6.26456e-10
-1.68029e-09
-4.76414e-09
-1.35422e-08
-3.67486e-08
-9.27022e-08
-2.11833e-07
-3.9835e-07
-5.78326e-07
-1.20151e-06
-3.94524e-06
-1.28728e-05
-4.12548e-05
-0.000118327
-0.000294908
-0.000647345
-0.00121023
-0.00163796
-0.000800796
0.00201014
0.00513184
-0.000546476
-0.0018646
-7.69529e-05
0.00166595
0.00134414
0.000177165
-0.000558922
-0.000568666
-0.000430803
-0.000311913
-0.000172774
-9.56302e-05
-5.28332e-05
-2.89014e-05
-1.52809e-05
-7.94707e-06
-3.90737e-06
-1.83512e-06
-8.12975e-07
-3.20371e-07
-1.32858e-07
-5.01115e-08
-1.6257e-08
-4.58124e-09
-8.17628e-10
2.1298e-36
1.1273e-35
3.95622e-35
1.27557e-34
4.01475e-34
1.25616e-33
3.9286e-33
1.2311e-32
3.86451e-32
1.21659e-31
3.82396e-31
1.19513e-30
3.83046e-30
1.20417e-29
3.77668e-29
1.19971e-28
3.76268e-28
1.17864e-27
3.69604e-27
1.14157e-26
3.57935e-26
1.09282e-25
3.31067e-25
9.94417e-25
2.99404e-24
9.05984e-24
2.67188e-23
7.77486e-23
2.30202e-22
6.60953e-22
1.88772e-21
5.51497e-21
1.53828e-20
4.26263e-20
1.16454e-19
3.16027e-19
8.36549e-19
2.15855e-18
5.69317e-18
1.48568e-17
3.44872e-17
7.05656e-17
9.53118e-17
-2.08353e-16
-2.85187e-15
-1.96251e-14
-1.14185e-13
-4.91437e-13
-1.82263e-12
-6.22181e-12
-1.83416e-11
-4.52346e-11
-1.02155e-10
-2.57263e-10
-6.52596e-10
-1.74175e-09
-4.85708e-09
-1.37111e-08
-3.68234e-08
-9.21679e-08
-2.09537e-07
-3.93105e-07
-5.69756e-07
-1.16845e-06
-3.81685e-06
-1.24034e-05
-3.97047e-05
-0.000114306
-0.000286982
-0.000634675
-0.00119512
-0.00164056
-0.000843373
0.00194331
0.0051375
-0.000449986
-0.00187759
-8.50369e-05
0.00168121
0.00135514
0.00017309
-0.000570135
-0.000573233
-0.00043238
-0.000310169
-0.00017111
-9.46339e-05
-5.22166e-05
-2.85094e-05
-1.50541e-05
-7.80509e-06
-3.83008e-06
-1.79134e-06
-7.89066e-07
-3.10137e-07
-1.28681e-07
-4.81775e-08
-1.55342e-08
-4.3536e-09
-7.74005e-10
3.48338e-36
1.78602e-35
6.35336e-35
2.03531e-34
6.32002e-34
1.9958e-33
6.18751e-33
1.92706e-32
6.01533e-32
1.87799e-31
5.86865e-31
1.83508e-30
5.73521e-30
1.78921e-29
5.58456e-29
1.74554e-28
5.46117e-28
1.69048e-27
5.21318e-27
1.61897e-26
4.95109e-26
1.50378e-25
4.53674e-25
1.35806e-24
4.02775e-24
1.18222e-23
3.47336e-23
9.90331e-23
2.91747e-22
8.44289e-22
2.39115e-21
6.73242e-21
1.87814e-20
5.19653e-20
1.40025e-19
3.79139e-19
1.02058e-18
2.6095e-18
6.85571e-18
1.70142e-17
3.91295e-17
7.79202e-17
8.76796e-17
-3.18276e-16
-3.67124e-15
-2.43694e-14
-1.28997e-13
-5.05168e-13
-2.02252e-12
-6.87687e-12
-1.94853e-11
-4.65635e-11
-1.03846e-10
-2.62913e-10
-6.70008e-10
-1.78643e-09
-4.93092e-09
-1.379e-08
-3.6781e-08
-9.15429e-08
-2.07264e-07
-3.88154e-07
-5.62296e-07
-1.13949e-06
-3.70823e-06
-1.20263e-05
-3.85232e-05
-0.00011118
-0.000280568
-0.000623149
-0.00118052
-0.00164076
-0.000882071
0.00187651
0.00513758
-0.000346766
-0.00189112
-0.000100765
0.00169108
0.001368
0.000173094
-0.000578269
-0.000577393
-0.000434166
-0.000309202
-0.000170233
-9.40967e-05
-5.18722e-05
-2.82806e-05
-1.49205e-05
-7.71806e-06
-3.7827e-06
-1.764e-06
-7.73514e-07
-3.03598e-07
-1.25964e-07
-4.69057e-08
-1.5057e-08
-4.20308e-09
-7.45149e-10
5.0473e-36
2.6058e-35
9.19492e-35
2.97211e-34
9.35761e-34
2.92273e-33
9.10501e-33
2.83461e-32
8.82277e-32
2.74523e-31
8.53111e-31
2.65085e-30
8.24575e-30
2.56333e-29
7.92669e-29
2.44994e-28
7.56928e-28
2.32681e-27
7.12663e-27
2.17562e-26
6.61673e-26
1.99469e-25
5.96999e-25
1.77308e-24
5.22952e-24
1.53287e-23
4.45429e-23
1.27426e-22
3.59185e-22
1.01399e-21
2.90052e-21
8.24876e-21
2.28014e-20
6.22639e-20
1.66061e-19
4.42903e-19
1.17759e-18
2.97869e-18
7.76493e-18
1.91967e-17
4.36355e-17
8.3046e-17
7.61514e-17
-4.72989e-16
-4.74623e-15
-2.96216e-14
-1.37529e-13
-5.74708e-13
-2.25297e-12
-7.44969e-12
-2.05642e-11
-4.75652e-11
-1.04848e-10
-2.67314e-10
-6.84106e-10
-1.81694e-09
-4.97466e-09
-1.38072e-08
-3.65831e-08
-9.05994e-08
-2.04557e-07
-3.83093e-07
-5.55352e-07
-1.11012e-06
-3.59441e-06
-1.16298e-05
-3.73902e-05
-0.000108184
-0.000274202
-0.000611583
-0.00116549
-0.00164062
-0.00092225
0.00180268
0.00512999
-0.000221904
-0.00190625
-0.000127154
0.00169469
0.001384
0.000177757
-0.000583401
-0.000581309
-0.000436275
-0.000309183
-0.000170046
-9.39553e-05
-5.17608e-05
-2.81917e-05
-1.4865e-05
-7.67712e-06
-3.75958e-06
-1.74974e-06
-7.64747e-07
-2.9997e-07
-1.24417e-07
-4.61566e-08
-1.47705e-08
-4.11174e-09
-7.27537e-10
6.67591e-36
3.46008e-35
1.22625e-34
3.9695e-34
1.25202e-33
3.91215e-33
1.21702e-32
3.78041e-32
1.17311e-31
3.65795e-31
1.13318e-30
3.50337e-30
1.08148e-29
3.35557e-29
1.03179e-28
3.1666e-28
9.71336e-28
2.96688e-27
8.99691e-27
2.76718e-26
8.35761e-26
2.47412e-25
7.48746e-25
2.19862e-24
6.44963e-24
1.89613e-23
5.48893e-23
1.57612e-22
4.47543e-22
1.25728e-21
3.47697e-21
9.76925e-21
2.67988e-20
7.31029e-20
1.95398e-19
5.16129e-19
1.34781e-18
3.37403e-18
8.72347e-18
2.13715e-17
4.74743e-17
8.80285e-17
5.9801e-17
-6.76265e-16
-5.34538e-15
-2.87511e-14
-1.49265e-13
-6.57066e-13
-2.49227e-12
-8.06239e-12
-2.14459e-11
-4.83188e-11
-1.05571e-10
-2.70224e-10
-6.92766e-10
-1.83435e-09
-4.98758e-09
-1.37486e-08
-3.62149e-08
-8.92958e-08
-2.01003e-07
-3.76557e-07
-5.47325e-07
-1.07342e-06
-3.4652e-06
-1.11921e-05
-3.59674e-05
-0.000104687
-0.000266403
-0.000597492
-0.00114553
-0.00164075
-0.000969284
0.00171835
0.00511471
-7.17502e-05
-0.00192367
-0.000164103
0.00169233
0.00140371
0.000187451
-0.000585761
-0.000585154
-0.000438759
-0.000310089
-0.00017045
-9.41492e-05
-5.18449e-05
-2.82194e-05
-1.48735e-05
-7.67367e-06
-3.75589e-06
-1.74584e-06
-7.61386e-07
-2.98518e-07
-1.2379e-07
-4.58132e-08
-1.46312e-08
-4.06565e-09
-7.18474e-10
8.20853e-36
4.39045e-35
1.53919e-34
4.95267e-34
1.58014e-33
4.93061e-33
1.5393e-32
4.78719e-32
1.4856e-31
4.60002e-31
1.42313e-30
4.4171e-30
1.35992e-29
4.18503e-29
1.28805e-28
3.89557e-28
1.22514e-27
3.71372e-27
1.12546e-26
3.39073e-26
1.009e-25
3.05755e-25
9.04308e-25
2.66195e-24
7.77392e-24
2.25682e-23
6.51089e-23
1.85508e-22
5.33178e-22
1.50452e-21
4.18812e-21
1.14723e-20
3.10751e-20
8.34726e-20
2.20955e-19
5.78328e-19
1.48242e-18
3.72431e-18
9.62742e-18
2.32179e-17
5.07212e-17
9.09646e-17
4.45e-17
-7.43612e-16
-5.5885e-15
-3.41059e-14
-1.7028e-13
-7.33832e-13
-2.75271e-12
-8.63185e-12
-2.235e-11
-4.92958e-11
-1.06595e-10
-2.70663e-10
-6.96679e-10
-1.84351e-09
-4.97873e-09
-1.36453e-08
-3.57781e-08
-8.79563e-08
-1.97699e-07
-3.70435e-07
-5.39369e-07
-1.0376e-06
-3.33408e-06
-1.07543e-05
-3.4685e-05
-0.000101324
-0.000258649
-0.000582051
-0.00113868
-0.00163588
-0.00101412
0.00162277
0.00507948
0.000120379
-0.00194591
-0.000216189
0.00168435
0.00142755
0.000201874
-0.000585856
-0.000588967
-0.000441582
-0.000311766
-0.000171324
-9.46097e-05
-5.2084e-05
-2.83394e-05
-1.49321e-05
-7.69947e-06
-3.76737e-06
-1.74991e-06
-7.62217e-07
-2.98764e-07
-1.23872e-07
-4.57818e-08
-1.46041e-08
-4.05389e-09
-7.15872e-10
9.97186e-36
5.27475e-35
1.85904e-34
6.02015e-34
1.89955e-33
5.93594e-33
1.84808e-32
5.74175e-32
1.77781e-31
5.49535e-31
1.72484e-30
5.32145e-30
1.63679e-29
5.0553e-29
1.55586e-28
4.78755e-28
1.46089e-27
4.42955e-27
1.33351e-26
4.02391e-26
1.18657e-25
3.59145e-25
1.05786e-24
3.10344e-24
8.92888e-24
2.62018e-23
7.46987e-23
2.12736e-22
6.08338e-22
1.71472e-21
4.76325e-21
1.30241e-20
3.50069e-20
9.4461e-20
2.47203e-19
6.41658e-19
1.64486e-18
4.07097e-18
1.05683e-17
2.49347e-17
5.3752e-17
9.29215e-17
3.5539e-17
-8.06439e-16
-6.676e-15
-3.91556e-14
-1.92722e-13
-8.24367e-13
-3.01782e-12
-9.27399e-12
-2.35897e-11
-5.15575e-11
-1.15752e-10
-2.61786e-10
-6.96625e-10
-1.84439e-09
-4.94729e-09
-1.34812e-08
-3.51671e-08
-8.60404e-08
-1.9335e-07
-3.64197e-07
-5.3348e-07
-1.00466e-06
-3.21224e-06
-1.03421e-05
-3.34267e-05
-9.80917e-05
-0.000251889
-0.000569092
-0.00111901
-0.0016306
-0.00106011
0.00152324
0.00504362
0.000321431
-0.00196632
-0.000270953
0.00167152
0.00145239
0.000219305
-0.000584054
-0.000592684
-0.000444641
-0.000314063
-0.00017256
-9.52702e-05
-5.24383e-05
-2.85289e-05
-1.50285e-05
-7.74733e-06
-3.79014e-06
-1.75992e-06
-7.66185e-07
-3.0025e-07
-1.24481e-07
-4.59801e-08
-1.46595e-08
-4.06728e-09
-7.1799e-10
1.17085e-35
6.12375e-35
2.16206e-34
6.99658e-34
2.2049e-33
6.88397e-33
2.14327e-32
6.67332e-32
2.06917e-31
6.46397e-31
2.00648e-30
6.20533e-30
1.91031e-29
5.89992e-29
1.82165e-28
5.56649e-28
1.69432e-27
5.13869e-27
1.54973e-26
4.64803e-26
1.38513e-25
4.09232e-25
1.21209e-24
3.54026e-24
1.02684e-23
2.95239e-23
8.45425e-23
2.36584e-22
6.80145e-22
1.89656e-21
5.1785e-21
1.43291e-20
3.89476e-20
1.03869e-19
2.75497e-19
7.09216e-19
1.78691e-18
4.42072e-18
1.11154e-17
2.67505e-17
5.65861e-17
9.47566e-17
2.07286e-17
-9.74107e-16
-7.66435e-15
-4.39129e-14
-2.1281e-13
-8.97277e-13
-3.22934e-12
-9.73175e-12
-2.42455e-11
-5.20346e-11
-1.13221e-10
-2.60496e-10
-6.97703e-10
-1.84004e-09
-4.90185e-09
-1.32988e-08
-3.45709e-08
-8.45591e-08
-1.89717e-07
-3.57944e-07
-5.2674e-07
-9.73443e-07
-3.09806e-06
-9.95933e-06
-3.22506e-05
-9.50033e-05
-0.000245442
-0.000557439
-0.00109867
-0.00162683
-0.00110762
0.0014248
0.00499688
0.000527581
-0.00198705
-0.000330304
0.00165515
0.00147837
0.000238938
-0.000580738
-0.000596242
-0.000447824
-0.000316764
-0.000174077
-9.60999e-05
-5.28927e-05
-2.87739e-05
-1.51539e-05
-7.81214e-06
-3.82187e-06
-1.77464e-06
-7.72558e-07
-3.02662e-07
-1.25473e-07
-4.63427e-08
-1.47733e-08
-4.09835e-09
-7.23426e-10
1.28375e-35
6.89165e-35
2.44312e-34
7.89591e-34
2.48917e-33
7.78089e-33
2.42611e-32
7.55107e-32
2.35605e-31
7.3386e-31
2.27904e-30
7.05205e-30
2.16885e-29
6.72933e-29
2.05723e-28
6.26233e-28
1.88216e-27
5.82105e-27
1.74789e-26
5.24795e-26
1.56261e-25
4.62473e-25
1.36129e-24
3.97267e-24
1.14909e-23
3.28838e-23
9.29519e-23
2.61014e-22
7.31734e-22
2.10409e-21
5.74293e-21
1.57817e-20
4.2381e-20
1.13738e-19
2.96635e-19
7.59331e-19
1.90055e-18
4.68405e-18
1.17176e-17
2.82377e-17
5.94024e-17
9.6486e-17
-4.89283e-19
-1.17705e-15
-8.52142e-15
-4.81795e-14
-2.31017e-13
-9.53828e-13
-3.36797e-12
-9.96078e-12
-2.43685e-11
-5.1543e-11
-1.11202e-10
-2.55043e-10
-6.99394e-10
-1.83406e-09
-4.84774e-09
-1.30856e-08
-3.39386e-08
-8.29061e-08
-1.86362e-07
-3.52216e-07
-5.20578e-07
-9.43185e-07
-2.98586e-06
-9.58397e-06
-3.10917e-05
-9.18911e-05
-0.000238496
-0.000544655
-0.00108021
-0.00162235
-0.00115144
0.00132373
0.00493539
0.000755833
-0.00200924
-0.000394398
0.00163553
0.0015043
0.000260581
-0.000576066
-0.000599926
-0.000451227
-0.000319781
-0.000175776
-9.70253e-05
-5.34016e-05
-2.90554e-05
-1.52999e-05
-7.88814e-06
-3.85863e-06
-1.7918e-06
-7.80249e-07
-3.05591e-07
-1.26707e-07
-4.6818e-08
-1.49289e-08
-4.14238e-09
-7.313e-10
1.35543e-35
7.77676e-35
2.73049e-34
8.82285e-34
2.78495e-33
8.73057e-33
2.73127e-32
8.50685e-32
2.64348e-31
8.20072e-31
2.5372e-30
7.79851e-30
2.43967e-29
7.49771e-29
2.29375e-28
6.90571e-28
2.13396e-27
6.43103e-27
1.93361e-26
5.76585e-26
1.70465e-25
5.00627e-25
1.48851e-24
4.32511e-24
1.24861e-23
3.55932e-23
1.02301e-22
2.88283e-22
8.05005e-22
2.23921e-21
6.16539e-21
1.69528e-20
4.5478e-20
1.20186e-19
3.13662e-19
8.01027e-19
2.01664e-18
4.91044e-18
1.24434e-17
2.96259e-17
6.14019e-17
9.73115e-17
-2.11321e-17
-1.33546e-15
-9.34372e-15
-5.20169e-14
-2.44605e-13
-9.94657e-13
-3.46212e-12
-1.00928e-11
-2.43496e-11
-5.08173e-11
-1.09058e-10
-2.49857e-10
-6.98813e-10
-1.8263e-09
-4.79842e-09
-1.29089e-08
-3.33961e-08
-8.13407e-08
-1.82751e-07
-3.46851e-07
-5.15606e-07
-9.16735e-07
-2.88637e-06
-9.25085e-06
-3.00731e-05
-8.92214e-05
-0.000232176
-0.000532524
-0.00106197
-0.00161547
-0.00119218
0.0012302
0.00487275
0.000977184
-0.00203013
-0.000458197
0.00161338
0.00153038
0.000282904
-0.000570557
-0.000603366
-0.000454597
-0.000322859
-0.000177532
-9.79799e-05
-5.39264e-05
-2.9345e-05
-1.54502e-05
-7.96767e-06
-3.89785e-06
-1.81056e-06
-7.8888e-07
-3.08926e-07
-1.28088e-07
-4.7355e-08
-1.51062e-08
-4.19297e-09
-7.40408e-10
1.62657e-35
8.4279e-35
2.97924e-34
9.65537e-34
3.04585e-33
9.52819e-33
2.99514e-32
9.30407e-32
2.87598e-31
8.95186e-31
2.79036e-30
8.60609e-30
2.64939e-29
8.14314e-29
2.49926e-28
7.59307e-28
2.28264e-27
6.99734e-27
2.09239e-26
6.24507e-26
1.86132e-25
5.49027e-25
1.61036e-24
4.68668e-24
1.35034e-23
3.84294e-23
1.09308e-22
3.0586e-22
8.50767e-22
2.39302e-21
6.58261e-21
1.80375e-20
4.79205e-20
1.26431e-19
3.24711e-19
8.21509e-19
2.11565e-18
5.12993e-18
1.29109e-17
3.00343e-17
6.41571e-17
9.79869e-17
-4.35491e-17
-1.42611e-15
-9.99059e-15
-5.48214e-14
-2.54973e-13
-1.02581e-12
-3.53214e-12
-1.01798e-11
-2.42603e-11
-5.01543e-11
-1.07248e-10
-2.45678e-10
-6.9621e-10
-1.81437e-09
-4.73974e-09
-1.2718e-08
-3.28234e-08
-7.9952e-08
-1.79588e-07
-3.41778e-07
-5.11033e-07
-8.93468e-07
-2.79591e-06
-8.94472e-06
-2.91178e-05
-8.66765e-05
-0.000228671
-0.000521943
-0.0010458
-0.00160883
-0.00122771
0.00114349
0.00481089
0.00118548
-0.00204801
-0.000517445
0.00159231
0.00155398
0.000303836
-0.000564834
-0.000606416
-0.000457659
-0.000325712
-0.000179189
-9.88833e-05
-5.44243e-05
-2.96207e-05
-1.55934e-05
-8.04351e-06
-3.93511e-06
-1.82841e-06
-7.97146e-07
-3.12089e-07
-1.29415e-07
-4.78782e-08
-1.52806e-08
-4.24318e-09
-7.49499e-10
1.75008e-35
9.07753e-35
3.21063e-34
1.04089e-33
3.29548e-33
1.03164e-32
3.21896e-32
1.00236e-31
3.11291e-31
9.62045e-31
2.97048e-30
9.20552e-30
2.8333e-29
8.70822e-29
2.67248e-28
8.15174e-28
2.45557e-27
7.47592e-27
2.23113e-26
6.63945e-26
1.98255e-25
5.84029e-25
1.71264e-24
4.98142e-24
1.43125e-23
4.06254e-23
1.15663e-22
3.22623e-22
8.8839e-22
2.50115e-21
6.80135e-21
1.85684e-20
4.98793e-20
1.31158e-19
3.39826e-19
8.71469e-19
2.18691e-18
5.48212e-18
1.35396e-17
3.18334e-17
6.55662e-17
9.83338e-17
-5.68968e-17
-1.49971e-15
-1.0483e-14
-5.70629e-14
-2.62967e-13
-1.04897e-12
-3.58129e-12
-1.02325e-11
-2.41799e-11
-4.96289e-11
-1.05699e-10
-2.42232e-10
-6.93278e-10
-1.8027e-09
-4.68692e-09
-1.25359e-08
-3.23183e-08
-7.86679e-08
-1.76928e-07
-3.3767e-07
-5.07312e-07
-8.74343e-07
-2.71897e-06
-8.67904e-06
-2.82594e-05
-8.42396e-05
-0.000222551
-0.000512425
-0.00103193
-0.00160303
-0.0012573
0.00107031
0.00475455
0.00136437
-0.00206265
-0.000567701
0.00157338
0.00157373
0.000322008
-0.000559481
-0.000608917
-0.000460278
-0.000328178
-0.000180648
-9.968e-05
-5.48644e-05
-2.98651e-05
-1.57209e-05
-8.11189e-06
-3.96868e-06
-1.84459e-06
-8.04685e-07
-3.14976e-07
-1.30624e-07
-4.83567e-08
-1.54408e-08
-4.2894e-09
-7.57887e-10
1.75447e-35
9.55822e-35
3.38343e-34
1.0962e-33
3.46108e-33
1.08442e-32
3.39071e-32
1.05806e-31
3.28468e-31
1.01383e-30
3.15109e-30
9.69923e-30
2.98176e-29
9.15567e-29
2.80404e-28
8.55154e-28
2.61648e-27
7.88802e-27
2.36131e-26
7.02431e-26
2.09537e-25
6.12562e-25
1.80524e-24
5.22113e-24
1.50014e-23
4.27223e-23
1.20484e-22
3.4042e-22
9.38849e-22
2.58913e-21
7.08696e-21
1.95177e-20
5.18274e-20
1.36013e-19
3.51832e-19
9.04655e-19
2.28548e-18
5.64869e-18
1.38692e-17
3.2087e-17
6.63177e-17
9.85116e-17
-5.21612e-17
-1.56652e-15
-1.09276e-14
-5.88065e-14
-2.69104e-13
-1.06658e-12
-3.61796e-12
-1.02686e-11
-2.41052e-11
-4.92146e-11
-1.04589e-10
-2.39743e-10
-6.9053e-10
-1.79267e-09
-4.64349e-09
-1.24041e-08
-3.19513e-08
-7.77402e-08
-1.74877e-07
-3.34143e-07
-5.03861e-07
-8.58735e-07
-2.65955e-06
-8.4803e-06
-2.76374e-05
-8.25623e-05
-0.000218693
-0.000505435
-0.00102154
-0.00159784
-0.00127974
0.00101336
0.0047078
0.00150571
-0.00207371
-0.000607496
0.00155748
0.00158912
0.000336735
-0.000554829
-0.000610919
-0.000462396
-0.000330167
-0.000181841
-0.000100331
-5.52239e-05
-3.00648e-05
-1.58251e-05
-8.16758e-06
-3.99594e-06
-1.85766e-06
-8.10766e-07
-3.17344e-07
-1.31606e-07
-4.8748e-08
-1.55723e-08
-4.32752e-09
-7.6482e-10
1.88614e-35
9.82649e-35
3.4686e-34
1.13792e-33
3.58601e-33
1.12214e-32
3.5012e-32
1.09157e-31
3.39856e-31
1.05362e-30
3.25697e-30
1.0045e-29
3.09426e-29
9.53322e-29
2.9345e-28
8.95489e-28
2.71813e-27
8.20613e-27
2.46239e-26
7.33869e-26
2.17155e-25
6.37418e-25
1.85737e-24
5.36616e-24
1.54925e-23
4.41267e-23
1.25022e-22
3.48478e-22
9.81468e-22
2.68816e-21
7.30379e-21
1.95971e-20
5.30289e-20
1.38511e-19
3.62896e-19
9.3439e-19
2.34276e-18
5.68403e-18
1.38885e-17
3.28119e-17
6.63543e-17
9.86279e-17
-5.72375e-17
-1.60813e-15
-1.12551e-14
-6.00821e-14
-2.73535e-13
-1.07932e-12
-3.64492e-12
-1.02976e-11
-2.40604e-11
-4.89218e-11
-1.03847e-10
-2.38044e-10
-6.88599e-10
-1.7858e-09
-4.61435e-09
-1.23109e-08
-3.16898e-08
-7.70831e-08
-1.73454e-07
-3.31832e-07
-5.01685e-07
-8.48594e-07
-2.61987e-06
-8.34714e-06
-2.72218e-05
-8.14441e-05
-0.000216119
-0.0005006
-0.0010138
-0.00159404
-0.00129515
0.000973401
0.00467399
0.00160518
-0.00208114
-0.000635484
0.00154577
0.00159985
0.000347219
-0.000551393
-0.000612303
-0.00046389
-0.000331573
-0.000182696
-0.000100798
-5.54819e-05
-3.02083e-05
-1.58999e-05
-8.20769e-06
-4.01563e-06
-1.86717e-06
-8.1523e-07
-3.19064e-07
-1.32324e-07
-4.90335e-08
-1.56683e-08
-4.35532e-09
-7.69879e-10
1.91013e-35
1.01634e-34
3.57599e-34
1.1578e-33
3.65966e-33
1.15006e-32
3.59223e-32
1.11986e-31
3.48704e-31
1.08366e-30
3.35645e-30
1.03648e-29
3.19116e-29
9.80164e-29
3.00862e-28
9.17178e-28
2.78102e-27
8.39383e-27
2.50795e-26
7.43891e-26
2.20139e-25
6.45021e-25
1.90078e-24
5.4624e-24
1.58427e-23
4.4871e-23
1.26906e-22
3.58384e-22
9.95139e-22
2.74008e-21
7.44932e-21
2.04586e-20
5.3901e-20
1.40843e-19
3.69278e-19
9.34631e-19
2.36912e-18
5.74931e-18
1.44323e-17
3.33313e-17
6.7477e-17
9.87202e-17
-6.01689e-17
-1.66631e-15
-1.14099e-14
-6.08489e-14
-2.76459e-13
-1.0879e-12
-3.66318e-12
-1.03183e-11
-2.40404e-11
-4.87726e-11
-1.03429e-10
-2.37116e-10
-6.87728e-10
-1.7826e-09
-4.60028e-09
-1.22653e-08
-3.15583e-08
-7.67448e-08
-1.7271e-07
-3.30658e-07
-5.00585e-07
-8.43384e-07
-2.59918e-06
-8.27745e-06
-2.70015e-05
-8.08436e-05
-0.00021473
-0.000497979
-0.00100996
-0.00159213
-0.00130345
0.00095232
0.00465568
0.00165794
-0.00208503
-0.000650354
0.00153944
0.00160551
0.000352883
-0.000549464
-0.000613038
-0.0004647
-0.000332338
-0.000183166
-0.000101054
-5.56236e-05
-3.0287e-05
-1.59411e-05
-8.2297e-06
-4.02643e-06
-1.87241e-06
-8.17674e-07
-3.19998e-07
-1.32714e-07
-4.91889e-08
-1.57205e-08
-4.37046e-09
-7.72634e-10
1.94693e-35
1.02672e-34
3.62423e-34
1.17481e-33
3.70974e-33
1.16114e-32
3.62167e-32
1.12853e-31
3.5164e-31
1.09915e-30
3.40449e-30
1.05131e-29
3.22847e-29
9.72236e-29
3.07417e-28
9.31263e-28
2.81966e-27
8.49289e-27
2.54519e-26
7.58622e-26
2.24793e-25
6.61211e-25
1.93018e-24
5.57964e-24
1.58751e-23
4.57892e-23
1.28885e-22
3.61879e-22
1.0162e-21
2.81435e-21
7.6488e-21
2.07027e-20
5.46496e-20
1.45637e-19
3.76264e-19
9.49503e-19
2.40906e-18
5.8469e-18
1.45002e-17
3.30856e-17
6.79512e-17
9.87098e-17
-6.89024e-17
-1.67746e-15
-1.15076e-14
-6.13276e-14
-2.78226e-13
-1.09321e-12
-3.67536e-12
-1.03361e-11
-2.40432e-11
-4.87179e-11
-1.03278e-10
-2.36818e-10
-6.87982e-10
-1.78272e-09
-4.59833e-09
-1.22568e-08
-3.15319e-08
-7.66754e-08
-1.72557e-07
-3.30411e-07
-5.00374e-07
-8.42404e-07
-2.59534e-06
-8.26487e-06
-2.69627e-05
-8.07395e-05
-0.00021449
-0.000497539
-0.0010093
-0.0015918
-0.0013046
0.000948938
0.00465276
0.00166639
-0.00208552
-0.000652656
0.00153844
0.00160636
0.000353755
-0.000549158
-0.000613145
-0.000464822
-0.000332455
-0.000183238
-0.000101093
-5.56452e-05
-3.02989e-05
-1.59473e-05
-8.23302e-06
-4.02803e-06
-1.87318e-06
-8.18031e-07
-3.20143e-07
-1.32772e-07
-4.92112e-08
-1.57278e-08
-4.37252e-09
-7.73003e-10
1.93545e-35
1.02704e-34
3.64775e-34
1.18135e-33
3.73491e-33
1.17126e-32
3.6606e-32
1.14159e-31
3.55276e-31
1.10298e-30
3.41572e-30
1.05515e-29
3.24748e-29
9.90292e-29
3.0804e-28
9.3572e-28
2.82982e-27
8.42545e-27
2.57009e-26
7.61745e-26
2.26563e-25
6.66306e-25
1.94778e-24
5.65418e-24
1.62301e-23
4.61141e-23
1.29825e-22
3.67352e-22
1.02159e-21
2.81931e-21
7.71237e-21
2.0759e-20
5.57046e-20
1.45563e-19
3.7917e-19
9.60925e-19
2.41858e-18
5.91765e-18
1.45739e-17
3.36023e-17
6.80358e-17
9.8757e-17
-7.39789e-17
-1.69386e-15
-1.14876e-14
-6.15382e-14
-2.78998e-13
-1.09584e-12
-3.6832e-12
-1.03555e-11
-2.40835e-11
-4.87984e-11
-1.03479e-10
-2.37336e-10
-6.89858e-10
-1.78755e-09
-4.61338e-09
-1.22989e-08
-3.16423e-08
-7.69427e-08
-1.73122e-07
-3.31297e-07
-5.01172e-07
-8.46302e-07
-2.61073e-06
-8.31619e-06
-2.7123e-05
-8.11703e-05
-0.000215477
-0.000499401
-0.00101201
-0.00159326
-0.00129854
0.000964396
0.00466612
0.00162774
-0.00208275
-0.000641825
0.00154315
0.00160223
0.000349643
-0.000550557
-0.000612609
-0.000464236
-0.000331901
-0.000182897
-0.000100907
-5.55421e-05
-3.02415e-05
-1.59173e-05
-8.21684e-06
-4.02011e-06
-1.86932e-06
-8.16205e-07
-3.19428e-07
-1.32475e-07
-4.90918e-08
-1.56873e-08
-4.36071e-09
-7.70845e-10
1.96816e-35
1.01795e-34
3.59749e-34
1.16723e-33
3.69553e-33
1.16098e-32
3.63286e-32
1.13324e-31
3.5243e-31
1.09244e-30
3.37383e-30
1.03823e-29
3.18803e-29
9.79125e-29
3.00736e-28
9.16545e-28
2.75785e-27
8.33299e-27
2.52188e-26
7.50011e-26
2.20566e-25
6.58781e-25
1.91509e-24
5.61296e-24
1.60592e-23
4.54695e-23
1.27641e-22
3.63229e-22
1.00607e-21
2.77668e-21
7.56086e-21
2.02528e-20
5.55663e-20
1.44507e-19
3.69524e-19
9.31549e-19
2.3825e-18
5.68272e-18
1.42248e-17
3.3481e-17
6.73391e-17
9.88234e-17
-6.48184e-17
-1.6942e-15
-1.14826e-14
-6.13734e-14
-2.7853e-13
-1.09523e-12
-3.68549e-12
-1.03743e-11
-2.41572e-11
-4.90067e-11
-1.04006e-10
-2.38634e-10
-6.9335e-10
-1.79711e-09
-4.6452e-09
-1.23901e-08
-3.18827e-08
-7.75262e-08
-1.74364e-07
-3.33242e-07
-5.02897e-07
-8.54896e-07
-2.6445e-06
-8.42861e-06
-2.7474e-05
-8.21152e-05
-0.000217642
-0.00050347
-0.00101828
-0.00159613
-0.00128549
0.000997992
0.00469483
0.00154389
-0.00207647
-0.000618194
0.00155293
0.00159322
0.000340729
-0.00055356
-0.000611443
-0.000462962
-0.000330693
-0.000182158
-0.000100503
-5.53189e-05
-3.0117e-05
-1.58524e-05
-8.18197e-06
-4.00295e-06
-1.861e-06
-8.12284e-07
-3.17898e-07
-1.31842e-07
-4.8838e-08
-1.56015e-08
-4.33571e-09
-7.66283e-10
1.93761e-35
1.00196e-34
3.542e-34
1.14893e-33
3.63087e-33
1.13751e-32
3.5516e-32
1.10669e-31
3.4401e-31
1.067e-30
3.30213e-30
1.01923e-29
3.13609e-29
9.62617e-29
2.94321e-28
8.91689e-28
2.73596e-27
8.22506e-27
2.46431e-26
7.34359e-26
2.18033e-25
6.46564e-25
1.89063e-24
5.47809e-24
1.5728e-23
4.47535e-23
1.26196e-22
3.53297e-22
9.94824e-22
2.74121e-21
7.49025e-21
2.00891e-20
5.4125e-20
1.41682e-19
3.68119e-19
9.42784e-19
2.36176e-18
5.67818e-18
1.41266e-17
3.32634e-17
6.72579e-17
9.87542e-17
-6.12173e-17
-1.69335e-15
-1.13654e-14
-6.08435e-14
-2.76933e-13
-1.09177e-12
-3.68323e-12
-1.03949e-11
-2.42691e-11
-4.93537e-11
-1.04901e-10
-2.40803e-10
-6.98728e-10
-1.81214e-09
-4.69625e-09
-1.2538e-08
-3.22751e-08
-7.84774e-08
-1.76365e-07
-3.36328e-07
-5.05527e-07
-8.68558e-07
-2.69783e-06
-8.60609e-06
-2.80264e-05
-8.35959e-05
-0.000221024
-0.0005098
-0.00102799
-0.00160113
-0.00126509
0.0010495
0.0047371
0.00141634
-0.00206667
-0.000582277
0.00156756
0.00157946
0.000327364
-0.000557913
-0.00060968
-0.00046106
-0.000328876
-0.000181059
-9.99027e-05
-5.49864e-05
-2.99318e-05
-1.57556e-05
-8.13003e-06
-3.97751e-06
-1.84867e-06
-8.06498e-07
-3.15665e-07
-1.30908e-07
-4.84633e-08
-1.54749e-08
-4.29885e-09
-7.59559e-10
1.79654e-35
9.68995e-35
3.41758e-34
1.11204e-33
3.50404e-33
1.09452e-32
3.41742e-32
1.07028e-31
3.3253e-31
1.03041e-30
3.18481e-30
9.82043e-30
3.0241e-29
9.35052e-29
2.85297e-28
8.66219e-28
2.61827e-27
7.87198e-27
2.3572e-26
7.05743e-26
2.10684e-25
6.205e-25
1.81369e-24
5.21372e-24
1.5293e-23
4.34278e-23
1.22541e-22
3.42178e-22
9.62798e-22
2.68399e-21
7.26736e-21
1.98643e-20
5.27272e-20
1.38643e-19
3.60435e-19
9.17927e-19
2.31909e-18
5.64673e-18
1.3704e-17
3.2011e-17
6.6686e-17
9.87309e-17
-5.17353e-17
-1.63737e-15
-1.11939e-14
-6.00494e-14
-2.74177e-13
-1.08477e-12
-3.67406e-12
-1.04128e-11
-2.44158e-11
-4.98487e-11
-1.06207e-10
-2.43958e-10
-7.06004e-10
-1.83188e-09
-4.76376e-09
-1.27352e-08
-3.28019e-08
-7.97624e-08
-1.79089e-07
-3.40552e-07
-5.08985e-07
-8.87051e-07
-2.76919e-06
-8.84424e-06
-2.87676e-05
-8.55791e-05
-0.000225526
-0.00051811
-0.00104035
-0.00160629
-0.00123785
0.00111647
0.00479004
0.0012512
-0.0020533
-0.000535487