/*--------------------------------*- C++ -*----------------------------------*\
  =========                 |
  \\      /  F ield         | OpenFOAM: The Open Source CFD Toolbox
   \\    /   O peration     | Website:  https://openfoam.org
    \\  /    A nd           | Version:  10
     \\/     M anipulation  |
\*---------------------------------------------------------------------------*/
FoamFile
{
    format      ascii;
    class       volScalarField;
    location    "1";
    object      RR.C5H10;
}
// * * * * * * * * * * * * * * * * * * * * * * * * * * * * * * * * * * * * * //

dimensions      [1 -3 -1 0 0 0 0];

internalField   nonuniform List<scalar> 
4000
(
4.6926e-19
2.77665e-19
1.58017e-19
1.64502e-20
1.35951e-19
5.33093e-20
5.30572e-20
8.09417e-20
6.7042e-20
8.05705e-20
9.86074e-20
-1.08987e-21
1.10095e-19
-2.60079e-21
1.0243e-19
4.78022e-19
3.18139e-19
1.15419e-19
3.13067e-20
2.05575e-19
6.46586e-20
2.90493e-19
7.71493e-19
3.83576e-19
1.53151e-18
-6.32854e-19
1.49731e-18
1.0676e-18
3.17661e-18
3.61407e-18
1.67117e-17
3.64131e-17
1.28282e-16
4.44599e-16
1.50772e-15
5.13083e-15
1.67338e-14
5.61536e-14
1.89773e-13
6.35242e-13
2.02884e-12
6.38487e-12
1.92602e-11
5.64754e-11
1.59682e-10
4.58184e-10
1.28813e-09
3.33279e-09
7.61487e-09
1.47161e-08
2.34656e-08
3.13329e-08
3.64259e-08
4.06564e-08
4.56055e-08
5.46455e-08
7.48705e-08
1.35979e-07
3.79358e-07
1.68256e-06
1.02565e-05
6.30511e-05
0.00029036
0.000610847
0.000897691
0.00126864
0.00200158
0.00389109
0.0088593
0.0205549
0.0458721
0.0979124
0.189472
0.261205
0.153679
-0.0402008
-0.0822148
-0.095373
-0.0904118
-0.0591788
-0.0310679
-0.0156688
-0.00805912
-0.00424928
-0.00229311
-0.00126314
-0.000702626
-0.000390837
-0.000215496
-0.000116963
-6.24119e-05
-3.22506e-05
-1.57259e-05
-5.43649e-06
-1.01802e-06
1.81841e-09
4.56297e-08
8.61548e-10
-3.40561e-10
-5.23056e-12
2.86149e-19
7.45197e-19
-1.24458e-19
5.70037e-19
7.25962e-19
2.98939e-19
4.60204e-19
7.95696e-20
1.78853e-20
3.27805e-19
-5.78741e-20
-1.54159e-20
1.9709e-19
-1.01012e-19
2.05318e-20
6.27133e-19
6.64957e-19
6.63433e-19
1.46786e-18
1.61651e-18
1.0577e-18
3.81779e-19
1.13719e-18
7.58196e-19
3.00487e-18
1.73194e-18
9.0825e-19
1.93605e-18
7.25442e-19
6.43538e-18
1.44214e-17
4.65785e-17
1.7043e-16
6.14301e-16
2.04521e-15
6.96381e-15
2.32624e-14
7.93398e-14
2.57808e-13
8.44841e-13
2.72019e-12
8.40365e-12
2.54917e-11
7.38263e-11
2.18226e-10
6.26023e-10
1.71448e-09
4.25904e-09
9.28925e-09
1.70919e-08
2.53122e-08
3.19348e-08
3.71888e-08
4.12869e-08
4.64918e-08
5.66869e-08
7.87049e-08
1.45307e-07
4.10052e-07
1.77233e-06
1.05114e-05
6.2863e-05
0.000284774
0.000602163
0.000885164
0.00124674
0.00194345
0.00373655
0.00844768
0.0196078
0.0441463
0.0947502
0.18568
0.262886
0.163045
-0.0372451
-0.0822813
-0.0960446
-0.0913873
-0.0597837
-0.0313087
-0.0157668
-0.00810205
-0.00426734
-0.00230038
-0.00126565
-0.000703002
-0.000390357
-0.000214735
-0.000116229
-6.1846e-05
-3.18918e-05
-1.53023e-05
-5.0955e-06
-8.89055e-07
2.06828e-08
4.46537e-08
3.5514e-11
-3.05828e-10
-4.716e-12
1.87361e-18
1.86294e-19
2.0127e-19
6.65458e-19
2.61573e-18
2.57796e-19
-7.81991e-20
-4.04967e-19
1.14725e-18
1.52022e-19
7.02184e-19
4.11975e-19
2.28807e-19
5.50339e-19
1.11485e-19
6.93835e-19
-2.78654e-20
1.36563e-19
9.59537e-19
4.44399e-19
1.64335e-18
-3.82973e-19
3.58191e-19
1.82747e-18
2.26262e-18
4.91114e-18
1.55309e-18
4.53896e-18
1.93296e-18
8.39116e-18
2.23954e-17
5.85613e-17
2.22907e-16
7.69404e-16
2.7067e-15
9.08019e-15
3.03369e-14
1.00667e-13
3.32428e-13
1.05906e-12
3.36117e-12
9.98836e-12
3.14503e-11
9.04589e-11
2.70046e-10
7.58493e-10
2.05566e-09
4.98311e-09
1.03656e-08
1.84153e-08
2.646e-08
3.28948e-08
3.78615e-08
4.20582e-08
4.75187e-08
5.77698e-08
8.0604e-08
1.50342e-07
4.26882e-07
1.84865e-06
1.07963e-05
6.32154e-05
0.00028129
0.000594772
0.000875028
0.00122909
0.00189503
0.00358575
0.00807966
0.0188445
0.0427136
0.0918466
0.182053
0.263973
0.172688
-0.0339574
-0.0824292
-0.0969359
-0.0925787
-0.0604787
-0.0315875
-0.0158825
-0.00815302
-0.00428492
-0.00230646
-0.00126716
-0.00070261
-0.000389266
-0.000213571
-0.000115107
-6.10043e-05
-3.13677e-05
-1.4702e-05
-4.66264e-06
-7.43344e-07
3.82191e-08
4.31088e-08
-5.8366e-10
-2.71499e-10
-4.2114e-12
7.32119e-19
-1.62427e-19
4.16933e-19
1.02108e-18
6.36358e-19
1.23379e-18
4.0489e-19
-2.24943e-19
6.40239e-19
1.03634e-18
2.07312e-18
1.53634e-18
1.9145e-19
4.69992e-19
5.63776e-19
7.43187e-19
1.65014e-18
1.3937e-18
2.08504e-18
1.0061e-18
5.24274e-19
3.77389e-18
3.69486e-18
-5.93176e-19
1.37067e-18
3.35858e-18
2.13596e-18
-7.98614e-20
4.21324e-18
7.85538e-18
1.61427e-17
8.98139e-17
3.01986e-16
1.01511e-15
3.47051e-15
1.169e-14
3.82184e-14
1.28046e-13
4.16159e-13
1.32407e-12
4.17138e-12
1.25098e-11
3.85505e-11
1.10821e-10
3.1369e-10
9.00897e-10
2.38574e-09
5.59549e-09
1.15744e-08
1.91277e-08
2.69822e-08
3.3872e-08
3.86337e-08
4.27329e-08
4.8518e-08
5.85469e-08
8.2611e-08
1.55853e-07
4.46959e-07
1.91377e-06
1.09877e-05
6.31172e-05
0.000277539
0.000589122
0.000867429
0.00121583
0.00185817
0.00347657
0.00778137
0.0181748
0.0413621
0.0891657
0.178831
0.264631
0.181578
-0.0319956
-0.0826816
-0.0978912
-0.0937466
-0.0611054
-0.0318271
-0.0159973
-0.00823414
-0.00426505
-0.00229941
-0.001264
-0.000700669
-0.000387939
-0.000212959
-0.000113287
-5.99293e-05
-3.07968e-05
-1.40945e-05
-4.2609e-06
-6.13043e-07
5.12992e-08
4.13337e-08
-9.81148e-10
-2.42419e-10
-3.78079e-12
3.47247e-19
6.20591e-19
2.12795e-19
2.23066e-19
3.42266e-19
2.62981e-19
1.394e-18
1.84108e-19
-5.16582e-19
8.56913e-20
4.69562e-19
5.18634e-19
-2.10533e-20
1.81252e-20
5.81241e-19
-2.83939e-19
8.04398e-19
4.37504e-19
2.72501e-18
1.92961e-18
4.12401e-19
4.59849e-18
2.23752e-19
2.22081e-18
1.19577e-18
1.25221e-18
3.71796e-18
4.36667e-18
5.554e-19
1.23711e-17
3.34623e-17
1.15638e-16
4.02279e-16
1.31851e-15
4.43378e-15
1.4887e-14
4.81332e-14
1.53621e-13
5.04472e-13
1.61195e-12
4.96703e-12
1.5077e-11
4.41025e-11
1.30583e-10
3.66923e-10
1.03576e-09
2.66833e-09
6.3048e-09
1.1959e-08
1.94865e-08
2.79836e-08
3.45442e-08
3.91887e-08
4.35019e-08
4.89925e-08
5.94418e-08
8.46829e-08
1.60904e-07
4.61753e-07
1.97479e-06
1.12038e-05
6.3421e-05
0.00027553
0.000585004
0.000861785
0.00120611
0.00183368
0.00340106
0.00757968
0.017701
0.0404186
0.0873619
0.176411
0.265345
0.188867
-0.0294094
-0.0828849
-0.0987846
-0.0948029
-0.0616484
-0.0320271
-0.016083
-0.00827419
-0.00428525
-0.00230851
-0.0012678
-0.0007019
-0.000387964
-0.000212483
-0.000112788
-5.94992e-05
-3.05153e-05
-1.36503e-05
-3.95568e-06
-5.16766e-07
6.08139e-08
3.98773e-08
-1.19597e-09
-2.19556e-10
-3.48123e-12
1.61691e-19
-8.74053e-21
-1.46791e-19
5.35784e-19
1.31826e-19
3.52885e-19
9.34036e-19
1.26451e-18
2.82131e-19
-2.40961e-19
2.21826e-19
8.44782e-19
1.04515e-18
9.77589e-19
1.07485e-18
1.84289e-18
8.74733e-19
7.56767e-19
1.1532e-18
5.07291e-19
5.15277e-18
3.53881e-18
5.58409e-18
2.74826e-18
2.33809e-18
-1.90845e-18
3.81829e-18
3.19989e-18
5.66358e-18
1.47924e-17
4.38811e-17
1.42445e-16
4.77122e-16
1.6383e-15
5.39068e-15
1.78898e-14
5.85338e-14
1.82007e-13
5.96584e-13
1.97238e-12
5.92916e-12
1.74381e-11
5.1198e-11
1.49915e-10
4.2147e-10
1.15821e-09
3.01701e-09
6.53409e-09
1.2323e-08
2.04494e-08
2.87957e-08
3.51191e-08
3.95561e-08
4.39152e-08
4.9635e-08
6.04598e-08
8.64037e-08
1.65958e-07
4.76174e-07
2.02261e-06
1.13416e-05
6.33597e-05
0.000273094
0.000581368
0.000857505
0.00119952
0.00181457
0.00333585
0.00739662
0.0173155
0.0396989
0.0859219
0.174561
0.26589
0.193868
-0.0273783
-0.0829975
-0.0994395
-0.0956503
-0.0621264
-0.0322154
-0.0161673
-0.00831417
-0.00430937
-0.00232117
-0.00127413
-0.0007048
-0.000389051
-0.000212666
-0.00011276
-5.93639e-05
-3.04057e-05
-1.33456e-05
-3.74037e-06
-4.50099e-07
6.7461e-08
3.88402e-08
-1.30733e-09
-2.05567e-10
-3.26921e-12
6.32682e-20
3.53705e-19
8.37473e-21
2.58565e-19
3.92704e-19
3.23691e-19
-3.44873e-20
-2.72022e-19
2.88834e-19
2.1205e-19
2.56699e-19
1.78574e-19
3.31322e-19
1.52514e-18
1.10421e-18
1.62955e-18
9.72749e-19
7.50303e-19
1.02331e-18
-3.48478e-19
3.20996e-18
3.9386e-18
9.81204e-19
-5.00334e-19
1.35759e-18
4.77065e-18
-3.43897e-19
4.02038e-18
5.70355e-18
1.7807e-17
5.3426e-17
1.70245e-16
5.79739e-16
1.95719e-15
6.4088e-15
2.1377e-14
7.0331e-14
2.21489e-13
7.27508e-13
2.27851e-12
6.89115e-12
2.0504e-11
5.96055e-11
1.67136e-10
4.70798e-10
1.28402e-09
3.19776e-09
6.59325e-09
1.29161e-08
2.12606e-08
2.9358e-08
3.54539e-08
3.98026e-08
4.41987e-08
5.00707e-08
6.12588e-08
8.78692e-08
1.69396e-07
4.87047e-07
2.05704e-06
1.14067e-05
6.30547e-05
0.00027031
0.000577674
0.00085324
0.00119332
0.00179849
0.00328317
0.00725668
0.01699
0.0390494
0.0846237
0.172766
0.266132
0.198694
-0.025267
-0.0829985
-0.0999378
-0.0964351
-0.0626412
-0.0324461
-0.0162749
-0.00836676
-0.00433946
-0.00233724
-0.00128256
-0.000709056
-0.000391036
-0.000213451
-0.000113102
-5.94584e-05
-3.04254e-05
-1.31641e-05
-3.59742e-06
-4.04165e-07
7.23173e-08
3.81811e-08
-1.36803e-09
-1.96608e-10
-3.13336e-12
1.72888e-19
1.08079e-19
7.24737e-19
1.04653e-18
4.72581e-19
4.94814e-19
6.25375e-19
8.78129e-19
2.24667e-19
9.85738e-20
-5.50355e-20
5.56378e-19
5.68656e-19
3.76002e-19
5.42569e-19
5.84001e-20
1.16611e-18
1.49755e-21
2.98581e-19
2.47525e-18
2.82254e-18
1.66522e-18
1.60431e-19
-2.18702e-18
1.61811e-18
1.0889e-18
2.31531e-18
4.58401e-18
1.00756e-17
1.41499e-17
5.8807e-17
2.12928e-16
7.18737e-16
2.31151e-15
7.59007e-15
2.48083e-14
8.16874e-14
2.51635e-13
8.22845e-13
2.58658e-12
7.84833e-12
2.29152e-11
6.71616e-11
1.88454e-10
5.31838e-10
1.42336e-09
3.30712e-09
7.04125e-09
1.35685e-08
2.19394e-08
2.99269e-08
3.57775e-08
4.00305e-08
4.44602e-08
5.04619e-08
6.18996e-08
8.90882e-08
1.72277e-07
4.94647e-07
2.07429e-06
1.13798e-05
6.23463e-05
0.000266621
0.000573577
0.000848323
0.00118548
0.00178113
0.00323136
0.00711671
0.0166614
0.0383783
0.0832759
0.170762
0.266091
0.203769
-0.0227613
-0.082865
-0.10027
-0.0971793
-0.0632314
-0.0327403
-0.016416
-0.00843669
-0.00437723
-0.00235735
-0.00129329
-0.000714702
-0.000393898
-0.000214807
-0.000113772
-5.97533e-05
-3.05554e-05
-1.30875e-05
-3.51302e-06
-3.74143e-07
7.60311e-08
3.78988e-08
-1.40454e-09
-1.91376e-10
-3.05451e-12
2.20117e-19
1.22365e-19
1.44556e-19
9.32941e-19
1.16518e-18
7.7282e-19
2.42776e-19
3.17082e-20
4.23796e-19
9.15392e-19
-2.767e-19
3.3733e-19
3.51776e-19
2.31536e-19
1.94824e-19
9.77333e-20
9.96298e-19
2.92314e-18
3.54407e-18
2.98889e-18
9.04786e-19
2.89899e-18
1.19994e-18
4.50655e-19
2.08174e-18
4.2363e-18
1.14206e-18
4.41575e-18
2.14361e-18
1.33157e-17
6.98642e-17
2.51075e-16
8.23741e-16
2.7419e-15
8.92055e-15
2.90481e-14
9.49446e-14
2.84269e-13
9.24121e-13
2.89849e-12
8.66346e-12
2.58224e-11
7.46899e-11
2.12112e-10
5.5783e-10
1.38707e-09
3.43806e-09
7.51902e-09
1.41856e-08
2.26059e-08
3.03513e-08
3.60177e-08
4.02101e-08
4.46776e-08
5.07664e-08
6.23877e-08
9.00049e-08
1.74273e-07
4.98866e-07
2.07396e-06
1.12475e-05
6.09623e-05
0.000260976
0.00056707
0.000841696
0.00117686
0.00175872
0.00317064
0.00694359
0.0162709
0.0375232
0.0815429
0.168346
0.265794
0.209215
-0.0197879
-0.0825983
-0.100453
-0.0979167
-0.0639273
-0.0331122
-0.0165964
-0.0085264
-0.00442366
-0.00238186
-0.00130643
-0.000721732
-0.000397598
-0.000216689
-0.000114733
-6.02203e-05
-3.07801e-05
-1.30997e-05
-3.47503e-06
-3.56141e-07
7.90371e-08
3.79413e-08
-1.42997e-09
-1.88935e-10
-3.01845e-12
3.82946e-19
7.92188e-19
4.98977e-19
4.86392e-19
2.58036e-19
2.99863e-19
1.62216e-20
-1.92636e-20
6.92804e-19
1.22729e-18
3.55584e-19
1.53415e-18
9.17653e-19
5.12291e-19
2.4773e-18
2.99871e-18
2.37359e-18
9.92747e-19
2.43409e-18
4.43425e-18
2.77502e-18
1.92969e-18
1.61967e-18
2.39192e-18
2.24653e-18
-1.88712e-18
1.92233e-18
4.94484e-18
5.04069e-18
3.14192e-17
8.40816e-17
2.82802e-16
9.45206e-16
3.06628e-15
9.92117e-15
3.18046e-14
1.00036e-13
3.11473e-13
1.01891e-12
3.1507e-12
9.34357e-12
2.75955e-11
7.96632e-11
2.17393e-10
5.66049e-10
1.51431e-09
3.67658e-09
7.92995e-09
1.48026e-08
2.31611e-08
3.07217e-08
3.62303e-08
4.03645e-08
4.48282e-08
5.09877e-08
6.27888e-08
9.06684e-08
1.75456e-07
4.99834e-07
2.06089e-06
1.10701e-05
5.95286e-05
0.000254582
0.000560214
0.000834187
0.00116629
0.00173602
0.00310917
0.00677622
0.0158625
0.03613
0.0799215
0.165763
0.26489
0.214987
-0.0160589
-0.0821852
-0.100543
-0.0987218
-0.0647593
-0.0335681
-0.0168165
-0.00863504
-0.00447808
-0.00241015
-0.0013216
-0.000729923
-0.000401991
-0.000219005
-0.000115927
-6.08248e-05
-3.10817e-05
-1.31825e-05
-3.47287e-06
-3.47055e-07
8.15764e-08
3.8258e-08
-1.4502e-09
-1.88568e-10
-3.01423e-12
1.60219e-19
6.1847e-19
9.10895e-19
3.6767e-19
1.76428e-19
1.12033e-19
-1.41733e-19
-1.08198e-19
2.27631e-19
1.72735e-19
1.16505e-19
4.20406e-19
-1.66847e-19
1.55472e-18
1.84244e-19
1.53792e-18
1.60615e-18
1.09478e-18
2.54147e-18
3.54861e-18
4.74536e-18
1.19094e-18
-6.80574e-19
1.12806e-18
2.13335e-18
4.03725e-18
3.52252e-18
3.39047e-18
1.38086e-17
4.02882e-17
1.08052e-16
3.41016e-16
1.02348e-15
3.41785e-15
1.07638e-14
3.4114e-14
1.09142e-13
3.37001e-13
1.11728e-12
3.38832e-12
1.00203e-11
2.90993e-11
8.19397e-11
2.23164e-10
6.17755e-10
1.6277e-09
3.92079e-09
8.39097e-09
1.53976e-08
2.37516e-08
3.11695e-08
3.65365e-08
4.06506e-08
4.49105e-08
5.11647e-08
6.30876e-08
9.10811e-08
1.75874e-07
4.97761e-07
2.02809e-06
1.07559e-05
5.74184e-05
0.000248007
0.000553164
0.0008267
0.00115602
0.00171348
0.00304504
0.00661388
0.0154889
0.0353181
0.0782249
0.162889
0.263844
0.220861
-0.0120947
-0.0816724
-0.1005
-0.0994359
-0.0656121
-0.0340569
-0.0170554
-0.00875394
-0.00453721
-0.00244132
-0.0013382
-0.000738895
-0.00040685
-0.000221628
-0.000117291
-6.15293e-05
-3.14389e-05
-1.33182e-05
-3.49742e-06
-3.44502e-07
8.38046e-08
3.87849e-08
-1.46781e-09
-1.89687e-10
-3.03285e-12
1.94184e-19
2.77161e-20
1.03247e-18
7.16422e-19
2.70733e-19
2.0797e-19
7.656e-19
1.7905e-18
1.00497e-18
1.01676e-18
4.53925e-19
1.389e-18
4.30104e-19
5.3883e-19
8.39101e-19
8.99738e-19
1.51192e-18
1.96468e-18
-8.25103e-20
5.51911e-19
-1.66031e-19
2.06972e-18
2.2002e-18
2.16637e-18
6.89277e-19
4.41666e-18
3.92264e-18
7.85027e-18
1.69501e-17
4.06425e-17
1.13839e-16
3.5724e-16
1.17732e-15
3.83569e-15
1.23011e-14
3.88101e-14
1.19902e-13
3.6929e-13
1.1729e-12
3.66933e-12
1.07204e-11
3.08993e-11
8.65335e-11
2.40289e-10
6.6204e-10
1.73104e-09
4.13548e-09
8.76866e-09
1.59055e-08
2.42588e-08
3.1573e-08
3.68501e-08
4.09478e-08
4.49184e-08
5.13098e-08
6.33352e-08
9.13358e-08
1.75795e-07
4.94069e-07
1.99742e-06
1.04861e-05
5.56427e-05
0.000240699
0.000545813
0.000819144
0.00114592
0.0016921
0.00298426
0.00645223
0.0151377
0.0344182
0.0763888
0.159967
0.262604
0.226321
-0.00796231
-0.0811009
-0.100367
-0.100116
-0.0665034
-0.0345744
-0.0173078
-0.00887936
-0.00459923
-0.00247396
-0.00135597
-0.000748675
-0.000412225
-0.000224528
-0.000118791
-6.23156e-05
-3.18457e-05
-1.34975e-05
-3.54183e-06
-3.46527e-07
8.58433e-08
3.94619e-08
-1.48356e-09
-1.91822e-10
-3.0671e-12
1.31468e-19
-8.54429e-20
1.09432e-18
9.37877e-19
8.28946e-19
1.80517e-19
8.37485e-19
8.21478e-19
-1.12504e-21
1.1186e-18
5.55178e-19
-3.93451e-19
1.20016e-18
7.34081e-19
4.79082e-19
1.5594e-18
-6.84088e-20
6.18501e-19
-1.42481e-19
6.63879e-19
3.61845e-18
2.21229e-18
1.66478e-18
1.86121e-18
2.72674e-18
4.59013e-18
4.24778e-18
5.2039e-18
1.03307e-17
4.05273e-17
1.21598e-16
3.91929e-16
1.28276e-15
4.16263e-15
1.32053e-14
4.13076e-14
1.27257e-13
3.90778e-13
1.24088e-12
3.90922e-12
1.14797e-11
3.32759e-11
9.27234e-11
2.59209e-10
6.98358e-10
1.81861e-09
4.31968e-09
9.04861e-09
1.62422e-08
2.45594e-08
3.17786e-08
3.69801e-08
4.10352e-08
4.49484e-08
5.14894e-08
6.35393e-08
9.14469e-08
1.7527e-07
4.88803e-07
1.95685e-06
1.0214e-05
5.38655e-05
0.000233914
0.000538255
0.000811254
0.00113541
0.00167043
0.00292371
0.00628582
0.0147521
0.0336019
0.0747495
0.157127
0.260975
0.231539
-0.00335319
-0.0804487
-0.100203
-0.100775
-0.0674202
-0.0351278
-0.0175813
-0.00901563
-0.00466506
-0.00250826
-0.0013744
-0.000758747
-0.000417768
-0.000227589
-0.00012039
-6.31503e-05
-3.22709e-05
-1.36968e-05
-3.59842e-06
-3.51989e-07
8.76399e-08
4.02515e-08
-1.49878e-09
-1.94801e-10
-3.11422e-12
-2.36366e-19
7.74156e-19
1.73477e-19
1.05473e-18
7.28945e-19
4.13832e-19
1.01712e-18
7.91334e-19
7.97323e-19
6.13163e-19
9.67063e-19
8.80793e-19
1.00242e-18
1.47339e-18
2.85493e-18
3.70264e-18
2.72493e-18
9.8239e-19
2.48549e-18
3.52015e-19
5.44603e-18
3.63708e-18
1.76015e-18
4.62796e-21
1.50127e-20
7.56056e-19
5.79159e-18
6.02946e-18
8.67656e-18
3.79575e-17
1.35488e-16
4.22913e-16
1.35966e-15
4.36399e-15
1.39084e-14
4.34847e-14
1.35612e-13
4.08946e-13
1.32298e-12
4.12402e-12
1.19504e-11
3.4296e-11
9.77255e-11
2.72618e-10
7.30182e-10
1.89058e-09
4.44725e-09
9.24167e-09
1.64684e-08
2.4752e-08
3.19027e-08
3.7061e-08
4.10839e-08
4.49686e-08
5.16261e-08
6.36949e-08
9.14703e-08
1.74617e-07
4.83829e-07
1.91782e-06
9.9035e-06
5.19759e-05
0.000227532
0.000531102
0.000804
0.0011258
0.00165061
0.00287279
0.00613991
0.0143991
0.0328517
0.0731206
0.154392
0.25936
0.236151
0.00123798
-0.0797797
-0.0999892
-0.101383
-0.0683487
-0.0356874
-0.0178556
-0.00915151
-0.00473119
-0.00254251
-0.00139272
-0.000768731
-0.000423251
-0.000230602
-0.00012196
-6.39801e-05
-3.27016e-05
-1.39115e-05
-3.66409e-06
-3.5971e-07
8.92894e-08
4.1083e-08
-1.51193e-09
-1.98112e-10
-3.16634e-12
2.97637e-19
2.44956e-19
-1.67737e-19
4.36095e-19
1.88751e-19
2.15447e-20
4.35549e-19
-5.4139e-20
4.06913e-20
9.88802e-19
1.59459e-18
1.6077e-18
2.31966e-18
1.09954e-18
2.95102e-19
1.19483e-18
2.06913e-18
2.79445e-18
3.22712e-18
2.06439e-18
-5.18715e-19
-2.27586e-19
2.16696e-18
-6.8896e-19
-9.43408e-19
6.78162e-19
1.03116e-18
3.84339e-18
1.2292e-17
3.93952e-17
1.22984e-16
4.36938e-16
1.43002e-15
4.58002e-15
1.43016e-14
4.43626e-14
1.41643e-13
4.26761e-13
1.37123e-12
4.15105e-12
1.27553e-11
3.64083e-11
1.02949e-10
2.79832e-10
7.53772e-10
1.94092e-09
4.54147e-09
9.38558e-09
1.66364e-08
2.48954e-08
3.19958e-08
3.711e-08
4.11136e-08
4.4981e-08
5.17197e-08
6.37895e-08
9.13773e-08
1.73681e-07
4.77628e-07
1.88008e-06
9.63061e-06
5.02932e-05
0.000221268
0.000524461
0.000797275
0.00111701
0.00163275
0.00282385
0.00600416
0.0140825
0.0321817
0.0717065
0.151893
0.257725
0.240282
0.00568304
-0.0791217
-0.0997706
-0.101924
-0.0692041
-0.0362088
-0.0181111
-0.00927786
-0.00479219
-0.00257413
-0.00140965
-0.000777968
-0.000428332
-0.000233399
-0.000123417
-6.47466e-05
-3.30973e-05
-1.41132e-05
-3.72802e-06
-3.68086e-07
9.06643e-08
4.18695e-08
-1.52262e-09
-2.01386e-10
-3.21778e-12
9.41909e-20
3.78609e-19
3.40826e-19
6.34014e-19
2.94925e-19
2.72023e-19
6.9157e-19
3.60728e-19
5.65985e-19
-1.12724e-19
5.75647e-20
2.3628e-18
9.99476e-19
3.33456e-19
1.1759e-18
-5.36121e-20
3.56287e-19
2.71869e-18
4.97979e-19
1.66514e-18
-2.19437e-19
6.66115e-19
1.13375e-18
1.27319e-18
3.13391e-18
-7.7442e-19
2.08016e-18
1.78917e-18
8.53662e-18
3.61955e-17
1.36809e-16
4.56533e-16
1.48201e-15
4.77505e-15
1.51669e-14
4.77438e-14
1.46768e-13
4.64439e-13
1.45529e-12
4.48019e-12
1.31256e-11
3.73057e-11
1.0555e-10
2.85143e-10
7.71422e-10
1.97984e-09
4.61209e-09
9.49034e-09
1.67536e-08
2.49878e-08
3.20525e-08
3.71423e-08
4.1135e-08
4.49891e-08
5.17853e-08
6.38487e-08
9.12469e-08
1.72678e-07
4.71835e-07
1.84287e-06
9.38639e-06
4.88827e-05
0.000216132
0.000518875
0.000791511
0.00110953
0.00161805
0.00278496
0.00589653
0.0138086
0.0316095
0.070518
0.149731
0.256273
0.243657
0.00961384
-0.0785394
-0.0995736
-0.102361
-0.0699346
-0.0366594
-0.0183309
-0.00938699
-0.00484487
-0.00260146
-0.0014243
-0.000785971
-0.000432742
-0.000235835
-0.000124689
-6.54239e-05
-3.3446e-05
-1.42944e-05
-3.78652e-06
-3.76007e-07
9.18449e-08
4.25757e-08
-1.53098e-09
-2.04368e-10
-3.26454e-12
2.94426e-19
4.82752e-19
6.25621e-19
4.18639e-19
6.10705e-19
4.76501e-19
8.84833e-19
1.16331e-18
6.81141e-19
4.39051e-20
7.04537e-20
2.13715e-19
7.19446e-19
1.8634e-19
1.92173e-18
1.26249e-18
2.37999e-19
7.52288e-19
8.34796e-19
2.2792e-18
1.74447e-18
-3.32739e-19
1.98231e-18
1.13523e-18
4.86778e-19
5.19876e-18
8.15997e-19
6.14462e-18
1.57224e-17
5.02535e-17
1.47445e-16
4.78257e-16
1.55047e-15
4.99445e-15
1.58905e-14
5.0242e-14
1.56447e-13
4.78223e-13
1.48435e-12
4.47559e-12
1.32127e-11
3.78435e-11
1.03952e-10
2.8949e-10
7.86587e-10
2.00918e-09
4.66501e-09
9.56874e-09
1.68412e-08
2.50572e-08
3.20939e-08
3.71651e-08
4.11495e-08
4.4995e-08
5.18284e-08
6.3879e-08
9.11141e-08
1.71885e-07
4.6751e-07
1.81663e-06
9.21244e-06
4.77868e-05
0.000211877
0.000513829
0.000786606
0.00110319
0.00160561
0.00275194
0.00580369
0.0135931
0.0311559
0.0695725
0.148073
0.255068
0.246188
0.0127898
-0.0780629
-0.0994077
-0.102692
-0.0705147
-0.0370222
-0.0185102
-0.00947538
-0.00488739
-0.00262347
-0.00143608
-0.000792403
-0.000436288
-0.000237794
-0.000125711
-6.59661e-05
-3.37242e-05
-1.44398e-05
-3.83444e-06
-3.82845e-07
9.27327e-08
4.31501e-08
-1.53705e-09
-2.06839e-10
-3.30324e-12
2.27351e-19
5.49683e-19
1.29763e-18
1.85645e-18
1.13844e-18
8.31871e-19
6.37411e-19
1.9773e-18
4.11983e-19
3.06411e-20
4.24325e-20
5.48283e-20
5.78386e-19
6.85557e-19
1.16028e-18
2.53942e-18
1.77337e-18
8.66393e-19
1.53335e-18
3.43695e-20
3.06762e-18
1.63183e-18
1.26917e-18
2.94102e-18
4.43469e-18
3.60979e-18
2.71098e-18
1.34982e-18
1.17286e-17
5.03564e-17
1.50918e-16
4.79988e-16
1.5809e-15
4.97658e-15
1.58065e-14
4.96643e-14
1.54124e-13
4.70396e-13
1.46503e-12
4.5698e-12
1.31027e-11
3.75524e-11
1.04894e-10
2.92325e-10
7.97255e-10
2.03007e-09
4.70219e-09
9.62336e-09
1.69021e-08
2.51066e-08
3.21221e-08
3.71814e-08
4.11598e-08
4.5e-08
5.18568e-08
6.38976e-08
9.10166e-08
1.71304e-07
4.64325e-07
1.79737e-06
9.08538e-06
4.70319e-05
0.000209002
0.00051046
0.000783253
0.00109879
0.00159705
0.0027296
0.00574099
0.013447
0.0308587
0.0689459
0.146883
0.254201
0.247925
0.0150738
-0.0777177
-0.0992854
-0.10292
-0.070924
-0.0372794
-0.0186366
-0.00953779
-0.00491744
-0.00263903
-0.00144442
-0.000796956
-0.0004388
-0.000239184
-0.000126437
-6.63516e-05
-3.39227e-05
-1.45448e-05
-3.86945e-06
-3.87878e-07
9.33589e-08
4.35623e-08
-1.54103e-09
-2.08624e-10
-3.33117e-12
6.94646e-20
-1.12646e-19
1.52335e-19
5.48422e-19
2.55965e-19
4.96678e-19
3.089e-19
9.15758e-19
6.40414e-19
6.61165e-19
4.16164e-19
4.5039e-19
8.49504e-19
4.1392e-19
8.14466e-19
8.46504e-19
2.62509e-20
3.85509e-19
9.78114e-19
1.88115e-18
1.38627e-18
4.30147e-19
6.49295e-19
3.41613e-18
3.59361e-18
6.20551e-18
2.64051e-19
9.61844e-18
1.45566e-17
3.78534e-17
1.51316e-16
4.89975e-16
1.60228e-15
5.10341e-15
1.63752e-14
5.08514e-14
1.59915e-13
4.80479e-13
1.54284e-12
4.66992e-12
1.34913e-11
3.81736e-11
1.05482e-10
2.96966e-10
8.02275e-10
2.0427e-09
4.72645e-09
9.65938e-09
1.69419e-08
2.51378e-08
3.21403e-08
3.7192e-08
4.11678e-08
4.50055e-08
5.18777e-08
6.3916e-08
9.09797e-08
1.71036e-07
4.62757e-07
1.78751e-06
9.01775e-06
4.66383e-05
0.00020752
0.000508694
0.000781459
0.00109644
0.00159251
0.00271766
0.00570766
0.013368
0.0306845
0.0685936
0.146261
0.25373
0.248822
0.0162992
-0.0775297
-0.0992175
-0.103035
-0.0711415
-0.0374174
-0.0187047
-0.0095716
-0.00493371
-0.00264746
-0.00144893
-0.000799426
-0.000440163
-0.000239938
-0.000126831
-6.65608e-05
-3.40301e-05
-1.46026e-05
-3.8886e-06
-3.90717e-07
9.36761e-08
4.37825e-08
-1.54306e-09
-2.09587e-10
-3.34627e-12
-8.43111e-20
8.48432e-19
5.24217e-19
8.81629e-19
3.89833e-19
6.86145e-19
4.87686e-19
1.5878e-18
5.10531e-19
8.65011e-21
1.36774e-18
1.28681e-18
1.72943e-18
4.34212e-19
7.44649e-19
1.16167e-18
1.69941e-19
1.06971e-18
9.00231e-19
1.9382e-18
2.18946e-18
7.47435e-19
1.06095e-18
1.71037e-18
1.60158e-18
2.6754e-19
4.49467e-19
1.59454e-18
1.38049e-17
4.59079e-17
1.60374e-16
5.24584e-16
1.68628e-15
5.50671e-15
1.74775e-14
5.38943e-14
1.66341e-13
4.94501e-13
1.55029e-12
4.61099e-12
1.36699e-11
3.86552e-11
1.07417e-10
2.97814e-10
8.05583e-10
2.0504e-09
4.74081e-09
9.68101e-09
1.69667e-08
2.51585e-08
3.21541e-08
3.72011e-08
4.11754e-08
4.50127e-08
5.18978e-08
6.39418e-08
9.10042e-08
1.71035e-07
4.6254e-07
1.78567e-06
9.00399e-06
4.65529e-05
0.000207195
0.000508303
0.000781058
0.00109593
0.00159159
0.00271541
0.00570153
0.0133541
0.0306562
0.0685355
0.146156
0.25365
0.24896
0.0164929
-0.0775004
-0.0992056
-0.103051
-0.0711741
-0.0374382
-0.0187149
-0.00957665
-0.00493615
-0.00264872
-0.00144961
-0.000799795
-0.000440366
-0.00024005
-0.000126889
-6.65915e-05
-3.40458e-05
-1.46108e-05
-3.89121e-06
-3.91012e-07
9.37377e-08
4.38127e-08
-1.54345e-09
-2.09704e-10
-3.34807e-12
5.95674e-20
2.17154e-19
1.07415e-18
1.25467e-18
5.45915e-19
1.20237e-19
-6.55599e-20
4.5907e-19
1.32912e-18
1.05832e-18
7.3675e-20
8.20272e-19
-8.02327e-20
7.48232e-19
1.16149e-18
8.57673e-19
1.30944e-18
7.65321e-19
1.84987e-19
5.61798e-19
1.05094e-18
5.0465e-19
7.94493e-19
2.25663e-19
2.71083e-18
5.00811e-19
3.26974e-18
5.12987e-18
1.96052e-17
5.24291e-17
1.67531e-16
5.31737e-16
1.72421e-15
5.56915e-15
1.79244e-14
5.54349e-14
1.69151e-13
5.04568e-13
1.56391e-12
4.72089e-12
1.3702e-11
3.85801e-11
1.08399e-10
2.9896e-10
8.05181e-10
2.05388e-09
4.74689e-09
9.69068e-09
1.69792e-08
2.5171e-08
3.21642e-08
3.72092e-08
4.11836e-08
4.50231e-08
5.19198e-08
6.39834e-08
9.11235e-08
1.71428e-07
4.64192e-07
1.79439e-06
9.0576e-06
4.68555e-05
0.000208311
0.000509573
0.000782294
0.00109754
0.00159477
0.00272387
0.00572522
0.01341
0.0307815
0.0687836
0.146614
0.253986
0.248289
0.0155924
-0.077635
-0.0992523
-0.102963
-0.071014
-0.0373369
-0.018665
-0.00955192
-0.00492429
-0.00264259
-0.00144633
-0.000797999
-0.000439373
-0.000239499
-0.000126601
-6.64382e-05
-3.3967e-05
-1.45676e-05
-3.8765e-06
-3.8884e-07
9.34827e-08
4.36367e-08
-1.54208e-09
-2.0893e-10
-3.33599e-12
6.33089e-20
1.76742e-21
1.95606e-19
2.05435e-19
5.37937e-19
6.14081e-19
-9.42451e-21
9.31817e-19
5.12788e-19
1.57162e-19
-4.36333e-20
2.55911e-19
4.52727e-20
1.62517e-18
1.38548e-18
2.80364e-18
3.14985e-18
6.7035e-19
6.35337e-19
1.65874e-18
1.80843e-18
3.0924e-18
1.12959e-18
4.01515e-18
2.66724e-18
2.53424e-18
1.46514e-18
4.40643e-18
1.78286e-17
5.96497e-17
1.64009e-16
4.9632e-16
1.64223e-15
5.13076e-15
1.58449e-14
4.89556e-14
1.56305e-13
4.65688e-13
1.50337e-12
4.68748e-12
1.34429e-11
3.84831e-11
1.06372e-10
2.99066e-10
8.05014e-10
2.05125e-09
4.74278e-09
9.68628e-09
1.69772e-08
2.51733e-08
3.21695e-08
3.72154e-08
4.11912e-08
4.50359e-08
5.19437e-08
6.40418e-08
9.13393e-08
1.72216e-07
4.67694e-07
1.81333e-06
9.17661e-06
4.7535e-05
0.000210807
0.000512413
0.000785069
0.00110114
0.00160183
0.00274259
0.00577749
0.0135331
0.0310391
0.0693112
0.147595
0.254712
0.246821
0.0136531
-0.0779283
-0.0993553
-0.102775
-0.0706679
-0.0371184
-0.018557
-0.00949848
-0.00489863
-0.00262931
-0.00143921
-0.00079411
-0.000437226
-0.000238308
-0.00012598
-6.61075e-05
-3.37965e-05
-1.44759e-05
-3.84536e-06
-3.8417e-07
9.29652e-08
4.32697e-08
-1.53904e-09
-2.0731e-10
-3.31065e-12
6.01316e-19
8.47578e-19
3.78772e-19
6.86242e-19
6.07305e-19
3.55069e-19
1.52224e-19
1.8037e-19
4.53434e-20
2.79647e-19
1.72628e-20
1.17721e-19
3.7503e-19
3.83657e-19
1.21101e-19
9.32132e-19
1.30783e-18
2.06259e-18
1.63638e-18
2.51544e-18
1.04587e-18
1.04513e-18
2.24137e-18
1.79081e-18
3.16314e-18
6.75376e-18
4.82265e-18
1.30372e-18
1.78137e-17
5.18734e-17
1.58626e-16
4.85326e-16
1.57928e-15
4.934e-15
1.55757e-14
4.89445e-14
1.53519e-13
4.66029e-13
1.49783e-12
4.66675e-12
1.34451e-11
3.77933e-11
1.05865e-10
2.99238e-10
8.01188e-10
2.04299e-09
4.72956e-09
9.6695e-09
1.6963e-08
2.51675e-08
3.21716e-08
3.72209e-08
4.11996e-08
4.50526e-08
5.19724e-08
6.41225e-08
9.16688e-08
1.73468e-07
4.73394e-07
1.84462e-06
9.37287e-06
4.86511e-05
0.000214846
0.000516874
0.000789407
0.00110675
0.00161292
0.00277203
0.00585979
0.0137263
0.0314429
0.0701716
0.149115
0.255783
0.244512
0.0107518
-0.0783643
-0.0995094
-0.102483
-0.0701463
-0.036791
-0.0183961
-0.009419
-0.00486043
-0.00260951
-0.0014286
-0.00078831
-0.000434022
-0.000236533
-0.000125052
-6.5614e-05
-3.3543e-05
-1.43395e-05
-3.79944e-06
-3.77344e-07
9.21891e-08
4.27263e-08
-1.53414e-09
-2.04922e-10
-3.27329e-12
2.33169e-19
1.77658e-19
8.08014e-19
9.12607e-19
6.44175e-19
1.41592e-19
1.24853e-19
9.52628e-19
3.66349e-20
-2.44689e-19
1.01959e-18
6.89683e-19
1.13043e-18
1.64135e-18
8.36713e-19
1.38713e-18
2.01998e-18
2.24096e-18
1.8241e-18
2.35698e-18
4.07425e-18
-3.08438e-19
-3.10352e-19
1.26666e-18
2.78879e-18
3.51084e-18
3.8677e-18
5.55472e-18
1.43824e-17
4.69945e-17
1.55645e-16
4.97527e-16
1.5801e-15
5.0341e-15
1.60075e-14
4.99844e-14
1.56676e-13
4.72465e-13
1.45072e-12
4.44574e-12
1.33345e-11
3.75741e-11
1.03837e-10
2.95006e-10
7.95899e-10
2.03014e-09
4.7061e-09
9.63657e-09
1.69307e-08
2.51486e-08
3.21669e-08
3.72233e-08
4.1207e-08
4.50713e-08
5.20004e-08
6.42144e-08
9.2081e-08
1.75089e-07
4.80941e-07
1.88672e-06
9.64069e-06
5.01934e-05
0.000220452
0.000522757
0.000795041
0.001114
0.00162742
0.00281097
0.00596814
0.0139826
0.0319711
0.0712815
0.151073
0.257138
0.241457
0.00709547
-0.0789128
-0.0997042
-0.102093
-0.069471
-0.0363684
-0.0181884
-0.0093162
-0.00481102
-0.00258384
-0.00141486
-0.000780803
-0.000429879
-0.000234239
-0.000123855
-6.49781e-05
-3.32152e-05
-1.41657e-05
-3.7412e-06
-3.68837e-07
9.11736e-08
4.20348e-08
-1.52725e-09
-2.01897e-10
-3.22595e-12
-1.53265e-19
-1.04148e-20
7.26564e-19
4.27489e-19
4.22841e-19
3.66507e-19
1.3592e-18
4.8537e-19
3.19106e-19
2.7629e-19
6.28298e-19
9.2617e-19
1.91883e-18
1.46096e-18
-1.03114e-19
6.3686e-19
7.57024e-19
-4.60206e-20
1.76784e-19
1.39358e-18
-1.36262e-19
3.25744e-18
7.60337e-19
4.32671e-18
4.13501e-18
4.97694e-18
5.72766e-18
9.02881e-18
1.2176e-17
4.75865e-17
1.45259e-16
4.64573e-16
1.52884e-15
4.95151e-15
1.53171e-14
4.96563e-14
1.53176e-13
4.68155e-13
1.44657e-12
4.47003e-12
1.29506e-11
3.77312e-11
1.0436e-10
2.91312e-10
7.83837e-10
2.00878e-09
4.66999e-09
9.58554e-09
1.68789e-08
2.51133e-08
3.21527e-08
3.72207e-08
4.12117e-08
4.5091e-08
5.20184e-08
6.43082e-08
9.25556e-08
1.77006e-07
4.89999e-07
1.93757e-06
9.96314e-06
5.2012e-05
0.000226701
0.000529367
0.000801499
0.00112221
0.00164386
0.00285468
0.00608851
0.0142788
0.0325987
0.0725808
0.153415
0.258688
0.237673
0.00286853
-0.0795428
-0.0999245
-0.101605
-0.0686698
-0.0358769
-0.0179471
-0.00919643
-0.0047533
-0.00255394
-0.00139881
-0.000772018
-0.000425025
-0.00023155
-0.000122451
-6.42317e-05
-3.28295e-05