/*--------------------------------*- C++ -*----------------------------------*\
  =========                 |
  \\      /  F ield         | OpenFOAM: The Open Source CFD Toolbox
   \\    /   O peration     | Website:  https://openfoam.org
    \\  /    A nd           | Version:  10
     \\/     M anipulation  |
\*---------------------------------------------------------------------------*/
FoamFile
{
    format      ascii;
    class       volScalarField;
    location    "1";
    object      RR.C9H18;
}
// * * * * * * * * * * * * * * * * * * * * * * * * * * * * * * * * * * * * * //

dimensions      [1 -3 -1 0 0 0 0];

internalField   nonuniform List<scalar> 
4000
(
1.07225e-18
6.34458e-19
3.61064e-19
3.75866e-20
3.10644e-19
1.21808e-19
1.21232e-19
1.84947e-19
1.53186e-19
1.84097e-19
2.25309e-19
-2.50008e-21
2.51554e-19
-5.95804e-21
2.34033e-19
1.09225e-18
7.26917e-19
2.63699e-19
7.14978e-20
4.69692e-19
1.47692e-19
6.63711e-19
1.76278e-18
8.76376e-19
3.49936e-18
-1.44622e-18
3.42105e-18
2.43889e-18
7.25708e-18
8.25405e-18
3.81739e-17
8.31663e-17
2.93009e-16
1.01556e-15
3.44409e-15
1.17209e-14
3.82276e-14
1.28284e-13
4.33554e-13
1.45131e-12
4.6353e-12
1.45878e-11
4.40054e-11
1.29036e-10
3.64849e-10
1.04689e-09
2.94322e-09
7.61504e-09
1.7399e-08
3.36239e-08
5.36138e-08
7.15887e-08
8.32453e-08
9.30675e-08
1.05163e-07
1.28882e-07
1.84379e-07
3.48232e-07
9.42061e-07
3.85491e-06
2.23866e-05
0.000135899
0.000621696
0.00129448
0.00189105
0.0026603
0.00417142
0.00805492
0.0182217
0.0420195
0.093211
0.197752
0.380072
0.519211
0.298557
-0.0864713
-0.16569
-0.18932
-0.178094
-0.116082
-0.060849
-0.0306826
-0.0157814
-0.00832103
-0.00449045
-0.00247354
-0.00137593
-0.000765365
-0.000421999
-0.000229042
-0.00012221
-6.31458e-05
-3.08434e-05
-1.06833e-05
-1.97771e-06
2.73547e-08
9.95567e-08
2.52862e-09
-6.68066e-10
-1.02707e-11
6.53845e-19
1.70276e-18
-2.84391e-19
1.30252e-18
1.6588e-18
6.83056e-19
1.05155e-18
1.818e-19
4.08495e-20
7.4901e-19
-1.32265e-19
-3.52523e-20
4.50316e-19
-2.30844e-19
4.68763e-20
1.43295e-18
1.51937e-18
1.51588e-18
3.35399e-18
3.69363e-18
2.41675e-18
8.72273e-19
2.59836e-18
1.73235e-18
6.86593e-18
3.95726e-18
2.075e-18
4.42312e-18
1.65573e-18
1.46993e-17
3.29359e-17
1.06378e-16
3.89267e-16
1.40318e-15
4.67182e-15
1.59079e-14
5.31419e-14
1.81254e-13
5.88987e-13
1.93017e-12
6.21485e-12
1.92003e-11
5.82432e-11
1.6868e-10
4.98614e-10
1.43038e-09
3.91738e-09
9.73142e-09
2.12247e-08
3.90521e-08
5.78323e-08
7.29641e-08
8.49983e-08
9.45593e-08
1.07399e-07
1.34369e-07
1.94893e-07
3.72623e-07
1.01578e-06
4.05843e-06
2.2954e-05
0.000135523
0.000609815
0.00127636
0.00186497
0.00261508
0.00405181
0.00773785
0.0173814
0.0400983
0.0897333
0.191425
0.372592
0.5228
0.317294
-0.0807919
-0.165923
-0.190689
-0.180028
-0.117273
-0.0613232
-0.030876
-0.0158663
-0.0083568
-0.00450489
-0.00247856
-0.00137672
-0.000764454
-0.000420525
-0.000227612
-0.000121105
-6.24471e-05
-3.00203e-05
-1.00127e-05
-1.7222e-06
6.43105e-08
9.71819e-08
7.15152e-10
-6.0008e-10
-9.26105e-12
4.28118e-18
4.25667e-19
4.5988e-19
1.52054e-18
5.97688e-18
5.89022e-19
-1.78724e-19
-9.25389e-19
2.6214e-18
3.47319e-19
1.60443e-18
9.41301e-19
5.22762e-19
1.25745e-18
2.54677e-19
1.58533e-18
-6.3743e-20
3.11969e-19
2.19244e-18
1.01535e-18
3.75493e-18
-8.75208e-19
8.18323e-19
4.17559e-18
5.16985e-18
1.12216e-17
3.54832e-18
1.03705e-17
4.41415e-18
1.91661e-17
5.11493e-17
1.33739e-16
5.09121e-16
1.75742e-15
6.18281e-15
2.07424e-14
6.9303e-14
2.29976e-13
7.59462e-13
2.4196e-12
7.67929e-12
2.28209e-11
7.18574e-11
2.06683e-10
6.17014e-10
1.73306e-09
4.69694e-09
1.13858e-08
2.3684e-08
4.20755e-08
6.04548e-08
7.51588e-08
8.65482e-08
9.64046e-08
1.10023e-07
1.37298e-07
2.00104e-07
3.85727e-07
1.05601e-06
4.23077e-06
2.35839e-05
0.000136307
0.000602396
0.00126091
0.00184387
0.00257863
0.0039522
0.00742857
0.0166302
0.0385498
0.0868456
0.185613
0.365432
0.525202
0.336604
-0.074469
-0.166328
-0.192495
-0.182386
-0.11864
-0.0618728
-0.0311048
-0.0159671
-0.00839176
-0.00451707
-0.00248167
-0.00137603
-0.000762361
-0.000418268
-0.000225427
-0.000119462
-6.14274e-05
-2.88526e-05
-9.16076e-06
-1.43346e-06
9.84396e-08
9.3622e-08
-6.67193e-10
-5.32859e-10
-8.27103e-12
1.67288e-18
-3.71152e-19
9.52669e-19
2.33313e-18
1.45404e-18
2.81915e-18
9.25133e-19
-5.14029e-19
1.46289e-18
2.36797e-18
4.737e-18
3.51046e-18
4.37395e-19
1.07385e-18
1.28814e-18
1.69809e-18
3.77044e-18
3.18448e-18
4.76417e-18
2.2988e-18
1.19783e-18
8.62312e-18
8.44252e-18
-1.3556e-18
3.13171e-18
7.67396e-18
4.88002e-18
-1.83829e-19
9.62364e-18
1.79388e-17
3.68538e-17
2.05126e-16
6.89742e-16
2.31865e-15
7.9275e-15
2.6704e-14
8.73075e-14
2.92523e-13
9.50755e-13
3.02505e-12
9.53038e-12
2.85819e-11
8.80799e-11
2.53206e-10
7.16736e-10
2.05843e-09
5.45113e-09
1.2785e-08
2.64458e-08
4.37032e-08
6.16476e-08
7.73937e-08
8.83325e-08
9.80305e-08
1.12594e-07
1.3939e-07
2.05578e-07
4.00001e-07
1.10397e-06
4.37837e-06
2.40104e-05
0.000136118
0.00059442
0.00124913
0.00182807
0.00255129
0.00387647
0.00720464
0.0160211
0.0371908
0.0841216
0.180248
0.35907
0.526713
0.354428
-0.0707125
-0.166908
-0.194416
-0.184694
-0.119872
-0.0623454
-0.0313317
-0.0161271
-0.00835337
-0.00450354
-0.00247563
-0.00137231
-0.000759805
-0.000417094
-0.000221874
-0.000117361
-6.03172e-05
-2.76696e-05
-8.36935e-06
-1.17514e-06
1.23708e-07
8.96347e-08
-1.56925e-09
-4.75896e-10
-7.42617e-12
7.93453e-19
1.41804e-18
4.86224e-19
5.09687e-19
7.82051e-19
6.00882e-19
3.18523e-18
4.20647e-19
-1.18043e-18
1.95752e-19
1.07288e-18
1.18501e-18
-4.81769e-20
4.13391e-20
1.32804e-18
-6.48899e-19
1.83792e-18
9.99574e-19
6.22648e-18
4.40899e-18
9.42178e-19
1.05073e-17
5.1107e-19
5.0743e-18
2.73204e-18
2.86087e-18
8.49474e-18
9.97602e-18
1.26431e-18
2.82538e-17
7.64188e-17
2.64102e-16
9.18819e-16
3.01164e-15
1.01278e-14
3.40071e-14
1.09957e-13
3.50951e-13
1.15251e-12
3.68275e-12
1.13482e-11
3.44474e-11
1.00765e-10
2.9836e-10
8.38364e-10
2.36657e-09
6.09681e-09
1.44057e-08
2.73246e-08
4.45228e-08
6.39355e-08
7.89314e-08
8.96194e-08
9.98962e-08
1.13803e-07
1.41792e-07
2.11202e-07
4.13016e-07
1.13915e-06
4.51601e-06
2.44882e-05
0.000136791
0.000590145
0.00124053
0.00181635
0.00253132
0.00382622
0.00704983
0.0156094
0.0362291
0.0822197
0.176637
0.35429
0.528301
0.369028
-0.0657353
-0.167397
-0.196215
-0.186781
-0.12094
-0.0627401
-0.0315014
-0.0162064
-0.00839342
-0.00452163
-0.00248322
-0.00137479
-0.000759895
-0.000416181
-0.000220907
-0.000116524
-5.97735e-05
-2.6805e-05
-7.76744e-06
-9.84003e-07
1.42122e-07
8.63933e-08
-2.06903e-09
-4.31094e-10
-6.8385e-12
3.69461e-19
-1.99758e-20
-3.35424e-19
1.22425e-18
3.01203e-19
8.06315e-19
2.13423e-18
2.88936e-18
6.4463e-19
-5.50634e-19
5.06821e-19
1.93026e-18
2.38808e-18
2.23371e-18
2.45593e-18
4.21088e-18
1.99865e-18
1.72908e-18
2.63492e-18
1.15899e-18
1.17738e-17
8.08591e-18
1.27593e-17
6.27947e-18
5.34218e-18
-4.36124e-18
8.72383e-18
7.30949e-18
1.2935e-17
3.37822e-17
1.00213e-16
3.25319e-16
1.08973e-15
3.74208e-15
1.23136e-14
4.08664e-14
1.33717e-13
4.15798e-13
1.36295e-12
4.50621e-12
1.35464e-11
3.98417e-11
1.16977e-10
3.42529e-10
9.62996e-10
2.64636e-09
6.89351e-09
1.49296e-08
2.81562e-08
4.67226e-08
6.57907e-08
8.02473e-08
9.04733e-08
1.00903e-07
1.15457e-07
1.44534e-07
2.15865e-07
4.25992e-07
1.17348e-06
4.62452e-06
2.47962e-05
0.000136677
0.000584969
0.00123296
0.00180747
0.00251776
0.00378702
0.00691617
0.0152357
0.0354468
0.0807689
0.173754
0.350636
0.529503
0.379054
-0.0618145
-0.167687
-0.197535
-0.188456
-0.12188
-0.0631112
-0.031668
-0.0162855
-0.00844103
-0.00454663
-0.00249572
-0.00138053
-0.000762056
-0.000416557
-0.000220862
-0.000116262
-5.95657e-05
-2.62122e-05
-7.34242e-06
-8.51457e-07
1.55044e-07
8.40977e-08
-2.33574e-09
-4.03688e-10
-6.4226e-12
1.44566e-19
8.08208e-19
1.91302e-20
5.90807e-19
8.97311e-19
7.39615e-19
-7.88236e-20
-6.21591e-19
6.59947e-19
4.84489e-19
5.86502e-19
4.07979e-19
7.57e-19
3.48484e-18
2.52303e-18
3.72341e-18
2.22261e-18
1.71432e-18
2.33813e-18
-7.9641e-19
7.33455e-18
8.99945e-18
2.24183e-18
-1.1435e-18
3.10174e-18
1.09003e-17
-7.86886e-19
9.18379e-18
1.30247e-17
4.06656e-17
1.22009e-16
3.88805e-16
1.32411e-15
4.47043e-15
1.46392e-14
4.88325e-14
1.60667e-13
5.05995e-13
1.66206e-12
5.20561e-12
1.57443e-11
4.68467e-11
1.36186e-10
3.81876e-10
1.0757e-09
2.93381e-09
7.30648e-09
1.50647e-08
2.95113e-08
4.8576e-08
6.70753e-08
8.10137e-08
9.10474e-08
1.01596e-07
1.16581e-07
1.46685e-07
2.19822e-07
4.34798e-07
1.1994e-06
4.70318e-06
2.49458e-05
0.000136037
0.000579054
0.00122527
0.00179862
0.002505
0.003754
0.00680814
0.0149499
0.0347862
0.0794593
0.171155
0.347086
0.530099
0.388742
-0.0577257
-0.167755
-0.198549
-0.19001
-0.122892
-0.0635649
-0.0318797
-0.016389
-0.00850025
-0.00457824
-0.00251232
-0.00138892
-0.00076597
-0.000418109
-0.000221537
-0.000116451
-5.96099e-05
-2.58597e-05
-7.05993e-06
-7.59929e-07
1.6457e-07
8.26408e-08
-2.48431e-09
-3.8614e-10
-6.15621e-12
3.95043e-19
2.46953e-19
1.65601e-18
2.39129e-18
1.07982e-18
1.13062e-18
1.42894e-18
2.00648e-18
5.1332e-19
2.25193e-19
-1.25808e-19
1.27125e-18
1.2993e-18
8.59077e-19
1.23967e-18
1.33341e-19
2.66442e-18
3.29516e-21
6.82115e-19
5.65576e-18
6.4493e-18
3.80483e-18
3.66375e-19
-4.99756e-18
3.69701e-18
2.48753e-18
5.28915e-18
1.0471e-17
2.30131e-17
3.23048e-17
1.34291e-16
4.86291e-16
1.64159e-15
5.27972e-15
1.73375e-14
5.66707e-14
1.8661e-13
5.74866e-13
1.87987e-12
5.90946e-12
1.79312e-11
5.23558e-11
1.53451e-10
4.30585e-10
1.21517e-09
3.25219e-09
7.55637e-09
1.60883e-08
3.10019e-08
5.01266e-08
6.83751e-08
8.17551e-08
9.15799e-08
1.02238e-07
1.17594e-07
1.4841e-07
2.23104e-07
4.42163e-07
1.21767e-06
4.74395e-06
2.48962e-05
0.000134529
0.000571219
0.00121675
0.0017884
0.00248887
0.00371837
0.00670187
0.014664
0.0341188
0.0781054
0.168454
0.343118
0.53014
0.398947
-0.0528583
-0.167562
-0.199238
-0.191488
-0.124053
-0.064143
-0.0321569
-0.0165265
-0.00857448
-0.00461776
-0.00253341
-0.00140001
-0.000771596
-0.000420776
-0.000222855
-0.000117031
-5.98687e-05
-2.5712e-05
-6.89287e-06
-6.9988e-07
1.71963e-07
8.20097e-08
-2.57355e-09
-3.75898e-10
-6.00168e-12
5.02963e-19
2.79597e-19
3.30297e-19
2.13174e-18
2.66241e-18
1.76586e-18
5.54708e-19
7.2413e-20
9.6832e-19
2.0916e-18
-6.32313e-19
7.70731e-19
8.03727e-19
5.28972e-19
4.45073e-19
2.23213e-19
2.27641e-18
6.6792e-18
8.09801e-18
6.82943e-18
2.06726e-18
6.62396e-18
2.74164e-18
1.02947e-18
4.75636e-18
9.67919e-18
2.60804e-18
1.00858e-17
4.88647e-18
3.03923e-17
1.5954e-16
5.73413e-16
1.8814e-15
6.2628e-15
2.03766e-14
6.63559e-14
2.16896e-13
6.49418e-13
2.11124e-12
6.62207e-12
1.97935e-11
5.8998e-11
1.70651e-10
4.84639e-10
1.27456e-09
3.16927e-09
7.85554e-09
1.718e-08
3.24118e-08
5.16493e-08
6.93446e-08
8.23056e-08
9.20002e-08
1.02772e-07
1.1838e-07
1.49719e-07
2.25558e-07
4.4726e-07
1.22805e-06
4.74603e-06
2.46195e-05
0.00013157
0.000559215
0.00120321
0.00177465
0.00247107
0.0036723
0.00657728
0.0143102
0.0333253
0.0763796
0.16498
0.338331
0.529684
0.409915
-0.0470666
-0.167114
-0.199641
-0.192957
-0.125423
-0.0648729
-0.0325111
-0.0167025
-0.00866561
-0.00466588
-0.00255919
-0.00141381
-0.00077886
-0.000424472
-0.000224742
-0.000117948
-6.03122e-05
-2.57379e-05
-6.8174e-06
-6.6364e-07
1.78062e-07
8.20853e-08
-2.63317e-09
-3.71128e-10
-5.93116e-12
8.75024e-19
1.81013e-18
1.14014e-18
1.11138e-18
5.89591e-19
6.85159e-19
3.70358e-20
-4.40539e-20
1.583e-18
2.80429e-18
8.12444e-19
3.50543e-18
2.09675e-18
1.17049e-18
5.66049e-18
6.8519e-18
5.42348e-18
2.26827e-18
5.56171e-18
1.0132e-17
6.3407e-18
4.40911e-18
3.70069e-18
5.46522e-18
5.13287e-18
-4.31281e-18
4.3907e-18
1.12941e-17
1.15041e-17
7.1752e-17
1.92008e-16
6.4586e-16
2.15882e-15
7.00367e-15
2.26622e-14
7.26522e-14
2.28526e-13
7.11564e-13
2.32779e-12
7.19827e-12
2.13474e-11
6.30491e-11
1.82014e-10
4.96706e-10
1.29334e-09
3.46e-09
8.40051e-09
1.81188e-08
3.38214e-08
5.29176e-08
7.01908e-08
8.27934e-08
9.2363e-08
1.03142e-07
1.1895e-07
1.5079e-07
2.27318e-07
4.50271e-07
1.23075e-06
4.71956e-06
2.42435e-05
0.000128502
0.000545619
0.00118894
0.00175903
0.00244927
0.00362565
0.00645108
0.0139679
0.0324952
0.0735652
0.161729
0.333205
0.528028
0.421572
-0.0397854
-0.166394
-0.19987
-0.194566
-0.127061
-0.0657674
-0.0329427
-0.0169157
-0.00877235
-0.00472137
-0.00258895
-0.00142988
-0.000787479
-0.000429014
-0.000227085
-0.000119133
-6.09049e-05
-2.59016e-05
-6.81263e-06
-6.45036e-07
1.83323e-07
8.27548e-08
-2.6772e-09
-3.70427e-10
-5.92316e-12
3.66096e-19
1.41319e-18
2.08137e-18
8.40106e-19
4.03117e-19
2.55969e-19
-3.23884e-19
-2.47262e-19
5.20097e-19
3.94653e-19
2.66158e-19
9.60556e-19
-3.81319e-19
3.55243e-18
4.20906e-19
3.51402e-18
3.66992e-18
2.50144e-18
5.8071e-18
8.10838e-18
1.08429e-17
2.72108e-18
-1.55532e-18
2.57731e-18
4.87422e-18
9.22419e-18
8.04686e-18
7.74172e-18
3.15369e-17
9.2012e-17
2.46763e-16
7.78833e-16
2.33756e-15
7.80666e-15
2.45867e-14
7.79271e-14
2.49327e-13
7.69883e-13
2.55253e-12
7.74115e-12
2.28936e-11
6.64848e-11
1.87216e-10
5.09892e-10
1.41148e-09
3.71908e-09
8.95852e-09
1.91722e-08
3.51807e-08
5.42666e-08
7.12141e-08
8.34963e-08
9.30388e-08
1.03338e-07
1.19403e-07
1.51581e-07
2.28396e-07
4.51332e-07
1.2264e-06
4.64993e-06
2.35723e-05
0.000123978
0.000531627
0.00117426
0.00174346
0.00242806
0.00357929
0.00631947
0.013636
0.0317357
0.0719253
0.158326
0.3275
0.526098
0.433439
-0.0320311
-0.165476
-0.199837
-0.195997
-0.128741
-0.0667263
-0.0334112
-0.0171488
-0.0088883
-0.00478248
-0.00262151
-0.00144748
-0.000797007
-0.000434159
-0.000229758
-0.000120515
-6.1606e-05
-2.6169e-05
-6.86062e-06
-6.39362e-07
1.88031e-07
8.38782e-08
-2.71235e-09
-3.72642e-10
-5.95998e-12
4.43707e-19
6.33253e-20
2.35918e-18
1.637e-18
6.18603e-19
4.75185e-19
1.74935e-18
4.09122e-18
2.29629e-18
2.32324e-18
1.03715e-18
3.17379e-18
9.82711e-19
1.23114e-18
1.91725e-18
2.05579e-18
3.4546e-18
4.48915e-18
-1.88658e-19
1.26097e-18
-3.79533e-19
4.7291e-18
5.02719e-18
4.94982e-18
1.57449e-18
1.0091e-17
8.9609e-18
1.79318e-17
3.87133e-17
9.28171e-17
2.59976e-16
8.15867e-16
2.68895e-15
8.76113e-15
2.80985e-14
8.86553e-14
2.73907e-13
8.43648e-13
2.6796e-12
8.38316e-12
2.44931e-11
7.05974e-11
1.97712e-10
5.4902e-10
1.51267e-09
3.95519e-09
9.44905e-09
2.00351e-08
3.63412e-08
5.54253e-08
7.21361e-08
8.42154e-08
9.37317e-08
1.03353e-07
1.19775e-07
1.52232e-07
2.29039e-07
4.5111e-07
1.21812e-06
4.58414e-06
2.29953e-05
0.000120172
0.00051608
0.00115896
0.00172775
0.00240719
0.0035353
0.00619469
0.0133055
0.0310217
0.0701074
0.154641
0.321694
0.523775
0.444491
-0.0239317
-0.16444
-0.199626
-0.197363
-0.130497
-0.0677411
-0.0339058
-0.0173946
-0.00900986
-0.00484648
-0.00265634
-0.00146665
-0.000807543
-0.000439843
-0.0002327
-0.000122056
-6.24035e-05
-2.65215e-05
-6.94782e-06
-6.42747e-07
1.9241e-07
8.53257e-08
-2.74129e-09
-3.76848e-10
-6.02749e-12
3.00401e-19
-1.95239e-19
2.50049e-18
2.14302e-18
1.89411e-18
4.12454e-19
1.91361e-18
1.87702e-18
-2.61628e-21
2.55594e-18
1.26851e-18
-8.99099e-19
2.74228e-18
1.67728e-18
1.0946e-18
3.56311e-18
-1.56419e-19
1.41315e-18
-3.25694e-19
1.51681e-18
8.26795e-18
5.05487e-18
3.80378e-18
4.25253e-18
6.23006e-18
1.04874e-17
9.70371e-18
1.18843e-17
2.35868e-17
9.25485e-17
2.77689e-16
8.95088e-16
2.92978e-15
9.50785e-15
3.01638e-14
9.43602e-14
2.90709e-13
8.92738e-13
2.83491e-12
8.93124e-12
2.62279e-11
7.60275e-11
2.11854e-10
5.92248e-10
1.59565e-09
4.15528e-09
9.86992e-09
2.06748e-08
3.71106e-08
5.6112e-08
7.2606e-08
8.45134e-08
9.39341e-08
1.03419e-07
1.20233e-07
1.52765e-07
2.29295e-07
4.49741e-07
1.20611e-06
4.49623e-06
2.24121e-05
0.000116361
0.000501633
0.0011432
0.00171133
0.00238545
0.00349072
0.00607034
0.0129652
0.0302374
0.0684579
0.151351
0.316049
0.52067
0.455079
-0.0148834
-0.163254
-0.199359
-0.198691
-0.132304
-0.0688266
-0.034442
-0.0176617
-0.0091389
-0.0049137
-0.00269246
-0.00148639
-0.000818409
-0.000445842
-0.000235835
-0.000123692
-6.32366e-05
-2.69131e-05
-7.05908e-06
-6.52965e-07
1.96335e-07
8.70165e-08
-2.76724e-09
-3.82711e-10
-6.12027e-12
-5.40094e-19
1.76893e-18
3.96384e-19
2.41003e-18
1.66561e-18
9.45579e-19
2.32409e-18
1.80815e-18
1.82183e-18
1.40102e-18
2.20967e-18
2.01253e-18
2.29044e-18
3.36658e-18
6.52337e-18
8.46038e-18
6.22632e-18
2.24463e-18
5.67917e-18
8.04206e-19
1.24439e-17
8.31048e-18
4.02169e-18
1.0282e-20
3.38214e-20
1.72656e-18
1.32311e-17
1.37701e-17
1.98055e-17
8.66731e-17
3.09417e-16
9.65854e-16
3.10541e-15
9.96776e-15
3.17698e-14
9.93334e-14
3.09795e-13
9.34245e-13
3.02247e-12
9.42198e-12
2.73032e-11
7.83583e-11
2.23283e-10
6.22885e-10
1.66836e-09
4.31973e-09
1.01614e-08
2.11159e-08
3.76272e-08
5.6552e-08
7.28894e-08
8.46985e-08
9.40463e-08
1.03462e-07
1.2058e-07
1.53166e-07
2.2932e-07
4.48061e-07
1.19476e-06
4.41168e-06
2.17455e-05
0.000112305
0.000488036
0.00112829
0.00169624
0.00236558
0.00344993
0.00596575
0.0126666
0.0295193
0.0669415
0.14808
0.310609
0.517581
0.464448
-0.00585645
-0.16203
-0.198993
-0.19992
-0.134134
-0.0699239
-0.0349795
-0.017928
-0.0092685
-0.00498083
-0.00272837
-0.00150596
-0.000829155
-0.000451748
-0.000238912
-0.000125318
-6.40803e-05
-2.73348e-05
-7.1883e-06
-6.67654e-07
1.99979e-07
8.8798e-08
-2.78803e-09
-3.89222e-10
-6.22285e-12
6.80093e-19
5.59715e-19
-3.83288e-19
9.96455e-19
4.31272e-19
4.92068e-20
9.95197e-19
-1.23736e-19
9.29417e-20
2.25935e-18
3.64356e-18
3.6735e-18
5.30032e-18
2.51234e-18
6.74206e-19
2.73007e-18
4.7278e-18
6.38516e-18
7.37379e-18
4.71696e-18
-1.18541e-18
-5.20205e-19
4.95126e-18
-1.57455e-18
-2.15617e-18
1.54854e-18
2.35349e-18
8.77465e-18
2.80657e-17
8.99545e-17
2.80834e-16
9.9787e-16
3.26609e-15
1.04612e-14
3.2668e-14
1.01339e-13
3.23573e-13
9.74943e-13
3.13272e-12
9.48374e-12
2.91423e-11
8.31844e-11
2.35218e-10
6.39369e-10
1.72226e-09
4.43475e-09
1.03767e-08
2.14447e-08
3.80111e-08
5.68796e-08
7.31021e-08
8.48107e-08
9.41145e-08
1.03488e-07
1.20815e-07
1.53401e-07
2.29026e-07
4.4565e-07
1.18045e-06
4.32955e-06
2.11595e-05
0.000108694
0.000474691
0.00111444
0.00168225
0.00234739
0.00341317
0.00586524
0.0123889
0.0288751
0.0655868
0.14524
0.305635
0.514442
0.47285
0.00289337
-0.160821
-0.198614
-0.201014
-0.135821
-0.0709467
-0.0354803
-0.0181756
-0.00938805
-0.0050428
-0.00276155
-0.00152406
-0.000839112
-0.00045723
-0.000241767
-0.00012682
-6.48552e-05
-2.77309e-05
-7.31415e-06
-6.83738e-07
2.03047e-07
9.04834e-08
-2.80365e-09
-3.95659e-10
-6.32407e-12
2.15223e-19
8.6511e-19
7.78771e-19
1.4487e-18
6.73881e-19
6.21544e-19
1.5802e-18
8.24228e-19
1.29323e-18
-2.57616e-19
1.31486e-19
5.39889e-18
2.28372e-18
7.6187e-19
2.68682e-18
-1.22603e-19
8.13999e-19
6.21205e-18
1.13774e-18
3.80466e-18
-5.01569e-19
1.52188e-18
2.59037e-18
2.90891e-18
7.1604e-18
-1.77065e-18
4.75028e-18
4.08037e-18
1.94838e-17
8.26405e-17
3.12418e-16
1.04263e-15
3.38483e-15
1.09067e-14
3.46446e-14
1.09063e-13
3.35282e-13
1.06102e-12
3.32476e-12
1.02357e-11
2.99882e-11
8.52347e-11
2.4116e-10
6.51503e-10
1.76259e-09
4.52367e-09
1.0538e-08
2.1684e-08
3.82787e-08
5.70905e-08
7.32316e-08
8.48847e-08
9.41637e-08
1.03504e-07
1.20978e-07
1.53543e-07
2.28638e-07
4.43056e-07
1.16702e-06
4.24822e-06
2.06341e-05
0.000105665
0.000463745
0.00110278
0.00167025
0.00233191
0.00338294
0.00578541
0.0121688
0.0283177
0.0644298
0.142853
0.301334
0.511647
0.479724
0.0106387
-0.15975
-0.19827
-0.201899
-0.137261
-0.0718304
-0.035911
-0.0183895
-0.00949128
-0.00509636
-0.00279026
-0.00153974
-0.000847755
-0.000462003
-0.000244258
-0.000128148
-6.5538e-05
-2.80866e-05
-7.42932e-06
-6.98982e-07
2.05692e-07
9.19969e-08
-2.81493e-09
-4.01523e-10
-6.41607e-12
6.72759e-19
1.10307e-18
1.42952e-18
9.56571e-19
1.39544e-18
1.08878e-18
2.0218e-18
2.6581e-18
1.55636e-18
1.00276e-19
1.60934e-19
4.88277e-19
1.64386e-18
4.25709e-19
4.39103e-18
2.88467e-18
5.43717e-19
1.71885e-18
1.90736e-18
5.20778e-18
3.98591e-18
-7.60506e-19
4.52931e-18
2.59366e-18
1.11171e-18
1.18779e-17
1.86156e-18
1.40321e-17
3.59019e-17
1.14761e-16
3.36714e-16
1.09224e-15
3.54121e-15
1.14079e-14
3.62976e-14
1.1477e-13
3.57394e-13
1.09251e-12
3.39113e-12
1.02252e-11
3.01872e-11
8.64634e-11
2.37509e-10
6.61436e-10
1.79724e-09
4.59071e-09
1.06589e-08
2.18632e-08
3.84789e-08
5.7249e-08
7.33261e-08
8.49368e-08
9.41968e-08
1.03516e-07
1.21084e-07
1.53609e-07
2.28248e-07
4.4101e-07
1.157e-06
4.19092e-06
2.02603e-05
0.000103313
0.000454673
0.00109225
0.00166004
0.00231879
0.00335731
0.00571756
0.0119788
0.0278791
0.0635123
0.140953
0.298032
0.50932
0.484885
0.016902
-0.158871
-0.197979
-0.202571
-0.138406
-0.0725419
-0.0362623
-0.0185627
-0.0095746
-0.00513949
-0.00281335
-0.00155235
-0.000854704
-0.000465842
-0.000246263
-0.00012921
-6.60827e-05
-2.83721e-05
-7.52367e-06
-7.12169e-07
2.07696e-07
9.32281e-08
-2.82247e-09
-4.0638e-10
-6.49221e-12
5.19491e-19
1.25601e-18
2.96505e-18
4.24193e-18
2.60129e-18
1.90079e-18
1.45645e-18
4.51806e-18
9.41338e-19
6.99766e-20
9.69147e-20
1.25232e-19
1.32154e-18
1.56642e-18
2.65113e-18
5.80245e-18
4.052e-18
1.97956e-18
3.50354e-18
7.83674e-20
7.00929e-18
3.7285e-18
2.89978e-18
6.71984e-18
1.01326e-17
8.24712e-18
6.19148e-18
3.07586e-18
2.67752e-17
1.14993e-16
3.44643e-16
1.0962e-15
3.61071e-15
1.13669e-14
3.61054e-14
1.13449e-13
3.52083e-13
1.07462e-12
3.34699e-12
1.04404e-11
2.99359e-11
8.57982e-11
2.39662e-10
6.67914e-10
1.82161e-09
4.63845e-09
1.07439e-08
2.1988e-08
3.86181e-08
5.7362e-08
7.33905e-08
8.49741e-08
9.42204e-08
1.03526e-07
1.21153e-07
1.53649e-07
2.27964e-07
4.39509e-07
1.1496e-06
4.14877e-06
1.99869e-05
0.000101693
0.000448541
0.00108521
0.00165306
0.00230966
0.00333968
0.00567165
0.0118504
0.0275817
0.0629114
0.139694
0.295661
0.507645
0.488429
0.021409
-0.158234
-0.197763
-0.203033
-0.139213
-0.0730464
-0.0365099
-0.018685
-0.00963349
-0.00516997
-0.00282967
-0.00156127
-0.000859625
-0.000468567
-0.000247684
-0.000129966
-6.64712e-05
-2.85782e-05
-7.59262e-06
-7.21891e-07
2.09111e-07
9.41116e-08
-2.82705e-09
-4.09889e-10
-6.54715e-12
1.58724e-19
-2.57398e-19
3.48076e-19
1.25312e-18
5.84861e-19
1.13488e-18
7.05808e-19
2.09246e-18
1.4633e-18
1.51071e-18
9.50885e-19
1.02908e-18
1.94105e-18
9.45734e-19
1.86097e-18
1.93416e-18
5.98828e-20
8.80766e-19
2.23484e-18
4.29823e-18
3.16743e-18
9.82681e-19
1.48339e-18
7.80548e-18
8.21077e-18
1.41783e-17
6.00228e-19
2.19693e-17
3.32367e-17
8.64228e-17
3.4555e-16
1.11899e-15
3.65953e-15
1.16567e-14
3.74046e-14
1.16161e-13
3.65314e-13
1.09766e-12
3.52477e-12
1.06692e-11
3.08237e-11
8.72176e-11
2.41006e-10
6.78517e-10
1.83308e-09
4.66729e-09
1.07993e-08
2.20702e-08
3.87089e-08
5.74332e-08
7.34322e-08
8.49984e-08
9.42388e-08
1.03538e-07
1.21204e-07
1.53691e-07
2.27851e-07
4.38811e-07
1.14595e-06
4.12719e-06
1.98413e-05
0.000100847
0.00044538
0.00108152
0.00164933
0.00230479
0.00333031
0.00564711
0.0117822
0.027421
0.0625589
0.138986
0.294422
0.506733
0.490261
0.0238279
-0.157886
-0.197643
-0.203269
-0.139642
-0.0733172
-0.0366435
-0.0187512
-0.00966538
-0.0051865
-0.00283853
-0.00156611
-0.000862296
-0.000470044
-0.000248456
-0.000130375
-6.66816e-05
-2.86917e-05
-7.63032e-06
-7.27391e-07
2.09832e-07
9.45836e-08
-2.82927e-09
-4.11783e-10
-6.57685e-12
-1.92651e-19
1.93865e-18
1.19782e-18
2.01449e-18
8.90745e-19
1.56781e-18
1.11433e-18
3.62807e-18
1.16651e-18
1.9717e-20
3.1252e-18
2.94028e-18
3.95165e-18
9.92096e-19
1.70144e-18
2.65432e-18
3.88215e-19
2.44417e-18
2.05689e-18
4.42862e-18
5.00272e-18
1.70768e-18
2.42401e-18
3.90781e-18
3.659e-18
6.10085e-19
1.02387e-18
3.63471e-18
3.15186e-17
1.04825e-16
3.66241e-16
1.19806e-15
3.85144e-15
1.2578e-14
3.99231e-14
1.23114e-13
3.79998e-13
1.1297e-12
3.54178e-12
1.05345e-11
3.12319e-11
8.83179e-11
2.45426e-10
6.80455e-10
1.84064e-09
4.6849e-09
1.08321e-08
2.21197e-08
3.87655e-08
5.74806e-08
7.34637e-08
8.50191e-08
9.42563e-08
1.03554e-07
1.21254e-07
1.53757e-07
2.2791e-07
4.388e-07
1.14544e-06
4.12316e-06
1.98117e-05
0.000100664
0.000444687
0.0010807
0.00164849
0.00230373
0.00332842
0.00564247
0.0117696
0.0273927
0.0625016
0.13887
0.294214
0.506579
0.490544
0.0242104
-0.157832
-0.197621
-0.203302
-0.139707
-0.0733579
-0.0366635
-0.0187611
-0.00967015
-0.00518897
-0.00283986
-0.00156683
-0.000862694
-0.000470263
-0.00024857
-0.000130436
-6.67123e-05
-2.87076e-05
-7.63546e-06
-7.27948e-07
2.09969e-07
9.46482e-08
-2.82983e-09
-4.12011e-10
-6.5804e-12
1.3611e-19
4.96188e-19
2.45441e-18
2.86689e-18
1.24739e-18
2.74714e-19
-1.49835e-19
1.04893e-18
3.03697e-18
2.4182e-18
1.68296e-19
1.87426e-18
-1.83391e-19
1.70963e-18
2.65391e-18
1.95968e-18
2.99195e-18
1.74863e-18
4.22563e-19
1.28355e-18
2.40121e-18
1.15291e-18
1.81515e-18
5.15287e-19
6.19362e-18
1.1431e-18
7.46812e-18
1.17127e-17
4.4772e-17
1.19726e-16
3.82592e-16
1.21441e-15
3.93809e-15
1.27207e-14
4.09441e-14
1.26634e-13
3.86418e-13
1.1527e-12
3.57291e-12
1.07856e-11
3.13051e-11
8.81462e-11
2.4767e-10
6.83072e-10
1.83972e-09
4.69284e-09
1.0846e-08
2.21418e-08
3.87941e-08
5.7509e-08
7.34868e-08
8.50378e-08
9.42754e-08
1.0358e-07
1.2131e-07
1.53869e-07
2.28231e-07
4.39797e-07
1.14928e-06
4.14227e-06
1.99271e-05
0.000101314
0.000447067
0.00108335
0.00165106
0.00230706
0.00333498
0.00565986
0.0118181
0.0275065
0.0627552
0.139368
0.295127
0.507228
0.489173
0.022433
-0.15808
-0.197703
-0.203121
-0.139391
-0.0731593
-0.0365657
-0.0187126
-0.00964691
-0.00517695
-0.00283342
-0.00156331
-0.000860749
-0.000469184
-0.000248007
-0.000130135
-6.6558e-05
-2.8623e-05
-7.60649e-06
-7.2375e-07
2.0939e-07
9.42711e-08
-2.8286e-09
-4.1049e-10
-6.55663e-12
1.44659e-19
4.0351e-21
4.4695e-19
4.69404e-19
1.22916e-18
1.40314e-18
-2.156e-20
2.12916e-18
1.17167e-18
3.59068e-19
-9.97511e-20
5.84698e-19
1.03388e-19
3.71342e-18
3.16572e-18
6.40619e-18
7.19725e-18
1.53163e-18
1.45162e-18
3.79007e-18
4.13208e-18
7.06589e-18
2.58086e-18
9.17421e-18
6.09403e-18
5.78947e-18
3.34472e-18
1.00598e-17
4.07128e-17
1.36226e-16
3.7455e-16
1.13349e-15
3.75077e-15
1.1719e-14
3.61929e-14
1.1183e-13
3.57066e-13
1.06387e-12
3.43459e-12
1.07093e-11
3.07132e-11
8.79246e-11
2.43038e-10
6.83315e-10
1.83934e-09
4.68684e-09
1.08366e-08
2.21317e-08
3.87896e-08
5.75143e-08
7.34989e-08
8.5052e-08
9.42933e-08
1.03611e-07
1.21374e-07
1.5403e-07
2.28821e-07
4.41808e-07
1.15742e-06
4.1838e-06
2.01834e-05
0.000102773
0.000452389
0.00108928
0.00165683
0.00231451
0.00334951
0.00569832
0.0119251
0.027757
0.0632763
0.140428
0.297079
0.508631
0.486178
0.0186059
-0.158622
-0.197885
-0.202739
-0.138708
-0.0727306
-0.0363541
-0.0186079
-0.00959663
-0.00515092
-0.00281948
-0.00155569
-0.000856541
-0.00046685
-0.000246789
-0.000129487
-6.62242e-05
-2.8443e-05
-7.54515e-06
-7.14715e-07
2.08212e-07
9.34845e-08
-2.82564e-09
-4.07307e-10
-6.50679e-12
1.37399e-18
1.9367e-18
8.65479e-19
1.56804e-18
1.38767e-18
8.11307e-19
3.47804e-19
4.12111e-19
1.03569e-19
6.38945e-19
3.93928e-20
2.68935e-19
8.56875e-19
8.76575e-19
2.76624e-19
2.1298e-18
2.98827e-18
4.71286e-18
3.73897e-18
5.7476e-18
2.38963e-18
2.38791e-18
5.12128e-18
4.09166e-18
7.22714e-18
1.5431e-17
1.10166e-17
2.97035e-18
4.06789e-17
1.18458e-16
3.6225e-16
1.10838e-15
3.60696e-15
1.12696e-14
3.55777e-14
1.11804e-13
3.50702e-13
1.06465e-12
3.42194e-12
1.06619e-11
3.07182e-11
8.63487e-11
2.41881e-10
6.83707e-10
1.8306e-09
4.66797e-09
1.08064e-08
2.20934e-08
3.87572e-08
5.75012e-08
7.35037e-08
8.50647e-08
9.43136e-08
1.03654e-07
1.21452e-07
1.54255e-07
2.29727e-07
4.45005e-07
1.17067e-06
4.2524e-06
2.0606e-05
0.00010517
0.000461
0.00109859
0.00166586
0.00232614
0.00337235
0.00575882
0.0120935
0.0281503
0.0640929
0.142157
0.300105
0.510697
0.48147
0.0128834
-0.159427
-0.198157
-0.202146
-0.137679
-0.0720885
-0.0360388
-0.0184522
-0.00952179
-0.00511214
-0.00279869
-0.00154433
-0.000850263
-0.000463371
-0.000244971
-0.00012852
-6.5728e-05
-2.81753e-05
-7.45472e-06
-7.01506e-07
2.06448e-07
9.23199e-08
-2.82042e-09
-4.02612e-10
-6.43329e-12
5.32787e-19
4.05941e-19
1.84629e-18
2.08528e-18
1.47192e-18
3.23518e-19
2.85266e-19
2.17671e-18
8.36755e-20
-5.59153e-19
2.3297e-18
1.57586e-18
2.58295e-18
3.75037e-18
1.91178e-18
3.16947e-18
4.61551e-18
5.12042e-18
4.16789e-18
5.3855e-18
9.30943e-18
-7.04972e-19
-7.09389e-19
2.89396e-18
6.37177e-18
8.02102e-18
8.8346e-18
1.26841e-17
3.28395e-17
1.07311e-16
3.55445e-16
1.13626e-15
3.60888e-15
1.14984e-14
3.65647e-14
1.14181e-13
3.57915e-13
1.07935e-12
3.31431e-12
1.0157e-11
3.04655e-11
8.58478e-11
2.37247e-10
6.74038e-10
1.81851e-09
4.63859e-09
1.07528e-08
2.20181e-08
3.86834e-08
5.7458e-08
7.34931e-08
8.50704e-08
9.43316e-08
1.03702e-07
1.21531e-07
1.54516e-07
2.30863e-07
4.49144e-07
1.18819e-06
4.34456e-06
2.11824e-05
0.000108481
0.000472946
0.00111085
0.00167757
0.00234114
0.00340218
0.00583879
0.0123153
0.0286719
0.0651608
0.144386
0.304004
0.513309
0.475246
0.00567635
-0.160437
-0.198499
-0.201355
-0.136347
-0.0712597
-0.0356317
-0.0182508
-0.00942496
-0.00506183
-0.00277176
-0.00152962
-0.000842145
-0.000458877
-0.000242625
-0.000127274
-6.50864e-05
-2.78342e-05
-7.34004e-06
-6.85063e-07
2.04145e-07
9.08377e-08
-2.81236e-09
-3.96667e-10
-6.34016e-12
-3.5021e-19
-2.38026e-20
1.66018e-18
9.76793e-19
9.6617e-19
8.37441e-19
3.10572e-18
1.10903e-18
7.29115e-19
6.31277e-19
1.4356e-18
2.11622e-18
4.38442e-18
3.3382e-18
-2.35698e-19
1.45512e-18
1.72967e-18
-1.05286e-19
4.03805e-19
3.18416e-18
-3.11531e-19
7.443e-18
1.73711e-18
9.88611e-18
9.44785e-18
1.1371e-17
1.30846e-17
2.06226e-17
2.77985e-17
1.08667e-16
3.31722e-16
1.06099e-15
3.49181e-15
1.13098e-14
3.4988e-14
1.13432e-13
3.49923e-13
1.06951e-12
3.30483e-12
1.02125e-11
2.95885e-11
8.62068e-11
2.38442e-10
6.65598e-10
1.79095e-09
4.5898e-09
1.06703e-08
2.19016e-08
3.85651e-08
5.73774e-08
7.34605e-08
8.50645e-08
9.43437e-08
1.03753e-07
1.21584e-07
1.54786e-07
2.32175e-07
4.54036e-07
1.2092e-06
4.45589e-06
2.18767e-05
0.000112386
0.000486262
0.00112463
0.00169099
0.0023581
0.00343597
0.00592849
0.0125614
0.0292744
0.0664298
0.146996
0.308664
0.516287
0.467545
-0.00264788
-0.161596
-0.198885
-0.200367
-0.134767
-0.0702959
-0.035159
-0.0180161
-0.00931184
-0.00500324
-0.00274031
-0.0015124
-0.000832634
-0.000453608
-0.000239873
-0.000125812
-6.43312e-05
-2.74323e-05
-7.20694e-06
-6.66546e-07
2.01315e-07
8.91022e-08
-2.80077e-09
-3.89794e-10
-6.23246e-12
-1.89956e-19
5.39547e-19
-2.58521e-20
6.55118e-19
2.8247e-19
2.1523e-19
1.63888e-18
1.21929e-18
7.20187e-19
2.60892e-18
2.20474e-18
1.67396e-18