/*--------------------------------*- C++ -*----------------------------------*\
  =========                 |
  \\      /  F ield         | OpenFOAM: The Open Source CFD Toolbox
   \\    /   O peration     | Website:  https://openfoam.org
    \\  /    A nd           | Version:  10
     \\/     M anipulation  |
\*---------------------------------------------------------------------------*/
FoamFile
{
    format      ascii;
    class       volScalarField;
    location    "1";
    object      RR.HCO;
}
// * * * * * * * * * * * * * * * * * * * * * * * * * * * * * * * * * * * * * //

dimensions      [1 -3 -1 0 0 0 0];

internalField   nonuniform List<scalar> 
4000
(
1.82463e-38
-2.24802e-38
-2.0663e-38
7.98945e-39
-3.69238e-39
-4.18211e-38
-4.66202e-38
7.6461e-39
-1.06515e-37
-6.38704e-37
-1.64458e-36
-6.46978e-36
-2.1741e-35
-8.37028e-35
-3.18489e-34
-1.23024e-33
-4.72904e-33
-1.99648e-32
-8.12733e-32
-3.38656e-31
-1.43286e-30
-6.18152e-30
-2.7496e-29
-1.22658e-28
-5.567e-28
-2.5303e-27
-1.122e-26
-5.40593e-26
-2.47686e-25
-1.14836e-24
-5.36935e-24
-2.51996e-23
-1.17785e-22
-5.51859e-22
-2.59323e-21
-1.15334e-20
-5.58403e-20
-2.60924e-19
-1.2386e-18
-5.83332e-18
-2.61527e-17
-1.17244e-16
-5.0456e-16
-2.12535e-15
-8.70646e-15
-3.8022e-14
-1.66103e-13
-6.8273e-13
-2.57512e-12
-8.6639e-12
-2.52046e-11
-6.18499e-11
-1.16634e-10
-2.02053e-10
-3.65762e-10
-8.62221e-10
-2.29419e-09
-6.261e-09
-1.53801e-08
-3.14634e-08
-4.85262e-08
-3.15463e-08
7.88136e-08
1.27381e-07
3.70395e-09
-2.05673e-07
-6.23751e-07
-1.3526e-06
-2.53489e-06
-4.55992e-06
-7.1497e-06
-6.90851e-06
1.03461e-06
1.57096e-05
2.22877e-05
-1.19471e-05
-1.62169e-05
-1.04482e-05
-5.74303e-06
-7.83855e-06
-9.15833e-06
7.18807e-06
1.63216e-05
2.73572e-05
6.10472e-05
-1.44729e-05
-1.38207e-05
-1.10799e-05
-7.70044e-06
-4.91026e-06
-3.00468e-06
-1.8831e-06
-7.57888e-07
6.64019e-07
2.19415e-07
-2.79107e-07
-2.19153e-07
-9.25682e-08
-3.11466e-08
-6.461e-09
2.63295e-39
3.44588e-38
-1.17999e-37
2.13763e-37
-9.54589e-37
5.34831e-37
-2.99855e-38
-4.71497e-37
-4.91012e-37
9.01136e-37
-1.16084e-36
-3.4524e-36
-1.25046e-35
-4.47781e-35
-1.82425e-34
-7.36214e-34
-3.11108e-33
-1.34617e-32
-5.94138e-32
-2.65522e-31
-1.21164e-30
-5.6193e-30
-2.61584e-29
-1.22948e-28
-5.82717e-28
-2.75968e-27
-1.31321e-26
-6.25322e-26
-2.96331e-25
-1.39722e-24
-6.73258e-24
-3.36871e-23
-1.61117e-22
-7.58944e-22
-3.59356e-21
-1.71425e-20
-7.94173e-20
-3.82248e-19
-1.7302e-18
-8.04048e-18
-3.70312e-17
-1.63407e-16
-7.12103e-16
-2.95363e-15
-1.30174e-14
-5.60639e-14
-2.38376e-13
-9.4901e-13
-3.47711e-12
-1.13916e-11
-2.92412e-11
-6.27598e-11
-1.2257e-10
-2.05647e-10
-3.81786e-10
-9.40415e-10
-2.45539e-09
-6.53147e-09
-1.57746e-08
-3.17622e-08
-4.87747e-08
-3.30079e-08
7.36509e-08
1.25881e-07
8.53346e-09
-1.89513e-07
-5.91943e-07
-1.30367e-06
-2.46091e-06
-4.45995e-06
-7.13901e-06
-7.19068e-06
5.30947e-07
1.5438e-05
2.31816e-05
-1.13941e-05
-1.64785e-05
-1.0613e-05
-5.62621e-06
-7.5852e-06
-8.59892e-06
8.4191e-06
1.69682e-05
2.94603e-05
5.55887e-05
-1.37323e-05
-1.33956e-05
-1.0743e-05
-7.44205e-06
-4.73456e-06
-2.89895e-06
-1.82983e-06
-6.3035e-07
7.08652e-07
1.72537e-07
-2.89219e-07
-2.10284e-07
-8.7232e-08
-2.912e-08
-6.00595e-09
2.99697e-37
-1.36467e-37
5.4264e-37
1.1418e-36
2.15743e-36
-3.42795e-36
-6.32008e-37
-5.78417e-37
1.53501e-36
1.89964e-36
-1.69066e-36
4.28984e-38
-3.30107e-36
-1.5903e-35
-8.15314e-35
-3.72227e-34
-1.842e-33
-9.02098e-33
-4.44004e-32
-2.2013e-31
-1.08754e-30
-5.38971e-30
-2.65574e-29
-1.30128e-28
-6.35816e-28
-3.11473e-27
-1.5273e-26
-7.58231e-26
-3.66871e-25
-1.76064e-24
-8.94353e-24
-4.27711e-23
-2.00432e-22
-9.7193e-22
-4.74182e-21
-2.24153e-20
-1.04545e-19
-4.8862e-19
-2.27612e-18
-1.02737e-17
-4.63648e-17
-1.95611e-16
-9.15041e-16
-3.80709e-15
-1.72059e-14
-7.26509e-14
-3.05978e-13
-1.19061e-12
-4.18981e-12
-1.32987e-11
-3.31626e-11
-6.98607e-11
-1.30774e-10
-2.13302e-10
-4.01178e-10
-9.78922e-10
-2.53482e-09
-6.67256e-09
-1.59234e-08
-3.18556e-08
-4.89443e-08
-3.4382e-08
6.84531e-08
1.22634e-07
1.16461e-08
-1.76034e-07
-5.62753e-07
-1.25684e-06
-2.40147e-06
-4.38039e-06
-7.11599e-06
-7.46617e-06
3.09227e-08
1.516e-05
2.41474e-05
-1.07627e-05
-1.68173e-05
-1.0792e-05
-5.44224e-06
-7.21315e-06
-7.70767e-06
1.02213e-05
1.80474e-05
3.30204e-05
4.35848e-05
-1.22315e-05
-1.25355e-05
-1.01117e-05
-7.01728e-06
-4.45593e-06
-2.73628e-06
-1.74405e-06
-4.47555e-07
7.42848e-07
1.13896e-07
-2.96956e-07
-1.99814e-07
-8.11448e-08
-2.6906e-08
-5.51986e-09
3.63483e-38
-4.93818e-39
-8.82394e-37
-4.78573e-37
3.36611e-37
2.5163e-36
-8.7074e-37
-3.70935e-37
-2.55014e-37
-2.90648e-36
-4.36893e-37
-3.97816e-36
-9.86429e-36
-2.00721e-35
-7.07255e-35
-3.83606e-34
-1.91524e-33
-9.83709e-33
-4.99119e-32
-2.50503e-31
-1.2663e-30
-6.35163e-30
-3.17477e-29
-1.57852e-28
-7.98989e-28
-3.9501e-27
-1.95301e-26
-9.58173e-26
-4.5794e-25
-2.33399e-24
-1.13084e-23
-5.45958e-23
-2.60178e-22
-1.2543e-21
-6.0859e-21
-2.87404e-20
-1.31861e-19
-6.25321e-19
-2.87279e-18
-1.30528e-17
-5.90969e-17
-2.56411e-16
-1.16251e-15
-4.89356e-15
-2.05352e-14
-9.02966e-14
-3.73462e-13
-1.42395e-12
-4.99465e-12
-1.40356e-11
-3.49109e-11
-7.79879e-11
-1.37305e-10
-2.20241e-10
-4.30623e-10
-9.95277e-10
-2.60111e-09
-6.78766e-09
-1.60749e-08
-3.19318e-08
-4.90044e-08
-3.5384e-08
6.47646e-08
1.2126e-07
1.41391e-08
-1.65775e-07
-5.40992e-07
-1.22367e-06
-2.35653e-06
-4.32684e-06
-7.11837e-06
-7.75051e-06
-4.25685e-07
1.49147e-05
2.50617e-05
-1.04376e-05
-1.71427e-05
-1.09245e-05
-5.22131e-06
-6.82385e-06
-6.78548e-06
1.19609e-05
1.92775e-05
3.76076e-05
2.68335e-05
-1.03426e-05
-1.14486e-05
-9.39324e-06
-6.56112e-06
-4.14712e-06
-2.56518e-06
-1.65262e-06
-2.63628e-07
7.55194e-07
5.69217e-08
-3.00446e-07
-1.89674e-07
-7.57486e-08
-2.48977e-08
-5.08231e-09
-2.54007e-38
1.01267e-37
-2.97404e-38
-3.31383e-37
5.03967e-37
-7.08341e-37
1.28372e-36
-4.04181e-37
-7.59288e-38
-7.39064e-38
-7.22782e-38
1.10568e-36
-6.78489e-36
-1.62455e-35
-8.12931e-35
-4.59484e-34
-2.26836e-33
-1.1883e-32
-6.09655e-32
-3.11263e-31
-1.58614e-30
-8.00073e-30
-4.02641e-29
-2.00814e-28
-1.00098e-27
-4.96025e-27
-2.45784e-26
-1.22953e-25
-6.01825e-25
-2.93836e-24
-1.42769e-23
-7.13249e-23
-3.39504e-22
-1.6358e-21
-7.75413e-21
-3.64395e-20
-1.65283e-19
-7.44201e-19
-3.51228e-18
-1.62002e-17
-7.12784e-17
-3.1553e-16
-1.34235e-15
-5.92988e-15
-2.48327e-14
-1.07266e-13
-4.35826e-13
-1.66841e-12
-5.15526e-12
-1.4499e-11
-3.85258e-11
-8.33334e-11
-1.45738e-10
-2.35362e-10
-4.36052e-10
-1.02252e-09
-2.67419e-09
-6.91282e-09
-1.61835e-08
-3.19799e-08
-4.90895e-08
-3.62284e-08
6.15871e-08
1.18933e-07
1.51915e-08
-1.5775e-07
-5.25885e-07
-1.2016e-06
-2.32889e-06
-4.29735e-06
-7.14036e-06
-7.97518e-06
-8.04435e-07
1.4764e-05
2.58865e-05
-9.97193e-06
-1.74879e-05
-1.10726e-05
-5.02908e-06
-6.47352e-06
-5.89312e-06
1.36308e-05
2.03027e-05
4.123e-05
1.44777e-05
-8.84398e-06
-1.05546e-05
-8.78752e-06
-6.16682e-06
-3.90881e-06
-2.43526e-06
-1.57627e-06
-1.06891e-07
7.5452e-07
1.24031e-08
-3.01965e-07
-1.81535e-07
-7.15538e-08
-2.3323e-08
-4.75022e-09
3.39022e-38
-2.13774e-40
-4.39469e-40
-1.18721e-38
-1.27e-37
-5.60074e-37
-3.23206e-39
-3.91297e-37
-1.76921e-36
-5.789e-37
1.67263e-36
1.79294e-36
-6.35098e-36
-3.3974e-35
-1.18116e-34
-6.36771e-34
-3.19898e-33
-1.64234e-32
-8.459e-32
-4.20362e-31
-2.16568e-30
-1.07961e-29
-5.32873e-29
-2.64007e-28
-1.32196e-27
-6.68011e-27
-3.2609e-26
-1.56911e-25
-7.80665e-25
-3.75244e-24
-1.79244e-23
-9.06051e-23
-4.2821e-22
-2.01836e-21
-9.37033e-21
-4.36264e-20
-1.99368e-19
-8.94717e-19
-4.24447e-18
-2.03719e-17
-8.72012e-17
-3.69371e-16
-1.57857e-15
-6.93282e-15
-2.91683e-14
-1.23372e-13
-5.06868e-13
-1.73742e-12
-5.41811e-12
-1.5996e-11
-4.11723e-11
-8.54988e-11
-1.44469e-10
-2.34966e-10
-4.46767e-10
-1.05509e-09
-2.72438e-09
-7.00685e-09
-1.62617e-08
-3.19579e-08
-4.90585e-08
-3.69246e-08
5.89932e-08
1.17959e-07
1.69931e-08
-1.51983e-07
-5.13006e-07
-1.18057e-06
-2.30439e-06
-4.2762e-06
-7.15855e-06
-8.15723e-06
-1.08993e-06
1.46643e-05
2.64621e-05
-9.57491e-06
-1.77692e-05
-1.12079e-05
-4.89114e-06
-6.20476e-06
-5.2313e-06
1.48094e-05
2.09034e-05
4.37133e-05
7.0757e-06
-7.96161e-06
-9.99012e-06
-8.38106e-06
-5.89031e-06
-3.74033e-06
-2.34401e-06
-1.51783e-06
1.5863e-08
7.46964e-07
-1.97696e-08
-3.02487e-07
-1.75731e-07
-6.85919e-08
-2.22316e-08
-4.51328e-09
1.84717e-38
6.53441e-38
-2.52043e-38
-1.21439e-37
2.83153e-37
5.42516e-39
1.01871e-38
-5.85446e-38
-8.18877e-37
-4.07495e-37
2.35347e-36
-1.24726e-36
-7.37895e-36
-3.25817e-35
-1.59434e-34
-8.49437e-34
-4.36063e-33
-2.20698e-32
-1.11339e-31
-5.69029e-31
-2.84293e-30
-1.41482e-29
-7.02944e-29
-3.47308e-28
-1.7004e-27
-8.28218e-27
-4.04679e-26
-1.91448e-25
-9.62562e-25
-4.73903e-24
-2.27249e-23
-1.0872e-22
-5.15403e-22
-2.43432e-21
-1.12581e-20
-5.32385e-20
-2.53223e-19
-1.13046e-18
-5.3912e-18
-2.41425e-17
-1.04738e-16
-4.48896e-16
-1.89399e-15
-7.76323e-15
-3.2843e-14
-1.35896e-13
-5.266e-13
-1.71909e-12
-5.79963e-12
-1.70905e-11
-4.27155e-11
-8.67117e-11
-1.4402e-10
-2.34831e-10
-4.53577e-10
-1.07863e-09
-2.76598e-09
-7.05417e-09
-1.628e-08
-3.19031e-08
-4.90379e-08
-3.7641e-08
5.64901e-08
1.17149e-07
1.87737e-08
-1.46719e-07
-5.02681e-07
-1.16383e-06
-2.28357e-06
-4.25266e-06
-7.16268e-06
-8.30071e-06
-1.35768e-06
1.45221e-05
2.6959e-05
-9.10963e-06
-1.80228e-05
-1.13693e-05
-4.80176e-06
-6.00415e-06
-4.76835e-06
1.55653e-05
2.12025e-05
4.52707e-05
3.10214e-06
-7.53794e-06
-9.69007e-06
-8.14557e-06
-5.72142e-06
-3.63502e-06
-2.28725e-06
-1.47728e-06
1.01739e-07
7.38586e-07
-4.29599e-08
-3.02749e-07
-1.71759e-07
-6.65966e-08
-2.14966e-08
-4.35388e-09
-2.34677e-39
-8.33973e-39
5.67906e-38
4.49732e-37
-1.04709e-37
-5.71323e-37
1.12955e-36
-3.26143e-37
-1.36448e-38
1.67526e-36
-3.10058e-36
-4.15251e-36
-8.13771e-36
-4.67515e-35
-2.18397e-34
-1.12921e-33
-5.77081e-33
-2.91203e-32
-1.45329e-31
-7.31418e-31
-3.64275e-30
-1.81341e-29
-8.97245e-29
-4.41853e-28
-2.16285e-27
-1.05545e-26
-5.10506e-26
-2.43102e-25
-1.14212e-24
-5.42652e-24
-2.68115e-23
-1.3153e-22
-6.23008e-22
-2.92214e-21
-1.34355e-20
-6.2448e-20
-2.92967e-19
-1.29427e-18
-6.18936e-18
-2.80155e-17
-1.22498e-16
-5.14293e-16
-2.19414e-15
-9.04378e-15
-3.85338e-14
-1.57781e-13
-5.58883e-13
-1.90256e-12
-6.28712e-12
-1.81938e-11
-4.43689e-11
-8.73242e-11
-1.4257e-10
-2.33727e-10
-4.5858e-10
-1.09443e-09
-2.79116e-09
-7.07377e-09
-1.62415e-08
-3.17561e-08
-4.89279e-08
-3.84032e-08
5.39167e-08
1.16484e-07
2.01608e-08
-1.4087e-07
-4.92016e-07
-1.14682e-06
-2.26006e-06
-4.22242e-06
-7.15253e-06
-8.43417e-06
-1.64435e-06
1.43083e-05
2.73855e-05
-8.50528e-06
-1.82505e-05
-1.15658e-05
-4.75665e-06
-5.84542e-06
-4.4925e-06
1.59911e-05
2.13232e-05
4.61156e-05
1.15503e-06
-7.36181e-06
-9.55321e-06
-8.02498e-06
-5.62951e-06
-3.57624e-06
-2.2559e-06
-1.45205e-06
1.60465e-07
7.32222e-07
-5.90127e-08
-3.03118e-07
-1.69333e-07
-6.53447e-08
-2.10336e-08
-4.25345e-09
2.26815e-38
-6.66678e-39
-1.43921e-37
-4.17841e-37
6.95904e-38
-6.72957e-38
4.02743e-37
-4.51461e-37
3.43003e-36
-1.01344e-36
-1.98298e-36
-1.86702e-36
-1.36971e-35
-5.29597e-35
-2.7256e-34
-1.43678e-33
-7.12489e-33
-3.53487e-32
-1.7611e-31
-9.00551e-31
-4.47144e-30
-2.15646e-29
-1.09712e-28
-5.3707e-28
-2.63805e-27
-1.30066e-26
-6.30426e-26
-3.03457e-25
-1.44538e-24
-6.82314e-24
-3.18482e-23
-1.5434e-22
-7.30148e-22
-3.45944e-21
-1.6032e-20
-7.35132e-20
-3.36004e-19
-1.47966e-18
-7.05454e-18
-3.19266e-17
-1.37158e-16
-5.96273e-16
-2.50647e-15
-1.04446e-14
-4.0421e-14
-1.50531e-13
-5.85727e-13
-2.08671e-12
-6.74507e-12
-1.91286e-11
-4.54211e-11
-8.76152e-11
-1.41142e-10
-2.32338e-10
-4.61197e-10
-1.10321e-09
-2.79996e-09
-7.05754e-09
-1.61393e-08
-3.15372e-08
-4.88279e-08
-3.94458e-08
5.01398e-08
1.16102e-07
2.36488e-08
-1.34175e-07
-4.78382e-07
-1.12514e-06
-2.22654e-06
-4.17582e-06
-7.1129e-06
-8.57421e-06
-1.97198e-06
1.4018e-05
2.77495e-05
-7.73594e-06
-1.84606e-05
-1.17958e-05
-4.74671e-06
-5.70856e-06
-4.35792e-06
1.61915e-05
2.13503e-05
4.64485e-05
3.80098e-07
-7.2956e-06
-9.50188e-06
-7.97495e-06
-5.58831e-06
-3.54904e-06
-2.24171e-06
-1.4391e-06
1.96239e-07
7.28907e-07
-6.84214e-08
-3.03749e-07
-1.68082e-07
-6.46694e-08
-2.07795e-08
-4.19804e-09
-1.42253e-38
-4.59337e-39
1.98879e-37
5.64744e-38
-1.58108e-37
1.68707e-37
3.51882e-37
-1.45111e-37
7.82466e-37
3.70383e-37
2.25885e-36
-1.07986e-36
-1.40388e-35
-7.39066e-35
-3.46902e-34
-1.64672e-33
-9.07239e-33
-4.38116e-32
-2.1968e-31
-1.08149e-30
-5.2671e-30
-2.67562e-29
-1.30898e-28
-6.42283e-28
-3.13677e-27
-1.53243e-26
-7.43857e-26
-3.55584e-25
-1.73183e-24
-8.20772e-24
-3.85037e-23
-1.79235e-22
-8.3213e-22
-3.86295e-21
-1.76279e-20
-8.07779e-20
-3.66538e-19
-1.64624e-18
-7.86399e-18
-3.47998e-17
-1.4854e-16
-6.38409e-16
-2.68469e-15
-1.06829e-14
-4.10914e-14
-1.68507e-13
-6.41764e-13
-2.26137e-12
-7.21375e-12
-2.00088e-11
-4.65722e-11
-8.79268e-11
-1.3936e-10
-2.301e-10
-4.61493e-10
-1.10745e-09
-2.79729e-09
-7.01923e-09
-1.60042e-08
-3.12754e-08
-4.86989e-08
-4.06632e-08
4.62663e-08
1.1569e-07
2.64497e-08
-1.26829e-07
-4.65078e-07
-1.10314e-06
-2.18957e-06
-4.11334e-06
-7.14518e-06
-8.66545e-06
-2.30532e-06
1.36237e-05
2.80172e-05
-6.71121e-06
-1.86823e-05
-1.20895e-05
-4.76857e-06
-5.57946e-06
-4.32702e-06
1.62139e-05
2.13373e-05
4.64128e-05
3.4594e-07
-7.27845e-06
-9.49908e-06
-7.96864e-06
-5.58055e-06
-3.54318e-06
-2.23994e-06
-1.43553e-06
2.15848e-07
7.28802e-07
-7.35721e-08
-3.04687e-07
-1.67752e-07
-6.44368e-08
-2.06843e-08
-4.1767e-09
-5.10958e-40
-1.22761e-38
1.24244e-37
-2.09781e-37
-2.6411e-38
-1.0127e-37
-1.30946e-36
3.22527e-37
-1.79062e-36
3.81016e-37
-3.93425e-36
-3.6104e-36
-1.74112e-35
-7.28874e-35
-4.43224e-34
-2.04712e-33
-1.03549e-32
-5.20776e-32
-2.55606e-31
-1.26867e-30
-6.11351e-30
-3.10497e-29
-1.51559e-28
-7.35949e-28
-3.49226e-27
-1.7399e-26
-8.33329e-26
-4.01624e-25
-1.94505e-24
-9.25521e-24
-4.35564e-23
-2.02473e-22
-9.29115e-22
-4.3676e-21
-1.98028e-20
-8.99978e-20
-4.10301e-19
-1.80725e-18
-8.70038e-18
-3.77682e-17
-1.6118e-16
-6.78136e-16
-2.78302e-15
-1.10673e-14
-4.61134e-14
-1.86236e-13
-7.05554e-13
-2.46723e-12
-7.75388e-12
-2.12332e-11
-4.86424e-11
-9.02502e-11
-1.41123e-10
-2.26853e-10
-4.60907e-10
-1.10739e-09
-2.78289e-09
-6.95397e-09
-1.58198e-08
-3.08838e-08
-4.8351e-08
-4.13806e-08
4.28775e-08
1.15341e-07
2.94032e-08
-1.19926e-07
-4.51538e-07
-1.08042e-06
-2.15606e-06
-4.06038e-06
-7.08356e-06
-8.75519e-06
-2.65793e-06
1.31897e-05
2.82317e-05
-5.60503e-06
-1.88597e-05
-1.23777e-05
-4.81173e-06
-5.46105e-06
-4.36768e-06
1.61118e-05
2.1295e-05
4.6108e-05
8.5962e-07
-7.29029e-06
-9.52627e-06
-7.99239e-06
-5.59635e-06
-3.5524e-06
-2.24601e-06
-1.43899e-06
2.22686e-07
7.31338e-07
-7.53661e-08
-3.05881e-07
-1.68093e-07
-6.45254e-08
-2.07044e-08
-4.18004e-09
-7.52583e-39
2.04652e-38
-2.75971e-38
3.30852e-37
1.09402e-37
4.4246e-37
-6.25751e-38
5.58814e-37
-2.79999e-37
2.20775e-36
-9.06616e-37
2.20235e-36
-1.87633e-35
-1.02435e-34
-4.77664e-34
-2.42337e-33
-1.18852e-32
-5.99755e-32
-2.96382e-31
-1.45951e-30
-7.17252e-30
-3.49638e-29
-1.71921e-28
-8.32021e-28
-4.01727e-27
-1.93105e-26
-9.28288e-26
-4.35168e-25
-2.15171e-24
-1.01217e-23
-4.63569e-23
-2.2247e-22
-1.04999e-21
-4.86373e-21
-2.2495e-20
-1.0107e-19
-4.50083e-19
-1.99285e-18
-9.1505e-18
-4.1525e-17
-1.74618e-16
-7.26691e-16
-2.96361e-15
-1.21099e-14
-5.04167e-14
-2.02287e-13
-7.61648e-13
-2.64182e-12
-8.2155e-12
-2.22335e-11
-5.02782e-11
-9.1939e-11
-1.40492e-10
-2.18766e-10
-4.59276e-10
-1.10414e-09
-2.76065e-09
-6.8769e-09
-1.56065e-08
-3.05821e-08
-4.81296e-08
-4.25489e-08
3.90646e-08
1.15432e-07
3.26609e-08
-1.13152e-07
-4.38512e-07
-1.05764e-06
-2.12221e-06
-4.01104e-06
-7.00978e-06
-8.84599e-06
-3.01337e-06
1.27369e-05
2.83493e-05
-4.44372e-06
-1.90195e-05
-1.2678e-05
-4.87235e-06
-5.35083e-06
-4.45904e-06
1.59144e-05
2.124e-05
4.55992e-05
1.8416e-06
-7.33014e-06
-9.58303e-06
-8.04264e-06
-5.6313e-06
-3.57339e-06
-2.25839e-06
-1.44792e-06
2.2008e-07
7.36e-07
-7.47105e-08
-3.07264e-07
-1.68907e-07
-6.48376e-08
-2.08046e-08
-4.20054e-09
2.18169e-38
-2.84243e-39
-1.06212e-37
9.13059e-38
8.74993e-37
3.15634e-37
-5.78791e-37
-1.3557e-36
-3.20015e-37
6.14475e-37
-1.2154e-36
-9.7136e-36
-1.00403e-35
-1.17781e-34
-5.31428e-34
-2.75768e-33
-1.29647e-32
-6.7013e-32
-3.32633e-31
-1.63588e-30
-8.04798e-30
-3.93944e-29
-1.91848e-28
-9.29187e-28
-4.47286e-27
-2.13258e-26
-1.00956e-25
-4.77675e-25
-2.30293e-24
-1.14344e-23
-5.26723e-23
-2.4914e-22
-1.14677e-21
-5.34291e-21
-2.40911e-20
-1.0748e-19
-4.76589e-19
-2.1362e-18
-9.8358e-18
-4.49349e-17
-1.90214e-16
-7.96337e-16
-3.21462e-15
-1.33091e-14
-5.36631e-14
-2.14268e-13
-7.99186e-13
-2.73642e-12
-8.41947e-12
-2.25321e-11
-5.03555e-11
-9.09695e-11
-1.37531e-10
-2.13876e-10
-4.59017e-10
-1.10027e-09
-2.73409e-09
-6.7834e-09
-1.53848e-08
-3.01568e-08
-4.78771e-08
-4.34771e-08
3.53964e-08
1.14929e-07
3.57238e-08
-1.06363e-07
-4.25336e-07
-1.03399e-06
-2.0836e-06
-3.95151e-06
-6.93998e-06
-8.91979e-06
-3.35435e-06
1.22404e-05
2.83757e-05
-3.13586e-06
-1.91821e-05
-1.29998e-05
-4.95122e-06
-5.25114e-06
-4.58819e-06
1.56358e-05
2.11608e-05
4.49346e-05
3.25629e-06
-7.41007e-06
-9.66703e-06
-8.11386e-06
-5.68158e-06
-3.60389e-06
-2.27542e-06
-1.46039e-06
2.12158e-07
7.41803e-07
-7.24359e-08
-3.08759e-07
-1.70061e-07
-6.5316e-08
-2.0965e-08
-4.23395e-09
-5.39036e-39
-1.95072e-38
2.99851e-38
3.81893e-37
-5.98556e-37
8.54521e-38
-2.04266e-36
-1.45259e-37
-5.33642e-38
-3.18164e-36
-2.81904e-36
-6.41343e-36
-1.78765e-35
-1.08428e-34
-5.83829e-34
-2.8463e-33
-1.45287e-32
-7.23775e-32
-3.56466e-31
-1.75592e-30
-8.53162e-30
-4.16048e-29
-2.05969e-28
-9.96356e-28
-4.80337e-27
-2.30248e-26
-1.12234e-25
-5.35077e-25
-2.5366e-24
-1.19863e-23
-5.62666e-23
-2.66671e-22
-1.23557e-21
-5.64969e-21
-2.55692e-20
-1.13841e-19
-5.08561e-19
-2.22802e-18
-1.0548e-17
-4.75918e-17
-1.9654e-16
-8.14e-16
-3.40795e-15
-1.40453e-14
-5.62485e-14
-2.22972e-13
-8.23755e-13
-2.79883e-12
-8.54277e-12
-2.2669e-11
-5.02289e-11
-8.98445e-11
-1.34922e-10
-2.09701e-10
-4.57897e-10
-1.09556e-09
-2.70958e-09
-6.70738e-09
-1.52101e-08
-2.98382e-08
-4.75732e-08
-4.41609e-08
3.2146e-08
1.1439e-07
3.85221e-08
-1.00349e-07
-4.13512e-07
-1.01346e-06
-2.04713e-06
-3.89297e-06
-6.86585e-06
-8.96925e-06
-3.67334e-06
1.1773e-05
2.8349e-05
-1.84558e-06
-1.93267e-05
-1.33157e-05
-5.04293e-06
-5.15866e-06
-4.73367e-06
1.53114e-05
2.10626e-05
4.41742e-05
5.01086e-06
-7.53297e-06
-9.77576e-06
-8.20101e-06
-5.74166e-06
-3.64001e-06
-2.29608e-06
-1.47527e-06
1.99533e-07
7.48198e-07
-6.94323e-08
-3.10304e-07
-1.71397e-07
-6.58803e-08
-2.11558e-08
-4.27385e-09
1.27831e-38
-1.16018e-38
-1.03196e-37
3.48954e-37
2.44262e-38
7.0403e-38
7.33881e-37
-4.99842e-37
-5.8916e-37
2.55256e-37
-4.11125e-36
-5.44848e-36
-1.50595e-35
-1.20002e-34
-6.16269e-34
-3.12859e-33
-1.52054e-32
-7.72112e-32
-3.80568e-31
-1.88522e-30
-9.32464e-30
-4.56855e-29
-2.22207e-28
-1.07458e-27
-5.13996e-27
-2.44182e-26
-1.17243e-25
-5.58339e-25
-2.66106e-24
-1.2863e-23
-6.05043e-23
-2.83603e-22
-1.28477e-21
-5.84102e-21
-2.59174e-20
-1.14928e-19
-5.32222e-19
-2.32551e-18
-1.09289e-17
-4.73588e-17
-2.14184e-16
-8.85174e-16
-3.64444e-15
-1.44395e-14
-5.82334e-14
-2.29275e-13
-8.42404e-13
-2.84596e-12
-8.63376e-12
-2.27544e-11
-5.00211e-11
-8.88733e-11
-1.32833e-10
-2.06346e-10
-4.55614e-10
-1.08849e-09
-2.67966e-09
-6.62351e-09
-1.50003e-08
-2.95223e-08
-4.73171e-08
-4.49009e-08
2.90496e-08
1.13995e-07
4.11045e-08
-9.47527e-08
-4.02111e-07
-9.92638e-07
-2.08385e-06
-3.84019e-06
-6.798e-06
-9.01079e-06
-3.96104e-06
1.13288e-05
2.82896e-05
-6.15797e-07
-1.94493e-05
-1.36092e-05
-5.13427e-06
-5.08268e-06
-4.87943e-06
1.49748e-05
2.09381e-05
4.34043e-05
6.92892e-06
-7.68892e-06
-9.90072e-06
-8.29659e-06
-5.80622e-06
-3.67839e-06
-2.31707e-06
-1.49039e-06
1.85515e-07
7.54183e-07
-6.55729e-08
-3.117e-07
-1.72714e-07
-6.64465e-08
-2.1349e-08
-4.31442e-09
2.36332e-38
-4.92922e-38
-2.00669e-37
-3.30533e-38
-5.03151e-37
-3.58916e-37
-2.42969e-37
-3.67125e-37
1.67833e-36
1.43186e-36
-1.60803e-36
-4.67926e-36
-2.68682e-35
-1.33992e-34
-6.41871e-34
-3.36141e-33
-1.618e-32
-8.1405e-32
-4.02403e-31
-1.97773e-30
-9.79053e-30
-4.7848e-29
-2.32687e-28
-1.12059e-27
-5.35372e-27
-2.54907e-26
-1.2291e-25
-5.80556e-25
-2.71222e-24
-1.31719e-23
-6.11466e-23
-2.89439e-22
-1.34972e-21
-6.18253e-21
-2.80516e-20
-1.27198e-19
-5.71196e-19
-2.62221e-18
-1.18414e-17
-5.23253e-17
-2.19677e-16
-8.99894e-16
-3.73439e-15
-1.47474e-14
-5.96652e-14
-2.33979e-13
-8.55808e-13
-2.87801e-12
-8.68973e-12
-2.27938e-11
-4.98566e-11
-8.81316e-11
-1.31156e-10
-2.03655e-10
-4.5331e-10
-1.08165e-09
-2.65291e-09
-6.54148e-09
-1.48195e-08
-2.92015e-08
-4.70442e-08
-4.54313e-08
2.66081e-08
1.13523e-07
4.32664e-08
-8.95774e-08
-3.90108e-07
-9.64621e-07
-2.01356e-06
-3.78476e-06
-6.73641e-06
-9.04469e-06
-4.20222e-06
1.0948e-05
2.8208e-05
4.51675e-07
-1.95497e-05
-1.38589e-05
-5.21897e-06
-5.0254e-06
-5.01318e-06
1.4658e-05
2.08337e-05
4.26852e-05
8.83026e-06
-7.86128e-06
-1.00294e-05
-8.39149e-06
-5.86929e-06
-3.71568e-06
-2.3381e-06
-1.50481e-06
1.71658e-07
7.59548e-07
-6.19552e-08
-3.1294e-07
-1.73928e-07
-6.69706e-08
-2.15283e-08
-4.3521e-09
2.40784e-38
-1.21681e-38
6.5258e-38
-2.00289e-37
1.7916e-37
-6.71262e-39
-4.91892e-37
5.60751e-37
1.93724e-36
-2.73909e-36
1.1461e-36
-8.66426e-36
-3.09446e-35
-1.3923e-34
-6.84245e-34
-3.41376e-33
-1.75833e-32
-8.60641e-32
-4.23058e-31
-2.07667e-30
-1.02916e-29
-4.96784e-29
-2.45167e-28
-1.18017e-27
-5.67557e-27
-2.71195e-26
-1.28736e-25
-6.19152e-25
-2.90311e-24
-1.37301e-23
-6.50126e-23
-3.10546e-22
-1.42305e-21
-6.48519e-21
-2.93856e-20
-1.33246e-19
-5.96241e-19
-2.65015e-18
-1.18821e-17
-5.1096e-17
-2.17054e-16
-9.06138e-16
-3.62204e-15
-1.49376e-14
-6.08869e-14
-2.37542e-13
-8.65962e-13
-2.9023e-12
-8.73165e-12
-2.28187e-11
-4.97192e-11
-8.75715e-11
-1.29959e-10
-2.0168e-10
-4.5125e-10
-1.07575e-09
-2.63031e-09
-6.48147e-09
-1.46855e-08
-2.89752e-08
-4.68779e-08
-4.59011e-08
2.44358e-08
1.13103e-07
4.5239e-08
-8.56918e-08
-3.82265e-07
-9.50002e-07
-1.98829e-06
-3.74811e-06
-6.69199e-06
-9.06225e-06
-4.38718e-06
1.06462e-05
2.81229e-05
1.30246e-06
-1.96252e-05
-1.40566e-05
-5.29183e-06
-4.9849e-06
-5.12573e-06
1.43837e-05
2.07306e-05
4.20728e-05
1.05224e-05
-8.02291e-06
-1.01468e-05
-8.47589e-06
-5.92461e-06
-3.74812e-06
-2.35565e-06
-1.51692e-06
1.5996e-07
7.63629e-07
-5.94007e-08
-3.13966e-07
-1.74942e-07
-6.74097e-08
-2.16787e-08
-4.38371e-09
-1.57235e-38
4.45771e-38
7.25191e-38
-5.48661e-37
-5.90465e-37
-1.98649e-38
-4.41983e-37
2.61298e-37
9.46256e-38
1.25319e-36
-1.08541e-36
-2.40228e-36
-3.18261e-35
-1.39583e-34
-6.74657e-34
-3.64549e-33
-1.8058e-32
-8.93181e-32
-4.44435e-31
-2.18226e-30
-1.06303e-29
-5.17989e-29
-2.50733e-28
-1.21371e-27
-5.89851e-27
-2.83828e-26
-1.35617e-25
-6.37662e-25
-3.07603e-24
-1.43532e-23
-6.67938e-23
-3.04116e-22
-1.44543e-21
-6.5926e-21
-3.03479e-20
-1.36049e-19
-5.95133e-19
-2.56384e-18
-1.14433e-17
-5.18452e-17
-2.12222e-16
-8.90702e-16
-3.65398e-15
-1.50601e-14
-6.17535e-14
-2.40127e-13
-8.73272e-13
-2.91996e-12
-8.76325e-12
-2.28391e-11
-4.96301e-11
-8.71821e-11
-1.29152e-10
-2.00334e-10
-4.49807e-10
-1.07169e-09
-2.61523e-09
-6.43918e-09
-1.45899e-08
-2.88124e-08
-4.67366e-08
-4.61862e-08
2.30308e-08
1.12798e-07
4.64836e-08
-8.31371e-08
-3.77092e-07
-9.40548e-07
-1.97219e-06
-3.72296e-06
-6.65492e-06
-9.07503e-06
-4.51557e-06
1.04329e-05
2.80545e-05
1.90595e-06
-1.9676e-05
-1.41959e-05
-5.34684e-06
-4.95914e-06
-5.20825e-06
1.41796e-05
2.0646e-05
4.16194e-05
1.18225e-05
-8.15273e-06
-1.02376e-05
-8.54013e-06
-5.9664e-06
-3.77251e-06
-2.36902e-06
-1.5259e-06
1.51271e-07
7.66663e-07
-5.7213e-08
-3.14676e-07
-1.75672e-07
-6.77271e-08
-2.17876e-08
-4.40663e-09
-7.52912e-40
3.13351e-38
-6.51434e-38
-3.29373e-37
-1.42484e-37
8.58407e-37
-5.99873e-38
1.21889e-36
8.92173e-37
-2.83198e-37
-1.02159e-36
-1.0187e-35
-2.89321e-35
-1.39316e-34
-7.34458e-34
-3.68896e-33
-1.83337e-32
-9.04767e-32
-4.45327e-31
-2.17151e-30
-1.07035e-29
-5.22712e-29
-2.55997e-28
-1.22571e-27
-6.02802e-27
-2.88586e-26
-1.38574e-25
-6.62243e-25
-3.11522e-24
-1.45334e-23
-6.72746e-23
-3.20909e-22
-1.4566e-21
-6.62299e-21
-3.04144e-20
-1.35178e-19
-6.07788e-19
-2.63594e-18
-1.2378e-17
-5.37449e-17
-2.22883e-16
-9.14136e-16
-3.69165e-15
-1.53795e-14
-6.22125e-14
-2.41825e-13
-8.78241e-13
-2.93192e-12
-8.78472e-12
-2.28567e-11
-4.95873e-11
-8.69756e-11
-1.28691e-10
-1.99588e-10
-4.49119e-10
-1.06977e-09
-2.60792e-09
-6.41856e-09
-1.45423e-08
-2.87304e-08
-4.66551e-08
-4.63178e-08
2.23188e-08
1.12613e-07
4.71231e-08
-8.18059e-08
-3.74362e-07
-9.35457e-07
-1.96345e-06
-3.70916e-06
-6.63934e-06
-9.08174e-06
-4.58525e-06
1.03191e-05
2.80145e-05
2.22748e-06
-1.97019e-05
-1.42696e-05
-5.37664e-06
-4.94648e-06
-5.25403e-06
1.40652e-05
2.05986e-05
4.13651e-05
1.25531e-05
-8.22892e-06
-1.02898e-05
-8.57664e-06
-5.98996e-06
-3.78622e-06
-2.3766e-06
-1.53092e-06
1.45571e-07
7.683e-07
-5.59209e-08
-3.15049e-07
-1.76066e-07
-6.7899e-08
-2.18468e-08
-4.41909e-09
-6.86617e-39
7.605e-38
5.1718e-38
4.59472e-37
7.94214e-37
3.63887e-37
-7.8857e-37
9.57486e-37
1.34585e-37
-2.42998e-36
-4.89088e-36
-7.2456e-36
-3.35949e-35
-1.47712e-34
-7.45124e-34
-3.78714e-33
-1.87966e-32
-9.39659e-32
-4.59836e-31
-2.26648e-30
-1.11046e-29
-5.41718e-29
-2.63174e-28
-1.27071e-27
-6.05713e-27
-2.97714e-26
-1.42019e-25
-6.79756e-25
-3.24364e-24
-1.51918e-23
-7.02733e-23
-3.25745e-22
-1.47982e-21
-6.90064e-21
-3.08947e-20
-1.35996e-19
-6.1674e-19
-2.69279e-18
-1.2404e-17
-5.28584e-17
-2.2801e-16
-9.3223e-16
-3.7758e-15
-1.54341e-14
-6.25314e-14
-2.42919e-13
-8.81493e-13
-2.94032e-12
-8.80222e-12
-2.2881e-11
-4.95906e-11
-8.69007e-11
-1.28506e-10
-1.99319e-10
-4.49169e-10
-1.06975e-09
-2.60682e-09
-6.41452e-09
-1.45322e-08
-2.87118e-08
-4.66341e-08
-4.63338e-08
2.21869e-08
1.12589e-07
4.72654e-08
-8.15382e-08
-3.7385e-07
-9.3453e-07
-1.96185e-06
-3.70668e-06
-6.63604e-06
-9.08245e-06
-4.59473e-06
1.03005e-05
2.80074e-05
2.27918e-06
-1.97051e-05
-1.42808e-05
-5.38124e-06
-4.9445e-06
-5.26092e-06
1.4048e-05
2.05922e-05
4.13274e-05
1.26701e-05
-8.23935e-06
-1.02971e-05
-8.58172e-06
-5.99322e-06
-3.78811e-06
-2.37756e-06
-1.53164e-06
1.44858e-07
7.68512e-07
-5.58861e-08
-3.15131e-07
-1.76127e-07
-6.79235e-08
-2.18548e-08
-4.42072e-09
-1.95399e-40
1.0409e-38
-2.11569e-38
-1.77193e-37
-4.88367e-38
1.03478e-37
-1.09075e-37
-9.07366e-37
-1.71171e-36
2.02316e-36
-1.73191e-36
-8.08964e-36
-3.0353e-35
-1.62267e-34
-7.97934e-34
-3.86873e-33
-1.90415e-32
-9.18741e-32
-4.73398e-31
-2.32208e-30
-1.14216e-29
-5.56887e-29
-2.70432e-28
-1.31228e-27
-6.30528e-27
-3.01026e-26
-1.43117e-25
-6.88121e-25
-3.24281e-24
-1.51923e-23
-7.07716e-23
-3.24681e-22
-1.51372e-21
-6.85828e-21
-3.14126e-20
-1.40171e-19
-6.3211e-19
-2.75998e-18
-1.2505e-17
-5.46066e-17
-2.28254e-16
-9.22874e-16
-3.81503e-15
-1.55927e-14
-6.2535e-14
-2.43511e-13
-8.83423e-13
-2.94631e-12
-8.81854e-12
-2.29184e-11
-4.96588e-11
-8.7e-11
-1.28659e-10
-1.99644e-10
-4.50258e-10
-1.07241e-09
-2.61453e-09
-6.43348e-09
-1.45718e-08
-2.87754e-08
-4.6683e-08
-4.62043e-08
2.27565e-08
1.12721e-07
4.67809e-08
-8.25219e-08
-3.75832e-07
-9.38121e-07
-1.9679e-06
-3.71621e-06
-6.64585e-06
-9.07759e-06
-4.54398e-06
1.03832e-05
2.80356e-05
2.0441e-06
-1.96854e-05
-1.42264e-05
-5.3582e-06
-4.95299e-06
-5.22654e-06
1.41332e-05
2.06289e-05
4.15152e-05
1.21339e-05
-8.18148e-06
-1.02574e-05
-8.55394e-06
-5.97524e-06
-3.77763e-06
-2.37192e-06
-1.52779e-06
1.49508e-07
7.67437e-07
-5.67081e-08
-3.14818e-07
-1.75809e-07
-6.77853e-08
-2.18072e-08
-4.41072e-09
5.67381e-38
-6.00165e-38
-1.38509e-38
-8.95804e-38
-7.85387e-38
-8.59109e-37
-5.00642e-37
4.16377e-37
5.33737e-37
1.37344e-36
-3.72054e-36
-7.82803e-36
-3.53174e-35
-1.56213e-34
-7.75298e-34
-3.67381e-33
-1.83585e-32
-9.15598e-32
-4.61082e-31
-2.26721e-30
-1.09126e-29
-5.44173e-29
-2.62748e-28
-1.28886e-27
-6.14714e-27
-2.91456e-26
-1.38343e-25
-6.70871e-25
-3.13782e-24
-1.4856e-23
-6.92067e-23
-3.14735e-22
-1.50631e-21
-6.69165e-21
-2.9469e-20
-1.30154e-19
-5.97484e-19
-2.5153e-18
-1.19211e-17
-5.38613e-17
-2.21501e-16
-9.15481e-16
-3.71578e-15
-1.55735e-14
-6.256e-14
-2.43434e-13
-8.83717e-13
-2.94905e-12
-8.83177e-12
-2.2965e-11
-4.9784e-11
-8.72605e-11
-1.29132e-10
-2.00555e-10
-4.5239e-10
-1.07777e-09
-2.63095e-09
-6.47486e-09
-1.46591e-08
-2.89151e-08
-4.6794e-08
-4.59292e-08
2.40019e-08
1.12987e-07
4.5693e-08
-8.46981e-08
-3.80168e-07
-9.46e-07
-1.98121e-06
-3.73714e-06
-6.67393e-06
-9.06464e-06
-4.43543e-06
1.0563e-05
2.80951e-05
1.53527e-06
-1.96425e-05
-1.41086e-05
-5.3118e-06
-4.97257e-06
-5.15256e-06
1.43149e-05
2.07039e-05
4.19161e-05
1.09886e-05
-8.06311e-06
-1.01752e-05
-8.49602e-06
-5.93757e-06
-3.75564e-06
-2.35988e-06
-1.51967e-06
1.57373e-07
7.64878e-07
-5.84631e-08
-3.14207e-07
-1.75154e-07
-6.74979e-08
-2.17081e-08
-4.3898e-09
-4.10612e-38
-5.78117e-38
-7.00761e-38
1.80131e-37
-2.15768e-37
2.23834e-37
-1.48861e-37
-6.36703e-37
-1.24743e-37
-3.00935e-36
-2.74806e-36
-3.85019e-36
-3.42447e-35
-1.33914e-34
-7.72286e-34
-3.64776e-33
-1.85375e-32
-9.20583e-32
-4.52499e-31
-2.23353e-30
-1.10326e-29
-5.42558e-29
-2.63366e-28
-1.26855e-27
-6.09432e-27
-2.9122e-26
-1.38336e-25
-6.53646e-25
-3.13565e-24
-1.4666e-23
-6.83652e-23
-3.15999e-22
-1.48107e-21
-6.74585e-21
-3.05627e-20
-1.37168e-19
-6.03022e-19
-2.56637e-18
-1.19667e-17
-5.37077e-17
-2.21282e-16
-9.01477e-16
-3.7005e-15
-1.55877e-14
-6.23285e-14
-2.42807e-13
-8.82694e-13
-2.94952e-12
-8.84465e-12
-2.30278e-11
-4.998e-11
-8.77043e-11
-1.29958e-10
-2.02096e-10
-4.55716e-10
-1.08623e-09
-2.65727e-09
-6.54184e-09
-1.48012e-08
-2.91435e-08
-4.69722e-08
-4.54795e-08
2.59794e-08
1.13308e-07
4.39394e-08
-8.8138e-08
-3.86978e-07
-9.5833e-07
-2.00205e-06
-3.76979e-06
-6.71764e-06
-9.05098e-06
-4.26763e-06
1.08357e-05
2.8175e-05
7.65816e-07
-1.95765e-05
-1.39306e-05
-5.24346e-06
-5.00545e-06
-5.04403e-06
1.45776e-05
2.08102e-05
4.25006e-05
9.35005e-06
-7.90366e-06
-1.00605e-05
-8.41389e-06
-5.88377e-06
-3.72406e-06
-2.34239e-06
-1.50789e-06
1.70202e-07
7.61033e-07
-6.14087e-08
-3.1328e-07
-1.74181e-07
-6.70725e-08
-2.15615e-08
-4.35892e-09
-2.39517e-39
5.58022e-38
8.71213e-38
3.65817e-37
2.49053e-37