/*--------------------------------*- C++ -*----------------------------------*\
  =========                 |
  \\      /  F ield         | OpenFOAM: The Open Source CFD Toolbox
   \\    /   O peration     | Website:  https://openfoam.org
    \\  /    A nd           | Version:  10
     \\/     M anipulation  |
\*---------------------------------------------------------------------------*/
FoamFile
{
    format      ascii;
    class       volScalarField;
    location    "1";
    object      RR.H2O2;
}
// * * * * * * * * * * * * * * * * * * * * * * * * * * * * * * * * * * * * * //

dimensions      [1 -3 -1 0 0 0 0];

internalField   nonuniform List<scalar> 
4000
(
5.41025e-34
1.44056e-33
3.99456e-33
1.13345e-32
3.32273e-32
9.61474e-32
2.7373e-31
7.76381e-31
2.24588e-30
6.95448e-30
2.45836e-29
8.44193e-29
2.82767e-28
9.39308e-28
3.12233e-27
1.03913e-26
3.41192e-26
1.19097e-25
4.00831e-25
1.36545e-24
4.66712e-24
1.60276e-23
5.59511e-23
1.93837e-22
6.7775e-22
2.35916e-21
7.99304e-21
2.84951e-20
9.72092e-20
3.31941e-19
1.13114e-18
3.83326e-18
1.28307e-17
4.27501e-17
1.42232e-16
4.4924e-16
1.48838e-15
4.77654e-15
1.53359e-14
4.87596e-14
1.48265e-13
4.45232e-13
1.29078e-12
3.67598e-12
1.0257e-11
2.9803e-11
8.86612e-11
2.59121e-10
7.3469e-10
1.99977e-09
5.20569e-09
1.30911e-08
2.89345e-08
6.65692e-08
1.4801e-07
3.17167e-07
6.56927e-07
1.42841e-06
3.27684e-06
8.00925e-06
2.03732e-05
4.94717e-05
0.000113125
0.000222422
0.000385999
0.000627369
0.000951078
0.00129389
0.00150117
0.00132908
0.000595551
-0.000450534
-0.00114446
-0.00106881
-0.000624508
-0.000288396
-0.000126149
-5.70015e-05
-2.90045e-05
-1.93759e-05
-1.90502e-05
-2.53907e-05
-3.86884e-05
-6.15578e-05
-9.37845e-05
-5.11368e-05
-2.00301e-05
-1.53609e-05
-2.58084e-05
-4.21569e-05
-5.83904e-05
-8.0661e-05
-0.000119577
-0.000166427
2.63257e-05
0.00066449
0.000387589
0.000164681
7.57261e-05
1.86817e-05
9.65193e-34
4.22409e-33
1.24841e-32
3.57937e-32
1.0296e-31
2.9402e-31
8.2294e-31
2.28797e-30
6.16406e-30
1.68898e-29
4.78997e-29
1.4053e-28
4.24015e-28
1.31401e-27
4.18172e-27
1.36367e-26
4.53246e-26
1.53718e-25
5.2892e-25
1.83424e-24
6.41125e-24
2.2651e-23
7.97936e-23
2.8112e-22
9.92495e-22
3.4715e-21
1.21053e-20
4.20216e-20
1.44467e-19
4.90334e-19
1.68306e-18
5.88311e-18
1.97713e-17
6.4559e-17
2.0997e-16
6.86132e-16
2.1745e-15
7.02139e-15
2.15549e-14
6.66666e-14
2.02782e-13
5.95425e-13
1.72861e-12
4.85579e-12
1.41862e-11
4.1533e-11
1.2176e-10
3.47787e-10
9.67715e-10
2.61415e-09
6.28388e-09
1.39771e-08
3.29144e-08
7.3805e-08
1.61271e-07
3.44562e-07
6.95409e-07
1.48955e-06
3.38403e-06
8.15675e-06
2.05536e-05
4.94755e-05
0.000112249
0.000219712
0.000379826
0.000616504
0.000936829
0.00128587
0.00151154
0.00137359
0.000662557
-0.000397977
-0.00113983
-0.00110109
-0.000652167
-0.000301453
-0.000131492
-5.92009e-05
-3.00018e-05
-1.99667e-05
-1.95812e-05
-2.61103e-05
-3.97929e-05
-6.32774e-05
-9.48124e-05
-4.94876e-05
-1.95257e-05
-1.58076e-05
-2.68117e-05
-4.32756e-05
-5.94447e-05
-8.25266e-05
-0.000122629
-0.000169883
8.62695e-05
0.000661057
0.000361997
0.000152969
7.00391e-05
1.69656e-05
5.20007e-34
2.5961e-33
8.23441e-33
2.33337e-32
6.37753e-32
1.71296e-31
4.56441e-31
1.23099e-30
3.45939e-30
1.03717e-29
3.25137e-29
1.06173e-28
3.5846e-28
1.23753e-27
4.34281e-27
1.54226e-26
5.52902e-26
1.99704e-25
7.23631e-25
2.61847e-24
9.47445e-24
3.41187e-23
1.22151e-22
4.33627e-22
1.52431e-21
5.31557e-21
1.84747e-20
6.46428e-20
2.19907e-19
7.37765e-19
2.57057e-18
8.52134e-18
2.76612e-17
9.08766e-17
2.97334e-16
9.47766e-16
2.96307e-15
9.21628e-15
2.85365e-14
8.53516e-14
2.55083e-13
7.18785e-13
2.15533e-12
6.00228e-12
1.77339e-11
5.09925e-11
1.49147e-10
4.20997e-10
1.13295e-09
3.00274e-09
7.09869e-09
1.59167e-08
3.71084e-08
8.37631e-08
1.7676e-07
3.58756e-07
7.1548e-07
1.5257e-06
3.45468e-06
8.30536e-06
2.07968e-05
4.97244e-05
0.00011199
0.000217988
0.000375479
0.000608392
0.000925929
0.00127986
0.00152453
0.00141551
0.000723925
-0.00034462
-0.0011323
-0.00113192
-0.000682036
-0.00031632
-0.000137687
-6.17865e-05
-3.12124e-05
-2.0731e-05
-2.03462e-05
-2.71387e-05
-4.1354e-05
-6.58209e-05
-9.56521e-05
-4.71408e-05
-1.88807e-05
-1.65313e-05
-2.82305e-05
-4.46973e-05
-6.07682e-05
-8.50853e-05
-0.000126509
-0.000173932
0.000161058
0.000641798
0.0003309
0.000136437
6.35036e-05
1.51001e-05
2.06432e-34
1.0612e-33
3.628e-33
1.11869e-32
3.35608e-32
1.01391e-31
3.14255e-31
1.05051e-30
3.55774e-30
1.22801e-29
4.39214e-29
1.56785e-28
5.73602e-28
2.06693e-27
7.4658e-27
2.69495e-26
9.71158e-26
3.48884e-25
1.24774e-24
4.44575e-24
1.57796e-23
5.57437e-23
1.95738e-22
6.81739e-22
2.40094e-21
8.26762e-21
2.82795e-20
9.60073e-20
3.174e-19
1.08921e-18
3.59594e-18
1.18111e-17
3.82342e-17
1.23748e-16
3.98059e-16
1.25141e-15
3.85278e-15
1.195e-14
3.62867e-14
1.08028e-13
3.19359e-13
9.04615e-13
2.65346e-12
7.39052e-12
2.07314e-11
6.12251e-11
1.76306e-10
4.87446e-10
1.33266e-09
3.21175e-09
7.49583e-09
1.8337e-08
4.26168e-08
9.29337e-08
1.9258e-07
3.67392e-07
7.3424e-07
1.56066e-06
3.52543e-06
8.4199e-06
2.09605e-05
4.98141e-05
0.000111573
0.00021653
0.000372101
0.00060213
0.000917812
0.00127674
0.00153815
0.0014568
0.000790136
-0.000290401
-0.00112754
-0.0011609
-0.000711224
-0.000328241
-0.000143079
-6.4245e-05
-3.24646e-05
-2.15654e-05
-2.11379e-05
-2.81552e-05
-4.28172e-05
-6.88037e-05
-9.52928e-05
-4.47516e-05
-1.83974e-05
-1.73759e-05
-2.96087e-05
-4.61854e-05
-6.23349e-05
-8.78929e-05
-0.000130278
-0.000177055
0.000236847
0.000614457
0.000301999
0.000124092
5.7557e-05
1.3445e-05
1.67225e-34
8.85408e-34
3.24095e-33
1.10106e-32
3.69599e-32
1.25068e-31
4.29026e-31
1.48936e-30
5.18351e-30
1.87351e-29
6.67461e-29
2.40093e-28
8.7614e-28
3.14282e-27
1.15127e-26
4.12506e-26
1.47157e-25
5.35055e-25
1.90673e-24
6.75999e-24
2.38291e-23
8.32908e-23
2.89083e-22
9.9699e-22
3.4196e-21
1.16286e-20
3.92512e-20
1.33764e-19
4.44596e-19
1.46471e-18
4.79619e-18
1.60143e-17
5.11335e-17
1.63721e-16
5.15292e-16
1.60988e-15
4.87474e-15
1.45081e-14
4.43072e-14
1.32039e-13
3.81667e-13
1.09246e-12
3.04588e-12
8.72711e-12
2.43513e-11
7.09532e-11
2.00235e-10
5.64936e-10
1.39243e-09
3.32663e-09
8.38291e-09
2.02107e-08
4.69839e-08
1.03426e-07
1.98109e-07
3.77338e-07
7.52643e-07
1.59152e-06
3.58008e-06
8.53556e-06
2.11537e-05
5.00456e-05
0.000111547
0.000215756
0.000369847
0.000597569
0.000912837
0.00127552
0.00154939
0.00148989
0.00084164
-0.000247532
-0.00111962
-0.00118585
-0.000737942
-0.000341555
-0.000148618
-6.66486e-05
-3.36289e-05
-2.23171e-05
-2.19005e-05
-2.92075e-05
-4.44274e-05
-7.13301e-05
-9.45426e-05
-4.29863e-05
-1.81062e-05
-1.81427e-05
-3.08473e-05
-4.72921e-05
-6.34424e-05
-8.99801e-05
-0.000132879
-0.000177784
0.000298472
0.00059011
0.000279254
0.000114581
5.17291e-05
1.22513e-05
2.47111e-34
1.37182e-33
5.19691e-33
1.84261e-32
6.44242e-32
2.25067e-31
7.87737e-31
2.76482e-30
9.72066e-30
3.42769e-29
1.20604e-28
4.21773e-28
1.51736e-27
5.34321e-27
1.87679e-26
6.69084e-26
2.35256e-25
8.27172e-25
2.9125e-24
1.00905e-23
3.56053e-23
1.22062e-22
4.15388e-22
1.40373e-21
4.76586e-21
1.62919e-20
5.41876e-20
1.77725e-19
5.94983e-19
1.92801e-18
6.21549e-18
2.06302e-17
6.5111e-17
2.04381e-16
6.32379e-16
1.94718e-15
5.85459e-15
1.72161e-14
5.24603e-14
1.61332e-13
4.55034e-13
1.26341e-12
3.53523e-12
1.0029e-11
2.80502e-11
7.98751e-11
2.29663e-10
5.8988e-10
1.45842e-09
3.67644e-09
9.17291e-09
2.19668e-08
4.98709e-08
1.08334e-07
2.0597e-07
3.88338e-07
7.66942e-07
1.61968e-06
3.6272e-06
8.61804e-06
2.12764e-05
5.01278e-05
0.000111326
0.000214908
0.000367968
0.000594448
0.000909013
0.00127478
0.0015605
0.00151832
0.000882796
-0.000212064
-0.00111406
-0.0012054
-0.00075734
-0.000351731
-0.000153012
-6.85418e-05
-3.4558e-05
-2.2943e-05
-2.25305e-05
-3.00699e-05
-4.57203e-05
-7.33515e-05
-9.37342e-05
-4.17618e-05
-1.79724e-05
-1.8796e-05
-3.18502e-05
-4.81402e-05
-6.43019e-05
-9.15232e-05
-0.000134527
-0.000176807
0.000342077
0.000570445
0.0002629
0.000107682
4.8535e-05
1.13452e-05
3.87769e-34
2.08571e-33
8.02992e-33
2.83245e-32
9.77742e-32
3.45867e-31
1.20135e-30
4.19594e-30
1.46884e-29
5.14311e-29
1.80275e-28
6.32249e-28
2.21628e-27
7.75821e-27
2.71945e-26
9.55141e-26
3.35601e-25
1.16644e-24
4.0457e-24
1.41393e-23
4.86243e-23
1.66121e-22
5.63884e-22
1.89983e-21
6.34413e-21
2.09839e-20
6.95318e-20
2.23303e-19
7.45643e-19
2.44355e-18
7.82862e-18
2.49583e-17
7.88373e-17
2.47279e-16
7.55806e-16
2.32894e-15
7.16107e-15
2.0901e-14
6.3695e-14
1.85999e-13
5.27098e-13
1.47968e-12
4.10423e-12
1.11722e-11
3.136e-11
8.8811e-11
2.44e-10
5.94707e-10
1.56739e-09
3.98744e-09
9.77393e-09
2.31249e-08
5.1957e-08
1.11755e-07
2.11167e-07
3.96533e-07
7.78199e-07
1.63753e-06
3.66039e-06
8.67182e-06
2.13304e-05
5.00998e-05
0.000110953
0.000213922
0.000365941
0.000591172
0.000905129
0.00127301
0.00156752
0.00154073
0.000918605
-0.000179629
-0.00110738
-0.00122255
-0.000775761
-0.000361223
-0.00015722
-7.03687e-05
-3.54396e-05
-2.34954e-05
-2.30485e-05
-3.0741e-05
-4.67069e-05
-7.48661e-05
-9.31111e-05
-4.09911e-05
-1.79363e-05
-1.93152e-05
-3.26023e-05
-4.87534e-05
-6.49155e-05
-9.26229e-05
-0.00013562
-0.000175062
0.000373122
0.0005554
0.000251193
0.000102856
4.62857e-05
1.07142e-05
5.5451e-34
3.00511e-33
1.14687e-32
4.08418e-32
1.43042e-31
4.99243e-31
1.74142e-30
6.07577e-30
2.12011e-29
7.39703e-29
2.57832e-28
8.99047e-28
3.13887e-27
1.09572e-26
3.806e-26
1.32225e-25
4.59196e-25
1.58665e-24
5.46496e-24
1.87733e-23
6.42363e-23
2.17857e-22
7.33925e-22
2.45483e-21
8.15933e-21
2.69655e-20
8.83584e-20
2.84986e-19
9.05524e-19
2.88777e-18
9.3807e-18
3.0294e-17
9.49278e-17
2.94022e-16
8.90072e-16
2.70365e-15
8.2152e-15
2.37364e-14
7.20064e-14
2.108e-13
5.98666e-13
1.64989e-12
4.61382e-12
1.25856e-11
3.54983e-11
9.92041e-11
2.54196e-10
6.48093e-10
1.69502e-09
4.2773e-09
1.04598e-08
2.43522e-08
5.40103e-08
1.14922e-07
2.15639e-07
4.0263e-07
7.86403e-07
1.64959e-06
3.67744e-06
8.68701e-06
2.12989e-05
4.98995e-05
0.000110285
0.000212643
0.000363496
0.000586736
0.000900218
0.00127024
0.00157292
0.00156115
0.000953422
-0.000146832
-0.0010988
-0.00123904
-0.000794558
-0.000371137
-0.000161498
-7.22197e-05
-3.63043e-05
-2.39876e-05
-2.34561e-05
-3.12235e-05
-4.73882e-05
-7.58926e-05
-9.27926e-05
-4.05785e-05
-1.79893e-05
-1.97017e-05
-3.31358e-05
-4.91816e-05
-6.53429e-05
-9.33643e-05
-0.000136288
-0.000173269
0.000394608
0.000544784
0.000243466
9.95842e-05
4.4762e-05
1.02912e-05
7.2645e-34
3.95339e-33
1.51541e-32
5.40381e-32
1.89512e-31
6.61107e-31
2.30081e-30
8.0051e-30
2.78494e-29
9.74141e-29
3.38377e-28
1.17319e-27
4.06436e-27
1.41619e-26
4.8912e-26
1.6873e-25
5.81949e-25
1.99856e-24
6.81204e-24
2.36332e-23
8.03121e-23
2.66917e-22
9.11765e-22
3.01509e-21
9.97781e-21
3.31201e-20
1.08212e-19
3.50822e-19
1.12492e-18
3.56892e-18
1.11501e-17
3.55548e-17
1.10642e-16
3.43172e-16
1.04321e-15
3.13645e-15
9.34379e-15
2.67691e-14
8.07795e-14
2.35787e-13
6.59965e-13
1.8541e-12
5.12234e-12
1.41578e-11
3.72814e-11
9.65387e-11
2.65842e-10
7.06027e-10
1.82246e-09
4.58094e-09
1.10203e-08
2.53519e-08
5.5663e-08
1.17393e-07
2.18771e-07
4.06662e-07
7.9109e-07
1.6543e-06
3.67763e-06
8.66084e-06
2.11634e-05
4.94282e-05
0.000109124
0.000210379
0.000359804
0.000581619
0.00089318
0.00126554
0.00157692
0.00158172
0.000994091
-0.000107008
-0.00108863
-0.00125675
-0.000814579
-0.000381644
-0.000166019
-7.41538e-05
-3.71821e-05
-2.44382e-05
-2.37713e-05
-3.15425e-05
-4.78042e-05
-7.64994e-05
-9.2794e-05
-4.04537e-05
-1.80694e-05
-1.99745e-05
-3.34926e-05
-4.94701e-05
-6.56056e-05
-9.38304e-05
-0.000136701
-0.000171882
0.00040709
0.000537989
0.000238598
9.75169e-05
4.37949e-05
1.00241e-05
8.86159e-34
4.98027e-33
1.88692e-32
6.68309e-32
2.3733e-31
8.2682e-31
2.88807e-30
1.00563e-29
3.49601e-29
1.21323e-28
4.20934e-28
1.46602e-27
5.06471e-27
1.75078e-26
6.05328e-26
2.05402e-25
7.29162e-25
2.48499e-24
8.47007e-24
2.87034e-23
9.60467e-23
3.28358e-22
1.09341e-21
3.62552e-21
1.19362e-20
3.91143e-20
1.27472e-19
4.1023e-19
1.33527e-18
4.25751e-18
1.33887e-17
4.14744e-17
1.27239e-16
3.88055e-16
1.16614e-15
3.47423e-15
1.01743e-14
2.93932e-14
8.9005e-14
2.56301e-13
7.11734e-13
1.98162e-12
5.46279e-12
1.45226e-11
3.78675e-11
1.05982e-10
2.87321e-10
7.58397e-10
1.95656e-09
4.85469e-09
1.15648e-08
2.63428e-08
5.72042e-08
1.18943e-07
2.20774e-07
4.0938e-07
7.92884e-07
1.65297e-06
3.66475e-06
8.60831e-06
2.09802e-05
4.88841e-05
0.000107665
0.000207836
0.000355583
0.000574935
0.000885035
0.0012591
0.00157805
0.0015992
0.00104235
-6.95649e-05
-0.00107471
-0.00127059
-0.000834703
-0.000393088
-0.000171094
-7.63222e-05
-3.81187e-05
-2.48683e-05
-2.40151e-05
-3.17299e-05
-4.80056e-05
-7.67684e-05
-9.30678e-05
-4.05731e-05
-1.82018e-05
-2.01552e-05
-3.37143e-05
-4.96601e-05
-6.57983e-05
-9.40879e-05
-0.00013691
-0.000171028
0.000414424
0.000534302
0.000235923
9.63634e-05
4.32477e-05
9.87299e-06
1.07009e-33
5.94356e-33
2.26496e-32
8.07645e-32
2.83195e-31
9.87732e-31
3.43962e-30
1.19629e-29
4.14793e-29
1.43821e-28
5.06922e-28
1.75358e-27
6.05381e-27
2.10066e-26
7.26601e-26
2.51391e-25
8.62216e-25
2.939e-24
9.94878e-24
3.37952e-23
1.11964e-22
3.82849e-22
1.27011e-21
4.19608e-21
1.35757e-20
4.50541e-20
1.44975e-19
4.66896e-19
1.51132e-18
4.81724e-18
1.51297e-17
4.67841e-17
1.4229e-16
4.36417e-16
1.29689e-15
3.83332e-15
1.12478e-14
3.20145e-14
9.76556e-14
2.75612e-13
7.62703e-13
2.0893e-12
5.6211e-12
1.49091e-11
4.13858e-11
1.14536e-10
3.09912e-10
8.18378e-10
2.09303e-09
5.16779e-09
1.22621e-08
2.78326e-08
6.06014e-08
1.19087e-07
2.21983e-07
4.10707e-07
7.91938e-07
1.64552e-06
3.6369e-06
8.50719e-06
2.06674e-05
4.80779e-05
0.000106122
0.000205141
0.000351252
0.000568307
0.00087644
0.00125116
0.00157795
0.00161423
0.00107692
-2.99102e-05
-0.00105692
-0.00128453
-0.000855313
-0.000404429
-0.000176062
-7.84031e-05
-3.90153e-05
-2.52544e-05
-2.41937e-05
-3.18122e-05
-4.80414e-05
-7.67798e-05
-9.35582e-05
-4.08822e-05
-1.83465e-05
-2.02656e-05
-3.38338e-05
-4.97741e-05
-6.58909e-05
-9.41908e-05
-0.000136998
-0.0001707
0.000417693
0.000532923
0.000234817
9.5861e-05
4.30004e-05
9.8043e-06
1.24975e-33
6.85605e-33
2.61636e-32
9.31957e-32
3.2629e-31
1.13699e-30
3.96103e-30
1.38161e-29
4.80091e-29
1.68361e-28
5.8629e-28
2.03415e-27
7.02632e-27
2.43776e-26
8.45518e-26
2.90229e-25
9.92925e-25
3.38647e-24
1.14897e-23
3.87892e-23
1.30159e-22
4.32902e-22
1.44558e-21
4.75649e-21
1.5545e-20
5.03929e-20
1.62836e-19
5.13932e-19
1.67694e-18
5.28626e-18
1.62857e-17
5.11336e-17
1.57851e-16
4.78455e-16
1.44435e-15
4.23259e-15
1.21908e-14
3.47441e-14
1.02333e-13
2.97579e-13
8.14042e-13
2.21381e-12
5.9254e-12
1.60306e-11
4.43929e-11
1.22312e-10
3.29785e-10
8.68018e-10
2.20956e-09
5.4267e-09
1.28096e-08
2.89339e-08
6.25416e-08
1.18408e-07
2.22857e-07
4.11144e-07
7.89088e-07
1.63517e-06
3.60334e-06
8.41564e-06
2.03841e-05
4.73409e-05
0.000104314
0.000202249
0.00034678
0.000561599
0.000867847
0.00124274
0.00157681
0.00162795
0.00111379
1.31646e-05
-0.0010382
-0.00129701
-0.000874794
-0.000415389
-0.000180827
-8.04489e-05
-3.98817e-05
-2.56044e-05
-2.43212e-05
-3.18163e-05
-4.79551e-05
-7.65986e-05
-9.4192e-05
-4.13047e-05
-1.85132e-05
-2.03247e-05
-3.38759e-05
-4.98324e-05
-6.5926e-05
-9.41851e-05
-0.000137004
-0.000170777
0.000418124
0.000533208
0.000234817
9.58151e-05
4.29628e-05
9.79314e-06
1.36041e-33
7.6757e-33
2.94289e-32
1.04632e-31
3.66285e-31
1.27747e-30
4.45604e-30
1.55467e-29
5.44151e-29
1.90093e-28
6.62042e-28
2.29767e-27
7.92302e-27
2.76136e-26
9.47513e-26
3.23928e-25
1.09258e-24
3.81198e-24
1.28803e-23
4.35442e-23
1.46023e-22
4.86843e-22
1.6143e-21
5.30681e-21
1.72933e-20
5.5763e-20
1.77685e-19
5.63068e-19
1.78912e-18
5.84963e-18
1.80464e-17
5.62668e-17
1.71307e-16
5.22839e-16
1.54941e-15
4.51371e-15
1.29119e-14
3.67456e-14
1.0803e-13
3.16111e-13
8.68913e-13
2.37617e-12
6.33486e-12
1.72749e-11
4.68469e-11
1.2884e-10
3.46332e-10
9.03366e-10
2.28291e-09
5.56817e-09
1.30518e-08
2.92765e-08
6.2797e-08
1.17837e-07
2.24056e-07
4.1117e-07
7.85033e-07
1.62091e-06
3.56351e-06
8.30215e-06
2.00987e-05
4.65936e-05
0.000102622
0.000199336
0.000342186
0.0005546
0.000858766
0.00123349
0.00157388
0.00164059
0.00114713
5.24353e-05
-0.00101837
-0.00130652
-0.000893607
-0.000426745
-0.000185878
-8.25491e-05
-4.07478e-05
-2.5935e-05
-2.44177e-05
-3.17684e-05
-4.77881e-05
-7.62953e-05
-9.49188e-05
-4.18267e-05
-1.86919e-05
-2.03516e-05
-3.38714e-05
-4.98535e-05
-6.58959e-05
-9.40933e-05
-0.00013693
-0.000171128
0.00041658
0.00053456
0.000235557
9.60783e-05
4.30688e-05
9.82173e-06
1.43246e-33
8.65121e-33
3.28362e-32
1.16769e-31
4.09499e-31
1.43262e-30
5.01019e-30
1.7462e-29
6.07739e-29
2.11308e-28
7.33021e-28
2.5264e-27
8.8837e-27
3.06314e-26
1.0514e-25
3.54756e-25
1.23538e-24
4.18476e-24
1.41463e-23
4.74356e-23
1.57773e-22
5.21967e-22
1.75047e-21
5.72979e-21
1.86424e-20
5.99703e-20
1.94951e-19
6.2096e-19
1.9621e-18
6.17965e-18
1.92704e-17
6.01288e-17
1.8315e-16
5.50089e-16
1.63334e-15
4.75198e-15
1.3695e-14
3.84371e-14
1.14976e-13
3.33003e-13
9.04118e-13
2.44833e-12
6.66659e-12
1.81541e-11
4.8998e-11
1.34177e-10
3.57871e-10
9.28135e-10
2.33321e-09
5.66091e-09
1.31973e-08
2.94577e-08
6.28117e-08
1.17244e-07
2.24721e-07
4.1075e-07
7.80751e-07
1.60783e-06
3.52668e-06
8.18929e-06
1.97693e-05
4.57909e-05
0.000101021
0.000196581
0.000337913
0.000548089
0.000850047
0.00122517
0.00157036
0.00165084
0.00117653
9.06089e-05
-0.000998628
-0.00131522
-0.000911032
-0.000437555
-0.000190672
-8.45544e-05
-4.15876e-05
-2.62494e-05
-2.44934e-05
-3.16915e-05
-4.75779e-05
-7.59227e-05
-9.56629e-05
-4.23881e-05
-1.88699e-05
-2.03538e-05
-3.38341e-05
-4.98548e-05
-6.58885e-05
-9.39734e-05
-0.000136835
-0.000171657
0.000414353
0.000536669
0.000236797
9.65479e-05
4.3269e-05
9.87581e-06
1.72186e-33
9.36064e-33
3.57575e-32
1.27493e-31
4.46551e-31
1.55842e-30
5.47616e-30
1.90165e-29
6.57848e-29
2.29574e-28
8.0299e-28
2.77698e-27
9.58987e-27
3.30821e-26
1.1396e-25
3.88561e-25
1.31122e-24
4.52675e-24
1.52201e-23
5.11413e-23
1.71695e-22
5.70503e-22
1.88538e-21
6.18121e-21
2.00592e-20
6.43223e-20
2.0653e-19
6.53422e-19
2.05953e-18
6.57915e-18
2.05276e-17
6.38208e-17
1.92119e-16
5.75627e-16
1.67936e-15
4.84352e-15
1.43426e-14
4.01094e-14
1.19158e-13
3.35763e-13
9.62329e-13
2.59276e-12
7.01416e-12
1.8631e-11
5.06024e-11
1.37953e-10
3.66518e-10
9.46949e-10
2.37159e-09
5.7323e-09
1.33095e-08
2.95621e-08
6.27649e-08
1.16729e-07
2.24867e-07
4.09696e-07
7.75391e-07
1.59328e-06
3.48562e-06
8.0834e-06
1.94729e-05
4.50501e-05
9.94148e-05
0.000194014
0.000333931
0.000542018
0.000841916
0.00121672
0.00156692
0.00165975
0.00120277
0.000125199
-0.000979095
-0.00132215
-0.000927056
-0.000447654
-0.000195156
-8.64479e-05
-4.23638e-05
-2.6532e-05
-2.45528e-05
-3.16048e-05
-4.73603e-05
-7.55418e-05
-9.63473e-05
-4.29281e-05
-1.90373e-05
-2.03419e-05
-3.37778e-05
-4.98348e-05
-6.58267e-05
-9.38335e-05
-0.000136735
-0.000172245
0.000410458
0.000538914
0.000238185
9.70871e-05
4.35045e-05
9.94005e-06
1.84791e-33
1.00558e-32
3.84333e-32
1.37096e-31
4.81982e-31
1.6822e-30
5.86387e-30
2.04191e-29
7.09462e-29
2.45555e-28
8.50506e-28
2.95888e-27
1.02232e-26
3.52856e-26
1.21566e-25
4.1586e-25
1.4052e-24
4.8115e-24
1.6133e-23
5.40261e-23
1.81825e-22
6.03426e-22
1.9938e-21
6.5306e-21
2.11249e-20
6.75818e-20
2.1738e-19
6.85302e-19
2.13438e-18
6.82503e-18
2.10264e-17
6.52396e-17
1.9928e-16
5.9634e-16
1.76167e-15
5.16463e-15
1.48758e-14
4.32993e-14
1.25866e-13
3.60653e-13
9.89537e-13
2.65642e-12
7.19025e-12
1.89859e-11
5.18032e-11
1.40877e-10
3.73027e-10
9.60728e-10
2.39855e-09
5.7788e-09
1.33779e-08
2.96224e-08
6.26972e-08
1.16286e-07
2.248e-07
4.08507e-07
7.70398e-07
1.57883e-06
3.44828e-06
7.98159e-06
1.921e-05
4.44215e-05
9.80877e-05
0.000191891
0.000330573
0.000536853
0.000834955
0.00120933
0.00156286
0.00166674
0.00122496
0.000155231
-0.000961604
-0.00132754
-0.000940583
-0.000456338
-0.000199019
-8.8065e-05
-4.30259e-05
-2.677e-05
-2.45976e-05
-3.15209e-05
-4.71577e-05
-7.51898e-05
-9.69317e-05
-4.3415e-05
-1.91865e-05
-2.03261e-05
-3.37211e-05
-4.98164e-05
-6.58038e-05
-9.36946e-05
-0.000136612
-0.000172724
0.000407046
0.000541167
0.000239569
9.76257e-05
4.37399e-05
1.00042e-05
1.84151e-33
1.05352e-32
4.03137e-32
1.43769e-31
5.04359e-31
1.76366e-30
6.16539e-30
2.15172e-29
7.47257e-29
2.58231e-28
9.0043e-28
3.109e-27
1.07289e-26
3.69882e-26
1.27161e-25
4.35482e-25
1.49737e-24
5.06873e-24
1.70431e-23
5.70136e-23
1.91511e-22
6.29725e-22
2.09324e-21
6.82088e-21
2.20958e-20
7.0985e-20
2.25898e-19
7.22279e-19
2.25324e-18
7.04459e-18
2.19061e-17
6.8675e-17
2.0722e-16
6.18976e-16
1.82656e-15
5.37362e-15
1.55782e-14
4.45106e-14
1.28505e-13
3.6125e-13
9.98137e-13
2.69734e-12
7.09109e-12
1.92746e-11
5.28427e-11
1.43099e-10
3.77954e-10
9.71178e-10
2.41905e-09
5.81436e-09
1.34287e-08
2.96638e-08
6.26409e-08
1.15951e-07
2.24624e-07
4.07399e-07
7.66101e-07
1.56794e-06
3.42024e-06
7.90702e-06
1.90129e-05
4.3915e-05
9.69785e-05
0.000189988
0.00032771
0.000532529
0.000829101
0.001203
0.00155933
0.00167192
0.00124215
0.000178631
-0.000947594
-0.00133099
-0.000950958
-0.000463159
-0.000202071
-8.93428e-05
-4.3548e-05
-2.69555e-05
-2.46286e-05
-3.14474e-05
-4.69883e-05
-7.48965e-05
-9.73955e-05
-4.38049e-05
-1.93096e-05
-2.03097e-05
-3.36681e-05
-4.97927e-05
-6.57464e-05
-9.35716e-05
-0.000136502
-0.00017311
0.000404782
0.000543068
0.000240757
9.80921e-05
4.39449e-05
1.00601e-05
1.97334e-33
1.07861e-32
4.11429e-32
1.48749e-31
5.20732e-31
1.81833e-30
6.34488e-30
2.21466e-29
7.72233e-29
2.68273e-28
9.30036e-28
3.21915e-27
1.11358e-26
3.85356e-26
1.33145e-25
4.55992e-25
1.55391e-24
5.26812e-24
1.77564e-23
5.94694e-23
1.97888e-22
6.53638e-22
2.14443e-21
6.98225e-21
2.27571e-20
7.3219e-20
2.34491e-19
7.38687e-19
2.35968e-18
7.31962e-18
2.25589e-17
6.85731e-17
2.11497e-16
6.29402e-16
1.88542e-15
5.54722e-15
1.59124e-14
4.44649e-14
1.27659e-13
3.69333e-13
9.92114e-13
2.68045e-12
7.15598e-12
1.94649e-11
5.35768e-11
1.44697e-10
3.81471e-10
9.78643e-10
2.43387e-09
5.841e-09
1.34657e-08
2.9697e-08
6.26083e-08
1.15725e-07
2.2447e-07
4.06583e-07
7.63097e-07
1.55997e-06
3.39953e-06
7.85221e-06
1.88691e-05
4.35631e-05
9.62207e-05
0.000188722
0.000325778
0.000529557
0.000825039
0.00119858
0.00155669
0.00167512
0.00125366
0.000195248
-0.000937325
-0.00133337
-0.000958232
-0.000467985
-0.000204231
-9.02457e-05
-4.39158e-05
-2.70849e-05
-2.46486e-05
-3.1393e-05
-4.68645e-05
-7.46825e-05
-9.77179e-05
-4.40943e-05
-1.93987e-05
-2.02973e-05
-3.36292e-05
-4.97763e-05
-6.5719e-05
-9.34861e-05
-0.00013643
-0.000173411
0.000402616
0.000544454
0.000241632
9.84366e-05
4.40967e-05
1.01016e-05
1.99353e-33
1.11391e-32
4.23661e-32
1.51059e-31
5.30932e-31
1.86271e-30
6.50777e-30
2.27171e-29
7.92582e-29
2.76094e-28
9.58961e-28
3.32211e-27
1.14782e-26
3.95767e-26
1.36366e-25
4.66506e-25
1.58752e-24
5.37739e-24
1.80322e-23
6.00862e-23
1.99983e-22
6.60002e-22
2.19089e-21
7.08742e-21
2.32312e-20
7.43372e-20
2.38016e-19
7.61113e-19
2.39278e-18
7.46166e-18
2.29787e-17
7.17742e-17
2.14704e-16
6.38691e-16
1.91142e-15
5.52381e-15
1.60748e-14
4.50002e-14
1.33689e-13
3.7669e-13
1.01937e-12
2.72261e-12
7.19601e-12
1.97734e-11
5.39285e-11
1.45679e-10
3.83799e-10
9.83632e-10
2.44368e-09
5.85819e-09
1.34905e-08
2.97212e-08
6.25987e-08
1.1561e-07
2.24418e-07
4.06184e-07
7.61571e-07
1.55588e-06
3.38868e-06
7.823e-06
1.87909e-05
4.33767e-05
9.5825e-05
0.000188057
0.000324749
0.000527983
0.000822873
0.00119615
0.00155518
0.00167673
0.00125995
0.000203941
-0.000931755
-0.00133446
-0.000962007
-0.000470526
-0.000205371
-9.07225e-05
-4.41095e-05
-2.71525e-05
-2.46577e-05
-3.13617e-05
-4.67952e-05
-7.45635e-05
-9.7892e-05
-4.4254e-05
-1.94475e-05
-2.02898e-05
-3.36068e-05
-4.97663e-05
-6.57044e-05
-9.34444e-05
-0.000136422
-0.000173635
0.000400903
0.000545154
0.000242099
9.86233e-05
4.41796e-05
1.01243e-05
2.03269e-33
1.12583e-32
4.2969e-32
1.53366e-31
5.38234e-31
1.88048e-30
6.56073e-30
2.28952e-29
7.99169e-29
2.80226e-28
9.73118e-28
3.37024e-27
1.16027e-26
3.90934e-26
1.39336e-25
4.73412e-25
1.60899e-24
5.44435e-24
1.83433e-23
6.14984e-23
2.05025e-22
6.78652e-22
2.23051e-21
7.26184e-21
2.32841e-20
7.60219e-20
2.42016e-19
7.70115e-19
2.45237e-18
7.69086e-18
2.36773e-17
7.27344e-17
2.17966e-16
6.62671e-16
1.94895e-15
5.60491e-15
1.63277e-14
4.57442e-14
1.34016e-13
3.72213e-13
1.03166e-12
2.75453e-12
7.32291e-12
1.98311e-11
5.4162e-11
1.46286e-10
3.85202e-10
9.86699e-10
2.44996e-09
5.87001e-09
1.35102e-08
2.97473e-08
6.26192e-08
1.15594e-07
2.24505e-07
4.06179e-07
7.61256e-07
1.55489e-06
3.386e-06
7.81584e-06
1.87722e-05
4.33312e-05
9.57296e-05
0.0001879
0.000324512
0.000527631
0.000822404
0.00119562
0.0015548
0.00167691
0.00126094
0.000205435
-0.000930781
-0.00133451
-0.000962538
-0.000470897
-0.000205537
-9.07908e-05
-4.41366e-05
-2.71615e-05
-2.46584e-05
-3.13565e-05
-4.67844e-05
-7.45453e-05
-9.79188e-05
-4.42786e-05
-1.94551e-05
-2.02886e-05
-3.36031e-05
-4.97632e-05
-6.56982e-05
-9.34292e-05
-0.000136394
-0.000173584
0.000401299
0.000545309
0.00024217
9.86479e-05
4.41892e-05
1.01267e-05
2.0241e-33
1.12721e-32
4.33219e-32
1.5458e-31
5.43447e-31
1.90292e-30
6.65241e-30
2.32247e-29
8.09558e-29
2.81658e-28
9.78073e-28
3.38955e-27
1.17016e-26
4.00003e-26
1.39883e-25
4.76774e-25
1.61848e-24
5.40385e-24
1.85834e-23
6.19307e-23
2.07382e-22
6.8666e-22
2.26148e-21
7.39796e-21
2.39422e-20
7.67784e-20
2.44328e-19
7.833e-19
2.46676e-18
7.71216e-18
2.3917e-17
7.29598e-17
2.22629e-16
6.61315e-16
1.96468e-15
5.68211e-15
1.64247e-14
4.64376e-14
1.34907e-13
3.80208e-13
1.03377e-12
2.74971e-12
7.38881e-12
1.99138e-11
5.41411e-11
1.46568e-10
3.85835e-10
9.88194e-10
2.45346e-09
5.87795e-09
1.35275e-08
2.97829e-08
6.26893e-08
1.15718e-07
2.24812e-07
4.06749e-07
7.62663e-07
1.55818e-06
3.39416e-06
7.83708e-06
1.88276e-05
4.34643e-05
9.60105e-05
0.000188362
0.000325221
0.000528721
0.000823896
0.00119723
0.00155567
0.0016755
0.00125613
0.000199049
-0.000934699
-0.00133347
-0.000959605
-0.000468965
-0.000204672
-9.04284e-05
-4.39886e-05
-2.71093e-05
-2.46504e-05
-3.13789e-05
-4.68352e-05
-7.4633e-05
-9.77936e-05
-4.4162e-05
-1.94196e-05
-2.02951e-05
-3.36212e-05
-4.97726e-05
-6.57138e-05
-9.34743e-05
-0.00013644
-0.00017353
0.000401753
0.000544634
0.000241761
9.84881e-05
4.41189e-05
1.01075e-05
2.0601e-33
1.11858e-32
4.27687e-32
1.52945e-31
5.38706e-31
1.89007e-30
6.61478e-30
2.30915e-29
8.03855e-29
2.7898e-28
9.65065e-28
3.32927e-27
1.14731e-26
3.95687e-26
1.36394e-25
4.66155e-25
1.57406e-24
5.34961e-24
1.82288e-23
6.10243e-23
2.016e-22
6.7887e-22
2.22101e-21
7.34587e-21
2.36795e-20
7.55971e-20
2.39802e-19
7.73358e-19
2.42194e-18
7.57968e-18
2.34149e-17
7.10884e-17
2.22407e-16
6.56077e-16
1.90501e-15
5.47164e-15
1.60867e-14
4.41275e-14
1.30904e-13
3.78359e-13
1.016e-12
2.74437e-12
7.25666e-12
1.99207e-11
5.41342e-11
1.46391e-10
3.85523e-10
9.87825e-10
2.45363e-09
5.88097e-09
1.35405e-08
2.98241e-08
6.28018e-08
1.15976e-07
2.25346e-07
4.0791e-07
7.65806e-07
1.56574e-06
3.41293e-06
7.88573e-06
1.89546e-05
4.37698e-05
9.66528e-05
0.00018942
0.000326835
0.000531178
0.000827231
0.00120085
0.0015577
0.0016726
0.00124619
0.000185175
-0.000943106
-0.00133135
-0.000953365
-0.000464838
-0.000202822
-8.96539e-05
-4.36728e-05
-2.69985e-05
-2.46344e-05
-3.14283e-05
-4.6946e-05
-7.48237e-05
-9.75168e-05
-4.39093e-05
-1.93426e-05
-2.03083e-05
-3.36581e-05
-4.97883e-05
-6.57368e-05
-9.3546e-05
-0.000136495
-0.000173202
0.000403713
0.000543385
0.000240945
9.81625e-05
4.39738e-05
1.00675e-05
2.0333e-33
1.10364e-32
4.21882e-32
1.50704e-31
5.29411e-31
1.85162e-30
6.466e-30
2.25507e-29
7.84868e-29
2.72683e-28
9.45672e-28
3.2724e-27
1.12954e-26
3.89113e-26
1.33511e-25
4.53783e-25
1.56644e-24
5.29288e-24
1.78394e-23
5.98405e-23
2.00121e-22
6.68469e-22
2.2009e-21
7.18488e-21
2.32607e-20
7.47163e-20
2.38105e-19
7.53857e-19
2.40611e-18
7.50422e-18
2.32256e-17
7.06628e-17
2.16595e-16
6.45177e-16
1.9106e-15
5.58832e-15
1.60244e-14
4.43444e-14
1.30478e-13
3.76598e-13
1.01609e-12
2.69698e-12
7.22256e-12
1.99304e-11
5.38822e-11
1.45793e-10
3.84381e-10
9.85861e-10
2.45112e-09
5.88056e-09
1.35527e-08
2.98789e-08
6.29739e-08
1.16394e-07
2.26156e-07
4.09758e-07
7.70918e-07
1.57817e-06
3.44401e-06
7.96637e-06
1.91636e-05
4.427e-05
9.76977e-05
0.000191115
0.000329399
0.000535057
0.000832469
0.00120647
0.00156078
0.00166795
0.00123078
0.000163922
-0.000955865
-0.0013278
-0.000943774
-0.00045859
-0.000200034
-8.84891e-05
-4.31983e-05
-2.6832e-05
-2.46103e-05
-3.15018e-05
-4.71115e-05
-7.51089e-05
-9.70923e-05
-4.35452e-05
-1.92288e-05
-2.03282e-05
-3.37132e-05
-4.98126e-05
-6.57753e-05
-9.3663e-05
-0.000136582
-0.000172789
0.000406745
0.000541492
0.000239737
9.76837e-05
4.3761e-05
1.00091e-05
1.8869e-33
1.0692e-32
4.07723e-32
1.4608e-31
5.1117e-31
1.78168e-30
6.22505e-30
2.18267e-29
7.59347e-29
2.63594e-28
9.12947e-28
3.15547e-27
1.08969e-26
3.78089e-26
1.29377e-25
4.40867e-25
1.49694e-24
5.06059e-24
1.7061e-23
5.75616e-23
1.93677e-22
6.4284e-22
2.11805e-21
6.85294e-21
2.27316e-20
7.28061e-20
2.32017e-19
7.32393e-19
2.3364e-18
7.36602e-18
2.25484e-17
7.00574e-17
2.11282e-16
6.32457e-16
1.87343e-15
5.44569e-15
1.57936e-14
4.43164e-14
1.26223e-13
3.59538e-13
1.00733e-12
2.68067e-12
7.08813e-12
1.96536e-11
5.35234e-11
1.44843e-10
3.82288e-10
9.81785e-10
2.44456e-09
5.87403e-09
1.35592e-08
2.99399e-08
6.31985e-08
1.16973e-07
2.27212e-07
4.12169e-07
7.77671e-07
1.59473e-06
3.48572e-06
8.07526e-06
1.94481e-05
4.49569e-05
9.91534e-05
0.000193411
0.000332811
0.000540163
0.000839301
0.00121371
0.00156449
0.0016614
0.00121022
0.000136422
-0.000971958
-0.00132324
-0.000931479
-0.000450633
-0.000196485
-8.70035e-05
-4.25921e-05
-2.66191e-05
-2.45795e-05
-3.15967e-05
-4.73251e-05
-7.54758e-05
-9.65275e-05
-4.30634e-05
-1.90861e-05
-2.03546e-05
-3.37841e-05
-4.98468e-05
-6.58466e-05
-9.38177e-05
-0.00013672
-0.000172235
0.000410495
0.000539093
0.000238216
9.70827e-05
4.34945e-05
9.936e-06
1.8706e-33
1.01872e-32
3.90879e-32
1.39333e-31
4.86686e-31
1.69205e-30
5.94734e-30
2.06313e-29
7.1474e-29
2.51077e-28
8.66746e-28
2.99067e-27
1.0308e-26
3.5572e-26
1.23712e-25
4.22073e-25
1.43356e-24
4.85385e-24
1.64944e-23
5.53478e-23
1.84694e-22
6.12525e-22
2.02337e-21
6.63572e-21
2.1638e-20
6.95906e-20
2.2383e-19
7.06932e-19
2.26171e-18
7.01547e-18
2.1528e-17
6.70233e-17
2.03992e-16