/*--------------------------------*- C++ -*----------------------------------*\
  =========                 |
  \\      /  F ield         | OpenFOAM: The Open Source CFD Toolbox
   \\    /   O peration     | Website:  https://openfoam.org
    \\  /    A nd           | Version:  10
     \\/     M anipulation  |
\*---------------------------------------------------------------------------*/
FoamFile
{
    format      ascii;
    class       volScalarField;
    location    "1";
    object      RR.HO2;
}
// * * * * * * * * * * * * * * * * * * * * * * * * * * * * * * * * * * * * * //

dimensions      [1 -3 -1 0 0 0 0];

internalField   nonuniform List<scalar> 
4000
(
-5.24994e-34
-1.39787e-33
-3.87621e-33
-1.09987e-32
-3.22429e-32
-9.3299e-32
-2.65621e-31
-7.53381e-31
-2.17934e-30
-6.74845e-30
-2.38553e-29
-8.19182e-29
-2.7439e-28
-9.11477e-28
-3.02982e-27
-1.00834e-26
-3.31083e-26
-1.15568e-25
-3.88955e-25
-1.325e-24
-4.52883e-24
-1.55527e-23
-5.42932e-23
-1.88093e-22
-6.57667e-22
-2.28925e-21
-7.75619e-21
-2.76508e-20
-9.43287e-20
-3.22105e-19
-1.09762e-18
-3.71967e-18
-1.24505e-17
-4.14833e-17
-1.38017e-16
-4.35925e-16
-1.44425e-15
-4.63481e-15
-1.488e-14
-4.73029e-14
-1.43787e-13
-4.31454e-13
-1.24881e-12
-3.54448e-12
-9.82401e-12
-2.81543e-11
-8.1454e-11
-2.25951e-10
-5.8571e-10
-1.38939e-09
-3.00928e-09
-6.17334e-09
-1.19487e-08
-2.80415e-08
-7.85596e-08
-2.39231e-07
-6.99706e-07
-2.0298e-06
-5.41285e-06
-1.25543e-05
-2.3252e-05
-2.62326e-05
1.31638e-06
2.00299e-05
8.57554e-06
1.02487e-05
2.45331e-05
4.09495e-05
4.3732e-05
1.16044e-05
-2.43871e-05
3.64889e-05
0.000127686
0.000141353
7.98646e-05
-0.000177542
-0.000154989
-5.44842e-06
4.07418e-05
4.69254e-07
-6.20524e-05
-0.000158058
-0.000306582
-0.000472335
-0.000714287
-0.000559716
-0.000183429
4.98785e-05
0.000125644
0.000153501
0.00021558
0.000279098
0.000316578
0.00040858
0.00062483
0.000807588
0.0007142
0.000164982
-6.82648e-05
3.46668e-05
-9.36593e-34
-4.09893e-33
-1.21141e-32
-3.47331e-32
-9.99088e-32
-2.85308e-31
-7.98557e-31
-2.22018e-30
-5.98141e-30
-1.63893e-29
-4.64805e-29
-1.36366e-28
-4.11452e-28
-1.27507e-27
-4.05782e-27
-1.32326e-26
-4.39816e-26
-1.49163e-25
-5.13248e-25
-1.77989e-24
-6.22127e-24
-2.19798e-23
-7.74292e-23
-2.7279e-22
-9.63085e-22
-3.36863e-21
-1.17466e-20
-4.07764e-20
-1.40186e-19
-4.75804e-19
-1.63318e-18
-5.70878e-18
-1.91854e-17
-6.26458e-17
-2.03748e-16
-6.65795e-16
-2.11002e-15
-6.81295e-15
-2.09134e-14
-6.46703e-14
-1.96624e-13
-5.76799e-13
-1.67114e-12
-4.67503e-12
-1.35384e-11
-3.89316e-11
-1.10206e-10
-2.95577e-10
-7.40539e-10
-1.70818e-09
-3.40438e-09
-6.28356e-09
-1.29976e-08
-3.07472e-08
-8.72065e-08
-2.68931e-07
-7.58985e-07
-2.13782e-06
-5.56168e-06
-1.26255e-05
-2.31064e-05
-2.59158e-05
9.66382e-07
2.00444e-05
8.44446e-06
9.29646e-06
2.30545e-05
3.99236e-05
4.45886e-05
1.50645e-05
-2.43416e-05
3.24048e-05
0.000128334
0.0001463
8.60878e-05
-0.000174164
-0.000160466
-6.58057e-06
4.20767e-05
9.43931e-07
-6.36385e-05
-0.000163709
-0.000315603
-0.000484408
-0.000726743
-0.000547219
-0.000169354
5.67713e-05
0.000129102
0.000159229
0.000225908
0.000286385
0.00032917
0.000425709
0.000647196
0.000820065
0.000685274
0.000144557
-7.26698e-05
3.04012e-05
-5.04598e-34
-2.51917e-33
-7.99042e-33
-2.26423e-32
-6.18856e-32
-1.6622e-31
-4.42916e-31
-1.19451e-30
-3.35689e-30
-1.00643e-29
-3.15503e-29
-1.03027e-28
-3.47838e-28
-1.20086e-27
-4.21413e-27
-1.49656e-26
-5.36519e-26
-1.93787e-25
-7.02188e-25
-2.54088e-24
-9.19371e-24
-3.31077e-23
-1.18531e-22
-4.20778e-22
-1.47914e-21
-5.15806e-21
-1.79272e-20
-6.27273e-20
-2.1339e-19
-7.15903e-19
-2.4944e-18
-8.26883e-18
-2.68415e-17
-8.81835e-17
-2.88522e-16
-9.19671e-16
-2.87519e-15
-8.94256e-15
-2.76862e-14
-8.27897e-14
-2.47297e-13
-6.96085e-13
-2.08204e-12
-5.77019e-12
-1.687e-11
-4.75223e-11
-1.33482e-10
-3.50915e-10
-8.45455e-10
-1.90144e-09
-3.69928e-09
-6.86563e-09
-1.42303e-08
-3.46876e-08
-9.74486e-08
-2.84338e-07
-7.89862e-07
-2.20088e-06
-5.66495e-06
-1.27261e-05
-2.30309e-05
-2.56135e-05
8.09066e-07
1.99333e-05
8.18768e-06
8.20197e-06
2.12794e-05
3.89898e-05
4.61075e-05
1.79259e-05
-2.37977e-05
2.86594e-05
0.000129129
0.000151895
9.33088e-05
-0.000170616
-0.000167046
-7.59983e-06
4.3906e-05
1.39972e-06
-6.62679e-05
-0.000172089
-0.000328184
-0.000502106
-0.000742412
-0.000527874
-0.000149213
6.59205e-05
0.000133132
0.000167482
0.000239096
0.000292174
0.00033862
0.000441779
0.000664009
0.000821057
0.000639378
8.39556e-05
-7.91598e-05
2.55997e-05
-2.00315e-34
-1.02976e-33
-3.5205e-33
-1.08554e-32
-3.25664e-32
-9.83864e-32
-3.04943e-31
-1.01938e-30
-3.45232e-30
-1.19162e-29
-4.26199e-29
-1.52139e-28
-5.56606e-28
-2.00569e-27
-7.24458e-27
-2.61509e-26
-9.42382e-26
-3.38546e-25
-1.21077e-24
-4.31402e-24
-1.53121e-23
-5.40919e-23
-1.89938e-22
-6.61537e-22
-2.32979e-21
-8.02263e-21
-2.74415e-20
-9.31624e-20
-3.07995e-19
-1.05693e-18
-3.48938e-18
-1.14611e-17
-3.71011e-17
-1.20081e-16
-3.86261e-16
-1.21431e-15
-3.73848e-15
-1.15949e-14
-3.52041e-14
-1.04776e-13
-3.09546e-13
-8.7565e-13
-2.56093e-12
-7.09152e-12
-1.96633e-11
-5.66797e-11
-1.5597e-10
-3.99468e-10
-9.6323e-10
-1.9737e-09
-3.80086e-09
-7.5582e-09
-1.57991e-08
-3.88217e-08
-1.09766e-07
-2.93879e-07
-8.18861e-07
-2.26015e-06
-5.75425e-06
-1.27743e-05
-2.29273e-05
-2.53772e-05
6.12297e-07
1.99738e-05
8.05229e-06
7.34577e-06
2.00207e-05
3.82595e-05
4.72306e-05
2.10276e-05
-2.24039e-05
2.54383e-05
0.000130498
0.000157435
0.000100958
-0.000170051
-0.000172597
-7.90139e-06
4.58399e-05
1.34499e-06
-6.9481e-05
-0.00018058
-0.000339699
-0.00052248
-0.000753447
-0.000505694
-0.000129922
7.31386e-05
0.000135798
0.000174679
0.000248261
0.000293641
0.000345664
0.000458208
0.000676154
0.000820696
0.000591727
5.28669e-05
-8.50792e-05
2.12607e-05
-1.6227e-34
-8.59174e-34
-3.14492e-33
-1.06844e-32
-3.58648e-32
-1.21362e-31
-4.16314e-31
-1.44523e-30
-5.02992e-30
-1.81799e-29
-6.47684e-29
-2.32979e-28
-8.50179e-28
-3.0497e-27
-1.11716e-26
-4.00283e-26
-1.42797e-25
-5.192e-25
-1.85023e-24
-6.55968e-24
-2.3123e-23
-8.08227e-23
-2.80517e-22
-9.67447e-22
-3.31827e-21
-1.1284e-20
-3.80881e-20
-1.298e-19
-4.31421e-19
-1.42131e-18
-4.65407e-18
-1.55398e-17
-4.96182e-17
-1.58869e-16
-5.00019e-16
-1.56215e-15
-4.73008e-15
-1.40767e-14
-4.29834e-14
-1.2805e-13
-3.69863e-13
-1.05697e-12
-2.93734e-12
-8.35839e-12
-2.30141e-11
-6.52549e-11
-1.75348e-10
-4.52877e-10
-9.88609e-10
-2.00706e-09
-4.07347e-09
-8.01923e-09
-1.71907e-08
-4.42818e-08
-1.13789e-07
-3.05443e-07
-8.47856e-07
-2.31247e-06
-5.82721e-06
-1.28422e-05
-2.28695e-05
-2.51547e-05
5.60855e-07
1.99002e-05
7.84266e-06
6.71479e-06
1.92271e-05
3.7836e-05
4.81223e-05
2.35929e-05
-2.13304e-05
2.36955e-05
0.000131974
0.000163014
0.000107282
-0.000168305
-0.000178559
-8.45665e-06
4.75888e-05
1.41527e-06
-7.25056e-05
-0.000189435
-0.000352155
-0.000539656
-0.000760854
-0.000487596
-0.000114104
7.93707e-05
0.000138606
0.000181028
0.000257341
0.000296249
0.000352298
0.000472772
0.000685931
0.000815023
0.000552047
2.99881e-05
-9.26388e-05
1.85799e-05
-2.39789e-34
-1.33117e-33
-5.04293e-33
-1.78802e-32
-6.25154e-32
-2.18398e-31
-7.64396e-31
-2.68289e-30
-9.43264e-30
-3.32613e-29
-1.17031e-28
-4.09275e-28
-1.4724e-27
-5.18489e-27
-1.82118e-26
-6.49259e-26
-2.28285e-25
-8.02661e-25
-2.8262e-24
-9.79148e-24
-3.45503e-23
-1.18445e-22
-4.03079e-22
-1.36213e-21
-4.62464e-21
-1.58092e-20
-5.25819e-20
-1.72458e-19
-5.77352e-19
-1.87087e-18
-6.03131e-18
-2.00188e-17
-6.31815e-17
-1.98324e-16
-6.13635e-16
-1.88944e-15
-5.6808e-15
-1.67039e-14
-5.08906e-14
-1.56439e-13
-4.40852e-13
-1.22182e-12
-3.40593e-12
-9.58714e-12
-2.64113e-11
-7.30241e-11
-1.98471e-10
-4.68116e-10
-1.02023e-09
-2.14441e-09
-4.25851e-09
-8.22185e-09
-1.74959e-08
-4.5887e-08
-1.19295e-07
-3.18144e-07
-8.70299e-07
-2.35851e-06
-5.88111e-06
-1.28644e-05
-2.2767e-05
-2.49667e-05
4.49613e-07
1.99543e-05
7.83298e-06
6.1921e-06
1.82536e-05
3.72061e-05
4.9143e-05
2.60109e-05
-2.04446e-05
2.16808e-05
0.000132966
0.000167151
0.000112022
-0.000166436
-0.000183367
-8.97261e-06
4.90898e-05
1.57346e-06
-7.49971e-05
-0.000196693
-0.000362012
-0.000553374
-0.000765437
-0.00047391
-0.000102395
8.39203e-05
0.000140789
0.000186112
0.000264275
0.000297521
0.000357131
0.00048356
0.000694048
0.000810556
0.000521744
1.2967e-05
-9.47447e-05
1.62434e-05
-3.7628e-34
-2.02392e-33
-7.792e-33
-2.74853e-32
-9.48772e-32
-3.35619e-31
-1.16576e-30
-4.07161e-30
-1.42532e-29
-4.99072e-29
-1.74934e-28
-6.13515e-28
-2.15061e-27
-7.52833e-27
-2.63887e-26
-9.26839e-26
-3.25657e-25
-1.13187e-24
-3.92582e-24
-1.37203e-23
-4.71835e-23
-1.61199e-22
-5.47175e-22
-1.84354e-21
-6.15614e-21
-2.03621e-20
-6.74714e-20
-2.16686e-19
-7.23547e-19
-2.37114e-18
-7.59663e-18
-2.42187e-17
-7.6501e-17
-2.39951e-16
-7.33402e-16
-2.25987e-15
-6.94842e-15
-2.02786e-14
-6.17854e-14
-1.80339e-13
-5.10549e-13
-1.43022e-12
-3.95e-12
-1.06625e-11
-2.94282e-11
-8.06352e-11
-2.08953e-10
-4.6855e-10
-1.07375e-09
-2.24734e-09
-4.35863e-09
-8.31436e-09
-1.77698e-08
-4.71334e-08
-1.23114e-07
-3.27876e-07
-8.88053e-07
-2.38696e-06
-5.91454e-06
-1.28609e-05
-2.26644e-05
-2.48318e-05
2.71825e-07
2.00034e-05
7.87032e-06
5.85427e-06
1.76036e-05
3.6765e-05
4.97598e-05
2.78722e-05
-1.95491e-05
2.04286e-05
0.000133702
0.000170751
0.000116371
-0.000163682
-0.000188009
-9.90451e-06
5.03602e-05
1.89591e-06
-7.68541e-05
-0.000202183
-0.000369477
-0.000563673
-0.000768418
-0.000464512
-9.44898e-05
8.69149e-05
0.000142356
0.000189955
0.000269218
0.000298177
0.000360579
0.000491711
0.000699314
0.000806322
0.000500865
8.33285e-07
-9.62361e-05
1.46085e-05
-5.38081e-34
-2.91608e-33
-1.11289e-32
-3.96317e-32
-1.38804e-31
-4.84451e-31
-1.68982e-30
-5.89575e-30
-2.05729e-29
-7.17785e-29
-2.50192e-28
-8.72408e-28
-3.04587e-27
-1.06325e-26
-3.69323e-26
-1.28307e-25
-4.45589e-25
-1.53964e-24
-5.30302e-24
-1.8217e-23
-6.23329e-23
-2.11402e-22
-7.12178e-22
-2.38209e-21
-7.91755e-21
-2.61664e-20
-8.57401e-20
-2.76541e-19
-8.78691e-19
-2.80219e-18
-9.10272e-18
-2.93963e-17
-9.21147e-17
-2.85308e-16
-8.63687e-16
-2.62345e-15
-7.97117e-15
-2.30291e-14
-6.98442e-14
-2.04363e-13
-5.79731e-13
-1.59403e-12
-4.43627e-12
-1.19892e-11
-3.31898e-11
-8.9545e-11
-2.16712e-10
-5.03554e-10
-1.136e-09
-2.3377e-09
-4.45057e-09
-8.34697e-09
-1.79088e-08
-4.80991e-08
-1.262e-07
-3.35014e-07
-9.00872e-07
-2.40455e-06
-5.92153e-06
-1.2815e-05
-2.25217e-05
-2.47395e-05
-2.35081e-08
2.00524e-05
7.85924e-06
5.53538e-06
1.71053e-05
3.6341e-05
5.0264e-05
2.96337e-05
-1.86602e-05
1.85147e-05
0.000133698
0.000173778
0.000120467
-0.000159609
-0.000192722
-1.14733e-05
5.13716e-05
2.472e-06
-7.79638e-05
-0.000205833
-0.000374616
-0.000570698
-0.000770757
-0.000459061
-8.97879e-05
8.86245e-05
0.000143353
0.000192646
0.00027271
0.000298672
0.000363308
0.000497779
0.000701349
0.000803671
0.000484894
-7.06256e-06
-9.71272e-05
1.35339e-05
-7.04926e-34
-3.83625e-33
-1.47051e-32
-5.2437e-32
-1.83897e-31
-6.41518e-31
-2.23264e-30
-7.76791e-30
-2.70242e-29
-9.45277e-29
-3.28351e-28
-1.13843e-27
-3.94393e-27
-1.37423e-26
-4.74627e-26
-1.63731e-25
-5.64705e-25
-1.93934e-24
-6.61019e-24
-2.29329e-23
-7.79323e-23
-2.59008e-22
-8.84748e-22
-2.92575e-21
-9.68214e-21
-3.21386e-20
-1.05005e-19
-3.40427e-19
-1.09159e-18
-3.46316e-18
-1.08197e-17
-3.45012e-17
-1.07363e-16
-3.33001e-16
-1.01228e-15
-3.0434e-15
-9.06614e-15
-2.59708e-14
-7.83498e-14
-2.2856e-13
-6.3895e-13
-1.79041e-12
-4.92059e-12
-1.34588e-11
-3.47783e-11
-8.71057e-11
-2.25204e-10
-5.39877e-10
-1.19357e-09
-2.41276e-09
-4.49109e-09
-8.34056e-09
-1.79916e-08
-4.87998e-08
-1.28316e-07
-3.39737e-07
-9.0812e-07
-2.40923e-06
-5.90184e-06
-1.273e-05
-2.23519e-05
-2.46912e-05
-5.98296e-07
2.01352e-05
8.11877e-06
5.19329e-06
1.63102e-05
3.57165e-05
5.06342e-05
3.13435e-05
-1.77174e-05
1.58988e-05
0.000133151
0.000176528
0.000124485
-0.000153989
-0.000197658
-1.37214e-05
5.21676e-05
3.34459e-06
-7.83467e-05
-0.000207813
-0.000377756
-0.000574899
-0.000772953
-0.000456987
-8.7723e-05
8.9355e-05
0.000143878
0.000194354
0.000274904
0.000299162
0.000365298
0.000502149
0.000706094
0.000802407
0.000474914
-1.19927e-05
-9.76766e-05
1.28671e-05
-8.59903e-34
-4.83271e-33
-1.83101e-32
-6.48508e-32
-2.30298e-31
-8.02322e-31
-2.80249e-30
-9.75838e-30
-3.39243e-29
-1.17728e-28
-4.08461e-28
-1.42258e-27
-4.91464e-27
-1.6989e-26
-5.87391e-26
-1.99315e-25
-7.07556e-25
-2.41135e-24
-8.21909e-24
-2.78529e-23
-9.32007e-23
-3.18628e-22
-1.06101e-21
-3.51808e-21
-1.15825e-20
-3.79553e-20
-1.23695e-19
-3.98074e-19
-1.2957e-18
-4.13135e-18
-1.29919e-17
-4.02454e-17
-1.23469e-16
-3.76553e-16
-1.13157e-15
-3.37114e-15
-9.87192e-15
-2.8516e-14
-8.63234e-14
-2.4842e-13
-6.88933e-13
-1.91281e-12
-5.24366e-12
-1.37939e-11
-3.52849e-11
-9.50586e-11
-2.41217e-10
-5.71818e-10
-1.2508e-09
-2.47853e-09
-4.54281e-09
-8.36246e-09
-1.80865e-08
-4.91457e-08
-1.29595e-07
-3.42867e-07
-9.10689e-07
-2.40328e-06
-5.86382e-06
-1.26216e-05
-2.21788e-05
-2.47202e-05
-1.27477e-06
2.01871e-05
8.3e-06
4.93095e-06
1.57533e-05
3.50842e-05
5.05042e-05
3.2095e-05
-1.41371e-05
1.35074e-05
0.00013183
0.00017847
0.000128439
-0.000146183
-0.000203402
-1.69296e-05
5.27777e-05
4.51866e-06
-7.81002e-05
-0.000208411
-0.000379287
-0.000576837
-0.000775191
-0.000457735
-8.76758e-05
8.93068e-05
0.000144005
0.000195266
0.000276285
0.000299696
0.000366764
0.000505001
0.000708332
0.000802126
0.000469573
-1.47231e-05
-9.80067e-05
1.24998e-05
-1.03839e-33
-5.76746e-33
-2.19785e-32
-7.83715e-32
-2.74805e-31
-9.58466e-31
-3.3377e-30
-1.16084e-29
-4.02503e-29
-1.3956e-28
-4.91902e-28
-1.70162e-27
-5.87443e-27
-2.03841e-26
-7.05071e-26
-2.43942e-25
-8.36667e-25
-2.85191e-24
-9.65398e-24
-3.27938e-23
-1.08646e-22
-3.71505e-22
-1.23248e-21
-4.07174e-21
-1.31734e-20
-4.37191e-20
-1.40679e-19
-4.53061e-19
-1.46654e-18
-4.67449e-18
-1.46814e-17
-4.53977e-17
-1.38073e-16
-4.23482e-16
-1.25844e-15
-3.71956e-15
-1.09133e-14
-3.10585e-14
-9.47085e-14
-2.67111e-13
-7.38125e-13
-2.01609e-12
-5.39327e-12
-1.41512e-11
-3.84452e-11
-1.02219e-10
-2.57966e-10
-6.07917e-10
-1.31094e-09
-2.56829e-09
-4.66351e-09
-8.57822e-09
-1.89333e-08
-4.87007e-08
-1.30181e-07
-3.4427e-07
-9.08951e-07
-2.38733e-06
-5.80543e-06
-1.24538e-05
-2.19086e-05
-2.47025e-05
-2.00705e-06
2.01938e-05
8.52878e-06
4.65823e-06
1.50817e-05
3.45378e-05
5.08434e-05
3.35576e-05
-1.29818e-05
1.09292e-05
0.000129945
0.000180302
0.000132289
-0.000137668
-0.000208635
-2.03437e-05
5.32025e-05
5.87434e-06
-7.73732e-05
-0.00020794
-0.000379574
-0.000577042
-0.000777501
-0.000460628
-8.91574e-05
8.8701e-05
0.000143833
0.00019557
0.000277
0.000300287
0.000367765
0.0005068
0.000710081
0.000802753
0.000467651
-1.58822e-05
-9.8197e-05
1.23438e-05
-1.21272e-33
-6.65291e-33
-2.53884e-32
-9.04344e-32
-3.16622e-31
-1.1033e-30
-3.84366e-30
-1.34068e-29
-4.65866e-29
-1.63372e-28
-5.68918e-28
-1.97387e-27
-6.81812e-27
-2.36553e-26
-8.20464e-26
-2.81629e-25
-9.63503e-25
-3.28613e-24
-1.11493e-23
-3.76398e-23
-1.26302e-22
-4.20074e-22
-1.40274e-21
-4.61555e-21
-1.50844e-20
-4.88997e-20
-1.58011e-19
-4.98703e-19
-1.62725e-18
-5.12961e-18
-1.58031e-17
-4.96183e-17
-1.53173e-16
-4.64273e-16
-1.40152e-15
-4.10696e-15
-1.18282e-14
-3.37058e-14
-9.92417e-14
-2.88373e-13
-7.87669e-13
-2.13554e-12
-5.68195e-12
-1.51943e-11
-4.11326e-11
-1.0868e-10
-2.7254e-10
-6.37615e-10
-1.36216e-09
-2.64408e-09
-4.77299e-09
-8.79764e-09
-1.95014e-08
-4.77153e-08
-1.30485e-07
-3.44462e-07
-9.03855e-07
-2.36557e-06
-5.73348e-06
-1.23151e-05
-2.17001e-05
-2.47575e-05
-2.80552e-06
2.02559e-05
8.8331e-06
4.45239e-06
1.44355e-05
3.38892e-05
5.12095e-05
3.5051e-05
-1.14878e-05
8.17894e-06
0.000127896
0.000181842
0.000135752
-0.000128668
-0.000213614
-2.41022e-05
5.3499e-05
7.37899e-06
-7.63074e-05
-0.000206703
-0.000378944
-0.000575954
-0.00077974
-0.000465046
-9.18273e-05
8.76739e-05
0.000143482
0.000195469
0.000277317
0.000300958
0.000368468
0.000507913
0.000711593
0.000804062
0.000468168
-1.5937e-05
-9.82925e-05
1.23346e-05
-1.32011e-33
-7.44828e-33
-2.8557e-32
-1.01532e-31
-3.55432e-31
-1.23962e-30
-4.32401e-30
-1.5086e-29
-5.28028e-29
-1.8446e-28
-6.42426e-28
-2.22959e-27
-7.68825e-27
-2.67954e-26
-9.19437e-26
-3.1433e-25
-1.06021e-24
-3.69903e-24
-1.24986e-23
-4.22539e-23
-1.41697e-22
-4.72417e-22
-1.56646e-21
-5.14956e-21
-1.67808e-20
-5.41106e-20
-1.72419e-19
-5.46383e-19
-1.73611e-18
-5.67629e-18
-1.75116e-17
-5.45994e-17
-1.66231e-16
-5.07342e-16
-1.50346e-15
-4.37973e-15
-1.25278e-14
-3.5647e-14
-1.04763e-13
-3.06307e-13
-8.40616e-13
-2.2913e-12
-6.0703e-12
-1.63487e-11
-4.33108e-11
-1.14021e-10
-2.84162e-10
-6.56583e-10
-1.38676e-09
-2.66082e-09
-4.75109e-09
-8.69332e-09
-1.92074e-08
-4.68297e-08
-1.31099e-07
-3.44206e-07
-8.97073e-07
-2.33712e-06
-5.65545e-06
-1.21404e-05
-2.1499e-05
-2.48019e-05
-3.59722e-06
2.02173e-05
9.13485e-06
4.28302e-06
1.38328e-05
3.31933e-05
5.12773e-05
3.65517e-05
-1.00353e-05
5.52664e-06
0.000125413
0.000182718
0.000138935
-0.000118576
-0.000218804
-2.82368e-05
5.36523e-05
8.97493e-06
-7.49669e-05
-0.000204888
-0.000377706
-0.000574068
-0.000781917
-0.000470502
-9.52444e-05
8.6345e-05
0.000142948
0.000195079
0.000277275
0.000301766
0.000369076
0.000508451
0.000712738
0.000805663
0.000470297
-1.52637e-05
-9.83424e-05
1.24246e-05
-1.39002e-33
-8.39489e-33
-3.18633e-32
-1.13309e-31
-3.97366e-31
-1.39018e-30
-4.86174e-30
-1.69446e-29
-5.89732e-29
-2.05047e-28
-7.11302e-28
-2.45154e-27
-8.62047e-27
-2.97238e-26
-1.02025e-25
-3.44244e-25
-1.19878e-24
-4.06076e-24
-1.37271e-23
-4.603e-23
-1.53098e-22
-5.065e-22
-1.6986e-21
-5.56001e-21
-1.809e-20
-5.81933e-20
-1.89174e-19
-6.02559e-19
-1.90396e-18
-5.99653e-18
-1.86994e-17
-5.8347e-17
-1.77722e-16
-5.33783e-16
-1.58491e-15
-4.61091e-15
-1.32875e-14
-3.72874e-14
-1.11494e-13
-3.2265e-13
-8.74559e-13
-2.36035e-12
-6.38415e-12
-1.71601e-11
-4.52023e-11
-1.18288e-10
-2.91924e-10
-6.68825e-10
-1.40018e-09
-2.66109e-09
-4.70757e-09
-8.53455e-09
-1.88354e-08
-4.59523e-08
-1.31253e-07
-3.43391e-07
-8.90023e-07
-2.31258e-06
-5.58982e-06
-1.19874e-05
-2.12684e-05
-2.48316e-05
-4.36315e-06
2.01355e-05
9.42072e-06
4.12267e-06
1.33491e-05
3.25912e-05
5.1206e-05
3.78206e-05
-8.6513e-06
3.17541e-06
0.000122992
0.000183524
0.000141755
-0.000108692
-0.000223535
-3.24109e-05
5.37032e-05
1.0634e-05
-7.35175e-05
-0.000202819
-0.000376127
-0.000571732
-0.000783888
-0.000476374
-9.8996e-05
8.49011e-05
0.000142348
0.000194475
0.000277065
0.000302415
0.000369387
0.000508575
0.000711909
0.000807614
0.000473539
-1.4072e-05
-9.83307e-05
1.25816e-05
-1.67084e-33
-9.08329e-33
-3.46981e-32
-1.23716e-31
-4.3332e-31
-1.51224e-30
-5.3139e-30
-1.8453e-29
-6.38356e-29
-2.22772e-28
-7.79197e-28
-2.69469e-27
-9.30572e-27
-3.21018e-26
-1.10583e-25
-3.77048e-25
-1.27236e-24
-4.39262e-24
-1.47691e-23
-4.96259e-23
-1.66607e-22
-5.53598e-22
-1.82951e-21
-5.99805e-21
-1.94648e-20
-6.24163e-20
-2.0041e-19
-6.3406e-19
-1.9985e-18
-6.38419e-18
-1.99193e-17
-6.19295e-17
-1.86425e-16
-5.58564e-16
-1.62956e-15
-4.69972e-15
-1.39157e-14
-3.89092e-14
-1.15546e-13
-3.25316e-13
-9.30693e-13
-2.49876e-12
-6.71294e-12
-1.75981e-11
-4.66039e-11
-1.21274e-10
-2.97631e-10
-6.7774e-10
-1.40914e-09
-2.65661e-09
-4.65551e-09
-8.39032e-09
-1.85085e-08
-4.5219e-08
-1.30987e-07
-3.41794e-07
-8.81188e-07
-2.28518e-06
-5.5139e-06
-1.18434e-05
-2.10685e-05
-2.48683e-05
-5.1094e-06
2.00622e-05
9.70216e-06
3.99813e-06
1.29104e-05
3.21694e-05
4.54753e-05
3.8976e-05
-7.40944e-06
1.08336e-06
0.000120523
0.000184116
0.000144312
-9.93855e-05
-0.000227711
-3.64049e-05
5.36981e-05
1.21764e-05
-7.21168e-05
-0.000200757
-0.00037447
-0.000569332
-0.000785491
-0.000482033
-0.000102692
8.34835e-05
0.000141765
0.000193847
0.000276617
0.000303056
0.000369641
0.000508604
0.000714087
0.000809586
0.000477087
-1.2711e-05
-9.8298e-05
1.27615e-05
-1.79316e-33
-9.75785e-33
-3.72946e-32
-1.33034e-31
-4.67701e-31
-1.63236e-30
-5.69013e-30
-1.98141e-29
-6.88441e-29
-2.38279e-28
-8.25305e-28
-2.87121e-27
-9.92029e-27
-3.42401e-26
-1.17964e-25
-4.03538e-25
-1.36356e-24
-4.66893e-24
-1.56549e-23
-5.24252e-23
-1.76437e-22
-5.85546e-22
-1.93472e-21
-6.33709e-21
-2.0499e-20
-6.55792e-20
-2.10938e-19
-6.64995e-19
-2.07113e-18
-6.62278e-18
-2.04033e-17
-6.33062e-17
-1.93374e-16
-5.78663e-16
-1.70943e-15
-5.01129e-15
-1.4433e-14
-4.20028e-14
-1.22048e-13
-3.49399e-13
-9.56915e-13
-2.55961e-12
-6.87877e-12
-1.79227e-11
-4.76489e-11
-1.23565e-10
-3.01845e-10
-6.83972e-10
-1.41446e-09
-2.65124e-09
-4.6164e-09
-8.27593e-09
-1.8227e-08
-4.46163e-08
-1.30603e-07
-3.40086e-07
-8.7311e-07
-2.25819e-06
-5.44662e-06
-1.17032e-05
-2.08919e-05
-2.48992e-05
-5.72035e-06
1.99675e-05
9.93471e-06
3.92521e-06
1.26998e-05
3.25808e-05
4.90141e-05
4.06837e-05
-6.09183e-06
-4.48146e-07
0.000118382
0.000184576
0.000146432
-9.13984e-05
-0.000231147
-3.98646e-05
5.36406e-05
1.35032e-05
-7.0879e-05
-0.000198901
-0.00037291
-0.000567106
-0.000786705
-0.000487084
-0.000106045
8.21892e-05
0.000141219
0.000193213
0.000276239
0.00030362
0.000369817
0.000508406
0.00071512
0.000811252
0.000480498
-1.13541e-05
-9.82443e-05
1.29404e-05
-1.78695e-33
-1.02231e-32
-3.91193e-32
-1.39509e-31
-4.89415e-31
-1.7114e-30
-5.98271e-30
-2.08796e-29
-7.25115e-29
-2.5058e-28
-8.7375e-28
-3.01688e-27
-1.0411e-26
-3.58922e-26
-1.23393e-25
-4.22578e-25
-1.453e-24
-4.91853e-24
-1.65381e-23
-5.53242e-23
-1.85836e-22
-6.11065e-22
-2.03121e-21
-6.61877e-21
-2.14411e-20
-6.88815e-20
-2.19204e-19
-7.00876e-19
-2.18647e-18
-6.83584e-18
-2.12569e-17
-6.66398e-17
-2.01079e-16
-6.00628e-16
-1.77238e-15
-5.21406e-15
-1.51144e-14
-4.31774e-14
-1.24604e-13
-3.49971e-13
-9.65172e-13
-2.59863e-12
-6.784e-12
-1.81857e-11
-4.85502e-11
-1.25294e-10
-3.04996e-10
-6.88579e-10
-1.41813e-09
-2.64582e-09
-4.58349e-09
-8.18599e-09
-1.80218e-08
-4.41687e-08
-1.30196e-07
-3.38528e-07
-8.66134e-07
-2.23809e-06
-5.3969e-06
-1.16033e-05
-2.07631e-05
-2.49131e-05
-6.22751e-06
1.988e-05
1.01703e-05
3.85884e-06
1.23647e-05
3.21572e-05
4.91025e-05
4.157e-05
-5.61509e-06
-1.91037e-06
0.000116645
0.000184808
0.000148042
-8.50777e-05
-0.000233769
-4.26506e-05
5.35555e-05
1.45676e-05
-6.98594e-05
-0.00019734
-0.000371593
-0.000565249
-0.000787576
-0.000491215
-0.000108825
8.11176e-05
0.000140775
0.000192696
0.000275859
0.000304073
0.000369897
0.000508033
0.000713666
0.000812477
0.000483324
-1.02168e-05
-9.82023e-05
1.3094e-05
-1.91487e-33
-1.04665e-32
-3.99239e-32
-1.44341e-31
-5.05303e-31
-1.76446e-30
-6.15688e-30
-2.14904e-29
-7.49351e-29
-2.60324e-28
-9.02479e-28
-3.12377e-27
-1.08058e-26
-3.73938e-26
-1.29199e-25
-4.42481e-25
-1.50786e-24
-5.11202e-24
-1.72302e-23
-5.77072e-23
-1.92024e-22
-6.3427e-22
-2.08089e-21
-6.77535e-21
-2.20828e-20
-7.10493e-20
-2.27542e-19
-7.16798e-19
-2.28975e-18
-7.10272e-18
-2.18904e-17
-6.6541e-17
-2.05229e-16
-6.10744e-16
-1.8295e-15
-5.38249e-15
-1.54386e-14
-4.3133e-14
-1.23784e-13
-3.57785e-13
-9.59335e-13
-2.5823e-12
-6.84491e-12
-1.83591e-11
-4.91851e-11
-1.26533e-10
-3.0723e-10
-6.91834e-10
-1.42074e-09
-2.64168e-09
-4.56047e-09
-8.1207e-09
-1.78824e-08
-4.38615e-08
-1.29883e-07
-3.37395e-07
-8.61332e-07
-2.22361e-06
-5.36062e-06
-1.15303e-05
-2.06676e-05
-2.4924e-05
-6.57333e-06
1.98116e-05
1.03224e-05
3.8132e-06
1.21376e-05
3.18443e-05
4.90668e-05
4.21092e-05
-4.47658e-06
-2.72527e-06
0.000115384
0.000184996
0.000149167
-8.06277e-05
-0.000235562
-4.46362e-05
5.34716e-05
1.53232e-05
-6.91282e-05
-0.000196218
-0.000370626
-0.000563893
-0.000788126
-0.000494194
-0.000110844
8.03352e-05
0.000140447
0.000192307
0.000275591
0.000304407
0.000370012
0.000507894
0.000713997
0.000813443
0.00048542
-9.36388e-06
-9.81624e-05
1.32089e-05
-1.93447e-33
-1.0809e-32
-4.11108e-32
-1.46584e-31
-5.15201e-31
-1.80752e-30
-6.31495e-30
-2.20439e-29
-7.69097e-29
-2.67913e-28
-9.30547e-28
-3.22368e-27
-1.11381e-26
-3.84041e-26
-1.32325e-25
-4.52683e-25
-1.54048e-24
-5.21805e-24
-1.74979e-23
-5.83057e-23
-1.94057e-22
-6.40445e-22
-2.12597e-21
-6.87741e-21
-2.25428e-20
-7.21345e-20
-2.30963e-19
-7.38559e-19
-2.32188e-18
-7.24055e-18
-2.22978e-17
-6.96472e-17
-2.08341e-16
-6.19758e-16
-1.85473e-15
-5.35977e-15
-1.55961e-14
-4.3652e-14
-1.29626e-13
-3.64902e-13
-9.85616e-13
-2.62269e-12
-6.88263e-12
-1.86432e-11
-4.94886e-11
-1.27296e-10
-3.08715e-10
-6.94025e-10
-1.42255e-09
-2.63955e-09
-4.54733e-09
-8.08515e-09
-1.78012e-08
-4.3688e-08
-1.29734e-07
-3.36837e-07
-8.58922e-07
-2.21631e-06
-5.34196e-06
-1.1492e-05
-2.0615e-05
-2.4929e-05
-6.75414e-06
1.97684e-05
1.0401e-05
3.79078e-06
1.2014e-05
3.16699e-05
4.90268e-05
4.23894e-05
-4.55424e-06
-3.08973e-06
0.000114712
0.000185078
0.000149754
-7.82614e-05
-0.000236494
-4.56992e-05
5.34229e-05
1.57286e-05
-6.87287e-05
-0.000195596
-0.000370082
-0.000563139
-0.000788403
-0.000495833
-0.000111958
7.99063e-05
0.000140272
0.0001921
0.000275437
0.0003046
0.000370039
0.000507965
0.000714902
0.000814083
0.00048657
-8.90532e-06
-9.81427e-05
1.32717e-05
-1.97247e-33
-1.09247e-32
-4.16959e-32
-1.48822e-31
-5.22286e-31
-1.82476e-30
-6.36634e-30
-2.22169e-29
-7.75489e-29
-2.71923e-28
-9.44284e-28
-3.27038e-27
-1.12589e-26
-3.7935e-26
-1.35208e-25
-4.59384e-25
-1.56132e-24
-5.28302e-24
-1.77998e-23
-5.96761e-23
-1.9895e-22
-6.58542e-22
-2.16442e-21
-7.04666e-21
-2.25942e-20
-7.37692e-20
-2.34844e-19
-7.47295e-19
-2.3797e-18
-7.46296e-18
-2.29757e-17
-7.05789e-17
-2.11506e-16
-6.43027e-16
-1.89114e-15
-5.43847e-15
-1.58415e-14
-4.43735e-14
-1.29943e-13
-3.60569e-13
-9.97465e-13
-2.65328e-12
-7.00269e-12
-1.86959e-11
-4.96916e-11
-1.27771e-10
-3.09629e-10
-6.9547e-10
-1.42412e-09
-2.63957e-09
-4.54197e-09
-8.06926e-09
-1.77685e-08
-4.3625e-08
-1.29766e-07
-3.36813e-07
-8.58463e-07
-2.21462e-06
-5.33743e-06
-1.14826e-05
-2.0602e-05
-2.49281e-05
-6.79342e-06
1.9757e-05
1.04184e-05
3.79122e-06
1.19971e-05
3.16429e-05
4.90225e-05
4.24397e-05
-4.48472e-06
-3.16009e-06
0.00011461
0.000185092
0.00014985
-7.78754e-05
-0.000236629
-4.58629e-05
5.34143e-05
1.5791e-05
-6.86665e-05
-0.000195499
-0.000369998
-0.000563024
-0.000788447
-0.000496083
-0.000112125
7.98432e-05
0.000140248
0.000192074
0.000275433
0.000304609
0.000369988
0.000507809
0.00071423
0.000814074
0.000486715
-8.83838e-06
-9.81342e-05
1.32798e-05
-1.96413e-33
-1.09381e-32
-4.20383e-32
-1.5e-31
-5.27345e-31
-1.84654e-30
-6.4553e-30
-2.25365e-29
-7.85571e-29
-2.73313e-28
-9.49093e-28
-3.28912e-27
-1.13548e-26
-3.8815e-26
-1.35738e-25
-4.62646e-25
-1.57053e-24
-5.24372e-24
-1.80327e-23
-6.00956e-23
-2.01237e-22
-6.66313e-22
-2.19447e-21
-7.17874e-21
-2.32328e-20
-7.45033e-20
-2.37088e-19
-7.60089e-19
-2.39366e-18
-7.48363e-18
-2.32082e-17
-7.07977e-17
-2.16031e-16
-6.41711e-16
-1.90641e-15
-5.51337e-15
-1.59355e-14
-4.50459e-14
-1.30806e-13
-3.68305e-13
-9.99499e-13
-2.64866e-12
-7.06495e-12
-1.87727e-11
-4.96758e-11
-1.28003e-10
-3.10091e-10
-6.96384e-10
-1.42579e-09
-2.64242e-09
-4.54696e-09
-8.08009e-09
-1.77994e-08
-4.3707e-08
-1.30066e-07
-3.37565e-07
-8.60783e-07
-2.22073e-06
-5.35169e-06
-1.15102e-05
-2.06366e-05
-2.49188e-05
-6.65621e-06
1.97813e-05
1.0357e-05
3.81032e-06
1.20881e-05
3.17647e-05
4.90428e-05
4.2247e-05
-4.18114e-06
-2.77753e-06
0.000115103
0.000185031
0.000149422
-7.95924e-05
-0.000235939
-4.50822e-05
5.34582e-05
1.54985e-05
-6.89553e-05
-0.000195952
-0.000370398
-0.000563581
-0.000788259
-0.000494885
-0.000111302
8.01651e-05
0.000140388
0.000192252
0.000275565
0.000304532
0.000370125
0.000508119
0.000714891
0.000813788
0.00048578
-9.23351e-06
-9.81548e-05
1.32273e-05
-1.99907e-33
-1.08544e-32
-4.15016e-32
-1.48413e-31
-5.22744e-31
-1.83407e-30
-6.41879e-30
-2.24073e-29
-7.80037e-29
-2.70714e-28
-9.3647e-28
-3.23063e-27
-1.11331e-26
-3.83963e-26
-1.32352e-25
-4.52343e-25
-1.52741e-24
-5.19109e-24
-1.76887e-23
-5.9216e-23
-1.95627e-22
-6.58754e-22
-2.1552e-21
-7.1282e-21
-2.29779e-20
-7.3357e-20
-2.32696e-19
-7.50441e-19
-2.35017e-18
-7.35507e-18
-2.2721e-17
-6.89817e-17
-2.15816e-16
-6.36628e-16
-1.84851e-15
-5.30916e-15
-1.56076e-14
-4.28056e-14
-1.26928e-13
-3.66516e-13
-9.82367e-13
-2.64354e-12
-6.93997e-12
-1.87797e-11
-4.96736e-11
-1.27884e-10
-3.09985e-10
-6.96621e-10
-1.4274e-09
-2.64794e-09
-4.56193e-09
-8.11676e-09
-1.789e-08
-4.39294e-08
-1.30642e-07
-3.39114e-07
-8.65904e-07
-2.23457e-06
-5.38417e-06
-1.15727e-05
-2.07157e-05
-2.48988e-05
-6.34754e-06
1.98378e-05
1.02217e-05
3.84817e-06
1.22838e-05
3.20293e-05
4.90819e-05
4.17914e-05
-4.74503e-06
-2.19407e-06
0.000116163
0.000184897
0.000148493
-8.33284e-05
-0.000234432
-4.33956e-05
5.35305e-05
1.48628e-05
-6.95843e-05
-0.000196942
-0.000371268
-0.000564792
-0.000787822
-0.000492282
-0.000109525
8.08543e-05
0.000140679
0.000192611
0.00027583
0.000304255
0.000370011
0.000508241
0.000715756
0.000812909
0.000483839
-1.00256e-05
-9.8187e-05
1.31193e-05
-1.97306e-33
-1.07094e-32
-4.09382e-32
-1.46238e-31
-5.13725e-31
-1.79676e-30
-6.27442e-30
-2.18825e-29
-7.61613e-29
-2.64604e-28
-9.17651e-28
-3.17544e-27
-1.09607e-26
-3.77583e-26
-1.29555e-25
-4.40337e-25
-1.52002e-24
-5.13604e-24
-1.73108e-23
-5.80673e-23
-1.94191e-22
-6.48661e-22
-2.13568e-21
-6.97197e-21
-2.25715e-20
-7.25023e-20
-2.31049e-19
-7.31518e-19
-2.33481e-18
-7.28185e-18
-2.25374e-17
-6.85687e-17
-2.10176e-16
-6.26051e-16
-1.85393e-15
-5.42238e-15
-1.55473e-14
-4.30161e-14
-1.26515e-13
-3.64816e-13
-9.8247e-13
-2.59822e-12
-6.90817e-12
-1.87903e-11
-4.94599e-11
-1.27447e-10
-3.09387e-10
-6.96321e-10
-1.42918e-09
-2.65655e-09
-4.58767e-09
-8.18137e-09
-1.80484e-08
-4.43095e-08
-1.31542e-07
-3.41589e-07
-8.74217e-07
-2.25726e-06
-5.43773e-06
-1.1676e-05
-2.0844e-05
-2.48623e-05
-5.84716e-06
1.99148e-05
1.00087e-05
3.91053e-06
1.25903e-05
3.2437e-05
4.91247e-05
4.10605e-05
-5.68497e-06
-8.74942e-07
0.00011778
0.000184631
0.000147048
-8.90118e-05
-0.000232106
-4.08674e-05
5.36307e-05
1.3903e-05
-7.05296e-05
-0.000198417
-0.000372559
-0.000566608
-0.000787103
-0.000488402
-0.000106886
8.18732e-05
0.000141109
0.000193138
0.000276239
0.000303858
0.000370044
0.000508587
0.000715444
0.000811653
0.000480954
-1.11973e-05
-9.82322e-05
1.29614e-05
-1.83099e-33
-1.03752e-32
-3.95642e-32
-1.41752e-31
-4.96025e-31
-1.72889e-30
-6.0406e-30
-2.118e-29
-7.36848e-29
-2.55783e-28
-8.85896e-28
-3.06197e-27
-1.0574e-26
-3.66886e-26
-1.25543e-25
-4.27804e-25
-1.45258e-24