/*--------------------------------*- C++ -*----------------------------------*\
  =========                 |
  \\      /  F ield         | OpenFOAM: The Open Source CFD Toolbox
   \\    /   O peration     | Website:  https://openfoam.org
    \\  /    A nd           | Version:  10
     \\/     M anipulation  |
\*---------------------------------------------------------------------------*/
FoamFile
{
    format      ascii;
    class       volScalarField;
    location    "1";
    object      RR.H2;
}
// * * * * * * * * * * * * * * * * * * * * * * * * * * * * * * * * * * * * * //

dimensions      [1 -3 -1 0 0 0 0];

internalField   nonuniform List<scalar> 
4000
(
1.09406e-25
1.2297e-25
1.29851e-25
1.55587e-25
1.92902e-25
2.22098e-25
2.61752e-25
3.06616e-25
3.7448e-25
4.8717e-25
6.74825e-25
8.87573e-25
1.13239e-24
1.39013e-24
1.70716e-24
2.07112e-24
2.43838e-24
2.84808e-24
3.39176e-24
4.01392e-24
4.66039e-24
5.5165e-24
6.68442e-24
8.08853e-24
1.0793e-23
1.60546e-23
2.95587e-23
6.86117e-23
1.83828e-22
5.36675e-22
1.62753e-21
4.98223e-21
1.51852e-20
4.61114e-20
1.39912e-19
4.04742e-19
1.22128e-18
3.5807e-18
1.05091e-17
3.05875e-17
8.55869e-17
2.37411e-16
6.4193e-16
1.72909e-15
4.6637e-15
1.35556e-14
4.23831e-14
1.38336e-13
4.66036e-13
1.58561e-12
5.3023e-12
1.71825e-11
4.68342e-11
1.31224e-10
3.44669e-10
8.64079e-10
2.10647e-09
5.43545e-09
1.39976e-08
3.36431e-08
6.97589e-08
1.02422e-07
-1.03874e-08
-8.60183e-07
-3.27424e-06
-3.71357e-06
2.54696e-05
0.000197724
0.000845436
0.00265624
0.00699693
0.016956
0.0380513
0.0647395
0.0654325
0.0305496
0.0141653
0.0706836
0.207481
0.369999
0.418409
0.30232
0.135922
0.169107
0.201888
-0.162213
-0.227923
-0.19165
-0.139759
-0.0948096
-0.0612683
-0.0376396
-0.0225951
-0.0123409
-0.00475321
-0.00131652
-0.000325464
-7.34559e-05
-1.33299e-05
-7.74865e-07
6.86908e-26
4.41495e-25
5.84259e-25
9.42815e-25
1.1737e-24
1.25122e-24
1.3516e-24
1.42815e-24
1.62465e-24
1.87529e-24
2.10044e-24
2.40688e-24
2.74708e-24
3.02971e-24
3.40779e-24
3.84499e-24
4.2452e-24
4.75055e-24
5.28712e-24
6.02561e-24
6.81382e-24
7.69102e-24
9.13622e-24
1.08026e-23
1.42486e-23
2.07069e-23
3.7856e-23
8.94948e-23
2.46397e-22
7.29467e-22
2.24839e-21
7.12278e-21
2.18739e-20
6.5532e-20
1.95413e-19
5.84936e-19
1.70248e-18
5.03495e-18
1.42128e-17
4.03931e-17
1.13186e-16
3.08064e-16
8.36173e-16
2.23192e-15
6.33582e-15
1.86909e-14
5.83176e-14
1.88963e-13
6.35209e-13
2.17703e-12
6.62282e-12
1.84587e-11
5.46018e-11
1.47955e-10
3.80129e-10
9.49993e-10
2.24689e-09
5.66985e-09
1.43092e-08
3.3763e-08
6.94713e-08
1.0263e-07
-1.11503e-09
-8.04651e-07
-3.13082e-06
-3.94601e-06
2.17334e-05
0.000180324
0.00078557
0.00249902
0.00668698
0.0163072
0.0370246
0.0644735
0.0670272
0.0321132
0.0143555
0.0702753
0.208306
0.373274
0.421918
0.302125
0.135847
0.175798
0.191583
-0.170415
-0.22835
-0.190007
-0.137743
-0.0929906
-0.0598422
-0.0366331
-0.0218971
-0.0117578
-0.00438788
-0.0011979
-0.000295611
-6.69597e-05
-1.22028e-05
-7.11849e-07
5.77779e-25
9.89104e-25
1.59246e-24
2.08802e-24
3.04704e-24
3.15146e-24
3.35608e-24
3.68373e-24
4.11981e-24
4.22852e-24
4.59029e-24
4.82378e-24
5.10416e-24
5.36811e-24
5.57618e-24
5.94457e-24
6.20759e-24
6.71051e-24
7.51623e-24
8.37065e-24
9.37949e-24
1.06726e-23
1.2367e-23
1.4795e-23
1.88673e-23
2.8338e-23
5.15052e-23
1.23863e-22
3.44026e-22
1.01698e-21
3.20549e-21
9.74063e-21
2.9148e-20
8.81454e-20
2.65177e-19
7.7823e-19
2.24041e-18
6.41177e-18
1.82778e-17
5.04652e-17
1.39439e-16
3.65861e-16
1.02348e-15
2.71495e-15
7.82673e-15
2.28736e-14
7.19579e-14
2.33025e-13
7.64423e-13
2.57868e-12
7.70964e-12
2.16819e-11
6.31002e-11
1.71415e-10
4.22107e-10
9.94412e-10
2.31773e-09
5.80202e-09
1.4515e-08
3.39593e-08
6.94294e-08
1.03048e-07
6.66342e-09
-7.55179e-07
-3.00276e-06
-4.09521e-06
1.86779e-05
0.000162805
0.000730725
0.002372
0.00642935
0.0157163
0.036064
0.0640993
0.0686309
0.0338492
0.0146567
0.0701267
0.209979
0.377986
0.426685
0.301305
0.135992
0.185555
0.172218
-0.181007
-0.228233
-0.187083
-0.134662
-0.0902831
-0.0577511
-0.0351827
-0.0209213
-0.0109706
-0.00395454
-0.00106799
-0.000264629
-6.00954e-05
-1.10021e-05
-6.44866e-07
3.41122e-25
7.79573e-25
1.46991e-24
1.92255e-24
2.44314e-24
2.90209e-24
3.01565e-24
3.22934e-24
3.89642e-24
4.50435e-24
5.03605e-24
5.37135e-24
5.83836e-24
6.41144e-24
6.94222e-24
7.60093e-24
8.34416e-24
9.07607e-24
9.89711e-24
1.06311e-23
1.18872e-23
1.4128e-23
1.63686e-23
1.83057e-23
2.3405e-23
3.59087e-23
6.88993e-23
1.68633e-22
4.67581e-22
1.42538e-21
4.30311e-21
1.30346e-20
3.90057e-20
1.16603e-19
3.45986e-19
1.00388e-18
2.85551e-18
8.16071e-18
2.28682e-17
6.28834e-17
1.71967e-16
4.53103e-16
1.2437e-15
3.3046e-15
9.08273e-15
2.74289e-14
8.56813e-14
2.74618e-13
9.22224e-13
2.77929e-12
8.23401e-12
2.58488e-11
7.44941e-11
1.93623e-10
4.66143e-10
1.0187e-09
2.38033e-09
5.92218e-09
1.46878e-08
3.40412e-08
6.93137e-08
1.03541e-07
1.41385e-08
-7.15243e-07
-2.89852e-06
-4.19075e-06
1.62932e-05
0.000150186
0.000686427
0.00226034
0.00618567
0.0151724
0.0352194
0.0637329
0.0700485
0.0350935
0.0150614
0.0705579
0.21249
0.38334
0.43112
0.300198
0.136839
0.196918
0.145116
-0.190069
-0.227026
-0.183768
-0.131632
-0.0871875
-0.0555276
-0.0337604
-0.019976
-0.0102124
-0.00355527
-0.00095514
-0.000237437
-5.40339e-05
-9.93607e-06
-5.84889e-07
2.35584e-25
5.53507e-25
8.20361e-25
1.29486e-24
1.77143e-24
2.10122e-24
2.67282e-24
3.05005e-24
3.68412e-24
4.36318e-24
4.90154e-24
5.49326e-24
6.12913e-24
6.80773e-24
7.77453e-24
8.95115e-24
9.86692e-24
1.04904e-23
1.1554e-23
1.24837e-23
1.37839e-23
1.60806e-23
1.79196e-23
2.05954e-23
2.66629e-23
4.19181e-23
8.68664e-23
2.22076e-22
6.30587e-22
1.87474e-21
5.64145e-21
1.73685e-20
5.13417e-20
1.52034e-19
4.42403e-19
1.27767e-18
3.58024e-18
9.84613e-18
2.76963e-17
7.61392e-17
2.03872e-16
5.42034e-16
1.41817e-15
3.87182e-15
1.06119e-14
3.17623e-14
9.79696e-14
3.223e-13
9.6328e-13
2.89019e-12
9.44942e-12
2.91327e-11
8.38293e-11
2.19715e-10
4.80802e-10
1.04913e-09
2.4454e-09
6.03274e-09
1.48365e-08
3.41874e-08
6.93505e-08
1.04058e-07
1.97544e-08
-6.84176e-07
-2.81151e-06
-4.24944e-06
1.46112e-05
0.000141225
0.000656161
0.00218066
0.00601553
0.014807
0.0345909
0.06349
0.0713269
0.0365029
0.0154382
0.0708938
0.214758
0.388168
0.435358
0.298736
0.137714
0.206084
0.121575
-0.196633
-0.225787
-0.180821
-0.128772
-0.0849059
-0.053857
-0.0326564
-0.0192213
-0.00959936
-0.00325415
-0.00086998
-0.000216766
-4.94265e-05
-9.09814e-06
-5.40041e-07
1.18156e-25
3.65752e-25
7.47939e-25
1.22736e-24
1.63669e-24
2.05216e-24
2.52431e-24
2.95993e-24
3.17485e-24
3.64825e-24
4.25867e-24
5.13316e-24
5.86619e-24
6.44617e-24
7.44082e-24
8.72124e-24
9.68941e-24
1.10572e-23
1.23041e-23
1.43308e-23
1.70705e-23
1.86098e-23
2.09684e-23
2.36435e-23
3.07811e-23
5.02953e-23
1.09309e-22
2.85398e-22
8.32275e-22
2.44752e-21
7.27148e-21
2.2256e-20
6.50524e-20
1.89052e-19
5.41603e-19
1.54233e-18
4.28672e-18
1.16435e-17
3.26291e-17
9.22649e-17
2.41194e-16
6.23167e-16
1.63593e-15
4.42491e-15
1.21759e-14
3.57749e-14
1.12982e-13
3.36529e-13
1.01358e-12
3.2571e-12
1.05262e-11
3.21219e-11
8.97284e-11
2.31357e-10
5.02054e-10
1.08338e-09
2.49425e-09
6.12494e-09
1.4938e-08
3.42249e-08
6.92727e-08
1.04537e-07
2.52319e-08
-6.56255e-07
-2.7427e-06
-4.28027e-06
1.3383e-05
0.000133501
0.000628091
0.00211502
0.00588565
0.0145175
0.0341117
0.0633298
0.0721876
0.0375511
0.0157178
0.0710435
0.216375
0.392027
0.438841
0.297653
0.138757
0.213078
0.103144
-0.20124
-0.224761
-0.17853
-0.126519
-0.0831466
-0.0525715
-0.0318214
-0.0186465
-0.00913924
-0.00304185
-0.000810339
-0.000202166
-4.61392e-05
-8.51369e-06
-5.06618e-07
8.68824e-26
3.23333e-25
5.70559e-25
8.7809e-25
1.11882e-24
1.44857e-24
1.88408e-24
2.36829e-24
3.18768e-24
3.85464e-24
4.65978e-24
5.39294e-24
6.10243e-24
6.93959e-24
7.66433e-24
8.63534e-24
9.62129e-24
1.05887e-23
1.15147e-23
1.2903e-23
1.49366e-23
1.72095e-23
1.90308e-23
2.3297e-23
3.39468e-23
5.99903e-23
1.34902e-22
3.54885e-22
1.04106e-21
3.10222e-21
9.15496e-21
2.69804e-20
7.88977e-20
2.29023e-19
6.47618e-19
1.84142e-18
5.21546e-18
1.40489e-17
3.93274e-17
1.05909e-16
2.77581e-16
7.241e-16
1.88495e-15
4.90424e-15
1.35517e-14
3.95981e-14
1.19384e-13
3.36675e-13
1.09836e-12
3.58027e-12
1.13454e-11
3.41244e-11
9.40539e-11
2.39502e-10
5.15934e-10
1.10834e-09
2.53182e-09
6.17859e-09
1.49914e-08
3.4195e-08
6.91127e-08
1.04938e-07
3.05559e-08
-6.29673e-07
-2.6765e-06
-4.30533e-06
1.23857e-05
0.000127444
0.000607238
0.00206044
0.00576911
0.0142564
0.0336539
0.0631033
0.0729565
0.0385386
0.0159382
0.0708364
0.217108
0.394775
0.441839
0.297396
0.13988
0.218126
0.0901773
-0.204341
-0.22404
-0.176932
-0.124931
-0.0819068
-0.0516603
-0.0312338
-0.018239
-0.00881191
-0.00289419
-0.000769318
-0.000192071
-4.38767e-05
-8.10938e-06
-4.83402e-07
2.08913e-25
4.24571e-25
7.74619e-25
1.31506e-24
1.72931e-24
2.23402e-24
2.5869e-24
3.06787e-24
3.61484e-24
4.21461e-24
4.79849e-24
5.75421e-24
6.72017e-24
7.67309e-24
8.33692e-24
9.36636e-24
1.06458e-23
1.16692e-23
1.27584e-23
1.43454e-23
1.55453e-23
1.71781e-23
1.95821e-23
2.45452e-23
3.69412e-23
6.96885e-23
1.65617e-22
4.46047e-22
1.26546e-21
3.689e-21
1.10251e-20
3.28601e-20
9.52628e-20
2.72867e-19
7.63604e-19
2.13971e-18
5.98813e-18
1.59646e-17
4.44265e-17
1.19727e-16
3.13918e-16
8.03858e-16
2.10786e-15
5.49856e-15
1.53061e-14
4.43756e-14
1.24578e-13
3.70297e-13
1.20174e-12
3.89028e-12
1.2287e-11
3.62423e-11
9.82926e-11
2.4699e-10
5.27757e-10
1.12644e-09
2.55714e-09
6.20608e-09
1.49809e-08
3.40471e-08
6.87897e-08
1.05227e-07
3.61604e-08
-6.0303e-07
-2.60893e-06
-4.3307e-06
1.13499e-05
0.000121668
0.000586764
0.00200586
0.0056493
0.0139874
0.0331492
0.062782
0.0736826
0.0395861
0.0161031
0.0701753
0.216785
0.396339
0.444469
0.298187
0.140989
0.221442
0.082366
-0.206284
-0.223659
-0.175974
-0.123948
-0.0811275
-0.05108
-0.0308573
-0.0179733
-0.00859529
-0.00279767
-0.000742486
-0.00018549
-4.23849e-05
-7.84222e-06
-4.68037e-07
1.95459e-25
5.86532e-25
1.02842e-24
1.59764e-24
1.87011e-24
2.34105e-24
2.80136e-24
3.43559e-24
4.01923e-24
4.79256e-24
4.96785e-24
5.58904e-24
6.60289e-24
7.42435e-24
8.56425e-24
9.46311e-24
1.05627e-23
1.18782e-23
1.30344e-23
1.37985e-23
1.51892e-23
1.73255e-23
1.99108e-23
2.60984e-23
4.06574e-23
8.12526e-23
1.97815e-22
5.44148e-22
1.56418e-21
4.55163e-21
1.31435e-20
3.87048e-20
1.11358e-19
3.18899e-19
8.94943e-19
2.48322e-18
6.82054e-18
1.80088e-17
4.97955e-17
1.33619e-16
3.45323e-16
8.98618e-16
2.3289e-15
6.15886e-15
1.60388e-14
4.29459e-14
1.30225e-13
4.06907e-13
1.30554e-12
4.21103e-12
1.3061e-11
3.79789e-11
1.017e-10
2.52762e-10
5.35836e-10
1.13784e-09
2.56901e-09
6.20292e-09
1.49027e-08
3.37698e-08
6.82421e-08
1.05405e-07
4.3221e-08
-5.64504e-07
-2.51965e-06
-4.352e-06
1.01328e-05
0.000115211
0.000562065
0.00194214
0.00549796
0.0136442
0.0325474
0.0623567
0.0743862
0.0407082
0.01623
0.0690593
0.215424
0.396816
0.446877
0.300061
0.142062
0.223347
0.0789541
-0.207347
-0.223598
-0.175562
-0.123472
-0.0807271
-0.0507668
-0.0306512
-0.0178227
-0.00846669
-0.0027393
-0.000726257
-0.00018149
-4.14753e-05
-7.67886e-06
-4.58639e-07
1.87281e-25
5.64897e-25
9.85238e-25
1.37826e-24
1.70513e-24
2.12512e-24
2.72404e-24
3.34856e-24
4.01245e-24
4.64737e-24
5.32001e-24
6.35615e-24
7.21119e-24
8.0357e-24
9.31061e-24
1.05442e-23
1.16668e-23
1.2635e-23
1.43788e-23
1.57633e-23
1.66123e-23
1.7999e-23
2.1287e-23
2.78486e-23
4.56278e-23
9.24237e-23
2.30251e-22
6.35259e-22
1.85503e-21
5.4287e-21
1.5778e-20
4.52573e-20
1.28496e-19
3.62127e-19
1.0057e-18
2.76418e-18
7.45507e-18
1.97916e-17
5.48363e-17
1.45235e-16
3.72148e-16
9.59838e-16
2.47946e-15
6.31008e-15
1.6258e-14
4.71864e-14
1.41432e-13
4.40806e-13
1.41626e-12
4.51e-12
1.38344e-11
3.97288e-11
1.04901e-10
2.56309e-10
5.40785e-10
1.14493e-09
2.57028e-09
6.17703e-09
1.47849e-08
3.34371e-08
6.76289e-08
1.05323e-07
4.99417e-08
-5.28762e-07
-2.43069e-06
-4.37079e-06
8.94793e-06
0.0001089
0.000538994
0.00187696
0.00524964
0.0133244
0.0319151
0.0617662
0.0749918
0.041977
0.0163329
0.0674089
0.21309
0.396379
0.449167
0.302904
0.143113
0.224151
0.0790371
-0.207769
-0.223804
-0.175585
-0.123397
-0.0806242
-0.0506677
-0.0305779
-0.0177616
-0.0084057
-0.00271023
-0.000718008
-0.000179428
-4.10013e-05
-7.59317e-06
-4.53711e-07
2.04481e-25
5.97991e-25
1.12246e-24
1.38889e-24
1.71247e-24
2.0933e-24
2.39739e-24
2.78041e-24
3.28533e-24
3.88416e-24
4.85707e-24
5.81831e-24
6.68134e-24
7.70708e-24
8.26628e-24
9.01702e-24
9.68453e-24
1.04725e-23
1.20267e-23
1.42675e-23
1.58835e-23
1.77799e-23
2.12042e-23
2.93701e-23
4.95981e-23
1.05316e-22
2.62655e-22
7.2416e-22
2.10755e-21
6.16143e-21
1.78764e-20
5.11739e-20
1.44118e-19
4.08007e-19
1.11992e-18
3.05197e-18
8.23714e-18
2.15551e-17
6.01187e-17
1.56123e-16
3.98293e-16
1.01111e-15
2.54934e-15
6.46761e-15
1.77394e-14
5.11104e-14
1.5356e-13
4.80701e-13
1.5355e-12
4.87209e-12
1.48782e-11
4.24968e-11
1.12377e-10
2.56198e-10
5.4339e-10
1.14747e-09
2.56132e-09
6.12637e-09
1.46076e-08
3.29248e-08
6.67162e-08
1.05135e-07
5.59901e-08
-4.95048e-07
-2.34681e-06
-4.38144e-06
7.84434e-06
0.000102326
0.000516349
0.00181698
0.00510763
0.012992
0.0312188
0.0611138
0.0756003
0.0432429
0.0164534
0.0656423
0.210222
0.395185
0.451196
0.306374
0.144132
0.224109
0.0818037
-0.207725
-0.224219
-0.175939
-0.123625
-0.0807449
-0.0507244
-0.0306032
-0.0177673
-0.00839471
-0.00270216
-0.000715441
-0.000178752
-4.08396e-05
-7.5633e-06
-4.52004e-07
1.4507e-25
4.49846e-25
9.97833e-25
1.31933e-24
1.55853e-24
2.04181e-24
2.69266e-24
3.39919e-24
3.81011e-24
4.36987e-24
5.1028e-24
5.89837e-24
6.52396e-24
7.21322e-24
7.89564e-24
8.76733e-24
9.75447e-24
1.08897e-23
1.15658e-23
1.28787e-23
1.45416e-23
1.73225e-23
2.21212e-23
3.12696e-23
5.50509e-23
1.17398e-22
2.93184e-22
7.98703e-22
2.34396e-21
6.78294e-21
1.93348e-20
5.60769e-20
1.59914e-19
4.47582e-19
1.24631e-18
3.3687e-18
8.93078e-18
2.33747e-17
6.30614e-17
1.68098e-16
4.23925e-16
1.06828e-15
2.67972e-15
6.93095e-15
1.90065e-14
5.46858e-14
1.64342e-13
5.14429e-13
1.6389e-12
5.17579e-12
1.57102e-11
4.4568e-11
1.16624e-10
2.53952e-10
5.45019e-10
1.14692e-09
2.5451e-09
6.06577e-09
1.44143e-08
3.24993e-08
6.59008e-08
1.04736e-07
6.21056e-08
-4.61644e-07
-2.26437e-06
-4.38428e-06
6.85329e-06
9.62715e-05
0.000493828
0.0017605
0.00495051
0.0126339
0.0305169
0.060437
0.0760957
0.0444629
0.0165698
0.0636957
0.206913
0.39343
0.453016
0.31025
0.145145
0.22343
0.0865413
-0.207297
-0.224808
-0.17656
-0.124086
-0.0810316
-0.0508979
-0.0307022
-0.0178228
-0.00842
-0.002709
-0.000716868
-0.000179044
-4.08956e-05
-7.57238e-06
-4.52548e-07
9.29179e-26
2.85014e-25
7.58168e-25
1.09429e-24
1.56797e-24
2.14957e-24
3.09427e-24
3.76159e-24
4.07293e-24
4.81275e-24
5.61829e-24
6.22526e-24
6.96525e-24
7.6788e-24
8.48483e-24
9.60665e-24
9.97127e-24
1.05395e-23
1.1901e-23
1.34062e-23
1.5848e-23
1.8026e-23
2.25232e-23
3.21027e-23
5.66651e-23
1.24093e-22
3.15992e-22
8.72465e-22
2.50467e-21
7.5005e-21
2.13983e-20
6.16442e-20
1.73606e-19
4.88962e-19
1.33804e-18
3.59594e-18
9.47001e-18
2.4711e-17
6.64396e-17
1.78044e-16
4.50795e-16
1.14153e-15
2.85398e-15
7.44544e-15
2.00281e-14
5.76088e-14
1.72819e-13
5.36773e-13
1.69888e-12
5.32728e-12
1.60428e-11
4.51343e-11
1.1701e-10
2.52121e-10
5.47908e-10
1.14578e-09
2.52569e-09
5.99055e-09
1.42059e-08
3.20032e-08
6.51067e-08
1.04273e-07
6.7207e-08
-4.30402e-07
-2.18319e-06
-4.3793e-06
5.90188e-06
9.0448e-05
0.000471288
0.00169907
0.00480827
0.0123154
0.0298432
0.0596824
0.0764656
0.0457329
0.0167167
0.061651
0.203345
0.391219
0.454638
0.314552
0.146234
0.222318
0.0926296
-0.206615
-0.225483
-0.177333
-0.124699
-0.0814341
-0.051148
-0.0308475
-0.0179086
-0.00846833
-0.00272562
-0.000721058
-0.000180024
-4.11083e-05
-7.60957e-06
-4.54713e-07
1.23702e-25
5.50924e-25
7.49825e-25
1.12396e-24
1.50932e-24
1.9208e-24
2.67411e-24
3.23311e-24
3.74046e-24
4.55746e-24
5.12644e-24
5.98023e-24
6.90035e-24
8.00915e-24
9.30212e-24
1.03139e-23
1.095e-23
1.10068e-23
1.23237e-23
1.32723e-23
1.62987e-23
1.84843e-23
2.18053e-23
3.04965e-23
5.56981e-23
1.27272e-22
3.41486e-22
9.55491e-22
2.74051e-21
7.94448e-21
2.28936e-20
6.60024e-20
1.85754e-19
5.15102e-19
1.41116e-18
3.78469e-18
1.00332e-17
2.58537e-17
7.05924e-17
1.87303e-16
4.68944e-16
1.17584e-15
2.99655e-15
7.80842e-15
2.09154e-14
5.99463e-14
1.78609e-13
5.52006e-13
1.73846e-12
5.42158e-12
1.62282e-11
4.53869e-11
1.16862e-10
2.50269e-10
5.4933e-10
1.14342e-09
2.50659e-09
5.92606e-09
1.40235e-08
3.15293e-08
6.42145e-08
1.0376e-07
7.16772e-08
-4.02402e-07
-2.10978e-06
-4.36796e-06
5.06311e-06
8.56906e-05
0.000451897
0.00164342
0.00467839
0.0120017
0.0291995
0.0589654
0.0767624
0.0469232
0.0168835
0.0596452
0.199642
0.388759
0.456122
0.318892
0.147358
0.220953
0.0993433
-0.205789
-0.226188
-0.178173
-0.125373
-0.0818837
-0.0514393
-0.031019
-0.0180138
-0.00853236
-0.00274925
-0.000726982
-0.000181416
-4.14122e-05
-7.66294e-06
-4.57807e-07
2.22667e-25
5.89408e-25
9.52244e-25
1.44308e-24
1.80653e-24
1.97964e-24
2.26814e-24
2.65592e-24
3.33828e-24
4.3951e-24
5.3728e-24
6.4347e-24
7.49503e-24
8.44079e-24
9.05441e-24
9.93208e-24
1.08969e-23
1.18685e-23
1.218e-23
1.28211e-23
1.39659e-23
1.62947e-23
2.10066e-23
3.05603e-23
5.74823e-23
1.34043e-22
3.57468e-22
1.00314e-21
2.87996e-21
8.45712e-21
2.43761e-20
7.00767e-20
1.95216e-19
5.4034e-19
1.45579e-18
3.86878e-18
1.05089e-17
2.69796e-17
7.31761e-17
1.89367e-16
4.97378e-16
1.2407e-15
3.14433e-15
8.00327e-15
2.15763e-14
6.15921e-14
1.82905e-13
5.63402e-13
1.768e-12
5.4916e-12
1.6362e-11
4.55086e-11
1.16605e-10
2.48672e-10
5.49273e-10
1.13894e-09
2.48325e-09
5.85558e-09
1.3824e-08
3.10953e-08
6.34097e-08
1.032e-07
7.57885e-08
-3.77482e-07
-2.04273e-06
-4.35223e-06
4.32661e-06
8.10765e-05
0.000433353
0.00159349
0.00456264
0.0117298
0.0286159
0.0582736
0.0770024
0.0480261
0.0170729
0.0577835
0.196213
0.386374
0.457355
0.322908
0.148446
0.219545
0.105901
-0.204912
-0.22686
-0.178994
-0.12604
-0.0823324
-0.0517265
-0.0311903
-0.0181197
-0.00859862
-0.00277378
-0.000733354
-0.000182926
-4.17446e-05
-7.72159e-06
-4.61208e-07
1.75248e-25
5.60957e-25
1.01604e-24
1.43845e-24
1.78672e-24
2.24166e-24
2.62972e-24
2.86593e-24
3.36673e-24
3.83191e-24
4.42641e-24
5.62426e-24
6.22685e-24
6.85362e-24
7.94897e-24
9.14771e-24
1.02332e-23
1.17101e-23
1.25447e-23
1.34912e-23
1.44794e-23
1.68814e-23
2.20896e-23
3.26402e-23
6.18128e-23
1.41807e-22
3.78021e-22
1.05649e-21
2.99986e-21
8.81434e-21
2.50994e-20
7.19044e-20
2.02757e-19
5.5969e-19
1.52336e-18
4.1075e-18
1.08624e-17
2.89125e-17
7.69411e-17
2.02236e-16
5.11086e-16
1.27135e-15
3.22127e-15
8.14977e-15
2.2066e-14
6.28523e-14
1.86089e-13
5.71589e-13
1.78831e-12
5.53621e-12
1.64402e-11
4.55645e-11
1.16331e-10
2.47334e-10
5.48732e-10
1.1343e-09
2.46218e-09
5.78706e-09
1.36468e-08
3.06864e-08
6.27104e-08
1.02691e-07
7.89068e-08
-3.57797e-07
-1.98747e-06
-4.33488e-06
3.73903e-06
7.73974e-05
0.000418557
0.00155037
0.00446396
0.0115016
0.0281145
0.0576796
0.0771732
0.048964
0.0172615
0.0562284
0.193272
0.384228
0.458313
0.326336
0.149425
0.218228
0.111792
-0.204079
-0.227451
-0.179734
-0.126645
-0.0827435
-0.0519981
-0.0313505
-0.0182194
-0.00866168
-0.00279743
-0.00073949
-0.00018438
-4.2065e-05
-7.77811e-06
-4.6448e-07
1.06879e-25
5.45978e-25
9.50912e-25
1.0784e-24
1.41513e-24
1.92783e-24
2.5714e-24
3.47106e-24
3.90743e-24
4.32925e-24
4.84185e-24
5.59605e-24
6.26744e-24
7.04757e-24
8.2805e-24
9.28396e-24
9.71212e-24
1.07903e-23
1.19871e-23
1.39793e-23
1.58939e-23
1.87101e-23
2.44723e-23
3.51291e-23
6.57283e-23
1.5156e-22
3.94853e-22
1.11381e-21
3.1675e-21
9.11325e-21
2.6131e-20
7.55549e-20
2.10542e-19
5.80175e-19
1.57682e-18
4.26476e-18
1.13571e-17
2.97601e-17
7.87058e-17
2.03257e-16
5.16839e-16
1.2921e-15
3.18302e-15
8.27e-15
2.24919e-14
6.38079e-14
1.88491e-13
5.77771e-13
1.80362e-12
5.56987e-12
1.64973e-11
4.56005e-11
1.16123e-10
2.46344e-10
5.47992e-10
1.13017e-09
2.44438e-09
5.73654e-09
1.3516e-08
3.03876e-08
6.21673e-08
1.02222e-07
8.13701e-08
-3.40731e-07
-1.94123e-06
-4.31731e-06
3.27974e-06
7.44509e-05
0.000406407
0.00151653
0.00438657
0.0113215
0.0277319
0.0572046
0.0772782
0.0496954
0.0174247
0.0550069
0.190918
0.382433
0.458996
0.329116
0.150248
0.217112
0.116647
-0.203367
-0.227929
-0.180342
-0.127146
-0.0830848
-0.0522199
-0.0314829
-0.0183013
-0.00871395
-0.00281775
-0.000744709
-0.00018562
-4.23387e-05
-7.82645e-06
-4.67279e-07
2.36065e-25
7.96728e-25
1.30712e-24
1.81741e-24
1.99903e-24
2.11893e-24
2.52347e-24
3.22353e-24
3.2466e-24
3.47792e-24
3.98199e-24
4.61724e-24
5.46018e-24
6.22511e-24
7.50518e-24
9.17331e-24
1.06154e-23
1.168e-23
1.33688e-23
1.48023e-23
1.65724e-23
1.8744e-23
2.396e-23
3.54281e-23
6.60932e-23
1.52877e-22
4.06637e-22
1.13865e-21
3.31124e-21
9.45925e-21
2.69128e-20
7.56833e-20
2.151e-19
5.89936e-19
1.62493e-18
4.39875e-18
1.16149e-17
2.98461e-17
7.85365e-17
2.08019e-16
5.15218e-16
1.28664e-15
3.2125e-15
8.34761e-15
2.27927e-14
6.44992e-14
1.90225e-13
5.82254e-13
1.81493e-12
5.59568e-12
1.65409e-11
4.56362e-11
1.16004e-10
2.45695e-10
5.47441e-10
1.12728e-09
2.43234e-09
5.70051e-09
1.34213e-08
3.01718e-08
6.17777e-08
1.01885e-07
8.29268e-08
-3.29861e-07
-1.91078e-06
-4.304e-06
2.97762e-06
7.25029e-05
0.0003983
0.00149374
0.00433485
0.0112013
0.0274583
0.056868
0.0773422
0.0502095
0.0175485
0.0541526
0.189252
0.38113
0.459445
0.331063
0.150847
0.21629
0.120141
-0.202838
-0.228272
-0.180782
-0.127509
-0.0833325
-0.0523826
-0.0315796
-0.0183614
-0.00875273
-0.00283254
-0.000748547
-0.000186531
-4.25399e-05
-7.86198e-06
-4.69335e-07
1.38897e-25
4.09941e-25
7.18423e-25
1.16332e-24
1.42446e-24
1.72278e-24
2.15339e-24
2.90564e-24
3.16582e-24
3.59896e-24
4.08774e-24
4.75408e-24
5.4805e-24
6.29513e-24
7.23499e-24
8.1678e-24
9.25294e-24
1.06935e-23
1.2659e-23
1.48453e-23
1.67597e-23
1.87416e-23
2.33088e-23
3.55899e-23
6.73395e-23
1.56403e-22
4.13432e-22
1.17244e-21
3.3546e-21
9.63378e-21
2.74306e-20
7.90555e-20
2.18514e-19
5.99456e-19
1.6517e-18
4.39353e-18
1.17428e-17
3.01918e-17
8.18772e-17
2.11755e-16
5.28023e-16
1.30531e-15
3.22961e-15
8.47407e-15
2.2937e-14
6.49291e-14
1.91392e-13
5.85315e-13
1.82262e-12
5.6131e-12
1.65725e-11
4.56704e-11
1.15964e-10
2.45381e-10
5.47284e-10
1.12599e-09
2.42648e-09
5.6826e-09
1.33727e-08
3.00577e-08
6.15658e-08
1.01696e-07
8.36668e-08
-3.24436e-07
-1.89509e-06
-4.29679e-06
2.8233e-06
7.1481e-05
0.000394035
0.00148146
0.00430567
0.0111345
0.0273157
0.0566879
0.0773705
0.0504804
0.0176164
0.0536995
0.188358
0.380413
0.459665
0.332112
0.151176
0.215831
0.122071
-0.20254
-0.228459
-0.181024
-0.127709
-0.0834691
-0.0524721
-0.0316327
-0.0183949
-0.00877403
-0.00284057
-0.000750633
-0.000187026
-4.26493e-05
-7.88132e-06
-4.70455e-07
1.35041e-25
5.7394e-25
9.56117e-25
1.39977e-24
1.64569e-24
1.95298e-24
2.63302e-24
3.45057e-24
3.94962e-24
4.27189e-24
5.07617e-24
5.57198e-24
6.15049e-24
6.28753e-24
6.82516e-24
7.96753e-24
8.73263e-24
1.02382e-23
1.12907e-23
1.37137e-23
1.60874e-23
1.85025e-23
2.43568e-23
3.72457e-23
6.79442e-23
1.57719e-22
4.18672e-22
1.18237e-21
3.43396e-21
9.91495e-21
2.82085e-20
8.00695e-20
2.21735e-19
6.21137e-19
1.68542e-18
4.46817e-18
1.19492e-17
3.07155e-17
8.21998e-17
2.09637e-16
5.33617e-16
1.31892e-15
3.28279e-15
8.49841e-15
2.30355e-14
6.52047e-14
1.92129e-13
5.87319e-13
1.82795e-12
5.62632e-12
1.66013e-11
4.57194e-11
1.16016e-10
2.45365e-10
5.47624e-10
1.12617e-09
2.42568e-09
5.67896e-09
1.33616e-08
3.00301e-08
6.1511e-08
1.01628e-07
8.3754e-08
-3.23473e-07
-1.89218e-06
-4.29564e-06
2.79398e-06
7.12947e-05
0.000393262
0.00147932
0.00430082
0.0111235
0.0272919
0.0566582
0.0773741
0.0505226
0.0176275
0.0536292
0.188219
0.380299
0.459695
0.33227
0.151227
0.215761
0.122368
-0.202494
-0.228487
-0.18106
-0.127738
-0.0834888
-0.0524849
-0.0316401
-0.0183995
-0.00877686
-0.00284169
-0.000750907
-0.000187088
-4.26621e-05
-7.88348e-06
-4.70578e-07
9.43878e-26
4.83007e-25
1.07703e-24
1.55715e-24
1.90661e-24
2.31273e-24
2.81678e-24
3.48652e-24
4.2187e-24
4.48725e-24
4.58595e-24
5.13957e-24
5.47897e-24
6.39243e-24
7.32939e-24
8.14409e-24
9.33318e-24
1.03654e-23
1.14899e-23
1.32426e-23
1.58171e-23
1.8699e-23
2.42982e-23
3.701e-23
6.93552e-23
1.59526e-22
4.23063e-22
1.20368e-21
3.45466e-21
9.93922e-21
2.84697e-20
8.03292e-20
2.2625e-19
6.20629e-19
1.69883e-18
4.52485e-18
1.20019e-17
3.11187e-17
8.26881e-17
2.13622e-16
5.34572e-16
1.31706e-15
3.31101e-15
8.53593e-15
2.30313e-14
6.53522e-14
1.92532e-13
5.88531e-13
1.83169e-12
5.63754e-12
1.66329e-11
4.5801e-11
1.1621e-10
2.45761e-10
5.4871e-10
1.12849e-09
2.43199e-09
5.6949e-09
1.33996e-08
3.01116e-08
6.16492e-08
1.01714e-07
8.30323e-08
-3.27927e-07
-1.9045e-06
-4.30172e-06
2.90848e-06
7.20415e-05
0.000396335
0.00148806
0.0043216
0.0111707
0.0273969
0.056788
0.0773495
0.0503222
0.0175762
0.0539583
0.188867
0.380815
0.459531
0.331506
0.150987
0.216102
0.120962
-0.202712
-0.228348
-0.18088
-0.127588
-0.0833862
-0.0524169
-0.0315998
-0.0183739
-0.00876015
-0.0028351
-0.000749182
-0.000186677
-4.2571e-05
-7.86734e-06
-4.69644e-07
1.20172e-25
3.2427e-25
6.44934e-25
1.03312e-24
1.5888e-24
2.0489e-24
2.25014e-24
2.93161e-24
3.7122e-24
4.03037e-24
4.47584e-24
4.99788e-24
5.49746e-24
6.58307e-24
7.25227e-24
8.64509e-24
9.79935e-24
9.92458e-24
1.0709e-23
1.24602e-23
1.51059e-23
1.86279e-23
2.40006e-23
3.65212e-23
6.73641e-23
1.56664e-22
4.14986e-22
1.18807e-21
3.39807e-21
9.78248e-21
2.78934e-20
7.82868e-20
2.25657e-19
6.15255e-19
1.64994e-18
4.36795e-18
1.17831e-17
2.97531e-17
8.04875e-17
2.12773e-16
5.26428e-16
1.31557e-15
3.2565e-15
8.53991e-15
2.30388e-14
6.53096e-14
1.92504e-13
5.88756e-13
1.8333e-12
5.64529e-12
1.66637e-11
4.59054e-11
1.16522e-10
2.46538e-10
5.50535e-10
1.13293e-09
2.44536e-09
5.73002e-09
1.34849e-08
3.02967e-08
6.1971e-08
1.01943e-07
8.15215e-08
-3.37634e-07
-1.93135e-06
-4.31389e-06
3.16286e-06
7.36918e-05
0.000403115
0.00150729
0.00436588
0.0112718
0.0276223
0.0570699
0.0772949
0.0498871
0.0174697
0.0546791
0.190283
0.381936
0.459171
0.32984
0.150474
0.216837
0.117905
-0.203181
-0.228048
-0.180491
-0.127266
-0.0831656
-0.0522714
-0.0315131
-0.0183196
-0.00872473
-0.00282119
-0.000745617
-0.000185825
-4.23818e-05
-7.83377e-06
-4.677e-07
2.82892e-25
5.39938e-25
7.69729e-25
1.155e-24
1.52778e-24
1.86592e-24
2.29242e-24
2.8625e-24
3.48154e-24
4.00172e-24
4.70487e-24
5.07641e-24
5.78565e-24
6.66341e-24
7.86967e-24
9.24477e-24
1.02993e-23
1.1731e-23
1.27111e-23
1.40581e-23
1.5387e-23
1.7671e-23
2.2537e-23
3.43899e-23
6.74271e-23
1.5756e-22
4.13298e-22
1.15842e-21
3.36717e-21
9.6692e-21
2.76562e-20
7.77466e-20
2.19811e-19
6.03741e-19
1.64692e-18
4.43306e-18
1.17e-17
2.97974e-17
8.00485e-17
2.11574e-16
5.26294e-16
1.29401e-15
3.2421e-15
8.54715e-15
2.29468e-14
6.50946e-14
1.92107e-13
5.88164e-13
1.8334e-12
5.65151e-12
1.66996e-11
4.60492e-11
1.16995e-10
2.4777e-10
5.53262e-10
1.13986e-09
2.46678e-09
5.78713e-09
1.36248e-08
3.06012e-08
6.24956e-08
1.0231e-07
7.90538e-08
-3.53226e-07
-1.97376e-06
-4.3309e-06
3.57445e-06
7.63196e-05
0.000413857
0.00153758
0.00443542
0.0114356
0.027973
0.0574956
0.0771946
0.0492221
0.0173172
0.0557799
0.192424
0.3836
0.458595
0.327334
0.149732
0.217923
0.113334
-0.203865
-0.227597
-0.179911
-0.126786
-0.0828367
-0.052055
-0.0313845
-0.018239
-0.0086726
-0.00280109
-0.000740358
-0.00018457
-4.21036e-05
-7.78445e-06
-4.64843e-07
1.46259e-25
4.93458e-25
8.39674e-25
1.08655e-24
1.22986e-24
1.50607e-24
1.97828e-24
2.55452e-24
3.03671e-24
3.59164e-24
4.47729e-24
5.2797e-24
6.43518e-24
7.58508e-24
8.45731e-24
9.50038e-24
1.06917e-23
1.2226e-23
1.33141e-23
1.43801e-23
1.60911e-23
1.80554e-23
2.30166e-23
3.50844e-23
6.68e-23
1.53106e-22
4.03072e-22
1.12526e-21
3.26361e-21
9.48519e-21
2.68575e-20
7.70198e-20
2.14487e-19
5.92091e-19
1.6164e-18
4.32598e-18
1.15221e-17
2.97155e-17
7.7607e-17
2.02614e-16
5.21442e-16
1.2862e-15
3.18552e-15
8.43535e-15
2.28129e-14
6.47328e-14
1.91263e-13
5.86411e-13
1.83082e-12
5.65315e-12
1.67336e-11
4.62206e-11
1.17621e-10
2.49477e-10
5.56832e-10
1.14887e-09
2.495e-09
5.86312e-09
1.38125e-08
3.10121e-08
6.3207e-08
1.02793e-07
7.5495e-08
-3.74786e-07
-2.03048e-06
-4.3494e-06
4.141e-06
7.98833e-05
0.00042815
0.00157795
0.00452655
0.0116478
0.0284268
0.0580437
0.0770509
0.0483648
0.0171408
0.057228
0.195205
0.385714
0.45779
0.324062
0.148807
0.219296
0.107443
-0.204722
-0.227013
-0.179169
-0.126173
-0.0824183
-0.0517818
-0.031221
-0.0181371
-0.00860659
-0.00277573
-0.000733741
-0.000182991
-4.17536e-05
-7.72245e-06
-4.61252e-07
1.73314e-25
4.36937e-25
8.93393e-25
1.13564e-24
1.43865e-24
1.94504e-24
2.69512e-24
2.85383e-24
3.28432e-24
3.82396e-24
4.60013e-24
5.53524e-24
6.41705e-24
7.10913e-24
7.51643e-24
8.54719e-24
1.01313e-23
1.14303e-23
1.27351e-23
1.41449e-23
1.5795e-23
1.93428e-23
2.41585e-23
3.65593e-23
6.64684e-23
1.49743e-22
3.92093e-22
1.08799e-21
3.15802e-21
9.03184e-21
2.56521e-20
7.37754e-20
2.07262e-19
5.72546e-19
1.52112e-18
4.18091e-18
1.10628e-17
2.90814e-17
7.66999e-17
2.02361e-16
5.06841e-16
1.28772e-15
3.19601e-15
8.33629e-15
2.24881e-14
6.4091e-14
1.8983e-13
5.8318e-13
1.8247e-12
5.64718e-12
1.67574e-11
4.64016e-11
1.18374e-10
2.51557e-10
5.60585e-10
1.15967e-09
2.52886e-09
5.95398e-09
1.40357e-08
3.14941e-08
6.40173e-08
1.03273e-07
7.13366e-08
-4.00007e-07
-2.09737e-06
-4.36503e-06
4.85526e-06
8.4186e-05
0.000445317
0.00162477
0.00463494
0.0118981
0.0289724
0.0586902
0.0768501
0.0473389
0.0169586
0.0589786
0.198499
0.388112
0.456755
0.320227
0.147786
0.220858
0.100632
-0.20568
-0.226327
-0.178307
-0.125463
-0.0819342
-0.0514623
-0.0310315
-0.0180182
-0.00853026
-0.00274662
-0.00072616
-0.000181185
-4.13541e-05
-7.65174e-06
-4.57157e-07
2.47689e-25
5.46506e-25
7.73692e-25
1.12711e-24
1.43277e-24
1.88499e-24
2.59216e-24
2.92354e-24
3.46499e-24
4.20857e-24
4.74819e-24
5.55661e-24
6.31958e-24
7.10967e-24
8.13264e-24
9.31145e-24
1.04139e-23
1.22599e-23
1.39079e-23
1.52139e-23
1.66305e-23
1.83877e-23
2.25964e-23
3.39328e-23
6.19184e-23
1.41681e-22
3.77404e-22
1.05403e-21
3.02257e-21
8.6373e-21
2.52713e-20
7.12675e-20
1.98485e-19
5.50011e-19
1.5031e-18
4.0609e-18
1.08583e-17
2.84436e-17
7.53984e-17
1.98533e-16
5.0464e-16
1.25535e-15
3.16541e-15
8.18022e-15
2.21124e-14
6.3139e-14
1.87564e-13
5.77848e-13
1.81248e-12
5.62729e-12
1.67492e-11
4.65217e-11
1.19028e-10
2.5365e-10