/*--------------------------------*- C++ -*----------------------------------*\
  =========                 |
  \\      /  F ield         | OpenFOAM: The Open Source CFD Toolbox
   \\    /   O peration     | Website:  https://openfoam.org
    \\  /    A nd           | Version:  10
     \\/     M anipulation  |
\*---------------------------------------------------------------------------*/
FoamFile
{
    format      ascii;
    class       volScalarField;
    location    "1";
    object      RR.H2O;
}
// * * * * * * * * * * * * * * * * * * * * * * * * * * * * * * * * * * * * * //

dimensions      [1 -3 -1 0 0 0 0];

internalField   nonuniform List<scalar> 
4000
(
-1.27475e-18
-8.05925e-18
6.85233e-19
-2.09494e-18
1.82971e-18
-6.82751e-19
-7.38248e-19
1.23529e-18
-3.09605e-19
-6.65753e-19
-4.0673e-19
-3.27859e-18
1.08744e-18
-1.93661e-18
-5.84862e-18
1.19803e-17
7.60574e-18
5.00629e-18
8.14215e-18
-1.22324e-18
2.7957e-18
4.18618e-18
-1.12505e-17
-1.49913e-17
4.3983e-17
-4.9943e-17
1.30957e-17
8.19926e-18
-5.30441e-17
2.64852e-17
-7.9123e-17
-1.59845e-16
-1.63126e-16
2.50703e-16
-6.28609e-16
-2.81594e-15
-1.25874e-16
4.37277e-16
-7.2863e-16
1.9971e-17
5.87211e-18
-4.22506e-17
4.79687e-17
8.74498e-16
4.67026e-15
3.04599e-14
2.08213e-13
1.40103e-12
8.93112e-12
5.27438e-11
2.87927e-10
1.49093e-09
6.20768e-09
2.8033e-08
1.18391e-07
4.50439e-07
1.49244e-06
4.68241e-06
1.3319e-05
3.47185e-05
8.51828e-05
0.000193546
0.000406617
0.000657252
0.000840745
0.00101677
0.00121585
0.00146472
0.0018921
0.00283041
0.00485005
0.008355
0.0132913
0.0190332
0.0256941
0.0319852
0.045529
0.0916419
0.222508
0.540835
1.19768
2.43897
3.73638
3.73046
4.15269
3.92028
2.99712
2.11591
1.48234
1.05196
0.760229
0.556177
0.403768
0.263962
0.139197
0.0599032
0.0222506
0.0073759
0.00217288
0.000270605
1.7145e-17
7.48132e-18
-5.10379e-18
6.79337e-18
-1.49865e-17
1.40946e-18
7.08026e-18
-3.28576e-18
-6.14523e-18
6.37299e-18
-3.41101e-18
-1.09213e-17
4.1414e-18
-8.4663e-18
-1.01664e-18
-8.10112e-18
1.73392e-17
-3.22441e-18
3.56672e-17
3.80256e-17
6.07948e-18
3.4054e-18
1.28093e-17
-1.82857e-18
2.55005e-17
4.36064e-17
-7.95926e-18
4.21235e-17
-3.93066e-17
6.15182e-18
-2.03926e-17
-1.75747e-16
-2.48864e-16
3.39756e-16
5.77806e-16
1.55526e-15
6.76771e-16
-5.29781e-16
-1.00161e-16
-8.59647e-17
-1.12558e-17
3.71406e-16
7.36063e-17
1.42335e-15
8.3523e-15
5.45877e-14
3.68105e-13
2.37846e-12
1.46333e-11
8.52165e-11
4.04291e-10
1.68684e-09
7.88714e-09
3.40772e-08
1.39441e-07
5.26138e-07
1.64773e-06
4.96458e-06
1.37274e-05
3.49826e-05
8.49002e-05
0.000191669
0.00040122
0.000650283
0.000833578
0.00100906
0.00120833
0.00145706
0.00187505
0.00278367
0.00477141
0.00827146
0.0132956
0.0192259
0.0261049
0.0326811
0.0462761
0.0929005
0.225987
0.551739
1.22703
2.50624
3.79855
3.76451
4.20888
3.91722
2.97353
2.09448
1.46562
1.03917
0.750541
0.548521
0.395875
0.25512
0.132134
0.0560654
0.0206226
0.00681952
0.00200853
0.000247885
3.57329e-17
-4.81536e-18
-6.729e-18
3.64307e-17
6.15028e-17
-1.19598e-17
-1.77022e-17
-2.26958e-17
-9.31091e-18
-7.96372e-18
6.10892e-18
-5.40704e-18
-7.55602e-18
2.00545e-18
8.05819e-18
-5.01059e-19
2.26138e-19
-1.9058e-18
9.20715e-18
-3.94863e-18
3.5665e-18
-2.19434e-17
-4.11212e-17
-8.13984e-18
4.66352e-17
-1.1595e-17
-8.96619e-17
-4.33918e-17
-1.1499e-16
-6.61872e-18
-1.16415e-16
-3.74927e-17
-1.40966e-16
-5.98241e-16
6.48764e-16
3.01059e-16
8.90822e-16
-2.02313e-16
-9.33134e-17
6.04676e-17
4.57335e-16
2.72237e-16
4.08226e-16
1.96664e-15
1.2174e-14
7.90344e-14
5.30765e-13
3.3578e-12
1.93966e-11
1.0901e-10
5.03622e-10
2.13713e-09
9.86392e-09
4.33997e-08
1.66446e-07
5.67297e-07
1.72598e-06
5.11901e-06
1.39736e-05
3.52726e-05
8.4877e-05
0.000190613
0.000397459
0.000644412
0.000827769
0.00100315
0.00120343
0.00145371
0.00186616
0.00275385
0.00471561
0.00821235
0.0133372
0.0194925
0.0266757
0.0336576
0.0474221
0.0949416
0.231513
0.568126
1.27201
2.60312
3.88148
3.81548
4.28277
3.90811
2.93597
2.06019
1.44077
1.01972
0.735656
0.53656
0.384071
0.242803
0.123201
0.0515347
0.0188239
0.00618552
0.00182793
0.000223475
2.66733e-17
-2.02059e-17
6.40899e-18
1.75371e-17
-2.95437e-18
1.28265e-17
1.18967e-17
-4.49143e-18
1.92267e-17
-1.42098e-17
-9.02529e-18
1.60389e-17
-2.23494e-17
-4.31423e-18
-4.3314e-18
2.42126e-17
-1.9922e-18
-3.98514e-17
-9.69799e-18
1.30719e-17
-2.83795e-17
1.98529e-17
-1.59849e-17
-6.36383e-17
2.50748e-17
-2.08387e-17
3.98803e-17
-2.92575e-17
1.92749e-17
1.31192e-16
-1.64208e-16
6.42207e-17
-1.22138e-16
-5.42572e-16
-4.55411e-16
5.23146e-16
-4.30363e-15
-3.24418e-16
1.8483e-16
1.02201e-16
1.62035e-17
-8.79809e-17
7.70697e-16
3.00969e-15
1.66214e-14
1.10602e-13
7.22573e-13
4.38562e-12
2.60536e-11
1.23756e-10
5.57004e-10
2.76576e-09
1.27522e-08
5.2662e-08
1.94752e-07
5.93181e-07
1.80011e-06
5.26715e-06
1.42016e-05
3.5427e-05
8.46593e-05
0.000189301
0.000393827
0.000640021
0.000823723
0.000999192
0.00120111
0.00145329
0.00186265
0.00273455
0.00467757
0.00818416
0.0134185
0.0197808
0.0272728
0.0348043
0.0489023
0.0977364
0.238632
0.587499
1.31904
2.69677
3.95608
3.86518
4.33851
3.8846
2.89127
2.02464
1.41723
0.996447
0.719058
0.524293
0.37233
0.230876
0.114664
0.0473871
0.0171962
0.00563724
0.0016655
0.000201735
-5.60224e-19
3.88412e-18
6.1681e-18
-1.65994e-18
8.9532e-19
3.36488e-19
2.94006e-17
-5.2984e-18
-3.29089e-17
8.24561e-18
1.37734e-17
3.68495e-18
-1.69918e-17
-5.40077e-18
2.95725e-17
-5.81495e-18
2.65755e-18
-6.88002e-18
2.0219e-17
1.34624e-17
-1.93527e-17
8.9805e-17
-6.35227e-17
3.90837e-17
2.47268e-17
4.44635e-17
-8.15678e-17
-5.87124e-18
-4.91475e-17
1.74242e-16
-1.42409e-16
1.51857e-16
1.67569e-16
-4.28456e-17
-4.98779e-16
3.60696e-17
-2.49037e-15
6.78925e-16
-1.1936e-16
4.45835e-17
1.06045e-16
3.74337e-17
1.13118e-15
3.72234e-15
2.23009e-14
1.45928e-13
9.1586e-13
5.77238e-12
2.84538e-11
1.3243e-10
6.82491e-10
3.30598e-09
1.52697e-08
6.42177e-08
2.05793e-07
6.2342e-07
1.87537e-06
5.40078e-06
1.43846e-05
3.56332e-05
8.46636e-05
0.000188681
0.000391649
0.000636938
0.000820893
0.000996974
0.00120122
0.00145511
0.00186324
0.00272581
0.0046588
0.00818427
0.0135244
0.0201247
0.0279432
0.035851
0.050214
0.100229
0.245053
0.60513
1.36552
2.79468
4.02842
3.91711
4.38546
3.87033
2.85724
1.99555
1.39558
0.980474
0.707123
0.514811
0.362719
0.221092
0.107984
0.0441689
0.0159308
0.00521459
0.00152868
0.00018551
1.01381e-20
6.12014e-18
-1.61383e-17
3.33024e-19
-3.40148e-18
-9.5393e-18
-6.0975e-18
-6.38484e-18
-7.73359e-18
-4.14062e-18
7.18274e-18
1.29746e-17
-1.02913e-17
-3.8334e-17
2.10655e-17
-1.3483e-17
1.60229e-18
-3.0974e-17
-4.98204e-18
2.16235e-17
1.91971e-17
-6.16529e-17
4.67694e-17
-5.69849e-17
-2.73667e-17
-1.09566e-16
8.93432e-17
-4.42715e-18
-9.67869e-17
1.95875e-17
-7.75036e-17
2.03585e-16
-1.95871e-16
3.84056e-16
-1.00085e-16
1.76033e-15
1.59497e-14
-2.91037e-16
-5.33416e-16
5.81654e-16
-3.27976e-16
2.81569e-16
4.59494e-16
5.05681e-15
2.90011e-14
1.82398e-13
1.187e-12
6.29543e-12
3.11009e-11
1.58985e-10
8.06454e-10
3.87075e-09
1.71457e-08
7.03862e-08
2.22209e-07
6.58265e-07
1.93456e-06
5.51887e-06
1.4523e-05
3.57089e-05
8.44449e-05
0.000187746
0.00038929
0.000634251
0.000818893
0.000995505
0.00120123
0.00145757
0.00186585
0.00272033
0.00464481
0.00818246
0.0136064
0.020373
0.0284222
0.0366618
0.0512332
0.102103
0.250007
0.619412
1.40305
2.87325
4.08285
3.96098
4.42149
3.86206
2.83357
1.97462
1.37937
0.968602
0.698103
0.50756
0.355233
0.213648
0.103107
0.0418563
0.0150241
0.00491008
0.00143913
0.000173492
-4.23956e-18
1.28704e-17
-5.10868e-18
-1.76975e-18
1.08663e-17
3.98441e-18
-9.22939e-19
-1.91519e-18
-1.36534e-17
1.35317e-17
9.94259e-18
-1.83574e-17
5.76813e-18
1.09344e-17
1.51144e-17
1.28878e-17
-8.7016e-18
-1.33253e-17
3.60258e-17
-3.76495e-17
1.14849e-17
-1.30104e-17
-1.32913e-17
-6.7119e-17
3.10497e-17
4.10369e-17
-5.36185e-17
-3.54742e-17
6.54055e-17
9.99711e-17
3.65439e-17
-1.06051e-16
-2.67908e-16
3.61688e-16
3.53775e-16
1.4606e-15
-6.73307e-15
-2.28001e-16
2.84197e-16
3.46747e-16
3.11857e-17
4.82921e-16
1.01725e-15
6.18147e-15
3.60193e-14
2.242e-13
1.3429e-12
6.46234e-12
3.55907e-11
1.84802e-10
9.0803e-10
4.2657e-09
1.85532e-08
7.48184e-08
2.33361e-07
6.84718e-07
1.9819e-06
5.5913e-06
1.46053e-05
3.56994e-05
8.40907e-05
0.000186595
0.000386696
0.00063153
0.000816905
0.000993998
0.00120072
0.00145836
0.00186597
0.00271345
0.00462744
0.0081716
0.0136578
0.0205635
0.0288046
0.0373072
0.0520098
0.103403
0.253366
0.6295
1.43051
2.93126
4.12398
3.99606
4.44877
3.8586
2.81872
1.96109
1.36859
0.960587
0.691868
0.502467
0.34988
0.208321
0.0996477
0.0402293
0.0143849
0.00469821
0.00137657
0.000165129
-4.45e-18
7.9697e-19
8.95477e-18
1.47658e-17
-1.32669e-17
-8.65053e-18
4.7666e-18
4.6349e-18
-2.27843e-18
1.13901e-17
-1.12894e-17
-7.30426e-18
-1.509e-18
-3.64805e-17
-9.59194e-18
3.09458e-18
1.76529e-17
5.01826e-19
7.85266e-19
7.54769e-18
1.5466e-17
8.69245e-18
-3.53015e-17
-1.2423e-16
-5.03817e-17
4.0183e-18
-2.27193e-17
5.58112e-17
1.66732e-16
-9.95485e-17
-1.03904e-16
-3.91056e-17
-3.61804e-17
-3.96574e-16
-1.38211e-16
-8.67728e-16
2.69215e-15
1.29091e-15
-7.31857e-16
-1.46433e-16
4.99129e-16
-1.41638e-16
1.89613e-15
7.39713e-15
4.46483e-14
2.74691e-13
1.45084e-12
7.56722e-12
4.11232e-11
2.10425e-10
1.03115e-09
4.70813e-09
2.00098e-08
7.91163e-08
2.43407e-07
7.05168e-07
2.0173e-06
5.63793e-06
1.46197e-05
3.55489e-05
8.34615e-05
0.000184975
0.000383402
0.000628444
0.000814427
0.00099169
0.00119954
0.00145809
0.00186434
0.00270346
0.00460245
0.00814344
0.0136724
0.02069
0.0290833
0.0378146
0.0524952
0.104021
0.25487
0.634994
1.44707
2.96875
4.1545
4.02296
4.46998
3.85992
2.81193
1.95407
1.36262
0.955976
0.688124
0.49929
0.346386
0.204785
0.0973662
0.0391448
0.0139639
0.00455645
0.00133466
0.000159543
5.36493e-19
-1.38272e-17
1.85222e-18
7.61152e-20
2.46928e-17
-6.66368e-19
3.33183e-19
-4.55349e-18
1.64134e-17
-1.73207e-17
-2.68762e-17
1.51436e-17
-2.06566e-17
-6.10806e-18
1.11995e-17
-6.24544e-18
2.93338e-17
5.98528e-17
5.3631e-17
-1.69663e-17
-5.9298e-17
-3.15159e-18
9.14253e-18
-2.26958e-17
1.41231e-18
7.77238e-17
1.4355e-17
1.41484e-16
-3.65601e-17
-8.86432e-17
4.33019e-17
-1.11719e-17
-1.70037e-17
-1.87256e-16
3.79004e-18
2.32969e-16
-3.98764e-14
-5.69287e-16
1.44208e-16
2.95045e-16
-3.35534e-16
5.66654e-16
1.69704e-15
9.07673e-15
4.96124e-14
2.64849e-13
1.5853e-12
8.87129e-12
4.70657e-11
2.39313e-10
1.13825e-09
5.08643e-09
2.12343e-08
8.26237e-08
2.50787e-07
7.19426e-07
2.03896e-06
5.65258e-06
1.45633e-05
3.52481e-05
8.24691e-05
0.00018237
0.000378594
0.000623632
0.000811205
0.000988902
0.00119691
0.00145611
0.00185944
0.00268684
0.00456157
0.0080862
0.0136483
0.0207569
0.0292647
0.0381929
0.0527333
0.104006
0.254627
0.636211
1.45366
2.98815
4.17716
4.04303
4.48704
3.86584
2.8119
1.95255
1.3607
0.954189
0.68643
0.497705
0.344436
0.202686
0.0959462
0.0384771
0.0137033
0.00446842
0.00130852
0.000156058
-4.66459e-18
-6.55264e-18
2.38667e-18
6.80135e-18
-3.44291e-18
-3.92771e-18
2.35405e-18
-3.33185e-18
-7.6662e-18
9.63417e-18
-3.06813e-18
1.41685e-17
1.94346e-17
-3.16474e-17
2.08656e-17
3.76934e-17
-8.60345e-18
4.94816e-18
1.89378e-17
3.80289e-17
7.20576e-19
-1.57973e-17
3.97146e-17
-9.55127e-18
1.927e-17
-2.0909e-16
4.21867e-17
-3.48296e-17
-5.69154e-17
8.6955e-17
1.07904e-17
-9.87362e-17
1.74747e-16
-3.84823e-16
-1.92403e-16
-4.71484e-16
7.26337e-15
-5.42246e-16
-1.1149e-16
-2.3371e-17
1.41236e-16
2.73168e-16
2.09629e-15
9.74127e-15
5.15188e-14
3.15337e-13
1.8324e-12
1.01308e-11
5.37201e-11
2.66726e-10
1.24664e-09
5.47607e-09
2.24159e-08
8.49244e-08
2.55766e-07
7.29859e-07
2.04953e-06
5.64226e-06
1.4462e-05
3.48829e-05
8.14257e-05
0.000179783
0.000373065
0.000618384
0.000807266
0.000985126
0.00119363
0.00145257
0.00185171
0.00266458
0.00447658
0.00801688
0.0135878
0.0207566
0.0293546
0.038482
0.0527655
0.103414
0.25286
0.633804
1.45198
2.99274
4.19397
4.05776
4.50111
3.87606
2.81751
1.95541
1.36201
0.954641
0.686417
0.497385
0.343697
0.2017
0.0952366
0.0381287
0.0135646
0.00442095
0.00129426
0.000154144
-4.45521e-18
4.85614e-18
7.69196e-18
4.44247e-19
6.59739e-18
3.4541e-18
-6.0765e-18
-4.9613e-18
-3.32357e-18
5.44202e-18
-3.06286e-17
-2.75425e-17
-1.32163e-17
2.7952e-17
7.02061e-18
2.24701e-17
8.83261e-18
1.47163e-17
1.29152e-19
-3.3919e-17
3.71251e-17
1.84991e-17
-6.77472e-17
4.96934e-17
5.35987e-17
1.98462e-18
4.81048e-17
5.09313e-17
8.55318e-17
9.48997e-17
-3.74571e-17
1.86276e-16
-1.89031e-16
2.70242e-16
-1.73794e-17
4.92099e-16
-1.00114e-14
1.99453e-16
-9.65955e-17
2.69366e-16
-1.234e-16
5.12543e-16
2.3166e-15
1.03595e-14
6.07948e-14
3.63494e-13
2.10557e-12
1.16492e-11
6.07559e-11
2.99003e-10
1.38928e-09
6.07478e-09
2.50264e-08
8.54225e-08
2.59151e-07
7.36096e-07
2.04947e-06
5.60601e-06
1.42982e-05
3.43105e-05
7.9879e-05
0.000176337
0.000367595
0.000613002
0.00080328
0.000981189
0.0011898
0.00144845
0.00184387
0.00264254
0.00442395
0.00793067
0.0134931
0.0207115
0.0293754
0.0386603
0.0526396
0.102494
0.25014
0.628817
1.44414
2.98598
4.206
4.06833
4.5131
3.88972
2.82727
1.96155
1.36577
0.956779
0.687613
0.498013
0.343871
0.20154
0.0950323
0.0380097
0.0135135
0.00440258
0.00128852
0.000153354
3.7761e-18
-1.01513e-18
1.08841e-17
1.7815e-17
1.05628e-17
2.90695e-18
1.00055e-17
1.03283e-17
-1.01929e-17
2.49669e-17
-5.92081e-18
1.36454e-17
5.13295e-18
-2.05814e-18
2.49143e-18
8.84842e-18
-5.10884e-18
-2.82586e-17
-2.26475e-18
9.84794e-18
-2.59884e-17
2.48777e-17
1.10244e-17
-2.39737e-17
-1.11168e-16
-3.51766e-17
4.34922e-17
-7.11306e-17
-4.05901e-17
-1.95314e-18
1.64149e-16
6.21494e-17
-7.95441e-17
5.23276e-16
-1.06104e-17
1.249e-15
-1.33911e-14
2.10376e-15
-1.86966e-16
5.92092e-17
-1.19985e-16
6.11139e-16
1.86903e-15
1.16007e-14
6.92313e-14
4.10396e-13
2.35889e-12
1.29614e-11
6.69971e-11
3.26589e-10
1.50424e-09
6.52668e-09
2.65658e-08
8.48297e-08
2.61828e-07
7.39898e-07
2.04222e-06
5.55795e-06
1.41165e-05
3.38403e-05
7.85762e-05
0.000173276
0.000361273
0.000607275
0.000799219
0.000977199
0.00118579
0.00144395
0.00183582
0.00262172
0.00436085
0.00782794
0.0133792
0.0206332
0.0293396
0.0387603
0.0524049
0.101302
0.246705
0.621982
1.43203
2.97107
4.21406
4.07563
4.52298
3.90543
2.84047
1.97043
1.37141
0.960182
0.689728
0.499358
0.344729
0.201981
0.0951881
0.0380527
0.0135238
0.00440454
0.00128874
0.000153351
1.93967e-18
-2.07449e-18
1.07167e-17
1.24044e-17
6.62414e-18
6.77477e-18
-8.43877e-18
-7.5522e-18
-3.91925e-18
7.21595e-18
-6.16925e-18
-3.16526e-17
4.11838e-17
-1.0278e-17
3.10973e-18
1.00653e-18
-1.09951e-18
3.66225e-17
-1.64459e-17
1.29253e-17
2.21014e-17
4.33859e-17
-6.66453e-18
-3.03014e-17
-1.55166e-17
8.53647e-17
7.43312e-17
1.17054e-16
3.39878e-17
-6.74552e-17
2.30009e-17
-2.5623e-17
1.13175e-16
-5.11497e-17
5.03527e-16
-9.41247e-17
2.8652e-16
-1.05729e-15
2.51031e-16
-2.43509e-16
2.59689e-16
6.20482e-16
2.05724e-15
1.34706e-14
7.66123e-14
4.52364e-13
2.58841e-12
1.39844e-11
7.12924e-11
3.43091e-10
1.56038e-09
6.68711e-09
2.68521e-08
8.43731e-08
2.65288e-07
7.42477e-07
2.03068e-06
5.49479e-06
1.39168e-05
3.3289e-05
7.73223e-05
0.000170281
0.000355453
0.000601369
0.000794811
0.000972789
0.00118129
0.00143856
0.00182562
0.0025962
0.00430213
0.00773053
0.0132557
0.0205233
0.0292536
0.0388077
0.0520939
0.0999555
0.242859
0.613909
1.41657
2.94991
4.21999
4.08157
4.53179
3.92275
2.85557
1.98082
1.37831
0.964475
0.692448
0.501148
0.345996
0.2028
0.0955773
0.0382054
0.0135766
0.00442078
0.00129316
0.000153902
-8.96732e-19
5.54341e-18
-1.03843e-17
1.03634e-17
4.99781e-18
-2.83817e-18
-9.7973e-18
-7.10795e-18
-2.09298e-17
-2.50319e-17
5.85902e-18
-1.37733e-18
3.02264e-17
2.54915e-17
5.08573e-18
6.57532e-18
-1.99911e-18
5.54305e-17
1.96231e-17
-9.32565e-19
6.07411e-17
-1.4841e-17
4.44229e-18
-2.03185e-18
-6.58289e-17
-7.24186e-20
1.37496e-17
-7.3818e-17
-2.15588e-17
-6.10717e-17
-3.93164e-17
-5.3529e-17
-4.11121e-16
5.02268e-17
2.78868e-17
-9.38722e-16
-1.01125e-14
-2.62212e-15
1.73493e-16
-5.63402e-16
8.78219e-17
2.22069e-16
2.53336e-15
1.49204e-14
8.32916e-14
4.90051e-13
2.76025e-12
1.47444e-11
7.4397e-11
3.54473e-10
1.59607e-09
6.78157e-09
2.69401e-08
8.38611e-08
2.67552e-07
7.43523e-07
2.018e-06
5.43899e-06
1.37412e-05
3.27649e-05
7.5923e-05
0.000167173
0.000350049
0.000595797
0.00079076
0.000968711
0.00117695
0.00143355
0.00181575
0.00257158
0.00424613
0.00762897
0.0131303
0.0204096
0.0291546
0.0388092
0.051753
0.0985632
0.238801
0.605201
1.39995
2.92609
4.22358
4.08632
4.53943
3.94033
2.87134
1.99177
1.38558
0.969046
0.695449
0.503164
0.347523
0.203876
0.0961499
0.0384296
0.0136562
0.00444581
0.00130015
0.00015479
-6.21946e-18
-1.18276e-18
-1.44577e-17
7.18555e-18
4.2032e-18
1.60747e-18
1.87612e-17
-1.58195e-17
4.67714e-18
1.92132e-17
1.29437e-17
1.83252e-17
1.34719e-17
1.47519e-17
-1.72803e-17
-2.6092e-17
1.60157e-17
1.71308e-17
-4.44247e-18
3.32473e-17
-5.13028e-17
-5.86658e-17
3.50373e-17
-3.76946e-17
-6.3123e-17
1.94107e-17
2.12944e-17
2.28479e-17
-5.98108e-18
1.25555e-16
-3.40006e-17
-2.29259e-17
1.31257e-16
4.30122e-16
-7.47602e-17
4.12012e-16
-7.97159e-15
-9.86924e-17
-5.90134e-17
2.79953e-16
4.97734e-16
5.72015e-16
2.90418e-15
1.58516e-14
8.86974e-14
5.1756e-13
2.89361e-12
1.53392e-11
7.68332e-11
3.63488e-10
1.62459e-09
6.84006e-09
2.69643e-08
8.34047e-08
2.68631e-07
7.42419e-07
2.00081e-06
5.37619e-06
1.35468e-05
3.22849e-05
7.46908e-05
0.000164333
0.00034466
0.000590594
0.000787009
0.000965014
0.00117315
0.00142926
0.00180698
0.00254945
0.00419487
0.00753772
0.0130098
0.0202927
0.0290501
0.0387893
0.0514218
0.097238
0.235022
0.597002
1.38402
2.90248
4.22534
4.09001
4.54548
3.95656
2.88637
2.0023
1.39261
0.97349
0.698335
0.505135
0.349046
0.204984
0.0967173
0.0386716
0.0137436
0.00447372
0.00130804
0.000155803
-8.98949e-19
-5.80903e-18
-1.37526e-17
1.25279e-17
-6.70418e-18
-8.26774e-18
5.47377e-18
-1.45491e-17
-1.1795e-17
-7.34135e-18
1.11062e-18
3.0961e-17
-1.46602e-17
-1.46372e-17
7.66326e-18
-1.01488e-17
-1.11062e-17
1.40324e-17
-3.47677e-17
-1.65175e-18
-1.62286e-17
1.06658e-17
-6.37773e-17
-1.85305e-17
2.38755e-17
-2.21222e-17
4.61276e-17
-1.9624e-16
-1.28536e-17
-1.22407e-16
6.19983e-17
-6.20932e-17
-2.41274e-16
-4.15128e-17
-2.63919e-16
4.48732e-16
-1.19691e-14
8.33087e-16
-8.28038e-16
1.53595e-16
9.34649e-17
5.23112e-16
3.24028e-15
1.61292e-14
9.29411e-14
5.39344e-13
2.99691e-12
1.57866e-11
7.8585e-11
3.69476e-10
1.64241e-09
6.87681e-09
2.6962e-08
8.30006e-08
2.69138e-07
7.40612e-07
1.98454e-06
5.31413e-06
1.33726e-05
3.18297e-05
7.36185e-05
0.000161954
0.000340209
0.000586178
0.000783702
0.000961744
0.00116977
0.00142543
0.00179989
0.00252985
0.00415033
0.00745919
0.0129025
0.0201882
0.0289517
0.038758
0.0511334
0.0961075
0.231773
0.589843
1.36999
2.88123
4.22567
4.09277
4.55001
3.9706
2.89967
2.01167
1.39891
0.977498
0.701023
0.506953
0.350469
0.206036
0.0972719
0.0389067
0.0138287
0.00450091
0.00131575
0.000156795
1.5217e-17
1.88891e-18
-4.06821e-19
-4.31548e-18
8.84621e-18
-3.50169e-19
-3.12236e-18
7.07353e-18
2.43962e-17
9.73379e-18
4.33405e-18
-1.2153e-17
2.9868e-17
8.77747e-19
3.42098e-17
-1.20947e-17
7.68434e-18
3.68439e-18
3.44111e-17
4.70582e-17
5.80017e-17
-2.19563e-17
-2.93332e-17
-2.16705e-19
-3.50979e-17
-3.51034e-17
-1.00422e-16
-5.07288e-17
3.9739e-17
2.63931e-16
1.17908e-16
-4.33135e-17
-1.60658e-16
-4.76802e-16
-9.67429e-16
8.8718e-16
1.68903e-14
8.69326e-16
3.61047e-16
-3.25579e-16
4.86675e-16
4.71814e-16
3.06803e-15
1.70051e-14
9.66156e-14
5.56939e-13
3.07646e-12
1.61316e-11
7.99379e-11
3.74125e-10
1.65584e-09
6.90292e-09
2.69546e-08
8.26963e-08
2.69269e-07
7.38639e-07
1.97045e-06
5.26801e-06
1.32444e-05
3.15015e-05
7.28141e-05
0.000160026
0.000336464
0.00058217
0.000780833
0.000958862
0.00116661
0.00142167
0.00179318
0.00251426
0.00411437
0.00739491
0.0128176
0.0201013
0.0288671
0.038722
0.0508987
0.0952034
0.22917
0.58403
1.35846
2.86337
4.2254
4.09494
4.55331
3.98197
2.91052
2.01935
1.40408
0.980793
0.703191
0.508444
0.351637
0.206908
0.0977641
0.0391066
0.0139015
0.00452426
0.00132238
0.000157651
-4.66459e-18
9.77827e-19
2.16039e-17
4.87487e-18
-1.50061e-17
1.2659e-17
3.99822e-18
1.2108e-17
-4.44247e-19
-5.90214e-18
5.88627e-18
1.30503e-17
3.96572e-18
2.53614e-17
2.73053e-17
-1.07264e-17
-1.19918e-17
2.86776e-17
2.24815e-17
-1.42883e-17
4.83963e-17
-2.22193e-19
-4.73822e-17
-8.50171e-17
-3.52617e-17
-4.16549e-17
-3.98909e-17
6.18924e-18
-7.27464e-17
4.56914e-17
-1.56051e-16
-1.05711e-16
1.09637e-16
-1.02884e-16
-4.71925e-16
-6.99272e-16
-1.63972e-14
-1.0052e-15
-7.65817e-16
-7.81956e-16
2.42644e-16
6.93137e-16
3.23123e-15
1.69702e-14
9.93057e-14
5.69211e-13
3.13419e-12
1.63807e-11
8.09219e-11
3.77625e-10
1.66563e-09
6.92337e-09
2.69551e-08
8.24969e-08
2.69309e-07
7.37188e-07
1.96078e-06
5.23498e-06
1.31516e-05
3.12649e-05
7.22401e-05
0.000158712
0.00033393
0.000579474
0.000778824
0.000956781
0.00116429
0.00141889
0.00178836
0.00250337
0.0040907
0.00735206
0.0127556
0.0200384
0.0288046
0.0386916
0.0507307
0.0945632
0.227327
0.57989
1.35024
2.85052
4.22481
4.09638
4.5554
3.99001
2.91831
2.02488
1.4078
0.98317
0.704773
0.509526
0.35249
0.207551
0.0981112
0.0392533
0.0139549
0.00454145
0.00132727
0.000158282
2.63119e-18
-4.7689e-18
5.65326e-19
-2.99867e-18
4.53861e-18
1.67541e-17
-1.16676e-17
-2.55442e-18
7.88746e-18
8.71922e-18
-1.39769e-17
-6.31577e-18
1.2128e-17
-1.84508e-17
3.64412e-17
1.4856e-17
-1.35922e-17
-2.22723e-17
-2.61345e-17
-1.19118e-17
-3.31533e-18
-3.96805e-18
7.25701e-18
4.46019e-17
-2.64598e-17
2.8097e-17
-1.27233e-16
7.07878e-17
-8.37678e-19
-1.79632e-16
3.76835e-17
-1.41536e-16
-5.53575e-18
-2.61464e-16
3.43024e-16
4.02255e-16
3.4973e-15
7.26662e-16
7.12042e-16
-2.14993e-16
2.22202e-16
5.96821e-16
3.17361e-15
1.74155e-14
1.00366e-13
5.77094e-13
3.17247e-12
1.65476e-11
8.15754e-11
3.79878e-10
1.67213e-09
6.93748e-09
2.69645e-08
8.2408e-08
2.6943e-07
7.36622e-07
1.95614e-06
5.21868e-06
1.31044e-05
3.11416e-05
7.19347e-05
0.000158029
0.000332622
0.000578052
0.000777729
0.000955639
0.00116299
0.0014173
0.00178567
0.00249737
0.00407644
0.00732717
0.0127224
0.0200039
0.0287697
0.0386728
0.0506391
0.0942192
0.226337
0.577645
1.34575
2.8434
4.22432
4.09712
4.55647
3.99441
2.92259
2.02792
1.40985
0.98448
0.705645
0.51012
0.352966
0.207904
0.0982937
0.0393323
0.0139839
0.00455079
0.00132993
0.000158627
-3.12958e-19
1.34405e-17
3.40091e-18
4.52885e-18
7.77646e-18
2.1415e-17
-1.67156e-18
1.99278e-17
-4.53396e-18
-1.4376e-17
1.40016e-17
1.89229e-17
-1.82539e-17
-1.99911e-18
7.41779e-18
3.40046e-18
1.43899e-17
-2.22124e-19
2.42387e-17
3.31984e-18
-1.12782e-17
4.90101e-17
-1.88019e-17
-4.50704e-17
2.85473e-17
1.28748e-17
-5.4035e-18
-1.19251e-17
-5.62777e-17
2.18156e-16
9.15033e-17
1.01138e-16
-2.13898e-16
-6.08237e-17
6.53498e-16
1.8655e-16
3.3791e-16
1.10088e-15
1.15958e-15
-1.03216e-16
3.45814e-16
8.88149e-16
3.52141e-15
1.75971e-14
1.0138e-13
5.8178e-13
3.19556e-12
1.66489e-11
8.19862e-11
3.81394e-10
1.67712e-09
6.95089e-09
2.69906e-08
8.24229e-08
2.6975e-07
7.36981e-07
1.95573e-06
5.21569e-06
1.30944e-05
3.11146e-05
7.1868e-05
0.000157876
0.000332328
0.000577727
0.00077747
0.000955371
0.00116268
0.00141693
0.00178508
0.00249618
0.00407393
0.00732276
0.0127164
0.0199976
0.0287633
0.0386688
0.0506242
0.0941647
0.226182
0.577294
1.34505
2.84229
4.22423
4.09723
4.55663
3.99509
2.92324
2.02838
1.41016
0.984674
0.70577
0.510205
0.353032
0.207953
0.0983262
0.0393436
0.0139877
0.00455191
0.00133023
0.000158664
1.3001e-18
-5.57382e-18
-5.53371e-19
-6.1084e-18
3.8691e-18
-1.0067e-17
-1.71487e-17
-1.46602e-17
1.08913e-18
1.45388e-17
-2.44336e-17
-7.10795e-18
-1.55487e-18
-2.31313e-17
5.24561e-18
-3.63143e-18
1.07666e-17
1.77699e-17
-1.86584e-17
-3.15444e-17
-2.06575e-17
-2.77655e-17
3.11704e-17
-1.64781e-17
4.49364e-17
9.00846e-18
-4.67771e-17
-3.09435e-17
-7.00511e-17
1.20436e-16
1.22385e-16
-6.57559e-17
-3.87455e-16
-2.33347e-16
-1.49185e-16
-1.37357e-15
-1.05334e-14
-9.9205e-17
-1.96565e-16
1.97786e-16
2.17575e-16
6.20861e-16
3.27479e-15
1.74752e-14
1.01247e-13
5.83771e-13
3.20489e-12
1.66943e-11
8.21979e-11
3.82332e-10
1.68106e-09
6.96643e-09
2.70475e-08
8.25883e-08
2.70417e-07
7.38758e-07
1.96143e-06
5.23121e-06
1.31336e-05
3.12099e-05
7.20955e-05
0.000158387
0.000333291
0.000578718
0.000778176
0.000956086
0.00116347
0.00141787
0.00178672
0.00250007
0.00408375
0.00733952
0.0127402
0.0200213
0.0287871
0.0386809
0.0506892
0.0944138
0.226902
0.578924
1.34832
2.8475
4.22462
4.09672
4.55592
3.99192
2.92013
2.02616
1.40865
0.983707
0.705124
0.509761
0.35267
0.207674
0.0981654
0.0392767
0.0139633
0.00454406
0.00132799
0.000158374
7.3664e-19
-3.73844e-18
-2.26228e-18
2.95199e-19
-1.79437e-18
-1.3005e-17
-1.28832e-17
1.20935e-17
-2.5287e-18
4.33141e-18
1.77423e-18
1.70121e-17
-2.23315e-17
9.44863e-18
3.16024e-18
-1.33656e-17
4.15299e-17
-1.34034e-17
5.77884e-18
8.19907e-18
7.21815e-18
3.51783e-17
-5.16724e-17
3.67406e-17
6.66114e-18
-7.56055e-18
8.09419e-17
-2.48407e-17
1.52334e-16
1.86815e-16
-1.55074e-16
-1.03654e-16
-5.90014e-18
1.92958e-17
2.87599e-16
4.19992e-16
-5.52225e-15
-2.40373e-15
-8.86603e-16
-6.1808e-16
-8.89164e-17
3.76236e-16
3.44937e-15
1.78945e-14
1.01129e-13
5.82033e-13
3.19802e-12
1.66741e-11
8.21724e-11
3.82559e-10
1.68354e-09
6.98235e-09
2.71291e-08
8.28953e-08
2.71442e-07
7.41994e-07
1.97325e-06
5.26497e-06
1.32202e-05
3.14214e-05
7.26033e-05
0.000159531
0.000335445
0.000580945
0.000779773
0.000957699
0.00116526
0.00142001
0.00179051
0.00250896
0.00410406
0.00737535
0.012791
0.0200739
0.0288401
0.0387079
0.0508332
0.09496
0.228478
0.582483
1.35546
2.85883
4.2254
4.09564
4.5543
3.98501
2.91336
2.02133
1.40538
0.981618
0.703728
0.5088
0.351904
0.207088
0.0978309
0.0391407
0.0139132
0.00452784
0.00132335
0.000157771
-1.08859e-17
5.98861e-18
-9.11625e-18
1.01467e-17
-5.81543e-18
1.60517e-18
1.10981e-17
6.18506e-19
-1.81208e-17
8.3349e-18
-3.18975e-17
6.48398e-18
1.22168e-17
1.57984e-17
-1.37717e-17
-2.26021e-18
3.11633e-17
2.51569e-18
1.38395e-17
1.68746e-17
-9.77346e-18
-3.9316e-17
1.23772e-17
2.58766e-17
-2.7768e-17
-4.03462e-17
6.29928e-17
-2.39749e-17
-6.758e-17
1.18542e-16
8.14686e-17
-8.27866e-17
-9.84094e-17
6.95586e-17
2.18708e-16
1.15535e-15
-1.95406e-16
1.07056e-15
-5.74335e-16
6.07738e-17
3.04931e-16
8.30296e-16
2.9891e-15
1.76871e-14
1.00142e-13
5.76711e-13
3.17662e-12
1.6596e-11
8.19492e-11
3.82244e-10
1.68532e-09
7.00194e-09
2.72488e-08
8.33786e-08
2.72933e-07
7.46972e-07
1.99209e-06
5.31972e-06
1.3362e-05
3.17682e-05
7.34295e-05
0.000161383
0.000338904
0.000584431
0.000782233
0.000960172
0.00116799
0.00142328
0.00179639
0.00252292
0.00413596
0.00743405
0.0128689
0.020153
0.0289188
0.0387455
0.0510522
0.095791
0.23087
0.587858
1.3662
2.87569
4.22631
4.09411
4.55175
3.9746
2.90326
2.01414
1.40052
0.978497
0.701638
0.507372
0.350761
0.206223
0.0973591
0.0389394
0.0138394
0.00450399
0.00131653
0.000156887
1.06038e-17
-4.89623e-18
-2.46228e-18
1.7955e-17
1.28026e-17
2.79049e-18
8.77388e-18
2.40318e-17
1.33873e-18
-1.40411e-17
-2.27586e-17
7.02045e-18
-4.52049e-18
3.06141e-18
1.23812e-17
2.87816e-17
1.25411e-17
1.25446e-17
-2.4447e-17
1.86584e-17
2.25538e-17
-2.96678e-17
-4.65197e-17
-1.37724e-17
-2.19781e-17
7.2907e-17
6.00344e-17
-4.09569e-17
1.42723e-16
-2.43776e-16
-3.06952e-17
1.5852e-16
9.08807e-17
-2.22708e-16
3.87248e-16
-4.15694e-16
-1.04987e-14
-7.62196e-16
-4.07065e-16
-7.26733e-17
-2.18117e-17
1.13384e-15
3.39262e-15
1.72773e-14
9.88009e-14
5.68938e-13
3.13967e-12
1.64462e-11
8.14452e-11
3.8106e-10
1.68521e-09
7.02172e-09
2.73995e-08
8.40338e-08
2.74803e-07
7.53322e-07
2.01674e-06
5.39226e-06
1.35516e-05
3.22355e-05
7.4552e-05
0.00016392
0.000343674
0.000589
0.000785331
0.000963222
0.00117127
0.00142721
0.00180375
0.00254116
0.00417734
0.00750893
0.0129692
0.0202545
0.0290192
0.0387906
0.0513393
0.0968782
0.233994
0.594841
1.38018
2.89736
4.22702
4.09215
4.54807
3.96112
2.89025
2.00491
1.39428
0.974511
0.699003
0.505547
0.349316
0.205126
0.0967608
0.0386855
0.0137465
0.00447399
0.00130796
0.000155777
-2.91513e-18
-4.44247e-18
6.05287e-18
1.16604e-17
5.69016e-18
-8.88494e-19
2.26304e-17
1.16061e-17
1.0228e-17
-2.58923e-18
-1.18415e-17
-1.96579e-17
2.52857e-17
-4.3077e-18
-5.79871e-18
2.4051e-17
1.87842e-17
-1.03592e-17
-3.12135e-17
3.62729e-17
-1.04398e-17
6.78135e-17
-5.43625e-17
2.87343e-17
4.79893e-17
6.66807e-17
-4.50773e-17
7.22642e-17
4.13828e-18
9.68339e-17
-2.52614e-17
-1.54972e-16
1.34356e-16
5.9316e-16
-1.83015e-16
6.18963e-16
-1.71218e-14
1.21734e-15
3.27273e-16
1.17708e-16
3.39409e-16
8.95076e-16
3.0821e-15
1.6593e-14
9.56696e-14
5.5588e-13
3.08391e-12
1.62174e-11
8.06415e-11
3.78791e-10
1.68219e-09
7.03807e-09
2.7573e-08
8.48266e-08
2.76648e-07
7.60737e-07
2.04614e-06
5.47892e-06
1.37775e-05
3.27875e-05
7.58579e-05
0.000166804
0.000348887
0.000594052
0.000788745
0.000966402
0.00117433
0.00143041
0.00181092
0.00256202
0.00422624
0.00759459
0.0130866
0.0203724
0.0291344
0.0388348
0.0516811
0.0981777
0.237713
0.603042
1.3964
2.9223
4.22717
4.0899
4.54337
3.94531
2.87512
1.99417
1.38703
0.969874
0.695893
0.503423
0.347621
0.203852
0.0960698
0.0383927
0.0136398
0.00443973
0.0012982
0.000154516
-4.57666e-18
-5.55309e-20
3.8655e-18
-3.10973e-18
9.97495e-18
1.41529e-18
-7.04747e-19
8.78227e-18
-1.48823e-17
1.05465e-17
1.29005e-17
-7.92839e-18
-5.10884e-18
-2.60409e-17
6.36743e-18
-7.55867e-18
4.5778e-18
2.13953e-17
-1.32655e-17
-7.56156e-18
-3.397e-18
1.5145e-17
-4.95202e-17
-2.15841e-18
-3.70311e-17
9.48449e-18
7.95466e-17
-4.67267e-17
5.30965e-17
7.56985e-17
1.47071e-16
-9.38387e-17
2.73223e-17
3.04835e-16
-5.31588e-16
6.97096e-16
-4.27681e-14
-1.12186e-17
-6.15402e-16
3.13415e-17
3.67652e-16
4.26974e-16
3.16298e-15
1.61446e-14
9.23792e-14
5.37912e-13
3.00249e-12
1.5885e-11
7.93519e-11
3.74965e-10
1.67361e-09
7.0378e-09
2.77052e-08
8.55942e-08
2.78085e-07
7.67299e-07
2.07618e-06
5.57183e-06
1.40242e-05
3.33956e-05
7.73024e-05
0.000169996
0.000354619
0.000599606
0.000792518
0.000970047
0.00117817
0.00143523
0.00182052
0.0025863
0.00428153
0.00769531
0.0132175
0.020502
0.0292556
0.0388688
0.0520637
0.0996463
0.24191
0.612203
1.41447
2.94952
4.22617
4.0871
4.53734
3.92757
2.85844
1.98239
1.37909
0.964823
0.69254
0.501114
0.345799
0.202493
0.0953442
0.0380863
0.013528
0.00440378
0.00128795
0.000153195
6.10106e-19
9.66364e-18
-7.57525e-19
-7.42389e-18