/*--------------------------------*- C++ -*----------------------------------*\
  =========                 |
  \\      /  F ield         | OpenFOAM: The Open Source CFD Toolbox
   \\    /   O peration     | Website:  https://openfoam.org
    \\  /    A nd           | Version:  10
     \\/     M anipulation  |
\*---------------------------------------------------------------------------*/
FoamFile
{
    format      ascii;
    class       volScalarField;
    location    "1";
    object      RR.N2;
}
// * * * * * * * * * * * * * * * * * * * * * * * * * * * * * * * * * * * * * //

dimensions      [1 -3 -1 0 0 0 0];

internalField   nonuniform List<scalar> 
4000
(
-6.33064e-14
3.99452e-14
-2.80024e-14
-2.2257e-13
-7.56797e-14
2.61927e-13
-1.6693e-13
-1.85475e-14
2.05422e-13
2.69409e-13
7.25665e-14
-2.57577e-13
3.31853e-14
5.01942e-14
-5.82836e-14
1.35574e-13
-1.24816e-13
1.59288e-15
-7.70159e-14
-1.13979e-13
-3.29998e-16
-8.86218e-14
-1.30832e-13
4.65703e-14
-1.01782e-13
-1.03476e-13
1.54165e-14
-3.19437e-14
-3.70019e-14
6.21383e-14
-5.82064e-14
5.89698e-14
2.73338e-15
8.79982e-15
2.34918e-14
7.32357e-15
2.90061e-15
2.21964e-14
1.5326e-14
-3.0148e-14
1.58982e-14
-3.19098e-15
6.80366e-15
-2.15799e-15
-4.06163e-15
5.4335e-15
-3.6792e-15
3.30479e-15
-1.91632e-15
-1.18863e-15
-1.47659e-15
5.13726e-17
9.76021e-16
-1.65475e-15
6.77573e-16
7.98879e-15
-1.02425e-14
1.18113e-14
2.29142e-14
-5.92242e-15
6.91386e-14
1.35709e-14
5.95343e-14
-6.39181e-14
4.52006e-14
5.46327e-14
3.47043e-14
5.2608e-14
-2.86792e-14
4.53159e-14
5.15599e-14
-4.79404e-14
3.17065e-14
9.6533e-13
-2.02558e-14
6.49113e-14
6.12909e-14
2.51681e-14
-2.74537e-14
3.09085e-14
-1.73597e-13
-3.29716e-14
-8.62294e-12
1.11522e-11
5.09918e-12
-5.23687e-12
-3.35582e-12
1.30769e-11
-6.07829e-13
-8.9882e-12
-6.07651e-12
-3.71483e-12
-4.3793e-12
-4.33338e-13
-3.76358e-14
5.91114e-14
1.72367e-14
1.32954e-13
-1.23239e-13
6.27602e-14
6.34574e-15
-2.75333e-14
-5.66868e-14
-7.35107e-14
-1.19383e-13
4.92846e-14
2.70867e-14
5.74828e-14
-3.20436e-14
1.54309e-14
9.40084e-14
7.73403e-15
-9.41375e-14
-8.44611e-14
1.05638e-13
-1.34174e-13
-1.15999e-13
1.22838e-13
-7.34945e-14
-6.44446e-14
-4.58511e-14
-7.72712e-14
-1.23808e-13
-1.50039e-14
-3.51218e-14
4.94305e-14
-6.29286e-14
4.87673e-14
-4.97354e-14
3.20853e-14
6.6262e-14
1.29443e-14
1.68623e-14
-7.98027e-15
1.23485e-14
-1.24782e-14
2.16846e-14
7.32799e-15
-4.39198e-15
1.53917e-14
1.5926e-14
-6.73434e-15
4.6829e-15
-2.64388e-15
4.11232e-15
-1.50152e-15
-3.11361e-16
1.1734e-15
-5.18522e-16
7.54002e-16
2.52196e-16
-8.25164e-16
-1.04514e-15
1.28657e-15
2.93414e-15
2.94304e-15
-1.66793e-14
-2.10474e-14
3.25849e-14
1.56396e-14
2.18248e-14
4.26114e-15
4.06252e-14
-4.58441e-14
-5.48948e-14
7.88227e-15
-6.35386e-14
-4.26789e-14
-5.74512e-15
1.92741e-14
-5.75229e-14
-3.90398e-14
-5.08726e-14
-3.37585e-13
-1.7271e-14
2.30987e-14
-3.10006e-14
3.00979e-14
4.21871e-14
-1.8652e-14
9.1559e-15
-3.39572e-14
-4.00493e-12
3.02201e-14
1.22492e-11
-1.45687e-11
-1.15585e-12
-1.03038e-12
8.92234e-12
-5.48031e-12
-2.18851e-12
8.34747e-13
5.96221e-13
-2.94258e-13
3.44838e-14
6.09436e-14
8.55501e-14
-1.0442e-13
1.13633e-13
-4.1327e-14
-1.27272e-15
1.2261e-14
-9.93454e-15
1.69048e-14
1.90671e-14
4.73383e-14
3.77834e-14
-5.9519e-14
-1.96011e-14
1.88195e-14
3.25136e-14
6.25048e-14
-3.02827e-14
-6.74904e-14
-3.65554e-14
1.89569e-14
5.44279e-14
2.8336e-14
-6.21577e-14
5.21163e-15
-6.5093e-14
-2.29972e-14
1.79927e-14
-6.31303e-14
-5.47942e-14
3.40103e-14
2.64616e-14
-1.94743e-15
-2.71323e-14
2.30399e-14
2.0817e-14
1.71423e-14
8.4515e-15
1.67777e-14
-1.2905e-14
-1.47473e-14
9.63981e-15
-8.13784e-16
8.17135e-15
1.72144e-15
-2.70609e-15
-7.16038e-16
-1.01176e-15
3.74298e-15
-4.09237e-16
-9.41715e-16
-7.14157e-16
5.44048e-16
9.51865e-16
3.29783e-16
3.61383e-16
7.35772e-16
1.38672e-16
1.10049e-15
-4.12715e-15
-4.54996e-15
-1.6647e-14
-2.04645e-14
-6.48977e-15
2.43049e-14
-1.67263e-14
-6.84473e-14
-2.9159e-14
1.37395e-14
4.94832e-14
3.46944e-14
1.7998e-14
-5.62628e-14
5.35324e-14
2.26464e-14
2.66583e-15
6.62669e-14
2.59597e-14
4.32789e-14
-2.25285e-14
6.62452e-15
-4.12788e-14
2.39991e-14
2.82096e-14
1.49167e-14
-1.55839e-14
2.23244e-16
1.00839e-11
5.48336e-12
-1.83593e-11
-1.13182e-11
9.25558e-12
1.00407e-12
2.2171e-12
-1.83973e-12
8.56109e-12
1.94977e-12
3.52225e-14
-8.35915e-13
-6.63631e-14
-9.80383e-14
-1.63805e-14
1.11215e-14
6.57023e-15
2.08591e-14
-2.50582e-16
9.84747e-16
3.51138e-16
6.90711e-15
-2.1543e-15
-1.32622e-14
-1.69361e-14
1.68293e-14
9.81552e-15
-2.96208e-14
5.81646e-16
1.81293e-14
-2.0587e-14
-3.41119e-14
-2.85973e-14
-6.7401e-15
2.46652e-14
3.29464e-14
-8.05633e-15
3.3526e-14
-9.71849e-15
1.71355e-15
-3.12553e-14
3.2675e-14
2.26645e-17
-6.16157e-15
-2.3465e-15
-4.4163e-15
-1.22829e-14
5.15713e-15
-1.68875e-14
5.0133e-15
-2.48165e-15
4.48495e-15
4.33679e-15
6.60453e-15
6.07739e-15
-1.13824e-15
-3.41341e-15
3.495e-15
1.6032e-15
-1.50692e-16
-7.64961e-16
1.39599e-15
6.00542e-16
1.81341e-17
2.45505e-17
2.17195e-16
-2.36389e-16
-3.2806e-16
2.28892e-16
-9.57133e-16
3.53723e-16
-1.68453e-16
-3.21309e-16
3.19186e-15
-7.44943e-15
1.50536e-14
-1.89064e-14
5.8575e-14
-3.00937e-14
2.45348e-14
6.71526e-15
5.52977e-14
5.17792e-14
5.42988e-14
4.59305e-14
-3.87187e-14
2.63773e-14
1.93722e-14
-1.1094e-14
5.8276e-14
3.10621e-14
-5.81383e-13
4.55494e-14
-3.83485e-14
-1.59778e-14
4.56979e-14
3.93267e-14
2.51779e-14
9.26504e-15
-1.72374e-15
-1.45246e-12
-7.28595e-12
-3.35925e-11
1.23063e-11
2.94103e-12
9.19346e-13
-3.49073e-12
-2.49818e-12
-2.92455e-12
3.37118e-12
-6.28851e-12
-2.56772e-13
-2.05384e-14
-3.6502e-14
-2.85531e-14
-1.95157e-14
1.14934e-13
-3.84043e-14
-3.90716e-17
-5.81369e-17
-3.68151e-16
2.76033e-16
-1.18003e-15
-5.69904e-16
-2.38533e-16
2.98547e-15
4.22022e-15
-4.11594e-15
-2.51608e-15
-3.69e-15
-6.26459e-15
7.93458e-15
-4.88828e-15
4.06179e-15
3.62796e-17
7.6176e-15
-4.67066e-15
-2.16077e-15
1.789e-15
6.99858e-15
5.09516e-15
5.583e-16
4.41303e-15
5.71199e-15
7.36248e-15
-5.21003e-15
6.75602e-15
-5.87836e-15
3.17677e-15
1.42405e-15
-3.7603e-15
2.34724e-15
4.16547e-15
4.13363e-15
1.59387e-15
3.29405e-16
3.19056e-16
-5.18043e-16
1.66607e-16
-7.06639e-16
5.248e-16
-1.26018e-16
6.09001e-17
-2.54345e-16
3.55892e-18
2.32753e-16
2.24231e-16
-4.2842e-18
1.98202e-16
7.30125e-16
-1.33702e-15
-4.27644e-15
3.67935e-15
-3.09325e-16
5.11196e-15
-1.04405e-14
-3.45392e-14
2.76441e-14
-2.43832e-14
6.31676e-14
5.9379e-14
-2.63256e-14
-6.15206e-14
-6.21349e-14
-5.48338e-14
-6.06868e-14
1.08367e-14
6.63485e-14
1.80112e-14
-4.5152e-14
-5.99001e-14
5.74493e-14
-2.8236e-14
3.27541e-14
4.51267e-14
-4.247e-14
3.47784e-14
7.25635e-14
-9.22112e-15
-1.05929e-14
-7.84689e-12
-1.62739e-12
-4.71396e-12
-3.37565e-11
4.6597e-13
1.63592e-11
-1.27244e-12
-5.91444e-12
1.15735e-13
9.95499e-12
4.1488e-12
-3.69331e-14
2.25103e-14
-1.34833e-13
8.60521e-14
-1.16343e-13
-5.45559e-14
-6.77795e-14
6.98284e-18
3.02391e-17
6.42101e-17
7.26617e-17
-6.11199e-17
-3.84404e-16
2.09238e-16
-5.15091e-16
6.99097e-16
9.21287e-17
8.61687e-16
1.94268e-15
1.10641e-15
1.71641e-15
6.36635e-16
-1.81753e-15
5.99695e-16
-5.34986e-16
-7.98004e-16
1.18918e-15
1.19932e-16
-1.44128e-15
1.50616e-16
-9.1535e-16
-2.06298e-15
7.56461e-16
1.57354e-15
5.48762e-16
-5.59451e-16
1.89281e-15
1.63185e-15
-4.38818e-16
-7.40914e-16
-2.14942e-15
6.63298e-16
-1.05952e-15
3.73153e-16
7.05012e-16
-7.75208e-16
-6.05144e-17
-5.3016e-16
-3.66915e-16
4.43742e-16
3.48132e-17
-1.20851e-16
-1.85302e-16
5.03523e-18
-1.19881e-16
1.66238e-17
-7.01832e-17
-1.05278e-17
5.67001e-16
6.11406e-16
-1.22626e-15
3.07319e-15
2.55192e-15
-3.20916e-16
3.35987e-14
2.26478e-14
1.29573e-14
4.5831e-14
-5.55349e-14
1.65944e-14
4.43452e-14
-3.72257e-14
-3.05706e-15
8.55809e-16
4.30112e-14
1.07473e-14
6.50312e-14
-1.40023e-15
4.90358e-14
2.43684e-14
2.23082e-12
5.48977e-15
-5.88675e-14
3.0107e-14
-1.75361e-14
4.19883e-14
-2.9564e-14
-3.317e-14
3.28812e-14
-3.9697e-12
-9.58419e-12
-2.83621e-12
-2.67835e-12
1.71733e-11
2.98172e-12
-9.25537e-13
1.26636e-11
4.76377e-12
-5.73545e-12
-1.64911e-13
4.15867e-14
1.11667e-14
1.41164e-14
4.28728e-14
4.13452e-14
-1.02476e-13
-7.58469e-14
1.00008e-18
-4.03562e-18
-4.80771e-18
-5.19733e-18
-1.24581e-17
9.97673e-18
-2.19523e-17
-4.60417e-17
1.05651e-16
-7.39765e-17
5.09955e-17
1.74976e-16
4.38665e-16
-9.18652e-17
2.59898e-16
-1.09759e-16
-1.61568e-16
1.07683e-16
-1.6712e-17
-4.50262e-16
9.38901e-16
-3.37551e-16
8.54457e-16
2.19053e-16
2.22228e-16
5.99577e-16
5.49283e-16
6.59127e-16
-9.15509e-18
1.011e-16
2.3675e-18
6.59852e-17
-1.84915e-16
3.42928e-16
3.6509e-16
-4.00301e-16
4.7279e-17
-2.95755e-17
1.67218e-16
-2.406e-16
1.7364e-16
1.9093e-16
2.90131e-17
-1.01266e-16
-1.14344e-16
4.95107e-17
-2.89288e-17
3.25127e-17
5.869e-17
-1.05609e-16
-4.01242e-16
9.82013e-16
-1.86087e-15
-1.92517e-15
7.24789e-15
-7.69053e-15
-3.24512e-15
-3.21555e-14
-3.03921e-14
2.36288e-14
3.67431e-14
-1.16767e-14
3.42457e-14
-4.21361e-14
3.00322e-15
2.63964e-14
-5.8564e-14
2.667e-14
5.94361e-14
-2.90615e-14
-1.23284e-14
-4.5484e-14
5.42411e-14
3.69105e-13
2.98173e-14
-4.50011e-14
-4.68479e-14
5.93563e-14
6.92418e-14
-2.84666e-14
1.87243e-14
1.80553e-14
-5.16444e-12
1.43673e-11
-5.31739e-12
1.11682e-11
2.59774e-12
6.67258e-12
8.227e-12
6.07243e-12
2.09682e-12
2.15341e-12
-5.51432e-12
3.19525e-14
5.04714e-14
1.32846e-13
-1.98685e-14
6.44505e-14
5.09819e-15
3.76008e-14
-5.6244e-20
4.84551e-19
-3.06196e-19
-1.93875e-18
-2.89794e-18
4.67997e-18
-1.63832e-17
1.14832e-18
3.25676e-17
5.52313e-18
-4.18007e-17
8.37294e-18
-2.81336e-17
-1.16124e-17
-4.08157e-17
-7.54889e-17
2.17397e-17
-8.09495e-17
-7.55612e-17
-1.04759e-16
-5.90059e-17
6.07313e-17
-1.65201e-16
-1.04972e-16
-1.76123e-16
2.03634e-16
1.7613e-16
-2.70057e-16
1.50947e-16
1.979e-16
2.08704e-16
-1.95093e-16
-5.20508e-17
-1.04578e-16
6.05004e-17
1.22059e-16
8.84102e-17
-6.82719e-17
2.51359e-17
-5.41748e-17
-6.19253e-17
-2.95217e-17
-3.75839e-17
-1.48435e-17
-2.31695e-17
-2.87748e-17
2.34678e-17
1.54477e-17
1.23034e-16
1.97131e-16
-2.57395e-16
-1.02012e-15
2.02969e-15
1.81965e-15
7.10668e-15
-2.29582e-15
-1.09888e-14
-7.19952e-15
-3.10783e-14
-5.12726e-14
5.99668e-14
-6.5607e-15
-1.6665e-14
-4.12243e-14
6.6212e-14
3.2742e-14
1.0545e-15
6.55834e-14
-4.41952e-14
-1.22222e-14
6.04415e-14
3.69956e-14
4.02852e-14
-9.21264e-13
-8.44284e-15
-5.61109e-14
-5.61538e-14
-4.86644e-14
-4.2411e-14
1.96268e-14
-1.09262e-15
-1.84115e-14
-9.14518e-12
-1.35493e-11
-1.91211e-11
-9.22171e-12
-1.43814e-11
3.49693e-12
-1.70044e-12
-4.34494e-12
-2.03412e-13
2.94152e-12
1.2945e-12
3.00981e-14
-1.86284e-14
-1.32384e-13
7.98466e-14
1.12689e-13
3.92635e-14
-3.12079e-14
8.62337e-21
-6.27599e-21
-1.2682e-19
5.77839e-21
2.02764e-19
7.95963e-19
1.88825e-18
-2.28101e-18
1.42929e-18
-1.8001e-18
-3.99808e-18
6.16949e-18
1.56608e-17
-8.16193e-18
-1.29098e-18
-7.07457e-18
-2.27246e-17
1.3801e-17
3.15583e-17
1.14995e-17
-1.31222e-17
4.48587e-17
3.73324e-17
-4.99934e-17
3.7825e-17
-1.99971e-17
3.53699e-17
-3.18667e-17
2.06769e-17
3.09118e-17
2.22062e-17
-3.75216e-17
3.29236e-17
2.80167e-17
-1.50575e-17
-1.09716e-17
1.59506e-17
1.62896e-17
-1.25862e-17
-3.04997e-17
1.99363e-17
-2.35204e-17
2.81847e-17
1.44136e-17
-1.0757e-17
-5.62971e-18
1.9217e-17
-5.65835e-17
4.36554e-17
-2.69264e-16
3.44573e-16
1.07773e-15
1.15181e-15
3.99587e-15
-1.54247e-15
-6.72909e-15
1.24701e-15
-1.69865e-14
2.8896e-15
-4.68617e-14
1.72443e-14
-6.11263e-15
-5.14716e-14
5.55198e-14
-1.54692e-14
-1.27679e-15
2.61978e-14
-2.92347e-14
-5.84875e-14
1.84575e-14
4.78705e-14
-3.0476e-14
-1.48318e-14
1.62939e-12
6.21624e-14
1.9688e-15
3.68418e-14
-2.89934e-14
-9.4028e-15
5.96489e-15
1.13973e-14
-2.4525e-14
4.20106e-12
-1.25099e-11
3.86586e-12
2.9072e-11
-1.84727e-11
1.51524e-11
2.86429e-12
-6.79241e-12
-2.93844e-12
5.31425e-12
-3.92232e-12
4.89155e-14
2.39169e-14
1.60173e-14
4.31669e-14
-1.98606e-14
1.14961e-13
-1.68221e-14
2.23987e-23
-2.24776e-21
2.19192e-20
-8.8338e-21
5.10762e-20
-6.03861e-20
1.10835e-19
-2.38208e-19
-2.14478e-19
-9.83946e-19
-2.9921e-19
6.28666e-19
-1.5504e-19
-3.35717e-18
8.27461e-19
1.70029e-18
-3.82633e-18
-1.53488e-18
8.40928e-18
-5.22892e-19
-2.13952e-18
3.98318e-18
-1.32239e-17
1.54659e-17
-4.47565e-18
-6.69667e-18
7.9209e-18
-7.49834e-18
-5.81738e-19
-6.01038e-18
4.43895e-18
7.76803e-18
2.05563e-18
-9.31842e-18
-1.48194e-17
8.22786e-18
1.29644e-17
1.07912e-17
-1.33499e-17
-1.52089e-17
-2.16606e-18
3.80079e-18
5.47526e-18
-2.0813e-18
-6.22862e-18
1.29179e-17
-5.67949e-18
3.88105e-17
1.11743e-16
-6.80691e-17
1.50926e-16
-2.85002e-16
-4.28844e-16
2.64792e-15
4.17525e-15
4.96247e-15
9.24669e-15
2.60918e-14
2.47179e-14
4.70003e-14
3.93677e-14
5.8433e-14
-3.7554e-14
2.71761e-14
1.22792e-14
-6.64808e-14
3.27505e-15
5.40865e-14
-6.02791e-14
4.25571e-14
1.77182e-14
3.56161e-14
-4.99635e-14
6.47375e-13
-5.42471e-14
4.25452e-14
-2.20478e-14
5.15968e-15
7.77552e-15
9.11466e-15
2.74254e-15
-5.99587e-15
1.12789e-11
-9.32503e-12
1.60992e-11
-2.69935e-11
-2.97626e-12
5.75007e-13
7.89417e-13
4.55434e-12
-2.52283e-12
1.90897e-12
3.21707e-12
-3.10656e-13
8.62109e-14
1.22649e-13
-1.38409e-13
6.04125e-14
1.354e-13
5.14558e-14
-3.67767e-23
3.32617e-22
4.7461e-22
7.4037e-21
1.29962e-20
1.21494e-20
1.69597e-20
1.4999e-20
-7.85202e-20
1.65413e-20
2.40988e-19
-4.3917e-20
1.21188e-19
-3.2205e-19
-3.72696e-19
-9.52558e-19
4.70838e-19
3.039e-19
1.54854e-18
1.36316e-18
-6.87245e-19
6.16402e-19
-1.73452e-18
-3.85218e-18
3.84396e-19
-3.98039e-18
-1.52849e-18
1.50728e-18
-3.96854e-19
3.39459e-18
1.30908e-18
3.00514e-18
-3.53324e-18
-1.71512e-18
1.49751e-18
-8.53857e-20
-2.17142e-18
-2.21871e-18
2.54379e-18
3.69701e-18
1.10187e-18
-3.96472e-18
3.16544e-18
2.73177e-18
-2.70831e-18
-8.37058e-18
1.44347e-17
-2.55535e-17
7.31637e-17
4.43437e-17
1.80211e-16
-8.38049e-16
-1.02698e-16
3.84266e-15
1.34283e-15
5.42267e-15
2.1694e-15
1.66606e-14
9.37163e-15
-5.53523e-14
1.24077e-15
6.68365e-14
-6.35144e-14
5.67595e-14
2.14036e-14
1.78386e-14
3.67536e-14
2.38182e-14
-4.78779e-14
6.04391e-14
4.65939e-14
4.04311e-14
4.92526e-14
-1.61358e-14
-6.13308e-13
-6.55593e-14
2.52632e-15
2.60779e-14
-2.94249e-14
1.84058e-14
-8.23666e-15
-1.23793e-14
7.168e-12
3.55742e-13
1.09906e-11
1.34866e-11
1.18813e-11
-3.41603e-12
-1.3694e-11
3.82714e-12
2.63784e-12
-3.45109e-12
7.95516e-12
4.47242e-14
1.22887e-13
-8.29192e-14
1.29746e-13
1.05332e-13
3.20427e-16
-9.7736e-14
-1.8976e-23
-1.2857e-23
-1.62805e-22
6.69802e-22
-1.88487e-21
1.81845e-22
3.30511e-21
7.87106e-21
4.36533e-21
-3.1897e-20
-8.16828e-21
6.27827e-20
5.16094e-21
6.24647e-20
5.17989e-21
-1.06195e-20
-9.96625e-20
6.30178e-20
-2.54223e-19
2.0539e-19
2.37949e-19
-1.3476e-19
2.6772e-19
-3.05675e-19
4.7528e-19
-2.41007e-19
1.22159e-19
9.32174e-19
8.66539e-19
-9.43748e-19
4.35361e-19
-7.0131e-19
8.46264e-19
1.97259e-18
-1.91865e-18
-3.46692e-19
2.70419e-19
-3.6481e-19
-1.45048e-18
5.26753e-19
-5.18741e-19
-5.1824e-19
-1.14776e-18
-7.15227e-19
4.07907e-19
-7.59623e-18
7.75661e-18
-3.22752e-17
-1.67411e-17
-1.9228e-16
-1.92104e-16
7.88472e-16
-1.40672e-15
-8.59484e-16
5.41968e-15
5.73747e-15
6.69089e-15
-2.22713e-14
3.20975e-14
-2.18469e-14
3.29839e-14
-5.93121e-14
4.72188e-14
-6.22442e-14
3.00081e-14
-2.5368e-14
9.79807e-16
3.08305e-14
2.4796e-14
-1.15442e-14
-7.8854e-15
-6.47322e-14
4.42036e-14
-5.99045e-14
8.31767e-13
3.94854e-14
3.94186e-15
-2.62459e-14
6.21546e-14
-1.90489e-14
-7.58474e-15
-1.26924e-14
1.14443e-15
8.40397e-13
9.92161e-12
-5.37838e-13
-1.01458e-11
-2.56903e-12
5.05067e-12
-1.15066e-11
-3.53465e-12
-9.50283e-13
1.55109e-12
-4.95925e-14
-1.34274e-13
1.02101e-14
7.86473e-14
-8.4678e-14
1.0841e-13
1.20017e-13
-2.0609e-25
-2.09448e-23
4.88216e-23
-8.02479e-23
-2.97322e-23
-7.99229e-23
4.23866e-22
1.93511e-21
7.09904e-22
-2.83336e-22
-3.46249e-21
-2.49052e-21
1.1473e-20
2.88349e-21
2.12801e-21
1.82633e-20
4.26686e-21
-2.2861e-20
-5.89725e-20
-5.65087e-20
-6.25768e-20
1.15356e-19
7.64417e-20
7.79279e-20
-1.01272e-20
-1.49651e-19
2.06028e-19
1.43227e-19
-2.20716e-19
1.38715e-19
-4.73135e-19
2.88857e-19
4.75988e-19
3.60413e-19
2.58308e-19
-1.81095e-19
4.90408e-19
-3.87207e-19
4.78272e-19
1.36176e-20
5.1919e-19
5.11364e-20
-6.21469e-19
-1.22597e-18
1.37783e-19
-6.4211e-19
-1.4021e-17
-2.14422e-17
-1.01098e-16
-5.16222e-17
2.37517e-16
-6.9257e-16
7.03364e-16
-1.86659e-17
-1.36008e-15
2.95413e-15
7.41858e-15
1.96712e-14
-8.23298e-15
2.67429e-15
-5.92452e-14
6.1319e-14
1.79586e-15
-6.04786e-14
-1.63184e-14
4.58908e-14
9.22682e-15
-2.85803e-14
-4.53236e-15
-4.91369e-14
5.7413e-14
-2.03955e-14
-1.13113e-14
-6.82824e-14
-2.30461e-12
-5.5753e-14
2.90696e-14
2.59945e-15
-5.71431e-14
-1.55249e-14
1.63561e-15
4.19527e-15
8.61649e-14
8.11371e-12
-2.23343e-12
-5.66274e-12
-3.42297e-12
-1.8143e-12
-6.14611e-12
1.10791e-13
-3.22169e-12
6.66359e-13
-1.27604e-12
-2.99997e-13
1.17033e-14
-1.51899e-14
1.17311e-13
-4.98921e-14
-1.04339e-13
-1.81598e-14
4.63456e-26
-1.15864e-25
6.70926e-24
3.13227e-24
-2.86041e-23
5.96734e-23
-3.1338e-23
-1.12146e-22
-4.70102e-23
-4.2422e-22
-7.45836e-22
9.1571e-22
1.87168e-22
-2.28707e-22
-3.95106e-21
9.23493e-22
4.04478e-21
-4.75599e-21
-1.41852e-20
-2.3503e-21
-8.63531e-21
3.6972e-21
-7.82945e-21
-1.46115e-20
1.24246e-20
-3.13602e-20
-6.4685e-20
-3.16347e-21
-2.39654e-20
-1.52545e-20
-8.93605e-20
-8.74792e-20
-1.14999e-19
-8.41672e-20
1.11367e-19
-1.17001e-19
2.31071e-20
-9.09099e-20
-7.44647e-20
2.06163e-20
7.00493e-20
-1.82552e-19
4.06886e-19
1.32338e-19
4.22428e-18
-3.59342e-18
-8.79256e-18
3.77818e-17
-6.30011e-17
1.42108e-16
1.8813e-17
-9.61819e-16
8.83402e-16
6.81802e-16
-2.16973e-15
2.33623e-15
1.41508e-14
1.46098e-14
1.92624e-14
3.58982e-14
-4.89043e-14
4.689e-14
-4.75007e-15
-5.07511e-14
3.99854e-14
6.54287e-14
-3.23374e-14
1.73415e-14
6.52765e-14
1.08284e-14
-9.5753e-15
-5.49501e-14
-1.12823e-14
-8.19202e-15
5.15325e-13
4.02841e-14
6.38309e-14
6.89352e-14
-1.67473e-15
8.25546e-15
3.14681e-14
5.74166e-15
8.31522e-12
4.60836e-12
1.31163e-11
6.26658e-12
-8.18694e-12
5.75236e-12
-2.34588e-12
2.97783e-12
4.16423e-12
-3.76866e-12
-3.83146e-12
6.65493e-13
-6.77815e-14
7.81045e-14
-5.35155e-14
-4.07403e-14
-1.09472e-13
-5.28095e-14
9.46633e-26
4.63456e-25
6.30596e-25
-9.26912e-25
5.04082e-24
1.57023e-23
-1.5509e-23
9.2701e-24
-2.73848e-23
2.49068e-23
-4.32601e-23
3.82706e-23
2.16858e-22
3.26165e-22
5.04876e-22
9.80247e-22
-1.89435e-21
2.04818e-21
-7.20837e-22
4.01551e-21
2.53157e-21
3.82742e-22
5.27907e-21
8.57231e-22
1.33986e-21
-9.10066e-21
5.13314e-21
1.27674e-20
-6.8778e-21
7.15684e-21
1.86701e-20
1.61166e-20
1.17586e-20
-1.45137e-20
-7.5395e-21
-1.84188e-20
-2.76987e-20
-5.88163e-20
-4.27854e-20
-4.50605e-20
-4.19745e-21
-3.5949e-20
-2.08313e-19
1.30222e-19
-1.83423e-18
-7.79282e-18
1.50457e-17
-1.29377e-17
-4.40347e-17
-2.10435e-16
2.39621e-16
1.02296e-16
-1.71809e-15
-4.27639e-16
-6.65344e-15
6.90755e-16
4.48501e-15
-3.16507e-14
-1.72681e-14
-5.67228e-14
1.84079e-14
-6.58971e-14
-1.05602e-17
2.96193e-14
-3.16388e-14
3.04162e-14
3.01479e-14
1.00886e-14
-1.02341e-14
-3.11593e-14
4.31672e-14
6.54489e-14
3.55122e-14
-1.60672e-14
-1.15594e-12
-4.85595e-14
6.83542e-14
-5.64452e-14
1.41411e-14
4.87756e-15
1.97557e-14
2.63884e-14
2.85931e-12
6.0006e-12
7.63325e-12
2.24287e-12
-1.73318e-11
-3.73871e-12
-2.21665e-12
-3.27469e-12
-9.62042e-14
-1.88203e-12
-2.27045e-12
2.11757e-14
-4.58006e-14
8.7803e-14
4.56969e-14
1.25095e-13
-6.18731e-14
-6.5602e-14
2.95823e-27
-1.57772e-26
-2.50956e-25
3.78653e-25
-7.00114e-25
1.03883e-24
3.47049e-24
-5.55703e-24
-2.50661e-24
-1.18566e-23
1.72406e-23
-1.23013e-23
-5.55501e-23
-1.05616e-22
5.84216e-23
-2.1706e-22
2.44619e-22
-4.77824e-22
-1.31344e-22
3.82174e-23
-6.92089e-22
-2.17252e-22
-1.57043e-22
-1.2046e-21
1.55198e-21
-3.73669e-22
-2.95327e-21
1.73839e-21
-3.19072e-21
-2.5857e-21
7.94195e-21
-4.68967e-21
-4.34761e-21
5.14802e-21
6.12052e-21
1.28418e-20
-1.06177e-20
1.62814e-20
-1.45909e-20
-9.98025e-21
-9.63689e-20
2.93282e-20
1.06662e-19
-1.68743e-18
-4.15574e-18
-1.67455e-19
1.58248e-17
1.16554e-17
9.48924e-17
1.12849e-16
-4.44734e-16
-9.3831e-17
-1.69538e-15
-2.07269e-16
1.99226e-15
-2.00379e-15
-1.29855e-14
-3.19411e-14
-1.93627e-14
-1.01084e-14
6.88948e-14
1.8754e-14
1.84222e-14
6.20974e-14
-5.87171e-16
-5.17335e-14
2.15842e-14
-2.93902e-14
-4.75654e-14
-6.53044e-14
-4.44852e-14
-2.82599e-14
4.28491e-14
-3.69409e-14
-4.22221e-12
1.59881e-14
3.7037e-15
-4.9087e-14
-5.14546e-14
-1.98604e-14
3.46262e-14
2.52267e-14
6.12432e-12
-4.36334e-12
2.40173e-12
2.05354e-11
1.36786e-12
-3.13311e-12
1.50878e-12
-1.23987e-12
-2.60053e-12
-4.46895e-12
1.96996e-12
-2.69993e-13
1.10115e-14
1.06894e-13
-2.40494e-14
-6.64902e-14
-1.25398e-13
1.01645e-14
0
-5.91646e-27
-1.97215e-27
2.76101e-26
-1.02552e-25
7.69139e-26
-9.51563e-26
8.92892e-25
-5.96576e-25
1.10786e-24
1.05806e-24
-4.7233e-24
-4.17307e-24
3.36252e-24
2.31521e-23
-2.14141e-23
3.58054e-23
2.10162e-23
4.14329e-23
1.94494e-23
2.24742e-23
-1.01713e-22
5.75178e-24
-7.62626e-23
1.90019e-22
4.303e-22
-5.93983e-22
-4.81895e-23
-2.79517e-22
3.90419e-22
1.05992e-21
-1.94272e-21
1.66842e-21
1.85404e-21
-1.40721e-21
-1.29713e-21
6.96962e-21
-9.25076e-21
-1.93859e-20
6.14244e-20
-2.5734e-20
-2.51291e-19
-7.9556e-19
-1.2864e-18
-1.7589e-19
3.04298e-18
-2.17411e-17
6.2609e-17
-4.6432e-17
-2.60245e-16
2.90637e-16
7.66153e-16
2.88722e-16
-2.89323e-15
4.75558e-16
3.59778e-15
1.1193e-14
2.92173e-14
-3.32059e-15
-1.63547e-14
5.53033e-14
-3.71698e-14
3.12904e-15
-6.23139e-14
-8.61745e-15
6.14587e-14
2.93696e-14
1.27612e-14
3.96727e-14
1.76261e-14
2.95033e-14
-3.84467e-14
5.63933e-14
1.93878e-14
2.34956e-12
3.88597e-14
6.63075e-14
-4.85797e-14
-6.05866e-14
-1.26512e-14
2.61867e-14
1.76064e-14
1.49482e-11
-2.10265e-11
-4.82207e-12
1.58101e-13
-9.92444e-12
-6.48223e-13
-1.62889e-13
4.36053e-12
9.12419e-13
-7.79543e-12
1.75128e-12
6.06857e-14
3.83076e-14
-7.83567e-14
-2.78892e-14
5.91951e-14
5.75637e-14
4.41144e-14
0
0
1.97215e-27
-2.46519e-27
0
1.72563e-26
-4.83177e-26
-4.43734e-26
1.08468e-26
1.42981e-26
8.93385e-25
-3.5696e-25
-2.47012e-25
-8.52956e-25
3.13967e-24
-4.28647e-24
2.55197e-24
4.55123e-24
-8.34319e-24
1.86151e-23
4.32937e-24
-1.99582e-23
-2.88329e-24
4.10218e-23
2.64111e-23
-8.0381e-23
-2.03457e-22
-6.17934e-23
-7.72926e-23
-8.53824e-23
-2.59791e-22
4.99349e-22
4.32887e-22
1.0177e-21
3.81054e-23
1.83478e-21
7.11357e-22
-8.03078e-21
5.40328e-21
-1.40434e-20
-1.00872e-19
1.14388e-19
8.93481e-19
-7.36735e-19
1.13782e-18
-3.43755e-18
-3.30126e-17
2.05719e-17
7.00124e-17
9.49172e-18
7.17505e-17
-2.1618e-16
1.6548e-15
-2.18163e-16
3.81274e-15
4.87139e-15
4.60984e-15
-2.20024e-14
-8.15156e-15
-4.28496e-14
-2.66698e-14
-5.4345e-14
-1.6722e-14
4.93165e-14
-6.86507e-14
6.01137e-14
1.77373e-14
-2.90466e-14
4.61016e-14
-4.37007e-14
-3.51203e-14
4.51086e-14
-2.58319e-14
-1.128e-14
1.31423e-12
-1.52013e-15
-3.45921e-14
-3.46021e-14
5.63232e-14
1.93455e-14
2.04493e-14
-2.03326e-14
2.74021e-12
-1.56101e-11
-5.39139e-12
1.30094e-11
9.03919e-12
-6.76117e-12
5.27047e-12
-1.51883e-12
7.99073e-13
7.29317e-12
4.73132e-12
-6.70204e-13
6.77944e-14
-1.41747e-14
-9.40209e-14
-1.03786e-13
6.9424e-15
-9.30395e-14
0
0
0
0
-9.86076e-28
4.93038e-27
0
2.31728e-26
-2.95823e-26
9.86076e-27
-7.88861e-26
-5.91646e-27
-1.02552e-25
-4.28943e-25
1.88341e-25
9.17051e-25
8.5197e-25
2.17923e-25
-1.73599e-24
-2.76594e-24
-4.92052e-25
4.48813e-24
9.49789e-24
-1.14089e-23
-2.62316e-23
-1.05116e-23
2.69426e-23
5.20416e-23
4.7379e-23
1.24143e-22
-5.45576e-23
-4.10168e-23
6.4588e-24
3.48972e-23
-4.60821e-22
-7.75989e-22
3.98923e-22
1.61674e-21
-4.05794e-21
-4.13351e-20
6.77789e-20
-1.53057e-19
2.55677e-19
5.47717e-19
-3.0985e-18
-1.70773e-18
3.36576e-17
-4.24917e-17
1.35395e-16
-2.71046e-17
5.36543e-16
9.2605e-16
1.19269e-15
-3.43554e-15
-3.34761e-15
4.44391e-16
-1.31765e-14
1.87786e-14
2.28076e-14
2.06434e-14
5.17238e-14
-5.32628e-15
-3.31999e-14
9.50357e-16
2.04868e-14
1.16927e-15
6.342e-15
-6.92832e-14
-2.99249e-14
5.48172e-15
-4.62006e-14
-2.47785e-14
-4.77824e-14
2.12458e-15
9.11717e-12
4.02022e-14
-4.05088e-14
-1.98981e-15
-2.4205e-14
-2.79144e-15
1.48574e-15
4.95213e-15
-6.66338e-12
2.22582e-11
-8.91151e-12
-1.09284e-11
6.70496e-12
1.09649e-11
3.3348e-12
1.36244e-11
2.69626e-12
1.06376e-11
-2.41857e-12
5.6919e-14
6.1854e-14
1.23135e-13
-2.95007e-14
1.20792e-13
1.71854e-16
-4.84087e-15
0
0
0
0
0
0
0
0
3.9443e-27
-4.93038e-28
-7.88861e-27
-1.03538e-26
-5.27551e-26
-6.85323e-26
9.31842e-26
-1.40023e-25
-4.91066e-25
-1.98201e-25
7.17863e-25
8.99301e-25
5.54668e-25
6.24186e-25
3.51142e-24
-8.23374e-26
7.87382e-25
-7.69879e-24
-4.95996e-25
-1.42099e-23
-6.18319e-24
1.43104e-23
5.10428e-23
-2.50241e-23
7.57114e-23
1.90934e-23
-1.37035e-22
9.2663e-22
-1.59971e-21
3.57184e-22
6.58165e-21
-3.45751e-20
6.41977e-21
-1.04319e-19
6.61249e-19
1.02747e-19
-7.13014e-19
3.30576e-18
2.66031e-17
-4.38765e-17
-1.06796e-16
1.21422e-16
-4.3008e-16
-7.67383e-16
-1.68081e-15
-3.64141e-15
-3.21574e-15
4.90999e-15
1.30409e-14
-1.69065e-14
1.10125e-14
-5.60161e-14
6.81566e-14
3.45145e-14
1.42438e-14
3.17439e-14
2.53289e-14
3.46484e-14
-3.05e-14
-6.88214e-14
2.23996e-14
4.58543e-14
2.04877e-14
-4.05135e-14
-5.90067e-14
-5.70914e-14
3.00791e-13
7.15962e-15
3.50097e-14
-4.28936e-14
4.6201e-14
-2.29429e-14
-4.67584e-15
-4.34557e-15
2.38216e-12
4.43884e-12
-5.72982e-12
-4.17838e-12
1.7644e-12
-1.02063e-12
-3.16853e-12
1.59248e-13
3.81971e-12
4.17317e-12
4.00007e-12
5.04599e-14
6.17326e-14
-1.23109e-14
-7.77921e-14
4.99824e-14
-2.14286e-14
-7.75631e-15
0
0
0
0
0
0
0
0
-3.9443e-27
0
-1.18329e-26
7.88861e-27
5.62063e-26
2.76101e-26
-4.33873e-26
1.10441e-25
-3.74709e-25
7.64209e-26
2.07076e-25
-8.15978e-25
-9.43675e-25
-2.0116e-24
1.44805e-24
1.29669e-24
1.3529e-24
5.69508e-24
9.8223e-24
-1.27884e-23
3.21668e-23
1.89603e-23
-6.38228e-23
1.94868e-23
-9.44405e-23
2.52087e-22
4.69609e-23
1.93203e-21
-3.02619e-21
-4.1903e-21
1.09356e-20
-1.93176e-20
1.24882e-19
-1.89001e-19
-6.73695e-19
1.94472e-18
-1.79356e-18
-7.14372e-18
1.7379e-17
-2.67444e-17
-7.42424e-18
-2.37131e-17
-1.052e-16
3.20335e-16
1.12262e-15
3.201e-15
-8.00082e-15
-3.85052e-15
-1.6289e-14
-2.22712e-15
-2.10035e-14
-5.35891e-14
2.09429e-14
2.86296e-14
1.74439e-14
5.84823e-14
7.58509e-15
-9.33882e-16
-5.16569e-14
2.10014e-14
3.29092e-14
1.87443e-15
6.66629e-14
5.30433e-14
-4.53349e-14
5.14977e-15
2.81027e-13
-1.02301e-14
-3.49904e-14
-4.55535e-14
-5.8765e-14
-2.14428e-14
-7.29284e-15
-1.61232e-14
2.29014e-12
-1.34166e-11
7.84285e-12
1.22532e-11
9.70396e-12
1.02115e-11
5.69182e-12
4.69728e-12
4.9711e-12
9.43148e-13
-1.60022e-12
5.90628e-13
3.66851e-14
1.22937e-13
5.68517e-14
-7.65905e-14
-9.43548e-15
-8.59848e-14
0
0
0
0
0
-7.88861e-27
-6.40949e-27
4.93038e-27
-3.15544e-26
4.73317e-26
0
-2.36658e-26
-5.91646e-27
4.61484e-25
9.86076e-25
-4.5606e-25
-1.2888e-24
1.51954e-24
3.97832e-24
-3.88317e-24
5.8425e-24
5.38003e-24
-7.23385e-24
-1.21859e-23
5.10245e-24
2.92963e-23
-5.12365e-24
1.62614e-23
-5.26979e-23
-3.55766e-23
7.04689e-23
2.73222e-23
-2.52483e-22
2.04029e-23
9.75657e-22
-3.2294e-22
-4.04916e-21
-3.40152e-21
1.48308e-20
-1.17271e-21
-8.23011e-20
2.63641e-19
-3.42835e-19
-4.24196e-19
3.08878e-18
7.06325e-18
2.62385e-17
6.25047e-17
-7.03253e-17
-2.10481e-16
-1.30397e-17
-3.35451e-16
-1.95987e-15
-3.44795e-15
2.49387e-15
-8.31544e-15
1.70302e-14
-2.42606e-14
-2.90594e-14
-3.53079e-14
6.4301e-14
6.32647e-14
5.63776e-14
-4.753e-14
6.82092e-14
-1.5556e-14
-5.33435e-14
-4.77593e-14
4.03531e-15
3.61383e-14
4.97322e-14
2.43394e-14
1.51299e-15
-2.53974e-14
-3.21115e-12
-5.9772e-14
2.01817e-14
1.04806e-14
2.02177e-14
8.22461e-15
1.04766e-14
1.82318e-14
-2.85448e-12
1.89136e-11
-9.55091e-12
-1.04531e-11
-5.44841e-12
7.25874e-13
4.58576e-12
-7.50015e-12
8.12708e-13
3.27505e-12
-3.71665e-12
-2.25337e-14
-2.94833e-16
6.10203e-14
-1.098e-13
-1.03772e-13
1.38581e-13
8.52322e-14
0
0
0
-5.91646e-27
-8.87469e-27
-4.28943e-26
7.88861e-27
1.02552e-25
2.30742e-25
-2.85962e-25
9.11627e-25
7.94777e-25
-1.78233e-24
2.22459e-24
7.00114e-25
7.10862e-24
-3.95022e-24
-1.56096e-24
-3.20869e-24
1.2325e-23
1.42222e-23
2.63637e-23
3.40048e-23
-4.62864e-23
-7.44749e-23
-2.22898e-23
-5.0919e-23
-1.29047e-22
7.63144e-23
2.46239e-22
2.23286e-22
2.8651e-22
-4.3647e-22
1.97105e-22
-9.52465e-22
7.20987e-22
2.80749e-21
-7.15891e-21
-1.92626e-21
-2.27631e-20
-1.13117e-19
-1.15449e-19
-5.83825e-19
6.24083e-19
2.24644e-18
3.2448e-18
2.79682e-17
-6.70001e-17
1.27918e-16
-7.42832e-17
2.10734e-16
4.60524e-16
-7.1665e-16
3.48881e-15
-4.80713e-15
4.55784e-15
-6.16747e-15
-1.47356e-14
1.9336e-14
-1.9238e-14
3.57296e-15
-3.42741e-14
-2.50227e-14
5.45503e-14
5.40327e-14
3.83468e-14
-5.7061e-14
-3.14627e-14
-5.11106e-14
-1.29953e-14
-4.06183e-14
4.68583e-14
6.2151e-14
1.71024e-14
-4.11109e-12
-4.95682e-14
2.42672e-14
2.05831e-14
-1.82554e-14
4.14073e-15
1.19674e-14
-6.9522e-16
-4.84821e-12
-8.86949e-12
2.58304e-11
-6.36721e-12
-1.3794e-11
-1.87005e-11
-1.65163e-12
-9.5785e-13
5.41901e-12
5.37791e-12
2.4353e-12
5.11872e-14
5.77795e-14
-7.97469e-14
-1.98484e-14
-1.89127e-14
1.0186e-13
-8.23472e-14
-4.93038e-28
2.95823e-27
-7.39557e-27
2.5638e-26
1.08961e-25
4.38804e-26
-3.20475e-25
2.20881e-25
1.36917e-24
-1.87897e-24
-2.26009e-24
7.69337e-24
-7.69139e-25
-4.79775e-24
2.9919e-23
2.09428e-23
9.04429e-24
8.29635e-24
1.21865e-22
3.89165e-23
-7.99013e-23
-2.7688e-23
1.39313e-23
-4.3797e-22
2.96093e-22
1.02298e-22
9.63613e-23
-6.71826e-22
5.35286e-22
-5.1412e-22
-8.29441e-22
4.40097e-22
-1.34627e-21
7.009e-22
3.97293e-22
-3.04658e-21
6.43727e-21
-5.04893e-21
1.80759e-21
-3.16198e-20
1.29547e-19
1.59049e-19
1.04512e-18
3.35404e-19
-2.63032e-18
-3.57232e-18
-3.06891e-17
-7.30184e-18
-7.6531e-17
4.47184e-17
4.10292e-16
6.18239e-16
3.10812e-17
-2.80044e-15
1.22687e-15
1.90396e-15
1.65115e-14
-4.8137e-15
2.85327e-14
6.40576e-14
4.92209e-15
2.46697e-14
2.10755e-14
4.06586e-15
5.02336e-14
4.86296e-14
3.42464e-15
4.76396e-15
5.00142e-14
4.3329e-14
4.6179e-14
4.88134e-14
-1.12987e-14
3.59917e-14
2.59063e-12
-2.30159e-15
-6.19157e-14
4.99715e-14
-2.26174e-14
-2.21963e-14
-3.2326e-14
1.61131e-14
1.08648e-11
1.85913e-11
1.77483e-11
3.37081e-12
5.53699e-12
7.69477e-12
-8.67323e-13
-2.61852e-12
-4.22379e-12
-1.35937e-12
7.4863e-12
3.85488e-13
-2.33141e-14
1.19249e-13
-8.55813e-14
-7.44802e-14
-6.70509e-14
5.75891e-15
1.18329e-26
-2.66241e-26