/*--------------------------------*- C++ -*----------------------------------*\
  =========                 |
  \\      /  F ield         | OpenFOAM: The Open Source CFD Toolbox
   \\    /   O peration     | Website:  https://openfoam.org
    \\  /    A nd           | Version:  10
     \\/     M anipulation  |
\*---------------------------------------------------------------------------*/
FoamFile
{
    format      ascii;
    class       volScalarField;
    location    "1";
    object      RR.NC12H26;
}
// * * * * * * * * * * * * * * * * * * * * * * * * * * * * * * * * * * * * * //

dimensions      [1 -3 -1 0 0 0 0];

internalField   nonuniform List<scalar> 
4000
(
-7.69361e-13
-3.17501e-13
-5.27109e-13
2.2257e-13
7.56797e-14
-2.61927e-13
1.6693e-13
1.85475e-14
-2.05422e-13
-2.69409e-13
-7.25665e-14
2.57577e-13
-3.31853e-14
-5.01942e-14
-2.19272e-13
4.19537e-13
1.24816e-13
2.75963e-13
-2.0054e-13
1.13979e-13
2.77886e-13
-1.88934e-13
6.85943e-13
1.0808e-12
-3.24014e-13
1.2118e-13
-4.71657e-13
-3.43911e-13
-3.86484e-14
5.20006e-13
6.95196e-13
-7.18173e-13
-9.3049e-14
-2.80636e-14
6.68329e-13
8.5443e-13
7.04165e-13
1.43427e-13
5.06563e-13
-7.64378e-13
8.61417e-12
-1.10721e-11
-2.31672e-11
-3.16282e-11
-1.05201e-10
-2.6859e-10
-7.24557e-10
-1.93148e-09
-5.05198e-09
-1.29543e-08
-3.33353e-08
-8.87534e-08
-2.2427e-07
-6.64153e-07
-2.10346e-06
-6.73696e-06
-2.03299e-05
-6.06024e-05
-0.000168354
-0.000435847
-0.00107734
-0.00252563
-0.00584877
-0.0119716
-0.0205407
-0.0319016
-0.052577
-0.104567
-0.244171
-0.589469
-1.41527
-3.41701
-7.97972
-15.0735
-19.1677
-12.5506
-5.38897
-2.38609
-1.09703
-0.519907
-0.254138
-0.127625
-0.0657587
-0.0347357
-0.0187789
-0.0103612
-0.0057719
-0.00321433
-0.00177304
-0.00096092
-0.000508411
-0.000254056
-0.000123141
-5.6545e-05
-2.47392e-05
-9.16662e-06
-2.27751e-06
-5.00478e-07
-9.38201e-08
-6.0697e-09
-4.22679e-13
4.43867e-13
-7.7598e-13
-1.03671e-12
-9.9084e-13
5.05827e-13
5.28025e-13
-3.35039e-13
-5.23068e-13
2.62125e-13
4.61103e-13
-7.73403e-15
-1.83418e-13
-4.7065e-13
-3.83193e-13
1.34174e-13
-9.94224e-13
9.87385e-13
-2.04061e-13
-1.04578e-12
-7.86816e-13
9.09938e-13
7.82734e-13
-2.80354e-13
-1.8369e-14
1.16247e-13
1.07156e-12
-7.94542e-13
7.3792e-13
-5.53269e-13
-2.24999e-13
6.78931e-13
-4.92068e-13
-8.38298e-14
1.09409e-12
-5.93276e-13
4.59442e-13
1.06182e-12
-1.78902e-14
-1.0016e-13
8.82337e-12
-1.79224e-12
-1.65678e-11
-5.41599e-11
-1.3815e-10
-3.66565e-10
-9.8724e-10
-2.55781e-09
-6.55262e-09
-1.68486e-08
-4.05077e-08
-9.56251e-08
-2.63574e-07
-7.68709e-07
-2.40639e-06
-7.71942e-06
-2.22411e-05
-6.39873e-05
-0.000173204
-0.000439065
-0.00107425
-0.00250198
-0.00576126
-0.0117598
-0.0201564
-0.0312465
-0.0509694
-0.100299
-0.232427
-0.560517
-1.35484
-3.28133
-7.73332
-14.8888
-19.3657
-12.9403
-5.55123
-2.45097
-1.12409
-0.531552
-0.259189
-0.129936
-0.0668673
-0.0352647
-0.0190315
-0.0104822
-0.00582787
-0.00323815
-0.00178184
-0.000962598
-0.000507318
-0.000252406
-0.0001217
-5.55865e-05
-2.4214e-05
-8.71238e-06
-2.13009e-06
-4.69951e-07
-8.84687e-08
-5.73298e-09
-1.73345e-12
4.38767e-13
-1.98232e-13
7.46373e-13
6.05433e-13
-7.41228e-13
7.94884e-13
-4.95592e-13
1.96011e-14
1.19958e-13
-8.65181e-13
-7.56394e-13
-5.24829e-13
9.00158e-13
-1.07367e-12
5.36155e-13
-5.44279e-14
-9.99781e-13
-9.09287e-13
-9.76657e-13
-7.67574e-13
3.00553e-13
2.11331e-13
-8.56213e-14
5.60831e-13
4.7127e-13
-3.33885e-13
9.30242e-13
1.05402e-12
-9.92232e-13
7.70066e-13
1.06326e-12
3.77175e-13
1.84637e-13
1.00736e-12
-6.37028e-13
-7.30515e-13
8.52443e-13
-2.95975e-13
8.54009e-13
-1.19419e-11
-1.25246e-12
-2.71255e-11
-6.95766e-11
-1.7641e-10
-4.5968e-10
-1.18282e-09
-3.04926e-09
-7.61987e-09
-1.93074e-08
-4.6005e-08
-1.10814e-07
-3.07261e-07
-9.23443e-07
-2.78529e-06
-8.24759e-06
-2.32073e-05
-6.58583e-05
-0.00017619
-0.000442697
-0.00107454
-0.00248979
-0.00570333
-0.0115903
-0.0198466
-0.0307118
-0.0496254
-0.0961317
-0.221931
-0.537256
-1.30501
-3.1582
-7.50569
-14.6882
-19.5499
-13.3653
-5.7314
-2.52348
-1.15465
-0.544991
-0.265484
-0.132892
-0.0682736
-0.0359098
-0.0193434
-0.0106344
-0.0059002
-0.00327059
-0.00179384
-0.000964517
-0.000505503
-0.000250114
-0.000119811
-5.43654e-05
-2.35502e-05
-8.17633e-06
-1.97691e-06
-4.37685e-07
-8.29426e-08
-5.39211e-09
-1.25309e-12
-1.66632e-12
-1.95192e-12
7.39024e-13
-1.01929e-13
1.86735e-13
9.18992e-13
-2.94385e-13
-2.87371e-13
-1.09157e-13
-2.08748e-13
-7.81408e-13
-6.73302e-13
1.03501e-13
6.53098e-13
-1.32038e-13
-5.10388e-13
-9.35003e-13
7.01946e-13
-3.80471e-13
-8.92338e-13
9.69732e-13
-4.01582e-14
8.4523e-13
6.83402e-13
-1.49535e-13
4.16949e-13
6.11854e-13
-4.02321e-14
-2.39342e-13
-3.74992e-13
3.39856e-13
4.13257e-13
4.3782e-13
-5.24971e-13
-5.86935e-13
-3.48086e-13
-1.60669e-12
1.88742e-12
1.49427e-12
-1.13776e-11
-1.20203e-11
-3.99911e-11
-8.20127e-11
-2.05654e-10
-5.31006e-10
-1.39912e-09
-3.50673e-09
-8.89819e-09
-2.0692e-08
-4.876e-08
-1.30457e-07
-3.67783e-07
-1.07371e-06
-3.18242e-06
-8.5751e-06
-2.41141e-05
-6.76356e-05
-0.000178916
-0.000444642
-0.00107229
-0.00247365
-0.00564527
-0.0114551
-0.019608
-0.0303005
-0.0485946
-0.0931158
-0.213445
-0.516946
-1.25811
-3.04475
-7.30522
-14.509
-19.6952
-13.6503
-5.86554
-2.58344
-1.18225
-0.557925
-0.271587
-0.135907
-0.0699759
-0.0362596
-0.0195561
-0.0107539
-0.00596289
-0.0033018
-0.00181155
-0.000960607
-0.000501653
-0.000247493
-0.000117951
-5.32279e-05
-2.29055e-05
-7.67535e-06
-1.84231e-06
-4.09782e-07
-7.80829e-08
-5.09098e-09
-1.76179e-12
1.82043e-12
-2.13009e-12
3.48837e-13
-1.88967e-12
-3.63722e-13
-6.58956e-13
-4.88708e-13
1.72183e-12
1.71282e-12
7.311e-13
2.81246e-13
5.78723e-13
-5.80393e-13
9.41639e-13
1.86758e-13
1.0408e-12
1.83202e-13
-3.0758e-13
-2.58048e-13
5.01281e-13
1.66474e-13
9.12417e-13
-6.72344e-13
2.20557e-13
2.91508e-13
-3.22402e-14
8.64548e-13
-7.51185e-13
-3.63295e-13
2.13811e-12
1.16309e-12
1.78063e-12
-2.21316e-12
1.77663e-12
-1.76329e-12
-1.64226e-12
-1.52959e-12
2.92535e-14
7.84783e-13
-9.7101e-12
-1.48511e-11
-2.83562e-11
-9.37052e-11
-2.41429e-10
-6.15804e-10
-1.57235e-09
-4.0393e-09
-9.32215e-09
-2.14549e-08
-5.49166e-08
-1.46252e-07
-4.1833e-07
-1.25637e-06
-3.33253e-06
-8.95944e-06
-2.50334e-05
-6.92404e-05
-0.000181128
-0.000447258
-0.00107284
-0.00246686
-0.00561202
-0.0113621
-0.0194297
-0.0299878
-0.0479019
-0.0910277
-0.207712
-0.5026
-1.22552
-2.96859
-7.15614
-14.3724
-19.841
-13.9818
-6.00716
-2.64254
-1.20772
-0.569171
-0.276818
-0.138432
-0.0712367
-0.0369004
-0.0198813
-0.0109198
-0.006046
-0.00334136
-0.00182843
-0.000966951
-0.000502751
-0.000247227
-0.000117225
-5.26323e-05
-2.25043e-05
-7.31603e-06
-1.74662e-06
-3.90066e-07
-7.4413e-08
-4.89146e-09
-1.83067e-12
-2.01204e-12
-1.07342e-12
-1.63153e-12
5.82278e-13
2.08747e-12
-1.98538e-12
5.90321e-13
-7.35788e-13
9.58343e-13
-1.04603e-12
-1.72799e-12
1.4257e-12
4.97017e-13
-4.47328e-13
1.48501e-12
-8.46277e-13
2.1169e-12
1.8396e-12
-1.46269e-12
1.58715e-12
-1.76368e-13
1.06288e-12
-5.30426e-13
-1.04565e-12
-2.15482e-12
-2.19614e-13
-7.00587e-13
3.18368e-13
-7.06954e-14
5.06723e-13
9.41312e-13
2.8572e-13
-1.15867e-14
-1.98186e-12
-8.47977e-13
2.11463e-12
-1.77795e-12
1.05211e-12
9.16532e-12
-1.3489e-11
-2.35316e-11
-4.00384e-11
-1.0818e-10
-2.7213e-10
-6.95413e-10
-1.79648e-09
-4.21711e-09
-9.76158e-09
-2.3719e-08
-6.05362e-08
-1.61658e-07
-4.53847e-07
-1.34942e-06
-3.55352e-06
-9.39871e-06
-2.57512e-05
-7.06462e-05
-0.000182778
-0.000448243
-0.00107051
-0.00245542
-0.00557417
-0.0112758
-0.0192901
-0.0297749
-0.0473619
-0.0892244
-0.202505
-0.490931
-1.20074
-2.9083
-7.04212
-14.2775
-19.933
-14.2244
-6.11691
-2.68826
-1.22777
-0.578449
-0.281196
-0.140577
-0.0723046
-0.0374825
-0.0201919
-0.0110848
-0.0061318
-0.00338405
-0.00184796
-0.000975847
-0.000505706
-0.000248225
-0.000117242
-5.24393e-05
-2.2292e-05
-7.08421e-06
-1.68572e-06
-3.77452e-07
-7.22341e-08
-4.75564e-09
1.08428e-13
-1.83038e-12
2.563e-13
-1.89918e-12
-1.37421e-12
-9.69964e-13
4.7287e-13
2.38571e-13
-7.78563e-13
-2.81276e-13
-5.82268e-13
1.83321e-12
1.50877e-12
-1.49828e-12
-3.64552e-13
-1.76931e-12
2.37602e-13
-4.17526e-13
-6.60262e-13
1.42076e-12
5.91035e-13
1.22513e-12
1.46888e-12
-1.92451e-12
2.8316e-13
-1.54997e-12
-1.85887e-12
1.41435e-12
-1.33805e-12
-4.54415e-13
1.6398e-12
1.89944e-12
1.63689e-12
-1.26523e-12
3.27578e-13
2.92207e-13
-2.00117e-12
8.42907e-13
-1.66175e-14
8.77187e-12
-2.84934e-12
-2.71779e-11
-4.22875e-11
-1.22969e-10
-3.1096e-10
-7.66892e-10
-1.91674e-09
-4.28336e-09
-1.0477e-08
-2.57615e-08
-6.48899e-08
-1.72058e-07
-4.80085e-07
-1.41569e-06
-3.70266e-06
-9.73037e-06
-2.63214e-05
-7.15018e-05
-0.000183746
-0.000448155
-0.00106633
-0.00244072
-0.00553173
-0.011188
-0.0191515
-0.0295733
-0.0469065
-0.0877684
-0.198536
-0.481127
-1.17854
-2.85423
-6.93496
-14.1732
-20.0047
-14.4546
-6.22535
-2.73394
-1.24797
-0.587645
-0.285559
-0.142711
-0.0733758
-0.0380614
-0.0205021
-0.0112514
-0.00622023
-0.00342953
-0.00187
-0.000986574
-0.000510041
-0.000250086
-0.000117794
-5.25449e-05
-2.2232e-05
-6.9488e-06
-1.65e-06
-3.70315e-07
-7.10219e-08
-4.68077e-09
5.34312e-13
1.92943e-12
1.77839e-12
-1.47256e-12
1.42585e-14
-1.88054e-12
-2.30648e-13
-1.98121e-12
-1.19509e-12
-1.45575e-12
-2.03758e-12
-1.89831e-12
1.66618e-12
2.76754e-13
6.77938e-13
-1.87099e-12
-2.55893e-13
4.55988e-13
2.08608e-12
1.06859e-12
1.28375e-12
-1.11704e-13
1.12641e-12
-2.36072e-13
-2.01595e-12
2.75254e-13
7.93355e-13
-8.18888e-14
-8.72931e-13
6.85097e-14
-9.49256e-13
9.62747e-13
-3.56418e-13
-3.92985e-13
1.50844e-12
-1.38364e-12
-3.07068e-13
3.99522e-13
4.56524e-13
-1.05554e-11
-1.81974e-12
-1.46551e-11
-5.42952e-11
-1.36676e-10
-3.42879e-10
-8.63233e-10
-1.99524e-09
-4.63923e-09
-1.13053e-08
-2.76775e-08
-6.99343e-08
-1.83336e-07
-5.06639e-07
-1.47903e-06
-3.83546e-06
-9.98418e-06
-2.67415e-05
-7.20346e-05
-0.000183872
-0.000446292
-0.00105857
-0.00241934
-0.00547668
-0.0110892
-0.0189959
-0.0293218
-0.0464143
-0.0863374
-0.194572
-0.471261
-1.15575
-2.79879
-6.81878
-14.0477
-20.0578
-14.7022
-6.34139
-2.78292
-1.26968
-0.597397
-0.290187
-0.144976
-0.0745153
-0.0386649
-0.0208246
-0.0114255
-0.00631379
-0.00347879
-0.00189492
-0.00099911
-0.000515668
-0.000252676
-0.000118789
-5.28925e-05
-2.23073e-05
-6.89075e-06
-1.63461e-06
-3.6731e-07
-7.05514e-08
-4.65313e-09
-6.36957e-13
3.92105e-13
8.3762e-13
-1.9739e-12
-1.33339e-12
-1.77188e-12
1.10682e-12
4.96372e-13
1.96629e-12
-1.23392e-12
-2.20716e-13
1.14174e-13
1.32773e-12
2.18305e-13
-1.315e-12
2.20873e-12
-2.96573e-14
1.49185e-12
-7.13911e-13
2.21224e-12
-1.91991e-12
2.15163e-12
-2.01227e-12
1.917e-12
1.27489e-12
-4.39575e-13
9.36107e-14
2.42683e-13
-4.64555e-13
-2.21023e-12
7.36083e-13
1.35908e-12
1.79775e-12
-1.11349e-12
-5.84614e-13
-1.68493e-12
1.04594e-12
-1.55907e-13
1.37975e-12
-1.04369e-11
-3.78881e-12
-3.69505e-11
-5.82944e-11
-1.4914e-10
-3.64171e-10
-8.34266e-10
-2.0797e-09
-5.03633e-09
-1.21383e-08
-2.97094e-08
-7.41215e-08
-1.92688e-07
-5.28549e-07
-1.52999e-06
-3.93177e-06
-1.01585e-05
-2.69901e-05
-7.21718e-05
-0.000183114
-0.00044252
-0.00104606
-0.00238433
-0.00539542
-0.0109335
-0.0187818
-0.0290466
-0.0457808
-0.0846628
-0.189679
-0.459591
-1.12697
-2.72847
-6.68187
-13.8955
-20.094
-14.9699
-6.46999
-2.83703
-1.29381
-0.608148
-0.295286
-0.147465
-0.0757663
-0.0393121
-0.0211683
-0.011611
-0.00641413
-0.00353242
-0.00192284
-0.00101338
-0.000522473
-0.000255897
-0.000120157
-5.34385e-05
-2.24774e-05
-6.89445e-06
-1.63445e-06
-3.67543e-07
-7.06609e-08
-4.66245e-09
-1.89662e-12
1.52509e-12
-7.50597e-13
-8.43437e-13
6.76226e-14
-7.77189e-13
1.40804e-12
7.05402e-13
3.94102e-13
5.7308e-13
-2.15788e-13
2.08133e-12
7.16103e-13
4.46915e-13
-1.18678e-14
1.39326e-12
1.06882e-13
-1.0367e-12
1.79088e-13
7.09916e-13
9.88591e-13
-1.45213e-12
-7.02878e-13
1.68621e-12
2.26062e-13
1.58397e-12
-1.09788e-12
-1.47082e-13
-6.09026e-13
-4.5493e-13
2.02377e-12
2.13616e-12
1.1504e-12
-1.36759e-12
3.74326e-13
-3.23969e-13
1.12764e-12
-7.74264e-14
-1.87433e-12
-9.61079e-12
-2.06863e-11
-2.72686e-11
-7.76305e-11
-1.60211e-10
-3.70425e-10
-9.1856e-10
-2.23575e-09
-5.40233e-09
-1.30107e-08
-3.15403e-08
-7.82141e-08
-2.02116e-07
-5.49393e-07
-1.56291e-06
-3.9958e-06
-1.02834e-05
-2.71006e-05
-7.20032e-05
-0.000181807
-0.00043793
-0.0010328
-0.00234921
-0.00530221
-0.0107701
-0.0185469
-0.0287115
-0.0451378
-0.0829682
-0.184961
-0.447451
-1.08104
-2.6634
-6.54069
-13.7103
-20.0909
-15.2753
-6.62476
-2.90198
-1.32198
-0.620369
-0.300987
-0.150213
-0.0771351
-0.0400029
-0.0215298
-0.0118059
-0.00651996
-0.00358955
-0.00195316
-0.001029
-0.000530199
-0.00025961
-0.000121813
-5.41384e-05
-2.27397e-05
-6.94607e-06
-1.64597e-06
-3.7025e-07
-7.12125e-08
-4.69994e-09
5.66288e-13
-1.1888e-12
-7.58737e-13
2.06976e-12
1.17173e-12
-2.15617e-12
-2.13425e-12
6.03905e-13
-1.76948e-12
3.5268e-13
-7.19772e-13
5.37769e-13
-1.33973e-12
3.25583e-13
1.34725e-12
3.96213e-13
-2.19979e-12
6.67974e-13
1.25424e-12
1.31835e-12
2.11137e-13
2.16958e-12
6.2087e-13
-1.80976e-12
1.81744e-12
-1.02898e-13
2.16412e-12
-1.0794e-12
8.34489e-14
-7.18981e-13
-1.20736e-12
5.03531e-13
2.15771e-12
-2.0698e-13
5.52649e-13
-1.65632e-12
-7.98273e-13
-1.81229e-12
-1.48358e-12
-1.23087e-11
-1.25715e-11
-2.56439e-11
-6.94641e-11
-1.73734e-10
-3.86734e-10
-9.95496e-10
-2.40036e-09
-5.78828e-09
-1.38897e-08
-3.36176e-08
-8.34739e-08
-2.16435e-07
-5.95696e-07
-1.56856e-06
-4.03795e-06
-1.03545e-05
-2.70788e-05
-7.15138e-05
-0.000179719
-0.000430737
-0.0010131
-0.00230241
-0.00520978
-0.0106044
-0.0183135
-0.0283882
-0.0444993
-0.0811993
-0.180383
-0.436356
-1.05417
-2.5961
-6.38655
-13.5083
-20.086
-15.5786
-6.78095
-2.96653
-1.35047
-0.632834
-0.306844
-0.153049
-0.0785529
-0.040714
-0.0219065
-0.0120072
-0.00662898
-0.00364867
-0.00198509
-0.00104556
-0.000538585
-0.000263664
-0.000123673
-5.49485e-05
-2.30659e-05
-7.03284e-06
-1.66594e-06
-3.74738e-07
-7.20818e-08
-4.75765e-09
-1.89077e-12
-2.19942e-12
-6.42625e-13
-6.9569e-13
-1.09917e-12
1.90238e-12
6.18073e-13
-5.95797e-13
-7.2141e-14
-6.94669e-13
-1.23384e-12
1.00742e-12
3.3516e-13
1.13782e-12
-1.08103e-12
7.86383e-13
1.72082e-12
-1.1085e-12
1.48623e-12
-1.36813e-12
1.78965e-12
1.62605e-12
-2.72497e-13
-1.98468e-12
-2.19313e-12
1.13021e-12
-6.82349e-13
-2.02762e-12
2.04392e-12
-1.54229e-12
-2.39127e-13
1.15875e-12
9.00603e-13
2.16205e-12
1.34826e-13
-1.46198e-12
-1.0295e-12
-1.23469e-12
1.43289e-14
-9.60581e-12
-1.37562e-11
-1.83023e-11
-6.11745e-11
-1.65993e-10
-4.16106e-10
-1.06002e-09
-2.5498e-09
-6.12562e-09
-1.46313e-08
-3.53396e-08
-8.7631e-08
-2.27104e-07
-6.22496e-07
-1.55783e-06
-4.0705e-06
-1.03934e-05
-2.69671e-05
-7.08827e-05
-0.000177416
-0.000424806
-0.000996402
-0.00226061
-0.00510397
-0.0104309
-0.0180773
-0.0280699
-0.043893
-0.0795233
-0.175828
-0.425941
-1.02451
-2.52376
-6.23207
-13.3062
-20.0592
-15.8694
-6.93493
-3.0319
-1.37927
-0.645392
-0.312696
-0.155872
-0.0799651
-0.0414198
-0.0222802
-0.0122115
-0.00674162
-0.00371061
-0.00201845
-0.00106281
-0.000547487
-0.000268031
-0.000125724
-5.58528e-05
-2.34423e-05
-7.1449e-06
-1.69171e-06
-3.80411e-07
-7.31595e-08
-4.82866e-09
6.69096e-13
-1.27173e-12
7.5062e-13
-5.23399e-13
1.18211e-12
1.01412e-12
-5.40349e-13
1.09072e-12
1.43212e-13
-1.37934e-12
8.49467e-13
-5.76229e-13
1.51131e-12
-1.66909e-12
-3.56685e-14
-6.91935e-13
-1.52253e-12
-1.92044e-13
-4.69096e-13
2.65838e-13
-1.13926e-12
-2.00096e-14
1.10382e-12
-2.03355e-12
1.96375e-12
7.43529e-13
-2.43255e-13
1.71673e-12
-7.19259e-13
-2.28024e-13
-2.63333e-13
-1.18886e-12
9.7105e-13
7.32009e-13
1.28871e-12
1.50805e-12
-1.09402e-12
4.05625e-13
-1.08528e-12
-1.10328e-11
-1.5627e-11
-3.84338e-11
-7.20313e-11
-1.81192e-10
-4.51851e-10
-1.09383e-09
-2.66703e-09
-6.37304e-09
-1.51228e-08
-3.63167e-08
-8.95537e-08
-2.30635e-07
-6.26802e-07
-1.54927e-06
-4.11355e-06
-1.04174e-05
-2.6803e-05
-7.00638e-05
-0.000174892
-0.000417865
-0.000980319
-0.00221977
-0.00500716
-0.0102581
-0.0178348
-0.0277404
-0.0432784
-0.0778549
-0.171149
-0.414539
-0.997743
-2.45969
-6.08541
-13.0928
-20.0008
-16.1704
-7.10349
-3.10107
-1.40918
-0.658313
-0.318814
-0.158846
-0.0814524
-0.0421451
-0.0226597
-0.0124159
-0.0068535
-0.00377216
-0.00205236
-0.00108052
-0.000556633
-0.000272443
-0.000127792
-5.67729e-05
-2.38353e-05
-7.27321e-06
-1.722e-06
-3.87117e-07
-7.44274e-08
-4.91164e-09
-1.71071e-12
-2.08562e-12
-1.40587e-12
-1.02846e-12
-1.80496e-12
1.98921e-12
1.06176e-12
-7.21236e-13
-8.33988e-13
2.18361e-12
-1.10061e-12
6.63859e-13
-1.08688e-12
1.20556e-12
2.18873e-12
-1.01604e-12
-1.60674e-12
-1.3517e-12
-1.01016e-12
3.92188e-13
1.37032e-12
9.7489e-13
1.04967e-12
-5.12126e-13
1.8036e-12
-1.38231e-12
-1.20689e-12
1.8475e-12
-1.95655e-12
3.50453e-13
-4.3971e-13
-2.06922e-12
-2.07823e-12
-1.20561e-12
4.39174e-13
-1.56308e-12
-1.77636e-12
-1.92707e-12
7.84571e-14
-1.33115e-11
-1.41126e-11
-3.71782e-11
-8.05301e-11
-1.82198e-10
-4.73182e-10
-1.14576e-09
-2.7563e-09
-6.54205e-09
-1.54745e-08
-3.6966e-08
-9.0728e-08
-2.3258e-07
-6.27677e-07
-1.54004e-06
-4.14069e-06
-1.04226e-05
-2.6628e-05
-6.93436e-05
-0.000172669
-0.000411249
-0.000962376
-0.00217744
-0.00491764
-0.0100971
-0.0176117
-0.0274387
-0.0427143
-0.0764526
-0.167053
-0.404137
-0.973303
-2.39681
-5.94587
-12.8926
-19.9382
-16.4491
-7.26544
-3.16799
-1.43879
-0.671235
-0.324831
-0.161744
-0.0828949
-0.0428541
-0.0230288
-0.0126139
-0.00696155
-0.00383147
-0.00208487
-0.00109746
-0.00056551
-0.000276803
-0.000129877
-5.77145e-05
-2.42522e-05
-7.40991e-06
-1.75383e-06
-3.94065e-07
-7.57276e-08
-4.99649e-09
1.33657e-12
-1.89105e-12
-1.05887e-12
-2.09725e-12
-1.42803e-12
6.4011e-13
1.94475e-12
-5.99945e-13
-8.82791e-13
-1.21255e-12
1.80216e-12
-5.46636e-13
2.15533e-12
-3.7625e-13
2.17069e-13
1.91703e-12
-1.05261e-12
1.86933e-14
-5.89709e-13
1.33691e-12
-4.52503e-14
5.31401e-13
-1.81899e-12
-1.8932e-12
-1.78951e-12
-1.99445e-12
5.52837e-13
1.18332e-12
-8.67979e-13
6.64306e-13
-2.03881e-12
-1.86745e-12
-1.21321e-13
-2.1564e-12
1.70691e-12
7.78572e-13
8.44446e-13
4.57935e-13
1.71325e-12
-9.20581e-12
-1.3125e-11
-3.16961e-11
-8.26025e-11
-1.92869e-10
-4.89116e-10
-1.1858e-09
-2.82318e-09
-6.68085e-09
-1.57455e-08
-3.74843e-08
-9.16439e-08
-2.33771e-07
-6.27577e-07
-1.53192e-06
-4.15215e-06
-1.0401e-05
-2.63975e-05
-6.854e-05
-0.000170219
-0.00040519
-0.000946544
-0.00213875
-0.00482896
-0.0099485
-0.017405
-0.0271614
-0.0422042
-0.0751028
-0.163244
-0.394816
-0.951555
-2.34241
-5.81994
-12.7026
-19.873
-16.7038
-7.41874
-3.23188
-1.46653
-0.683214
-0.330399
-0.164416
-0.0842208
-0.0434997
-0.0233649
-0.0127943
-0.00706005
-0.00388561
-0.0021146
-0.00111295
-0.000573608
-0.000280759
-0.000131769
-5.85685e-05
-2.46204e-05
-7.53839e-06
-1.78396e-06
-4.00644e-07
-7.69571e-08
-5.07668e-09
-4.28027e-13
-3.00766e-13
2.01666e-12
-2.0115e-12
1.40589e-12
1.27541e-12
1.5825e-12
2.12841e-12
-1.23687e-12
1.16306e-12
7.87377e-13
1.74517e-13
1.39904e-12
1.53026e-12
-1.09051e-12
-1.3073e-12
1.29111e-13
1.46196e-12
1.9431e-12
-2.13384e-12
2.07664e-12
-2.17012e-12
-9.42956e-15
1.14586e-12
-2.10824e-12
-1.10673e-12
-1.43714e-12
-5.25974e-14
-2.19293e-13
1.35566e-12
-3.90435e-13
8.09604e-13
-3.79172e-13
-1.44999e-12
-2.80082e-13
-1.07299e-12
5.04143e-13
-1.72587e-12
8.42844e-12
-1.34936e-11
-1.28752e-11
-2.76902e-11
-9.24903e-11
-2.03845e-10
-5.02406e-10
-1.2126e-09
-2.87558e-09
-6.77852e-09
-1.59255e-08
-3.78217e-08
-9.22117e-08
-2.34456e-07
-6.27096e-07
-1.52483e-06
-4.15639e-06
-1.03716e-05
-2.61816e-05
-6.77487e-05
-0.000168028
-0.000399457
-0.000932783
-0.0021064
-0.0047563
-0.00982584
-0.0172299
-0.0269263
-0.0417837
-0.0740293
-0.160217
-0.386766
-0.933043
-2.29679
-5.71208
-12.5414
-19.811
-16.9177
-7.552
-3.28692
-1.49045
-0.693553
-0.335198
-0.166703
-0.0853592
-0.0440535
-0.0236532
-0.0129492
-0.00714466
-0.00393218
-0.00214024
-0.00112634
-0.000580699
-0.000284219
-0.000133432
-5.93228e-05
-2.49505e-05
-7.65422e-06
-1.81098e-06
-4.0651e-07
-7.80485e-08
-5.14771e-09
1.62536e-12
7.62148e-13
-8.5607e-13
1.31988e-13
-1.9e-12
6.3849e-13
-2.54492e-13
-2.06428e-12
-2.16091e-12
1.77517e-12
9.30811e-13
4.78838e-13
-7.61027e-13
-1.55343e-12
2.09368e-12
6.80071e-13
8.3425e-13
1.56723e-12
4.05566e-13
-1.06071e-12
1.15463e-12
2.02128e-12
-4.94053e-14
1.02733e-12
5.62982e-13
9.72343e-13
1.07211e-12
-9.5592e-13
2.77163e-13
-1.18885e-12
1.94428e-12
-1.78305e-12
9.15241e-13
8.07615e-13
1.13452e-12
4.00252e-13
-2.1614e-12
1.49575e-12
9.03325e-12
-1.14014e-11
-1.15503e-11
-2.97529e-11
-9.3128e-11
-1.95255e-10
-5.05992e-10
-1.22454e-09
-2.91321e-09
-6.85134e-09
-1.60825e-08
-3.80806e-08
-9.26504e-08
-2.34958e-07
-6.26656e-07
-1.51951e-06
-4.15617e-06
-1.03416e-05
-2.59956e-05
-6.71614e-05
-0.000166413
-0.000395311
-0.000922437
-0.00208021
-0.00469556
-0.00971631
-0.0170806
-0.0267281
-0.0414288
-0.0731199
-0.157616
-0.380443
-0.918446
-2.2609
-5.63004
-12.4144
-19.7568
-17.0826
-7.65841
-3.33084
-1.50953
-0.701809
-0.33904
-0.168555
-0.0862751
-0.0444974
-0.0238838
-0.0130728
-0.00721221
-0.00396938
-0.00216074
-0.00113704
-0.000586347
-0.000286966
-0.000134746
-5.99164e-05
-2.52207e-05
-7.74798e-06
-1.833e-06
-4.11294e-07
-7.89378e-08
-5.20556e-09
0
1.94995e-12
1.40896e-12
-7.55013e-13
1.95708e-12
1.53141e-12
5.69496e-13
-5.83321e-14
4.12427e-13
1.12328e-12
2.44315e-13
-1.77514e-12
1.37118e-12
-1.55059e-12
1.20168e-12
5.81571e-13
-1.8232e-12
1.43891e-12
2.1374e-12
-1.10892e-12
-1.20435e-12
-7.84473e-13
2.10139e-12
4.51051e-13
3.49124e-13
-1.88207e-12
-1.79656e-12
-2.98003e-13
-1.50366e-13
-1.17062e-12
-4.0175e-13
-1.74316e-12
-1.75085e-12
-5.60331e-13
1.05364e-12
2.62483e-13
-7.2719e-13
-2.51464e-13
9.11496e-12
-1.14022e-11
-1.46714e-11
-3.1565e-11
-9.4829e-11
-2.17964e-10
-5.08302e-10
-1.24575e-09
-2.93395e-09
-6.9042e-09
-1.618e-08
-3.82734e-08
-9.2957e-08
-2.35354e-07
-6.26445e-07
-1.51598e-06
-4.15532e-06
-1.03197e-05
-2.58682e-05
-6.67407e-05
-0.000165244
-0.000392323
-0.000915056
-0.00206236
-0.0046546
-0.00964383
-0.0169795
-0.0265913
-0.0411849
-0.072505
-0.155861
-0.376163
-0.908853
-2.23693
-5.57149
-12.3248
-19.7167
-17.1974
-7.73419
-3.36206
-1.52307
-0.707661
-0.341755
-0.169854
-0.0869185
-0.0448094
-0.0240459
-0.0131598
-0.00725976
-0.00399557
-0.0021752
-0.00114459
-0.000590344
-0.000288917
-0.000135686
-6.03446e-05
-2.541e-05
-7.81548e-06
-1.8488e-06
-4.14718e-07
-7.95729e-08
-5.24683e-09
2.16397e-13
5.40993e-13
4.32794e-13
0
-7.5739e-13
2.18772e-13
2.21145e-13
-7.50271e-13
1.42353e-14
1.86547e-12
2.09845e-12
6.63536e-14
-1.84336e-12
1.89928e-12
3.63762e-13
-1.88904e-12
6.80219e-13
-1.43828e-12
-1.17867e-12
-6.74489e-13
-7.46784e-13
1.248e-12
-8.88449e-13
4.78425e-13
-4.32681e-14
-1.85238e-12
-4.36392e-13
-1.95044e-12
1.36978e-12
-2.13293e-12
-1.25073e-12
1.659e-12
-1.28802e-12
-1.86368e-12
2.03164e-12
1.75707e-12
1.7261e-12
-1.16785e-12
1.12637e-11
-1.34465e-11
-1.48708e-11
-2.90075e-11
-9.30753e-11
-2.06313e-10
-5.17869e-10
-1.25285e-09
-2.96223e-09
-6.94041e-09
-1.62501e-08
-3.83971e-08
-9.31636e-08
-2.35629e-07
-6.26475e-07
-1.51432e-06
-4.15614e-06
-1.03106e-05
-2.58065e-05
-6.65322e-05
-0.000164647
-0.000390764
-0.000911127
-0.00205308
-0.00463351
-0.00960616
-0.0169259
-0.0265188
-0.0410557
-0.0721766
-0.154929
-0.373852
-0.903289
-2.22366
-5.54102
-12.2772
-19.6945
-17.2575
-7.77458
-3.3787
-1.53029
-0.710783
-0.343207
-0.170551
-0.0872654
-0.0449776
-0.0241333
-0.0132067
-0.0072854
-0.0040097
-0.00218299
-0.00114866
-0.000592498
-0.000289967
-0.000136193
-6.05746e-05
-2.55083e-05
-7.85142e-06
-1.85725e-06
-4.16554e-07
-7.99142e-08
-5.26904e-09
4.32794e-13
8.65589e-13
9.73787e-13
8.65589e-13
9.73788e-13
6.49192e-13
1.08199e-13
2.05815e-12
-1.29838e-12
-1.07962e-12
-2.05104e-12
1.1846e-14
1.3197e-12
-1.91681e-12
1.6774e-12
-1.32619e-12
-2.04109e-12
1.37915e-12
1.03594e-12
1.59597e-12
-8.26596e-13
-1.99086e-12
7.25741e-13
1.50143e-12
1.23684e-12
-2.16884e-12
9.74814e-13
-4.54037e-13
2.09134e-13
-1.73625e-12
-5.7801e-13
-7.92491e-13
1.65702e-12
1.37224e-12
4.19653e-13
-8.84622e-13
4.95139e-13
1.49183e-12
1.03515e-11
-1.07944e-11
-1.24345e-11
-2.76932e-11
-9.29423e-11
-2.08053e-10
-5.17126e-10
-1.25912e-09
-2.97015e-09
-6.96498e-09
-1.62808e-08
-3.84774e-08
-9.33237e-08
-2.3592e-07
-6.2686e-07
-1.5144e-06
-4.16008e-06
-1.03144e-05
-2.57999e-05
-6.64926e-05
-0.000164519
-0.000390419
-0.000910263
-0.002051
-0.00462879
-0.00959783
-0.0169143
-0.0265034
-0.0410298
-0.0721147
-0.154757
-0.373445
-0.90238
-2.22147
-5.53596
-12.2694
-19.6907
-17.2667
-7.78084
-3.38125
-1.53139
-0.711255
-0.343425
-0.170655
-0.0873164
-0.0450022
-0.0241461
-0.0132135
-0.0072891
-0.00401174
-0.00218411
-0.00114924
-0.000592804
-0.000290115
-0.000136264
-6.06071e-05
-2.55259e-05
-7.85675e-06
-1.85842e-06
-4.16793e-07
-7.99568e-08
-5.27177e-09
5.40993e-13
5.40993e-13
7.5739e-13
1.19018e-12
1.19018e-12
6.49192e-13
5.40993e-13
-1.08199e-13
-1.19019e-12
-9.71418e-13
-2.05104e-12
2.06999e-12
-9.54845e-13
3.57735e-13
-5.61504e-14
-7.85196e-13
-1.1755e-12
7.27597e-13
-2.64796e-13
2.02643e-12
4.69481e-13
-2.2119e-12
-1.98856e-12
1.92732e-12
-5.01189e-13
-1.26843e-13
-6.68913e-13
-6.76945e-13
-2.18935e-12
-1.54711e-12
-1.85181e-12
-1.76228e-12
-4.33433e-13
1.47562e-12
-7.29795e-13
1.01796e-12
2.0281e-12
1.30409e-12
9.86443e-12
-1.03837e-11
-1.36337e-11
-2.95391e-11
-8.33114e-11
-2.08558e-10
-5.1948e-10
-1.25621e-09
-2.97649e-09
-6.97483e-09
-1.63155e-08
-3.85309e-08
-9.34585e-08
-2.36273e-07
-6.27874e-07
-1.51692e-06
-4.16924e-06
-1.03376e-05
-2.58721e-05
-6.66867e-05
-0.000165008
-0.000391618
-0.000913182
-0.00205793
-0.00464439
-0.00962504
-0.0169522
-0.0265542
-0.0411211
-0.0723478
-0.15542
-0.375084
-0.906382
-2.23088
-5.55837
-12.3039
-19.7063
-17.2222
-7.75095
-3.36893
-1.52603
-0.708942
-0.34235
-0.170139
-0.08706
-0.0448782
-0.0240816
-0.013179
-0.00727018
-0.00400129
-0.00217833
-0.00114622
-0.000591197
-0.000289332
-0.000135885
-6.0433e-05
-2.54447e-05
-7.82795e-06
-1.85169e-06
-4.15338e-07
-7.96873e-08
-5.25428e-09
3.24596e-13
5.40993e-13
4.32794e-13
3.24596e-13
2.16635e-12
-1.94757e-12
-1.9452e-12
1.63247e-12
4.4703e-13
2.37164e-14
-2.12604e-12
6.07346e-13
-3.28575e-13
1.89691e-12
-1.37215e-12
-5.93009e-13
1.97391e-12
1.77681e-13
-1.18801e-12
-1.881e-12
9.08621e-14
1.4536e-13
1.54386e-13
1.74517e-12
1.72977e-12
4.52977e-13
1.18771e-12
1.73747e-12
4.93175e-13
-1.55423e-13
-3.9669e-13
-5.67133e-13
3.27414e-13
7.43464e-14
-1.07536e-12
1.75722e-12
-3.67985e-13
1.06075e-12
9.3387e-12
-1.33579e-11
-1.17192e-11
-3.06085e-11
-9.27136e-11
-2.04895e-10
-5.20337e-10
-1.2646e-09
-2.9708e-09
-6.96823e-09
-1.63021e-08
-3.8552e-08
-9.35544e-08
-2.36662e-07
-6.29376e-07
-1.52177e-06
-4.18377e-06
-1.03807e-05
-2.60233e-05
-6.71109e-05
-0.000166093
-0.000394283
-0.000919709
-0.00207347
-0.00467938
-0.00968615
-0.017037
-0.0266673
-0.0413228
-0.0728632
-0.156883
-0.378689
-0.914673
-2.25103
-5.60662
-12.3789
-19.7399
-17.125
-7.6865
-3.34234
-1.51449
-0.703955
-0.340031
-0.169023
-0.0865063
-0.0446102
-0.0239424
-0.0131043
-0.00722935
-0.00397877
-0.00216588
-0.00113972
-0.000587748
-0.000287646
-0.00013507
-6.00617e-05
-2.52755e-05
-7.76838e-06
-1.83765e-06
-4.12286e-07
-7.91203e-08
-5.21743e-09
1.08198e-13
0
1.40896e-12
1.51953e-12
7.12902e-15
1.63961e-12
-1.48865e-12
4.98646e-14
-2.18672e-12
-2.85678e-13
1.97549e-12
3.88825e-13
6.09036e-13
-5.81544e-13
1.18984e-12
1.8587e-12
-4.40154e-13
-1.09197e-12
-1.16951e-12
-4.8761e-16
-6.81057e-13
1.34632e-12
-1.96438e-12
-8.25486e-13
1.04855e-12
-1.33709e-12
-1.5842e-12
1.25451e-12
-9.97343e-13
-7.64887e-13
-1.11187e-12
2.14772e-12
1.6258e-12
-1.49231e-12
1.04358e-12
-2.29422e-14
-1.33076e-12
2.05428e-12
8.60346e-12
-1.05448e-11
-1.20052e-11
-3.12159e-11
-9.34557e-11
-2.05947e-10
-5.26019e-10
-1.25117e-09
-2.95932e-09
-6.9536e-09
-1.62837e-08
-3.85412e-08
-9.36338e-08
-2.37179e-07
-6.31658e-07
-1.52948e-06
-4.20515e-06
-1.04475e-05
-2.62651e-05
-6.77999e-05
-0.00016787
-0.000398657
-0.000930339
-0.00209871
-0.00473586
-0.00978327
-0.0171703
-0.0268443
-0.0416399
-0.0736742
-0.159189
-0.384356
-0.927687
-2.28367
-5.68192
-12.4932
-19.7878
-16.9753
-7.58961
-3.30241
-1.49716
-0.69647
-0.336554
-0.167358
-0.0856819
-0.044211
-0.0237348
-0.0129928
-0.0071684
-0.00394516
-0.00214731
-0.00113001
-0.000582606
-0.000285143
-0.000133862
-5.95125e-05
-2.50313e-05
-7.68006e-06
-1.81686e-06
-4.07767e-07
-7.82807e-08
-5.16284e-09
1.51716e-12
8.70346e-13
1.63487e-12
7.81178e-13
1.24013e-12
1.93687e-12
-1.33886e-12
-2.17486e-12
1.08503e-12
1.87859e-12
2.10909e-12
6.73839e-13
-1.66222e-12
-3.98797e-13
2.15221e-12
-1.88876e-12
1.10903e-12
1.55049e-12
-1.96757e-12
8.43464e-13
1.63251e-12
-1.91094e-12
1.28098e-12
-1.70884e-12
1.9227e-12
1.33921e-12
-2.20039e-12
1.06569e-12
2.09121e-12
4.85886e-13
4.28853e-13
2.15831e-12
-7.52679e-13
-2.06969e-12
-2.38934e-13
1.84918e-12
-1.50826e-12
-1.65794e-12
1.00385e-11
-1.16186e-11
-1.55776e-11
-3.14447e-11
-9.49806e-11
-2.17534e-10
-5.16581e-10
-1.2283e-09
-2.94949e-09
-6.92455e-09
-1.62474e-08
-3.84816e-08
-9.36631e-08
-2.37725e-07
-6.34558e-07
-1.53999e-06
-4.2323e-06
-1.05333e-05
-2.6582e-05
-6.87142e-05
-0.000170249
-0.000404555
-0.000944797
-0.00213336
-0.00481433
-0.00991387
-0.0173454
-0.0270742
-0.0420546
-0.0747475
-0.162227
-0.391887
-0.944768
-2.32605
-5.7794
-12.6411
-19.8472
-16.7802
-7.46622
-3.25144
-1.47499
-0.686881
-0.332075
-0.16521
-0.0846154
-0.0436943
-0.0234654
-0.0128483
-0.00708945
-0.00390165
-0.0021233
-0.00111747
-0.000575968
-0.000281904
-0.000132306
-5.8805e-05
-2.47166e-05
-7.56753e-06
-1.79042e-06
-4.02017e-07
-7.7211e-08
-5.09325e-09
1.84652e-12
2.38274e-14
-2.09964e-12
6.95829e-13
-1.30384e-12
1.37884e-12
-1.55828e-13
9.23935e-13
-9.40835e-13
-1.66251e-13
-1.33733e-12
-9.22772e-13
1.85602e-12
-1.47579e-12
-9.39313e-13
-7.86557e-13
1.94306e-12
-1.84281e-12
8.65404e-13
2.20874e-12
-7.81624e-13
1.05641e-12
-1.99341e-12
2.13533e-12
2.14328e-12
9.66116e-13
1.82685e-12
-7.98076e-13
-1.1091e-12
-1.00587e-12
7.00436e-13
1.77613e-12
-1.16898e-12
-1.41026e-12
1.22134e-13
-7.52845e-13
2.42274e-13
-3.98114e-13
1.00079e-11
-1.14581e-11
-1.30364e-11
-2.97265e-11
-9.34952e-11
-1.97295e-10
-5.05687e-10
-1.21627e-09
-2.91696e-09
-6.87083e-09
-1.61447e-08
-3.83631e-08
-9.36029e-08
-2.38242e-07
-6.37977e-07
-1.55275e-06