/*--------------------------------*- C++ -*----------------------------------*\
  =========                 |
  \\      /  F ield         | OpenFOAM: The Open Source CFD Toolbox
   \\    /   O peration     | Website:  https://openfoam.org
    \\  /    A nd           | Version:  10
     \\/     M anipulation  |
\*---------------------------------------------------------------------------*/
FoamFile
{
    format      ascii;
    class       volScalarField;
    location    "1";
    object      RR.nC3H7;
}
// * * * * * * * * * * * * * * * * * * * * * * * * * * * * * * * * * * * * * //

dimensions      [1 -3 -1 0 0 0 0];

internalField   nonuniform List<scalar> 
4000
(
4.21786e-19
2.53301e-19
1.51071e-19
3.67897e-20
1.28117e-19
6.2352e-20
6.16373e-20
8.3401e-20
7.35924e-20
8.69823e-20
1.07032e-19
3.60389e-20
1.30266e-19
5.009e-20
1.41128e-19
4.44246e-19
3.29545e-19
1.82383e-19
1.30742e-19
2.82414e-19
1.8849e-19
3.85072e-19
7.87143e-19
5.13909e-19
1.46178e-18
-1.35751e-19
1.7478e-18
2.02174e-18
5.45593e-18
1.12653e-17
3.84718e-17
1.06264e-16
3.37894e-16
1.07012e-15
3.37055e-15
1.03363e-14
3.20579e-14
9.90171e-14
3.07753e-13
9.50782e-13
2.81968e-12
8.26899e-12
2.34033e-11
6.48052e-11
1.74255e-10
4.77511e-10
1.29374e-09
3.2624e-09
7.35821e-09
1.42574e-08
2.32233e-08
3.21795e-08
3.81917e-08
3.85369e-08
1.72732e-08
-7.75506e-08
-4.11549e-07
-1.6509e-06
-6.0124e-06
-1.95877e-05
-5.10468e-05
-7.0337e-05
9.02779e-05
0.000263346
6.5041e-05
-6.85434e-05
-6.55292e-05
-3.88105e-05
-2.36449e-05
-2.03032e-05
-2.07466e-05
-1.29801e-06
3.96576e-05
6.7412e-05
3.57591e-05
-3.32044e-05
-2.30098e-05
-1.09393e-05
-4.83623e-06
-3.23721e-06
-2.47155e-06
-1.59604e-06
-8.64996e-07
-4.57547e-07
-2.47061e-07
-1.36052e-07
-7.56567e-08
-4.20683e-08
-2.31792e-08
-1.25567e-08
-6.65584e-09
-3.36292e-09
-1.6832e-09
-8.58005e-10
-5.87083e-10
-3.32517e-10
5.72117e-10
6.79407e-10
-2.15818e-10
-1.4132e-10
3.09808e-19
6.63893e-19
-2.11299e-20
5.22118e-19
6.43928e-19
3.08362e-19
4.32899e-19
1.34413e-19
8.84184e-20
3.34256e-19
3.81314e-20
7.8754e-20
2.52861e-19
2.7493e-20
1.31878e-19
6.15886e-19
6.55156e-19
6.6647e-19
1.30704e-18
1.44027e-18
1.02252e-18
5.14903e-19
1.13561e-18
8.73648e-19
2.69065e-18
1.80623e-18
1.43375e-18
3.03452e-18
4.50587e-18
1.64414e-17
4.63015e-17
1.47553e-16
4.75533e-16
1.50786e-15
4.66406e-15
1.45985e-14
4.46926e-14
1.39683e-13
4.17686e-13
1.26168e-12
3.75876e-12
1.08191e-11
3.07465e-11
8.4133e-11
2.36031e-10
6.48433e-10
1.71547e-09
4.16303e-09
8.98873e-09
1.66517e-08
2.52363e-08
3.28655e-08
3.87726e-08
3.73032e-08
1.15048e-08
-9.68998e-08
-4.48577e-07
-1.72105e-06
-6.11193e-06
-1.95734e-05
-5.05545e-05
-6.98843e-05
8.40624e-05
0.000260758
7.26087e-05
-6.5807e-05
-6.64151e-05
-3.98766e-05
-2.40974e-05
-2.02494e-05
-2.11342e-05
-2.98315e-06
3.80182e-05
6.77767e-05
3.85648e-05
-3.28276e-05
-2.34045e-05
-1.1167e-05
-4.9205e-06
-3.28461e-06
-2.50111e-06
-1.6083e-06
-8.68237e-07
-4.58668e-07
-2.47416e-07
-1.36101e-07
-7.55808e-08
-4.19553e-08
-2.30632e-08
-1.24579e-08
-6.58119e-09
-3.31504e-09
-1.65392e-09
-8.49173e-10
-5.9428e-10
-3.0947e-10
6.80826e-10
5.92933e-10
-2.27033e-10
-1.37908e-10
1.56789e-18
2.57286e-19
2.78483e-19
6.47847e-19
2.18819e-18
3.4719e-19
8.67283e-20
-1.63016e-19
1.0557e-18
2.79772e-19
7.15553e-19
4.93501e-19
3.56234e-19
6.11771e-19
2.73622e-19
7.35535e-19
1.77118e-19
3.14815e-19
9.74044e-19
5.91774e-19
1.54922e-18
-3.90982e-21
6.0964e-19
1.80368e-18
2.21554e-18
4.44309e-18
2.17994e-18
5.61901e-18
6.96054e-18
2.23835e-17
6.73409e-17
1.97696e-16
6.30597e-16
1.98544e-15
6.28299e-15
1.93085e-14
5.86979e-14
1.77927e-13
5.38756e-13
1.5818e-12
4.64742e-12
1.28846e-11
3.78333e-11
1.02694e-10
2.9064e-10
7.82355e-10
2.05074e-09
4.86458e-09
1.00359e-08
1.7985e-08
2.64847e-08
3.39839e-08
3.91276e-08
3.5085e-08
3.8017e-09
-1.07859e-07
-4.68382e-07
-1.76413e-06
-6.19465e-06
-1.96384e-05
-5.0255e-05
-6.93274e-05
7.94736e-05
0.000256545
7.81591e-05
-6.29758e-05
-6.66502e-05
-4.06921e-05
-2.44754e-05
-1.98942e-05
-2.11476e-05
-4.48872e-06
3.63651e-05
6.78956e-05
4.13786e-05
-3.23637e-05
-2.38518e-05
-1.14176e-05
-5.01627e-06
-3.34323e-06
-2.53984e-06
-1.62329e-06
-8.71911e-07
-4.59497e-07
-2.47502e-07
-1.35963e-07
-7.53772e-08
-4.17492e-08
-2.28903e-08
-1.23094e-08
-6.47084e-09
-3.24694e-09
-1.6137e-09
-8.37734e-10
-5.98276e-10
-2.77353e-10
7.96786e-10
5.18406e-10
-2.37261e-10
-1.34287e-10
6.7258e-19
-1.61474e-20
4.50389e-19
9.3001e-19
6.39777e-19
1.11503e-18
4.68735e-19
-1.84138e-20
6.7183e-19
9.92599e-19
1.81102e-18
1.39737e-18
3.5631e-19
5.8469e-19
6.69169e-19
8.2367e-19
1.54666e-18
1.3619e-18
1.91753e-18
1.0902e-18
7.39862e-19
3.32409e-18
3.30705e-18
-6.7219e-21
1.61345e-18
3.36956e-18
2.92151e-18
2.71146e-18
1.06385e-17
2.82393e-17
7.94178e-17
2.73466e-16
8.47168e-16
2.62653e-15
8.15959e-15
2.49238e-14
7.45916e-14
2.26788e-13
6.7557e-13
1.97817e-12
5.76065e-12
1.60713e-11
4.62374e-11
1.25372e-10
3.37247e-10
9.27135e-10
2.3768e-09
5.46092e-09
1.12246e-08
1.87267e-08
2.70669e-08
3.51161e-08
3.92746e-08
3.2782e-08
-3.83526e-09
-1.13718e-07
-4.84502e-07
-1.79907e-06
-6.2456e-06
-1.96142e-05
-4.98934e-05
-6.89908e-05
7.51958e-05
0.00025422
8.32288e-05
-6.03767e-05
-6.69342e-05
-4.15539e-05
-2.49356e-05
-1.98059e-05
-2.12729e-05
-5.92603e-06
3.48951e-05
6.78557e-05
4.39154e-05
-3.21006e-05
-2.41464e-05
-1.15961e-05
-5.09838e-06
-3.40262e-06
-2.57748e-06
-1.63796e-06
-8.78894e-07
-4.5639e-07
-2.46208e-07
-1.35334e-07
-7.50122e-08
-4.15221e-08
-2.27775e-08
-1.20869e-08
-6.33579e-09
-3.17617e-09
-1.57485e-09
-8.2991e-10
-6.01323e-10
-2.40865e-10
9.07222e-10
4.32736e-10
-2.4666e-10
-1.31124e-10
3.69342e-19
5.8952e-19
2.77051e-19
2.95439e-19
3.99118e-19
3.44342e-19
1.23926e-18
3.03092e-19
-2.303e-19
2.53682e-19
5.64478e-19
6.14358e-19
2.05247e-19
2.48417e-19
7.0873e-19
5.99606e-20
9.27949e-19
6.51652e-19
2.45701e-18
1.85498e-18
6.97576e-19
4.01179e-18
6.34039e-19
2.23851e-18
1.53959e-18
1.82359e-18
4.43982e-18
6.99362e-18
1.02514e-17
3.8646e-17
1.13659e-16
3.61275e-16
1.11946e-15
3.42384e-15
1.04427e-14
3.17734e-14
9.38434e-14
2.73491e-13
8.19992e-13
2.40577e-12
6.85834e-12
1.93368e-11
5.29336e-11
1.47448e-10
3.93718e-10
1.06459e-09
2.65636e-09
6.15604e-09
1.16189e-08
1.9107e-08
2.8193e-08
3.5854e-08
3.92235e-08
2.99907e-08
-6.69471e-09
-1.20567e-07
-5.01067e-07
-1.83206e-06
-6.29997e-06
-1.9652e-05
-4.96785e-05
-6.85839e-05
7.24255e-05
0.000251356
8.67117e-05
-5.80426e-05
-6.72533e-05
-4.22901e-05
-2.53316e-05
-1.97793e-05
-2.13714e-05
-6.92382e-06
3.37004e-05
6.78729e-05
4.59504e-05
-3.17158e-05
-2.44979e-05
-1.17891e-05
-5.17894e-06
-3.45624e-06
-2.61175e-06
-1.65003e-06
-8.81741e-07
-4.57702e-07
-2.4672e-07
-1.35493e-07
-7.50087e-08
-4.1451e-08
-2.26857e-08
-1.20095e-08
-6.27198e-09
-3.13861e-09
-1.55214e-09
-8.29649e-10
-6.04921e-10
-2.08077e-10
1.00122e-09
3.63572e-10
-2.52256e-10
-1.29592e-10
2.21971e-19
9.40693e-20
-5.88037e-21
5.36591e-19
2.30195e-19
4.1133e-19
8.75453e-19
1.14172e-18
3.79412e-19
-1.81508e-20
3.55807e-19
8.60114e-19
1.03022e-18
9.88152e-19
1.08428e-18
1.71193e-18
9.76783e-19
9.14196e-19
1.25083e-18
7.92413e-19
4.47827e-18
3.24982e-18
4.89075e-18
2.7183e-18
2.50923e-18
-5.14349e-19
4.83912e-18
7.02494e-18
1.72951e-17
4.92925e-17
1.46971e-16
4.58544e-16
1.39375e-15
4.26002e-15
1.27692e-14
3.83421e-14
1.13221e-13
3.2416e-13
9.69255e-13
2.93352e-12
8.16417e-12
2.23456e-11
6.13865e-11
1.69108e-10
4.51669e-10
1.18928e-09
3.00216e-09
6.38816e-09
1.19885e-08
2.01092e-08
2.91142e-08
3.6423e-08
3.89055e-08
2.81003e-08
-1.10959e-08
-1.28512e-07
-5.13164e-07
-1.85605e-06
-6.3234e-06
-1.96079e-05
-4.93659e-05
-6.83087e-05
6.95987e-05
0.000249608
9.00498e-05
-5.63273e-05
-6.71998e-05
-4.27169e-05
-2.56691e-05
-1.97976e-05
-2.14656e-05
-7.73993e-06
3.28237e-05
6.79387e-05
4.73704e-05
-3.13617e-05
-2.47785e-05
-1.19473e-05
-5.24484e-06
-3.50086e-06
-2.64114e-06
-1.66109e-06
-8.8495e-07
-4.59655e-07
-2.47729e-07
-1.35982e-07
-7.52158e-08
-4.15103e-08
-2.26733e-08
-1.19874e-08
-6.24275e-09
-3.12177e-09
-1.54092e-09
-8.3389e-10
-6.08197e-10
-1.80737e-10
1.07576e-09
3.12607e-10
-2.60218e-10
-1.28638e-10
1.4429e-19
3.75487e-19
1.11412e-19
3.12783e-19
4.22334e-19
3.75142e-19
1.0506e-19
-7.04922e-20
3.85265e-19
3.39074e-19
3.90418e-19
3.44486e-19
4.78023e-19
1.4273e-18
1.1139e-18
1.54389e-18
1.05195e-18
8.96081e-19
1.12591e-18
8.50709e-20
2.90516e-18
3.5197e-18
1.24377e-18
1.603e-19
1.78347e-18
4.84158e-18
1.96592e-18
8.70015e-18
2.04875e-17
6.16883e-17
1.83612e-16
5.54084e-16
1.69199e-15
5.14305e-15
1.52541e-14
4.5838e-14
1.37202e-13
3.92984e-13
1.17577e-12
3.38233e-12
9.45466e-12
2.6156e-11
7.11853e-11
1.88361e-10
5.03963e-10
1.31877e-09
3.18635e-09
6.4581e-09
1.25845e-08
2.0966e-08
2.97611e-08
3.6728e-08
3.86316e-08
2.6761e-08
-1.3978e-08
-1.34134e-07
-5.21834e-07
-1.86788e-06
-6.3249e-06
-1.95195e-05
-4.90128e-05
-6.8118e-05
6.66232e-05
0.00024797
9.33244e-05
-5.47858e-05
-6.73589e-05
-4.31909e-05
-2.59726e-05
-1.98029e-05
-2.15116e-05
-8.41487e-06
3.19821e-05
6.79155e-05
4.87561e-05
-3.09271e-05
-2.50554e-05
-1.21177e-05
-5.31249e-06
-3.54145e-06
-2.66899e-06
-1.67367e-06
-8.8981e-07
-4.62429e-07
-2.49202e-07
-1.3675e-07
-7.55978e-08
-4.16821e-08
-2.27344e-08
-1.20098e-08
-6.2416e-09
-3.12048e-09
-1.53861e-09
-8.41186e-10
-6.12559e-10
-1.58861e-10
1.13376e-09
2.76436e-10
-2.67064e-10
-1.28477e-10
2.33317e-19
1.87153e-19
6.75711e-19
9.38677e-19
4.99913e-19
5.28151e-19
6.36428e-19
8.42911e-19
3.45038e-19
2.58584e-19
1.5037e-19
6.46977e-19
6.76096e-19
5.45825e-19
6.89178e-19
3.32459e-19
1.2229e-18
3.34314e-19
5.87601e-19
2.31928e-18
2.61363e-18
1.73971e-18
6.05906e-19
-1.14314e-18
2.01776e-18
2.09272e-18
4.48818e-18
1.0484e-17
2.72648e-17
6.77827e-17
2.16755e-16
6.79406e-16
2.05874e-15
6.11594e-15
1.80267e-14
5.32927e-14
1.58446e-13
4.47118e-13
1.33078e-12
3.83664e-12
1.07442e-11
2.91742e-11
7.99867e-11
2.11732e-10
5.67548e-10
1.45805e-09
3.29519e-09
6.89649e-09
1.32379e-08
2.16899e-08
3.04206e-08
3.69903e-08
3.82689e-08
2.53715e-08
-1.6636e-08
-1.38285e-07
-5.26843e-07
-1.86855e-06
-6.29142e-06
-1.93448e-05
-4.85321e-05
-6.80256e-05
6.30922e-05
0.000246526
9.68493e-05
-5.29202e-05
-6.76591e-05
-4.37625e-05
-2.62993e-05
-1.98125e-05
-2.15439e-05
-9.1244e-06
3.10396e-05
6.77981e-05
5.02287e-05
-3.03392e-05
-2.53522e-05
-1.2316e-05
-5.38641e-06
-3.57954e-06
-2.69676e-06
-1.68885e-06
-8.96784e-07
-4.66182e-07
-2.51194e-07
-1.37811e-07
-7.61535e-08
-4.19615e-08
-2.28641e-08
-1.20719e-08
-6.26505e-09
-3.132e-09
-1.54339e-09
-8.5034e-10
-6.18515e-10
-1.42771e-10
1.17884e-09
2.52035e-10
-2.73052e-10
-1.28941e-10
2.69396e-19
2.01639e-19
2.28318e-19
8.55188e-19
1.0418e-18
7.46263e-19
3.42969e-19
1.92495e-19
5.11273e-19
9.12345e-19
-1.62207e-20
4.74914e-19
5.08694e-19
4.31263e-19
4.26593e-19
3.68523e-19
1.09285e-18
2.62366e-18
3.13017e-18
2.70952e-18
1.11096e-18
2.70991e-18
1.42502e-18
9.41793e-19
2.43835e-18
4.73189e-18
4.05838e-18
1.18341e-17
2.56044e-17
8.03685e-17
2.58219e-16
8.00677e-16
2.39493e-15
7.1844e-15
2.11652e-14
6.21101e-14
1.82159e-13
5.05282e-13
1.49482e-12
4.2958e-12
1.18562e-11
3.27797e-11
8.87318e-11
2.37689e-10
5.95894e-10
1.4256e-09
3.42763e-09
7.36679e-09
1.38623e-08
2.24132e-08
3.09153e-08
3.71582e-08
3.79325e-08
2.42248e-08
-1.85289e-08
-1.40809e-07
-5.27834e-07
-1.85699e-06
-6.22011e-06
-1.90725e-05
-4.78588e-05
-6.80694e-05
5.77506e-05
0.000244664
0.000102478
-5.08394e-05
-6.79577e-05
-4.44139e-05
-2.66916e-05
-1.98294e-05
-2.15333e-05
-9.98861e-06
2.994e-05
6.76224e-05
5.1833e-05
-2.956e-05
-2.56824e-05
-1.25482e-05
-5.47031e-06
-3.61717e-06
-2.72569e-06
-1.70726e-06
-9.06059e-07
-4.70975e-07
-2.53722e-07
-1.39164e-07
-7.68768e-08
-4.23412e-08
-2.30562e-08
-1.21686e-08
-6.3096e-09
-3.15417e-09
-1.5539e-09
-8.60653e-10
-6.24668e-10
-1.32172e-10
1.21432e-09
2.37093e-10
-2.7837e-10
-1.29896e-10
3.96233e-19
7.23454e-19
5.0404e-19
5.02541e-19
3.30943e-19
3.72162e-19
1.63791e-19
1.48919e-19
7.18804e-19
1.1496e-18
4.84419e-19
1.42574e-18
9.60692e-19
6.61446e-19
2.22154e-18
2.65489e-18
2.19037e-18
1.13474e-18
2.2956e-18
3.88329e-18
2.60097e-18
1.96414e-18
1.78004e-18
2.48491e-18
2.64782e-18
1.20072e-19
5.15666e-18
1.3634e-17
3.23072e-17
1.07996e-16
3.10215e-16
9.28132e-16
2.76068e-15
8.12619e-15
2.37219e-14
6.8786e-14
1.96387e-13
5.55159e-13
1.64892e-12
4.6756e-12
1.27998e-11
3.50761e-11
9.46966e-11
2.44055e-10
6.05481e-10
1.55374e-09
3.66309e-09
7.77192e-09
1.44878e-08
2.30146e-08
3.13429e-08
3.72893e-08
3.75871e-08
2.34347e-08
-1.97694e-08
-1.42289e-07
-5.25792e-07
-1.83743e-06
-6.13189e-06
-1.87749e-05
-4.71936e-05
-6.8103e-05
5.21298e-05
0.000242762
0.00010816
-4.83379e-05
-6.84986e-05
-4.52492e-05
-2.71517e-05
-1.98732e-05
-2.17852e-05
-1.06961e-05
2.87663e-05
6.72011e-05
5.35283e-05
-2.84875e-05
-2.60974e-05
-1.28489e-05
-5.57259e-06
-3.6573e-06
-2.75686e-06
-1.72899e-06
-9.17472e-07
-4.76702e-07
-2.56699e-07
-1.40761e-07
-7.77389e-08
-4.28033e-08
-2.32993e-08
-1.22931e-08
-6.37091e-09
-3.1848e-09
-1.56886e-09
-8.71683e-10
-6.32236e-10
-1.26417e-10
1.24257e-09
2.29614e-10
-2.83145e-10
-1.31221e-10
2.23001e-19
5.88934e-19
8.28809e-19
4.10233e-19
2.677e-19
2.25554e-19
3.34142e-20
6.76897e-20
3.39781e-19
3.09347e-19
2.86924e-19
5.45542e-19
1.04321e-19
1.46818e-18
4.0837e-19
1.47925e-18
1.54525e-18
1.16143e-18
2.32189e-18
3.15307e-18
4.1179e-18
1.37715e-18
-2.52978e-20
1.51898e-18
2.61848e-18
4.9481e-18
6.9139e-18
1.37771e-17
4.30122e-17
1.26192e-16
3.61545e-16
1.06641e-15
3.06897e-15
9.13132e-15
2.62066e-14
7.5205e-14
2.16041e-13
6.03388e-13
1.80971e-12
5.03256e-12
1.37277e-11
3.7012e-11
9.74948e-11
2.50581e-10
6.58985e-10
1.66716e-09
3.90242e-09
8.22324e-09
1.50844e-08
2.36444e-08
3.18473e-08
3.74853e-08
3.69718e-08
2.31332e-08
-2.05722e-08
-1.42703e-07
-5.20716e-07
-1.80744e-06
-6.00606e-06
-1.83301e-05
-4.62534e-05
-6.8277e-05
4.63925e-05
0.000240805
0.000113997
-4.57784e-05
-6.88298e-05
-4.60391e-05
-2.76493e-05
-1.99532e-05
-2.17549e-05
-1.14897e-05
2.74509e-05
6.67686e-05
5.52707e-05
-2.72766e-05
-2.64958e-05
-1.31464e-05
-5.67519e-06
-3.69459e-06
-2.78736e-06
-1.75222e-06
-9.30148e-07
-4.83026e-07
-2.60034e-07
-1.42537e-07
-7.86983e-08
-4.33227e-08
-2.35794e-08
-1.24381e-08
-6.44473e-09
-3.22158e-09
-1.58701e-09
-8.83112e-10
-6.40588e-10
-1.24475e-10
1.26553e-09
2.27701e-10
-2.87481e-10
-1.32806e-10
2.48192e-19
1.25258e-19
9.21704e-19
6.81696e-19
3.38783e-19
3.00461e-19
7.50499e-19
1.56535e-18
9.60782e-19
9.80537e-19
5.56008e-19
1.30123e-18
5.63747e-19
6.61446e-19
9.08702e-19
9.73833e-19
1.47215e-18
1.84836e-18
2.60952e-19
7.81836e-19
2.52715e-19
2.04961e-18
2.23898e-18
2.362e-18
1.5892e-18
5.44512e-18
7.68341e-18
1.83714e-17
4.90554e-17
1.36013e-16
3.88674e-16
1.15601e-15
3.43964e-15
1.00911e-14
2.944e-14
8.39864e-14
2.35666e-13
6.57843e-13
1.90076e-12
5.43791e-12
1.46611e-11
3.9241e-11
1.02815e-10
2.69138e-10
7.04724e-10
1.7703e-09
4.11239e-09
8.59195e-09
1.55922e-08
2.41794e-08
3.22851e-08
3.77086e-08
3.67187e-08
2.30796e-08
-2.11739e-08
-1.42442e-07
-5.139e-07
-1.77628e-06
-5.88408e-06
-1.79793e-05
-4.54665e-05
-6.82758e-05
4.0408e-05
0.000238976
0.000120186
-4.31107e-05
-6.91474e-05
-4.67683e-05
-2.81333e-05
-2.00537e-05
-2.17161e-05
-1.23443e-05
2.61303e-05
6.62973e-05
5.68927e-05
-2.59513e-05
-2.68985e-05
-1.34593e-05
-5.78227e-06
-3.73084e-06
-2.81741e-06
-1.77632e-06
-9.43597e-07
-4.89711e-07
-2.63559e-07
-1.44456e-07
-7.97544e-08
-4.39029e-08
-2.38923e-08
-1.25997e-08
-6.52864e-09
-3.26375e-09
-1.60802e-09
-8.94913e-10
-6.4941e-10
-1.25129e-10
1.28467e-09
2.2985e-10
-2.91414e-10
-1.34544e-10
1.97869e-19
3.25267e-20
9.63176e-19
8.48517e-19
7.73643e-19
2.8042e-19
8.14138e-19
8.15882e-19
1.79138e-19
1.0683e-18
6.45789e-19
-8.2792e-20
1.17451e-18
8.24468e-19
6.42273e-19
1.50782e-18
2.41861e-19
7.87919e-19
2.2148e-19
8.79512e-19
3.23228e-18
2.17287e-18
1.82237e-18
2.13029e-18
3.17773e-18
5.63957e-18
8.2401e-18
1.73644e-17
4.62585e-17
1.46899e-16
4.26782e-16
1.27062e-15
3.7391e-15
1.10073e-14
3.16228e-14
8.96109e-14
2.50154e-13
6.96157e-13
2.0076e-12
5.7795e-12
1.56546e-11
4.21229e-11
1.09905e-10
2.8959e-10
7.42574e-10
1.85859e-09
4.29548e-09
8.8715e-09
1.59384e-08
2.45063e-08
3.25067e-08
3.77669e-08
3.65718e-08
2.30309e-08
-2.19602e-08
-1.42023e-07
-5.06239e-07
-1.73945e-06
-5.75432e-06
-1.7589e-05
-4.47187e-05
-6.82905e-05
3.47717e-05
0.00023652
0.000126225
-4.02676e-05
-6.94565e-05
-4.75458e-05
-2.86528e-05
-2.01494e-05
-2.16787e-05
-1.31166e-05
2.48063e-05
6.56488e-05
5.84381e-05
-2.44073e-05
-2.73494e-05
-1.38003e-05
-5.89759e-06
-3.76782e-06
-2.84824e-06
-1.80227e-06
-9.58335e-07
-4.96871e-07
-2.67292e-07
-1.46462e-07
-8.08504e-08
-4.45058e-08
-2.42248e-08
-1.27732e-08
-6.61879e-09
-3.3081e-09
-1.6299e-09
-9.06526e-10
-6.58616e-10
-1.28436e-10
1.30072e-09
2.34895e-10
-2.95231e-10
-1.36462e-10
-8.83666e-20
7.0977e-19
2.45259e-19
9.40817e-19
6.94923e-19
4.57359e-19
9.44199e-19
7.80381e-19
7.9548e-19
6.69791e-19
9.56771e-19
9.062e-19
1.01907e-18
1.40861e-18
2.51363e-18
3.19726e-18
2.44684e-18
1.08371e-18
2.28364e-18
6.36841e-19
4.67345e-18
3.30208e-18
1.88645e-18
6.43342e-19
1.02513e-18
2.66682e-18
9.81259e-18
1.92406e-17
4.85047e-17
1.51644e-16
4.60801e-16
1.36312e-15
3.99144e-15
1.15823e-14
3.33482e-14
9.43629e-14
2.65775e-13
7.28877e-13
2.13776e-12
6.09265e-12
1.63071e-11
4.34541e-11
1.15715e-10
3.04372e-10
7.76202e-10
1.93246e-09
4.42451e-09
9.06752e-09
1.61757e-08
2.47208e-08
3.26392e-08
3.77816e-08
3.64527e-08
2.30018e-08
-2.24546e-08
-1.41341e-07
-4.98995e-07
-1.70785e-06
-5.6373e-06
-1.72014e-05
-4.38856e-05
-6.83333e-05
2.949e-05
0.000234025
0.00013191
-3.75002e-05
-6.97887e-05
-4.83217e-05
-2.91296e-05
-2.02531e-05
-2.16245e-05
-1.37849e-05
2.3547e-05
6.50385e-05
5.98009e-05
-2.28221e-05
-2.77852e-05
-1.41359e-05
-6.01424e-06
-3.80422e-06
-2.87833e-06
-1.82795e-06
-9.73036e-07
-5.04074e-07
-2.71029e-07
-1.48461e-07
-8.19393e-08
-4.51035e-08
-2.4553e-08
-1.29441e-08
-6.70883e-09
-3.35309e-09
-1.65242e-09
-9.17995e-10
-6.68224e-10
-1.32657e-10
1.31426e-09
2.41808e-10
-2.98601e-10
-1.38342e-10
3.30753e-19
2.97923e-19
-1.61944e-20
4.6554e-19
2.80334e-19
1.52347e-19
4.80539e-19
1.06292e-19
1.95075e-19
9.5774e-19
1.45116e-18
1.4834e-18
2.06068e-18
1.12695e-18
5.09734e-19
1.23034e-18
1.93398e-18
2.51973e-18
2.85943e-18
1.96129e-18
-3.40172e-20
2.35888e-19
2.18416e-18
9.45019e-20
2.93485e-19
2.68954e-18
6.28603e-18
1.81935e-17
5.33758e-17
1.60517e-16
4.7394e-16
1.43797e-15
4.19642e-15
1.21545e-14
3.43765e-14
9.6428e-14
2.782e-13
7.61049e-13
2.21723e-12
6.15194e-12
1.73581e-11
4.60054e-11
1.21704e-10
3.12488e-10
8.01331e-10
1.9845e-09
4.5203e-09
9.21453e-09
1.63535e-08
2.48826e-08
3.27382e-08
3.77782e-08
3.6359e-08
2.29878e-08
-2.26557e-08
-1.40215e-07
-4.90795e-07
-1.67523e-06
-5.5177e-06
-1.68575e-05
-4.31404e-05
-6.82684e-05
2.45066e-05
0.000231649
0.000137221
-3.47737e-05
-7.00153e-05
-4.90996e-05
-2.77174e-05
-2.03963e-05
-2.15893e-05
-1.44044e-05
2.23695e-05
6.44242e-05
6.10198e-05
-2.12565e-05
-2.81913e-05
-1.44534e-05
-6.12397e-06
-3.8375e-06
-2.90558e-06
-1.85158e-06
-9.86673e-07
-5.10709e-07
-2.74475e-07
-1.50307e-07
-8.29465e-08
-4.56574e-08
-2.48579e-08
-1.31029e-08
-6.79228e-09
-3.39448e-09
-1.67303e-09
-9.28112e-10
-6.76026e-10
-1.37396e-10
1.32478e-09
2.49191e-10
-3.01495e-10
-1.40072e-10
1.70989e-19
4.01039e-19
3.81177e-19
6.1849e-19
3.60902e-19
3.52848e-19
6.88722e-19
4.34206e-19
6.04312e-19
8.46436e-20
2.29464e-19
2.05404e-18
1.00151e-18
4.92165e-19
1.17244e-18
2.39878e-19
5.8213e-19
2.45594e-18
7.40535e-19
1.66836e-18
2.13838e-19
9.47982e-19
1.40467e-18
1.67072e-18
3.55677e-18
1.681e-18
7.42187e-18
1.74027e-17
5.22804e-17
1.63524e-16
4.95905e-16
1.4818e-15
4.35637e-15
1.26162e-14
3.61393e-14
1.02906e-13
2.87875e-13
8.21062e-13
2.34205e-12
6.60548e-12
1.78626e-11
4.71866e-11
1.24835e-10
3.18533e-10
8.20211e-10
2.02488e-09
4.59248e-09
9.32232e-09
1.64788e-08
2.49879e-08
3.27978e-08
3.77709e-08
3.62846e-08
2.29869e-08
-2.27268e-08
-1.39068e-07
-4.83549e-07
-1.64449e-06
-5.4129e-06
-1.65436e-05
-4.25114e-05
-6.81984e-05
2.04969e-05
0.000229439
0.000141575
-3.23359e-05
-7.01337e-05
-4.98596e-05
-2.89968e-05
-2.07284e-05
-2.16105e-05
-1.49676e-05
2.13647e-05
6.38808e-05
6.20085e-05
-1.98557e-05
-2.85427e-05
-1.47262e-05
-6.21934e-06
-3.86596e-06
-2.92865e-06
-1.8717e-06
-9.98448e-07
-5.1644e-07
-2.77455e-07
-1.51904e-07
-8.38193e-08
-4.61383e-08
-2.51233e-08
-1.32415e-08
-6.86608e-09
-3.43099e-09
-1.69127e-09
-9.36923e-10
-6.82945e-10
-1.41726e-10
1.3333e-09
2.56353e-10
-3.03869e-10
-1.41574e-10
3.25231e-19
4.82168e-19
6.02573e-19
4.42759e-19
5.9884e-19
5.04624e-19
8.37745e-19
1.07487e-18
7.06998e-19
2.17604e-19
2.47667e-19
3.74421e-19
7.82413e-19
3.82896e-19
1.76412e-18
1.27125e-18
4.78e-19
9.02444e-19
9.91154e-19
2.15883e-18
1.77771e-18
2.07945e-19
2.11311e-18
1.60812e-18
1.56352e-18
6.51415e-18
6.70026e-18
2.16661e-17
6.04344e-17
1.79094e-16
5.20214e-16
1.55608e-15
4.53322e-15
1.31155e-14
3.75654e-14
1.07402e-13
3.03442e-13
8.45714e-13
2.39397e-12
6.6246e-12
1.80378e-11
4.79474e-11
1.23305e-10
3.23567e-10
8.36457e-10
2.05545e-09
4.64677e-09
9.40334e-09
1.65731e-08
2.50677e-08
3.28412e-08
3.77635e-08
3.6232e-08
2.29878e-08
-2.27252e-08
-1.38092e-07
-4.77675e-07
-1.62232e-06
-5.33646e-06
-1.63147e-05
-4.20217e-05
-6.80874e-05
1.71626e-05
0.000227394
0.000145385
-3.02782e-05
-7.0229e-05
-5.03411e-05
-2.93641e-05
-2.08296e-05
-2.15913e-05
-1.53353e-05
2.05882e-05
6.34289e-05
6.27457e-05
-1.87113e-05
-2.88227e-05
-1.49439e-05
-6.29623e-06
-3.88844e-06
-2.94681e-06
-1.88799e-06
-1.008e-06
-5.21072e-07
-2.79857e-07
-1.5319e-07
-8.45214e-08
-4.65253e-08
-2.5337e-08
-1.33531e-08
-6.92528e-09
-3.46016e-09
-1.70576e-09
-9.43827e-10
-6.89089e-10
-1.45606e-10
1.33942e-09
2.62405e-10
-3.05722e-10
-1.42784e-10
2.76247e-19
5.40663e-19
1.13569e-18
1.58373e-18
1.02715e-18
7.8969e-19
6.46429e-19
1.70648e-18
4.83566e-19
1.88713e-19
2.07548e-19
2.30306e-19
6.57013e-19
7.56566e-19
1.15447e-18
2.26767e-18
1.70038e-18
1.01371e-18
1.56891e-18
4.27412e-19
2.82536e-18
1.73992e-18
1.54504e-18
3.02497e-18
4.64221e-18
5.27366e-18
8.33779e-18
1.82918e-17
5.94958e-17
1.84475e-16
5.35068e-16
1.55923e-15
4.62882e-15
1.32557e-14
3.8266e-14
1.09087e-13
3.05781e-13
8.4138e-13
2.37807e-12
6.77485e-12
1.79452e-11
4.76895e-11
1.24492e-10
3.26861e-10
8.479e-10
2.07728e-09
4.68509e-09
9.46013e-09
1.66392e-08
2.51255e-08
3.28714e-08
3.7758e-08
3.61952e-08
2.29864e-08
-2.27128e-08
-1.37404e-07
-4.73682e-07
-1.60651e-06
-5.28157e-06
-1.61513e-05
-4.16777e-05
-6.80118e-05
1.4948e-05
0.000225977
0.00014787
-2.88612e-05
-7.02794e-05
-5.06594e-05
-2.95839e-05
-2.08868e-05
-2.15513e-05
-1.56129e-05
2.00424e-05
6.31081e-05
6.32518e-05
-1.78832e-05
-2.90204e-05
-1.5098e-05
-6.35115e-06
-3.90424e-06
-2.95948e-06
-1.8994e-06
-1.01473e-06
-5.24345e-07
-2.81555e-07
-1.541e-07
-8.50185e-08
-4.67994e-08
-2.54887e-08
-1.34323e-08
-6.96741e-09
-3.48098e-09
-1.71614e-09
-9.48745e-10
-6.93064e-10
-1.48391e-10
1.34357e-09
2.66868e-10
-3.07e-10
-1.4364e-10
1.50358e-19
1.35902e-20
2.26915e-19
5.4602e-19
3.23439e-19
5.17222e-19
3.80309e-19
8.71334e-19
6.60404e-19
6.84848e-19
5.01941e-19
5.41626e-19
8.68057e-19
5.44444e-19
8.75567e-19
9.19349e-19
3.01356e-19
6.11674e-19
1.11743e-18
1.86649e-18
1.5174e-18
7.99952e-19
1.04115e-18
3.39394e-18
4.00481e-18
7.36808e-18
6.54843e-18
2.52756e-17
6.23548e-17
1.77351e-16
5.43368e-16
1.62008e-15
4.69987e-15
1.35085e-14
3.91461e-14
1.0996e-13
3.12419e-13
8.54852e-13
2.49062e-12
6.90985e-12
1.84326e-11
4.84324e-11
1.25184e-10
3.31889e-10
8.53341e-10
2.09048e-09
4.71012e-09
9.49766e-09
1.66825e-08
2.51621e-08
3.28914e-08
3.77564e-08
3.61721e-08
2.29778e-08
-2.27333e-08
-1.37091e-07
-4.71725e-07
-1.59862e-06
-5.25345e-06
-1.60658e-05
-4.1496e-05
-6.79733e-05
1.38133e-05
0.000225207
0.00014915
-2.81152e-05
-7.0299e-05
-5.08231e-05
-2.96991e-05
-2.09168e-05
-2.15472e-05
-1.57605e-05
1.97414e-05
6.29324e-05
6.35124e-05
-1.74371e-05
-2.91257e-05
-1.51801e-05
-6.38042e-06
-3.91257e-06
-2.96617e-06
-1.90551e-06
-1.01838e-06
-5.26119e-07
-2.82476e-07
-1.54594e-07
-8.52882e-08
-4.69482e-08
-2.5571e-08
-1.34753e-08
-6.99025e-09
-3.49225e-09
-1.72179e-09
-9.51348e-10
-6.94951e-10
-1.49985e-10
1.34556e-09
2.69233e-10
-3.07691e-10
-1.44101e-10
3.02998e-20
7.67572e-19
5.22739e-19
8.11449e-19
4.3287e-19
6.705e-19
5.30541e-19
1.40661e-18
5.76202e-19
1.90933e-19
1.26912e-18
1.21628e-18
1.57374e-18
5.63751e-19
8.15123e-19
1.16463e-18
4.05419e-19
1.13854e-18
1.02614e-18
1.88479e-18
2.1267e-18
1.04153e-18
1.38445e-18
2.09738e-18
2.46123e-18
2.73636e-18
6.76175e-18
1.91482e-17
6.30245e-17
1.88066e-16
5.62746e-16
1.66349e-15
4.81782e-15
1.41756e-14
4.05711e-14
1.13608e-13
3.20903e-13
8.74322e-13
2.50193e-12
6.83292e-12
1.8651e-11
4.89888e-11
1.27357e-10
3.3286e-10
8.56884e-10
2.0985e-09
4.72486e-09
9.52005e-09
1.67092e-08
2.51862e-08
3.2907e-08
3.77585e-08
3.61578e-08
2.29592e-08
-2.2813e-08
-1.37128e-07
-4.71423e-07
-1.59705e-06
-5.24758e-06
-1.60475e-05
-4.14564e-05
-6.79607e-05
1.35792e-05
0.000225059
0.000149425
-2.79634e-05
-7.03052e-05
-5.08552e-05
-2.97206e-05
-2.09223e-05
-2.15448e-05
-1.57841e-05
1.97011e-05
6.29036e-05
6.35534e-05
-1.73646e-05
-2.91413e-05
-1.51926e-05
-6.38483e-06
-3.91378e-06
-2.96715e-06
-1.90642e-06
-1.01893e-06
-5.26383e-07
-2.82613e-07
-1.54667e-07
-8.53283e-08
-4.69702e-08
-2.55831e-08
-1.34816e-08
-6.99359e-09
-3.49389e-09
-1.72262e-09
-9.51784e-10
-6.95502e-10
-1.50072e-10
1.34612e-09
2.69583e-10
-3.07775e-10
-1.44159e-10
1.41717e-19
2.73188e-19
9.55346e-19
1.1071e-18
5.61465e-19
2.37062e-19
1.02214e-19
5.25875e-19
1.22119e-18
1.01416e-18
2.46182e-19
8.38749e-19
1.42913e-19
8.10001e-19
1.152e-18
9.31773e-19
1.3097e-18
9.06015e-19
4.74155e-19
8.02612e-19
1.23531e-18
8.61446e-19
1.17937e-18
9.30221e-19
3.34708e-18
2.94475e-18
9.033e-18
2.22561e-17
6.78954e-17
1.93591e-16
5.72517e-16
1.67352e-15
4.92055e-15
1.42215e-14
4.11556e-14
1.15774e-13
3.24016e-13
8.88584e-13
2.52003e-12
6.97741e-12
1.86886e-11
4.89134e-11
1.28467e-10
3.34035e-10
8.56475e-10
2.10201e-09
4.73091e-09
9.52974e-09
1.67223e-08
2.52004e-08
3.29198e-08
3.77665e-08
3.61521e-08
2.29218e-08
-2.2989e-08
-1.37659e-07
-4.73399e-07
-1.60397e-06
-5.2704e-06
-1.61137e-05
-4.15926e-05
-6.79832e-05
1.44561e-05
0.000225635
0.000148459
-2.85239e-05
-7.02868e-05
-5.07286e-05
-2.96342e-05
-2.09025e-05
-2.15494e-05
-1.56809e-05
1.99206e-05
6.30313e-05
6.33606e-05
-1.76915e-05
-2.90638e-05
-1.51321e-05
-6.36301e-06
-3.90755e-06
-2.9622e-06
-1.90194e-06
-1.01625e-06
-5.25089e-07
-2.81942e-07
-1.54307e-07
-8.51316e-08
-4.68616e-08
-2.55228e-08
-1.34501e-08
-6.97675e-09
-3.48559e-09
-1.71843e-09
-9.49791e-10
-6.93645e-10
-1.48885e-10
1.34454e-09
2.67541e-10
-3.07292e-10
-1.43808e-10
1.45301e-19
1.0141e-19
2.5939e-19
2.75071e-19
5.47124e-19
6.16157e-19
1.33328e-19
8.82611e-19
5.73344e-19
3.01135e-19
1.52499e-19
3.95257e-19
2.40165e-19
1.49674e-18
1.32384e-18
2.46252e-18
2.75685e-18
8.21372e-19
8.07027e-19
1.64119e-18
1.81067e-18
2.87968e-18
1.43731e-18
3.88082e-18
3.27452e-18
4.48381e-18
7.48762e-18
2.14178e-17
6.56003e-17
1.96741e-16
5.6062e-16
1.61289e-15
4.84389e-15
1.37784e-14
3.86927e-14
1.0804e-13
3.10176e-13
8.36343e-13
2.4381e-12
6.93775e-12
1.83679e-11
4.88172e-11
1.2621e-10
3.34106e-10
8.56179e-10
2.09909e-09
4.72632e-09
9.52455e-09
1.67192e-08
2.52024e-08
3.29279e-08
3.7779e-08
3.61551e-08
2.28675e-08
-2.32613e-08
-1.3868e-07
-4.77614e-07
-1.6191e-06
-5.32063e-06
-1.62599e-05
-4.1895e-05
-6.80294e-05
1.64085e-05
0.000226867
0.000146298
-2.97412e-05
-7.02341e-05
-5.04474e-05
-2.94402e-05
-2.085e-05
-2.15704e-05
-1.54353e-05
2.03845e-05
6.33057e-05
6.29369e-05
-1.83928e-05
-2.88957e-05
-1.50014e-05
-6.31648e-06
-3.89414e-06
-2.95149e-06
-1.89221e-06
-1.01047e-06
-5.22287e-07
-2.80488e-07
-1.53529e-07
-8.47059e-08
-4.66265e-08
-2.53925e-08
-1.3382e-08
-6.94049e-09
-3.46765e-09
-1.70946e-09
-9.45632e-10
-6.89947e-10
-1.46198e-10
1.34148e-09
2.63441e-10
-3.06212e-10
-1.43057e-10
5.6937e-19
7.67248e-19
4.05949e-19
6.53805e-19
5.99806e-19
4.09887e-19
2.60394e-19
2.9526e-19
2.02763e-19
3.95284e-19
2.05543e-19
2.90233e-19
5.05898e-19
5.31736e-19
3.53662e-19
1.01563e-18
1.32831e-18
1.94666e-18
1.63201e-18
2.34479e-18
1.2221e-18
1.25841e-18
2.26758e-18
2.0963e-18
3.67472e-18
7.82382e-18
1.01186e-17
1.85863e-17
6.5142e-17
1.88929e-16
5.52669e-16
1.59563e-15
4.70077e-15
1.34362e-14
3.84131e-14
1.09006e-13
3.06501e-13
8.36845e-13
2.42565e-12
6.90037e-12
1.83609e-11
4.7955e-11
1.25573e-10
3.34166e-10
8.5196e-10
2.09023e-09
4.71219e-09
9.50619e-09
1.67025e-08
2.51947e-08
3.29336e-08
3.7797e-08
3.61646e-08
2.27874e-08
-2.36597e-08
-1.40282e-07
-4.84416e-07
-1.64378e-06
-5.40298e-06
-1.6499e-05
-4.23832e-05
-6.80841e-05
1.95726e-05
0.000228675
0.000142821
-3.1617e-05
-7.01305e-05
-5.00018e-05
-2.91353e-05
-2.07644e-05
-2.15969e-05
-1.51069e-05
2.10899e-05
6.37038e-05
6.22662e-05
-1.94366e-05
-2.8643e-05
-1.48046e-05
-6.24681e-06
-3.87401e-06
-2.9353e-06
-1.87763e-06
-1.00187e-06
-5.18113e-07
-2.78321e-07
-1.52367e-07
-8.40705e-08
-4.62757e-08
-2.51982e-08
-1.32804e-08
-6.88639e-09
-3.44101e-09
-1.69613e-09
-9.39413e-10
-6.84837e-10
-1.4227e-10
1.3367e-09
2.57408e-10
-3.04589e-10
-1.41939e-10
2.78376e-19
2.4295e-19
7.41957e-19
8.28287e-19
6.21605e-19
2.35477e-19
2.32287e-19
8.90485e-19
1.86094e-19
-2.14462e-20
9.83496e-19
7.41817e-19
1.11075e-18
1.53491e-18
9.25805e-19
1.37565e-18
1.89224e-18
2.09691e-18
1.79413e-18
2.22968e-18
3.60184e-18
2.12385e-19
2.91255e-19
1.71235e-18
3.37297e-18
5.20915e-18
9.2152e-18
2.14142e-17
6.08949e-17
1.82336e-16
5.37894e-16
1.5938e-15
4.61741e-15
1.33307e-14
3.82712e-14
1.08124e-13
3.06106e-13
8.40314e-13
2.3503e-12
6.58931e-12
1.81901e-11
4.76517e-11
1.2325e-10
3.29489e-10
8.46098e-10
2.07656e-09
4.68759e-09
9.47111e-09
1.66661e-08
2.51716e-08
3.2933e-08
3.782e-08
3.61846e-08
2.26867e-08
-2.41652e-08
-1.4238e-07
-4.93478e-07
-1.67695e-06
-5.51427e-06
-1.68236e-05
-4.30479e-05
-6.81411e-05
2.39608e-05
0.000230787
0.000138048
-3.4036e-05
-6.99545e-05
-4.93815e-05
-2.8687e-05
-2.06365e-05
-2.162e-05
-1.46207e-05
2.20137e-05
6.42149e-05
6.13762e-05
-2.07447e-05
-2.83176e-05
-1.45514e-05
-6.15787e-06
-3.84803e-06
-2.91412e-06
-1.85868e-06
-9.90736e-07
-5.12715e-07
-2.7551e-07
-1.50862e-07
-8.32486e-08
-4.58223e-08
-2.49473e-08
-1.31494e-08