/*--------------------------------*- C++ -*----------------------------------*\
  =========                 |
  \\      /  F ield         | OpenFOAM: The Open Source CFD Toolbox
   \\    /   O peration     | Website:  https://openfoam.org
    \\  /    A nd           | Version:  10
     \\/     M anipulation  |
\*---------------------------------------------------------------------------*/
FoamFile
{
    format      ascii;
    class       volScalarField;
    location    "1";
    object      RR.O2;
}
// * * * * * * * * * * * * * * * * * * * * * * * * * * * * * * * * * * * * * //

dimensions      [1 -3 -1 0 0 0 0];

internalField   nonuniform List<scalar> 
4000
(
2.25746e-33
9.76236e-33
3.86879e-32
1.39787e-31
4.93948e-31
1.67113e-30
5.43685e-30
1.72336e-29
5.39168e-29
1.69776e-28
5.52381e-28
1.75552e-27
5.53533e-27
1.75644e-26
5.63942e-26
1.82818e-25
5.89338e-25
2.03894e-24
6.84236e-24
2.33691e-23
8.05152e-23
2.80376e-22
9.97566e-22
3.54031e-21
1.27323e-20
4.57196e-20
1.60243e-19
5.95671e-19
2.12119e-18
7.58764e-18
2.71886e-17
9.72321e-17
3.44639e-16
1.21806e-15
4.31295e-15
1.45173e-14
5.1656e-14
1.78333e-13
6.18981e-13
2.13097e-12
7.02115e-12
2.29419e-11
7.23704e-11
2.2403e-10
6.76154e-10
2.11227e-09
6.53872e-09
1.85697e-08
4.54216e-08
8.88186e-08
1.30495e-07
1.39377e-07
9.84252e-08
-5.02613e-08
-5.44066e-07
-2.15037e-06
-6.90852e-06
-2.10795e-05
-5.893e-05
-0.000151
-0.000350979
-0.000660251
-0.000878318
-0.00129613
-0.00196442
-0.00264013
-0.00346451
-0.00454008
-0.00613945
-0.00902621
-0.0149819
-0.0273352
-0.0507325
-0.0863553
-0.124277
-0.114962
-0.0876634
-0.109137
-0.20196
-0.415077
-0.868548
-1.84663
-3.45078
-5.59714
-8.98261
-11.2409
-10.7509
-8.80785
-6.55304
-4.50844
-2.84222
-1.51539
-0.646106
-0.183791
0.00174625
0.0318501
0.0183175
0.00716038
0.00239696
0.000311691
2.1471e-33
1.13566e-32
4.02889e-32
1.35674e-31
4.49496e-31
1.46291e-30
4.66568e-30
1.47677e-29
4.46708e-29
1.34593e-28
4.09461e-28
1.26769e-27
4.00147e-27
1.29172e-26
4.27261e-26
1.44626e-25
4.98909e-25
1.75679e-24
6.27784e-24
2.26344e-23
8.24123e-23
3.03716e-22
1.11778e-21
4.1236e-21
1.52703e-20
5.61565e-20
2.06411e-19
7.56984e-19
2.75421e-18
9.91644e-18
3.62181e-17
1.35251e-16
4.85478e-16
1.70231e-15
5.9646e-15
2.10328e-14
7.21118e-14
2.52949e-13
8.42382e-13
2.84093e-12
9.45965e-12
3.03935e-11
9.66816e-11
2.96078e-10
9.412e-10
2.93441e-09
8.8182e-09
2.38885e-08
5.5114e-08
1.00493e-07
1.33824e-07
1.34021e-07
8.40401e-08
-8.77877e-08
-6.51386e-07
-2.49996e-06
-7.59454e-06
-2.23002e-05
-6.06561e-05
-0.000151961
-0.00034909
-0.000653092
-0.000872657
-0.0012792
-0.00194058
-0.00261022
-0.00342697
-0.00449842
-0.00607428
-0.00888666
-0.0147125
-0.0268412
-0.0501029
-0.086154
-0.12557
-0.118208
-0.089541
-0.110832
-0.205649
-0.425077
-0.894394
-1.90998
-3.55763
-5.75777
-9.21713
-11.3576
-10.7584
-8.7588
-6.4786
-4.42876
-2.76631
-1.45238
-0.605786
-0.164625
0.00701591
0.0311708
0.0171496
0.00663046
0.00221637
0.000284834
9.3676e-34
5.01046e-33
1.74189e-32
5.45992e-32
1.65307e-31
4.92111e-31
1.44879e-30
4.30327e-30
1.32962e-29
4.38967e-29
1.51014e-28
5.3877e-28
1.97783e-27
7.39227e-27
2.79858e-26
1.06935e-25
4.11661e-25
1.59399e-24
6.18282e-24
2.39276e-23
9.25194e-23
3.55818e-22
1.35995e-21
5.15418e-21
1.93596e-20
7.23011e-20
2.69263e-19
1.01122e-18
3.69305e-18
1.33243e-17
5.01625e-17
1.79383e-16
6.28843e-16
2.24072e-15
7.97648e-15
2.76582e-14
9.42984e-14
3.20627e-13
1.08694e-12
3.5653e-12
1.17023e-11
3.61557e-11
1.19985e-10
3.66035e-10
1.18073e-09
3.60968e-09
1.07142e-08
2.81198e-08
6.14788e-08
1.07095e-07
1.35722e-07
1.30877e-07
6.90111e-08
-1.42516e-07
-7.85983e-07
-2.68891e-06
-7.9409e-06
-2.29711e-05
-6.17104e-05
-0.000153089
-0.000348274
-0.000647772
-0.00086812
-0.00126714
-0.00192223
-0.00258715
-0.0033989
-0.00446803
-0.00603402
-0.00879759
-0.0145185
-0.0264438
-0.0496527
-0.0862198
-0.127374
-0.122331
-0.0920922
-0.113393
-0.211263
-0.439826
-0.933757
-2.00134
-3.70591
-5.99102
-9.55075
-11.5104
-10.75
-8.66656
-6.36229
-4.30912
-2.65499
-1.36466
-0.554052
-0.141524
0.0121958
0.0299223
0.0157797
0.00599832
0.00201723
0.000256165
3.15502e-34
1.68684e-33
6.1286e-33
2.03675e-32
6.64784e-32
2.19989e-31
7.50162e-31
2.76865e-30
1.0322e-29
3.91274e-29
1.53694e-28
6.00507e-28
2.40206e-27
9.43509e-27
3.71054e-26
1.45661e-25
5.70208e-25
2.22363e-24
8.62726e-24
3.33311e-23
1.28217e-22
4.90666e-22
1.86551e-21
7.03411e-21
2.68516e-20
1.00075e-19
3.71223e-19
1.36593e-18
4.89332e-18
1.82983e-17
6.56922e-17
2.34832e-16
8.27692e-16
2.92456e-15
1.02996e-14
3.54673e-14
1.195e-13
4.07964e-13
1.36104e-12
4.46225e-12
1.45595e-11
4.55312e-11
1.47902e-10
4.52422e-10
1.37987e-09
4.32953e-09
1.25461e-08
3.1871e-08
6.82709e-08
1.08775e-07
1.361e-07
1.26777e-07
4.74826e-08
-1.95756e-07
-9.25702e-07
-2.8073e-06
-8.26844e-06
-2.36136e-05
-6.26788e-05
-0.000153645
-0.00034688
-0.000642794
-0.000864606
-0.00125715
-0.00190848
-0.00257041
-0.0033805
-0.00445103
-0.00601165
-0.0087391
-0.0143792
-0.0261482
-0.0493748
-0.0864754
-0.129258
-0.126254
-0.0949135
-0.116755
-0.218428
-0.457239
-0.97497
-2.09011
-3.83899
-6.25588
-9.8714
-11.6216
-10.7033
-8.55632
-6.24682
-4.16889
-2.53619
-1.28083
-0.506184
-0.120656
0.0164379
0.0285164
0.0145069
0.00546999
0.00183798
0.000230743
2.24941e-34
1.24345e-33
4.87404e-33
1.80033e-32
6.62084e-32
2.46212e-31
9.2843e-31
3.53823e-30
1.34997e-29
5.3545e-29
2.08786e-28
8.21533e-28
3.27521e-27
1.28101e-26
5.12201e-26
1.99968e-25
7.77392e-25
3.08434e-24
1.1973e-23
4.62254e-23
1.77422e-22
6.75228e-22
2.55203e-21
9.58551e-21
3.58036e-20
1.32614e-19
4.8815e-19
1.81473e-18
6.5769e-18
2.36572e-17
8.46398e-17
3.09424e-16
1.08059e-15
3.79473e-15
1.31077e-14
4.49617e-14
1.49306e-13
4.88692e-13
1.6503e-12
5.4407e-12
1.73614e-11
5.50347e-11
1.69524e-10
5.36167e-10
1.62624e-09
5.01331e-09
1.41541e-08
3.5831e-08
6.96206e-08
1.10001e-07
1.37719e-07
1.2176e-07
3.05581e-08
-2.58797e-07
-9.79406e-07
-2.94523e-06
-8.59975e-06
-2.41918e-05
-6.34596e-05
-0.000154441
-0.000346377
-0.000639469
-0.000862151
-0.00125128
-0.00189908
-0.00255949
-0.00337189
-0.00444443
-0.00600457
-0.00871214
-0.0143041
-0.0260043
-0.049304
-0.0870329
-0.131436
-0.130207
-0.097519
-0.11975
-0.224842
-0.473016
-1.01571
-2.18354
-3.98546
-6.47876
-10.1436
-11.7281
-10.6732
-8.4642
-6.13809
-4.06687
-2.44633
-1.2156
-0.469203
-0.104886
0.019213
0.0273204
0.0134971
0.00506181
0.0016779
0.00021204
3.2244e-34
1.87517e-33
7.63177e-33
2.94623e-32
1.12748e-31
4.31736e-31
1.6559e-30
6.36325e-30
2.44685e-29
9.42977e-29
3.62236e-28
1.38219e-27
5.43474e-27
2.0879e-26
7.99641e-26
3.11231e-25
1.19342e-24
4.57862e-24
1.75848e-23
6.63849e-23
2.55715e-22
9.55267e-22
3.54297e-21
1.30623e-20
4.8452e-20
1.81158e-19
6.58061e-19
2.35623e-18
8.63053e-18
3.05761e-17
1.07792e-16
3.9344e-16
1.36157e-15
4.69143e-15
1.59333e-14
5.39322e-14
1.78439e-13
5.78349e-13
1.95352e-12
6.67318e-12
2.07809e-11
6.37787e-11
1.97312e-10
6.17936e-10
1.87717e-09
5.63917e-09
1.60187e-08
3.69835e-08
7.16821e-08
1.14252e-07
1.37744e-07
1.15809e-07
1.68149e-08
-2.92627e-07
-1.05883e-06
-3.10328e-06
-8.85987e-06
-2.47018e-05
-6.40452e-05
-0.000154695
-0.00034514
-0.000635933
-0.000859928
-0.0012454
-0.00189165
-0.00255188
-0.00336475
-0.00444053
-0.00600373
-0.00869594
-0.0142493
-0.0258827
-0.0492387
-0.0874231
-0.132968
-0.133285
-0.099604
-0.122056
-0.229909
-0.486095
-1.04922
-2.25991
-4.10232
-6.65747
-10.3562
-11.8172
-10.6558
-8.39567
-6.05319
-3.98822
-2.37662
-1.16679
-0.442178
-0.0937489
0.0208826
0.0263897
0.0127644
0.0047663
0.00157975
0.000197988
4.98368e-34
2.80637e-33
1.16135e-32
4.45585e-32
1.68136e-31
6.52421e-31
2.48197e-30
9.48836e-30
3.63216e-29
1.38987e-28
5.32123e-28
2.03726e-27
7.79311e-27
2.97713e-26
1.13922e-25
4.36797e-25
1.67403e-24
6.34521e-24
2.40252e-23
9.16511e-23
3.43797e-22
1.28129e-21
4.74508e-21
1.74459e-20
6.35901e-20
2.29732e-19
8.32016e-19
2.91832e-18
1.06915e-17
3.84367e-17
1.35006e-16
4.7235e-16
1.63781e-15
5.64545e-15
1.8978e-14
6.44836e-14
2.19185e-13
7.05883e-13
2.38936e-12
7.72527e-12
2.42377e-11
7.53419e-11
2.3095e-10
6.90194e-10
2.10179e-09
6.23198e-09
1.68058e-08
3.70108e-08
7.46596e-08
1.16627e-07
1.36518e-07
1.11451e-07
6.94818e-09
-3.16635e-07
-1.11243e-06
-3.22278e-06
-9.06694e-06
-2.50139e-05
-6.43913e-05
-0.000154599
-0.000343486
-0.000632176
-0.000857575
-0.00123926
-0.00188414
-0.00254424
-0.00335717
-0.00443384
-0.00599735
-0.00867517
-0.0141875
-0.025753
-0.0491127
-0.0876374
-0.134168
-0.135983
-0.101441
-0.123864
-0.233696
-0.495918
-1.0746
-2.31748
-4.19074
-6.79173
-10.5117
-11.8865
-10.6482
-8.35007
-5.99412
-3.93284
-2.32706
-1.13249
-0.423384
-0.0860954
0.0219338
0.0256929
0.0122378
0.00456008
0.00151095
0.000188197
7.08631e-34
4.02148e-33
1.64821e-32
6.3848e-32
2.44452e-31
9.33913e-31
3.56557e-30
1.36091e-29
5.19175e-29
1.97923e-28
7.53538e-28
2.86944e-27
1.09363e-26
4.16763e-26
1.58019e-25
5.99274e-25
2.27096e-24
8.56028e-24
3.21698e-23
1.206e-22
4.50178e-22
1.66561e-21
6.12404e-21
2.23659e-20
8.12134e-20
2.93329e-19
1.05058e-18
3.70406e-18
1.28686e-17
4.49474e-17
1.60623e-16
5.70652e-16
1.9658e-15
6.69776e-15
2.23198e-14
7.47956e-14
2.51288e-13
8.01323e-13
2.70446e-12
8.78465e-12
2.76817e-11
8.44838e-11
2.6144e-10
7.83173e-10
2.39359e-09
6.98097e-09
1.75229e-08
3.97108e-08
7.80461e-08
1.18893e-07
1.3545e-07
1.06571e-07
-3.30092e-09
-3.39911e-07
-1.16061e-06
-3.31489e-06
-9.22106e-06
-2.52126e-05
-6.44433e-05
-0.00015392
-0.000340891
-0.000627637
-0.000854706
-0.00123179
-0.00187503
-0.00253369
-0.00334724
-0.00442414
-0.00598561
-0.00864529
-0.0141056
-0.0255765
-0.0488664
-0.087607
-0.134989
-0.138507
-0.103001
-0.125064
-0.235952
-0.502122
-1.09106
-2.35573
-4.25102
-6.88315
-10.6181
-11.9397
-10.6512
-8.32575
-5.95876
-3.89831
-2.29518
-1.1103
-0.411192
-0.0811435
0.0225867
0.0252037
0.011889
0.00442065
0.00146452
0.000181622
9.23284e-34
5.26206e-33
2.16595e-32
8.39881e-32
3.21811e-31
1.22789e-30
4.67484e-30
1.77898e-29
6.76816e-29
2.58771e-28
9.81556e-28
3.71474e-27
1.40499e-26
5.3451e-26
2.01515e-25
7.58884e-25
2.85681e-24
1.07046e-23
3.97927e-23
1.509e-22
5.5938e-22
2.02476e-21
7.56549e-21
2.7323e-20
9.88854e-20
3.59167e-19
1.28395e-18
4.55602e-18
1.59955e-17
5.55845e-17
1.90358e-16
6.67687e-16
2.28608e-15
7.81552e-15
2.61913e-14
8.68418e-14
2.85708e-13
9.04438e-13
3.03971e-12
9.85792e-12
3.06039e-11
9.55719e-11
2.92074e-10
8.86057e-10
2.51092e-09
6.77733e-09
1.82426e-08
4.23802e-08
8.10585e-08
1.20356e-07
1.33737e-07
1.02474e-07
-1.17287e-08
-3.58681e-07
-1.19574e-06
-3.37867e-06
-9.31415e-06
-2.5271e-05
-6.41874e-05
-0.000152606
-0.000336967
-0.000620969
-0.000851116
-0.00122
-0.00186213
-0.00252114
-0.00333143
-0.00440788
-0.00596222
-0.00859531
-0.0139763
-0.0252936
-0.0484556
-0.0873102
-0.135433
-0.140868
-0.104371
-0.125701
-0.236763
-0.504953
-1.09932
-2.37671
-4.28686
-6.93758
-10.685
-11.9816
-10.6639
-8.32008
-5.94363
-3.88117
-2.278
-1.09778
-0.404149
-0.078245
0.022905
0.0248866
0.0116685
0.00433286
0.00143524
0.000177485
1.12068e-33
6.59827e-33
2.68255e-32
1.03261e-31
4.01032e-31
1.5284e-30
5.84075e-30
2.22376e-29
8.44912e-29
3.20335e-28
1.21405e-27
4.61795e-27
1.74195e-26
6.57686e-26
2.48228e-25
9.18218e-25
3.56904e-24
1.32714e-23
4.93573e-23
1.8247e-22
6.6592e-22
2.48824e-21
9.04449e-21
3.27533e-20
1.17875e-19
4.22741e-19
1.50876e-18
5.31684e-18
1.89887e-17
6.63325e-17
2.28606e-16
7.77075e-16
2.62023e-15
8.79974e-15
2.91167e-14
9.57408e-14
3.10146e-13
9.93437e-13
3.35426e-12
1.07181e-11
3.30215e-11
1.02173e-10
3.11818e-10
9.08144e-10
2.55105e-09
7.4373e-09
1.95688e-08
4.47391e-08
8.39255e-08
1.21373e-07
1.32269e-07
9.84298e-08
-1.98849e-08
-3.70904e-07
-1.21927e-06
-3.42492e-06
-9.35813e-06
-2.52207e-05
-6.37389e-05
-0.000151035
-0.000332929
-0.000614391
-0.000846475
-0.00120693
-0.00184717
-0.00250491
-0.00331338
-0.00438662
-0.00593011
-0.00852722
-0.0137545
-0.0249963
-0.0479544
-0.0867743
-0.135504
-0.143295
-0.105718
-0.125876
-0.236329
-0.504934
-1.10074
-2.38347
-4.30293
-6.9622
-10.721
-12.0157
-10.6856
-8.3295
-5.94465
-3.87774
-2.27194
-1.0927
-0.401013
-0.0768775
0.0230482
0.0247076
0.0115465
0.00428414
0.0014189
0.000175166
1.34793e-33
7.84083e-33
3.20765e-32
1.24351e-31
4.76284e-31
1.81704e-30
6.92197e-30
2.63215e-29
9.97303e-29
3.78104e-28
1.45689e-27
5.50114e-27
2.07391e-26
7.86142e-26
2.97028e-25
1.12231e-24
4.2013e-24
1.56281e-23
5.77261e-23
2.1407e-22
7.73006e-22
2.89279e-21
1.0478e-20
3.77922e-20
1.33377e-19
4.85136e-19
1.70867e-18
6.03227e-18
2.142e-17
7.48528e-17
2.57834e-16
8.74994e-16
2.92323e-15
9.88346e-15
3.23624e-14
1.05615e-13
3.43262e-13
1.08281e-12
3.68534e-12
1.15358e-11
3.54554e-11
1.07846e-10
3.21168e-10
9.34276e-10
2.8011e-09
8.04099e-09
2.09734e-08
4.7335e-08
8.68026e-08
1.22982e-07
1.31193e-07
9.32017e-08
-3.78398e-08
-3.72667e-07
-1.23508e-06
-3.45205e-06
-9.35484e-06
-2.50559e-05
-6.30142e-05
-0.00014859
-0.000327098
-0.000606339
-0.000842644
-0.00119364
-0.00183183
-0.00248838
-0.00329368
-0.0043624
-0.00589751
-0.00846158
-0.0135979
-0.0246549
-0.0473276
-0.086023
-0.135285
-0.145376
-0.106841
-0.125699
-0.235029
-0.502791
-1.09701
-2.37936
-4.30386
-6.96414
-10.734
-12.0445
-10.7138
-8.35037
-5.95797
-3.88469
-2.27458
-1.09315
-0.40075
-0.0766223
0.0230573
0.0246298
0.0114952
0.00426337
0.00141184
0.000174148
1.56865e-33
9.00421e-33
3.68777e-32
1.42784e-31
5.46034e-31
2.08167e-30
7.93781e-30
3.02934e-29
1.15107e-28
4.41581e-28
1.68018e-27
6.36574e-27
2.40036e-26
9.09588e-26
3.44457e-25
1.29063e-24
4.82056e-24
1.79506e-23
6.64977e-23
2.45135e-22
8.98134e-22
3.26029e-21
1.18958e-20
4.27461e-20
1.52619e-19
5.40947e-19
1.9129e-18
6.60603e-18
2.37005e-17
8.19004e-17
2.76295e-16
9.54888e-16
3.24752e-15
1.08511e-14
3.61516e-14
1.1693e-13
3.72658e-13
1.17842e-12
3.862e-12
1.25067e-11
3.79907e-11
1.147e-10
3.39789e-10
1.00946e-09
3.01527e-09
8.58865e-09
2.2195e-08
4.94777e-08
8.92677e-08
1.24415e-07
1.30786e-07
9.02518e-08
-4.57332e-08
-3.71058e-07
-1.24772e-06
-3.46809e-06
-9.32004e-06
-2.48412e-05
-6.2222e-05
-0.000146584
-0.000322157
-0.000598707
-0.00083727
-0.00117927
-0.0018159
-0.00247164
-0.00327377
-0.00433715
-0.00586343
-0.00839936
-0.0134123
-0.0242613
-0.046642
-0.0851771
-0.134847
-0.147225
-0.107832
-0.125269
-0.23309
-0.499121
-1.08966
-2.36748
-4.29368
-6.94916
-10.7288
-12.0684
-10.7479
-8.38083
-5.98074
-3.89936
-2.28354
-1.09768
-0.402591
-0.0771655
0.0229728
0.0246244
0.0114938
0.00426218
0.00141126
0.000174039
1.69876e-33
1.00453e-32
4.13519e-32
1.59713e-31
6.10465e-31
2.32898e-30
8.89277e-30
3.39738e-29
1.30122e-28
4.96896e-28
1.8904e-27
7.16383e-27
2.6954e-26
1.02617e-25
3.84288e-25
1.43395e-24
5.2743e-24
2.01441e-23
7.43452e-23
2.74552e-22
1.00556e-21
3.66132e-21
1.32578e-20
4.75997e-20
1.69456e-19
5.97182e-19
2.08112e-18
7.22294e-18
2.52199e-17
9.07892e-17
3.0718e-16
1.05363e-15
3.52888e-15
1.18737e-14
3.87759e-14
1.24641e-13
3.94488e-13
1.24817e-12
4.09063e-12
1.33454e-11
4.07706e-11
1.23875e-10
3.65054e-10
1.09353e-09
3.18891e-09
9.04012e-09
2.31576e-08
5.08482e-08
9.05314e-08
1.24749e-07
1.30036e-07
8.86652e-08
-4.77566e-08
-3.68834e-07
-1.26384e-06
-3.47851e-06
-9.26602e-06
-2.45602e-05
-6.13494e-05
-0.000144257
-0.00031743
-0.000591364
-0.00083258
-0.00116524
-0.00179921
-0.00245378
-0.00325239
-0.00430923
-0.00582223
-0.00832279
-0.0132418
-0.0239023
-0.0459665
-0.0842529
-0.134197
-0.149006
-0.108825
-0.124697
-0.230765
-0.494426
-1.07958
-2.34983
-4.276
-6.92356
-10.7118
-12.0893
-10.7846
-8.4164
-6.00967
-3.9194
-2.29691
-1.10481
-0.40575
-0.0782222
0.0228229
0.0246655
0.0115262
0.00427449
0.00141521
0.000174566
1.78773e-33
1.13246e-32
4.61275e-32
1.78246e-31
6.82696e-31
2.61234e-30
9.99147e-30
3.80757e-29
1.4487e-28
5.50553e-28
2.08663e-27
7.85348e-27
3.01886e-26
1.13598e-25
4.25363e-25
1.56393e-24
5.95839e-24
2.20304e-23
8.12789e-23
2.9744e-22
1.07984e-21
3.90297e-21
1.43124e-20
5.1186e-20
1.82055e-19
6.41028e-19
2.28504e-18
7.97812e-18
2.76615e-17
9.56412e-17
3.27569e-16
1.12484e-15
3.7731e-15
1.24903e-14
4.09064e-14
1.31387e-13
4.19209e-13
1.30571e-12
4.364e-12
1.4087e-11
4.24258e-11
1.27597e-10
3.8534e-10
1.15155e-09
3.33728e-09
9.39581e-09
2.38063e-08
5.17725e-08
9.1317e-08
1.24839e-07
1.29451e-07
8.76157e-08
-4.85735e-08
-3.66289e-07
-1.27427e-06
-3.48212e-06
-9.20739e-06
-2.43113e-05
-6.05762e-05
-0.000142018
-0.000312165
-0.000583901
-0.000828552
-0.00115228
-0.00178363
-0.00243715
-0.00323202
-0.0042842
-0.00578306
-0.00824846
-0.0130794
-0.0235331
-0.0453003
-0.0833495
-0.13351
-0.150542
-0.10973
-0.124059
-0.228219
-0.489168
-1.06844
-2.32969
-4.25446
-6.89211
-10.6879
-12.1072
-10.8217
-8.4538
-6.04076
-3.94148
-2.31206
-1.11347
-0.409785
-0.0796352
0.0226542
0.02474
0.0115809
0.0042955
0.00142201
0.000175489
2.15496e-33
1.22574e-32
5.02229e-32
1.94488e-31
7.4347e-31
2.837e-30
1.09013e-29
4.13554e-29
1.56317e-28
5.9649e-28
2.28062e-27
8.61118e-27
3.24623e-26
1.22245e-25
4.59525e-25
1.7092e-24
6.29212e-24
2.37437e-23
8.71578e-23
3.19949e-22
1.17364e-21
4.26101e-21
1.53872e-20
5.51196e-20
1.95448e-19
6.85205e-19
2.4099e-18
8.36373e-18
2.89676e-17
1.01824e-16
3.49311e-16
1.19457e-15
3.95268e-15
1.30417e-14
4.19234e-14
1.33582e-13
4.39165e-13
1.36319e-12
4.52299e-12
1.41643e-11
4.53923e-11
1.35917e-10
4.07082e-10
1.18299e-09
3.44836e-09
9.64729e-09
2.42906e-08
5.24649e-08
9.19006e-08
1.24891e-07
1.28911e-07
8.68505e-08
-4.89406e-08
-3.63984e-07
-1.27909e-06
-3.47605e-06
-9.12899e-06
-2.40325e-05
-5.97282e-05
-0.000139977
-0.000307513
-0.000576888
-0.000824231
-0.00114026
-0.00176908
-0.00242185
-0.00321354
-0.00426076
-0.00574253
-0.00818147
-0.012932
-0.0232093
-0.0446844
-0.0824693
-0.132806
-0.151859
-0.110556
-0.123431
-0.225794
-0.48411
-1.05758
-2.30965
-4.23234
-6.85989
-10.661
-12.1216
-10.8561
-8.48968
-6.07114
-3.9634
-2.32754
-1.12226
-0.413927
-0.0811099
0.0224356
0.0248225
0.0116426
0.00431949
0.00142985
0.000176567
2.31125e-33
1.31586e-32
5.39424e-32
2.08992e-31
8.01891e-31
3.05826e-30
1.1652e-29
4.43376e-29
1.68278e-28
6.3633e-28
2.40915e-27
9.15871e-27
3.45568e-26
1.30213e-25
4.89404e-25
1.82474e-24
6.7219e-24
2.51372e-23
9.19814e-23
3.36554e-22
1.2385e-21
4.49228e-21
1.62207e-20
5.80364e-20
2.0509e-19
7.1766e-19
2.5304e-18
8.74678e-18
2.989e-17
1.05204e-16
3.56158e-16
1.21759e-15
4.10032e-15
1.35384e-14
4.41891e-14
1.43379e-13
4.58037e-13
1.48551e-12
4.80676e-12
1.53229e-11
4.67045e-11
1.39156e-10
4.17422e-10
1.20633e-09
3.5307e-09
9.83909e-09
2.46465e-08
5.29474e-08
9.22572e-08
1.24862e-07
1.2855e-07
8.63646e-08
-4.90881e-08
-3.61925e-07
-1.28122e-06
-3.46693e-06
-9.05491e-06
-2.37575e-05
-5.89671e-05
-0.00013805
-0.000303488
-0.000571012
-0.000820608
-0.00113038
-0.00175657
-0.00240862
-0.00319769
-0.00424118
-0.00571545
-0.00812247
-0.0128044
-0.022935
-0.0441452
-0.0817069
-0.132158
-0.152904
-0.11126
-0.122889
-0.223677
-0.479633
-1.04793
-2.29161
-4.21183
-6.83005
-10.6347
-12.1326
-10.886
-8.52149
-6.09843
-3.98331
-2.34168
-1.13048
-0.417834
-0.0825066
0.0222426
0.0249069
0.0117039
0.00434326
0.00143761
0.000177633
2.29506e-33
1.37476e-32
5.6456e-32
2.18805e-31
8.3832e-31
3.20603e-30
1.2255e-29
4.67298e-29
1.77209e-28
6.68714e-28
2.5482e-27
9.6076e-27
3.61999e-26
1.36211e-25
5.10872e-25
1.90909e-24
7.16473e-24
2.64578e-23
9.70756e-23
3.54681e-22
1.302e-21
4.67468e-21
1.70003e-20
6.05564e-20
2.14577e-19
7.54465e-19
2.62917e-18
9.22649e-18
3.15889e-17
1.08591e-16
3.71964e-16
1.28603e-15
4.27533e-15
1.40889e-14
4.59459e-14
1.49628e-13
4.80555e-13
1.52435e-12
4.89446e-12
1.52749e-11
4.69209e-11
1.41028e-10
4.10117e-10
1.22438e-09
3.60081e-09
9.98337e-09
2.49132e-08
5.33089e-08
9.25243e-08
1.24832e-07
1.28263e-07
8.60037e-08
-4.91593e-08
-3.60367e-07
-1.28163e-06
-3.45728e-06
-8.99105e-06
-2.35533e-05
-5.84069e-05
-0.000136655
-0.000300425
-0.000566077
-0.000817407
-0.00112163
-0.0017457
-0.00239723
-0.00318365
-0.00422295
-0.00568839
-0.00807494
-0.0127006
-0.0227112
-0.0437287
-0.0811
-0.131618
-0.153673
-0.111814
-0.122453
-0.221965
-0.475964
-1.03996
-2.27645
-4.19464
-6.80514
-10.6118
-12.1407
-10.9101
-8.54751
-6.1209
-3.99981
-2.35363
-1.1373
-0.421078
-0.0836732
0.0221054
0.0249789
0.0117567
0.00436382
0.00144433
0.00017856
2.45563e-33
1.40458e-32
5.74821e-32
2.26085e-31
8.64267e-31
3.30047e-30
1.25975e-29
4.80817e-29
1.83211e-28
6.95308e-28
2.63296e-27
9.95302e-27
3.75952e-26
1.42011e-25
5.35197e-25
1.99901e-24
7.43097e-24
2.74852e-23
1.01089e-22
3.69564e-22
1.34295e-21
4.84617e-21
1.73762e-20
6.18873e-20
2.20924e-19
7.78985e-19
2.73508e-18
9.44634e-18
3.31684e-17
1.13013e-16
3.83072e-16
1.27944e-15
4.3589e-15
1.43249e-14
4.74833e-14
1.54394e-13
4.89363e-13
1.51408e-12
4.83295e-12
1.5593e-11
4.64573e-11
1.39762e-10
4.13861e-10
1.23615e-09
3.65016e-09
1.00862e-08
2.51001e-08
5.35601e-08
9.27109e-08
1.24801e-07
1.28051e-07
8.57326e-08
-4.92416e-08
-3.5934e-07
-1.28166e-06
-3.45022e-06
-8.94716e-06
-2.34069e-05
-5.80011e-05
-0.00013565
-0.000298251
-0.000562737
-0.000815234
-0.00111582
-0.00173825
-0.00238923
-0.00317368
-0.00420999
-0.00566919
-0.00804168
-0.0126342
-0.0225653
-0.0434277
-0.0806665
-0.131223
-0.154188
-0.112204
-0.122144
-0.220746
-0.473334
-1.03425
-2.26556
-4.1821
-6.78697
-10.5947
-12.1461
-10.9273
-8.56618
-6.13713
-4.01175
-2.36224
-1.1423
-0.423469
-0.0845394
0.0219871
0.0250317
0.0117956
0.004379
0.00144929
0.000179244
2.47861e-33
1.45028e-32
5.92013e-32
2.29517e-31
8.81562e-31
3.38337e-30
1.29294e-29
4.93537e-29
1.88209e-28
7.16252e-28
2.71677e-27
1.02745e-26
3.87433e-26
1.45769e-25
5.47885e-25
2.04393e-24
7.58511e-24
2.8015e-23
1.02448e-22
3.72554e-22
1.35434e-21
4.88742e-21
1.77358e-20
6.2717e-20
2.25374e-19
7.90602e-19
2.77863e-18
9.75177e-18
3.36491e-17
1.15199e-16
3.89732e-16
1.34186e-15
4.42043e-15
1.45103e-14
4.79981e-14
1.53336e-13
4.94495e-13
1.53483e-12
5.0918e-12
1.59505e-11
4.79337e-11
1.42257e-10
4.16511e-10
1.25716e-09
3.67424e-09
1.015e-08
2.52233e-08
5.37245e-08
9.28274e-08
1.2478e-07
1.27917e-07
8.55606e-08
-4.93407e-08
-3.58882e-07
-1.28215e-06
-3.44737e-06
-8.92603e-06
-2.33344e-05
-5.77941e-05
-0.000135124
-0.000297093
-0.000561002
-0.000814105
-0.00111279
-0.00173426
-0.00238492
-0.00316825
-0.00420279
-0.00565858
-0.00802334
-0.0125925
-0.0224801
-0.0432694
-0.0804341
-0.131007
-0.154449
-0.112409
-0.121976
-0.220086
-0.471901
-1.03112
-2.25954
-4.1751
-6.77688
-10.585
-12.1489
-10.9367
-8.57647
-6.14606
-4.01835
-2.36698
-1.14506
-0.424793
-0.0850177
0.0219117
0.0250587
0.0118164
0.00438722
0.00145199
0.000179618
2.53116e-33
1.46823e-32
6.01446e-32
2.33326e-31
8.94276e-31
3.41673e-30
1.30372e-29
4.97503e-29
1.89752e-28
7.27303e-28
2.75762e-27
1.04238e-26
3.91309e-26
1.43522e-25
5.5983e-25
2.07398e-24
7.69033e-24
2.84039e-23
1.04499e-22
3.826e-22
1.39295e-21
5.03635e-21
1.80899e-20
6.43919e-20
2.25902e-19
8.09547e-19
2.82742e-18
9.88434e-18
3.4586e-17
1.19076e-16
4.02785e-16
1.36149e-15
4.49226e-15
1.50885e-14
4.89409e-14
1.55362e-13
5.01799e-13
1.56017e-12
5.09857e-12
1.57314e-11
4.86159e-11
1.44194e-10
4.24485e-10
1.26093e-09
3.69013e-09
1.01889e-08
2.5297e-08
5.3827e-08
9.291e-08
1.24785e-07
1.27842e-07
8.54278e-08
-4.95168e-08
-3.5896e-07
-1.28362e-06
-3.44888e-06
-8.92401e-06
-2.33209e-05
-5.775e-05
-0.000135008
-0.000296835
-0.0005606
-0.000813817
-0.00111208
-0.00173334
-0.00238394
-0.00316705
-0.00420123
-0.00565633
-0.00801971
-0.0125855
-0.0224655
-0.0432418
-0.0803942
-0.130969
-0.154486
-0.11244
-0.121949
-0.219982
-0.471674
-1.03063
-2.2586
-4.17402
-6.77533
-10.5836
-12.1494
-10.9381
-8.57804
-6.1474
-4.01931
-2.36767
-1.14544
-0.42497
-0.0850781
0.021914
0.0250641
0.0118194
0.00438823
0.00145229
0.000179656
2.5255e-33
1.47184e-32
6.07566e-32
2.35738e-31
9.05362e-31
3.46687e-30
1.3252e-29
5.05645e-29
1.92561e-28
7.31744e-28
2.77494e-27
1.04991e-26
3.95444e-26
1.47382e-25
5.62925e-25
2.09268e-24
7.74932e-24
2.8199e-23
1.06107e-22
3.86068e-22
1.41262e-21
5.11103e-21
1.84031e-20
6.5834e-20
2.33126e-19
8.1878e-19
2.857e-18
1.00591e-17
3.47761e-17
1.19414e-16
4.06988e-16
1.36463e-15
4.58989e-15
1.50291e-14
4.93436e-14
1.57775e-13
5.05997e-13
1.58764e-12
5.13899e-12
1.61181e-11
4.87235e-11
1.4377e-10
4.28429e-10
1.26721e-09
3.68861e-09
1.02062e-08
2.53296e-08
5.38792e-08
9.29675e-08
1.24816e-07
1.27821e-07
8.53171e-08
-4.98518e-08
-3.59819e-07
-1.2868e-06
-3.45702e-06
-8.94946e-06
-2.33893e-05
-5.79205e-05
-0.000135411
-0.000297686
-0.000561863
-0.000814557
-0.00111418
-0.00173606
-0.0023868
-0.00317061
-0.00420584
-0.00566311
-0.00803171
-0.0126146
-0.0225236
-0.0433576
-0.0805603
-0.131122
-0.154291
-0.112286
-0.122068
-0.22046
-0.472715
-1.03291
-2.26301
-4.17919
-6.7828
-10.5909
-12.1476
-10.9314
-8.57056
-6.1408
-4.01441
-2.36407
-1.14334
-0.423951
-0.0847054
0.0219551
0.0250383
0.0118013
0.0043812
0.00145
0.000179339
2.57017e-33
1.46129e-32
6.00086e-32
2.33444e-31
8.98529e-31
3.44759e-30
1.31891e-29
5.02953e-29
1.91149e-28
7.23959e-28
2.73278e-27
1.02901e-26
3.87193e-26
1.45783e-25
5.48094e-25
2.04175e-24
7.51977e-24
2.79172e-23
1.03998e-22
3.80369e-22
1.37033e-21
5.04742e-21
1.80399e-20
6.53076e-20
2.30201e-19
8.04227e-19
2.79673e-18
9.90723e-18
3.40273e-17
1.171e-16
3.97904e-16
1.3277e-15
4.58658e-15
1.48828e-14
4.75873e-14
1.50954e-13
4.92605e-13
1.49562e-12
4.96494e-12
1.60147e-11
4.77525e-11
1.43297e-10
4.19849e-10
1.26709e-09
3.6876e-09
1.01941e-08
2.53134e-08
5.38727e-08
9.29933e-08
1.24871e-07
1.27855e-07
8.52399e-08
-5.03105e-08
-3.61414e-07
-1.29174e-06
-3.47196e-06
-9.00243e-06
-2.35382e-05
-5.82981e-05
-0.000136305
-0.000299591
-0.000564694
-0.00081624
-0.00111896
-0.0017422
-0.00239324
-0.00317858
-0.00421624
-0.00567849
-0.00805894
-0.0126727
-0.0226464
-0.0436053
-0.0809239
-0.131457
-0.153862
-0.111959
-0.122334
-0.221509
-0.474989
-1.0379
-2.27265
-4.19043
-6.79905
-10.6065
-12.1435
-10.9167
-8.55427
-6.12652
-4.00382
-2.35638
-1.13883
-0.421776
-0.0839119
0.0220507
0.0249895
0.0117647
0.00436678
0.00144525
0.000178679
2.53721e-33
1.44179e-32
5.9166e-32
2.29768e-31
8.81632e-31
3.37187e-30
1.28735e-29
4.90573e-29
1.86471e-28
7.07312e-28
2.67763e-27
1.01134e-26
3.81043e-26
1.43273e-25
5.36358e-25
1.98834e-24
7.49996e-24
2.76702e-23
1.0187e-22
3.73346e-22
1.3646e-21
4.98134e-21
1.79205e-20
6.39596e-20
2.26554e-19
7.96937e-19
2.7836e-18
9.66451e-18
3.38832e-17
1.15994e-16
3.94407e-16
1.32047e-15
4.46461e-15
1.46738e-14
4.79979e-14
1.55228e-13
4.92344e-13
1.50851e-12
4.95813e-12
1.59518e-11
4.77567e-11
1.40744e-10
4.17834e-10
1.26765e-09
3.67018e-09
1.01559e-08
2.52544e-08
5.38166e-08
9.29978e-08
1.24956e-07
1.27943e-07
8.51721e-08
-5.09742e-08
-3.63926e-07
-1.29895e-06
-3.49501e-06
-9.08702e-06
-2.37798e-05
-5.89163e-05
-0.000137773
-0.000302682
-0.00056923
-0.000818892
-0.00112664
-0.00175179
-0.00240326
-0.00319095
-0.00423234
-0.0057024
-0.0081016
-0.012764
-0.0228511
-0.04399
-0.0814797
-0.131957
-0.153189
-0.111469
-0.122745
-0.223099
-0.478419
-1.04539
-2.28701
-4.20713
-6.82335
-10.6295
-12.137
-10.8946
-8.52991
-6.10521
-3.98805
-2.34496
-1.13219
-0.418573
-0.082748
0.0222102
0.0249163
0.0117106
0.00434559
0.00143828
0.000177713
2.35119e-33
1.39545e-32
5.71154e-32
2.22418e-31
8.49503e-31
3.23768e-30
1.23774e-29
4.74451e-29
1.8031e-28
6.83493e-28
2.58403e-27
9.74656e-27
3.67289e-26
1.39078e-25
5.19163e-25
1.93085e-24
7.15934e-24
2.64437e-23
9.74644e-23
3.59585e-22
1.32295e-21
4.80026e-21
1.72886e-20
6.10669e-20
2.21973e-19
7.77693e-19
2.7143e-18
9.39209e-18
3.29163e-17
1.13822e-16
3.82448e-16
1.30999e-15
4.3548e-15
1.43883e-14
4.70634e-14
1.51223e-13
4.86243e-13
1.5108e-12
4.7818e-12
1.51684e-11
4.73808e-11
1.39852e-10
4.09123e-10
1.24868e-09
3.64542e-09
1.00929e-08
2.51414e-08
5.36855e-08
9.29542e-08
1.25064e-07
1.28095e-07
8.51446e-08
-5.17961e-08
-3.67332e-07
-1.30803e-06
-3.52448e-06
-9.19771e-06
-2.41002e-05
-5.97435e-05
-0.00013975
-0.000306878
-0.000575402
-0.000822525
-0.00113711
-0.00176426
-0.00241605
-0.00320659
-0.0042526
-0.0057326
-0.00815713
-0.0128824
-0.0231128
-0.0444865
-0.0821943
-0.132591
-0.152283
-0.110848
-0.123289
-0.22517
-0.482867
-1.05515
-2.30556
-4.22858
-6.85458
-10.6581
-12.1279
-10.8659
-8.49856
-6.07791
-3.96788
-2.33026
-1.12371
-0.414516
-0.0812763
0.0224084
0.0248242
0.0116428
0.00431904
0.00142955
0.000176504
2.3345e-33
1.33078e-32
5.47791e-32
2.1202e-31
8.07831e-31
3.0703e-30
1.18041e-29
4.47483e-29
1.69347e-28
6.50391e-28
2.45145e-27
9.23623e-27
3.47619e-26
1.31028e-25
4.97694e-25
1.85342e-24
6.87434e-24
2.54363e-23
9.44831e-23
3.46425e-22
1.26337e-21
4.58078e-21
1.6549e-20
5.9322e-20
2.11576e-19
7.44499e-19
2.62247e-18
9.06711e-18
3.18368e-17
1.08281e-16
3.64399e-16
1.24988e-15
4.19578e-15
1.38485e-14
4.38512e-14
1.45787e-13
4.65226e-13
1.48611e-12
4.7682e-12
1.52706e-11
4.59908e-11
1.40611e-10
4.12084e-10
1.23396e-09
3.59091e-09
9.99063e-09
2.49666e-08
5.34727e-08
9.28495e-08
1.25179e-07
1.28318e-07
8.51868e-08
-5.27182e-08
-3.71439e-07
-1.31705e-06
-3.55896e-06
-9.32978e-06
-2.44826e-05
-6.07279e-05
-0.00014208
-0.000311718
-0.000582191
-0.000826181
-0.00114881
-0.00177824
-0.0024302
-0.00322309
-0.00427215
-0.00576561
-0.00821973
-0.0130226
-0.0234135
-0.045077
-0.0830414
-0.133319
-0.151139
-0.11012
-0.123947
-0.227622
-0.488068
-1.06646
-2.32699
-4.25331
-6.89068
-10.6901
-12.1167
-10.8322
-8.46196
-6.04614
-3.94451
-2.31356
-1.11393
-0.409828
-0.079589
0.0226293
0.0247156
0.0115647
0.00428874
0.00141963
0.000175136
2.21336e-33
1.25939e-32
5.17263e-32
2.00173e-31
7.61626e-31
2.86205e-30
1.11804e-29
4.22427e-29
1.59803e-28
6.03481e-28
2.2742e-27
8.56059e-27
3.24352e-26
1.21886e-25
4.56711e-25
1.72598e-24
6.38797e-24
2.36282e-23
8.77705e-23
3.21678e-22
1.17939e-21
4.26079e-21
1.5762e-20
5.64279e-20
2.01306e-19
7.04063e-19
2.53094e-18
8.82425e-18
3.05571e-17
1.03865e-16
3.62355e-16
1.21295e-15
4.01933e-15
1.33208e-14
4.36705e-14
1.41908e-13
4.59159e-13
1.45993e-12
4.70654e-12
1.50613e-11
4.61702e-11
1.3728e-10
4.08556e-10
1.20889e-09
3.52755e-09
9.84291e-09
2.47049e-08
5.31425e-08
9.26447e-08
1.25299e-07
1.2863e-07
8.54025e-08
-5.33582e-08
-3.75396e-07
-1.32415e-06
-3.58969e-06
-9.46496e-06
-2.4893e-05
-6.18035e-05
-0.000144646
-0.00031705
-0.000589576
-0.000830134
-0.00116204
-0.00179359
-0.00244591
-0.00324189
-0.0042969
-0.00580398
-0.00829291
-0.0131821
-0.0237734
-0.0457476
-0.0840001
-0.134097
-0.149752
-0.109306