/*--------------------------------*- C++ -*----------------------------------*\
  =========                 |
  \\      /  F ield         | OpenFOAM: The Open Source CFD Toolbox
   \\    /   O peration     | Website:  https://openfoam.org
    \\  /    A nd           | Version:  10
     \\/     M anipulation  |
\*---------------------------------------------------------------------------*/
FoamFile
{
    format      ascii;
    class       volScalarField;
    location    "1";
    object      RR.OH;
}
// * * * * * * * * * * * * * * * * * * * * * * * * * * * * * * * * * * * * * //

dimensions      [1 -3 -1 0 0 0 0];

internalField   nonuniform List<scalar> 
4000
(
5.1083e-21
-1.07239e-20
-1.30841e-21
-1.13334e-21
4.95074e-21
-1.77081e-22
-1.33998e-22
5.8389e-22
-2.02262e-21
-4.22024e-21
-5.9813e-21
-3.17056e-21
-5.33118e-21
-2.95346e-21
-6.41196e-21
1.41993e-20
1.43962e-20
1.12956e-20
3.75894e-21
-2.0131e-20
5.76927e-22
-5.54546e-21
-1.40081e-20
-3.80784e-21
1.85338e-20
-1.16427e-20
-2.76047e-20
-7.15219e-21
-4.75142e-21
-2.32248e-20
-3.90901e-20
-1.07349e-20
-4.85019e-20
2.55739e-19
-1.0818e-19
-1.79149e-18
-4.49007e-19
1.21986e-19
-1.71907e-19
-2.15737e-20
1.81288e-20
-1.5282e-19
-1.77389e-19
-1.13862e-19
-6.0241e-19
-2.71315e-18
-1.7448e-17
-1.06026e-16
-5.9107e-16
-3.04359e-15
-1.46482e-14
-6.66839e-14
-2.61236e-13
-1.07529e-12
-4.12969e-12
-1.49823e-11
-5.28007e-11
-1.90135e-10
-6.85699e-10
-2.43432e-09
-7.87829e-09
-1.92468e-08
-2.44719e-08
-3.35142e-08
-1.46737e-07
-6.37002e-07
-2.59316e-06
-9.35705e-06
-2.99793e-05
-8.65451e-05
-0.000228159
-0.00055853
-0.00128286
-0.00279389
-0.00581635
-0.0116731
-0.0223882
-0.0412947
-0.0734081
-0.126393
-0.209561
-0.326909
-0.484637
-0.740628
-0.7672
0.743093
1.19466
1.02778
0.650294
0.279595
0.00109757
-0.177526
-0.242807
-0.217468
-0.150812
-0.0798027
-0.0330658
-0.0116064
-0.00354761
-0.000470588
2.35892e-20
-6.32264e-22
-5.61556e-22
-3.08882e-21
-1.67822e-20
-3.00436e-21
4.99095e-21
-2.47812e-22
-6.48937e-22
7.72132e-21
-2.93717e-21
-5.93611e-21
2.42946e-22
-7.24073e-22
-7.70016e-22
-8.00613e-21
1.00547e-20
-3.05654e-21
3.09105e-20
1.95316e-20
-1.0441e-20
-2.29805e-21
1.6858e-20
-2.13159e-21
-4.70226e-21
1.49605e-20
-1.87062e-21
2.37838e-20
-3.3944e-21
-2.13296e-20
-3.73304e-20
-8.3721e-20
-1.79971e-20
1.19877e-19
5.30555e-20
1.49658e-18
-4.54963e-19
-1.36881e-19
-1.75633e-20
3.96315e-20
1.55791e-20
1.79509e-19
-1.82842e-19
-4.58854e-20
-8.76142e-19
-4.61491e-18
-2.77342e-17
-1.63778e-16
-9.07586e-16
-4.6181e-15
-1.82775e-14
-7.20357e-14
-3.06751e-13
-1.23491e-12
-4.75201e-12
-1.64542e-11
-5.51438e-11
-1.94603e-10
-6.87329e-10
-2.41021e-09
-7.74173e-09
-1.88199e-08
-2.40672e-08
-3.18113e-08
-1.37789e-07
-5.98998e-07
-2.45244e-06
-8.97147e-06
-2.9056e-05
-8.47704e-05
-0.00022632
-0.000558201
-0.00129026
-0.00282358
-0.00589722
-0.0118642
-0.0228077
-0.0421387
-0.0750048
-0.129271
-0.214291
-0.334222
-0.495848
-0.757508
-0.720257
0.788725
1.20385
1.01714
0.632084
0.261737
-0.0127024
-0.185414
-0.243643
-0.213603
-0.145486
-0.0753604
-0.0307597
-0.0107459
-0.00327869
-0.000430451
1.66862e-20
-2.11824e-21
1.32375e-20
1.27689e-20
4.64823e-20
-7.86989e-21
-8.84337e-21
-6.3126e-21
-3.45086e-21
-8.59122e-22
6.16542e-21
-6.5487e-21
-2.07993e-21
-9.01614e-21
6.93092e-21
-8.01668e-22
-3.18463e-21
-3.78569e-21
2.34017e-21
1.98249e-22
-1.2503e-20
-2.09062e-21
-1.87619e-21
-2.31056e-21
2.25193e-20
-2.27226e-20
-1.75366e-20
-2.74203e-20
-5.92397e-21
-5.74269e-20
-6.13538e-20
-9.32967e-21
-1.67382e-19
-1.41355e-19
1.51779e-19
-3.68127e-20
1.88993e-21
-1.44371e-20
-8.77776e-21
-6.57266e-20
3.07146e-19
-5.64039e-20
-2.25663e-19
-2.89227e-19
-1.39916e-18
-6.28635e-18
-3.8372e-17
-2.11925e-16
-1.12804e-15
-5.58861e-15
-2.26903e-14
-9.04759e-14
-3.84601e-13
-1.42716e-12
-4.86829e-12
-1.66188e-11
-5.65228e-11
-1.98113e-10
-6.93481e-10
-2.40493e-09
-7.64838e-09
-1.84646e-08
-2.35977e-08
-3.04296e-08
-1.31031e-07
-5.70961e-07
-2.35001e-06
-8.69001e-06
-2.8499e-05
-8.3947e-05
-0.000226194
-0.000561652
-0.00130667
-0.00287547
-0.00603023
-0.0121709
-0.0234469
-0.0433855
-0.0773474
-0.13347
-0.22144
-0.344863
-0.512236
-0.783233
-0.635877
0.849659
1.21259
0.997767
0.604735
0.236345
-0.0314991
-0.194984
-0.243341
-0.207626
-0.138229
-0.0699226
-0.028173
-0.00973245
-0.00298169
-0.000387281
2.04148e-20
-6.53725e-21
4.37215e-21
1.02469e-21
-3.13766e-21
6.66572e-21
-2.16092e-21
-9.31555e-22
1.68673e-20
-1.06564e-20
-8.50264e-21
3.94972e-21
-7.02065e-21
-1.92273e-21
-1.1296e-20
2.96328e-21
-9.70235e-21
-2.58965e-21
-6.06631e-21
2.47727e-20
-4.24499e-22
1.10983e-20
-4.12433e-20
-5.81651e-21
2.38277e-20
-8.30017e-22
3.0105e-20
-3.00213e-22
1.77257e-20
1.02346e-19
-2.40186e-21
1.66067e-21
-8.15075e-20
-1.15309e-20
-2.0967e-20
3.30209e-20
-4.67405e-20
-2.26532e-19
2.06324e-20
3.26538e-21
-8.05949e-20
-9.22188e-20
3.34558e-20
-1.87311e-19
-1.21521e-18
-8.47322e-18
-4.96021e-17
-2.78423e-16
-1.41296e-15
-6.05498e-15
-2.59338e-14
-1.15497e-13
-4.53468e-13
-1.62801e-12
-5.43591e-12
-1.72614e-11
-5.83421e-11
-2.01265e-10
-6.95422e-10
-2.38966e-09
-7.55514e-09
-1.81775e-08
-2.33599e-08
-2.95891e-08
-1.26724e-07
-5.53482e-07
-2.29047e-06
-8.53954e-06
-2.82531e-05
-8.38868e-05
-0.000227836
-0.000568875
-0.00132878
-0.00293342
-0.0061712
-0.0126053
-0.0242589
-0.0449187
-0.0800952
-0.13814
-0.228702
-0.355308
-0.528037
-0.814053
-0.52283
0.904386
1.21381
0.97496
0.578149
0.208933
-0.0501469
-0.203421
-0.242512
-0.201696
-0.131027
-0.0648245
-0.0258147
-0.00887407
-0.00271412
-0.000348813
-2.06611e-21
-3.71772e-22
3.7647e-21
7.47732e-21
4.6721e-21
-3.42676e-21
1.23648e-20
-7.36242e-22
-1.09438e-20
5.40131e-21
6.23368e-21
-3.31475e-21
-1.214e-20
-1.14761e-20
5.15217e-21
3.26496e-21
3.32264e-21
-8.81389e-22
-4.35004e-21
-3.10267e-21
-1.69473e-21
1.92945e-20
-2.0817e-20
1.36904e-20
2.16826e-20
1.27046e-20
-1.6332e-21
1.03474e-20
-2.39345e-20
6.19769e-20
-5.83528e-20
8.13621e-20
1.35554e-19
-8.73282e-21
-1.55399e-19
5.52766e-19
-2.04672e-20
3.86751e-20
-3.20525e-20
5.77372e-20
-5.81407e-20
8.13956e-20
4.26469e-19
-1.62635e-19
-1.78298e-18
-1.04818e-17
-6.36079e-17
-3.35859e-16
-1.47714e-15
-6.56703e-15
-3.08018e-14
-1.37258e-13
-5.55038e-13
-1.90174e-12
-5.71051e-12
-1.80534e-11
-5.97878e-11
-2.03546e-10
-6.99009e-10
-2.38626e-09
-7.49662e-09
-1.79614e-08
-2.3112e-08
-2.90219e-08
-1.23963e-07
-5.43196e-07
-2.2615e-06
-8.47534e-06
-2.82327e-05
-8.43577e-05
-0.000230603
-0.000578342
-0.00135696
-0.00300779
-0.00634259
-0.0129678
-0.0249784
-0.0463047
-0.082587
-0.142417
-0.235826
-0.366013
-0.544935
-0.838699
-0.424347
0.947372
1.21394
0.954685
0.553383
0.188388
-0.064357
-0.2097
-0.241263
-0.196549
-0.125167
-0.0608163
-0.0239699
-0.00821173
-0.00248332
-0.000320543
-4.39359e-23
4.6257e-21
-2.86542e-22
-3.15588e-21
-1.24354e-21
-1.29351e-20
-1.95845e-21
-1.19834e-20
-8.43956e-21
-1.06071e-21
-1.43616e-22
5.50041e-21
-5.14565e-21
-1.6158e-20
9.33814e-21
-6.61258e-22
-1.71905e-22
6.48416e-22
-1.97217e-20
1.72186e-20
-3.62241e-20
-2.40999e-20
-3.83937e-21
-5.77599e-20
-7.71557e-21
-1.65713e-20
2.8573e-20
-4.79521e-21
-3.19612e-20
-1.09728e-19
-2.89218e-20
1.99868e-19
-6.19274e-21
2.73809e-19
-2.33272e-21
1.28231e-18
5.18257e-18
-3.2033e-19
-3.55387e-19
1.22382e-19
-1.97323e-19
1.22193e-19
-3.76001e-19
-2.73375e-19
-2.07034e-18
-1.35378e-17
-7.68158e-17
-3.59251e-16
-1.63462e-15
-7.68884e-15
-3.53905e-14
-1.50747e-13
-5.95003e-13
-2.01552e-12
-5.93278e-12
-1.84345e-11
-6.0778e-11
-2.0529e-10
-6.98939e-10
-2.37341e-09
-7.42574e-09
-1.77648e-08
-2.29612e-08
-2.85676e-08
-1.21791e-07
-5.35236e-07
-2.23554e-06
-8.41609e-06
-2.82078e-05
-8.47032e-05
-0.000232622
-0.00058542
-0.00137765
-0.00306035
-0.00646653
-0.0132475
-0.0255352
-0.0473634
-0.0845395
-0.145857
-0.241422
-0.374311
-0.557805
-0.856946
-0.347119
0.979268
1.21353
0.938582
0.533698
0.172526
-0.0751734
-0.214085
-0.2399
-0.192446
-0.120737
-0.0579021
-0.0226422
-0.00773298
-0.00233626
-0.000299262
-1.03938e-22
5.35565e-21
-3.62028e-21
-2.74573e-22
9.51536e-21
1.05475e-21
-4.35932e-22
-2.13105e-22
-8.92773e-23
-2.14577e-23
1.13379e-20
-5.00237e-22
-6.93791e-21
-4.74696e-21
6.56802e-21
-1.88627e-20
-3.18462e-21
-2.1577e-20
-6.49989e-21
-4.59523e-21
3.78603e-21
-3.85006e-20
-4.91183e-21
-1.14847e-21
3.93161e-20
-6.02525e-20
-1.21892e-20
-2.42243e-21
1.73826e-20
-5.35769e-22
-4.60403e-21
-8.28201e-21
-1.87896e-19
8.38383e-20
2.87735e-19
1.10434e-20
-3.4994e-19
-2.66721e-19
2.13737e-19
8.0766e-20
1.10462e-19
-3.5183e-20
-2.18858e-19
-2.86512e-19
-2.41742e-18
-1.488e-17
-7.62055e-17
-3.597e-16
-1.80587e-15
-8.48609e-15
-3.8277e-14
-1.60915e-13
-6.24907e-13
-2.08921e-12
-6.11111e-12
-1.87941e-11
-6.13137e-11
-2.06006e-10
-6.97348e-10
-2.35578e-09
-7.34687e-09
-1.75679e-08
-2.28387e-08
-2.81308e-08
-1.19618e-07
-5.27194e-07
-2.20859e-06
-8.34378e-06
-2.81044e-05
-8.47409e-05
-0.000233605
-0.000589697
-0.00139125
-0.00309691
-0.006554
-0.0134434
-0.0259449
-0.0481448
-0.085972
-0.148362
-0.245484
-0.380264
-0.567031
-0.869603
-0.292527
1.00143
1.21319
0.927035
0.519573
0.161213
-0.082868
-0.217047
-0.238781
-0.189434
-0.117531
-0.0558299
-0.0217012
-0.00739904
-0.00223329
-0.000284427
-5.52114e-23
-1.77795e-22
6.73619e-22
1.23182e-20
-1.68788e-22
-1.41122e-22
1.68317e-21
-5.15819e-21
-1.27971e-21
8.44465e-21
-1.95618e-21
-5.91242e-21
-1.18355e-21
-1.10387e-20
-1.50128e-21
-4.27599e-21
-1.86351e-21
9.53023e-22
-8.84941e-22
-6.66456e-21
6.07604e-24
-1.41995e-20
-3.91737e-21
-1.06619e-21
-1.2279e-21
-3.03199e-21
-5.81744e-20
-2.70404e-20
6.76149e-20
-1.49876e-20
-6.93107e-20
-4.10744e-20
-1.91509e-19
-3.30054e-20
-2.97334e-19
-5.87682e-19
-4.69953e-18
-1.39852e-19
-2.17044e-19
-2.13626e-19
2.97879e-19
-5.06465e-20
-1.81097e-19
-5.45367e-19
-3.16366e-18
-1.76738e-17
-8.59471e-17
-4.15769e-16
-2.03592e-15
-9.50994e-15
-4.15899e-14
-1.70272e-13
-6.50671e-13
-2.14612e-12
-6.2197e-12
-1.90148e-11
-6.15803e-11
-2.05539e-10
-6.9187e-10
-2.32752e-09
-7.24463e-09
-1.73516e-08
-2.27539e-08
-2.76387e-08
-1.1696e-07
-5.16526e-07
-2.17353e-06
-8.23862e-06
-2.78754e-05
-8.43625e-05
-0.000233302
-0.000590552
-0.00139641
-0.00311424
-0.00660004
-0.0135551
-0.0261795
-0.0486142
-0.0868481
-0.149934
-0.248048
-0.384052
-0.572866
-0.877482
-0.259071
1.01575
1.21326
0.919842
0.510487
0.153845
-0.0879098
-0.218964
-0.237979
-0.187387
-0.115392
-0.0544348
-0.0210784
-0.00717476
-0.00216411
-0.000274499
-1.37862e-21
-2.34253e-22
-4.78583e-22
-1.12464e-20
2.24576e-21
1.17497e-21
4.67712e-21
-1.6051e-22
4.98506e-21
-4.02912e-21
-3.72093e-21
4.94507e-21
-7.21423e-23
-1.3412e-22
-7.56948e-23
5.04564e-21
7.21379e-21
3.26595e-20
2.53698e-20
-1.35409e-21
-1.23684e-21
-2.6808e-20
-1.07313e-21
-2.22373e-20
-2.78891e-21
5.71232e-20
3.4438e-21
7.84554e-20
-3.31646e-21
-7.11236e-22
-4.53312e-22
-1.35083e-20
-2.95785e-21
-6.87707e-21
-1.65606e-19
-1.59833e-18
1.33497e-17
-4.05682e-18
-2.19937e-19
-5.40796e-20
-1.04082e-20
2.56182e-19
-9.31276e-20
-6.77566e-19
-3.17376e-18
-1.73232e-17
-9.29761e-17
-4.7018e-16
-2.27711e-15
-1.0326e-14
-4.41247e-14
-1.78049e-13
-6.70773e-13
-2.18196e-12
-6.2789e-12
-1.91159e-11
-6.14759e-11
-2.03838e-10
-6.82269e-10
-2.28515e-09
-7.09632e-09
-1.70559e-08
-2.26894e-08
-2.69689e-08
-1.13268e-07
-5.01995e-07
-2.11673e-06
-8.07578e-06
-2.74398e-05
-8.342e-05
-0.000231431
-0.000587835
-0.00139352
-0.00311351
-0.00660774
-0.0135891
-0.026265
-0.0488045
-0.0872319
-0.150695
-0.249332
-0.386033
-0.575867
-0.881574
-0.243509
1.02389
1.21422
0.916404
0.505609
0.149681
-0.0909038
-0.220121
-0.237502
-0.186134
-0.114013
-0.0535656
-0.0206898
-0.00703462
-0.00212074
-0.000268281
-1.92941e-21
-3.17968e-21
-4.37088e-22
3.04534e-21
-1.36529e-22
1.27416e-21
-4.78313e-23
2.55672e-21
-3.17499e-21
-1.04467e-21
5.21896e-21
8.53292e-21
9.63675e-21
-5.2971e-21
1.17512e-20
1.82847e-20
-3.6752e-21
1.57482e-20
1.55832e-20
2.05146e-21
-1.64969e-21
-3.38582e-20
1.96599e-20
-1.08389e-21
4.26475e-20
-2.13818e-20
8.4396e-21
-1.53293e-20
-1.88398e-21
7.04632e-20
-3.39075e-21
-5.59203e-20
1.18998e-19
-1.41709e-20
-9.69279e-21
-1.91992e-19
-4.71667e-18
-5.58374e-19
-1.92055e-19
-3.56378e-20
-2.04342e-20
-2.90742e-19
-1.18233e-19
-7.79833e-19
-3.63078e-18
-1.97318e-17
-1.05092e-16
-5.30951e-16
-2.50796e-15
-1.11452e-14
-4.68814e-14
-1.85218e-13
-6.78963e-13
-2.19351e-12
-6.32497e-12
-1.91386e-11
-6.10605e-11
-2.01377e-10
-6.71164e-10
-2.24119e-09
-6.9507e-09
-1.67494e-08
-2.26196e-08
-2.62909e-08
-1.09276e-07
-4.85673e-07
-2.05695e-06
-7.88218e-06
-2.68871e-05
-8.20353e-05
-0.000228738
-0.000582128
-0.0013833
-0.00309601
-0.00657948
-0.0135542
-0.0262232
-0.0487663
-0.0872193
-0.150807
-0.249596
-0.386589
-0.576634
-0.882763
-0.242117
1.02715
1.2158
0.91602
0.504066
0.148005
-0.0922721
-0.220723
-0.237295
-0.185506
-0.113305
-0.0531022
-0.0204798
-0.00695809
-0.00209681
-0.000264831
-2.40998e-22
-2.90061e-21
-3.24013e-22
-8.15471e-21
6.18859e-22
3.61537e-21
-4.12523e-21
-6.14719e-22
-1.84645e-22
2.40636e-21
-2.12652e-21
-3.50399e-22
-3.40437e-23
1.67321e-20
1.10622e-20
1.16307e-20
-7.25884e-21
4.9386e-21
-2.57815e-21
-7.08631e-22
1.73893e-20
-1.45061e-21
-1.27933e-20
-5.45006e-21
5.22335e-20
-7.99218e-22
1.56071e-20
7.24842e-20
8.50327e-20
2.41132e-20
-5.33271e-21
-6.37369e-20
3.26218e-20
-1.66828e-19
-2.32558e-20
4.41556e-19
-9.78985e-20
-3.03361e-19
9.33687e-20
2.45831e-19
-1.26589e-20
5.06648e-20
9.83702e-20
-6.70605e-19
-4.026e-18
-2.27514e-17
-1.19963e-16
-5.95853e-16
-2.78797e-15
-1.2356e-14
-5.18965e-14
-2.06498e-13
-7.4682e-13
-2.21436e-12
-6.3696e-12
-1.90612e-11
-6.03176e-11
-1.97736e-10
-6.54845e-10
-2.17759e-09
-6.76296e-09
-1.64524e-08
-2.26353e-08
-2.56493e-08
-1.05229e-07
-4.68761e-07
-1.99179e-06
-7.66497e-06
-2.62855e-05
-8.04726e-05
-0.000224957
-0.000574168
-0.00136734
-0.00306676
-0.00652869
-0.0134715
-0.0260867
-0.0485563
-0.0869033
-0.150415
-0.249072
-0.386045
-0.575686
-0.881713
-0.25155
1.02676
1.21804
0.917933
0.505031
0.148189
-0.0924649
-0.220932
-0.237309
-0.185347
-0.11307
-0.0529309
-0.020398
-0.00692714
-0.00208682
-0.000263362
2.63456e-21
-6.32641e-22
-3.81638e-21
8.86116e-21
8.02306e-21
2.83199e-21
8.68638e-21
-6.48775e-21
-8.13258e-21
1.24276e-20
-8.46914e-21
-6.12222e-21
1.40503e-21
-1.06962e-20
-1.0297e-21
2.40531e-21
-6.73941e-21
-1.28265e-20
2.73313e-21
-8.59523e-22
-3.92849e-22
9.4363e-21
7.53951e-21
-5.39805e-22
-9.19743e-22
-3.53173e-22
-1.85151e-21
-4.77531e-20
2.32561e-20
-4.20952e-20
1.01558e-19
-4.11993e-21
1.2705e-19
2.894e-19
-4.47072e-21
6.04551e-19
-4.00209e-20
2.40916e-19
-2.0529e-19
2.02552e-20
-7.49855e-20
-3.30121e-19
-3.13304e-19
-7.93623e-19
-4.53862e-18
-2.52645e-17
-1.32554e-16
-6.52312e-16
-3.02063e-15
-1.32751e-14
-5.5301e-14
-2.15884e-13
-7.2653e-13
-2.14678e-12
-6.38476e-12
-1.89117e-11
-5.94373e-11
-1.94017e-10
-6.40883e-10
-2.12633e-09
-6.59599e-09
-1.61187e-08
-2.26032e-08
-2.50506e-08
-1.0129e-07
-4.52347e-07
-1.92833e-06
-7.45024e-06
-2.56879e-05
-7.90054e-05
-0.00022041
-0.000564785
-0.00134871
-0.00303104
-0.00646252
-0.0133561
-0.0258857
-0.0482186
-0.0863718
-0.149667
-0.247998
-0.384719
-0.573507
-0.878979
-0.268958
1.02379
1.22082
0.921692
0.507893
0.149745
-0.091777
-0.220856
-0.237487
-0.185527
-0.113172
-0.0529665
-0.0204063
-0.00692809
-0.00208659
-0.000263277
-6.10701e-21
-8.51449e-22
3.75677e-21
-4.93285e-21
-2.20941e-21
9.77898e-21
-2.16309e-22
-2.33054e-22
-3.41895e-22
-6.37771e-23
-7.65965e-22
-2.79981e-21
1.98314e-20
-5.57456e-21
1.74868e-20
-1.20221e-20
4.63061e-21
1.36677e-20
9.86556e-21
-4.36411e-21
-1.59345e-20
2.06968e-21
-1.42663e-20
-1.75605e-20
-3.26183e-20
5.16761e-20
4.83051e-20
-8.37603e-21
4.12814e-20
-2.44858e-21
3.54428e-21
-4.95726e-20
-5.60575e-21
5.98914e-20
4.44773e-19
3.3809e-19
2.25859e-18
-1.82497e-19
4.54675e-20
-1.18676e-19
9.02239e-20
2.24709e-20
-3.36266e-19
-8.53563e-19
-4.58581e-18
-2.74639e-17
-1.41509e-16
-6.86281e-16
-3.13968e-15
-1.36264e-14
-5.60546e-14
-2.15704e-13
-7.14085e-13
-2.11978e-12
-6.37694e-12
-1.8679e-11
-5.83611e-11
-1.89887e-10
-6.25671e-10
-2.07475e-09
-6.44204e-09
-1.58127e-08
-2.25629e-08
-2.4451e-08
-9.72006e-08
-4.34947e-07
-1.85952e-06
-7.20828e-06
-2.49536e-05
-7.71015e-05
-0.000215822
-0.000554849
-0.0013275
-0.00298833
-0.00638025
-0.01321
-0.0256342
-0.0478033
-0.0856974
-0.148657
-0.246485
-0.382803
-0.570475
-0.875147
-0.291834
1.01887
1.22378
0.926516
0.512008
0.152243
-0.0905482
-0.220598
-0.237763
-0.185922
-0.113492
-0.0531412
-0.0204766
-0.00695129
-0.00209319
-0.000264163
-7.37087e-23
-5.21853e-23
-3.93115e-22
-5.11465e-21
-3.48888e-21
-6.86581e-21
-1.2944e-20
-1.12148e-20
-1.126e-20
-9.85378e-21
3.15654e-21
7.44273e-21
1.33088e-20
1.13157e-20
-1.04361e-20
-2.71798e-20
-3.10436e-21
4.81706e-20
1.90254e-20
-3.87395e-21
-8.82193e-21
-1.51053e-20
7.31469e-21
2.18858e-20
-1.10246e-20
9.32293e-21
-2.07312e-22
-1.05636e-20
-3.78633e-20
1.07508e-20
-8.645e-20
-1.08526e-19
-1.31935e-20
-6.74867e-21
9.75641e-20
-3.23803e-19
-9.06973e-18
-2.43105e-18
-1.91296e-20
-2.69942e-20
-2.08908e-19
-4.63102e-20
-4.72967e-19
-1.01296e-18
-5.31616e-18
-2.88728e-17
-1.47876e-16
-7.10107e-16
-3.21754e-15
-1.38262e-14
-5.63824e-14
-2.14535e-13
-7.03854e-13
-2.10124e-12
-6.36565e-12
-1.84682e-11
-5.74298e-11
-1.86293e-10
-6.11178e-10
-2.01964e-09
-6.27777e-09
-1.55334e-08
-2.25552e-08
-2.39411e-08
-9.34752e-08
-4.1897e-07
-1.79608e-06
-6.99148e-06
-2.42634e-05
-7.52397e-05
-0.000211285
-0.000544674
-0.00130645
-0.00294626
-0.0062988
-0.0130544
-0.0253638
-0.0473453
-0.0849387
-0.147519
-0.2448
-0.380626
-0.567024
-0.870628
-0.317271
1.01294
1.22678
0.931831
0.516691
0.155201
-0.0889362
-0.220204
-0.238094
-0.18646
-0.113998
-0.0534078
-0.0205866
-0.00698842
-0.00210403
-0.000265648
-6.46069e-21
-8.18685e-22
-1.38964e-22
2.91245e-21
6.00308e-22
6.32695e-22
7.9383e-21
-2.5411e-21
5.06224e-21
6.54175e-21
3.88205e-21
7.92002e-21
-1.40551e-20
1.02482e-20
-5.89564e-22
-4.78539e-21
2.57786e-21
2.41851e-21
-2.81671e-20
4.32821e-21
-3.08208e-21
-1.62868e-20
-1.58527e-20
-1.89275e-20
-2.36699e-21
2.21831e-20
5.48273e-20
3.28612e-20
-2.11587e-21
-1.16801e-20
-6.34264e-21
-4.42608e-20
-2.83255e-20
2.42557e-20
-3.95863e-20
1.50839e-19
-3.62887e-18
-3.61094e-19
-3.7699e-20
2.86312e-19
1.02827e-19
-4.83426e-20
-2.82081e-19
-8.29114e-19
-5.57544e-18
-3.02218e-17
-1.52991e-16
-7.29051e-16
-3.27951e-15
-1.39818e-14
-5.64606e-14
-2.13217e-13
-6.95735e-13
-2.08392e-12
-6.33621e-12
-1.82314e-11
-5.64383e-11
-1.82545e-10
-5.97729e-10
-1.97229e-09
-6.13047e-09
-1.52566e-08
-2.25448e-08
-2.35105e-08
-9.00641e-08
-4.04194e-07
-1.73673e-06
-6.7834e-06
-2.36318e-05
-7.35458e-05
-0.0002071
-0.0005352
-0.00128631
-0.00290537
-0.00622076
-0.0129044
-0.0251012
-0.046898
-0.0842102
-0.146411
-0.243137
-0.378449
-0.563596
-0.866049
-0.342252
1.00683
1.22954
0.937057
0.5214
0.158232
-0.087313
-0.219771
-0.238423
-0.187021
-0.114478
-0.0536981
-0.0207085
-0.00703022
-0.0021164
-0.000267361
-2.69913e-22
-6.29228e-21
-1.01049e-21
-1.86564e-21
-7.19121e-22
-2.92644e-21
1.19051e-21
-7.83225e-21
-1.0006e-21
-2.14041e-22
4.98131e-21
1.10208e-20
-1.2524e-21
-3.21393e-21
-4.46874e-21
-1.9257e-21
1.82848e-20
-2.68001e-21
-1.90898e-21
-2.60989e-20
-3.80052e-21
-4.94782e-21
-4.7462e-21
-1.32077e-21
-1.84914e-20
-1.23443e-21
6.58137e-20
-3.99695e-20
-4.75351e-21
-1.84945e-21
3.16704e-20
-1.10989e-21
-9.52414e-21
-1.69594e-19
-5.07489e-19
-3.5353e-19
1.44156e-18
-4.15399e-19
-3.91358e-20
1.37073e-19
-1.13378e-19
-1.05106e-19
-2.40323e-19
-1.06171e-18
-5.71298e-18
-3.11446e-17
-1.5675e-16
-7.42026e-16
-3.31725e-15
-1.40677e-14
-5.64914e-14
-2.12158e-13
-6.89102e-13
-2.06845e-12
-6.30376e-12
-1.80161e-11
-5.54993e-11
-1.79133e-10
-5.8554e-10
-1.93053e-09
-6.00925e-09
-1.50318e-08
-2.25309e-08
-2.31694e-08
-8.72222e-08
-3.91797e-07
-1.68659e-06
-6.6058e-06
-2.30745e-05
-7.20494e-05
-0.000203474
-0.000526971
-0.00126875
-0.00287013
-0.00615256
-0.0127729
-0.0248706
-0.0465048
-0.0835622
-0.145416
-0.241638
-0.376474
-0.560477
-0.861808
-0.364776
1.0011
1.2319
0.941767
0.525712
0.16105
-0.0857261
-0.219347
-0.238728
-0.187558
-0.114958
-0.0539826
-0.020828
-0.0070712
-0.00212854
-0.000269047
6.08262e-21
-1.32956e-21
-2.84033e-21
-5.82354e-22
4.8138e-21
-3.94202e-21
-9.23268e-21
6.58755e-21
8.69453e-21
5.45701e-21
-2.47435e-21
-9.79528e-21
1.919e-20
-1.78338e-22
2.64498e-20
-2.78535e-22
9.68865e-23
-1.13557e-21
5.07486e-21
2.97341e-20
3.4473e-20
-9.23237e-22
9.75947e-21
-4.3676e-22
-1.02496e-20
-1.46155e-21
-1.21091e-21
-2.58359e-20
-2.00036e-20
1.43021e-19
-9.97215e-20
-1.55352e-20
-7.21138e-21
-1.1365e-19
-2.53025e-19
7.41188e-19
1.74353e-18
4.46537e-19
2.02314e-19
-4.3931e-21
1.33335e-19
-8.06056e-20
-7.52742e-20
-8.89184e-19
-5.92039e-18
-3.17334e-17
-1.59708e-16
-7.5208e-16
-3.34673e-15
-1.41297e-14
-5.64911e-14
-2.11311e-13
-6.8421e-13
-2.05622e-12
-6.27327e-12
-1.78402e-11
-5.48089e-11
-1.76703e-10
-5.76741e-10
-1.89946e-09
-5.91193e-09
-1.48356e-08
-2.24928e-08
-2.2898e-08
-8.49625e-08
-3.82062e-07
-1.64729e-06
-6.46669e-06
-2.26376e-05
-7.0899e-05
-0.000200656
-0.000520501
-0.0012549
-0.00284171
-0.00609724
-0.0126659
-0.0246822
-0.0461819
-0.0830271
-0.144587
-0.24038
-0.374805
-0.557887
-0.858247
-0.383383
0.996237
1.23378
0.945649
0.529298
0.16341
-0.0844191
-0.218988
-0.238979
-0.188005
-0.115401
-0.0542249
-0.0209303
-0.00710647
-0.00213902
-0.000270506
-4.10161e-21
9.80678e-22
1.40076e-20
2.24715e-22
-4.5311e-21
5.22624e-21
-2.18606e-21
-6.07987e-21
9.71426e-24
-1.92227e-22
6.73164e-21
-1.40681e-21
3.96044e-21
2.75357e-20
4.99527e-21
-1.24787e-20
-1.73539e-20
3.21423e-20
-2.05568e-20
-1.2335e-20
1.94423e-20
-2.34994e-21
-4.54906e-22
-2.06376e-21
-5.08519e-20
-3.76546e-22
-2.30138e-21
1.6158e-20
-1.85353e-21
2.24642e-20
-6.83519e-20
-6.68435e-20
8.77436e-21
-7.57334e-20
-2.15674e-19
-3.11623e-20
-9.34836e-19
-1.0436e-19
-3.17858e-19
-1.22364e-19
-1.76984e-20
1.19232e-19
-3.53036e-19
-1.16266e-18
-6.10943e-18
-3.22525e-17
-1.61772e-16
-7.59525e-16
-3.36941e-15
-1.41752e-14
-5.6503e-14
-2.10752e-13
-6.80872e-13
-2.04747e-12
-6.25129e-12
-1.77198e-11
-5.43186e-11
-1.74936e-10
-5.7042e-10
-1.87749e-09
-5.84547e-09
-1.47059e-08
-2.24707e-08
-2.27244e-08
-8.34452e-08
-3.75465e-07
-1.62058e-06
-6.37188e-06
-2.2338e-05
-7.00916e-05
-0.000198631
-0.000515837
-0.00124486
-0.00282145
-0.0060577
-0.0125891
-0.0245467
-0.0459493
-0.0826413
-0.143987
-0.239471
-0.373595
-0.556007
-0.855633
-0.396792
0.992646
1.2351
0.948453
0.531907
0.165132
-0.0834478
-0.218718
-0.239158
-0.188333
-0.115704
-0.0544027
-0.0210055
-0.00713245
-0.00214675
-0.000271583
5.27246e-21
-9.84174e-22
-5.89954e-22
7.98308e-22
1.52325e-21
4.54635e-21
-1.18947e-20
4.4483e-21
-1.3954e-20
4.72274e-21
-1.22032e-20
-4.2643e-21
-4.89101e-21
-1.33495e-20
1.01647e-20
-1.26492e-20
8.79383e-21
-2.73555e-20
-3.42365e-21
-5.0877e-21
5.74001e-21
-2.2884e-20
-7.7623e-21
1.8119e-20
-7.39877e-21
1.31716e-20
-5.25819e-22
4.69395e-20
-2.89763e-20
-6.03614e-21
-4.96231e-20
-6.35404e-21
1.61497e-20
-2.16001e-19
1.62021e-19
5.92317e-19
1.41011e-18
-1.71652e-21
2.14616e-19
-4.15057e-21
-7.56958e-21
-1.65502e-19
-1.73639e-19
-1.24695e-18
-6.19236e-18
-3.25685e-17
-1.63142e-16
-7.64569e-16
-3.38366e-15
-1.42061e-14
-5.65241e-14
-2.10496e-13
-6.79154e-13
-2.0432e-12
-6.24132e-12
-1.766e-11
-5.40723e-11
-1.74032e-10
-5.67116e-10
-1.86587e-09
-5.81083e-09
-1.46399e-08
-2.24591e-08
-2.26351e-08
-8.26446e-08
-3.71965e-07
-1.60627e-06
-6.32045e-06
-2.21748e-05
-6.96496e-05
-0.000197543
-0.00051336
-0.00123952
-0.00281051
-0.00603628
-0.0125474
-0.0244729
-0.0458223
-0.0824299
-0.143656
-0.238966
-0.372921
-0.55496
-0.854175
-0.404206
0.990642
1.23582
0.95
0.533346
0.166084
-0.0829183
-0.218568
-0.23926
-0.188511
-0.115857
-0.0544977
-0.0210461
-0.00714655
-0.00215096
-0.000272171
-7.37496e-23
5.0515e-21
2.79592e-21
2.49763e-21
3.98101e-21
1.29032e-20
-1.33109e-21
5.2293e-21
-4.84337e-22
-8.23251e-21
3.78941e-21
5.23929e-21
-1.47136e-20
-1.86204e-21
-1.04027e-21
-1.98496e-20
1.08655e-21
1.15992e-20
5.69211e-21
5.74578e-22
-8.81198e-21
3.76888e-20
-4.70923e-22
-4.38534e-22
2.67903e-20
-3.66884e-23
1.2789e-20
-2.59028e-21
-6.73058e-20
1.01542e-19
7.4206e-20
4.17933e-20
-6.35117e-20
-8.39798e-21
-1.60475e-20
-3.79514e-19
5.9443e-19
7.07429e-19
6.78633e-19
-4.23986e-20
1.22082e-19
7.94208e-20
-1.76742e-19
-1.12851e-18
-6.19899e-18
-3.30136e-17
-1.63753e-16
-7.676e-16
-3.3942e-15
-1.42361e-14
-5.65829e-14
-2.10517e-13
-6.78766e-13
-2.04281e-12
-6.24247e-12
-1.76482e-11
-5.4016e-11
-1.73825e-10
-5.66375e-10
-1.86331e-09
-5.80321e-09
-1.46252e-08
-2.24571e-08
-2.26205e-08
-8.24939e-08
-3.71316e-07
-1.60366e-06
-6.3112e-06
-2.21455e-05
-6.95722e-05
-0.000197354
-0.000512932
-0.00123861
-0.00280867
-0.00603274
-0.0125405
-0.024461
-0.0458019
-0.0823963
-0.143603
-0.238888
-0.372816
-0.5548
-0.853953
-0.405341
0.990341
1.23594
0.950232
0.533555
0.166221
-0.0828371
-0.218548
-0.239275
-0.188537
-0.115891
-0.054512
-0.0210515
-0.00714825
-0.00215143
-0.000272234
1.40647e-21
-1.55553e-22
-3.37487e-21
-1.33218e-20
2.19525e-21
-3.69247e-22
-3.04142e-21
-1.91771e-21
-1.39723e-21
-8.84761e-22
-1.36531e-21
-1.00958e-20
-9.93545e-22
-1.0521e-21
-1.40336e-20
-2.12889e-21
7.92707e-21
1.51784e-20
-1.70372e-20
-2.20981e-20
-2.99055e-21
-1.08919e-20
2.44779e-20
-6.30083e-21
6.12411e-20
9.77467e-21
-4.76947e-22
-1.43071e-21
-2.3055e-20
7.12372e-20
1.85406e-20
-1.01418e-19
-1.19749e-20
-3.71449e-20
-1.30959e-20
-2.01237e-19
-5.22989e-18
-3.89208e-19
-4.94263e-20
-1.52438e-19
-2.71003e-19
-6.71778e-20
-3.05859e-19
-1.16953e-18
-6.34961e-18
-3.30161e-17
-1.64274e-16
-7.694e-16
-3.40222e-15
-1.42684e-14
-5.67059e-14
-2.10953e-13
-6.80147e-13
-2.04759e-12
-6.25977e-12
-1.77038e-11
-5.42195e-11
-1.7453e-10
-5.68867e-10
-1.87192e-09
-5.82902e-09
-1.46742e-08
-2.2463e-08
-2.26855e-08
-8.30753e-08
-3.73825e-07
-1.61383e-06
-6.3473e-06
-2.2259e-05
-6.98798e-05
-0.000198118
-0.000514695
-0.00124242
-0.00281646
-0.00604805
-0.0125703
-0.024514
-0.0458936
-0.0825495
-0.143843
-0.239255
-0.373309
-0.555566
-0.855024
-0.399921
0.991834
1.23542
0.94909
0.532478
0.165501
-0.083256
-0.218666
-0.239195
-0.188392
-0.115744
-0.0544299
-0.0210169
-0.00713632
-0.00214787
-0.000271737
-5.34161e-23
-6.45576e-23
-1.37419e-21
8.46152e-22
-2.7937e-22
-6.50036e-21
-2.77476e-21
-5.27407e-21
-1.52101e-21
8.4856e-21
-3.05095e-22
8.90258e-21
-1.02252e-20
-3.71079e-21
-1.31782e-20
-1.82274e-20
2.27345e-20
-1.51427e-20
-1.28425e-20
-1.85678e-20
-2.05431e-21
7.87706e-21
-7.06811e-21
-1.17111e-21
1.88501e-20
-8.48433e-22
3.56149e-20
-6.75987e-20
6.32939e-20
-6.58034e-21
-1.06417e-20
-2.52678e-21
7.62433e-20
-1.26335e-19
8.98162e-20
6.13686e-19
-5.08992e-20
-2.43097e-19
-2.17388e-20
-9.73044e-21
-9.09525e-20
-1.05694e-20
-2.52706e-20
-9.30137e-19
-6.18952e-18
-3.28803e-17
-1.64241e-16
-7.69627e-16
-3.40683e-15
-1.43004e-14
-5.68807e-14
-2.1176e-13
-6.83262e-13
-2.0579e-12
-6.29396e-12
-1.78273e-11
-5.46786e-11
-1.76116e-10
-5.74435e-10
-1.89118e-09
-5.8867e-09
-1.47831e-08
-2.24737e-08
-2.28282e-08
-8.43573e-08
-3.79355e-07
-1.63621e-06
-6.42688e-06
-2.25093e-05
-7.0556e-05
-0.000199799
-0.000518559
-0.00125075
-0.00283359
-0.00608164
-0.0126356
-0.0246299
-0.0460938
-0.0828837
-0.144366
-0.240053
-0.374379
-0.557227
-0.857336
-0.388145
0.995045
1.23429
0.946616
0.530154
0.163957
-0.0841338
-0.218915
-0.239035
-0.188092
-0.115443
-0.0542649
-0.0209464
-0.00711174
-0.00214051
-0.000270705
-4.09058e-21
3.183e-21
-1.95127e-22
3.85605e-21
6.18375e-22
8.54523e-22
1.21029e-20
9.35623e-22
-7.08195e-22
7.44028e-21
-7.42122e-23
8.76646e-21
-6.49024e-21
6.55451e-21
-3.06429e-22
5.53786e-21
1.20844e-20
3.87478e-21
2.03796e-20
-2.85288e-22
-3.91504e-22
-5.21435e-21
-2.26103e-20
-4.23884e-21
-3.38145e-20
-4.98056e-21
4.74937e-20
-3.13025e-21
7.25116e-21
3.40395e-20
-5.29371e-20
-1.71831e-20
-1.85149e-19
4.43073e-20
9.96482e-21
1.02833e-18
2.69644e-19
-1.17121e-19
-1.97905e-20
-2.49997e-19
1.12651e-19
-3.47865e-20
-2.89351e-19
-1.27392e-18
-6.26338e-18
-3.29313e-17
-1.63856e-16
-7.68962e-16
-3.40942e-15
-1.43386e-14
-5.71352e-14
-2.13048e-13
-6.88394e-13
-2.07438e-12
-6.34757e-12
-1.80281e-11
-5.54327e-11
-1.78733e-10
-5.83621e-10
-1.9227e-09
-5.98016e-09
-1.49567e-08
-2.24803e-08
-2.30543e-08
-8.63748e-08
-3.88026e-07
-1.67117e-06
-6.55053e-06
-2.28969e-05
-7.1598e-05
-0.000202379
-0.000524489
-0.00126353
-0.00285953
-0.00613238
-0.0127342
-0.0248047
-0.0463951
-0.0833854
-0.145148
-0.241243
-0.375966
-0.559701
-0.860763
-0.370559
0.999763
1.23256
0.942916
0.526695
0.161661
-0.085424
-0.219277
-0.238788
-0.187648
-0.11503
-0.0540201
-0.0208422
-0.00707558
-0.00212969
-0.000269193
8.87978e-21
-3.64787e-22
-8.23337e-21
7.93599e-21
5.40561e-21
4.83327e-21
9.29814e-21
6.17998e-21
1.27512e-20
-8.12903e-21
-5.65058e-21
8.44614e-21
-1.70673e-21
-1.42053e-21
6.77839e-21
1.85344e-20
1.29014e-20
6.01174e-22
-2.16566e-21
6.31651e-21
-1.62791e-20
-2.07266e-21
-7.97843e-22
-7.92774e-21
-2.97179e-21
-1.22066e-20
1.43897e-20
-7.42694e-21
1.09966e-19
-3.28074e-20
-1.36645e-20
7.65749e-20
7.78248e-20
-2.07902e-20
-4.04165e-19
-2.40291e-20
-1.16033e-19
-2.67627e-20
-1.08609e-20
-1.45512e-19
6.11753e-20
2.22901e-19
-2.37454e-19
-1.07347e-18
-6.023e-18
-3.24492e-17
-1.62767e-16
-7.65869e-16
-3.40719e-15
-1.43749e-14
-5.74504e-14
-2.14802e-13
-6.95656e-13
-2.09704e-12
-6.41738e-12
-1.82939e-11
-5.64429e-11
-1.82267e-10
-5.96108e-10
-1.96585e-09
-6.10892e-09
-1.51956e-08
-2.24743e-08
-2.33624e-08
-8.90692e-08
-3.99576e-07
-1.71763e-06
-6.71427e-06
-2.34064e-05
-7.29652e-05
-0.00020572
-0.000532124
-0.00127994
-0.00289311
-0.00619804
-0.0128616
-0.0250301
-0.0467832
-0.0840314
-0.146152
-0.242772
-0.377992
-0.562871
-0.865094
-0.347911
1.00569
1.23029
0.938175
0.522288
0.158744
-0.0870591
-0.219731
-0.238478
-0.187082
-0.114504
-0.0537113
-0.020711
-0.00703014
-0.00211611
-0.000267296
-1.13433e-21
-7.15045e-22
1.88324e-21
6.28037e-21
1.39384e-21
4.70921e-21
1.46969e-20
-2.22904e-22
6.72953e-21
-6.00691e-22
-1.40022e-20
-2.00667e-21
4.22571e-21
-3.98144e-21
7.87343e-22
-1.09814e-20
1.55059e-20
-1.29291e-21
-1.29425e-20
5.68553e-21
-1.37884e-21
3.98398e-20
-1.22723e-22
2.68667e-20
4.66569e-20
2.97368e-20
-3.76272e-21
1.78725e-20
-5.35378e-22
1.06713e-20
-2.10593e-20
-3.12432e-21
9.53979e-20
-2.40962e-20