/*--------------------------------*- C++ -*----------------------------------*\
  =========                 |
  \\      /  F ield         | OpenFOAM: The Open Source CFD Toolbox
   \\    /   O peration     | Website:  https://openfoam.org
    \\  /    A nd           | Version:  10
     \\/     M anipulation  |
\*---------------------------------------------------------------------------*/
FoamFile
{
    format      ascii;
    class       volScalarField;
    location    "1";
    object      RR.O2C12H24OOH;
}
// * * * * * * * * * * * * * * * * * * * * * * * * * * * * * * * * * * * * * //

dimensions      [1 -3 -1 0 0 0 0];

internalField   nonuniform List<scalar> 
4000
(
-1.72002e-56
-1.48045e-55
-1.35726e-54
-1.00349e-53
-7.21869e-53
-4.9905e-52
-3.33109e-51
-2.16773e-50
-1.39052e-49
-8.96927e-49
-6.0404e-48
-4.21851e-47
-3.03249e-46
-2.2435e-45
-1.70505e-44
-1.32591e-43
-1.04726e-42
-9.88526e-42
-8.56337e-41
-7.70173e-40
-7.11398e-39
-6.71682e-38
-6.42297e-37
-6.16214e-36
-5.91885e-35
-5.62961e-34
-5.23304e-33
-5.82625e-32
-5.70705e-31
-5.63085e-30
-5.53244e-29
-5.38512e-28
-5.14319e-27
-4.85424e-26
-4.40567e-25
-3.82803e-24
-3.955e-23
-3.56591e-22
-3.26618e-21
-2.80689e-20
-2.26907e-19
-1.83901e-18
-1.39508e-17
-1.0159e-16
-7.11253e-16
-5.63465e-15
-4.34591e-14
-3.06719e-13
-1.94808e-12
-1.09776e-11
-5.47105e-11
-2.45671e-10
-8.9253e-10
-3.16658e-09
-9.2811e-09
-2.07464e-08
-3.02546e-08
-7.40607e-09
8.99638e-08
2.30706e-07
2.84778e-07
1.39213e-07
-2.05173e-07
-2.12325e-07
-5.57811e-08
-1.16007e-08
-2.38076e-09
-5.29728e-10
-1.30624e-10
-3.55477e-11
-1.05934e-11
-3.41451e-12
-1.17913e-12
-4.36282e-13
-1.72149e-13
-7.08578e-14
-3.11407e-14
-1.57811e-14
-1.07971e-14
-1.12507e-14
-1.58367e-14
-2.50609e-14
-4.08484e-14
-6.70259e-14
-1.10702e-13
-1.85669e-13
-3.17567e-13
-5.56473e-13
-1.00364e-12
-1.87397e-12
-3.64212e-12
-7.54946e-12
-1.61741e-11
-3.69323e-11
-9.04107e-11
-2.39175e-10
-6.63848e-10
1.40992e-10
9.56994e-10
1.86936e-09
-2.20134e-57
-2.30407e-56
-1.79272e-55
-1.2306e-54
-8.40825e-54
-5.92793e-53
-4.36255e-52
-3.24282e-51
-2.36173e-50
-1.74522e-49
-1.33308e-48
-1.06409e-47
-8.85595e-47
-7.66379e-46
-6.87334e-45
-6.3665e-44
-6.06783e-43
-5.9484e-42
-5.9386e-41
-6.02965e-40
-6.19719e-39
-6.41369e-38
-6.66636e-37
-6.94678e-36
-7.23259e-35
-7.51479e-34
-7.76638e-33
-7.96413e-32
-8.09244e-31
-8.21979e-30
-8.34231e-29
-9.00035e-28
-8.75775e-27
-8.41882e-26
-7.97785e-25
-7.37891e-24
-6.39479e-23
-6.16262e-22
-5.21293e-21
-4.5165e-20
-3.78712e-19
-2.96705e-18
-2.24561e-17
-1.60223e-16
-1.32873e-15
-9.76577e-15
-7.20366e-14
-4.9207e-13
-3.06789e-12
-1.69077e-11
-6.93206e-11
-2.66983e-10
-1.05181e-09
-3.6064e-09
-1.04465e-08
-2.1787e-08
-2.85329e-08
-2.43956e-09
9.43554e-08
2.28679e-07
2.80087e-07
1.38024e-07
-1.99856e-07
-2.15644e-07
-5.82945e-08
-1.2304e-08
-2.54158e-09
-5.61456e-10
-1.37672e-10
-3.7402e-11
-1.10664e-11
-3.54915e-12
-1.22227e-12
-4.50981e-13
-1.77403e-13
-7.28162e-14
-3.191e-14
-1.61449e-14
-1.10599e-14
-1.15677e-14
-1.63246e-14
-2.58974e-14
-4.22821e-14
-6.9406e-14
-1.14712e-13
-1.92725e-13
-3.30403e-13
-5.8063e-13
-1.05181e-12
-1.97003e-12
-3.8428e-12
-7.99561e-12
-1.72049e-11
-3.94674e-11
-9.71629e-11
-2.58407e-10
-7.10334e-10
2.45925e-10
9.61272e-10
1.84988e-09
-1.24248e-58
-1.42153e-57
-1.138e-56
-8.02911e-56
-5.47633e-55
-3.92366e-54
-2.84713e-53
-2.15932e-52
-1.80179e-51
-1.71474e-50
-1.73735e-49
-1.85266e-48
-2.04774e-47
-2.31418e-46
-2.65046e-45
-3.05715e-44
-3.53569e-43
-4.0859e-42
-4.70557e-41
-5.39194e-40
-6.1347e-39
-6.92245e-38
-7.7451e-37
-8.59923e-36
-9.49561e-35
-1.04693e-33
-1.13949e-32
-1.21385e-31
-1.25767e-30
-1.264e-29
-1.38253e-28
-1.34191e-27
-1.25446e-26
-1.30734e-25
-1.28616e-24
-1.18035e-23
-1.05937e-22
-9.45774e-22
-7.99958e-21
-6.53854e-20
-5.09325e-19
-3.77782e-18
-3.26487e-17
-2.34524e-16
-1.99368e-15
-1.4195e-14
-1.01714e-13
-6.61175e-13
-3.93638e-12
-2.09497e-11
-8.73602e-11
-3.37059e-10
-1.30904e-09
-4.13552e-09
-1.0446e-08
-2.09745e-08
-2.75525e-08
9.15642e-11
9.75089e-08
2.28903e-07
2.76626e-07
1.36134e-07
-1.95439e-07
-2.16714e-07
-6.0065e-08
-1.28378e-08
-2.66797e-09
-5.90098e-10
-1.44101e-10
-3.8956e-11
-1.14511e-11
-3.66487e-12
-1.25917e-12
-4.64023e-13
-1.8247e-13
-7.4785e-14
-3.27103e-14
-1.655e-14
-1.13856e-14
-1.19885e-14
-1.70052e-14
-2.70114e-14
-4.41378e-14
-7.25753e-14
-1.20091e-13
-2.02046e-13
-3.47032e-13
-6.11359e-13
-1.10901e-12
-2.08571e-12
-4.07785e-12
-8.49874e-12
-1.83271e-11
-4.21819e-11
-1.04169e-10
-2.7807e-10
-7.52204e-10
3.57675e-10
9.5986e-10
1.8209e-09
-5.1312e-60
-5.71428e-59
-5.05319e-58
-4.25003e-57
-3.72705e-56
-3.6353e-55
-3.98376e-54
-4.93245e-53
-6.10213e-52
-7.63402e-51
-1.0424e-49
-1.35015e-48
-1.74851e-47
-2.209e-46
-2.77072e-45
-3.43891e-44
-4.22697e-43
-5.13967e-42
-6.17139e-41
-7.3236e-40
-8.58462e-39
-9.94461e-38
-1.14228e-36
-1.31012e-35
-1.49115e-34
-1.64201e-33
-1.77144e-32
-1.85198e-31
-1.8513e-30
-2.11921e-29
-2.12801e-28
-2.09204e-27
-2.01873e-26
-1.94896e-25
-1.93819e-24
-1.72965e-23
-1.44316e-22
-1.38352e-21
-1.17989e-20
-9.75128e-20
-7.72906e-19
-6.07822e-18
-4.73731e-17
-3.51549e-16
-2.53758e-15
-1.93714e-14
-1.35816e-13
-8.77239e-13
-5.02832e-12
-2.31385e-11
-9.99638e-11
-4.28889e-10
-1.53853e-09
-4.6416e-09
-1.13626e-08
-2.13827e-08
-2.73336e-08
2.4926e-09
1.00125e-07
2.28069e-07
2.73889e-07
1.35591e-07
-1.91619e-07
-2.18976e-07
-6.19034e-08
-1.33615e-08
-2.79417e-09
-6.18179e-10
-1.50441e-10
-4.051e-11
-1.18635e-11
-3.7883e-12
-1.29715e-12
-4.76658e-13
-1.87729e-13
-7.60517e-14
-3.33228e-14
-1.69223e-14
-1.17261e-14
-1.24308e-14
-1.76589e-14
-2.8026e-14
-4.57183e-14
-7.59331e-14
-1.25267e-13
-2.10588e-13
-3.61614e-13
-6.36871e-13
-1.15562e-12
-2.19791e-12
-4.29595e-12
-8.95623e-12
-1.93849e-11
-4.47656e-11
-1.10947e-10
-2.96565e-10
-7.85124e-10
4.40946e-10
9.64441e-10
1.78762e-09
-1.24928e-60
-1.65657e-59
-2.01826e-58
-2.49635e-57
-3.13955e-56
-3.99504e-55
-5.11531e-54
-6.58275e-53
-8.60285e-52
-1.16943e-50
-1.51917e-49
-1.96628e-48
-2.51529e-47
-3.2037e-46
-4.17613e-45
-5.23502e-44
-6.57088e-43
-8.19263e-42
-9.89401e-41
-1.18105e-39
-1.39286e-38
-1.61766e-37
-1.85692e-36
-2.10764e-35
-2.36334e-34
-2.61831e-33
-2.86451e-32
-3.05691e-31
-3.19502e-30
-3.27077e-29
-3.31254e-28
-3.41742e-27
-3.32048e-26
-3.15099e-25
-2.87794e-24
-2.50215e-23
-2.08703e-22
-1.7192e-21
-1.53723e-20
-1.34626e-19
-1.01215e-18
-8.04206e-18
-5.74997e-17
-4.63691e-16
-3.37604e-15
-2.5042e-14
-1.74911e-13
-1.08106e-12
-5.35012e-12
-2.51975e-11
-1.1969e-10
-5.1034e-10
-1.86558e-09
-5.35159e-09
-1.18099e-08
-2.2031e-08
-2.67813e-08
4.79195e-09
1.0237e-07
2.28082e-07
2.71552e-07
1.34329e-07
-1.88995e-07
-2.19654e-07
-6.30839e-08
-1.3764e-08
-2.89357e-09
-6.40658e-10
-1.55391e-10
-4.17573e-11
-1.21969e-11
-3.88567e-12
-1.32837e-12
-4.87976e-13
-1.9231e-13
-7.78116e-14
-3.40525e-14
-1.73215e-14
-1.2062e-14
-1.28572e-14
-1.83296e-14
-2.91197e-14
-4.75148e-14
-7.88353e-14
-1.3004e-13
-2.18654e-13
-3.75681e-13
-6.62281e-13
-1.20345e-12
-2.29154e-12
-4.48786e-12
-9.36599e-12
-2.03309e-11
-4.7088e-11
-1.17062e-10
-3.13566e-10
-8.09567e-10
5.0784e-10
9.70539e-10
1.76481e-09
-2.9608e-60
-4.22771e-59
-5.3387e-58
-6.75742e-57
-8.57142e-56
-1.08776e-54
-1.37678e-53
-1.73713e-52
-2.18065e-51
-2.73854e-50
-3.41031e-49
-4.28385e-48
-5.55093e-47
-6.82587e-46
-8.2738e-45
-1.05205e-43
-1.27014e-42
-1.51379e-41
-1.77116e-40
-2.06504e-39
-2.47064e-38
-2.80048e-37
-3.15593e-36
-3.53976e-35
-3.92627e-34
-4.23211e-33
-4.42981e-32
-4.63149e-31
-4.96319e-30
-4.96238e-29
-4.74291e-28
-5.13727e-27
-4.8279e-26
-4.43133e-25
-3.90597e-24
-3.46567e-23
-2.96135e-22
-2.37656e-21
-2.12726e-20
-1.86364e-19
-1.39086e-18
-1.03394e-17
-7.37027e-17
-5.9355e-16
-4.27387e-15
-3.15286e-14
-2.15216e-13
-1.17217e-12
-5.94813e-12
-2.97381e-11
-1.3817e-10
-5.64929e-10
-2.00795e-09
-5.66288e-09
-1.21337e-08
-2.19244e-08
-2.60233e-08
6.7171e-09
1.04015e-07
2.27508e-07
2.69521e-07
1.33848e-07
-1.86387e-07
-2.21167e-07
-6.44318e-08
-1.41337e-08
-2.97997e-09
-6.60946e-10
-1.60204e-10
-4.29411e-11
-1.25011e-11
-3.97573e-12
-1.35701e-12
-4.97678e-13
-1.96019e-13
-7.93143e-14
-3.46987e-14
-1.76727e-14
-1.23625e-14
-1.32495e-14
-1.89359e-14
-3.01049e-14
-4.911e-14
-8.14206e-14
-1.34359e-13
-2.25999e-13
-3.88522e-13
-6.8548e-13
-1.24697e-12
-2.37529e-12
-4.66059e-12
-9.7288e-12
-2.1171e-11
-4.91514e-11
-1.22496e-10
-3.28867e-10
-8.28581e-10
5.56686e-10
9.85966e-10
1.7539e-09
-6.69886e-60
-9.18212e-59
-1.15535e-57
-1.42674e-56
-1.78761e-55
-2.32502e-54
-2.90225e-53
-3.62565e-52
-4.52082e-51
-5.6255e-50
-6.98182e-49
-8.63883e-48
-1.06521e-46
-1.30821e-45
-1.59734e-44
-1.93409e-43
-2.31768e-42
-2.75597e-41
-3.24505e-40
-3.74857e-39
-4.25998e-38
-4.7696e-37
-5.25418e-36
-5.68998e-35
-6.06285e-34
-6.37098e-33
-6.56261e-32
-6.81705e-31
-7.40853e-30
-7.52554e-29
-7.37129e-28
-7.06787e-27
-6.58524e-26
-5.86825e-25
-5.32606e-24
-4.92358e-23
-4.38497e-22
-3.53887e-21
-3.17402e-20
-2.46523e-19
-1.86787e-18
-1.37711e-17
-9.74503e-17
-6.78339e-16
-5.04005e-15
-3.45782e-14
-2.17884e-13
-1.18066e-12
-6.61557e-12
-3.31096e-11
-1.50273e-10
-6.05566e-10
-2.11565e-09
-5.8707e-09
-1.24345e-08
-2.20245e-08
-2.53338e-08
8.14934e-09
1.05123e-07
2.26714e-07
2.67869e-07
1.3412e-07
-1.83457e-07
-2.22772e-07
-6.57899e-08
-1.45104e-08
-3.06564e-09
-6.80926e-10
-1.64702e-10
-4.40727e-11
-1.28032e-11
-4.06655e-12
-1.38631e-12
-5.07921e-13
-1.99996e-13
-8.08762e-14
-3.53845e-14
-1.80377e-14
-1.26573e-14
-1.36139e-14
-1.94892e-14
-3.0994e-14
-5.05512e-14
-8.37499e-14
-1.38239e-13
-2.32594e-13
-4.00047e-13
-7.06279e-13
-1.28594e-12
-2.45017e-12
-4.81482e-12
-1.00518e-11
-2.1918e-11
-5.09849e-11
-1.27322e-10
-3.42338e-10
-8.44129e-10
5.936e-10
1.00265e-09
1.75363e-09
-1.3937e-59
-1.90411e-58
-2.38126e-57
-2.96898e-56
-3.6969e-55
-4.59543e-54
-5.69976e-53
-7.05325e-52
-8.70495e-51
-1.07104e-49
-1.31374e-48
-1.60602e-47
-1.95553e-46
-2.36949e-45
-2.84414e-44
-3.38826e-43
-3.99746e-42
-4.67123e-41
-5.4038e-40
-6.17722e-39
-6.9452e-38
-7.70496e-37
-8.45142e-36
-9.11412e-35
-9.66531e-34
-1.00289e-32
-1.01294e-31
-9.9632e-31
-9.65498e-30
-9.34517e-29
-1.0201e-27
-1.01339e-26
-9.35113e-26
-8.37543e-25
-7.37872e-24
-6.38289e-23
-5.50848e-22
-4.38865e-21
-3.94772e-20
-3.07573e-19
-2.28898e-18
-1.66306e-17
-1.20617e-16
-8.41592e-16
-6.20882e-15
-4.27732e-14
-2.46448e-13
-1.37635e-12
-7.52939e-12
-3.72227e-11
-1.64096e-10
-6.43751e-10
-2.21016e-09
-6.0318e-09
-1.25935e-08
-2.20296e-08
-2.482e-08
9.2126e-09
1.05564e-07
2.25558e-07
2.66502e-07
1.35325e-07
-1.79879e-07
-2.2496e-07
-6.73161e-08
-1.49582e-08
-3.16671e-09
-7.03737e-10
-1.69867e-10
-4.53832e-11
-1.31593e-11
-4.17241e-12
-1.421e-12
-5.20106e-13
-2.04703e-13
-8.27229e-14
-3.61617e-14
-1.84332e-14
-1.29497e-14
-1.39507e-14
-1.9987e-14
-3.17894e-14
-5.1842e-14
-8.58486e-14
-1.41729e-13
-2.3852e-13
-4.10381e-13
-7.24882e-13
-1.32067e-12
-2.51693e-12
-4.95151e-12
-1.03381e-11
-2.2576e-11
-5.25907e-11
-1.31527e-10
-3.53991e-10
-8.57992e-10
6.21718e-10
1.01993e-09
1.76216e-09
-2.38087e-59
-3.25232e-58
-4.05478e-57
-5.03548e-56
-6.23613e-55
-7.69971e-54
-9.49033e-53
-1.16797e-51
-1.43471e-50
-1.7521e-49
-2.12957e-48
-2.58146e-47
-3.11598e-46
-3.72439e-45
-4.41361e-44
-5.18692e-43
-6.03062e-42
-6.90514e-41
-7.88768e-40
-9.20019e-39
-1.00051e-37
-1.04855e-36
-1.25726e-35
-1.35081e-34
-1.44004e-33
-1.50077e-32
-1.53151e-31
-1.53218e-30
-1.49977e-29
-1.44065e-28
-1.38414e-27
-1.36145e-26
-1.26291e-25
-1.13394e-24
-9.8683e-24
-8.36213e-23
-6.90213e-22
-5.48144e-21
-4.90203e-20
-3.77881e-19
-2.8078e-18
-2.13373e-17
-1.5283e-16
-1.04076e-15
-6.68101e-15
-4.16064e-14
-2.67802e-13
-1.57489e-12
-8.46686e-12
-4.06709e-11
-1.75058e-10
-6.76251e-10
-2.28676e-09
-6.14015e-09
-1.26835e-08
-2.20212e-08
-2.44446e-08
9.83714e-09
1.05338e-07
2.23971e-07
2.65522e-07
1.38125e-07
-1.73787e-07
-2.28113e-07
-6.98899e-08
-1.55938e-08
-3.31017e-09
-7.33215e-10
-1.76735e-10
-4.70585e-11
-1.36324e-11
-4.31638e-12
-1.46618e-12
-5.3544e-13
-2.10376e-13
-8.48889e-14
-3.70536e-14
-1.88655e-14
-1.32438e-14
-1.42644e-14
-2.04358e-14
-3.25022e-14
-5.30011e-14
-8.77495e-14
-1.44883e-13
-2.43867e-13
-4.19683e-13
-7.41561e-13
-1.35166e-12
-2.57652e-12
-5.07249e-12
-1.05919e-11
-2.31532e-11
-5.3988e-11
-1.35159e-10
-3.6401e-10
-8.71522e-10
6.43692e-10
1.03757e-09
1.778e-09
-3.44293e-59
-4.92964e-58
-6.11994e-57
-7.68072e-56
-9.66411e-55
-1.19167e-53
-1.46425e-52
-1.79295e-51
-2.18987e-50
-2.66833e-49
-3.23885e-48
-3.89725e-47
-4.64902e-46
-5.48701e-45
-6.35086e-44
-7.14513e-43
-9.13523e-42
-1.03694e-40
-1.16595e-39
-1.29401e-38
-1.43514e-37
-1.63563e-36
-1.76543e-35
-1.88401e-34
-1.98476e-33
-2.06157e-32
-2.08774e-31
-2.04731e-30
-2.10637e-29
-2.0211e-28
-1.89208e-27
-1.73609e-26
-1.56529e-25
-1.37767e-24
-1.16913e-23
-1.00928e-22
-8.35304e-22
-6.68309e-21
-5.80821e-20
-4.37127e-19
-3.25198e-18
-2.37858e-17
-1.64151e-16
-1.08685e-15
-7.08736e-15
-4.85766e-14
-3.07045e-13
-1.79149e-12
-9.40505e-12
-4.41861e-11
-1.86796e-10
-7.05674e-10
-2.32284e-09
-6.18323e-09
-1.27926e-08
-2.20259e-08
-2.41178e-08
1.01328e-08
1.04655e-07
2.22269e-07
2.64763e-07
1.41536e-07
-1.66882e-07
-2.31621e-07
-7.25445e-08
-1.63105e-08
-3.47099e-09
-7.67206e-10
-1.84314e-10
-4.89858e-11
-1.41518e-11
-4.46762e-12
-1.51397e-12
-5.51784e-13
-2.16755e-13
-8.74007e-14
-3.81031e-14
-1.93599e-14
-1.35483e-14
-1.45608e-14
-2.08432e-14
-3.3144e-14
-5.40451e-14
-8.94741e-14
-1.47727e-13
-2.487e-13
-4.28069e-13
-7.56533e-13
-1.3793e-12
-2.62974e-12
-5.17938e-12
-1.08159e-11
-2.36567e-11
-5.51937e-11
-1.3826e-10
-3.72503e-10
-8.85312e-10
6.61103e-10
1.05528e-09
1.79953e-09
-5.16164e-59
-7.12971e-58
-8.85349e-57
-1.09569e-55
-1.35141e-54
-1.6621e-53
-2.04058e-52
-2.50439e-51
-3.0789e-50
-3.78607e-49
-4.59797e-48
-5.53987e-47
-6.65328e-46
-7.91944e-45
-9.32141e-44
-1.0818e-42
-1.23934e-41
-1.40034e-40
-1.56289e-39
-1.72415e-38
-1.80348e-37
-2.14693e-36
-2.27203e-35
-2.34535e-34
-2.32657e-33
-2.63608e-32
-2.6839e-31
-2.70598e-30
-2.65741e-29
-2.52702e-28
-2.34298e-27
-2.11203e-26
-1.87084e-25
-1.67711e-24
-1.41494e-23
-1.17211e-22
-9.77163e-22
-7.78353e-21
-6.68505e-20
-4.9698e-19
-3.61399e-18
-2.55214e-17
-1.75092e-16
-1.15824e-15
-8.3033e-15
-5.63444e-14
-3.54502e-13
-2.03741e-12
-1.05657e-11
-4.93083e-11
-2.07191e-10
-7.81073e-10
-2.53318e-09
-6.26629e-09
-1.29292e-08
-2.19873e-08
-2.38665e-08
1.00694e-08
1.03274e-07
2.19725e-07
2.63898e-07
1.45476e-07
-1.60168e-07
-2.35146e-07
-7.53864e-08
-1.70571e-08
-3.6373e-09
-8.04235e-10
-1.92498e-10
-5.0981e-11
-1.46997e-11
-4.62963e-12
-1.56713e-12
-5.70428e-13
-2.23691e-13
-9.00308e-14
-3.91854e-14
-1.98526e-14
-1.38444e-14
-1.48371e-14
-2.12152e-14
-3.37294e-14
-5.50021e-14
-9.10726e-14
-1.50359e-13
-2.53075e-13
-4.35608e-13
-7.69945e-13
-1.40402e-12
-2.67739e-12
-5.27394e-12
-1.10138e-11
-2.40962e-11
-5.62369e-11
-1.40914e-10
-3.79731e-10
-8.99383e-10
6.75213e-10
1.07283e-09
1.82506e-09
-6.97353e-59
-9.50633e-58
-1.18469e-56
-1.47101e-55
-1.82179e-54
-2.24893e-53
-2.76379e-52
-3.37861e-51
-4.12787e-50
-5.07968e-49
-6.11796e-48
-7.33208e-47
-8.76594e-46
-1.04858e-44
-1.22782e-43
-1.42279e-42
-1.63305e-41
-1.85535e-40
-2.07909e-39
-2.29701e-38
-2.49425e-37
-2.65321e-36
-2.89783e-35
-3.03309e-34
-3.13363e-33
-3.18781e-32
-3.1447e-31
-2.97012e-30
-3.13761e-29
-2.89901e-28
-2.55571e-27
-2.57849e-26
-2.33401e-25
-2.03901e-24
-1.71761e-23
-1.39981e-22
-1.12459e-21
-9.037e-21
-7.29165e-20
-5.60216e-19
-3.98454e-18
-2.77065e-17
-1.91579e-16
-1.3114e-15
-9.41137e-15
-6.34335e-14
-3.9622e-13
-2.25001e-12
-1.1528e-11
-5.32518e-11
-2.21758e-10
-8.21526e-10
-2.49963e-09
-6.10359e-09
-1.3042e-08
-2.19128e-08
-2.36229e-08
9.85507e-09
1.01891e-07
2.17744e-07
2.63361e-07
1.49741e-07
-1.5218e-07
-2.39251e-07
-7.85627e-08
-1.78775e-08
-3.8156e-09
-8.43255e-10
-2.01333e-10
-5.307e-11
-1.53522e-11
-4.82207e-12
-1.62727e-12
-5.90494e-13
-2.30957e-13
-9.27454e-14
-4.0274e-14
-2.0352e-14
-1.41327e-14
-1.50945e-14
-2.15531e-14
-3.42622e-14
-5.58819e-14
-9.25689e-14
-1.52829e-13
-2.57238e-13
-4.42722e-13
-7.8239e-13
-1.42642e-12
-2.72064e-12
-5.35948e-12
-1.11934e-11
-2.44873e-11
-5.71438e-11
-1.43187e-10
-3.85853e-10
-9.1341e-10
6.86886e-10
1.08992e-09
1.85293e-09
-7.58113e-59
-1.15939e-57
-1.50089e-56
-1.86374e-55
-2.31499e-54
-2.86872e-53
-3.54248e-52
-4.35453e-51
-5.31592e-50
-6.43852e-49
-7.72702e-48
-9.16373e-47
-1.06807e-45
-1.29955e-44
-1.5014e-43
-1.70164e-42
-1.86521e-41
-2.3244e-40
-2.59374e-39
-2.86449e-38
-3.11971e-37
-3.34705e-36
-3.52776e-35
-3.64768e-34
-3.70047e-33
-3.68903e-32
-3.6336e-31
-3.56705e-30
-3.62221e-29
-3.51005e-28
-3.19804e-27
-2.97941e-26
-2.6227e-25
-2.32417e-24
-1.93223e-23
-1.57631e-22
-1.28269e-21
-1.0486e-20
-8.04319e-20
-6.42395e-19
-4.60656e-18
-3.19705e-17
-2.14805e-16
-1.51482e-15
-1.03857e-14
-6.92483e-14
-4.2491e-13
-2.37658e-12
-1.2021e-11
-5.48254e-11
-2.25523e-10
-8.24581e-10
-2.47243e-09
-6.06209e-09
-1.30801e-08
-2.17184e-08
-2.34046e-08
9.45688e-09
1.00221e-07
2.15625e-07
2.63164e-07
1.5383e-07
-1.44397e-07
-2.42562e-07
-8.172e-08
-1.87149e-08
-3.99891e-09
-8.83337e-10
-2.10621e-10
-5.53353e-11
-1.59744e-11
-5.00127e-12
-1.68387e-12
-6.09726e-13
-2.38219e-13
-9.55497e-14
-4.14189e-14
-2.08577e-14
-1.44136e-14
-1.5337e-14
-2.18721e-14
-3.47618e-14
-5.66978e-14
-9.39402e-14
-1.55084e-13
-2.6102e-13
-4.492e-13
-7.93774e-13
-1.44705e-12
-2.7602e-12
-5.43574e-12
-1.13529e-11
-2.48355e-11
-5.79598e-11
-1.45238e-10
-3.91429e-10
-9.28109e-10
6.9658e-10
1.1071e-09
1.8835e-09
-9.52887e-59
-1.49583e-57
-1.86647e-56
-2.3198e-55
-2.87628e-54
-3.551e-53
-4.35922e-52
-5.32107e-51
-6.4521e-50
-7.7576e-49
-9.24985e-48
-1.10434e-46
-1.34247e-45
-1.55528e-44
-1.763e-43
-1.93021e-42
-2.41237e-41
-2.70016e-40
-2.99113e-39
-3.27918e-38
-3.57143e-37
-3.87276e-36
-4.10748e-35
-4.26183e-34
-4.37734e-33
-4.47768e-32
-4.48738e-31
-4.39001e-30
-4.24076e-29
-4.02806e-28
-3.77224e-27
-3.43371e-26
-3.01257e-25
-2.57115e-24
-2.12634e-23
-1.70499e-22
-1.3914e-21
-1.08561e-20
-8.78396e-20
-6.79031e-19
-4.53587e-18
-3.23107e-17
-2.44082e-16
-1.69828e-15
-1.11628e-14
-7.34269e-14
-4.45397e-13
-2.46646e-12
-1.23501e-11
-5.57834e-11
-2.27575e-10
-8.2378e-10
-2.45175e-09
-6.04233e-09
-1.31143e-08
-2.15521e-08
-2.32239e-08
9.04515e-09
9.85979e-08
2.13244e-07
2.62566e-07
1.57861e-07
-1.36975e-07
-2.45546e-07
-8.4822e-08
-1.95429e-08
-4.18637e-09
-9.22795e-10
-2.19618e-10
-5.75363e-11
-1.6568e-11
-5.17836e-12
-1.73954e-12
-6.28358e-13
-2.45077e-13
-9.82382e-14
-4.25059e-14
-2.1338e-14
-1.46813e-14
-1.5561e-14
-2.21551e-14
-3.52039e-14
-5.74264e-14
-9.51873e-14
-1.57115e-13
-2.64419e-13
-4.55016e-13
-8.0398e-13
-1.4655e-12
-2.7959e-12
-5.50502e-12
-1.1499e-11
-2.51485e-11
-5.86751e-11
-1.46992e-10
-3.96081e-10
-9.41823e-10
7.04724e-10
1.12314e-09
1.91344e-09
-1.2926e-58
-1.75625e-57
-2.18055e-56
-2.69827e-55
-3.33412e-54
-4.11093e-53
-5.03285e-52
-6.14132e-51
-7.52009e-50
-9.19019e-49
-1.11067e-47
-1.3216e-46
-1.55949e-45
-1.81786e-44
-2.08745e-43
-2.37009e-42
-2.70351e-41
-3.1654e-40
-3.52311e-39
-3.88081e-38
-4.201e-37
-4.47449e-36
-4.68326e-35
-4.81625e-34
-4.88686e-33
-4.93424e-32
-4.92913e-31
-4.86502e-30
-4.749e-29
-4.52777e-28
-4.1643e-27
-3.6857e-26
-3.15434e-25
-2.6601e-24
-2.15528e-23
-1.78565e-22
-1.50333e-21
-1.22197e-20
-9.74348e-20
-6.93455e-19
-5.53789e-18
-3.90053e-17
-2.67274e-16
-1.72816e-15
-1.17603e-14
-7.67138e-14
-4.61737e-13
-2.53783e-12
-1.26128e-11
-5.65248e-11
-2.28551e-10
-8.21914e-10
-2.43631e-09
-6.0259e-09
-1.31236e-08
-2.14026e-08
-2.30998e-08
8.52753e-09
9.69663e-08
2.11301e-07
2.6221e-07
1.61744e-07
-1.29654e-07
-2.48517e-07
-8.78473e-08
-2.03506e-08
-4.36634e-09
-9.62258e-10
-2.28596e-10
-5.96958e-11
-1.71448e-11
-5.3465e-12
-1.79219e-12
-6.46283e-13
-2.516e-13
-1.00779e-13
-4.35281e-14
-2.17899e-14
-1.49227e-14
-1.57546e-14
-2.2396e-14
-3.55794e-14
-5.80465e-14
-9.62517e-14
-1.58855e-13
-2.67327e-13
-4.59974e-13
-8.12637e-13
-1.48105e-12
-2.82585e-12
-5.5625e-12
-1.16202e-11
-2.54062e-11
-5.9262e-11
-1.48427e-10
-3.99899e-10
-9.54069e-10
7.10977e-10
1.13724e-09
1.94097e-09
-1.49472e-58
-2.03312e-57
-2.52939e-56
-3.13686e-55
-3.87516e-54
-4.76392e-53
-5.83422e-52
-7.11533e-51
-8.64339e-50
-1.04609e-48
-1.25811e-47
-1.49601e-46
-1.76084e-45
-2.04947e-44
-2.35553e-43
-2.68468e-42
-3.07109e-41
-3.50382e-40
-3.90257e-39
-4.31367e-38
-4.67391e-37
-4.96729e-36
-5.18757e-35
-5.3162e-34
-5.37665e-33
-5.40002e-32
-5.31087e-31
-5.09615e-30
-4.8571e-29
-4.75544e-28
-4.4137e-27
-4.05564e-26
-3.55063e-25
-3.02361e-24
-2.52535e-23
-2.1079e-22
-1.74503e-21
-1.43474e-20
-1.11372e-19
-8.14056e-19
-5.71498e-18
-3.97512e-17
-2.79126e-16
-1.81429e-15
-1.22305e-14
-7.91721e-14
-4.73536e-13
-2.58652e-12
-1.27772e-11
-5.69666e-11
-2.2919e-10
-8.20432e-10
-2.42318e-09
-6.00801e-09
-1.31183e-08
-2.12695e-08
-2.30022e-08
8.00169e-09
9.53934e-08
2.09414e-07
2.61982e-07
1.65022e-07
-1.23515e-07
-2.50745e-07
-9.03891e-08
-2.10451e-08
-4.52265e-09
-9.96247e-10
-2.3642e-10
-6.16231e-11
-1.76592e-11
-5.49655e-12
-1.83964e-12
-6.62189e-13
-2.57382e-13
-1.03029e-13
-4.443e-14
-2.21824e-14
-1.51291e-14
-1.59156e-14
-2.25928e-14
-3.58846e-14
-5.8555e-14
-9.71294e-14
-1.60291e-13
-2.69726e-13
-4.64064e-13
-8.19774e-13
-1.49386e-12
-2.8506e-12
-5.60991e-12
-1.17198e-11
-2.56168e-11
-5.97381e-11
-1.49582e-10
-4.02959e-10
-9.64443e-10
7.16007e-10
1.14928e-09
1.9649e-09
-1.58616e-58
-2.25597e-57
-2.80484e-56
-3.4785e-55
-4.29711e-54
-5.28181e-53
-6.45158e-52
-7.83172e-51
-9.47532e-50
-1.1479e-48
-1.38638e-47
-1.64748e-46
-1.94494e-45
-2.27827e-44
-2.64822e-43
-3.05307e-42
-3.46312e-41
-3.87366e-40
-4.29367e-39
-4.70627e-38
-5.03274e-37
-5.25376e-36
-5.70553e-35
-5.85197e-34
-5.90749e-33
-5.87051e-32
-5.79467e-31
-5.66715e-30
-5.42364e-29
-5.17049e-28
-4.85247e-27
-4.39563e-26
-3.83095e-25
-3.27768e-24
-2.76166e-23
-2.27525e-22
-1.83433e-21
-1.4622e-20
-1.10446e-19
-7.5512e-19
-5.39093e-18
-3.97385e-17
-2.63281e-16
-1.83548e-15
-1.25737e-14
-8.10411e-14
-4.82623e-13
-2.62404e-12
-1.29033e-11
-5.72863e-11
-2.29562e-10
-8.18991e-10
-2.41325e-09
-5.99285e-09
-1.31042e-08
-2.11633e-08
-2.29427e-08
7.59622e-09
9.42495e-08
2.0805e-07
2.61727e-07
1.6753e-07
-1.18168e-07
-2.5245e-07
-9.26866e-08
-2.16627e-08
-4.65981e-09
-1.02574e-09
-2.43254e-10
-6.32653e-11
-1.80906e-11
-5.62145e-12
-1.87834e-12
-6.7517e-13
-2.62086e-13
-1.04855e-13
-4.51607e-14
-2.24987e-14
-1.52934e-14
-1.60414e-14
-2.27451e-14
-3.61212e-14
-5.89452e-14
-9.7804e-14
-1.61394e-13
-2.71566e-13
-4.67192e-13
-8.25216e-13
-1.50358e-12
-2.86932e-12
-5.64554e-12
-1.1795e-11
-2.57752e-11
-6.00974e-11
-1.50459e-10
-4.05285e-10
-9.72667e-10
7.19624e-10
1.15879e-09
1.98418e-09
-1.71447e-58
-2.34309e-57
-2.95201e-56
-3.72305e-55
-4.60429e-54
-5.68012e-53
-6.97797e-52
-8.52755e-51
-1.03611e-49
-1.25232e-48
-1.50514e-47
-1.79731e-46
-2.12942e-45
-2.49663e-44
-2.89032e-43
-3.30885e-42
-3.74442e-41
-4.18535e-40
-4.61921e-39
-5.0323e-38
-5.40969e-37
-5.74368e-36
-6.03117e-35
-6.26763e-34
-6.38669e-33
-6.36263e-32
-6.191e-31
-5.96907e-30
-5.85054e-29
-5.39298e-28
-4.81802e-27
-4.09267e-26
-3.95899e-25
-3.40348e-24
-2.84908e-23
-2.27232e-22
-1.7764e-21
-1.39673e-20
-1.04352e-19
-7.97552e-19
-5.26244e-18
-3.93932e-17
-2.76055e-16
-1.869e-15
-1.28248e-14
-8.2377e-14
-4.89113e-13
-2.65119e-12
-1.2997e-11
-5.75122e-11
-2.29845e-10
-8.17972e-10
-2.40618e-09
-5.98073e-09
-1.30904e-08
-2.10877e-08
-2.28991e-08
7.30055e-09
9.34035e-08
2.07042e-07
2.61543e-07
1.69274e-07
-1.14557e-07
-2.53559e-07
-9.42282e-08
-2.20834e-08
-4.75424e-09
-1.04611e-09
-2.47938e-10
-6.43815e-11
-1.83864e-11
-5.70767e-12
-1.9056e-12
-6.84268e-13
-2.65379e-13
-1.06137e-13
-4.56737e-14
-2.27203e-14
-1.54077e-14
-1.61278e-14
-2.28487e-14
-3.62818e-14
-5.92122e-14
-9.82681e-14
-1.62153e-13
-2.72837e-13
-4.69357e-13
-8.28986e-13
-1.51033e-12
-2.88237e-12
-5.67037e-12
-1.18476e-11
-2.58857e-11
-6.03464e-11
-1.51059e-10
-4.0687e-10
-9.78409e-10
7.22068e-10
1.16548e-09
1.99782e-09
-1.7751e-58
-2.52052e-57
-3.14436e-56
-3.91708e-55
-4.86085e-54
-6.00023e-53
-7.37118e-52
-9.0073e-51
-1.09367e-49
-1.31887e-48
-1.57882e-47
-1.8758e-46
-2.21059e-45
-2.58133e-44
-2.98096e-43
-3.40053e-42
-3.83279e-41
-4.26747e-40
-4.70697e-39
-5.14614e-38
-5.54698e-37
-5.87377e-36
-6.01967e-35
-6.29409e-34
-6.65923e-33
-6.69779e-32
-6.62494e-31
-6.37788e-30
-5.99748e-29
-5.48805e-28
-5.07618e-27
-4.66467e-26
-4.04494e-25
-3.47135e-24
-2.86978e-23
-2.32528e-22
-1.84531e-21
-1.48673e-20
-1.19136e-19
-8.50693e-19
-5.88915e-18
-4.08048e-17
-2.8413e-16
-1.91729e-15
-1.29865e-14
-8.33009e-14
-4.93438e-13
-2.66867e-12
-1.3055e-11
-5.76564e-11
-2.30043e-10
-8.1757e-10
-2.40254e-09
-5.97482e-09
-1.30843e-08
-2.10452e-08
-2.28694e-08
7.15587e-09
9.29565e-08
2.06475e-07
2.6141e-07
1.70174e-07
-1.1268e-07
-2.54083e-07
-9.5028e-08
-2.23041e-08
-4.80384e-09
-1.05691e-09
-2.50431e-10
-6.49843e-11
-1.8547e-11
-5.75399e-12
-1.92004e-12
-6.89095e-13
-2.67124e-13
-1.06816e-13
-4.59452e-14
-2.28371e-14
-1.54673e-14
-1.61721e-14
-2.29016e-14
-3.63641e-14
-5.93496e-14
-9.85075e-14
-1.62546e-13
-2.73494e-13
-4.70477e-13
-8.30939e-13
-1.51382e-12
-2.88915e-12
-5.68329e-12
-1.18751e-11
-2.59436e-11
-6.04766e-11
-1.51374e-10
-4.07705e-10
-9.81482e-10
7.23256e-10
1.16902e-09
2.00515e-09
-1.86614e-58
-2.58143e-57
-3.21702e-56
-3.99714e-55
-4.95283e-54
-6.11603e-53
-7.5146e-52
-9.14992e-51
-1.09597e-49
-1.35132e-48
-1.5999e-47
-1.86433e-46
-2.12355e-45
-2.3743e-44
-3.12227e-43
-3.55155e-42
-4.02073e-41
-4.50224e-40
-4.98331e-39
-5.43849e-38
-5.84573e-37
-6.17925e-36
-6.40992e-35
-6.53627e-34
-6.66601e-33
-6.97037e-32
-6.92317e-31
-6.771e-30
-6.43413e-29
-5.95349e-28
-5.41857e-27
-4.8061e-26
-4.22368e-25
-3.6091e-24
-2.92402e-23
-2.33071e-22
-1.91098e-21
-1.51442e-20
-1.17401e-19
-8.09052e-19
-6.11423e-18
-4.20865e-17
-2.86677e-16
-1.93352e-15
-1.30895e-14
-8.38404e-14
-4.96063e-13
-2.67983e-12
-1.30954e-11
-5.77758e-11
-2.30289e-10
-8.17751e-10
-2.40167e-09
-5.97452e-09
-1.30864e-08
-2.10267e-08
-2.28433e-08
7.14052e-09
9.28508e-08
2.06317e-07
2.61341e-07
1.70343e-07
-1.12272e-07
-2.54176e-07
-9.51883e-08
-2.23484e-08
-4.8137e-09
-1.05902e-09
-2.50919e-10
-6.50994e-11
-1.85769e-11
-5.76249e-12
-1.92264e-12
-6.89939e-13
-2.6742e-13
-1.06927e-13
-4.59877e-14
-2.28541e-14
-1.54747e-14
-1.61762e-14
-2.29056e-14
-3.63703e-14
-5.93607e-14
-9.85283e-14
-1.62581e-13
-2.73556e-13
-4.7059e-13
-8.31146e-13
-1.51421e-12
-2.88992e-12
-5.68482e-12
-1.18785e-11
-2.59509e-11
-6.04937e-11
-1.51417e-10
-4.07822e-10
-9.81868e-10
7.23584e-10
1.16955e-09
2.00607e-09
-1.90613e-58
-2.62239e-57
-3.29663e-56
-4.09926e-55
-5.08124e-54
-6.27108e-53
-7.70082e-52
-9.40208e-51
-1.1402e-49
-1.37223e-48
-1.6354e-47
-1.9264e-46
-2.24426e-45
-2.62132e-44
-3.14039e-43
-3.5509e-42
-3.92718e-41
-4.18717e-40
-5.08886e-39
-5.56043e-38
-6.02741e-37
-6.40592e-36
-6.70019e-35
-6.8869e-34
-6.97107e-33
-6.97754e-32
-6.94381e-31
-6.80979e-30
-6.47078e-29
-6.00868e-28
-5.42153e-27
-4.80994e-26
-4.30766e-25
-3.59752e-24
-3.03371e-23
-2.44587e-22
-1.9372e-21
-1.43514e-20
-1.16691e-19
-8.6764e-19
-6.02259e-18
-3.93376e-17
-2.93002e-16
-2.04385e-15
-1.31496e-14
-8.40732e-14
-4.97236e-13
-2.68574e-12
-1.31218e-11
-5.7881e-11
-2.30663e-10
-8.18906e-10
-2.40462e-09
-5.98206e-09
-1.3102e-08
-2.1041e-08
-2.2818e-08
7.30733e-09
9.31901e-08
2.06654e-07
2.61322e-07
1.69586e-07
-1.13685e-07
-2.53701e-07
-9.45567e-08
-2.21769e-08
-4.77533e-09
-1.05075e-09
-2.49026e-10
-6.4643e-11
-1.84556e-11
-5.72725e-12
-1.91155e-12
-6.86219e-13
-2.66067e-13
-1.06401e-13
-4.57753e-14
-2.27611e-14
-1.54256e-14
-1.61382e-14
-2.28597e-14
-3.62998e-14
-5.92447e-14
-9.83293e-14
-1.62258e-13
-2.73021e-13
-4.69685e-13
-8.29584e-13
-1.51144e-12
-2.88462e-12
-5.67483e-12
-1.18574e-11
-2.59073e-11
-6.0397e-11
-1.51188e-10
-4.07224e-10
-9.79556e-10
7.22684e-10
1.16685e-09
2.00041e-09
-1.89085e-58
-2.58092e-57
-3.2238e-56
-4.00755e-55
-4.95874e-54
-6.10134e-53
-7.4623e-52
-9.0711e-51
-1.09594e-49
-1.31615e-48
-1.57137e-47
-1.86489e-46
-2.1977e-45
-2.56699e-44
-2.96661e-43
-3.40056e-42
-3.89211e-41
-4.40588e-40
-4.85536e-39
-5.14038e-38
-5.17158e-37
-5.93411e-36
-6.26852e-35
-6.66097e-34
-6.71357e-33
-6.73153e-32
-6.73568e-31
-6.5289e-30
-6.06278e-29
-5.81429e-28
-5.18818e-27
-4.40469e-26
-4.1172e-25
-3.35956e-24
-2.70076e-23
-2.16717e-22
-1.7218e-21
-1.29263e-20
-1.13281e-19
-8.45692e-19
-5.86655e-18
-3.84658e-17
-2.75343e-16
-1.98293e-15
-1.31045e-14
-8.39199e-14
-4.968e-13
-2.68563e-12
-1.31315e-11
-5.79655e-11
-2.31141e-10
-8.20992e-10
-2.41156e-09
-5.99876e-09
-1.31332e-08
-2.10893e-08
-2.27924e-08
7.65591e-09
9.39573e-08
2.07452e-07
2.61332e-07
1.6792e-07
-1.16835e-07
-2.52663e-07
-9.31815e-08
-2.18041e-08
-4.69222e-09
-1.03281e-09
-2.44909e-10
-6.36504e-11
-1.81914e-11
-5.65027e-12
-1.88743e-12
-6.78101e-13
-2.6311e-13
-1.05249e-13
-4.53117e-14
-2.25594e-14
-1.53209e-14
-1.6059e-14
-2.27653e-14
-3.61547e-14
-5.90062e-14
-9.79178e-14
-1.61589e-13
-2.71908e-13
-4.67798e-13
-8.26314e-13
-1.50562e-12
-2.87341e-12
-5.65365e-12
-1.18127e-11
-2.58143e-11
-6.01897e-11
-1.50692e-10
-4.05925e-10
-9.74576e-10
7.20888e-10
1.16115e-09
1.98839e-09
-1.82109e-58
-2.48325e-57
-3.09697e-56
-3.84496e-55
-4.75544e-54
-5.85634e-53
-7.17695e-52
-8.74836e-51
-1.06048e-49
-1.27772e-48
-1.52874e-47
-1.8142e-46
-2.13205e-45
-2.47577e-44
-2.84172e-43
-3.26286e-42
-3.82625e-41
-4.29706e-40
-4.7812e-39
-5.25756e-38
-5.69706e-37
-6.058e-36
-6.33419e-35
-6.52345e-34
-6.61419e-33
-6.60197e-32
-6.50817e-31
-6.37712e-30
-6.15722e-29
-5.73102e-28
-5.22866e-27
-4.71779e-26
-4.12816e-25
-3.49787e-24
-2.88782e-23
-2.31049e-22
-1.77114e-21
-1.32991e-20
-1.09295e-19
-8.4055e-19
-5.80998e-18
-4.02507e-17
-2.71522e-16
-1.9432e-15
-1.29906e-14
-8.34625e-14
-4.94998e-13
-2.68071e-12
-1.31301e-11
-5.80528e-11
-2.31818e-10
-8.24323e-10
-2.42315e-09
-6.02564e-09
-1.31821e-08
-2.11733e-08
-2.27611e-08
8.21857e-09
9.52214e-08
2.08759e-07
2.61322e-07
1.65184e-07
-1.21851e-07
-2.50876e-07
-9.10213e-08
-2.12248e-08
-4.56355e-09
-1.00511e-09
-2.38555e-10
-6.21163e-11
-1.77839e-11
-5.53153e-12
-1.84989e-12
-6.65505e-13
-2.58537e-13
-1.03476e-13
-4.46e-14
-2.2251e-14
-1.51617e-14
-1.59398e-14
-2.26247e-14
-3.59396e-14
-5.86519e-14
-9.73052e-14
-1.60591e-13
-2.70249e-13
-4.64988e-13
-8.21444e-13
-1.49696e-12
-2.85675e-12
-5.62216e-12