/*--------------------------------*- C++ -*----------------------------------*\
  =========                 |
  \\      /  F ield         | OpenFOAM: The Open Source CFD Toolbox
   \\    /   O peration     | Website:  https://openfoam.org
    \\  /    A nd           | Version:  10
     \\/     M anipulation  |
\*---------------------------------------------------------------------------*/
FoamFile
{
    format      ascii;
    class       volScalarField;
    location    "1";
    object      RR.OC12H23OOH;
}
// * * * * * * * * * * * * * * * * * * * * * * * * * * * * * * * * * * * * * //

dimensions      [1 -3 -1 0 0 0 0];

internalField   nonuniform List<scalar> 
4000
(
-2.71791e-36
-1.13109e-35
-4.2671e-35
-1.47442e-34
-4.98442e-34
-1.61273e-33
-5.01319e-33
-1.5169e-32
-4.52651e-32
-1.35847e-31
-4.20492e-31
-1.2631e-30
-3.74137e-30
-1.10957e-29
-3.31626e-29
-9.97711e-29
-2.9773e-28
-9.44403e-28
-2.90615e-27
-9.06757e-27
-2.84405e-26
-8.97488e-26
-2.8794e-25
-9.17966e-25
-2.95519e-24
-9.47531e-24
-2.96266e-23
-9.71148e-23
-3.05565e-22
-9.61942e-22
-3.02186e-21
-9.44087e-21
-2.91416e-20
-8.9364e-20
-2.73392e-19
-7.96213e-19
-2.41669e-18
-7.11432e-18
-2.09134e-17
-6.07745e-17
-1.68857e-16
-4.60055e-16
-1.19506e-15
-2.92908e-15
-6.15358e-15
-5.16778e-15
7.84614e-14
9.31895e-13
7.64902e-12
5.32813e-11
3.26765e-10
1.82264e-09
7.86834e-09
3.57041e-08
1.47323e-07
5.33923e-07
1.64974e-06
4.66374e-06
1.13343e-05
2.32625e-05
3.8712e-05
4.72453e-05
3.22592e-05
5.1877e-06
-1.22976e-05
-3.2981e-05
-3.38382e-05
-1.16976e-05
-2.82868e-06
-7.6258e-07
-2.25141e-07
-7.21776e-08
-2.47684e-08
-9.03681e-09
-3.48674e-09
-1.4137e-09
-6.00788e-10
-2.66801e-10
-1.23688e-10
-6.02366e-11
-3.21124e-11
-2.05207e-11
-1.77512e-11
-2.10742e-11
-3.06039e-11
-4.91184e-11
-8.29337e-11
-1.45031e-10
-2.62047e-10
-4.90703e-10
-9.56844e-10
-1.99038e-09
-4.27932e-09
-9.80973e-09
-2.41163e-08
-6.41275e-08
-1.81593e-07
2.94318e-07
1.10631e-07
1.02994e-08
-3.25059e-36
-1.65451e-35
-5.59595e-35
-1.7936e-34
-5.65057e-34
-1.74494e-33
-5.26487e-33
-1.57298e-32
-4.49248e-32
-1.27727e-31
-3.66105e-31
-1.06485e-30
-3.14457e-30
-9.45007e-30
-2.8954e-29
-9.03529e-29
-2.85907e-28
-9.19113e-28
-2.98781e-27
-9.76105e-27
-3.20588e-26
-1.06188e-25
-3.5014e-25
-1.15287e-24
-3.79914e-24
-1.239e-23
-4.02417e-23
-1.30002e-22
-4.15651e-22
-1.31123e-21
-4.17705e-21
-1.35028e-20
-4.20178e-20
-1.27161e-19
-3.82491e-19
-1.15339e-18
-3.37712e-18
-1.00315e-17
-2.83731e-17
-8.05163e-17
-2.2385e-16
-5.9729e-16
-1.54614e-15
-3.68259e-15
-7.23605e-15
9.56829e-16
1.67389e-13
1.68014e-12
1.30518e-11
8.90444e-11
4.64021e-10
2.07768e-09
1.00887e-08
4.38116e-08
1.75945e-07
6.37057e-07
1.86674e-06
5.07271e-06
1.19991e-05
2.39092e-05
3.92248e-05
4.7605e-05
3.28724e-05
5.75325e-06
-1.1688e-05
-3.2255e-05
-3.49254e-05
-1.26583e-05
-3.03977e-06
-8.18383e-07
-2.39685e-07
-7.63604e-08
-2.61302e-08
-9.50146e-09
-3.64721e-09
-1.47173e-09
-6.23076e-10
-2.7576e-10
-1.27462e-10
-6.19073e-11
-3.28988e-11
-2.09795e-11
-1.81293e-11
-2.15049e-11
-3.12224e-11
-5.01385e-11
-8.47335e-11
-1.4836e-10
-2.68632e-10
-5.03802e-10
-9.84221e-10
-2.05113e-09
-4.42063e-09
-1.01589e-08
-2.50493e-08
-6.68048e-08
-1.85527e-07
3.09811e-07
1.06154e-07
9.96336e-09
-1.77849e-36
-9.11828e-36
-3.00861e-35
-8.92917e-35
-2.56413e-34
-7.25056e-34
-2.03643e-33
-5.78479e-33
-1.70468e-32
-5.31571e-32
-1.71698e-31
-5.71224e-31
-1.94174e-30
-6.67252e-30
-2.30735e-29
-8.00524e-29
-2.78355e-28
-9.69226e-28
-3.36887e-27
-1.16454e-26
-4.0121e-26
-1.37188e-25
-4.65344e-25
-1.56216e-24
-5.1837e-24
-1.70343e-23
-5.56642e-23
-1.82799e-22
-5.83264e-22
-1.83299e-21
-5.95966e-21
-1.8458e-20
-5.59688e-20
-1.71132e-19
-5.19665e-19
-1.53728e-18
-4.4544e-18
-1.28103e-17
-3.661e-17
-1.00964e-16
-2.76896e-16
-7.12106e-16
-1.88378e-15
-4.36407e-15
-7.7702e-15
9.42532e-15
2.66986e-13
2.45616e-12
1.77013e-11
1.15936e-10
5.91118e-10
2.68029e-09
1.28149e-08
5.65544e-08
2.12501e-07
6.9393e-07
1.97724e-06
5.29266e-06
1.23574e-05
2.44457e-05
3.97459e-05
4.79866e-05
3.33439e-05
6.2337e-06
-1.12214e-05
-3.16319e-05
-3.5709e-05
-1.36278e-05
-3.26347e-06
-8.71522e-07
-2.53181e-07
-8.03881e-08
-2.74208e-08
-9.95333e-09
-3.81279e-09
-1.53352e-09
-6.47349e-10
-2.85705e-10
-1.31749e-10
-6.38673e-11
-3.39101e-11
-2.15874e-11
-1.86274e-11
-2.20895e-11
-3.20725e-11
-5.15165e-11
-8.71118e-11
-1.52676e-10
-2.76595e-10
-5.19934e-10
-1.01681e-09
-2.12001e-09
-4.57473e-09
-1.05324e-08
-2.60163e-08
-6.95605e-08
-1.8553e-07
3.16749e-07
1.0125e-07
9.60101e-09
-9.10607e-37
-4.70148e-36
-1.62998e-35
-5.15632e-35
-1.6002e-34
-5.01197e-34
-1.60306e-33
-5.47314e-33
-1.86876e-32
-6.43984e-32
-2.28272e-31
-8.03324e-31
-2.88389e-30
-1.01588e-29
-3.57369e-29
-1.25211e-28
-4.36632e-28
-1.51345e-27
-5.20801e-27
-1.78091e-26
-6.05204e-26
-2.04224e-25
-6.83616e-25
-2.2655e-24
-7.57166e-24
-2.47003e-23
-7.99456e-23
-2.56432e-22
-8.00493e-22
-2.58153e-21
-8.01089e-21
-2.46946e-20
-7.4909e-20
-2.26499e-19
-6.7879e-19
-1.98635e-18
-5.6903e-18
-1.63507e-17
-4.5965e-17
-1.26293e-16
-3.42655e-16
-8.81999e-16
-2.27456e-15
-5.12864e-15
-8.06975e-15
2.14166e-14
3.88849e-13
3.33542e-12
2.42483e-11
1.32458e-10
6.62833e-10
3.52351e-09
1.67023e-08
6.90922e-08
2.50671e-07
7.36196e-07
2.09464e-06
5.53058e-06
1.27825e-05
2.49201e-05
4.01722e-05
4.83331e-05
3.38588e-05
6.66768e-06
-1.08331e-05
-3.10995e-05
-3.64221e-05
-1.45111e-05
-3.48298e-06
-9.25142e-07
-2.67644e-07
-8.47428e-08
-2.87774e-08
-1.04003e-08
-3.98323e-09
-1.58113e-09
-6.67961e-10
-2.94944e-10
-1.36047e-10
-6.59462e-11
-3.4973e-11
-2.22253e-11
-1.91353e-11
-2.275e-11
-3.29728e-11
-5.29096e-11
-8.93978e-11
-1.56549e-10
-2.83427e-10
-5.38501e-10
-1.05178e-09
-2.19166e-09
-4.74095e-09
-1.09419e-08
-2.71035e-08
-7.26037e-08
-1.80775e-07
3.19061e-07
9.66113e-08
9.24177e-09
-1.02513e-36
-5.40647e-36
-1.9679e-35
-6.63885e-35
-2.20796e-34
-7.37795e-34
-2.48959e-33
-8.47091e-33
-2.88167e-32
-1.01465e-31
-3.51851e-31
-1.22975e-30
-4.35517e-30
-1.51497e-29
-5.3677e-29
-1.85897e-28
-6.39753e-28
-2.2386e-27
-7.66909e-27
-2.60918e-26
-8.81046e-26
-2.94522e-25
-9.75945e-25
-3.20775e-24
-1.04686e-23
-3.38146e-23
-1.08168e-22
-3.4882e-22
-1.09598e-21
-3.40638e-21
-1.05048e-20
-3.29232e-20
-9.86562e-20
-2.95601e-19
-8.69058e-19
-2.53253e-18
-7.15012e-18
-1.97802e-17
-5.58442e-17
-1.53454e-16
-4.07695e-16
-1.05692e-15
-2.59138e-15
-5.83608e-15
-7.9246e-15
3.60659e-14
5.2123e-13
4.46403e-12
2.65188e-11
1.4311e-10
8.23407e-10
4.26231e-09
2.02476e-08
8.49517e-08
2.67652e-07
7.83042e-07
2.211e-06
5.74054e-06
1.3082e-05
2.53409e-05
4.05817e-05
4.86558e-05
3.42227e-05
6.99126e-06
-1.05463e-05
-3.07154e-05
-3.71022e-05
-1.52782e-05
-3.66819e-06
-9.70846e-07
-2.79877e-07
-8.8296e-08
-2.99208e-08
-1.08093e-08
-4.13803e-09
-1.63765e-09
-6.9018e-10
-3.04404e-10
-1.40224e-10
-6.78704e-11
-3.59764e-11
-2.28707e-11
-1.9712e-11
-2.3439e-11
-3.39765e-11
-5.45312e-11
-9.2182e-11
-1.61557e-10
-2.92869e-10
-5.56957e-10
-1.08979e-09
-2.27252e-09
-4.9293e-09
-1.14084e-08
-2.83437e-08
-7.61247e-08
-1.73103e-07
3.19102e-07
9.31121e-08
8.97533e-09
-1.66414e-36
-9.14822e-36
-3.41262e-35
-1.1864e-34
-4.056e-34
-1.38271e-33
-4.71533e-33
-1.61056e-32
-5.50461e-32
-1.88484e-31
-6.43418e-31
-2.1811e-30
-7.58682e-30
-2.58259e-29
-8.75922e-29
-3.00963e-28
-1.019e-27
-3.4441e-27
-1.16439e-26
-3.87033e-26
-1.30639e-25
-4.2842e-25
-1.39259e-24
-4.48585e-24
-1.44833e-23
-4.69862e-23
-1.48238e-22
-4.60801e-22
-1.45726e-21
-4.45912e-21
-1.35549e-20
-4.22104e-20
-1.25066e-19
-3.67828e-19
-1.06501e-18
-3.06142e-18
-8.57679e-18
-2.34473e-17
-6.5989e-17
-1.86564e-16
-4.83705e-16
-1.21738e-15
-2.9765e-15
-6.47384e-15
-7.40679e-15
5.29124e-14
6.97438e-13
4.89701e-12
2.93596e-11
1.7445e-10
9.84631e-10
5.03423e-09
2.29526e-08
9.42252e-08
2.92694e-07
8.36996e-07
2.30801e-06
5.95034e-06
1.33782e-05
2.56948e-05
4.09282e-05
4.89513e-05
3.46207e-05
7.30961e-06
-1.03273e-05
-3.04816e-05
-3.75258e-05
-1.58953e-05
-3.83585e-06
-1.01141e-06
-2.90331e-07
-9.1385e-08
-3.091e-08
-1.11413e-08
-4.25784e-09
-1.68363e-09
-7.08856e-10
-3.12309e-10
-1.43765e-10
-6.95825e-11
-3.68909e-11
-2.34832e-11
-2.02775e-11
-2.41458e-11
-3.50415e-11
-5.62821e-11
-9.52171e-11
-1.67042e-10
-3.03193e-10
-5.76893e-10
-1.13109e-09
-2.3596e-09
-5.13175e-09
-1.19074e-08
-2.96617e-08
-7.99014e-08
-1.64966e-07
3.18928e-07
9.10032e-08
8.81562e-09
-2.65585e-36
-1.41391e-35
-5.35233e-35
-1.84907e-34
-6.23618e-34
-2.14916e-33
-7.26823e-33
-2.46859e-32
-8.3949e-32
-2.85233e-31
-9.69084e-31
-3.29076e-30
-1.11561e-29
-3.77191e-29
-1.27514e-28
-4.31373e-28
-1.45867e-27
-4.87291e-27
-1.62134e-26
-5.42849e-26
-1.78683e-25
-5.83531e-25
-1.89082e-24
-6.07276e-24
-1.93033e-23
-6.06742e-23
-1.90737e-22
-5.80777e-22
-1.83013e-21
-5.65546e-21
-1.70685e-20
-5.11617e-20
-1.51717e-19
-4.4588e-19
-1.2748e-18
-3.66054e-18
-1.04584e-17
-2.83618e-17
-7.9752e-17
-2.1475e-16
-5.57852e-16
-1.41367e-15
-3.39822e-15
-7.03489e-15
-6.6781e-15
6.86233e-14
7.76929e-13
5.00078e-12
3.38711e-11
2.04203e-10
1.11484e-09
5.57954e-09
2.49951e-08
1.00953e-07
3.10286e-07
8.8001e-07
2.39025e-06
6.09268e-06
1.36058e-05
2.59705e-05
4.11848e-05
4.92172e-05
3.50403e-05
7.63674e-06
-1.01023e-05
-3.02777e-05
-3.79832e-05
-1.64877e-05
-3.98881e-06
-1.04918e-06
-3.00349e-07
-9.43803e-08
-3.18783e-08
-1.14763e-08
-4.38118e-09
-1.72948e-09
-7.27958e-10
-3.20489e-10
-1.47459e-10
-7.13444e-11
-3.78321e-11
-2.41068e-11
-2.0851e-11
-2.48603e-11
-3.61167e-11
-5.80531e-11
-9.82909e-11
-1.72597e-10
-3.13636e-10
-5.97087e-10
-1.17278e-09
-2.44749e-09
-5.33508e-09
-1.24065e-08
-3.09756e-08
-8.36337e-08
-1.57818e-07
3.19546e-07
8.99062e-08
8.74093e-09
-3.81067e-36
-2.04392e-35
-7.67083e-35
-2.67514e-34
-9.15188e-34
-3.11471e-33
-1.05801e-32
-3.59047e-32
-1.21726e-31
-4.12161e-31
-1.39254e-30
-4.70063e-30
-1.58687e-29
-5.34915e-29
-1.79192e-28
-5.99554e-28
-2.00308e-27
-6.65017e-27
-2.19777e-26
-7.2335e-26
-2.3689e-25
-7.67959e-25
-2.46933e-24
-7.87152e-24
-2.48952e-23
-7.81693e-23
-2.43041e-22
-7.42874e-22
-2.23437e-21
-6.72706e-21
-2.05516e-20
-6.23054e-20
-1.83217e-19
-5.31482e-19
-1.50425e-18
-4.25877e-18
-1.2027e-17
-3.22949e-17
-9.03145e-17
-2.4342e-16
-6.32243e-16
-1.56988e-15
-3.76934e-15
-7.5821e-15
-5.0539e-15
9.43052e-14
8.64059e-13
5.97612e-12
3.96309e-11
2.34954e-10
1.27439e-09
6.19163e-09
2.71278e-08
1.07597e-07
3.26592e-07
9.15068e-07
2.45924e-06
6.21374e-06
1.37766e-05
2.61624e-05
4.13674e-05
4.94626e-05
3.55365e-05
7.99927e-06
-9.83743e-06
-2.99732e-05
-3.84939e-05
-1.71429e-05
-4.15919e-06
-1.09129e-06
-3.11606e-07
-9.76898e-08
-3.29585e-08
-1.18516e-08
-4.51975e-09
-1.78126e-09
-7.48889e-10
-3.29458e-10
-1.51503e-10
-7.32451e-11
-3.88325e-11
-2.47502e-11
-2.1422e-11
-2.55559e-11
-3.71513e-11
-5.97493e-11
-1.01225e-10
-1.7788e-10
-3.23525e-10
-6.16198e-10
-1.21194e-09
-2.53002e-09
-5.52435e-09
-1.28677e-08
-3.2181e-08
-8.70277e-08
-1.52607e-07
3.21258e-07
8.96024e-08
8.73339e-09
-4.99805e-36
-2.69211e-35
-1.01494e-34
-3.54489e-34
-1.21471e-33
-4.13383e-33
-1.40149e-32
-4.74397e-32
-1.60356e-31
-5.4436e-31
-1.83328e-30
-6.15558e-30
-2.06227e-29
-6.93935e-29
-2.31161e-28
-7.68078e-28
-2.54838e-27
-8.40924e-27
-2.75147e-26
-9.13575e-26
-2.97205e-25
-9.45097e-25
-3.07799e-24
-9.70098e-24
-3.05331e-23
-9.62393e-23
-2.98216e-22
-9.156e-22
-2.77644e-21
-8.31832e-21
-2.45058e-20
-7.33804e-20
-2.14218e-19
-6.21563e-19
-1.76506e-18
-4.94952e-18
-1.37198e-17
-3.65004e-17
-1.01459e-16
-2.72336e-16
-6.96974e-16
-1.75226e-15
-4.12147e-15
-8.11082e-15
-4.30291e-15
8.88145e-14
9.56835e-13
7.10692e-12
4.5844e-11
2.68879e-10
1.41357e-09
6.7233e-09
2.89594e-08
1.13196e-07
3.39201e-07
9.41671e-07
2.51121e-06
6.3005e-06
1.3891e-05
2.627e-05
4.14721e-05
4.97266e-05
3.62069e-05
8.58123e-06
-9.45638e-06
-2.96323e-05
-3.90191e-05
-1.78964e-05
-4.36791e-06
-1.14115e-06
-3.25524e-07
-1.01891e-07
-3.42763e-08
-1.22963e-08
-4.67873e-09
-1.83941e-09
-7.7216e-10
-3.39346e-10
-1.55965e-10
-7.53157e-11
-3.99031e-11
-2.54132e-11
-2.19811e-11
-2.62128e-11
-3.81089e-11
-6.13055e-11
-1.03902e-10
-1.82673e-10
-3.32439e-10
-6.33405e-10
-1.24689e-09
-2.60365e-09
-5.69159e-09
-1.32719e-08
-3.32304e-08
-8.99645e-08
-1.49563e-07
3.24146e-07
8.99295e-08
8.77954e-09
-6.10418e-36
-3.39314e-35
-1.26484e-34
-4.38902e-34
-1.52274e-33
-5.1754e-33
-1.7613e-32
-5.96814e-32
-2.01665e-31
-6.7941e-31
-2.28545e-30
-7.70795e-30
-2.57548e-29
-8.59758e-29
-2.86732e-28
-9.3782e-28
-3.19823e-27
-1.0474e-26
-3.42609e-26
-1.11283e-25
-3.56567e-25
-1.16385e-24
-3.69959e-24
-1.1692e-23
-3.66256e-23
-1.13974e-22
-3.52144e-22
-1.07305e-21
-3.2987e-21
-9.93128e-21
-2.9449e-20
-8.58491e-20
-2.47281e-19
-7.06138e-19
-1.98465e-18
-5.51411e-18
-1.50144e-17
-4.01827e-17
-1.11966e-16
-2.96705e-16
-7.52752e-16
-1.87457e-15
-4.37995e-15
-8.27022e-15
-3.79613e-15
1.13842e-13
1.13319e-12
8.24779e-12
5.28432e-11
3.01922e-10
1.55764e-09
7.27432e-09
3.07067e-08
1.16974e-07
3.48308e-07
9.63397e-07
2.5487e-06
6.35495e-06
1.39445e-05
2.62998e-05
4.14967e-05
4.99177e-05
3.69299e-05
9.18399e-06
-9.01982e-06
-2.91426e-05
-3.95788e-05
-1.87456e-05
-4.59543e-06
-1.19751e-06
-3.40601e-07
-1.06183e-07
-3.56283e-08
-1.2756e-08
-4.8523e-09
-1.9047e-09
-7.98838e-10
-3.50719e-10
-1.60974e-10
-7.75799e-11
-4.10425e-11
-2.60889e-11
-2.25192e-11
-2.68166e-11
-3.89646e-11
-6.26859e-11
-1.0626e-10
-1.86868e-10
-3.40186e-10
-6.48343e-10
-1.27691e-09
-2.66671e-09
-5.83322e-09
-1.36108e-08
-3.41013e-08
-9.23798e-08
-1.48615e-07
3.28059e-07
9.07404e-08
8.86683e-09
-7.36828e-36
-4.0513e-35
-1.51875e-34
-5.3062e-34
-1.81858e-33
-6.18924e-33
-2.10019e-32
-7.1093e-32
-2.3965e-31
-8.06481e-31
-2.75542e-30
-9.23304e-30
-3.08286e-29
-1.03317e-28
-3.44663e-28
-1.14871e-27
-3.79093e-27
-1.24181e-26
-4.03474e-26
-1.31318e-25
-4.167e-25
-1.35999e-24
-4.30654e-24
-1.35642e-23
-4.18093e-23
-1.31675e-22
-4.01896e-22
-1.22495e-21
-3.74583e-21
-1.12705e-20
-3.33655e-20
-9.70951e-20
-2.77463e-19
-7.96204e-19
-2.21252e-18
-6.09744e-18
-1.66196e-17
-4.38388e-17
-1.22999e-16
-3.19595e-16
-8.07096e-16
-1.97725e-15
-4.50016e-15
-8.38242e-15
-1.54055e-15
1.40072e-13
1.3381e-12
9.64086e-12
6.05681e-11
3.42452e-10
1.75343e-09
8.14382e-09
3.45453e-08
1.18424e-07
3.55447e-07
9.79391e-07
2.57222e-06
6.38042e-06
1.39484e-05
2.62495e-05
4.14355e-05
5.01042e-05
3.76265e-05
9.80711e-06
-8.57667e-06
-2.86262e-05
-3.99725e-05
-1.96051e-05
-4.83368e-06
-1.2539e-06
-3.5584e-07
-1.10624e-07
-3.70781e-08
-1.32613e-08
-5.0348e-09
-1.97094e-09
-8.25611e-10
-3.6194e-10
-1.65994e-10
-7.986e-11
-4.21863e-11
-2.67536e-11
-2.3029e-11
-2.73701e-11
-3.97327e-11
-6.38867e-11
-1.08287e-10
-1.90453e-10
-3.46781e-10
-6.61053e-10
-1.30213e-09
-2.71953e-09
-5.95053e-09
-1.38892e-08
-3.48095e-08
-9.43264e-08
-1.49385e-07
3.32742e-07
9.18979e-08
8.98342e-09
-8.60533e-36
-4.67479e-35
-1.75523e-34
-6.12698e-34
-2.09703e-33
-7.13085e-33
-2.4206e-32
-8.21674e-32
-2.77556e-31
-9.44573e-31
-3.18957e-30
-1.07186e-29
-3.58202e-29
-1.20038e-28
-4.01677e-28
-1.32861e-27
-4.37387e-27
-1.43347e-26
-4.66705e-26
-1.50981e-25
-4.8483e-25
-1.54148e-24
-4.91152e-24
-1.54057e-23
-4.79316e-23
-1.47675e-22
-4.5269e-22
-1.35389e-21
-4.16854e-21
-1.24062e-20
-3.60672e-20
-1.06378e-19
-3.07921e-19
-8.73584e-19
-2.46299e-18
-6.73245e-18
-1.80293e-17
-4.7598e-17
-1.29207e-16
-3.44693e-16
-8.60273e-16
-2.08983e-15
-4.71081e-15
-8.67729e-15
7.11964e-16
1.65566e-13
1.52843e-12
1.08578e-11
6.73936e-11
3.76696e-10
1.9091e-09
8.78431e-09
3.67106e-08
1.18167e-07
3.61622e-07
9.92847e-07
2.58712e-06
6.38609e-06
1.39201e-05
2.61708e-05
4.13419e-05
5.02353e-05
3.84088e-05
1.04795e-05
-8.11898e-06
-2.80969e-05
-4.03071e-05
-2.04393e-05
-5.08047e-06
-1.31077e-06
-3.73192e-07
-1.15685e-07
-3.86559e-08
-1.37866e-08
-5.22081e-09
-2.03765e-09
-8.51974e-10
-3.73209e-10
-1.70997e-10
-8.21108e-11
-4.32961e-11
-2.73848e-11
-2.35004e-11
-2.78728e-11
-4.04212e-11
-6.49707e-11
-1.10097e-10
-1.93592e-10
-3.52413e-10
-6.71906e-10
-1.32357e-09
-2.76452e-09
-6.04843e-09
-1.4116e-08
-3.53777e-08
-9.58661e-08
-1.51413e-07
3.37905e-07
9.32782e-08
9.11866e-09
-9.37278e-36
-5.23382e-35
-1.97434e-34
-6.88082e-34
-2.35527e-33
-8.01742e-33
-2.72531e-32
-9.25152e-32
-3.14718e-31
-1.06747e-30
-3.60567e-30
-1.21221e-29
-4.04506e-29
-1.36191e-28
-4.5099e-28
-1.4859e-27
-4.82582e-27
-1.61627e-26
-5.24024e-26
-1.69752e-25
-5.44757e-25
-1.73583e-24
-5.49415e-24
-1.72186e-23
-5.34196e-23
-1.63768e-22
-4.9535e-22
-1.48729e-21
-4.46067e-21
-1.37297e-20
-3.99452e-20
-1.17004e-19
-3.34404e-19
-9.54905e-19
-2.64599e-18
-7.19211e-18
-1.9136e-17
-5.03776e-17
-1.36326e-16
-3.65615e-16
-9.15541e-16
-2.22968e-15
-4.98096e-15
-8.92352e-15
2.74278e-15
1.8801e-13
1.6897e-12
1.17512e-11
7.18646e-11
3.96384e-10
1.98362e-09
9.01888e-09
3.72233e-08
1.18106e-07
3.68601e-07
1.00309e-06
2.59329e-06
6.37419e-06
1.38602e-05
2.60413e-05
4.1221e-05
5.03373e-05
3.90998e-05
1.11534e-05
-7.64453e-06
-2.75125e-05
-4.05692e-05
-2.12866e-05
-5.34454e-06
-1.37296e-06
-3.90005e-07
-1.20449e-07
-4.01504e-08
-1.4292e-08
-5.40711e-09
-2.10633e-09
-8.79612e-10
-3.84684e-10
-1.76014e-10
-8.43466e-11
-4.44117e-11
-2.80132e-11
-2.39513e-11
-2.83264e-11
-4.10246e-11
-6.59057e-11
-1.11654e-10
-1.96299e-10
-3.57297e-10
-6.81251e-10
-1.34154e-09
-2.80205e-09
-6.13021e-09
-1.43075e-08
-3.58584e-08
-9.71738e-08
-1.54524e-07
3.43576e-07
9.4873e-08
9.27211e-09
-9.86373e-36
-5.89417e-35
-2.20152e-34
-7.67376e-34
-2.63122e-33
-8.98498e-33
-3.06317e-32
-1.03942e-31
-3.51754e-31
-1.18768e-30
-3.99614e-30
-1.33447e-29
-4.53685e-29
-1.51191e-28
-5.0095e-28
-1.63035e-27
-5.45898e-27
-1.77758e-26
-5.76904e-26
-1.85475e-25
-5.90643e-25
-1.86747e-24
-5.97536e-24
-1.86456e-23
-5.77501e-23
-1.76482e-22
-5.4372e-22
-1.63972e-21
-4.89571e-21
-1.45462e-20
-4.27291e-20
-1.25263e-19
-3.57847e-19
-1.00616e-18
-2.79181e-18
-7.57497e-18
-2.02934e-17
-5.27612e-17
-1.45041e-16
-3.85193e-16
-9.54312e-16
-2.30133e-15
-5.19426e-15
-9.07008e-15
4.55744e-15
2.06731e-13
1.80829e-12
1.24085e-11
7.50716e-11
4.09936e-10
2.03182e-09
9.16551e-09
3.74621e-08
1.17939e-07
3.73734e-07
1.01055e-06
2.59418e-06
6.35459e-06
1.37971e-05
2.59044e-05
4.10569e-05
5.04068e-05
3.97305e-05
1.18007e-05
-7.20053e-06
-2.69618e-05
-4.08089e-05
-2.20895e-05
-5.59567e-06
-1.43236e-06
-4.05813e-07
-1.25096e-07
-4.16032e-08
-1.47765e-08
-5.58173e-09
-2.17157e-09
-9.05648e-10
-3.95566e-10
-1.80883e-10
-8.65336e-11
-4.54789e-11
-2.86003e-11
-2.43607e-11
-2.87316e-11
-4.15488e-11
-6.67081e-11
-1.12982e-10
-1.986e-10
-3.61428e-10
-6.8922e-10
-1.35693e-09
-2.83443e-09
-6.19921e-09
-1.44644e-08
-3.62409e-08
-9.8183e-08
-1.58062e-07
3.49177e-07
9.64862e-08
9.42572e-09
-1.18387e-35
-6.37308e-35
-2.39604e-34
-8.37524e-34
-2.86892e-33
-9.7741e-33
-3.34835e-32
-1.13248e-31
-3.81032e-31
-1.29115e-30
-4.37989e-30
-1.46759e-29
-4.90424e-29
-1.63493e-28
-5.43664e-28
-1.78727e-27
-5.80855e-27
-1.92608e-26
-6.21744e-26
-2.00217e-25
-6.43275e-25
-2.04289e-24
-6.44416e-24
-2.01421e-23
-6.22429e-23
-1.8977e-22
-5.77962e-22
-1.73077e-21
-5.15116e-21
-1.55032e-20
-4.55268e-20
-1.33022e-19
-3.76067e-19
-1.05536e-18
-2.8797e-18
-7.74397e-18
-2.12702e-17
-5.51091e-17
-1.50497e-16
-3.89954e-16
-1.01207e-15
-2.42087e-15
-5.41247e-15
-9.21778e-15
6.01275e-15
2.20815e-13
1.90118e-12
1.29268e-11
7.76086e-11
4.20748e-10
2.07021e-09
9.25938e-09
3.7596e-08
1.17762e-07
3.77041e-07
1.01467e-06
2.58875e-06
6.32422e-06
1.37119e-05
2.57599e-05
4.08979e-05
5.04622e-05
4.0359e-05
1.24183e-05
-6.78171e-06
-2.64292e-05
-4.09455e-05
-2.28576e-05
-5.84773e-06
-1.49076e-06
-4.2119e-07
-1.2951e-07
-4.29765e-08
-1.52423e-08
-5.74776e-09
-2.23316e-09
-9.30112e-10
-4.05867e-10
-1.854e-10
-8.85345e-11
-4.64489e-11
-2.91259e-11
-2.47176e-11
-2.90739e-11
-4.19853e-11
-6.737e-11
-1.1407e-10
-2.0047e-10
-3.64755e-10
-6.95613e-10
-1.3691e-09
-2.86004e-09
-6.25323e-09
-1.45865e-08
-3.65373e-08
-9.89631e-08
-1.61617e-07
3.54321e-07
9.80014e-08
9.56928e-09
-1.27008e-35
-6.8443e-35
-2.57462e-34
-9.00355e-34
-3.09569e-33
-1.055e-32
-3.58598e-32
-1.21614e-31
-4.11047e-31
-1.38194e-30
-4.64204e-30
-1.56438e-29
-5.22958e-29
-1.74429e-28
-5.80158e-28
-1.91442e-27
-6.23103e-27
-2.05089e-26
-6.604e-26
-2.11969e-25
-6.82575e-25
-2.165e-24
-6.8283e-24
-2.13278e-23
-6.57085e-23
-1.9983e-22
-6.09463e-22
-1.81917e-21
-5.35579e-21
-1.61298e-20
-4.68047e-20
-1.3636e-19
-3.90446e-19
-1.09303e-18
-3.01415e-18
-8.22619e-18
-2.19958e-17
-5.91196e-17
-1.58409e-16
-4.16772e-16
-1.04118e-15
-2.48395e-15
-5.53475e-15
-9.26586e-15
7.15292e-15
2.3193e-13
1.97215e-12
1.33098e-11
7.93975e-11
4.27854e-10
2.09444e-09
9.32133e-09
3.76759e-08
1.17545e-07
3.79173e-07
1.01672e-06
2.58067e-06
6.28911e-06
1.3626e-05
2.56038e-05
4.07302e-05
5.04808e-05
4.08578e-05
1.29299e-05
-6.42766e-06
-2.59686e-05
-4.10272e-05
-2.3499e-05
-6.0657e-06
-1.54281e-06
-4.34866e-07
-1.33434e-07
-4.42085e-08
-1.56537e-08
-5.89437e-09
-2.28752e-09
-9.51637e-10
-4.14835e-10
-1.89329e-10
-9.02718e-11
-4.72859e-11
-2.95715e-11
-2.5016e-11
-2.93543e-11
-4.23383e-11
-6.79018e-11
-1.14941e-10
-2.01964e-10
-3.67408e-10
-7.00724e-10
-1.3788e-09
-2.88038e-09
-6.2958e-09
-1.46818e-08
-3.67663e-08
-9.95606e-08
-1.64853e-07
3.5881e-07
9.93382e-08
9.69529e-09
-1.26647e-35
-7.17232e-35
-2.70119e-34
-9.44273e-34
-3.23917e-33
-1.10572e-32
-3.76874e-32
-1.28108e-31
-4.32829e-31
-1.45315e-30
-4.91478e-30
-1.64418e-29
-5.49025e-29
-1.82939e-28
-6.0721e-28
-2.00495e-27
-6.63745e-27
-2.16103e-26
-6.9791e-26
-2.23841e-25
-7.19697e-25
-2.26326e-24
-7.17732e-24
-2.22957e-23
-6.87417e-23
-2.09855e-22
-6.33642e-22
-1.91721e-21
-5.6526e-21
-1.66619e-20
-4.87199e-20
-1.43312e-19
-4.05475e-19
-1.1332e-18
-3.12047e-18
-8.54408e-18
-2.30092e-17
-6.08791e-17
-1.62137e-16
-4.19317e-16
-1.05463e-15
-2.52771e-15
-5.50867e-15
-9.35689e-15
8.12619e-15
2.40548e-13
2.0269e-12
1.3605e-11
8.07768e-11
4.33334e-10
2.11254e-09
9.36501e-09
3.77216e-08
1.17367e-07
3.80405e-07
1.01731e-06
2.57235e-06
6.26035e-06
1.35594e-05
2.54891e-05
4.06073e-05
5.04921e-05
4.1262e-05
1.33914e-05
-6.12759e-06
-2.55886e-05
-4.10789e-05
-2.4028e-05
-6.25288e-06
-1.58647e-06
-4.4617e-07
-1.36658e-07
-4.52008e-08
-1.59855e-08
-6.01254e-09
-2.3313e-09
-9.68952e-10
-4.22037e-10
-1.9248e-10
-9.16635e-11
-4.79561e-11
-2.99299e-11
-2.52505e-11
-2.95702e-11
-4.26062e-11
-6.83025e-11
-1.15595e-10
-2.03079e-10
-3.69378e-10
-7.04507e-10
-1.38592e-09
-2.89538e-09
-6.32704e-09
-1.47519e-08
-3.69352e-08
-1e-07
-1.67536e-07
3.62419e-07
1.00424e-07
9.79736e-09
-1.35725e-35
-7.34577e-35
-2.75762e-34
-9.77082e-34
-3.34492e-33
-1.14025e-32
-3.87882e-32
-1.31826e-31
-4.47079e-31
-1.50868e-30
-5.07379e-30
-1.70149e-29
-5.6952e-29
-1.90473e-28
-6.35447e-28
-2.09877e-27
-6.88809e-27
-2.24606e-26
-7.2715e-26
-2.3358e-25
-7.44318e-25
-2.35078e-24
-7.36343e-24
-2.28508e-23
-7.08407e-23
-2.16422e-22
-6.57123e-22
-1.96031e-21
-5.91008e-21
-1.72942e-20
-5.01679e-20
-1.43473e-19
-4.1423e-19
-1.15262e-18
-3.21888e-18
-8.8233e-18
-2.35548e-17
-6.10796e-17
-1.61845e-16
-4.29308e-16
-1.05243e-15
-2.52093e-15
-5.55027e-15
-9.3971e-15
8.8431e-15
2.46816e-13
2.06618e-12
1.38163e-11
8.17717e-11
4.37388e-10
2.12542e-09
9.39746e-09
3.77553e-08
1.17243e-07
3.81133e-07
1.01744e-06
2.56598e-06
6.23853e-06
1.35085e-05
2.54008e-05
4.05093e-05
5.04891e-05
4.15288e-05
1.36971e-05
-5.92533e-06
-2.53242e-05
-4.10974e-05
-2.43863e-05
-6.38147e-06
-1.61617e-06
-4.53925e-07
-1.3888e-07
-4.5898e-08
-1.62172e-08
-6.09492e-09
-2.36186e-09
-9.8104e-10
-4.27065e-10
-1.94681e-10
-9.26349e-11
-4.84226e-11
-3.0177e-11
-2.54118e-11
-2.97181e-11
-4.27889e-11
-6.85759e-11
-1.16041e-10
-2.03841e-10
-3.70725e-10
-7.07107e-10
-1.39081e-09
-2.90573e-09
-6.3485e-09
-1.47997e-08
-3.70489e-08
-1.00294e-07
-1.69465e-07
3.64975e-07
1.01198e-07
9.86989e-09
-1.37135e-35
-7.58389e-35
-2.83884e-34
-9.92106e-34
-3.40914e-33
-1.16758e-32
-3.9767e-32
-1.35161e-31
-4.58587e-31
-1.55168e-30
-5.22865e-30
-1.75517e-29
-5.8691e-29
-1.95609e-28
-6.50783e-28
-2.14721e-27
-7.03838e-27
-2.29368e-26
-7.39006e-26
-2.36206e-25
-7.52874e-25
-2.37463e-24
-7.52593e-24
-2.32184e-23
-7.23322e-23
-2.19767e-22
-6.66609e-22
-2.01682e-21
-5.99058e-21
-1.76259e-20
-5.11467e-20
-1.49916e-19
-4.20721e-19
-1.17082e-18
-3.26958e-18
-8.80446e-18
-2.38e-17
-6.17823e-17
-1.68771e-16
-4.37053e-16
-1.07775e-15
-2.55526e-15
-5.57039e-15
-9.43263e-15
9.23036e-15
2.5077e-13
2.09215e-12
1.3956e-11
8.24178e-11
4.39937e-10
2.13367e-09
9.41827e-09
3.77849e-08
1.17198e-07
3.81651e-07
1.01774e-06
2.56298e-06
6.22758e-06
1.34819e-05
2.53527e-05
4.04519e-05
5.04802e-05
4.16598e-05
1.38539e-05
-5.81826e-06
-2.51822e-05
-4.10961e-05
-2.4571e-05
-6.44956e-06
-1.63212e-06
-4.581e-07
-1.40063e-07
-4.62638e-08
-1.6339e-08
-6.13819e-09
-2.3779e-09
-9.8738e-10
-4.29699e-10
-1.95832e-10
-9.31431e-11
-4.86667e-11
-3.03064e-11
-2.5496e-11
-2.97946e-11
-4.28831e-11
-6.87164e-11
-1.1627e-10
-2.04233e-10
-3.71418e-10
-7.08447e-10
-1.39333e-09
-2.9111e-09
-6.35964e-09
-1.48244e-08
-3.71079e-08
-1.00447e-07
-1.70507e-07
3.66342e-07
1.01614e-07
9.9089e-09
-1.39696e-35
-7.66046e-35
-2.87728e-34
-1.00665e-33
-3.45456e-33
-1.17827e-32
-4.00774e-32
-1.36174e-31
-4.62271e-31
-1.57417e-30
-5.30391e-30
-1.78011e-29
-5.93341e-29
-1.93485e-28
-6.64755e-28
-2.17873e-27
-7.13155e-27
-2.32043e-26
-7.50641e-26
-2.41294e-25
-7.70281e-25
-2.43814e-24
-7.65098e-24
-2.37488e-23
-7.24883e-23
-2.24474e-22
-6.77289e-22
-2.0378e-21
-6.12733e-21
-1.81326e-20
-5.25808e-20
-1.51789e-19
-4.2673e-19
-1.21253e-18
-3.33246e-18
-8.94073e-18
-2.41896e-17
-6.28135e-17
-1.69376e-16
-4.32642e-16
-1.08863e-15
-2.57927e-15
-5.64931e-15
-9.43496e-15
9.48495e-15
2.53171e-13
2.10758e-12
1.40402e-11
8.28207e-11
4.41618e-10
2.13971e-09
9.43567e-09
3.78225e-08
1.17236e-07
3.82188e-07
1.0185e-06
2.5632e-06
6.22585e-06
1.34757e-05
2.53395e-05
4.04335e-05
5.04696e-05
4.16805e-05
1.38844e-05
-5.795e-06
-2.51492e-05
-4.10895e-05
-2.46027e-05
-6.46162e-06
-1.63486e-06
-4.58802e-07
-1.40259e-07
-4.63229e-08
-1.63582e-08
-6.14477e-09
-2.38027e-09
-9.88283e-10
-4.3006e-10
-1.95983e-10
-9.3207e-11
-4.86958e-11
-3.03208e-11
-2.55046e-11
-2.9802e-11
-4.28922e-11
-6.87305e-11
-1.16294e-10
-2.04276e-10
-3.71498e-10
-7.08605e-10
-1.39364e-09
-2.91179e-09
-6.36111e-09
-1.48278e-08
-3.71163e-08
-1.00469e-07
-1.70622e-07
3.66524e-07
1.01665e-07
9.91365e-09
-1.39e-35
-7.66663e-35
-2.89899e-34
-1.01377e-33
-3.48457e-33
-1.19106e-32
-4.05937e-32
-1.38002e-31
-4.67867e-31
-1.58124e-30
-5.32708e-30
-1.78881e-29
-5.97769e-29
-1.97631e-28
-6.66755e-28
-2.19172e-27
-7.16539e-27
-2.30206e-26
-7.59323e-26
-2.42652e-25
-7.77813e-25
-2.46203e-24
-7.73971e-24
-2.41342e-23
-7.4332e-23
-2.26431e-22
-6.8307e-22
-2.07117e-21
-6.16181e-21
-1.81727e-20
-5.30687e-20
-1.52264e-19
-4.3541e-19
-1.21104e-18
-3.35829e-18
-9.05352e-18
-2.42934e-17
-6.36309e-17
-1.70344e-16
-4.40648e-16
-1.09028e-15
-2.57826e-15
-5.68367e-15
-9.33858e-15
9.51064e-15
2.54203e-13
2.11388e-12
1.40769e-11
8.30178e-11
4.42581e-10
2.14397e-09
9.45269e-09
3.78836e-08
1.17408e-07
3.82897e-07
1.02023e-06
2.56844e-06
6.23778e-06
1.3498e-05
2.53729e-05
4.04646e-05
5.04568e-05
4.15622e-05
1.37594e-05
-5.87235e-06
-2.5244e-05
-4.10725e-05
-2.44551e-05
-6.40878e-06
-1.62251e-06
-4.5557e-07
-1.39335e-07
-4.60347e-08
-1.62619e-08
-6.11041e-09
-2.36752e-09
-9.83216e-10
-4.27941e-10
-1.95051e-10
-9.27924e-11
-4.84953e-11
-3.0214e-11
-2.5435e-11
-2.97394e-11
-4.28162e-11
-6.86184e-11
-1.16113e-10
-2.0397e-10
-3.70962e-10
-7.07581e-10
-1.39174e-09
-2.90777e-09
-6.35293e-09
-1.48099e-08
-3.70747e-08
-1.00365e-07
-1.69782e-07
3.65463e-07
1.01339e-07
9.88317e-09
-1.41496e-35
-7.60662e-35
-2.86146e-34
-1.0027e-33
-3.45248e-33
-1.18237e-32
-4.03439e-32
-1.37159e-31
-4.64499e-31
-1.56645e-30
-5.25885e-30
-1.75815e-29
-5.86288e-29
-1.95417e-28
-6.50443e-28
-2.14439e-27
-6.97368e-27
-2.2781e-26
-7.44848e-26
-2.38995e-25
-7.56589e-25
-2.4347e-24
-7.60661e-24
-2.39615e-23
-7.3539e-23
-2.23131e-22
-6.71074e-22
-2.04653e-21
-6.05938e-21
-1.78762e-20
-5.19757e-20
-1.48375e-19
-4.34619e-19
-1.20199e-18
-3.26631e-18
-8.75253e-18
-2.38752e-17
-6.08317e-17
-1.65731e-16
-4.38695e-16
-1.07339e-15
-2.57495e-15
-5.61432e-15
-9.39018e-15
9.47404e-15
2.53377e-13
2.10932e-12
1.40587e-11
8.29775e-11
4.42705e-10
2.14611e-09
9.46794e-09
3.79646e-08
1.17715e-07
3.83828e-07
1.02306e-06
2.57896e-06
6.26376e-06
1.35491e-05
2.5452e-05
4.0544e-05
5.04421e-05
4.13112e-05
1.34872e-05
-6.04561e-06
-2.54601e-05
-4.10421e-05
-2.41395e-05
-6.29608e-06
-1.59616e-06
-4.48664e-07
-1.37357e-07
-4.54198e-08
-1.60559e-08
-6.03674e-09
-2.34013e-09
-9.72336e-10
-4.23397e-10
-1.93055e-10
-9.19072e-11
-4.80685e-11
-2.99872e-11
-2.52888e-11
-2.96085e-11
-4.26578e-11
-6.83849e-11
-1.15736e-10
-2.03329e-10
-3.69837e-10
-7.05416e-10
-1.38771e-09
-2.89925e-09
-6.3355e-09
-1.47717e-08
-3.69849e-08
-1.00136e-07
-1.68012e-07
3.63219e-07
1.0065e-07
9.8187e-09
-1.39644e-35
-7.5045e-35
-2.82279e-34
-9.88256e-34
-3.39425e-33
-1.1588e-32
-3.94501e-32
-1.3398e-31
-4.53582e-31
-1.531e-30
-5.15207e-30
-1.72774e-29
-5.77158e-29
-1.92173e-28
-6.3662e-28
-2.08701e-27
-6.931e-27
-2.25153e-26
-7.28416e-26
-2.34189e-25
-7.49518e-25
-2.39329e-24
-7.52301e-24
-2.34102e-23
-7.2123e-23
-2.20058e-22
-6.64886e-22
-1.99258e-21
-6.0061e-21
-1.76769e-20
-5.15412e-20
-1.47362e-19
-4.23245e-19
-1.17955e-18
-3.26174e-18
-8.88938e-18
-2.37122e-17
-6.09138e-17
-1.64734e-16
-4.35921e-16
-1.07221e-15
-2.5289e-15
-5.58822e-15
-9.41631e-15
9.21005e-15
2.50901e-13
2.09517e-12
1.39929e-11
8.27404e-11
4.42188e-10
2.14704e-09
9.4854e-09
3.80811e-08
1.18197e-07
3.85101e-07
1.02729e-06
2.59556e-06
6.30577e-06
1.36331e-05
2.55835e-05
4.0676e-05
5.04195e-05
4.09055e-05
1.30589e-05
-6.31941e-06
-2.58008e-05
-4.09852e-05
-2.36492e-05
-6.12441e-06
-1.55597e-06
-4.38153e-07
-1.34344e-07
-4.44752e-08
-1.57404e-08
-5.92424e-09
-2.29842e-09
-9.55804e-10
-4.16506e-10
-1.90034e-10
-9.05705e-11
-4.74261e-11
-2.96482e-11
-2.50708e-11
-2.94134e-11
-4.24215e-11
-6.80365e-11
-1.15172e-10
-2.02373e-10
-3.68159e-10
-7.02196e-10
-1.3817e-09
-2.88659e-09
-6.30946e-09
-1.47144e-08
-3.68496e-08
-9.97902e-08
-1.65388e-07
3.59877e-07
9.96282e-08
9.72303e-09
-1.29682e-35
-7.27179e-35
-2.7288e-34
-9.58285e-34
-3.27929e-33
-1.11575e-32
-3.79948e-32
-1.29718e-31
-4.38915e-31
-1.4801e-30
-4.97404e-30
-1.66615e-29
-5.56907e-29
-1.86782e-28
-6.17121e-28
-2.02749e-27