/*--------------------------------*- C++ -*----------------------------------*\
  =========                 |
  \\      /  F ield         | OpenFOAM: The Open Source CFD Toolbox
   \\    /   O peration     | Website:  https://openfoam.org
    \\  /    A nd           | Version:  10
     \\/     M anipulation  |
\*---------------------------------------------------------------------------*/
FoamFile
{
    format      ascii;
    class       volScalarField;
    location    "1";
    object      RR.pC4H9;
}
// * * * * * * * * * * * * * * * * * * * * * * * * * * * * * * * * * * * * * //

dimensions      [1 -3 -1 0 0 0 0];

internalField   nonuniform List<scalar> 
4000
(
8.20161e-19
4.89836e-19
2.84488e-19
4.4943e-20
2.48087e-19
1.09002e-19
1.10049e-19
1.59073e-19
1.3894e-19
1.67921e-19
2.09125e-19
5.24998e-20
2.54077e-19
7.7401e-20
2.72236e-19
9.26978e-19
6.75556e-19
3.53478e-19
2.39516e-19
5.66367e-19
3.60039e-19
7.84319e-19
1.65489e-18
1.05869e-18
3.1098e-18
-3.69636e-19
3.67125e-18
4.10497e-18
1.10615e-17
2.21104e-17
7.62896e-17
2.08374e-16
6.65395e-16
2.1165e-15
6.6928e-15
2.06448e-14
6.42359e-14
1.99462e-13
6.23472e-13
1.93712e-12
5.77589e-12
1.70265e-11
4.84118e-11
1.34579e-10
3.62937e-10
9.96301e-10
2.69816e-09
6.77702e-09
1.51301e-08
2.86657e-08
4.4516e-08
5.57789e-08
5.57147e-08
3.99797e-08
6.70712e-09
-4.39374e-08
-1.5442e-07
-6.33625e-07
-3.02159e-06
-1.41561e-05
-5.7039e-05
-0.000157098
-0.000204798
-0.000231457
-0.00038971
-0.000519595
-0.000501167
-0.000223111
-0.000109799
-0.000930199
-0.00198095
0.000473775
0.00634571
0.00898981
0.00193247
-0.00537314
-0.00261477
-0.00112762
-0.000537015
-0.000291808
-0.000152065
-7.69541e-05
-3.96206e-05
-2.09105e-05
-1.1295e-05
-6.22714e-06
-3.46662e-06
-1.92963e-06
-1.06446e-06
-5.77829e-07
-3.08006e-07
-1.57181e-07
-6.85006e-08
-2.17755e-08
-1.36569e-08
-7.80221e-09
-3.85123e-09
-1.62107e-09
-4.89642e-10
-8.72431e-11
5.19208e-19
1.31378e-18
-1.52883e-19
1.04054e-18
1.31535e-18
5.94793e-19
8.71125e-19
2.29186e-19
1.34437e-19
6.70918e-19
3.01776e-20
1.18951e-19
4.96436e-19
6.64857e-21
2.32254e-19
1.28093e-18
1.36446e-18
1.38795e-18
2.77519e-18
3.06347e-18
2.15645e-18
1.05364e-18
2.39988e-18
1.8285e-18
5.76486e-18
3.82574e-18
2.94851e-18
6.20546e-18
8.71227e-18
3.24826e-17
9.05008e-17
2.88287e-16
9.33636e-16
2.9781e-15
9.24838e-15
2.90865e-14
8.95179e-14
2.81364e-13
8.46113e-13
2.5706e-12
7.70177e-12
2.2284e-11
6.3627e-11
1.74772e-10
4.91744e-10
1.3527e-09
3.57466e-09
8.63019e-09
1.84003e-08
3.31453e-08
4.76396e-08
5.62702e-08
5.41012e-08
3.58414e-08
9.0319e-10
-5.10316e-08
-1.62251e-07
-6.50788e-07
-3.04072e-06
-1.40153e-05
-5.58086e-05
-0.000152593
-0.000200262
-0.000223661
-0.000379633
-0.000513721
-0.000512918
-0.000253046
-0.000111481
-0.000843778
-0.0019987
0.000234941
0.00613355
0.00915442
0.00233693
-0.0054172
-0.00268031
-0.00115368
-0.000547715
-0.000296896
-0.000154256
-7.79122e-05
-4.00701e-05
-2.11193e-05
-1.13915e-05
-6.2711e-06
-3.48511e-06
-1.93601e-06
-1.06547e-06
-5.76695e-07
-3.06452e-07
-1.5564e-07
-6.60189e-08
-2.10684e-08
-1.39018e-08
-7.63095e-09
-3.74301e-09
-1.55806e-09
-4.61337e-10
-8.16415e-11
3.23905e-18
4.07632e-19
4.66404e-19
1.2783e-18
4.6329e-18
6.46928e-19
8.77334e-20
-4.48083e-19
2.19965e-18
5.19103e-19
1.46754e-18
9.87976e-19
6.92019e-19
1.24653e-18
5.12889e-19
1.51473e-18
3.0256e-19
6.00927e-19
2.03228e-18
1.2052e-18
3.28207e-18
-8.36123e-20
1.24841e-18
3.83794e-18
4.72498e-18
9.53515e-18
4.52994e-18
1.16798e-17
1.36285e-17
4.40954e-17
1.31853e-16
3.85225e-16
1.237e-15
3.91123e-15
1.24442e-14
3.84318e-14
1.17498e-13
3.58246e-13
1.09118e-12
3.22236e-12
9.52097e-12
2.65313e-11
7.82959e-11
2.13348e-10
6.05536e-10
1.63171e-09
4.27019e-09
1.00681e-08
2.04814e-08
3.55892e-08
4.94412e-08
5.68277e-08
5.21991e-08
3.01938e-08
-5.54816e-09
-5.44464e-08
-1.66745e-07
-6.63119e-07
-3.06754e-06
-1.39621e-05
-5.48991e-05
-0.000148648
-0.000194836
-0.000215808
-0.000369718
-0.00050761
-0.000523525
-0.000279111
-0.000106678
-0.000782547
-0.00198435
1.73938e-05
0.00591119
0.00927333
0.00275216
-0.0054597
-0.00275408
-0.00118292
-0.000559974
-0.000302845
-0.000156953
-7.91168e-05
-4.06326e-05
-2.13636e-05
-1.15039e-05
-6.32258e-06
-3.507e-06
-1.94371e-06
-1.06658e-06
-5.74772e-07
-3.0409e-07
-1.5331e-07
-6.26802e-08
-2.03926e-08
-1.41211e-08
-7.44341e-09
-3.62334e-09
-1.4875e-09
-4.31855e-10
-7.58991e-11
1.29371e-18
-1.93797e-19
8.2584e-19
1.87136e-18
1.24838e-18
2.28437e-18
8.84458e-19
-1.69451e-19
1.33351e-18
2.03398e-18
3.81235e-18
2.91719e-18
6.62632e-19
1.16091e-18
1.34662e-18
1.68513e-18
3.25631e-18
2.85872e-18
4.06573e-18
2.27217e-18
1.51559e-18
7.12904e-18
7.09704e-18
-9.67589e-20
3.40555e-18
7.17901e-18
6.07175e-18
5.18713e-18
2.10671e-17
5.49658e-17
1.53068e-16
5.34666e-16
1.66195e-15
5.17231e-15
1.61472e-14
4.95919e-14
1.49211e-13
4.56492e-13
1.36791e-12
4.02919e-12
1.1801e-11
3.30986e-11
9.56954e-11
2.60474e-10
7.02531e-10
1.93304e-09
4.94529e-09
1.12845e-08
2.28233e-08
3.69312e-08
5.02365e-08
5.70313e-08
4.93556e-08
2.51924e-08
-1.13377e-08
-5.67473e-08
-1.70583e-07
-6.71882e-07
-3.07319e-06
-1.38443e-05
-5.39745e-05
-0.000145346
-0.000191357
-0.000210214
-0.000362089
-0.000502336
-0.000531173
-0.000302225
-0.000107909
-0.00072345
-0.00196239
-0.000179972
0.00571801
0.00935529
0.00313591
-0.00549048
-0.00280411
-0.00120525
-0.000570694
-0.000308421
-0.000159461
-8.03262e-05
-4.13558e-05
-2.14263e-05
-1.15543e-05
-6.3529e-06
-3.52232e-06
-1.95054e-06
-1.07083e-06
-5.69408e-07
-3.00556e-07
-1.50624e-07
-5.94359e-08
-1.99737e-08
-1.42714e-08
-7.28425e-09
-3.51489e-09
-1.42363e-09
-4.06033e-10
-7.08849e-11
6.34942e-19
1.11655e-18
4.42318e-19
4.86983e-19
7.16184e-19
6.00118e-19
2.54513e-18
5.17791e-19
-6.34207e-19
4.19579e-19
1.09663e-18
1.20824e-18
3.24882e-19
4.22082e-19
1.42636e-18
2.7703e-20
1.91395e-18
1.315e-18
5.23278e-18
3.92813e-18
1.42081e-18
8.6154e-18
1.29122e-18
4.76245e-18
3.23035e-18
3.78873e-18
9.28856e-18
1.42353e-17
1.94823e-17
7.5514e-17
2.21322e-16
7.05429e-16
2.19631e-15
6.73999e-15
2.06597e-14
6.32059e-14
1.877e-13
5.50223e-13
1.65996e-12
4.89983e-12
1.40482e-11
3.98239e-11
1.09535e-10
3.06329e-10
8.20061e-10
2.21885e-09
5.52298e-09
1.2699e-08
2.35972e-08
3.76056e-08
5.16818e-08
5.69131e-08
4.70261e-08
2.00914e-08
-1.36362e-08
-5.91444e-08
-1.74302e-07
-6.80954e-07
-3.09044e-06
-1.38045e-05
-5.33592e-05
-0.000142754
-0.000187857
-0.000205446
-0.000355423
-0.000497391
-0.000536401
-0.000318531
-0.000110191
-0.000679271
-0.00194464
-0.000316473
0.00555529
0.00942727
0.0034443
-0.00551859
-0.00286103
-0.00122858
-0.00058102
-0.000313441
-0.000161666
-8.13396e-05
-4.18547e-05
-2.16794e-05
-1.16801e-05
-6.41518e-06
-3.55199e-06
-1.96342e-06
-1.07526e-06
-5.70426e-07
-3.0011e-07
-1.49328e-07
-5.71389e-08
-1.99207e-08
-1.44066e-08
-7.20523e-09
-3.44197e-09
-1.3771e-09
-3.8755e-10
-6.72497e-11
3.1439e-19
4.07651e-20
-1.71528e-19
1.00943e-18
3.49032e-19
7.45134e-19
1.75537e-18
2.33544e-18
6.83218e-19
-1.75909e-19
6.38537e-19
1.73792e-18
2.11055e-18
2.02118e-18
2.23465e-18
3.60297e-18
2.01246e-18
1.88345e-18
2.61764e-18
1.63425e-18
9.64096e-18
6.97731e-18
1.05356e-17
5.80986e-18
5.32743e-18
-1.31891e-18
1.00371e-17
1.40201e-17
3.38812e-17
9.60353e-17
2.86156e-16
8.94096e-16
2.72852e-15
8.38394e-15
2.52507e-14
7.62422e-14
2.26525e-13
6.52042e-13
1.96189e-12
5.9754e-12
1.67243e-11
4.60183e-11
1.27021e-10
3.51299e-10
9.40623e-10
2.47794e-09
6.23696e-09
1.31694e-08
2.43138e-08
3.93544e-08
5.27675e-08
5.6467e-08
4.47886e-08
1.66133e-08
-1.71029e-08
-6.16381e-08
-1.76707e-07
-6.86266e-07
-3.0893e-06
-1.37036e-05
-5.26495e-05
-0.000140444
-0.000185424
-0.000201809
-0.000350741
-0.000494388
-0.000541322
-0.000333845
-0.000108252
-0.000637934
-0.00192823
-0.000426443
0.0054402
0.00948903
0.00366241
-0.00553097
-0.00290589
-0.00124705
-0.000589272
-0.000317662
-0.000163572
-8.22369e-05
-4.22965e-05
-2.19253e-05
-1.18108e-05
-6.48372e-06
-3.58678e-06
-1.97996e-06
-1.08217e-06
-5.73399e-07
-3.00946e-07
-1.48878e-07
-5.5642e-08
-2.00799e-08
-1.45133e-08
-7.18133e-09
-3.40158e-09
-1.3476e-09
-3.75546e-10
-6.48831e-11
1.45581e-19
6.50325e-19
8.1295e-20
5.21404e-19
7.61469e-19
6.62087e-19
8.01717e-20
-2.97074e-19
6.97447e-19
6.01194e-19
7.17227e-19
6.21289e-19
9.13674e-19
2.97578e-18
2.29865e-18
3.2351e-18
2.17238e-18
1.83655e-18
2.3355e-18
8.34018e-20
6.20611e-18
7.54483e-18
2.60301e-18
2.44541e-19
3.74097e-18
1.02717e-17
3.70935e-18
1.73672e-17
3.99033e-17
1.20031e-16
3.57146e-16
1.07976e-15
3.31171e-15
1.01148e-14
3.01515e-14
9.11288e-14
2.74329e-13
7.90559e-13
2.38044e-12
6.88961e-12
1.93706e-11
5.3877e-11
1.47321e-10
3.91273e-10
1.04942e-09
2.7469e-09
6.61696e-09
1.33102e-08
2.54685e-08
4.0822e-08
5.34564e-08
5.60261e-08
4.31657e-08
1.42949e-08
-1.92807e-08
-6.33352e-08
-1.78146e-07
-6.87838e-07
-3.07771e-06
-1.3571e-05
-5.18986e-05
-0.000138213
-0.000183353
-0.000198516
-0.000346441
-0.000491497
-0.0005447
-0.000345447
-0.000110115
-0.000606945
-0.00191047
-0.000516867
0.00532604
0.00953431
0.00388056
-0.00553303
-0.00295111
-0.00126606
-0.000597577
-0.000321863
-0.00016556
-8.31874e-05
-4.27708e-05
-2.21853e-05
-1.19501e-05
-6.55812e-06
-3.62583e-06
-1.99963e-06
-1.09136e-06
-5.77844e-07
-3.02752e-07
-1.491e-07
-5.48062e-08
-2.0341e-08
-1.46362e-08
-7.19657e-09
-3.38662e-09
-1.33165e-09
-3.68587e-10
-6.34786e-11
3.40051e-19
2.43441e-19
1.30713e-18
1.88322e-18
9.36151e-19
1.00189e-18
1.23878e-18
1.6893e-18
6.13124e-19
4.28563e-19
1.96276e-19
1.27819e-18
1.34604e-18
1.06835e-18
1.38075e-18
6.1209e-19
2.54905e-18
6.2585e-19
1.17805e-18
4.93946e-18
5.5783e-18
3.68331e-18
1.22096e-18
-2.58193e-18
4.23448e-18
4.26508e-18
9.05778e-18
2.08337e-17
5.35993e-17
1.30618e-16
4.20553e-16
1.32471e-15
4.03193e-15
1.20225e-14
3.56295e-14
1.05921e-13
3.16859e-13
8.99239e-13
2.69376e-12
7.81442e-12
2.20133e-11
6.00956e-11
1.65548e-10
4.39844e-10
1.18175e-09
3.03609e-09
6.84017e-09
1.41961e-08
2.67261e-08
4.20289e-08
5.40716e-08
5.54229e-08
4.13902e-08
1.19404e-08
-2.13161e-08
-6.45932e-08
-1.78578e-07
-6.84749e-07
-3.04593e-06
-1.33649e-05
-5.09648e-05
-0.000135897
-0.000181724
-0.000195312
-0.000341784
-0.000487675
-0.000547298
-0.000356481
-0.000112513
-0.000576203
-0.00188991
-0.000612845
0.00519661
0.00956885
0.0041197
-0.00552323
-0.00300086
-0.00128724
-0.000606502
-0.000326338
-0.000167776
-8.42634e-05
-4.33104e-05
-2.24728e-05
-1.21037e-05
-6.64083e-06
-3.67006e-06
-2.02271e-06
-1.10288e-06
-5.83666e-07
-3.05432e-07
-1.49934e-07
-5.45045e-08
-2.06481e-08
-1.47944e-08
-7.24012e-09
-3.3912e-09
-1.32654e-09
-3.65497e-10
-6.28069e-11
4.17998e-19
2.76149e-19
3.39028e-19
1.70395e-18
2.11101e-18
1.47426e-18
6.03036e-19
2.81124e-19
9.75721e-19
1.85067e-18
-1.64142e-19
9.03122e-19
9.82579e-19
8.17827e-19
8.13826e-19
6.91227e-19
2.26665e-18
5.59231e-18
6.69459e-18
5.78152e-18
2.31847e-18
5.79e-18
2.99739e-18
1.93974e-18
5.1379e-18
9.95527e-18
7.99631e-18
2.3345e-17
4.86632e-17
1.54011e-16
5.00846e-16
1.56096e-15
4.6867e-15
1.41264e-14
4.18272e-14
1.23455e-13
3.6445e-13
1.01604e-12
3.02536e-12
8.74907e-12
2.42895e-11
6.75297e-11
1.83661e-10
4.93784e-10
1.24052e-09
2.96798e-09
7.1121e-09
1.51443e-08
2.79179e-08
4.32036e-08
5.44622e-08
5.48373e-08
3.99117e-08
1.00705e-08
-2.27419e-08
-6.52873e-08
-1.77832e-07
-6.76557e-07
-2.99039e-06
-1.3061e-05
-4.96665e-05
-0.000132836
-0.00018016
-0.000191362
-0.000336568
-0.000484056
-0.00055015
-0.000369301
-0.000115422
-0.000540897
-0.00185541
-0.000725939
0.00504815
0.00960285
0.00438842
-0.00549753
-0.0030572
-0.00131141
-0.00061647
-0.000331314
-0.000170327
-8.55128e-05
-4.39368e-05
-2.27972e-05
-1.22757e-05
-6.73354e-06
-3.72009e-06
-2.04936e-06
-1.11669e-06
-5.90766e-07
-3.08903e-07
-1.5132e-07
-5.46421e-08
-2.09749e-08
-1.4947e-08
-7.30495e-09
-3.41139e-09
-1.33001e-09
-3.65391e-10
-6.26977e-11
6.92854e-19
1.40709e-18
9.36306e-19
9.37149e-19
5.67951e-19
6.60662e-19
2.13715e-19
1.85813e-19
1.42591e-18
2.36395e-18
9.2595e-19
2.97359e-18
1.96906e-18
1.32387e-18
4.7136e-18
5.65975e-18
4.65702e-18
2.37155e-18
4.8983e-18
8.34577e-18
5.56205e-18
4.17667e-18
3.77512e-18
5.28418e-18
5.58656e-18
-8.65185e-20
1.02496e-17
2.6873e-17
6.19263e-17
2.09978e-16
6.0153e-16
1.80706e-15
5.40016e-15
1.59665e-14
4.68512e-14
1.36612e-13
3.92321e-13
1.11597e-12
3.33673e-12
9.52073e-12
2.62184e-11
7.22471e-11
1.9598e-10
5.06897e-10
1.26025e-09
3.23391e-09
7.59629e-09
1.5958e-08
2.91023e-08
4.41563e-08
5.47488e-08
5.42313e-08
3.85564e-08
8.83448e-09
-2.36973e-08
-6.56456e-08
-1.76257e-07
-6.65672e-07
-2.92803e-06
-1.27493e-05
-4.84236e-05
-0.000129886
-0.000178681
-0.000187575
-0.000330922
-0.000479459
-0.000552119
-0.000380933
-0.000119437
-0.000500327
-0.00189386
-0.000812313
0.00488413
0.00959894
0.00468626
-0.00544956
-0.00312814
-0.00134177
-0.000628349
-0.00033706
-0.000173288
-8.69521e-05
-4.46518e-05
-2.31572e-05
-1.24638e-05
-6.83483e-06
-3.77501e-06
-2.07897e-06
-1.1324e-06
-5.98891e-07
-3.12998e-07
-1.5316e-07
-5.51187e-08
-2.1309e-08
-1.5136e-08
-7.38655e-09
-3.44382e-09
-1.34022e-09
-3.67575e-10
-6.30183e-11
3.17386e-19
1.11553e-18
1.64131e-18
7.36418e-19
4.30324e-19
3.42095e-19
-7.25687e-20
4.37693e-21
5.97594e-19
5.35544e-19
4.94055e-19
1.06141e-18
1.09477e-19
3.0725e-18
7.7552e-19
3.09977e-18
3.2439e-18
2.41349e-18
4.93776e-18
6.75274e-18
8.8483e-18
2.9038e-18
-1.43545e-19
3.18856e-18
5.51569e-18
1.03574e-17
1.39664e-17
2.68272e-17
8.40629e-17
2.46154e-16
7.03254e-16
2.07951e-15
5.99554e-15
1.79304e-14
5.16982e-14
1.49162e-13
4.3126e-13
1.21238e-12
3.66149e-12
1.0246e-11
2.81165e-11
7.62248e-11
2.01741e-10
5.20406e-10
1.37161e-09
3.46926e-09
8.08801e-09
1.68632e-08
3.0226e-08
4.5139e-08
5.50763e-08
5.34582e-08
3.61964e-08
8.28324e-09
-2.44173e-08
-6.56892e-08
-1.73793e-07
-6.50392e-07
-2.84287e-06
-1.23168e-05
-4.68524e-05
-0.000127014
-0.00017826
-0.000184362
-0.000325729
-0.000475181
-0.000553879
-0.00039178
-0.000122446
-0.000470797
-0.00185968
-0.000918174
0.0046974
0.00959963
0.00499629
-0.00538472
-0.0031985
-0.00137183
-0.000640217
-0.000342858
-0.000176366
-8.84664e-05
-4.5409e-05
-2.35366e-05
-1.26646e-05
-6.94214e-06
-3.83313e-06
-2.11051e-06
-1.14944e-06
-6.07764e-07
-3.17557e-07
-1.55339e-07
-5.58485e-08
-2.16429e-08
-1.53433e-08
-7.47989e-09
-3.4851e-09
-1.35534e-09
-3.71425e-10
-6.36514e-11
3.71454e-19
1.09027e-19
1.84188e-18
1.32477e-18
5.83472e-19
5.04882e-19
1.48664e-18
3.25914e-18
1.95077e-18
1.99659e-18
1.08053e-18
2.70078e-18
1.10421e-18
1.31898e-18
1.85761e-18
2.00284e-18
3.08807e-18
3.90905e-18
4.66385e-19
1.59978e-18
4.55621e-19
4.35657e-18
4.7696e-18
5.01758e-18
3.28382e-18
1.14166e-17
1.5512e-17
3.64685e-17
9.61205e-17
2.64631e-16
7.55382e-16
2.25112e-15
6.72624e-15
1.98286e-14
5.813e-14
1.66763e-13
4.70664e-13
1.3222e-12
3.84532e-12
1.10724e-11
3.00306e-11
8.0821e-11
2.12764e-10
5.59007e-10
1.46682e-09
3.68327e-09
8.5193e-09
1.76021e-08
3.11823e-08
4.59839e-08
5.54351e-08
5.30954e-08
3.51542e-08
8.03594e-09
-2.50509e-08
-6.55755e-08
-1.70971e-07
-6.35516e-07
-2.76428e-06
-1.19678e-05
-4.54835e-05
-0.000123962
-0.000177302
-0.000181324
-0.000320758
-0.000471111
-0.000555461
-0.000402669
-0.000124824
-0.000442632
-0.00182018
-0.00102906
0.00451234
0.00959253
0.0052954
-0.00530364
-0.00326975
-0.00140321
-0.000652423
-0.000348782
-0.000179528
-9.00205e-05
-4.61858e-05
-2.39242e-05
-1.28697e-05
-7.05415e-06
-3.8949e-06
-2.14447e-06
-1.16776e-06
-6.17252e-07
-3.22502e-07
-1.57818e-07
-5.67894e-08
-2.19826e-08
-1.55669e-08
-7.5817e-09
-3.53244e-09
-1.3738e-09
-3.76408e-10
-6.44984e-11
2.61875e-19
-9.34415e-20
1.92978e-18
1.6849e-18
1.52703e-18
4.62819e-19
1.62836e-18
1.63718e-18
2.57291e-19
2.18974e-18
1.27873e-18
-2.98258e-19
2.43151e-18
1.6759e-18
1.28505e-18
3.16841e-18
4.21882e-19
1.60578e-18
3.84056e-19
1.81571e-18
6.92631e-18
4.62736e-18
3.86307e-18
4.50657e-18
6.69357e-18
1.17643e-17
1.65867e-17
3.3921e-17
8.92798e-17
2.84927e-16
8.28436e-16
2.47371e-15
7.31155e-15
2.16214e-14
6.24304e-14
1.77888e-13
4.99546e-13
1.39909e-12
4.06169e-12
1.17695e-11
3.20713e-11
8.6775e-11
2.27469e-10
6.01552e-10
1.54556e-09
3.86636e-09
8.89517e-09
1.81617e-08
3.18329e-08
4.64975e-08
5.56033e-08
5.28709e-08
3.46846e-08
7.76945e-09
-2.57054e-08
-6.5318e-08
-1.67891e-07
-6.18645e-07
-2.68289e-06
-1.16044e-05
-4.42272e-05
-0.000121217
-0.000176533
-0.000178404
-0.000315609
-0.000466773
-0.000556731
-0.000414046
-0.000130972
-0.000413329
-0.00178232
-0.00112933
0.00432284
0.0095532
0.00559294
-0.00520016
-0.00334963
-0.00143728
-0.000665387
-0.000354957
-0.000182903
-9.16967e-05
-4.70234e-05
-2.4332e-05
-1.30829e-05
-7.16893e-06
-3.95768e-06
-2.179e-06
-1.18678e-06
-6.27199e-07
-3.27675e-07
-1.60412e-07
-5.78232e-08
-2.23076e-08
-1.5791e-08
-7.68756e-09
-3.58408e-09
-1.39493e-09
-3.8231e-10
-6.55171e-11
-3.5847e-19
1.3775e-18
3.73149e-19
1.88522e-18
1.35594e-18
8.44271e-19
1.90603e-18
1.55502e-18
1.59075e-18
1.32403e-18
1.94862e-18
1.84365e-18
2.09328e-18
2.94467e-18
5.3494e-18
6.8379e-18
5.2125e-18
2.25122e-18
4.85842e-18
1.28682e-18
1.00529e-17
7.07659e-18
3.98788e-18
1.25148e-18
1.97926e-18
5.24466e-18
1.98521e-17
3.75793e-17
9.30082e-17
2.93111e-16
8.95274e-16
2.65395e-15
7.80174e-15
2.27447e-14
6.58265e-14
1.87304e-13
5.30803e-13
1.46474e-12
4.32524e-12
1.24074e-11
3.34057e-11
8.95096e-11
2.39504e-10
6.32259e-10
1.61544e-09
4.01933e-09
9.15943e-09
1.85525e-08
3.2275e-08
4.68262e-08
5.5684e-08
5.2666e-08
3.43189e-08
7.49501e-09
-2.62347e-08
-6.50479e-08
-1.65078e-07
-6.03956e-07
-2.6077e-06
-1.12404e-05
-4.28961e-05
-0.000118667
-0.000176164
-0.000176015
-0.000311017
-0.000462861
-0.000557585
-0.000424269
-0.000138468
-0.000388931
-0.00174498
-0.00121462
0.0041438
0.00951609
0.00586204
-0.00508555
-0.00342714
-0.00147076
-0.000678354
-0.00036117
-0.000186271
-9.33573e-05
-4.78494e-05
-2.47375e-05
-1.32937e-05
-7.28195e-06
-4.0193e-06
-2.21281e-06
-1.20532e-06
-6.3686e-07
-3.32754e-07
-1.63042e-07
-5.89314e-08
-2.26284e-08
-1.60347e-08
-7.79487e-09
-3.63689e-09
-1.41682e-09
-3.88506e-10
-6.65944e-11
5.51166e-19
4.8461e-19
-1.92233e-19
8.57343e-19
4.59505e-19
1.83192e-19
8.96638e-19
8.7693e-20
2.84967e-19
1.94641e-18
3.02273e-18
3.09936e-18
4.35735e-18
2.3378e-18
1.00107e-18
2.56782e-18
4.09845e-18
5.37214e-18
6.10339e-18
4.15138e-18
-1.78607e-19
4.04381e-19
4.62179e-18
5.06714e-20
3.75264e-19
5.25219e-18
1.20807e-17
3.50364e-17
1.0289e-16
3.09867e-16
9.16715e-16
2.79718e-15
8.20182e-15
2.38668e-14
6.78445e-14
1.91376e-13
5.55526e-13
1.52928e-12
4.4857e-12
1.25249e-11
3.55649e-11
9.47806e-11
2.5192e-10
6.49081e-10
1.66759e-09
4.12693e-09
9.35529e-09
1.88449e-08
3.26044e-08
4.70689e-08
5.57278e-08
5.24946e-08
3.4036e-08
7.27149e-09
-2.65921e-08
-6.46868e-08
-1.6212e-07
-5.89404e-07
-2.53478e-06
-1.09235e-05
-4.1723e-05
-0.000116223
-0.000175741
-0.000174045
-0.000306881
-0.000459473
-0.000559024
-0.000435532
-0.000111944
-0.000368403
-0.00171155
-0.00129322
0.00397504
0.00947334
0.00610822
-0.00496588
-0.00350043
-0.00150279
-0.000690532
-0.000366913
-0.000189397
-9.48971e-05
-4.86134e-05
-2.51093e-05
-1.34872e-05
-7.38577e-06
-4.07596e-06
-2.24395e-06
-1.22241e-06
-6.45763e-07
-3.37426e-07
-1.6546e-07
-5.9973e-08
-2.29118e-08
-1.62292e-08
-7.89116e-09
-3.68526e-09
-1.43724e-09
-3.94364e-10
-6.76192e-11
2.04463e-19
7.08144e-19
6.70223e-19
1.18897e-18
6.33821e-19
6.20639e-19
1.35224e-18
8.01335e-19
1.1733e-18
4.91717e-20
3.6628e-19
4.33091e-18
2.05088e-18
9.47678e-19
2.4283e-18
4.12969e-19
1.15942e-18
5.22903e-18
1.50948e-18
3.51879e-18
3.58854e-19
1.94806e-18
2.93517e-18
3.47515e-18
7.46066e-18
3.05405e-18
1.44821e-17
3.31201e-17
1.00026e-16
3.14886e-16
9.61248e-16
2.88402e-15
8.51399e-15
2.47792e-14
7.1358e-14
2.0434e-13
5.74919e-13
1.65083e-12
4.7397e-12
1.34532e-11
3.6598e-11
9.72054e-11
2.58385e-10
6.61593e-10
1.70676e-09
4.21036e-09
9.50272e-09
1.90588e-08
3.28355e-08
4.72248e-08
5.57484e-08
5.23693e-08
3.38154e-08
7.10611e-09
-2.68354e-08
-6.43331e-08
-1.59556e-07
-5.76066e-07
-2.47159e-06
-1.06431e-05
-4.07513e-05
-0.000114243
-0.000175421
-0.000172504
-0.00030334
-0.00045646
-0.000559594
-0.000443305
-0.000121298
-0.000352031
-0.00168212
-0.00136165
0.00383141
0.0094334
0.00631314
-0.00485418
-0.00356426
-0.00153049
-0.000701077
-0.000371857
-0.000192095
-9.62197e-05
-4.92721e-05
-2.54297e-05
-1.36541e-05
-7.47533e-06
-4.12489e-06
-2.27087e-06
-1.23723e-06
-6.53501e-07
-3.41531e-07
-1.67593e-07
-6.09095e-08
-2.31589e-08
-1.64044e-08
-7.97639e-09
-3.72815e-09
-1.45545e-09
-3.99615e-10
-6.85402e-11
5.38072e-19
8.84083e-19
1.15013e-18
8.05311e-19
1.14704e-18
9.47374e-19
1.67527e-18
2.19695e-18
1.40164e-18
3.42351e-19
4.09446e-19
6.87951e-19
1.57491e-18
7.11864e-19
3.71338e-18
2.64839e-18
9.24431e-19
1.84681e-18
2.04078e-18
4.57985e-18
3.75586e-18
3.53408e-19
4.48355e-18
3.34828e-18
3.14707e-18
1.3542e-17
1.28797e-17
4.21318e-17
1.16989e-16
3.47377e-16
1.0093e-15
3.02829e-15
8.86157e-15
2.57673e-14
7.42056e-14
2.13373e-13
6.06426e-13
1.70036e-12
4.844e-12
1.34881e-11
3.69476e-11
9.87583e-11
2.55159e-10
6.72e-10
1.74045e-09
4.27349e-09
9.61349e-09
1.92194e-08
3.30088e-08
4.73416e-08
5.57594e-08
5.22717e-08
3.36592e-08
6.98857e-09
-2.69889e-08
-6.4043e-08
-1.57541e-07
-5.66437e-07
-2.42513e-06
-1.0435e-05
-3.9985e-05
-0.00011253
-0.000174935
-0.000171162
-0.000300326
-0.000453796
-0.000559672
-0.00044928
-0.000126574
-0.000336032
-0.00166479
-0.00140668
0.00372019
0.00939553
0.0064699
-0.00475971
-0.00361541
-0.00155271
-0.000709527
-0.000375801
-0.000194262
-9.72956e-05
-4.98043e-05
-2.56876e-05
-1.3788e-05
-7.54715e-06
-4.16411e-06
-2.29246e-06
-1.24912e-06
-6.59706e-07
-3.44811e-07
-1.69295e-07
-6.16627e-08
-2.33527e-08
-1.65613e-08
-8.04487e-09
-3.76277e-09
-1.47023e-09
-4.039e-10
-6.92937e-11
4.33247e-19
1.01328e-18
2.30918e-18
3.28629e-18
2.08134e-18
1.56719e-18
1.26e-18
3.56418e-18
9.11254e-19
2.71691e-19
3.14472e-19
3.66331e-19
1.29544e-18
1.51346e-18
2.38254e-18
4.80569e-18
3.58155e-18
2.0939e-18
3.30437e-18
8.32419e-19
6.03331e-18
3.67503e-18
3.2467e-18
6.41967e-18
9.80582e-18
1.08071e-17
1.63489e-17
3.47043e-17
1.14322e-16
3.57497e-16
1.03799e-15
3.03451e-15
9.04726e-15
2.60224e-14
7.54839e-14
2.16341e-13
6.10135e-13
1.69022e-12
4.80947e-12
1.37921e-11
3.67485e-11
9.82081e-11
2.57599e-10
6.78806e-10
1.76416e-09
4.31851e-09
9.69155e-09
1.93316e-08
3.31296e-08
4.74245e-08
5.57646e-08
5.21973e-08
3.35474e-08
6.90522e-09
-2.7089e-08
-6.38413e-08
-1.56175e-07
-5.59634e-07
-2.39232e-06
-1.02896e-05
-3.94622e-05
-0.000111409
-0.000174659
-0.00017032
-0.000298257
-0.000451888
-0.000559526
-0.000453077
-0.000130008
-0.000325734
-0.00163934
-0.00144099
0.00364128
0.00936955
0.00657885
-0.00469002
-0.00365181
-0.00156852
-0.000715537
-0.00037859
-0.000195795
-9.8052e-05
-5.0179e-05
-2.58694e-05
-1.38824e-05
-7.59781e-06
-4.19179e-06
-2.30771e-06
-1.25753e-06
-6.64095e-07
-3.47135e-07
-1.70509e-07
-6.22059e-08
-2.34903e-08
-1.66618e-08
-8.09298e-09
-3.78729e-09
-1.48076e-09
-4.06963e-10
-6.98332e-11
1.59268e-19
-1.33458e-19
3.32955e-19
1.0298e-18
5.49771e-19
9.72198e-19
6.78767e-19
1.74982e-18
1.29301e-18
1.34816e-18
9.53365e-19
1.04241e-18
1.7532e-18
1.0547e-18
1.77613e-18
1.87393e-18
5.37304e-19
1.21574e-18
2.3227e-18
3.95635e-18
3.20251e-18
1.63822e-18
2.1461e-18
7.2175e-18
8.42259e-18
1.53555e-17
1.24609e-17
4.97302e-17
1.20315e-16
3.41178e-16
1.05349e-15
3.15086e-15
9.1856e-15
2.65274e-14
7.72753e-14
2.18285e-13
6.24016e-13
1.71791e-12
5.03901e-12
1.40686e-11
3.77525e-11
9.97425e-11
2.59025e-10
6.89248e-10
1.77541e-09
4.34572e-09
9.74251e-09
1.94057e-08
3.32085e-08
4.74768e-08
5.57687e-08
5.21539e-08
3.34752e-08
6.84531e-09
-2.71625e-08
-6.37531e-08
-1.55501e-07
-5.56226e-07
-2.37555e-06
-1.02143e-05
-3.91918e-05
-0.000110844
-0.000174531
-0.000169901
-0.000297172
-0.000450879
-0.000559421
-0.000455093
-0.000132038
-0.000320305
-0.00163772
-0.00145873
0.00359828
0.00935465
0.00663571
-0.00465187
-0.00367122
-0.00157696
-0.000718737
-0.000380073
-0.000196615
-9.84585e-05
-5.03813e-05
-2.59675e-05
-1.39334e-05
-7.62517e-06
-4.20674e-06
-2.31594e-06
-1.26207e-06
-6.66467e-07
-3.48392e-07
-1.71164e-07
-6.25043e-08
-2.3563e-08
-1.6708e-08
-8.11746e-09
-3.80001e-09
-1.48629e-09
-4.08576e-10
-7.01179e-11
-1.01074e-19
1.50294e-18
9.76636e-19
1.60737e-18
7.88925e-19
1.30667e-18
1.00897e-18
2.91495e-18
1.11752e-18
2.83186e-19
2.62647e-18
2.51391e-18
3.29133e-18
1.09858e-18
1.64343e-18
2.40657e-18
7.60706e-19
2.35631e-18
2.11251e-18
3.98534e-18
4.5164e-18
2.15912e-18
2.89928e-18
4.41775e-18
5.07982e-18
5.28567e-18
1.28872e-17
3.63707e-17
1.21466e-16
3.63237e-16
1.09217e-15
3.24074e-15
9.42798e-15
2.78804e-14
8.02359e-14
2.2593e-13
6.41627e-13
1.75796e-12
5.06209e-12
1.39103e-11
3.82031e-11
1.00895e-10
2.63535e-10
6.91253e-10
1.78274e-09
4.36224e-09
9.77249e-09
1.94498e-08
3.32572e-08
4.75116e-08
5.57747e-08
5.21271e-08
3.34261e-08
6.79757e-09
-2.72315e-08
-6.37669e-08
-1.55387e-07
-5.55576e-07
-2.37224e-06
-1.01991e-05
-3.91371e-05
-0.00011073
-0.000174521
-0.000169839
-0.000296977
-0.000450695
-0.000559388
-0.000455415
-0.000132331
-0.000319293
-0.00163598
-0.00146155
0.00359218
0.00935219
0.00664472
-0.00464555
-0.00367421
-0.00157825
-0.00071922
-0.000380295
-0.000196737
-9.85185e-05
-5.04109e-05
-2.59818e-05
-1.39409e-05
-7.62914e-06
-4.20891e-06
-2.31713e-06
-1.26272e-06
-6.66806e-07
-3.48568e-07
-1.71256e-07
-6.25452e-08
-2.35749e-08
-1.67235e-08
-8.1224e-09
-3.80221e-09
-1.48715e-09
-4.08817e-10
-7.01595e-11
1.40021e-19
4.2996e-19
1.91548e-18
2.24952e-18
1.06977e-18
3.69663e-19
8.12345e-20
1.00503e-18
2.51835e-18
2.06992e-18
4.03385e-19
1.6904e-18
1.81738e-19
1.63312e-18
2.37823e-18
1.90227e-18
2.72587e-18
1.85224e-18
9.16979e-19
1.63453e-18
2.58116e-18
1.77097e-18
2.4544e-18
1.88266e-18
7.00277e-18
5.74502e-18
1.7816e-17
4.30647e-17
1.31971e-16
3.75154e-16
1.11219e-15
3.26131e-15
9.63e-15
2.79823e-14
8.14412e-14
2.30365e-13
6.48142e-13
1.78711e-12
5.09927e-12
1.42072e-11
3.82811e-11
1.00737e-10
2.6584e-10
6.93695e-10
1.78188e-09
4.36947e-09
9.78479e-09
1.94689e-08
3.32809e-08
4.75325e-08
5.57838e-08
5.2118e-08
3.33973e-08
6.75563e-09
-2.73068e-08
-6.39225e-08
-1.56027e-07
-5.58545e-07
-2.38605e-06
-1.02589e-05
-3.93482e-05
-0.000111173
-0.00017463
-0.000170172
-0.000297804
-0.000451441
-0.00055943
-0.000453885
-0.000130795
-0.000322836
-0.00163278
-0.00144823
0.00362358
0.00936287
0.00660281
-0.00467344
-0.00365984
-0.001572
-0.000716836
-0.000379193
-0.00019613
-9.8218e-05
-5.02615e-05
-2.59095e-05
-1.39033e-05
-7.60899e-06
-4.19788e-06
-2.31105e-06
-1.25936e-06
-6.65048e-07
-3.47637e-07
-1.70767e-07
-6.23181e-08
-2.35179e-08
-1.66747e-08
-8.10134e-09
-3.79164e-09
-1.48262e-09
-4.07494e-10
-6.9926e-11
1.48176e-19
5.63173e-20
4.02825e-19
4.40978e-19
1.03653e-18
1.19033e-18
1.44603e-19
1.7745e-18
1.11005e-18
5.20501e-19
1.99837e-19
7.27751e-19
3.92417e-19
3.12314e-18
2.7493e-18
5.22585e-18
5.868e-18
1.66426e-18
1.63082e-18
3.44511e-18
3.82236e-18
6.14748e-18
3.01415e-18
8.27881e-18
6.83364e-18
9.0816e-18
1.44807e-17
4.12812e-17
1.2722e-16
3.82686e-16
1.08899e-15
3.13883e-15
9.46377e-15
2.70337e-14
7.62762e-14
2.14167e-13
6.18818e-13
1.67948e-12
4.93089e-12
1.41248e-11
3.76192e-11
1.00536e-10
2.61148e-10
6.93851e-10
1.78128e-09
4.36346e-09
9.77541e-09
1.94586e-08
3.32754e-08
4.75363e-08
5.57947e-08
5.21268e-08
3.33903e-08
6.71923e-09
-2.73912e-08
-6.42186e-08
-1.57402e-07
-5.65011e-07
-2.41627e-06
-1.03902e-05
-3.98132e-05
-0.000112141
-0.000174831
-0.000170886
-0.00029958
-0.000453033
-0.000559487
-0.000450562
-0.000127662
-0.000331474
-0.00164747
-0.00141828
0.00369032
0.00938556
0.00651131
-0.00473261
-0.00362888
-0.00155853
-0.000711715
-0.000376819
-0.000194822
-9.75689e-05
-4.99392e-05
-2.57535e-05
-1.38222e-05
-7.5655e-06
-4.17411e-06
-2.29794e-06
-1.25211e-06
-6.61269e-07
-3.45632e-07
-1.69715e-07
-6.18406e-08
-2.34004e-08
-1.65799e-08
-8.06028e-09
-3.77038e-09
-1.47337e-09
-4.04783e-10
-6.94468e-11
1.0693e-18
1.50206e-18
7.21753e-19
1.26336e-18
1.14994e-18
7.41074e-19
4.20173e-19
5.00203e-19
3.03848e-19
7.23778e-19
3.16548e-19
4.99874e-19
9.70077e-19
1.02954e-18
6.49109e-19
2.09033e-18
2.77005e-18
4.11662e-18
3.43441e-18
4.98182e-18
2.54533e-18
2.61935e-18
4.79596e-18
4.38822e-18
7.70887e-18
1.63516e-17
2.0214e-17
3.52811e-17
1.26354e-16
3.66209e-16
1.07275e-15
3.10378e-15
9.18023e-15
2.6344e-14
7.56801e-14
2.15948e-13
6.112e-13
1.68044e-12
4.90621e-12
1.40499e-11
3.76068e-11
9.87583e-11
2.59838e-10
6.93999e-10
1.77254e-09
4.34516e-09
9.7466e-09
1.94222e-08
3.32447e-08
4.75263e-08
5.58081e-08
5.21503e-08
3.3397e-08
6.67877e-09
-2.74971e-08
-6.46808e-08
-1.59632e-07
-5.75581e-07
-2.46581e-06
-1.06048e-05
-4.05662e-05
-0.000113681
-0.00017507
-0.000172003
-0.000302308
-0.000455444
-0.000559454
-0.000445308
-0.000123059
-0.00034574
-0.0016724
-0.00137855
0.00379159
0.00941606
0.00636888
-0.00481898
-0.00358247
-0.00153837
-0.00070405
-0.000373255
-0.000192864
-9.66018e-05
-4.946e-05
-2.55214e-05
-1.37015e-05
-7.50069e-06
-4.13868e-06
-2.2784e-06
-1.24132e-06
-6.55633e-07
-3.42642e-07
-1.68154e-07
-6.11312e-08
-2.32255e-08
-1.64512e-08
-7.99827e-09
-3.73857e-09
-1.45961e-09
-4.00759e-10
-6.87368e-11
4.36901e-19
3.64829e-19
1.4509e-18
1.64085e-18
1.19416e-18
3.59312e-19
3.55994e-19
1.78736e-18
2.63151e-19
-1.83513e-19
2.0011e-18
1.48095e-18
2.28748e-18
3.21299e-18
1.89487e-18
2.87313e-18
3.99632e-18
4.44624e-18
3.79077e-18
4.7336e-18
7.70925e-18
3.5227e-19
5.13676e-19
3.56736e-18
7.05573e-18
1.06784e-17
1.82911e-17
4.15533e-17
1.17565e-16
3.52764e-16
1.04443e-15
3.10355e-15
9.02601e-15
2.61776e-14
7.55461e-14
2.14631e-13
6.11399e-13
1.68874e-12
4.75394e-12
1.34145e-11
3.72606e-11
9.81393e-11
2.55025e-10
6.84295e-10
1.76042e-09
4.31696e-09
9.6964e-09
1.93527e-08
3.3178e-08
4.7494e-08
5.58217e-08
5.21936e-08
3.34296e-08
6.6485e-09
-2.76017e-08
-6.52807e-08
-1.62626e-07
-5.89903e-07
-2.53335e-06
-1.08992e-05
-4.16045e-05
-0.000115803
-0.000175306
-0.000173493
-0.00030577
-0.00045838
-0.000558972
-0.00043783
-0.000116363
-0.000364204
-0.00170119
-0.00131927
0.00392291
0.00945668
0.00618238
-0.00492485
-0.00352321
-0.00151262
-0.000694255
-0.000368673
-0.000190337
-9.5354e-05
-4.88405e-05
-2.52212e-05
-1.3545e-05
-7.41676e-06
-4.09283e-06
-2.25315e-06
-1.2274e-06
-6.4836e-07
-3.38792e-07
-1.6614e-07
-6.02314e-08
-2.30005e-08