/*--------------------------------*- C++ -*----------------------------------*\
  =========                 |
  \\      /  F ield         | OpenFOAM: The Open Source CFD Toolbox
   \\    /   O peration     | Website:  https://openfoam.org
    \\  /    A nd           | Version:  10
     \\/     M anipulation  |
\*---------------------------------------------------------------------------*/
FoamFile
{
    format      ascii;
    class       volScalarField;
    location    "1";
    object      RR.PXC5H11;
}
// * * * * * * * * * * * * * * * * * * * * * * * * * * * * * * * * * * * * * //

dimensions      [1 -3 -1 0 0 0 0];

internalField   nonuniform List<scalar> 
4000
(
4.85722e-19
2.8729e-19
1.64037e-19
1.93565e-20
1.39445e-19
5.50037e-20
5.40204e-20
8.15533e-20
6.65748e-20
7.90403e-20
9.54812e-20
-7.67055e-21
1.02435e-19
-1.45047e-20
8.84175e-20
4.64848e-19
2.98608e-19
8.82764e-20
-3.5171e-21
1.65273e-19
1.40733e-20
2.31816e-19
7.04131e-19
2.92934e-19
1.42282e-18
-8.33165e-19
1.16809e-18
2.86799e-19
1.12344e-18
-2.37024e-18
-1.14624e-18
-1.77953e-17
-3.45137e-17
-4.14326e-17
6.18788e-17
1.04459e-15
4.7433e-15
2.21623e-14
9.40743e-14
3.70356e-13
1.33132e-12
4.59538e-12
1.48751e-11
4.60824e-11
1.36001e-10
4.04383e-10
1.16767e-09
3.07757e-09
7.11196e-09
1.38027e-08
2.19176e-08
2.872e-08
3.16045e-08
2.7139e-08
-5.05425e-09
-1.38533e-07
-5.71068e-07
-1.86556e-06
-4.9735e-06
-1.01263e-05
-1.08379e-05
2.00836e-05
0.00010333
3.85781e-05
-3.83075e-05
-2.99544e-05
-1.56992e-05
-8.02779e-06
-4.96526e-06
-5.18287e-06
-6.21823e-06
-2.36986e-07
1.42908e-05
2.29085e-05
7.06127e-06
-1.31755e-05
-6.46144e-06
-2.81671e-06
-1.34538e-06
-7.05447e-07
-3.59526e-07
-1.81271e-07
-9.33287e-08
-4.92587e-08
-2.66091e-08
-1.46711e-08
-8.16824e-09
-4.54785e-09
-2.51062e-09
-1.36627e-09
-7.34964e-10
-3.89609e-10
-1.91148e-10
-7.50131e-11
-7.76263e-11
-7.22269e-11
5.64664e-11
1.77371e-10
5.72064e-11
3.70431e-12
3.07572e-19
7.65941e-19
-1.18764e-19
5.79501e-19
7.33876e-19
2.99413e-19
4.60726e-19
7.3373e-20
8.00912e-21
3.18789e-19
-7.49699e-20
-3.58704e-20
1.75298e-19
-1.30303e-19
-1.18098e-20
5.97485e-19
6.30809e-19
6.22819e-19
1.43076e-18
1.57196e-18
9.95343e-19
2.98493e-19
1.04536e-18
6.39293e-19
2.87369e-18
1.50542e-18
4.69553e-19
9.19969e-19
-2.08196e-18
-1.70568e-18
-1.04548e-17
-3.12777e-17
-6.52014e-17
-7.94255e-17
1.73333e-17
1.03755e-15
6.49316e-15
3.14404e-14
1.27957e-13
4.94101e-13
1.79857e-12
6.08789e-12
1.98288e-11
6.05949e-11
1.8716e-10
5.5496e-10
1.55832e-09
3.93833e-09
8.67707e-09
1.60076e-08
2.35668e-08
2.91939e-08
3.17389e-08
2.55562e-08
-1.2491e-08
-1.68542e-07
-6.3577e-07
-1.98531e-06
-5.1477e-06
-1.02541e-05
-1.09466e-05
1.93207e-05
0.000101201
4.14084e-05
-3.74098e-05
-3.0423e-05
-1.61501e-05
-8.26303e-06
-5.03483e-06
-5.09253e-06
-6.30435e-06
-8.00515e-07
1.37137e-05
2.32155e-05
8.09685e-06
-1.32477e-05
-6.621e-06
-2.88019e-06
-1.37177e-06
-7.17633e-07
-3.64753e-07
-1.83588e-07
-9.44183e-08
-4.97659e-08
-2.68443e-08
-1.47788e-08
-8.21402e-09
-4.56412e-09
-2.51382e-09
-1.3643e-09
-7.32233e-10
-3.87652e-10
-1.86066e-10
-7.30625e-11
-8.20801e-11
-6.62135e-11
8.49054e-11
1.43917e-10
5.99607e-11
3.26665e-12
1.91193e-18
1.971e-19
2.04684e-19
6.68223e-19
2.63255e-18
2.41267e-19
-1.02537e-19
-4.38167e-19
1.12897e-18
1.18453e-19
6.71087e-19
3.7339e-19
1.83665e-19
5.05692e-19
5.75264e-20
6.4245e-19
-9.26327e-20
6.76651e-20
8.91305e-19
3.57571e-19
1.55848e-18
-5.11725e-19
2.16863e-19
1.67435e-18
2.06488e-18
4.63488e-18
9.60849e-19
3.15534e-18
-1.98025e-18
-2.99695e-18
-1.31563e-17
-4.84042e-17
-9.25609e-17
-1.68873e-16
-5.87549e-17
1.15266e-15
8.1543e-15
3.93237e-14
1.64692e-13
6.18785e-13
2.21913e-12
7.21583e-12
2.45193e-11
7.44753e-11
2.32458e-10
6.74374e-10
1.87234e-09
4.61321e-09
9.68618e-09
1.72415e-08
2.46055e-08
2.99427e-08
3.17307e-08
2.29277e-08
-2.23631e-08
-1.85086e-07
-6.68085e-07
-2.04939e-06
-5.24659e-06
-1.0366e-05
-1.10296e-05
1.88376e-05
9.91482e-05
4.30524e-05
-3.64844e-05
-3.06368e-05
-1.6434e-05
-8.45962e-06
-5.10482e-06
-4.99719e-06
-6.31235e-06
-1.3096e-06
1.31218e-05
2.34081e-05
9.15324e-06
-1.33096e-05
-6.80068e-06
-2.95147e-06
-1.40188e-06
-7.31786e-07
-3.71185e-07
-1.86505e-07
-9.57831e-08
-5.03617e-08
-2.71197e-08
-1.49058e-08
-8.26872e-09
-4.58411e-09
-2.51761e-09
-1.36079e-09
-7.28011e-10
-3.84469e-10
-1.78809e-10
-7.11681e-11
-8.71383e-11
-5.86325e-11
1.17412e-10
1.08263e-10
6.16209e-11
2.84517e-12
7.58202e-19
-1.5312e-19
4.26014e-19
1.03271e-18
6.36671e-19
1.2359e-18
3.93862e-19
-2.48274e-19
6.19329e-19
1.01321e-18
2.05709e-18
1.50862e-18
1.40014e-19
4.14751e-19
5.0207e-19
6.74632e-19
1.58375e-18
1.31397e-18
2.00345e-18
8.99508e-19
3.94616e-19
3.6586e-18
3.55014e-18
-8.21333e-19
1.1041e-18
2.96814e-18
1.34352e-18
-2.04703e-18
-1.09666e-18
-8.19649e-18
-3.19153e-17
-5.36487e-17
-1.21596e-16
-2.30683e-16
-1.53098e-16
1.4221e-15
9.80424e-15
4.96211e-14
2.05199e-13
7.72692e-13
2.75729e-12
9.07707e-12
3.01343e-11
9.14962e-11
2.7021e-10
8.02242e-10
2.17516e-09
5.18298e-09
1.0813e-08
1.78868e-08
2.50647e-08
3.06434e-08
3.14914e-08
2.01434e-08
-3.28315e-08
-1.946e-07
-6.9758e-07
-2.11024e-06
-5.3409e-06
-1.04422e-05
-1.11049e-05
1.82755e-05
9.75424e-05
4.49076e-05
-3.56548e-05
-3.08134e-05
-1.6715e-05
-8.65664e-06
-5.17975e-06
-4.93071e-06
-6.31941e-06
-1.77986e-06
1.26021e-05
2.3521e-05
1.01191e-05
-1.33574e-05
-6.92106e-06
-3.00555e-06
-1.42791e-06
-7.44892e-07
-3.77154e-07
-1.8943e-07
-9.7527e-08
-5.05297e-08
-2.72494e-08
-1.49832e-08
-8.30819e-09
-4.60214e-09
-2.52889e-09
-1.34925e-09
-7.21126e-10
-3.80501e-10
-1.71678e-10
-7.04651e-11
-9.24109e-11
-5.09768e-11
1.50181e-10
7.45012e-11
6.2239e-11
2.49277e-12
3.69765e-19
6.43089e-19
2.26604e-19
2.31355e-19
3.46056e-19
2.61104e-19
1.39979e-18
1.68743e-19
-5.49025e-19
5.2668e-20
4.34229e-19
4.76403e-19
-7.81898e-20
-4.68233e-20
5.11279e-19
-3.80216e-19
7.10311e-19
3.30047e-19
2.63375e-18
1.81411e-18
2.58745e-19
4.47044e-18
1.23504e-20
1.99896e-18
8.84067e-19
7.56674e-19
2.7316e-18
1.83531e-18
-6.67822e-18
-8.75452e-18
-2.95291e-17
-7.60431e-17
-1.56679e-16
-3.10489e-16
-2.14868e-16
1.76976e-15
1.23548e-14
5.84323e-14
2.47772e-13
9.41779e-13
3.28233e-12
1.09574e-11
3.44397e-11
1.07968e-10
3.16491e-10
9.23101e-10
2.43427e-09
5.83985e-09
1.11597e-08
1.82083e-08
2.59433e-08
3.10983e-08
3.12117e-08
1.65527e-08
-3.65803e-08
-2.06173e-07
-7.28118e-07
-2.16518e-06
-5.41263e-06
-1.05147e-05
-1.11486e-05
1.79774e-05
9.62416e-05
4.59023e-05
-3.48757e-05
-3.09015e-05
-1.69646e-05
-8.82525e-06
-5.24617e-06
-4.8883e-06
-6.32666e-06
-2.10955e-06
1.21728e-05
2.36261e-05
1.08977e-05
-1.33921e-05
-7.05983e-06
-3.06267e-06
-1.45319e-06
-7.56777e-07
-3.82436e-07
-1.919e-07
-9.87454e-08
-5.1148e-08
-2.75574e-08
-1.51363e-08
-8.38162e-09
-4.63449e-09
-2.5406e-09
-1.35273e-09
-7.21496e-10
-3.79686e-10
-1.66678e-10
-7.10771e-11
-9.70648e-11
-4.51661e-11
1.79528e-10
4.93942e-11
5.9912e-11
2.26278e-12
1.82971e-19
7.66139e-21
-1.36222e-19
5.50088e-19
1.35926e-19
3.5481e-19
9.37484e-19
1.26702e-18
2.68111e-19
-2.6857e-19
1.92303e-19
8.12923e-19
1.00707e-18
9.3082e-19
1.01688e-18
1.77841e-18
7.84148e-19
6.46747e-19
1.03063e-18
3.49731e-19
5.02153e-18
3.36387e-18
5.40413e-18
2.49417e-18
1.98893e-18
-2.54701e-18
2.5705e-18
-7.77229e-20
-3.81191e-18
-1.28315e-17
-3.74575e-17
-1.03778e-16
-2.33135e-16
-3.92792e-16
-3.20041e-16
1.99328e-15
1.55495e-14
6.90045e-14
2.93014e-13
1.15861e-12
3.9315e-12
1.26815e-11
4.00111e-11
1.24033e-10
3.63854e-10
1.03292e-09
2.7533e-09
6.04714e-09
1.14917e-08
1.90895e-08
2.66413e-08
3.14505e-08
3.09911e-08
1.48259e-08
-4.23547e-08
-2.19783e-07
-7.51994e-07
-2.21332e-06
-5.46919e-06
-1.05567e-05
-1.11937e-05
1.75883e-05
9.51228e-05
4.70824e-05
-3.43309e-05
-3.10194e-05
-1.71048e-05
-8.93428e-06
-5.30315e-06
-4.86004e-06
-6.33317e-06
-2.37173e-06
1.18673e-05
2.37266e-05
1.14453e-05
-1.33955e-05
-7.16983e-06
-3.10809e-06
-1.47355e-06
-7.66849e-07
-3.87026e-07
-1.94093e-07
-9.98265e-08
-5.1748e-08
-2.78765e-08
-1.53038e-08
-8.46697e-09
-4.67541e-09
-2.55812e-09
-1.36076e-09
-7.24781e-10
-3.80564e-10
-1.63487e-10
-7.24428e-11
-1.0057e-10
-4.10977e-11
2.03469e-10
3.09811e-11
5.96041e-11
2.08531e-12
8.36444e-20
3.75483e-19
2.27648e-20
2.72856e-19
4.05737e-19
3.31811e-19
-3.64836e-20
-2.82999e-19
2.75373e-19
1.89331e-19
2.24814e-19
1.36272e-19
2.81597e-19
1.47981e-18
1.04303e-18
1.56228e-18
8.83283e-19
6.45038e-19
9.08497e-19
-5.00676e-19
3.07758e-18
3.78621e-18
7.62958e-19
-7.93106e-19
9.6151e-19
4.11252e-18
-1.93722e-18
-4.22661e-20
-6.16666e-18
-1.72488e-17
-4.91463e-17
-1.2892e-16
-2.83799e-16
-5.10625e-16
-4.40392e-16
2.34803e-15
1.79248e-14
8.4937e-14
3.61341e-13
1.34196e-12
4.58999e-12
1.4984e-11
4.67517e-11
1.38364e-10
4.06742e-10
1.14478e-09
2.9152e-09
6.09359e-09
1.20368e-08
1.98218e-08
2.71087e-08
3.16333e-08
3.08004e-08
1.35748e-08
-4.62054e-08
-2.29903e-07
-7.70932e-07
-2.24277e-06
-5.50473e-06
-1.05795e-05
-1.12517e-05
1.71095e-05
9.40186e-05
4.83393e-05
-3.37845e-05
-3.11846e-05
-1.72826e-05
-9.05099e-06
-5.35617e-06
-4.83524e-06
-6.32882e-06
-2.5925e-06
1.15659e-05
2.37863e-05
1.19887e-05
-1.33717e-05
-7.2809e-06
-3.15479e-06
-1.49422e-06
-7.76995e-07
-3.91818e-07
-1.96404e-07
-1.00981e-07
-5.238e-08
-2.82149e-08
-1.54849e-08
-8.56219e-09
-4.7236e-09
-2.58093e-09
-1.37216e-09
-7.30192e-10
-3.8272e-10
-1.61934e-10
-7.42035e-11
-1.03661e-10
-3.83211e-11
2.22275e-10
1.81311e-11
5.92385e-11
1.96729e-12
1.93173e-19
1.25231e-19
7.46209e-19
1.06631e-18
4.79939e-19
4.96498e-19
6.24486e-19
8.74741e-19
2.05399e-19
7.00628e-20
-9.33355e-20
5.14495e-19
5.15021e-19
3.07554e-19
4.66631e-19
-3.71946e-20
1.06892e-18
-1.24846e-19
1.61035e-19
2.34526e-18
2.67943e-18
1.48487e-18
-7.14326e-20
-2.5126e-18
1.19504e-18
2.75855e-19
4.08163e-19
-5.14875e-19
-4.31275e-18
-2.76912e-17
-6.50195e-17
-1.52084e-16
-3.25958e-16
-6.35922e-16
-5.05626e-16
2.63248e-15
2.13314e-14
9.5876e-14
4.07644e-13
1.5244e-12
5.24088e-12
1.67776e-11
5.28076e-11
1.56396e-10
4.6051e-10
1.27133e-09
3.01496e-09
6.50921e-09
1.26389e-08
2.04319e-08
2.75719e-08
3.17882e-08
3.0575e-08
1.23509e-08
-4.96671e-08
-2.37635e-07
-7.84804e-07
-2.26178e-06
-5.51715e-06
-1.05758e-05
-1.13312e-05
1.6463e-05
9.28602e-05
4.99101e-05
-3.31211e-05
-3.13583e-05
-1.75143e-05
-9.18933e-06
-5.41404e-06
-4.81081e-06
-6.3186e-06
-2.82222e-06
1.12291e-05
2.38146e-05
1.25808e-05
-1.33124e-05
-7.40357e-06
-3.20683e-06
-1.51666e-06
-7.87966e-07
-3.97168e-07
-1.9901e-07
-1.02289e-07
-5.30765e-08
-2.85872e-08
-1.56855e-08
-8.66959e-09
-4.77982e-09
-2.6092e-09
-1.38673e-09
-7.37499e-10
-3.86035e-10
-1.61697e-10
-7.60437e-11
-1.06654e-10
-3.66055e-11
2.36999e-10
9.37215e-12
5.90566e-11
1.89477e-12
2.41353e-19
1.38152e-19
1.55911e-19
9.48697e-19
1.18056e-18
7.77093e-19
2.33956e-19
1.19697e-20
4.01414e-19
8.89496e-19
-3.21393e-19
2.92585e-19
2.94217e-19
1.61695e-19
1.10188e-19
-4.13287e-23
8.95492e-19
2.83062e-18
3.44464e-18
2.87055e-18
7.3968e-19
2.73126e-18
9.7617e-19
1.41712e-19
1.62089e-18
3.32873e-18
-1.1552e-18
-1.81855e-18
-1.57823e-17
-3.84054e-17
-7.79659e-17
-1.79592e-16
-4.00125e-16
-7.09294e-16
-5.87166e-16
3.25048e-15
2.60014e-14
1.07992e-13
4.57214e-13
1.70956e-12
5.78514e-12
1.89633e-11
5.88568e-11
1.764e-10
4.82573e-10
1.23582e-09
3.13305e-09
6.95082e-09
1.32047e-08
2.10212e-08
2.79072e-08
3.18938e-08
3.03884e-08
1.13867e-08
-5.21289e-08
-2.42863e-07
-7.9295e-07
-2.26802e-06
-5.50644e-06
-1.05508e-05
-1.14671e-05
1.54273e-05
9.11567e-05
5.23338e-05
-3.23741e-05
-3.16972e-05
-1.78017e-05
-9.34895e-06
-5.48184e-06
-4.77877e-06
-6.28133e-06
-3.09239e-06
1.08427e-05
2.38324e-05
1.3242e-05
-1.32063e-05
-7.54285e-06
-3.26621e-06
-1.54194e-06
-8.00311e-07
-4.03337e-07
-2.02027e-07
-1.03803e-07
-5.38604e-08
-2.90033e-08
-1.59098e-08
-8.79076e-09
-4.84448e-09
-2.64287e-09
-1.40426e-09
-7.4652e-10
-3.90408e-10
-1.62557e-10
-7.77932e-11
-1.08743e-10
-3.56773e-11
2.48218e-10
3.73177e-12
5.91301e-11
1.85663e-12
4.06392e-19
8.17057e-19
5.15258e-19
4.98004e-19
2.6265e-19
2.99938e-19
5.37564e-21
-3.7998e-20
6.75073e-19
1.20826e-18
3.1609e-19
1.49773e-18
8.63015e-19
4.41412e-19
2.4165e-18
2.92891e-18
2.2806e-18
8.67031e-19
2.30597e-18
4.31433e-18
2.62052e-18
1.74359e-18
1.38684e-18
2.0884e-18
1.73134e-18
-3.0046e-18
-7.41469e-19
-2.33859e-18
-1.61986e-17
-3.0115e-17
-9.35653e-17
-2.21741e-16
-4.69946e-16
-8.63137e-16
-7.98178e-16
2.98e-15
2.43505e-14
1.1711e-13
5.03153e-13
1.85315e-12
6.22812e-12
2.02292e-11
6.27247e-11
1.80473e-10
4.8911e-10
1.35078e-09
3.35207e-09
7.3307e-09
1.37705e-08
2.15147e-08
2.82031e-08
3.19763e-08
3.01801e-08
1.07779e-08
-5.37063e-08
-2.4651e-07
-7.96496e-07
-2.26404e-06
-5.47871e-06
-1.05068e-05
-1.15977e-05
1.43702e-05
8.93251e-05
5.49946e-05
-3.14072e-05
-3.20445e-05
-1.81709e-05
-9.54803e-06
-5.55706e-06
-4.72923e-06
-6.43752e-06
-3.30146e-06
1.04212e-05
2.37517e-05
1.39644e-05
-1.30325e-05
-7.71909e-06
-3.34097e-06
-1.57228e-06
-8.14721e-07
-4.10517e-07
-2.05501e-07
-1.0553e-07
-5.47304e-08
-2.94579e-08
-1.61548e-08
-8.92364e-09
-4.91619e-09
-2.68101e-09
-1.42416e-09
-7.56886e-10
-3.95652e-10
-1.64255e-10
-7.94002e-11
-1.10873e-10
-3.53678e-11
2.56593e-10
4.48011e-13
5.94488e-11
1.84424e-12
1.80463e-19
6.40483e-19
9.30856e-19
3.77308e-19
1.79574e-19
1.09539e-19
-1.51529e-19
-1.22687e-19
2.11361e-19
1.48272e-19
7.947e-20
3.7515e-19
-2.30234e-19
1.50157e-18
1.05365e-19
1.46632e-18
1.52544e-18
9.95881e-19
2.44217e-18
3.43623e-18
4.62697e-18
1.00012e-18
-9.40809e-19
7.92045e-19
1.57224e-18
2.84974e-18
5.05011e-19
-4.94453e-18
-1.02345e-17
-2.9566e-17
-9.33069e-17
-2.30052e-16
-5.67087e-16
-1.01809e-15
-1.20016e-15
2.20746e-15
2.53261e-14
1.24774e-13
5.50351e-13
1.98895e-12
6.67624e-12
2.13093e-11
6.44428e-11
1.85205e-10
5.34892e-10
1.45376e-09
3.57759e-09
7.75924e-09
1.43219e-08
2.20504e-08
2.85757e-08
3.20989e-08
2.96106e-08
1.08272e-08
-5.46384e-08
-2.48461e-07
-7.95675e-07
-2.24986e-06
-5.43118e-06
-1.04238e-05
-1.17317e-05
1.3161e-05
8.76577e-05
5.77623e-05
-3.04112e-05
-3.23906e-05
-1.85068e-05
-9.74742e-06
-5.64737e-06
-4.71428e-06
-6.40029e-06
-3.55423e-06
9.94678e-06
2.36767e-05
1.47173e-05
-1.28129e-05
-7.89391e-06
-3.41489e-06
-1.60267e-06
-8.29352e-07
-4.17985e-07
-2.09153e-07
-1.07357e-07
-5.56465e-08
-2.99432e-08
-1.64142e-08
-9.06423e-09
-4.99252e-09
-2.72234e-09
-1.4458e-09
-7.68247e-10
-4.01536e-10
-1.66584e-10
-8.08492e-11
-1.12826e-10
-3.54963e-11
2.62811e-10
-1.10928e-12
5.99623e-11
1.85045e-12
2.15465e-19
4.32544e-20
1.055e-18
7.31067e-19
2.76417e-19
2.07046e-19
7.64122e-19
1.79424e-18
9.92917e-19
9.98044e-19
4.18916e-19
1.35656e-18
3.77417e-19
4.78647e-19
7.7356e-19
8.23231e-19
1.43005e-18
1.87386e-18
-2.09987e-19
4.14803e-19
-3.34584e-19
1.89515e-18
1.96742e-18
1.82164e-18
4.41999e-20
3.09288e-18
5.54399e-19
-1.29262e-18
-9.79152e-18
-3.63922e-17
-1.04297e-16
-2.69543e-16
-5.88875e-16
-1.03549e-15
-1.02292e-15
3.56227e-15
2.88919e-14
1.38815e-13
5.76555e-13
2.16124e-12
7.15785e-12
2.26629e-11
6.81412e-11
1.99832e-10
5.74166e-10
1.54777e-09
3.77618e-09
8.11121e-09
1.47939e-08
2.25132e-08
2.89207e-08
3.22734e-08
2.93973e-08
1.12212e-08
-5.52915e-08
-2.49341e-07
-7.91754e-07
-2.23048e-06
-5.37382e-06
-1.03582e-05
-1.18762e-05
1.19569e-05
8.56275e-05
6.07645e-05
-2.93321e-05
-3.27675e-05
-1.88534e-05
-9.93904e-06
-5.73732e-06
-4.70624e-06
-6.35944e-06
-3.82212e-06
9.47562e-06
2.3583e-05
1.54344e-05
-1.25509e-05
-8.07193e-06
-3.49233e-06
-1.63412e-06
-8.4443e-07
-4.25682e-07
-2.12907e-07
-1.09233e-07
-5.65839e-08
-3.04394e-08
-1.66853e-08
-9.21375e-09
-5.07477e-09
-2.76674e-09
-1.46889e-09
-7.80454e-10
-4.08027e-10
-1.69439e-10
-8.21636e-11
-1.14611e-10
-3.58726e-11
2.6744e-10
-1.4083e-12
6.06095e-11
1.86959e-12
1.52583e-19
-6.92812e-20
1.12091e-18
9.58364e-19
8.4254e-19
1.78784e-19
8.33585e-19
8.09359e-19
-2.83318e-20
1.09685e-18
5.15882e-19
-4.53116e-19
1.15227e-18
6.7091e-19
4.01755e-19
1.48271e-18
-1.72268e-19
5.14522e-19
-2.73728e-19
5.23858e-19
3.48761e-18
2.03371e-18
1.42253e-18
1.50368e-18
2.09102e-18
3.19221e-18
6.21968e-19
-4.82301e-18
-1.83576e-17
-4.47466e-17
-1.20003e-16
-2.9757e-16
-6.36346e-16
-1.1644e-15
-1.12001e-15
3.61915e-15
3.0567e-14
1.4675e-13
6.11979e-13
2.31142e-12
7.69367e-12
2.44935e-11
7.31823e-11
2.16031e-10
6.06163e-10
1.62689e-09
3.94462e-09
8.36771e-09
1.50991e-08
2.2776e-08
2.90848e-08
3.23512e-08
2.94295e-08
1.15602e-08
-5.63213e-08
-2.49923e-07
-7.86262e-07
-2.20479e-06
-5.30941e-06
-1.02639e-05
-1.19944e-05
1.08462e-05
8.36795e-05
6.35487e-05
-2.81619e-05
-3.31277e-05
-1.92116e-05
-1.01413e-05
-5.83383e-06
-4.69543e-06
-6.32038e-06
-4.06409e-06
8.99861e-06
2.34113e-05
1.61396e-05
-1.22248e-05
-8.27193e-06
-3.57658e-06
-1.66757e-06
-8.60229e-07
-4.33918e-07
-2.1696e-07
-1.1126e-07
-5.75716e-08
-3.09559e-08
-1.69634e-08
-9.36591e-09
-5.15848e-09
-2.81287e-09
-1.49308e-09
-7.93151e-10
-4.14688e-10
-1.72499e-10
-8.33587e-11
-1.16304e-10
-3.66261e-11
2.70781e-10
-8.17946e-13
6.13835e-11
1.899e-12
-2.20413e-19
7.98639e-19
1.87677e-19
1.07618e-18
7.41529e-19
4.17415e-19
1.02002e-18
7.84071e-19
7.83519e-19
5.86708e-19
9.37785e-19
8.40104e-19
9.52176e-19
1.41629e-18
2.80062e-18
3.64608e-18
2.64612e-18
8.7781e-19
2.38333e-18
2.07256e-19
5.33181e-18
3.46837e-18
1.52123e-18
-3.65528e-19
-6.53775e-19
-7.39133e-19
1.8824e-18
-4.95668e-18
-2.27686e-17
-5.25104e-17
-1.23132e-16
-3.15951e-16
-6.95646e-16
-1.25421e-15
-1.21566e-15
3.77709e-15
3.30889e-14
1.5324e-13
6.54199e-13
2.44105e-12
8.00097e-12
2.52158e-11
7.72041e-11
2.27326e-10
6.33903e-10
1.69106e-09
4.0598e-09
8.54238e-09
1.53005e-08
2.29394e-08
2.91795e-08
3.24033e-08
2.94944e-08
1.1909e-08
-5.69112e-08
-2.49922e-07
-7.80443e-07
-2.18252e-06
-5.2546e-06
-1.01807e-05
-1.21035e-05
9.75833e-06
8.18596e-05
6.6163e-05
-2.699e-05
-3.34635e-05
-1.95779e-05
-1.03416e-05
-5.92263e-06
-4.68754e-06
-6.27626e-06
-4.27396e-06
8.54915e-06
2.32499e-05
1.67725e-05
-1.18719e-05
-8.46645e-06
-3.6594e-06
-1.70107e-06
-8.76191e-07
-4.42151e-07
-2.20979e-07
-1.1326e-07
-5.8554e-08
-3.14671e-08
-1.72375e-08
-9.51537e-09
-5.24048e-09
-2.85783e-09
-1.51656e-09
-8.05579e-10
-4.21365e-10
-1.75738e-10
-8.44589e-11
-1.18158e-10
-3.74059e-11
2.73207e-10
4.18888e-13
6.21801e-11
1.93317e-12
3.19433e-19
2.61894e-19
-1.60323e-19
4.45973e-19
1.91047e-19
1.94204e-20
4.35166e-19
-6.60662e-20
2.14614e-20
9.69572e-19
1.57144e-18
1.57203e-18
2.28044e-18
1.03289e-18
2.09739e-19
1.10927e-18
1.98147e-18
2.70297e-18
3.13488e-18
1.94613e-18
-6.88585e-19
-4.25833e-19
1.94041e-18
-1.06915e-18
-1.64517e-18
-8.94844e-19
-3.12598e-18
-7.72769e-18
-2.07233e-17
-5.69689e-17
-1.52795e-16
-3.48144e-16
-7.31994e-16
-1.32001e-15
-1.32426e-15
3.70682e-15
3.41336e-14
1.59572e-13
6.76865e-13
2.44324e-12
8.57111e-12
2.68496e-11
8.14543e-11
2.33292e-10
6.54329e-10
1.73568e-09
4.14451e-09
8.67194e-09
1.54489e-08
2.30589e-08
2.92471e-08
3.24356e-08
2.95582e-08
1.22125e-08
-5.70618e-08
-2.49052e-07
-7.72686e-07
-2.15711e-06
-5.19038e-06
-1.01001e-05
-1.22019e-05
8.75321e-06
8.00503e-05
6.86743e-05
-2.57971e-05
-3.37583e-05
-1.99078e-05
-1.05395e-05
-5.81835e-06
-4.68984e-06
-6.23908e-06
-4.46469e-06
8.12878e-06
2.30798e-05
1.73481e-05
-1.15089e-05
-8.65057e-06
-3.7387e-06
-1.73255e-06
-8.90987e-07
-4.49801e-07
-2.24708e-07
-1.1511e-07
-5.94558e-08
-3.19366e-08
-1.74895e-08
-9.65289e-09
-5.31603e-09
-2.8993e-09
-1.5382e-09
-8.16981e-10
-4.2745e-10
-1.78737e-10
-8.53627e-11
-1.19211e-10
-3.82053e-11
2.74789e-10
1.92656e-12
6.2923e-11
1.96769e-12
1.13819e-19
3.97957e-19
3.54838e-19
6.47273e-19
2.99716e-19
2.71093e-19
6.91066e-19
3.52712e-19
5.54425e-19
-1.39717e-19
2.50129e-20
2.34618e-18
9.56878e-19
2.74034e-19
1.11344e-18
-1.48249e-19
2.52498e-19
2.62718e-18
3.63798e-19
1.53156e-18
-3.93858e-19
4.70663e-19
8.78814e-19
8.93141e-19
2.4368e-18
-2.45459e-18
-2.30009e-18
-1.04277e-17
-2.59319e-17
-6.43659e-17
-1.47242e-16
-3.49565e-16
-7.64842e-16
-1.33818e-15
-1.18046e-15
4.61294e-15
3.57014e-14
1.78747e-13
7.26033e-13
2.66043e-12
8.81893e-12
2.74788e-11
8.34706e-11
2.37635e-10
6.69553e-10
1.77007e-09
4.20774e-09
8.76567e-09
1.55514e-08
2.31346e-08
2.92874e-08
3.24591e-08
2.96168e-08
1.24658e-08
-5.70443e-08
-2.47978e-07
-7.65481e-07
-2.13182e-06
-5.13219e-06
-1.00158e-05
-1.22729e-05
7.931e-06
7.85488e-05
7.06996e-05
-2.47285e-05
-3.39847e-05
-2.0182e-05
-1.07132e-05
-5.97561e-06
-4.71158e-06
-6.21085e-06
-4.63002e-06
7.77057e-06
2.29267e-05
1.78239e-05
-1.11739e-05
-8.81108e-06
-3.80732e-06
-1.75981e-06
-9.03758e-07
-4.56415e-07
-2.27913e-07
-1.16707e-07
-6.02333e-08
-3.23416e-08
-1.77069e-08
-9.7717e-09
-5.3814e-09
-2.93528e-09
-1.55701e-09
-8.26986e-10
-4.3279e-10
-1.81423e-10
-8.61481e-11
-1.20218e-10
-3.89246e-11
2.75902e-10
3.48554e-12
6.35783e-11
1.99953e-12
3.17565e-19
5.03566e-19
6.43847e-19
4.32716e-19
6.23696e-19
4.82e-19
8.87867e-19
1.15959e-18
6.65506e-19
1.42979e-20
3.45179e-20
1.7017e-19
6.73392e-19
1.22564e-19
1.86471e-18
1.18292e-18
1.37149e-19
6.42235e-19
7.0862e-19
2.14655e-18
1.57938e-18
-5.61442e-19
1.7143e-18
7.27799e-19
-2.88801e-19
3.48826e-18
-3.77123e-18
-6.67591e-18
-2.05809e-17
-5.35722e-17
-1.48218e-16
-3.68755e-16
-7.82523e-16
-1.34244e-15
-1.02782e-15
5.47057e-15
4.03383e-14
1.83766e-13
7.36833e-13
2.63972e-12
8.83895e-12
2.78203e-11
8.1968e-11
2.41135e-10
6.82618e-10
1.79591e-09
4.25496e-09
8.83554e-09
1.56276e-08
2.31906e-08
2.93158e-08
3.24753e-08
2.96591e-08
1.26536e-08
-5.69359e-08
-2.46927e-07
-7.5928e-07
-2.11322e-06
-5.09006e-06
-9.95875e-06
-1.23362e-05
7.25954e-06
7.71878e-05
7.23646e-05
-2.3812e-05
-3.41924e-05
-2.04178e-05
-1.08457e-05
-6.04344e-06
-4.71351e-06
-6.19236e-06
-4.74414e-06
7.49406e-06
2.27898e-05
1.81856e-05
-1.08928e-05
-8.93976e-06
-3.86238e-06
-1.78164e-06
-9.13961e-07
-4.61729e-07
-2.3052e-07
-1.17997e-07
-6.08592e-08
-3.26668e-08
-1.78813e-08
-9.86694e-09
-5.43382e-09
-2.96414e-09
-1.57208e-09
-8.34971e-10
-4.37037e-10
-1.83577e-10
-8.67706e-11
-1.21389e-10
-3.95852e-11
2.7655e-10
4.8538e-12
6.41051e-11
2.02611e-12
2.48135e-19
5.68565e-19
1.32068e-18
1.88078e-18
1.15084e-18
8.38374e-19
6.36383e-19
1.98594e-18
3.99078e-19
9.45875e-21
1.46882e-20
1.85591e-20
5.37624e-19
6.35361e-19
1.09989e-18
2.47594e-18
1.68103e-18
7.46951e-19
1.40088e-18
-1.37402e-19
2.9126e-18
1.42879e-18
9.96224e-19
2.55152e-18
3.70351e-18
1.85628e-18
-1.99322e-18
-1.18221e-17
-2.62735e-17
-5.74192e-17
-1.53638e-16
-3.68981e-16
-8.03613e-16
-1.47021e-15
-1.63815e-15
3.43698e-15
3.51615e-14
1.74282e-13
7.1666e-13
2.68784e-12
8.72587e-12
2.7531e-11
8.26616e-11
2.43407e-10
6.91796e-10
1.81427e-09
4.28803e-09
8.884e-09
1.56801e-08
2.32298e-08
2.93342e-08
3.24853e-08
2.96848e-08
1.27772e-08
-5.68465e-08
-2.46175e-07
-7.55055e-07
-2.09987e-06
-5.05911e-06
-9.91537e-06
-1.23732e-05
6.81286e-06
7.62804e-05
7.34689e-05
-2.31719e-05
-3.43239e-05
-2.05778e-05
-1.09357e-05
-6.08654e-06
-4.71387e-06
-6.16198e-06
-4.8272e-06
7.29786e-06
2.26962e-05
1.84358e-05
-1.0687e-05
-9.03142e-06
-3.90158e-06
-1.79716e-06
-9.21189e-07
-4.6549e-07
-2.32353e-07
-1.18905e-07
-6.13003e-08
-3.2896e-08
-1.80044e-08
-9.93416e-09
-5.47083e-09
-2.98455e-09
-1.58274e-09
-8.40625e-10
-4.40056e-10
-1.85119e-10
-8.71871e-11
-1.2196e-10
-4.0035e-11
2.76946e-10
5.8877e-12
6.44798e-11
2.0454e-12
8.93884e-20
-9.78381e-20
1.67174e-19
5.6332e-19
2.63624e-19
5.03694e-19
3.07857e-19
9.13382e-19
6.30921e-19
6.46299e-19
3.92105e-19
4.18286e-19
8.12755e-19
3.60675e-19
7.54173e-19
7.73785e-19
-7.20063e-20
2.72983e-19
8.47827e-19
1.73562e-18
1.20842e-18
2.12854e-19
3.76582e-19
3.03195e-18
2.83734e-18
4.44369e-18
-4.554e-18
-3.83554e-18
-2.39119e-17
-7.20966e-17
-1.59233e-16
-3.96855e-16
-8.20833e-16
-1.44994e-15
-1.36562e-15
4.65433e-15
3.96528e-14
1.80958e-13
7.64169e-13
2.75565e-12
9.01424e-12
2.80155e-11
8.31263e-11
2.47369e-10
6.96074e-10
1.82535e-09
4.30958e-09
8.91587e-09
1.57143e-08
2.32544e-08
2.93457e-08
3.24906e-08
2.96975e-08
1.28389e-08
-5.68369e-08
-2.45865e-07
-7.5304e-07
-2.09334e-06
-5.04347e-06
-9.89254e-06
-1.23899e-05
6.5864e-06
7.5814e-05
7.40317e-05
-2.28318e-05
-3.43927e-05
-2.06609e-05
-1.09825e-05
-6.10921e-06
-4.71393e-06
-6.16007e-06
-4.87062e-06
7.19198e-06
2.26439e-05
1.85659e-05
-1.05746e-05
-9.08028e-06
-3.92249e-06
-1.80542e-06
-9.25036e-07
-4.67501e-07
-2.33338e-07
-1.19395e-07
-6.15381e-08
-3.30198e-08
-1.80708e-08
-9.97045e-09
-5.49082e-09
-2.99557e-09
-1.5885e-09
-8.43678e-10
-4.4168e-10
-1.85963e-10
-8.73811e-11
-1.22106e-10
-4.02698e-11
2.77111e-10
6.44727e-12
6.46794e-11
2.05585e-12
-6.63808e-20
8.73975e-19
5.41365e-19
8.98353e-19
3.96882e-19
6.93052e-19
4.84044e-19
1.58913e-18
4.91463e-19
-2.18363e-20
1.34501e-18
1.25593e-18
1.69618e-18
3.80481e-19
6.87086e-19
1.09466e-18
7.85503e-20
9.70712e-19
7.83541e-19
1.80588e-18
2.0303e-18
5.36857e-19
7.8337e-19
1.28658e-18
8.13588e-19
-1.58716e-18
-4.42786e-18
-1.20806e-17
-2.55785e-17
-6.71397e-17
-1.58821e-16
-3.73223e-16
-7.71643e-16
-1.2795e-15
-6.19634e-16
6.91192e-15
4.39405e-14
1.89765e-13
7.67977e-13
2.71325e-12
9.15034e-12
2.84044e-11
8.47301e-11
2.48057e-10
6.98924e-10
1.83214e-09
4.32238e-09
8.93513e-09
1.57357e-08
2.3271e-08
2.93545e-08
3.24933e-08
2.96968e-08
1.28457e-08
-5.69434e-08
-2.45996e-07
-7.52872e-07
-2.0922e-06
-5.04022e-06
-9.88726e-06
-1.23919e-05
6.54125e-06
7.57193e-05
7.41543e-05
-2.27615e-05
-3.44082e-05
-2.06784e-05
-1.09918e-05
-6.1135e-06
-4.71397e-06
-6.15803e-06
-4.87762e-06
7.17641e-06
2.26354e-05
1.85865e-05
-1.05562e-05
-9.08784e-06
-3.92569e-06
-1.80668e-06
-9.25613e-07
-4.67801e-07
-2.33483e-07
-1.19467e-07
-6.15729e-08
-3.30378e-08
-1.80804e-08
-9.97568e-09
-5.49369e-09
-2.99714e-09
-1.58932e-09
-8.44108e-10
-4.41913e-10
-1.8609e-10
-8.74445e-11
-1.22307e-10
-4.0305e-11
2.77195e-10
6.52022e-12
6.47087e-11
2.0571e-12
7.97265e-20
2.35164e-19
1.09679e-18
1.27402e-18
5.51705e-19
1.15847e-19
-7.82274e-20
4.45368e-19
1.31778e-18
1.03957e-18
3.97115e-20
7.89164e-19
-1.29055e-19
6.97772e-19
1.10383e-18
7.84081e-19
1.2254e-18
6.59195e-19
5.54875e-20
4.14493e-19
8.77632e-19
2.86149e-19
5.11463e-19
-2.14836e-19
1.92382e-18
-1.36588e-18
-1.61465e-18
-8.7395e-18
-1.9941e-17
-6.08129e-17
-1.54539e-16
-3.69082e-16
-7.83939e-16
-1.21488e-15
-3.23397e-16
7.84885e-15
4.62347e-14
1.96042e-13
7.77331e-13
2.7906e-12
9.17604e-12
2.83365e-11
8.55412e-11
2.49081e-10
6.98563e-10
1.83528e-09
4.32794e-09
8.94398e-09
1.57469e-08
2.32813e-08
2.93609e-08
3.24925e-08
2.96771e-08
1.27771e-08
-5.72321e-08
-2.46786e-07
-7.5536e-07
-2.09861e-06
-5.0536e-06
-9.90479e-06
-1.23752e-05
6.72294e-06
7.60804e-05
7.37243e-05
-2.30194e-05
-3.43572e-05
-2.06153e-05
-1.0956e-05
-6.09622e-06
-4.71338e-06
-6.15475e-06
-4.84566e-06
7.25354e-06
2.2673e-05
1.84905e-05
-1.06384e-05
-9.05169e-06
-3.9102e-06
-1.80053e-06
-9.22757e-07
-4.66311e-07
-2.32755e-07
-1.19105e-07
-6.13974e-08
-3.29465e-08
-1.80314e-08
-9.9489e-09
-5.47891e-09
-2.98897e-09
-1.58505e-09
-8.41841e-10
-4.40697e-10
-1.85429e-10
-8.72416e-11
-1.21918e-10
-4.00909e-11
2.77097e-10
6.02937e-12
6.45532e-11
2.04866e-12
8.3256e-20
1.87179e-20
2.11582e-19
2.17289e-19
5.47679e-19
6.19459e-19
-1.52271e-20
9.30112e-19
4.95908e-19
1.31161e-19
-7.81594e-20
2.18642e-19
-1.88945e-21
1.58477e-18
1.33175e-18
2.74986e-18
3.08502e-18
5.67775e-19
5.20119e-19
1.53364e-18
1.65245e-18
2.90892e-18
8.53937e-19
3.62839e-18
1.89967e-18
7.24996e-19
-3.34892e-18
-9.28716e-18
-2.10877e-17
-5.16902e-17
-1.51499e-16
-3.81603e-16
-8.59005e-16
-1.59615e-15
-1.89623e-15
2.95663e-15
3.54705e-14
1.69933e-13
7.36725e-13
2.76461e-12
8.98097e-12
2.82487e-11
8.38484e-11
2.49204e-10
6.98501e-10
1.83309e-09
4.32453e-09
8.94053e-09
1.5746e-08
2.32842e-08
2.93645e-08
3.24887e-08
2.96415e-08
1.26391e-08
-5.7703e-08
-2.48243e-07
-7.60497e-07
-2.11244e-06
-5.08297e-06
-9.94355e-06
-1.23392e-05
7.12414e-06
7.68694e-05
7.27563e-05
-2.35784e-05
-3.4239e-05
-2.04752e-05
-1.08772e-05
-6.05812e-06
-4.71218e-06
-6.17154e-06
-4.77362e-06
7.41888e-06
2.27537e-05
1.82805e-05
-1.0813e-05
-8.97372e-06
-3.87682e-06
-1.7873e-06
-9.16603e-07
-4.63101e-07
-2.31182e-07
-1.18323e-07
-6.10187e-08
-3.27497e-08
-1.79258e-08
-9.89115e-09
-5.44707e-09
-2.97139e-09
-1.57587e-09
-8.36969e-10
-4.38092e-10
-1.84087e-10
-8.69064e-11
-1.21265e-10
-3.96742e-11
2.76917e-10
5.04646e-12
6.4227e-11
2.03103e-12
6.26395e-19
8.72914e-19
3.95466e-19
7.02781e-19
6.18585e-19
3.58892e-19
1.48135e-19
1.69305e-19
2.49577e-20
2.55884e-19
-1.90133e-20
7.70527e-20
3.27894e-19
3.24472e-19
4.23863e-20
8.46355e-19
1.21309e-18
1.95917e-18
1.51307e-18
2.38421e-18
8.75243e-19
8.43889e-19
1.9954e-18
1.39673e-18
2.3989e-18
4.9862e-18
6.50039e-20
-1.20975e-17
-2.07393e-17
-5.82458e-17
-1.54199e-16
-3.86353e-16
-8.56707e-16
-1.66277e-15
-2.10769e-15
2.3489e-15
3.36967e-14
1.70393e-13
7.36735e-13
2.75743e-12
8.99014e-12
2.7735e-11
8.34758e-11
2.49439e-10
6.9529e-10
1.826e-09
4.31314e-09
8.92632e-09
1.57349e-08
2.32813e-08
2.93664e-08
3.24814e-08
2.95851e-08
1.24176e-08
-5.84018e-08
-2.50494e-07
-7.68681e-07
-2.1348e-06
-5.13089e-06
-1.00069e-05
-1.22792e-05
7.7776e-06
7.81058e-05
7.11633e-05
-2.44349e-05
-3.40453e-05
-2.02544e-05
-1.07537e-05
-5.9988e-06
-4.71067e-06
-6.19892e-06
-4.67163e-06
7.67158e-06
2.28676e-05
1.79523e-05
-1.10694e-05
-8.85691e-06
-3.82685e-06
-1.76749e-06
-9.07374e-07
-4.58296e-07
-2.28838e-07
-1.17162e-07
-6.04553e-08
-3.24565e-08
-1.77684e-08
-9.80508e-09
-5.39963e-09
-2.9452e-09
-1.56218e-09
-8.29702e-10
-4.34219e-10
-1.82065e-10
-8.63745e-11
-1.20538e-10
-3.90444e-11
2.76592e-10
3.61906e-12
6.37389e-11
2.00508e-12
2.55103e-19
1.94983e-19
8.29901e-19
9.33098e-19
6.59029e-19
1.46074e-19
1.23391e-19
9.54963e-19
2.05566e-20
-2.71875e-19
9.98362e-19
6.5431e-19
1.08639e-18
1.58882e-18
7.61095e-19
1.305e-18
1.93071e-18
2.13437e-18
1.69541e-18
2.21876e-18
3.93448e-18
-5.33271e-19
-5.97283e-19
8.56247e-19
2.02745e-18
1.75469e-18
-7.80812e-19
-7.4083e-18
-2.30244e-17
-6.10604e-17
-1.48035e-16
-3.65365e-16
-7.95333e-16
-1.42938e-15
-1.3297e-15
4.56868e-15
3.88968e-14
1.78242e-13
7.12776e-13
2.61604e-12
8.93012e-12
2.75928e-11
8.18271e-11
2.45889e-10
6.90871e-10
1.81487e-09
4.29257e-09
8.89775e-09
1.57083e-08
2.32679e-08
2.93635e-08
3.24692e-08
2.95064e-08
1.21065e-08
-5.931e-08
-2.53393e-07
-7.7939e-07
-2.16433e-06
-5.19435e-06
-1.00896e-05
-1.21892e-05
8.69026e-06
7.97528e-05
6.89024e-05
-2.55291e-05
-3.37761e-05
-1.99617e-05
-1.05881e-05
-5.91611e-06