/*--------------------------------*- C++ -*----------------------------------*\
  =========                 |
  \\      /  F ield         | OpenFOAM: The Open Source CFD Toolbox
   \\    /   O peration     | Website:  https://openfoam.org
    \\  /    A nd           | Version:  10
     \\/     M anipulation  |
\*---------------------------------------------------------------------------*/
FoamFile
{
    format      ascii;
    class       volScalarField;
    location    "1";
    object      RR.PXC7H15;
}
// * * * * * * * * * * * * * * * * * * * * * * * * * * * * * * * * * * * * * //

dimensions      [1 -3 -1 0 0 0 0];

internalField   nonuniform List<scalar> 
4000
(
6.7429e-19
3.9732e-19
2.25393e-19
2.29934e-20
1.89964e-19
7.19708e-20
7.0197e-20
1.08162e-19
8.62876e-20
1.01935e-19
1.21832e-19
-2.54191e-20
1.24549e-19
-4.21593e-20
9.67403e-20
6.16653e-19
3.80113e-19
8.17625e-20
-5.41124e-20
1.72336e-19
-4.69367e-20
2.4527e-19
8.87944e-19
3.01433e-19
1.85462e-18
-1.31881e-18
1.41855e-18
9.88321e-20
9.93407e-19
-4.72345e-18
-6.00561e-18
-3.9545e-17
-9.83962e-17
-2.28362e-16
-4.8894e-16
-3.73213e-16
5.59957e-16
1.16212e-14
7.02181e-14
3.27519e-13
1.30199e-12
4.82134e-12
1.64177e-11
5.28709e-11
1.60849e-10
4.90751e-10
1.44524e-09
3.8604e-09
8.98002e-09
1.73907e-08
2.71944e-08
3.4329e-08
3.54918e-08
2.72081e-08
-6.17218e-09
-1.14925e-07
-4.15402e-07
-1.16401e-06
-2.47056e-06
-3.37125e-06
1.7753e-07
2.09811e-05
7.16736e-05
1.74196e-05
-2.24348e-05
-1.97002e-05
-1.34919e-05
-8.23132e-06
-5.71918e-06
-6.44261e-06
-7.85379e-06
-3.49018e-07
1.7991e-05
2.89409e-05
8.87214e-06
-1.67704e-05
-8.13998e-06
-3.58056e-06
-1.67326e-06
-8.28618e-07
-4.12564e-07
-2.07486e-07
-1.06838e-07
-5.63969e-08
-3.04693e-08
-1.68014e-08
-9.35492e-09
-5.20825e-09
-2.87384e-09
-1.561e-09
-8.33746e-10
-4.31787e-10
-2.1729e-10
-1.06594e-10
-1.03126e-10
-7.93726e-11
6.94674e-11
2.0997e-10
3.23193e-11
4.49227e-12
4.27611e-19
1.05799e-18
-1.78428e-19
7.8742e-19
9.98479e-19
3.92449e-19
6.16516e-19
7.6225e-20
-1.81612e-20
4.12003e-19
-1.40892e-19
-9.23229e-20
1.96844e-19
-2.33259e-19
-7.38926e-20
7.69892e-19
8.12082e-19
7.93502e-19
1.91377e-18
2.10092e-18
1.28676e-18
3.05235e-19
1.32904e-18
7.47597e-19
3.83831e-18
1.90106e-18
4.13874e-19
9.35945e-19
-3.56424e-18
-4.15805e-18
-2.03297e-17
-6.39137e-17
-1.61271e-16
-3.48387e-16
-7.69191e-16
-1.18872e-15
6.2648e-16
1.66454e-14
9.58016e-14
4.38765e-13
1.77131e-12
6.42304e-12
2.2009e-11
6.98364e-11
2.22506e-10
6.75676e-10
1.93222e-09
4.94242e-09
1.09425e-08
2.00839e-08
2.90317e-08
3.46864e-08
3.50691e-08
2.49992e-08
-1.32841e-08
-1.39997e-07
-4.67377e-07
-1.25727e-06
-2.60617e-06
-3.48677e-06
7.18875e-08
2.0576e-05
7.04032e-05
1.91383e-05
-2.21096e-05
-1.97309e-05
-1.37052e-05
-8.41495e-06
-5.76908e-06
-6.31518e-06
-7.9601e-06
-1.05786e-06
1.72587e-05
2.9328e-05
1.01827e-05
-1.68668e-05
-8.34174e-06
-3.66091e-06
-1.70666e-06
-8.4337e-07
-4.18906e-07
-2.10333e-07
-1.08183e-07
-5.70269e-08
-3.07635e-08
-1.69376e-08
-9.41411e-09
-5.23036e-09
-2.87927e-09
-1.55942e-09
-8.30438e-10
-4.29138e-10
-2.13719e-10
-1.05914e-10
-1.07644e-10
-7.16994e-11
1.0242e-10
1.70007e-10
3.71162e-11
3.98452e-12
2.65139e-18
2.50779e-19
2.48423e-19
8.84672e-19
3.6017e-18
2.66379e-19
-2.15859e-19
-6.89915e-19
1.48956e-18
8.0801e-20
8.46839e-19
4.28225e-19
1.59433e-19
6.07888e-19
-1.86831e-20
7.93912e-19
-2.29849e-19
-6.96705e-21
1.13217e-18
3.72954e-19
2.03477e-18
-8.69824e-19
1.26104e-19
2.13489e-18
2.65457e-18
6.18425e-18
1.0188e-18
3.9508e-18
-3.60768e-18
-6.44879e-18
-2.61592e-17
-9.42792e-17
-2.20372e-16
-5.49106e-16
-1.14579e-15
-1.86971e-15
3.28395e-16
2.02971e-14
1.23241e-13
5.49539e-13
2.18439e-12
7.60171e-12
2.72739e-11
8.60602e-11
2.77189e-10
8.23015e-10
2.32521e-09
5.79247e-09
1.22089e-08
2.15905e-08
3.0186e-08
3.52702e-08
3.45355e-08
2.16494e-08
-2.25405e-08
-1.53797e-07
-4.93118e-07
-1.30571e-06
-2.67562e-06
-3.57494e-06
-7.8632e-09
2.03443e-05
6.91119e-05
2.01262e-05
-2.17652e-05
-1.96371e-05
-1.37844e-05
-8.55448e-06
-5.82021e-06
-6.18387e-06
-7.97047e-06
-1.69812e-06
1.65082e-05
2.95691e-05
1.1519e-05
-1.695e-05
-8.569e-06
-3.75119e-06
-1.74452e-06
-8.60397e-07
-4.2673e-07
-2.13932e-07
-1.09874e-07
-5.77737e-08
-3.11126e-08
-1.71009e-08
-9.48639e-09
-5.25844e-09
-2.88614e-09
-1.55636e-09
-8.25319e-10
-4.25194e-10
-2.087e-10
-1.05433e-10
-1.1249e-10
-6.22677e-11
1.39887e-10
1.25901e-10
4.1023e-11
3.49024e-12
1.04871e-18
-2.31953e-19
5.61301e-19
1.40067e-18
8.392e-19
1.66545e-18
4.92833e-19
-4.07953e-19
7.85064e-19
1.32624e-18
2.77771e-18
2.01276e-18
1.00885e-19
4.77966e-19
5.90863e-19
8.18961e-19
2.07642e-18
1.68958e-18
2.64331e-18
1.09762e-18
3.79296e-19
4.8929e-18
4.71671e-18
-1.38128e-18
1.27498e-18
3.81847e-18
1.49237e-18
-3.39162e-18
-2.59275e-18
-1.44302e-17
-5.45225e-17
-1.09757e-16
-2.89698e-16
-7.31614e-16
-1.58993e-15
-2.48326e-15
-3.59065e-16
2.52231e-14
1.52838e-13
6.85965e-13
2.71827e-12
9.59825e-12
3.35936e-11
1.0597e-10
3.22424e-10
9.80252e-10
2.703e-09
6.50801e-09
1.36109e-08
2.23476e-08
3.06642e-08
3.57081e-08
3.36017e-08
1.83401e-08
-3.20485e-08
-1.62583e-07
-5.18836e-07
-1.35641e-06
-2.75589e-06
-3.6537e-06
-9.03787e-08
2.003e-05
6.81435e-05
2.12891e-05
-2.14563e-05
-1.95574e-05
-1.3877e-05
-8.70179e-06
-5.87991e-06
-6.08791e-06
-7.97833e-06
-2.28941e-06
1.58491e-05
2.97102e-05
1.27401e-05
-1.70128e-05
-8.72101e-06
-3.81975e-06
-1.77681e-06
-8.76039e-07
-4.34013e-07
-2.1754e-07
-1.12001e-07
-5.80309e-08
-3.12954e-08
-1.72082e-08
-9.54158e-09
-5.28436e-09
-2.90174e-09
-1.54404e-09
-8.17092e-10
-4.2063e-10
-2.03899e-10
-1.06e-10
-1.17395e-10
-5.29572e-11
1.7773e-10
8.50554e-11
4.37576e-11
3.07438e-12
5.11526e-19
8.85545e-19
2.98959e-19
2.9548e-19
4.44651e-19
3.19579e-19
1.89625e-18
1.73207e-19
-8.38384e-19
-9.59679e-21
5.1394e-19
5.65923e-19
-2.13303e-19
-1.74846e-19
5.85976e-19
-6.81518e-19
8.26867e-19
2.98399e-19
3.50185e-18
2.34955e-18
1.65464e-19
6.00556e-18
-2.30237e-19
2.52737e-18
9.43351e-19
7.19922e-19
3.37769e-18
1.94632e-18
-1.05775e-17
-1.59611e-17
-5.40014e-17
-1.51824e-16
-3.75047e-16
-9.64669e-16
-2.05275e-15
-3.2026e-15
-3.32097e-16
2.85908e-14
1.83869e-13
8.37543e-13
3.23666e-12
1.16037e-11
3.83762e-11
1.25199e-10
3.78061e-10
1.12863e-09
3.02589e-09
7.32873e-09
1.40277e-08
2.27183e-08
3.15768e-08
3.59318e-08
3.28348e-08
1.43484e-08
-3.56054e-08
-1.72823e-07
-5.44789e-07
-1.40088e-06
-2.81063e-06
-3.71575e-06
-1.40293e-07
1.98837e-05
6.73254e-05
2.1902e-05
-2.11517e-05
-1.94489e-05
-1.39678e-05
-8.82926e-06
-5.93593e-06
-6.02477e-06
-7.9866e-06
-2.70454e-06
1.53047e-05
2.98409e-05
1.37244e-05
-1.70599e-05
-8.89649e-06
-3.8922e-06
-1.80826e-06
-8.90259e-07
-4.40472e-07
-2.20606e-07
-1.13518e-07
-5.88009e-08
-3.16808e-08
-1.7401e-08
-9.63512e-09
-5.32642e-09
-2.91763e-09
-1.54892e-09
-8.17181e-10
-4.19861e-10
-2.01258e-10
-1.07829e-10
-1.2176e-10
-4.59623e-11
2.11596e-10
5.42235e-11
4.36205e-11
2.79816e-12
2.53391e-19
4.0306e-21
-2.02976e-19
7.46289e-19
1.60818e-19
4.59356e-19
1.26145e-18
1.71649e-18
3.2121e-19
-4.36765e-19
1.96358e-19
1.04836e-18
1.3133e-18
1.20375e-18
1.31102e-18
2.3486e-18
9.48328e-19
7.33717e-19
1.24754e-18
2.57316e-19
6.71827e-18
4.3892e-18
7.21173e-18
3.1569e-18
2.43726e-18
-3.90069e-18
3.17597e-18
-7.63082e-19
-6.84992e-18
-2.25488e-17
-6.82562e-17
-2.02636e-16
-5.22052e-16
-1.2052e-15
-2.58088e-15
-4.0365e-15
6.83055e-16
3.36801e-14
2.17822e-13
1.03623e-12
3.88912e-12
1.34395e-11
4.46153e-11
1.43912e-10
4.34929e-10
1.26348e-09
3.42263e-09
7.58273e-09
1.4432e-08
2.37586e-08
3.22637e-08
3.59987e-08
3.21917e-08
1.23231e-08
-4.10819e-08
-1.8487e-07
-5.65948e-07
-1.44384e-06
-2.86388e-06
-3.77183e-06
-2.04742e-07
1.96643e-05
6.66529e-05
2.26552e-05
-2.09571e-05
-1.94084e-05
-1.39883e-05
-8.90056e-06
-5.9832e-06
-5.98091e-06
-7.994e-06
-3.03376e-06
1.49177e-05
2.9967e-05
1.44169e-05
-1.70667e-05
-9.03566e-06
-3.9498e-06
-1.83369e-06
-9.02337e-07
-4.46071e-07
-2.23313e-07
-1.14856e-07
-5.95396e-08
-3.20739e-08
-1.7608e-08
-9.7411e-09
-5.37768e-09
-2.93988e-09
-1.5589e-09
-8.2065e-10
-4.21149e-10
-2.00186e-10
-1.10254e-10
-1.25032e-10
-4.11096e-11
2.39312e-10
3.17136e-11
4.44374e-11
2.58934e-12
1.16206e-19
5.1948e-19
2.18033e-20
3.65723e-19
5.47135e-19
4.39211e-19
-8.25448e-20
-4.3282e-19
3.29528e-19
2.00381e-19
2.38977e-19
1.05898e-19
3.00225e-19
1.95832e-18
1.33959e-18
2.0506e-18
1.08986e-18
7.52887e-19
1.11674e-18
-8.70154e-19
4.08644e-18
5.04499e-18
8.20378e-19
-1.37317e-18
1.02693e-18
5.38015e-18
-3.11313e-18
-7.64358e-19
-1.03995e-17
-2.98204e-17
-8.84826e-17
-2.49092e-16
-6.3213e-16
-1.50237e-15
-3.15454e-15
-4.85509e-15
-6.4798e-16
4.26272e-14
2.7264e-13
1.20429e-12
4.55979e-12
1.59425e-11
5.22794e-11
1.60625e-10
4.86453e-10
1.39986e-09
3.62048e-09
7.63212e-09
1.50985e-08
2.46046e-08
3.26893e-08
3.59787e-08
3.17168e-08
1.08964e-08
-4.47494e-08
-1.94074e-07
-5.83435e-07
-1.47232e-06
-2.90457e-06
-3.82008e-06
-2.79103e-07
1.93836e-05
6.60115e-05
2.34713e-05
-2.07605e-05
-1.94054e-05
-1.40502e-05
-8.98319e-06
-6.02832e-06
-5.94205e-06
-7.9877e-06
-3.31186e-06
1.45355e-05
3.00412e-05
1.51042e-05
-1.70386e-05
-9.17624e-06
-4.0089e-06
-1.85981e-06
-9.14597e-07
-4.5187e-07
-2.26129e-07
-1.16265e-07
-6.03085e-08
-3.24858e-08
-1.78285e-08
-9.85738e-09
-5.43675e-09
-2.96795e-09
-1.57268e-09
-8.26637e-10
-4.23911e-10
-2.00407e-10
-1.12965e-10
-1.28021e-10
-3.78261e-11
2.61201e-10
1.59214e-11
4.48455e-11
2.45138e-12
2.6366e-19
1.64511e-19
1.02352e-18
1.45829e-18
6.31904e-19
6.45474e-19
8.21854e-19
1.1663e-18
2.22858e-19
2.75915e-20
-2.06427e-19
6.28858e-19
6.17981e-19
3.14299e-19
5.28843e-19
-1.87323e-19
1.33855e-18
-3.36492e-19
5.11485e-20
3.07316e-18
3.52755e-18
1.85281e-18
-3.26617e-19
-3.75699e-18
1.38595e-18
7.6015e-20
1.55272e-19
-1.45135e-18
-7.99727e-18
-4.51905e-17
-1.14201e-16
-2.9561e-16
-7.37998e-16
-1.8235e-15
-3.68964e-15
-5.75224e-15
3.47653e-16
4.76345e-14
3.0711e-13
1.37023e-12
5.22053e-12
1.7885e-11
5.91758e-11
1.81926e-10
5.51772e-10
1.55694e-09
3.74482e-09
8.15201e-09
1.58363e-08
2.53012e-08
3.30849e-08
3.59007e-08
3.11912e-08
9.48711e-09
-4.81019e-08
-2.01357e-07
-5.9747e-07
-1.49553e-06
-2.93562e-06
-3.86535e-06
-3.8351e-07
1.89885e-05
6.53707e-05
2.44991e-05
-2.05233e-05
-1.93952e-05
-1.41461e-05
-9.08432e-06
-6.07748e-06
-5.90297e-06
-7.97372e-06
-3.60059e-06
1.41091e-05
3.00758e-05
1.58534e-05
-1.6966e-05
-9.33163e-06
-4.07457e-06
-1.88859e-06
-9.27979e-07
-4.58295e-07
-2.29266e-07
-1.17841e-07
-6.11468e-08
-3.2934e-08
-1.80702e-08
-9.98694e-09
-5.50466e-09
-3.00211e-09
-1.59007e-09
-8.34908e-10
-4.27943e-10
-2.01636e-10
-1.15669e-10
-1.31064e-10
-3.57795e-11
2.78296e-10
5.12088e-12
4.51437e-11
2.3674e-12
3.32775e-19
1.80187e-19
1.96447e-19
1.29273e-18
1.61244e-18
1.03956e-18
2.7289e-19
-4.94976e-20
4.82892e-19
1.14725e-18
-5.36006e-19
3.14791e-19
2.97464e-19
1.03756e-19
1.45596e-20
-1.48289e-19
1.08397e-18
3.76344e-18
4.6099e-18
3.81019e-18
8.22133e-19
3.57069e-18
1.12069e-18
-7.0685e-20
1.96011e-18
4.28016e-18
-2.08131e-18
-3.40505e-18
-2.43778e-17
-6.15593e-17
-1.36493e-16
-3.48023e-16
-8.87204e-16
-2.08071e-15
-4.31411e-15
-6.39275e-15
2.83347e-15
5.35687e-14
3.44444e-13
1.53907e-12
5.76598e-12
2.02671e-11
6.60731e-11
2.0552e-10
5.77874e-10
1.51083e-09
3.89004e-09
8.70163e-09
1.65231e-08
2.59551e-08
3.33429e-08
3.58115e-08
3.07693e-08
8.37746e-09
-5.05415e-08
-2.0658e-07
-6.07336e-07
-1.51109e-06
-2.95772e-06
-3.9109e-06
-5.38082e-07
1.83411e-05
6.44276e-05
2.6132e-05
-2.02827e-05
-1.94772e-05
-1.42652e-05
-9.19968e-06
-6.13383e-06
-5.85228e-06
-7.92501e-06
-3.93964e-06
1.36202e-05
3.00971e-05
1.66906e-05
-1.6834e-05
-9.50818e-06
-4.14938e-06
-1.92138e-06
-9.43157e-07
-4.65661e-07
-2.32865e-07
-1.19649e-07
-6.2083e-08
-3.34311e-08
-1.83384e-08
-1.01319e-08
-5.58204e-09
-3.04237e-09
-1.61085e-09
-8.45249e-10
-4.33099e-10
-2.0369e-10
-1.18218e-10
-1.33297e-10
-3.46491e-11
2.91343e-10
-1.87659e-12
4.54633e-11
2.32414e-12
5.63268e-19
1.12873e-18
6.98162e-19
6.66827e-19
3.34033e-19
3.79951e-19
-4.18515e-20
-1.1115e-19
8.71844e-19
1.60427e-18
3.46832e-19
1.97879e-18
1.08768e-18
4.88527e-19
3.22329e-18
3.91718e-18
2.99772e-18
1.00734e-18
2.98776e-18
5.77382e-18
3.41741e-18
2.19243e-18
1.67136e-18
2.63517e-18
2.08928e-18
-4.56247e-18
-1.55107e-18
-4.28175e-18
-2.54131e-17
-5.15115e-17
-1.63551e-16
-4.22343e-16
-1.03227e-15
-2.43305e-15
-5.00615e-15
-7.91348e-15
-2.36824e-15
5.68526e-14
3.78685e-13
1.66535e-12
6.20183e-12
2.15998e-11
7.03947e-11
2.10057e-10
5.85317e-10
1.65278e-09
4.16295e-09
9.17392e-09
1.7208e-08
2.65012e-08
3.35698e-08
3.57122e-08
3.03465e-08
7.66675e-09
-5.21605e-08
-2.10541e-07
-6.13714e-07
-1.51955e-06
-2.96892e-06
-3.94635e-06
-6.87247e-07
1.76999e-05
6.34418e-05
2.79372e-05
-1.99431e-05
-1.95464e-05
-1.4438e-05
-9.34815e-06
-6.1964e-06
-5.77757e-06
-8.12254e-06
-4.20231e-06
1.30867e-05
2.99934e-05
1.76052e-05
-1.66167e-05
-9.73175e-06
-4.24341e-06
-1.96101e-06
-9.60987e-07
-4.74208e-07
-2.36989e-07
-1.21699e-07
-6.31167e-08
-3.39715e-08
-1.86297e-08
-1.02899e-08
-5.66735e-09
-3.08771e-09
-1.63438e-09
-8.57236e-10
-4.39164e-10
-2.06369e-10
-1.20575e-10
-1.35702e-10
-3.42279e-11
3.01098e-10
-5.99059e-12
4.58469e-11
2.31136e-12
2.47315e-19
8.81048e-19
1.27427e-18
4.9852e-19
2.17521e-19
1.13146e-19
-2.54061e-19
-2.20216e-19
2.39453e-19
1.42614e-19
2.7761e-20
4.2068e-19
-4.33001e-19
1.96956e-18
2.2019e-20
1.91279e-18
1.99004e-18
1.24452e-18
3.24041e-18
4.59644e-18
6.24122e-18
1.17539e-18
-1.54809e-18
8.33488e-19
1.86526e-18
3.5509e-18
8.26517e-20
-8.06785e-18
-1.75027e-17
-5.19781e-17
-1.67404e-16
-4.47956e-16
-1.21038e-15
-2.79653e-15
-5.98129e-15
-1.01664e-14
-4.68503e-15
5.82151e-14
4.13136e-13
1.78547e-12
6.64946e-12
2.27457e-11
7.22923e-11
2.15572e-10
6.41091e-10
1.7804e-09
4.44511e-09
9.70867e-09
1.78808e-08
2.71058e-08
3.38829e-08
3.56172e-08
2.94079e-08
7.64356e-09
-5.32169e-08
-2.13105e-07
-6.16789e-07
-1.52182e-06
-2.97329e-06
-3.98476e-06
-8.81926e-07
1.69101e-05
6.25473e-05
2.98561e-05
-1.95864e-05
-1.96235e-05
-1.45791e-05
-9.49212e-06
-6.27621e-06
-5.74704e-06
-8.07343e-06
-4.51983e-06
1.24867e-05
2.98971e-05
1.85587e-05
-1.6341e-05
-9.95378e-06
-4.33627e-06
-2.00091e-06
-9.79182e-07
-4.8308e-07
-2.41308e-07
-1.23861e-07
-6.42016e-08
-3.45466e-08
-1.89372e-08
-1.04566e-08
-5.75784e-09
-3.13666e-09
-1.65991e-09
-8.70447e-10
-4.45887e-10
-2.09503e-10
-1.22734e-10
-1.3802e-10
-3.43073e-11
3.08353e-10
-7.98726e-12
4.62923e-11
2.32054e-12
2.97319e-19
4.92396e-20
1.44712e-18
9.9007e-19
3.52386e-19
2.45578e-19
1.00711e-18
2.43096e-18
1.30799e-18
1.31074e-18
4.94439e-19
1.79374e-18
4.27113e-19
5.6339e-19
9.69139e-19
1.02677e-18
1.85804e-18
2.46245e-18
-4.38879e-19
4.17953e-19
-6.40502e-19
2.44231e-18
2.4989e-18
2.25493e-18
-3.19648e-19
3.81652e-18
1.17271e-19
-3.03959e-18
-1.71963e-17
-6.24716e-17
-1.85363e-16
-5.14585e-16
-1.28758e-15
-2.95802e-15
-6.24852e-15
-9.73325e-15
-3.21778e-15
6.77197e-14
4.32577e-13
1.94753e-12
7.1442e-12
2.42246e-11
7.65204e-11
2.32948e-10
6.88966e-10
1.897e-09
4.69368e-09
1.01483e-08
1.84572e-08
2.76322e-08
3.42013e-08
3.56676e-08
2.90245e-08
7.9771e-09
-5.40186e-08
-2.14862e-07
-6.17519e-07
-1.51934e-06
-2.96886e-06
-4.01055e-06
-1.05626e-06
1.61654e-05
6.14484e-05
3.19446e-05
-1.92019e-05
-1.9725e-05
-1.47266e-05
-9.62605e-06
-6.35452e-06
-5.72515e-06
-8.01956e-06
-4.85625e-06
1.18911e-05
2.97771e-05
1.94668e-05
-1.60113e-05
-1.01801e-05
-4.43345e-06
-2.04237e-06
-9.98014e-07
-4.92212e-07
-2.45736e-07
-1.26077e-07
-6.53094e-08
-3.51332e-08
-1.92578e-08
-1.06335e-08
-5.85512e-09
-3.18913e-09
-1.68714e-09
-8.84699e-10
-4.53244e-10
-2.13049e-10
-1.24742e-10
-1.40237e-10
-3.46704e-11
3.13762e-10
-8.43899e-12
4.67787e-11
2.34497e-12
2.11421e-19
-1.01898e-19
1.54852e-18
1.31452e-18
1.14422e-18
2.07031e-19
1.10025e-18
1.05502e-18
-1.12623e-19
1.44555e-18
6.22378e-19
-7.34066e-19
1.49922e-18
8.21545e-19
4.34194e-19
1.92681e-18
-3.74346e-19
5.81525e-19
-5.35004e-19
5.63299e-19
4.67024e-18
2.63189e-18
1.75419e-18
1.82729e-18
2.60721e-18
4.06715e-18
2.99255e-19
-7.88718e-18
-2.91381e-17
-7.51572e-17
-2.11373e-16
-5.67537e-16
-1.39362e-15
-3.27885e-15
-6.73432e-15
-1.06329e-14
-3.46175e-15
7.15599e-14
4.61447e-13
2.09103e-12
7.7033e-12
2.62513e-11
8.23125e-11
2.52201e-10
7.2774e-10
1.99445e-09
4.90217e-09
1.04632e-08
1.88197e-08
2.79143e-08
3.43284e-08
3.56724e-08
2.89902e-08
8.25641e-09
-5.51424e-08
-2.16205e-07
-6.1665e-07
-1.513e-06
-2.95958e-06
-4.02924e-06
-1.21219e-06
1.54677e-05
6.03795e-05
3.39283e-05
-1.87669e-05
-1.98166e-05
-1.4878e-05
-9.7682e-06
-6.43869e-06
-5.6986e-06
-7.96792e-06
-5.16005e-06
1.12883e-05
2.95582e-05
2.036e-05
-1.56001e-05
-1.04346e-05
-4.53912e-06
-2.08651e-06
-1.01783e-06
-5.01993e-07
-2.50517e-07
-1.28468e-07
-6.64756e-08
-3.57434e-08
-1.95865e-08
-1.08133e-08
-5.95401e-09
-3.2436e-09
-1.71566e-09
-8.9956e-10
-4.6077e-10
-2.16692e-10
-1.26585e-10
-1.42401e-10
-3.54605e-11
3.17683e-10
-7.79523e-12
4.73169e-11
2.38157e-12
-3.09676e-19
1.10091e-18
2.44698e-19
1.47673e-18
1.00245e-18
5.4467e-19
1.37174e-18
1.03169e-18
1.02395e-18
7.33796e-19
1.21897e-18
1.07385e-18
1.22083e-18
1.85485e-18
3.76487e-18
4.92449e-18
3.52319e-18
1.07337e-18
3.15433e-18
1.12933e-19
7.21632e-18
4.59939e-18
1.88774e-18
-7.41321e-19
-1.1651e-18
-1.35047e-18
2.05332e-18
-8.1293e-18
-3.54705e-17
-8.64868e-17
-2.18554e-16
-6.03195e-16
-1.51032e-15
-3.4879e-15
-7.14527e-15
-1.12413e-14
-2.76913e-15
7.44129e-14
4.94884e-13
2.21067e-12
8.00479e-12
2.70034e-11
8.68897e-11
2.65461e-10
7.61071e-10
2.07265e-09
5.04325e-09
1.06753e-08
1.90545e-08
2.80815e-08
3.43897e-08
3.56663e-08
2.90095e-08
8.54861e-09
-5.58606e-08
-2.16986e-07
-6.14983e-07
-1.50644e-06
-2.95165e-06
-4.04996e-06
-1.37757e-06
1.47643e-05
5.93645e-05
3.58223e-05
-1.83194e-05
-1.99087e-05
-1.50389e-05
-9.91146e-06
-6.51556e-06
-5.6763e-06
-7.90979e-06
-5.42398e-06
1.07205e-05
2.93525e-05
2.11615e-05
-1.51546e-05
-1.06822e-05
-4.64285e-06
-2.13077e-06
-1.0379e-06
-5.11764e-07
-2.55252e-07
-1.30824e-07
-6.76347e-08
-3.63468e-08
-1.99101e-08
-1.09897e-08
-6.05081e-09
-3.29664e-09
-1.74334e-09
-9.14139e-10
-4.6829e-10
-2.20431e-10
-1.28302e-10
-1.44766e-10
-3.62856e-11
3.20534e-10
-6.35916e-12
4.78444e-11
2.42366e-12
4.40342e-19
3.51137e-19
-2.45439e-19
5.90358e-19
2.27745e-19
-1.06861e-20
5.67512e-19
-1.36557e-19
-2.67196e-20
1.27639e-18
2.09994e-18
2.0854e-18
3.05885e-18
1.30982e-18
1.61048e-19
1.40142e-18
2.59855e-18
3.59167e-18
4.20598e-18
2.55463e-18
-1.12454e-18
-7.7847e-19
2.49337e-18
-1.70104e-18
-2.52511e-18
-1.53064e-18
-4.80886e-18
-1.18962e-17
-3.26278e-17
-9.31766e-17
-2.6247e-16
-6.57672e-16
-1.58658e-15
-3.65836e-15
-7.44378e-15
-1.16463e-14
-3.64434e-15
7.70887e-14
5.11024e-13
2.20188e-12
8.5999e-12
2.88166e-11
9.17688e-11
2.72382e-10
7.8551e-10
2.12684e-09
5.14673e-09
1.0832e-08
1.92261e-08
2.82001e-08
3.44239e-08
3.56545e-08
2.90422e-08
8.80894e-09
-5.61655e-08
-2.16983e-07
-6.11709e-07
-1.49717e-06
-2.93765e-06
-4.0641e-06
-1.52611e-06
1.41209e-05
5.83569e-05
3.76568e-05
-1.78472e-05
-1.99855e-05
-1.51759e-05
-1.00524e-05
-6.35836e-06
-5.667e-06
-7.86035e-06
-5.66336e-06
1.01898e-05
2.91358e-05
2.18904e-05
-1.4696e-05
-1.09169e-05
-4.74216e-06
-2.17239e-06
-1.05657e-06
-5.2085e-07
-2.59645e-07
-1.33006e-07
-6.86985e-08
-3.69008e-08
-2.02075e-08
-1.11521e-08
-6.13997e-09
-3.34556e-09
-1.76884e-09
-9.27524e-10
-4.7514e-10
-2.23836e-10
-1.29737e-10
-1.4625e-10
-3.71433e-11
3.22403e-10
-4.58e-12
4.83183e-11
2.46597e-12
1.54368e-19
5.43005e-19
4.74231e-19
8.75656e-19
3.8584e-19
3.37126e-19
9.15014e-19
4.44025e-19
7.19369e-19
-2.56205e-19
-3.35665e-20
3.18216e-18
1.24081e-18
2.89437e-19
1.44381e-18
-3.39481e-19
2.04446e-19
3.49542e-18
3.27997e-19
1.95272e-18
-7.31243e-19
4.56059e-19
9.81799e-19
9.92135e-19
3.11296e-18
-3.74105e-18
-3.71086e-18
-1.5752e-17
-4.00924e-17
-1.04154e-16
-2.55972e-16
-6.63125e-16
-1.6531e-15
-3.75025e-15
-7.52975e-15
-1.15387e-14
-3.40778e-15
9.2158e-14
5.55183e-13
2.41644e-12
8.84697e-12
2.94643e-11
9.40061e-11
2.77385e-10
8.03679e-10
2.16852e-09
5.22373e-09
1.09447e-08
1.93433e-08
2.82732e-08
3.44416e-08
3.56478e-08
2.90776e-08
9.02799e-09
-5.62906e-08
-2.16689e-07
-6.0831e-07
-1.4871e-06
-2.92321e-06
-4.07057e-06
-1.64548e-06
1.35902e-05
5.75098e-05
3.91555e-05
-1.74101e-05
-2.0037e-05
-1.52829e-05
-1.01784e-05
-6.52206e-06
-5.68257e-06
-7.82216e-06
-5.87037e-06
9.73736e-06
2.89409e-05
2.2493e-05
-1.42723e-05
-1.11215e-05
-4.82806e-06
-2.20842e-06
-1.07271e-06
-5.28711e-07
-2.63421e-07
-1.34887e-07
-6.96155e-08
-3.73787e-08
-2.04641e-08
-1.12923e-08
-6.2171e-09
-3.38798e-09
-1.79101e-09
-9.39287e-10
-4.81151e-10
-2.26854e-10
-1.30984e-10
-1.47656e-10
-3.79179e-11
3.23721e-10
-2.73279e-12
4.87266e-11
2.50488e-12
4.41594e-19
6.89811e-19
8.76247e-19
5.8235e-19
8.45472e-19
6.40001e-19
1.19197e-18
1.55294e-18
8.59995e-19
-5.08893e-20
-2.52566e-20
1.55681e-19
8.50301e-19
7.04273e-20
2.47711e-18
1.51026e-18
5.75871e-20
7.45385e-19
8.2397e-19
2.80271e-18
1.99485e-18
-1.01368e-18
2.12167e-18
7.43431e-19
-7.29253e-19
4.4599e-18
-5.81724e-18
-1.05914e-17
-3.28597e-17
-8.96009e-17
-2.5944e-16
-6.99233e-16
-1.70172e-15
-3.83098e-15
-7.54636e-15
-1.11163e-14
4.15756e-16
9.452e-14
5.60011e-13
2.38267e-12
8.83594e-12
2.97872e-11
9.21292e-11
2.81369e-10
8.19262e-10
2.19976e-09
5.28112e-09
1.10285e-08
1.94299e-08
2.83262e-08
3.44515e-08
3.56407e-08
2.91038e-08
9.19185e-09
-5.62974e-08
-2.16252e-07
-6.05183e-07
-1.47936e-06
-2.91276e-06
-4.07786e-06
-1.74126e-06
1.31597e-05
5.67266e-05
4.04059e-05
-1.70416e-05
-2.00984e-05
-1.5378e-05
-1.02681e-05
-6.58166e-06
-5.6762e-06
-7.79652e-06
-6.01392e-06
9.38825e-06
2.87665e-05
2.29511e-05
-1.39167e-05
-1.12857e-05
-4.89696e-06
-2.23728e-06
-1.08563e-06
-5.35028e-07
-2.66492e-07
-1.36406e-07
-7.03536e-08
-3.77624e-08
-2.06699e-08
-1.14047e-08
-6.27894e-09
-3.42201e-09
-1.80878e-09
-9.4868e-10
-4.85933e-10
-2.29253e-10
-1.31956e-10
-1.49168e-10
-3.86338e-11
3.24496e-10
-1.10444e-12
4.90481e-11
2.5373e-12
3.40378e-19
7.72925e-19
1.81002e-18
2.57748e-18
1.55662e-18
1.12142e-18
8.32937e-19
2.70377e-18
4.97647e-19
-4.13623e-20
-3.81191e-20
-4.09144e-20
6.69043e-19
7.95288e-19
1.42213e-18
3.30899e-18
2.17899e-18
8.6653e-19
1.7553e-18
-4.05301e-19
3.83922e-18
1.7655e-18
1.12968e-18
3.27294e-18
4.85688e-18
2.2378e-18
-3.30097e-18
-1.77756e-17
-4.0967e-17
-9.54937e-17
-2.68521e-16
-6.98467e-16
-1.74206e-15
-4.03488e-15
-8.56593e-15
-1.4446e-14
-7.73378e-15
8.17008e-14
5.34635e-13
2.41958e-12
8.69244e-12
2.94211e-11
9.28731e-11
2.83948e-10
8.30202e-10
2.22193e-09
5.3212e-09
1.10865e-08
1.94892e-08
2.83621e-08
3.4456e-08
3.56323e-08
2.91168e-08
9.29813e-09
-5.62887e-08
-2.15921e-07
-6.02995e-07
-1.47366e-06
-2.90458e-06
-4.08125e-06
-1.80551e-06
1.28714e-05
5.6204e-05
4.12421e-05
-1.6779e-05
-2.01363e-05
-1.54415e-05
-1.0328e-05
-6.61841e-06
-5.67066e-06
-7.75737e-06
-6.118e-06
9.14042e-06
2.86473e-05
2.32679e-05
-1.36562e-05
-1.14027e-05
-4.946e-06
-2.25781e-06
-1.0948e-06
-5.39499e-07
-2.6865e-07
-1.37476e-07
-7.08737e-08
-3.80328e-08
-2.08151e-08
-1.1484e-08
-6.3226e-09
-3.44608e-09
-1.82134e-09
-9.55335e-10
-4.8933e-10
-2.30964e-10
-1.32623e-10
-1.49967e-10
-3.9122e-11
3.24972e-10
1.27851e-13
4.9274e-11
2.5608e-12
1.22847e-19
-1.42681e-19
2.20554e-19
7.62451e-19
3.39365e-19
6.70213e-19
3.88126e-19
1.21438e-18
8.21919e-19
8.39589e-19
4.84683e-19
5.14811e-19
1.05532e-18
4.15967e-19
9.55094e-19
9.7193e-19
-2.20557e-19
2.40176e-19
1.00431e-18
2.21293e-18
1.45693e-18
7.59255e-20
2.97322e-19
3.9559e-18
3.64699e-18
5.79173e-18
-6.93969e-18
-6.75067e-18
-3.77143e-17
-1.16087e-16
-2.77002e-16
-7.46142e-16
-1.77559e-15
-4.03816e-15
-8.28576e-15
-1.27184e-14
-2.21137e-15
8.89259e-14
5.79177e-13
2.48849e-12
9.00393e-12
2.99635e-11
9.3401e-11
2.88653e-10
8.35274e-10
2.2353e-09
5.34732e-09
1.11245e-08
1.95277e-08
2.83845e-08
3.44586e-08
3.56263e-08
2.91205e-08
9.34877e-09
-5.63201e-08
-2.15819e-07
-6.01985e-07
-1.47092e-06
-2.90049e-06
-4.08277e-06
-1.83789e-06
1.27248e-05
5.59345e-05
4.16712e-05
-1.66377e-05
-2.01564e-05
-1.54739e-05
-1.03589e-05
-6.63762e-06
-5.66748e-06
-7.75374e-06
-6.1724e-06
9.0069e-06
2.85809e-05
2.34327e-05
-1.3514e-05
-1.1465e-05
-4.97215e-06
-2.26873e-06
-1.09969e-06
-5.4189e-07
-2.69809e-07
-1.38053e-07
-7.1154e-08
-3.81787e-08
-2.08934e-08
-1.15268e-08
-6.34616e-09
-3.45906e-09
-1.82813e-09
-9.58925e-10
-4.91157e-10
-2.31889e-10
-1.32948e-10
-1.50219e-10
-3.93778e-11
3.25173e-10
7.97148e-13
4.93932e-11
2.57353e-12
-9.4348e-20
1.20774e-18
7.36223e-19
1.22433e-18
5.206e-19
9.28574e-19
6.23785e-19
2.1499e-18
6.12372e-19
-1.06682e-19
1.78383e-18
1.65259e-18
2.25809e-18
4.30034e-19
8.57797e-19
1.40866e-18
-1.37375e-20
1.21005e-18
9.42505e-19
2.33749e-18
2.62522e-18
5.34725e-19
8.46167e-19
1.49329e-18
8.20943e-19
-2.56626e-18
-6.73965e-18
-1.82092e-17
-4.02727e-17
-1.09937e-16
-2.78796e-16
-7.17154e-16
-1.72131e-15
-3.89908e-15
-7.44856e-15
-1.00777e-14
2.3986e-15
9.79432e-14
5.8289e-13
2.44514e-12
9.15435e-12
3.04078e-11
9.52634e-11
2.89442e-10
8.38676e-10
2.24353e-09
5.36289e-09
1.11476e-08
1.95522e-08
2.84004e-08
3.44618e-08
3.56206e-08
2.91119e-08
9.34887e-09
-5.64309e-08
-2.1598e-07
-6.02017e-07
-1.47058e-06
-2.89967e-06
-4.08267e-06
-1.84341e-06
1.26956e-05
5.58795e-05
4.1764e-05
-1.6608e-05
-2.01612e-05
-1.5481e-05
-1.0365e-05
-6.6412e-06
-5.66693e-06
-7.75104e-06
-6.18119e-06
8.98712e-06
2.857e-05
2.34588e-05
-1.34907e-05
-1.14747e-05
-4.97615e-06
-2.27039e-06
-1.10042e-06
-5.42247e-07
-2.6998e-07
-1.38138e-07
-7.11949e-08
-3.81999e-08
-2.09047e-08
-1.15329e-08
-6.34953e-09
-3.4609e-09
-1.82909e-09
-9.59431e-10
-4.91417e-10
-2.3203e-10
-1.33034e-10
-1.50454e-10
-3.94156e-11
3.2527e-10
8.80526e-13
4.94128e-11
2.57504e-12
1.10148e-19
3.18229e-19
1.50581e-18
1.7417e-18
7.28134e-19
1.16149e-19
-1.61252e-19
5.57211e-19
1.75835e-18
1.37113e-18
-1.82616e-20
1.02404e-18
-2.59869e-19
8.74395e-19
1.42755e-18
9.71422e-19
1.56826e-18
7.67068e-19
-8.18732e-20
3.99702e-19
1.01361e-18
1.64196e-19
4.53838e-19
-5.86163e-19
2.36825e-18
-2.25858e-18
-2.8382e-18
-1.36631e-17
-3.25497e-17
-1.01371e-16
-2.73784e-16
-7.1298e-16
-1.75754e-15
-3.82286e-15
-7.16322e-15
-9.25744e-15
4.8398e-15
1.03686e-13
5.92244e-13
2.52492e-12
9.18293e-12
3.03232e-11
9.61992e-11
2.90693e-10
8.38232e-10
2.24739e-09
5.3698e-09
1.11586e-08
1.95656e-08
2.84115e-08
3.4466e-08
3.56139e-08
2.90842e-08
9.27797e-09
-5.66758e-08
-2.16563e-07
-6.03616e-07
-1.47379e-06
-2.90366e-06
-4.08112e-06
-1.81568e-06
1.28137e-05
5.60868e-05
4.14349e-05
-1.67147e-05
-2.01458e-05
-1.5456e-05
-1.0341e-05
-6.6264e-06
-5.66859e-06
-7.74801e-06
-6.14112e-06
9.08438e-06
2.86178e-05
2.33372e-05
-1.35947e-05
-1.14285e-05
-4.95678e-06
-2.26226e-06
-1.0968e-06
-5.40475e-07
-2.69122e-07
-1.37711e-07
-7.09879e-08
-3.80922e-08
-2.08469e-08
-1.15013e-08
-6.33209e-09
-3.45127e-09
-1.82405e-09
-9.56754e-10
-4.90048e-10
-2.31313e-10
-1.32733e-10
-1.49955e-10
-3.91823e-11
3.25151e-10
2.94904e-13
4.93221e-11
2.56479e-12
1.14131e-19
2.0095e-20
2.82821e-19
2.84129e-19
7.31901e-19
8.24261e-19
-6.21708e-20
1.24339e-18
6.20911e-19
1.12516e-19
-1.8149e-19
2.31442e-19
-7.88533e-20
2.11374e-18
1.75154e-18
3.69834e-18
4.14895e-18
6.50881e-19
5.86072e-19
1.97633e-18
2.10806e-18
3.81967e-18
9.25383e-19
4.76668e-18
2.35825e-18
6.71552e-19
-5.19868e-18
-1.42914e-17
-3.39358e-17
-8.82261e-17
-2.67948e-16
-7.23273e-16
-1.85183e-15
-4.29032e-15
-8.96624e-15
-1.47952e-14
-7.85489e-15
7.70556e-14
5.51324e-13
2.49576e-12
8.97036e-12
3.02142e-11
9.42225e-11
2.90859e-10
8.38223e-10
2.24486e-09
5.36593e-09
1.11551e-08
1.95658e-08
2.84167e-08
3.44711e-08
3.56075e-08
2.90414e-08
9.14215e-09
-5.70573e-08
-2.17585e-07
-6.06811e-07
-1.48056e-06
-2.91244e-06
-4.07819e-06
-1.75593e-06
1.30738e-05
5.65389e-05
4.06986e-05
-1.69451e-05
-2.01095e-05
-1.53992e-05
-1.02879e-05
-6.59357e-06
-5.67228e-06
-7.77036e-06
-6.05098e-06
9.29309e-06
2.87205e-05
2.30714e-05
-1.38158e-05
-1.1329e-05
-4.91502e-06
-2.24478e-06
-1.08899e-06
-5.36656e-07
-2.67269e-07
-1.3679e-07
-7.05412e-08
-3.78599e-08
-2.07222e-08
-1.14331e-08
-6.29453e-09
-3.43053e-09
-1.81322e-09
-9.51014e-10
-4.87117e-10
-2.29834e-10
-1.3219e-10
-1.49096e-10
-3.87287e-11
3.24927e-10
-8.83246e-13
4.91313e-11
2.54333e-12
8.65956e-19
1.20332e-18
5.33835e-19
9.55758e-19
8.32461e-19
4.65206e-19
1.64933e-19
1.82149e-19
-2.84595e-20
2.89909e-19
-1.04952e-19
2.95346e-20
3.69255e-19
3.49634e-19
-6.6338e-20
1.03397e-18
1.53958e-18
2.56066e-18
1.93385e-18
3.13323e-18
1.02042e-18
9.71519e-19
2.56728e-18
1.71013e-18
3.0221e-18
6.51799e-18
-5.40667e-19
-1.82873e-17
-3.34735e-17
-9.71559e-17
-2.71042e-16
-7.28387e-16
-1.82882e-15
-4.34074e-15
-9.25328e-15
-1.59625e-14
-9.88709e-15
7.72128e-14
5.53387e-13
2.49269e-12
8.98383e-12
2.96593e-11
9.38217e-11
2.912e-10
8.34463e-10
2.23645e-09
5.35249e-09
1.11389e-08
1.95551e-08
2.84178e-08
3.44778e-08
3.56e-08
2.89771e-08
8.927e-09
-5.76137e-08
-2.19136e-07
-6.1184e-07
-1.49142e-06
-2.92667e-06
-4.07357e-06
-1.65889e-06
1.3497e-05
5.72414e-05
3.94993e-05
-1.72941e-05
-2.00496e-05
-1.5308e-05
-1.0204e-05
-6.54223e-06
-5.67836e-06
-7.8065e-06
-5.92259e-06
9.61229e-06
2.88654e-05
2.26557e-05
-1.414e-05
-1.118e-05
-4.8525e-06
-2.2186e-06
-1.07729e-06
-5.30944e-07
-2.64509e-07
-1.35422e-07
-6.98768e-08
-3.75141e-08
-2.05365e-08
-1.13316e-08
-6.23855e-09
-3.39965e-09
-1.79708e-09
-9.42459e-10
-4.82761e-10
-2.27618e-10
-1.31347e-10
-1.48074e-10
-3.80429e-11
3.24528e-10
-2.59144e-12
4.88428e-11
2.51175e-12
3.53397e-19
2.60597e-19
1.13976e-18
1.28046e-18
8.96333e-19
1.7552e-19
1.36345e-19
1.28606e-18
-2.52479e-20
-4.42659e-19
1.31546e-18
8.275e-19
1.41011e-18
2.08927e-18
9.21427e-19
1.67044e-18
2.53383e-18
2.79522e-18
2.16925e-18
2.8929e-18
5.27074e-18
-9.58904e-19
-1.06701e-18
9.17856e-19
2.51516e-18
2.08154e-18
-1.67881e-18
-1.17262e-17
-3.65212e-17
-1.00905e-16
-2.60882e-16
-6.982e-16
-1.73059e-15
-3.98937e-15
-8.09969e-15
-1.25367e-14
-2.16813e-15
8.78379e-14
5.35054e-13
2.35649e-12
8.93453e-12
2.95188e-11
9.19242e-11
2.87032e-10
8.29299e-10
2.22316e-09
5.3279e-09
1.11056e-08
1.95269e-08
2.84095e-08
3.44836e-08
3.55908e-08
2.8891e-08
8.62847e-09
-5.83196e-08
-2.21085e-07
-6.18294e-07
-1.50545e-06
-2.94483e-06
-4.06544e-06
-1.5234e-06
1.40845e-05
5.81638e-05
3.78232e-05
-1.77321e-05
-1.99658e-05
-1.5184e-05
-1.00885e-05