/*--------------------------------*- C++ -*----------------------------------*\
  =========                 |
  \\      /  F ield         | OpenFOAM: The Open Source CFD Toolbox
   \\    /   O peration     | Website:  https://openfoam.org
    \\  /    A nd           | Version:  10
     \\/     M anipulation  |
\*---------------------------------------------------------------------------*/
FoamFile
{
    format      ascii;
    class       volScalarField;
    location    "1";
    object      RR.PXC8H17;
}
// * * * * * * * * * * * * * * * * * * * * * * * * * * * * * * * * * * * * * //

dimensions      [1 -3 -1 0 0 0 0];

internalField   nonuniform List<scalar> 
4000
(
1.0358e-19
2.61892e-19
1.53235e-19
2.12743e-20
9.86901e-20
8.24223e-20
1.12825e-19
1.26276e-19
9.29676e-20
1.29687e-19
1.6266e-19
8.84724e-20
2.0785e-19
1.69942e-19
2.76489e-19
5.29691e-19
4.51923e-19
1.11618e-19
2.24737e-19
3.63794e-19
-8.37781e-20
2.49354e-19
5.44381e-20
1.26939e-19
1.59836e-18
-4.02786e-19
1.4855e-18
-3.93271e-19
-7.29757e-19
-4.25824e-19
-4.64211e-18
-2.75071e-17
-3.0168e-17
8.10633e-17
6.71544e-16
3.46665e-15
1.57083e-14
6.28353e-14
2.39048e-13
8.62069e-13
2.87045e-12
9.1921e-12
2.76321e-11
7.93358e-11
2.16231e-10
5.8661e-10
1.53153e-09
3.62307e-09
7.45468e-09
1.28096e-08
1.80259e-08
2.10946e-08
2.12232e-08
1.72535e-08
1.64327e-09
-5.26036e-08
-2.15135e-07
-6.72077e-07
-1.69514e-06
-3.28768e-06
-3.30177e-06
9.48774e-06
4.38071e-05
6.03741e-06
-1.14442e-05
-8.99268e-06
-6.91548e-06
-4.71494e-06
-3.60415e-06
-4.05198e-06
-4.66809e-06
7.81818e-07
1.30802e-05
1.81344e-05
2.55726e-06
-1.02015e-05
-4.78558e-06
-2.11183e-06
-9.81471e-07
-4.77862e-07
-2.36178e-07
-1.18691e-07
-6.11237e-08
-3.227e-08
-1.74367e-08
-9.61618e-09
-5.35481e-09
-2.98145e-09
-1.64511e-09
-8.93354e-10
-4.76584e-10
-2.46036e-10
-1.26872e-10
-6.88404e-11
-6.82291e-11
-4.8886e-11
2.98986e-11
1.08663e-10
8.86363e-11
9.13568e-12
2.73666e-19
1.09259e-18
-3.96073e-19
1.01443e-18
1.15408e-18
4.948e-19
3.78551e-19
1.30643e-20
-1.87536e-20
6.03049e-19
1.36732e-19
-2.62665e-20
4.57121e-19
1.35743e-19
2.53066e-19
6.59656e-19
8.92933e-19
8.30689e-19
1.33366e-18
1.99338e-18
1.70835e-18
-1.8011e-20
1.82193e-18
4.41737e-19
3.8829e-18
1.87002e-18
-9.99128e-19
1.8931e-18
-4.5732e-18
-5.98224e-18
-9.59805e-18
-4.58256e-17
-6.51994e-17
6.15638e-17
8.48995e-16
4.89671e-15
2.16309e-14
8.88407e-14
3.23874e-13
1.14334e-12
3.83865e-12
1.20411e-11
3.6319e-11
1.02764e-10
2.91094e-10
7.871e-10
1.99479e-09
4.51027e-09
8.81242e-09
1.43381e-08
1.88562e-08
2.11689e-08
2.09103e-08
1.61623e-08
-1.8109e-09
-6.51004e-08
-2.41586e-07
-7.2139e-07
-1.77034e-06
-3.34949e-06
-3.33488e-06
9.2189e-06
4.29612e-05
7.1099e-06
-1.14093e-05
-8.93995e-06
-6.97479e-06
-4.79026e-06
-3.62398e-06
-3.98374e-06
-4.75643e-06
2.85914e-07
1.2632e-05
1.85194e-05
3.36048e-06
-1.03265e-05
-4.90816e-06
-2.16076e-06
-1.00185e-06
-4.8676e-07
-2.40013e-07
-1.20424e-07
-6.19463e-08
-3.26573e-08
-1.76187e-08
-9.7012e-09
-5.39242e-09
-2.99606e-09
-1.64927e-09
-8.92973e-10
-4.74908e-10
-2.44661e-10
-1.25457e-10
-6.89519e-11
-7.0938e-11
-4.46049e-11
4.81738e-11
8.54067e-11
9.29998e-11
8.17337e-12
1.5043e-18
1.00951e-19
3.00779e-20
6.96684e-19
2.74505e-18
6.97506e-19
-3.31579e-19
-4.27312e-19
1.75835e-18
7.89768e-19
1.13767e-18
4.76784e-19
-1.45797e-19
5.7763e-19
4.51337e-20
7.46364e-19
4.37864e-19
7.79828e-19
1.69551e-18
5.82256e-19
1.41078e-18
-7.37404e-19
-4.28683e-19
7.01791e-19
1.78116e-18
5.28901e-18
2.55892e-18
1.62199e-18
-9.50521e-20
-3.59853e-18
-1.68303e-17
-6.32723e-17
-9.92279e-17
-1.47239e-17
1.00047e-15
6.08399e-15
2.76765e-14
1.11364e-13
4.15697e-13
1.42755e-12
4.72419e-12
1.42501e-11
4.45348e-11
1.24873e-10
3.55848e-10
9.39653e-10
2.34991e-09
5.1735e-09
9.64403e-09
1.51529e-08
1.93568e-08
2.13324e-08
2.05691e-08
1.45032e-08
-6.35634e-09
-7.2009e-08
-2.54746e-07
-7.47485e-07
-1.81197e-06
-3.40367e-06
-3.36509e-06
9.06815e-06
4.20498e-05
7.74258e-06
-1.13217e-05
-8.83418e-06
-6.96811e-06
-4.84031e-06
-3.64422e-06
-3.91014e-06
-4.77758e-06
-1.63534e-07
1.21646e-05
1.88079e-05
4.19217e-06
-1.04553e-05
-5.04656e-06
-2.21596e-06
-1.02502e-06
-4.97062e-07
-2.44774e-07
-1.22629e-07
-6.29853e-08
-3.31208e-08
-1.78374e-08
-9.80473e-09
-5.43918e-09
-3.01508e-09
-1.65472e-09
-8.91978e-10
-4.72283e-10
-2.42648e-10
-1.2345e-10
-6.92322e-11
-7.35407e-11
-3.92387e-11
6.96579e-11
6.37424e-11
9.6083e-11
7.23189e-12
5.76796e-19
4.55739e-20
1.66931e-19
1.19405e-18
1.05722e-18
1.4833e-18
1.8199e-18
1.96558e-19
2.23213e-19
1.14076e-18
2.30536e-18
1.94979e-18
1.01712e-18
1.12888e-18
1.23015e-18
8.48795e-19
1.93143e-18
9.97012e-19
2.43898e-18
1.28967e-18
-1.19822e-19
1.37079e-18
5.4364e-18
1.08851e-18
2.77611e-18
3.3254e-18
-1.88421e-18
-3.65527e-18
-2.90566e-18
-1.43369e-17
-4.41312e-17
-8.48556e-17
-1.40797e-16
-3.86957e-17
1.13784e-15
7.5384e-15
3.42473e-14
1.40767e-13
5.17846e-13
1.77821e-12
5.84188e-12
1.77668e-11
5.42852e-11
1.51721e-10
4.10151e-10
1.10245e-09
2.68708e-09
5.71098e-09
1.05301e-08
1.55505e-08
1.9543e-08
2.14143e-08
2.00324e-08
1.29155e-08
-1.09609e-08
-7.62098e-08
-2.67325e-07
-7.73483e-07
-1.85486e-06
-3.44369e-06
-3.3911e-06
8.86385e-06
4.1408e-05
8.47983e-06
-1.12611e-05
-8.74981e-06
-6.97398e-06
-4.89824e-06
-3.66985e-06
-3.85816e-06
-4.79708e-06
-5.76155e-07
1.17568e-05
1.90158e-05
4.96715e-06
-1.05444e-05
-5.14209e-06
-2.25895e-06
-1.04509e-06
-5.0664e-07
-2.49259e-07
-1.24851e-07
-6.428e-08
-3.33056e-08
-1.79615e-08
-9.87644e-09
-5.4763e-09
-3.03283e-09
-1.6652e-09
-8.85653e-10
-4.67854e-10
-2.40327e-10
-1.21583e-10
-7.00935e-11
-7.59943e-11
-3.39774e-11
9.17457e-11
4.09539e-11
9.80759e-11
6.43626e-12
5.86227e-19
7.09396e-19
4.51819e-19
6.86764e-19
4.05527e-19
1.78607e-19
1.46657e-18
1.8638e-19
-1.18767e-19
5.82611e-19
3.79601e-19
4.48917e-19
7.5288e-20
6.86425e-19
5.86767e-19
1.02613e-20
-1.27291e-21
1.12313e-18
3.46375e-18
3.33228e-18
1.9869e-18
5.34528e-18
2.3152e-18
2.43321e-18
1.78862e-18
-5.46787e-19
1.92275e-18
-6.8222e-19
-1.39796e-17
-2.11508e-17
-5.1411e-17
-1.06597e-16
-1.9043e-16
-9.50111e-17
1.39606e-15
9.40339e-15
4.26467e-14
1.66799e-13
6.24902e-13
2.15931e-12
6.93358e-12
2.13353e-11
6.18443e-11
1.77585e-10
4.7549e-10
1.25395e-09
2.96715e-09
6.32259e-09
1.0803e-08
1.57345e-08
1.98959e-08
2.14257e-08
1.96221e-08
1.10268e-08
-1.26776e-08
-8.11684e-08
-2.80179e-07
-7.96605e-07
-1.8861e-06
-3.47974e-06
-3.40545e-06
8.77444e-06
4.0836e-05
8.8691e-06
-1.11737e-05
-8.65738e-06
-6.98507e-06
-4.94964e-06
-3.69515e-06
-3.82418e-06
-4.81267e-06
-8.66228e-07
1.14135e-05
1.91932e-05
5.59136e-06
-1.06359e-05
-5.24932e-06
-2.30335e-06
-1.06428e-06
-5.15216e-07
-2.53185e-07
-1.26725e-07
-6.52091e-08
-3.37771e-08
-1.81983e-08
-9.99545e-09
-5.53448e-09
-3.05939e-09
-1.67558e-09
-8.89061e-10
-4.68132e-10
-2.40181e-10
-1.20869e-10
-7.16207e-11
-7.8047e-11
-3.00623e-11
1.11838e-10
2.43805e-11
9.61641e-11
5.90351e-12
1.28374e-19
1.58823e-19
1.043e-19
8.9632e-19
7.07461e-19
7.59728e-19
9.12856e-19
1.55359e-18
7.34048e-19
-1.79525e-19
5.22773e-20
7.55814e-19
1.45319e-18
6.50218e-19
1.36902e-18
1.72145e-18
1.1733e-18
1.85451e-18
1.17691e-18
6.68109e-19
4.66255e-18
3.58053e-18
6.00673e-18
3.05131e-18
2.80724e-18
-3.6364e-18
5.8695e-19
-3.21441e-18
-9.8554e-18
-2.88753e-17
-7.58708e-17
-1.65136e-16
-2.93233e-16
-1.41469e-16
1.61394e-15
1.1113e-14
5.12824e-14
1.96424e-13
7.36383e-13
2.63983e-12
8.25663e-12
2.45959e-11
7.15072e-11
2.02768e-10
5.42164e-10
1.38977e-09
3.31359e-09
6.51854e-09
1.10451e-08
1.62416e-08
2.01357e-08
2.13351e-08
1.92291e-08
1.0013e-08
-1.53254e-08
-8.70083e-08
-2.90469e-07
-8.17903e-07
-1.91313e-06
-3.50457e-06
-3.41992e-06
8.63797e-06
4.03834e-05
9.34761e-06
-1.1134e-05
-8.60841e-06
-6.96824e-06
-4.97277e-06
-3.71611e-06
-3.80111e-06
-4.82509e-06
-1.09743e-06
1.117e-05
1.93414e-05
6.036e-06
-1.06888e-05
-5.33326e-06
-2.33817e-06
-1.0796e-06
-5.22409e-07
-2.5654e-07
-1.28354e-07
-6.60153e-08
-3.4221e-08
-1.84346e-08
-1.01201e-08
-5.5985e-09
-3.09054e-09
-1.68926e-09
-8.95227e-10
-4.70273e-10
-2.41179e-10
-1.20917e-10
-7.34058e-11
-7.94513e-11
-2.74159e-11
1.28242e-10
1.19263e-11
9.67489e-11
5.50777e-12
1.84112e-19
8.3721e-19
7.85157e-20
7.11115e-19
4.35112e-19
5.22781e-19
-2.13216e-19
-1.55393e-19
2.14913e-19
2.50731e-19
9.00169e-19
5.91456e-19
1.20558e-18
1.7969e-18
1.31265e-18
1.46964e-18
9.70054e-20
1.58075e-18
1.78435e-18
1.01153e-18
2.3483e-18
3.7441e-18
-3.56037e-19
-1.05956e-18
3.9725e-18
4.52753e-18
-1.14043e-18
-4.27956e-18
-1.84345e-17
-3.10657e-17
-8.95111e-17
-2.08681e-16
-3.53931e-16
-2.36733e-16
1.79079e-15
1.31217e-14
6.21376e-14
2.39903e-13
9.00127e-13
3.04256e-12
9.57169e-12
2.88209e-11
8.28369e-11
2.25097e-10
6.02066e-10
1.5309e-09
3.49689e-09
6.56843e-09
1.14432e-08
1.66433e-08
2.02619e-08
2.12444e-08
1.89479e-08
9.30212e-09
-1.70934e-08
-9.14185e-08
-2.98815e-07
-8.31524e-07
-1.93199e-06
-3.52156e-06
-3.43956e-06
8.45835e-06
3.99601e-05
9.86231e-06
-1.10965e-05
-8.57934e-06
-6.97492e-06
-5.00406e-06
-3.73652e-06
-3.78032e-06
-4.82815e-06
-1.29247e-06
1.09276e-05
1.9454e-05
6.48281e-06
-1.07233e-05
-5.41744e-06
-2.37357e-06
-1.09525e-06
-5.29655e-07
-2.59968e-07
-1.30022e-07
-6.68502e-08
-3.46757e-08
-1.86781e-08
-1.02505e-08
-5.66735e-09
-3.12558e-09
-1.70597e-09
-9.03413e-10
-4.73789e-10
-2.42967e-10
-1.21561e-10
-7.53005e-11
-8.08019e-11
-2.56509e-11
1.41113e-10
3.20375e-12
9.70973e-11
5.2498e-12
1.92901e-19
1.47383e-19
6.88062e-19
1.1754e-18
6.87186e-19
7.06574e-19
7.12719e-19
9.3694e-19
4.32144e-19
6.48043e-19
-3.57655e-19
6.61291e-19
4.71831e-19
7.3221e-19
2.86375e-19
1.12911e-18
3.22019e-18
5.87266e-19
2.52404e-19
2.16523e-18
1.53823e-18
2.58978e-18
-1.39987e-18
-2.93759e-18
2.47717e-18
4.65758e-18
2.17231e-18
-1.4995e-18
-1.3288e-17
-4.65875e-17
-1.07412e-16
-2.39086e-16
-3.95539e-16
-3.21745e-16
2.05803e-15
1.49774e-14
7.12076e-14
2.70493e-13
1.0137e-12
3.4433e-12
1.08698e-11
3.209e-11
9.29064e-11
2.52228e-10
6.7435e-10
1.67913e-09
3.59181e-09
6.92794e-09
1.18725e-08
1.696e-08
2.03566e-08
2.11159e-08
1.86347e-08
8.5936e-09
-1.87078e-08
-9.48629e-08
-3.05256e-07
-8.41564e-07
-1.94284e-06
-3.52968e-06
-3.46883e-06
8.20288e-06
3.9555e-05
1.05038e-05
-1.10583e-05
-8.54739e-06
-6.99632e-06
-5.04452e-06
-3.75855e-06
-3.75908e-06
-4.82652e-06
-1.49626e-06
1.0654e-05
1.95457e-05
6.97736e-06
-1.07409e-05
-5.50964e-06
-2.4125e-06
-1.11239e-06
-5.37507e-07
-2.63718e-07
-1.31853e-07
-6.77701e-08
-3.51646e-08
-1.89394e-08
-1.03914e-08
-5.74287e-09
-3.16518e-09
-1.72589e-09
-9.1353e-10
-4.7856e-10
-2.45418e-10
-1.22656e-10
-7.714e-11
-8.23455e-11
-2.45899e-11
1.51204e-10
-2.77251e-12
9.75383e-11
5.09632e-12
2.61507e-19
2.34022e-19
6.00334e-19
1.9032e-18
1.68253e-18
8.60318e-19
4.1843e-19
3.91836e-20
4.85667e-19
5.03239e-19
-2.67538e-19
2.15012e-19
-4.1325e-19
-2.21305e-19
2.8715e-19
-3.425e-20
-8.21941e-20
1.78357e-18
3.01247e-18
1.4224e-18
2.85198e-20
2.62147e-19
2.61499e-19
-5.45882e-19
-6.97636e-19
-6.80886e-19
-3.99383e-18
-6.127e-18
-2.65627e-17
-6.70283e-17
-1.40503e-16
-2.86127e-16
-5.09349e-16
-3.6141e-16
2.40149e-15
1.73129e-14
8.12464e-14
3.03479e-13
1.13427e-12
3.84856e-12
1.19624e-11
3.60383e-11
1.02871e-10
2.82308e-10
7.05232e-10
1.63855e-09
3.71172e-09
7.31109e-09
1.22646e-08
1.72378e-08
2.03947e-08
2.09963e-08
1.83799e-08
8.03056e-09
-1.98773e-08
-9.72795e-08
-3.09477e-07
-8.46942e-07
-1.94598e-06
-3.53124e-06
-3.52032e-06
7.77685e-06
3.89443e-05
1.15262e-05
-1.1054e-05
-8.55574e-06
-7.02392e-06
-5.09e-06
-3.78252e-06
-3.73025e-06
-4.8033e-06
-1.7357e-06
1.03399e-05
1.96383e-05
7.53771e-06
-1.07345e-05
-5.61348e-06
-2.45641e-06
-1.13178e-06
-5.46348e-07
-2.67967e-07
-1.33928e-07
-6.88119e-08
-3.5704e-08
-1.92258e-08
-1.05459e-08
-5.82633e-09
-3.20972e-09
-1.74905e-09
-9.25465e-10
-4.84462e-10
-2.48445e-10
-1.24111e-10
-7.88437e-11
-8.34495e-11
-2.403e-11
1.58858e-10
-6.65445e-12
9.81878e-11
5.02153e-12
4.69691e-19
7.81204e-19
7.69818e-19
6.62108e-19
2.13049e-19
3.7647e-19
7.9242e-20
1.55054e-19
9.01715e-19
9.68768e-19
-1.20578e-19
6.84522e-19
1.48911e-18
5.04745e-19
2.37439e-18
3.22746e-18
2.81948e-18
8.1207e-19
3.37937e-18
3.99591e-18
3.94751e-18
2.9755e-18
1.5076e-18
3.75101e-19
3.1091e-18
-3.12102e-18
-2.15577e-18
-9.44512e-18
-2.88272e-17
-6.12322e-17
-1.55649e-16
-3.38761e-16
-6.01507e-16
-5.11318e-16
2.32587e-15
1.81578e-14
8.45085e-14
3.30375e-13
1.24639e-12
4.16969e-12
1.28654e-11
3.84127e-11
1.09413e-10
2.88696e-10
7.13799e-10
1.77376e-09
3.93489e-09
7.63277e-09
1.26437e-08
1.7465e-08
2.0427e-08
2.08797e-08
1.81308e-08
7.66614e-09
-2.06488e-08
-9.90592e-08
-3.11875e-07
-8.48317e-07
-1.94231e-06
-3.52527e-06
-3.57131e-06
7.34444e-06
3.832e-05
1.26579e-05
-1.10212e-05
-8.56003e-06
-7.07572e-06
-5.15171e-06
-3.80812e-06
-3.68249e-06
-4.95286e-06
-1.92176e-06
9.99334e-06
1.96535e-05
8.16409e-06
-1.06973e-05
-5.74379e-06
-2.51111e-06
-1.15508e-06
-5.56666e-07
-2.72856e-07
-1.36283e-07
-6.99826e-08
-3.6294e-08
-1.95342e-08
-1.0712e-08
-5.91648e-09
-3.25836e-09
-1.77489e-09
-9.38856e-10
-4.91258e-10
-2.51931e-10
-1.25836e-10
-8.04009e-11
-8.47884e-11
-2.3855e-11
1.64522e-10
-8.95709e-12
9.90549e-11
5.00547e-12
8.61434e-20
7.43969e-19
6.45046e-19
6.08015e-19
2.93933e-19
2.6015e-19
2.99952e-19
-3.07202e-19
6.68353e-19
1.47824e-19
8.11971e-20
1.18047e-19
4.1661e-20
1.46854e-18
4.73989e-19
8.70831e-19
1.49514e-18
6.57548e-19
1.77777e-18
4.76897e-18
4.12996e-18
2.90161e-18
1.66691e-19
1.36483e-18
4.07337e-18
3.57953e-18
3.46939e-18
-7.90449e-18
-2.23488e-17
-6.24344e-17
-1.6307e-16
-3.75835e-16
-7.19529e-16
-6.62276e-16
2.24836e-15
1.89193e-14
9.11213e-14
3.56561e-13
1.36448e-12
4.47127e-12
1.37616e-11
4.03985e-11
1.12231e-10
2.95514e-10
7.74006e-10
1.89293e-09
4.15936e-09
7.99244e-09
1.30159e-08
1.77256e-08
2.05063e-08
2.07684e-08
1.76402e-08
7.62527e-09
-2.11452e-08
-1.00142e-07
-3.12538e-07
-8.45897e-07
-1.93187e-06
-3.50705e-06
-3.62444e-06
6.83101e-06
3.77522e-05
1.38636e-05
-1.09868e-05
-8.57355e-06
-7.1126e-06
-5.21079e-06
-3.84525e-06
-3.66567e-06
-4.93038e-06
-2.14855e-06
9.5988e-06
1.96781e-05
8.82124e-06
-1.06296e-05
-5.87296e-06
-2.56493e-06
-1.17847e-06
-5.67165e-07
-2.77901e-07
-1.38734e-07
-7.12088e-08
-3.69089e-08
-1.986e-08
-1.08862e-08
-6.01086e-09
-3.30959e-09
-1.80259e-09
-9.53293e-10
-4.9871e-10
-2.5574e-10
-1.27746e-10
-8.1813e-11
-8.61531e-11
-2.39471e-11
1.68675e-10
-1.01014e-11
1.00096e-10
5.03163e-12
1.58488e-19
1.43477e-19
1.00582e-18
9.45173e-19
3.80581e-19
5.06348e-19
3.07243e-19
1.9215e-18
5.89709e-19
1.25552e-18
5.0573e-19
1.03209e-18
6.91324e-19
1.19077e-18
9.94254e-19
9.16466e-19
7.99233e-19
1.42958e-18
4.36365e-20
2.53115e-19
3.10122e-19
8.82233e-19
2.5811e-18
2.61036e-18
-2.26401e-19
1.40857e-18
-2.05566e-18
-8.36656e-18
-2.819e-17
-7.91175e-17
-1.97272e-16
-4.36082e-16
-7.53496e-16
-5.95214e-16
3.04177e-15
2.26256e-14
1.02404e-13
3.9179e-13
1.42736e-12
4.83874e-12
1.47017e-11
4.28215e-11
1.18269e-10
3.17073e-10
8.25462e-10
2.00114e-09
4.35655e-09
8.2873e-09
1.33379e-08
1.79672e-08
2.0625e-08
2.07684e-08
1.74491e-08
7.74922e-09
-2.15196e-08
-1.0081e-07
-3.11979e-07
-8.41185e-07
-1.91734e-06
-3.4924e-06
-3.68352e-06
6.33321e-06
3.70652e-05
1.51936e-05
-1.0948e-05
-8.60172e-06
-7.15278e-06
-5.26437e-06
-3.88132e-06
-3.65413e-06
-4.90541e-06
-2.3875e-06
9.20758e-06
1.96849e-05
9.45865e-06
-1.05322e-05
-6.00342e-06
-2.62075e-06
-1.2026e-06
-5.77958e-07
-2.83056e-07
-1.41228e-07
-7.24561e-08
-3.75321e-08
-2.01899e-08
-1.10665e-08
-6.11031e-09
-3.36429e-09
-1.8321e-09
-9.68599e-10
-5.06713e-10
-2.59865e-10
-1.29836e-10
-8.31144e-11
-8.75129e-11
-2.41814e-11
1.71714e-10
-1.03981e-11
1.01247e-10
5.0869e-12
2.26029e-19
-3.44167e-20
1.24545e-18
7.40639e-19
1.09106e-18
7.59141e-19
1.02353e-18
8.99219e-19
6.95928e-19
1.71903e-18
7.62955e-19
-6.2469e-19
6.43482e-19
5.16889e-19
2.56247e-20
2.12477e-18
1.51216e-18
4.77128e-19
1.14405e-18
1.3552e-18
4.75375e-18
2.39695e-18
1.91362e-18
1.30271e-18
3.44456e-18
5.07247e-18
-6.00855e-20
-5.44005e-18
-3.21097e-17
-8.87498e-17
-2.17312e-16
-4.71161e-16
-8.31037e-16
-7.04937e-16
3.07179e-15
2.33604e-14
1.06411e-13
4.12399e-13
1.50845e-12
5.15418e-12
1.57325e-11
4.6048e-11
1.2646e-10
3.40751e-10
8.67573e-10
2.09267e-09
4.52604e-09
8.50396e-09
1.35416e-08
1.80899e-08
2.06562e-08
2.07421e-08
1.7404e-08
7.85401e-09
-2.20469e-08
-1.01307e-07
-3.1069e-07
-8.34151e-07
-1.8998e-06
-3.46885e-06
-3.73212e-06
5.87238e-06
3.63746e-05
1.64606e-05
-1.08841e-05
-8.62831e-06
-7.19406e-06
-5.3217e-06
-3.91954e-06
-3.63943e-06
-4.88118e-06
-2.60368e-06
8.80845e-06
1.96241e-05
1.00989e-05
-1.03977e-05
-6.14968e-06
-2.68122e-06
-1.2282e-06
-5.89282e-07
-2.88553e-07
-1.43908e-07
-7.37956e-08
-3.81849e-08
-2.05313e-08
-1.12503e-08
-6.21089e-09
-3.41962e-09
-1.86258e-09
-9.84555e-10
-5.15026e-10
-2.64055e-10
-1.31941e-10
-8.43009e-11
-8.88865e-11
-2.46641e-11
1.73844e-10
-1.01067e-11
1.02528e-10
5.16576e-12
-1.06835e-20
8.85242e-19
2.77353e-19
7.97142e-19
6.84463e-19
1.46094e-19
1.52592e-18
7.0939e-19
6.15094e-19
9.74665e-19
6.04136e-19
1.02663e-18
1.48092e-18
2.12727e-18
3.82038e-18
4.27493e-18
2.77509e-18
1.54379e-18
3.26203e-18
4.39875e-19
7.8827e-18
3.795e-18
5.34369e-19
-1.0762e-18
-9.53814e-19
-2.83111e-18
-1.72088e-18
-7.80482e-18
-4.07472e-17
-9.85125e-17
-2.27226e-16
-5.13093e-16
-9.04066e-16
-8.02042e-16
3.08595e-15
2.42786e-14
1.13174e-13
4.30122e-13
1.60898e-12
5.43503e-12
1.63637e-11
4.74173e-11
1.33048e-10
3.57589e-10
9.04519e-10
2.16786e-09
4.64154e-09
8.64769e-09
1.36684e-08
1.81541e-08
2.06585e-08
2.07093e-08
1.7384e-08
7.96609e-09
-2.23783e-08
-1.0154e-07
-3.09123e-07
-8.27766e-07
-1.88467e-06
-3.44732e-06
-3.77745e-06
5.4117e-06
3.57143e-05
1.76793e-05
-1.08069e-05
-8.66064e-06
-7.24173e-06
-5.38103e-06
-3.95388e-06
-3.62667e-06
-4.85231e-06
-2.7926e-06
8.43146e-06
1.95655e-05
1.06816e-05
-1.02396e-05
-6.29144e-06
-2.74032e-06
-1.25378e-06
-6.00718e-07
-2.94025e-07
-1.46552e-07
-7.51112e-08
-3.88312e-08
-2.08676e-08
-1.14307e-08
-6.30925e-09
-3.47359e-09
-1.89217e-09
-9.99996e-10
-5.23163e-10
-2.68221e-10
-1.34068e-10
-8.53971e-11
-9.04399e-11
-2.51474e-11
1.75347e-10
-9.36784e-12
1.0379e-10
5.25453e-12
4.98426e-19
3.28236e-19
-9.55405e-20
9.80271e-19
5.45779e-19
1.89082e-19
3.54711e-19
-2.87236e-19
2.78961e-20
1.67905e-18
1.47975e-18
2.26352e-18
2.6815e-18
2.50847e-18
1.52467e-18
1.99315e-18
2.07152e-18
3.37585e-18
2.99922e-18
2.21278e-18
-4.9127e-19
-8.82131e-19
-6.80786e-21
-1.64151e-18
-3.70941e-18
-4.23765e-18
-7.04142e-18
-1.85747e-17
-3.96438e-17
-1.05911e-16
-2.65526e-16
-5.66815e-16
-9.76637e-16
-8.8467e-16
2.99947e-15
2.44411e-14
1.18513e-13
4.48698e-13
1.66555e-12
5.45536e-12
1.74558e-11
5.02484e-11
1.39841e-10
3.6642e-10
9.31482e-10
2.2196e-09
4.72512e-09
8.75199e-09
1.37582e-08
1.81947e-08
2.06483e-08
2.06786e-08
1.73745e-08
8.06627e-09
-2.25138e-08
-1.01397e-07
-3.06756e-07
-8.20038e-07
-1.86613e-06
-3.42631e-06
-3.81959e-06
4.99179e-06
3.50638e-05
1.88703e-05
-1.07087e-05
-8.68945e-06
-7.27909e-06
-5.4393e-06
-3.85661e-06
-3.6214e-06
-4.82805e-06
-2.96431e-06
8.07674e-06
1.94928e-05
1.12174e-05
-1.00678e-05
-6.42566e-06
-2.79684e-06
-1.2778e-06
-6.11343e-07
-2.99108e-07
-1.49002e-07
-7.63268e-08
-3.94233e-08
-2.11758e-08
-1.15961e-08
-6.39955e-09
-3.52321e-09
-1.91941e-09
-1.0142e-09
-5.30621e-10
-2.72005e-10
-1.35986e-10
-8.63066e-11
-9.14068e-11
-2.56423e-11
1.76282e-10
-8.43687e-12
1.04937e-10
5.34286e-12
8.26443e-20
6.99773e-19
7.32383e-19
1.25884e-18
9.96784e-19
7.74003e-19
4.98731e-19
1.87009e-19
1.29067e-18
2.67024e-19
4.83047e-20
1.61657e-18
3.61811e-19
8.60881e-19
1.27696e-18
-6.8017e-19
-3.20573e-20
3.15679e-18
-9.58153e-19
1.02748e-19
-6.44764e-19
6.38501e-19
-6.4738e-19
-3.71959e-19
2.70153e-18
-2.44554e-18
-8.526e-18
-2.1713e-17
-4.67185e-17
-1.15162e-16
-2.70238e-16
-5.7247e-16
-9.99011e-16
-8.3682e-16
3.67021e-15
2.78295e-14
1.25223e-13
4.96288e-13
1.77619e-12
5.90437e-12
1.7957e-11
5.14657e-11
1.43235e-10
3.72867e-10
9.51609e-10
2.25946e-09
4.78724e-09
8.82675e-09
1.38186e-08
1.82178e-08
2.06383e-08
2.06562e-08
1.73702e-08
8.15184e-09
-2.25637e-08
-1.01132e-07
-3.04453e-07
-8.12112e-07
-1.84874e-06
-3.40292e-06
-3.85154e-06
4.64622e-06
3.45178e-05
1.98493e-05
-1.06035e-05
-8.71014e-06
-7.30679e-06
-5.49263e-06
-3.94063e-06
-3.6297e-06
-4.80941e-06
-3.11271e-06
7.77427e-06
1.94229e-05
1.16658e-05
-9.90278e-06
-6.54269e-06
-2.84571e-06
-1.29858e-06
-6.20536e-07
-3.03504e-07
-1.51106e-07
-7.73748e-08
-3.99334e-08
-2.14415e-08
-1.17388e-08
-6.47749e-09
-3.5661e-09
-1.94302e-09
-1.02653e-09
-5.37173e-10
-2.75321e-10
-1.37679e-10
-8.70962e-11
-9.23436e-11
-2.60872e-11
1.76915e-10
-7.45499e-12
1.05931e-10
5.42358e-12
3.13771e-19
5.59271e-19
8.62037e-19
3.88695e-19
7.88376e-19
1.14e-18
1.12402e-18
1.24248e-18
1.39791e-18
6.31067e-19
7.6137e-19
5.28892e-19
6.42354e-19
6.60908e-19
1.34153e-18
9.88786e-19
6.92562e-19
6.05479e-19
1.2612e-18
1.7969e-18
2.42626e-18
-7.4783e-19
3.429e-18
-1.4455e-19
-5.60331e-19
2.58867e-18
-3.30543e-18
-1.67597e-17
-4.33784e-17
-1.07895e-16
-2.67433e-16
-5.87776e-16
-1.02281e-15
-7.81554e-16
4.08309e-15
2.9887e-14
1.34455e-13
5.10243e-13
1.80804e-12
5.88599e-12
1.80628e-11
5.21821e-11
1.41103e-10
3.7825e-10
9.68943e-10
2.28935e-09
4.83334e-09
8.8818e-09
1.38624e-08
1.8233e-08
2.06281e-08
2.0638e-08
1.73675e-08
8.21579e-09
-2.25601e-08
-1.0083e-07
-3.02421e-07
-8.06208e-07
-1.83623e-06
-3.38774e-06
-3.87855e-06
4.36827e-06
3.40021e-05
2.06729e-05
-1.05161e-05
-8.73769e-06
-7.33231e-06
-5.52828e-06
-3.96793e-06
-3.62576e-06
-4.79805e-06
-3.21583e-06
7.54028e-06
1.93526e-05
1.20108e-05
-9.76019e-06
-6.63655e-06
-2.88488e-06
-1.31523e-06
-6.27899e-07
-3.07036e-07
-1.52817e-07
-7.82211e-08
-4.03439e-08
-2.16548e-08
-1.18531e-08
-6.53993e-09
-3.60047e-09
-1.96195e-09
-1.03642e-09
-5.42405e-10
-2.77957e-10
-1.39019e-10
-8.77103e-11
-9.33746e-11
-2.65012e-11
1.77253e-10
-6.58828e-12
1.06723e-10
5.49059e-12
4.02001e-19
8.8529e-19
1.66686e-18
1.72168e-18
1.02555e-18
7.09882e-19
4.62219e-19
1.83553e-18
3.25695e-19
-9.75753e-20
-4.46937e-20
2.96547e-19
6.74677e-19
2.76262e-19
1.18203e-18
1.13385e-18
1.24463e-18
-2.49167e-19
1.9466e-18
1.05489e-18
2.61153e-18
6.1512e-19
1.0183e-20
1.38036e-18
4.29315e-18
3.46622e-19
-3.01637e-18
-1.8654e-17
-4.95709e-17
-1.11204e-16
-2.74662e-16
-6.02407e-16
-1.05591e-15
-9.51864e-16
3.499e-15
2.8124e-14
1.30293e-13
4.96892e-13
1.77514e-12
6.00435e-12
1.78904e-11
5.17519e-11
1.42286e-10
3.8172e-10
9.81043e-10
2.31042e-09
4.86537e-09
8.91953e-09
1.38917e-08
1.8242e-08
2.06196e-08
2.06231e-08
1.73636e-08
8.25706e-09
-2.25511e-08
-1.00609e-07
-3.01023e-07
-8.01937e-07
-1.82691e-06
-3.37577e-06
-3.89522e-06
4.18205e-06
3.36587e-05
2.12261e-05
-1.04491e-05
-8.75583e-06
-7.34903e-06
-5.55185e-06
-3.98434e-06
-3.62241e-06
-4.7762e-06
-3.29092e-06
7.37398e-06
1.93054e-05
1.22511e-05
-9.65382e-06
-6.70347e-06
-2.91278e-06
-1.32707e-06
-6.33127e-07
-3.09538e-07
-1.5402e-07
-7.88171e-08
-4.06332e-08
-2.1805e-08
-1.19338e-08
-6.584e-09
-3.62474e-09
-1.97534e-09
-1.04341e-09
-5.46111e-10
-2.79829e-10
-1.39972e-10
-8.81297e-11
-9.39158e-11
-2.67797e-11
1.77451e-10
-5.92947e-12
1.07281e-10
5.53905e-12
1.80542e-19
2.85906e-19
4.19309e-19
9.62652e-19
5.70201e-19
8.6722e-19
2.54676e-19
1.7939e-19
9.17887e-19
3.51314e-19
4.84676e-19
7.65882e-19
7.83815e-19
5.62906e-19
1.18105e-18
6.59037e-19
-3.8468e-22
1.40449e-18
1.32277e-18
3.22983e-18
8.77206e-19
2.30676e-18
2.20833e-18
3.17253e-18
5.47164e-18
9.11776e-19
-8.34092e-18
-1.31892e-17
-4.95657e-17
-1.30188e-16
-2.9085e-16
-6.34697e-16
-1.06745e-15
-9.1336e-16
3.9327e-15
2.94717e-14
1.36697e-13
5.08504e-13
1.87707e-12
6.13765e-12
1.84154e-11
5.25652e-11
1.4297e-10
3.87343e-10
9.8655e-10
2.32294e-09
4.88612e-09
8.94429e-09
1.39108e-08
1.82479e-08
2.06144e-08
2.06142e-08
1.73594e-08
8.27599e-09
-2.25633e-08
-1.00528e-07
-3.00367e-07
-7.99863e-07
-1.8222e-06
-3.36935e-06
-3.90287e-06
4.08721e-06
3.34808e-05
2.15108e-05
-1.04117e-05
-8.76586e-06
-7.35741e-06
-5.56383e-06
-3.99284e-06
-3.62048e-06
-4.77605e-06
-3.33011e-06
7.28403e-06
1.92779e-05
1.23768e-05
-9.59499e-06
-6.73916e-06
-2.92766e-06
-1.33337e-06
-6.35915e-07
-3.10876e-07
-1.54666e-07
-7.91386e-08
-4.07891e-08
-2.18862e-08
-1.19773e-08
-6.60779e-09
-3.63784e-09
-1.98256e-09
-1.04719e-09
-5.4811e-10
-2.80835e-10
-1.40484e-10
-8.83313e-11
-9.40801e-11
-2.69218e-11
1.77525e-10
-5.57371e-12
1.07578e-10
5.56527e-12
9.60113e-20
9.01616e-19
9.0229e-19
1.09052e-18
8.33791e-19
7.42985e-19
5.52912e-19
1.51821e-18
9.00932e-19
-8.08376e-20
1.27749e-18
8.06866e-19
1.51203e-18
-1.10667e-19
2.98232e-19
3.77722e-19
-3.05283e-19
1.71163e-18
6.1088e-19
3.01621e-18
3.619e-18
1.43678e-18
2.6038e-18
1.0158e-18
1.43021e-18
-5.11166e-18
-1.17656e-17
-2.5452e-17
-4.54348e-17
-1.25196e-16
-2.87363e-16
-6.09925e-16
-1.04829e-15
-7.72771e-16
4.4934e-15
3.12441e-14
1.40792e-13
5.20545e-13
1.87919e-12
6.04559e-12
1.86509e-11
5.32051e-11
1.45513e-10
3.88346e-10
9.90221e-10
2.33065e-09
4.8985e-09
8.95944e-09
1.39233e-08
1.82531e-08
2.06123e-08
2.06084e-08
1.73529e-08
8.27427e-09
-2.26154e-08
-1.00599e-07
-3.00348e-07
-7.9955e-07
-1.82126e-06
-3.36778e-06
-3.90365e-06
4.06849e-06
3.34447e-05
2.15727e-05
-1.04039e-05
-8.76845e-06
-7.35956e-06
-5.5663e-06
-3.99444e-06
-3.62013e-06
-4.77462e-06
-3.33645e-06
7.27089e-06
1.92734e-05
1.23967e-05
-9.58526e-06
-6.74469e-06
-2.92994e-06
-1.33433e-06
-6.36335e-07
-3.11076e-07
-1.54762e-07
-7.91857e-08
-4.08119e-08
-2.1898e-08
-1.19836e-08
-6.61122e-09
-3.63972e-09
-1.98359e-09
-1.04773e-09
-5.48394e-10
-2.8098e-10
-1.40565e-10
-8.83885e-11
-9.4246e-11
-2.69465e-11
1.77576e-10
-5.52586e-12
1.07622e-10
5.56841e-12
6.26273e-20
4.65e-19
1.14903e-18
1.13814e-18
7.15992e-19
6.6274e-19
8.4363e-19
1.83242e-18
2.01818e-18
1.83151e-18
4.76556e-19
1.83501e-18
2.5095e-20
-1.64933e-19
1.32881e-18
8.16411e-19
1.32096e-18
2.46105e-19
3.73399e-19
-9.6161e-20
2.68988e-18
1.48734e-18
5.30138e-19
2.09923e-18
9.05101e-19
-5.8362e-18
-5.57752e-18
-1.88039e-17
-4.67892e-17
-1.23366e-16
-2.91905e-16
-6.33662e-16
-1.18888e-15
-1.36805e-15
2.26554e-15
2.50089e-14
1.2853e-13
5.12978e-13
1.88035e-12
6.18874e-12
1.86947e-11
5.31252e-11
1.46849e-10
3.89672e-10
9.89746e-10
2.33434e-09
4.90409e-09
8.96687e-09
1.3931e-08
1.82585e-08
2.06141e-08
2.06057e-08
1.73415e-08
8.24316e-09
-2.27336e-08
-1.00904e-07
-3.01264e-07
-8.01744e-07
-1.82544e-06
-3.37259e-06
-3.89579e-06
4.14484e-06
3.3581e-05
2.13551e-05
-1.04324e-05
-8.76113e-06
-7.35309e-06
-5.55687e-06
-3.98778e-06
-3.6211e-06
-4.77101e-06
-3.30765e-06
7.33628e-06
1.92929e-05
1.23041e-05
-9.6282e-06
-6.71826e-06
-2.91891e-06
-1.32964e-06
-6.34267e-07
-3.10084e-07
-1.54284e-07
-7.89478e-08
-4.06967e-08
-2.18381e-08
-1.19515e-08
-6.59365e-09
-3.63003e-09
-1.97823e-09
-1.04492e-09
-5.46903e-10
-2.80226e-10
-1.40167e-10
-8.8197e-11
-9.38977e-11
-2.68098e-11
1.77541e-10
-5.84265e-12
1.07394e-10
5.54736e-12
2.51698e-19
-1.71703e-19
2.21712e-19
4.01005e-19
8.05465e-19
1.16642e-18
-1.09139e-19
7.60264e-19
3.66116e-19
2.54929e-19
1.5045e-19
3.50093e-19
-3.03278e-19
1.42841e-18
1.369e-18
1.94452e-18
3.71745e-18
3.30505e-21
9.3038e-19
3.32646e-19
1.71779e-18
2.90778e-18
8.29881e-19
5.07842e-18
3.01708e-18
-1.32719e-18
-8.362e-18
-1.9828e-17
-4.69527e-17
-1.12272e-16
-2.81807e-16
-6.20565e-16
-1.16408e-15
-1.28513e-15
2.39267e-15
2.44429e-14
1.2603e-13
4.81087e-13
1.81507e-12
6.1552e-12
1.83475e-11
5.30247e-11
1.44217e-10
3.89941e-10
9.8975e-10
2.33191e-09
4.90101e-09
8.96496e-09
1.39325e-08
1.82636e-08
2.06197e-08
2.06066e-08
1.73269e-08
8.18524e-09
-2.29185e-08
-1.01449e-07
-3.03119e-07
-8.06424e-07
-1.83459e-06
-3.38334e-06
-3.8792e-06
4.31352e-06
3.38781e-05
2.08693e-05
-1.04917e-05
-8.74392e-06
-7.3378e-06
-5.53583e-06
-3.97297e-06
-3.62336e-06
-4.78239e-06
-3.24283e-06
7.47648e-06
1.93344e-05
1.21022e-05
-9.71862e-06
-6.6613e-06
-2.89514e-06
-1.31955e-06
-6.29811e-07
-3.07947e-07
-1.5325e-07
-7.84349e-08
-4.04483e-08
-2.1709e-08
-1.18822e-08
-6.55578e-09
-3.60915e-09
-1.9667e-09
-1.0389e-09
-5.43706e-10
-2.78612e-10
-1.39347e-10
-8.7859e-11
-9.33079e-11
-2.65534e-11
1.77483e-10
-6.4715e-12
1.06914e-10
5.50327e-12
4.35617e-19
3.53364e-19
2.24099e-19
7.68115e-19
7.02307e-19
3.84976e-19
4.05256e-19
4.39086e-19
4.30161e-19
1.26855e-18
4.23717e-19
1.65709e-19
2.617e-19
2.25524e-19
5.5962e-19
1.57824e-18
2.7097e-18
3.47346e-18
2.47336e-18
2.99221e-18
1.3999e-18
7.97809e-19
1.51976e-18
2.7944e-18
2.99289e-18
3.05735e-18
-6.73444e-18
-2.25202e-17
-4.14649e-17
-1.12754e-16
-2.75662e-16
-6.23581e-16
-1.1297e-15
-1.24216e-15
2.5753e-15
2.56226e-14
1.25893e-13
4.87017e-13
1.8166e-12
6.13931e-12
1.8371e-11
5.20897e-11
1.43602e-10
3.90314e-10
9.85537e-10
2.32374e-09
4.89018e-09
8.95489e-09
1.39291e-08
1.82691e-08
2.06291e-08
2.06105e-08
1.73062e-08
8.09395e-09
-2.31889e-08
-1.02281e-07
-3.06054e-07
-8.13955e-07
-1.84948e-06
-3.40098e-06
-3.85177e-06
4.58897e-06
3.43374e-05
2.00822e-05
-1.05757e-05
-8.71622e-06
-7.31244e-06
-5.50222e-06
-3.9497e-06
-3.62711e-06
-4.80113e-06
-3.15038e-06
7.69044e-06
1.93891e-05
1.1789e-05
-9.84925e-06
-6.57603e-06
-2.85957e-06
-1.30444e-06
-6.23142e-07
-3.04752e-07
-1.51712e-07
-7.76728e-08
-4.00789e-08
-2.15168e-08
-1.17791e-08
-6.49938e-09
-3.57805e-09
-1.94953e-09
-1.02992e-09
-5.38944e-10
-2.76214e-10
-1.38118e-10
-8.73304e-11
-9.261e-11
-2.61616e-11
1.77358e-10
-7.38333e-12
1.06193e-10
5.43832e-12
5.49776e-19
4.45179e-19
9.74167e-19
1.45423e-18
1.06286e-18
2.31228e-19
4.49474e-19
1.40457e-18
3.16963e-19
4.74094e-20
7.16857e-19
9.75954e-19
2.06999e-18
2.19481e-18
9.58885e-19
1.0366e-18
1.6145e-18
2.48465e-18
7.36174e-19
1.00413e-18
1.43455e-18
-1.29818e-18
-9.70776e-19
1.31587e-18
1.48102e-18
1.76531e-18
-1.64771e-18
-2.12317e-17
-4.96196e-17
-1.17316e-16
-2.73022e-16
-5.9605e-16
-1.04941e-15
-8.93001e-16
3.75469e-15
2.86371e-14
1.3335e-13
5.00138e-13
1.75939e-12
5.84174e-12
1.8233e-11
5.18376e-11
1.41046e-10
3.8523e-10
9.79786e-10
2.31115e-09
4.87063e-09
8.93375e-09
1.39173e-08
1.82727e-08
2.06416e-08
2.06176e-08
1.72801e-08
7.96811e-09
-2.35337e-08
-1.03339e-07
-3.09858e-07
-8.23815e-07
-1.86903e-06
-3.42364e-06
-3.81167e-06
4.9725e-06
3.49331e-05
1.89897e-05
-1.06702e-05
-8.6791e-06
-7.27675e-06
-5.45504e-06
-3.91546e-06
-3.63086e-06
-4.82144e-06
-3.01952e-06
7.96612e-06
1.94631e-05
1.13799e-05
-1.00071e-05