/*--------------------------------*- C++ -*----------------------------------*\
  =========                 |
  \\      /  F ield         | OpenFOAM: The Open Source CFD Toolbox
   \\    /   O peration     | Website:  https://openfoam.org
    \\  /    A nd           | Version:  10
     \\/     M anipulation  |
\*---------------------------------------------------------------------------*/
FoamFile
{
    format      ascii;
    class       volScalarField;
    location    "1";
    object      RR.PXC6H13;
}
// * * * * * * * * * * * * * * * * * * * * * * * * * * * * * * * * * * * * * //

dimensions      [1 -3 -1 0 0 0 0];

internalField   nonuniform List<scalar> 
4000
(
5.87788e-19
3.45365e-19
1.95766e-19
2.06733e-20
1.62838e-19
6.14167e-20
5.95554e-20
9.18008e-20
7.23658e-20
8.47607e-20
1.00042e-19
-2.82855e-20
9.79606e-20
-4.7258e-20
6.83917e-20
5.10097e-19
3.0396e-19
4.42196e-20
-7.86768e-20
1.07425e-19
-8.83139e-20
1.51959e-19
6.88349e-19
1.75026e-19
1.48876e-18
-1.25326e-18
1.04642e-18
-1.56075e-19
4.06743e-19
-5.00784e-18
-7.79483e-18
-4.19032e-17
-1.09844e-16
-2.78316e-16
-6.89899e-16
-1.17217e-15
-2.3442e-15
8.30859e-16
3.05789e-14
1.85872e-13
8.26777e-13
3.26899e-12
1.16124e-11
3.85473e-11
1.20005e-10
3.73338e-10
1.11626e-09
3.01511e-09
7.06665e-09
1.37446e-08
2.15665e-08
2.75614e-08
2.97851e-08
2.75896e-08
1.30055e-08
-4.31972e-08
-2.21973e-07
-7.89034e-07
-2.39805e-06
-6.14158e-06
-1.08243e-05
1.62282e-06
5.39532e-05
2.48927e-05
-7.19242e-06
-1.03014e-05
-8.02495e-06
-5.30579e-06
-3.92285e-06
-3.85513e-06
-3.86207e-06
-1.88549e-07
7.0797e-06
1.03864e-05
1.9841e-06
-6.16145e-06
-2.95823e-06
-1.29321e-06
-6.16568e-07
-3.20322e-07
-1.62562e-07
-8.19251e-08
-4.21827e-08
-2.22657e-08
-1.20287e-08
-6.63257e-09
-3.69296e-09
-2.05625e-09
-1.13517e-09
-6.1773e-10
-3.32207e-10
-1.76059e-10
-8.75828e-11
-3.60558e-11
-3.68682e-11
-3.45094e-11
2.02094e-11
7.45891e-11
5.42546e-11
4.35791e-12
3.85672e-19
9.14803e-19
-1.48543e-19
6.71232e-19
8.48172e-19
3.28597e-19
5.19101e-19
5.59385e-20
-2.766e-20
3.39338e-19
-1.37753e-19
-1.02076e-19
1.41413e-19
-2.30701e-19
-9.95353e-20
6.18595e-19
6.51336e-19
6.28049e-19
1.58117e-18
1.7336e-18
1.02729e-18
1.77445e-19
1.04131e-18
5.29142e-19
3.16168e-18
1.46985e-18
1.48033e-19
5.0624e-19
-3.58403e-18
-4.80414e-18
-2.09179e-17
-6.59131e-17
-1.74054e-16
-4.13843e-16
-1.03325e-15
-2.24694e-15
-3.40444e-15
1.33433e-15
4.18069e-14
2.49778e-13
1.13116e-12
4.37175e-12
1.56252e-11
5.10578e-11
1.66551e-10
5.14953e-10
1.49376e-09
3.86099e-09
8.60653e-09
1.58547e-08
2.29986e-08
2.78314e-08
2.97738e-08
2.6724e-08
9.76889e-09
-5.48034e-08
-2.45231e-07
-8.31212e-07
-2.45796e-06
-6.16601e-06
-1.07635e-05
1.28632e-06
5.24173e-05
2.58593e-05
-6.78211e-06
-1.01815e-05
-8.09006e-06
-5.38183e-06
-3.94078e-06
-3.8169e-06
-3.94988e-06
-4.96847e-07
6.8119e-06
1.05788e-05
2.45373e-06
-6.22212e-06
-3.03294e-06
-1.323e-06
-6.28982e-07
-3.26011e-07
-1.65006e-07
-8.30131e-08
-4.26959e-08
-2.25055e-08
-1.21403e-08
-6.68401e-09
-3.71512e-09
-2.06437e-09
-1.13704e-09
-6.17054e-10
-3.31074e-10
-1.75257e-10
-8.54841e-11
-3.52568e-11
-3.88963e-11
-3.21488e-11
3.24181e-11
5.95137e-11
5.65644e-11
3.84666e-12
2.28052e-18
2.15364e-19
2.02555e-19
7.38463e-19
3.04742e-18
1.8936e-19
-2.26948e-19
-6.38636e-19
1.22487e-18
1.77852e-20
6.7063e-19
3.06868e-19
7.09812e-20
4.55105e-19
-8.5637e-20
6.07159e-19
-2.68211e-19
-7.39317e-20
8.95393e-19
2.27909e-19
1.63907e-18
-8.63744e-19
-2.68281e-20
1.67578e-18
2.10378e-18
5.07479e-18
5.98078e-19
2.98494e-18
-3.78254e-18
-7.13164e-18
-2.72555e-17
-9.57254e-17
-2.35987e-16
-6.23988e-16
-1.48596e-15
-3.22903e-15
-4.90194e-15
9.1494e-16
5.34955e-14
3.12211e-13
1.39227e-12
5.16182e-12
1.93808e-11
6.30062e-11
2.07838e-10
6.28084e-10
1.79911e-09
4.52657e-09
9.60283e-09
1.70424e-08
2.39163e-08
2.83845e-08
2.97185e-08
2.53027e-08
5.31512e-09
-6.14532e-08
-2.57107e-07
-8.54428e-07
-2.49478e-06
-6.1956e-06
-1.07153e-05
1.10044e-06
5.08522e-05
2.61845e-05
-6.42918e-06
-1.00183e-05
-8.08889e-06
-5.41753e-06
-3.95199e-06
-3.78367e-06
-3.98957e-06
-7.77177e-07
6.53457e-06
1.07171e-05
2.93736e-06
-6.28261e-06
-3.11717e-06
-1.35653e-06
-6.43173e-07
-3.32627e-07
-1.68024e-07
-8.43886e-08
-4.3341e-08
-2.2789e-08
-1.22723e-08
-6.74537e-09
-3.74198e-09
-2.07457e-09
-1.13935e-09
-6.1578e-10
-3.2931e-10
-1.73949e-10
-8.24626e-11
-3.44714e-11
-4.11234e-11
-2.9067e-11
4.66632e-11
4.59461e-11
5.80226e-11
3.35045e-12
9.12983e-19
-1.93289e-19
4.74813e-19
1.18957e-18
7.02241e-19
1.40053e-18
3.9767e-19
-3.8344e-19
6.19605e-19
1.07913e-18
2.32226e-18
1.66881e-18
3.06663e-20
3.4979e-19
4.35212e-19
6.15457e-19
1.68298e-18
1.34032e-18
2.15194e-18
8.21278e-19
1.96549e-19
4.03109e-18
3.86646e-18
-1.35794e-18
8.88165e-19
3.0058e-18
9.35821e-19
-3.40699e-18
-3.15925e-18
-1.45939e-17
-5.3099e-17
-1.1387e-16
-3.10922e-16
-8.28966e-16
-2.01853e-15
-4.22783e-15
-6.91769e-15
5.57941e-16
6.54464e-14
3.8867e-13
1.73266e-12
6.53188e-12
2.38941e-11
7.76663e-11
2.41744e-10
7.48419e-10
2.09174e-09
5.08528e-09
1.06979e-08
1.76131e-08
2.42767e-08
2.88577e-08
2.94888e-08
2.39144e-08
8.96005e-10
-6.49291e-08
-2.67196e-07
-8.74997e-07
-2.52416e-06
-6.20109e-06
-1.06575e-05
8.77184e-07
4.97331e-05
2.67844e-05
-6.14064e-06
-9.89561e-06
-8.09924e-06
-5.46841e-06
-3.96666e-06
-3.75268e-06
-4.02409e-06
-1.03772e-06
6.2908e-06
1.08122e-05
3.38502e-06
-6.32553e-06
-3.17482e-06
-1.38242e-06
-6.55563e-07
-3.38801e-07
-1.70847e-07
-8.5773e-08
-4.41598e-08
-2.28798e-08
-1.23386e-08
-6.78447e-09
-3.76201e-09
-2.08388e-09
-1.14507e-09
-6.10858e-10
-3.26333e-10
-1.72299e-10
-7.94885e-11
-3.42072e-11
-4.34036e-11
-2.58851e-11
6.13056e-11
3.1165e-11
5.88765e-11
2.93663e-12
4.58701e-19
7.70913e-19
2.61183e-19
2.48587e-19
3.64967e-19
2.49624e-19
1.58956e-18
1.06972e-19
-7.67367e-19
-6.47786e-20
3.74612e-19
4.14602e-19
-2.54712e-19
-2.22478e-19
4.12435e-19
-6.96691e-19
5.84229e-19
1.38038e-19
2.87815e-18
1.88185e-18
-9.3607e-22
4.97708e-18
-3.82911e-19
1.96218e-18
5.69337e-19
3.07509e-19
2.46948e-18
1.04874e-18
-1.02377e-17
-1.65767e-17
-5.46376e-17
-1.56326e-16
-4.03735e-16
-1.09035e-15
-2.59894e-15
-5.42201e-15
-8.59285e-15
-9.02522e-16
7.78214e-14
4.74605e-13
2.06067e-12
7.89841e-12
2.72631e-11
9.1779e-11
2.83519e-10
8.61668e-10
2.3413e-09
5.72261e-09
1.10099e-08
1.78864e-08
2.49946e-08
2.91305e-08
2.93153e-08
2.22591e-08
-6.50213e-10
-6.91951e-08
-2.77868e-07
-8.94258e-07
-2.54992e-06
-6.21723e-06
-1.06124e-05
7.85659e-07
4.87734e-05
2.69378e-05
-5.92276e-06
-9.7568e-06
-8.0991e-06
-5.50806e-06
-3.98132e-06
-3.73103e-06
-4.05061e-06
-1.22108e-06
6.08716e-06
1.08949e-05
3.7452e-06
-6.36722e-06
-3.24005e-06
-1.40935e-06
-6.67462e-07
-3.44348e-07
-1.73325e-07
-8.6937e-08
-4.47347e-08
-2.31715e-08
-1.24842e-08
-6.85711e-09
-3.79705e-09
-2.09949e-09
-1.15088e-09
-6.1269e-10
-3.26614e-10
-1.7207e-10
-7.74436e-11
-3.45219e-11
-4.53865e-11
-2.34574e-11
7.45867e-11
2.03762e-11
5.74285e-11
2.66365e-12
2.38548e-19
1.92596e-20
-1.62773e-19
6.44867e-19
1.35569e-19
3.853e-19
1.06036e-18
1.44813e-18
2.4806e-19
-4.13322e-19
1.19563e-19
8.39668e-19
1.06612e-18
9.70968e-19
1.05498e-18
1.92029e-18
7.07676e-19
5.03513e-19
9.19583e-19
3.34678e-20
5.52007e-18
3.50745e-18
5.90545e-18
2.4312e-18
1.78536e-18
-3.68487e-18
2.29271e-18
-1.34646e-18
-7.30565e-18
-2.29372e-17
-6.90623e-17
-2.07216e-16
-5.51763e-16
-1.36087e-15
-3.2396e-15
-6.69201e-15
-9.3921e-15
-1.30157e-15
9.21137e-14
5.90179e-13
2.48055e-12
9.14452e-12
3.16863e-11
1.05472e-10
3.26145e-10
9.64545e-10
2.64741e-09
5.91544e-09
1.13171e-08
1.86879e-08
2.55187e-08
2.92318e-08
2.90308e-08
2.13384e-08
-3.10516e-09
-7.43111e-08
-2.86032e-07
-9.0989e-07
-2.56586e-06
-6.21172e-06
-1.05547e-05
6.42034e-07
4.79817e-05
2.73051e-05
-5.71663e-06
-9.68027e-06
-8.09207e-06
-5.52483e-06
-3.9884e-06
-3.71769e-06
-4.07406e-06
-1.36933e-06
5.94139e-06
1.09658e-05
4.00053e-06
-6.3887e-06
-3.29135e-06
-1.43058e-06
-6.76972e-07
-3.49016e-07
-1.7546e-07
-8.79602e-08
-4.52398e-08
-2.34513e-08
-1.2633e-08
-6.93534e-09
-3.83699e-09
-2.11873e-09
-1.15919e-09
-6.16513e-10
-3.28184e-10
-1.72587e-10
-7.61724e-11
-3.51669e-11
-4.68572e-11
-2.1771e-11
8.54264e-11
1.22981e-11
5.75181e-11
2.45849e-12
1.22683e-19
4.64286e-19
3.04135e-20
3.20579e-19
4.70721e-19
3.73431e-19
-8.19343e-20
-3.86515e-19
2.52275e-19
1.35634e-19
1.62632e-19
4.16834e-20
2.0165e-19
1.60895e-18
1.06812e-18
1.66512e-18
8.27837e-19
5.39812e-19
8.50885e-19
-8.73577e-19
3.34113e-18
4.13989e-18
5.06164e-19
-1.39915e-18
6.11919e-19
4.27902e-18
-3.08819e-18
-1.3984e-18
-1.0615e-17
-3.00517e-17
-8.90775e-17
-2.54064e-16
-6.67976e-16
-1.68429e-15
-3.93323e-15
-8.03453e-15
-1.27959e-14
-2.28701e-16
1.18348e-13
6.87528e-13
2.91711e-12
1.08755e-11
3.71878e-11
1.17696e-10
3.64727e-10
1.0678e-09
2.79715e-09
5.94591e-09
1.18283e-08
1.93292e-08
2.58332e-08
2.92511e-08
2.88295e-08
2.0699e-08
-4.69566e-09
-7.79875e-08
-2.92285e-07
-9.18732e-07
-2.57257e-06
-6.19493e-06
-1.05044e-05
4.44635e-07
4.72233e-05
2.77264e-05
-5.50872e-06
-9.61284e-06
-8.1036e-06
-5.5533e-06
-4.00104e-06
-3.70465e-06
-4.08815e-06
-1.49398e-06
5.79736e-06
1.10171e-05
4.25607e-06
-6.39851e-06
-3.3429e-06
-1.45228e-06
-6.86588e-07
-3.53697e-07
-1.77671e-07
-8.90283e-08
-4.57734e-08
-2.3743e-08
-1.27893e-08
-7.01893e-09
-3.88099e-09
-2.14102e-09
-1.16977e-09
-6.21802e-10
-3.30687e-10
-1.73657e-10
-7.5602e-11
-3.59881e-11
-4.81666e-11
-2.06218e-11
9.39015e-11
6.65454e-12
5.75222e-11
2.32354e-12
2.42589e-19
1.5202e-19
8.80743e-19
1.24277e-18
5.25971e-19
5.28866e-19
6.79879e-19
9.73374e-19
1.54676e-19
-1.6007e-20
-2.20912e-19
4.88418e-19
4.73838e-19
2.02016e-19
3.7708e-19
-2.46743e-19
1.04874e-18
-3.94534e-19
-7.29458e-20
2.49289e-18
2.86783e-18
1.42936e-18
-4.44311e-19
-3.41673e-18
9.60329e-19
-2.08295e-19
-2.92081e-19
-2.02373e-18
-8.73239e-18
-4.39332e-17
-1.13651e-16
-3.02596e-16
-7.84838e-16
-2.03575e-15
-4.61441e-15
-9.44009e-15
-1.37944e-14
-1.04922e-15
1.32422e-13
7.82447e-13
3.34514e-12
1.22114e-11
4.21397e-11
1.33451e-10
4.14126e-10
1.18865e-09
2.89254e-09
6.3492e-09
1.23965e-08
1.98543e-08
2.61192e-08
2.92228e-08
2.85795e-08
2.00385e-08
-6.16488e-09
-8.07754e-08
-2.96531e-07
-9.22811e-07
-2.56708e-06
-6.15674e-06
-1.04456e-05
1.54966e-07
4.64548e-05
2.82977e-05
-5.3019e-06
-9.53464e-06
-8.12585e-06
-5.59251e-06
-4.01679e-06
-3.69143e-06
-4.09938e-06
-1.62443e-06
5.63534e-06
1.10555e-05
4.53734e-06
-6.39595e-06
-3.39948e-06
-1.47629e-06
-6.96988e-07
-3.58738e-07
-1.80121e-07
-9.02217e-08
-4.63724e-08
-2.40618e-08
-1.29597e-08
-7.11072e-09
-3.93015e-09
-2.16676e-09
-1.18272e-09
-6.28471e-10
-3.34023e-10
-1.75223e-10
-7.55941e-11
-3.68466e-11
-4.94693e-11
-1.9934e-11
1.00565e-10
2.79632e-12
5.76315e-11
2.24159e-12
3.04991e-19
1.65768e-19
1.72601e-19
1.10622e-18
1.37568e-18
8.73815e-19
2.06738e-19
-8.21286e-20
3.62534e-19
9.14578e-19
-5.21398e-19
2.04545e-19
1.7117e-19
6.00385e-23
-8.92265e-20
-2.34968e-19
8.03627e-19
3.08159e-18
3.80101e-18
3.11602e-18
5.38979e-19
2.86141e-18
7.63963e-19
-2.81584e-19
1.41546e-18
3.30578e-18
-2.31092e-18
-3.88956e-18
-2.31744e-17
-5.91412e-17
-1.35825e-16
-3.56301e-16
-9.38576e-16
-2.3373e-15
-5.40491e-15
-1.07292e-14
-1.366e-14
-1.46855e-15
1.4797e-13
8.79077e-13
3.69273e-12
1.38585e-11
4.70923e-11
1.5087e-10
4.33346e-10
1.15145e-09
3.00278e-09
6.77397e-09
1.29214e-08
2.03366e-08
2.62977e-08
2.91792e-08
2.83741e-08
1.95116e-08
-7.20267e-09
-8.25819e-08
-2.98556e-07
-9.21411e-07
-2.54884e-06
-6.09802e-06
-1.03877e-05
-3.26101e-07
4.52976e-05
2.92646e-05
-4.9703e-06
-9.48919e-06
-8.16724e-06
-5.64285e-06
-4.03776e-06
-3.67631e-06
-4.102e-06
-1.78055e-06
5.44841e-06
1.10922e-05
4.8543e-06
-6.37645e-06
-3.46337e-06
-1.50352e-06
-7.08649e-07
-3.64385e-07
-1.82927e-07
-9.15933e-08
-4.70606e-08
-2.44181e-08
-1.31487e-08
-7.21265e-09
-3.9852e-09
-2.19614e-09
-1.19801e-09
-6.36426e-10
-3.38111e-10
-1.77241e-10
-7.60551e-11
-3.7665e-11
-5.03719e-11
-1.95842e-11
1.05617e-10
3.095e-13
5.79103e-11
2.19934e-12
5.02757e-19
9.80606e-19
6.01797e-19
5.67995e-19
2.78373e-19
3.12438e-19
-5.85968e-20
-1.23576e-19
7.07802e-19
1.32337e-18
2.31303e-19
1.61854e-18
8.58052e-19
3.35261e-19
2.66387e-18
3.2402e-18
2.43963e-18
7.08586e-19
2.38633e-18
4.76124e-18
2.74983e-18
1.69378e-18
1.22059e-18
2.02814e-18
1.5085e-18
-4.27913e-18
-1.92017e-18
-4.83513e-18
-2.45354e-17
-5.17622e-17
-1.62555e-16
-4.29478e-16
-1.08973e-15
-2.71206e-15
-6.19992e-15
-1.26016e-14
-1.95625e-14
-3.42849e-15
1.61827e-13
9.47631e-13
3.96445e-12
1.47475e-11
5.01341e-11
1.54014e-10
4.38537e-10
1.26004e-09
3.21329e-09
7.13865e-09
1.34441e-08
2.07425e-08
2.64619e-08
2.91335e-08
2.81584e-08
1.916e-08
-7.86278e-09
-8.37677e-08
-2.9888e-07
-9.16118e-07
-2.52383e-06
-6.03155e-06
-1.0338e-05
-8.57936e-07
4.41101e-05
3.03556e-05
-4.62194e-06
-9.42232e-06
-8.22927e-06
-5.71527e-06
-4.07086e-06
-3.66168e-06
-4.17037e-06
-1.90847e-06
5.24294e-06
1.10841e-05
5.20605e-06
-6.33392e-06
-3.54369e-06
-1.53758e-06
-7.22581e-07
-3.7095e-07
-1.86176e-07
-9.31641e-08
-4.78411e-08
-2.48113e-08
-1.33542e-08
-7.32334e-09
-4.04524e-09
-2.22853e-09
-1.21524e-09
-6.45411e-10
-3.42786e-10
-1.79627e-10
-7.68743e-11
-3.84203e-11
-5.13192e-11
-1.95015e-11
1.09357e-10
-1.14003e-12
5.83564e-11
2.18667e-12
2.30965e-19
7.66528e-19
1.09228e-18
4.23839e-19
1.7753e-19
8.09362e-20
-2.36732e-19
-2.15501e-19
1.73792e-19
8.31766e-20
-3.18127e-20
2.85201e-19
-4.49985e-19
1.60076e-18
-6.58554e-20
1.54569e-18
1.60409e-18
9.56164e-19
2.64994e-18
3.79593e-18
5.19026e-18
8.45375e-19
-1.50697e-18
4.97533e-19
1.32242e-18
2.62343e-18
-6.33874e-19
-8.26685e-18
-1.81931e-17
-5.32507e-17
-1.68921e-16
-4.60241e-16
-1.26647e-15
-3.09997e-15
-7.23852e-15
-1.50896e-14
-2.33097e-14
-6.90734e-15
1.75131e-13
1.01325e-12
4.24802e-12
1.55167e-11
5.14464e-11
1.58008e-10
4.80761e-10
1.35801e-09
3.4318e-09
7.55349e-09
1.39638e-08
2.12051e-08
2.67126e-08
2.91419e-08
2.7757e-08
1.91105e-08
-8.25377e-09
-8.43096e-08
-2.97559e-07
-9.06495e-07
-2.48782e-06
-5.9302e-06
-1.02435e-05
-1.41455e-06
4.29997e-05
3.15107e-05
-4.2557e-06
-9.36631e-06
-8.28063e-06
-5.7813e-06
-4.10754e-06
-3.65789e-06
-4.17041e-06
-2.05583e-06
5.01106e-06
1.10807e-05
5.57393e-06
-6.2721e-06
-3.62329e-06
-1.5712e-06
-7.3651e-07
-3.77604e-07
-1.89544e-07
-9.4809e-08
-4.86638e-08
-2.52237e-08
-1.35726e-08
-7.44007e-09
-4.10849e-09
-2.26287e-09
-1.23383e-09
-6.55141e-10
-3.47892e-10
-1.82283e-10
-7.79613e-11
-3.91049e-11
-5.22011e-11
-1.96075e-11
1.12101e-10
-1.82817e-12
5.89353e-11
2.19525e-12
2.74296e-19
5.19887e-20
1.23635e-18
8.39865e-19
2.88825e-19
1.87188e-19
8.23418e-19
2.03284e-18
1.06492e-18
1.06635e-18
3.62195e-19
1.47072e-18
3.04063e-19
4.17828e-19
7.59663e-19
7.96531e-19
1.49144e-18
1.9956e-18
-4.82226e-19
2.3647e-19
-6.79255e-19
1.94172e-18
1.94999e-18
1.6998e-18
-6.12924e-19
2.77038e-18
-6.59897e-19
-4.06256e-18
-1.83014e-17
-6.31792e-17
-1.86524e-16
-5.24973e-16
-1.35947e-15
-3.31279e-15
-7.73331e-15
-1.54644e-14
-2.38533e-14
-3.94924e-15
1.8273e-13
1.10938e-12
4.57075e-12
1.65384e-11
5.4482e-11
1.70899e-10
5.17016e-10
1.44756e-09
3.62442e-09
7.89509e-09
1.44099e-08
2.1611e-08
2.69739e-08
2.92547e-08
2.76447e-08
1.92049e-08
-8.51935e-09
-8.44323e-08
-2.95116e-07
-8.95304e-07
-2.44909e-06
-5.8521e-06
-1.01871e-05
-2.00822e-06
4.17429e-05
3.28464e-05
-3.84833e-06
-9.31521e-06
-8.33594e-06
-5.84372e-06
-4.14206e-06
-3.65778e-06
-4.17029e-06
-2.21364e-06
4.77982e-06
1.10674e-05
5.92861e-06
-6.19191e-06
-3.70387e-06
-1.60621e-06
-7.50854e-07
-3.84433e-07
-1.93e-07
-9.64922e-08
-4.95053e-08
-2.56438e-08
-1.37949e-08
-7.56154e-09
-4.17548e-09
-2.29973e-09
-1.25372e-09
-6.65488e-10
-3.53361e-10
-1.85195e-10
-7.92725e-11
-3.97286e-11
-5.30167e-11
-1.98178e-11
1.14112e-10
-1.96004e-12
5.96012e-11
2.21857e-12
2.02652e-19
-7.12113e-20
1.33434e-18
1.12533e-18
9.71788e-19
1.58852e-19
9.0753e-19
8.59334e-19
-1.38984e-19
1.18659e-18
4.70027e-19
-6.95413e-19
1.21534e-18
6.30356e-19
2.85279e-19
1.55385e-18
-4.09467e-19
4.02753e-19
-5.66292e-19
3.66833e-19
3.87337e-18
2.11805e-18
1.34493e-18
1.35588e-18
1.97706e-18
3.10417e-18
-4.0985e-19
-8.12377e-18
-2.85267e-17
-7.48438e-17
-2.11559e-16
-5.78816e-16
-1.47332e-15
-3.66332e-15
-8.33439e-15
-1.67426e-14
-2.53913e-14
-4.41077e-15
1.9649e-13
1.19592e-12
4.94136e-12
1.79569e-11
5.86625e-11
1.85183e-10
5.46191e-10
1.52184e-09
3.78402e-09
8.13515e-09
1.46816e-08
2.18134e-08
2.70568e-08
2.92514e-08
2.75964e-08
1.92924e-08
-8.94304e-09
-8.4488e-08
-2.92174e-07
-8.81508e-07
-2.40767e-06
-5.7562e-06
-1.01274e-05
-2.54543e-06
4.04855e-05
3.4049e-05
-3.41999e-06
-9.25344e-06
-8.3915e-06
-5.91242e-06
-4.1814e-06
-3.65482e-06
-4.16922e-06
-2.35684e-06
4.54486e-06
1.10164e-05
6.28243e-06
-6.08697e-06
-3.79418e-06
-1.64421e-06
-7.66066e-07
-3.91574e-07
-1.96689e-07
-9.8305e-08
-5.04113e-08
-2.60851e-08
-1.40257e-08
-7.68579e-09
-4.24345e-09
-2.33712e-09
-1.27434e-09
-6.76297e-10
-3.59036e-10
-1.8817e-10
-8.06659e-11
-4.0298e-11
-5.38003e-11
-2.01973e-11
1.15523e-10
-1.70369e-12
6.03602e-11
2.25364e-12
-2.44287e-19
9.52437e-19
2.13053e-19
1.26114e-18
8.46921e-19
4.50269e-19
1.14918e-18
8.45934e-19
8.32382e-19
5.68801e-19
9.81499e-19
8.53821e-19
9.76002e-19
1.51286e-18
3.13359e-18
4.10459e-18
2.89437e-18
8.11165e-19
2.57738e-18
-3.61964e-20
6.02293e-18
3.75794e-18
1.42724e-18
-8.39357e-19
-1.2504e-18
-1.54043e-18
1.01597e-18
-8.48056e-18
-3.4213e-17
-8.51009e-17
-2.19931e-16
-6.16012e-16
-1.59312e-15
-3.88921e-15
-8.83345e-15
-1.76927e-14
-2.62351e-14
-5.14405e-15
2.11813e-13
1.26511e-12
5.12812e-12
1.84505e-11
6.19344e-11
1.94902e-10
5.71061e-10
1.58081e-09
3.89079e-09
8.29465e-09
1.48534e-08
2.19261e-08
2.70849e-08
2.92229e-08
2.75647e-08
1.93901e-08
-9.18538e-09
-8.43429e-08
-2.89268e-07
-8.69819e-07
-2.3722e-06
-5.66838e-06
-1.00482e-05
-3.04898e-06
3.93081e-05
3.51929e-05
-2.99522e-06
-9.19964e-06
-8.45231e-06
-5.98504e-06
-4.21934e-06
-3.65326e-06
-4.16339e-06
-2.48246e-06
4.32263e-06
1.09679e-05
6.60288e-06
-5.96855e-06
-3.88179e-06
-1.68146e-06
-7.81267e-07
-3.98774e-07
-2.00369e-07
-1.00098e-07
-5.13034e-08
-2.65232e-08
-1.42535e-08
-7.80797e-09
-4.31008e-09
-2.37368e-09
-1.29439e-09
-6.86772e-10
-3.64583e-10
-1.91145e-10
-8.21327e-11
-4.08233e-11
-5.46681e-11
-2.05809e-11
1.16521e-10
-1.15777e-12
6.11188e-11
2.29403e-12
3.95358e-19
3.08965e-19
-2.09996e-19
4.97395e-19
1.79088e-19
-2.42104e-20
4.6962e-19
-1.39016e-19
-5.63949e-20
1.04522e-18
1.73838e-18
1.71621e-18
2.54038e-18
1.03924e-18
5.70468e-20
1.10278e-18
2.10368e-18
2.94042e-18
3.47777e-18
2.07042e-18
-1.08885e-18
-8.18194e-19
1.95214e-18
-1.64666e-18
-2.40307e-18
-1.66566e-18
-4.76588e-18
-1.16779e-17
-3.1857e-17
-9.12623e-17
-2.59361e-16
-6.68787e-16
-1.67376e-15
-4.07908e-15
-9.17094e-15
-1.82075e-14
-2.81557e-14
-5.98898e-15
2.17547e-13
1.25146e-12
5.52293e-12
1.97211e-11
6.54488e-11
1.99904e-10
5.89202e-10
1.62149e-09
3.96881e-09
8.41183e-09
1.49774e-08
2.20021e-08
2.70906e-08
2.91909e-08
2.75445e-08
1.94804e-08
-9.2469e-09
-8.38801e-08
-2.85689e-07
-8.57147e-07
-2.33323e-06
-5.58846e-06
-9.98263e-06
-3.52185e-06
3.81743e-05
3.63248e-05
-2.56763e-06
-9.14019e-06
-8.50116e-06
-6.05634e-06
-4.13845e-06
-3.66108e-06
-4.16149e-06
-2.59807e-06
4.11362e-06
1.09127e-05
6.89639e-06
-5.84333e-06
-3.96469e-06
-1.7171e-06
-7.95539e-07
-4.05446e-07
-2.03786e-07
-1.01761e-07
-5.21284e-08
-2.69249e-08
-1.44626e-08
-7.92016e-09
-4.37132e-09
-2.40733e-09
-1.31287e-09
-6.96413e-10
-3.69665e-10
-1.93851e-10
-8.3486e-11
-4.12555e-11
-5.51608e-11
-2.09672e-11
1.17143e-10
-4.93026e-13
6.18148e-11
2.33468e-12
1.50512e-19
4.766e-19
4.10742e-19
7.5027e-19
3.26301e-19
2.75718e-19
7.60654e-19
3.58639e-19
5.89934e-19
-2.55484e-19
-7.1419e-20
2.66562e-18
1.00053e-18
1.91985e-19
1.16691e-18
-3.85916e-19
6.64142e-20
2.87068e-18
1.41194e-19
1.52838e-18
-7.72563e-19
2.23225e-19
6.22756e-19
6.1473e-19
2.38278e-18
-3.58383e-18
-3.88264e-18
-1.50895e-17
-3.85254e-17
-1.01425e-16
-2.5516e-16
-6.76417e-16
-1.74337e-15
-4.19447e-15
-9.39033e-15
-1.86891e-14
-2.89541e-14
9.01182e-16
2.42316e-13
1.38637e-12
5.6784e-12
2.01415e-11
6.70076e-11
2.03491e-10
6.02647e-10
1.65269e-09
4.02661e-09
8.49558e-09
1.5061e-08
2.20471e-08
2.70891e-08
2.91658e-08
2.75301e-08
1.95577e-08
-9.23965e-09
-8.33617e-08
-2.82443e-07
-8.44847e-07
-2.29879e-06
-5.51143e-06
-9.92145e-06
-3.90035e-06
3.72383e-05
3.72326e-05
-2.19089e-06
-9.08046e-06
-8.53319e-06
-6.10865e-06
-4.20756e-06
-3.67761e-06
-4.16215e-06
-2.69934e-06
3.93501e-06
1.08612e-05
7.14098e-06
-5.72532e-06
-4.03694e-06
-1.74794e-06
-8.07891e-07
-4.11205e-07
-2.0674e-07
-1.0319e-07
-5.28398e-08
-2.7271e-08
-1.46429e-08
-8.01694e-09
-4.42419e-09
-2.43643e-09
-1.32889e-09
-7.04788e-10
-3.74124e-10
-1.96224e-10
-8.46956e-11
-4.16316e-11
-5.56354e-11
-2.13124e-11
1.17566e-10
1.97245e-13
6.24222e-11
2.3721e-12
4.00336e-19
6.01023e-19
7.51196e-19
4.99557e-19
7.23703e-19
5.42461e-19
1.001e-18
1.29567e-18
6.99491e-19
-8.254e-20
-6.08016e-20
8.96326e-20
6.78396e-19
-1.53602e-21
2.03839e-18
1.19441e-18
-4.34916e-20
5.26776e-19
5.8118e-19
2.25854e-18
1.55522e-18
-1.04146e-18
1.61243e-18
4.1818e-19
-9.31497e-19
3.37912e-18
-5.71776e-18
-1.07464e-17
-3.25551e-17
-8.93901e-17
-2.59542e-16
-7.1286e-16
-1.79847e-15
-4.30394e-15
-9.52552e-15
-1.87269e-14
-2.70196e-14
5.86892e-16
2.4128e-13
1.35566e-12
5.64952e-12
2.03313e-11
6.55488e-11
2.06319e-10
6.1418e-10
1.67603e-09
4.06958e-09
8.55762e-09
1.51222e-08
2.20786e-08
2.70846e-08
2.91451e-08
2.75203e-08
1.96154e-08
-9.19732e-09
-8.28845e-08
-2.7971e-07
-8.35866e-07
-2.27366e-06
-5.45677e-06
-9.87792e-06
-4.20334e-06
3.63818e-05
3.79884e-05
-1.85622e-06
-9.03806e-06
-8.56652e-06
-6.15241e-06
-4.23615e-06
-3.68001e-06
-4.16572e-06
-2.7697e-06
3.79685e-06
1.08125e-05
7.32838e-06
-5.62477e-06
-4.09485e-06
-1.77268e-06
-8.17783e-07
-4.15807e-07
-2.09113e-07
-1.04351e-07
-5.34144e-08
-2.75497e-08
-1.47876e-08
-8.09455e-09
-4.46657e-09
-2.45976e-09
-1.34174e-09
-7.11501e-10
-3.77682e-10
-1.9811e-10
-8.56644e-11
-4.19296e-11
-5.61912e-11
-2.16265e-11
1.17793e-10
8.01822e-13
6.29073e-11
2.40329e-12
3.09286e-19
6.6571e-19
1.54272e-18
2.18481e-18
1.30553e-18
9.31762e-19
6.77699e-19
2.27256e-18
3.89068e-19
-6.62538e-20
-6.6039e-20
-7.61408e-20
5.18307e-19
6.16456e-19
1.13689e-18
2.72513e-18
1.74184e-18
6.10586e-19
1.35557e-18
-5.08488e-19
3.12426e-18
1.34181e-18
7.58538e-19
2.55289e-18
3.8534e-18
1.48863e-18
-3.56244e-18
-1.69196e-17
-3.96285e-17
-9.47894e-17
-2.68337e-16
-7.12008e-16
-1.83937e-15
-4.49097e-15
-1.0472e-14
-2.17764e-14
-3.43388e-14
-1.00009e-14
2.21361e-13
1.37145e-12
5.53665e-12
2.00436e-11
6.60474e-11
2.08142e-10
6.22266e-10
1.69255e-09
4.09952e-09
8.60033e-09
1.51639e-08
2.20994e-08
2.708e-08
2.91287e-08
2.75123e-08
1.96531e-08
-9.16242e-09
-8.25477e-08
-2.77862e-07
-8.29484e-07
-2.25554e-06
-5.41716e-06
-9.84425e-06
-4.40508e-06
3.58145e-05
3.84921e-05
-1.62795e-06
-9.00829e-06
-8.5886e-06
-6.1818e-06
-4.25369e-06
-3.68075e-06
-4.15517e-06
-2.82116e-06
3.69877e-06
1.07794e-05
7.45864e-06
-5.55036e-06
-4.1361e-06
-1.79029e-06
-8.24817e-07
-4.19068e-07
-2.10793e-07
-1.05168e-07
-5.38192e-08
-2.77461e-08
-1.48896e-08
-8.14928e-09
-4.49649e-09
-2.47623e-09
-1.35083e-09
-7.16249e-10
-3.80201e-10
-1.99451e-10
-8.6357e-11
-4.21293e-11
-5.6462e-11
-2.18399e-11
1.17926e-10
1.25899e-12
6.32508e-11
2.42592e-12
1.27395e-19
-1.03985e-19
2.00167e-19
6.53115e-19
2.83915e-19
5.63173e-19
3.11344e-19
1.00015e-18
6.67051e-19
6.79378e-19
3.79706e-19
4.02357e-19
8.56006e-19
3.02093e-19
7.58081e-19
7.63299e-19
-2.68326e-19
1.10365e-19
7.29111e-19
1.74615e-18
1.07837e-18
-9.45405e-20
8.07173e-20
3.15562e-18
2.81591e-18
4.46315e-18
-6.77914e-18
-7.62069e-18
-3.69237e-17
-1.12545e-16
-2.7609e-16
-7.57891e-16
-1.87372e-15
-4.51206e-15
-1.02904e-14
-2.03153e-14
-3.00551e-14
-4.99086e-15
2.47847e-13
1.41591e-12
5.74997e-12
2.04257e-11
6.642e-11
2.11621e-10
6.25985e-10
1.70252e-09
4.11904e-09
8.62842e-09
1.5191e-08
2.21126e-08
2.70776e-08
2.91196e-08
2.75061e-08
1.96702e-08
-9.16e-09
-8.24049e-08
-2.76978e-07
-8.26356e-07
-2.2464e-06
-5.3966e-06
-9.82533e-06
-4.5074e-06
3.55219e-05
3.87483e-05
-1.50695e-06
-8.99303e-06
-8.6001e-06
-6.19708e-06
-4.2629e-06
-3.68089e-06
-4.16021e-06
-2.84822e-06
3.64557e-06
1.07605e-05
7.52667e-06
-5.50946e-06
-4.1581e-06
-1.79968e-06
-8.2856e-07
-4.20804e-07
-2.11691e-07
-1.05607e-07
-5.40375e-08
-2.78519e-08
-1.49447e-08
-8.17884e-09
-4.51264e-09
-2.48513e-09
-1.35574e-09
-7.18814e-10
-3.81562e-10
-2.00172e-10
-8.67357e-11
-4.22224e-11
-5.65306e-11
-2.19505e-11
1.17976e-10
1.50522e-12
6.34333e-11
2.43818e-12
-5.87136e-20
1.04791e-18
6.36975e-19
1.04516e-18
4.36367e-19
7.79425e-19
5.07342e-19
1.80328e-18
4.8124e-19
-1.39486e-19
1.46483e-18
1.3438e-18
1.85231e-18
2.91098e-19
6.59187e-19
1.11628e-18
-1.06725e-19
9.27924e-19
6.93848e-19
1.87438e-18
2.10402e-18
3.03847e-19
5.4432e-19
1.03003e-18
4.00883e-19
-2.64277e-18
-6.59324e-18
-1.74002e-17
-3.92792e-17
-1.07827e-16
-2.79212e-16
-7.35825e-16
-1.83718e-15
-4.45367e-15
-9.71752e-15
-1.84318e-14
-2.70465e-14
7.68822e-16
2.49991e-13
1.38731e-12
5.85493e-12
2.07445e-11
6.77764e-11
2.12184e-10
6.28506e-10
1.70869e-09
4.13077e-09
8.64571e-09
1.52088e-08
2.21231e-08
2.70784e-08
2.91147e-08
2.74998e-08
1.96685e-08
-9.20413e-09
-8.24499e-08
-2.76888e-07
-8.25806e-07
-2.24459e-06
-5.3923e-06
-9.82106e-06
-4.52768e-06
3.54633e-05
3.88068e-05
-1.48091e-06
-8.99039e-06
-8.60302e-06
-6.2004e-06
-4.26483e-06
-3.68104e-06
-4.15985e-06
-2.85261e-06
3.63784e-06
1.07574e-05
7.53743e-06
-5.50273e-06
-4.1615e-06
-1.80112e-06
-8.29128e-07
-4.21065e-07
-2.11825e-07
-1.05672e-07
-5.40695e-08
-2.78674e-08
-1.49527e-08
-8.18312e-09
-4.51497e-09
-2.48641e-09
-1.35644e-09
-7.19179e-10
-3.81754e-10
-2.00275e-10
-8.67933e-11
-4.22528e-11
-5.66265e-11
-2.19677e-11
1.1801e-10
1.53896e-12
6.34604e-11
2.43963e-12
1.16571e-19
2.86124e-19
1.29012e-18
1.48038e-18
6.05654e-19
7.99808e-20
-1.61816e-19
4.44175e-19
1.45755e-18
1.127e-18
-5.98033e-20
8.33806e-19
-2.73709e-19
6.76398e-19
1.13886e-18
7.37212e-19
1.23066e-18
5.33073e-19
-1.97564e-19
2.02483e-19
7.05351e-19
-4.99036e-20
1.76948e-19
-7.40558e-19
1.72989e-18
-2.36079e-18
-3.25499e-18
-1.36174e-17
-3.28497e-17
-1.00806e-16
-2.75776e-16
-7.34189e-16
-1.88382e-15
-4.42247e-15
-9.64241e-15
-1.82814e-14
-2.5986e-14
3.3249e-15
2.55303e-13
1.43948e-12
5.87487e-12
2.06795e-11
6.84565e-11
2.13135e-10
6.28171e-10
1.71166e-09
4.13615e-09
8.6543e-09
1.52195e-08
2.21324e-08
2.70837e-08
2.91152e-08
2.74916e-08
1.96401e-08
-9.32068e-09
-8.27679e-08
-2.7792e-07
-8.28789e-07
-2.25238e-06
-5.40863e-06
-9.83421e-06
-4.44567e-06
3.56897e-05
3.86127e-05
-1.57203e-06
-9.00256e-06
-8.59497e-06
-6.1892e-06
-4.25817e-06
-3.68081e-06
-4.15264e-06
-2.83261e-06
3.67664e-06
1.07709e-05
7.48731e-06
-5.53259e-06
-4.14522e-06
-1.79416e-06
-8.2634e-07
-4.19776e-07
-2.1116e-07
-1.05347e-07
-5.39081e-08
-2.77893e-08
-1.49121e-08
-8.16134e-09
-4.50305e-09
-2.47983e-09
-1.3528e-09
-7.17277e-10
-3.80743e-10
-1.99736e-10
-8.64969e-11
-4.21556e-11
-5.64408e-11
-2.18665e-11
1.17986e-10
1.32079e-12
6.33192e-11
2.42975e-12
1.18981e-19
3.30771e-20
2.51734e-19
2.4744e-19
6.17826e-19
6.90292e-19
-7.20863e-20
1.03467e-18
4.84847e-19
5.05057e-20
-2.01726e-19
1.54863e-19
-1.13003e-19
1.74638e-18
1.42459e-18
3.05973e-18
3.43172e-18
4.43346e-19
3.91017e-19
1.56152e-18
1.65083e-18
3.07827e-18
5.67909e-19
3.82392e-18
1.72559e-18
1.49232e-19
-5.20838e-18
-1.39824e-17
-3.38103e-17
-8.91848e-17
-2.69572e-16
-7.37575e-16
-1.95119e-15
-4.75346e-15
-1.08502e-14
-2.19699e-14
-3.48231e-14
-1.33601e-14
2.29563e-13
1.41939e-12
5.72845e-12
2.05979e-11
6.70123e-11
2.13282e-10
6.28236e-10
1.7099e-09
4.13359e-09
8.65247e-09
1.52214e-08
2.21395e-08
2.70931e-08
2.91212e-08
2.74828e-08
1.95876e-08
-9.509e-09
-8.33592e-08
-2.8006e-07
-8.35216e-07
-2.26937e-06
-5.44426e-06
-9.86296e-06
-4.26298e-06
3.61853e-05
3.81734e-05
-1.77116e-06
-9.02733e-06
-8.57542e-06
-6.16351e-06
-4.24253e-06
-3.67981e-06
-4.15511e-06
-2.7879e-06
3.75948e-06
1.07998e-05
7.37791e-06
-5.59579e-06
-4.11011e-06
-1.77916e-06
-8.20344e-07
-4.16998e-07
-2.09725e-07
-1.04646e-07
-5.35599e-08
-2.76207e-08
-1.48245e-08
-8.11433e-09
-4.47736e-09
-2.46567e-09
-1.34497e-09
-7.1319e-10
-3.78573e-10
-1.9858e-10
-8.58945e-11
-4.19948e-11
-5.61295e-11
-2.16704e-11
1.17946e-10
8.87386e-13
6.30226e-11
2.40908e-12
7.57017e-19
1.03752e-18
4.60242e-19
8.16149e-19
7.05714e-19
3.8604e-19
1.23233e-19
1.24342e-19
-6.31297e-20
2.0907e-19
-1.39814e-19
-2.38944e-20
2.5706e-19
2.25319e-19
-1.51828e-19
7.76135e-19
1.21174e-18
2.07229e-18
1.53238e-18
2.54151e-18
7.16721e-19
6.68125e-19
2.0239e-18
1.25818e-18
2.26406e-18
5.06451e-18
-1.34073e-18
-1.75165e-17
-3.34091e-17
-9.65708e-17
-2.71579e-16
-7.4057e-16
-1.91907e-15
-4.76693e-15
-1.1062e-14
-2.30398e-14
-3.61802e-14
-1.32847e-14
2.32503e-13
1.42065e-12
5.74114e-12
2.02196e-11
6.67461e-11
2.13595e-10
6.25531e-10
1.70381e-09
4.124e-09
8.64164e-09
1.52163e-08
2.21459e-08
2.71074e-08
2.91324e-08
2.74712e-08
1.95047e-08
-9.78788e-09
-8.42745e-08
-2.83476e-07
-8.45617e-07
-2.29706e-06
-5.50232e-06
-9.90786e-06
-3.96155e-06
3.69613e-05
3.74465e-05
-2.07805e-06
-9.06327e-06
-8.54269e-06
-6.12229e-06
-4.21759e-06
-3.67791e-06
-4.15993e-06
-2.72501e-06
3.88569e-06
1.08391e-05
7.20778e-06
-5.68774e-06
-4.05753e-06
-1.7567e-06
-8.11371e-07
-4.12835e-07
-2.0758e-07
-1.03602e-07
-5.30424e-08
-2.73699e-08
-1.46941e-08
-8.04431e-09
-4.43907e-09
-2.44456e-09
-1.33331e-09
-7.07096e-10
-3.75336e-10
-1.96861e-10
-8.49875e-11
-4.17397e-11
-5.57834e-11
-2.13732e-11
1.1786e-10
2.57259e-13
6.25779e-11
2.37867e-12
3.24007e-19
2.34185e-19
9.8156e-19
1.09911e-18
7.65874e-19
1.41001e-19
1.01189e-19
1.07701e-18
-5.49567e-20
-4.22964e-19
1.07396e-18
6.53795e-19
1.13738e-18
1.69893e-18
6.8423e-19
1.32235e-18
2.06148e-18
2.26753e-18
1.71342e-18
2.32409e-18
4.34425e-18
-9.93232e-19
-1.10567e-18
5.47703e-19
1.86605e-18
1.37733e-18
-2.2203e-18
-1.18422e-17
-3.58786e-17
-9.96201e-17
-2.61769e-16
-7.13862e-16
-1.8282e-15
-4.45493e-15
-1.00533e-14
-1.99922e-14
-2.94466e-14
-4.4595e-15
2.24775e-13
1.33757e-12
5.71828e-12
2.01352e-11
6.53809e-11
2.10553e-10
6.2182e-10
1.69409e-09
4.10606e-09
8.61819e-09
1.51993e-08
2.21478e-08
2.7125e-08
2.91491e-08
2.74577e-08
1.93908e-08
-1.01482e-08
-8.54583e-08
-2.8797e-07
-8.5944e-07
-2.33405e-06