/*--------------------------------*- C++ -*----------------------------------*\
  =========                 |
  \\      /  F ield         | OpenFOAM: The Open Source CFD Toolbox
   \\    /   O peration     | Website:  https://openfoam.org
    \\  /    A nd           | Version:  10
     \\/     M anipulation  |
\*---------------------------------------------------------------------------*/
FoamFile
{
    format      ascii;
    class       volScalarField;
    location    "1";
    object      RR.PXC10H21;
}
// * * * * * * * * * * * * * * * * * * * * * * * * * * * * * * * * * * * * * //

dimensions      [1 -3 -1 0 0 0 0];

internalField   nonuniform List<scalar> 
4000
(
3.71569e-20
2.17657e-20
1.46502e-20
6.55928e-21
1.14837e-20
6.43056e-21
6.15385e-21
7.6672e-21
6.09508e-21
6.4954e-21
8.63082e-21
3.96967e-21
8.93613e-21
3.31614e-21
7.27348e-21
2.73908e-20
2.0515e-20
1.13595e-20
1.13975e-20
1.62087e-20
1.14793e-20
1.54947e-20
2.15258e-20
2.40286e-20
6.59399e-20
-5.35476e-20
3.55511e-20
-6.6798e-20
-1.71151e-19
-7.68365e-19
-2.16773e-18
-7.36383e-18
-2.20609e-17
-6.54171e-17
-1.94934e-16
-5.40495e-16
-1.59921e-15
-4.45616e-15
-1.21912e-14
-3.23135e-14
-7.99812e-14
-1.87103e-13
-4.00664e-13
-7.74125e-13
-1.27273e-12
-1.51122e-12
-3.87098e-13
1.67547e-12
-1.38589e-11
-1.40079e-10
-6.4844e-10
-2.11187e-09
-5.03569e-09
-1.15237e-08
-2.44374e-08
-4.91314e-08
-9.14811e-08
-1.44589e-07
-7.11815e-08
6.36515e-07
3.03285e-06
8.36017e-06
1.19965e-05
-5.4075e-06
-6.49833e-06
-2.89489e-06
-1.4581e-06
-1.17957e-06
-1.3969e-06
-1.91839e-06
-2.23725e-06
2.53334e-07
6.41937e-06
8.95526e-06
7.7013e-07
-4.63445e-06
-2.11984e-06
-9.38504e-07
-4.32063e-07
-2.05159e-07
-1.00308e-07
-5.03523e-08
-2.59332e-08
-1.36929e-08
-7.39963e-09
-4.08121e-09
-2.27278e-09
-1.26542e-09
-6.98048e-10
-3.78641e-10
-2.01119e-10
-1.02238e-10
-5.27858e-11
-3.03589e-11
-2.7587e-11
-1.71245e-11
1.11462e-11
4.17724e-11
2.40152e-11
4.0815e-12
4.71388e-20
4.97604e-20
8.3649e-21
4.42264e-20
4.3534e-20
3.05353e-20
3.18105e-20
1.15397e-20
8.45747e-21
2.46075e-20
6.14159e-21
4.72867e-21
1.77439e-20
2.79723e-21
7.39607e-21
3.02892e-20
4.19836e-20
3.35059e-20
7.61541e-20
8.55363e-20
4.82242e-20
1.56763e-20
5.00825e-20
4.1681e-20
1.25714e-19
7.95719e-20
-3.38122e-20
-3.94293e-20
-3.41476e-19
-9.47044e-19
-3.31662e-18
-1.07094e-17
-3.21653e-17
-9.35326e-17
-2.74674e-16
-7.99599e-16
-2.23515e-15
-6.26624e-15
-1.649e-14
-4.25793e-14
-1.04624e-13
-2.38541e-13
-5.03736e-13
-9.45177e-13
-1.51523e-12
-1.67539e-12
-1.71584e-13
6.59298e-13
-2.90987e-11
-2.20981e-10
-8.30344e-10
-2.25552e-09
-5.70794e-09
-1.26474e-08
-2.6433e-08
-5.36331e-08
-9.91286e-08
-1.58075e-07
-9.53809e-08
6.01138e-07
2.96688e-06
8.22061e-06
1.19415e-05
-5.03804e-06
-6.58744e-06
-2.97033e-06
-1.48328e-06
-1.17182e-06
-1.37368e-06
-1.88176e-06
-2.27276e-06
1.58198e-08
6.18558e-06
9.15831e-06
1.16402e-06
-4.70866e-06
-2.17489e-06
-9.60498e-07
-4.41227e-07
-2.09093e-07
-1.02007e-07
-5.11249e-08
-2.6301e-08
-1.38667e-08
-7.48167e-09
-4.1198e-09
-2.29006e-09
-1.27231e-09
-7.00169e-10
-3.78628e-10
-2.00407e-10
-1.01587e-10
-5.24176e-11
-3.05255e-11
-2.83577e-11
-1.56978e-11
1.7965e-11
3.26743e-11
2.63619e-11
3.65171e-12
1.13401e-19
3.65847e-20
4.11793e-20
6.3981e-20
1.36842e-19
2.78568e-20
1.10442e-20
-7.49087e-22
5.91609e-20
1.70697e-20
4.6764e-20
2.60005e-20
1.44972e-20
3.1902e-20
1.52467e-20
4.23502e-20
7.95586e-21
1.18155e-20
4.67371e-20
1.99571e-20
7.18857e-20
-1.7815e-20
7.05505e-21
7.40113e-20
9.21998e-20
1.64704e-19
-9.7611e-21
-2.71462e-20
-4.90919e-19
-1.36237e-18
-4.6717e-18
-1.47472e-17
-4.3006e-17
-1.28351e-16
-3.74972e-16
-1.07073e-15
-2.95658e-15
-8.01144e-15
-2.12385e-14
-5.32706e-14
-1.29203e-13
-2.85146e-13
-6.07992e-13
-1.11042e-12
-1.71769e-12
-1.71785e-12
9.28316e-14
-5.61625e-13
-4.17238e-11
-2.74576e-10
-9.69995e-10
-2.60413e-09
-6.41772e-09
-1.41666e-08
-2.8633e-08
-5.57208e-08
-1.02642e-07
-1.64445e-07
-1.04276e-07
5.8101e-07
2.91872e-06
8.11256e-06
1.18029e-05
-4.74694e-06
-6.62035e-06
-3.01645e-06
-1.49641e-06
-1.1611e-06
-1.35456e-06
-1.84668e-06
-2.28201e-06
-1.98526e-07
5.94352e-06
9.31241e-06
1.57495e-06
-4.78777e-06
-2.23719e-06
-9.85382e-07
-4.51647e-07
-2.13649e-07
-1.04125e-07
-5.21122e-08
-2.67674e-08
-1.40763e-08
-7.58116e-09
-4.16728e-09
-2.31181e-09
-1.2814e-09
-7.02986e-10
-3.78418e-10
-1.99291e-10
-1.00674e-10
-5.19211e-11
-3.07676e-11
-2.89566e-11
-1.39471e-11
2.59631e-11
2.4135e-11
2.83543e-11
3.22946e-12
6.95298e-20
2.0387e-20
4.56268e-20
7.20288e-20
4.72726e-20
7.38484e-20
3.95993e-20
1.54223e-20
4.59904e-20
5.15951e-20
9.19903e-20
7.24309e-20
1.83364e-20
3.19991e-20
3.42421e-20
5.04493e-20
7.10769e-20
4.84959e-20
8.62492e-20
3.79335e-20
2.50391e-20
1.51449e-19
1.31064e-19
-5.0475e-20
5.93536e-20
8.77932e-20
-1.75414e-20
-2.1922e-19
-5.86617e-19
-2.07347e-18
-6.85919e-18
-1.92605e-17
-5.72563e-17
-1.69552e-16
-4.92248e-16
-1.38397e-15
-3.7931e-15
-1.02242e-14
-2.66531e-14
-6.64962e-14
-1.5912e-13
-3.48842e-13
-7.27241e-13
-1.30693e-12
-1.94038e-12
-1.84392e-12
1.07585e-13
-2.67229e-12
-5.91906e-11
-3.01899e-10
-1.03522e-09
-3.0358e-09
-7.31899e-09
-1.55554e-08
-3.10227e-08
-5.73e-08
-1.06807e-07
-1.72393e-07
-1.19584e-07
5.56147e-07
2.86927e-06
8.00408e-06
1.17433e-05
-4.47596e-06
-6.66029e-06
-3.05923e-06
-1.51288e-06
-1.15632e-06
-1.33861e-06
-1.81773e-06
-2.28909e-06
-3.9387e-07
5.732e-06
9.42463e-06
1.96103e-06
-4.84127e-06
-2.28088e-06
-1.00501e-06
-4.60715e-07
-2.17905e-07
-1.06133e-07
-5.31096e-08
-2.73437e-08
-1.41677e-08
-7.64065e-09
-4.20132e-09
-2.32948e-09
-1.28994e-09
-7.07952e-10
-3.75926e-10
-1.97393e-10
-9.96575e-11
-5.14908e-11
-3.1206e-11
-2.94537e-11
-1.22676e-11
3.42254e-11
1.50977e-11
2.9954e-11
2.87192e-12
4.65012e-20
5.43257e-20
4.51822e-20
3.51925e-20
4.15272e-20
3.60836e-20
8.70389e-20
3.17275e-20
-6.40534e-21
3.38629e-20
3.67155e-20
3.6647e-20
1.09537e-20
2.15937e-20
4.14106e-20
2.64844e-22
3.1986e-20
1.9986e-20
1.1406e-19
7.94069e-20
1.93986e-20
2.19543e-19
-2.97943e-20
9.67926e-20
2.5391e-20
1.64583e-20
1.837e-21
-1.75012e-19
-1.02507e-18
-2.62958e-18
-8.46567e-18
-2.586e-17
-7.52518e-17
-2.21283e-16
-6.29772e-16
-1.76317e-15
-4.75289e-15
-1.23944e-14
-3.23619e-14
-8.05029e-14
-1.88807e-13
-4.15405e-13
-8.3171e-13
-1.50026e-12
-2.17317e-12
-1.98206e-12
-4.57805e-15
-5.27241e-12
-6.38992e-11
-3.16883e-10
-1.18949e-09
-3.361e-09
-8.03618e-09
-1.71861e-08
-3.1862e-08
-5.91444e-08
-1.10908e-07
-1.79219e-07
-1.28248e-07
5.40727e-07
2.83665e-06
7.93198e-06
1.16495e-05
-4.28646e-06
-6.66188e-06
-3.08873e-06
-1.52915e-06
-1.15528e-06
-1.32883e-06
-1.79802e-06
-2.29525e-06
-5.31136e-07
5.55494e-06
9.51914e-06
2.27251e-06
-4.89896e-06
-2.32915e-06
-1.02502e-06
-4.69294e-07
-2.21679e-07
-1.07877e-07
-5.3947e-08
-2.77594e-08
-1.43787e-08
-7.74679e-09
-4.25485e-09
-2.3558e-09
-1.30206e-09
-7.12778e-10
-3.77533e-10
-1.97478e-10
-9.95807e-11
-5.15158e-11
-3.18923e-11
-2.98498e-11
-1.10594e-11
4.17449e-11
8.38519e-12
3.00809e-11
2.63169e-12
4.13738e-20
3.30649e-20
2.27656e-20
5.05058e-20
3.49536e-20
3.99395e-20
6.10737e-20
6.89056e-20
2.99204e-20
9.94981e-21
3.58786e-20
5.27158e-20
5.9582e-20
3.92138e-20
5.79283e-20
7.79885e-20
3.2222e-20
2.02372e-20
5.00555e-20
1.97117e-20
1.908e-19
1.20673e-19
2.10995e-19
8.61532e-20
6.15645e-20
-1.45687e-19
1.82481e-20
-3.57461e-19
-1.13859e-18
-3.55413e-18
-1.08428e-17
-3.33052e-17
-9.67979e-17
-2.75241e-16
-7.73004e-16
-2.13303e-15
-5.66128e-15
-1.46741e-14
-3.81495e-14
-9.71964e-14
-2.22343e-13
-4.76663e-13
-9.5398e-13
-1.69332e-12
-2.4146e-12
-2.10551e-12
-1.34618e-13
-6.32536e-12
-7.00513e-11
-3.68327e-10
-1.32306e-09
-3.6419e-09
-8.43871e-09
-1.78343e-08
-3.30123e-08
-6.1141e-08
-1.14277e-07
-1.86623e-07
-1.39472e-07
5.21582e-07
2.79803e-06
7.85585e-06
1.16031e-05
-4.10326e-06
-6.69165e-06
-3.11797e-06
-1.5379e-06
-1.1508e-06
-1.32042e-06
-1.78432e-06
-2.29993e-06
-6.39347e-07
5.42896e-06
9.59714e-06
2.49555e-06
-4.9353e-06
-2.36659e-06
-1.04056e-06
-4.76089e-07
-2.24817e-07
-1.09351e-07
-5.46665e-08
-2.81158e-08
-1.45745e-08
-7.85103e-09
-4.30989e-09
-2.38413e-09
-1.3159e-09
-7.18888e-10
-3.80255e-10
-1.98338e-10
-9.99985e-11
-5.18038e-11
-3.26565e-11
-3.00644e-11
-1.02666e-11
4.79039e-11
3.34058e-12
3.07838e-11
2.45358e-12
3.48195e-20
4.88155e-20
2.66966e-20
3.96955e-20
4.66512e-20
4.206e-20
2.49894e-20
1.35271e-20
2.8799e-20
3.29897e-20
3.16949e-20
1.89022e-20
3.3061e-20
8.62489e-20
6.19545e-20
7.81634e-20
4.34221e-20
4.14539e-20
4.84317e-20
-1.61468e-20
1.39931e-19
1.57143e-19
1.42495e-20
-5.64305e-20
5.47276e-20
1.34098e-19
-2.20435e-19
-4.47194e-19
-1.45261e-18
-4.55678e-18
-1.36748e-17
-4.05367e-17
-1.1731e-16
-3.34716e-16
-9.26185e-16
-2.54861e-15
-6.94371e-15
-1.76759e-14
-4.57856e-14
-1.11361e-13
-2.54133e-13
-5.46068e-13
-1.0761e-12
-1.85589e-12
-2.60852e-12
-2.27362e-12
-3.00834e-13
-6.68212e-12
-8.06098e-11
-4.14176e-10
-1.42236e-09
-3.82178e-09
-8.73041e-09
-1.82954e-08
-3.38123e-08
-6.27752e-08
-1.17247e-07
-1.91906e-07
-1.49324e-07
5.02122e-07
2.75738e-06
7.77308e-06
1.15746e-05
-3.91242e-06
-6.72252e-06
-3.15157e-06
-1.55063e-06
-1.14977e-06
-1.314e-06
-1.77126e-06
-2.30067e-06
-7.3116e-07
5.30379e-06
9.65692e-06
2.7206e-06
-4.964e-06
-2.40398e-06
-1.05627e-06
-4.83022e-07
-2.27966e-07
-1.10842e-07
-5.53936e-08
-2.84797e-08
-1.47724e-08
-7.95702e-09
-4.36667e-09
-2.41411e-09
-1.33117e-09
-7.26168e-10
-3.83785e-10
-1.99774e-10
-1.00749e-10
-5.22734e-11
-3.34519e-11
-3.0341e-11
-9.7565e-12
5.27519e-11
-2.25624e-13
3.12522e-11
2.33741e-12
3.79327e-20
3.64628e-20
6.01637e-20
7.15166e-20
4.50504e-20
4.28615e-20
5.37738e-20
5.77243e-20
3.5292e-20
3.15862e-20
1.86936e-20
3.47423e-20
4.65029e-20
1.42712e-20
2.44552e-20
1.75554e-20
6.09149e-20
1.58521e-20
2.52053e-20
1.04672e-19
1.03792e-19
4.79659e-20
-9.53618e-22
-1.43191e-19
1.17002e-21
-2.61851e-20
-1.84288e-19
-5.56996e-19
-1.69996e-18
-5.72591e-18
-1.68013e-17
-4.92702e-17
-1.40763e-16
-3.99671e-16
-1.09113e-15
-2.96602e-15
-7.94557e-15
-2.0121e-14
-5.1803e-14
-1.25851e-13
-2.86209e-13
-6.02306e-13
-1.18414e-12
-2.01399e-12
-2.75201e-12
-2.19488e-12
-3.99851e-13
-8.79702e-12
-9.34392e-11
-4.57574e-10
-1.53363e-09
-4.0041e-09
-8.99839e-09
-1.869e-08
-3.44672e-08
-6.40306e-08
-1.19809e-07
-1.97114e-07
-1.59741e-07
4.78601e-07
2.70538e-06
7.67341e-06
1.15777e-05
-3.69041e-06
-6.75361e-06
-3.1903e-06
-1.56812e-06
-1.15055e-06
-1.30746e-06
-1.75748e-06
-2.29934e-06
-8.26429e-07
5.16311e-06
9.70626e-06
2.97109e-06
-4.9876e-06
-2.44471e-06
-1.07342e-06
-4.90611e-07
-2.3137e-07
-1.12455e-07
-5.61818e-08
-2.88757e-08
-1.49827e-08
-8.06941e-09
-4.42726e-09
-2.44658e-09
-1.34819e-09
-7.34717e-10
-3.88093e-10
-2.01738e-10
-1.0177e-10
-5.28746e-11
-3.42207e-11
-3.07667e-11
-9.46553e-12
5.65476e-11
-2.68652e-12
3.16328e-11
2.26818e-12
4.16693e-20
3.38179e-20
3.87353e-20
6.41859e-20
7.4217e-20
5.55274e-20
3.24526e-20
1.95637e-20
3.72493e-20
5.20245e-20
1.04628e-21
3.14857e-20
2.69413e-20
2.35285e-20
2.59061e-20
1.01757e-20
5.39827e-20
1.30235e-19
1.53559e-19
1.14677e-19
2.07608e-20
1.27531e-19
2.72627e-20
-1.28709e-20
3.53221e-20
5.80782e-20
-2.31371e-19
-6.7875e-19
-2.51635e-18
-7.23663e-18
-1.99845e-17
-5.79526e-17
-1.65324e-16
-4.6577e-16
-1.27915e-15
-3.43553e-15
-8.92849e-15
-2.27178e-14
-5.81173e-14
-1.40399e-13
-3.14811e-13
-6.66735e-13
-1.28914e-12
-2.1915e-12
-2.91922e-12
-2.48077e-12
-6.2672e-13
-1.14334e-11
-1.07034e-10
-5.0314e-10
-1.6228e-09
-4.14922e-09
-9.20944e-09
-1.89909e-08
-3.49394e-08
-6.49722e-08
-1.21862e-07
-2.01757e-07
-1.71033e-07
4.49651e-07
2.63392e-06
7.52292e-06
1.15945e-05
-3.34691e-06
-6.84187e-06
-3.25257e-06
-1.59073e-06
-1.15095e-06
-1.29783e-06
-1.73801e-06
-2.28734e-06
-9.3767e-07
5.00141e-06
9.75596e-06
3.25617e-06
-5.00323e-06
-2.49035e-06
-1.09265e-06
-4.9919e-07
-2.35191e-07
-1.14268e-07
-5.7066e-08
-2.93195e-08
-1.52125e-08
-8.19135e-09
-4.49302e-09
-2.48211e-09
-1.36714e-09
-7.44559e-10
-3.93136e-10
-2.04179e-10
-1.03022e-10
-5.35766e-11
-3.49365e-11
-3.10665e-11
-9.32744e-12
5.94262e-11
-4.29824e-12
3.19931e-11
2.23431e-12
4.62597e-20
6.17332e-20
5.25836e-20
5.15295e-20
4.08091e-20
4.21686e-20
2.52229e-20
1.75362e-20
4.30135e-20
7.01671e-20
2.84552e-20
7.65601e-20
5.40493e-20
2.51573e-20
1.15146e-19
1.2301e-19
9.61603e-20
4.54427e-20
9.0752e-20
1.83272e-19
1.13819e-19
7.37804e-20
5.47869e-20
9.13459e-20
4.67146e-20
-2.53163e-19
-2.43146e-19
-8.03652e-19
-2.90539e-18
-7.95404e-18
-2.39852e-17
-6.81363e-17
-1.90893e-16
-5.30683e-16
-1.44144e-15
-3.84535e-15
-9.96765e-15
-2.50351e-14
-6.40798e-14
-1.53011e-13
-3.40222e-13
-7.15434e-13
-1.37586e-12
-2.2796e-12
-3.01559e-12
-2.46092e-12
-7.54159e-13
-1.41526e-11
-1.21767e-10
-5.44848e-10
-1.71069e-09
-4.29513e-09
-9.40451e-09
-1.91632e-08
-3.52512e-08
-6.57268e-08
-1.23446e-07
-2.05571e-07
-1.81034e-07
4.22071e-07
2.56651e-06
7.38067e-06
1.16203e-05
-2.97232e-06
-6.91614e-06
-3.32115e-06
-1.62048e-06
-1.15412e-06
-1.2863e-06
-1.7062e-06
-2.36311e-06
-1.02343e-06
4.82418e-06
9.76708e-06
3.57745e-06
-5.01012e-06
-2.54736e-06
-1.11647e-06
-5.09475e-07
-2.3964e-07
-1.16339e-07
-5.8062e-08
-2.98145e-08
-1.54619e-08
-8.3217e-09
-4.56324e-09
-2.5202e-09
-1.38768e-09
-7.55456e-10
-3.98763e-10
-2.06995e-10
-1.04453e-10
-5.43529e-11
-3.5598e-11
-3.15067e-11
-9.30668e-12
6.15539e-11
-5.26416e-12
3.23582e-11
2.22681e-12
3.89254e-20
5.98781e-20
6.51489e-20
4.19081e-20
3.69528e-20
3.19459e-20
2.09137e-20
2.12923e-20
2.39268e-20
2.90978e-20
1.12341e-20
2.1558e-20
-4.10679e-21
7.69723e-20
1.33197e-20
7.13528e-20
7.09862e-20
6.22957e-20
1.00557e-19
1.28195e-19
1.83853e-19
4.42334e-20
-5.67189e-20
3.16233e-20
4.04367e-20
5.80783e-21
-2.39642e-19
-1.00265e-18
-2.98416e-18
-8.89042e-18
-2.66478e-17
-7.62079e-17
-2.15615e-16
-5.99348e-16
-1.61661e-15
-4.28665e-15
-1.10795e-14
-2.73853e-14
-7.0378e-14
-1.64794e-13
-3.64319e-13
-7.55346e-13
-1.42078e-12
-2.33523e-12
-3.09841e-12
-2.40298e-12
-8.53672e-13
-1.72139e-11
-1.37184e-10
-5.93892e-10
-1.8276e-09
-4.53149e-09
-9.90535e-09
-1.91172e-08
-3.54451e-08
-6.62489e-08
-1.24578e-07
-2.08879e-07
-1.92068e-07
3.85013e-07
2.47524e-06
7.21103e-06
1.16805e-05
-2.56843e-06
-6.99698e-06
-3.39175e-06
-1.64848e-06
-1.15802e-06
-1.28042e-06
-1.69055e-06
-2.35191e-06
-1.12812e-06
4.62298e-06
9.78231e-06
3.91523e-06
-5.00379e-06
-2.60376e-06
-1.13983e-06
-5.19791e-07
-2.44161e-07
-1.18468e-07
-5.90929e-08
-3.03301e-08
-1.57203e-08
-8.4586e-09
-4.63642e-09
-2.55984e-09
-1.4092e-09
-7.67081e-10
-4.04806e-10
-2.10086e-10
-1.06009e-10
-5.51761e-11
-3.62057e-11
-3.19899e-11
-9.36613e-12
6.31103e-11
-5.75379e-12
3.27319e-11
2.23828e-12
4.0778e-20
3.08074e-20
7.24197e-20
6.47549e-20
3.89033e-20
4.164e-20
5.7864e-20
9.4809e-20
6.35569e-20
6.25184e-20
3.51365e-20
7.63552e-20
3.5243e-20
3.58304e-20
3.86476e-20
4.3357e-20
6.97593e-20
7.70849e-20
-6.25385e-21
2.96205e-20
-2.08572e-20
7.28297e-20
6.99206e-20
6.00683e-20
-6.45216e-20
-1.58853e-20
-2.73615e-19
-1.0218e-18
-3.30308e-18
-9.94723e-18
-2.89039e-17
-8.4159e-17
-2.37691e-16
-6.5442e-16
-1.78809e-15
-4.69064e-15
-1.19629e-14
-2.95859e-14
-7.38797e-14
-1.76952e-13
-3.86469e-13
-7.94127e-13
-1.48124e-12
-2.43663e-12
-3.15975e-12
-2.32442e-12
-9.15038e-13
-1.97856e-11
-1.50328e-10
-6.33991e-10
-1.91855e-09
-4.70648e-09
-1.01813e-08
-1.89483e-08
-3.56037e-08
-6.66533e-08
-1.25375e-07
-2.11317e-07
-2.01192e-07
3.57399e-07
2.39875e-06
7.04963e-06
1.17077e-05
-2.13773e-06
-7.08794e-06
-3.46943e-06
-1.67829e-06
-1.16168e-06
-1.27478e-06
-1.67746e-06
-2.33997e-06
-1.23789e-06
4.4235e-06
9.78796e-06
4.24471e-06
-4.9845e-06
-2.66045e-06
-1.16393e-06
-5.30405e-07
-2.48796e-07
-1.20631e-07
-6.01363e-08
-3.08519e-08
-1.59809e-08
-8.5965e-09
-4.71177e-09
-2.60141e-09
-1.43206e-09
-7.7941e-10
-4.11191e-10
-2.13405e-10
-1.07688e-10
-5.60521e-11
-3.67745e-11
-3.24961e-11
-9.46536e-12
6.42452e-11
-5.89413e-12
3.31069e-11
2.26282e-12
4.25695e-20
2.49579e-20
7.70576e-20
6.76356e-20
6.18891e-20
3.55079e-20
5.46325e-20
4.78042e-20
1.98561e-20
6.80295e-20
3.88452e-20
-4.07266e-21
7.17927e-20
3.67724e-20
2.85992e-20
5.51647e-20
1.50892e-20
5.41171e-20
2.20199e-21
4.86199e-20
1.52784e-19
9.01959e-20
7.78008e-20
3.84946e-20
3.92456e-20
1.4773e-20
-3.23322e-19
-1.20626e-18
-3.77118e-18
-1.12007e-17
-3.22538e-17
-9.25591e-17
-2.57864e-16
-7.16524e-16
-1.9204e-15
-5.01445e-15
-1.26859e-14
-3.12931e-14
-7.77455e-14
-1.86853e-13
-4.08562e-13
-8.39416e-13
-1.5559e-12
-2.54521e-12
-3.23544e-12
-2.31387e-12
-1.06581e-12
-2.17121e-11
-1.58317e-10
-6.5398e-10
-1.95198e-09
-4.7422e-09
-1.01741e-08
-1.87998e-08
-3.58104e-08
-6.6938e-08
-1.25864e-07
-2.13423e-07
-2.09696e-07
3.28493e-07
2.3285e-06
6.89888e-06
1.17276e-05
-1.70241e-06
-7.16847e-06
-3.54773e-06
-1.70941e-06
-1.16596e-06
-1.26796e-06
-1.66198e-06
-2.32862e-06
-1.33664e-06
4.2213e-06
9.75965e-06
4.57787e-06
-4.951e-06
-2.72396e-06
-1.19e-06
-5.41647e-07
-2.53658e-07
-1.22934e-07
-6.12549e-08
-3.14107e-08
-1.6253e-08
-8.73875e-09
-4.78836e-09
-2.64331e-09
-1.45511e-09
-7.92112e-10
-4.17833e-10
-2.16853e-10
-1.09389e-10
-5.69193e-11
-3.72971e-11
-3.30239e-11
-9.64495e-12
6.50377e-11
-5.79084e-12
3.34993e-11
2.29796e-12
2.1601e-20
6.58156e-20
3.91519e-20
7.0846e-20
5.72756e-20
4.60828e-20
6.18721e-20
5.42595e-20
5.08434e-20
3.73516e-20
6.08007e-20
4.67169e-20
6.05131e-20
7.13585e-20
1.19637e-19
1.65127e-19
1.10678e-19
5.23605e-20
9.69674e-20
2.26384e-20
2.16586e-19
1.1104e-19
5.58349e-20
-2.37631e-20
-9.58621e-20
-1.29736e-19
-2.99473e-19
-1.37236e-18
-4.27206e-18
-1.20431e-17
-3.42839e-17
-9.90349e-17
-2.7654e-16
-7.55665e-16
-2.02692e-15
-5.28136e-15
-1.34256e-14
-3.27672e-14
-8.25493e-14
-1.96478e-13
-4.25937e-13
-8.6791e-13
-1.62353e-12
-2.64634e-12
-3.33922e-12
-2.39582e-12
-1.31426e-12
-2.3195e-11
-1.6373e-10
-6.662e-10
-1.96873e-09
-4.74892e-09
-1.01313e-08
-1.86517e-08
-3.59307e-08
-6.71193e-08
-1.26132e-07
-2.14898e-07
-2.17223e-07
2.99478e-07
2.25055e-06
6.74664e-06
1.17464e-05
-1.27608e-06
-7.24156e-06
-3.62385e-06
-1.74199e-06
-1.17168e-06
-1.26136e-06
-1.64701e-06
-2.3148e-06
-1.42295e-06
4.03044e-06
9.73172e-06
4.88239e-06
-4.90551e-06
-2.7854e-06
-1.2154e-06
-5.52868e-07
-2.58565e-07
-1.25222e-07
-6.23557e-08
-3.19583e-08
-1.65218e-08
-8.87856e-09
-4.86333e-09
-2.6842e-09
-1.47755e-09
-8.04419e-10
-4.24251e-10
-2.20228e-10
-1.11077e-10
-5.77833e-11
-3.77842e-11
-3.36401e-11
-9.81866e-12
6.55922e-11
-5.50436e-12
3.38692e-11
2.33757e-12
4.30378e-20
4.45867e-20
1.83573e-20
5.23274e-20
3.88783e-20
2.97071e-20
4.84135e-20
1.39183e-20
2.96501e-20
5.95127e-20
8.00352e-20
8.3352e-20
1.08729e-19
6.98688e-20
1.5823e-20
5.52493e-20
1.00667e-19
1.22324e-19
1.31758e-19
8.26186e-20
-2.92185e-20
-2.50341e-20
8.55145e-20
-7.07154e-20
-1.22291e-19
-1.71227e-19
-5.41444e-19
-1.47583e-18
-4.41634e-18
-1.28605e-17
-3.72944e-17
-1.05626e-16
-2.9047e-16
-7.92415e-16
-2.09241e-15
-5.40146e-15
-1.40853e-14
-3.42234e-14
-8.56697e-14
-1.9967e-13
-4.49165e-13
-9.07064e-13
-1.6868e-12
-2.71364e-12
-3.43163e-12
-2.48149e-12
-1.52793e-12
-2.43396e-11
-1.67784e-10
-6.75083e-10
-1.97951e-09
-4.7468e-09
-1.00877e-08
-1.85284e-08
-3.59694e-08
-6.71683e-08
-1.2614e-07
-2.15864e-07
-2.23666e-07
2.75167e-07
2.18202e-06
6.60513e-06
1.1754e-05
-8.61124e-07
-7.30348e-06
-3.69577e-06
-1.77202e-06
-1.17787e-06
-1.22875e-06
-1.63501e-06
-2.30281e-06
-1.50056e-06
3.85151e-06
9.69627e-06
5.16328e-06
-4.85195e-06
-2.84358e-06
-1.23969e-06
-5.63402e-07
-2.63126e-07
-1.27346e-07
-6.33752e-08
-3.2464e-08
-1.67678e-08
-9.00661e-09
-4.93204e-09
-2.72171e-09
-1.49817e-09
-8.15742e-10
-4.30151e-10
-2.23322e-10
-1.12611e-10
-5.85567e-11
-3.81918e-11
-3.40264e-11
-9.99174e-12
6.59344e-11
-5.13648e-12
3.41947e-11
2.37701e-12
3.87522e-20
4.68836e-20
3.92425e-20
5.74565e-20
3.89133e-20
3.27635e-20
4.65253e-20
3.17234e-20
4.0366e-20
1.61096e-20
2.11059e-20
1.17845e-19
5.20898e-20
1.99443e-20
6.15002e-20
6.20159e-21
2.15516e-20
1.18509e-19
2.73603e-20
7.01622e-20
-4.16424e-21
2.87483e-20
3.34247e-20
1.97478e-20
7.54587e-20
-2.60538e-19
-4.9291e-19
-1.7173e-18
-4.68248e-18
-1.36038e-17
-3.79582e-17
-1.08029e-16
-3.01869e-16
-8.19777e-16
-2.18298e-15
-5.71489e-15
-1.45556e-14
-3.64578e-14
-8.96837e-14
-2.11721e-13
-4.6186e-13
-9.33212e-13
-1.73233e-12
-2.76993e-12
-3.50578e-12
-2.55434e-12
-1.70501e-12
-2.52006e-11
-1.70612e-10
-6.80668e-10
-1.98523e-09
-4.74192e-09
-1.00471e-08
-1.8426e-08
-3.59745e-08
-6.71608e-08
-1.26041e-07
-2.16519e-07
-2.28878e-07
2.54062e-07
2.12564e-06
6.48847e-06
1.17549e-05
-5.10289e-07
-7.34677e-06
-3.75613e-06
-1.79791e-06
-1.18486e-06
-1.23524e-06
-1.62685e-06
-2.2927e-06
-1.56678e-06
3.69913e-06
9.66177e-06
5.39915e-06
-4.79774e-06
-2.89433e-06
-1.26069e-06
-5.72521e-07
-2.67079e-07
-1.29185e-07
-6.42513e-08
-3.29001e-08
-1.69799e-08
-9.11698e-09
-4.9913e-09
-2.75408e-09
-1.51599e-09
-8.25554e-10
-4.35277e-10
-2.26043e-10
-1.13955e-10
-5.92364e-11
-3.85473e-11
-3.44083e-11
-1.0147e-11
6.61624e-11
-4.74729e-12
3.4471e-11
2.41307e-12
5.01095e-20
5.12956e-20
5.53824e-20
4.57006e-20
5.31866e-20
4.34239e-20
5.82223e-20
6.71558e-20
6.07351e-20
2.27225e-20
2.18551e-20
1.57188e-20
5.37823e-20
1.55834e-20
8.96579e-20
6.51323e-20
1.25081e-20
3.28572e-20
4.19427e-20
1.10889e-19
7.70705e-20
-1.09297e-20
5.89533e-20
4.42026e-21
-6.64599e-20
-3.53494e-20
-6.31613e-19
-1.58614e-18
-4.65368e-18
-1.34633e-17
-3.93518e-17
-1.13614e-16
-3.13031e-16
-8.48566e-16
-2.2536e-15
-5.91206e-15
-1.51151e-14
-3.75413e-14
-9.19794e-14
-2.14148e-13
-4.70611e-13
-9.54326e-13
-1.74115e-12
-2.82386e-12
-3.57324e-12
-2.62146e-12
-1.85608e-12
-2.58727e-11
-1.72762e-10
-6.84838e-10
-1.9891e-09
-4.73737e-09
-1.00171e-08
-1.835e-08
-3.59579e-08
-6.71145e-08
-1.25878e-07
-2.1686e-07
-2.32619e-07
2.38329e-07
2.08121e-06
6.39088e-06
1.17365e-05
-2.09991e-07
-7.38992e-06
-3.81041e-06
-1.82016e-06
-1.18887e-06
-1.23211e-06
-1.61864e-06
-2.28615e-06
-1.61341e-06
3.58137e-06
9.62671e-06
5.58112e-06
-4.74916e-06
-2.93507e-06
-1.27754e-06
-5.79828e-07
-2.70249e-07
-1.30663e-07
-6.49639e-08
-3.32524e-08
-1.71505e-08
-9.20563e-09
-5.03882e-09
-2.78003e-09
-1.53027e-09
-8.33425e-10
-4.39388e-10
-2.28217e-10
-1.15025e-10
-5.97728e-11
-3.88232e-11
-3.48315e-11
-1.02911e-11
6.62823e-11
-4.40237e-12
3.4687e-11
2.44301e-12
4.08532e-20
5.32049e-20
8.08663e-20
1.02374e-19
6.44574e-20
5.9257e-20
5.42064e-20
1.02268e-19
4.23153e-20
2.18624e-20
2.1885e-20
2.85546e-20
3.99259e-20
4.30659e-20
6.56563e-20
1.05796e-19
7.93477e-20
5.4853e-20
6.39057e-20
-6.19817e-21
1.23013e-19
5.5524e-20
1.7611e-20
6.5536e-20
8.47613e-20
-1.17216e-19
-5.4721e-19
-1.84344e-18
-5.10214e-18
-1.4103e-17
-4.0638e-17
-1.13754e-16
-3.19848e-16
-8.66666e-16
-2.34525e-15
-6.18393e-15
-1.56913e-14
-3.80073e-14
-9.24329e-14
-2.19758e-13
-4.72603e-13
-9.58118e-13
-1.76265e-12
-2.85995e-12
-3.62223e-12
-2.67668e-12
-1.98736e-12
-2.64046e-11
-1.74403e-10
-6.88081e-10
-1.99219e-09
-4.73477e-09
-9.9981e-09
-1.82994e-08
-3.59433e-08
-6.70775e-08
-1.25755e-07
-2.17072e-07
-2.35187e-07
2.27409e-07
2.05063e-06
6.32587e-06
1.17247e-05
-6.36253e-09
-7.4151e-06
-3.84669e-06
-1.83536e-06
-1.19157e-06
-1.22958e-06
-1.61279e-06
-2.27706e-06
-1.64694e-06
3.49766e-06
9.60311e-06
5.70807e-06
-4.71212e-06
-2.96414e-06
-1.28954e-06
-5.85029e-07
-2.72503e-07
-1.31711e-07
-6.54653e-08
-3.35006e-08
-1.72709e-08
-9.26811e-09
-5.07234e-09
-2.79835e-09
-1.54037e-09
-8.38995e-10
-4.42296e-10
-2.29759e-10
-1.15785e-10
-6.01535e-11
-3.90131e-11
-3.50552e-11
-1.03867e-11
6.63513e-11
-4.13993e-12
3.48379e-11
2.46467e-12
3.76108e-20
2.50404e-20
3.67092e-20
4.41689e-20
3.53059e-20
4.86161e-20
3.76416e-20
6.05738e-20
5.27102e-20
4.61198e-20
3.00531e-20
3.52952e-20
4.69865e-20
3.10121e-20
5.163e-20
5.28759e-20
7.61226e-21
1.25034e-20
3.20461e-20
8.55344e-20
5.59727e-20
8.97767e-21
2.53891e-20
9.92573e-20
6.21631e-20
3.28648e-20
-6.64645e-19
-1.51815e-18
-5.06915e-18
-1.49315e-17
-4.14617e-17
-1.19282e-16
-3.25248e-16
-8.78844e-16
-2.37126e-15
-6.12588e-15
-1.57044e-14
-3.8277e-14
-9.58302e-14
-2.23087e-13
-4.81762e-13
-9.6882e-13
-1.77121e-12
-2.88714e-12
-3.65105e-12
-2.71577e-12
-2.08695e-12
-2.67891e-11
-1.75549e-10
-6.90316e-10
-1.99466e-09
-4.7345e-09
-9.98855e-09
-1.82728e-08
-3.59419e-08
-6.7069e-08
-1.25708e-07
-2.17205e-07
-2.36542e-07
2.21703e-07
2.03475e-06
6.29286e-06
1.17183e-05
9.98253e-08
-7.42729e-06
-3.8658e-06
-1.84328e-06
-1.19291e-06
-1.22812e-06
-1.60956e-06
-2.27586e-06
-1.66443e-06
3.45257e-06
9.58935e-06
5.77461e-06
-4.69132e-06
-2.97965e-06
-1.29594e-06
-5.878e-07
-2.73706e-07
-1.32272e-07
-6.57347e-08
-3.36346e-08
-1.73358e-08
-9.30187e-09
-5.09045e-09
-2.80824e-09
-1.54582e-09
-8.42002e-10
-4.43867e-10
-2.30591e-10
-1.16194e-10
-6.03566e-11
-3.91053e-11
-3.51226e-11
-1.04337e-11
6.63772e-11
-3.99759e-12
3.49174e-11
2.47638e-12
2.93091e-20
6.92631e-20
4.7415e-20
6.7104e-20
5.02898e-20
6.08971e-20
4.08789e-20
9.06261e-20
3.72806e-20
2.29375e-20
7.28883e-20
6.96847e-20
8.15113e-20
2.9022e-20
4.5142e-20
5.524e-20
1.45577e-20
4.98384e-20
4.77225e-20
6.77907e-20
6.98046e-20
1.08432e-20
3.11598e-20
1.63156e-20
-2.28737e-20
-2.08314e-19
-6.40856e-19
-1.86913e-18
-5.20939e-18
-1.4946e-17
-4.24132e-17
-1.19751e-16
-3.27797e-16
-9.02719e-16
-2.39048e-15
-6.14616e-15
-1.58413e-14
-3.87222e-14
-9.61427e-14
-2.21318e-13
-4.85384e-13
-9.75222e-13
-1.79058e-12
-2.89754e-12
-3.66854e-12
-2.74288e-12
-2.1572e-12
-2.7053e-11
-1.76359e-10
-6.9207e-10
-1.99729e-09
-4.73687e-09
-9.98829e-09
-1.82671e-08
-3.59616e-08
-6.70982e-08
-1.25744e-07
-2.17291e-07
-2.36865e-07
2.20572e-07
2.03173e-06
6.28631e-06
1.17173e-05
1.22247e-07
-7.43014e-06
-3.86991e-06
-1.84495e-06
-1.19323e-06
-1.22789e-06
-1.609e-06
-2.27521e-06
-1.66727e-06
3.4459e-06
9.58705e-06
5.78514e-06
-4.68786e-06
-2.98206e-06
-1.29693e-06
-5.88222e-07
-2.73889e-07
-1.32356e-07
-6.57746e-08
-3.36543e-08
-1.73453e-08
-9.30679e-09
-5.09308e-09
-2.80967e-09
-1.5466e-09
-8.4243e-10
-4.44091e-10
-2.30709e-10
-1.16253e-10
-6.03891e-11
-3.91304e-11
-3.51922e-11
-1.04439e-11
6.63953e-11
-3.97959e-12
3.49303e-11
2.47778e-12
3.67302e-20
3.7205e-20
7.51336e-20
7.46318e-20
5.46898e-20
2.74712e-20
1.79247e-20
4.03727e-20
7.29782e-20
6.64523e-20
2.23599e-20
5.26179e-20
8.98305e-21
3.72044e-20
6.2037e-20
5.2759e-20
5.94133e-20
4.61133e-20
9.15925e-21
1.4889e-20
3.3805e-20
2.41469e-20
1.8602e-20
-1.63835e-20
1.59343e-20
-2.02889e-19
-5.50319e-19
-1.77398e-18
-5.0472e-18
-1.48599e-17
-4.25987e-17
-1.19984e-16
-3.34395e-16
-8.99654e-16
-2.39952e-15
-6.19715e-15
-1.58465e-14
-3.9113e-14
-9.65605e-14
-2.24662e-13
-4.85958e-13
-9.75574e-13
-1.80197e-12
-2.9014e-12
-3.67361e-12
-2.75788e-12
-2.20445e-12
-2.72356e-11
-1.76965e-10
-6.93682e-10
-2.00086e-09
-4.7439e-09
-1.00015e-08
-1.829e-08
-3.60162e-08
-6.71924e-08
-1.25924e-07
-2.17391e-07
-2.35996e-07
2.25004e-07
2.04451e-06
6.31286e-06
1.17218e-05
4.09636e-08
-7.42107e-06
-3.85556e-06
-1.83889e-06
-1.19207e-06
-1.22878e-06
-1.61114e-06
-2.27492e-06
-1.65447e-06
3.47865e-06
9.59681e-06
5.73613e-06
-4.70301e-06
-2.97057e-06
-1.29218e-06
-5.86162e-07
-2.72996e-07
-1.3194e-07
-6.55751e-08
-3.35552e-08
-1.72974e-08
-9.28189e-09
-5.07972e-09
-2.80237e-09
-1.54257e-09
-8.40201e-10
-4.42925e-10
-2.30088e-10
-1.15946e-10
-6.0232e-11
-3.90449e-11
-3.50462e-11
-1.03955e-11
6.6385e-11
-4.10584e-12
3.48705e-11
2.46837e-12
3.9567e-20
2.82413e-20
3.86817e-20
3.27317e-20
4.5392e-20
4.74576e-20
2.44839e-20
6.06268e-20
4.08378e-20
2.51729e-20
2.33291e-20
3.42195e-20
1.44899e-20
8.32885e-20
5.82277e-20
1.18619e-19
1.37945e-19
3.17434e-20
3.41523e-20
7.11908e-20
7.66915e-20
1.15452e-19
2.96771e-21
1.24065e-19
2.22353e-20
-1.40803e-19
-5.59978e-19
-1.8071e-18
-4.93866e-18
-1.42914e-17
-4.18162e-17
-1.17683e-16
-3.36581e-16
-9.06506e-16
-2.38816e-15
-6.14989e-15
-1.5913e-14
-3.79964e-14
-9.46571e-14
-2.24279e-13
-4.80492e-13
-9.76497e-13
-1.78477e-12
-2.90064e-12
-3.67074e-12
-2.75769e-12
-2.22032e-12
-2.73051e-11
-1.77274e-10
-6.94943e-10
-2.00497e-09
-4.75477e-09
-1.00265e-08
-1.83399e-08
-3.61067e-08
-6.73563e-08
-1.26258e-07
-2.17536e-07
-2.34043e-07
2.34661e-07
2.07231e-06
6.37091e-06
1.17298e-05
-1.38481e-07
-7.39935e-06
-3.82361e-06
-1.82554e-06
-1.18954e-06
-1.23074e-06
-1.61594e-06
-2.28028e-06
-1.62565e-06
3.54908e-06
9.61756e-06
5.62938e-06
-4.7346e-06
-2.94581e-06
-1.28195e-06
-5.81727e-07
-2.71074e-07
-1.31044e-07
-6.51444e-08
-3.33415e-08
-1.7194e-08
-9.2282e-09
-5.05092e-09
-2.78663e-09
-1.53389e-09
-8.35405e-10
-4.40421e-10
-2.28758e-10
-1.15291e-10
-5.99058e-11
-3.88913e-11
-3.48022e-11
-1.03092e-11
6.63671e-11
-4.35812e-12
3.47442e-11
2.44866e-12
5.27661e-20
6.8562e-20
4.43807e-20
5.53384e-20
4.63292e-20
4.09361e-20
3.24637e-20
2.76454e-20
2.37938e-20
3.06496e-20
6.48494e-21
1.89272e-20
3.83421e-20
3.92962e-20
1.36728e-20
4.34091e-20
6.45766e-20
8.22553e-20
6.78634e-20
1.16006e-19
4.10265e-20
2.83015e-20
7.35412e-20
5.50585e-20
4.22882e-20
1.00384e-20
-4.33096e-19
-1.88587e-18
-4.9537e-18
-1.43884e-17
-4.15178e-17
-1.17191e-16
-3.28548e-16
-8.93485e-16
-2.39406e-15
-6.27409e-15
-1.58719e-14
-3.80702e-14
-9.40174e-14
-2.22708e-13
-4.79818e-13
-9.61259e-13
-1.77457e-12
-2.89387e-12
-3.65267e-12
-2.74138e-12
-2.20753e-12
-2.72822e-11
-1.77373e-10
-6.96107e-10
-2.01025e-09
-4.77089e-09
-1.00663e-08
-1.84212e-08
-3.62412e-08
-6.7603e-08
-1.26768e-07
-2.17717e-07
-2.30797e-07
2.50388e-07
2.11712e-06
6.46413e-06
1.17359e-05
-4.2309e-07
-7.36133e-06
-3.77325e-06
-1.80465e-06
-1.18559e-06
-1.23377e-06
-1.62348e-06
-2.28891e-06
-1.58376e-06
3.6569e-06
9.64483e-06
5.46418e-06
-4.77939e-06
-2.90878e-06
-1.26665e-06
-5.75093e-07
-2.682e-07
-1.29707e-07
-6.45037e-08
-3.30242e-08
-1.70404e-08
-9.14835e-09
-5.00807e-09
-2.7632e-09
-1.52097e-09
-8.28266e-10
-4.36689e-10
-2.26779e-10
-1.14319e-10
-5.94183e-11
-3.86523e-11
-3.45123e-11
-1.01752e-11
6.63268e-11
-4.72344e-12
3.45531e-11
2.41962e-12
4.52669e-20
3.99196e-20
5.99982e-20
6.79918e-20
5.46016e-20
2.94968e-20
3.12712e-20
6.41695e-20
2.32629e-20
1.05384e-20
5.2367e-20
4.0524e-20
5.61949e-20
7.98695e-20
5.44943e-20
7.52615e-20
8.08032e-20
9.95979e-20
6.62594e-20
1.04922e-19
1.63488e-19
-1.29854e-20
-3.69371e-20
1.1953e-20
1.77304e-20
-4.65728e-20
-4.80556e-19
-1.65556e-18
-4.88193e-18
-1.43676e-17
-4.03558e-17
-1.15379e-16
-3.18942e-16
-8.68663e-16
-2.32103e-15
-6.03423e-15
-1.54064e-14
-3.76647e-14
-9.1139e-14