/*--------------------------------*- C++ -*----------------------------------*\
  =========                 |
  \\      /  F ield         | OpenFOAM: The Open Source CFD Toolbox
   \\    /   O peration     | Website:  https://openfoam.org
    \\  /    A nd           | Version:  10
     \\/     M anipulation  |
\*---------------------------------------------------------------------------*/
FoamFile
{
    format      ascii;
    class       volScalarField;
    location    "1";
    object      RR.PXC12H25;
}
// * * * * * * * * * * * * * * * * * * * * * * * * * * * * * * * * * * * * * //

dimensions      [1 -3 -1 0 0 0 0];

internalField   nonuniform List<scalar> 
4000
(
1.85425e-18
-3.7549e-18
1.00409e-19
-1.29907e-18
1.50404e-18
-5.13733e-19
-6.19131e-19
7.23661e-19
-3.40539e-19
-6.59505e-19
-4.36423e-20
-9.81866e-19
9.19054e-20
-6.73415e-19
-2.36788e-18
6.5038e-18
2.61977e-18
2.44123e-18
9.64276e-19
2.83054e-18
2.67582e-18
2.17428e-18
-1.43821e-17
-1.14163e-17
7.04309e-18
-8.35956e-18
6.29002e-18
3.56495e-19
-3.00593e-17
-9.40929e-18
-5.17407e-17
-1.02989e-16
-1.45422e-16
-2.00289e-17
-4.69776e-16
-2.20883e-15
-4.41189e-15
-1.24292e-14
-4.26103e-14
-1.35639e-13
-4.11564e-13
-1.19695e-12
-3.20445e-12
-7.76378e-12
-1.5689e-11
-1.84096e-11
4.78464e-11
4.29394e-10
1.67406e-09
4.11506e-09
6.46532e-09
6.73509e-09
5.96943e-09
7.34582e-09
9.97406e-09
5.69025e-09
-2.55621e-08
-1.38675e-07
-4.86392e-07
-1.29702e-06
-1.64847e-06
3.55303e-06
9.34501e-06
-1.78745e-06
-2.61408e-06
-1.65493e-06
-1.16436e-06
-1.15029e-06
-1.34909e-06
-1.67904e-06
-1.75e-06
1.00676e-06
6.84489e-06
7.68123e-06
-1.32911e-06
-3.89359e-06
-1.67719e-06
-7.42342e-07
-3.41185e-07
-1.61649e-07
-7.89941e-08
-3.96597e-08
-2.04302e-08
-1.07895e-08
-5.83182e-09
-3.2171e-09
-1.79187e-09
-9.97809e-10
-5.50482e-10
-2.98606e-10
-1.5857e-10
-8.05216e-11
-4.18389e-11
-2.5829e-11
-2.68368e-11
-1.29201e-11
2.58224e-11
6.17155e-11
-3.18984e-11
-6.36748e-12
8.67874e-18
-3.56552e-18
-1.51738e-18
8.02828e-18
-7.96714e-18
3.53212e-18
3.04313e-18
-9.88421e-19
-5.4762e-19
3.3909e-18
-9.88809e-19
-3.53592e-18
2.43584e-18
-6.09713e-19
-1.75243e-18
-1.35592e-18
1.22423e-17
6.10049e-19
1.83639e-17
2.65894e-17
-1.28465e-18
1.79608e-19
3.93724e-18
1.35973e-17
1.97875e-17
2.77327e-17
-7.45299e-18
5.08193e-18
-2.90443e-17
-1.49338e-17
-1.19907e-17
-3.24193e-17
-9.81282e-17
3.46629e-17
-3.57371e-16
-2.6628e-15
-4.96229e-15
-1.82755e-14
-5.67842e-14
-1.79137e-13
-5.4506e-13
-1.54608e-12
-4.10897e-12
-9.64862e-12
-1.87417e-11
-1.64221e-11
8.96192e-11
6.10208e-10
2.12347e-09
4.69545e-09
6.36744e-09
6.03431e-09
5.73809e-09
7.37913e-09
9.92589e-09
3.86443e-09
-2.97142e-08
-1.45984e-07
-4.8843e-07
-1.27205e-06
-1.59202e-06
3.46253e-06
9.28503e-06
-1.60344e-06
-2.62788e-06
-1.67477e-06
-1.16731e-06
-1.1388e-06
-1.33409e-06
-1.65728e-06
-1.79925e-06
7.62628e-07
6.65725e-06
7.95435e-06
-1.00363e-06
-3.99919e-06
-1.72357e-06
-7.60905e-07
-3.48933e-07
-1.64981e-07
-8.04383e-08
-4.03197e-08
-2.0746e-08
-1.09397e-08
-5.9032e-09
-3.25102e-09
-1.80735e-09
-1.00421e-09
-5.52685e-10
-2.98872e-10
-1.58146e-10
-8.00724e-11
-4.16589e-11
-2.62313e-11
-2.77413e-11
-1.09527e-11
3.41701e-11
5.03097e-11
-3.00979e-11
-5.91608e-12
2.33067e-17
-3.39839e-18
9.0118e-18
1.4266e-17
3.12212e-17
-1.24468e-17
-2.18015e-18
-1.76866e-18
-5.57335e-18
-5.01652e-18
4.53092e-18
-2.07522e-18
-2.03541e-18
-2.04844e-19
-1.72175e-18
8.87622e-18
-1.66596e-18
-3.77588e-18
3.74925e-18
2.59793e-19
1.18538e-17
-2.8858e-18
-1.61714e-19
1.06802e-18
4.18181e-17
1.21956e-17
-4.19961e-17
-1.52512e-17
-1.36908e-17
1.6712e-17
-6.15962e-17
1.99102e-17
-1.09196e-16
-4.44166e-16
-1.80308e-16
-2.05058e-15
-6.69314e-15
-2.29167e-14
-7.26717e-14
-2.23572e-13
-6.70303e-13
-1.82946e-12
-4.95989e-12
-1.13126e-11
-2.05947e-11
-1.05203e-11
1.35902e-10
7.70603e-10
2.44755e-09
5.04824e-09
6.36248e-09
5.97667e-09
5.89525e-09
7.60904e-09
9.0794e-09
2.30606e-09
-3.20155e-08
-1.50868e-07
-4.98234e-07
-1.27228e-06
-1.54808e-06
3.41957e-06
9.14852e-06
-1.45711e-06
-2.62699e-06
-1.68271e-06
-1.16291e-06
-1.12372e-06
-1.32102e-06
-1.63254e-06
-1.81831e-06
5.40788e-07
6.45642e-06
8.18242e-06
-6.55735e-07
-4.11663e-06
-1.77626e-06
-7.82033e-07
-3.57811e-07
-1.68873e-07
-8.22555e-08
-4.11702e-08
-2.11494e-08
-1.1123e-08
-5.99107e-09
-3.29347e-09
-1.82719e-09
-1.01285e-09
-5.55671e-10
-2.99106e-10
-1.57463e-10
-7.94475e-11
-4.14359e-11
-2.68001e-11
-2.84542e-11
-8.62433e-12
4.37704e-11
3.85414e-11
-2.79464e-11
-5.41514e-12
1.42604e-17
-1.8453e-18
7.0647e-18
7.2686e-18
-5.34802e-19
1.32909e-17
-9.68967e-20
-3.81761e-18
9.52955e-18
-3.75496e-18
-8.25257e-18
9.08424e-18
-1.02784e-17
2.50441e-19
1.1245e-18
4.76769e-18
-4.37714e-18
-2.29397e-17
-1.11678e-17
-3.13035e-18
7.8277e-18
2.3759e-17
-3.18515e-17
-1.91095e-17
9.08856e-19
2.87069e-17
2.02376e-17
-4.53205e-18
9.4207e-18
7.55697e-17
-1.1374e-16
9.53274e-17
1.17735e-17
-3.15172e-16
-9.90668e-16
-2.40578e-15
-9.4692e-15
-2.85238e-14
-9.10308e-14
-2.7892e-13
-8.26289e-13
-2.25626e-12
-5.94905e-12
-1.32312e-11
-2.2367e-11
-4.4118e-12
1.83013e-10
9.385e-10
2.77812e-09
4.99018e-09
6.32891e-09
6.05155e-09
5.79672e-09
7.6384e-09
8.74177e-09
1.20093e-09
-3.47103e-08
-1.56454e-07
-5.03354e-07
-1.26165e-06
-1.51512e-06
3.35242e-06
9.09562e-06
-1.3161e-06
-2.62957e-06
-1.69031e-06
-1.1631e-06
-1.11498e-06
-1.31071e-06
-1.61495e-06
-1.83598e-06
3.39456e-07
6.28292e-06
8.36227e-06
-3.19044e-07
-4.19484e-06
-1.81514e-06
-7.99388e-07
-3.65782e-07
-1.72599e-07
-8.40106e-08
-4.20374e-08
-2.1643e-08
-1.12141e-08
-6.04777e-09
-3.32548e-09
-1.84387e-09
-1.02104e-09
-5.60365e-10
-2.97523e-10
-1.56153e-10
-7.87424e-11
-4.12922e-11
-2.75834e-11
-2.9023e-11
-6.4173e-12
5.356e-11
2.65996e-11
-2.59878e-11
-4.97057e-12
-1.38571e-18
7.62096e-18
4.31112e-18
-4.97721e-18
2.56229e-18
-4.61583e-18
1.09263e-17
-2.22116e-18
-3.10889e-18
5.7094e-18
8.04025e-18
1.03593e-18
-5.33536e-18
-6.28032e-18
1.18139e-17
-9.29e-19
4.59727e-18
-7.39734e-18
1.11134e-17
4.16139e-18
-1.44032e-18
5.12852e-17
-2.83321e-17
1.9247e-17
1.99713e-17
2.73435e-17
-2.71044e-17
5.4672e-17
-2.20906e-17
9.78632e-17
-6.59339e-17
5.55833e-17
9.86271e-17
-2.02147e-16
-1.3862e-15
-3.36546e-15
-1.22616e-14
-3.41664e-14
-1.10127e-13
-3.3805e-13
-9.7961e-13
-2.69364e-12
-6.74045e-12
-1.50766e-11
-2.39855e-11
2.2629e-12
2.30962e-10
1.08508e-09
2.77983e-09
5.03084e-09
6.39065e-09
5.92285e-09
6.16336e-09
8.11468e-09
8.43686e-09
3.12182e-10
-3.68726e-08
-1.59608e-07
-5.08634e-07
-1.26013e-06
-1.48404e-06
3.32702e-06
9.00909e-06
-1.21717e-06
-2.62073e-06
-1.69433e-06
-1.1665e-06
-1.1106e-06
-1.30474e-06
-1.60334e-06
-1.84944e-06
1.97657e-07
6.13256e-06
8.51041e-06
-4.79737e-08
-4.2844e-06
-1.85621e-06
-8.16438e-07
-3.73097e-07
-1.75818e-07
-8.55018e-08
-4.27549e-08
-2.19999e-08
-1.13952e-08
-6.13917e-09
-3.3718e-09
-1.86683e-09
-1.03178e-09
-5.6479e-10
-2.99104e-10
-1.56372e-10
-7.87691e-11
-4.15093e-11
-2.85665e-11
-2.94388e-11
-4.78979e-12
6.23735e-11
1.71409e-11
-2.4638e-11
-4.66043e-12
1.43128e-18
-1.47499e-20
-2.1571e-19
4.78036e-18
-7.34644e-18
-6.27914e-18
-1.17641e-18
-3.42811e-18
-8.30799e-18
-1.09386e-18
3.79404e-18
6.67919e-18
-5.9341e-18
-1.54119e-17
1.88477e-17
-1.30184e-19
-1.09305e-17
-1.73127e-17
-7.47024e-18
3.37501e-18
-7.13517e-18
-1.64086e-17
5.02514e-19
-2.80806e-17
-2.60435e-17
-6.96848e-18
4.09826e-17
5.09209e-18
-1.19163e-17
3.43151e-17
-4.36939e-17
-9.37062e-18
-1.92834e-16
-1.81562e-16
-1.38917e-15
-3.3821e-15
-8.48108e-15
-4.14008e-14
-1.30321e-13
-4.11443e-13
-1.16199e-12
-3.09543e-12
-7.74084e-12
-1.68786e-11
-2.5731e-11
9.49171e-12
2.7532e-10
1.11921e-09
2.89596e-09
5.25339e-09
6.29835e-09
5.66016e-09
6.06844e-09
8.15131e-09
8.11922e-09
-6.18284e-10
-3.88971e-08
-1.62957e-07
-5.10636e-07
-1.25364e-06
-1.46114e-06
3.28162e-06
8.96228e-06
-1.11984e-06
-2.62603e-06
-1.70065e-06
-1.16522e-06
-1.10304e-06
-1.29931e-06
-1.59571e-06
-1.85965e-06
8.45009e-08
6.0262e-06
8.62603e-06
1.49645e-07
-4.34688e-06
-1.88737e-06
-8.29387e-07
-3.78761e-07
-1.78434e-07
-8.67334e-08
-4.33569e-08
-2.22986e-08
-1.15587e-08
-6.22631e-09
-3.41789e-09
-1.89064e-09
-1.04348e-09
-5.70029e-10
-3.01466e-10
-1.57155e-10
-7.91654e-11
-4.19097e-11
-2.95572e-11
-2.96102e-11
-3.64544e-12
6.9676e-11
1.01484e-11
-2.38305e-11
-4.46961e-12
-2.45671e-18
7.54887e-18
-2.38948e-18
-7.0288e-18
7.03915e-18
1.77962e-18
-5.39317e-19
-5.74361e-19
-7.25969e-18
4.18321e-18
6.84736e-18
-3.82731e-18
-1.28731e-18
5.88587e-19
1.86269e-18
7.59187e-19
-6.50484e-18
-4.62152e-18
1.34597e-17
-1.07026e-17
1.66492e-17
-2.4111e-18
-1.28123e-17
-3.42707e-18
3.08924e-17
2.31192e-17
-1.14247e-17
-2.02066e-17
6.85182e-17
2.52622e-18
5.0943e-17
-5.34065e-17
-2.02202e-16
-2.8022e-16
-1.18961e-15
-4.06538e-15
-2.07751e-14
-4.929e-14
-1.57763e-13
-4.73308e-13
-1.33875e-12
-3.58997e-12
-8.82453e-12
-1.85355e-11
-2.7589e-11
1.02816e-11
2.74464e-10
1.09364e-09
3.02431e-09
5.27712e-09
6.07737e-09
5.4763e-09
6.05372e-09
8.15394e-09
7.91486e-09
-1.30465e-09
-4.0157e-08
-1.65204e-07
-5.12418e-07
-1.24568e-06
-1.44351e-06
3.22187e-06
8.92807e-06
-1.01791e-06
-2.63215e-06
-1.71003e-06
-1.16798e-06
-1.09906e-06
-1.29526e-06
-1.58824e-06
-1.86568e-06
-1.10781e-08
5.91898e-06
8.72404e-06
3.52507e-07
-4.40479e-06
-1.9181e-06
-8.42282e-07
-3.84445e-07
-1.81012e-07
-8.79532e-08
-4.3952e-08
-2.25965e-08
-1.17203e-08
-6.31283e-09
-3.46425e-09
-1.91513e-09
-1.05598e-09
-5.7601e-10
-3.04372e-10
-1.58345e-10
-7.98017e-11
-4.24226e-11
-3.05182e-11
-2.98406e-11
-2.85106e-12
7.54857e-11
5.14575e-12
-2.34222e-11
-4.36553e-12
-1.58422e-18
-2.7899e-18
1.98717e-18
5.2524e-18
-4.98705e-18
-6.32411e-18
7.07842e-18
-7.41984e-19
1.5958e-18
3.62274e-18
-2.58489e-18
-4.27749e-18
6.93457e-18
-1.74755e-17
-2.19618e-18
-1.60795e-18
-8.47613e-19
-1.7179e-19
3.80632e-18
5.73982e-18
9.12616e-19
-5.87159e-18
-3.60158e-18
-9.25152e-18
-5.07919e-17
-2.18141e-18
-5.1773e-17
3.49172e-17
7.07363e-17
-1.12378e-16
-1.24983e-16
-7.11375e-17
-1.78008e-16
-6.6196e-16
-1.84697e-15
-6.33162e-15
-2.61372e-14
-5.54853e-14
-1.78431e-13
-5.35364e-13
-1.51354e-12
-3.97153e-12
-9.76055e-12
-2.0096e-11
-2.77975e-11
2.44489e-11
3.0837e-10
1.21992e-09
3.18486e-09
5.35599e-09
5.91699e-09
5.26806e-09
6.00542e-09
8.10736e-09
7.66805e-09
-1.89452e-09
-4.11864e-08
-1.66362e-07
-5.11234e-07
-1.23499e-06
-1.43373e-06
3.13431e-06
8.91751e-06
-8.97278e-07
-2.63678e-06
-1.72006e-06
-1.17356e-06
-1.09647e-06
-1.29091e-06
-1.58013e-06
-1.86994e-06
-1.11463e-07
5.79588e-06
8.81598e-06
5.8299e-07
-4.46514e-06
-1.95101e-06
-8.56117e-07
-3.90557e-07
-1.83745e-07
-8.92468e-08
-4.45834e-08
-2.29134e-08
-1.18885e-08
-6.40262e-09
-3.51262e-09
-1.94105e-09
-1.06956e-09
-5.8283e-10
-3.07807e-10
-1.5991e-10
-8.06288e-11
-4.30041e-11
-3.13935e-11
-3.02379e-11
-2.3277e-12
8.00623e-11
1.67975e-12
-2.32934e-11
-4.32239e-12
-9.21683e-19
-6.18701e-18
1.90183e-18
-6.47095e-18
5.41032e-18
-4.22515e-19
2.04191e-19
-1.58624e-18
6.85815e-18
-8.4194e-18
-2.51911e-18
4.34558e-18
-6.01103e-18
-1.39737e-18
5.94893e-18
-2.72913e-18
1.43956e-17
2.8624e-17
1.80191e-17
3.01005e-18
-1.71974e-17
-6.5352e-19
-1.96424e-18
-1.27703e-17
2.80211e-17
3.01862e-17
2.06859e-17
7.77539e-17
-5.32026e-17
-6.09571e-17
-2.17566e-17
-3.69598e-17
-2.43002e-16
-8.87443e-16
-1.94425e-15
-6.97813e-15
-1.7619e-14
-6.45657e-14
-1.99554e-13
-5.97464e-13
-1.66404e-12
-4.41956e-12
-1.06476e-11
-2.18491e-11
-2.87296e-11
2.00965e-11
3.29913e-10
1.329e-09
3.31798e-09
5.33185e-09
5.69076e-09
5.11197e-09
5.97802e-09
8.05338e-09
7.46341e-09
-2.32024e-09
-4.18251e-08
-1.66523e-07
-5.07533e-07
-1.22045e-06
-1.43009e-06
2.99257e-06
8.90646e-06
-7.06651e-07
-2.66269e-06
-1.73975e-06
-1.18032e-06
-1.09266e-06
-1.28371e-06
-1.56757e-06
-1.86507e-06
-2.29084e-07
5.6543e-06
8.91507e-06
8.50066e-07
-4.52678e-06
-1.98727e-06
-8.71349e-07
-3.97343e-07
-1.86754e-07
-9.06711e-08
-4.52774e-08
-2.32614e-08
-1.20686e-08
-6.49813e-09
-3.56409e-09
-1.96884e-09
-1.08437e-09
-5.90512e-10
-3.11739e-10
-1.61809e-10
-8.16141e-11
-4.36297e-11
-3.21626e-11
-3.04916e-11
-1.9997e-12
8.35873e-11
-5.82939e-13
-2.33604e-11
-4.3223e-12
-3.90667e-18
2.14693e-18
4.84519e-18
-2.08869e-18
-2.11976e-18
3.29735e-18
2.77465e-20
-5.52428e-19
-6.2323e-18
3.34856e-18
-1.6929e-18
4.94856e-18
1.01337e-17
-1.60387e-17
1.79896e-17
1.75862e-17
-2.42785e-18
1.42166e-17
1.63939e-18
2.13828e-17
9.68964e-18
-3.10624e-18
2.30652e-17
2.23189e-17
2.66299e-17
-2.12905e-17
4.57437e-17
2.71804e-17
-3.82504e-17
5.75766e-17
-4.86081e-17
-1.10869e-16
-9.06745e-17
-8.76177e-16
-2.26674e-15
-7.14609e-15
-2.21608e-14
-6.98645e-14
-2.19671e-13
-6.48738e-13
-1.79082e-12
-4.71288e-12
-1.1291e-11
-2.23235e-11
-2.85087e-11
3.00882e-11
3.70868e-10
1.43549e-09
3.43472e-09
5.29382e-09
5.52596e-09
4.97367e-09
5.87198e-09
7.96279e-09
7.34592e-09
-2.60821e-09
-4.20766e-08
-1.65703e-07
-5.02309e-07
-1.20598e-06
-1.43262e-06
2.83896e-06
8.8983e-06
-4.96513e-07
-2.68121e-06
-1.75999e-06
-1.19155e-06
-1.09081e-06
-1.27427e-06
-1.54246e-06
-1.94943e-06
-3.20359e-07
5.4959e-06
8.9818e-06
1.15952e-06
-4.59501e-06
-2.03173e-06
-8.89888e-07
-4.05343e-07
-1.90199e-07
-9.22715e-08
-4.60462e-08
-2.36431e-08
-1.22607e-08
-6.5985e-09
-3.61814e-09
-1.99813e-09
-1.10016e-09
-5.98877e-10
-3.16055e-10
-1.63967e-10
-8.2719e-11
-4.42823e-11
-3.28337e-11
-3.09113e-11
-1.82487e-12
8.62517e-11
-1.91246e-12
-2.35642e-11
-4.35261e-12
9.90645e-19
1.3937e-18
9.81377e-19
-2.44219e-18
2.56579e-18
4.24459e-18
-7.53867e-19
-5.94807e-19
-7.28286e-18
8.90834e-19
-1.24606e-17
-1.59344e-17
-2.34138e-18
1.71788e-17
-2.08083e-18
1.66729e-17
6.43868e-18
1.81995e-17
-3.06344e-18
-2.07425e-17
1.68277e-17
-1.40981e-18
-7.62296e-18
2.63924e-18
3.0639e-17
-3.64938e-18
1.71168e-18
3.94402e-17
7.34748e-17
1.30704e-17
-4.70874e-17
-8.05279e-18
-3.92208e-16
-7.87587e-16
-2.23595e-15
-6.86781e-15
-2.69336e-14
-7.35964e-14
-2.39533e-13
-6.95735e-13
-1.91361e-12
-4.94971e-12
-1.15363e-11
-2.25731e-11
-2.81298e-11
4.15061e-11
4.20194e-10
1.54921e-09
3.56718e-09
5.33688e-09
5.45316e-09
4.96416e-09
5.8432e-09
8.15386e-09
7.33787e-09
-2.78359e-09
-4.1977e-08
-1.63898e-07
-4.93712e-07
-1.18374e-06
-1.43723e-06
2.66425e-06
8.91498e-06
-2.69008e-07
-2.70329e-06
-1.78049e-06
-1.20089e-06
-1.08916e-06
-1.27033e-06
-1.53353e-06
-1.9459e-06
-4.33168e-07
5.31239e-06
9.0559e-06
1.48724e-06
-4.65547e-06
-2.07554e-06
-9.07959e-07
-4.1331e-07
-1.93667e-07
-9.38986e-08
-4.68328e-08
-2.4036e-08
-1.24573e-08
-6.7025e-09
-3.67367e-09
-2.02819e-09
-1.11646e-09
-6.07683e-10
-3.20629e-10
-1.66305e-10
-8.39018e-11
-4.49449e-11
-3.34159e-11
-3.1385e-11
-1.75767e-12
8.82585e-11
-2.54815e-12
-2.38608e-11
-4.40385e-12
4.61169e-18
-6.45072e-19
3.98715e-18
9.64527e-18
5.80451e-18
6.73229e-18
9.26492e-18
6.15286e-19
-4.93265e-18
7.61989e-18
-1.02094e-17
8.60938e-18
2.06113e-18
-5.34456e-18
-1.22592e-17
5.94472e-18
8.92665e-18
-1.08138e-17
-4.63087e-18
-5.24532e-18
-3.30598e-18
1.37208e-18
-7.98306e-18
-1.08352e-17
-4.18597e-17
-1.98852e-18
2.13741e-19
-2.81438e-17
-7.78539e-17
-1.05621e-17
5.92068e-17
-2.10241e-17
-2.57033e-16
-5.85343e-16
-2.53931e-15
-8.24305e-15
-3.03005e-14
-8.13611e-14
-2.52589e-13
-7.51915e-13
-2.03929e-12
-5.2292e-12
-1.2089e-11
-2.37195e-11
-2.77369e-11
5.17209e-11
4.62067e-10
1.64488e-09
3.67858e-09
5.36905e-09
5.41821e-09
4.99038e-09
5.87277e-09
7.609e-09
7.26334e-09
-2.9098e-09
-4.16831e-08
-1.61777e-07
-4.86469e-07
-1.16675e-06
-1.44516e-06
2.4838e-06
8.90533e-06
-1.88467e-08
-2.72942e-06
-1.8035e-06
-1.21115e-06
-1.087e-06
-1.2663e-06
-1.5267e-06
-1.94193e-06
-5.50901e-07
5.13074e-06
9.1199e-06
1.81364e-06
-4.70733e-06
-2.11875e-06
-9.26268e-07
-4.21368e-07
-1.97162e-07
-9.55251e-08
-4.76164e-08
-2.44274e-08
-1.26523e-08
-6.80564e-09
-3.73e-09
-2.05927e-09
-1.13355e-09
-6.16903e-10
-3.25403e-10
-1.68789e-10
-8.51608e-11
-4.56264e-11
-3.39318e-11
-3.18897e-11
-1.75007e-12
8.97756e-11
-2.67565e-12
-2.42148e-11
-4.46848e-12
-1.82216e-18
-9.98957e-19
5.64042e-18
7.98813e-19
5.36389e-18
-2.83255e-19
-2.45757e-18
-6.12382e-18
-2.2461e-18
6.71473e-18
-4.4437e-18
-1.50139e-18
2.20952e-17
-6.03984e-19
7.70957e-18
-1.88985e-17
-1.62617e-18
2.04373e-17
-5.04509e-18
1.22661e-17
1.63538e-17
1.36852e-17
1.15937e-17
-2.67475e-17
-4.14812e-17
3.93792e-17
8.37051e-18
3.8344e-18
1.80288e-17
-9.22931e-17
-2.47508e-17
-2.08231e-16
-1.80521e-16
-9.36758e-16
-2.5845e-15
-9.36854e-15
-2.48685e-14
-8.72831e-14
-2.66313e-13
-7.98877e-13
-2.17208e-12
-5.58194e-12
-1.27943e-11
-2.48305e-11
-2.7656e-11
5.88099e-11
4.86649e-10
1.68691e-09
3.70218e-09
5.31423e-09
5.31166e-09
4.89705e-09
5.7603e-09
7.51268e-09
7.21486e-09
-2.9629e-09
-4.11482e-08
-1.59174e-07
-4.7781e-07
-1.15114e-06
-1.45538e-06
2.31829e-06
8.88157e-06
2.33566e-07
-2.75242e-06
-1.82585e-06
-1.22201e-06
-1.0852e-06
-1.26112e-06
-1.518e-06
-1.93791e-06
-6.57419e-07
4.94382e-06
9.15083e-06
2.15117e-06
-4.7556e-06
-2.1668e-06
-9.45905e-07
-4.29829e-07
-2.00796e-07
-9.72401e-08
-4.84478e-08
-2.48423e-08
-1.28538e-08
-6.91082e-09
-3.7866e-09
-2.09023e-09
-1.1506e-09
-6.26305e-10
-3.30318e-10
-1.71344e-10
-8.64239e-11
-4.62851e-11
-3.43841e-11
-3.24214e-11
-1.83967e-12
9.09063e-11
-2.43756e-12
-2.46245e-11
-4.5453e-12
-3.5298e-19
3.88581e-18
-5.5322e-18
4.53243e-18
-4.25613e-18
9.3399e-19
-1.23196e-17
-2.59258e-18
-2.95569e-18
-1.49829e-17
6.27217e-18
1.94835e-19
1.63707e-17
1.21262e-17
-5.04157e-18
-4.73846e-18
2.46666e-18
2.2695e-17
1.48132e-17
3.04188e-21
2.20319e-17
-3.01846e-17
8.03647e-18
1.07443e-17
-2.13448e-17
1.85394e-17
2.08901e-17
-7.28929e-17
-2.64895e-17
5.307e-19
-8.5411e-17
-1.0174e-16
-3.71626e-16
-1.09065e-15
-3.13109e-15
-1.02245e-14
-3.44836e-14
-9.2118e-14
-2.83508e-13
-8.41581e-13
-2.26154e-12
-5.75867e-12
-1.34031e-11
-2.58386e-11
-2.8007e-11
6.27533e-11
5.01998e-10
1.71451e-09
3.71137e-09
5.26448e-09
5.2329e-09
4.82475e-09
5.67962e-09
7.46261e-09
7.19478e-09
-2.97741e-09
-4.06136e-08
-1.56782e-07
-4.69208e-07
-1.13047e-06
-1.46013e-06
2.15482e-06
8.8576e-06
4.83255e-07
-2.77408e-06
-1.84754e-06
-1.23417e-06
-1.08505e-06
-1.25581e-06
-1.50944e-06
-1.93146e-06
-7.51261e-07
4.76655e-06
9.1779e-06
2.46418e-06
-4.79216e-06
-2.21285e-06
-9.64877e-07
-4.38204e-07
-2.04431e-07
-9.89291e-08
-4.92592e-08
-2.52455e-08
-1.30511e-08
-7.01332e-09
-3.84155e-09
-2.1202e-09
-1.16706e-09
-6.35348e-10
-3.35035e-10
-1.7383e-10
-8.76677e-11
-4.69292e-11
-3.47876e-11
-3.30596e-11
-1.93707e-12
9.17455e-11
-1.94637e-12
-2.50392e-11
-4.62438e-12
-3.41598e-18
1.06964e-18
-2.61522e-18
7.41088e-18
2.17102e-18
1.55928e-18
9.99021e-18
-7.74938e-18
3.71358e-18
-1.41598e-18
2.0679e-18
-3.73074e-20
8.99608e-18
1.07077e-17
-2.73781e-18
-1.16909e-17
5.97532e-18
-4.52229e-18
-1.29821e-17
2.61886e-18
-4.00348e-18
-5.84361e-18
1.9156e-17
-7.12557e-18
-1.44721e-18
4.28502e-18
1.12768e-17
1.60947e-17
-6.22821e-17
3.08813e-17
-8.40583e-18
-1.18759e-16
-2.63356e-16
-8.95215e-16
-3.29385e-15
-9.847e-15
-3.23482e-14
-9.46468e-14
-2.94386e-13
-8.4807e-13
-2.40071e-12
-6.05037e-12
-1.3934e-11
-2.62974e-11
-2.81278e-11
6.60278e-11
5.14371e-10
1.73616e-09
3.71929e-09
5.22736e-09
5.16181e-09
4.76388e-09
5.62397e-09
7.42961e-09
7.18174e-09
-2.93854e-09
-3.99916e-08
-1.54144e-07
-4.61546e-07
-1.11448e-06
-1.46608e-06
2.00127e-06
8.82964e-06
7.30897e-07
-2.79215e-06
-1.8674e-06
-1.24499e-06
-1.08544e-06
-1.21873e-06
-1.50316e-06
-1.9261e-06
-8.36357e-07
4.59849e-06
9.19354e-06
2.75615e-06
-4.81836e-06
-2.25638e-06
-9.82971e-07
-4.46044e-07
-2.07801e-07
-1.00492e-07
-5.0008e-08
-2.56164e-08
-1.32309e-08
-7.10678e-09
-3.89167e-09
-2.14757e-09
-1.18212e-09
-6.43633e-10
-3.39353e-10
-1.76101e-10
-8.87921e-11
-4.74978e-11
-3.51117e-11
-3.34427e-11
-2.04949e-12
9.2317e-11
-1.34396e-12
-2.54292e-11
-4.69954e-12
1.89301e-18
-2.70197e-18
-7.71977e-18
4.75247e-18
-2.39106e-18
-8.3117e-18
-1.75561e-18
-9.47752e-18
-1.08531e-17
-1.68279e-18
-1.96556e-18
1.58925e-17
8.11713e-19
-1.13571e-17
1.28122e-18
-2.59338e-18
4.35495e-18
-1.29209e-18
-9.74194e-18
-3.45908e-19
-3.75383e-18
-3.48128e-18
-7.6813e-18
1.74507e-17
1.34901e-17
-5.73438e-18
5.35675e-17
-9.01964e-17
-4.60901e-17
-9.17683e-17
1.58367e-17
-6.38118e-17
-4.1474e-16
-9.89789e-16
-3.64371e-15
-1.0469e-14
-3.61896e-14
-1.02512e-13
-3.11983e-13
-9.1158e-13
-2.47072e-12
-6.21324e-12
-1.42623e-11
-2.66198e-11
-2.82861e-11
6.82474e-11
5.22797e-10
1.74921e-09
3.7181e-09
5.19533e-09
5.11554e-09
4.72542e-09
5.58291e-09
7.40251e-09
7.17577e-09
-2.87914e-09
-3.93505e-08
-1.51693e-07
-4.54043e-07
-1.09986e-06
-1.47295e-06
1.8734e-06
8.79919e-06
9.41042e-07
-2.80435e-06
-1.88345e-06
-1.25435e-06
-1.08785e-06
-1.2283e-06
-1.5005e-06
-1.92183e-06
-9.09454e-07
4.45517e-06
9.20219e-06
3.00433e-06
-4.83459e-06
-2.29432e-06
-9.98599e-07
-4.52823e-07
-2.10718e-07
-1.01843e-07
-5.06506e-08
-2.59359e-08
-1.33857e-08
-7.1872e-09
-3.93481e-09
-2.17115e-09
-1.19511e-09
-6.50798e-10
-3.43097e-10
-1.78094e-10
-8.97764e-11
-4.79957e-11
-3.5392e-11
-3.38308e-11
-2.15675e-12
9.27295e-11
-7.26901e-13
-2.5774e-11
-4.76643e-12
7.99896e-18
-9.63213e-19
3.2156e-19
-1.36083e-18
3.95022e-18
5.12314e-18
-5.55973e-18
2.12371e-18
1.52045e-17
1.15804e-18
1.632e-19
-8.8864e-18
1.76071e-17
-3.89038e-18
2.41319e-17
-4.50013e-18
-8.73337e-20
-6.48955e-18
9.57397e-18
3.86943e-17
2.84556e-17
-3.20369e-18
-1.71624e-17
8.62308e-18
-2.63829e-17
-1.1205e-17
-5.95518e-17
-4.29939e-17
7.6354e-18
1.39929e-16
-3.04019e-17
-1.62353e-16
-2.96781e-16
-1.38109e-15
-4.2173e-15
-1.12859e-14
-2.34947e-14
-1.05587e-13
-3.18728e-13
-9.13969e-13
-2.49691e-12
-6.31662e-12
-1.41705e-11
-2.70453e-11
-2.84874e-11
6.99227e-11
5.29223e-10
1.75924e-09
3.71758e-09
5.17035e-09
5.07919e-09
4.6958e-09
5.55313e-09
7.38202e-09
7.1714e-09
-2.82111e-09
-3.88779e-08
-1.49949e-07
-4.48848e-07
-1.08951e-06
-1.47618e-06
1.77206e-06
8.75513e-06
1.12302e-06
-2.8178e-06
-1.89831e-06
-1.26225e-06
-1.08744e-06
-1.22573e-06
-1.49601e-06
-1.91999e-06
-9.60693e-07
4.34397e-06
9.20082e-06
3.19792e-06
-4.84298e-06
-2.32474e-06
-1.01112e-06
-4.58252e-07
-2.13056e-07
-1.02929e-07
-5.1173e-08
-2.61938e-08
-1.35101e-08
-7.25174e-09
-3.96939e-09
-2.19003e-09
-1.20551e-09
-6.56542e-10
-3.46098e-10
-1.79686e-10
-9.0559e-11
-4.83873e-11
-3.56068e-11
-3.42774e-11
-2.26769e-12
9.29856e-11
-1.84766e-13
-2.60554e-11
-4.82123e-12
-3.96228e-18
-8.14411e-19
1.03328e-17
6.44463e-18
-8.19232e-18
7.07705e-18
4.32847e-18
-1.10742e-18
2.42799e-18
-8.28678e-19
1.8625e-18
2.78572e-18
-5.86213e-19
1.47365e-17
-1.41243e-18
1.68831e-18
-6.95576e-18
2.82646e-17
2.46414e-18
-9.88712e-18
1.99203e-17
8.95847e-18
-7.3822e-18
-2.98278e-17
-8.37157e-18
-1.70949e-17
-9.51074e-18
-3.41056e-17
-9.07061e-18
2.74614e-17
-1.66336e-16
-1.7347e-16
-3.57522e-16
-1.09859e-15
-3.55059e-15
-1.02281e-14
-4.23605e-14
-1.03025e-13
-3.13992e-13
-9.33753e-13
-2.48389e-12
-6.29002e-12
-1.4301e-11
-2.73004e-11
-2.86245e-11
7.11453e-11
5.33749e-10
1.7663e-09
3.71771e-09
5.15189e-09
5.05318e-09
4.67507e-09
5.53218e-09
7.36697e-09
7.16743e-09
-2.77846e-09
-3.85287e-08
-1.48646e-07
-4.44982e-07
-1.08178e-06
-1.47864e-06
1.70302e-06
8.72596e-06
1.24708e-06
-2.82549e-06
-1.90796e-06
-1.26757e-06
-1.08706e-06
-1.22346e-06
-1.49271e-06
-1.91358e-06
-9.97989e-07
4.26479e-06
9.2008e-06
3.3339e-06
-4.84666e-06
-2.34648e-06
-1.02006e-06
-4.62119e-07
-2.1472e-07
-1.037e-07
-5.15408e-08
-2.63756e-08
-1.35979e-08
-7.29724e-09
-3.99379e-09
-2.20336e-09
-1.21287e-09
-6.60607e-10
-3.48221e-10
-1.80814e-10
-9.11144e-11
-4.86637e-11
-3.57512e-11
-3.45065e-11
-2.33957e-12
9.3148e-11
2.23775e-13
-2.62563e-11
-4.86045e-12
2.57404e-18
-3.75072e-19
3.22188e-18
-6.63904e-18
-1.23463e-18
4.5831e-18
-2.12325e-18
4.72867e-18
-9.45572e-19
1.88549e-18
-8.61597e-18
-7.38225e-19
8.46706e-19
-1.39669e-17
1.49488e-17
1.39026e-17
9.63229e-19
-1.98104e-17
-1.69904e-17
-5.13946e-18
-4.36971e-18
-1.4339e-17
-7.23178e-18
5.91141e-18
-1.12855e-17
1.17689e-17
-3.53803e-17
4.31609e-18
-4.27487e-17
-7.75131e-17
-3.15801e-17
-1.24525e-16
-3.87067e-16
-1.40118e-15
-3.66448e-15
-1.10464e-14
-3.68797e-14
-1.05565e-13
-3.30331e-13
-9.51983e-13
-2.54632e-12
-6.36672e-12
-1.43322e-11
-2.75003e-11
-2.8567e-11
7.213e-11
5.36858e-10
1.77079e-09
3.71705e-09
5.13997e-09
5.03707e-09
4.66306e-09
5.52051e-09
7.35828e-09
7.16374e-09
-2.76102e-09
-3.83548e-08
-1.47972e-07
-4.42909e-07
-1.0774e-06
-1.47961e-06
1.66743e-06
8.71025e-06
1.31187e-06
-2.82911e-06
-1.91298e-06
-1.27028e-06
-1.08675e-06
-1.22215e-06
-1.49088e-06
-1.91447e-06
-1.0174e-06
4.22182e-06
9.19946e-06
3.40556e-06
-4.8477e-06
-2.35808e-06
-1.02482e-06
-4.64181e-07
-2.15609e-07
-1.04112e-07
-5.17385e-08
-2.64737e-08
-1.36453e-08
-7.32184e-09
-4.00697e-09
-2.21057e-09
-1.21684e-09
-6.62803e-10
-3.49368e-10
-1.81423e-10
-9.1413e-11
-4.88097e-11
-3.58174e-11
-3.45681e-11
-2.37327e-12
9.32224e-11
4.46803e-13
-2.63643e-11
-4.88157e-12
-3.45473e-19
6.34387e-18
-3.53457e-18
3.88555e-18
3.43572e-18
1.11283e-17
-6.3043e-18
8.6311e-18
-1.08383e-18
-3.10626e-18
5.93076e-18
2.8581e-18
-1.17378e-17
-2.87118e-18
6.20679e-18
4.54267e-18
-2.40645e-19
-2.1166e-18
5.20143e-18
-7.1691e-19
-1.31114e-17
1.0301e-17
-9.85904e-18
-1.59902e-17
1.75681e-17
-5.88693e-19
1.4235e-17
7.12452e-18
-6.62843e-17
1.43801e-16
1.47201e-17
-1.4183e-16
-5.7801e-16
-1.37131e-15
-3.92147e-15
-1.3483e-14
-4.2747e-14
-1.11945e-13
-3.33814e-13
-9.4177e-13
-2.57432e-12
-6.42809e-12
-1.45434e-11
-2.75475e-11
-2.85273e-11
7.27125e-11
5.38813e-10
1.77396e-09
3.71794e-09
5.13474e-09
5.02858e-09
4.65646e-09
5.51483e-09
7.35449e-09
7.1591e-09
-2.76785e-09
-3.8324e-08
-1.47819e-07
-4.42418e-07
-1.07633e-06
-1.47955e-06
1.65999e-06
8.70698e-06
1.32564e-06
-2.82983e-06
-1.91401e-06
-1.27084e-06
-1.08673e-06
-1.22192e-06
-1.49055e-06
-1.91409e-06
-1.02055e-06
4.21562e-06
9.19916e-06
3.41693e-06
-4.84776e-06
-2.35989e-06
-1.02556e-06
-4.64496e-07
-2.15744e-07
-1.04174e-07
-5.1768e-08
-2.64882e-08
-1.36523e-08
-7.32545e-09
-4.0089e-09
-2.21162e-09
-1.21741e-09
-6.63118e-10
-3.49533e-10
-1.81511e-10
-9.1457e-11
-4.88351e-11
-3.5841e-11
-3.46469e-11
-2.38242e-12
9.32487e-11
4.71893e-13
-2.63775e-11
-4.88412e-12
2.31254e-18
-2.92944e-18
6.1571e-18
-5.86627e-18
6.90314e-18
-1.01347e-18
-4.23719e-18
-1.3308e-17
-2.86893e-18
2.5108e-18
-6.09427e-18
-4.40276e-18
-4.5497e-18
-1.4015e-17
-6.32572e-18
1.59729e-19
1.04787e-17
1.55238e-17
-7.69785e-18
-1.51183e-17
-2.16904e-17
-1.1719e-17
6.83075e-18
-1.74793e-17
4.11058e-17
6.09406e-18
-2.73706e-17
-2.08434e-17
-4.33284e-17
7.89871e-17
2.58847e-18
-1.85033e-16
-4.61818e-16
-1.53237e-15
-4.8991e-15
-1.49361e-14
-5.0795e-14
-1.1552e-13
-3.38779e-13
-9.63598e-13
-2.58107e-12
-6.43214e-12
-1.46703e-11
-2.74724e-11
-2.84476e-11
7.29275e-11
5.39773e-10
1.77614e-09
3.72041e-09
5.13533e-09
5.0274e-09
4.65612e-09
5.51631e-09
7.35631e-09
7.15176e-09
-2.81285e-09
-3.84955e-08
-1.48358e-07
-4.43917e-07
-1.07919e-06
-1.47801e-06
1.6877e-06
8.71814e-06
1.27604e-06
-2.82676e-06
-1.91003e-06
-1.26864e-06
-1.08678e-06
-1.22271e-06
-1.49167e-06
-1.91208e-06
-1.00635e-06
4.24676e-06
9.19984e-06
3.36422e-06
-4.84688e-06
-2.35127e-06
-1.02201e-06
-4.62962e-07
-2.15084e-07
-1.03868e-07
-5.16215e-08
-2.64156e-08
-1.36173e-08
-7.30733e-09
-3.99919e-09
-2.20631e-09
-1.21448e-09
-6.61494e-10
-3.48684e-10
-1.81057e-10
-9.12329e-11
-4.87202e-11
-3.5773e-11
-3.44893e-11
-2.34115e-12
9.32043e-11
2.7951e-13
-2.62925e-11
-4.8674e-12
1.62442e-18
-1.98538e-18
5.34906e-21
1.3502e-18
-3.80632e-18
-9.0392e-18
-2.47323e-18
-3.34785e-19
-5.02295e-18
2.71523e-18
-3.08585e-19
5.14218e-18
-4.22448e-18
-9.00498e-19
-1.12183e-17
-4.57547e-18
1.42024e-17
-1.01834e-17
-1.23408e-17
-9.81389e-19
1.02738e-17
1.05814e-17
-3.06893e-17
1.51435e-17
7.53725e-18
-9.40449e-18
3.86858e-17
-4.91605e-17
7.2371e-17
6.05032e-17
-9.43852e-17
-1.1275e-16
-3.51845e-16
-1.10717e-15
-3.34551e-15
-1.01693e-14
-3.38365e-14
-1.02548e-13
-3.21518e-13
-9.55206e-13
-2.53874e-12
-6.43025e-12
-1.44719e-11
-2.75512e-11
-2.85139e-11
7.28636e-11
5.39796e-10
1.77726e-09
3.72452e-09
5.14225e-09
5.0339e-09
4.66218e-09
5.52549e-09
7.36522e-09
7.14222e-09
-2.8976e-09
-3.88702e-08
-1.49571e-07
-4.47297e-07
-1.08574e-06
-1.47484e-06
1.74941e-06
8.74143e-06
1.16675e-06
-2.81968e-06
-1.90117e-06
-1.26378e-06
-1.0869e-06
-1.22445e-06
-1.49431e-06
-1.91485e-06
-9.74371e-07
4.31353e-06
9.20079e-06
3.24972e-06
-4.84398e-06
-2.33273e-06
-1.01439e-06
-4.5966e-07
-2.13664e-07
-1.03209e-07
-5.13054e-08
-2.6259e-08
-1.35419e-08
-7.26823e-09
-3.97824e-09
-2.19486e-09
-1.20816e-09
-6.57995e-10
-3.46857e-10
-1.80084e-10
-9.07552e-11
-4.84855e-11
-3.56612e-11
-3.42335e-11
-2.27368e-12
9.31122e-11
-1.1288e-13
-2.61132e-11
-4.83221e-12
-5.15666e-18
3.64658e-18
-1.37347e-18
3.90492e-19
-6.63574e-18
3.41883e-18
8.27342e-18
-2.49118e-18
-3.92983e-18
3.08908e-18
-4.82097e-18
1.40785e-18
3.49093e-18
8.02741e-18
-6.86025e-18
-2.88619e-18
9.00796e-18
-1.33224e-17
9.6148e-18
1.0769e-17
-1.30796e-18
-2.37692e-17
-2.39532e-18
2.32146e-17
-2.53736e-17
-2.70955e-17
4.25287e-17
-1.6757e-17
-7.06945e-18
6.70733e-17
-1.9216e-17
-1.85067e-16
-4.38711e-16
-9.31603e-16
-3.12029e-15
-8.9483e-15
-3.05911e-14
-9.96228e-14
-3.18467e-13
-9.50241e-13
-2.53978e-12
-6.31828e-12
-1.44038e-11
-2.76049e-11
-2.84308e-11
7.26726e-11
5.39087e-10
1.77772e-09
3.73076e-09
5.15575e-09
5.04817e-09
4.67496e-09
5.54277e-09
7.38096e-09
7.12878e-09
-3.03008e-09
-3.94811e-08
-1.5158e-07
-4.52916e-07
-1.0964e-06
-1.469e-06
1.85029e-06
8.7723e-06
9.94061e-07
-2.80738e-06
-1.88704e-06
-1.25612e-06
-1.08702e-06
-1.22709e-06
-1.4985e-06
-1.91961e-06
-9.28259e-07
4.4153e-06
9.1976e-06
3.07382e-06
-4.83714e-06
-2.30504e-06
-1.003e-06
-4.54727e-07
-2.11543e-07
-1.02226e-07
-5.08356e-08
-2.60268e-08
-1.343e-08
-7.21014e-09
-3.94708e-09
-2.17783e-09
-1.19876e-09
-6.52791e-10
-3.44136e-10
-1.78636e-10
-9.0045e-11
-4.81328e-11
-3.54818e-11
-3.39358e-11
-2.16708e-12
9.29594e-11
-6.82102e-13
-2.5848e-11
-4.78024e-12
4.42756e-18
-1.45971e-18
-2.84337e-18
9.7882e-18
2.81343e-18
-1.94033e-18
3.66006e-18
7.42975e-18
4.33589e-18
-1.29735e-18
-1.07937e-17
4.30612e-18
-5.16073e-18
5.16299e-18
6.83588e-18
9.48389e-18
3.3285e-18
-3.50351e-18
-1.42666e-17
1.08537e-17
2.22141e-17
-5.42832e-18
-2.15234e-18
-3.05993e-17
-5.45392e-18
3.65599e-17
7.84688e-18
-8.21052e-18
8.2485e-17
-1.45852e-16
-1.13022e-16
-4.96338e-17
-2.70437e-16
-1.21559e-15
-3.35699e-15