/*--------------------------------*- C++ -*----------------------------------*\
  =========                 |
  \\      /  F ield         | OpenFOAM: The Open Source CFD Toolbox
   \\    /   O peration     | Website:  https://openfoam.org
    \\  /    A nd           | Version:  10
     \\/     M anipulation  |
\*---------------------------------------------------------------------------*/
FoamFile
{
    format      ascii;
    class       volScalarField;
    location    "1";
    object      RR.PXC9H19;
}
// * * * * * * * * * * * * * * * * * * * * * * * * * * * * * * * * * * * * * //

dimensions      [1 -3 -1 0 0 0 0];

internalField   nonuniform List<scalar> 
4000
(
2.69921e-19
5.03834e-19
3.06528e-19
7.9028e-20
2.07184e-19
1.7975e-19
2.32068e-19
2.56814e-19
2.05112e-19
2.75504e-19
3.46725e-19
2.39695e-19
4.59641e-19
4.16363e-19
6.18541e-19
1.06926e-18
9.6526e-19
4.2168e-19
6.47101e-19
9.17971e-19
2.03231e-19
8.11063e-19
5.45285e-19
7.39249e-19
3.33887e-18
1.86257e-19
3.83688e-18
1.98255e-18
5.19044e-18
1.74255e-17
4.68347e-17
1.21457e-16
4.62752e-16
1.69888e-15
5.86061e-15
1.94188e-14
6.68296e-14
2.21575e-13
7.31277e-13
2.36601e-12
7.24265e-12
2.16303e-11
6.14346e-11
1.6822e-10
4.40525e-10
1.15213e-09
2.91427e-09
6.70591e-09
1.34233e-08
2.22447e-08
2.92031e-08
2.85396e-08
1.73211e-08
-9.36915e-09
-4.46524e-08
-3.6296e-08
1.89745e-07
1.1546e-06
3.90858e-06
9.61252e-06
1.89214e-05
4.8503e-05
0.000166723
0.000105741
-3.0868e-05
-6.46368e-05
-6.0377e-05
-4.19524e-05
-3.20795e-05
-3.87576e-05
-4.82744e-05
-5.53818e-06
0.000104157
0.000175792
5.95127e-05
-0.000101717
-4.92562e-05
-2.17948e-05
-1.00192e-05
-4.74904e-06
-2.32039e-06
-1.16455e-06
-5.99694e-07
-3.16596e-07
-1.71062e-07
-9.43348e-08
-5.2527e-08
-2.92413e-08
-1.61273e-08
-8.74404e-09
-4.63792e-09
-2.34465e-09
-1.19184e-09
-6.66318e-10
-5.78066e-10
-3.37864e-10
3.44274e-10
9.88654e-10
-3.64498e-11
4.61367e-12
6.09392e-19
1.98515e-18
-5.19019e-19
1.86104e-18
2.10379e-18
9.97843e-19
8.03036e-19
1.9123e-19
1.47478e-19
1.2087e-18
4.38598e-19
1.80387e-19
1.01376e-18
4.9163e-19
7.11145e-19
1.42126e-18
1.83942e-18
1.76318e-18
2.63576e-18
3.78916e-18
3.35676e-18
5.05226e-19
3.6786e-18
1.43804e-18
7.38755e-18
4.2249e-18
-5.20339e-20
6.49403e-18
7.32277e-19
1.43486e-17
5.90283e-17
1.62116e-16
6.29088e-16
2.32353e-15
8.03692e-15
2.7874e-14
9.27501e-14
3.12363e-13
9.90247e-13
3.13246e-12
9.63623e-12
2.82024e-11
8.02937e-11
2.16792e-10
5.89104e-10
1.5385e-09
3.782e-09
8.31953e-09
1.57903e-08
2.46224e-08
2.99353e-08
2.80237e-08
1.39838e-08
-1.44188e-08
-4.91311e-08
-2.98803e-08
2.22615e-07
1.2279e-06
4.00501e-06
9.63698e-06
1.88683e-05
4.79973e-05
0.000162829
0.000108075
-2.88963e-05
-6.32205e-05
-6.0686e-05
-4.26643e-05
-3.21824e-05
-3.79106e-05
-4.88293e-05
-9.67292e-06
9.96174e-05
0.000177825
6.75184e-05
-0.000102204
-5.04729e-05
-2.22795e-05
-1.02205e-05
-4.83505e-06
-2.35743e-06
-1.18132e-06
-6.07646e-07
-3.20332e-07
-1.72815e-07
-9.51517e-08
-5.28866e-08
-2.93794e-08
-1.61647e-08
-8.73739e-09
-4.61769e-09
-2.32674e-09
-1.1813e-09
-6.68087e-10
-5.95072e-10
-2.95118e-10
4.97254e-10
8.02849e-10
-1.68573e-11
4.16177e-12
2.71399e-18
3.81583e-19
2.95709e-19
1.4381e-18
4.92756e-18
1.49594e-18
-2.25047e-19
-3.69168e-19
3.32767e-18
1.70651e-18
2.31193e-18
1.20902e-18
1.73574e-19
1.40518e-18
5.15994e-19
1.71255e-18
1.21417e-18
1.83103e-18
3.41982e-18
1.58656e-18
3.02748e-18
-5.04135e-19
1.04043e-19
2.12298e-18
4.11945e-18
1.0344e-17
6.47571e-18
7.18276e-18
1.1461e-17
2.77054e-17
7.83133e-17
2.198e-16
8.16276e-16
2.96049e-15
1.06566e-14
3.63977e-14
1.20855e-13
3.95276e-13
1.27294e-12
3.91462e-12
1.18734e-11
3.34547e-11
9.83008e-11
2.62778e-10
7.17666e-10
1.83074e-09
4.44182e-09
9.5142e-09
1.72099e-08
2.58117e-08
3.01746e-08
2.67297e-08
1.0438e-08
-2.12317e-08
-5.36942e-08
-2.59996e-08
2.38568e-07
1.266e-06
4.06126e-06
9.66617e-06
1.88404e-05
4.77816e-05
0.000159485
0.000108435
-2.7487e-05
-6.16371e-05
-6.04299e-05
-4.31446e-05
-3.23128e-05
-3.70738e-05
-4.8856e-05
-1.33996e-05
9.49924e-05
0.000178972
7.56581e-05
-0.000102592
-5.18433e-05
-2.28239e-05
-1.04474e-05
-4.93379e-06
-2.40316e-06
-1.20257e-06
-6.1765e-07
-3.24784e-07
-1.7491e-07
-9.61408e-08
-5.3331e-08
-2.95578e-08
-1.62132e-08
-8.72337e-09
-4.58647e-09
-2.30165e-09
-1.16737e-09
-6.7106e-10
-6.11241e-10
-2.44731e-10
6.6989e-10
5.81602e-10
7.19967e-13
3.72263e-12
1.14657e-18
2.8213e-19
5.28709e-19
2.28388e-18
2.08954e-18
2.82479e-18
3.39858e-18
6.68541e-19
7.34073e-19
2.31825e-18
4.31386e-18
3.74433e-18
2.21659e-18
2.44121e-18
2.62985e-18
2.01254e-18
3.86947e-18
2.33583e-18
4.80719e-18
2.91591e-18
6.26595e-19
3.24594e-18
1.02143e-17
3.00144e-18
6.01569e-18
7.33886e-18
-4.1577e-19
-2.71565e-19
1.05234e-17
2.25967e-17
6.79943e-17
2.92681e-16
1.07747e-15
3.88297e-15
1.36266e-14
4.64586e-14
1.52469e-13
5.01892e-13
1.59044e-12
4.88044e-12
1.46724e-11
4.15795e-11
1.19578e-10
3.18541e-10
8.26774e-10
2.14421e-09
5.07079e-09
1.04796e-08
1.87186e-08
2.64333e-08
3.02184e-08
2.49399e-08
5.86867e-09
-2.68123e-08
-5.69454e-08
-2.53911e-08
2.50442e-07
1.29689e-06
4.09693e-06
9.65242e-06
1.87604e-05
4.73454e-05
0.000156636
0.000109807
-2.6131e-05
-6.02782e-05
-6.02873e-05
-4.36904e-05
-3.2499e-05
-3.64278e-05
-4.88575e-05
-1.68419e-05
9.09227e-05
0.000179551
8.30664e-05
-0.000102892
-5.27536e-05
-2.32357e-05
-1.06384e-05
-5.02369e-06
-2.44574e-06
-1.22384e-06
-6.30111e-07
-3.26487e-07
-1.76075e-07
-9.68172e-08
-5.36811e-08
-2.97245e-08
-1.63113e-08
-8.65722e-09
-4.53749e-09
-2.27436e-09
-1.15493e-09
-6.77892e-10
-6.26452e-10
-1.96968e-10
8.43453e-10
3.88737e-10
1.3258e-11
3.34093e-12
1.1642e-18
1.38593e-18
9.65204e-19
1.38585e-18
9.34321e-19
5.64536e-19
2.75483e-18
6.25406e-19
1.55279e-19
1.37534e-18
1.05901e-18
1.21451e-18
6.36733e-19
1.71629e-18
1.59803e-18
6.91523e-19
7.20107e-19
2.66109e-18
6.6585e-18
6.48444e-18
4.29895e-18
1.00617e-17
5.06057e-18
5.33941e-18
4.44537e-18
9.30422e-19
6.44784e-18
6.25651e-18
-3.14463e-18
2.52486e-17
9.91599e-17
3.99712e-16
1.40781e-15
4.9864e-15
1.73299e-14
5.88468e-14
1.90833e-13
6.01298e-13
1.92402e-12
5.92177e-12
1.74178e-11
4.98703e-11
1.36361e-10
3.72409e-10
9.57308e-10
2.43659e-09
5.59292e-09
1.1586e-08
1.92214e-08
2.67135e-08
3.01472e-08
2.34711e-08
2.33696e-09
-3.26991e-08
-5.8678e-08
-2.35021e-08
2.63771e-07
1.32552e-06
4.12951e-06
9.65586e-06
1.87219e-05
4.71874e-05
0.000154528
0.000109946
-2.51726e-05
-5.90048e-05
-6.02301e-05
-4.4172e-05
-3.27006e-05
-3.59946e-05
-4.88759e-05
-1.92597e-05
8.75813e-05
0.000180117
8.90419e-05
-0.000103081
-5.38107e-05
-2.36728e-05
-1.08253e-05
-5.10581e-06
-2.48367e-06
-1.24204e-06
-6.39129e-07
-3.31065e-07
-1.78373e-07
-9.79723e-08
-5.42453e-08
-2.99812e-08
-1.64104e-08
-8.68764e-09
-4.53535e-09
-2.26933e-09
-1.15335e-09
-6.90486e-10
-6.40028e-10
-1.61948e-10
9.98161e-10
2.41477e-10
1.87083e-11
3.07512e-12
3.85701e-19
4.51281e-19
3.88324e-19
1.75161e-18
1.45837e-18
1.57044e-18
1.84475e-18
2.95217e-18
1.58204e-18
6.43013e-20
4.84657e-19
1.72274e-18
2.95222e-18
1.64304e-18
2.91753e-18
3.57202e-18
2.70355e-18
3.92241e-18
2.83248e-18
2.07917e-18
8.91808e-18
7.1683e-18
1.13435e-17
6.46436e-18
6.24212e-18
-4.05113e-18
4.81944e-18
3.89497e-18
1.01175e-17
3.05532e-17
1.10848e-16
4.62597e-16
1.69419e-15
6.15904e-15
2.10615e-14
7.06784e-14
2.28993e-13
7.10075e-13
2.26787e-12
7.21259e-12
2.06899e-11
5.74603e-11
1.57562e-10
4.2499e-10
1.09066e-09
2.6984e-09
6.24077e-09
1.1955e-08
1.9642e-08
2.73856e-08
2.99543e-08
2.19109e-08
-2.83927e-10
-3.59667e-08
-6.0861e-08
-2.09359e-08
2.73135e-07
1.34554e-06
4.14128e-06
9.62281e-06
1.86288e-05
4.68582e-05
0.000152606
0.000110752
-2.43159e-05
-5.81921e-05
-5.99447e-05
-4.43883e-05
-3.28687e-05
-3.56891e-05
-4.88963e-05
-2.11663e-05
8.52047e-05
0.00018072
9.32365e-05
-0.000103045
-5.46512e-05
-2.4021e-05
-1.09773e-05
-5.17583e-06
-2.51654e-06
-1.25807e-06
-6.47064e-07
-3.35432e-07
-1.80698e-07
-9.91986e-08
-5.48754e-08
-3.02876e-08
-1.65444e-08
-8.74654e-09
-4.55255e-09
-2.27662e-09
-1.15838e-09
-7.05329e-10
-6.49688e-10
-1.38076e-10
1.12506e-09
1.35107e-10
2.28438e-11
2.87183e-12
4.79433e-19
1.59169e-18
3.28064e-19
1.41025e-18
9.57046e-19
1.12406e-18
-8.85241e-20
4.23188e-20
7.10344e-19
8.15735e-19
1.96394e-18
1.49219e-18
2.5662e-18
3.59789e-18
2.81893e-18
3.13477e-18
8.79827e-19
3.44354e-18
3.84415e-18
2.61253e-18
4.94781e-18
7.41427e-18
5.80514e-19
-4.54599e-19
8.3679e-18
1.00648e-17
2.80772e-18
4.33762e-18
2.25577e-18
4.78652e-17
1.49236e-16
5.45126e-16
2.05484e-15
7.34743e-15
2.49477e-14
8.41323e-14
2.78092e-13
8.61282e-13
2.75253e-12
8.29909e-12
2.39096e-11
6.70762e-11
1.8197e-10
4.71507e-10
1.21019e-09
2.97314e-09
6.59425e-09
1.20702e-08
2.0321e-08
2.79133e-08
2.97318e-08
2.08491e-08
-2.14292e-09
-3.81982e-08
-6.23926e-08
-1.94857e-08
2.79567e-07
1.35488e-06
4.13863e-06
9.5745e-06
1.85215e-05
4.64344e-05
0.000150719
0.000111777
-2.34273e-05
-5.75314e-05
-5.9879e-05
-4.46763e-05
-3.30378e-05
-3.54143e-05
-4.88374e-05
-2.27828e-05
8.28616e-05
0.000181012
9.73908e-05
-0.000102794
-5.55014e-05
-2.43783e-05
-1.1135e-05
-5.24743e-06
-2.55045e-06
-1.27462e-06
-6.55355e-07
-3.39947e-07
-1.83117e-07
-1.00495e-07
-5.55599e-08
-3.06362e-08
-1.67104e-08
-8.82671e-09
-4.58447e-09
-2.29246e-09
-1.16802e-09
-7.21259e-10
-6.59415e-10
-1.22208e-10
1.22585e-09
6.04041e-11
2.49586e-11
2.73443e-12
4.94827e-19
4.29545e-19
1.35678e-18
2.20784e-18
1.41153e-18
1.47383e-18
1.51182e-18
1.92446e-18
1.1043e-18
1.50933e-18
-1.42899e-19
1.63632e-18
1.38827e-18
1.88253e-18
1.16303e-18
2.64352e-18
6.23592e-18
1.87718e-18
1.37255e-18
4.66043e-18
3.6533e-18
5.51247e-18
-1.08163e-18
-3.50849e-18
5.99649e-18
1.06568e-17
9.36889e-18
1.18702e-17
1.7968e-17
4.03449e-17
1.79762e-16
6.88295e-16
2.53253e-15
8.68275e-15
2.93174e-14
9.73174e-14
3.19171e-13
9.75697e-13
3.10558e-12
9.38962e-12
2.71052e-11
7.45841e-11
2.0368e-10
5.27171e-10
1.35237e-09
3.25359e-09
6.77045e-09
1.27093e-08
2.10355e-08
2.82915e-08
2.93811e-08
1.96735e-08
-4.01776e-09
-4.03187e-08
-6.38029e-08
-1.8729e-08
2.82692e-07
1.35514e-06
4.11596e-06
9.49548e-06
1.8361e-05
4.58142e-05
0.000148679
0.000113311
-2.24258e-05
-5.67536e-05
-5.99208e-05
-4.50471e-05
-3.32242e-05
-3.5135e-05
-4.87319e-05
-2.44527e-05
8.02604e-05
0.000181052
0.000101906
-0.000102255
-5.64434e-05
-2.47752e-05
-1.13108e-05
-5.32627e-06
-2.58787e-06
-1.29292e-06
-6.64558e-07
-3.44838e-07
-1.85732e-07
-1.01906e-07
-5.63171e-08
-3.10335e-08
-1.69102e-08
-8.92728e-09
-4.62994e-09
-2.31539e-09
-1.18111e-09
-7.37051e-10
-6.70771e-10
-1.12222e-10
1.30424e-09
9.33043e-12
2.60394e-11
2.64925e-12
6.14291e-19
5.91791e-19
1.23697e-18
3.46776e-18
3.11092e-18
1.75226e-18
1.03129e-18
4.26195e-19
1.20201e-18
1.26537e-18
-1.09097e-20
8.39998e-19
-1.63192e-19
2.13931e-19
1.13962e-18
6.56886e-19
6.28423e-19
3.83045e-18
5.96886e-18
3.33955e-18
1.06601e-18
1.53469e-18
1.65391e-18
5.34195e-19
7.26371e-19
1.93633e-18
-1.3366e-19
6.97958e-18
4.87219e-18
3.33126e-17
1.92439e-16
8.0151e-16
2.87805e-15
1.01667e-14
3.43361e-14
1.12829e-13
3.63887e-13
1.09823e-12
3.47863e-12
1.04899e-11
2.98321e-11
8.35695e-11
2.2512e-10
5.88903e-10
1.41568e-09
3.18434e-09
6.99854e-09
1.33954e-08
2.16892e-08
2.86078e-08
2.90365e-08
1.86809e-08
-5.56238e-09
-4.20679e-08
-6.5004e-08
-1.87569e-08
2.82401e-07
1.34592e-06
4.07294e-06
9.38903e-06
1.81489e-05
4.47972e-05
0.000145713
0.000116044
-2.08681e-05
-5.61294e-05
-5.99696e-05
-4.54633e-05
-3.34303e-05
-3.47733e-05
-4.84139e-05
-2.6409e-05
7.72798e-05
0.000180987
0.000106939
-0.000101337
-5.75157e-05
-2.52275e-05
-1.15129e-05
-5.41634e-06
-2.63063e-06
-1.31381e-06
-6.75056e-07
-3.50275e-07
-1.88621e-07
-1.03465e-07
-5.716e-08
-3.14837e-08
-1.71443e-08
-9.04718e-09
-4.68773e-09
-2.34441e-09
-1.19692e-09
-7.52146e-10
-6.79614e-10
-1.06505e-10
1.36421e-09
-2.3852e-11
2.66027e-11
2.60488e-12
9.63084e-19
1.51025e-18
1.51454e-18
1.3573e-18
6.23392e-19
9.24475e-19
4.61883e-19
6.3345e-19
1.92269e-18
2.06458e-18
2.65825e-19
1.68512e-18
3.11353e-18
1.5085e-18
4.72508e-18
6.2254e-18
5.6052e-18
2.25949e-18
6.67922e-18
7.7898e-18
7.76195e-18
6.1755e-18
3.82714e-18
2.14139e-18
7.31899e-18
-1.78679e-18
3.92368e-18
4.11833e-18
1.00278e-17
7.09293e-17
2.52662e-16
9.28962e-16
3.29496e-15
1.13706e-14
3.79617e-14
1.23767e-13
3.90717e-13
1.20205e-12
3.82746e-12
1.13868e-11
3.21268e-11
8.92037e-11
2.39617e-10
6.03276e-10
1.43469e-09
3.44205e-09
7.41159e-09
1.39684e-08
2.23123e-08
2.88358e-08
2.86641e-08
1.76813e-08
-7.00413e-09
-4.32389e-08
-6.59899e-08
-1.9381e-08
2.79506e-07
1.33015e-06
4.0203e-06
9.27299e-06
1.79388e-05
4.386e-05
0.000142668
0.000119155
-1.90989e-05
-5.53396e-05
-6.02027e-05
-4.60261e-05
-3.36618e-05
-3.42595e-05
-4.95551e-05
-2.79222e-05
7.40408e-05
0.000180157
0.000112412
-9.98646e-05
-5.88767e-05
-2.57964e-05
-1.17588e-05
-5.52278e-06
-2.68021e-06
-1.33767e-06
-6.86929e-07
-3.56263e-07
-1.91752e-07
-1.05154e-07
-5.80766e-08
-3.19784e-08
-1.7407e-08
-9.18283e-09
-4.75544e-09
-2.37829e-09
-1.2148e-09
-7.66424e-10
-6.90378e-10
-1.04006e-10
1.40918e-09
-4.34806e-11
2.69063e-11
2.59183e-12
3.19008e-19
1.44753e-18
1.31077e-18
1.26627e-18
7.56931e-19
7.19842e-19
8.05416e-19
-1.98117e-19
1.47336e-18
6.35337e-19
5.79803e-19
6.88351e-19
6.26442e-19
3.09057e-18
1.46423e-18
2.16512e-18
3.24205e-18
1.87193e-18
3.84647e-18
9.02898e-18
8.03435e-18
6.07194e-18
1.60362e-18
3.89908e-18
9.11696e-18
9.91198e-18
1.44061e-17
9.40058e-18
2.86998e-17
9.19721e-17
3.07811e-16
1.06087e-15
3.61696e-15
1.26609e-14
4.16887e-14
1.3475e-13
4.27932e-13
1.30399e-12
4.19415e-12
1.22276e-11
3.43803e-11
9.3905e-11
2.46075e-10
6.17773e-10
1.55243e-09
3.66763e-09
7.82294e-09
1.46018e-08
2.2903e-08
2.90618e-08
2.82091e-08
1.62717e-08
-9.84484e-09
-4.37965e-08
-6.69792e-08
-2.0573e-08
2.74194e-07
1.30724e-06
3.95076e-06
9.10325e-06
1.76084e-05
4.2506e-05
0.00013963
0.000122523
-1.71762e-05
-5.45931e-05
-6.0285e-05
-4.65541e-05
-3.3992e-05
-3.40102e-05
-4.92323e-05
-2.97456e-05
7.04137e-05
0.000179357
0.000118111
-9.80292e-05
-6.02296e-05
-2.63577e-05
-1.20074e-05
-5.63188e-06
-2.73162e-06
-1.36262e-06
-6.99423e-07
-3.62538e-07
-1.9508e-07
-1.06934e-07
-5.90415e-08
-3.25023e-08
-1.76902e-08
-9.33006e-09
-4.83056e-09
-2.41566e-09
-1.23407e-09
-7.7984e-10
-7.01608e-10
-1.03745e-10
1.44276e-09
-5.31634e-11
2.70705e-11
2.60166e-12
4.35298e-19
4.22292e-19
1.89679e-18
1.81577e-18
8.79588e-19
1.11636e-18
8.10551e-19
3.56419e-18
1.35077e-18
2.51285e-18
1.30784e-18
2.24677e-18
1.73228e-18
2.6178e-18
2.32567e-18
2.23872e-18
2.08457e-18
3.20532e-18
9.33845e-19
1.34864e-18
1.54127e-18
2.64039e-18
5.69394e-18
6.06168e-18
2.05757e-18
6.65035e-18
6.02333e-18
1.08307e-17
2.60344e-17
8.32132e-17
2.9637e-16
1.11932e-15
4.0858e-15
1.41062e-14
4.73052e-14
1.51698e-13
4.70174e-13
1.42284e-12
4.395e-12
1.32031e-11
3.66743e-11
9.94161e-11
2.59038e-10
6.61561e-10
1.65288e-09
3.872e-09
8.18338e-09
1.5118e-08
2.34115e-08
2.92913e-08
2.79446e-08
1.53616e-08
-1.13744e-08
-4.39643e-08
-6.79614e-08
-2.23637e-08
2.66835e-07
1.28143e-06
3.875e-06
8.97399e-06
1.7363e-05
4.14379e-05
0.000136317
0.000126245
-1.50823e-05
-5.39035e-05
-6.03834e-05
-4.70266e-05
-3.43133e-05
-3.38138e-05
-4.88814e-05
-3.16791e-05
6.68138e-05
0.000178417
0.000123518
-9.58583e-05
-6.16115e-05
-2.69456e-05
-1.22667e-05
-5.74529e-06
-2.78455e-06
-1.38818e-06
-7.12217e-07
-3.68941e-07
-1.98473e-07
-1.08788e-07
-6.00648e-08
-3.3065e-08
-1.79935e-08
-9.48711e-09
-4.912e-09
-2.45644e-09
-1.25486e-09
-7.92692e-10
-7.13052e-10
-1.0474e-10
1.4679e-09
-5.55923e-11
2.7151e-11
2.62749e-12
5.47351e-19
1.19187e-19
2.29639e-18
1.4641e-18
2.08266e-18
1.56211e-18
2.06311e-18
1.89609e-18
1.58131e-18
3.34208e-18
1.78518e-18
-5.02602e-19
1.6771e-18
1.51288e-18
7.27288e-19
4.32543e-18
3.32954e-18
1.60682e-18
2.81397e-18
3.2629e-18
9.12831e-18
5.27073e-18
4.64557e-18
3.90676e-18
8.28435e-18
1.30087e-17
1.00973e-17
1.81076e-17
2.44403e-17
8.97549e-17
3.29343e-16
1.24306e-15
4.40919e-15
1.53078e-14
5.04366e-14
1.60559e-13
4.9492e-13
1.50112e-12
4.6373e-12
1.40278e-11
3.91386e-11
1.06605e-10
2.76433e-10
7.09559e-10
1.73576e-09
4.04657e-09
8.49926e-09
1.55107e-08
2.37539e-08
2.94271e-08
2.78125e-08
1.50153e-08
-1.17645e-08
-4.41203e-08
-6.88166e-08
-2.37868e-08
2.59405e-07
1.25145e-06
3.79769e-06
8.81813e-06
1.71251e-05
4.03891e-05
0.000133166
0.000129649
-1.28827e-05
-5.31648e-05
-6.04798e-05
-4.75332e-05
-3.46585e-05
-3.35832e-05
-4.85462e-05
-3.34215e-05
6.31838e-05
0.000176888
0.000128811
-9.31705e-05
-6.31678e-05
-2.75853e-05
-1.25432e-05
-5.8651e-06
-2.84132e-06
-1.41579e-06
-7.26028e-07
-3.75684e-07
-2.02002e-07
-1.1069e-07
-6.1105e-08
-3.3637e-08
-1.83083e-08
-9.65169e-09
-4.9972e-09
-2.49815e-09
-1.27563e-09
-8.04678e-10
-7.24658e-10
-1.07647e-10
1.48629e-09
-5.28528e-11
2.71783e-11
2.66618e-12
1.53079e-19
1.67586e-18
6.63901e-19
1.5554e-18
1.38759e-18
5.11902e-19
2.87965e-18
1.53482e-18
1.40464e-18
2.05304e-18
1.46736e-18
2.24243e-18
3.07443e-18
4.2421e-18
7.16643e-18
7.96912e-18
5.47644e-18
3.41992e-18
6.3729e-18
1.67606e-18
1.43589e-17
7.56412e-18
2.16281e-18
-3.14419e-19
6.12193e-19
-4.91424e-19
7.77256e-18
1.63078e-17
1.68386e-17
8.67543e-17
3.59898e-16
1.31384e-15
4.68754e-15
1.60145e-14
5.29092e-14
1.68421e-13
5.25008e-13
1.56865e-12
4.93765e-12
1.47804e-11
4.07353e-11
1.09871e-10
2.906e-10
7.44268e-10
1.80939e-09
4.19258e-09
8.71871e-09
1.57764e-08
2.39732e-08
2.94969e-08
2.77112e-08
1.47851e-08
-1.19703e-08
-4.42387e-08
-6.95677e-08
-2.52403e-08
2.52628e-07
1.2275e-06
3.73467e-06
8.68123e-06
1.68556e-05
3.92741e-05
0.000130162
0.000132857
-1.06908e-05
-5.24944e-05
-6.06271e-05
-4.80561e-05
-3.49718e-05
-3.33792e-05
-4.81713e-05
-3.49339e-05
5.97696e-05
0.000175453
0.000133546
-9.02762e-05
-6.46839e-05
-2.82128e-05
-1.2821e-05
-5.98674e-06
-2.89805e-06
-1.44312e-06
-7.39639e-07
-3.82385e-07
-2.05492e-07
-1.12562e-07
-6.21259e-08
-3.41969e-08
-1.86149e-08
-9.81153e-09
-5.081e-09
-2.53976e-09
-1.29647e-09
-8.16033e-10
-7.37534e-10
-1.1073e-10
1.49975e-09
-4.64007e-11
2.71612e-11
2.71059e-12
1.01114e-18
7.42929e-19
5.23786e-20
1.88846e-18
1.17814e-18
5.93087e-19
8.89377e-19
-1.66648e-19
4.00415e-19
3.23968e-18
2.9655e-18
4.35647e-18
5.12874e-18
4.91447e-18
3.31018e-18
4.13114e-18
4.28952e-18
6.52396e-18
5.90704e-18
4.62289e-18
1.25083e-19
-4.61389e-19
1.15839e-18
-1.29457e-18
-4.00338e-18
-2.67586e-18
-7.81139e-19
-5.78217e-19
2.27241e-17
9.00587e-17
3.42622e-16
1.35612e-15
4.87827e-15
1.67211e-14
5.42702e-14
1.71559e-13
5.49955e-13
1.63712e-12
5.1163e-12
1.48929e-11
4.33418e-11
1.16168e-10
3.05066e-10
7.62854e-10
1.86357e-09
4.29381e-09
8.87835e-09
1.59703e-08
2.41293e-08
2.95376e-08
2.76171e-08
1.46272e-08
-1.21015e-08
-4.43345e-08
-7.02407e-08
-2.69366e-08
2.44733e-07
1.20155e-06
3.66391e-06
8.55587e-06
1.66276e-05
3.83106e-05
0.000127263
0.000135935
-8.50242e-06
-5.18269e-05
-6.06954e-05
-4.85692e-05
-3.40259e-05
-3.3254e-05
-4.78496e-05
-3.62997e-05
5.65868e-05
0.000173967
0.00013784
-8.73101e-05
-6.61216e-05
-2.88137e-05
-1.30822e-05
-6.10009e-06
-2.95085e-06
-1.46849e-06
-7.5224e-07
-3.88536e-07
-2.08697e-07
-1.14283e-07
-6.30651e-08
-3.47127e-08
-1.88977e-08
-9.95886e-09
-5.15803e-09
-2.57771e-09
-1.31523e-09
-8.257e-10
-7.46243e-10
-1.14034e-10
1.50868e-09
-3.82947e-11
2.70975e-11
2.75512e-12
3.09018e-19
1.37048e-18
1.45687e-18
2.37167e-18
1.95559e-18
1.60634e-18
1.15706e-18
6.52708e-19
2.53888e-18
8.39558e-19
5.06387e-19
3.20792e-18
1.14464e-18
2.04074e-18
2.8008e-18
-4.30947e-19
7.15002e-19
6.15607e-18
-7.30856e-19
1.08729e-18
-1.34485e-19
2.1006e-18
1.02249e-19
8.93711e-19
6.94854e-18
6.38991e-19
-2.61724e-18
-4.20088e-18
1.44013e-17
8.53832e-17
3.5704e-16
1.40488e-15
5.08983e-15
1.74498e-14
5.76814e-14
1.85277e-13
5.72811e-13
1.77851e-12
5.41779e-12
1.60191e-11
4.4584e-11
1.19084e-10
3.12611e-10
7.76571e-10
1.90416e-09
4.37202e-09
8.99763e-09
1.61107e-08
2.42366e-08
2.95607e-08
2.75544e-08
1.45199e-08
-1.21916e-08
-4.43909e-08
-7.07702e-08
-2.84379e-08
2.37947e-07
1.17658e-06
3.60148e-06
8.43325e-06
1.64223e-05
3.75088e-05
0.000124875
0.000138375
-6.58614e-06
-5.1207e-05
-6.06954e-05
-4.90371e-05
-3.48244e-05
-3.32719e-05
-4.75953e-05
-3.74758e-05
5.38748e-05
0.000172641
0.00014138
-8.45785e-05
-6.73763e-05
-2.93334e-05
-1.33084e-05
-6.19831e-06
-2.99655e-06
-1.4903e-06
-7.63109e-07
-3.9384e-07
-2.11462e-07
-1.15768e-07
-6.38765e-08
-3.51589e-08
-1.9143e-08
-1.0087e-08
-5.22583e-09
-2.61103e-09
-1.33173e-09
-8.34121e-10
-7.54508e-10
-1.17057e-10
1.51503e-09
-2.98536e-11
2.70136e-11
2.79596e-12
6.96435e-19
1.1304e-18
1.66069e-18
8.76341e-19
1.57522e-18
2.20384e-18
2.20813e-18
2.46298e-18
2.755e-18
1.49691e-18
1.7535e-18
1.41495e-18
1.64238e-18
1.71309e-18
2.91355e-18
2.37042e-18
1.90028e-18
1.79285e-18
2.95195e-18
3.96821e-18
5.13028e-18
-6.99317e-20
7.1815e-18
1.4997e-18
1.68735e-18
9.51824e-18
6.80264e-18
5.90314e-18
2.52506e-17
1.07145e-16
3.95245e-16
1.49959e-15
5.30864e-15
1.82299e-14
6.0171e-14
1.94014e-13
6.04866e-13
1.83058e-12
5.53105e-12
1.60395e-11
4.49823e-11
1.20927e-10
3.08732e-10
7.8818e-10
1.93916e-09
4.43093e-09
9.08648e-09
1.62145e-08
2.43148e-08
2.95753e-08
2.75048e-08
1.44416e-08
-1.22496e-08
-4.44279e-08
-7.1162e-08
-2.96415e-08
2.32323e-07
1.15871e-06
3.55702e-06
8.34899e-06
1.62789e-05
3.68853e-05
0.000122787
0.000140365
-4.92969e-06
-5.07515e-05
-6.07189e-05
-4.93431e-05
-3.50754e-05
-3.31863e-05
-4.74192e-05
-3.8296e-05
5.17843e-05
0.000171472
0.000144063
-8.22916e-05
-6.83831e-05
-2.97501e-05
-1.34897e-05
-6.27708e-06
-3.03329e-06
-1.50803e-06
-7.71888e-07
-3.98108e-07
-2.13682e-07
-1.16959e-07
-6.45268e-08
-3.55166e-08
-1.93398e-08
-1.01897e-08
-5.28e-09
-2.63755e-09
-1.34476e-09
-8.40655e-10
-7.62967e-10
-1.19924e-10
1.51883e-09
-2.23813e-11
2.69233e-11
2.82991e-12
8.5026e-19
1.69137e-18
3.03079e-18
3.14186e-18
1.98007e-18
1.45552e-18
1.06233e-18
3.41457e-18
8.87785e-19
2.01612e-19
3.23339e-19
9.30733e-19
1.60613e-18
9.74123e-19
2.56957e-18
2.5749e-18
2.85069e-18
4.03981e-19
4.19288e-18
2.77359e-18
5.48277e-18
2.21646e-18
1.37167e-18
3.9984e-18
9.75969e-18
5.61652e-18
7.50172e-18
3.48547e-18
1.94876e-17
1.12851e-16
4.08693e-16
1.47813e-15
5.40349e-15
1.82649e-14
6.07958e-14
1.95529e-13
6.06612e-13
1.8125e-12
5.47683e-12
1.63903e-11
4.46989e-11
1.20192e-10
3.11491e-10
7.95691e-10
1.96361e-09
4.47255e-09
9.14849e-09
1.62861e-08
2.43676e-08
2.95829e-08
2.74678e-08
1.43825e-08
-1.22908e-08
-4.44494e-08
-7.14118e-08
-3.04348e-08
2.28654e-07
1.1462e-06
3.52508e-06
8.28797e-06
1.61742e-05
3.64614e-05
0.000121394
0.000141678
-3.79567e-06
-5.04364e-05
-6.07262e-05
-4.95438e-05
-3.52255e-05
-3.31208e-05
-4.71806e-05
-3.88864e-05
5.03002e-05
0.000170672
0.000145916
-8.06199e-05
-6.91008e-05
-3.00468e-05
-1.36185e-05
-6.33301e-06
-3.0593e-06
-1.5205e-06
-7.78068e-07
-4.01115e-07
-2.15246e-07
-1.17798e-07
-6.49856e-08
-3.57691e-08
-1.94789e-08
-1.02623e-08
-5.31839e-09
-2.65639e-09
-1.35402e-09
-8.45211e-10
-7.6771e-10
-1.21869e-10
1.52119e-09
-1.67176e-11
2.68501e-11
2.85449e-12
4.77032e-19
6.74112e-19
9.13959e-19
1.84727e-18
1.19862e-18
1.71341e-18
7.03141e-19
6.08538e-19
1.87211e-18
9.48145e-19
1.21765e-18
1.73661e-18
1.80409e-18
1.48562e-18
2.58449e-18
1.75937e-18
7.16552e-19
3.15865e-18
3.11526e-18
6.45583e-18
2.59154e-18
5.08473e-18
5.05593e-18
7.03695e-18
1.1796e-17
6.63725e-18
-1.3208e-18
1.36123e-17
2.06946e-17
8.63561e-17
3.98098e-16
1.53587e-15
5.4986e-15
1.86548e-14
6.24537e-14
1.97695e-13
6.21743e-13
1.84317e-12
5.74889e-12
1.67198e-11
4.59065e-11
1.21989e-10
3.12999e-10
8.07121e-10
1.97486e-09
4.49728e-09
9.18865e-09
1.63331e-08
2.44021e-08
2.95879e-08
2.74444e-08
1.43456e-08
-1.23212e-08
-4.44666e-08
-7.15442e-08
-3.08108e-08
2.26898e-07
1.14014e-06
3.50919e-06
8.2568e-06
1.61188e-05
3.62427e-05
0.000120677
0.000142341
-3.19382e-06
-5.02727e-05
-6.07261e-05
-4.96451e-05
-3.53033e-05
-3.30842e-05
-4.71457e-05
-3.91952e-05
4.95032e-05
0.000170229
0.000146878
-7.97083e-05
-6.94835e-05
-3.02048e-05
-1.36872e-05
-6.36285e-06
-3.0732e-06
-1.52719e-06
-7.814e-07
-4.02735e-07
-2.16089e-07
-1.18251e-07
-6.52331e-08
-3.59054e-08
-1.95539e-08
-1.03015e-08
-5.33909e-09
-2.66652e-09
-1.35898e-09
-8.47497e-10
-7.69396e-10
-1.22878e-10
1.52222e-09
-1.3628e-11
2.68075e-11
2.8678e-12
3.35009e-19
1.71283e-18
1.73914e-18
2.07788e-18
1.6577e-18
1.51773e-18
1.24134e-18
2.91315e-18
1.91169e-18
2.76527e-19
2.59568e-18
1.82564e-18
3.03288e-18
3.149e-19
1.03586e-18
1.23246e-18
1.28381e-19
3.60771e-18
1.81571e-18
6.02294e-18
7.17189e-18
3.60478e-18
5.80819e-18
3.53498e-18
5.07778e-18
-3.4278e-18
-6.94678e-18
-6.6959e-18
3.03593e-17
1.04055e-16
4.29792e-16
1.61126e-15
5.63744e-15
1.96195e-14
6.45228e-14
2.03178e-13
6.35503e-13
1.88044e-12
5.76371e-12
1.65075e-11
4.64379e-11
1.23355e-10
3.18301e-10
8.09262e-10
1.98226e-09
4.51243e-09
9.21243e-09
1.63615e-08
2.4424e-08
2.95924e-08
2.74289e-08
1.43169e-08
-1.23506e-08
-4.44851e-08
-7.15868e-08
-3.08353e-08
2.26642e-07
1.139e-06
3.50598e-06
8.25061e-06
1.61087e-05
3.6199e-05
0.000120528
0.000142489
-3.06063e-06
-5.02395e-05
-6.07293e-05
-4.96657e-05
-3.53179e-05
-3.30778e-05
-4.71287e-05
-3.92452e-05
4.93838e-05
0.000170157
0.00014703
-7.9559e-05
-6.95428e-05
-3.02291e-05
-1.36976e-05
-6.36734e-06
-3.07528e-06
-1.52818e-06
-7.81887e-07
-4.02971e-07
-2.16212e-07
-1.18317e-07
-6.52685e-08
-3.59248e-08
-1.95646e-08
-1.03071e-08
-5.342e-09
-2.66796e-09
-1.35974e-09
-8.48013e-10
-7.70607e-10
-1.2304e-10
1.52266e-09
-1.32604e-11
2.68097e-11
2.8694e-12
2.74262e-19
9.72029e-19
2.15187e-18
2.15664e-18
1.46877e-18
1.41353e-18
1.75476e-18
3.45662e-18
3.8025e-18
3.50805e-18
1.2389e-18
3.56193e-18
5.2837e-19
2.40906e-19
2.80019e-18
1.97668e-18
2.88081e-18
1.12683e-18
1.41038e-18
7.26154e-19
5.55075e-18
3.64021e-18
2.25668e-18
5.34003e-18
4.27328e-18
-4.48899e-18
3.67609e-18
5.17688e-18
2.8546e-17
1.07591e-16
4.30104e-16
1.57767e-15
5.53963e-15
1.85329e-14
6.09538e-14
1.93751e-13
6.14717e-13
1.87797e-12
5.77778e-12
1.68555e-11
4.65316e-11
1.232e-10
3.21091e-10
8.11815e-10
1.98131e-09
4.51942e-09
9.22267e-09
1.63745e-08
2.4436e-08
2.95971e-08
2.74208e-08
1.42927e-08
-1.23883e-08
-4.45141e-08
-7.15226e-08
-3.03877e-08
2.28475e-07
1.14459e-06
3.51949e-06
8.27618e-06
1.61537e-05
3.63728e-05
0.000121074
0.000141976
-3.50879e-06
-5.036e-05
-6.07271e-05
-4.95855e-05
-3.52571e-05
-3.31008e-05
-4.71234e-05
-3.90176e-05
4.99645e-05
0.000170476
0.00014632
-8.02262e-05
-6.92597e-05
-3.01119e-05
-1.36466e-05
-6.34522e-06
-3.06497e-06
-1.52322e-06
-7.79421e-07
-4.01774e-07
-2.15589e-07
-1.17982e-07
-6.50855e-08
-3.58239e-08
-1.95088e-08
-1.02779e-08
-5.32653e-09
-2.66036e-09
-1.35594e-09
-8.46041e-10
-7.67807e-10
-1.22079e-10
1.52205e-09
-1.59498e-11
2.68519e-11
2.85873e-12
5.92926e-19
-1.08013e-19
5.71205e-19
8.9892e-19
1.6057e-18
2.24103e-18
1.08055e-19
1.60505e-18
9.83769e-19
8.2077e-19
6.77449e-19
1.05499e-18
-1.22254e-20
2.948e-18
2.87253e-18
3.89066e-18
6.93013e-18
6.91853e-19
2.29452e-18
1.37812e-18
3.85917e-18
6.00812e-18
2.71512e-18
1.02543e-17
7.6602e-18
2.9214e-18
-1.22203e-18
3.10333e-18
2.66067e-17
1.2126e-16
4.28426e-16
1.53326e-15
5.57265e-15
1.85435e-14
5.97277e-14
1.88174e-13
6.04761e-13
1.78316e-12
5.60279e-12
1.67767e-11
4.57405e-11
1.23014e-10
3.15632e-10
8.12249e-10
1.98105e-09
4.51421e-09
9.21585e-09
1.63692e-08
2.4436e-08
2.96013e-08
2.74205e-08
1.42748e-08
-1.24325e-08
-4.45573e-08
-7.13633e-08
-2.94846e-08
2.32349e-07
1.1567e-06
3.54886e-06
8.33119e-06
1.62504e-05
3.67571e-05
0.000122279
0.00014081
-4.50029e-06
-5.0621e-05
-6.0712e-05
-4.94056e-05
-3.51213e-05
-3.31509e-05
-4.72669e-05
-3.85066e-05
5.1213e-05
0.000171163
0.000144766
-8.16446e-05
-6.86492e-05
-2.98594e-05
-1.35368e-05
-6.29756e-06
-3.04275e-06
-1.51252e-06
-7.74102e-07
-3.99191e-07
-2.14245e-07
-1.1726e-07
-6.46911e-08
-3.56065e-08
-1.93889e-08
-1.02153e-08
-5.29337e-09
-2.64409e-09
-1.34797e-09
-8.42288e-10
-7.62909e-10
-1.20262e-10
1.52086e-09
-2.13897e-11
2.69367e-11
2.83635e-12
9.05676e-19
7.76028e-19
5.74944e-19
1.51406e-18
1.42879e-18
9.16174e-19
9.77059e-19
1.05841e-18
1.08399e-18
2.53167e-18
1.15204e-18
7.40618e-19
9.36025e-19
9.15636e-19
1.53759e-18
3.33094e-18
5.31041e-18
6.67748e-18
5.05348e-18
5.97617e-18
3.34221e-18
2.41929e-18
3.80507e-18
6.31718e-18
7.61968e-18
1.03138e-17
1.35614e-18
-2.51022e-18
3.48874e-17
1.17084e-16
4.31529e-16
1.51129e-15
5.43633e-15
1.82328e-14
5.99374e-14
1.92314e-13
6.01614e-13
1.79355e-12
5.58839e-12
1.67076e-11
4.57633e-11
1.20874e-10
3.1419e-10
8.12723e-10
1.97227e-09
4.49751e-09
9.19367e-09
1.63477e-08
2.44258e-08
2.96054e-08
2.74259e-08
1.42572e-08
-1.24933e-08
-4.4622e-08
-7.11015e-08
-2.80591e-08
2.38563e-07
1.17633e-06
3.59673e-06
8.42084e-06
1.64068e-05
3.73851e-05
0.00012419
0.000138853
-6.05167e-06
-5.10246e-05
-6.0674e-05
-4.9117e-05
-3.49082e-05
-3.32304e-05
-4.74964e-05
-3.77729e-05
5.31255e-05
0.000172143
0.000142333
-8.37282e-05
-6.77351e-05
-2.94813e-05
-1.33724e-05
-6.22621e-06
-3.00952e-06
-1.49658e-06
-7.66197e-07
-3.95349e-07
-2.12244e-07
-1.16186e-07
-6.41034e-08
-3.52827e-08
-1.92103e-08
-1.0122e-08
-5.24399e-09
-2.61994e-09
-1.33609e-09
-8.36545e-10
-7.568e-10
-1.17501e-10
1.5188e-09
-2.92627e-11
2.70494e-11
2.80335e-12
1.0958e-18
9.35813e-19
1.84507e-18
2.66771e-18
2.01361e-18
6.27065e-19
1.02326e-18
2.65852e-18
8.57815e-19
4.31755e-19
1.61207e-18
2.10993e-18
4.01654e-18
4.28216e-18
2.24625e-18
2.44667e-18
3.50403e-18
5.05321e-18
2.15447e-18
2.64327e-18
3.43096e-18
-1.07687e-18
-3.48613e-19
3.88719e-18
5.15015e-18
8.15126e-18
9.76799e-18
-1.29604e-18
1.79246e-17
1.03722e-16
4.10306e-16
1.53532e-15
5.39717e-15
1.84417e-14
6.09394e-14
1.93904e-13
6.08282e-13
1.81239e-12
5.41672e-12
1.59443e-11
4.53691e-11
1.20214e-10
3.08733e-10
8.02178e-10
1.96021e-09
4.47207e-09
9.15473e-09
1.63052e-08
2.43999e-08
2.96074e-08
2.74398e-08
1.42476e-08
-1.25593e-08
-4.46933e-08
-7.07015e-08
-2.61368e-08
2.46843e-07
1.20253e-06
3.66066e-06
8.5403e-06
1.66163e-05
3.82488e-05
0.000126764
0.000136005
-8.09335e-06
-5.15505e-05
-6.05985e-05
-4.87079e-05
-3.45939e-05
-3.33242e-05
-4.77584e-05
-3.67321e-05
5.55928e-05
0.000173445
0.000139121
-8.63096e-05
-6.65697e-05
-2.89985e-05
-1.31622e-05
-6.13482e-06
-2.96673e-06
-1.47602e-06
-7.55983e-07
-3.90383e-07
-2.09651e-07
-1.14795e-07
-6.33436e-08
-3.48645e-08
-1.89799e-08
-1.00016e-08
-5.18039e-09
-2.58875e-09
-1.32081e-09