/*--------------------------------*- C++ -*----------------------------------*\
  =========                 |
  \\      /  F ield         | OpenFOAM: The Open Source CFD Toolbox
   \\    /   O peration     | Website:  https://openfoam.org
    \\  /    A nd           | Version:  10
     \\/     M anipulation  |
\*---------------------------------------------------------------------------*/
FoamFile
{
    format      ascii;
    class       volScalarField;
    location    "1";
    object      RR.SXC12H25;
}
// * * * * * * * * * * * * * * * * * * * * * * * * * * * * * * * * * * * * * //

dimensions      [1 -3 -1 0 0 0 0];

internalField   nonuniform List<scalar> 
4000
(
-5.60969e-17
-2.80158e-17
1.04865e-17
-1.57282e-17
1.37416e-17
-1.06887e-18
-2.89158e-18
4.13407e-18
-2.37715e-18
-3.41095e-18
4.92617e-18
-1.31983e-17
9.96175e-18
-9.34292e-18
-2.34408e-17
6.13084e-17
2.62172e-17
3.31484e-17
2.81545e-17
1.6381e-18
-1.66292e-17
1.73992e-17
-1.64865e-16
-1.54055e-18
1.48162e-16
-1.93587e-16
1.07225e-16
-1.64166e-16
-5.22598e-16
1.90906e-17
-4.8953e-16
-1.45402e-15
-1.52999e-15
-2.56868e-15
-1.38437e-14
-5.73471e-14
-9.83821e-14
-2.97069e-13
-8.76783e-13
-2.43184e-12
-6.15978e-12
-1.39002e-11
-2.45382e-11
-1.75068e-11
1.14911e-10
8.77907e-10
4.05143e-09
1.3995e-08
3.64405e-08
6.75421e-08
8.36529e-08
6.82197e-08
4.05979e-08
1.96882e-08
3.84869e-09
-1.70371e-08
-7.33826e-08
-2.69868e-07
-9.5613e-07
-2.9769e-06
-5.71176e-06
2.88477e-06
2.31464e-05
2.14958e-06
-1.91583e-06
-3.44819e-06
-3.44488e-06
-2.25811e-06
-1.2604e-06
-8.99498e-07
-7.37642e-07
1.27069e-06
4.18181e-06
3.39975e-06
-1.56503e-06
-2.22789e-06
-9.55342e-07
-4.2291e-07
-1.944e-07
-9.21157e-08
-4.50205e-08
-2.26056e-08
-1.16462e-08
-6.15119e-09
-3.32512e-09
-1.83447e-09
-1.02188e-09
-5.69124e-10
-3.14075e-10
-1.70518e-10
-9.08331e-11
-4.67225e-11
-2.55541e-11
-1.8575e-11
-2.46205e-11
-1.34852e-11
3.00088e-11
6.27652e-11
-3.28578e-11
-6.60322e-12
4.34118e-17
6.10093e-18
-4.00677e-17
3.85852e-17
-4.12054e-17
-1.20055e-17
3.41482e-17
-1.78561e-17
-1.94266e-17
5.3917e-17
1.06297e-18
-4.18174e-17
2.50796e-17
-7.57012e-18
-4.70303e-17
-3.48781e-17
1.20375e-16
5.02488e-18
2.06307e-16
1.77131e-16
-1.29253e-17
-6.45384e-17
5.10088e-17
1.35409e-16
2.03084e-16
4.00391e-16
-2.42532e-17
1.84441e-16
-4.78773e-16
-3.75651e-16
-2.55072e-16
-2.1179e-15
-2.70218e-15
-2.88723e-15
-1.10093e-14
-3.93418e-14
-1.28781e-13
-4.2234e-13
-1.17362e-12
-3.1802e-12
-7.9516e-12
-1.71918e-11
-2.81924e-11
-9.70547e-12
2.14789e-10
1.33533e-09
5.62762e-09
1.79311e-08
4.28169e-08
7.165e-08
7.86683e-08
5.88874e-08
3.50886e-08
1.61081e-08
1.02753e-09
-2.0412e-08
-7.8456e-08
-2.81509e-07
-9.63114e-07
-2.93534e-06
-5.56577e-06
2.75957e-06
2.27632e-05
2.49251e-06
-1.88053e-06
-3.34193e-06
-3.45997e-06
-2.31592e-06
-1.30323e-06
-9.01647e-07
-7.86388e-07
1.11939e-06
4.12592e-06
3.58461e-06
-1.42709e-06
-2.29299e-06
-9.82705e-07
-4.33867e-07
-1.98976e-07
-9.40862e-08
-4.58756e-08
-2.2997e-08
-1.18338e-08
-6.2406e-09
-3.36775e-09
-1.85483e-09
-1.03124e-09
-5.7306e-10
-3.15492e-10
-1.70765e-10
-9.06622e-11
-4.6549e-11
-2.5601e-11
-1.91426e-11
-2.59088e-11
-1.10729e-11
3.85183e-11
5.09567e-11
-3.10134e-11
-6.13878e-12
2.55014e-16
-2.04627e-17
-3.17299e-17
1.28e-16
3.45811e-16
1.70965e-17
-5.52142e-17
-6.49393e-17
5.19594e-17
-6.85258e-17
-1.33767e-17
-2.36765e-17
-4.4266e-17
-3.15931e-17
2.04048e-17
1.29596e-16
2.22186e-17
-1.58009e-16
-8.66859e-17
-9.77331e-18
9.10654e-17
-9.57047e-17
-1.25864e-16
1.79301e-17
2.29945e-16
8.27252e-17
-2.95062e-16
-3.49596e-16
-3.34012e-16
1.15505e-16
1.04812e-16
-1.18621e-16
-2.10582e-15
-9.67915e-15
-1.44818e-14
-5.91983e-14
-1.80886e-13
-5.32654e-13
-1.49973e-12
-3.94613e-12
-9.72089e-12
-2.02856e-11
-3.17319e-11
1.74759e-13
3.16025e-10
1.76173e-09
7.04482e-09
2.11188e-08
4.71251e-08
7.44992e-08
7.57084e-08
5.5318e-08
3.15481e-08
1.3275e-08
1.32934e-11
-2.10518e-08
-8.12934e-08
-2.89631e-07
-9.82989e-07
-2.94217e-06
-5.45755e-06
2.74127e-06
2.22645e-05
2.70116e-06
-1.85612e-06
-3.22843e-06
-3.44168e-06
-2.35839e-06
-1.34049e-06
-8.93479e-07
-8.06319e-07
9.79635e-07
4.05764e-06
3.74862e-06
-1.27695e-06
-2.36551e-06
-1.0137e-06
-4.46321e-07
-2.04219e-07
-9.63881e-08
-4.69522e-08
-2.35018e-08
-1.20736e-08
-6.35014e-09
-3.4205e-09
-1.88045e-09
-1.04333e-09
-5.78416e-10
-3.17429e-10
-1.71037e-10
-9.03739e-11
-4.63072e-11
-2.56722e-11
-1.99105e-11
-2.71884e-11
-8.15413e-12
4.82448e-11
3.88088e-11
-2.88153e-11
-5.62445e-12
1.51431e-16
-2.60257e-17
6.26168e-18
1.2536e-16
2.69321e-18
1.2697e-16
1.13587e-16
-4.07688e-17
4.36088e-17
-1.65273e-16
-8.2926e-17
1.03509e-16
-1.59177e-16
-3.07466e-17
1.38196e-16
4.01008e-17
-9.69499e-18
-2.87443e-16
-1.09697e-16
4.27375e-17
-1.19659e-16
-1.69123e-16
-4.1657e-17
-4.94909e-16
-4.04327e-17
5.85176e-17
-9.01861e-17
-1.14154e-16
5.03877e-16
8.07171e-16
-2.2734e-16
-1.85062e-16
-2.08519e-15
-9.49701e-15
-2.76214e-14
-7.75144e-14
-2.52947e-13
-6.72899e-13
-1.86701e-12
-4.89418e-12
-1.18401e-11
-2.41215e-11
-3.52875e-11
1.43721e-11
3.91386e-10
2.19503e-09
8.37265e-09
2.40824e-08
5.1214e-08
7.23097e-08
7.35428e-08
5.28495e-08
2.71026e-08
1.04457e-08
-2.12996e-09
-2.2638e-08
-8.55041e-08
-2.98937e-07
-9.93884e-07
-2.92434e-06
-5.36587e-06
2.64706e-06
2.19647e-05
2.95738e-06
-1.83862e-06
-3.13185e-06
-3.4297e-06
-2.40156e-06
-1.37834e-06
-8.95941e-07
-8.27693e-07
8.51291e-07
4.00082e-06
3.88401e-06
-1.12786e-06
-2.41419e-06
-1.03684e-06
-4.56646e-07
-2.08962e-07
-9.8607e-08
-4.79977e-08
-2.40179e-08
-1.23659e-08
-6.40745e-09
-3.45567e-09
-1.90023e-09
-1.05368e-09
-5.83539e-10
-3.20359e-10
-1.7028e-10
-8.97331e-11
-4.60269e-11
-2.58128e-11
-2.08643e-11
-2.83645e-11
-5.305e-12
5.81338e-11
2.6511e-11
-2.6818e-11
-5.16857e-12
-1.57737e-17
3.59137e-17
2.83519e-17
-4.4993e-17
1.78356e-18
-3.50525e-18
1.27417e-16
-5.0311e-17
-7.4773e-17
8.54073e-17
1.22306e-16
9.33518e-17
-1.83825e-16
-3.40628e-18
1.87878e-16
-3.68606e-17
-4.16749e-17
-6.06487e-17
7.17549e-17
1.87443e-16
-2.2953e-16
3.16675e-16
-3.97012e-16
2.00397e-16
2.2852e-16
2.86349e-17
-3.92106e-16
2.0052e-16
-5.62156e-16
1.48651e-15
-1.064e-15
1.77783e-16
-1.02261e-15
-9.45767e-15
-3.21487e-14
-9.92651e-14
-3.08041e-13
-8.08299e-13
-2.26141e-12
-5.89028e-12
-1.39359e-11
-2.82068e-11
-3.91067e-11
2.78561e-11
4.93559e-10
2.60577e-09
9.57777e-09
2.668e-08
5.06924e-08
7.17766e-08
7.21414e-08
4.9202e-08
2.54086e-08
9.24502e-09
-3.10407e-09
-2.449e-08
-8.86487e-08
-3.04178e-07
-1.00522e-06
-2.92584e-06
-5.28906e-06
2.64247e-06
2.16501e-05
3.09619e-06
-1.82477e-06
-3.04299e-06
-3.42266e-06
-2.4373e-06
-1.40866e-06
-8.99084e-07
-8.42915e-07
7.60482e-07
3.94547e-06
3.99519e-06
-1.00899e-06
-2.47033e-06
-1.06117e-06
-4.66768e-07
-2.13313e-07
-1.00524e-07
-4.88873e-08
-2.44465e-08
-1.25795e-08
-6.51589e-09
-3.51053e-09
-1.92813e-09
-1.06758e-09
-5.90107e-10
-3.23129e-10
-1.71325e-10
-8.99632e-11
-4.61648e-11
-2.61606e-11
-2.19386e-11
-2.93144e-11
-3.10775e-12
6.70335e-11
1.67819e-11
-2.54436e-11
-4.85132e-12
2.14928e-17
1.71819e-17
-5.39512e-17
-1.75248e-17
2.10214e-17
-5.97288e-17
5.32078e-17
-9.70933e-17
-5.7324e-17
-2.67102e-17
-6.76424e-18
5.82006e-17
-3.95276e-17
-2.2416e-16
7.60483e-17
-1.85719e-17
2.18368e-17
-3.19216e-16
-3.18499e-17
-1.23367e-17
-2.36369e-17
-3.58561e-16
1.60252e-16
-3.36422e-16
-5.64893e-17
-1.24698e-16
5.73575e-16
-2.41304e-16
-1.92126e-16
-1.16072e-16
-3.63269e-16
-2.88442e-16
-7.07129e-15
-1.10675e-14
-3.95368e-14
-1.12967e-13
-2.94568e-13
-9.59459e-13
-2.65614e-12
-7.07922e-12
-1.62636e-11
-3.19099e-11
-4.30212e-11
4.03837e-11
5.93558e-10
2.98631e-09
1.07844e-08
2.7148e-08
5.17674e-08
7.29689e-08
6.9291e-08
4.5029e-08
2.27867e-08
8.18596e-09
-3.83985e-09
-2.54514e-08
-9.13919e-08
-3.09731e-07
-1.00997e-06
-2.91409e-06
-5.22237e-06
2.58172e-06
2.14215e-05
3.2715e-06
-1.81738e-06
-2.9836e-06
-3.40283e-06
-2.45634e-06
-1.43392e-06
-9.0224e-07
-8.54847e-07
6.85586e-07
3.9075e-06
4.07992e-06
-9.20963e-07
-2.51019e-06
-1.07969e-06
-4.74478e-07
-2.16689e-07
-1.02086e-07
-4.96234e-08
-2.48068e-08
-1.27586e-08
-6.6137e-09
-3.56269e-09
-1.95577e-09
-1.08191e-09
-5.97198e-10
-3.26349e-10
-1.72809e-10
-9.05093e-11
-4.65044e-11
-2.65941e-11
-2.29708e-11
-2.99347e-11
-1.5144e-12
7.44124e-11
9.59439e-12
-2.46254e-11
-4.65637e-12
-4.80817e-17
9.95512e-17
-5.85741e-17
-4.63783e-17
4.13888e-17
6.51193e-17
-1.10862e-17
-9.66601e-18
-8.60141e-17
6.87239e-17
1.00694e-16
-1.00917e-16
3.01763e-17
1.57895e-17
6.38707e-17
1.17344e-16
-7.27853e-17
4.20212e-17
1.53603e-16
-1.42897e-16
5.26661e-17
-2.62041e-17
-2.61317e-16
-1.09271e-16
1.67126e-16
3.44646e-16
-3.49885e-16
-1.1044e-16
2.41111e-16
5.37816e-16
-3.20864e-16
-1.47277e-15
-6.89879e-15
-1.40523e-14
-4.48968e-14
-1.323e-13
-4.71188e-13
-1.15172e-12
-3.17613e-12
-8.06386e-12
-1.83749e-11
-3.56174e-11
-4.44189e-11
5.09696e-11
6.80386e-10
3.25898e-09
1.0996e-08
2.66218e-08
5.29804e-08
7.18499e-08
6.55538e-08
4.20883e-08
2.13572e-08
7.50953e-09
-4.38454e-09
-2.63184e-08
-9.29439e-08
-3.13344e-07
-1.01358e-06
-2.89697e-06
-5.16225e-06
2.48544e-06
2.12178e-05
3.46314e-06
-1.81196e-06
-2.93377e-06
-3.39571e-06
-2.47812e-06
-1.45638e-06
-9.05782e-07
-8.6331e-07
6.23178e-07
3.86741e-06
4.15606e-06
-8.28976e-07
-2.54767e-06
-1.09795e-06
-4.82152e-07
-2.20077e-07
-1.03624e-07
-5.03523e-08
-2.51628e-08
-1.2937e-08
-6.71033e-09
-3.61443e-09
-1.98353e-09
-1.09661e-09
-6.04731e-10
-3.29985e-10
-1.74597e-10
-9.12816e-11
-4.69703e-11
-2.70693e-11
-2.39339e-11
-3.04895e-11
-3.70658e-13
8.02916e-11
4.45305e-12
-2.42144e-11
-4.55046e-12
-1.99867e-17
-2.33689e-18
4.16402e-17
1.04862e-16
-7.66604e-17
-7.49643e-17
8.27777e-18
-4.28619e-17
6.60383e-17
7.53417e-17
-2.55955e-17
-8.56646e-17
-2.41593e-17
-2.23688e-16
-8.55708e-17
-1.75277e-17
1.51999e-16
-1.80435e-16
-5.18235e-17
-6.46526e-17
1.42684e-16
1.6495e-16
-7.18067e-17
-5.10674e-17
-4.20207e-16
2.97223e-16
-5.21051e-16
5.80507e-16
1.15576e-15
-1.36669e-15
-1.02895e-15
-1.77921e-15
-5.63627e-15
-2.00722e-14
-5.44586e-14
-1.7233e-13
-4.7472e-13
-1.28846e-12
-3.58062e-12
-9.05499e-12
-2.04634e-11
-3.84026e-11
-4.48154e-11
7.51934e-11
8.2569e-10
3.78648e-09
1.16571e-08
2.86711e-08
5.45743e-08
7.14866e-08
6.25957e-08
3.91138e-08
1.99022e-08
6.85756e-09
-4.81899e-09
-2.69743e-08
-9.42138e-08
-3.15006e-07
-1.01095e-06
-2.8703e-06
-5.10892e-06
2.32376e-06
2.10452e-05
3.70568e-06
-1.81166e-06
-2.87686e-06
-3.39436e-06
-2.50453e-06
-1.47991e-06
-9.09701e-07
-8.70651e-07
5.56041e-07
3.81832e-06
4.23203e-06
-7.22466e-07
-2.58745e-06
-1.11747e-06
-4.90369e-07
-2.23712e-07
-1.05252e-07
-5.11238e-08
-2.55397e-08
-1.31263e-08
-6.81072e-09
-3.66805e-09
-2.01244e-09
-1.11212e-09
-6.12879e-10
-3.34098e-10
-1.76683e-10
-9.22616e-11
-4.75332e-11
-2.75566e-11
-2.47824e-11
-3.10933e-11
4.11747e-13
8.49396e-11
8.88603e-13
-2.40887e-11
-4.50714e-12
1.19323e-17
-7.1796e-17
7.14806e-18
2.19778e-17
1.38386e-16
-8.3462e-17
8.72945e-17
-1.70853e-17
1.15104e-16
-6.87089e-17
-7.29655e-17
3.11136e-17
-4.25524e-17
-1.24714e-17
9.36579e-17
-1.32721e-16
1.93427e-17
3.00532e-16
3.63224e-16
-4.21968e-17
-3.41163e-16
-2.08325e-17
1.20021e-16
-1.81259e-16
1.41972e-16
3.27156e-16
4.31877e-17
6.6062e-16
-3.38976e-16
-8.75256e-16
8.69501e-17
-2.40506e-15
-6.25624e-15
-2.24944e-14
-6.21156e-14
-1.89206e-13
-4.6039e-13
-1.46592e-12
-3.99604e-12
-1.0041e-11
-2.23181e-11
-4.14217e-11
-4.43661e-11
1.00978e-10
8.63872e-10
3.60846e-09
1.21341e-08
3.0368e-08
5.56526e-08
6.99073e-08
5.91657e-08
3.68233e-08
1.88714e-08
6.44381e-09
-5.08063e-09
-2.74143e-08
-9.49053e-08
-3.14858e-07
-1.00276e-06
-2.831e-06
-5.0507e-06
2.04723e-06
2.07902e-05
4.10685e-06
-1.81677e-06
-2.82527e-06
-3.39213e-06
-2.53438e-06
-1.50774e-06
-9.14582e-07
-8.74006e-07
4.762e-07
3.76216e-06
4.31697e-06
-5.96831e-07
-2.6292e-06
-1.13895e-06
-4.99402e-07
-2.27738e-07
-1.07042e-07
-5.19714e-08
-2.59531e-08
-1.33338e-08
-6.91804e-09
-3.725e-09
-2.04315e-09
-1.12871e-09
-6.21735e-10
-3.38705e-10
-1.79053e-10
-9.34277e-11
-4.81746e-11
-2.80413e-11
-2.5502e-11
-3.15208e-11
9.24532e-13
8.85378e-11
-1.44248e-12
-2.41627e-11
-4.50807e-12
-1.45905e-18
-2.91974e-17
5.01648e-17
4.24564e-17
-1.08617e-17
-2.02663e-17
-5.60636e-17
5.5973e-17
-5.12817e-17
5.75169e-17
-4.8236e-18
9.99964e-18
6.92609e-17
-1.20669e-16
1.69078e-16
2.62362e-16
-1.33542e-16
1.01764e-16
-4.77842e-17
2.95026e-16
1.67113e-17
1.0563e-17
1.84622e-16
-1.91391e-19
3.03656e-16
-1.00611e-15
3.75451e-16
-4.7069e-17
-4.59255e-16
-8.58685e-17
-5.91503e-16
-2.42722e-15
-5.00684e-15
-2.59476e-14
-7.36895e-14
-2.03515e-13
-5.66947e-13
-1.60536e-12
-4.38174e-12
-1.08942e-11
-2.39799e-11
-4.41417e-11
-4.62138e-11
1.02164e-10
8.81251e-10
4.0311e-09
1.30528e-08
3.19138e-08
5.64902e-08
6.82916e-08
5.64883e-08
3.47996e-08
1.77774e-08
6.26068e-09
-5.24899e-09
-2.76888e-08
-9.49693e-08
-3.12993e-07
-9.9139e-07
-2.79072e-06
-5.00688e-06
1.74696e-06
2.05383e-05
4.55713e-06
-1.82364e-06
-2.76415e-06
-3.39984e-06
-2.5727e-06
-1.53783e-06
-9.16246e-07
-9.25425e-07
4.12801e-07
3.69495e-06
4.38856e-06
-4.47954e-07
-2.67664e-06
-1.16514e-06
-5.10345e-07
-2.32468e-07
-1.09083e-07
-5.2921e-08
-2.64096e-08
-1.35607e-08
-7.03236e-09
-3.78474e-09
-2.07533e-09
-1.14616e-09
-6.31147e-10
-3.437e-10
-1.81639e-10
-9.47358e-11
-4.88732e-11
-2.85163e-11
-2.61039e-11
-3.20364e-11
1.22612e-12
9.12787e-11
-2.81764e-12
-2.43762e-11
-4.54026e-12
9.57765e-18
5.09606e-17
-2.93001e-17
2.6196e-17
5.64615e-17
5.18953e-17
-3.60441e-17
-2.19249e-17
-1.22507e-17
2.76514e-17
-2.2328e-16
-1.56536e-16
-1.11188e-16
9.51746e-17
8.9364e-18
9.18166e-17
1.38235e-16
5.29241e-18
-1.73034e-16
-1.36479e-16
4.65682e-17
5.50235e-17
-4.07598e-16
2.01776e-16
5.62839e-16
-2.27125e-16
4.29181e-16
6.17655e-16
8.99432e-16
1.91043e-16
-1.16804e-15
-1.95618e-15
-8.87822e-15
-2.63851e-14
-7.90227e-14
-2.2464e-13
-7.29933e-13
-1.73438e-12
-4.79069e-12
-1.1673e-11
-2.54964e-11
-4.6129e-11
-4.63285e-11
1.10773e-10
1.01243e-09
4.43988e-09
1.40929e-08
3.35527e-08
5.74966e-08
6.76101e-08
5.45586e-08
3.28597e-08
1.42492e-08
7.68471e-09
-5.32147e-09
-2.7795e-08
-9.44722e-08
-3.09319e-07
-9.72764e-07
-2.72862e-06
-4.94853e-06
1.38917e-06
2.03217e-05
5.04915e-06
-1.8327e-06
-2.70674e-06
-3.39854e-06
-2.60839e-06
-1.57108e-06
-9.25945e-07
-9.29281e-07
3.33901e-07
3.61326e-06
4.4674e-06
-2.89343e-07
-2.72094e-06
-1.19107e-06
-5.21045e-07
-2.37187e-07
-1.11141e-07
-5.38868e-08
-2.68768e-08
-1.37941e-08
-7.14921e-09
-3.84659e-09
-2.10836e-09
-1.16405e-09
-6.40848e-10
-3.48942e-10
-1.84368e-10
-9.61419e-11
-4.96065e-11
-2.89753e-11
-2.6603e-11
-3.25636e-11
1.37596e-12
9.33643e-11
-3.48234e-12
-2.46842e-11
-4.59397e-12
2.78126e-17
7.93559e-19
9.50836e-17
9.81969e-17
6.4027e-17
7.57606e-17
6.98515e-17
8.62753e-17
-1.92308e-17
1.86971e-16
-1.43905e-16
1.32923e-16
4.49195e-17
4.26353e-17
-5.86835e-17
3.42664e-17
1.07557e-16
-1.25583e-16
-1.78831e-16
-2.3749e-17
7.72624e-19
-1.50117e-17
1.73782e-16
-3.6952e-17
-9.25596e-16
-2.24541e-16
-1.41296e-16
-8.33901e-16
-4.38712e-16
-1.68262e-16
-6.31326e-16
-2.2821e-15
-9.4286e-15
-2.74699e-14
-9.08007e-14
-2.48217e-13
-7.11226e-13
-1.87767e-12
-5.02607e-12
-1.25087e-11
-2.68926e-11
-4.79352e-11
-4.60104e-11
1.32635e-10
1.12437e-09
4.80688e-09
1.49767e-08
3.49314e-08
5.8436e-08
6.72205e-08
5.35672e-08
3.25054e-08
1.60164e-08
5.33366e-09
-5.72891e-09
-2.78279e-08
-9.36646e-08
-3.05142e-07
-9.56944e-07
-2.68037e-06
-4.90761e-06
1.0359e-06
2.00475e-05
5.6057e-06
-1.84403e-06
-2.65255e-06
-3.39773e-06
-2.64036e-06
-1.60312e-06
-9.36582e-07
-9.32505e-07
2.51091e-07
3.53264e-06
4.54127e-06
-1.28497e-07
-2.76116e-06
-1.21652e-06
-5.31841e-07
-2.4194e-07
-1.13207e-07
-5.48488e-08
-2.73405e-08
-1.40258e-08
-7.26482e-09
-3.90774e-09
-2.14177e-09
-1.18248e-09
-6.50985e-10
-3.54411e-10
-1.87204e-10
-9.76248e-11
-5.03755e-11
-2.94286e-11
-2.70233e-11
-3.30908e-11
1.43508e-12
9.4962e-11
-3.62647e-12
-2.50506e-11
-4.66143e-12
-2.92445e-17
-1.36688e-17
7.00096e-17
3.57315e-17
7.43557e-17
2.55185e-17
-5.00249e-17
-1.72183e-16
-2.79201e-17
7.67663e-17
-3.73772e-17
-8.56116e-17
1.79471e-16
-6.66765e-17
5.56122e-17
-3.95813e-17
3.61968e-17
1.70117e-16
-1.27849e-16
9.044e-17
1.09827e-16
3.9437e-17
1.94269e-17
-2.31201e-16
-1.93496e-16
2.99247e-16
9.12896e-17
4.3837e-16
1.02553e-16
-1.23545e-15
-9.26206e-16
-3.46342e-15
-9.49521e-15
-3.19168e-14
-8.92905e-14
-2.7485e-13
-7.15212e-13
-1.99741e-12
-5.27463e-12
-1.31733e-11
-2.82505e-11
-4.97556e-11
-4.49326e-11
1.59217e-10
1.2097e-09
5.08547e-09
1.5541e-08
3.54764e-08
5.83036e-08
6.60387e-08
5.21241e-08
3.15223e-08
1.55124e-08
5.09956e-09
-5.82942e-09
-2.76259e-08
-9.24522e-08
-3.00108e-07
-9.38334e-07
-2.63422e-06
-4.87377e-06
7.11446e-07
1.97492e-05
6.14967e-06
-1.85554e-06
-2.59618e-06
-3.39637e-06
-2.67429e-06
-1.63767e-06
-9.47649e-07
-9.34915e-07
1.75018e-07
3.44564e-06
4.59793e-06
4.0671e-08
-2.80122e-06
-1.2447e-06
-5.43365e-07
-2.4691e-07
-1.15345e-07
-5.58585e-08
-2.78303e-08
-1.42704e-08
-7.38372e-09
-3.96986e-09
-2.17521e-09
-1.20077e-09
-6.61054e-10
-3.59966e-10
-1.90111e-10
-9.9142e-11
-5.11383e-11
-2.98546e-11
-2.73768e-11
-3.36236e-11
1.37044e-12
9.61734e-11
-3.3967e-12
-2.54739e-11
-4.74144e-12
-3.23116e-17
3.89479e-17
-8.61731e-17
5.64188e-17
1.37483e-18
-3.13291e-17
-9.99117e-17
-2.87934e-18
-6.5316e-17
-1.75131e-16
2.86411e-17
-2.27014e-17
2.28547e-16
1.53601e-16
4.57844e-17
-1.87961e-17
-6.87238e-17
1.88007e-16
1.75822e-16
-1.44163e-16
5.35531e-16
-8.81433e-17
5.20349e-17
4.84154e-17
-3.78001e-16
-1.64603e-16
4.45816e-16
-3.12808e-16
-4.47195e-16
-1.59451e-16
-1.30767e-15
-4.39546e-15
-1.23867e-14
-3.29853e-14
-9.91848e-14
-2.85757e-13
-8.38429e-13
-2.09499e-12
-5.59811e-12
-1.38342e-11
-2.94571e-11
-5.15442e-11
-4.47707e-11
1.72828e-10
1.27314e-09
5.27232e-09
1.58765e-08
3.57927e-08
5.80895e-08
6.50873e-08
5.10986e-08
3.08341e-08
1.51643e-08
4.97352e-09
-5.86444e-09
-2.74174e-08
-9.13015e-08
-2.95525e-07
-9.1997e-07
-2.57742e-06
-4.82385e-06
3.87237e-07
1.94575e-05
6.68635e-06
-1.86635e-06
-2.54575e-06
-3.39809e-06
-2.70845e-06
-1.66896e-06
-9.59132e-07
-9.36173e-07
1.07465e-07
3.36236e-06
4.65044e-06
1.99349e-07
-2.83521e-06
-1.27162e-06
-5.54469e-07
-2.51815e-07
-1.17477e-07
-5.68497e-08
-2.83069e-08
-1.45073e-08
-7.4998e-09
-4.0302e-09
-2.20756e-09
-1.21842e-09
-6.7075e-10
-3.6529e-10
-1.92891e-10
-1.00611e-10
-5.18835e-11
-3.02617e-11
-2.76781e-11
-3.42253e-11
1.28172e-12
9.70909e-11
-2.90685e-12
-2.59019e-11
-4.82372e-12
2.17054e-17
-1.35058e-17
-4.63134e-17
8.70797e-17
2.93334e-17
3.28202e-17
9.05585e-17
-5.74522e-17
3.756e-17
1.1888e-16
-9.88316e-18
5.15559e-17
7.76515e-18
5.13198e-17
-6.41175e-17
-1.19526e-16
1.95246e-16
8.51878e-17
4.40105e-17
2.22024e-16
-1.0989e-16
-3.97475e-17
1.71538e-17
-8.71824e-17
-2.41981e-17
2.5991e-17
1.51239e-16
-8.04858e-18
-1.92765e-16
1.30005e-16
-1.39938e-15
-3.54579e-15
-1.02746e-14
-3.48843e-14
-1.05385e-13
-2.91547e-13
-8.54e-13
-2.16958e-12
-5.80509e-12
-1.40316e-11
-3.08438e-11
-5.26534e-11
-4.27255e-11
1.80251e-10
1.32199e-09
5.40687e-09
1.61329e-08
3.60332e-08
5.79333e-08
6.43754e-08
5.02276e-08
3.02897e-08
1.49447e-08
4.92438e-09
-5.86088e-09
-2.71548e-08
-9.00428e-08
-2.90542e-07
-9.03421e-07
-2.53167e-06
-4.78286e-06
9.12028e-08
1.91735e-05
7.22285e-06
-1.87234e-06
-2.49668e-06
-3.39506e-06
-2.74155e-06
-1.62534e-06
-9.72418e-07
-9.38083e-07
4.46718e-08
3.28107e-06
4.69458e-06
3.48704e-07
-2.86355e-06
-1.29705e-06
-5.65042e-07
-2.56398e-07
-1.19449e-07
-5.77651e-08
-2.87455e-08
-1.47247e-08
-7.60532e-09
-4.08507e-09
-2.23699e-09
-1.23449e-09
-6.79591e-10
-3.70153e-10
-1.95428e-10
-1.01947e-10
-5.25524e-11
-3.06143e-11
-2.79101e-11
-3.46005e-11
1.16395e-12
9.77311e-11
-2.30177e-12
-2.63041e-11
-4.90185e-12
-4.48453e-18
-9.41739e-18
-3.82963e-17
6.37681e-17
-3.95926e-17
-1.07971e-16
-2.66729e-18
-8.72335e-17
-4.93318e-17
-1.0847e-17
2.31352e-18
1.61292e-16
-1.15838e-16
-1.56674e-16
5.10169e-17
-6.53687e-17
-5.81311e-17
2.1987e-16
-1.42446e-16
-1.39916e-16
-4.16226e-17
1.24699e-16
-3.13157e-16
3.20922e-17
3.01522e-16
-1.8429e-16
4.40986e-16
-9.91135e-16
-2.13548e-16
-4.40657e-16
-7.20362e-16
-4.29244e-15
-1.27078e-14
-3.60081e-14
-1.12573e-13
-3.07657e-13
-9.44917e-13
-2.32452e-12
-6.09941e-12
-1.48754e-11
-3.17218e-11
-5.44105e-11
-4.37054e-11
1.8574e-10
1.35661e-09
5.50477e-09
1.63092e-08
3.61636e-08
5.77285e-08
6.38109e-08
4.96592e-08
2.99536e-08
1.4805e-08
4.90153e-09
-5.82772e-09
-2.68872e-08
-8.87801e-08
-2.85923e-07
-8.87462e-07
-2.4903e-06
-4.75244e-06
-1.55289e-07
1.89239e-05
7.67216e-06
-1.87394e-06
-2.45307e-06
-3.38954e-06
-2.77144e-06
-1.68178e-06
-9.91503e-07
-9.41233e-07
-1.07407e-08
3.21129e-06
4.72975e-06
4.76924e-07
-2.88514e-06
-1.31914e-06
-5.74151e-07
-2.60351e-07
-1.21152e-07
-5.85542e-08
-2.9121e-08
-1.49114e-08
-7.69585e-09
-4.13214e-09
-2.26226e-09
-1.2483e-09
-6.87197e-10
-3.74349e-10
-1.97622e-10
-1.03117e-10
-5.31354e-11
-3.092e-11
-2.8106e-11
-3.49649e-11
1.0495e-12
9.82042e-11
-1.67961e-12
-2.66595e-11
-4.97135e-12
6.96137e-17
2.18186e-17
3.60068e-17
-6.16152e-17
5.21227e-17
4.42525e-17
-5.21706e-17
1.88391e-18
1.74873e-16
-1.86161e-19
1.20309e-16
-9.06935e-17
2.04933e-16
3.2678e-17
1.26196e-16
-8.95151e-17
7.47606e-17
2.33367e-19
2.03895e-16
1.83021e-16
3.48942e-16
-1.13291e-16
3.5894e-17
-1.03768e-16
-3.51711e-16
-1.39521e-16
-6.7641e-16
-6.01971e-16
-2.12924e-16
2.00573e-15
-7.60015e-16
-4.77229e-15
-1.41726e-14
-4.15625e-14
-1.19974e-13
-3.22613e-13
-8.16733e-13
-2.40209e-12
-6.25529e-12
-1.50665e-11
-3.24569e-11
-5.59218e-11
-4.74274e-11
1.87267e-10
1.38453e-09
5.57692e-09
1.64398e-08
3.62612e-08
5.75786e-08
6.33791e-08
4.9222e-08
2.9703e-08
1.4709e-08
4.88931e-09
-5.7924e-09
-2.66638e-08
-8.78609e-08
-2.82652e-07
-8.7636e-07
-2.46076e-06
-4.72416e-06
-3.44656e-07
1.86748e-05
8.0581e-06
-1.87834e-06
-2.42013e-06
-3.38576e-06
-2.79121e-06
-1.70435e-06
-1.00017e-06
-9.44886e-07
-4.86617e-08
3.15668e-06
4.75312e-06
5.77836e-07
-2.90022e-06
-1.33682e-06
-5.81431e-07
-2.63509e-07
-1.22513e-07
-5.91867e-08
-2.94254e-08
-1.50618e-08
-7.76849e-09
-4.16982e-09
-2.28245e-09
-1.25933e-09
-6.93276e-10
-3.77704e-10
-1.99376e-10
-1.04049e-10
-5.35974e-11
-3.11588e-11
-2.82535e-11
-3.53633e-11
9.28849e-13
9.85078e-11
-1.13207e-12
-2.69494e-11
-5.02826e-12
-1.28886e-17
-1.7965e-18
1.26309e-16
3.5884e-17
-9.40228e-17
7.44232e-17
2.72607e-17
1.52579e-17
3.28285e-17
-8.16229e-18
2.82099e-17
3.09877e-17
3.24881e-18
1.33595e-16
1.11395e-16
-1.01398e-16
-2.90215e-18
2.86811e-17
8.42899e-17
-1.44883e-16
2.84128e-16
5.20214e-17
-2.19814e-16
-4.01886e-16
-1.01866e-16
-2.3893e-16
8.21596e-17
-3.48237e-17
-6.04325e-16
5.96387e-17
-2.448e-15
-3.84777e-15
-1.35085e-14
-3.81055e-14
-1.16602e-13
-3.23663e-13
-9.48128e-13
-2.393e-12
-6.25231e-12
-1.54461e-11
-3.26546e-11
-5.64958e-11
-4.79682e-11
1.88358e-10
1.40447e-09
5.62881e-09
1.65309e-08
3.63271e-08
5.74756e-08
6.30626e-08
4.89101e-08
2.95291e-08
1.46442e-08
4.88772e-09
-5.76573e-09
-2.65076e-08
-8.71899e-08
-2.80222e-07
-8.68163e-07
-2.43907e-06
-4.70515e-06
-4.74186e-07
1.85089e-05
8.32052e-06
-1.88029e-06
-2.39782e-06
-3.38264e-06
-2.80416e-06
-1.71844e-06
-1.00585e-06
-9.41046e-07
-7.70656e-08
3.11767e-06
4.7701e-06
6.4916e-07
-2.90987e-06
-1.34943e-06
-5.86613e-07
-2.65754e-07
-1.23479e-07
-5.96343e-08
-2.96393e-08
-1.51676e-08
-7.81961e-09
-4.19633e-09
-2.29667e-09
-1.2671e-09
-6.97561e-10
-3.80073e-10
-2.00614e-10
-1.04708e-10
-5.39241e-11
-3.13257e-11
-2.83503e-11
-3.55728e-11
8.47947e-13
9.87035e-11
-7.19106e-13
-2.71563e-11
-5.06898e-12
1.24265e-17
-1.12441e-17
1.78315e-17
1.06952e-17
2.56205e-17
8.94764e-17
-7.93881e-17
-4.36366e-17
1.04137e-16
2.58358e-17
-6.15735e-17
-4.41574e-17
3.91025e-17
-6.84806e-17
2.10968e-16
1.57952e-16
-1.42647e-16
-2.33383e-16
-1.95383e-16
1.08924e-16
3.59375e-17
-1.20797e-16
-4.59779e-17
1.66641e-16
1.36848e-16
-1.30419e-16
-7.73154e-16
7.2354e-16
-2.62081e-16
-9.44571e-16
-1.08551e-15
-5.78576e-15
-1.37649e-14
-4.14475e-14
-1.16972e-13
-3.27429e-13
-8.86403e-13
-2.4307e-12
-6.49387e-12
-1.56564e-11
-3.30887e-11
-5.65998e-11
-4.71561e-11
1.96154e-10
1.41587e-09
5.66437e-09
1.65931e-08
3.63686e-08
5.73998e-08
6.28596e-08
4.87161e-08
2.94254e-08
1.46065e-08
4.88358e-09
-5.75482e-09
-2.64318e-08
-8.68536e-08
-2.78973e-07
-8.63816e-07
-2.42711e-06
-4.69463e-06
-5.41092e-07
1.84222e-05
8.45679e-06
-1.8808e-06
-2.38629e-06
-3.38075e-06
-2.81073e-06
-1.72587e-06
-1.00891e-06
-9.4454e-07
-9.18517e-08
3.09604e-06
4.77836e-06
6.86908e-07
-2.91458e-06
-1.35614e-06
-5.89375e-07
-2.66949e-07
-1.23995e-07
-5.98737e-08
-2.97541e-08
-1.52246e-08
-7.84717e-09
-4.21065e-09
-2.30434e-09
-1.2713e-09
-6.99874e-10
-3.81352e-10
-2.01282e-10
-1.05063e-10
-5.40991e-11
-3.1413e-11
-2.83928e-11
-3.56354e-11
8.06121e-13
9.87945e-11
-4.93866e-13
-2.72676e-11
-5.09093e-12
-1.82448e-18
8.00197e-17
8.76337e-18
7.24325e-17
6.34976e-17
1.48591e-16
-5.25691e-17
4.63004e-17
1.17027e-17
-7.00475e-17
7.21073e-17
-4.60745e-18
-1.74076e-16
-6.07428e-17
5.46274e-17
-2.83818e-17
-5.21129e-17
-7.67766e-18
8.90883e-17
-3.44148e-17
-1.43864e-16
2.91494e-16
-2.93821e-16
-2.98431e-16
2.3134e-16
-1.00465e-16
1.34498e-16
-9.80958e-17
-3.4283e-16
9.5894e-16
-1.50371e-15
-3.80051e-15
-1.44835e-14
-4.14754e-14
-1.1851e-13
-3.43973e-13
-1.01116e-12
-2.48505e-12
-6.52462e-12
-1.55133e-11
-3.32167e-11
-5.65656e-11
-4.6309e-11
1.97204e-10
1.42361e-09
5.68588e-09
1.66321e-08
3.6402e-08
5.73728e-08
6.27596e-08
4.86082e-08
2.93609e-08
1.45806e-08
4.87657e-09
-5.75942e-09
-2.64219e-08
-8.67849e-08
-2.78699e-07
-8.62843e-07
-2.42442e-06
-4.69199e-06
-5.5486e-07
1.84046e-05
8.48633e-06
-1.88061e-06
-2.38401e-06
-3.38057e-06
-2.81203e-06
-1.72722e-06
-1.00941e-06
-9.44447e-07
-9.42258e-08
3.09314e-06
4.77966e-06
6.92923e-07
-2.91527e-06
-1.35719e-06
-5.898e-07
-2.67131e-07
-1.24073e-07
-5.99096e-08
-2.97712e-08
-1.5233e-08
-7.85121e-09
-4.21274e-09
-2.30546e-09
-1.27191e-09
-7.00208e-10
-3.81534e-10
-2.01378e-10
-1.05114e-10
-5.41253e-11
-3.14292e-11
-2.84104e-11
-3.57007e-11
7.99464e-13
9.88245e-11
-4.68308e-13
-2.72812e-11
-5.09356e-12
1.03559e-17
-2.80906e-17
2.47691e-18
-3.40853e-17
1.5502e-17
3.233e-18
-8.99842e-17
-3.55934e-17
-1.95347e-18
9.00169e-17
-8.08777e-17
1.177e-17
-5.75824e-17
-1.31574e-16
2.94346e-17
1.27412e-17
1.33845e-16
1.11569e-16
-7.79941e-17
-3.11639e-16
-3.00167e-16
-2.32678e-16
3.71761e-17
-8.26123e-17
2.15743e-16
-1.84382e-16
-1.32574e-16
-3.61981e-16
-6.61098e-16
1.59106e-16
-9.98956e-16
-4.40805e-15
-1.48681e-14
-3.9605e-14
-1.16304e-13
-3.31441e-13
-9.37234e-13
-2.44991e-12
-6.50793e-12
-1.57147e-11
-3.32575e-11
-5.69409e-11
-4.63034e-11
2.01832e-10
1.42366e-09
5.69542e-09
1.66522e-08
3.64316e-08
5.73916e-08
6.27483e-08
4.85792e-08
2.93354e-08
1.45639e-08
4.86184e-09
-5.78864e-09
-2.65081e-08
-8.70898e-08
-2.79718e-07
-8.66132e-07
-2.43291e-06
-4.69877e-06
-5.0243e-07
1.84706e-05
8.38201e-06
-1.87984e-06
-2.39254e-06
-3.38186e-06
-2.80689e-06
-1.72161e-06
-1.00707e-06
-9.40145e-07
-8.3332e-08
3.1088e-06
4.77348e-06
6.65212e-07
-2.91172e-06
-1.3522e-06
-5.87746e-07
-2.66241e-07
-1.2369e-07
-5.97319e-08
-2.9686e-08
-1.51908e-08
-7.83085e-09
-4.20218e-09
-2.2998e-09
-1.26881e-09
-6.98498e-10
-3.80587e-10
-2.00882e-10
-1.04849e-10
-5.39933e-11
-3.13594e-11
-2.83643e-11
-3.55651e-11
8.43229e-13
9.87654e-11
-6.63401e-13
-2.71937e-11
-5.07623e-12
5.28456e-17
-3.75139e-18
7.96138e-19
-6.89889e-17
4.51116e-18
-9.88806e-17
-4.49913e-17
9.04703e-17
-3.32428e-17
2.23012e-17
4.01262e-17
5.19035e-17
-7.14725e-17
-8.98285e-18
-3.5473e-17
-6.9299e-17
2.40511e-16
-1.8522e-16
9.66187e-17
-6.80197e-17
3.48309e-17
2.43508e-16
-2.50559e-16
3.30749e-16
2.49989e-16
-1.92543e-17
3.18151e-16
-2.80318e-16
7.71392e-16
4.34602e-16
-1.75716e-15
-4.06497e-15
-1.43762e-14
-4.03558e-14
-1.07563e-13
-3.12258e-13
-9.24131e-13
-2.37348e-12
-6.36314e-12
-1.56991e-11
-3.2986e-11
-5.73266e-11
-4.78359e-11
2.00698e-10
1.42301e-09
5.69142e-09
1.66533e-08
3.64573e-08
5.74597e-08
6.28341e-08
4.86341e-08
2.93512e-08
1.45589e-08
4.8411e-09
-5.84382e-09
-2.66929e-08
-8.77671e-08
-2.81994e-07
-8.73467e-07
-2.45197e-06
-4.7141e-06
-3.85159e-07
1.86132e-05
8.15081e-06
-1.87798e-06
-2.4111e-06
-3.38406e-06
-2.79535e-06
-1.70919e-06
-1.00198e-06
-9.40126e-07
-5.88629e-08
3.14197e-06
4.75975e-06
6.05126e-07
-2.90362e-06
-1.34145e-06
-5.83323e-07
-2.64324e-07
-1.22865e-07
-5.9349e-08
-2.95022e-08
-1.50996e-08
-7.78692e-09
-4.1794e-09
-2.28759e-09
-1.26213e-09
-6.94814e-10
-3.78547e-10
-1.99816e-10
-1.04281e-10
-5.37128e-11
-3.1219e-11
-2.82924e-11
-3.5339e-11
9.22861e-13
9.86455e-11
-1.06041e-12
-2.70091e-11
-5.03969e-12
-5.90281e-17
1.53385e-17
-4.35097e-17
6.09571e-17
-7.09405e-17
-3.52891e-17
6.70283e-17
2.26756e-17
-6.40761e-17
1.17995e-16
-2.01634e-16
6.05358e-17
-1.62701e-18
7.80904e-17
-1.16736e-16
1.12898e-17
1.7778e-16
-3.7483e-17
-6.45579e-17
9.36432e-17
-7.22532e-18
-2.84291e-16
6.82916e-17
2.72084e-16
2.56799e-17
-2.1368e-16
5.62819e-16
1.81844e-16
-5.10106e-16
4.49677e-17
-1.1687e-15
-5.27751e-15
-1.32166e-14
-3.86885e-14
-1.10159e-13
-3.10262e-13
-8.99657e-13
-2.35407e-12
-6.31774e-12
-1.5608e-11
-3.30032e-11
-5.64126e-11
-4.76307e-11
2.00812e-10
1.41677e-09
5.67736e-09
1.66393e-08
3.64843e-08
5.75807e-08
6.30167e-08
4.87707e-08
2.94057e-08
1.45627e-08
4.81068e-09
-5.92945e-09
-2.69907e-08
-8.88752e-08
-2.85756e-07
-8.85624e-07
-2.48308e-06
-4.7375e-06
-1.9142e-07
1.88283e-05
7.78128e-06
-1.87402e-06
-2.44002e-06
-3.38654e-06
-2.77684e-06
-1.68971e-06
-9.94202e-07
-9.40752e-07
-2.47927e-08
3.19176e-06
4.73614e-06
5.13317e-07
-2.89027e-06
-1.32536e-06
-5.76706e-07
-2.61456e-07
-1.21631e-07
-5.87767e-08
-2.92285e-08
-1.49643e-08
-7.72161e-09
-4.14548e-09
-2.26939e-09
-1.25218e-09
-6.89322e-10
-3.75508e-10
-1.98226e-10
-1.03434e-10
-5.32947e-11
-3.10066e-11
-2.81743e-11
-3.50684e-11
1.04462e-12
9.84503e-11
-1.63623e-12
-2.6736e-11
-4.98573e-12
7.04066e-17
-1.95376e-17
-8.48204e-18
1.11704e-16
1.01123e-16
-4.53407e-18
5.66023e-17
1.32995e-16
1.52487e-17
-6.28916e-17
-1.34179e-16
-2.92789e-17
-3.88183e-17
-9.2696e-18
-1.12227e-17
1.66267e-16
3.50135e-18
4.61265e-17
-2.25343e-16
5.12242e-17
2.04632e-16
-3.88042e-17
-3.14768e-17
-1.79686e-16
-2.73576e-16
5.85981e-16
3.49293e-16
-8.24666e-16
5.6437e-16
-1.90264e-15
-8.836e-16
-3.101e-15
-1.23353e-14
-4.078e-14
-1.10245e-13