/*--------------------------------*- C++ -*----------------------------------*\
  =========                 |
  \\      /  F ield         | OpenFOAM: The Open Source CFD Toolbox
   \\    /   O peration     | Website:  https://openfoam.org
    \\  /    A nd           | Version:  10
     \\/     M anipulation  |
\*---------------------------------------------------------------------------*/
FoamFile
{
    format      ascii;
    class       volScalarField;
    location    "1";
    object      RR.S3XC12H25;
}
// * * * * * * * * * * * * * * * * * * * * * * * * * * * * * * * * * * * * * //

dimensions      [1 -3 -1 0 0 0 0];

internalField   nonuniform List<scalar> 
4000
(
8.25015e-18
-6.13057e-17
-2.7751e-18
-3.59634e-17
1.85163e-17
-6.67711e-18
-1.13561e-17
1.17138e-17
-3.3005e-18
-7.90194e-18
1.00001e-18
-1.85783e-17
7.12883e-18
-1.21083e-17
-2.98913e-17
1.18675e-16
5.3608e-17
2.75511e-17
-2.67858e-17
1.37944e-17
3.66063e-18
-8.55862e-18
-1.64126e-16
-2.52126e-16
1.60759e-16
-1.04117e-16
1.80196e-16
1.0333e-16
-5.16108e-16
3.69627e-17
-1.14502e-15
-1.97462e-15
-2.12455e-15
-1.50927e-15
-1.01568e-14
-4.29633e-14
-9.35955e-14
-2.69713e-13
-9.17434e-13
-2.92651e-12
-8.84179e-12
-2.55398e-11
-6.75953e-11
-1.60316e-10
-3.08253e-10
-2.68349e-10
1.54766e-09
1.10473e-08
4.11075e-08
9.90319e-08
1.5261e-07
1.48488e-07
9.76001e-08
4.64798e-08
4.80055e-09
-3.57943e-08
-1.1631e-07
-3.87243e-07
-1.3713e-06
-4.39281e-06
-8.51998e-06
5.72683e-06
3.72047e-05
9.47534e-07
-8.35888e-06
-6.64769e-06
-3.68799e-06
-1.82204e-06
-8.75534e-07
-5.58836e-07
-4.3247e-07
8.14696e-07
2.56507e-06
2.02394e-06
-9.91265e-07
-1.35682e-06
-5.81648e-07
-2.57489e-07
-1.18363e-07
-5.60866e-08
-2.7412e-08
-1.37642e-08
-7.09123e-09
-3.74541e-09
-2.02466e-09
-1.11702e-09
-6.22252e-10
-3.46584e-10
-1.91316e-10
-1.03965e-10
-5.55708e-11
-2.89898e-11
-1.67136e-11
-1.39374e-11
-2.1384e-11
-1.79334e-11
3.02873e-11
6.53167e-11
-3.30497e-11
-6.68491e-12
1.05139e-16
-3.45583e-17
-4.62039e-17
7.59251e-17
-1.53069e-16
3.00621e-17
3.479e-17
-3.08495e-20
-4.5714e-17
5.85379e-17
-1.84522e-17
-4.47961e-17
2.10759e-17
-1.38567e-17
-3.70226e-17
1.83958e-17
1.56482e-16
-1.65203e-17
3.15382e-16
3.79151e-16
-3.229e-18
1.65243e-17
-1.26405e-17
1.9676e-16
3.64943e-16
2.92713e-16
7.39888e-17
1.37329e-16
-4.33679e-16
-7.77877e-17
-3.27522e-17
-6.46831e-16
-1.69066e-15
6.10104e-16
-7.11194e-15
-4.81824e-14
-9.79489e-14
-3.95338e-13
-1.22824e-12
-3.86562e-12
-1.17026e-11
-3.2942e-11
-8.64158e-11
-1.98164e-10
-3.58335e-10
-1.65565e-10
2.65603e-09
1.55184e-08
5.19276e-08
1.12674e-07
1.49743e-07
1.31115e-07
8.53973e-08
3.72415e-08
-1.58749e-09
-4.09248e-08
-1.22181e-07
-4.02649e-07
-1.38227e-06
-4.33549e-06
-8.30792e-06
5.47989e-06
3.66357e-05
1.68158e-06
-8.24323e-06
-6.7195e-06
-3.79288e-06
-1.88795e-06
-9.1104e-07
-5.62697e-07
-4.6343e-07
7.22055e-07
2.53379e-06
2.13809e-06
-9.09561e-07
-1.39668e-06
-5.9835e-07
-2.64178e-07
-1.21157e-07
-5.72896e-08
-2.7934e-08
-1.40031e-08
-7.2058e-09
-3.80002e-09
-2.0507e-09
-1.12946e-09
-6.27976e-10
-3.48996e-10
-1.9219e-10
-1.04129e-10
-5.54882e-11
-2.89276e-11
-1.6838e-11
-1.45104e-11
-2.27327e-11
-1.60635e-11
3.93979e-11
5.3239e-11
-3.11957e-11
-6.21528e-12
3.8099e-16
-5.03757e-17
7.92819e-17
2.19921e-16
5.89223e-16
-1.93019e-16
-3.84489e-17
-4.24915e-17
-3.96205e-17
-1.08829e-16
4.98415e-17
-5.82726e-17
-4.79278e-17
3.96903e-17
-1.09421e-18
9.11874e-17
-5.53114e-17
-9.25963e-17
4.84552e-17
-2.80411e-17
2.4518e-16
-7.59409e-17
-8.21644e-17
-1.88463e-17
7.00409e-16
3.26728e-16
-9.55564e-16
-4.33641e-16
-4.51966e-16
3.96978e-16
-9.2448e-16
-1.49422e-16
-8.52322e-16
-8.14263e-15
-5.55875e-15
-4.49865e-14
-1.50768e-13
-4.96072e-13
-1.57299e-12
-4.82434e-12
-1.4388e-11
-3.8974e-11
-1.04054e-10
-2.30944e-10
-3.83181e-10
1.60248e-11
3.83951e-09
1.94501e-08
5.96822e-08
1.20884e-07
1.48742e-07
1.25935e-07
7.71841e-08
2.9867e-08
-3.95938e-09
-4.10481e-08
-1.25499e-07
-4.13644e-07
-1.41115e-06
-4.34746e-06
-8.15002e-06
5.4065e-06
3.58621e-05
2.19289e-06
-8.10469e-06
-6.73713e-06
-3.85872e-06
-1.94397e-06
-9.42907e-07
-5.59509e-07
-4.76209e-07
6.36376e-07
2.49471e-06
2.23979e-06
-8.20447e-07
-1.44107e-06
-6.17266e-07
-2.71779e-07
-1.24357e-07
-5.86948e-08
-2.85913e-08
-1.43113e-08
-7.35225e-09
-3.86694e-09
-2.08294e-09
-1.14513e-09
-6.35371e-10
-3.52279e-10
-1.93386e-10
-1.04314e-10
-5.53428e-11
-2.88396e-11
-1.70084e-11
-1.52779e-11
-2.42148e-11
-1.36108e-11
4.97652e-11
4.08203e-11
-2.89834e-11
-5.69501e-12
2.41688e-16
-5.83277e-17
1.13668e-16
1.79185e-16
2.81915e-17
2.10789e-16
1.38113e-17
-4.75088e-17
8.31777e-17
-9.80528e-17
-5.67433e-17
1.8181e-16
-2.24913e-16
-8.3444e-18
-8.1031e-20
-1.88094e-17
-4.29047e-17
-4.14323e-16
-1.86545e-16
-1.47556e-16
1.78786e-16
3.65506e-16
-3.22756e-16
-5.69356e-16
-9.99291e-17
2.46415e-16
3.7041e-16
-1.32141e-16
-2.17214e-16
1.27628e-15
-1.55611e-15
1.52669e-15
9.22722e-17
-6.21584e-15
-2.19498e-14
-5.63848e-14
-2.14981e-13
-6.18724e-13
-1.96867e-12
-6.0118e-12
-1.77262e-11
-4.79666e-11
-1.24564e-10
-2.68114e-10
-4.10193e-10
2.06003e-10
5.03714e-09
2.35147e-08
6.76018e-08
1.19564e-07
1.47212e-07
1.22513e-07
6.63049e-08
2.2513e-08
-8.45155e-09
-4.32481e-08
-1.31112e-07
-4.26321e-07
-1.42715e-06
-4.32296e-06
-8.01662e-06
5.22162e-06
3.54052e-05
2.72975e-06
-7.99246e-06
-6.74996e-06
-3.9239e-06
-1.99865e-06
-9.74977e-07
-5.6332e-07
-4.90095e-07
5.57641e-07
2.4624e-06
2.32401e-06
-7.31708e-07
-1.47089e-06
-6.31393e-07
-2.78084e-07
-1.27253e-07
-6.005e-08
-2.92299e-08
-1.46266e-08
-7.53071e-09
-3.90207e-09
-2.10448e-09
-1.15724e-09
-6.4171e-10
-3.55422e-10
-1.95188e-10
-1.03873e-10
-5.49854e-11
-2.87334e-11
-1.72379e-11
-1.62034e-11
-2.57162e-11
-1.10613e-11
6.0246e-11
2.82484e-11
-2.69743e-11
-5.23409e-12
-4.17799e-17
1.40657e-16
1.29454e-17
-1.26373e-16
5.06007e-17
-4.11166e-17
2.30623e-16
-1.84064e-17
-5.80811e-17
2.62043e-17
1.8385e-16
8.56039e-17
-1.10899e-16
-9.02481e-17
3.11318e-16
-2.08205e-17
8.74124e-17
-1.90824e-16
1.48414e-16
1.30139e-16
-1.15614e-16
9.25067e-16
-5.92589e-16
4.04027e-16
3.71682e-16
1.67516e-16
-4.84174e-16
8.20219e-16
-2.99078e-16
1.89679e-15
-8.83997e-16
7.03972e-16
1.29187e-15
-4.56073e-15
-2.71089e-14
-7.07187e-14
-2.5834e-13
-7.42589e-13
-2.3846e-12
-7.28615e-12
-2.10115e-11
-5.72361e-11
-1.41104e-10
-3.03992e-10
-4.29451e-10
4.0589e-10
6.23758e-09
2.71116e-08
6.77182e-08
1.20435e-07
1.47608e-07
1.15317e-07
6.17022e-08
1.8897e-08
-1.04441e-08
-4.60742e-08
-1.35134e-07
-4.33372e-07
-1.44384e-06
-4.32651e-06
-7.90408e-06
5.18468e-06
3.49117e-05
3.06303e-06
-7.87114e-06
-6.74687e-06
-3.98262e-06
-2.04465e-06
-1.00078e-06
-5.67157e-07
-4.9999e-07
5.01892e-07
2.43036e-06
2.39318e-06
-6.61025e-07
-1.5053e-06
-6.46248e-07
-2.84265e-07
-1.2991e-07
-6.12208e-08
-2.97733e-08
-1.48884e-08
-7.66119e-09
-3.96832e-09
-2.138e-09
-1.1743e-09
-6.50214e-10
-3.59445e-10
-1.96893e-10
-1.0453e-10
-5.51579e-11
-2.88823e-11
-1.75947e-11
-1.72065e-11
-2.70544e-11
-8.99951e-12
6.9625e-11
1.83042e-11
-2.55929e-11
-4.91386e-12
2.94992e-17
-1.40995e-18
-2.5965e-17
7.82513e-17
-1.72823e-16
-6.37341e-17
-1.50748e-17
6.39747e-19
-8.52846e-17
-1.91706e-17
7.68467e-17
9.45959e-17
-1.69977e-16
-3.25758e-16
2.24811e-16
2.29711e-17
-1.70839e-17
-3.91263e-16
2.47866e-17
8.07198e-17
8.46676e-17
-3.47555e-16
5.46579e-17
-4.97254e-16
-5.22661e-16
-1.65564e-16
8.40418e-16
2.91889e-16
-4.18218e-17
6.56811e-16
-4.69983e-16
6.46127e-16
-4.4403e-15
-4.47702e-15
-2.83899e-14
-7.7899e-14
-1.53527e-13
-8.91449e-13
-2.81699e-12
-8.8659e-12
-2.49012e-11
-6.57292e-11
-1.61776e-10
-3.39007e-10
-4.51531e-10
6.14237e-10
7.37612e-09
2.79607e-08
7.04613e-08
1.25504e-07
1.4442e-07
1.06533e-07
5.50082e-08
1.60118e-08
-1.18845e-08
-4.71533e-08
-1.38532e-07
-4.40894e-07
-1.45099e-06
-4.31011e-06
-7.80679e-06
5.06267e-06
3.45576e-05
3.42478e-06
-7.8049e-06
-6.75554e-06
-4.01445e-06
-2.07536e-06
-1.02267e-06
-5.7066e-07
-5.07744e-07
4.5582e-07
2.40849e-06
2.44582e-06
-6.08591e-07
-1.52976e-06
-6.57559e-07
-2.88973e-07
-1.31973e-07
-6.21747e-08
-3.02229e-08
-1.51085e-08
-7.77058e-09
-4.02808e-09
-2.16987e-09
-1.19119e-09
-6.58972e-10
-3.63784e-10
-1.9887e-10
-1.05452e-10
-5.55205e-11
-2.91484e-11
-1.79908e-11
-1.81521e-11
-2.80872e-11
-7.45938e-12
7.73679e-11
1.09613e-11
-2.47736e-11
-4.71729e-12
-2.0426e-17
1.42884e-16
-3.36742e-17
-1.2017e-16
1.08543e-16
7.28905e-17
-9.31071e-18
-1.25901e-17
-1.65158e-16
6.48357e-17
7.23809e-17
-1.41738e-16
-5.3205e-17
-4.24829e-18
6.13253e-17
1.94617e-16
-1.0955e-16
-1.47623e-16
3.031e-16
-2.45076e-16
2.07156e-16
2.5749e-18
-5.78487e-17
-7.8411e-17
8.0848e-17
7.10848e-16
-2.07195e-16
6.45158e-17
7.53266e-16
3.92416e-16
5.4087e-16
-1.18954e-15
-3.76616e-15
-6.64402e-15
-2.81249e-14
-8.93e-14
-4.2739e-13
-1.06683e-12
-3.41178e-12
-1.01954e-11
-2.86684e-11
-7.61416e-11
-1.83977e-10
-3.71945e-10
-4.77192e-10
6.73532e-10
7.41081e-09
2.73828e-08
7.35447e-08
1.2601e-07
1.38647e-07
1.00264e-07
5.12833e-08
1.4197e-08
-1.29306e-08
-4.82343e-08
-1.40333e-07
-4.4574e-07
-1.45628e-06
-4.28536e-06
-7.7194e-06
4.88625e-06
3.42444e-05
3.80656e-06
-7.74359e-06
-6.77583e-06
-4.05512e-06
-2.10698e-06
-1.04214e-06
-5.74361e-07
-5.13359e-07
4.17445e-07
2.38522e-06
2.49329e-06
-5.53702e-07
-1.55277e-06
-6.68709e-07
-2.9366e-07
-1.34042e-07
-6.31147e-08
-3.06682e-08
-1.5326e-08
-7.8796e-09
-4.08712e-09
-2.20148e-09
-1.20815e-09
-6.67957e-10
-3.68392e-10
-2.011e-10
-1.06557e-10
-5.60175e-11
-2.94843e-11
-1.83962e-11
-1.90171e-11
-2.89852e-11
-6.33246e-12
8.35225e-11
5.71378e-12
-2.43639e-11
-4.61074e-12
-3.95568e-17
-5.45987e-17
3.63014e-17
3.74941e-17
-1.28828e-16
-1.32057e-16
5.01795e-17
4.15478e-17
-3.05371e-17
1.1429e-17
-3.97163e-17
-7.53874e-17
7.22509e-17
-4.12876e-16
5.97625e-17
-5.65343e-17
1.59411e-16
-6.52008e-17
6.16036e-17
7.36446e-17
1.8765e-16
4.43989e-17
-7.91942e-17
-3.26429e-16
-8.48568e-16
-4.36961e-17
-8.16615e-16
9.47281e-16
1.46385e-15
-1.64276e-15
-2.32299e-15
-1.16993e-15
-3.74269e-15
-1.40769e-14
-4.03619e-14
-1.35064e-13
-4.87246e-13
-1.20835e-12
-3.85574e-12
-1.15269e-11
-3.23936e-11
-8.41305e-11
-2.02961e-10
-4.00833e-10
-4.61645e-10
1.0482e-09
8.22965e-09
3.04293e-08
7.73726e-08
1.27697e-07
1.34168e-07
9.36273e-08
4.74706e-08
1.24884e-08
-1.3716e-08
-4.89944e-08
-1.41814e-07
-4.47865e-07
-1.45246e-06
-4.24586e-06
-7.64254e-06
4.60662e-06
3.39854e-05
4.27036e-06
-7.67155e-06
-6.79569e-06
-4.10827e-06
-2.14373e-06
-1.06283e-06
-5.7846e-07
-5.18326e-07
3.76088e-07
2.35648e-06
2.54082e-06
-4.90032e-07
-1.57724e-06
-6.80627e-07
-2.98678e-07
-1.36262e-07
-6.41091e-08
-3.11395e-08
-1.55563e-08
-7.99528e-09
-4.14844e-09
-2.23424e-09
-1.22581e-09
-6.77436e-10
-3.73374e-10
-2.03619e-10
-1.07843e-10
-5.66371e-11
-2.9871e-11
-1.87901e-11
-1.97667e-11
-2.98221e-11
-5.56746e-12
8.8378e-11
2.08134e-12
-2.42406e-11
-4.56743e-12
-2.92715e-17
-1.25742e-16
-2.68797e-18
-1.01104e-16
1.55058e-16
-4.15474e-17
-3.30735e-17
-1.4675e-17
1.31359e-16
-1.93878e-16
-5.85205e-17
4.12323e-17
-1.8481e-16
-2.6497e-18
8.57868e-17
-9.81639e-17
2.05937e-16
5.03896e-16
3.40739e-16
5.67767e-17
-4.06589e-16
7.60604e-17
8.78204e-17
-2.19054e-16
5.56437e-16
4.33647e-16
-1.04005e-16
1.15009e-15
-6.71737e-16
-1.45429e-15
-4.79875e-18
-1.75535e-15
-4.00159e-15
-1.7197e-14
-4.22461e-14
-1.40947e-13
-7.34147e-13
-1.3823e-12
-4.31163e-12
-1.28626e-11
-3.55922e-11
-9.35425e-11
-2.20937e-10
-4.33201e-10
-4.7435e-10
9.34836e-10
8.76857e-09
3.30831e-08
8.05479e-08
1.27045e-07
1.28328e-07
8.84773e-08
4.47097e-08
1.1355e-08
-1.4166e-08
-4.94781e-08
-1.42552e-07
-4.47462e-07
-1.44045e-06
-4.18704e-06
-7.55929e-06
4.13999e-06
3.36083e-05
5.00296e-06
-7.62833e-06
-6.84725e-06
-4.1727e-06
-2.18599e-06
-1.08755e-06
-5.83549e-07
-5.2098e-07
3.26869e-07
2.32363e-06
2.59406e-06
-4.14803e-07
-1.60295e-06
-6.93741e-07
-3.04193e-07
-1.38721e-07
-6.52019e-08
-3.16572e-08
-1.58087e-08
-8.12201e-09
-4.214e-09
-2.26903e-09
-1.24457e-09
-6.87573e-10
-3.78787e-10
-2.06438e-10
-1.09299e-10
-5.73662e-11
-3.02975e-11
-1.91639e-11
-2.03921e-11
-3.04531e-11
-5.09176e-12
9.21312e-11
-2.8771e-13
-2.43174e-11
-4.56877e-12
-4.17316e-17
7.29787e-17
7.8912e-17
-2.84757e-17
-7.2918e-17
-4.10898e-18
-4.03066e-18
3.74477e-17
-3.15314e-17
5.39045e-17
-1.11361e-16
5.53138e-17
1.76702e-16
-2.93447e-16
3.30049e-16
3.74113e-16
-2.6405e-17
2.36128e-16
-5.32912e-17
2.81868e-16
4.7171e-18
1.57752e-17
3.69329e-16
2.58049e-16
1.84682e-16
-3.82263e-16
8.4566e-16
2.00251e-16
-4.598e-16
7.17253e-16
-2.26494e-16
-2.2361e-15
-2.45349e-15
-1.76676e-14
-5.00006e-14
-1.59319e-13
-4.91547e-13
-1.51093e-12
-4.7457e-12
-1.39653e-11
-3.83047e-11
-9.97204e-11
-2.34198e-10
-4.42365e-10
-4.66518e-10
1.20815e-09
9.79022e-09
3.56545e-08
8.33434e-08
1.26041e-07
1.23845e-07
8.38788e-08
4.18766e-08
1.07267e-08
-1.44688e-08
-4.97582e-08
-1.42444e-07
-4.44677e-07
-1.42381e-06
-4.12656e-06
-7.49766e-06
3.63658e-06
3.32353e-05
5.81328e-06
-7.55697e-06
-6.89716e-06
-4.25569e-06
-2.23759e-06
-1.11439e-06
-5.86997e-07
-5.53211e-07
2.87752e-07
2.28396e-06
2.63942e-06
-3.25466e-07
-1.63222e-06
-7.09727e-07
-3.10873e-07
-1.41608e-07
-6.64483e-08
-3.2237e-08
-1.60876e-08
-8.2606e-09
-4.28382e-09
-2.30552e-09
-1.26423e-09
-6.98233e-10
-3.84538e-10
-2.09493e-10
-1.10885e-10
-5.81784e-11
-3.07514e-11
-1.95146e-11
-2.09041e-11
-3.10672e-11
-4.84964e-12
9.49867e-11
-1.67745e-12
-2.45337e-11
-4.60165e-12
3.37003e-17
1.94348e-17
5.66169e-17
-1.10551e-17
2.53228e-17
9.67818e-18
-8.17386e-18
-4.3798e-17
-1.15602e-16
1.55041e-17
-2.63578e-16
-1.95613e-16
-5.83915e-17
2.37707e-16
-3.63582e-17
2.60687e-16
1.85864e-16
2.33e-16
-1.50973e-17
-3.52181e-16
3.95693e-16
-2.28235e-16
-1.8804e-16
2.02751e-16
4.67891e-16
-5.16829e-17
-2.84985e-16
-3.64038e-17
7.11563e-16
4.47861e-16
-9.57484e-16
-3.88427e-16
-7.75717e-15
-1.52571e-14
-4.63762e-14
-1.5424e-13
-5.07826e-13
-1.59289e-12
-5.1773e-12
-1.49758e-11
-4.09193e-11
-1.04701e-10
-2.39072e-10
-4.4628e-10
-4.40086e-10
1.5098e-09
1.10065e-08
3.84056e-08
8.64823e-08
1.26819e-07
1.20977e-07
7.97196e-08
3.4634e-08
1.30699e-08
-1.46403e-08
-4.98129e-08
-1.41586e-07
-4.3935e-07
-1.3965e-06
-4.03291e-06
-7.41374e-06
3.04643e-06
3.29271e-05
6.68124e-06
-7.49554e-06
-6.94669e-06
-4.3296e-06
-2.28875e-06
-1.14357e-06
-5.95389e-07
-5.56256e-07
2.38962e-07
2.23545e-06
2.68935e-06
-2.30247e-07
-1.65964e-06
-7.25557e-07
-3.17407e-07
-1.44489e-07
-6.7705e-08
-3.28269e-08
-1.63729e-08
-8.40311e-09
-4.35519e-09
-2.34329e-09
-1.2844e-09
-7.09159e-10
-3.90465e-10
-2.12698e-10
-1.12557e-10
-5.90473e-11
-3.12204e-11
-1.98415e-11
-2.1319e-11
-3.16289e-11
-4.78072e-12
9.71572e-11
-2.33949e-12
-2.48445e-11
-4.65622e-12
5.19401e-17
-1.44554e-17
1.11349e-16
1.814e-16
1.27985e-16
3.67824e-17
9.97888e-17
4.86498e-17
-4.26807e-17
2.18776e-16
-1.24486e-16
2.12978e-16
3.02155e-17
-7.72478e-17
-1.30499e-16
1.31584e-16
8.51393e-18
-1.73375e-16
-1.27504e-16
-6.12034e-17
-8.81326e-17
3.6264e-16
-1.47004e-16
-7.19206e-17
-1.05344e-15
-1.23129e-16
7.79235e-17
-2.75058e-16
-1.63278e-15
-8.88202e-16
6.02549e-16
-1.35774e-15
-6.33136e-15
-1.32764e-14
-5.88277e-14
-1.81578e-13
-6.73275e-13
-1.75932e-12
-5.45724e-12
-1.61831e-11
-4.35932e-11
-1.10553e-10
-2.50213e-10
-4.67074e-10
-4.16089e-10
1.78017e-09
1.20421e-08
4.07162e-08
8.91256e-08
1.27414e-07
1.19381e-07
7.84682e-08
3.71456e-08
8.63613e-09
-1.53977e-08
-4.97706e-08
-1.40317e-07
-4.3335e-07
-1.37331e-06
-3.96015e-06
-7.3561e-06
2.46036e-06
3.25207e-05
7.64609e-06
-7.43811e-06
-7.00266e-06
-4.40525e-06
-2.33763e-06
-1.17228e-06
-6.04371e-07
-5.58974e-07
1.87737e-07
2.18759e-06
2.73629e-06
-1.33517e-07
-1.68462e-06
-7.41092e-07
-3.23996e-07
-1.47391e-07
-6.89663e-08
-3.34142e-08
-1.6656e-08
-8.54463e-09
-4.42578e-09
-2.38064e-09
-1.3048e-09
-7.20413e-10
-3.96656e-10
-2.16039e-10
-1.14293e-10
-5.99607e-11
-3.17064e-11
-2.01542e-11
-2.16588e-11
-3.21429e-11
-4.8197e-12
9.88173e-11
-2.46865e-12
-2.52135e-11
-4.72463e-12
-2.50757e-17
-1.79879e-17
8.73276e-17
6.3269e-17
8.24823e-17
-8.1021e-17
-2.46895e-17
-1.74882e-16
-6.06108e-17
1.38031e-16
-9.08084e-17
-3.55629e-17
3.81922e-16
-1.01983e-17
1.54668e-16
-2.40829e-16
-1.78854e-16
2.62436e-16
-1.11498e-16
1.11611e-16
3.43833e-16
3.43081e-16
1.00226e-16
-5.08275e-16
-3.66138e-16
5.03918e-16
-5.09267e-17
5.45746e-16
-1.14578e-17
-1.33953e-15
-1.48451e-16
-4.7767e-15
-5.10868e-15
-2.15191e-14
-5.98774e-14
-2.08694e-13
-5.38042e-13
-1.88398e-12
-5.75713e-12
-1.71821e-11
-4.64097e-11
-1.17917e-10
-2.64704e-10
-4.86302e-10
-4.01706e-10
1.97273e-09
1.26662e-08
4.17598e-08
8.97201e-08
1.261e-07
1.1672e-07
7.6226e-08
3.59445e-08
8.15949e-09
-1.55741e-08
-4.93413e-08
-1.38487e-07
-4.26159e-07
-1.34607e-06
-3.89022e-06
-7.30816e-06
1.92334e-06
3.20763e-05
8.58956e-06
-7.37119e-06
-7.05333e-06
-4.48274e-06
-2.38899e-06
-1.20319e-06
-6.13889e-07
-5.61147e-07
1.40628e-07
2.13567e-06
2.77283e-06
-3.16229e-08
-1.70958e-06
-7.58282e-07
-3.31028e-07
-1.50423e-07
-7.02709e-08
-3.40305e-08
-1.6955e-08
-8.69393e-09
-4.49837e-09
-2.41856e-09
-1.32522e-09
-7.31583e-10
-4.02804e-10
-2.19432e-10
-1.16071e-10
-6.0893e-11
-3.21847e-11
-2.04415e-11
-2.1938e-11
-3.26279e-11
-4.99137e-12
1.00075e-10
-2.21458e-12
-2.56394e-11
-4.80571e-12
-7.52972e-18
5.44975e-17
-1.1121e-16
1.73902e-16
-5.88108e-17
-2.66331e-17
-1.80253e-16
-3.95902e-17
-5.56668e-17
-3.30838e-16
4.84119e-17
-4.07097e-17
2.38548e-16
2.93918e-16
5.67467e-17
-6.11043e-17
6.39132e-17
3.26371e-16
2.57647e-16
2.57598e-17
5.72637e-16
-2.25916e-16
1.89177e-16
3.41651e-17
-3.5201e-16
2.18374e-16
6.65853e-16
-9.34357e-16
-3.78541e-16
-4.29481e-16
-1.23272e-15
-2.37211e-15
-9.15944e-15
-2.34344e-14
-6.64595e-14
-2.22432e-13
-6.68448e-13
-1.98584e-12
-6.13018e-12
-1.81025e-11
-4.83524e-11
-1.21706e-10
-2.76681e-10
-5.0463e-10
-4.00041e-10
2.08721e-09
1.30595e-08
4.24462e-08
8.99641e-08
1.24921e-07
1.14789e-07
7.46444e-08
3.51278e-08
7.89967e-09
-1.56384e-08
-4.89333e-08
-1.36778e-07
-4.19626e-07
-1.31921e-06
-3.80459e-06
-7.2356e-06
1.39039e-06
3.16435e-05
9.51268e-06
-7.30577e-06
-7.10063e-06
-4.56193e-06
-2.43943e-06
-1.23154e-06
-6.2361e-07
-5.6263e-07
9.87572e-08
2.08591e-06
2.80673e-06
6.40522e-08
-1.73088e-06
-7.74708e-07
-3.37802e-07
-1.53416e-07
-7.15721e-08
-3.46354e-08
-1.72458e-08
-8.83852e-09
-4.56921e-09
-2.45539e-09
-1.34497e-09
-7.42357e-10
-4.08723e-10
-2.22683e-10
-1.1777e-10
-6.17942e-11
-3.26494e-11
-2.07109e-11
-2.21694e-11
-3.31298e-11
-5.1926e-12
1.01025e-10
-1.69536e-12
-2.60697e-11
-4.88903e-12
-1.21774e-17
2.20028e-18
-6.78592e-17
1.21894e-16
2.7398e-17
-1.38724e-17
1.67006e-16
-1.31382e-16
-1.0561e-17
1.66159e-17
1.23351e-16
1.26173e-17
2.07266e-16
8.02066e-17
-1.44791e-16
-1.86308e-16
1.46138e-16
-1.84164e-16
-1.56828e-16
2.5318e-16
-7.14021e-17
-1.38501e-16
2.98719e-16
-1.71654e-16
-7.001e-17
1.1216e-16
2.75998e-16
5.47931e-17
-7.14599e-16
9.08467e-16
-6.27004e-16
-3.1901e-15
-5.04546e-15
-1.91039e-14
-7.10351e-14
-2.11637e-13
-7.14949e-13
-2.05651e-12
-6.36153e-12
-1.825e-11
-5.12668e-11
-1.27682e-10
-2.87396e-10
-5.13476e-10
-3.94105e-10
2.1792e-09
1.33738e-08
4.29827e-08
9.01692e-08
1.24038e-07
1.131e-07
7.33773e-08
3.46034e-08
7.79521e-09
-1.56288e-08
-4.8468e-08
-1.34946e-07
-4.12553e-07
-1.29497e-06
-3.73535e-06
-7.17609e-06
9.01864e-07
3.12174e-05
1.04274e-05
-7.23399e-06
-7.14019e-06
-4.63219e-06
-2.48901e-06
-1.20995e-06
-6.3441e-07
-5.64489e-07
5.9768e-08
2.03719e-06
2.83544e-06
1.54179e-07
-1.74876e-06
-7.90215e-07
-3.44252e-07
-1.56212e-07
-7.27754e-08
-3.51939e-08
-1.75135e-08
-8.97117e-09
-4.63361e-09
-2.48887e-09
-1.36293e-09
-7.52166e-10
-4.14119e-10
-2.25652e-10
-1.1932e-10
-6.26131e-11
-3.30647e-11
-2.09408e-11
-2.23436e-11
-3.34515e-11
-5.41586e-12
1.01686e-10
-1.06033e-12
-2.6474e-11
-4.96813e-12
3.88729e-17
-7.15156e-17
-1.16221e-16
9.60716e-17
-5.7518e-17
-1.11606e-16
-3.93387e-17
-7.19083e-17
-1.46797e-16
-3.43636e-17
-7.47781e-17
2.71576e-16
-8.211e-17
-2.04171e-16
4.94174e-17
-5.7779e-17
-1.03952e-17
-8.33708e-18
-2.49214e-16
-2.4603e-17
-7.91621e-17
-2.87352e-17
-3.20406e-16
4.70556e-16
1.63516e-16
-1.70578e-16
8.82104e-16
-1.62259e-15
-6.57251e-16
-1.50624e-15
4.68533e-16
-1.64494e-15
-8.67637e-15
-2.14454e-14
-7.81636e-14
-2.29582e-13
-8.60417e-13
-2.22084e-12
-6.73834e-12
-1.96058e-11
-5.27696e-11
-1.31121e-10
-2.9415e-10
-5.19103e-10
-3.91945e-10
2.24306e-09
1.35896e-08
4.331e-08
9.01576e-08
1.23284e-07
1.11999e-07
7.25886e-08
3.42648e-08
7.74748e-09
-1.55645e-08
-4.80102e-08
-1.33119e-07
-4.06004e-07
-1.27164e-06
-3.67274e-06
-7.13166e-06
4.96673e-07
3.08414e-05
1.11925e-05
-7.16402e-06
-7.16876e-06
-4.69031e-06
-2.53257e-06
-1.25434e-06
-6.48917e-07
-5.67133e-07
2.52832e-08
1.99534e-06
2.85843e-06
2.3162e-07
-1.76247e-06
-8.03692e-07
-3.49808e-07
-1.58623e-07
-7.38139e-08
-3.56752e-08
-1.77425e-08
-9.08507e-09
-4.68884e-09
-2.51759e-09
-1.37834e-09
-7.6059e-10
-4.1876e-10
-2.28212e-10
-1.2066e-10
-6.33292e-11
-3.34257e-11
-2.11382e-11
-2.2487e-11
-3.37472e-11
-5.62117e-12
1.02173e-10
-4.09857e-13
-2.68311e-11
-5.03848e-12
1.53829e-16
-2.08536e-17
-1.9278e-17
-1.12786e-17
6.89848e-17
6.575e-17
-1.1937e-17
1.71976e-17
2.26151e-16
-1.27191e-17
1.00807e-17
-1.29078e-16
3.04399e-16
4.12817e-17
3.87355e-16
-1.40546e-16
3.15788e-18
-2.22359e-17
2.49625e-16
6.24762e-16
6.20376e-16
-6.25682e-17
-5.55252e-16
3.07017e-16
-5.66614e-16
3.079e-17
-1.15343e-15
-4.98623e-16
1.5437e-17
2.35939e-15
9.51111e-18
-3.11084e-15
-7.332e-15
-3.01173e-14
-8.73917e-14
-2.47847e-13
-5.11778e-13
-2.30078e-12
-6.88719e-12
-1.96742e-11
-5.33749e-11
-1.33345e-10
-2.92741e-10
-5.27102e-10
-3.91771e-10
2.29122e-09
1.37539e-08
4.35612e-08
9.0157e-08
1.22697e-07
1.11142e-07
7.19968e-08
3.40304e-08
7.72355e-09
-1.54954e-08
-4.76351e-08
-1.31799e-07
-4.01377e-07
-1.25541e-06
-3.62803e-06
-7.09028e-06
1.83474e-07
3.04617e-05
1.18476e-05
-7.11159e-06
-7.19686e-06
-4.73995e-06
-2.56556e-06
-1.27496e-06
-6.5616e-07
-5.69893e-07
1.72989e-09
1.96256e-06
2.87391e-06
2.92616e-07
-1.77213e-06
-8.14471e-07
-3.54247e-07
-1.60549e-07
-7.46441e-08
-3.6061e-08
-1.79282e-08
-9.17678e-09
-4.73315e-09
-2.54058e-09
-1.39066e-09
-7.67319e-10
-4.22468e-10
-2.30259e-10
-1.21731e-10
-6.38993e-11
-3.37112e-11
-2.12913e-11
-2.25932e-11
-3.40512e-11
-5.81233e-12
1.02486e-10
1.61572e-13
-2.71223e-11
-5.09606e-12
-6.87628e-17
-1.3007e-17
2.00747e-16
9.86528e-17
-1.33098e-16
1.59666e-16
7.06838e-18
7.98059e-17
-1.31048e-17
-1.82586e-17
4.66989e-17
1.22541e-17
5.74967e-17
2.49192e-16
-2.36964e-17
5.09109e-17
1.65117e-17
3.9152e-16
1.66581e-16
-2.16803e-16
4.92106e-16
7.66636e-17
-2.89373e-16
-4.89843e-16
-2.07614e-16
-2.16216e-16
-8.04588e-17
-5.48707e-16
-7.33935e-16
4.8649e-16
-2.76523e-15
-2.13361e-15
-7.69839e-15
-2.41917e-14
-7.54558e-14
-2.25035e-13
-8.56641e-13
-2.22693e-12
-6.78469e-12
-2.00854e-11
-5.31194e-11
-1.32817e-10
-2.95117e-10
-5.32334e-10
-3.91451e-10
2.32621e-09
1.38695e-08
4.37378e-08
9.01675e-08
1.22263e-07
1.10527e-07
7.15832e-08
3.38696e-08
7.72036e-09
-1.54424e-08
-4.73745e-08
-1.30837e-07
-3.97943e-07
-1.24344e-06
-3.59524e-06
-7.06233e-06
-3.00728e-08
3.02087e-05
1.22919e-05
-7.07258e-06
-7.21395e-06
-4.77345e-06
-2.58787e-06
-1.28819e-06
-6.60951e-07
-5.67813e-07
-1.59512e-08
1.93914e-06
2.88513e-06
3.35752e-07
-1.77836e-06
-8.22154e-07
-3.57407e-07
-1.61918e-07
-7.52335e-08
-3.63339e-08
-1.80586e-08
-9.24128e-09
-4.76433e-09
-2.55675e-09
-1.39933e-09
-7.7206e-10
-4.25082e-10
-2.31705e-10
-1.22487e-10
-6.43024e-11
-3.39128e-11
-2.13978e-11
-2.26623e-11
-3.42147e-11
-5.94515e-12
1.02687e-10
5.91865e-13
-2.73302e-11
-5.13727e-12
2.96397e-17
-1.13485e-17
2.64299e-17
-8.81962e-17
-1.65199e-17
1.01216e-16
-1.47702e-17
9.73963e-17
3.83803e-17
7.0347e-17
-1.42708e-16
-1.16811e-17
1.18829e-16
-3.05042e-16
3.251e-16
2.60544e-16
4.23429e-18
-2.96335e-16
-3.36008e-16
-7.38719e-21
-2.95018e-17
-3.37899e-16
-5.44682e-17
3.47159e-16
-8.25044e-17
1.95769e-16
-6.34053e-16
5.35715e-16
-6.18852e-16
-1.74185e-15
2.18606e-17
-3.71472e-15
-8.90134e-15
-2.96926e-14
-7.96796e-14
-2.44605e-13
-7.86526e-13
-2.29555e-12
-7.14063e-12
-2.0481e-11
-5.43966e-11
-1.34423e-10
-2.95612e-10
-5.3553e-10
-3.88302e-10
2.35303e-09
1.39486e-08
4.38502e-08
9.01573e-08
1.21983e-07
1.10146e-07
7.13359e-08
3.37746e-08
7.71152e-09
-1.54195e-08
-4.72452e-08
-1.30353e-07
-3.9618e-07
-1.2371e-06
-3.57721e-06
-7.04684e-06
-1.40121e-07
3.00765e-05
1.25224e-05
-7.05123e-06
-7.22278e-06
-4.7907e-06
-2.59948e-06
-1.29519e-06
-6.63538e-07
-5.70184e-07
-2.51571e-08
1.92612e-06
2.89063e-06
3.58589e-07
-1.78142e-06
-8.2625e-07
-3.59091e-07
-1.62646e-07
-7.55479e-08
-3.64799e-08
-1.81286e-08
-9.27607e-09
-4.78113e-09
-2.56548e-09
-1.40401e-09
-7.74618e-10
-4.26493e-10
-2.32485e-10
-1.22895e-10
-6.45196e-11
-3.40207e-11
-2.14532e-11
-2.26927e-11
-3.42681e-11
-6.01725e-12
1.02779e-10
8.26158e-13
-2.74421e-11
-5.15949e-12
-6.84164e-18
1.33101e-16
-2.32446e-17
8.56861e-17
9.62453e-17
1.85449e-16
-8.54144e-17
1.85095e-16
-1.52838e-17
-6.34902e-17
1.96413e-16
8.5306e-17
-2.36526e-16
-7.51243e-17
1.89008e-16
1.48825e-16
-1.77494e-17
-7.32268e-17
1.1045e-16
-1.48253e-17
-1.03723e-16
2.64195e-16
-2.3002e-16
-4.04345e-16
1.53263e-16
-7.20649e-17
2.61082e-16
7.84898e-17
-9.51385e-16
2.24589e-15
-1.65392e-16
-2.00637e-15
-1.17263e-14
-3.03649e-14
-8.85744e-14
-2.92026e-13
-9.37281e-13
-2.43878e-12
-7.22428e-12
-2.02737e-11
-5.49749e-11
-1.35673e-10
-2.9989e-10
-5.36291e-10
-3.86286e-10
2.36898e-09
1.39981e-08
4.3929e-08
9.01811e-08
1.21858e-07
1.09937e-07
7.11829e-08
3.37092e-08
7.69533e-09
-1.54255e-08
-4.72201e-08
-1.3025e-07
-3.95797e-07
-1.23571e-06
-3.5732e-06
-7.04296e-06
-1.62665e-07
3.00501e-05
1.25719e-05
-7.04706e-06
-7.22486e-06
-4.79427e-06
-2.60174e-06
-1.29648e-06
-6.63977e-07
-5.70158e-07
-2.66351e-08
1.92439e-06
2.8915e-06
3.6223e-07
-1.78186e-06
-8.26886e-07
-3.5935e-07
-1.62757e-07
-7.55955e-08
-3.65018e-08
-1.8139e-08
-9.28118e-09
-4.7836e-09
-2.56675e-09
-1.40469e-09
-7.74988e-10
-4.26696e-10
-2.32596e-10
-1.22953e-10
-6.45508e-11
-3.40369e-11
-2.14638e-11
-2.2705e-11
-3.43143e-11
-6.02537e-12
1.02811e-10
8.53103e-13
-2.74556e-11
-5.16215e-12
2.96382e-17
-5.53179e-18
8.24612e-17
-2.32845e-17
4.67498e-17
9.71766e-18
-1.04831e-16
-2.07883e-16
-1.07833e-17
5.77331e-17
-1.02508e-16
-8.84216e-17
-7.15478e-17
-3.15621e-16
-6.9577e-17
-1.02607e-17
2.43396e-16
2.82443e-16
-7.51409e-17
-2.19865e-16
-1.59486e-16
-3.42661e-16
-6.65034e-17
-3.80608e-16
6.23817e-16
6.09187e-17
-6.31469e-16
-8.56641e-16
-6.41081e-16
1.26829e-15
-3.07797e-16
-2.85616e-15
-1.15898e-14
-3.34151e-14
-1.06471e-13
-3.24439e-13
-1.05376e-12
-2.51446e-12
-7.32317e-12
-2.07301e-11
-5.51331e-11
-1.35889e-10
-3.0238e-10
-5.33388e-10
-3.85337e-10
2.37504e-09
1.40221e-08
4.39818e-08
9.02396e-08
1.21868e-07
1.0989e-07
7.11248e-08
3.36667e-08
7.66063e-09
-1.54772e-08
-4.73446e-08
-1.30674e-07
-3.97242e-07
-1.24055e-06
-3.58614e-06
-7.053e-06
-7.62112e-08
3.01513e-05
1.23951e-05
-7.06315e-06
-7.21808e-06
-4.78097e-06
-2.59281e-06
-1.29121e-06
-6.62015e-07
-5.67332e-07
-1.98565e-08
1.93381e-06
2.88739e-06
3.45467e-07
-1.77956e-06
-8.23843e-07
-3.58097e-07
-1.62214e-07
-7.53618e-08
-3.63934e-08
-1.80871e-08
-9.25542e-09
-4.77118e-09
-2.56031e-09
-1.40124e-09
-7.731e-10
-4.25654e-10
-2.32018e-10
-1.22651e-10
-6.43886e-11
-3.39556e-11
-2.14194e-11
-2.26732e-11
-3.42159e-11
-5.96298e-12
1.0275e-10
6.50044e-13
-2.73679e-11
-5.14462e-12
1.83218e-18
-6.92575e-17
-1.08555e-18
5.68437e-18
-3.75519e-17
-1.51366e-16
-4.80013e-17
8.31323e-17
-7.27973e-17
3.99924e-17
-7.92526e-18
1.20685e-16
-8.83536e-17
5.39157e-17
-2.85303e-17
6.0728e-18
1.50516e-16
-1.23548e-16
-1.13015e-16
4.88729e-17
1.95654e-16
2.99819e-16
-3.30535e-16
3.43207e-16
3.64549e-16
7.89672e-17
6.34104e-16
-3.84539e-16
1.31676e-15
1.62953e-15
-2.15452e-15
-2.71031e-15
-8.34593e-15
-2.45086e-14
-7.25158e-14
-2.23891e-13
-7.44749e-13
-2.21452e-12
-6.94158e-12
-2.05483e-11
-5.42357e-11
-1.35903e-10
-2.98657e-10
-5.35566e-10
-3.86343e-10
2.37276e-09
1.40215e-08
4.40066e-08
9.03341e-08
1.22023e-07
1.10014e-07
7.11668e-08
3.36525e-08
7.61006e-09
-1.55775e-08
-4.76223e-08
-1.31622e-07
-4.00462e-07
-1.25133e-06
-3.61512e-06
-7.07563e-06
1.1685e-07
3.03689e-05
1.20038e-05
-7.09691e-06
-7.202e-06
-4.75146e-06
-2.57322e-06
-1.2796e-06
-6.5775e-07
-5.67038e-07
-4.61823e-09
1.95374e-06
2.87829e-06
3.09126e-07
-1.77433e-06
-8.17289e-07
-3.55401e-07
-1.61046e-07
-7.48587e-08
-3.61599e-08
-1.7975e-08
-9.19985e-09
-4.74439e-09
-2.54642e-09
-1.39379e-09
-7.69028e-10
-4.23406e-10
-2.30774e-10
-1.22e-10
-6.40414e-11
-3.37828e-11
-2.13307e-11
-2.2623e-11
-3.40474e-11
-5.83664e-12
1.02628e-10
2.37248e-13
-2.71823e-11
-5.10764e-12
-4.32028e-17
8.10846e-17
-5.9757e-17
-2.63978e-17
-1.00245e-16
1.58692e-17
1.09406e-16
-3.53958e-17
-1.23898e-16
3.19917e-17
-1.84216e-16
4.68974e-17
7.53539e-17
1.06348e-16
-1.47371e-16
-2.5962e-17
2.14995e-16
-3.07129e-16
1.45757e-16
2.30457e-16
-1.30382e-16
-3.82501e-16
-4.89817e-17
5.28586e-16
-4.30208e-16
-3.34077e-16
6.23807e-16
-1.45866e-16
-7.45723e-17
1.21523e-15
-4.15293e-16
-3.26408e-15
-8.27952e-15
-2.11526e-14
-6.74925e-14
-2.03506e-13
-6.69446e-13
-2.15166e-12
-6.87838e-12
-2.04335e-11
-5.42641e-11
-1.33419e-10
-2.97413e-10
-5.36664e-10
-3.85735e-10
2.36575e-09
1.40013e-08
4.40134e-08
9.04762e-08
1.22331e-07
1.10306e-07
7.13018e-08
3.36583e-08
7.53522e-09
-1.57341e-08
-4.80733e-08
-1.33177e-07
-4.05784e-07
-1.26917e-06
-3.66241e-06
-7.11003e-06
4.35338e-07
3.06954e-05
1.13787e-05
-7.14611e-06
-7.17487e-06
-4.7047e-06
-2.54251e-06
-1.26152e-06
-6.51227e-07
-5.66996e-07
1.65446e-08
1.98362e-06
2.86278e-06
2.53625e-07
-1.76577e-06
-8.07482e-07
-3.51365e-07
-1.59297e-07
-7.41061e-08
-3.58109e-08
-1.78081e-08
-9.11731e-09
-4.70455e-09
-2.52573e-09
-1.3827e-09
-7.62959e-10
-4.20056e-10
-2.28919e-10
-1.21029e-10
-6.35235e-11
-3.35251e-11
-2.11959e-11
-2.25402e-11
-3.38403e-11
-5.64751e-12
1.02429e-10
-3.6193e-13
-2.6908e-11
-5.05305e-12
5.4876e-17
-5.46549e-17
2.61457e-18
1.39981e-16
7.03787e-17
-1.33664e-17
5.1471e-17
2.12869e-16
4.9882e-17
-3.10413e-17
-9.12074e-17
1.0642e-16
-8.85321e-17
5.50508e-17
4.00311e-17
8.7162e-17
1.36342e-16
-1.5645e-16
-2.38819e-16
1.75727e-16
4.43803e-16
-1.18977e-16
-4.81349e-17
-5.0093e-16
-1.2176e-16
4.082e-16
2.28176e-16
8.27484e-17
1.47459e-15
-2.67798e-15
-1.82215e-15
-1.10634e-15
-7.1017e-15