/*--------------------------------*- C++ -*----------------------------------*\
  =========                 |
  \\      /  F ield         | OpenFOAM: The Open Source CFD Toolbox
   \\    /   O peration     | Website:  https://openfoam.org
    \\  /    A nd           | Version:  10
     \\/     M anipulation  |
\*---------------------------------------------------------------------------*/
FoamFile
{
    format      ascii;
    class       volScalarField;
    location    "1";
    object      S3XC12H25;
}
// * * * * * * * * * * * * * * * * * * * * * * * * * * * * * * * * * * * * * //

dimensions      [0 0 0 0 0 0 0];

internalField   nonuniform List<scalar> 
4000
(
8.87888e-21
6.60415e-21
5.99595e-21
1.99883e-21
5.72856e-21
3.53028e-21
2.94505e-21
4.16734e-21
3.4953e-21
3.99082e-21
4.37511e-21
1.36876e-21
4.17134e-21
1.24977e-21
4.16522e-21
1.83958e-20
1.49136e-20
7.32717e-21
3.13883e-21
7.63556e-21
4.53902e-21
7.96892e-21
1.47057e-20
5.59659e-21
3.35506e-20
8.7345e-21
3.6722e-20
2.73328e-20
5.54664e-20
9.36468e-20
3.14827e-19
7.43178e-19
2.64174e-18
9.0274e-18
2.98527e-17
9.86539e-17
3.13157e-16
1.06041e-15
3.51235e-15
1.15226e-14
3.63601e-14
1.12391e-13
3.37663e-13
9.79011e-13
2.7227e-12
7.79326e-12
2.17306e-11
5.57441e-11
1.26336e-10
2.42577e-10
3.8439e-10
5.09838e-10
5.867e-10
6.39841e-10
6.87772e-10
7.69911e-10
9.49943e-10
1.40009e-09
2.5654e-09
5.83929e-09
1.5082e-08
3.4627e-08
5.2561e-08
3.81339e-08
2.14556e-08
1.12401e-08
6.40205e-09
4.60302e-09
4.23277e-09
4.48965e-09
5.08685e-09
5.89882e-09
6.14658e-09
4.89322e-09
2.64909e-09
1.16365e-09
5.30332e-10
2.50451e-10
1.22062e-10
6.10467e-11
3.1369e-11
1.6489e-11
8.83444e-12
4.80291e-12
2.63211e-12
1.44192e-12
7.8326e-13
4.18733e-13
2.18801e-13
1.11141e-13
5.48749e-14
2.60626e-14
1.35717e-14
1.01176e-14
1.40333e-14
2.90491e-14
5.25364e-14
5.43426e-14
1.39773e-14
2.11116e-15
5.70425e-21
1.10225e-20
2.4738e-21
1.4616e-20
1.48657e-20
1.01384e-20
1.27471e-20
4.09344e-21
1.55179e-21
9.43999e-21
1.99767e-21
8.47161e-22
5.02099e-21
1.21682e-21
1.17805e-21
1.40539e-20
1.99942e-20
1.97506e-20
4.29378e-20
4.82335e-20
2.62041e-20
1.06122e-20
2.56619e-20
2.50795e-20
5.8194e-20
4.45608e-20
3.15108e-20
4.24403e-20
1.40441e-20
1.16582e-19
2.86937e-19
9.15187e-19
3.26682e-18
1.15581e-17
3.81884e-17
1.25383e-16
4.25711e-16
1.39625e-15
4.61169e-15
1.48525e-14
4.72473e-14
1.44754e-13
4.36542e-13
1.26247e-12
3.65675e-12
1.05153e-11
2.85629e-11
7.05174e-11
1.52999e-10
2.80541e-10
4.12519e-10
5.18573e-10
5.96736e-10
6.46358e-10
6.95737e-10
7.88105e-10
9.80794e-10
1.45521e-09
2.67136e-09
5.98936e-09
1.52481e-08
3.45876e-08
5.24831e-08
3.86395e-08
2.1978e-08
1.15866e-08
6.57491e-09
4.65882e-09
4.23897e-09
4.47581e-09
5.06006e-09
5.87882e-09
6.18458e-09
4.99308e-09
2.73407e-09
1.19831e-09
5.44861e-10
2.56761e-10
1.24901e-10
6.23574e-11
3.19752e-11
1.67827e-11
8.98133e-12
4.87398e-12
2.66475e-12
1.45603e-12
7.88677e-13
4.2029e-13
2.18843e-13
1.10717e-13
5.44433e-14
2.58169e-14
1.35625e-14
1.04428e-14
1.49859e-14
3.12996e-14
5.47762e-14
5.08674e-14
1.29808e-14
1.95473e-15
2.89834e-20
4.00136e-21
8.26834e-21
1.48658e-20
5.22431e-20
9.17413e-21
1.66681e-21
1.13136e-21
1.87547e-20
4.06471e-21
1.53448e-20
9.14431e-21
5.46543e-21
1.16449e-20
4.64081e-21
1.4339e-20
2.99459e-21
1.98425e-21
2.02464e-20
1.20558e-20
2.93554e-20
6.26164e-21
8.40296e-21
3.2656e-20
5.30497e-20
9.43139e-20
3.20226e-20
6.33215e-20
4.13385e-20
1.46999e-19
3.86916e-19
1.10983e-18
4.022e-18
1.37784e-17
4.80155e-17
1.59624e-16
5.29883e-16
1.74779e-15
5.7129e-15
1.81788e-14
5.70446e-14
1.67704e-13
5.30602e-13
1.50962e-12
4.52092e-12
1.26448e-11
3.40643e-11
8.21724e-11
1.70166e-10
3.01074e-10
4.31106e-10
5.33172e-10
6.05516e-10
6.53932e-10
7.04667e-10
7.97497e-10
9.95727e-10
1.4842e-09
2.72882e-09
6.11704e-09
1.54341e-08
3.4659e-08
5.2426e-08
3.9072e-08
2.24213e-08
1.18919e-08
6.7365e-09
4.72713e-09
4.25342e-09
4.46884e-09
5.0412e-09
5.86065e-09
6.21893e-09
5.09329e-09
2.82802e-09
1.2374e-09
5.61363e-10
2.63981e-10
1.2818e-10
6.39013e-11
3.27453e-11
1.71642e-11
9.16974e-12
4.961e-12
2.70458e-12
1.47325e-12
7.95301e-13
4.22241e-13
2.18899e-13
1.1008e-13
5.38232e-14
2.54882e-14
1.35608e-14
1.08834e-14
1.62385e-14
3.41279e-14
5.74983e-14
4.71664e-14
1.19272e-14
1.79108e-15
1.39467e-20
2.09752e-21
8.97554e-21
1.55488e-20
1.31664e-20
2.28571e-20
7.90681e-21
1.5776e-21
1.26356e-20
1.72708e-20
3.11189e-20
2.89041e-20
4.97151e-21
6.42738e-21
9.47943e-21
1.09956e-20
2.41802e-20
1.85559e-20
2.98602e-20
1.81389e-20
1.75567e-20
6.47522e-20
5.76989e-20
9.44154e-21
2.442e-20
5.8265e-20
3.90309e-20
9.66371e-21
6.22582e-20
1.56928e-19
2.99915e-19
1.5716e-18
5.23491e-18
1.74892e-17
5.94837e-17
1.99715e-16
6.53039e-16
2.16888e-15
6.91417e-15
2.25038e-14
7.02138e-14
2.1213e-13
6.46646e-13
1.83943e-12
5.241e-12
1.49464e-11
3.94259e-11
9.20994e-11
1.89675e-10
3.12422e-10
4.39288e-10
5.47813e-10
6.15434e-10
6.60706e-10
7.13729e-10
8.04294e-10
1.01132e-09
1.51521e-09
2.79474e-09
6.2215e-09
1.5554e-08
3.4632e-08
5.23636e-08
3.94381e-08
2.28009e-08
1.21649e-08
6.89163e-09
4.7898e-09
4.26905e-09
4.465e-09
5.02478e-09
5.84323e-09
6.24769e-09
5.17779e-09
2.92053e-09
1.26375e-09
5.73814e-10
2.70022e-10
1.31176e-10
6.5403e-11
3.34977e-11
1.75541e-11
9.39642e-12
5.009e-12
2.7307e-12
1.48594e-12
8.00686e-13
4.24185e-13
2.19758e-13
1.08762e-13
5.3013e-14
2.51613e-14
1.36063e-14
1.14201e-14
1.7715e-14
3.72017e-14
6.05686e-14
4.37336e-14
1.09732e-14
1.64362e-15
4.00693e-21
1.00814e-20
4.83436e-21
2.65587e-21
6.57862e-21
3.20108e-21
2.24203e-20
4.66259e-21
7.86568e-22
2.04332e-21
8.66766e-21
8.28324e-21
1.2891e-21
8.59186e-22
1.3991e-20
2.85086e-21
1.55301e-20
5.25636e-21
4.4212e-20
3.00513e-20
9.65766e-21
7.79052e-20
1.31198e-20
3.70564e-20
3.2985e-20
2.51083e-20
5.39984e-20
7.87961e-20
2.30632e-20
2.26979e-19
5.60678e-19
1.9823e-18
6.82667e-18
2.2329e-17
7.47288e-17
2.48862e-16
8.1005e-16
2.59123e-15
8.50075e-15
2.69972e-14
8.33055e-14
2.51993e-13
7.3834e-13
2.1648e-12
6.09967e-12
1.7156e-11
4.40378e-11
1.02883e-10
1.96544e-10
3.18172e-10
4.55165e-10
5.57924e-10
6.22351e-10
6.68261e-10
7.18211e-10
8.12313e-10
1.02731e-09
1.54306e-09
2.84297e-09
6.31994e-09
1.56926e-08
3.46952e-08
5.23371e-08
3.97153e-08
2.31125e-08
1.24173e-08
7.02516e-09
4.84493e-09
4.28464e-09
4.46546e-09
5.01627e-09
5.83474e-09
6.27374e-09
5.25311e-09
2.995e-09
1.29416e-09
5.86684e-10
2.75869e-10
1.33897e-10
6.66914e-11
3.41357e-11
1.78792e-11
9.56431e-12
5.09423e-12
2.77165e-12
1.50489e-12
8.0884e-13
4.27235e-13
2.20544e-13
1.08781e-13
5.2805e-14
2.50976e-14
1.37715e-14
1.20184e-14
1.9246e-14
4.02852e-14
6.38492e-14
4.13898e-14
1.03121e-14
1.54095e-15
1.23655e-21
2.64422e-22
3.93416e-22
9.09797e-21
1.48219e-21
4.38657e-21
1.47078e-20
1.82492e-20
4.82602e-21
8.04814e-22
4.28965e-21
1.40687e-20
1.37411e-20
1.11065e-20
2.10368e-20
2.81956e-20
1.4294e-20
1.06098e-20
1.72294e-20
1.33491e-20
7.50257e-20
5.98237e-20
8.50363e-20
4.18553e-20
2.32563e-20
7.00412e-21
6.84936e-20
5.88764e-20
9.76595e-20
2.61528e-19
7.12499e-19
2.42607e-18
8.01237e-18
2.74172e-17
8.92578e-17
3.00671e-16
9.75128e-16
3.01891e-15
1.00968e-14
3.29034e-14
9.89533e-14
2.9187e-13
8.56043e-13
2.4686e-12
7.03824e-12
1.91516e-11
4.98611e-11
1.0724e-10
2.01693e-10
3.3367e-10
4.67991e-10
5.6652e-10
6.26881e-10
6.72299e-10
7.24079e-10
8.21247e-10
1.04038e-09
1.57028e-09
2.88844e-09
6.39447e-09
1.57773e-08
3.46807e-08
5.23118e-08
3.99963e-08
2.33819e-08
1.25941e-08
7.12722e-09
4.89447e-09
4.30189e-09
4.46826e-09
5.0108e-09
5.82742e-09
6.29276e-09
5.305e-09
3.04656e-09
1.31653e-09
5.96553e-10
2.80346e-10
1.3602e-10
6.77452e-11
3.46659e-11
1.8153e-11
9.70516e-12
5.17095e-12
2.81077e-12
1.52409e-12
8.17707e-13
4.30946e-13
2.21825e-13
1.09205e-13
5.28532e-14
2.51788e-14
1.39936e-14
1.26006e-14
2.06651e-14
4.30785e-14
6.69702e-14
3.99948e-14
9.90802e-15
1.47767e-15
1.33441e-21
6.33039e-21
9.45625e-22
3.09405e-21
7.62429e-21
5.74796e-21
8.9407e-22
3.81538e-22
9.00054e-22
3.97704e-21
5.90493e-21
2.99498e-21
2.66822e-21
2.1616e-20
1.95238e-20
2.59399e-20
1.51364e-20
1.38857e-20
1.86767e-20
4.76906e-21
5.20644e-20
5.75183e-20
2.02117e-20
3.62924e-21
3.0611e-20
7.9234e-20
1.21364e-20
5.59244e-20
1.08056e-19
3.00343e-19
8.99203e-19
2.8369e-18
9.69115e-18
3.26903e-17
1.07327e-16
3.576e-16
1.1701e-15
3.65656e-15
1.21786e-14
3.80114e-14
1.15023e-13
3.41604e-13
9.82325e-13
2.80517e-12
7.78893e-12
2.12333e-11
5.27008e-11
1.08305e-10
2.11391e-10
3.46875e-10
4.77305e-10
5.71529e-10
6.29855e-10
6.75056e-10
7.28064e-10
8.28223e-10
1.05131e-09
1.58843e-09
2.92208e-09
6.44646e-09
1.58129e-08
3.46145e-08
5.2285e-08
4.02812e-08
2.36504e-08
1.27695e-08
7.21879e-09
4.93667e-09
4.31498e-09
4.46936e-09
5.00481e-09
5.81979e-09
6.30814e-09
5.3542e-09
3.09768e-09
1.338e-09
6.06171e-10
2.84753e-10
1.38121e-10
6.87691e-11
3.51825e-11
1.84193e-11
9.84355e-12
5.24631e-12
2.84991e-12
1.5439e-12
8.27313e-13
4.35312e-13
2.23609e-13
1.0995e-13
5.3103e-14
2.53569e-14
1.4241e-14
1.31359e-14
2.19238e-14
4.54998e-14
6.97657e-14
3.92837e-14
9.69031e-15
1.44309e-15
1.97707e-21
1.40948e-21
1.08258e-20
1.71253e-20
7.44888e-21
6.22213e-21
1.12585e-20
1.54585e-20
4.44673e-21
1.81465e-21
5.44299e-22
7.31035e-21
9.13082e-21
1.40781e-21
6.23689e-21
1.56511e-21
1.75283e-20
3.10509e-21
7.26758e-21
3.85369e-20
4.66036e-20
3.33655e-20
5.00802e-21
1.10903e-21
1.1531e-20
1.62975e-20
3.16899e-20
8.56514e-20
1.78934e-19
2.39126e-19
9.6404e-19
3.5406e-18
1.19239e-17
3.85834e-17
1.2631e-16
4.1452e-16
1.36062e-15
4.16371e-15
1.36078e-14
4.33281e-14
1.30769e-13
3.83172e-13
1.11994e-12
3.15234e-12
8.76337e-12
2.3528e-11
5.44868e-11
1.1562e-10
2.22024e-10
3.57874e-10
4.86251e-10
5.76306e-10
6.32534e-10
6.7754e-10
7.31602e-10
8.33763e-10
1.06026e-09
1.60322e-09
2.94458e-09
6.46978e-09
1.57858e-08
3.44597e-08
5.22432e-08
4.05935e-08
2.39378e-08
1.29841e-08
7.32209e-09
4.98075e-09
4.32732e-09
4.46918e-09
4.99715e-09
5.81003e-09
6.32189e-09
5.40487e-09
3.15307e-09
1.36145e-09
6.16348e-10
2.89404e-10
1.40338e-10
6.98328e-11
3.57186e-11
1.86956e-11
9.98802e-12
5.32412e-12
2.89086e-12
1.56509e-12
8.37964e-13
4.40434e-13
2.25919e-13
1.10997e-13
5.35345e-14
2.56105e-14
1.44964e-14
1.36024e-14
2.29737e-14
4.75223e-14
7.21999e-14
3.90494e-14
9.60333e-15
1.42867e-15
2.49999e-21
4.7095e-22
2.62378e-21
1.29136e-20
1.98562e-20
1.26662e-20
4.22353e-21
1.56277e-21
7.59194e-21
1.10541e-20
1.61647e-21
5.97265e-21
3.43614e-21
2.07669e-21
5.06461e-21
3.31963e-21
1.88531e-20
5.10833e-20
6.05586e-20
4.80611e-20
1.66515e-20
4.40314e-20
2.75419e-20
8.89879e-21
3.48694e-20
6.47564e-20
2.14698e-20
8.93619e-20
4.00831e-20
2.17601e-19
1.1752e-18
4.17242e-18
1.37388e-17
4.544e-17
1.48667e-16
4.83409e-16
1.5847e-15
4.70032e-15
1.52566e-14
4.78271e-14
1.45347e-13
4.30545e-13
1.24354e-12
3.51864e-12
9.24254e-12
2.29268e-11
5.6646e-11
1.23449e-10
2.32097e-10
3.68738e-10
4.93078e-10
5.79819e-10
6.34605e-10
6.79614e-10
7.34372e-10
8.37964e-10
1.06686e-09
1.61306e-09
2.95587e-09
6.46381e-09
1.56852e-08
3.41509e-08
5.21639e-08
4.11031e-08
2.43599e-08
1.32193e-08
7.44937e-09
5.02938e-09
4.34012e-09
4.46606e-09
4.98375e-09
5.7932e-09
6.33281e-09
5.4584e-09
3.21359e-09
1.38707e-09
6.27425e-10
2.9445e-10
1.42756e-10
7.09823e-11
3.62969e-11
1.89932e-11
1.0144e-11
5.40679e-12
2.93467e-12
1.58808e-12
8.49783e-13
4.46323e-13
2.2873e-13
1.12315e-13
5.4123e-14
2.59263e-14
1.47558e-14
1.40077e-14
2.38467e-14
4.91834e-14
7.42758e-14
3.91506e-14
9.60886e-15
1.42852e-15
4.16924e-21
1.29881e-20
9.50438e-21
7.43181e-21
3.14999e-21
4.44867e-21
1.02343e-21
2.45622e-21
9.58926e-21
1.87631e-20
7.58596e-21
2.32856e-20
1.76944e-20
8.80198e-21
4.16373e-20
5.4617e-20
4.17656e-20
2.36222e-20
4.12485e-20
6.89812e-20
4.79687e-20
3.44101e-20
3.2103e-20
3.95491e-20
4.33098e-20
7.92652e-21
4.91838e-20
8.30602e-20
9.01671e-20
5.2119e-19
1.42054e-18
4.72991e-18
1.57636e-17
5.11615e-17
1.65352e-16
5.27878e-16
1.66891e-15
5.16055e-15
1.70749e-14
5.24952e-14
1.56028e-13
4.60229e-13
1.32348e-12
3.60875e-12
9.37907e-12
2.50275e-11
6.05705e-11
1.30183e-10
2.42197e-10
3.77818e-10
4.99015e-10
5.82894e-10
6.36339e-10
6.81068e-10
7.36403e-10
8.414e-10
1.07152e-09
1.6185e-09
2.95693e-09
6.43782e-09
1.55555e-08
3.38331e-08
5.2061e-08
4.1611e-08
2.47941e-08
1.35054e-08
7.5883e-09
5.08172e-09
4.35141e-09
4.45876e-09
4.96108e-09
5.77419e-09
6.34105e-09
5.5131e-09
3.28421e-09
1.41783e-09
6.40853e-10
3.00533e-10
1.45584e-10
7.22872e-11
3.69411e-11
1.93201e-11
1.03139e-11
5.49507e-12
2.9812e-12
1.6127e-12
8.62623e-13
4.52862e-13
2.31958e-13
1.13851e-13
5.48356e-14
2.62868e-14
1.50083e-14
1.43417e-14
2.4523e-14
5.05021e-14
7.60197e-14
3.94859e-14
9.67956e-15
1.43844e-15
1.992e-21
1.01614e-20
1.50208e-20
7.02849e-21
2.82174e-21
2.40027e-21
4.1622e-22
3.45176e-22
1.70286e-21
2.54783e-21
5.19989e-22
4.45671e-21
1.64921e-21
2.51791e-20
5.41137e-21
2.68173e-20
2.88777e-20
2.20387e-20
3.89574e-20
4.78035e-20
7.5924e-20
2.13296e-20
3.81913e-21
2.09343e-20
4.8573e-20
6.22346e-20
5.31166e-20
6.35726e-20
2.38307e-19
6.63337e-19
1.78748e-18
5.64616e-18
1.7174e-17
5.68574e-17
1.79892e-16
5.70997e-16
1.81948e-15
5.67648e-15
1.85988e-14
5.64967e-14
1.67107e-13
4.84759e-13
1.36384e-12
3.69856e-12
1.02412e-11
2.69005e-11
6.45646e-11
1.37746e-10
2.51934e-10
3.87433e-10
5.06136e-10
5.87274e-10
6.39526e-10
6.81887e-10
7.38045e-10
8.43942e-10
1.07427e-09
1.61976e-09
2.94782e-09
6.3776e-09
1.53247e-08
3.33363e-08
5.19188e-08
4.21295e-08
2.523e-08
1.37804e-08
7.72614e-09
5.14012e-09
4.36601e-09
4.45549e-09
4.94751e-09
5.75608e-09
6.34889e-09
5.57145e-09
3.3556e-09
1.44797e-09
6.5387e-10
3.06343e-10
1.48336e-10
7.3567e-11
3.75786e-11
1.96461e-11
1.04848e-11
5.58385e-12
3.029e-12
1.63801e-12
8.75909e-13
4.59722e-13
2.35434e-13
1.15524e-13
5.56302e-14
2.66752e-14
1.52522e-14
1.46189e-14
2.50459e-14
5.15517e-14
7.74917e-14
3.99812e-14
9.79522e-15
1.45532e-15
3.21797e-21
1.04946e-21
1.6277e-20
1.47053e-20
7.96232e-21
4.59461e-21
1.40211e-20
2.68681e-20
1.72379e-20
1.96661e-20
6.97594e-21
2.28585e-20
1.01587e-20
8.9367e-21
1.2599e-20
1.75265e-20
2.45843e-20
2.6359e-20
3.60555e-21
9.36342e-21
3.44238e-21
3.39518e-20
3.54786e-20
3.24299e-20
6.64209e-21
6.38006e-20
6.93496e-20
1.27662e-19
2.5921e-19
6.58892e-19
1.88759e-18
6.00683e-18
1.96287e-17
6.3051e-17
2.05875e-16
6.46159e-16
1.99863e-15
6.19102e-15
1.96302e-14
6.10618e-14
1.78795e-13
5.14979e-13
1.44389e-12
3.97742e-12
1.09724e-11
2.86058e-11
6.81335e-11
1.43902e-10
2.60162e-10
3.95586e-10
5.12445e-10
5.91757e-10
6.43084e-10
6.82221e-10
7.39415e-10
8.46029e-10
1.07583e-09
1.61844e-09
2.93403e-09
6.32256e-09
1.51274e-08
3.29198e-08
5.17565e-08
4.26781e-08
2.56805e-08
1.40602e-08
7.86232e-09
5.1978e-09
4.38193e-09
4.45354e-09
4.9319e-09
5.73402e-09
6.35254e-09
5.62442e-09
3.42502e-09
1.47905e-09
6.67089e-10
3.12373e-10
1.51176e-10
7.48822e-11
3.82259e-11
1.99744e-11
1.06566e-11
5.67273e-12
3.07699e-12
1.66408e-12
8.89902e-13
4.67075e-13
2.39165e-13
1.17312e-13
5.64873e-14
2.70881e-14
1.54914e-14
1.48517e-14
2.54485e-14
5.23856e-14
7.87374e-14
4.05772e-14
9.93963e-15
1.47669e-15
1.08338e-21
8.35745e-22
1.71144e-20
1.54842e-20
1.39866e-20
3.95949e-21
1.15289e-20
1.00036e-20
2.05102e-21
1.80155e-20
7.842e-21
1.96832e-21
2.08709e-20
1.36726e-20
1.19436e-20
2.06683e-20
3.38815e-21
1.28615e-20
2.39633e-21
1.25709e-20
5.48426e-20
4.59241e-20
3.33853e-20
2.50802e-20
3.96351e-20
7.79131e-20
7.12562e-20
8.93055e-20
1.84825e-19
6.54336e-19
2.02785e-18
6.5197e-18
2.14042e-17
6.92873e-17
2.20001e-16
6.8799e-16
2.12528e-15
6.55395e-15
2.0795e-14
6.5105e-14
1.91484e-13
5.53529e-13
1.53151e-12
4.30615e-12
1.15736e-11
3.00391e-11
7.11193e-11
1.48462e-10
2.65639e-10
4.00454e-10
5.15705e-10
5.93682e-10
6.44244e-10
6.82684e-10
7.41109e-10
8.47758e-10
1.07635e-09
1.61472e-09
2.9151e-09
6.25119e-09
1.49266e-08
3.24915e-08
5.15739e-08
4.32137e-08
2.61338e-08
1.43471e-08
8.00221e-09
5.25616e-09
4.39672e-09
4.44974e-09
4.9178e-09
5.71373e-09
6.35438e-09
5.67513e-09
3.49773e-09
1.51162e-09
6.81156e-10
3.1861e-10
1.54066e-10
7.62069e-11
3.88891e-11
2.03146e-11
1.08353e-11
5.76333e-12
3.12556e-12
1.69023e-12
9.03892e-13
4.74464e-13
2.43014e-13
1.19185e-13
5.73979e-14
2.75099e-14
1.57185e-14
1.50478e-14
2.57628e-14
5.30737e-14
7.98438e-14
4.12668e-14
1.01103e-14
1.50208e-15
4.22747e-22
1.11703e-20
2.53992e-21
1.72173e-20
1.08059e-20
6.88793e-21
1.16855e-20
1.19596e-20
1.2194e-20
5.63209e-21
1.6034e-20
1.59266e-20
2.09373e-20
2.80602e-20
4.48274e-20
5.50158e-20
4.21512e-20
2.5392e-20
4.28e-20
1.57295e-20
8.72676e-20
5.77856e-20
3.36018e-20
8.2604e-21
1.73358e-21
1.73299e-20
9.29199e-20
9.2446e-20
1.51448e-19
6.29227e-19
2.18999e-18
7.05936e-18
2.2299e-17
7.30295e-17
2.31144e-16
7.2536e-16
2.25433e-15
6.77533e-15
2.19146e-14
6.88749e-14
1.9947e-13
5.7256e-13
1.61407e-12
4.54637e-12
1.20768e-11
3.12211e-11
7.32091e-11
1.51614e-10
2.69324e-10
4.03587e-10
5.17683e-10
5.94885e-10
6.44915e-10
6.83027e-10
7.42412e-10
8.49078e-10
1.07628e-09
1.61053e-09
2.89721e-09
6.18064e-09
1.46913e-08
3.2012e-08
5.13728e-08
4.37203e-08
2.65633e-08
1.46209e-08
8.14127e-09
5.31028e-09
4.41129e-09
4.44587e-09
4.90411e-09
5.69285e-09
6.35392e-09
5.72047e-09
3.56362e-09
1.5432e-09
6.9467e-10
3.24627e-10
1.56913e-10
7.75262e-11
3.95391e-11
2.06445e-11
1.10079e-11
5.85159e-12
3.17277e-12
1.71559e-12
9.17459e-13
4.81629e-13
2.46735e-13
1.20988e-13
5.82744e-14
2.79196e-14
1.59324e-14
1.52104e-14
2.59901e-14
5.36113e-14
8.07725e-14
4.1968e-14
1.02855e-14
1.52825e-15
3.46881e-21
3.29559e-21
6.84392e-22
6.92634e-21
3.73504e-21
1.35655e-21
7.64639e-21
1.07354e-21
2.11586e-21
1.49937e-20
2.63035e-20
2.68357e-20
3.76178e-20
2.18366e-20
4.50391e-21
1.57675e-20
3.26504e-20
4.11999e-20
4.72094e-20
3.71383e-20
4.59053e-21
2.24861e-21
3.50869e-20
4.26696e-21
1.3934e-21
1.20761e-20
3.25971e-20
7.03259e-20
1.96405e-19
6.6627e-19
2.08173e-18
7.21343e-18
2.35048e-17
7.66151e-17
2.38369e-16
7.40205e-16
2.35549e-15
7.07066e-15
2.26684e-14
6.99488e-14
2.12352e-13
6.07519e-13
1.71438e-12
4.64458e-12
1.24759e-11
3.20512e-11
7.47529e-11
1.53966e-10
2.72067e-10
4.05921e-10
5.19171e-10
5.95618e-10
6.45329e-10
6.83251e-10
7.43318e-10
8.49868e-10
1.07533e-09
1.6048e-09
2.87548e-09
6.11292e-09
1.44828e-08
3.1579e-08
5.11583e-08
4.41875e-08
2.69681e-08
1.48818e-08
8.27405e-09
5.36927e-09
4.43763e-09
4.44624e-09
4.89291e-09
5.67413e-09
6.35274e-09
5.76234e-09
3.62489e-09
1.57307e-09
7.0741e-10
3.3035e-10
1.59574e-10
7.87467e-11
4.01392e-11
2.09482e-11
1.11662e-11
5.9319e-12
3.2158e-12
1.73876e-12
9.29879e-13
4.88206e-13
2.50161e-13
1.22649e-13
5.90824e-14
2.8292e-14
1.61217e-14
1.53464e-14
2.6172e-14
5.40251e-14
8.15274e-14
4.26277e-14
1.04516e-14
1.55312e-15
2.05851e-21
5.31554e-21
4.48967e-21
1.0209e-20
5.32797e-21
3.16009e-21
9.73141e-21
4.88834e-21
4.89531e-21
7.36233e-22
1.63206e-21
3.76619e-20
1.75722e-20
4.3802e-21
1.82902e-20
2.69865e-21
9.21078e-21
3.68966e-20
8.81943e-21
2.49436e-20
3.55283e-21
1.13648e-20
1.48476e-20
2.71041e-20
4.59608e-20
7.36904e-21
4.16047e-20
1.07109e-20
1.39081e-19
6.01267e-19
2.29341e-18
7.62186e-18
2.46968e-17
7.96609e-17
2.52986e-16
7.9583e-16
2.45785e-15
7.7609e-15
2.40021e-14
7.49379e-14
2.18422e-13
6.14978e-13
1.74325e-12
4.73518e-12
1.27833e-11
3.26889e-11
7.59107e-11
1.5568e-10
2.73982e-10
4.07428e-10
5.20077e-10
5.96101e-10
6.45635e-10
6.83416e-10
7.43966e-10
8.50364e-10
1.07415e-09
1.59876e-09
2.85502e-09
6.04569e-09
1.42931e-08
3.1204e-08
5.09606e-08
4.45625e-08
2.73067e-08
1.51041e-08
8.38753e-09
5.41744e-09
4.45278e-09
4.44459e-09
4.88264e-09
5.65736e-09
6.35057e-09
5.79651e-09
3.67697e-09
1.59902e-09
7.18459e-10
3.3527e-10
1.61864e-10
7.97981e-11
4.06559e-11
2.12091e-11
1.13026e-11
6.001e-12
3.25286e-12
1.75874e-12
9.40605e-13
4.93899e-13
2.53136e-13
1.24096e-13
5.97943e-14
2.86169e-14
1.62827e-14
1.54539e-14
2.63048e-14
5.43428e-14
8.2136e-14
4.32138e-14
1.05997e-14
1.57532e-15
6.64489e-21
8.14933e-21
1.01073e-20
6.79033e-21
9.95329e-21
9.7621e-21
1.27497e-20
1.92899e-20
1.47859e-20
2.6261e-21
1.94437e-21
3.85499e-21
1.45816e-20
8.2378e-21
3.55093e-20
1.97101e-20
6.19654e-21
1.2085e-20
1.63316e-20
4.42849e-20
3.77782e-20
5.44237e-21
2.53313e-20
2.26604e-20
6.07852e-21
7.57432e-20
1.17897e-20
8.70954e-20
2.64854e-19
8.69111e-19
2.47457e-18
7.97341e-18
2.58426e-17
8.3205e-17
2.64982e-16
8.37876e-16
2.61089e-15
7.98824e-15
2.44322e-14
7.50388e-14
2.20288e-13
6.29922e-13
1.73729e-12
4.7866e-12
1.30263e-11
3.31736e-11
7.67787e-11
1.56962e-10
2.75414e-10
4.0856e-10
5.2074e-10
5.96442e-10
6.45842e-10
6.83538e-10
7.44403e-10
8.50619e-10
1.07301e-09
1.59406e-09
2.8398e-09
5.99801e-09
1.41563e-08
3.09081e-08
5.07884e-08
4.48994e-08
2.7596e-08
1.52891e-08
8.48043e-09
5.45656e-09
4.46368e-09
4.44267e-09
4.87402e-09
5.64421e-09
6.34828e-09
5.82235e-09
3.71774e-09
1.61976e-09
7.27287e-10
3.39198e-10
1.63691e-10
8.06367e-11
4.10677e-11
2.14166e-11
1.14106e-11
6.05569e-12
3.2822e-12
1.77458e-12
9.4913e-13
4.98436e-13
2.55512e-13
1.25252e-13
6.03619e-14
2.88747e-14
1.6407e-14
1.55285e-14
2.63818e-14
5.45658e-14
8.25924e-14
4.36901e-14
1.07205e-14
1.59344e-15
2.38593e-21
8.56999e-21
2.25043e-20
2.97566e-20
1.78631e-20
1.54953e-20
1.0949e-20
2.89118e-20
8.82252e-21
1.22677e-21
2.34253e-21
1.59365e-21
1.00748e-20
1.62551e-20
1.9988e-20
3.93565e-20
2.98393e-20
2.38492e-20
2.44627e-20
5.14801e-21
5.19217e-20
2.79896e-20
2.04323e-20
3.99316e-20
6.48483e-20
6.06152e-20
3.79839e-20
2.72333e-20
1.91808e-19
8.39259e-19
2.49059e-18
8.03328e-18
2.62974e-17
8.31136e-17
2.6389e-16
8.29205e-16
2.57167e-15
7.88368e-15
2.45226e-14
7.49676e-14
2.19738e-13
6.26604e-13
1.75239e-12
4.83643e-12
1.31982e-11
3.35179e-11
7.73889e-11
1.57857e-10
2.76412e-10
4.09369e-10
5.21192e-10
5.96684e-10
6.4599e-10
6.83634e-10
7.44696e-10
8.50782e-10
1.07219e-09
1.59064e-09
2.82859e-09
5.96286e-09
1.40556e-08
3.07006e-08
5.06634e-08
4.51163e-08
2.77875e-08
1.54141e-08
8.54361e-09
5.48258e-09
4.47086e-09
4.44122e-09
4.86853e-09
5.6348e-09
6.34632e-09
5.84032e-09
3.74641e-09
1.63454e-09
7.3357e-10
3.4199e-10
1.64988e-10
8.12322e-11
4.13602e-11
2.15648e-11
1.14877e-11
6.09463e-12
3.30307e-12
1.78584e-12
9.55184e-13
5.01654e-13
2.57199e-13
1.26074e-13
6.07658e-14
2.90579e-14
1.64956e-14
1.55824e-14
2.6439e-14
5.47158e-14
8.29044e-14
4.4031e-14
1.08071e-14
1.60643e-15
1.71902e-21
4.73032e-22
3.7506e-21
7.03624e-21
4.97425e-21
8.84832e-21
6.87185e-21
1.57888e-20
1.10359e-20
1.25262e-20
6.79973e-21
8.72333e-21
1.42103e-20
3.99843e-21
1.62704e-20
1.39977e-20
2.81444e-21
2.31582e-21
9.23201e-21
2.93857e-20
2.34314e-20
3.23194e-21
9.86976e-21
5.341e-20
5.33063e-20
9.51248e-20
1.60564e-20
1.51112e-19
2.41074e-19
6.30922e-19
2.51264e-18
8.16872e-18
2.6701e-17
8.52255e-17
2.72926e-16
8.5022e-16
2.66314e-15
8.07982e-15
2.57406e-14
7.76827e-14
2.23196e-13
6.37359e-13
1.75013e-12
4.92071e-12
1.3288e-11
3.37249e-11
7.77864e-11
1.58446e-10
2.77062e-10
4.09879e-10
5.21484e-10
5.96842e-10
6.46101e-10
6.83721e-10
7.44915e-10
8.50953e-10
1.07189e-09
1.58905e-09
2.82307e-09
5.94479e-09
1.40018e-08
3.05912e-08
5.0596e-08
4.52258e-08
2.78869e-08
1.5479e-08
8.57635e-09
5.49626e-09
4.47447e-09
4.44015e-09
4.86483e-09
5.62958e-09
6.34502e-09
5.84964e-09
3.76154e-09
1.64243e-09
7.36918e-10
3.43476e-10
1.65678e-10
8.15489e-11
4.15159e-11
2.16437e-11
1.1529e-11
6.1155e-12
3.31429e-12
1.7919e-12
9.58449e-13
5.03393e-13
2.5811e-13
1.26518e-13
6.0984e-14
2.91567e-14
1.65435e-14
1.56118e-14
2.64714e-14
5.47934e-14
8.3067e-14
4.42137e-14
1.08535e-14
1.61341e-15
4.24239e-22
1.36849e-20
9.69531e-21
1.47069e-20
9.73023e-21
1.3665e-20
8.72349e-21
2.505e-20
8.84947e-21
2.08192e-21
2.33914e-20
2.13578e-20
2.31842e-20
7.33324e-21
1.32986e-20
2.07617e-20
4.65232e-21
1.61357e-20
1.70845e-20
3.05021e-20
3.172e-20
1.95195e-20
1.45155e-20
2.28541e-20
3.17625e-20
4.61511e-21
1.45977e-20
3.51614e-20
2.14631e-19
8.10096e-19
2.68098e-18
8.60576e-18
2.82416e-17
9.16437e-17
2.90016e-16
8.9843e-16
2.7615e-15
8.1806e-15
2.5954e-14
7.70634e-14
2.27643e-13
6.44544e-13
1.79165e-12
4.92612e-12
1.33413e-11
3.38515e-11
7.80217e-11
1.588e-10
2.77466e-10
4.10217e-10
5.21703e-10
5.96974e-10
6.46202e-10
6.83815e-10
7.45122e-10
8.51195e-10
1.07208e-09
1.58904e-09
2.82232e-09
5.94151e-09
1.39911e-08
3.05677e-08
5.05804e-08
4.5247e-08
2.79063e-08
1.54915e-08
8.58244e-09
5.49868e-09
4.47506e-09
4.43992e-09
4.86421e-09
5.62866e-09
6.34479e-09
5.85107e-09
3.76388e-09
1.64365e-09
7.37429e-10
3.43699e-10
1.65779e-10
8.1595e-11
4.15381e-11
2.16548e-11
1.15347e-11
6.11839e-12
3.31584e-12
1.79274e-12
9.58895e-13
5.0363e-13
2.58234e-13
1.26577e-13
6.10128e-14
2.91698e-14
1.65494e-14
1.56149e-14
2.64741e-14
5.48071e-14
8.3094e-14
4.42373e-14
1.08594e-14
1.61428e-15
1.38555e-21
3.60646e-21
1.71877e-20
1.87618e-20
1.14269e-20
3.01002e-21
5.69447e-22
4.42727e-21
1.81712e-20
1.72284e-20
2.52014e-21
9.6894e-21
1.49627e-21
5.97818e-21
1.55821e-20
1.24693e-20
2.5626e-20
1.66152e-20
2.53819e-21
6.88413e-21
1.4671e-20
6.60888e-21
1.14224e-20
3.55972e-21
4.98093e-20
1.53572e-20
5.05945e-20
7.88144e-20
3.07168e-19
8.99094e-19
2.79042e-18
8.86921e-18
2.87415e-17
9.28197e-17
2.97493e-16
9.17275e-16
2.80972e-15
8.33333e-15
2.61727e-14
7.76227e-14
2.28918e-13
6.3735e-13
1.81515e-12
4.94278e-12
1.33394e-11
3.39047e-11
7.81213e-11
1.58957e-10
2.77669e-10
4.10417e-10
5.21861e-10
5.97091e-10
6.46301e-10
6.83928e-10
7.45338e-10
8.51584e-10
1.07303e-09
1.59132e-09
2.82815e-09
5.95758e-09
1.40342e-08
3.06524e-08
5.06292e-08
4.5159e-08
2.78285e-08
1.54411e-08
8.5569e-09
5.488e-09
4.47203e-09
4.4404e-09
4.86673e-09
5.63229e-09
6.34552e-09
5.84404e-09
3.75261e-09
1.6378e-09
7.34938e-10
3.4259e-10
1.65263e-10
8.1358e-11
4.14216e-11
2.15958e-11
1.15039e-11
6.10282e-12
3.30747e-12
1.78821e-12
9.56457e-13
5.02329e-13
2.5755e-13
1.26245e-13
6.08488e-14
2.90958e-14
1.6515e-14
1.55968e-14
2.64594e-14
5.47561e-14
8.2977e-14
4.40925e-14
1.08224e-14
1.60873e-15
2.86013e-22
2.25728e-22
2.67085e-21
3.70904e-21
7.67359e-21
7.73184e-21
1.48779e-21
1.42674e-20
7.77339e-21
4.73898e-21
7.98945e-22
5.93712e-21
1.61843e-21
2.41029e-20
2.21462e-20
4.13711e-20
5.12145e-20
1.57142e-20
1.04149e-20
2.47823e-20
3.21152e-20
4.85349e-20
2.09826e-20
6.23264e-20
5.44763e-20
3.94091e-20
4.0514e-20
7.07954e-20
3.14666e-19
1.00015e-18
2.70921e-18
8.31236e-18
2.72961e-17
8.53015e-17
2.60636e-16
8.24537e-16
2.60231e-15
7.83375e-15
2.48376e-14
7.81585e-14
2.21569e-13
6.43232e-13
1.76098e-12
4.95728e-12
1.33372e-11
3.38633e-11
7.80535e-11
1.58884e-10
2.77635e-10
4.1045e-10
5.2194e-10
5.97174e-10
6.46384e-10
6.84047e-10
7.45561e-10
8.52124e-10
1.07475e-09
1.59587e-09
2.8404e-09
5.99221e-09
1.41289e-08
3.08403e-08
5.07363e-08
4.49652e-08
2.7658e-08
1.53312e-08
8.50177e-09
5.46502e-09
4.46561e-09
4.44144e-09
4.87152e-09
5.64015e-09
6.34705e-09
5.82873e-09
3.7282e-09
1.62521e-09
7.29578e-10
3.40206e-10
1.64155e-10
8.08492e-11
4.11715e-11
2.14693e-11
1.14379e-11
6.06949e-12
3.28958e-12
1.77855e-12
9.51249e-13
4.99553e-13
2.56091e-13
1.25533e-13
6.04988e-14
2.89382e-14
1.6441e-14
1.55575e-14
2.64285e-14
5.46469e-14
8.27273e-14
4.37894e-14
1.07451e-14
1.5971e-15
8.28851e-21
1.39981e-20
6.29725e-21
1.01358e-20
8.75018e-21
7.14812e-21
6.18524e-21
2.76845e-21
5.64165e-22
4.97216e-21
7.59466e-22
3.36113e-21
5.9936e-21
6.1623e-21
1.47711e-21
1.41745e-20
2.3768e-20
2.82099e-20
2.94664e-20
4.0523e-20
1.51716e-20
1.15996e-20
3.14597e-20
3.3348e-20
4.497e-20
9.70773e-20
9.8363e-20
3.39495e-20
2.93074e-19
8.69779e-19
2.63431e-18
8.10607e-18
2.62779e-17
8.24365e-17
2.60234e-16
8.1856e-16
2.56235e-15
7.84061e-15
2.50713e-14
7.76057e-14
2.23879e-13
6.30407e-13
1.75196e-12
4.95597e-12
1.32763e-11
3.37284e-11
7.78357e-11
1.58608e-10
2.77399e-10
4.1035e-10
5.21965e-10
5.97244e-10
6.46466e-10
6.84189e-10
7.45817e-10
8.52861e-10
1.07737e-09
1.60306e-09
2.86019e-09
6.04887e-09
1.42832e-08
3.11436e-08
5.09002e-08
4.4654e-08
2.73891e-08
1.51595e-08
8.41587e-09
5.42939e-09
4.4556e-09
4.44302e-09
4.8789e-09
5.65189e-09
6.34906e-09
5.80494e-09
3.69104e-09
1.6063e-09
7.21537e-10
3.36632e-10
1.62493e-10
8.00868e-11
4.07966e-11
2.12791e-11
1.13388e-11
6.01944e-12
3.26272e-12
1.76404e-12
9.43437e-13
4.95391e-13
2.53907e-13
1.24469e-13
5.99752e-14
2.87013e-14
1.63281e-14
1.54926e-14
2.63656e-14
5.44744e-14
8.23476e-14
4.33409e-14
1.06308e-14
1.57993e-15
4.22641e-21
2.90783e-21
1.22071e-20
1.61678e-20
1.20865e-20
4.62411e-21
4.12975e-21
1.5549e-20
4.77908e-21
1.11545e-21
1.30542e-20
1.37725e-20
1.76351e-20
2.55536e-20
1.77277e-20
2.36691e-20
3.27107e-20
3.46264e-20
2.87373e-20
4.07114e-20
6.18516e-20
7.37363e-21
1.41042e-21
8.41328e-21
4.05433e-20
6.47324e-20
6.9931e-20
9.92162e-20
2.705e-19
7.60688e-19
2.52174e-18
8.32859e-18
2.63519e-17
8.37961e-17
2.66934e-16
8.34504e-16
2.60767e-15
7.90128e-15
2.42888e-14
7.43384e-14
2.21806e-13
6.25767e-13
1.72059e-12
4.88901e-12
1.31838e-11
3.35161e-11
7.74505e-11
1.58067e-10
2.76866e-10
4.10033e-10
5.21879e-10
5.97264e-10
6.46522e-10
6.8433e-10
7.46051e-10
8.53697e-10
1.08064e-09
1.61233e-09
2.88621e-09
6.12425e-09
1.44903e-08
3.15511e-08
5.11058e-08
4.42255e-08
2.70297e-08
1.49329e-08
8.30283e-09
5.38195e-09
4.44168e-09
4.4445e-09
4.88818e-09
5.66707e-09
6.35121e-09
5.77404e-09
3.64319e-09
1.58226e-09
7.11296e-10
3.3207e-10
1.60369e-10
7.91112e-11
4.0315e-11
2.10362e-11
1.12122e-11
5.95541e-12
3.22835e-12
1.74548e-12
9.33444e-13
4.90068e-13
2.51113e-13
1.23109e-13
5.93063e-14
2.8398e-14
1.6183e-14
1.5407e-14
2.62797e-14
5.42404e-14
8.18463e-14
4.27704e-14
1.04856e-14
1.55812e-15
3.67608e-23
4.3759e-22
1.10416e-20
8.42711e-21
7.14311e-21
6.62137e-21
2.20488e-20
9.9277e-21
6.84322e-21
6.43935e-21
8.19016e-21
1.25188e-20
3.09466e-20
2.51012e-20
3.53479e-21
1.17956e-20
1.18654e-20
3.42123e-21
2.23542e-21
2.40092e-20
5.16268e-21
4.91808e-20
9.11953e-21
7.00559e-20
7.2236e-20
8.72666e-20
8.95526e-20
1.58651e-19
2.23733e-19
7.87786e-19
2.41862e-18
7.74684e-18
2.54775e-17
8.24805e-17
2.56787e-16
8.25508e-16
2.54915e-15
7.71505e-15
2.398e-14
7.46337e-14
2.1387e-13
6.3033e-13
1.73636e-12
4.81712e-12
1.29904e-11
3.3163e-11
7.68567e-11
1.57229e-10
2.76014e-10
4.09449e-10
5.21639e-10
5.97205e-10
6.46531e-10
6.84458e-10
7.46181e-10
8.5455e-10
1.0844e-09
1.62324e-09
2.91714e-09
6.21404e-09
1.47349e-08
3.20198e-08
5.13143e-08
4.37342e-08
2.66099e-08
1.4665e-08
8.16604e-09
5.3215e-09
4.41308e-09