/*--------------------------------*- C++ -*----------------------------------*\
  =========                 |
  \\      /  F ield         | OpenFOAM: The Open Source CFD Toolbox
   \\    /   O peration     | Website:  https://openfoam.org
    \\  /    A nd           | Version:  10
     \\/     M anipulation  |
\*---------------------------------------------------------------------------*/
FoamFile
{
    format      ascii;
    class       volScalarField;
    location    "1";
    object      SXC12H25;
}
// * * * * * * * * * * * * * * * * * * * * * * * * * * * * * * * * * * * * * //

dimensions      [0 0 0 0 0 0 0];

internalField   nonuniform List<scalar> 
4000
(
2.52773e-22
2.90295e-21
3.37576e-21
1.20071e-21
3.11109e-21
2.99923e-21
3.70065e-21
4.25658e-21
3.67144e-21
4.71355e-21
5.78034e-21
4.22493e-21
6.94923e-21
6.34785e-21
8.23002e-21
1.50015e-20
1.37261e-20
8.40501e-21
9.67284e-21
1.11757e-20
4.70056e-21
8.20473e-21
3.72796e-21
8.58264e-21
3.07346e-20
8.39979e-21
3.78995e-20
3.19634e-20
7.46354e-20
2.47986e-19
6.81064e-19
1.89834e-18
6.33837e-18
2.08193e-17
6.62221e-17
2.05172e-16
6.47166e-16
2.07576e-15
6.47511e-15
1.99075e-14
5.86456e-14
1.68296e-13
4.67039e-13
1.24578e-12
3.17404e-12
8.20874e-12
2.0537e-11
4.71049e-11
9.53019e-11
1.64112e-10
2.37298e-10
2.96424e-10
3.34671e-10
3.70749e-10
4.17932e-10
4.99869e-10
6.5762e-10
1.01732e-09
1.90074e-09
4.28535e-09
1.07688e-08
2.42113e-08
3.75638e-08
3.11059e-08
2.20861e-08
1.4308e-08
9.26499e-09
7.06863e-09
6.63781e-09
7.10145e-09
8.10888e-09
9.48389e-09
9.96894e-09
7.99886e-09
4.35076e-09
1.91126e-09
8.71039e-10
4.11346e-10
2.00474e-10
1.00262e-10
5.15195e-11
2.70807e-11
1.45092e-11
7.88795e-12
4.32274e-12
2.36804e-12
1.2863e-12
6.876e-13
3.59197e-13
1.82287e-13
8.96957e-14
4.20051e-14
2.07511e-14
1.34841e-14
1.62717e-14
3.20033e-14
5.35442e-14
5.38194e-14
1.37873e-14
2.07966e-15
2.68188e-21
1.04464e-20
2.31904e-21
1.46871e-20
1.7306e-20
9.82573e-21
8.33361e-21
1.74986e-21
1.77132e-21
1.28613e-20
6.11817e-21
2.05581e-21
9.50736e-21
6.47837e-21
6.25224e-21
1.18844e-20
1.94985e-20
1.91982e-20
2.95882e-20
3.74495e-20
2.89966e-20
7.60488e-21
2.86949e-20
2.06642e-20
5.50585e-20
4.54146e-20
1.6351e-20
6.38938e-20
5.51799e-20
2.36176e-19
8.08834e-19
2.42742e-18
8.17129e-18
2.69889e-17
8.64789e-17
2.73776e-16
8.79633e-16
2.73317e-15
8.47728e-15
2.55391e-14
7.5575e-14
2.14484e-13
5.95723e-13
1.58117e-12
4.16875e-12
1.0826e-11
2.63688e-11
5.81055e-11
1.12346e-10
1.84765e-10
2.50832e-10
3.00471e-10
3.40374e-10
3.76333e-10
4.26135e-10
5.16798e-10
6.83457e-10
1.06068e-09
1.981e-09
4.39536e-09
1.0888e-08
2.41872e-08
3.74677e-08
3.13429e-08
2.24011e-08
1.463e-08
9.47201e-09
7.1427e-09
6.64449e-09
7.07735e-09
8.06313e-09
9.44796e-09
1.00267e-08
8.15967e-09
4.48984e-09
1.96803e-09
8.9484e-10
4.21682e-10
2.05125e-10
1.02409e-10
5.25124e-11
2.75618e-11
1.47497e-11
8.00432e-12
4.37617e-12
2.39112e-12
1.29514e-12
6.90128e-13
3.59244e-13
1.81569e-13
8.89548e-14
4.15432e-14
2.06204e-14
1.37765e-14
1.72846e-14
3.43701e-14
5.56538e-14
5.03773e-14
1.28032e-14
1.92534e-15
1.48765e-20
2.00745e-21
1.82473e-21
8.83578e-21
3.48369e-20
1.40295e-20
2.48896e-21
1.39527e-21
2.16698e-20
1.3108e-20
1.69409e-20
1.03634e-20
2.67366e-21
9.34852e-21
5.67062e-21
1.34011e-20
1.00034e-20
1.10076e-20
2.38491e-20
1.46972e-20
2.01515e-20
3.58792e-21
2.81959e-21
1.51961e-20
3.24581e-20
7.43553e-20
5.34299e-20
6.19779e-20
1.32089e-19
3.56675e-19
1.05903e-18
3.12214e-18
1.01403e-17
3.33708e-17
1.09979e-16
3.50634e-16
1.09881e-15
3.41599e-15
1.04855e-14
3.11958e-14
9.11082e-14
2.48455e-13
7.18573e-13
1.87295e-12
5.0698e-12
1.2794e-11
3.08564e-11
6.64231e-11
1.22879e-10
1.95591e-10
2.59629e-10
3.07358e-10
3.45709e-10
3.83467e-10
4.35562e-10
5.25572e-10
6.95992e-10
1.08351e-09
2.02453e-09
4.48892e-09
1.10211e-08
2.42406e-08
3.74006e-08
3.15396e-08
2.26608e-08
1.49121e-08
9.66791e-09
7.23669e-09
6.66446e-09
7.06443e-09
8.03044e-09
9.41522e-09
1.00787e-08
8.32105e-09
4.64367e-09
2.03209e-09
9.21878e-10
4.33511e-10
2.10498e-10
1.04938e-10
5.37737e-11
2.81867e-11
1.50583e-11
8.14676e-12
4.44133e-12
2.41928e-12
1.30595e-12
6.93288e-13
3.59305e-13
1.80492e-13
8.78922e-14
4.09256e-14
2.04681e-14
1.41836e-14
1.86294e-14
3.73066e-14
5.82336e-14
4.67109e-14
1.17624e-14
1.76385e-15
6.2059e-21
8.98789e-22
2.68622e-21
1.23815e-20
1.31326e-20
1.90773e-20
2.08992e-20
6.01073e-21
6.01964e-21
1.14006e-20
2.31282e-20
2.4904e-20
1.39573e-20
1.41037e-20
1.82769e-20
1.31819e-20
2.10674e-20
1.19814e-20
2.58348e-20
2.14798e-20
5.7788e-21
1.8316e-20
5.99474e-20
2.3618e-20
3.91195e-20
4.8474e-20
1.38877e-20
2.31124e-20
1.34688e-19
3.87298e-19
1.14071e-18
3.93669e-18
1.29315e-17
4.23181e-17
1.37284e-16
4.37134e-16
1.36015e-15
4.23991e-15
1.27004e-14
3.85211e-14
1.11608e-13
3.11179e-13
8.68854e-13
2.25934e-12
5.83059e-12
1.49264e-11
3.51954e-11
7.32937e-11
1.34511e-10
2.01692e-10
2.6354e-10
3.14437e-10
3.52108e-10
3.89869e-10
4.44796e-10
5.31813e-10
7.09012e-10
1.10792e-09
2.07457e-09
4.56582e-09
1.11081e-08
2.42263e-08
3.73305e-08
3.17129e-08
2.28846e-08
1.51627e-08
9.85553e-09
7.3223e-09
6.6865e-09
7.05679e-09
8.00178e-09
9.38386e-09
1.01221e-08
8.45708e-09
4.79521e-09
2.07524e-09
9.42264e-10
4.43401e-10
2.15403e-10
1.07397e-10
5.50058e-11
2.88252e-11
1.54296e-11
8.2251e-12
4.48396e-12
2.43996e-12
1.31471e-12
6.96435e-13
3.60684e-13
1.78294e-13
8.65141e-14
4.03045e-14
2.03741e-14
1.47048e-14
2.02307e-14
4.04541e-14
6.1158e-14
4.33096e-14
1.08198e-14
1.61829e-15
4.39482e-21
6.58942e-21
5.16187e-21
6.41233e-21
4.80061e-21
2.11289e-21
1.49563e-20
2.90728e-21
7.60679e-22
7.8691e-21
7.2126e-21
7.51429e-21
1.52949e-21
8.82719e-21
1.13852e-20
5.3339e-21
4.37464e-21
1.34289e-20
4.02951e-20
3.98148e-20
2.57733e-20
6.04048e-20
3.30239e-20
3.63604e-20
3.60461e-20
1.2399e-20
4.0872e-20
7.19209e-20
8.76064e-20
4.65179e-19
1.49609e-18
5.17165e-18
1.66127e-17
5.37206e-17
1.72173e-16
5.43508e-16
1.68075e-15
5.06906e-15
1.55689e-14
4.60851e-14
1.32038e-13
3.68155e-13
9.88815e-13
2.63663e-12
6.72184e-12
1.69511e-11
3.88415e-11
8.07786e-11
1.38884e-10
2.04758e-10
2.70883e-10
3.19437e-10
3.56857e-10
3.97126e-10
4.49018e-10
5.38959e-10
7.22194e-10
1.12973e-09
2.11105e-09
4.63803e-09
1.12076e-08
2.42741e-08
3.7297e-08
3.18443e-08
2.30687e-08
1.53952e-08
1.00161e-08
7.3976e-09
6.7089e-09
7.05642e-09
7.98653e-09
9.36795e-09
1.01618e-08
8.57832e-09
4.91707e-09
2.12505e-09
9.63343e-10
4.52977e-10
2.19858e-10
1.09507e-10
5.60504e-11
2.93574e-11
1.57044e-11
8.3646e-12
4.55095e-12
2.47095e-12
1.32803e-12
7.014e-13
3.61944e-13
1.78293e-13
8.61253e-14
4.01148e-14
2.04753e-14
1.53224e-14
2.19063e-14
4.35824e-14
6.43084e-14
4.09832e-14
1.01653e-14
1.51677e-15
9.5286e-22
1.05827e-21
4.45885e-22
7.96211e-21
8.0514e-21
7.15276e-21
1.10305e-20
1.38407e-20
7.74937e-21
1.06824e-21
7.9238e-22
9.38126e-21
1.48542e-20
7.48024e-21
1.69625e-20
2.03362e-20
1.69089e-20
2.01765e-20
1.59903e-20
1.45195e-20
4.82772e-20
4.07746e-20
6.74027e-20
3.71732e-20
3.19464e-20
6.9522e-21
4.59526e-20
6.91282e-20
1.85724e-19
5.75171e-19
1.79932e-18
6.29166e-18
2.0272e-17
6.58913e-17
2.06321e-16
6.56478e-16
1.99957e-15
5.89892e-15
1.84284e-14
5.58808e-14
1.56073e-13
4.24749e-13
1.14132e-12
2.9915e-12
7.69027e-12
1.87561e-11
4.34639e-11
8.38669e-11
1.41889e-10
2.12494e-10
2.76792e-10
3.23743e-10
3.6006e-10
4.01019e-10
4.54749e-10
5.4695e-10
7.32979e-10
1.15108e-09
2.14556e-09
4.69307e-09
1.12697e-08
2.42681e-08
3.72618e-08
3.19819e-08
2.32266e-08
1.55537e-08
1.01389e-08
7.46643e-09
6.7344e-09
7.06004e-09
7.97652e-09
9.35432e-09
1.01905e-08
8.66172e-09
5.00139e-09
2.16167e-09
9.79502e-10
4.60307e-10
2.23333e-10
1.11232e-10
5.69183e-11
2.98056e-11
1.59349e-11
8.49019e-12
4.61498e-12
2.50236e-12
1.34252e-12
7.07454e-13
3.64018e-13
1.7896e-13
8.61607e-14
4.01702e-14
2.06843e-14
1.59454e-14
2.34725e-14
4.64078e-14
6.7325e-14
3.95959e-14
9.76499e-15
1.45415e-15
7.11589e-22
8.041e-21
1.21511e-21
5.77499e-21
5.19274e-21
6.16784e-21
8.92568e-22
3.16937e-22
1.24112e-21
4.29054e-21
1.18408e-20
8.07594e-21
1.41716e-20
2.031e-20
1.82955e-20
1.83106e-20
6.44255e-21
2.00774e-20
2.3889e-20
1.6522e-20
3.01739e-20
4.05211e-20
5.3219e-21
2.78216e-21
5.31865e-20
7.06597e-20
3.66146e-20
7.81657e-20
1.92599e-19
7.70214e-19
2.33112e-18
7.47808e-18
2.45521e-17
7.90669e-17
2.47801e-16
7.80472e-16
2.42421e-15
7.11718e-15
2.21109e-14
6.4283e-14
1.8026e-13
4.93365e-13
1.30127e-12
3.37637e-12
8.46586e-12
2.06893e-11
4.58738e-11
8.48227e-11
1.47492e-10
2.19075e-10
2.81068e-10
3.26296e-10
3.62244e-10
4.03704e-10
4.58621e-10
5.53154e-10
7.4198e-10
1.16534e-09
2.17118e-09
4.73178e-09
1.12973e-08
2.4226e-08
3.72235e-08
3.21235e-08
2.33846e-08
1.57096e-08
1.02469e-08
7.5239e-09
6.75324e-09
7.06098e-09
7.96578e-09
9.34038e-09
1.02136e-08
8.74073e-09
5.08497e-09
2.19683e-09
9.9525e-10
4.67522e-10
2.26774e-10
1.12908e-10
5.77641e-11
3.02414e-11
1.61615e-11
8.61353e-12
4.67903e-12
2.53476e-12
1.35823e-12
7.14583e-13
3.6692e-13
1.80155e-13
8.65318e-14
4.03942e-14
2.09538e-14
1.65316e-14
2.48671e-14
4.88585e-14
7.00414e-14
3.88861e-14
9.54877e-15
1.41986e-15
9.25648e-22
7.30141e-22
6.65934e-21
1.30411e-20
6.9434e-21
6.11704e-21
8.03554e-21
9.4042e-21
6.37865e-21
7.785e-21
1.28795e-21
7.45765e-21
6.96002e-21
7.41742e-21
5.33642e-21
1.38974e-20
3.37051e-20
9.38256e-21
8.53014e-21
2.61961e-20
2.50651e-20
3.33109e-20
4.15769e-21
1.63361e-21
2.95512e-20
7.36008e-20
7.70671e-20
1.45864e-19
3.22582e-19
8.20437e-19
2.80544e-18
9.25794e-18
2.98533e-17
9.37117e-17
2.90528e-16
9.03366e-16
2.79035e-15
8.09217e-15
2.47009e-14
7.30344e-14
2.03984e-13
5.50274e-13
1.47054e-12
3.76119e-12
9.42664e-12
2.2647e-11
4.71428e-11
8.95377e-11
1.53474e-10
2.24449e-10
2.85115e-10
3.28757e-10
3.64286e-10
4.06189e-10
4.62082e-10
5.58082e-10
7.49354e-10
1.177e-09
2.18849e-09
4.74989e-09
1.12815e-08
2.41225e-08
3.71689e-08
3.22798e-08
2.35533e-08
1.58999e-08
1.03668e-08
7.58281e-09
6.77058e-09
7.05979e-09
7.9523e-09
9.32295e-09
1.02339e-08
8.82202e-09
5.17554e-09
2.23524e-09
1.01191e-09
4.75138e-10
2.30403e-10
1.14649e-10
5.86416e-11
3.06938e-11
1.63979e-11
8.74089e-12
4.74606e-12
2.56945e-12
1.37565e-12
7.22956e-13
3.70687e-13
1.81851e-13
8.72069e-14
4.07525e-14
2.12582e-14
1.7052e-14
2.60293e-14
5.09117e-14
7.24185e-14
3.86494e-14
9.46178e-15
1.40547e-15
2.02574e-21
1.382e-21
5.92148e-21
1.85374e-20
1.92481e-20
9.84277e-21
6.26446e-21
2.19726e-21
7.46445e-21
5.69501e-21
8.34591e-22
3.63281e-21
6.72314e-22
4.75062e-22
6.623e-21
3.02853e-21
4.57646e-21
2.68306e-20
4.03185e-20
2.10985e-20
5.0715e-21
9.31784e-21
1.30965e-20
4.10485e-21
1.04179e-20
2.55539e-20
3.18303e-20
1.30135e-19
2.75773e-19
9.14309e-19
3.24684e-18
1.08413e-17
3.45263e-17
1.09229e-16
3.40611e-16
1.0435e-15
3.18464e-15
9.11025e-15
2.76442e-14
8.0532e-14
2.26009e-13
6.14775e-13
1.6231e-12
4.17166e-12
9.92441e-12
2.21846e-11
4.87908e-11
9.46388e-11
1.59101e-10
2.29672e-10
2.88181e-10
3.30594e-10
3.65911e-10
4.08245e-10
4.64748e-10
5.61793e-10
7.54792e-10
1.18481e-09
2.19745e-09
4.74697e-09
1.12147e-08
2.39133e-08
3.70761e-08
3.25389e-08
2.37992e-08
1.61014e-08
1.05136e-08
7.64711e-09
6.78811e-09
7.05373e-09
7.92929e-09
9.29368e-09
1.02492e-08
8.90772e-09
5.27444e-09
2.2772e-09
1.03005e-09
4.834e-10
2.34363e-10
1.16531e-10
5.95885e-11
3.1181e-11
1.66532e-11
8.87622e-12
4.81777e-12
2.60707e-12
1.39499e-12
7.32588e-13
3.75279e-13
1.83993e-13
8.81449e-14
4.12228e-14
2.15895e-14
1.75168e-14
2.70051e-14
5.26125e-14
7.44574e-14
3.87462e-14
9.46638e-15
1.40519e-15
3.45416e-21
6.96634e-21
7.96062e-21
7.22037e-21
2.95653e-21
3.79335e-21
6.26846e-22
3.29762e-21
8.197e-21
1.09122e-20
2.67843e-21
8.49736e-21
1.70889e-20
9.72656e-21
2.82852e-20
4.00611e-20
3.35322e-20
1.84411e-20
3.88666e-20
5.03074e-20
4.80386e-20
4.11047e-20
2.8263e-20
1.71473e-20
5.18252e-20
9.0879e-21
6.14631e-20
1.24102e-19
3.49784e-19
1.2846e-18
4.00238e-18
1.26461e-17
3.9687e-17
1.23678e-16
3.79875e-16
1.15099e-15
3.44231e-15
1.0012e-14
3.08519e-14
8.82237e-14
2.425e-13
6.56832e-13
1.72535e-12
4.28015e-12
1.0066e-11
2.39922e-11
5.17345e-11
9.89469e-11
1.64619e-10
2.33984e-10
2.90826e-10
3.32226e-10
3.67332e-10
4.09648e-10
4.66669e-10
5.64806e-10
7.58632e-10
1.1892e-09
2.19869e-09
4.72943e-09
1.1127e-08
2.36962e-08
3.69625e-08
3.27966e-08
2.40509e-08
1.6347e-08
1.06708e-08
7.71491e-09
6.80271e-09
7.04077e-09
7.89129e-09
9.26097e-09
1.02602e-08
8.99522e-09
5.38986e-09
2.32759e-09
1.05205e-09
4.93364e-10
2.38995e-10
1.18668e-10
6.06432e-11
3.17162e-11
1.69315e-11
9.02077e-12
4.89394e-12
2.64738e-12
1.41601e-12
7.43289e-13
3.80556e-13
1.86496e-13
8.92916e-14
4.17761e-14
2.19295e-14
1.79081e-14
2.77603e-14
5.39757e-14
7.61801e-14
3.90759e-14
9.5355e-15
1.41487e-15
8.13834e-22
7.39657e-21
6.41002e-21
6.49918e-21
4.29118e-21
4.27737e-21
3.38477e-21
8.29099e-22
6.74183e-21
3.40486e-21
4.70235e-22
1.4396e-21
1.87344e-21
1.70343e-20
1.0225e-20
1.47462e-20
1.95908e-20
1.19211e-20
2.04443e-20
4.63747e-20
4.88727e-20
3.5931e-20
8.64107e-21
2.90262e-20
6.9365e-20
7.07943e-20
1.24636e-19
1.89755e-19
5.1995e-19
1.52624e-18
4.64338e-18
1.43528e-17
4.41419e-17
1.38246e-16
4.20113e-16
1.26639e-15
3.77805e-15
1.10352e-14
3.36093e-14
9.4874e-14
2.59343e-13
6.91215e-13
1.77627e-12
4.37889e-12
1.08966e-11
2.55758e-11
5.46541e-11
1.03721e-10
1.69896e-10
2.38537e-10
2.94076e-10
3.34657e-10
3.70146e-10
4.10269e-10
4.68181e-10
5.67019e-10
7.60915e-10
1.19034e-09
2.19238e-09
4.68751e-09
1.09696e-08
2.33574e-08
3.68235e-08
3.3061e-08
2.43016e-08
1.65793e-08
1.08263e-08
7.79121e-09
6.82227e-09
7.03424e-09
7.868e-09
9.22966e-09
1.02702e-08
9.08837e-09
5.50643e-09
2.37696e-09
1.07337e-09
5.02879e-10
2.435e-10
1.20764e-10
6.16871e-11
3.22499e-11
1.72113e-11
9.16611e-12
4.9722e-12
2.68882e-12
1.43776e-12
7.54517e-13
3.86243e-13
1.89227e-13
9.05771e-14
4.23829e-14
2.22711e-14
1.82411e-14
2.83454e-14
5.50746e-14
7.76429e-14
3.9565e-14
9.64916e-15
1.43143e-15
1.7597e-21
9.79904e-22
1.01565e-20
1.05072e-20
5.8979e-21
6.1201e-21
5.5182e-21
1.91622e-20
9.22202e-21
1.60946e-20
5.63899e-21
1.37941e-20
1.07624e-20
1.55935e-20
1.32252e-20
1.3751e-20
1.49314e-20
1.67679e-20
5.63522e-21
7.15405e-21
1.02226e-20
1.55908e-20
3.68546e-20
3.58999e-20
1.03068e-20
5.13526e-20
8.23519e-20
1.84505e-19
5.31129e-19
1.56937e-18
4.78827e-18
1.55959e-17
4.92655e-17
1.51291e-16
4.74251e-16
1.41269e-15
4.13619e-15
1.19811e-14
3.54186e-14
1.02214e-13
2.76624e-13
7.31969e-13
1.87356e-12
4.6824e-12
1.15987e-11
2.70093e-11
5.72563e-11
1.07594e-10
1.74379e-10
2.42517e-10
2.97138e-10
3.37189e-10
3.72656e-10
4.1046e-10
4.69472e-10
5.68844e-10
7.62226e-10
1.18947e-09
2.1825e-09
4.64883e-09
1.08344e-08
2.30718e-08
3.66656e-08
3.3342e-08
2.45592e-08
1.68123e-08
1.09779e-08
7.86611e-09
6.84374e-09
7.02981e-09
7.84124e-09
9.19181e-09
1.02734e-08
9.17275e-09
5.61974e-09
2.42786e-09
1.09502e-09
5.12756e-10
2.48153e-10
1.22918e-10
6.27471e-11
3.27875e-11
1.74926e-11
9.31165e-12
5.05078e-12
2.73151e-12
1.46067e-12
7.66555e-13
3.92348e-13
1.92149e-13
9.19685e-14
4.30359e-14
2.26176e-14
1.85286e-14
2.87978e-14
5.59611e-14
7.88886e-14
4.01544e-14
9.79133e-15
1.45244e-15
7.82021e-22
5.86332e-22
1.18356e-20
8.32889e-21
1.20906e-20
9.52321e-21
9.96636e-21
7.75955e-21
8.38002e-21
1.85923e-20
9.45899e-21
1.6926e-21
1.05812e-20
8.30558e-21
6.96064e-21
2.3734e-20
2.17473e-20
1.31136e-20
1.59791e-20
2.10568e-20
5.11786e-20
3.39557e-20
3.00825e-20
2.55941e-20
5.21273e-20
9.4092e-20
1.19554e-19
2.45602e-19
5.59896e-19
1.71745e-18
5.34608e-18
1.71337e-17
5.3453e-17
1.66706e-16
5.05148e-16
1.50025e-15
4.37179e-15
1.26546e-14
3.74127e-14
1.08616e-13
2.95053e-13
7.83136e-13
1.98103e-12
5.03773e-12
1.21813e-11
2.82282e-11
5.94892e-11
1.10557e-10
1.77447e-10
2.44949e-10
2.98742e-10
3.38268e-10
3.7343e-10
4.10705e-10
4.71009e-10
5.70319e-10
7.62668e-10
1.18673e-09
2.16873e-09
4.59836e-09
1.06964e-08
2.27785e-08
3.64991e-08
3.36148e-08
2.4815e-08
1.70482e-08
1.11325e-08
7.9413e-09
6.86329e-09
7.02235e-09
7.81709e-09
9.15705e-09
1.02738e-08
9.25345e-09
5.73839e-09
2.48125e-09
1.11807e-09
5.22975e-10
2.52888e-10
1.25088e-10
6.38336e-11
3.33448e-11
1.77853e-11
9.46005e-12
5.13034e-12
2.77433e-12
1.48359e-12
7.78657e-13
3.98651e-13
1.95211e-13
9.34503e-14
4.37085e-14
2.29542e-14
1.87767e-14
2.91513e-14
5.67041e-14
8.00014e-14
4.0837e-14
9.95951e-15
1.47742e-15
3.07803e-22
8.07224e-21
1.90644e-21
7.83684e-21
6.50061e-21
2.39738e-21
1.22216e-20
9.00402e-21
6.53078e-21
8.22559e-21
8.45057e-21
1.35156e-20
2.09893e-20
2.80582e-20
4.22237e-20
4.47334e-20
2.99269e-20
2.58537e-20
3.85099e-20
1.39718e-20
8.36108e-20
4.76136e-20
1.88943e-20
6.47857e-21
3.84158e-21
1.54598e-20
9.61403e-20
2.37322e-19
5.44238e-19
1.79059e-18
5.68711e-18
1.82564e-17
5.6098e-17
1.75911e-16
5.29926e-16
1.57821e-15
4.62066e-15
1.30891e-14
3.94215e-14
1.14769e-13
3.07371e-13
8.09871e-13
2.08207e-12
5.3012e-12
1.26778e-11
2.92574e-11
6.10716e-11
1.12599e-10
1.79493e-10
2.46493e-10
2.99706e-10
3.38941e-10
3.73861e-10
4.10865e-10
4.72164e-10
5.71426e-10
7.62609e-10
1.18357e-09
2.15566e-09
4.54837e-09
1.05345e-08
2.24504e-08
3.6324e-08
3.38733e-08
2.50565e-08
1.72714e-08
1.12852e-08
8.01014e-09
6.88235e-09
7.01478e-09
7.79367e-09
9.12136e-09
1.02706e-08
9.32543e-09
5.84584e-09
2.53302e-09
1.14022e-09
5.32837e-10
2.57554e-10
1.2725e-10
6.48986e-11
3.38854e-11
1.80681e-11
9.60465e-12
5.20768e-12
2.81589e-12
1.50581e-12
7.90394e-13
4.04744e-13
1.9816e-13
9.48788e-14
4.43651e-14
2.32766e-14
1.8987e-14
2.9404e-14
5.7294e-14
8.09405e-14
4.15315e-14
1.01322e-14
1.50318e-15
3.90817e-21
2.54677e-21
7.11689e-22
9.71372e-21
6.35613e-21
3.67271e-21
5.2181e-21
7.98454e-22
3.26807e-21
1.80001e-20
1.73578e-20
2.64244e-20
2.93098e-20
3.03515e-20
2.04323e-20
2.25515e-20
2.72375e-20
3.95249e-20
3.6221e-20
3.10955e-20
3.84982e-21
1.02618e-21
4.66002e-21
6.67398e-22
8.75588e-22
7.04727e-21
5.6142e-20
1.60013e-19
5.92801e-19
1.88388e-18
5.92102e-18
1.899e-17
5.88285e-17
1.83889e-16
5.46644e-16
1.61102e-15
4.8442e-15
1.36653e-14
4.07939e-14
1.16682e-13
3.25998e-13
8.55492e-13
2.20096e-12
5.4119e-12
1.30703e-11
2.99774e-11
6.22295e-11
1.14107e-10
1.80996e-10
2.47626e-10
3.00419e-10
3.39347e-10
3.74122e-10
4.10956e-10
4.72945e-10
5.72067e-10
7.61844e-10
1.17922e-09
2.1397e-09
4.50024e-09
1.03909e-08
2.21538e-08
3.61409e-08
3.41119e-08
2.52833e-08
1.74828e-08
1.1431e-08
8.0865e-09
6.91925e-09
7.01375e-09
7.77428e-09
9.08935e-09
1.02664e-08
9.39181e-09
5.94571e-09
2.58198e-09
1.16111e-09
5.42218e-10
2.61916e-10
1.2925e-10
6.58821e-11
3.43832e-11
1.83276e-11
9.73625e-12
5.2782e-12
2.85386e-12
1.52617e-12
8.01172e-13
4.10357e-13
2.0088e-13
9.61971e-14
4.49643e-14
2.35659e-14
1.9168e-14
2.96135e-14
5.77579e-14
8.17083e-14
4.21851e-14
1.02961e-14
1.52767e-15
3.16778e-22
6.20543e-21
6.9647e-21
1.28676e-20
1.04665e-20
7.1608e-21
5.64438e-21
2.15396e-21
1.05935e-20
4.77478e-21
3.42829e-21
1.84325e-20
6.03236e-21
9.65818e-21
1.59147e-20
2.28271e-21
5.74111e-21
3.48239e-20
4.5457e-21
5.83393e-21
1.49461e-21
1.39583e-20
2.19725e-21
7.50299e-21
4.62737e-20
2.7895e-20
5.23319e-20
1.34354e-19
5.61039e-19
1.91939e-18
6.13926e-18
1.97328e-17
6.20466e-17
1.90893e-16
5.78105e-16
1.72835e-15
5.0605e-15
1.4902e-14
4.3024e-14
1.245e-13
3.35351e-13
8.68129e-13
2.24091e-12
5.51566e-12
1.33735e-11
3.05311e-11
6.30983e-11
1.15206e-10
1.82047e-10
2.48358e-10
3.00853e-10
3.39615e-10
3.7431e-10
4.11011e-10
4.73483e-10
5.72446e-10
7.60873e-10
1.1746e-09
2.12461e-09
4.45231e-09
1.02598e-08
2.18969e-08
3.59769e-08
3.43015e-08
2.54708e-08
1.76607e-08
1.15546e-08
8.14825e-09
6.93972e-09
7.00991e-09
7.75667e-09
9.06078e-09
1.02609e-08
9.4459e-09
6.03055e-09
2.62453e-09
1.17922e-09
5.50284e-10
2.6567e-10
1.30974e-10
6.67291e-11
3.48108e-11
1.85511e-11
9.84952e-12
5.33894e-12
2.8866e-12
1.54375e-12
8.10503e-13
4.15231e-13
2.03248e-13
9.73595e-14
4.54886e-14
2.38142e-14
1.93134e-14
2.97669e-14
5.8119e-14
8.23296e-14
4.2766e-14
1.04422e-14
1.54954e-15
3.19982e-21
5.94999e-21
8.98925e-21
3.8778e-21
8.45166e-21
1.2214e-20
1.11165e-20
1.41346e-20
1.73961e-20
8.90657e-21
1.07864e-20
7.41422e-21
1.20696e-20
1.08242e-20
1.89939e-20
1.29405e-20
1.31893e-20
1.22209e-20
1.92546e-20
2.80527e-20
3.52072e-20
5.67174e-21
4.16435e-20
1.26506e-20
1.50949e-20
7.11605e-20
9.35294e-20
2.04086e-19
6.49909e-19
2.14186e-18
6.53575e-18
2.08248e-17
6.45802e-17
1.98635e-16
6.01529e-16
1.8055e-15
5.31275e-15
1.53383e-14
4.38844e-14
1.25092e-13
3.3915e-13
8.89363e-13
2.23663e-12
5.57601e-12
1.36142e-11
3.09526e-11
6.37482e-11
1.16025e-10
1.82827e-10
2.48903e-10
3.01168e-10
3.39804e-10
3.74435e-10
4.11049e-10
4.7383e-10
5.7262e-10
7.59928e-10
1.17099e-09
2.11337e-09
4.41828e-09
1.01653e-08
2.16941e-08
3.58354e-08
3.44717e-08
2.56293e-08
1.78063e-08
1.16544e-08
8.19777e-09
6.95405e-09
7.0059e-09
7.74195e-09
9.03839e-09
1.02557e-08
9.48674e-09
6.09697e-09
2.65854e-09
1.1937e-09
5.56725e-10
2.68665e-10
1.32349e-10
6.74042e-11
3.51509e-11
1.87282e-11
9.93916e-12
5.38704e-12
2.91257e-12
1.55772e-12
8.17939e-13
4.19126e-13
2.05141e-13
9.8287e-14
4.59052e-14
2.40074e-14
1.94153e-14
2.98515e-14
5.83741e-14
8.27963e-14
4.32379e-14
1.05613e-14
1.56739e-15
2.95381e-21
8.39436e-21
1.76297e-20
1.78798e-20
9.8151e-21
8.466e-21
5.65153e-21
1.68969e-20
5.74131e-21
8.38781e-22
1.76811e-21
4.87224e-21
8.0565e-21
8.69431e-21
1.51796e-20
1.43708e-20
1.60599e-20
6.65542e-21
2.42107e-20
1.8187e-20
3.60317e-20
1.6333e-20
9.09611e-21
2.10874e-20
6.03483e-20
5.71617e-20
1.07818e-19
2.11171e-19
6.47022e-19
2.18007e-18
6.6936e-18
2.08349e-17
6.57965e-17
2.00744e-16
6.12321e-16
1.83324e-15
5.35602e-15
1.52843e-14
4.4211e-14
1.2541e-13
3.39234e-13
8.86442e-13
2.25632e-12
5.63297e-12
1.37836e-11
3.12504e-11
6.42036e-11
1.16594e-10
1.83367e-10
2.49289e-10
3.01381e-10
3.39938e-10
3.74525e-10
4.11082e-10
4.74056e-10
5.72722e-10
7.59243e-10
1.16835e-09
2.10506e-09
4.39315e-09
1.00956e-08
2.15518e-08
3.57342e-08
3.45804e-08
2.57332e-08
1.79039e-08
1.17218e-08
8.2305e-09
6.96337e-09
7.00291e-09
7.73253e-09
9.02239e-09
1.02514e-08
9.51514e-09
6.14365e-09
2.68279e-09
1.204e-09
5.61304e-10
2.70792e-10
1.33325e-10
6.78838e-11
3.5394e-11
1.88546e-11
1.0003e-11
5.42126e-12
2.93103e-12
1.56765e-12
8.23216e-13
4.21892e-13
2.06488e-13
9.89473e-14
4.62018e-14
2.41456e-14
1.94899e-14
2.99174e-14
5.85477e-14
8.31162e-14
4.35758e-14
1.06467e-14
1.58019e-15
1.80598e-21
2.10871e-21
5.05143e-21
9.60237e-21
6.63734e-21
9.71236e-21
3.0158e-21
2.26805e-21
1.02368e-20
6.9332e-21
6.90333e-21
9.33757e-21
1.02066e-20
7.45304e-21
1.56497e-20
1.09392e-20
4.00068e-21
1.45999e-20
1.55245e-20
3.87165e-20
1.97206e-20
2.79248e-20
3.23066e-20
4.71426e-20
7.48995e-20
6.46383e-20
4.97133e-20
2.69169e-19
6.63505e-19
2.058e-18
6.74063e-18
2.15809e-17
6.69796e-17
2.04664e-16
6.25622e-16
1.85031e-15
5.46452e-15
1.55704e-14
4.61807e-14
1.29459e-13
3.43975e-13
9.00329e-13
2.25437e-12
5.72266e-12
1.38709e-11
3.14269e-11
6.44984e-11
1.16968e-10
1.8372e-10
2.49533e-10
3.0152e-10
3.40027e-10
3.74594e-10
4.11124e-10
4.74224e-10
5.72838e-10
7.5897e-10
1.16712e-09
2.10095e-09
4.3802e-09
1.00583e-08
2.14767e-08
3.56801e-08
3.46348e-08
2.57867e-08
1.7954e-08
1.17565e-08
8.24764e-09
6.96802e-09
7.00087e-09
7.72628e-09
9.01353e-09
1.02487e-08
9.52985e-09
6.16828e-09
2.69572e-09
1.20949e-09
5.63741e-10
2.71923e-10
1.33845e-10
6.81392e-11
3.55234e-11
1.89223e-11
1.00372e-11
5.43966e-12
2.94097e-12
1.573e-12
8.26067e-13
4.23386e-13
2.07216e-13
9.93039e-14
4.63618e-14
2.42203e-14
1.9531e-14
2.99559e-14
5.86385e-14
8.32834e-14
4.3757e-14
1.06926e-14
1.58706e-15
3.61813e-22
8.42872e-21
9.74146e-21
1.19336e-20
1.02818e-20
9.88029e-21
6.79318e-21
1.55341e-20
1.06358e-20
1.9503e-21
1.45031e-20
1.10265e-20
1.4331e-20
1.89591e-21
4.74615e-21
5.43825e-21
1.48559e-21
1.95478e-20
1.29209e-20
3.4325e-20
4.05193e-20
3.02364e-20
3.1609e-20
2.30559e-20
4.21325e-20
6.0546e-21
2.90315e-20
1.55618e-19
7.15292e-19
2.23136e-18
7.03996e-18
2.19048e-17
6.87778e-17
2.1308e-16
6.41357e-16
1.89407e-15
5.56699e-15
1.56496e-14
4.64794e-14
1.28425e-13
3.49833e-13
9.08913e-13
2.30228e-12
5.72865e-12
1.3922e-11
3.15348e-11
6.46725e-11
1.17192e-10
1.8394e-10
2.49696e-10
3.01626e-10
3.40102e-10
3.7466e-10
4.11183e-10
4.74388e-10
5.73019e-10
7.59099e-10
1.16709e-09
2.10037e-09
4.3778e-09
1.00508e-08
2.14604e-08
3.56675e-08
3.46451e-08
2.5797e-08
1.79636e-08
1.17629e-08
8.25061e-09
6.96874e-09
7.00043e-09
7.72523e-09
9.01197e-09
1.02482e-08
9.5321e-09
6.1721e-09
2.69773e-09
1.21033e-09
5.64107e-10
2.7209e-10
1.3392e-10
6.81757e-11
3.55416e-11
1.89317e-11
1.0042e-11
5.44219e-12
2.94233e-12
1.57373e-12
8.26455e-13
4.23588e-13
2.07313e-13
9.93511e-14
4.63829e-14
2.42295e-14
1.95348e-14
2.99577e-14
5.86534e-14
8.33107e-14
4.37803e-14
1.06983e-14
1.58792e-15
6.79297e-22
3.63614e-21
1.04633e-20
1.10505e-20
8.63797e-21
7.65792e-21
7.7876e-21
1.68304e-20
2.03558e-20
2.08602e-20
5.80969e-21
1.78809e-20
3.42657e-21
1.03267e-21
1.51728e-20
1.02161e-20
1.95569e-20
8.9845e-21
5.32523e-21
1.74399e-21
2.57908e-20
1.87323e-20
1.77409e-20
3.31984e-20
3.89433e-20
7.59176e-21
8.41429e-20
2.2145e-19
7.15381e-19
2.24052e-18
7.07881e-18
2.206e-17
6.82454e-17
2.06532e-16
6.22499e-16
1.83543e-15
5.46444e-15
1.56727e-14
4.662e-14
1.29175e-13
3.51696e-13
9.00556e-13
2.33051e-12
5.74458e-12
1.39198e-11
3.15801e-11
6.47458e-11
1.17292e-10
1.84051e-10
2.49796e-10
3.01705e-10
3.40169e-10
3.74732e-10
4.11275e-10
4.74572e-10
5.73334e-10
7.59844e-10
1.1688e-09
2.10464e-09
4.38921e-09
1.00804e-08
2.15181e-08
3.57068e-08
3.46004e-08
2.57545e-08
1.79243e-08
1.17356e-08
8.23712e-09
6.96474e-09
7.00145e-09
7.7295e-09
9.01814e-09
1.02499e-08
9.52099e-09
6.15374e-09
2.68813e-09
1.20625e-09
5.62289e-10
2.71244e-10
1.33532e-10
6.79846e-11
3.54449e-11
1.88811e-11
1.00164e-11
5.42847e-12
2.93492e-12
1.56974e-12
8.24323e-13
4.22467e-13
2.06767e-13
9.90829e-14
4.62629e-14
2.41753e-14
1.95094e-14
2.99418e-14
5.85932e-14
8.31901e-14
4.36368e-14
1.06619e-14
1.58245e-15
2.15498e-21
3.50253e-22
1.67633e-21
3.30016e-21
7.85504e-21
1.04232e-20
1.6331e-21
8.1786e-21
4.4478e-21
5.26496e-21
3.65757e-21
5.75935e-21
1.23895e-21
1.43331e-20
1.57049e-20
2.16718e-20
4.11607e-20
7.24914e-21
1.31111e-20
6.75248e-21
2.27239e-20
3.61453e-20
1.98683e-20
6.20478e-20
6.1143e-20
4.01895e-20
6.42187e-20
2.05091e-19
7.14254e-19
2.29653e-18
6.98233e-18
2.15633e-17
6.82592e-17
2.05182e-16
6.00796e-16
1.79957e-15
5.35898e-15
1.51445e-14
4.47065e-14
1.30232e-13
3.41676e-13
9.08675e-13
2.26867e-12
5.76097e-12
1.39177e-11
3.15433e-11
6.46928e-11
1.17243e-10
1.84033e-10
2.49817e-10
3.01748e-10
3.4022e-10
3.74801e-10
4.11393e-10
4.74779e-10
5.73789e-10
7.61211e-10
1.17227e-09
2.11366e-09
4.41388e-09
1.01458e-08
2.16466e-08
3.57933e-08
3.45021e-08
2.56612e-08
1.78384e-08
1.16767e-08
8.20815e-09
6.95633e-09
7.00367e-09
7.7377e-09
9.03151e-09
1.02532e-08
9.4968e-09
6.11399e-09
2.66747e-09
1.19746e-09
5.58379e-10
2.69426e-10
1.32697e-10
6.75745e-11
3.52375e-11
1.8773e-11
9.9618e-12
5.39914e-12
2.91907e-12
1.5612e-12
8.19771e-13
4.20076e-13
2.05602e-13
9.85104e-14
4.60073e-14
2.40589e-14
1.94541e-14
2.99087e-14
5.84646e-14
8.29331e-14
4.33364e-14
1.05856e-14
1.57099e-15
2.85955e-21
3.10654e-21
1.39392e-21
7.86561e-21
6.38598e-21
4.1351e-21
6.86817e-21
5.38868e-21
4.79404e-21
1.54158e-20
4.57097e-21
4.77771e-21
4.39031e-21
5.18606e-21
6.27466e-21
1.88165e-20
3.32277e-20
3.73439e-20
3.0723e-20
3.42495e-20
2.09623e-20
1.27711e-20
2.49907e-20
4.09218e-20
5.61521e-20
7.9546e-20
8.75736e-20
1.8433e-19
7.37104e-19
2.24861e-18
6.9563e-18
2.12974e-17
6.669e-17
2.02285e-16
6.10065e-16
1.8193e-15
5.33477e-15
1.52059e-14
4.50722e-14
1.29273e-13
3.44753e-13
8.91111e-13
2.25703e-12
5.75899e-12
1.3857e-11
3.14236e-11
6.45257e-11
1.17063e-10
1.83905e-10
2.49775e-10
3.01767e-10
3.40265e-10
3.74878e-10
4.11551e-10
4.75033e-10
5.74426e-10
7.63305e-10
1.17775e-09
2.12826e-09
4.45426e-09
1.02523e-08
2.1854e-08
3.59274e-08
3.43434e-08
2.55129e-08
1.7703e-08
1.15845e-08
8.16312e-09
6.94319e-09
7.00708e-09
7.75036e-09
9.05153e-09
1.02579e-08
9.45919e-09
6.05347e-09
2.63646e-09
1.18427e-09
5.52517e-10
2.66702e-10
1.31447e-10
6.69598e-11
3.49257e-11
1.86105e-11
9.87974e-12
5.35511e-12
2.89529e-12
1.54839e-12
8.12949e-13
4.16496e-13
2.03859e-13
9.76545e-14
4.56235e-14
2.38819e-14
1.93629e-14
2.98358e-14
5.82613e-14
8.25424e-14
4.28918e-14
1.04728e-14
1.55407e-15
5.33394e-21
4.31902e-21
9.39349e-21
1.54583e-20
1.25442e-20
4.58414e-21
5.95101e-21
1.48239e-20
6.23409e-21
1.47495e-21
6.15336e-21
1.18642e-20
2.17071e-20
2.48028e-20
1.36235e-20
1.73399e-20
2.13143e-20
2.92741e-20
1.30498e-20
1.7931e-20
2.15568e-20
2.80645e-21
1.22391e-21
1.78676e-20
3.60614e-20
7.9553e-20
1.21124e-19
1.69177e-19
6.42124e-19
2.10615e-18
6.63048e-18
2.13732e-17
6.57438e-17
2.01374e-16
6.11241e-16
1.81419e-15
5.34588e-15
1.52341e-14
4.3704e-14
1.24056e-13
3.41324e-13
8.84792e-13
2.22026e-12
5.68662e-12
1.3765e-11
3.12392e-11
6.42363e-11
1.16717e-10
1.83617e-10
2.49629e-10
3.01733e-10
3.40284e-10
3.74947e-10
4.11732e-10
4.75286e-10
5.75158e-10
7.65927e-10
1.18482e-09
2.14743e-09
4.50796e-09
1.03951e-08
2.21328e-08
3.60994e-08
3.41228e-08
2.53122e-08
1.75221e-08
1.14622e-08
8.10274e-09
6.92468e-09
7.01063e-09
7.76632e-09
9.07744e-09
1.02632e-08
9.4103e-09
5.97551e-09
2.59705e-09
1.16748e-09
5.45038e-10
2.63219e-10
1.29848e-10
6.61704e-11
3.45275e-11
1.84029e-11
9.7748e-12
5.29877e-12
2.86487e-12
1.53201e-12
8.04225e-13
4.11917e-13
2.01631e-13
9.65612e-14
4.51324e-14
2.36551e-14
1.92436e-14
2.97365e-14
5.79874e-14
8.20272e-14
4.23263e-14
1.03296e-14
1.53259e-15
1.29686e-21
8.78698e-22
7.27388e-21
6.32627e-21
3.56533e-21
3.92825e-21
1.83403e-20
7.21468e-21
4.49943e-21
4.40854e-21
7.8739e-21
9.79433e-21
2.17173e-20
1.29613e-20
2.13693e-21
1.29229e-20
2.53437e-20
1.18344e-20
1.26682e-20
7.59596e-21
2.67107e-21
4.06118e-20
8.93147e-21
5.03868e-20
7.3447e-20
8.76202e-20
9.7688e-20
2.44927e-19
6.59723e-19
2.08773e-18
6.40047e-18
2.02566e-17
6.32659e-17
1.94891e-16
5.76818e-16
1.7548e-15
5.14982e-15
1.47682e-14
4.29922e-14
1.24194e-13
3.29575e-13
8.88974e-13
2.23355e-12
5.60242e-12
1.35707e-11
3.09291e-11
6.37885e-11
1.16179e-10
1.83154e-10
2.49354e-10
3.01627e-10
3.4026e-10
3.74994e-10
4.11925e-10
4.75456e-10
5.75916e-10
7.68946e-10
1.19314e-09
2.17021e-09
4.57188e-09
1.05638e-08
2.24535e-08
3.62777e-08
3.38684e-08
2.50738e-08
1.73038e-08