/*--------------------------------*- C++ -*----------------------------------*\
  =========                 |
  \\      /  F ield         | OpenFOAM: The Open Source CFD Toolbox
   \\    /   O peration     | Website:  https://openfoam.org
    \\  /    A nd           | Version:  10
     \\/     M anipulation  |
\*---------------------------------------------------------------------------*/
FoamFile
{
    format      ascii;
    class       volScalarField;
    location    "1";
    object      T;
}
// * * * * * * * * * * * * * * * * * * * * * * * * * * * * * * * * * * * * * //

dimensions      [0 0 0 1 0 0 0];

internalField   nonuniform List<scalar> 
4000
(
500
500
500
500
500
500
500
500
500
500
500
500
500
500
500
500
500
500
500
500
500
500
500
500
500
500
500
500
500
500
500.001
500.001
500.001
500.001
500.001
500.001
500.001
500.001
500.001
500.001
500.001
500.001
500.001
500.001
500.001
500.002
500.004
500.009
500.022
500.054
500.124
500.282
500.573
501.213
502.483
504.822
508.757
515.495
526.005
541.324
562.1
587.354
618.453
655.249
697.351
744.147
795.202
848.696
903.952
960.56
1019.05
1077
1136.86
1200.65
1272.44
1355.13
1444.14
1534.2
1624.19
1716.28
1811.67
1908.85
2001.4
2079.12
2129.62
2139.57
2109.41
2043.28
1948.05
1830.61
1697.42
1549.61
1402.25
1255.26
1112.81
977.968
852.529
738.116
636.641
541.013
500
500
500
500
500
500
500
500
500
500
500
500
500
500
500
500
500
500
500
500
500
500
500
500
500
500
500
500
500
500
500
500.001
500.001
500.001
500.001
500.001
500.001
500.001
500.001
500.001
500.001
500.001
500.001
500.001
500.001
500.002
500.005
500.012
500.028
500.068
500.147
500.3
500.648
501.344
502.715
505.276
509.328
516.175
526.764
541.869
562.4
587.313
617.949
654.193
695.599
741.752
792.239
845.702
900.728
957.207
1015.95
1074.14
1134.06
1198.06
1270.14
1353.22
1442.79
1533.47
1624.04
1716.73
1812.65
1910.33
2003.11
2080.44
2129.72
2137.9
2105.73
2037.61
1940.29
1821.3
1686.95
1538.52
1390.99
1244.57
1102.83
968.871
844.885
732.612
633.339
539.933
500
500
500
500
500
500
500
500
500
500
500
500
500
500
500
500
500
500
500
500
500
500
500
500
500
500
500
500
500
500
500
500
500
500.001
500.001
500.001
500.001
500.001
500.001
500.001
500.001
500
500.001
500.001
500.001
500.002
500.006
500.014
500.032
500.077
500.165
500.339
500.728
501.528
502.991
505.513
509.605
516.529
527.167
542.324
562.737
587.413
617.656
653.319
694.148
739.705
789.57
842.436
897.513
954.058
1013.2
1071.42
1131.45
1195.46
1267.68
1351.21
1441.45
1532.85
1624.16
1717.55
1814.21
1912.44
2005.39
2082.26
2129.76
2135.39
2100.33
2029.33
1929.72
1808.33
1672.59
1523.84
1376.87
1231.32
1091.06
958.696
836.882
726.808
629.817
538.8
500
500
500
500
500
500
500
500
500
500
500
500
500
500
500
500
500
500
500
500
500
500
500
500
500
500
500
500
500
500
500
500
500
500
500
500
500
500
500
500
500
500
500
500.001
500.001
500.003
500.006
500.016
500.038
500.082
500.173
500.387
500.831
501.691
503.253
505.675
509.884
516.897
527.621
542.695
562.959
587.401
617.318
652.61
692.975
737.997
787.285
839.91
894.797
951.274
1010.44
1068.75
1129.06
1193.23
1265.29
1350.33
1440.8
1532.71
1624.61
1718.65
1815.83
1914.36
2007
2085
2130.07
2133.01
2095.22
2021.91
1920.48
1795.19
1658.77
1510.29
1363.43
1218.57
1079.45
949.138
829.313
721.348
626.503
537.733
500
500
500
500
500
500
500
500
500
500
500
500
500
500
500
500
500
500
500
500
500
500
500
500
500
500
500
500
500
500
500
500
500
500
500
500
500
500
500
500
500
500
500
500.001
500.001
500.003
500.007
500.018
500.039
500.085
500.192
500.424
500.913
501.875
503.361
505.853
510.158
517.22
527.943
543.034
563.206
587.486
617.147
652.103
692.044
736.527
785.543
838.004
892.847
949.195
1008.43
1066.87
1127.25
1191.41
1263.57
1349.03
1440.04
1532.53
1625.04
1719.64
1817.45
1916.48
2009.26
2086.5
2129.8
2130.54
2090.35
2014.82
1911.48
1784.84
1647.52
1499.01
1352.29
1208.07
1070.05
941.236
823.068
716.859
623.778
536.86
500
500
500
500
500
500
500
500
500
500
500
500
500
500
500
500
500
500
500
500
500
500
500
500
500
500
500
500
500
500
500
500
500
500
500
500
500
500
500
500
500
500
500
500.001
500.001
500.003
500.008
500.019
500.041
500.093
500.21
500.461
500.972
501.975
503.516
506.054
510.38
517.529
528.245
543.291
563.36
587.475
616.916
651.609
691.286
735.536
784.191
836.279
890.967
947.414
1006.85
1065.34
1125.77
1190.09
1262.33
1347.98
1439.35
1532.3
1625.27
1720.35
1818.64
1918.08
2010.9
2087.43
2129.34
2128.37
2086.3
2009
1904.17
1776.64
1638.6
1490.3
1343.75
1200.14
1063.07
935.292
818.333
713.438
621.694
536.193
500
500
500
500
500
500
500
500
500
500
500
500
500
500
500
500
500
500
500
500
500
500
500
500
500
500
500
500
500
500
500
500
500
500
500
500
500
500
500
500
500
500
500
500.001
500.001
500.004
500.009
500.019
500.044
500.1
500.223
500.485
501.014
502.045
503.62
506.208
510.563
517.733
528.467
543.472
563.431
587.402
616.644
651.11
690.542
734.586
783.041
834.872
889.501
945.912
1005.43
1063.95
1124.46
1188.81
1261.07
1346.87
1438.49
1531.79
1625.14
1720.62
1819.29
1919.04
2011.92
2087.95
2128.86
2126.66
2083.22
2004.64
1898.71
1770.57
1632.02
1483.93
1337.51
1194.32
1057.93
930.938
814.877
710.943
620.175
535.707
500
500
500
500
500
500
500
500
500
500
500
500
500
500
500
500
500
500
500
500
500
500
500
500
500
500
500
500
500
500
500
500
500
500
500
500
500
500
500
500
500
500
500
500.001
500.002
500.004
500.009
500.02
500.047
500.107
500.238
500.511
501.057
502.111
503.714
506.33
510.711
517.899
528.616
543.56
563.401
587.224
616.269
650.549
689.731
733.426
781.793
833.462
888.07
944.411
1003.97
1062.52
1123.04
1187.41
1259.64
1345.52
1437.35
1530.93
1624.57
1720.38
1819.32
1919.32
2012.3
2088.07
2128.39
2125.42
2081.08
2001.63
1894.97
1766.4
1627.49
1479.56
1333.22
1190.31
1054.35
927.917
812.477
709.211
619.12
535.37
500
500
500
500
500
500
500
500
500
500
500
500
500
500
500
500
500
500
500
500
500
500
500
500
500
500
500
500
500
500
500
500
500
500
500
500
500
500
500
500
500
500
500
500.001
500.002
500.004
500.009
500.022
500.051
500.115
500.251
500.532
501.092
502.165
503.784
506.42
510.819
518.008
528.695
543.554
563.252
586.869
615.694
649.656
688.598
732.196
780.228
831.874
886.309
942.657
1002.12
1060.72
1121.38
1185.8
1258
1343.92
1435.89
1529.69
1623.54
1719.64
1818.78
1918.98
2012.12
2087.85
2127.93
2124.56
2079.73
1999.77
1892.65
1763.8
1624.65
1476.8
1330.49
1187.74
1052.05
925.959
810.921
708.086
618.434
535.151
500
500
500
500
500
500
500
500
500
500
500
500
500
500
500
500
500
500
500
500
500
500
500
500
500
500
500
500
500
500
500
500
500
500
500
500
500
500
500
500
500
500
500
500.001
500.002
500.004
500.01
500.024
500.054
500.121
500.263
500.554
501.125
502.201
503.834
506.492
510.893
518.068
528.707
543.481
563.049
586.491
615.027
648.739
687.406
730.711
778.615
830.237
884.62
940.859
999.283
1059.02
1119.7
1184.05
1256.01
1341.88
1433.94
1527.97
1622.06
1718.45
1817.74
1918.13
2011.46
2087.35
2127.49
2124.04
2079.02
1998.83
1891.46
1762.43
1623.12
1475.29
1328.97
1186.29
1050.74
924.844
810.026
707.435
618.035
535.023
500
500
500
500
500
500
500
500
500
500
500
500
500
500
500
500
500
500
500
500
500
500
500
500
500
500
500
500
500
500
500
500
500
500
500
500
500
500
500
500
500
500
500
500.001
500.002
500.005
500.011
500.025
500.058
500.129
500.278
500.585
501.195
502.211
503.871
506.543
510.935
518.082
528.657
543.301
562.682
585.922
614.338
647.803
686.23
729.306
777.01
828.44
882.883
939.14
997.494
1057.25
1117.86
1182.13
1254.02
1339.87
1431.97
1526.16
1620.38
1716.98
1816.37
1916.9
2010.46
2086.64
2127.04
2123.75
2078.79
1998.57
1891.13
1761.98
1622.58
1474.71
1328.36
1185.68
1050.17
924.343
809.616
707.132
617.848
534.963
500
500
500
500
500
500
500
500
500
500
500
500
500
500
500
500
500
500
500
500
500
500
500
500
500
500
500
500
500
500
500
500
500
500
500
500
500
500
500
500
500
500
500
500.001
500.002
500.005
500.011
500.027
500.061
500.134
500.29
500.607
501.232
502.211
503.903
506.584
510.957
518.068
528.574
543.13
562.36
585.422
613.549
646.817
685.037
727.918
775.471
826.697
881.078
937.469
995.46
1055.3
1115.98
1180.26
1252.02
1337.75
1429.89
1524.16
1618.5
1715.3
1814.76
1915.43
2009.23
2085.79
2126.61
2123.65
2078.91
1998.81
1891.4
1762.19
1622.74
1474.8
1328.39
1185.67
1050.12
924.278
809.55
707.077
617.811
534.951
500
500
500
500
500
500
500
500
500
500
500
500
500
500
500
500
500
500
500
500
500
500
500
500
500
500
500
500
500
500
500
500
500
500
500
500
500
500
500
500
500
500
500
500.001
500.002
500.005
500.012
500.028
500.063
500.138
500.296
500.616
501.242
502.211
503.94
506.616
510.962
518.027
528.458
542.903
562.03
584.918
612.822
645.847
683.838
726.512
773.921
824.963
879.273
935.63
993.579
1053.54
1114.21
1178.4
1249.91
1335.51
1427.63
1522.05
1616.52
1713.48
1812.93
1913.7
2007.77
2084.83
2126.17
2123.66
2079.28
1999.4
1892.12
1762.86
1623.39
1475.34
1328.85
1186.05
1050.43
924.515
809.726
707.197
617.881
534.973
500
500
500
500
500
500
500
500
500
500
500
500
500
500
500
500
500
500
500
500
500
500
500
500
500
500
500
500
500
500
500
500
500
500
500
500
500
500
500
500
500
500
500
500.001
500.002
500.005
500.012
500.029
500.064
500.141
500.3
500.621
501.246
502.209
503.967
506.638
510.957
517.98
528.348
542.679
561.639
584.361
612.13
644.93
682.722
725.201
772.437
823.454
877.611
933.92
991.841
1051.79
1112.5
1176.65
1247.97
1333.33
1425.43
1519.96
1614.48
1711.58
1811.06
1911.94
2006.27
2083.82
2125.75
2123.74
2079.76
2000.17
1893.05
1763.79
1624.33
1476.16
1329.6
1186.7
1050.97
924.948
810.054
707.426
618.017
535.015
500
500
500
500
500
500
500
500
500
500
500
500
500
500
500
500
500
500
500
500
500
500
500
500
500
500
500
500
500
500
500
500
500
500
500
500
500
500
500
500
500
500
500
500.001
500.002
500.005
500.013
500.029
500.065
500.143
500.303
500.625
501.249
502.207
503.984
506.65
510.937
517.917
528.212
542.46
561.288
583.851
611.433
644.081
681.686
723.981
771.059
821.928
876.008
932.328
990.253
1050.23
1110.93
1175
1246.18
1331.31
1423.38
1517.97
1612.59
1709.82
1809.32
1910.29
2004.86
2082.88
2125.37
2123.86
2080.29
2000.99
1894.05
1764.8
1625.35
1477.06
1330.43
1187.43
1051.59
925.453
810.441
707.699
618.18
535.067
500
500
500
500
500
500
500
500
500
500
500
500
500
500
500
500
500
500
500
500
500
500
500
500
500
500
500
500
500
500
500
500
500
500
500
500
500
500
500
500
500
500
500
500.001
500.002
500.006
500.013
500.03
500.066
500.144
500.305
500.627
501.25
502.205
503.995
506.655
510.914
517.85
528.083
542.24
560.968
583.415
610.863
643.384
680.817
722.954
769.904
820.675
874.64
930.946
988.881
1048.88
1109.57
1173.6
1244.65
1329.59
1421.63
1516.28
1610.97
1708.3
1807.81
1908.85
2003.63
2082.06
2125.04
2123.98
2080.79
2001.76
1895
1765.77
1626.34
1477.94
1331.24
1188.15
1052.2
925.949
810.824
707.969
618.342
535.118
500
500
500
500
500
500
500
500
500
500
500
500
500
500
500
500
500
500
500
500
500
500
500
500
500
500
500
500
500
500
500
500
500
500
500
500
500
500
500
500
500
500
500
500.001
500.002
500.006
500.013
500.03
500.067
500.145
500.306
500.629
501.251
502.203
504.001
506.656
510.892
517.797
527.986
542.083
560.734
583.067
610.386
642.762
680.083
722.106
768.957
819.634
873.523
929.833
987.793
1047.82
1108.52
1172.51
1243.45
1328.22
1420.24
1514.94
1609.68
1707.08
1806.59
1907.69
2002.63
2081.39
2124.78
2124.09
2081.22
2002.42
1895.8
1766.59
1627.19
1478.69
1331.94
1188.76
1052.73
926.377
811.155
708.202
618.482
535.162
500
500
500
500
500
500
500
500
500
500
500
500
500
500
500
500
500
500
500
500
500
500
500
500
500
500
500
500
500
500
500
500
500
500
500
500
500
500
500
500
500
500
500
500.001
500.002
500.006
500.013
500.03
500.067
500.146
500.307
500.63
501.252
502.202
504.005
506.656
510.876
517.758
527.914
541.966
560.561
582.824
610.062
642.353
679.593
721.532
768.313
818.934
872.751
929.066
987.041
1047.08
1107.77
1171.74
1242.61
1327.26
1419.26
1513.99
1608.76
1706.21
1805.72
1906.85
2001.91
2080.91
2124.6
2124.17
2081.53
2002.9
1896.39
1767.19
1627.81
1479.24
1332.45
1189.22
1053.11
926.694
811.399
708.375
618.586
535.195
500
500
500
500
500
500
500
500
500
500
500
500
500
500
500
500
500
500
500
500
500
500
500
500
500
500
500
500
500
500
500
500
500
500
500
500
500
500
500
500
500
500
500
500.001
500.002
500.006
500.013
500.03
500.067
500.146
500.308
500.631
501.253
502.202
504.008
506.657
510.869
517.739
527.878
541.905
560.468
582.697
609.895
642.142
679.337
721.233
767.977
818.562
872.345
928.658
986.634
1046.68
1107.38
1171.34
1242.16
1326.75
1418.74
1513.48
1608.27
1705.74
1805.25
1906.4
2001.51
2080.65
2124.49
2124.22
2081.7
2003.16
1896.71
1767.53
1628.15
1479.54
1332.73
1189.47
1053.33
926.866
811.532
708.469
618.642
535.213
500
500
500
500
500
500
500
500
500
500
500
500
500
500
500
500
500
500
500
500
500
500
500
500
500
500
500
500
500
500
500
500
500
500
500
500
500
500
500
500
500
500
500
500.001
500.002
500.006
500.013
500.031
500.068
500.146
500.308
500.632
501.254
502.202
504.011
506.66
510.87
517.738
527.872
541.893
560.449
582.668
609.858
642.097
679.284
721.173
767.913
818.494
872.271
928.587
986.565
1046.62
1107.31
1171.27
1242.09
1326.67
1418.65
1513.4
1608.19
1705.67
1805.18
1906.33
2001.45
2080.61
2124.48
2124.22
2081.72
2003.2
1896.75
1767.57
1628.19
1479.58
1332.76
1189.5
1053.35
926.885
811.546
708.478
618.648
535.215
500
500
500
500
500
500
500
500
500
500
500
500
500
500
500
500
500
500
500
500
500
500
500
500
500
500
500
500
500
500
500
500
500
500
500
500
500
500
500
500
500
500
500
500.001
500.002
500.006
500.013
500.031
500.068
500.147
500.309
500.633
501.255
502.204
504.015
506.667
510.884
517.761
527.908
541.945
560.521
582.766
609.985
642.256
679.476
721.397
768.164
818.768
872.567
928.884
986.86
1046.91
1107.6
1171.57
1242.42
1327.04
1419.04
1513.77
1608.55
1706.01
1805.52
1906.66
2001.74
2080.8
2124.55
2124.18
2081.59
2002.99
1896.5
1767.31
1627.92
1479.34
1332.53
1189.29
1053.17
926.74
811.433
708.398
618.599
535.199
500
500
500
500
500
500
500
500
500
500
500
500
500
500
500
500
500
500
500
500
500
500
500
500
500
500
500
500
500
500
500
500
500
500
500
500
500
500
500
500
500
500
500
500.001
500.002
500.006
500.013
500.031
500.068
500.147
500.309
500.633
501.256
502.208
504.021
506.678
510.912
517.809
527.984
542.058
560.682
582.985
610.269
642.61
679.9
721.889
768.712
819.365
873.21
929.527
987.497
1047.53
1108.23
1172.22
1243.13
1327.85
1419.86
1514.58
1609.33
1706.75
1806.26
1907.37
2002.36
2081.21
2124.71
2124.1
2081.31
2002.56
1895.96
1766.76
1627.35
1478.83
1332.06
1188.87
1052.81
926.438
811.198
708.23
618.498
535.167
500
500
500
500
500
500
500
500
500
500
500
500
500
500
500
500
500
500
500
500
500
500
500
500
500
500
500
500
500
500
500
500
500
500
500
500
500
500
500
500
500
500
500
500.001
500.002
500.006
500.013
500.03
500.068
500.146
500.309
500.634
501.258
502.213
504.029
506.695
510.954
517.886
528.108
542.244
560.944
583.339
610.726
643.174
680.571
722.663
769.573
820.298
874.218
930.53
988.487
1048.5
1109.2
1173.21
1244.21
1329.08
1421.12
1515.79
1610.5
1707.86
1807.38
1908.45
2003.29
2081.83
2124.94
2123.99
2080.88
2001.91
1895.17
1765.93
1626.5
1478.07
1331.35
1188.23
1052.27
925.992
810.851
707.984
618.349
535.12
500
500
500
500
500
500
500
500
500
500
500
500
500
500
500
500
500
500
500
500
500
500
500
500
500
500
500
500
500
500
500
500
500
500
500
500
500
500
500
500
500
500
500
500.001
500.002
500.006
500.013
500.03
500.067
500.146
500.309
500.634
501.261
502.219
504.039
506.716
511.009
517.986
528.27
542.49
561.296
583.82
611.36
643.938
681.464
723.686
770.708
821.531
875.531
931.849
989.77
1049.74
1110.43
1174.49
1245.62
1330.67
1422.74
1517.37
1612.02
1709.3
1808.83
1909.84
2004.48
2082.62
2125.24
2123.83
2080.34
2001.08
1894.15
1764.89
1625.43
1477.12
1330.46
1187.44
1051.58
925.43
810.415
707.674
618.162
535.061
500
500
500
500
500
500
500
500
500
500
500
500
500
500
500
500
500
500
500
500
500
500
500
500
500
500
500
500
500
500
500
500
500
500
500
500
500
500
500
500
500
500
500
500.001
500.002
500.006
500.013
500.03
500.067
500.146
500.308
500.634
501.264
502.227
504.047
506.738
511.072
518.104
528.462
542.78
561.707
584.371
612.056
644.805
682.51
724.901
772.067
822.984
877.057
933.358
991.271
1051.21
1111.9
1176.01
1247.3
1332.57
1424.68
1519.23
1613.82
1710.99
1810.52
1911.46
2005.88
2083.55
2125.59
2123.66
2079.72
2000.12
1892.98
1763.69
1624.19
1476.01
1329.43
1186.52
1050.8
924.789
809.918
707.321
617.95
534.994
500
500
500
500
500
500
500
500
500
500
500
500
500
500
500
500
500
500
500
500
500
500
500
500
500
500
500
500
500
500
500
500
500
500
500
500
500
500
500
500
500
500
500
500.001
500.002
500.006
500.013
500.03
500.066
500.145
500.307
500.634
501.265
502.234
504.051
506.755
511.133
518.226
528.667
543.094
562.154
584.971
612.817
645.767
683.654
726.2
773.463
824.489
878.684
935.02
992.941
1052.87
1113.58
1177.77
1249.22
1334.73
1426.86
1521.33
1615.85
1712.89
1812.41
1913.27
2007.44
2084.58
2125.99
2123.48
2079.05
1999.1
1891.73
1762.42
1622.89
1474.85
1328.35
1185.56
1049.98
924.116
809.397
706.953
617.728
534.923
500
500
500
500
500
500
500
500
500
500
500
500
500
500
500
500
500
500
500
500
500
500
500
500
500
500
500
500
500
500
500
500
500
500
500
500
500
500
500
500
500
500
500
500.001
500.002
500.005
500.013
500.029
500.066
500.143
500.306
500.632
501.266
502.242
504.05
506.769
511.196
518.351
528.882
543.43
562.644
585.638
613.683
646.835
684.926
727.676
775.131
826.204
880.529
936.842
994.77
1054.67
1115.37
1179.6
1251.29
1337.01
1429.18
1523.58
1618.01
1714.91
1814.42
1915.17
2009.05
2085.65
2126.4
2123.31
2078.39
1998.09
1890.5
1761.17
1621.61
1473.71
1327.3
1184.63
1049.19
923.474
808.902
706.603
617.518
534.857
500
500
500
500
500
500
500
500
500
500
500
500
500
500
500
500
500
500
500
500
500
500
500
500
500
500
500
500
500
500
500
500
500
500
500
500
500
500
500
500
500
500
500
500.001
500.002
500.005
500.012
500.029
500.064
500.141
500.303
500.629
501.266
502.25
504.039
506.773
511.254
518.499
529.153
543.857
563.25
586.438
614.653
647.98
686.245
729.154
776.713
827.939
882.28
938.512
996.941
1056.74
1117.38
1181.69
1253.53
1339.38
1431.59
1525.93
1620.28
1717
1816.47
1917.1
2010.68
2086.72
2126.84
2123.19
2077.82
1997.2
1889.42
1760.1
1620.54
1472.74
1326.41
1183.85
1048.53
922.946
808.499
706.32
617.35
534.804
500
500
500
500
500
500
500
500
500
500
500
500
500
500
500
500
500
500
500
500
500
500
500
500
500
500
500
500
500
500
500
500
500
500
500
500
500
500
500
500
500
500
500
500.001
500.002
500.005
500.012
500.028
500.063
500.139
500.298
500.624
501.263
502.257
504.013
506.756
511.273
518.565
529.291
544.1
563.622
586.981
615.466
649.035
687.529
730.641
778.365
829.717
884.073
940.418
998.795
1058.55
1119.19
1183.62
1255.75
1341.73
1433.93
1528.09
1622.33
1718.89
1818.38
1918.9
2012.2
2087.73
2127.28
2123.15
2077.41
1996.55
1888.63
1759.35
1619.8
1472.12
1325.88
1183.4
1048.16
922.656
808.281
706.169
617.261
534.776
500
500
500
500
500
500
500
500
500
500
500
500
500
500
500
500
500
500
500
500
500
500
500
500
500
500
500
500
500
500
500
500
500
500
500
500
500
500
500
500
500
500
500
500.001
500.002
500.005
500.011
500.027
500.061
500.135
500.292
500.613
501.25
502.26
503.972
506.721
511.267
518.604
529.41
544.333
564.025
587.617
616.351
650.105
688.789
732.08
779.939
831.561
885.981
942.207
1001.69
1060.27
1120.94
1185.38
1257.66
1343.73
1435.93
1530.04
1624.18
1720.54
1819.98
1920.38
2013.46
2088.6
2127.73
2123.26
2077.27
1996.29
1888.34
1759.13
1619.63
1472.01
1325.82
1183.4
1048.19
922.706
808.334
706.214
617.291
534.786
500
500
500
500
500
500
500
500
500
500
500
500
500
500
500
500
500
500
500
500
500
500
500
500
500
500
500
500
500
500
500
500
500
500
500
500
500
500
500
500
500
500
500
500.001
500.002
500.004
500.011
500.025
500.057
500.127
500.276
500.581
501.176
502.27
503.945
506.676
511.233
518.605
529.48
544.532
564.428
588.204
617.076
651.087
690.031
733.594
781.586
833.184
887.615
943.902
1003.35
1061.97
1122.7
1187.21
1259.57
1345.66
1437.82
1531.77
1625.78
1721.92
1821.26
1921.52
2014.38
2089.25
2128.14
2123.54
2077.52
1996.58
1888.72
1759.62
1620.21
1472.62
1326.46
1184.03
1048.78
923.218
808.751
706.521
617.48
534.847
500
500
500
500
500
500
500
500
500
500
500
500
500
500
500
500
500
500
500
500
500
500
500
500
500
500
500
500
500
500
500
500
500
500
500
500
500
500
500
500
500
500
500
500.001
500.002
500.004
500.01
500.023
500.053
500.12
500.261
500.554
501.132
502.235
503.899
506.607
511.16
518.545
529.465
544.6
564.607
588.535
617.623
651.901
691.115
734.807
783.089
834.661
889.177
945.48
1004.94
1063.54
1124.2
1188.79
1261.37
1347.51
1439.56
1533.27
1627.06
1722.94
1822.14
1922.22
2014.91
2089.67
2128.56
2124.08
2078.28
1997.6
1889.99
1761.08
1621.82
1474.2
1328.04
1185.52
1050.13
924.36
809.667
707.188
617.888
534.977
500
500
500
500
500
500
500
500
500
500
500
500
500
500
500
500
500
500
500
500
500
500
500
500
500
500
500
500
500
500
500
500
500
500
500
500
500
500
500
500
500
500
500
500.001
500.002
500.004
500.009
500.021
500.049
500.112
500.248
500.53
501.095
502.183
503.833
506.519
511.048
518.424
529.367
544.568
564.692
588.781
618.104
652.585
691.93
735.857
784.231
835.952
890.577
946.975
1006.53
1065.11
1125.7
1190.22
1262.81
1348.9
1440.8
1534.31
1627.89
1723.49
1822.48
1922.37
2014.94
2089.79
2128.99
2124.96
2079.7
1999.56
1892.42
1763.78
1624.77
1477.06
1330.86
1188.17
1052.49
926.376
811.263
708.338
618.588
535.201
500
500
500
500
500
500
500
500
500
500
500
500
500
500
500
500
500
500
500
500
500
500
500
500
500
500
500
500
500
500
500
500
500
500
500
500
500
500
500
500
500
500
500
500.001
500.002
500.004
500.009
500.02
500.046
500.105
500.234
500.506
501.054
502.117
503.739
506.392
510.889
518.24
529.185
544.428
564.647
588.859
618.328
652.981
692.551
736.67
785.234
837.242
891.836
948.281
1007.75
1066.31
1126.88
1191.4
1263.99
1349.98
1441.68
1534.92
1628.22
1723.5
1822.22
1921.87
2014.37
2089.56
2129.42
2126.24
2081.93
2002.68
1896.3
1768.06
1629.41
1481.53
1335.24
1192.25
1056.12
929.432
813.69
710.089
619.655
535.542
500
500
500
500
500
500
500
500
500
500
500
500
500
500
500
500
500
500
500
500
500
500
500
500
500
500
500
500
500
500
500
500
500
500
500
500
500
500
500
500
500
500
500
500.001
500.001
500.003
500.009
500.019
500.042
500.096
500.216
500.476
501.002
502.03
503.598
506.224
510.722
518.04
528.958
544.202
564.492
588.817
618.447
653.298
693.091
737.444
786.342
838.421
893.271
949.663
1008.97
1067.5
1128.01
1192.45
1264.99
1350.83
1442.26
1535.14
1628.08
1722.97
1821.32
1920.67
2013.15
2088.92
2129.87
2127.98
2085.09
2007.16
1901.88
1774.24
1636.09
1487.99
1341.54
1198.11
1061.27
933.79
817.159
712.595
621.181
536.03
500
500
500
500
500
500
500
500
500
500
500
500
500
500
500
500
500
500
500
500
500
500
500
500
500
500
500
500
500
500
500
500
500
500
500
500
500
500
500
500
500
500
500
500.001
500.001
500.003
500.008
500.019
500.041
500.088
500.199
500.439
500.943
501.936
503.469
506.022
510.456
517.74
528.646
543.903
564.27
588.72
618.533
653.613
693.649
738.331
787.464
839.876
894.735
951.198
1010.46
1068.91
1129.33
1193.73
1266.17
1351.66
1442.64
1535.06
1627.52
1721.95
1819.8
1918.79
2011.28
2087.87
2130.3
2130.19
2089.23
2013.09
1909.31
1782.54
1645.1
1496.75
1350.15
1206.14
1068.38
939.834
821.95
716.047
623.279
536.701
500
500
500
500
500
500
500
500
500
500
500
500
500
500
500
500
500
500
500
500
500
500
500
500
500
500
500
500
500
500.001
500.001
500.001
500.001
500.001
500.001
500.001
500.001
500.001
500.001
500.001
500.001
500.001
500.001
500.001
500.001
500.003
500.007
500.016
500.039
500.085
500.181
500.402
500.865
501.759
503.368
505.83
510.157
517.347
528.206
543.477
563.932
588.531
618.587
654.003
694.506
739.573
788.898
841.678
896.596
953.09
1012.21
1070.63
1130.98
1195.33
1267.84
1351.86
1442.68
1534.7
1626.65
1720.55
1817.82
1916.35
2008.85
2086.42
2130.67
2132.76
2094.2
2020.29
1918.44
1792.97
1656.43
1508.07
1361.31
1216.62
1077.75
947.711
828.179
720.525
625.998
537.571
500
500
500
500
500
500
500
500
500
500
500
500
500
500
500
500
500
500
500
500
500
500
500
500
500
500
500
500
500.001
500.001
500.001
500.001
500.001
500.001
500.001
500.001
500.001
500.001
500.001
500.001
500.001
500.001
500.001
500.001
500.001
500.003
500.006
500.014
500.034
500.078
500.159
500.355
500.757
501.579
503.095
505.671
509.882
516.95
527.757
543.055
563.628
588.434
618.779
654.516
695.411
740.93
790.64
843.739
898.898
955.523
1014.64
1072.87
1133.06
1197.27
1269.63
1353.07
1443.31
1534.67
1625.94
1719.18
1815.74
1913.7
2006.07
2084.46
2130.75
2135.35
2099.48
2027.93
1927.82
1806.18
1670.33
1521.63
1374.72
1229.25
1089.04
957.134
835.66
725.937
629.291
538.631
500
500
500
500
500
500
500
500
500
500
500
500
500
500
500
500
500
500
500
500
500
500
500
500
500
500
500
500.001
500.001
500.001
500.001
500.001
500.001
500.001
500.002
500.002
500.002
500.002
500.002
500.002
500.002
500.002
500.002
500.002
500.002
500.003
500.005
500.012
500.028
500.066
500.152
500.312
500.677
501.419
502.824
505.423
509.562
516.512
527.256
542.525
563.215
588.253
618.994
655.324
696.791
742.93
793.463
846.794
901.884
958.363
1017.24
1075.46
1135.49
1199.6
1271.85
1355.08
1444.61
1535.21
1625.75
1718.31
1814.27
1911.88
2004.51
2081.67
2130.33
2137.7
2104.73
2035.87
1938.26
1819.09
1684.68
1536.38
1389.03
1242.83
1101.5
967.634
843.884
731.869
632.872
539.781
500
500
500
500
500
500
500
500
500
500
500
500
500
500
500
500
500
500
500
500
500
500
500
500
500
500
500
500.001
500.001
500.001
500.001
500.001
500.001
500.002
500.002
500.002
500.002
500.002
500.002
500.002
500.002
500.002
500.002
500.002
500.002
500.003
500.005
500.01
500.023
500.055
500.127
500.29
500.587
501.234
502.546
504.926
508.926
515.748
526.406
541.904
562.845
588.22
619.41
656.259
698.352
745.179
796.241
849.74
905.037
961.736
1020.09
1078.08
1137.94
1201.81
1273.86
1356.77
1445.82
1535.86
1625.84
1717.86
1813.32
1910.52
2002.97
2080.36
2130.24
2139.46
2108.62
2041.99
1946.3
1828.59
1695.28
1547.51
1400.22
1253.46
1111.25
976.665
851.493
737.358
636.172
540.861
)
;

boundaryField
{
    fuel
    {
        type            fixedValue;
        value           uniform 500;
    }
    air
    {
        type            fixedValue;
        value           uniform 500;
    }
    outlet
    {
        type            inletOutlet;
        inletValue      uniform 500;
        value           nonuniform List<scalar> 
200
(
500
500
500
500
500
500
500
500
500
500
500
500
500
500
500
500
500
500
500
500
500
500
500
500
500
500
500
500
500
500
500.001
500.001
500.001
500.001
500.001
500.001
500.001
500.001
500.001
500.001
500.001
500.001
500.001
500.001
500.001
500.002
500.004
500.009
500.022
500.054
500.124
500.282
500.573
501.213
502.483
504.822
508.756
515.493
526.002
541.318
562.093
587.345
618.441
655.235
697.336
744.131
795.186
848.68
903.948
960.636
1019.06
1076.99
1136.84
1200.64
1272.43
1355.12
1444.12
1534.18
1624.17
1716.26
1811.65
1908.83
2001.38
2079.11
2129.61
2139.57
2109.42
2043.29
1948.05
1830.61
1697.42
1549.6
1402.2
1255.25
1112.81
977.971
852.533
738.118
636.643
541.013
500
500
500
500
500
500
500
500
500
500
500
500
500
500
500
500
500
500
500
500
500
500
500
500
500
500
500.001
500.001
500.001
500.001
500.001
500.001
500.001
500.002
500.002
500.002
500.002
500.002
500.002
500.002
500.002
500.002
500.002
500.002
500.002
500.003
500.005
500.01
500.023
500.055
500.127
500.29
500.587
501.234
502.545
504.925
508.925
515.746
526.403
541.901
562.84
588.214
619.402
656.249
698.342
745.168
796.229
849.727
905.023
961.716
1020.08
1078.06
1137.93
1201.8
1273.85
1356.75
1445.81
1535.84
1625.83
1717.84
1813.3
1910.5
2002.96
2080.35
2130.24
2139.46
2108.62
2041.98
1946.31
1828.6
1695.3
1547.55
1400.29
1253.49
1111.25
976.663
851.491
737.358
636.172
540.861
)
;
    }
    frontAndBack
    {
        type            empty;
    }
    internal
    {
        type            internal;
    }
}


// ************************************************************************* //
