/*--------------------------------*- C++ -*----------------------------------*\
  =========                 |
  \\      /  F ield         | OpenFOAM: The Open Source CFD Toolbox
   \\    /   O peration     | Website:  https://openfoam.org
    \\  /    A nd           | Version:  10
     \\/     M anipulation  |
\*---------------------------------------------------------------------------*/
FoamFile
{
    format      ascii;
    class       volVectorField;
    location    "1";
    object      U;
}
// * * * * * * * * * * * * * * * * * * * * * * * * * * * * * * * * * * * * * //

dimensions      [0 1 -1 0 0 0 0];

internalField   nonuniform List<vector> 
4000
(
(0.137843 -0.0919447 0)
(0.244688 -0.131251 0)
(0.294275 -0.13506 0)
(0.301146 -0.136414 0)
(0.2888 -0.13584 0)
(0.270893 -0.126887 0)
(0.261654 -0.114879 0)
(0.254775 -0.10035 0)
(0.250828 -0.0855421 0)
(0.245561 -0.0771969 0)
(0.239915 -0.0678314 0)
(0.218618 -0.0571378 0)
(0.203382 -0.0529635 0)
(0.19395 -0.0518446 0)
(0.187163 -0.0523937 0)
(0.181572 -0.0539648 0)
(0.176693 -0.0561754 0)
(0.172556 -0.0588007 0)
(0.168996 -0.0616259 0)
(0.165711 -0.0645935 0)
(0.162661 -0.0676504 0)
(0.159874 -0.070737 0)
(0.156942 -0.0737424 0)
(0.153836 -0.0767974 0)
(0.150884 -0.0798128 0)
(0.147922 -0.0827658 0)
(0.144849 -0.0856385 0)
(0.141701 -0.0884445 0)
(0.13847 -0.0911613 0)
(0.135111 -0.0938118 0)
(0.131693 -0.0964034 0)
(0.128217 -0.0989129 0)
(0.124547 -0.101227 0)
(0.120757 -0.103499 0)
(0.116901 -0.105618 0)
(0.112941 -0.10765 0)
(0.109079 -0.109708 0)
(0.105423 -0.11187 0)
(0.101722 -0.114181 0)
(0.0980201 -0.116646 0)
(0.0944252 -0.11919 0)
(0.0908577 -0.121801 0)
(0.0872644 -0.124453 0)
(0.0836339 -0.127141 0)
(0.0800371 -0.129848 0)
(0.0764401 -0.132525 0)
(0.0727539 -0.135173 0)
(0.0689785 -0.137787 0)
(0.0651033 -0.140353 0)
(0.0611255 -0.14286 0)
(0.0570484 -0.145298 0)
(0.052904 -0.147667 0)
(0.0487435 -0.149999 0)
(0.0446415 -0.152392 0)
(0.0407067 -0.155058 0)
(0.0370158 -0.158391 0)
(0.0336853 -0.163037 0)
(0.0308643 -0.169962 0)
(0.0285654 -0.18027 0)
(0.0267179 -0.194991 0)
(0.0250614 -0.214771 0)
(0.0231322 -0.239697 0)
(0.0205259 -0.2694 0)
(0.0168697 -0.302831 0)
(0.0117316 -0.338496 0)
(0.00463331 -0.374779 0)
(-0.00399362 -0.410184 0)
(-0.0141625 -0.443176 0)
(-0.0262362 -0.472702 0)
(-0.0397639 -0.498123 0)
(-0.054357 -0.519154 0)
(-0.0696678 -0.535689 0)
(-0.0854916 -0.547745 0)
(-0.101675 -0.55547 0)
(-0.118086 -0.55917 0)
(-0.134534 -0.559315 0)
(-0.150738 -0.556457 0)
(-0.166453 -0.551105 0)
(-0.181595 -0.543722 0)
(-0.19621 -0.534808 0)
(-0.210321 -0.524954 0)
(-0.223767 -0.514811 0)
(-0.236059 -0.50497 0)
(-0.246286 -0.495764 0)
(-0.253217 -0.487038 0)
(-0.256007 -0.478033 0)
(-0.254795 -0.467792 0)
(-0.250281 -0.455596 0)
(-0.243143 -0.440967 0)
(-0.2339 -0.423571 0)
(-0.222863 -0.403115 0)
(-0.210475 -0.379214 0)
(-0.197393 -0.351669 0)
(-0.184008 -0.320418 0)
(-0.170531 -0.285272 0)
(-0.157201 -0.245976 0)
(-0.144198 -0.202165 0)
(-0.131542 -0.153295 0)
(-0.118831 -0.0986246 0)
(-0.106097 -0.0363876 0)
(0.107371 0.053507 0)
(0.131472 0.0865342 0)
(0.149137 0.0890883 0)
(0.159485 0.0784312 0)
(0.162861 0.0663758 0)
(0.162015 0.0555025 0)
(0.160785 0.0440564 0)
(0.160948 0.0311015 0)
(0.162351 0.0168187 0)
(0.163342 -0.000274746 0)
(0.162178 -0.0180098 0)
(0.159481 -0.0302863 0)
(0.157832 -0.0383751 0)
(0.157332 -0.0440934 0)
(0.157122 -0.0486561 0)
(0.156743 -0.0528265 0)
(0.156049 -0.0564024 0)
(0.154922 -0.0595431 0)
(0.153385 -0.0624049 0)
(0.15148 -0.0650354 0)
(0.149315 -0.0674287 0)
(0.146961 -0.0696398 0)
(0.144356 -0.0717679 0)
(0.141517 -0.0737273 0)
(0.138506 -0.0755868 0)
(0.135336 -0.0773516 0)
(0.132014 -0.0790578 0)
(0.128554 -0.0806744 0)
(0.124965 -0.0822311 0)
(0.121252 -0.0837193 0)
(0.117508 -0.0851631 0)
(0.114057 -0.0865724 0)
(0.110682 -0.088147 0)
(0.107024 -0.0896815 0)
(0.103496 -0.0914471 0)
(0.100288 -0.0935013 0)
(0.0971775 -0.0957183 0)
(0.0940003 -0.0980971 0)
(0.0909324 -0.100565 0)
(0.088017 -0.10302 0)
(0.0851142 -0.105489 0)
(0.0821654 -0.10795 0)
(0.0791712 -0.110361 0)
(0.076082 -0.112719 0)
(0.0729205 -0.115028 0)
(0.0696592 -0.117339 0)
(0.0662933 -0.119626 0)
(0.0628521 -0.121861 0)
(0.0593288 -0.124029 0)
(0.0557247 -0.126118 0)
(0.0520545 -0.128123 0)
(0.0483351 -0.130049 0)
(0.0446121 -0.131944 0)
(0.040964 -0.13391 0)
(0.0374998 -0.136155 0)
(0.0343252 -0.139053 0)
(0.0315476 -0.143175 0)
(0.0292774 -0.14937 0)
(0.0275229 -0.158603 0)
(0.0261968 -0.171771 0)
(0.0250705 -0.189504 0)
(0.0237427 -0.211952 0)
(0.021834 -0.238872 0)
(0.0190021 -0.269476 0)
(0.0148419 -0.302577 0)
(0.00899021 -0.336759 0)
(0.00134715 -0.370546 0)
(-0.00800629 -0.402876 0)
(-0.0191507 -0.432672 0)
(-0.0319621 -0.459239 0)
(-0.046199 -0.481943 0)
(-0.0615991 -0.500491 0)
(-0.0777821 -0.514828 0)
(-0.094525 -0.525058 0)
(-0.111696 -0.531405 0)
(-0.129103 -0.534209 0)
(-0.146431 -0.533916 0)
(-0.163392 -0.530982 0)
(-0.179889 -0.525861 0)
(-0.195989 -0.518993 0)
(-0.211755 -0.510808 0)
(-0.227043 -0.501699 0)
(-0.241309 -0.491965 0)
(-0.253466 -0.481742 0)
(-0.262016 -0.470936 0)
(-0.265927 -0.459206 0)
(-0.265352 -0.446113 0)
(-0.261098 -0.431237 0)
(-0.253943 -0.414211 0)
(-0.244468 -0.39471 0)
(-0.233003 -0.372441 0)
(-0.220061 -0.347151 0)
(-0.206394 -0.318689 0)
(-0.192367 -0.286965 0)
(-0.178116 -0.251894 0)
(-0.163877 -0.21344 0)
(-0.149827 -0.171639 0)
(-0.135879 -0.126584 0)
(-0.121504 -0.0783743 0)
(-0.106995 -0.0271943 0)
(0.10131 0.00317963 0)
(0.109898 0.00106079 0)
(0.121327 -0.000156071 0)
(0.132151 -0.0023982 0)
(0.141514 -0.00520871 0)
(0.149626 -0.00811856 0)
(0.156651 -0.0111397 0)
(0.162461 -0.0146772 0)
(0.166573 -0.0185476 0)
(0.168823 -0.0221335 0)
(0.169472 -0.0255508 0)
(0.168387 -0.0283636 0)
(0.165973 -0.0307251 0)
(0.162924 -0.0330491 0)
(0.159799 -0.0353898 0)
(0.156523 -0.0373915 0)
(0.153118 -0.039587 0)
(0.149691 -0.0418974 0)
(0.146221 -0.0443069 0)
(0.14273 -0.046805 0)
(0.139319 -0.0493837 0)
(0.135946 -0.0519697 0)
(0.132614 -0.0545804 0)
(0.129319 -0.0571723 0)
(0.126054 -0.0597153 0)
(0.122803 -0.0622272 0)
(0.119599 -0.0646895 0)
(0.116506 -0.0671399 0)
(0.113507 -0.0695765 0)
(0.110614 -0.0720046 0)
(0.107856 -0.0744269 0)
(0.104847 -0.0768824 0)
(0.101922 -0.0794889 0)
(0.0994699 -0.0821847 0)
(0.0970572 -0.0848915 0)
(0.0946458 -0.0875614 0)
(0.0921815 -0.0902162 0)
(0.0896317 -0.0927812 0)
(0.0870771 -0.0952694 0)
(0.0844154 -0.0976891 0)
(0.0816103 -0.100086 0)
(0.0788008 -0.102448 0)
(0.0759548 -0.104813 0)
(0.0730012 -0.107163 0)
(0.0698822 -0.109481 0)
(0.0666241 -0.111753 0)
(0.063315 -0.113957 0)
(0.0599509 -0.116089 0)
(0.0565213 -0.118143 0)
(0.0530258 -0.12011 0)
(0.0494773 -0.121989 0)
(0.0459065 -0.123796 0)
(0.0423654 -0.125575 0)
(0.0389191 -0.127426 0)
(0.0356321 -0.129554 0)
(0.0326288 -0.132311 0)
(0.0300388 -0.136263 0)
(0.0279305 -0.142203 0)
(0.0263074 -0.151027 0)
(0.0250984 -0.16356 0)
(0.0241069 -0.180382 0)
(0.0229851 -0.201641 0)
(0.0213936 -0.227119 0)
(0.0189827 -0.256102 0)
(0.0154079 -0.287511 0)
(0.0103637 -0.320046 0)
(0.00355522 -0.352378 0)
(-0.00478522 -0.383364 0)
(-0.0147703 -0.412006 0)
(-0.0266993 -0.437623 0)
(-0.0402904 -0.45979 0)
(-0.0552186 -0.478211 0)
(-0.0712183 -0.492808 0)
(-0.0881135 -0.503632 0)
(-0.105751 -0.510837 0)
(-0.123969 -0.514681 0)
(-0.142432 -0.515521 0)
(-0.160792 -0.513723 0)
(-0.178946 -0.509671 0)
(-0.196958 -0.503734 0)
(-0.214868 -0.496255 0)
(-0.232467 -0.48753 0)
(-0.249075 -0.477777 0)
(-0.263399 -0.467104 0)
(-0.273673 -0.455449 0)
(-0.278702 -0.442582 0)
(-0.278656 -0.428239 0)
(-0.274425 -0.412157 0)
(-0.266859 -0.394072 0)
(-0.256572 -0.373708 0)
(-0.244005 -0.350855 0)
(-0.229807 -0.32538 0)
(-0.214759 -0.297176 0)
(-0.199235 -0.266174 0)
(-0.183407 -0.232352 0)
(-0.167569 -0.195741 0)
(-0.151982 -0.156428 0)
(-0.136706 -0.11456 0)
(-0.121452 -0.0704464 0)
(-0.106613 -0.0243589 0)
(0.101081 0.00939598 0)
(0.103728 0.0160292 0)
(0.107202 0.0202037 0)
(0.110982 0.0221545 0)
(0.114818 0.0223887 0)
(0.118213 0.0212781 0)
(0.120972 0.0190513 0)
(0.122948 0.0159468 0)
(0.124467 0.0117943 0)
(0.125682 0.00684738 0)
(0.126457 0.00133164 0)
(0.126762 -0.00444786 0)
(0.126715 -0.0101717 0)
(0.126339 -0.0156338 0)
(0.125817 -0.020607 0)
(0.125157 -0.025194 0)
(0.124331 -0.0294786 0)
(0.123362 -0.0334653 0)
(0.122239 -0.0371885 0)
(0.120958 -0.0406405 0)
(0.119642 -0.0438543 0)
(0.118194 -0.0468983 0)
(0.116507 -0.0497392 0)
(0.114725 -0.0524074 0)
(0.112894 -0.0549587 0)
(0.111054 -0.0574242 0)
(0.109169 -0.0598081 0)
(0.107213 -0.0621412 0)
(0.105254 -0.0644393 0)
(0.103261 -0.0667215 0)
(0.10121 -0.0690108 0)
(0.0990674 -0.0713072 0)
(0.0968487 -0.0734797 0)
(0.0946203 -0.075669 0)
(0.0923772 -0.0778777 0)
(0.0900559 -0.0800952 0)
(0.0876536 -0.082331 0)
(0.0851499 -0.0845566 0)
(0.082601 -0.0867766 0)
(0.0800206 -0.0890327 0)
(0.0773625 -0.0912633 0)
(0.0745946 -0.0934725 0)
(0.0717203 -0.0956753 0)
(0.0688153 -0.0978548 0)
(0.0658655 -0.0999947 0)
(0.0628613 -0.102061 0)
(0.0597927 -0.104047 0)
(0.0566498 -0.10595 0)
(0.0534363 -0.107765 0)
(0.050161 -0.109489 0)
(0.0468426 -0.111129 0)
(0.0435167 -0.112706 0)
(0.0402379 -0.114269 0)
(0.0370636 -0.115921 0)
(0.0340609 -0.117851 0)
(0.031329 -0.120382 0)
(0.0289923 -0.124056 0)
(0.027144 -0.129591 0)
(0.0257891 -0.137799 0)
(0.0248514 -0.14943 0)
(0.0241357 -0.165027 0)
(0.0233109 -0.184757 0)
(0.022049 -0.208475 0)
(0.0200162 -0.235576 0)
(0.0168509 -0.265095 0)
(0.0122432 -0.295881 0)
(0.00589989 -0.326728 0)
(-0.00212048 -0.356503 0)
(-0.0118755 -0.384361 0)
(-0.0235343 -0.409559 0)
(-0.0368834 -0.431608 0)
(-0.0516667 -0.450216 0)
(-0.0676755 -0.465282 0)
(-0.0847532 -0.476805 0)
(-0.102806 -0.484889 0)
(-0.121688 -0.48974 0)
(-0.141014 -0.49162 0)
(-0.160438 -0.490839 0)
(-0.179876 -0.487726 0)
(-0.199367 -0.482591 0)
(-0.218907 -0.475717 0)
(-0.238221 -0.467348 0)
(-0.256552 -0.45767 0)
(-0.272409 -0.446784 0)
(-0.283791 -0.434642 0)
(-0.28946 -0.421096 0)
(-0.289656 -0.405994 0)
(-0.285292 -0.389174 0)
(-0.277159 -0.37046 0)
(-0.265969 -0.349654 0)
(-0.2524 -0.326656 0)
(-0.23713 -0.301398 0)
(-0.220879 -0.273821 0)
(-0.204082 -0.243914 0)
(-0.187022 -0.211715 0)
(-0.170055 -0.177328 0)
(-0.153467 -0.140893 0)
(-0.137363 -0.102596 0)
(-0.121565 -0.0627563 0)
(-0.106544 -0.0216026 0)
(0.0999671 0.000951522 0)
(0.100673 -0.000579253 0)
(0.102218 -0.00223334 0)
(0.104436 -0.00386907 0)
(0.107017 -0.00559127 0)
(0.1097 -0.00746576 0)
(0.112314 -0.00951243 0)
(0.114688 -0.0116568 0)
(0.116703 -0.0137789 0)
(0.11825 -0.0158767 0)
(0.119277 -0.0179564 0)
(0.119834 -0.0200023 0)
(0.119973 -0.0220077 0)
(0.119786 -0.0239617 0)
(0.119239 -0.0260514 0)
(0.118461 -0.0281628 0)
(0.117581 -0.0302211 0)
(0.11658 -0.0322611 0)
(0.115475 -0.0343089 0)
(0.114285 -0.0363787 0)
(0.112906 -0.038484 0)
(0.111445 -0.0406756 0)
(0.110013 -0.0429163 0)
(0.108504 -0.0452059 0)
(0.106891 -0.0475209 0)
(0.105206 -0.0498517 0)
(0.103464 -0.0522168 0)
(0.101673 -0.0545924 0)
(0.0998341 -0.0569859 0)
(0.0979174 -0.0593959 0)
(0.0959771 -0.0618151 0)
(0.0940141 -0.0642503 0)
(0.0919842 -0.0666708 0)
(0.0899155 -0.0690747 0)
(0.0878046 -0.0714759 0)
(0.085644 -0.0738731 0)
(0.0834524 -0.0762528 0)
(0.0812249 -0.0786128 0)
(0.0788754 -0.0809323 0)
(0.0764621 -0.0832294 0)
(0.074024 -0.0854882 0)
(0.0714934 -0.0877012 0)
(0.0688788 -0.0898376 0)
(0.0661788 -0.0918991 0)
(0.0633767 -0.0938832 0)
(0.0604825 -0.0957906 0)
(0.0575127 -0.0976209 0)
(0.0544676 -0.0993702 0)
(0.0513538 -0.101037 0)
(0.0481829 -0.102622 0)
(0.0449778 -0.104134 0)
(0.0417792 -0.105593 0)
(0.0386494 -0.107048 0)
(0.0356268 -0.108595 0)
(0.0327544 -0.110407 0)
(0.03014 -0.112796 0)
(0.0279169 -0.116261 0)
(0.0261672 -0.121465 0)
(0.0248967 -0.129156 0)
(0.0240488 -0.140031 0)
(0.0234418 -0.154589 0)
(0.0227643 -0.172993 0)
(0.0217116 -0.195114 0)
(0.0199636 -0.220415 0)
(0.0171472 -0.248038 0)
(0.0129259 -0.27694 0)
(0.0070217 -0.306031 0)
(-0.000606118 -0.334258 0)
(-0.0100181 -0.360789 0)
(-0.0213553 -0.384922 0)
(-0.0345081 -0.406195 0)
(-0.0492277 -0.424319 0)
(-0.06529 -0.43917 0)
(-0.0825697 -0.450723 0)
(-0.101014 -0.459046 0)
(-0.120444 -0.464285 0)
(-0.140465 -0.466642 0)
(-0.160754 -0.46639 0)
(-0.181207 -0.46381 0)
(-0.201837 -0.459165 0)
(-0.222608 -0.452698 0)
(-0.243195 -0.444625 0)
(-0.262742 -0.43511 0)
(-0.279592 -0.424239 0)
(-0.291635 -0.411988 0)
(-0.297644 -0.398279 0)
(-0.297875 -0.383013 0)
(-0.293253 -0.366082 0)
(-0.284599 -0.347376 0)
(-0.272707 -0.326793 0)
(-0.258326 -0.304279 0)
(-0.242138 -0.279786 0)
(-0.224896 -0.2533 0)
(-0.207105 -0.224852 0)
(-0.189115 -0.19451 0)
(-0.171322 -0.162384 0)
(-0.15404 -0.128615 0)
(-0.137434 -0.0933867 0)
(-0.121398 -0.0569896 0)
(-0.106406 -0.0196035 0)
(0.100279 0.00265154 0)
(0.100792 0.00364342 0)
(0.101618 0.00422216 0)
(0.102399 0.00446433 0)
(0.103171 0.00418329 0)
(0.103887 0.00347153 0)
(0.104649 0.00222154 0)
(0.105403 0.000522198 0)
(0.106105 -0.00157915 0)
(0.106718 -0.00400503 0)
(0.107216 -0.00665706 0)
(0.107585 -0.0094486 0)
(0.107818 -0.0123135 0)
(0.107923 -0.0151969 0)
(0.107895 -0.018071 0)
(0.107714 -0.0208769 0)
(0.107413 -0.023616 0)
(0.106965 -0.0263245 0)
(0.10637 -0.0290025 0)
(0.105637 -0.0316486 0)
(0.104773 -0.0342634 0)
(0.103802 -0.0368018 0)
(0.102746 -0.0393001 0)
(0.101599 -0.0417503 0)
(0.100395 -0.0441671 0)
(0.0991238 -0.0465496 0)
(0.0977842 -0.0488992 0)
(0.0963761 -0.0512174 0)
(0.0949015 -0.0535071 0)
(0.0933634 -0.0557694 0)
(0.0917198 -0.0579955 0)
(0.0899993 -0.0602056 0)
(0.0882422 -0.0623887 0)
(0.0864087 -0.0645464 0)
(0.0844958 -0.0666782 0)
(0.0825083 -0.0687858 0)
(0.0804428 -0.0708635 0)
(0.0782883 -0.0729207 0)
(0.0760384 -0.0749489 0)
(0.0736905 -0.0769227 0)
(0.0712622 -0.0788618 0)
(0.06876 -0.080757 0)
(0.0661692 -0.0826022 0)
(0.0635043 -0.0843958 0)
(0.0607659 -0.0861324 0)
(0.0579514 -0.0878029 0)
(0.0550735 -0.0894059 0)
(0.0521361 -0.0909385 0)
(0.0491453 -0.0923984 0)
(0.0461134 -0.0937859 0)
(0.0430619 -0.0951077 0)
(0.0400297 -0.0963854 0)
(0.0370768 -0.0976694 0)
(0.0342438 -0.0990573 0)
(0.0315623 -0.100708 0)
(0.0291247 -0.102913 0)
(0.027069 -0.106135 0)
(0.0254838 -0.110991 0)
(0.0243618 -0.118165 0)
(0.0236429 -0.128306 0)
(0.0231609 -0.141887 0)
(0.0226148 -0.159077 0)
(0.0217073 -0.179779 0)
(0.0201238 -0.203515 0)
(0.0174928 -0.229499 0)
(0.0134656 -0.256759 0)
(0.00776314 -0.284273 0)
(0.000319239 -0.311065 0)
(-0.0089045 -0.336344 0)
(-0.0200599 -0.359459 0)
(-0.0330995 -0.379946 0)
(-0.0477837 -0.397503 0)
(-0.0639242 -0.412001 0)
(-0.0814009 -0.423404 0)
(-0.100148 -0.431751 0)
(-0.119987 -0.437154 0)
(-0.140521 -0.439787 0)
(-0.161428 -0.439885 0)
(-0.182594 -0.437692 0)
(-0.204014 -0.433438 0)
(-0.225629 -0.427342 0)
(-0.247066 -0.419594 0)
(-0.26739 -0.410347 0)
(-0.284847 -0.399685 0)
(-0.297271 -0.387617 0)
(-0.303432 -0.3741 0)
(-0.303604 -0.359072 0)
(-0.298728 -0.342466 0)
(-0.28966 -0.324217 0)
(-0.277235 -0.304273 0)
(-0.262238 -0.282603 0)
(-0.245386 -0.259196 0)
(-0.227453 -0.234067 0)
(-0.208985 -0.207266 0)
(-0.190371 -0.178872 0)
(-0.172031 -0.148994 0)
(-0.15431 -0.117764 0)
(-0.137411 -0.085353 0)
(-0.121256 -0.0520167 0)
(-0.106314 -0.0178941 0)
(0.100009 0.000153627 0)
(0.100209 -0.000981345 0)
(0.100618 -0.00239567 0)
(0.101194 -0.00386915 0)
(0.101871 -0.00530357 0)
(0.102589 -0.00671506 0)
(0.103292 -0.00813565 0)
(0.103936 -0.009588 0)
(0.104491 -0.0110876 0)
(0.104929 -0.0126434 0)
(0.105232 -0.0142574 0)
(0.105396 -0.0159309 0)
(0.105428 -0.0176698 0)
(0.105329 -0.0194665 0)
(0.105106 -0.0213179 0)
(0.104754 -0.0232455 0)
(0.104265 -0.0252361 0)
(0.103687 -0.0272347 0)
(0.103034 -0.0292293 0)
(0.102296 -0.0312224 0)
(0.101473 -0.0332115 0)
(0.100565 -0.0351893 0)
(0.099577 -0.037165 0)
(0.0985112 -0.0391473 0)
(0.0973654 -0.0411403 0)
(0.0961379 -0.0431437 0)
(0.0948299 -0.0451562 0)
(0.0934432 -0.0471765 0)
(0.0919786 -0.049203 0)
(0.0904337 -0.0512348 0)
(0.0888117 -0.0532715 0)
(0.0871181 -0.0552947 0)
(0.0853552 -0.0573145 0)
(0.0835226 -0.0593289 0)
(0.081614 -0.0613316 0)
(0.0796332 -0.0633191 0)
(0.0775795 -0.065289 0)
(0.075456 -0.0672368 0)
(0.0732657 -0.0691544 0)
(0.0709994 -0.0710354 0)
(0.0686608 -0.0728704 0)
(0.0662536 -0.0746602 0)
(0.0637735 -0.0763987 0)
(0.0612213 -0.07808 0)
(0.0586018 -0.0797028 0)
(0.0559156 -0.08126 0)
(0.0531634 -0.0827485 0)
(0.0503491 -0.0841656 0)
(0.0474793 -0.0855099 0)
(0.0445664 -0.0867828 0)
(0.0416338 -0.0879933 0)
(0.0387206 -0.0891639 0)
(0.0358858 -0.0903436 0)
(0.0331698 -0.0916245 0)
(0.0306041 -0.0931563 0)
(0.0282777 -0.0952062 0)
(0.0263205 -0.0981947 0)
(0.0248222 -0.102689 0)
(0.0237822 -0.109319 0)
(0.0231427 -0.118682 0)
(0.0227442 -0.131222 0)
(0.0222971 -0.147116 0)
(0.0215112 -0.166295 0)
(0.0200789 -0.18834 0)
(0.0176385 -0.212542 0)
(0.0138449 -0.238011 0)
(0.00838782 -0.263791 0)
(0.0011174 -0.28897 0)
(-0.00801629 -0.312816 0)
(-0.0191 -0.334702 0)
(-0.0320731 -0.354174 0)
(-0.0467358 -0.37093 0)
(-0.0629213 -0.384837 0)
(-0.0805227 -0.39584 0)
(-0.0994891 -0.403965 0)
(-0.119637 -0.409301 0)
(-0.140557 -0.412 0)
(-0.161918 -0.412271 0)
(-0.183597 -0.410329 0)
(-0.205575 -0.406382 0)
(-0.22777 -0.400624 0)
(-0.249778 -0.393231 0)
(-0.27061 -0.384346 0)
(-0.28845 -0.374059 0)
(-0.301098 -0.362395 0)
(-0.307326 -0.349336 0)
(-0.30742 -0.334845 0)
(-0.30234 -0.31888 0)
(-0.292969 -0.301407 0)
(-0.280163 -0.282397 0)
(-0.264739 -0.261841 0)
(-0.247433 -0.239748 0)
(-0.229028 -0.216147 0)
(-0.210099 -0.191093 0)
(-0.191072 -0.164668 0)
(-0.17238 -0.136974 0)
(-0.154391 -0.108135 0)
(-0.137324 -0.078299 0)
(-0.121121 -0.047692 0)
(-0.10624 -0.016421 0)
(0.100063 0.000538548 0)
(0.100264 0.000146943 0)
(0.100458 -0.000482015 0)
(0.100679 -0.00130961 0)
(0.100948 -0.00228215 0)
(0.101216 -0.00340604 0)
(0.101457 -0.00467931 0)
(0.101664 -0.00609204 0)
(0.10183 -0.00763126 0)
(0.101944 -0.00928093 0)
(0.101996 -0.0110248 0)
(0.101977 -0.0128389 0)
(0.10188 -0.0146925 0)
(0.101711 -0.0165714 0)
(0.101456 -0.0184713 0)
(0.101114 -0.020381 0)
(0.100682 -0.0222977 0)
(0.100154 -0.024222 0)
(0.0995321 -0.0261517 0)
(0.0988176 -0.028082 0)
(0.0980166 -0.0300125 0)
(0.0971394 -0.0319498 0)
(0.0961862 -0.0338923 0)
(0.0951594 -0.0358386 0)
(0.0940601 -0.0377869 0)
(0.0928889 -0.0397343 0)
(0.0916463 -0.0416782 0)
(0.0903324 -0.0436159 0)
(0.0889471 -0.0455451 0)
(0.0874899 -0.0474631 0)
(0.0859613 -0.049366 0)
(0.0843623 -0.0512519 0)
(0.0826916 -0.0531187 0)
(0.0809488 -0.0549647 0)
(0.079134 -0.0567871 0)
(0.0772424 -0.0585814 0)
(0.0752727 -0.0603463 0)
(0.0732287 -0.0620766 0)
(0.0711093 -0.0637715 0)
(0.068916 -0.065427 0)
(0.0666485 -0.0670386 0)
(0.0643049 -0.0686034 0)
(0.0618872 -0.0701185 0)
(0.0593969 -0.0715796 0)
(0.0568372 -0.0729841 0)
(0.0542114 -0.07433 0)
(0.051523 -0.075615 0)
(0.0487783 -0.0768376 0)
(0.0459861 -0.0779977 0)
(0.0431602 -0.0790976 0)
(0.0403239 -0.0801463 0)
(0.0375157 -0.0811656 0)
(0.0347933 -0.0822018 0)
(0.0321942 -0.0833413 0)
(0.0297474 -0.0847237 0)
(0.0275373 -0.0865966 0)
(0.0256876 -0.0893475 0)
(0.0242835 -0.0934958 0)
(0.0233248 -0.0996192 0)
(0.0227558 -0.108269 0)
(0.0224217 -0.119858 0)
(0.0220453 -0.134562 0)
(0.0213465 -0.152332 0)
(0.0200261 -0.172794 0)
(0.0177182 -0.195305 0)
(0.0140761 -0.219054 0)
(0.0088017 -0.243163 0)
(0.00166131 -0.266776 0)
(-0.00737202 -0.289183 0)
(-0.0183374 -0.309781 0)
(-0.0312267 -0.328148 0)
(-0.0458494 -0.343992 0)
(-0.0620576 -0.357188 0)
(-0.0797498 -0.367681 0)
(-0.0988755 -0.375478 0)
(-0.119246 -0.380652 0)
(-0.140443 -0.38333 0)
(-0.162126 -0.383702 0)
(-0.184163 -0.381961 0)
(-0.206524 -0.378299 0)
(-0.229111 -0.372893 0)
(-0.2515 -0.365906 0)
(-0.272667 -0.357472 0)
(-0.290757 -0.347688 0)
(-0.303548 -0.336591 0)
(-0.309816 -0.324179 0)
(-0.309852 -0.310432 0)
(-0.304631 -0.295325 0)
(-0.295055 -0.278837 0)
(-0.281997 -0.260956 0)
(-0.266291 -0.241686 0)
(-0.248689 -0.221046 0)
(-0.229977 -0.199069 0)
(-0.210752 -0.175816 0)
(-0.191462 -0.151362 0)
(-0.172554 -0.125803 0)
(-0.154403 -0.0992504 0)
(-0.137241 -0.0718332 0)
(-0.121021 -0.0437491 0)
(-0.106189 -0.0150823 0)
(0.100008 4.57168e-06 0)
(0.100093 -0.000951405 0)
(0.100161 -0.00208881 0)
(0.100266 -0.00326212 0)
(0.100409 -0.00445257 0)
(0.100548 -0.00567975 0)
(0.100667 -0.00694787 0)
(0.100757 -0.00825853 0)
(0.100809 -0.0096135 0)
(0.100813 -0.0110138 0)
(0.100756 -0.0124578 0)
(0.100631 -0.0139435 0)
(0.10043 -0.0154724 0)
(0.100141 -0.0170399 0)
(0.0997812 -0.0186298 0)
(0.0993474 -0.0202394 0)
(0.0988373 -0.0218683 0)
(0.0982515 -0.0235144 0)
(0.0975916 -0.0251749 0)
(0.0968591 -0.0268474 0)
(0.0960553 -0.0285298 0)
(0.0951806 -0.0302199 0)
(0.0942348 -0.0319153 0)
(0.0932178 -0.0336141 0)
(0.0921294 -0.0353147 0)
(0.0909692 -0.0370156 0)
(0.0897367 -0.0387154 0)
(0.0884318 -0.0404128 0)
(0.0870538 -0.0421059 0)
(0.0856024 -0.043793 0)
(0.0840779 -0.045472 0)
(0.0824799 -0.047141 0)
(0.0808087 -0.0487979 0)
(0.0790647 -0.0504401 0)
(0.0772476 -0.052065 0)
(0.0753569 -0.0536701 0)
(0.0733935 -0.0552506 0)
(0.0713585 -0.0568036 0)
(0.0692529 -0.0583258 0)
(0.0670778 -0.0598138 0)
(0.0648346 -0.0612653 0)
(0.0625251 -0.0626766 0)
(0.0601507 -0.0640446 0)
(0.0577134 -0.0653663 0)
(0.0552159 -0.066639 0)
(0.0526606 -0.0678601 0)
(0.0500513 -0.0690274 0)
(0.0473929 -0.0701388 0)
(0.0446929 -0.0711938 0)
(0.0419641 -0.072194 0)
(0.0392284 -0.0731472 0)
(0.0365231 -0.0740733 0)
(0.0339035 -0.0750145 0)
(0.0314061 -0.0760509 0)
(0.0290595 -0.0773109 0)
(0.0269449 -0.079019 0)
(0.0251834 -0.0815258 0)
(0.02386 -0.0853016 0)
(0.0229758 -0.0908718 0)
(0.0224766 -0.0987435 0)
(0.0222101 -0.109305 0)
(0.0219044 -0.122733 0)
(0.0212901 -0.139002 0)
(0.0200752 -0.157792 0)
(0.0178967 -0.178531 0)
(0.0143944 -0.200475 0)
(0.00925164 -0.222814 0)
(0.00223803 -0.244757 0)
(-0.00666542 -0.265616 0)
(-0.0175211 -0.284828 0)
(-0.030323 -0.301994 0)
(-0.0449079 -0.316841 0)
(-0.0611514 -0.329246 0)
(-0.0789245 -0.339143 0)
(-0.0981678 -0.346528 0)
(-0.118694 -0.351459 0)
(-0.140083 -0.35405 0)
(-0.16199 -0.354472 0)
(-0.184278 -0.352904 0)
(-0.206907 -0.349521 0)
(-0.229765 -0.344486 0)
(-0.252414 -0.337949 0)
(-0.273813 -0.330039 0)
(-0.292084 -0.320854 0)
(-0.304991 -0.310442 0)
(-0.311302 -0.298811 0)
(-0.311316 -0.28595 0)
(-0.306016 -0.271843 0)
(-0.296317 -0.256482 0)
(-0.283104 -0.239859 0)
(-0.267224 -0.221985 0)
(-0.249439 -0.202884 0)
(-0.230535 -0.182591 0)
(-0.211126 -0.161166 0)
(-0.191675 -0.138678 0)
(-0.172637 -0.115213 0)
(-0.154391 -0.0908696 0)
(-0.137176 -0.0657603 0)
(-0.12095 -0.0400588 0)
(-0.106156 -0.013831 0)
(0.100021 -1.94015e-05 0)
(0.100065 -0.000881334 0)
(0.100128 -0.00189477 0)
(0.100194 -0.00295286 0)
(0.100224 -0.00404404 0)
(0.100219 -0.00517584 0)
(0.100186 -0.00634927 0)
(0.100121 -0.0075636 0)
(0.10002 -0.00881818 0)
(0.0998754 -0.0101112 0)
(0.0996826 -0.0114407 0)
(0.0994375 -0.0128037 0)
(0.0991358 -0.0141958 0)
(0.0987731 -0.0156148 0)
(0.098346 -0.017059 0)
(0.0978523 -0.0185255 0)
(0.0972913 -0.020011 0)
(0.096663 -0.0215122 0)
(0.0959673 -0.0230265 0)
(0.095204 -0.0245517 0)
(0.094373 -0.0260856 0)
(0.0934738 -0.0276268 0)
(0.0925062 -0.0291734 0)
(0.0914698 -0.0307237 0)
(0.0903644 -0.0322762 0)
(0.0891898 -0.0338291 0)
(0.087946 -0.0353806 0)
(0.086633 -0.0369288 0)
(0.0852506 -0.0384716 0)
(0.083799 -0.0400067 0)
(0.0822783 -0.0415319 0)
(0.0806885 -0.0430447 0)
(0.0790297 -0.0445426 0)
(0.0773019 -0.046023 0)
(0.0755053 -0.0474834 0)
(0.0736407 -0.0489209 0)
(0.071708 -0.0503326 0)
(0.0697081 -0.0517157 0)
(0.0676417 -0.0530676 0)
(0.06551 -0.0543858 0)
(0.0633139 -0.0556676 0)
(0.0610549 -0.0569107 0)
(0.0587345 -0.0581128 0)
(0.0563545 -0.0592717 0)
(0.0539169 -0.060385 0)
(0.0514242 -0.0614508 0)
(0.04888 -0.062467 0)
(0.0462891 -0.0634323 0)
(0.0436595 -0.0643464 0)
(0.0410044 -0.0652117 0)
(0.0383462 -0.066036 0)
(0.0357218 -0.0668381 0)
(0.0331822 -0.0676557 0)
(0.0307622 -0.0685599 0)
(0.0284947 -0.0696794 0)
(0.0264591 -0.0712132 0)
(0.024771 -0.0734773 0)
(0.0235138 -0.0768968 0)
(0.0226904 -0.081947 0)
(0.0222515 -0.0890886 0)
(0.0220545 -0.0986802 0)
(0.0218327 -0.110894 0)
(0.0213092 -0.125718 0)
(0.0201905 -0.142874 0)
(0.0181213 -0.161856 0)
(0.014751 -0.181992 0)
(0.00974925 -0.202537 0)
(0.0028587 -0.222762 0)
(-0.00591595 -0.242036 0)
(-0.0166485 -0.259808 0)
(-0.0293861 -0.275718 0)
(-0.0439636 -0.289518 0)
(-0.0602218 -0.301065 0)
(-0.078023 -0.310292 0)
(-0.0973266 -0.317197 0)
(-0.117954 -0.321831 0)
(-0.13948 -0.324295 0)
(-0.16155 -0.324741 0)
(-0.184021 -0.323335 0)
(-0.206843 -0.320235 0)
(-0.22989 -0.315593 0)
(-0.25272 -0.309545 0)
(-0.274289 -0.302216 0)
(-0.292705 -0.293702 0)
(-0.30572 -0.284058 0)
(-0.312093 -0.273298 0)
(-0.312121 -0.261417 0)
(-0.306794 -0.248407 0)
(-0.297036 -0.234261 0)
(-0.283738 -0.218978 0)
(-0.26776 -0.202571 0)
(-0.24987 -0.185063 0)
(-0.230856 -0.16649 0)
(-0.21134 -0.146908 0)
(-0.191795 -0.126378 0)
(-0.172681 -0.104979 0)
(-0.15438 -0.0827949 0)
(-0.137136 -0.0599235 0)
(-0.120907 -0.0365176 0)
(-0.106135 -0.0126292 0)
(0.100012 -0.000117391 0)
(0.100028 -0.00100042 0)
(0.100043 -0.00201661 0)
(0.100039 -0.00306878 0)
(0.0999966 -0.0041422 0)
(0.0999226 -0.0052343 0)
(0.0998182 -0.00634607 0)
(0.0996792 -0.0074786 0)
(0.0995007 -0.00863315 0)
(0.0992785 -0.00981072 0)
(0.0990089 -0.0110118 0)
(0.0986886 -0.0122362 0)
(0.0983145 -0.013483 0)
(0.0978844 -0.0147509 0)
(0.0973962 -0.016038 0)
(0.0968483 -0.0173422 0)
(0.0962394 -0.0186614 0)
(0.0955683 -0.0199937 0)
(0.0948341 -0.0213372 0)
(0.094036 -0.0226901 0)
(0.0931734 -0.0240507 0)
(0.0922458 -0.0254174 0)
(0.0912527 -0.0267883 0)
(0.0901939 -0.0281617 0)
(0.089069 -0.0295359 0)
(0.0878779 -0.0309092 0)
(0.0866203 -0.0322798 0)
(0.0852961 -0.0336461 0)
(0.0839052 -0.0350062 0)
(0.0824472 -0.0363584 0)
(0.0809223 -0.0377007 0)
(0.0793302 -0.0390313 0)
(0.0776712 -0.0403481 0)
(0.0759453 -0.0416491 0)
(0.074153 -0.042932 0)
(0.0722948 -0.0441946 0)
(0.0703714 -0.0454349 0)
(0.0683837 -0.0466503 0)
(0.0663329 -0.0478388 0)
(0.0642201 -0.0489982 0)
(0.0620471 -0.0501262 0)
(0.0598152 -0.0512208 0)
(0.0575264 -0.0522799 0)
(0.0551827 -0.0533015 0)
(0.0527862 -0.0542835 0)
(0.0503396 -0.0552242 0)
(0.0478465 -0.0561218 0)
(0.0453116 -0.0569749 0)
(0.042743 -0.0577835 0)
(0.0401537 -0.0585495 0)
(0.0375669 -0.05928 0)
(0.0350237 -0.0599915 0)
(0.0325779 -0.0607182 0)
(0.0302331 -0.0615278 0)
(0.0280297 -0.0625282 0)
(0.026072 -0.0638981 0)
(0.0244589 -0.0659201 0)
(0.0232711 -0.068974 0)
(0.0225132 -0.0734864 0)
(0.0221347 -0.0798746 0)
(0.0219935 -0.0884703 0)
(0.0218385 -0.0994446 0)
(0.0214099 -0.112804 0)
(0.0204065 -0.128308 0)
(0.018462 -0.145503 0)
(0.0152202 -0.163789 0)
(0.0103393 -0.18249 0)
(0.00353403 -0.200943 0)
(-0.0051171 -0.218586 0)
(-0.0157104 -0.234861 0)
(-0.0283824 -0.249448 0)
(-0.0429199 -0.262117 0)
(-0.0591516 -0.272728 0)
(-0.0769646 -0.281223 0)
(-0.0963237 -0.287597 0)
(-0.117034 -0.291894 0)
(-0.138659 -0.294201 0)
(-0.16085 -0.294655 0)
(-0.183457 -0.293402 0)
(-0.206419 -0.290589 0)
(-0.229604 -0.286354 0)
(-0.25257 -0.280824 0)
(-0.274274 -0.274116 0)
(-0.292821 -0.266322 0)
(-0.30595 -0.257503 0)
(-0.312406 -0.247675 0)
(-0.312482 -0.236838 0)
(-0.307171 -0.224985 0)
(-0.297401 -0.212114 0)
(-0.284071 -0.198223 0)
(-0.268047 -0.183326 0)
(-0.250105 -0.167445 0)
(-0.231034 -0.150613 0)
(-0.211461 -0.132881 0)
(-0.191865 -0.114305 0)
(-0.17271 -0.0949522 0)
(-0.154379 -0.0748959 0)
(-0.137117 -0.0542201 0)
(-0.120886 -0.0330587 0)
(-0.106125 -0.0114523 0)
(0.10001 -0.000154422 0)
(0.100003 -0.00100523 0)
(0.0999631 -0.00195954 0)
(0.0998984 -0.00293486 0)
(0.0998119 -0.00391898 0)
(0.0996979 -0.00491375 0)
(0.0995495 -0.00592235 0)
(0.0993618 -0.00694688 0)
(0.0991312 -0.00798852 0)
(0.0988544 -0.00904792 0)
(0.0985287 -0.0101253 0)
(0.0981518 -0.0112205 0)
(0.0977218 -0.0123327 0)
(0.0972373 -0.0134609 0)
(0.0966969 -0.014604 0)
(0.0960991 -0.0157606 0)
(0.095443 -0.0169295 0)
(0.0947274 -0.0181094 0)
(0.0939515 -0.0192988 0)
(0.0931143 -0.0204963 0)
(0.0922153 -0.0217004 0)
(0.0912539 -0.0229094 0)
(0.0902297 -0.0241217 0)
(0.0891423 -0.0253358 0)
(0.0879913 -0.0265502 0)
(0.0867766 -0.0277632 0)
(0.0854979 -0.0289736 0)
(0.0841551 -0.0301796 0)
(0.0827481 -0.0313797 0)
(0.0812769 -0.0325724 0)
(0.0797414 -0.0337558 0)
(0.0781419 -0.0349283 0)
(0.0764787 -0.036088 0)
(0.0747522 -0.0372329 0)
(0.0729629 -0.0383611 0)
(0.0711116 -0.0394705 0)
(0.0691991 -0.0405593 0)
(0.0672265 -0.0416253 0)
(0.0651951 -0.0426666 0)
(0.063106 -0.0436812 0)
(0.0609608 -0.0446673 0)
(0.0587611 -0.045623 0)
(0.0565085 -0.0465466 0)
(0.0542049 -0.0474362 0)
(0.0518523 -0.0482901 0)
(0.0494532 -0.0491066 0)
(0.0470109 -0.0498841 0)
(0.0445302 -0.0506216 0)
(0.042019 -0.0513189 0)
(0.0394906 -0.0519778 0)
(0.036969 -0.0526051 0)
(0.0344923 -0.0532162 0)
(0.0320926 -0.0538442 0)
(0.0298028 -0.0545525 0)
(0.0276774 -0.0554272 0)
(0.0257857 -0.0566309 0)
(0.0242292 -0.0584161 0)
(0.0230937 -0.0611196 0)
(0.022388 -0.0651202 0)
(0.0220673 -0.0707914 0)
(0.0219927 -0.0784311 0)
(0.0219054 -0.0881969 0)
(0.0215495 -0.100107 0)
(0.0206456 -0.113965 0)
(0.0188309 -0.129376 0)
(0.0157373 -0.145804 0)
(0.010996 -0.162639 0)
(0.00424588 -0.179276 0)
(-0.00429176 -0.195209 0)
(-0.0146994 -0.209924 0)
(-0.0272672 -0.223125 0)
(-0.0417547 -0.234606 0)
(-0.0579761 -0.244239 0)
(-0.0758043 -0.251968 0)
(-0.0951988 -0.25778 0)
(-0.115975 -0.26171 0)
(-0.137686 -0.263834 0)
(-0.159964 -0.264277 0)
(-0.182669 -0.26317 0)
(-0.205738 -0.260649 0)
(-0.229028 -0.256836 0)
(-0.252099 -0.251847 0)
(-0.273917 -0.24579 0)
(-0.292591 -0.238755 0)
(-0.305844 -0.230802 0)
(-0.312403 -0.22195 0)
(-0.312553 -0.212199 0)
(-0.307289 -0.201545 0)
(-0.297541 -0.189986 0)
(-0.284213 -0.17752 0)
(-0.268181 -0.164161 0)
(-0.250222 -0.149926 0)
(-0.231127 -0.134848 0)
(-0.21153 -0.118971 0)
(-0.191911 -0.102346 0)
(-0.172736 -0.0850283 0)
(-0.15439 -0.0670826 0)
(-0.137118 -0.0485798 0)
(-0.120882 -0.0296364 0)
(-0.106123 -0.010284 0)
(0.10001 -0.00015907 0)
(0.0999978 -0.000985758 0)
(0.0999468 -0.00187168 0)
(0.0998677 -0.00275618 0)
(0.0997559 -0.00364138 0)
(0.0996042 -0.00453406 0)
(0.0994107 -0.00543756 0)
(0.0991742 -0.00635353 0)